MODEL 1
REMARK VINA RESULT:    -5.976      0.000      0.000
REMARK INTER + INTRA:          -7.502
REMARK INTER:                  -7.024
REMARK INTRA:                  -0.478
REMARK UNBOUND:                -0.478
REMARK SMILES Cc1ccc(CNC(=O)NC(=O)c2ccc(C)cc2)cc1
REMARK SMILES IDX 11 1 12 2 10 3 8 4 9 5 7 6 13 9 19 10 18 11 14 12 16 13
REMARK SMILES IDX 15 14 17 15 6 16 5 17 4 18 20 19 3 20 21 21 2 22 1 23
REMARK H PARENT 10 7 7 8
ROOT
ATOM      1  C   UNL     1       3.736  -0.765  10.632  1.00  0.00     0.259 C 
ATOM      2  O   UNL     1       2.914  -0.577   9.746  1.00  0.00    -0.269 OA
ATOM      3  N   UNL     1       5.007  -1.340  10.538  1.00  0.00    -0.274 N 
ATOM      4  C   UNL     1       5.899  -1.671   9.551  1.00  0.00     0.321 C 
ATOM      5  O   UNL     1       7.022  -2.054   9.897  1.00  0.00    -0.248 OA
ATOM      6  N   UNL     1       5.625  -1.572   8.237  1.00  0.00    -0.334 N 
ATOM      7  H   UNL     1       5.499  -1.409  11.419  1.00  0.00     0.175 HD
ATOM      8  H   UNL     1       6.416  -1.772   7.641  1.00  0.00     0.165 HD
ENDROOT
BRANCH   1   9
ATOM      9  C   UNL     1       3.355  -0.330  11.989  1.00  0.00     0.040 A 
ATOM     10  C   UNL     1       2.069  -0.542  12.488  1.00  0.00     0.014 A 
ATOM     11  C   UNL     1       1.771  -0.160  13.797  1.00  0.00     0.004 A 
ATOM     12  C   UNL     1       4.323   0.314  12.768  1.00  0.00     0.014 A 
ATOM     13  C   UNL     1       2.750   0.439  14.604  1.00  0.00    -0.051 A 
ATOM     14  C   UNL     1       4.023   0.688  14.076  1.00  0.00     0.004 A 
ATOM     15  C   UNL     1       2.440   0.767  16.035  1.00  0.00     0.044 C 
ENDBRANCH   1   9
BRANCH   6  16
ATOM     16  C   UNL     1       4.432  -1.057   7.627  1.00  0.00     0.153 C 
BRANCH  16  17
ATOM     17  C   UNL     1       3.893  -1.795   6.434  1.00  0.00    -0.029 A 
ATOM     18  C   UNL     1       4.288  -1.518   5.121  1.00  0.00     0.006 A 
ATOM     19  C   UNL     1       3.124  -2.944   6.682  1.00  0.00     0.006 A 
ATOM     20  C   UNL     1       3.939  -2.391   4.085  1.00  0.00     0.004 A 
ATOM     21  C   UNL     1       2.781  -3.814   5.652  1.00  0.00     0.004 A 
ATOM     22  C   UNL     1       3.194  -3.550   4.345  1.00  0.00    -0.051 A 
ATOM     23  C   UNL     1       2.938  -4.561   3.268  1.00  0.00     0.044 C 
ENDBRANCH  16  17
ENDBRANCH   6  16
TORSDOF 3
ENDMDL
MODEL 2
REMARK VINA RESULT:    -5.973      3.020      5.432
REMARK INTER + INTRA:          -7.498
REMARK INTER:                  -7.019
REMARK INTRA:                  -0.479
REMARK UNBOUND:                -0.478
REMARK SMILES Cc1ccc(CNC(=O)NC(=O)c2ccc(C)cc2)cc1
REMARK SMILES IDX 11 1 12 2 10 3 8 4 9 5 7 6 13 9 19 10 18 11 14 12 16 13
REMARK SMILES IDX 15 14 17 15 6 16 5 17 4 18 20 19 3 20 21 21 2 22 1 23
REMARK H PARENT 10 7 7 8
ROOT
ATOM      1  C   UNL     1       6.794  -2.134   9.263  1.00  0.00     0.259 C 
ATOM      2  O   UNL     1       6.629  -2.460   8.096  1.00  0.00    -0.269 OA
ATOM      3  N   UNL     1       5.895  -1.510  10.133  1.00  0.00    -0.274 N 
ATOM      4  C   UNL     1       4.550  -1.244  10.181  1.00  0.00     0.321 C 
ATOM      5  O   UNL     1       4.097  -0.769  11.227  1.00  0.00    -0.248 OA
ATOM      6  N   UNL     1       3.704  -1.502   9.167  1.00  0.00    -0.334 N 
ATOM      7  H   UNL     1       6.269  -1.318  11.053  1.00  0.00     0.175 HD
ATOM      8  H   UNL     1       2.735  -1.330   9.392  1.00  0.00     0.165 HD
ENDROOT
BRANCH   1   9
ATOM      9  C   UNL     1       8.113  -2.435   9.853  1.00  0.00     0.040 A 
ATOM     10  C   UNL     1       9.294  -2.243   9.133  1.00  0.00     0.014 A 
ATOM     11  C   UNL     1      10.519  -2.492   9.751  1.00  0.00     0.004 A 
ATOM     12  C   UNL     1       8.150  -2.928  11.161  1.00  0.00     0.014 A 
ATOM     13  C   UNL     1      10.569  -2.938  11.081  1.00  0.00    -0.051 A 
ATOM     14  C   UNL     1       9.377  -3.169  11.776  1.00  0.00     0.004 A 
ATOM     15  C   UNL     1      11.896  -3.119  11.758  1.00  0.00     0.044 C 
ENDBRANCH   1   9
BRANCH   6  16
ATOM     16  C   UNL     1       4.004  -2.142   7.917  1.00  0.00     0.153 C 
BRANCH  16  17
ATOM     17  C   UNL     1       3.375  -1.566   6.678  1.00  0.00    -0.029 A 
ATOM     18  C   UNL     1       2.116  -1.955   6.209  1.00  0.00     0.006 A 
ATOM     19  C   UNL     1       3.997  -0.446   6.103  1.00  0.00     0.006 A 
ATOM     20  C   UNL     1       1.487  -1.218   5.201  1.00  0.00     0.004 A 
ATOM     21  C   UNL     1       3.367   0.289   5.104  1.00  0.00     0.004 A 
ATOM     22  C   UNL     1       2.101  -0.085   4.651  1.00  0.00    -0.051 A 
ATOM     23  C   UNL     1       1.374   0.791   3.674  1.00  0.00     0.044 C 
ENDBRANCH  16  17
ENDBRANCH   6  16
TORSDOF 3
ENDMDL
MODEL 3
REMARK VINA RESULT:    -5.944      0.524      8.069
REMARK INTER + INTRA:          -7.465
REMARK INTER:                  -7.097
REMARK INTRA:                  -0.368
REMARK UNBOUND:                -0.478
REMARK SMILES Cc1ccc(CNC(=O)NC(=O)c2ccc(C)cc2)cc1
REMARK SMILES IDX 11 1 12 2 10 3 8 4 9 5 7 6 13 9 19 10 18 11 14 12 16 13
REMARK SMILES IDX 15 14 17 15 6 16 5 17 4 18 20 19 3 20 21 21 2 22 1 23
REMARK H PARENT 10 7 7 8
ROOT
ATOM      1  C   UNL     1       3.998  -1.610   7.906  1.00  0.00     0.259 C 
ATOM      2  O   UNL     1       3.141  -0.822   8.281  1.00  0.00    -0.269 OA
ATOM      3  N   UNL     1       5.204  -1.952   8.525  1.00  0.00    -0.274 N 
ATOM      4  C   UNL     1       5.789  -1.802   9.756  1.00  0.00     0.321 C 
ATOM      5  O   UNL     1       6.859  -2.387   9.957  1.00  0.00    -0.248 OA
ATOM      6  N   UNL     1       5.247  -1.082  10.755  1.00  0.00    -0.334 N 
ATOM      7  H   UNL     1       5.764  -2.617   8.008  1.00  0.00     0.175 HD
ATOM      8  H   UNL     1       5.758  -1.142  11.624  1.00  0.00     0.165 HD
ENDROOT
BRANCH   1   9
ATOM      9  C   UNL     1       3.741  -2.307   6.631  1.00  0.00     0.040 A 
ATOM     10  C   UNL     1       4.346  -1.895   5.441  1.00  0.00     0.014 A 
ATOM     11  C   UNL     1       4.113  -2.618   4.271  1.00  0.00     0.004 A 
ATOM     12  C   UNL     1       2.863  -3.395   6.642  1.00  0.00     0.014 A 
ATOM     13  C   UNL     1       3.275  -3.743   4.282  1.00  0.00    -0.051 A 
ATOM     14  C   UNL     1       2.639  -4.118   5.472  1.00  0.00     0.004 A 
ATOM     15  C   UNL     1       3.103  -4.559   3.035  1.00  0.00     0.044 C 
ENDBRANCH   1   9
BRANCH   6  16
ATOM     16  C   UNL     1       3.975  -0.416  10.765  1.00  0.00     0.153 C 
BRANCH  16  17
ATOM     17  C   UNL     1       3.399  -0.048  12.104  1.00  0.00    -0.029 A 
ATOM     18  C   UNL     1       2.113  -0.422  12.510  1.00  0.00     0.006 A 
ATOM     19  C   UNL     1       4.274   0.509  13.050  1.00  0.00     0.006 A 
ATOM     20  C   UNL     1       1.727  -0.261  13.845  1.00  0.00     0.004 A 
ATOM     21  C   UNL     1       3.890   0.664  14.378  1.00  0.00     0.004 A 
ATOM     22  C   UNL     1       2.616   0.271  14.790  1.00  0.00    -0.051 A 
ATOM     23  C   UNL     1       2.260   0.314  16.246  1.00  0.00     0.044 C 
ENDBRANCH  16  17
ENDBRANCH   6  16
TORSDOF 3
ENDMDL
MODEL 4
REMARK VINA RESULT:    -5.938      3.163      7.353
REMARK INTER + INTRA:          -7.457
REMARK INTER:                  -7.088
REMARK INTRA:                  -0.369
REMARK UNBOUND:                -0.478
REMARK SMILES Cc1ccc(CNC(=O)NC(=O)c2ccc(C)cc2)cc1
REMARK SMILES IDX 11 1 12 2 10 3 8 4 9 5 7 6 13 9 19 10 18 11 14 12 16 13
REMARK SMILES IDX 15 14 17 15 6 16 5 17 4 18 20 19 3 20 21 21 2 22 1 23
REMARK H PARENT 10 7 7 8
ROOT
ATOM      1  C   UNL     1       4.455  -1.584   7.675  1.00  0.00     0.259 C 
ATOM      2  O   UNL     1       5.327  -2.369   7.329  1.00  0.00    -0.269 OA
ATOM      3  N   UNL     1       4.162  -1.112   8.959  1.00  0.00    -0.274 N 
ATOM      4  C   UNL     1       4.760  -1.092  10.192  1.00  0.00     0.321 C 
ATOM      5  O   UNL     1       4.215  -0.433  11.084  1.00  0.00    -0.248 OA
ATOM      6  N   UNL     1       5.916  -1.724  10.469  1.00  0.00    -0.334 N 
ATOM      7  H   UNL     1       3.373  -0.480   9.000  1.00  0.00     0.175 HD
ATOM      8  H   UNL     1       6.267  -1.541  11.398  1.00  0.00     0.165 HD
ENDROOT
BRANCH   1   9
ATOM      9  C   UNL     1       3.587  -1.048   6.609  1.00  0.00     0.040 A 
ATOM     10  C   UNL     1       2.308  -1.561   6.384  1.00  0.00     0.014 A 
ATOM     11  C   UNL     1       1.505  -0.987   5.399  1.00  0.00     0.004 A 
ATOM     12  C   UNL     1       4.085  -0.008   5.817  1.00  0.00     0.014 A 
ATOM     13  C   UNL     1       1.976   0.091   4.634  1.00  0.00    -0.051 A 
ATOM     14  C   UNL     1       3.277   0.567   4.839  1.00  0.00     0.004 A 
ATOM     15  C   UNL     1       1.070   0.752   3.638  1.00  0.00     0.044 C 
ENDBRANCH   1   9
BRANCH   6  16
ATOM     16  C   UNL     1       6.756  -2.451   9.560  1.00  0.00     0.153 C 
BRANCH  16  17
ATOM     17  C   UNL     1       8.180  -2.693   9.980  1.00  0.00    -0.029 A 
ATOM     18  C   UNL     1       9.279  -2.345   9.187  1.00  0.00     0.006 A 
ATOM     19  C   UNL     1       8.400  -3.090  11.309  1.00  0.00     0.006 A 
ATOM     20  C   UNL     1      10.568  -2.372   9.729  1.00  0.00     0.004 A 
ATOM     21  C   UNL     1       9.682  -3.111  11.847  1.00  0.00     0.004 A 
ATOM     22  C   UNL     1      10.778  -2.742  11.064  1.00  0.00    -0.051 A 
ATOM     23  C   UNL     1      12.136  -2.637  11.691  1.00  0.00     0.044 C 
ENDBRANCH  16  17
ENDBRANCH   6  16
TORSDOF 3
ENDMDL
MODEL 5
REMARK VINA RESULT:    -5.716      2.991      5.153
REMARK INTER + INTRA:          -7.197
REMARK INTER:                  -6.748
REMARK INTRA:                  -0.449
REMARK UNBOUND:                -0.478
REMARK SMILES Cc1ccc(CNC(=O)NC(=O)c2ccc(C)cc2)cc1
REMARK SMILES IDX 11 1 12 2 10 3 8 4 9 5 7 6 13 9 19 10 18 11 14 12 16 13
REMARK SMILES IDX 15 14 17 15 6 16 5 17 4 18 20 19 3 20 21 21 2 22 1 23
REMARK H PARENT 10 7 7 8
ROOT
ATOM      1  C   UNL     1       6.879  -2.311   9.160  1.00  0.00     0.259 C 
ATOM      2  O   UNL     1       6.740  -2.834   8.063  1.00  0.00    -0.269 OA
ATOM      3  N   UNL     1       5.971  -1.524   9.876  1.00  0.00    -0.274 N 
ATOM      4  C   UNL     1       4.634  -1.225   9.831  1.00  0.00     0.321 C 
ATOM      5  O   UNL     1       4.162  -0.563  10.761  1.00  0.00    -0.248 OA
ATOM      6  N   UNL     1       3.811  -1.638   8.849  1.00  0.00    -0.334 N 
ATOM      7  H   UNL     1       6.323  -1.182  10.760  1.00  0.00     0.175 HD
ATOM      8  H   UNL     1       2.841  -1.408   9.007  1.00  0.00     0.165 HD
ENDROOT
BRANCH   1   9
ATOM      9  C   UNL     1       8.170  -2.533   9.839  1.00  0.00     0.040 A 
ATOM     10  C   UNL     1       9.383  -2.297   9.190  1.00  0.00     0.014 A 
ATOM     11  C   UNL     1      10.578  -2.470   9.889  1.00  0.00     0.004 A 
ATOM     12  C   UNL     1       8.148  -2.997  11.158  1.00  0.00     0.014 A 
ATOM     13  C   UNL     1      10.565  -2.886  11.229  1.00  0.00    -0.051 A 
ATOM     14  C   UNL     1       9.343  -3.163  11.854  1.00  0.00     0.004 A 
ATOM     15  C   UNL     1      11.853  -2.986  11.993  1.00  0.00     0.044 C 
ENDBRANCH   1   9
BRANCH   6  16
ATOM     16  C   UNL     1       4.130  -2.494   7.741  1.00  0.00     0.153 C 
BRANCH  16  17
ATOM     17  C   UNL     1       3.594  -2.105   6.392  1.00  0.00    -0.029 A 
ATOM     18  C   UNL     1       4.336  -2.225   5.212  1.00  0.00     0.006 A 
ATOM     19  C   UNL     1       2.224  -1.812   6.304  1.00  0.00     0.006 A 
ATOM     20  C   UNL     1       3.707  -2.077   3.971  1.00  0.00     0.004 A 
ATOM     21  C   UNL     1       1.598  -1.670   5.070  1.00  0.00     0.004 A 
ATOM     22  C   UNL     1       2.333  -1.812   3.891  1.00  0.00    -0.051 A 
ATOM     23  C   UNL     1       1.626  -1.794   2.569  1.00  0.00     0.044 C 
ENDBRANCH  16  17
ENDBRANCH   6  16
TORSDOF 3
ENDMDL
MODEL 6
REMARK VINA RESULT:    -5.716      1.041      1.361
REMARK INTER + INTRA:          -7.197
REMARK INTER:                  -6.744
REMARK INTRA:                  -0.453
REMARK UNBOUND:                -0.478
REMARK SMILES Cc1ccc(CNC(=O)NC(=O)c2ccc(C)cc2)cc1
REMARK SMILES IDX 11 1 12 2 10 3 8 4 9 5 7 6 13 9 19 10 18 11 14 12 16 13
REMARK SMILES IDX 15 14 17 15 6 16 5 17 4 18 20 19 3 20 21 21 2 22 1 23
REMARK H PARENT 10 7 7 8
ROOT
ATOM      1  C   UNL     1       3.602  -0.580  10.632  1.00  0.00     0.259 C 
ATOM      2  O   UNL     1       2.815  -0.185   9.784  1.00  0.00    -0.269 OA
ATOM      3  N   UNL     1       4.768  -1.334  10.461  1.00  0.00    -0.274 N 
ATOM      4  C   UNL     1       5.592  -1.706   9.430  1.00  0.00     0.321 C 
ATOM      5  O   UNL     1       6.642  -2.289   9.718  1.00  0.00    -0.248 OA
ATOM      6  N   UNL     1       5.330  -1.442   8.136  1.00  0.00    -0.334 N 
ATOM      7  H   UNL     1       5.247  -1.561  11.322  1.00  0.00     0.175 HD
ATOM      8  H   UNL     1       6.076  -1.706   7.509  1.00  0.00     0.165 HD
ENDROOT
BRANCH   1   9
ATOM      9  C   UNL     1       3.301  -0.220  12.032  1.00  0.00     0.040 A 
ATOM     10  C   UNL     1       2.044  -0.456  12.590  1.00  0.00     0.014 A 
ATOM     11  C   UNL     1       1.823  -0.147  13.932  1.00  0.00     0.004 A 
ATOM     12  C   UNL     1       4.315   0.374  12.789  1.00  0.00     0.014 A 
ATOM     13  C   UNL     1       2.849   0.402  14.715  1.00  0.00    -0.051 A 
ATOM     14  C   UNL     1       4.092   0.675  14.131  1.00  0.00     0.004 A 
ATOM     15  C   UNL     1       2.622   0.650  16.177  1.00  0.00     0.044 C 
ENDBRANCH   1   9
BRANCH   6  16
ATOM     16  C   UNL     1       4.229  -0.693   7.600  1.00  0.00     0.153 C 
BRANCH  16  17
ATOM     17  C   UNL     1       3.530  -1.260   6.396  1.00  0.00    -0.029 A 
ATOM     18  C   UNL     1       2.138  -1.292   6.265  1.00  0.00     0.006 A 
ATOM     19  C   UNL     1       4.324  -1.571   5.279  1.00  0.00     0.006 A 
ATOM     20  C   UNL     1       1.558  -1.605   5.031  1.00  0.00     0.004 A 
ATOM     21  C   UNL     1       3.745  -1.878   4.052  1.00  0.00     0.004 A 
ATOM     22  C   UNL     1       2.356  -1.888   3.914  1.00  0.00    -0.051 A 
ATOM     23  C   UNL     1       1.746  -2.084   2.559  1.00  0.00     0.044 C 
ENDBRANCH  16  17
ENDBRANCH   6  16
TORSDOF 3
ENDMDL
MODEL 7
REMARK VINA RESULT:    -5.665      3.176      7.425
REMARK INTER + INTRA:          -7.136
REMARK INTER:                  -6.772
REMARK INTRA:                  -0.365
REMARK UNBOUND:                -0.478
REMARK SMILES Cc1ccc(CNC(=O)NC(=O)c2ccc(C)cc2)cc1
REMARK SMILES IDX 11 1 12 2 10 3 8 4 9 5 7 6 13 9 19 10 18 11 14 12 16 13
REMARK SMILES IDX 15 14 17 15 6 16 5 17 4 18 20 19 3 20 21 21 2 22 1 23
REMARK H PARENT 10 7 7 8
ROOT
ATOM      1  C   UNL     1       4.481  -1.498   7.713  1.00  0.00     0.259 C 
ATOM      2  O   UNL     1       5.362  -2.261   7.340  1.00  0.00    -0.269 OA
ATOM      3  N   UNL     1       4.183  -1.073   9.011  1.00  0.00    -0.274 N 
ATOM      4  C   UNL     1       4.781  -1.089  10.245  1.00  0.00     0.321 C 
ATOM      5  O   UNL     1       4.228  -0.466  11.158  1.00  0.00    -0.248 OA
ATOM      6  N   UNL     1       5.944  -1.717  10.501  1.00  0.00    -0.334 N 
ATOM      7  H   UNL     1       3.387  -0.452   9.074  1.00  0.00     0.175 HD
ATOM      8  H   UNL     1       6.293  -1.562  11.435  1.00  0.00     0.165 HD
ENDROOT
BRANCH   1   9
ATOM      9  C   UNL     1       3.608  -0.936   6.665  1.00  0.00     0.040 A 
ATOM     10  C   UNL     1       4.042   0.099   5.833  1.00  0.00     0.014 A 
ATOM     11  C   UNL     1       3.199   0.562   4.822  1.00  0.00     0.004 A 
ATOM     12  C   UNL     1       2.321  -1.465   6.529  1.00  0.00     0.014 A 
ATOM     13  C   UNL     1       1.925   0.002   4.644  1.00  0.00    -0.051 A 
ATOM     14  C   UNL     1       1.485  -1.003   5.513  1.00  0.00     0.004 A 
ATOM     15  C   UNL     1       1.065   0.452   3.500  1.00  0.00     0.044 C 
ENDBRANCH   1   9
BRANCH   6  16
ATOM     16  C   UNL     1       6.792  -2.403   9.568  1.00  0.00     0.153 C 
BRANCH  16  17
ATOM     17  C   UNL     1       8.205  -2.685   9.998  1.00  0.00    -0.029 A 
ATOM     18  C   UNL     1       9.318  -2.380   9.209  1.00  0.00     0.006 A 
ATOM     19  C   UNL     1       8.405  -3.075  11.332  1.00  0.00     0.006 A 
ATOM     20  C   UNL     1      10.604  -2.442   9.758  1.00  0.00     0.004 A 
ATOM     21  C   UNL     1       9.683  -3.131  11.878  1.00  0.00     0.004 A 
ATOM     22  C   UNL     1      10.794  -2.805  11.098  1.00  0.00    -0.051 A 
ATOM     23  C   UNL     1      12.151  -2.736  11.732  1.00  0.00     0.044 C 
ENDBRANCH  16  17
ENDBRANCH   6  16
TORSDOF 3
ENDMDL
MODEL 8
REMARK VINA RESULT:    -4.378      4.160      8.156
REMARK INTER + INTRA:          -5.624
REMARK INTER:                  -5.275
REMARK INTRA:                  -0.349
REMARK UNBOUND:                -0.478
REMARK SMILES Cc1ccc(CNC(=O)NC(=O)c2ccc(C)cc2)cc1
REMARK SMILES IDX 11 1 12 2 10 3 8 4 9 5 7 6 13 9 19 10 18 11 14 12 16 13
REMARK SMILES IDX 15 14 17 15 6 16 5 17 4 18 20 19 3 20 21 21 2 22 1 23
REMARK H PARENT 10 7 7 8
ROOT
ATOM      1  C   UNL     1       6.105  -1.913   9.422  1.00  0.00     0.259 C 
ATOM      2  O   UNL     1       5.804  -1.762  10.598  1.00  0.00    -0.269 OA
ATOM      3  N   UNL     1       7.355  -2.210   8.870  1.00  0.00    -0.274 N 
ATOM      4  C   UNL     1       8.576  -2.656   9.308  1.00  0.00     0.321 C 
ATOM      5  O   UNL     1       9.425  -2.932   8.454  1.00  0.00    -0.248 OA
ATOM      6  N   UNL     1       8.881  -2.836  10.606  1.00  0.00    -0.334 N 
ATOM      7  H   UNL     1       7.362  -2.266   7.860  1.00  0.00     0.175 HD
ATOM      8  H   UNL     1       9.789  -3.251  10.757  1.00  0.00     0.165 HD
ENDROOT
BRANCH   1   9
ATOM      9  C   UNL     1       5.015  -1.772   8.438  1.00  0.00     0.040 A 
ATOM     10  C   UNL     1       4.731  -0.543   7.837  1.00  0.00     0.014 A 
ATOM     11  C   UNL     1       3.726  -0.470   6.873  1.00  0.00     0.004 A 
ATOM     12  C   UNL     1       4.262  -2.907   8.123  1.00  0.00     0.014 A 
ATOM     13  C   UNL     1       2.999  -1.615   6.513  1.00  0.00    -0.051 A 
ATOM     14  C   UNL     1       3.263  -2.830   7.155  1.00  0.00     0.004 A 
ATOM     15  C   UNL     1       1.980  -1.537   5.414  1.00  0.00     0.044 C 
ENDBRANCH   1   9
BRANCH   6  16
ATOM     16  C   UNL     1       8.014  -2.676  11.740  1.00  0.00     0.153 C 
BRANCH  16  17
ATOM     17  C   UNL     1       8.444  -3.314  13.032  1.00  0.00    -0.029 A 
ATOM     18  C   UNL     1       8.819  -4.657  13.132  1.00  0.00     0.006 A 
ATOM     19  C   UNL     1       8.674  -2.462  14.124  1.00  0.00     0.006 A 
ATOM     20  C   UNL     1       9.434  -5.127  14.297  1.00  0.00     0.004 A 
ATOM     21  C   UNL     1       9.290  -2.929  15.281  1.00  0.00     0.004 A 
ATOM     22  C   UNL     1       9.685  -4.265  15.373  1.00  0.00    -0.051 A 
ATOM     23  C   UNL     1      10.470  -4.725  16.565  1.00  0.00     0.044 C 
ENDBRANCH  16  17
ENDBRANCH   6  16
TORSDOF 3
ENDMDL
MODEL 9
REMARK VINA RESULT:    -4.023      4.661      6.560
REMARK INTER + INTRA:          -5.207
REMARK INTER:                  -4.725
REMARK INTRA:                  -0.481
REMARK UNBOUND:                -0.478
REMARK SMILES Cc1ccc(CNC(=O)NC(=O)c2ccc(C)cc2)cc1
REMARK SMILES IDX 11 1 12 2 10 3 8 4 9 5 7 6 13 9 19 10 18 11 14 12 16 13
REMARK SMILES IDX 15 14 17 15 6 16 5 17 4 18 20 19 3 20 21 21 2 22 1 23
REMARK H PARENT 10 7 7 8
ROOT
ATOM      1  C   UNL     1       8.935  -3.549  11.480  1.00  0.00     0.259 C 
ATOM      2  O   UNL     1       7.827  -4.018  11.263  1.00  0.00    -0.269 OA
ATOM      3  N   UNL     1       9.744  -2.787  10.631  1.00  0.00    -0.274 N 
ATOM      4  C   UNL     1       9.609  -2.095   9.454  1.00  0.00     0.321 C 
ATOM      5  O   UNL     1      10.566  -1.410   9.079  1.00  0.00    -0.248 OA
ATOM      6  N   UNL     1       8.486  -2.100   8.712  1.00  0.00    -0.334 N 
ATOM      7  H   UNL     1      10.637  -2.528  11.027  1.00  0.00     0.175 HD
ATOM      8  H   UNL     1       8.518  -1.472   7.922  1.00  0.00     0.165 HD
ENDROOT
BRANCH   1   9
ATOM      9  C   UNL     1       9.513  -3.807  12.813  1.00  0.00     0.040 A 
ATOM     10  C   UNL     1       9.024  -4.824  13.634  1.00  0.00     0.014 A 
ATOM     11  C   UNL     1       9.637  -5.064  14.864  1.00  0.00     0.004 A 
ATOM     12  C   UNL     1      10.568  -2.994  13.239  1.00  0.00     0.014 A 
ATOM     13  C   UNL     1      10.729  -4.288  15.279  1.00  0.00    -0.051 A 
ATOM     14  C   UNL     1      11.182  -3.242  14.466  1.00  0.00     0.004 A 
ATOM     15  C   UNL     1      11.431  -4.613  16.565  1.00  0.00     0.044 C 
ENDBRANCH   1   9
BRANCH   6  16
ATOM     16  C   UNL     1       7.237  -2.738   9.019  1.00  0.00     0.153 C 
BRANCH  16  17
ATOM     17  C   UNL     1       6.067  -1.848   9.338  1.00  0.00    -0.029 A 
ATOM     18  C   UNL     1       5.045  -1.574   8.424  1.00  0.00     0.006 A 
ATOM     19  C   UNL     1       5.904  -1.456  10.676  1.00  0.00     0.006 A 
ATOM     20  C   UNL     1       3.873  -0.943   8.853  1.00  0.00     0.004 A 
ATOM     21  C   UNL     1       4.736  -0.832  11.103  1.00  0.00     0.004 A 
ATOM     22  C   UNL     1       3.705  -0.579  10.197  1.00  0.00    -0.051 A 
ATOM     23  C   UNL     1       2.399  -0.033  10.692  1.00  0.00     0.044 C 
ENDBRANCH  16  17
ENDBRANCH   6  16
TORSDOF 3
ENDMDL
