MODEL 1
REMARK VINA RESULT:    -4.026      0.000      0.000
REMARK INTER + INTRA:          -5.544
REMARK INTER:                  -5.320
REMARK INTRA:                  -0.224
REMARK UNBOUND:                -0.224
REMARK SMILES [H]/N=C\C[C@H]1C[C@@H]1O[C@H]1CO[C@H]2C[C@@H](C3CC3)CCN2C1
REMARK SMILES IDX 7 1 6 2 5 3 8 4 9 5 14 6 13 7 18 8 12 9 19 10 20 11 11 12
REMARK SMILES IDX 21 13 10 14 15 15 16 16 17 17 4 18 3 19 2 20 1 21
REMARK H PARENT
ROOT
ATOM      1  C   UNL     1      11.767   6.526   3.923  1.00  0.00     0.122 C 
ATOM      2  C   UNL     1      12.714   6.888   5.033  1.00  0.00     0.039 C 
ATOM      3  C   UNL     1      12.911   5.611   4.266  1.00  0.00     0.026 C 
ENDROOT
BRANCH   1   4
ATOM      4  O   UNL     1      10.461   6.121   4.375  1.00  0.00    -0.371 OA
BRANCH   4   5
ATOM      5  C   UNL     1       9.617   7.178   4.859  1.00  0.00     0.158 C 
ATOM      6  C   UNL     1       5.183   5.789   2.490  1.00  0.00    -0.003 C 
ATOM      7  C   UNL     1       6.521   6.392   2.048  1.00  0.00     0.052 C 
ATOM      8  C   UNL     1       5.418   4.851   3.682  1.00  0.00     0.019 C 
ATOM      9  C   UNL     1       7.266   7.046   3.220  1.00  0.00     0.189 C 
ATOM     10  C   UNL     1       6.193   5.551   4.799  1.00  0.00     0.087 C 
ATOM     11  N   UNL     1       7.463   6.081   4.302  1.00  0.00    -0.276 NA
ATOM     12  O   UNL     1       8.507   7.526   2.698  1.00  0.00    -0.360 OA
ATOM     13  C   UNL     1       8.257   6.679   5.380  1.00  0.00     0.121 C 
ATOM     14  C   UNL     1       9.336   8.134   3.694  1.00  0.00     0.195 C 
BRANCH   6  15
ATOM     15  C   UNL     1       4.507   5.048   1.358  1.00  0.00    -0.008 C 
ATOM     16  C   UNL     1       3.038   5.257   1.077  1.00  0.00     0.004 C 
ATOM     17  C   UNL     1       4.063   5.777   0.112  1.00  0.00     0.004 C 
ENDBRANCH   6  15
ENDBRANCH   4   5
ENDBRANCH   1   4
BRANCH   3  18
ATOM     18  C   UNL     1      14.087   5.494   3.342  1.00  0.00     0.053 C 
BRANCH  18  19
ATOM     19  C   UNL     1      15.442   5.740   3.953  1.00  0.00     0.074 C 
BRANCH  19  20
ATOM     20  N   UNL     1      16.156   4.871   4.587  1.00  0.00    -0.313 NA
ATOM     21  H   UNL     1      17.164   5.041   4.458  1.00  0.00     0.186 HD
ENDBRANCH  19  20
ENDBRANCH  18  19
ENDBRANCH   3  18
TORSDOF 6
ENDMDL
MODEL 2
REMARK VINA RESULT:    -3.998      3.305      5.560
REMARK INTER + INTRA:          -5.508
REMARK INTER:                  -5.304
REMARK INTRA:                  -0.203
REMARK UNBOUND:                -0.224
REMARK SMILES [H]/N=C\C[C@H]1C[C@@H]1O[C@H]1CO[C@H]2C[C@@H](C3CC3)CCN2C1
REMARK SMILES IDX 7 1 6 2 5 3 8 4 9 5 14 6 13 7 18 8 12 9 19 10 20 11 11 12
REMARK SMILES IDX 21 13 10 14 15 15 16 16 17 17 4 18 3 19 2 20 1 21
REMARK H PARENT
ROOT
ATOM      1  C   UNL     1       8.840  10.437   4.093  1.00  0.00     0.122 C 
ATOM      2  C   UNL     1       9.774  11.433   3.465  1.00  0.00     0.039 C 
ATOM      3  C   UNL     1       8.400  11.862   3.896  1.00  0.00     0.026 C 
ENDROOT
BRANCH   1   4
ATOM      4  O   UNL     1       8.312   9.465   3.171  1.00  0.00    -0.371 OA
BRANCH   4   5
ATOM      5  C   UNL     1       9.244   8.470   2.719  1.00  0.00     0.158 C 
ATOM      6  C   UNL     1       6.170   4.276   3.132  1.00  0.00    -0.003 C 
ATOM      7  C   UNL     1       6.889   5.212   4.112  1.00  0.00     0.052 C 
ATOM      8  C   UNL     1       5.755   5.069   1.885  1.00  0.00     0.019 C 
ATOM      9  C   UNL     1       8.043   5.966   3.437  1.00  0.00     0.189 C 
ATOM     10  C   UNL     1       6.940   5.822   1.282  1.00  0.00     0.087 C 
ATOM     11  N   UNL     1       7.557   6.705   2.272  1.00  0.00    -0.276 NA
ATOM     12  O   UNL     1       8.600   6.831   4.428  1.00  0.00    -0.360 OA
ATOM     13  C   UNL     1       8.642   7.500   1.686  1.00  0.00     0.121 C 
ATOM     14  C   UNL     1       9.674   7.635   3.930  1.00  0.00     0.195 C 
BRANCH   6  15
ATOM     15  C   UNL     1       4.965   3.623   3.772  1.00  0.00    -0.008 C 
ATOM     16  C   UNL     1       4.698   2.150   3.570  1.00  0.00     0.004 C 
ATOM     17  C   UNL     1       5.128   2.654   4.918  1.00  0.00     0.004 C 
ENDBRANCH   6  15
ENDBRANCH   4   5
ENDBRANCH   1   4
BRANCH   3  18
ATOM     18  C   UNL     1       8.261  12.780   5.073  1.00  0.00     0.053 C 
BRANCH  18  19
ATOM     19  C   UNL     1       8.989  14.096   4.981  1.00  0.00     0.074 C 
BRANCH  19  20
ATOM     20  N   UNL     1       8.490  15.210   4.560  1.00  0.00    -0.313 NA
ATOM     21  H   UNL     1       7.464  15.160   4.481  1.00  0.00     0.186 HD
ENDBRANCH  19  20
ENDBRANCH  18  19
ENDBRANCH   3  18
TORSDOF 6
ENDMDL
MODEL 3
REMARK VINA RESULT:    -3.950      6.593      7.988
REMARK INTER + INTRA:          -5.444
REMARK INTER:                  -5.307
REMARK INTRA:                  -0.137
REMARK UNBOUND:                -0.224
REMARK SMILES [H]/N=C\C[C@H]1C[C@@H]1O[C@H]1CO[C@H]2C[C@@H](C3CC3)CCN2C1
REMARK SMILES IDX 7 1 6 2 5 3 8 4 9 5 14 6 13 7 18 8 12 9 19 10 20 11 11 12
REMARK SMILES IDX 21 13 10 14 15 15 16 16 17 17 4 18 3 19 2 20 1 21
REMARK H PARENT
ROOT
ATOM      1  C   UNL     1      13.361  14.584   6.694  1.00  0.00     0.122 C 
ATOM      2  C   UNL     1      12.991  15.819   7.465  1.00  0.00     0.039 C 
ATOM      3  C   UNL     1      13.451  14.590   8.195  1.00  0.00     0.026 C 
ENDROOT
BRANCH   1   4
ATOM      4  O   UNL     1      12.237  13.892   6.118  1.00  0.00    -0.371 OA
BRANCH   4   5
ATOM      5  C   UNL     1      11.850  14.324   4.803  1.00  0.00     0.158 C 
ATOM      6  C   UNL     1       8.915  10.226   3.464  1.00  0.00    -0.003 C 
ATOM      7  C   UNL     1      10.415  10.490   3.646  1.00  0.00     0.052 C 
ATOM      8  C   UNL     1       8.123  11.097   4.449  1.00  0.00     0.019 C 
ATOM      9  C   UNL     1      10.744  11.987   3.562  1.00  0.00     0.189 C 
ATOM     10  C   UNL     1       8.522  12.568   4.339  1.00  0.00     0.087 C 
ATOM     11  N   UNL     1       9.960  12.737   4.543  1.00  0.00    -0.276 NA
ATOM     12  O   UNL     1      12.149  12.109   3.791  1.00  0.00    -0.360 OA
ATOM     13  C   UNL     1      10.346  14.153   4.527  1.00  0.00     0.121 C 
ATOM     14  C   UNL     1      12.602  13.467   3.780  1.00  0.00     0.195 C 
BRANCH   6  15
ATOM     15  C   UNL     1       8.581   8.764   3.661  1.00  0.00    -0.008 C 
ATOM     16  C   UNL     1       8.752   7.782   2.526  1.00  0.00     0.004 C 
ATOM     17  C   UNL     1       9.672   7.721   3.710  1.00  0.00     0.004 C 
ENDBRANCH   6  15
ENDBRANCH   4   5
ENDBRANCH   1   4
BRANCH   3  18
ATOM     18  C   UNL     1      14.790  14.606   8.872  1.00  0.00     0.053 C 
BRANCH  18  19
ATOM     19  C   UNL     1      14.803  15.048  10.312  1.00  0.00     0.074 C 
BRANCH  19  20
ATOM     20  N   UNL     1      14.763  14.272  11.343  1.00  0.00    -0.313 NA
ATOM     21  H   UNL     1      14.206  13.426  11.160  1.00  0.00     0.186 HD
ENDBRANCH  19  20
ENDBRANCH  18  19
ENDBRANCH   3  18
TORSDOF 6
ENDMDL
MODEL 4
REMARK VINA RESULT:    -3.705      5.605      7.065
REMARK INTER + INTRA:          -5.120
REMARK INTER:                  -4.693
REMARK INTRA:                  -0.426
REMARK UNBOUND:                -0.224
REMARK SMILES [H]/N=C\C[C@H]1C[C@@H]1O[C@H]1CO[C@H]2C[C@@H](C3CC3)CCN2C1
REMARK SMILES IDX 7 1 6 2 5 3 8 4 9 5 14 6 13 7 18 8 12 9 19 10 20 11 11 12
REMARK SMILES IDX 21 13 10 14 15 15 16 16 17 17 4 18 3 19 2 20 1 21
REMARK H PARENT
ROOT
ATOM      1  C   UNL     1      13.640  14.284   5.896  1.00  0.00     0.122 C 
ATOM      2  C   UNL     1      14.144  14.119   7.302  1.00  0.00     0.039 C 
ATOM      3  C   UNL     1      14.275  12.989   6.321  1.00  0.00     0.026 C 
ENDROOT
BRANCH   1   4
ATOM      4  O   UNL     1      12.204  14.292   5.784  1.00  0.00    -0.371 OA
BRANCH   4   5
ATOM      5  C   UNL     1      11.685  14.636   4.489  1.00  0.00     0.158 C 
ATOM      6  C   UNL     1       8.948  10.293   3.564  1.00  0.00    -0.003 C 
ATOM      7  C   UNL     1      10.435  10.665   3.611  1.00  0.00     0.052 C 
ATOM      8  C   UNL     1       8.177  11.155   4.574  1.00  0.00     0.019 C 
ATOM      9  C   UNL     1      10.651  12.175   3.439  1.00  0.00     0.189 C 
ATOM     10  C   UNL     1       8.462  12.642   4.372  1.00  0.00     0.087 C 
ATOM     11  N   UNL     1       9.897  12.916   4.450  1.00  0.00    -0.276 NA
ATOM     12  O   UNL     1      12.057  12.401   3.547  1.00  0.00    -0.360 OA
ATOM     13  C   UNL     1      10.179  14.352   4.344  1.00  0.00     0.121 C 
ATOM     14  C   UNL     1      12.412  13.784   3.443  1.00  0.00     0.195 C 
BRANCH   6  15
ATOM     15  C   UNL     1       8.734   8.824   3.847  1.00  0.00    -0.008 C 
ATOM     16  C   UNL     1       8.815   7.810   2.730  1.00  0.00     0.004 C 
ATOM     17  C   UNL     1       9.884   7.848   3.783  1.00  0.00     0.004 C 
ENDBRANCH   6  15
ENDBRANCH   4   5
ENDBRANCH   1   4
BRANCH   3  18
ATOM     18  C   UNL     1      15.639  12.616   5.821  1.00  0.00     0.053 C 
BRANCH  18  19
ATOM     19  C   UNL     1      15.683  11.660   4.657  1.00  0.00     0.074 C 
BRANCH  19  20
ATOM     20  N   UNL     1      14.665  11.242   3.982  1.00  0.00    -0.313 NA
ATOM     21  H   UNL     1      14.014  10.704   4.571  1.00  0.00     0.186 HD
ENDBRANCH  19  20
ENDBRANCH  18  19
ENDBRANCH   3  18
TORSDOF 6
ENDMDL
MODEL 5
REMARK VINA RESULT:    -3.535      4.911      7.299
REMARK INTER + INTRA:          -4.895
REMARK INTER:                  -4.741
REMARK INTRA:                  -0.154
REMARK UNBOUND:                -0.224
REMARK SMILES [H]/N=C\C[C@H]1C[C@@H]1O[C@H]1CO[C@H]2C[C@@H](C3CC3)CCN2C1
REMARK SMILES IDX 7 1 6 2 5 3 8 4 9 5 14 6 13 7 18 8 12 9 19 10 20 11 11 12
REMARK SMILES IDX 21 13 10 14 15 15 16 16 17 17 4 18 3 19 2 20 1 21
REMARK H PARENT
ROOT
ATOM      1  C   UNL     1       8.714  13.724   6.052  1.00  0.00     0.122 C 
ATOM      2  C   UNL     1       7.972  14.010   7.327  1.00  0.00     0.039 C 
ATOM      3  C   UNL     1       9.464  13.836   7.351  1.00  0.00     0.026 C 
ENDROOT
BRANCH   1   4
ATOM      4  O   UNL     1       8.508  12.394   5.539  1.00  0.00    -0.371 OA
BRANCH   4   5
ATOM      5  C   UNL     1       8.583  12.262   4.110  1.00  0.00     0.158 C 
ATOM      6  C   UNL     1      10.330   7.354   3.866  1.00  0.00    -0.003 C 
ATOM      7  C   UNL     1      10.921   8.711   4.266  1.00  0.00     0.052 C 
ATOM      8  C   UNL     1       8.836   7.327   4.218  1.00  0.00     0.019 C 
ATOM      9  C   UNL     1      10.118   9.879   3.675  1.00  0.00     0.189 C 
ATOM     10  C   UNL     1       8.102   8.532   3.631  1.00  0.00     0.087 C 
ATOM     11  N   UNL     1       8.714   9.785   4.074  1.00  0.00    -0.276 NA
ATOM     12  O   UNL     1      10.732  11.078   4.151  1.00  0.00    -0.360 OA
ATOM     13  C   UNL     1       7.968  10.952   3.588  1.00  0.00     0.121 C 
ATOM     14  C   UNL     1      10.062  12.263   3.709  1.00  0.00     0.195 C 
BRANCH   6  15
ATOM     15  C   UNL     1      11.055   6.212   4.542  1.00  0.00    -0.008 C 
ATOM     16  C   UNL     1      12.260   5.579   3.888  1.00  0.00     0.004 C 
ATOM     17  C   UNL     1      12.434   6.409   5.126  1.00  0.00     0.004 C 
ENDBRANCH   6  15
ENDBRANCH   4   5
ENDBRANCH   1   4
BRANCH   3  18
ATOM     18  C   UNL     1      10.330  15.029   7.623  1.00  0.00     0.053 C 
BRANCH  18  19
ATOM     19  C   UNL     1      11.818  14.790   7.603  1.00  0.00     0.074 C 
BRANCH  19  20
ATOM     20  N   UNL     1      12.411  13.681   7.894  1.00  0.00    -0.313 NA
ATOM     21  H   UNL     1      12.135  12.923   7.253  1.00  0.00     0.186 HD
ENDBRANCH  19  20
ENDBRANCH  18  19
ENDBRANCH   3  18
TORSDOF 6
ENDMDL
MODEL 6
REMARK VINA RESULT:    -3.517      4.389      7.218
REMARK INTER + INTRA:          -4.872
REMARK INTER:                  -4.799
REMARK INTRA:                  -0.073
REMARK UNBOUND:                -0.224
REMARK SMILES [H]/N=C\C[C@H]1C[C@@H]1O[C@H]1CO[C@H]2C[C@@H](C3CC3)CCN2C1
REMARK SMILES IDX 7 1 6 2 5 3 8 4 9 5 14 6 13 7 18 8 12 9 19 10 20 11 11 12
REMARK SMILES IDX 21 13 10 14 15 15 16 16 17 17 4 18 3 19 2 20 1 21
REMARK H PARENT
ROOT
ATOM      1  C   UNL     1      16.630  10.932   4.981  1.00  0.00     0.122 C 
ATOM      2  C   UNL     1      17.044  11.812   3.835  1.00  0.00     0.039 C 
ATOM      3  C   UNL     1      15.646  11.898   4.378  1.00  0.00     0.026 C 
ENDROOT
BRANCH   1   4
ATOM      4  O   UNL     1      16.470   9.545   4.628  1.00  0.00    -0.371 OA
BRANCH   4   5
ATOM      5  C   UNL     1      16.375   8.632   5.733  1.00  0.00     0.158 C 
ATOM      6  C   UNL     1      11.781   6.457   4.559  1.00  0.00    -0.003 C 
ATOM      7  C   UNL     1      12.249   7.819   5.087  1.00  0.00     0.052 C 
ATOM      8  C   UNL     1      12.852   5.882   3.621  1.00  0.00     0.019 C 
ATOM      9  C   UNL     1      13.649   7.739   5.711  1.00  0.00     0.189 C 
ATOM     10  C   UNL     1      14.227   5.861   4.289  1.00  0.00     0.087 C 
ATOM     11  N   UNL     1      14.607   7.197   4.746  1.00  0.00    -0.276 NA
ATOM     12  O   UNL     1      13.991   9.064   6.120  1.00  0.00    -0.360 OA
ATOM     13  C   UNL     1      15.961   7.211   5.312  1.00  0.00     0.121 C 
ATOM     14  C   UNL     1      15.300   9.154   6.692  1.00  0.00     0.195 C 
BRANCH   6  15
ATOM     15  C   UNL     1      10.453   6.565   3.845  1.00  0.00    -0.008 C 
ATOM     16  C   UNL     1       9.177   6.759   4.631  1.00  0.00     0.004 C 
ATOM     17  C   UNL     1       9.711   7.879   3.786  1.00  0.00     0.004 C 
ENDBRANCH   6  15
ENDBRANCH   4   5
ENDBRANCH   1   4
BRANCH   3  18
ATOM     18  C   UNL     1      15.235  13.127   5.133  1.00  0.00     0.053 C 
BRANCH  18  19
ATOM     19  C   UNL     1      13.790  13.197   5.554  1.00  0.00     0.074 C 
BRANCH  19  20
ATOM     20  N   UNL     1      13.327  12.908   6.725  1.00  0.00    -0.313 NA
ATOM     21  H   UNL     1      13.897  13.329   7.472  1.00  0.00     0.186 HD
ENDBRANCH  19  20
ENDBRANCH  18  19
ENDBRANCH   3  18
TORSDOF 6
ENDMDL
MODEL 7
REMARK VINA RESULT:    -3.233      6.151      7.795
REMARK INTER + INTRA:          -4.496
REMARK INTER:                  -4.214
REMARK INTRA:                  -0.281
REMARK UNBOUND:                -0.224
REMARK SMILES [H]/N=C\C[C@H]1C[C@@H]1O[C@H]1CO[C@H]2C[C@@H](C3CC3)CCN2C1
REMARK SMILES IDX 7 1 6 2 5 3 8 4 9 5 14 6 13 7 18 8 12 9 19 10 20 11 11 12
REMARK SMILES IDX 21 13 10 14 15 15 16 16 17 17 4 18 3 19 2 20 1 21
REMARK H PARENT
ROOT
ATOM      1  C   UNL     1      15.363  13.053   5.525  1.00  0.00     0.122 C 
ATOM      2  C   UNL     1      16.157  12.739   6.762  1.00  0.00     0.039 C 
ATOM      3  C   UNL     1      15.113  11.774   6.276  1.00  0.00     0.026 C 
ENDROOT
BRANCH   1   4
ATOM      4  O   UNL     1      14.393  14.103   5.701  1.00  0.00    -0.371 OA
BRANCH   4   5
ATOM      5  C   UNL     1      13.990  14.782   4.500  1.00  0.00     0.158 C 
ATOM      6  C   UNL     1       9.304  12.576   3.887  1.00  0.00    -0.003 C 
ATOM      7  C   UNL     1      10.761  12.122   3.730  1.00  0.00     0.052 C 
ATOM      8  C   UNL     1       9.215  13.614   5.014  1.00  0.00     0.019 C 
ATOM      9  C   UNL     1      11.713  13.314   3.559  1.00  0.00     0.189 C 
ATOM     10  C   UNL     1      10.211  14.754   4.803  1.00  0.00     0.087 C 
ATOM     11  N   UNL     1      11.576  14.242   4.682  1.00  0.00    -0.276 NA
ATOM     12  O   UNL     1      13.033  12.772   3.470  1.00  0.00    -0.360 OA
ATOM     13  C   UNL     1      12.554  15.329   4.566  1.00  0.00     0.121 C 
ATOM     14  C   UNL     1      14.043  13.778   3.345  1.00  0.00     0.195 C 
BRANCH   6  15
ATOM     15  C   UNL     1       8.387  11.407   4.168  1.00  0.00    -0.008 C 
ATOM     16  C   UNL     1       7.536  10.822   3.066  1.00  0.00     0.004 C 
ATOM     17  C   UNL     1       8.690  10.035   3.617  1.00  0.00     0.004 C 
ENDBRANCH   6  15
ENDBRANCH   4   5
ENDBRANCH   1   4
BRANCH   3  18
ATOM     18  C   UNL     1      15.551  10.461   5.699  1.00  0.00     0.053 C 
BRANCH  18  19
ATOM     19  C   UNL     1      15.077   9.225   6.419  1.00  0.00     0.074 C 
BRANCH  19  20
ATOM     20  N   UNL     1      14.141   9.179   7.308  1.00  0.00    -0.313 NA
ATOM     21  H   UNL     1      13.655   8.271   7.301  1.00  0.00     0.186 HD
ENDBRANCH  19  20
ENDBRANCH  18  19
ENDBRANCH   3  18
TORSDOF 6
ENDMDL
MODEL 8
REMARK VINA RESULT:    -3.085      6.610     10.204
REMARK INTER + INTRA:          -4.301
REMARK INTER:                  -4.018
REMARK INTRA:                  -0.283
REMARK UNBOUND:                -0.224
REMARK SMILES [H]/N=C\C[C@H]1C[C@@H]1O[C@H]1CO[C@H]2C[C@@H](C3CC3)CCN2C1
REMARK SMILES IDX 7 1 6 2 5 3 8 4 9 5 14 6 13 7 18 8 12 9 19 10 20 11 11 12
REMARK SMILES IDX 21 13 10 14 15 15 16 16 17 17 4 18 3 19 2 20 1 21
REMARK H PARENT
ROOT
ATOM      1  C   UNL     1       8.419  10.994   4.145  1.00  0.00     0.122 C 
ATOM      2  C   UNL     1       8.797  10.948   2.692  1.00  0.00     0.039 C 
ATOM      3  C   UNL     1       9.059   9.759   3.572  1.00  0.00     0.026 C 
ENDROOT
BRANCH   1   4
ATOM      4  O   UNL     1       9.263  11.845   4.944  1.00  0.00    -0.371 OA
BRANCH   4   5
ATOM      5  C   UNL     1       8.954  13.248   4.893  1.00  0.00     0.158 C 
ATOM      6  C   UNL     1      13.259  15.082   7.197  1.00  0.00    -0.003 C 
ATOM      7  C   UNL     1      12.008  14.321   7.654  1.00  0.00     0.052 C 
ATOM      8  C   UNL     1      13.608  14.669   5.761  1.00  0.00     0.019 C 
ATOM      9  C   UNL     1      10.850  14.479   6.659  1.00  0.00     0.189 C 
ATOM     10  C   UNL     1      12.405  14.817   4.829  1.00  0.00     0.087 C 
ATOM     11  N   UNL     1      11.263  14.048   5.323  1.00  0.00    -0.276 NA
ATOM     12  O   UNL     1       9.768  13.695   7.164  1.00  0.00    -0.360 OA
ATOM     13  C   UNL     1      10.128  14.109   4.395  1.00  0.00     0.121 C 
ATOM     14  C   UNL     1       8.617  13.714   6.313  1.00  0.00     0.195 C 
BRANCH   6  15
ATOM     15  C   UNL     1      14.429  14.831   8.121  1.00  0.00    -0.008 C 
ATOM     16  C   UNL     1      15.139  15.986   8.786  1.00  0.00     0.004 C 
ATOM     17  C   UNL     1      14.301  15.051   9.609  1.00  0.00     0.004 C 
ENDBRANCH   6  15
ENDBRANCH   4   5
ENDBRANCH   1   4
BRANCH   3  18
ATOM     18  C   UNL     1       8.249   8.513   3.370  1.00  0.00     0.053 C 
BRANCH  18  19
ATOM     19  C   UNL     1       8.893   7.427   2.548  1.00  0.00     0.074 C 
BRANCH  19  20
ATOM     20  N   UNL     1       8.907   7.362   1.258  1.00  0.00    -0.313 NA
ATOM     21  H   UNL     1       9.419   6.532   0.926  1.00  0.00     0.186 HD
ENDBRANCH  19  20
ENDBRANCH  18  19
ENDBRANCH   3  18
TORSDOF 6
ENDMDL
