MODEL 1
REMARK VINA RESULT:    -6.032      0.000      0.000
REMARK INTER + INTRA:          -7.461
REMARK INTER:                  -7.090
REMARK INTRA:                  -0.371
REMARK UNBOUND:                -0.371
REMARK SMILES Cc1ccc(CNC(=O)NC(=O)c2ccc(C)cc2)cc1
REMARK SMILES IDX 11 1 12 2 10 3 8 4 9 5 7 6 13 9 19 10 18 11 14 12 16 13
REMARK SMILES IDX 15 14 17 15 6 16 5 17 4 18 20 19 3 20 21 21 2 22 1 23
REMARK H PARENT 10 7 7 8
ROOT
ATOM      1  C   UNL     1       8.228   6.622   3.372  1.00  0.00     0.259 C 
ATOM      2  O   UNL     1       8.841   5.668   3.831  1.00  0.00    -0.269 OA
ATOM      3  N   UNL     1       8.538   7.983   3.456  1.00  0.00    -0.274 N 
ATOM      4  C   UNL     1       9.616   8.757   3.801  1.00  0.00     0.321 C 
ATOM      5  O   UNL     1       9.532   9.975   3.607  1.00  0.00    -0.248 OA
ATOM      6  N   UNL     1      10.759   8.259   4.305  1.00  0.00    -0.334 N 
ATOM      7  H   UNL     1       7.863   8.592   3.012  1.00  0.00     0.175 HD
ATOM      8  H   UNL     1      11.486   8.950   4.425  1.00  0.00     0.165 HD
ENDROOT
BRANCH   1   9
ATOM      9  C   UNL     1       6.996   6.316   2.621  1.00  0.00     0.040 A 
ATOM     10  C   UNL     1       5.736   6.430   3.211  1.00  0.00     0.014 A 
ATOM     11  C   UNL     1       4.597   6.181   2.445  1.00  0.00     0.004 A 
ATOM     12  C   UNL     1       7.123   5.897   1.292  1.00  0.00     0.014 A 
ATOM     13  C   UNL     1       4.712   5.811   1.096  1.00  0.00    -0.051 A 
ATOM     14  C   UNL     1       5.983   5.656   0.529  1.00  0.00     0.004 A 
ATOM     15  C   UNL     1       3.477   5.629   0.264  1.00  0.00     0.044 C 
ENDBRANCH   1   9
BRANCH   6  16
ATOM     16  C   UNL     1      11.099   6.879   4.509  1.00  0.00     0.153 C 
BRANCH  16  17
ATOM     17  C   UNL     1      12.557   6.541   4.648  1.00  0.00    -0.029 A 
ATOM     18  C   UNL     1      13.197   5.580   3.858  1.00  0.00     0.006 A 
ATOM     19  C   UNL     1      13.337   7.379   5.462  1.00  0.00     0.006 A 
ATOM     20  C   UNL     1      14.592   5.483   3.867  1.00  0.00     0.004 A 
ATOM     21  C   UNL     1      14.725   7.284   5.467  1.00  0.00     0.004 A 
ATOM     22  C   UNL     1      15.366   6.341   4.661  1.00  0.00    -0.051 A 
ATOM     23  C   UNL     1      16.862   6.338   4.569  1.00  0.00     0.044 C 
ENDBRANCH  16  17
ENDBRANCH   6  16
TORSDOF 3
ENDMDL
MODEL 2
REMARK VINA RESULT:    -6.009      3.258      5.537
REMARK INTER + INTRA:          -7.434
REMARK INTER:                  -7.061
REMARK INTRA:                  -0.373
REMARK UNBOUND:                -0.371
REMARK SMILES Cc1ccc(CNC(=O)NC(=O)c2ccc(C)cc2)cc1
REMARK SMILES IDX 11 1 12 2 10 3 8 4 9 5 7 6 13 9 19 10 18 11 14 12 16 13
REMARK SMILES IDX 15 14 17 15 6 16 5 17 4 18 20 19 3 20 21 21 2 22 1 23
REMARK H PARENT 10 7 7 8
ROOT
ATOM      1  C   UNL     1       7.927   6.988   3.500  1.00  0.00     0.259 C 
ATOM      2  O   UNL     1       7.351   7.958   3.029  1.00  0.00    -0.269 OA
ATOM      3  N   UNL     1       9.267   6.863   3.878  1.00  0.00    -0.274 N 
ATOM      4  C   UNL     1      10.335   7.691   4.111  1.00  0.00     0.321 C 
ATOM      5  O   UNL     1      11.361   7.186   4.579  1.00  0.00    -0.248 OA
ATOM      6  N   UNL     1      10.311   9.018   3.886  1.00  0.00    -0.334 N 
ATOM      7  H   UNL     1       9.519   5.948   4.226  1.00  0.00     0.175 HD
ATOM      8  H   UNL     1      11.147   9.497   4.190  1.00  0.00     0.165 HD
ENDROOT
BRANCH   1   9
ATOM      9  C   UNL     1       7.112   5.775   3.711  1.00  0.00     0.040 A 
ATOM     10  C   UNL     1       7.109   4.730   2.786  1.00  0.00     0.014 A 
ATOM     11  C   UNL     1       6.364   3.581   3.054  1.00  0.00     0.004 A 
ATOM     12  C   UNL     1       6.332   5.702   4.869  1.00  0.00     0.014 A 
ATOM     13  C   UNL     1       5.619   3.476   4.238  1.00  0.00    -0.051 A 
ATOM     14  C   UNL     1       5.595   4.550   5.136  1.00  0.00     0.004 A 
ATOM     15  C   UNL     1       4.892   2.202   4.552  1.00  0.00     0.044 C 
ENDBRANCH   1   9
BRANCH   6  16
ATOM     16  C   UNL     1       9.198   9.812   3.448  1.00  0.00     0.153 C 
BRANCH  16  17
ATOM     17  C   UNL     1       9.255  11.290   3.722  1.00  0.00    -0.029 A 
ATOM     18  C   UNL     1       8.248  11.979   4.405  1.00  0.00     0.006 A 
ATOM     19  C   UNL     1      10.469  11.946   3.459  1.00  0.00     0.006 A 
ATOM     20  C   UNL     1       8.468  13.292   4.837  1.00  0.00     0.004 A 
ATOM     21  C   UNL     1      10.687  13.250   3.893  1.00  0.00     0.004 A 
ATOM     22  C   UNL     1       9.692  13.931   4.596  1.00  0.00    -0.051 A 
ATOM     23  C   UNL     1       9.985  15.281   5.178  1.00  0.00     0.044 C 
ENDBRANCH  16  17
ENDBRANCH   6  16
TORSDOF 3
ENDMDL
MODEL 3
REMARK VINA RESULT:    -6.004      3.156      7.357
REMARK INTER + INTRA:          -7.428
REMARK INTER:                  -6.949
REMARK INTRA:                  -0.478
REMARK UNBOUND:                -0.371
REMARK SMILES Cc1ccc(CNC(=O)NC(=O)c2ccc(C)cc2)cc1
REMARK SMILES IDX 11 1 12 2 10 3 8 4 9 5 7 6 13 9 19 10 18 11 14 12 16 13
REMARK SMILES IDX 15 14 17 15 6 16 5 17 4 18 20 19 3 20 21 21 2 22 1 23
REMARK H PARENT 10 7 7 8
ROOT
ATOM      1  C   UNL     1       8.907   9.706   3.781  1.00  0.00     0.259 C 
ATOM      2  O   UNL     1       7.790   9.391   3.396  1.00  0.00    -0.269 OA
ATOM      3  N   UNL     1       9.991   8.878   4.092  1.00  0.00    -0.274 N 
ATOM      4  C   UNL     1      10.354   7.570   3.902  1.00  0.00     0.321 C 
ATOM      5  O   UNL     1      11.501   7.240   4.223  1.00  0.00    -0.248 OA
ATOM      6  N   UNL     1       9.541   6.643   3.361  1.00  0.00    -0.334 N 
ATOM      7  H   UNL     1      10.813   9.372   4.413  1.00  0.00     0.175 HD
ATOM      8  H   UNL     1       9.987   5.749   3.210  1.00  0.00     0.165 HD
ENDROOT
BRANCH   1   9
ATOM      9  C   UNL     1       9.169  11.149   3.941  1.00  0.00     0.040 A 
ATOM     10  C   UNL     1       8.232  11.998   4.533  1.00  0.00     0.014 A 
ATOM     11  C   UNL     1       8.546  13.346   4.710  1.00  0.00     0.004 A 
ATOM     12  C   UNL     1      10.387  11.651   3.473  1.00  0.00     0.014 A 
ATOM     13  C   UNL     1       9.787  13.849   4.291  1.00  0.00    -0.051 A 
ATOM     14  C   UNL     1      10.699  12.997   3.658  1.00  0.00     0.004 A 
ATOM     15  C   UNL     1      10.143  15.281   4.565  1.00  0.00     0.044 C 
ENDBRANCH   1   9
BRANCH   6  16
ATOM     16  C   UNL     1       8.221   6.838   2.831  1.00  0.00     0.153 C 
BRANCH  16  17
ATOM     17  C   UNL     1       7.190   5.790   3.146  1.00  0.00    -0.029 A 
ATOM     18  C   UNL     1       6.972   4.666   2.341  1.00  0.00     0.006 A 
ATOM     19  C   UNL     1       6.578   5.848   4.409  1.00  0.00     0.006 A 
ATOM     20  C   UNL     1       6.177   3.614   2.808  1.00  0.00     0.004 A 
ATOM     21  C   UNL     1       5.792   4.798   4.874  1.00  0.00     0.004 A 
ATOM     22  C   UNL     1       5.593   3.667   4.080  1.00  0.00    -0.051 A 
ATOM     23  C   UNL     1       4.859   2.486   4.643  1.00  0.00     0.044 C 
ENDBRANCH  16  17
ENDBRANCH   6  16
TORSDOF 3
ENDMDL
MODEL 4
REMARK VINA RESULT:    -5.996      0.525      8.066
REMARK INTER + INTRA:          -7.418
REMARK INTER:                  -6.942
REMARK INTRA:                  -0.476
REMARK UNBOUND:                -0.371
REMARK SMILES Cc1ccc(CNC(=O)NC(=O)c2ccc(C)cc2)cc1
REMARK SMILES IDX 11 1 12 2 10 3 8 4 9 5 7 6 13 9 19 10 18 11 14 12 16 13
REMARK SMILES IDX 15 14 17 15 6 16 5 17 4 18 20 19 3 20 21 21 2 22 1 23
REMARK H PARENT 10 7 7 8
ROOT
ATOM      1  C   UNL     1      11.034   6.742   4.092  1.00  0.00     0.259 C 
ATOM      2  O   UNL     1      10.369   5.721   3.986  1.00  0.00    -0.269 OA
ATOM      3  N   UNL     1      10.619   8.073   3.977  1.00  0.00    -0.274 N 
ATOM      4  C   UNL     1       9.436   8.767   3.955  1.00  0.00     0.321 C 
ATOM      5  O   UNL     1       9.496  10.001   3.974  1.00  0.00    -0.248 OA
ATOM      6  N   UNL     1       8.227   8.176   3.945  1.00  0.00    -0.334 N 
ATOM      7  H   UNL     1      11.360   8.752   4.085  1.00  0.00     0.175 HD
ATOM      8  H   UNL     1       7.457   8.826   4.017  1.00  0.00     0.165 HD
ENDROOT
BRANCH   1   9
ATOM      9  C   UNL     1      12.469   6.568   4.387  1.00  0.00     0.040 A 
ATOM     10  C   UNL     1      13.228   5.583   3.753  1.00  0.00     0.014 A 
ATOM     11  C   UNL     1      14.594   5.491   4.025  1.00  0.00     0.004 A 
ATOM     12  C   UNL     1      13.054   7.419   5.331  1.00  0.00     0.014 A 
ATOM     13  C   UNL     1      15.200   6.373   4.932  1.00  0.00    -0.051 A 
ATOM     14  C   UNL     1      14.419   7.328   5.594  1.00  0.00     0.004 A 
ATOM     15  C   UNL     1      16.684   6.317   5.149  1.00  0.00     0.044 C 
ENDBRANCH   1   9
BRANCH   6  16
ATOM     16  C   UNL     1       7.936   6.773   4.025  1.00  0.00     0.153 C 
BRANCH  16  17
ATOM     17  C   UNL     1       6.838   6.244   3.145  1.00  0.00    -0.029 A 
ATOM     18  C   UNL     1       5.497   6.200   3.540  1.00  0.00     0.006 A 
ATOM     19  C   UNL     1       7.158   5.986   1.802  1.00  0.00     0.006 A 
ATOM     20  C   UNL     1       4.499   5.927   2.599  1.00  0.00     0.004 A 
ATOM     21  C   UNL     1       6.164   5.719   0.866  1.00  0.00     0.004 A 
ATOM     22  C   UNL     1       4.823   5.698   1.255  1.00  0.00    -0.051 A 
ATOM     23  C   UNL     1       3.752   5.546   0.217  1.00  0.00     0.044 C 
ENDBRANCH  16  17
ENDBRANCH   6  16
TORSDOF 3
ENDMDL
MODEL 5
REMARK VINA RESULT:    -5.749      0.112      1.063
REMARK INTER + INTRA:          -7.128
REMARK INTER:                  -6.759
REMARK INTRA:                  -0.369
REMARK UNBOUND:                -0.371
REMARK SMILES Cc1ccc(CNC(=O)NC(=O)c2ccc(C)cc2)cc1
REMARK SMILES IDX 11 1 12 2 10 3 8 4 9 5 7 6 13 9 19 10 18 11 14 12 16 13
REMARK SMILES IDX 15 14 17 15 6 16 5 17 4 18 20 19 3 20 21 21 2 22 1 23
REMARK H PARENT 10 7 7 8
ROOT
ATOM      1  C   UNL     1       8.225   6.681   3.308  1.00  0.00     0.259 C 
ATOM      2  O   UNL     1       8.824   5.715   3.759  1.00  0.00    -0.269 OA
ATOM      3  N   UNL     1       8.546   8.038   3.413  1.00  0.00    -0.274 N 
ATOM      4  C   UNL     1       9.628   8.798   3.777  1.00  0.00     0.321 C 
ATOM      5  O   UNL     1       9.557  10.019   3.599  1.00  0.00    -0.248 OA
ATOM      6  N   UNL     1      10.762   8.282   4.285  1.00  0.00    -0.334 N 
ATOM      7  H   UNL     1       7.881   8.659   2.971  1.00  0.00     0.175 HD
ATOM      8  H   UNL     1      11.494   8.965   4.421  1.00  0.00     0.165 HD
ENDROOT
BRANCH   1   9
ATOM      9  C   UNL     1       6.996   6.396   2.541  1.00  0.00     0.040 A 
ATOM     10  C   UNL     1       7.049   5.974   1.212  1.00  0.00     0.014 A 
ATOM     11  C   UNL     1       5.863   5.667   0.544  1.00  0.00     0.004 A 
ATOM     12  C   UNL     1       5.767   6.569   3.184  1.00  0.00     0.014 A 
ATOM     13  C   UNL     1       4.627   5.787   1.197  1.00  0.00    -0.051 A 
ATOM     14  C   UNL     1       4.585   6.254   2.516  1.00  0.00     0.004 A 
ATOM     15  C   UNL     1       3.368   5.371   0.493  1.00  0.00     0.044 C 
ENDBRANCH   1   9
BRANCH   6  16
ATOM     16  C   UNL     1      11.087   6.897   4.474  1.00  0.00     0.153 C 
BRANCH  16  17
ATOM     17  C   UNL     1      12.541   6.543   4.625  1.00  0.00    -0.029 A 
ATOM     18  C   UNL     1      13.173   5.565   3.851  1.00  0.00     0.006 A 
ATOM     19  C   UNL     1      13.326   7.383   5.431  1.00  0.00     0.006 A 
ATOM     20  C   UNL     1      14.568   5.451   3.869  1.00  0.00     0.004 A 
ATOM     21  C   UNL     1      14.713   7.272   5.444  1.00  0.00     0.004 A 
ATOM     22  C   UNL     1      15.347   6.311   4.655  1.00  0.00    -0.051 A 
ATOM     23  C   UNL     1      16.844   6.290   4.571  1.00  0.00     0.044 C 
ENDBRANCH  16  17
ENDBRANCH   6  16
TORSDOF 3
ENDMDL
MODEL 6
REMARK VINA RESULT:    -5.729      1.163      8.031
REMARK INTER + INTRA:          -7.105
REMARK INTER:                  -6.696
REMARK INTRA:                  -0.408
REMARK UNBOUND:                -0.371
REMARK SMILES Cc1ccc(CNC(=O)NC(=O)c2ccc(C)cc2)cc1
REMARK SMILES IDX 11 1 12 2 10 3 8 4 9 5 7 6 13 9 19 10 18 11 14 12 16 13
REMARK SMILES IDX 15 14 17 15 6 16 5 17 4 18 20 19 3 20 21 21 2 22 1 23
REMARK H PARENT 10 7 7 8
ROOT
ATOM      1  C   UNL     1      11.262   6.659   4.303  1.00  0.00     0.259 C 
ATOM      2  O   UNL     1      10.602   5.635   4.399  1.00  0.00    -0.269 OA
ATOM      3  N   UNL     1      10.829   7.957   4.012  1.00  0.00    -0.274 N 
ATOM      4  C   UNL     1       9.641   8.641   3.962  1.00  0.00     0.321 C 
ATOM      5  O   UNL     1       9.690   9.863   3.787  1.00  0.00    -0.248 OA
ATOM      6  N   UNL     1       8.439   8.057   4.124  1.00  0.00    -0.334 N 
ATOM      7  H   UNL     1      11.570   8.643   3.964  1.00  0.00     0.175 HD
ATOM      8  H   UNL     1       7.669   8.711   4.146  1.00  0.00     0.165 HD
ENDROOT
BRANCH   1   9
ATOM      9  C   UNL     1      12.716   6.531   4.524  1.00  0.00     0.040 A 
ATOM     10  C   UNL     1      13.474   5.576   3.846  1.00  0.00     0.014 A 
ATOM     11  C   UNL     1      14.854   5.527   4.049  1.00  0.00     0.004 A 
ATOM     12  C   UNL     1      13.318   7.395   5.445  1.00  0.00     0.014 A 
ATOM     13  C   UNL     1      15.476   6.423   4.931  1.00  0.00    -0.051 A 
ATOM     14  C   UNL     1      14.697   7.347   5.639  1.00  0.00     0.004 A 
ATOM     15  C   UNL     1      16.969   6.415   5.075  1.00  0.00     0.044 C 
ENDBRANCH   1   9
BRANCH   6  16
ATOM     16  C   UNL     1       8.167   6.683   4.438  1.00  0.00     0.153 C 
BRANCH  16  17
ATOM     17  C   UNL     1       6.963   6.054   3.795  1.00  0.00    -0.029 A 
ATOM     18  C   UNL     1       6.868   5.815   2.420  1.00  0.00     0.006 A 
ATOM     19  C   UNL     1       5.995   5.499   4.649  1.00  0.00     0.006 A 
ATOM     20  C   UNL     1       5.836   5.015   1.918  1.00  0.00     0.004 A 
ATOM     21  C   UNL     1       4.972   4.699   4.148  1.00  0.00     0.004 A 
ATOM     22  C   UNL     1       4.890   4.442   2.779  1.00  0.00    -0.051 A 
ATOM     23  C   UNL     1       3.869   3.471   2.266  1.00  0.00     0.044 C 
ENDBRANCH  16  17
ENDBRANCH   6  16
TORSDOF 3
ENDMDL
MODEL 7
REMARK VINA RESULT:    -4.302      1.877      8.217
REMARK INTER + INTRA:          -5.427
REMARK INTER:                  -5.015
REMARK INTRA:                  -0.412
REMARK UNBOUND:                -0.371
REMARK SMILES Cc1ccc(CNC(=O)NC(=O)c2ccc(C)cc2)cc1
REMARK SMILES IDX 11 1 12 2 10 3 8 4 9 5 7 6 13 9 19 10 18 11 14 12 16 13
REMARK SMILES IDX 15 14 17 15 6 16 5 17 4 18 20 19 3 20 21 21 2 22 1 23
REMARK H PARENT 10 7 7 8
ROOT
ATOM      1  C   UNL     1      10.122   6.666   4.198  1.00  0.00     0.259 C 
ATOM      2  O   UNL     1       9.708   6.602   3.050  1.00  0.00    -0.269 OA
ATOM      3  N   UNL     1       9.397   6.823   5.383  1.00  0.00    -0.274 N 
ATOM      4  C   UNL     1       8.090   6.734   5.791  1.00  0.00     0.321 C 
ATOM      5  O   UNL     1       7.861   6.816   7.002  1.00  0.00    -0.248 OA
ATOM      6  N   UNL     1       7.060   6.531   4.949  1.00  0.00    -0.334 N 
ATOM      7  H   UNL     1       9.966   6.871   6.218  1.00  0.00     0.175 HD
ATOM      8  H   UNL     1       6.173   6.403   5.415  1.00  0.00     0.165 HD
ENDROOT
BRANCH   1   9
ATOM      9  C   UNL     1      11.583   6.561   4.380  1.00  0.00     0.040 A 
ATOM     10  C   UNL     1      12.322   5.549   3.765  1.00  0.00     0.014 A 
ATOM     11  C   UNL     1      13.708   5.521   3.923  1.00  0.00     0.004 A 
ATOM     12  C   UNL     1      12.213   7.505   5.198  1.00  0.00     0.014 A 
ATOM     13  C   UNL     1      14.355   6.494   4.700  1.00  0.00    -0.051 A 
ATOM     14  C   UNL     1      13.598   7.477   5.348  1.00  0.00     0.004 A 
ATOM     15  C   UNL     1      15.853   6.501   4.791  1.00  0.00     0.044 C 
ENDBRANCH   1   9
BRANCH   6  16
ATOM     16  C   UNL     1       7.118   6.306   3.532  1.00  0.00     0.153 C 
BRANCH  16  17
ATOM     17  C   UNL     1       6.127   5.340   2.946  1.00  0.00    -0.029 A 
ATOM     18  C   UNL     1       6.130   3.972   3.238  1.00  0.00     0.006 A 
ATOM     19  C   UNL     1       5.035   5.882   2.249  1.00  0.00     0.006 A 
ATOM     20  C   UNL     1       5.047   3.172   2.858  1.00  0.00     0.004 A 
ATOM     21  C   UNL     1       3.956   5.086   1.876  1.00  0.00     0.004 A 
ATOM     22  C   UNL     1       3.948   3.725   2.186  1.00  0.00    -0.051 A 
ATOM     23  C   UNL     1       2.724   2.907   1.903  1.00  0.00     0.044 C 
ENDBRANCH  16  17
ENDBRANCH   6  16
TORSDOF 3
ENDMDL
MODEL 8
REMARK VINA RESULT:    -4.256      3.935      7.886
REMARK INTER + INTRA:          -5.373
REMARK INTER:                  -4.962
REMARK INTRA:                  -0.411
REMARK UNBOUND:                -0.371
REMARK SMILES Cc1ccc(CNC(=O)NC(=O)c2ccc(C)cc2)cc1
REMARK SMILES IDX 11 1 12 2 10 3 8 4 9 5 7 6 13 9 19 10 18 11 14 12 16 13
REMARK SMILES IDX 15 14 17 15 6 16 5 17 4 18 20 19 3 20 21 21 2 22 1 23
REMARK H PARENT 10 7 7 8
ROOT
ATOM      1  C   UNL     1       8.623   8.912   3.369  1.00  0.00     0.259 C 
ATOM      2  O   UNL     1       8.085   8.273   4.263  1.00  0.00    -0.269 OA
ATOM      3  N   UNL     1       8.993   8.487   2.090  1.00  0.00    -0.274 N 
ATOM      4  C   UNL     1       8.745   7.420   1.265  1.00  0.00     0.321 C 
ATOM      5  O   UNL     1       9.171   7.479   0.107  1.00  0.00    -0.248 OA
ATOM      6  N   UNL     1       8.041   6.336   1.642  1.00  0.00    -0.334 N 
ATOM      7  H   UNL     1       9.447   9.196   1.530  1.00  0.00     0.175 HD
ATOM      8  H   UNL     1       7.874   5.679   0.893  1.00  0.00     0.165 HD
ENDROOT
BRANCH   1   9
ATOM      9  C   UNL     1       8.925  10.327   3.660  1.00  0.00     0.040 A 
ATOM     10  C   UNL     1       7.968  11.176   4.218  1.00  0.00     0.014 A 
ATOM     11  C   UNL     1       8.316  12.492   4.523  1.00  0.00     0.004 A 
ATOM     12  C   UNL     1      10.204  10.801   3.353  1.00  0.00     0.014 A 
ATOM     13  C   UNL     1       9.612  12.964   4.267  1.00  0.00    -0.051 A 
ATOM     14  C   UNL     1      10.550  12.115   3.666  1.00  0.00     0.004 A 
ATOM     15  C   UNL     1       9.996  14.354   4.679  1.00  0.00     0.044 C 
ENDBRANCH   1   9
BRANCH   6  16
ATOM     16  C   UNL     1       7.376   6.115   2.895  1.00  0.00     0.153 C 
BRANCH  16  17
ATOM     17  C   UNL     1       6.065   5.381   2.860  1.00  0.00    -0.029 A 
ATOM     18  C   UNL     1       4.935   5.867   2.194  1.00  0.00     0.006 A 
ATOM     19  C   UNL     1       6.054   4.061   3.341  1.00  0.00     0.006 A 
ATOM     20  C   UNL     1       3.828   5.035   1.994  1.00  0.00     0.004 A 
ATOM     21  C   UNL     1       4.955   3.233   3.137  1.00  0.00     0.004 A 
ATOM     22  C   UNL     1       3.835   3.710   2.453  1.00  0.00    -0.051 A 
ATOM     23  C   UNL     1       2.715   2.771   2.118  1.00  0.00     0.044 C 
ENDBRANCH  16  17
ENDBRANCH   6  16
TORSDOF 3
ENDMDL
MODEL 9
REMARK VINA RESULT:    -4.216      6.582     10.924
REMARK INTER + INTRA:          -5.326
REMARK INTER:                  -4.745
REMARK INTRA:                  -0.581
REMARK UNBOUND:                -0.371
REMARK SMILES Cc1ccc(CNC(=O)NC(=O)c2ccc(C)cc2)cc1
REMARK SMILES IDX 11 1 12 2 10 3 8 4 9 5 7 6 13 9 19 10 18 11 14 12 16 13
REMARK SMILES IDX 15 14 17 15 6 16 5 17 4 18 20 19 3 20 21 21 2 22 1 23
REMARK H PARENT 10 7 7 8
ROOT
ATOM      1  C   UNL     1      12.322  15.032   7.126  1.00  0.00     0.259 C 
ATOM      2  O   UNL     1      12.444  15.002   5.910  1.00  0.00    -0.269 OA
ATOM      3  N   UNL     1      11.168  15.248   7.885  1.00  0.00    -0.274 N 
ATOM      4  C   UNL     1       9.812  15.267   7.684  1.00  0.00     0.321 C 
ATOM      5  O   UNL     1       9.085  15.368   8.678  1.00  0.00    -0.248 OA
ATOM      6  N   UNL     1       9.238  15.151   6.472  1.00  0.00    -0.334 N 
ATOM      7  H   UNL     1      11.320  15.248   8.885  1.00  0.00     0.175 HD
ATOM      8  H   UNL     1       8.230  15.097   6.503  1.00  0.00     0.165 HD
ENDROOT
BRANCH   1   9
ATOM      9  C   UNL     1      13.547  14.806   7.918  1.00  0.00     0.040 A 
ATOM     10  C   UNL     1      13.715  15.383   9.178  1.00  0.00     0.014 A 
ATOM     11  C   UNL     1      14.867  15.098   9.913  1.00  0.00     0.004 A 
ATOM     12  C   UNL     1      14.545  13.997   7.367  1.00  0.00     0.014 A 
ATOM     13  C   UNL     1      15.852  14.246   9.390  1.00  0.00    -0.051 A 
ATOM     14  C   UNL     1      15.691  13.709   8.107  1.00  0.00     0.004 A 
ATOM     15  C   UNL     1      17.044  13.881  10.226  1.00  0.00     0.044 C 
ENDBRANCH   1   9
BRANCH   6  16
ATOM     16  C   UNL     1       9.888  14.922   5.213  1.00  0.00     0.153 C 
BRANCH  16  17
ATOM     17  C   UNL     1       9.605  13.620   4.516  1.00  0.00    -0.029 A 
ATOM     18  C   UNL     1      10.577  12.903   3.811  1.00  0.00     0.006 A 
ATOM     19  C   UNL     1       8.365  13.011   4.771  1.00  0.00     0.006 A 
ATOM     20  C   UNL     1      10.317  11.594   3.395  1.00  0.00     0.004 A 
ATOM     21  C   UNL     1       8.109  11.707   4.360  1.00  0.00     0.004 A 
ATOM     22  C   UNL     1       9.087  10.983   3.677  1.00  0.00    -0.051 A 
ATOM     23  C   UNL     1       8.854   9.536   3.360  1.00  0.00     0.044 C 
ENDBRANCH  16  17
ENDBRANCH   6  16
TORSDOF 3
ENDMDL
