MODEL 1
REMARK VINA RESULT:    -4.019      0.000      0.000
REMARK INTER + INTRA:          -5.536
REMARK INTER:                  -5.311
REMARK INTRA:                  -0.224
REMARK UNBOUND:                -0.224
REMARK SMILES [H]/N=C\C[C@H]1C[C@@H]1O[C@H]1CO[C@H]2C[C@@H](C3CC3)CCN2C1
REMARK SMILES IDX 7 1 6 2 5 3 8 4 9 5 14 6 13 7 18 8 12 9 19 10 20 11 11 12
REMARK SMILES IDX 21 13 10 14 15 15 16 16 17 17 4 18 3 19 2 20 1 21
REMARK H PARENT
ROOT
ATOM      1  C   UNL     1       7.587  -2.072   9.365  1.00  0.00     0.122 C 
ATOM      2  C   UNL     1       8.090  -2.918  10.500  1.00  0.00     0.039 C 
ATOM      3  C   UNL     1       8.931  -2.741   9.268  1.00  0.00     0.026 C 
ENDROOT
BRANCH   1   4
ATOM      4  O   UNL     1       6.513  -2.673   8.616  1.00  0.00    -0.371 OA
BRANCH   4   5
ATOM      5  C   UNL     1       5.243  -2.722   9.286  1.00  0.00     0.158 C 
ATOM      6  C   UNL     1       2.208  -1.214   5.321  1.00  0.00    -0.003 C 
ATOM      7  C   UNL     1       3.224  -0.534   6.246  1.00  0.00     0.052 C 
ATOM      8  C   UNL     1       2.626  -2.673   5.092  1.00  0.00     0.019 C 
ATOM      9  C   UNL     1       3.441  -1.332   7.539  1.00  0.00     0.189 C 
ATOM     10  C   UNL     1       2.859  -3.401   6.416  1.00  0.00     0.087 C 
ATOM     11  N   UNL     1       3.853  -2.701   7.230  1.00  0.00    -0.276 NA
ATOM     12  O   UNL     1       4.433  -0.630   8.291  1.00  0.00    -0.360 OA
ATOM     13  C   UNL     1       4.152  -3.434   8.466  1.00  0.00     0.121 C 
ATOM     14  C   UNL     1       4.771  -1.283   9.519  1.00  0.00     0.195 C 
BRANCH   6  15
ATOM     15  C   UNL     1       2.083  -0.485   4.002  1.00  0.00    -0.008 C 
ATOM     16  C   UNL     1       0.722  -0.169   3.429  1.00  0.00     0.004 C 
ATOM     17  C   UNL     1       1.588   0.941   3.950  1.00  0.00     0.004 C 
ENDBRANCH   6  15
ENDBRANCH   4   5
ENDBRANCH   1   4
BRANCH   3  18
ATOM     18  C   UNL     1      10.188  -1.927   9.357  1.00  0.00     0.053 C 
BRANCH  18  19
ATOM     19  C   UNL     1      11.226  -2.411  10.335  1.00  0.00     0.074 C 
BRANCH  19  20
ATOM     20  N   UNL     1      12.176  -3.249  10.079  1.00  0.00    -0.313 NA
ATOM     21  H   UNL     1      12.782  -2.914   9.317  1.00  0.00     0.186 HD
ENDBRANCH  19  20
ENDBRANCH  18  19
ENDBRANCH   3  18
TORSDOF 6
ENDMDL
MODEL 2
REMARK VINA RESULT:    -4.006      3.299      5.529
REMARK INTER + INTRA:          -5.518
REMARK INTER:                  -5.247
REMARK INTRA:                  -0.271
REMARK UNBOUND:                -0.224
REMARK SMILES [H]/N=C\C[C@H]1C[C@@H]1O[C@H]1CO[C@H]2C[C@@H](C3CC3)CCN2C1
REMARK SMILES IDX 7 1 6 2 5 3 8 4 9 5 14 6 13 7 18 8 12 9 19 10 20 11 11 12
REMARK SMILES IDX 21 13 10 14 15 15 16 16 17 17 4 18 3 19 2 20 1 21
REMARK H PARENT
ROOT
ATOM      1  C   UNL     1       3.333  -0.824  11.252  1.00  0.00     0.122 C 
ATOM      2  C   UNL     1       3.791   0.191  12.262  1.00  0.00     0.039 C 
ATOM      3  C   UNL     1       2.333  -0.158  12.158  1.00  0.00     0.026 C 
ENDROOT
BRANCH   1   4
ATOM      4  O   UNL     1       3.379  -0.358   9.890  1.00  0.00    -0.371 OA
BRANCH   4   5
ATOM      5  C   UNL     1       4.690  -0.280   9.306  1.00  0.00     0.158 C 
ATOM      6  C   UNL     1       3.588  -2.317   4.633  1.00  0.00    -0.003 C 
ATOM      7  C   UNL     1       3.719  -2.856   6.063  1.00  0.00     0.052 C 
ATOM      8  C   UNL     1       3.056  -0.878   4.680  1.00  0.00     0.019 C 
ATOM      9  C   UNL     1       4.541  -1.914   6.954  1.00  0.00     0.189 C 
ATOM     10  C   UNL     1       3.896  -0.002   5.609  1.00  0.00     0.087 C 
ATOM     11  N   UNL     1       3.955  -0.574   6.955  1.00  0.00    -0.276 NA
ATOM     12  O   UNL     1       4.553  -2.495   8.259  1.00  0.00    -0.360 OA
ATOM     13  C   UNL     1       4.685   0.300   7.881  1.00  0.00     0.121 C 
ATOM     14  C   UNL     1       5.258  -1.701   9.219  1.00  0.00     0.195 C 
BRANCH   6  15
ATOM     15  C   UNL     1       2.685  -3.190   3.792  1.00  0.00    -0.008 C 
ATOM     16  C   UNL     1       3.176  -3.760   2.482  1.00  0.00     0.004 C 
ATOM     17  C   UNL     1       2.948  -4.670   3.654  1.00  0.00     0.004 C 
ENDBRANCH   6  15
ENDBRANCH   4   5
ENDBRANCH   1   4
BRANCH   3  18
ATOM     18  C   UNL     1       1.690  -0.930  13.271  1.00  0.00     0.053 C 
BRANCH  18  19
ATOM     19  C   UNL     1       1.779  -0.318  14.644  1.00  0.00     0.074 C 
BRANCH  19  20
ATOM     20  N   UNL     1       1.139   0.727  15.051  1.00  0.00    -0.313 NA
ATOM     21  H   UNL     1       0.560   1.133  14.303  1.00  0.00     0.186 HD
ENDBRANCH  19  20
ENDBRANCH  18  19
ENDBRANCH   3  18
TORSDOF 6
ENDMDL
MODEL 3
REMARK VINA RESULT:    -3.908      1.508      1.810
REMARK INTER + INTRA:          -5.389
REMARK INTER:                  -5.592
REMARK INTRA:                   0.202
REMARK UNBOUND:                -0.224
REMARK SMILES [H]/N=C\C[C@H]1C[C@@H]1O[C@H]1CO[C@H]2C[C@@H](C3CC3)CCN2C1
REMARK SMILES IDX 7 1 6 2 5 3 8 4 9 5 14 6 13 7 18 8 12 9 19 10 20 11 11 12
REMARK SMILES IDX 21 13 10 14 15 15 16 16 17 17 4 18 3 19 2 20 1 21
REMARK H PARENT
ROOT
ATOM      1  C   UNL     1       7.544  -3.223   9.300  1.00  0.00     0.122 C 
ATOM      2  C   UNL     1       8.891  -2.568   9.182  1.00  0.00     0.039 C 
ATOM      3  C   UNL     1       8.176  -2.576  10.502  1.00  0.00     0.026 C 
ENDROOT
BRANCH   1   4
ATOM      4  O   UNL     1       6.479  -2.495   8.661  1.00  0.00    -0.371 OA
BRANCH   4   5
ATOM      5  C   UNL     1       5.205  -2.552   9.324  1.00  0.00     0.158 C 
ATOM      6  C   UNL     1       2.168  -1.218   5.299  1.00  0.00    -0.003 C 
ATOM      7  C   UNL     1       3.164  -0.491   6.212  1.00  0.00     0.052 C 
ATOM      8  C   UNL     1       2.618  -2.674   5.114  1.00  0.00     0.019 C 
ATOM      9  C   UNL     1       3.388  -1.249   7.527  1.00  0.00     0.189 C 
ATOM     10  C   UNL     1       2.856  -3.359   6.459  1.00  0.00     0.087 C 
ATOM     11  N   UNL     1       3.830  -2.617   7.260  1.00  0.00    -0.276 NA
ATOM     12  O   UNL     1       4.360  -0.506   8.266  1.00  0.00    -0.360 OA
ATOM     13  C   UNL     1       4.135  -3.309   8.517  1.00  0.00     0.121 C 
ATOM     14  C   UNL     1       4.702  -1.117   9.514  1.00  0.00     0.195 C 
BRANCH   6  15
ATOM     15  C   UNL     1       2.038  -0.528   3.960  1.00  0.00    -0.008 C 
ATOM     16  C   UNL     1       0.675  -0.192   3.403  1.00  0.00     0.004 C 
ATOM     17  C   UNL     1       1.582   0.908   3.870  1.00  0.00     0.004 C 
ENDBRANCH   6  15
ENDBRANCH   4   5
ENDBRANCH   1   4
BRANCH   3  18
ATOM     18  C   UNL     1       8.719  -3.420  11.617  1.00  0.00     0.053 C 
BRANCH  18  19
ATOM     19  C   UNL     1       8.470  -2.917  13.015  1.00  0.00     0.074 C 
BRANCH  19  20
ATOM     20  N   UNL     1       7.652  -3.433  13.871  1.00  0.00    -0.313 NA
ATOM     21  H   UNL     1       8.055  -3.450  14.819  1.00  0.00     0.186 HD
ENDBRANCH  19  20
ENDBRANCH  18  19
ENDBRANCH   3  18
TORSDOF 6
ENDMDL
MODEL 4
REMARK VINA RESULT:    -3.837      4.193      6.706
REMARK INTER + INTRA:          -5.295
REMARK INTER:                  -5.030
REMARK INTRA:                  -0.265
REMARK UNBOUND:                -0.224
REMARK SMILES [H]/N=C\C[C@H]1C[C@@H]1O[C@H]1CO[C@H]2C[C@@H](C3CC3)CCN2C1
REMARK SMILES IDX 7 1 6 2 5 3 8 4 9 5 14 6 13 7 18 8 12 9 19 10 20 11 11 12
REMARK SMILES IDX 21 13 10 14 15 15 16 16 17 17 4 18 3 19 2 20 1 21
REMARK H PARENT
ROOT
ATOM      1  C   UNL     1      11.689  -0.543  13.896  1.00  0.00     0.122 C 
ATOM      2  C   UNL     1      12.293   0.548  13.056  1.00  0.00     0.039 C 
ATOM      3  C   UNL     1      11.788   0.857  14.436  1.00  0.00     0.026 C 
ENDROOT
BRANCH   1   4
ATOM      4  O   UNL     1      10.388  -0.973  13.452  1.00  0.00    -0.371 OA
BRANCH   4   5
ATOM      5  C   UNL     1      10.212  -2.394  13.335  1.00  0.00     0.158 C 
ATOM      6  C   UNL     1       6.851  -2.440   9.347  1.00  0.00    -0.003 C 
ATOM      7  C   UNL     1       6.789  -2.059  10.831  1.00  0.00     0.052 C 
ATOM      8  C   UNL     1       8.254  -2.138   8.804  1.00  0.00     0.019 C 
ATOM      9  C   UNL     1       7.924  -2.709  11.634  1.00  0.00     0.189 C 
ATOM     10  C   UNL     1       9.338  -2.784   9.666  1.00  0.00     0.087 C 
ATOM     11  N   UNL     1       9.222  -2.356  11.060  1.00  0.00    -0.276 NA
ATOM     12  O   UNL     1       7.789  -2.247  12.980  1.00  0.00    -0.360 OA
ATOM     13  C   UNL     1      10.308  -2.899  11.884  1.00  0.00     0.121 C 
ATOM     14  C   UNL     1       8.811  -2.744  13.848  1.00  0.00     0.195 C 
BRANCH   6  15
ATOM     15  C   UNL     1       5.801  -1.707   8.542  1.00  0.00    -0.008 C 
ATOM     16  C   UNL     1       4.493  -2.381   8.200  1.00  0.00     0.004 C 
ATOM     17  C   UNL     1       4.514  -1.248   9.184  1.00  0.00     0.004 C 
ENDBRANCH   6  15
ENDBRANCH   4   5
ENDBRANCH   1   4
BRANCH   3  18
ATOM     18  C   UNL     1      12.776   1.183  15.516  1.00  0.00     0.053 C 
BRANCH  18  19
ATOM     19  C   UNL     1      12.472   2.398  16.353  1.00  0.00     0.074 C 
BRANCH  19  20
ATOM     20  N   UNL     1      12.078   3.545  15.908  1.00  0.00    -0.313 NA
ATOM     21  H   UNL     1      11.105   3.744  16.180  1.00  0.00     0.186 HD
ENDBRANCH  19  20
ENDBRANCH  18  19
ENDBRANCH   3  18
TORSDOF 6
ENDMDL
MODEL 5
REMARK VINA RESULT:    -3.805      3.566      5.024
REMARK INTER + INTRA:          -5.252
REMARK INTER:                  -5.025
REMARK INTRA:                  -0.227
REMARK UNBOUND:                -0.224
REMARK SMILES [H]/N=C\C[C@H]1C[C@@H]1O[C@H]1CO[C@H]2C[C@@H](C3CC3)CCN2C1
REMARK SMILES IDX 7 1 6 2 5 3 8 4 9 5 14 6 13 7 18 8 12 9 19 10 20 11 11 12
REMARK SMILES IDX 21 13 10 14 15 15 16 16 17 17 4 18 3 19 2 20 1 21
REMARK H PARENT
ROOT
ATOM      1  C   UNL     1      11.236  -1.324   9.804  1.00  0.00     0.122 C 
ATOM      2  C   UNL     1      12.001  -0.163   9.233  1.00  0.00     0.039 C 
ATOM      3  C   UNL     1      11.560  -0.137  10.669  1.00  0.00     0.026 C 
ENDROOT
BRANCH   1   4
ATOM      4  O   UNL     1       9.880  -1.424   9.329  1.00  0.00    -0.371 OA
BRANCH   4   5
ATOM      5  C   UNL     1       9.279  -2.724   9.440  1.00  0.00     0.158 C 
ATOM      6  C   UNL     1       4.326  -1.241  10.133  1.00  0.00    -0.003 C 
ATOM      7  C   UNL     1       5.608  -1.219  10.976  1.00  0.00     0.052 C 
ATOM      8  C   UNL     1       4.690  -1.065   8.652  1.00  0.00     0.019 C 
ATOM      9  C   UNL     1       6.645  -2.226  10.462  1.00  0.00     0.189 C 
ATOM     10  C   UNL     1       5.750  -2.074   8.213  1.00  0.00     0.087 C 
ATOM     11  N   UNL     1       6.945  -1.977   9.052  1.00  0.00    -0.276 NA
ATOM     12  O   UNL     1       7.800  -2.081  11.290  1.00  0.00    -0.360 OA
ATOM     13  C   UNL     1       8.005  -2.879   8.590  1.00  0.00     0.121 C 
ATOM     14  C   UNL     1       8.878  -2.940  10.904  1.00  0.00     0.195 C 
BRANCH   6  15
ATOM     15  C   UNL     1       3.355  -0.168  10.572  1.00  0.00    -0.008 C 
ATOM     16  C   UNL     1       2.298  -0.473  11.607  1.00  0.00     0.004 C 
ATOM     17  C   UNL     1       3.442   0.435  11.953  1.00  0.00     0.004 C 
ENDBRANCH   6  15
ENDBRANCH   4   5
ENDBRANCH   1   4
BRANCH   3  18
ATOM     18  C   UNL     1      12.595  -0.248  11.748  1.00  0.00     0.053 C 
BRANCH  18  19
ATOM     19  C   UNL     1      12.182   0.223  13.118  1.00  0.00     0.074 C 
BRANCH  19  20
ATOM     20  N   UNL     1      10.996   0.601  13.463  1.00  0.00    -0.313 NA
ATOM     21  H   UNL     1      10.703   1.446  12.954  1.00  0.00     0.186 HD
ENDBRANCH  19  20
ENDBRANCH  18  19
ENDBRANCH   3  18
TORSDOF 6
ENDMDL
MODEL 6
REMARK VINA RESULT:    -3.788      4.229      7.210
REMARK INTER + INTRA:          -5.230
REMARK INTER:                  -4.697
REMARK INTRA:                  -0.532
REMARK UNBOUND:                -0.224
REMARK SMILES [H]/N=C\C[C@H]1C[C@@H]1O[C@H]1CO[C@H]2C[C@@H](C3CC3)CCN2C1
REMARK SMILES IDX 7 1 6 2 5 3 8 4 9 5 14 6 13 7 18 8 12 9 19 10 20 11 11 12
REMARK SMILES IDX 21 13 10 14 15 15 16 16 17 17 4 18 3 19 2 20 1 21
REMARK H PARENT
ROOT
ATOM      1  C   UNL     1      10.715  -1.406  15.184  1.00  0.00     0.122 C 
ATOM      2  C   UNL     1      10.946  -0.020  15.715  1.00  0.00     0.039 C 
ATOM      3  C   UNL     1       9.561  -0.452  15.328  1.00  0.00     0.026 C 
ENDROOT
BRANCH   1   4
ATOM      4  O   UNL     1      11.217  -1.615  13.850  1.00  0.00    -0.371 OA
BRANCH   4   5
ATOM      5  C   UNL     1      11.248  -2.981  13.406  1.00  0.00     0.158 C 
ATOM      6  C   UNL     1       7.736  -2.637   9.565  1.00  0.00    -0.003 C 
ATOM      7  C   UNL     1       7.693  -2.620  11.098  1.00  0.00     0.052 C 
ATOM      8  C   UNL     1       9.051  -2.004   9.088  1.00  0.00     0.019 C 
ATOM      9  C   UNL     1       8.950  -3.251  11.711  1.00  0.00     0.189 C 
ATOM     10  C   UNL     1      10.260  -2.653   9.760  1.00  0.00     0.087 C 
ATOM     11  N   UNL     1      10.152  -2.578  11.217  1.00  0.00    -0.276 NA
ATOM     12  O   UNL     1       8.816  -3.136  13.129  1.00  0.00    -0.360 OA
ATOM     13  C   UNL     1      11.346  -3.119  11.876  1.00  0.00     0.121 C 
ATOM     14  C   UNL     1       9.943  -3.653  13.843  1.00  0.00     0.195 C 
BRANCH   6  15
ATOM     15  C   UNL     1       6.551  -1.914   8.968  1.00  0.00    -0.008 C 
ATOM     16  C   UNL     1       5.267  -2.656   8.683  1.00  0.00     0.004 C 
ATOM     17  C   UNL     1       5.314  -1.645   9.791  1.00  0.00     0.004 C 
ENDBRANCH   6  15
ENDBRANCH   4   5
ENDBRANCH   1   4
BRANCH   3  18
ATOM     18  C   UNL     1       8.537  -0.661  16.403  1.00  0.00     0.053 C 
BRANCH  18  19
ATOM     19  C   UNL     1       7.212  -1.225  15.960  1.00  0.00     0.074 C 
BRANCH  19  20
ATOM     20  N   UNL     1       7.042  -2.274  15.226  1.00  0.00    -0.313 NA
ATOM     21  H   UNL     1       7.460  -3.111  15.656  1.00  0.00     0.186 HD
ENDBRANCH  19  20
ENDBRANCH  18  19
ENDBRANCH   3  18
TORSDOF 6
ENDMDL
MODEL 7
REMARK VINA RESULT:    -3.549      1.312      1.576
REMARK INTER + INTRA:          -4.915
REMARK INTER:                  -4.964
REMARK INTRA:                   0.049
REMARK UNBOUND:                -0.224
REMARK SMILES [H]/N=C\C[C@H]1C[C@@H]1O[C@H]1CO[C@H]2C[C@@H](C3CC3)CCN2C1
REMARK SMILES IDX 7 1 6 2 5 3 8 4 9 5 14 6 13 7 18 8 12 9 19 10 20 11 11 12
REMARK SMILES IDX 21 13 10 14 15 15 16 16 17 17 4 18 3 19 2 20 1 21
REMARK H PARENT
ROOT
ATOM      1  C   UNL     1       7.471  -2.488   9.373  1.00  0.00     0.122 C 
ATOM      2  C   UNL     1       8.268  -3.414   8.498  1.00  0.00     0.039 C 
ATOM      3  C   UNL     1       8.940  -2.243   9.157  1.00  0.00     0.026 C 
ENDROOT
BRANCH   1   4
ATOM      4  O   UNL     1       6.562  -1.635   8.650  1.00  0.00    -0.371 OA
BRANCH   4   5
ATOM      5  C   UNL     1       5.290  -1.411   9.279  1.00  0.00     0.158 C 
ATOM      6  C   UNL     1       2.202  -2.708   5.281  1.00  0.00    -0.003 C 
ATOM      7  C   UNL     1       3.129  -1.533   5.617  1.00  0.00     0.052 C 
ATOM      8  C   UNL     1       2.766  -3.993   5.904  1.00  0.00     0.019 C 
ATOM      9  C   UNL     1       3.397  -1.432   7.125  1.00  0.00     0.189 C 
ATOM     10  C   UNL     1       3.042  -3.815   7.396  1.00  0.00     0.087 C 
ATOM     11  N   UNL     1       3.947  -2.690   7.631  1.00  0.00    -0.276 NA
ATOM     12  O   UNL     1       4.300  -0.340   7.307  1.00  0.00    -0.360 OA
ATOM     13  C   UNL     1       4.291  -2.560   9.051  1.00  0.00     0.121 C 
ATOM     14  C   UNL     1       4.675  -0.145   8.674  1.00  0.00     0.195 C 
BRANCH   6  15
ATOM     15  C   UNL     1       2.033  -2.872   3.787  1.00  0.00    -0.008 C 
ATOM     16  C   UNL     1       1.431  -1.761   2.960  1.00  0.00     0.004 C 
ATOM     17  C   UNL     1       2.889  -2.088   2.821  1.00  0.00     0.004 C 
ENDBRANCH   6  15
ENDBRANCH   4   5
ENDBRANCH   1   4
BRANCH   3  18
ATOM     18  C   UNL     1       9.918  -2.496  10.265  1.00  0.00     0.053 C 
BRANCH  18  19
ATOM     19  C   UNL     1      11.262  -1.826  10.132  1.00  0.00     0.074 C 
BRANCH  19  20
ATOM     20  N   UNL     1      11.466  -0.604   9.770  1.00  0.00    -0.313 NA
ATOM     21  H   UNL     1      11.975  -0.074  10.491  1.00  0.00     0.186 HD
ENDBRANCH  19  20
ENDBRANCH  18  19
ENDBRANCH   3  18
TORSDOF 6
ENDMDL
MODEL 8
REMARK VINA RESULT:    -3.519      3.342      5.199
REMARK INTER + INTRA:          -4.875
REMARK INTER:                  -5.318
REMARK INTRA:                   0.444
REMARK UNBOUND:                -0.224
REMARK SMILES [H]/N=C\C[C@H]1C[C@@H]1O[C@H]1CO[C@H]2C[C@@H](C3CC3)CCN2C1
REMARK SMILES IDX 7 1 6 2 5 3 8 4 9 5 14 6 13 7 18 8 12 9 19 10 20 11 11 12
REMARK SMILES IDX 21 13 10 14 15 15 16 16 17 17 4 18 3 19 2 20 1 21
REMARK H PARENT
ROOT
ATOM      1  C   UNL     1       3.297  -0.373  11.155  1.00  0.00     0.122 C 
ATOM      2  C   UNL     1       2.045   0.454  11.070  1.00  0.00     0.039 C 
ATOM      3  C   UNL     1       2.167  -0.614  12.119  1.00  0.00     0.026 C 
ENDROOT
BRANCH   1   4
ATOM      4  O   UNL     1       3.445  -1.326  10.085  1.00  0.00    -0.371 OA
BRANCH   4   5
ATOM      5  C   UNL     1       4.774  -1.462   9.557  1.00  0.00     0.158 C 
ATOM      6  C   UNL     1       3.653  -0.992   4.485  1.00  0.00    -0.003 C 
ATOM      7  C   UNL     1       3.441  -2.063   5.562  1.00  0.00     0.052 C 
ATOM      8  C   UNL     1       3.592   0.399   5.133  1.00  0.00     0.019 C 
ATOM      9  C   UNL     1       4.403  -1.881   6.744  1.00  0.00     0.189 C 
ATOM     10  C   UNL     1       4.547   0.503   6.322  1.00  0.00     0.087 C 
ATOM     11  N   UNL     1       4.268  -0.539   7.310  1.00  0.00    -0.276 NA
ATOM     12  O   UNL     1       4.081  -2.899   7.693  1.00  0.00    -0.360 OA
ATOM     13  C   UNL     1       5.118  -0.399   8.498  1.00  0.00     0.121 C 
ATOM     14  C   UNL     1       4.879  -2.832   8.879  1.00  0.00     0.195 C 
BRANCH   6  15
ATOM     15  C   UNL     1       2.629  -1.107   3.378  1.00  0.00    -0.008 C 
ATOM     16  C   UNL     1       2.033  -2.450   3.026  1.00  0.00     0.004 C 
ATOM     17  C   UNL     1       1.183  -1.406   3.691  1.00  0.00     0.004 C 
ENDBRANCH   6  15
ENDBRANCH   4   5
ENDBRANCH   1   4
BRANCH   3  18
ATOM     18  C   UNL     1       2.300  -0.208  13.556  1.00  0.00     0.053 C 
BRANCH  18  19
ATOM     19  C   UNL     1       1.663  -1.124  14.569  1.00  0.00     0.074 C 
BRANCH  19  20
ATOM     20  N   UNL     1       2.285  -1.965  15.326  1.00  0.00    -0.313 NA
ATOM     21  H   UNL     1       1.847  -2.036  16.255  1.00  0.00     0.186 HD
ENDBRANCH  19  20
ENDBRANCH  18  19
ENDBRANCH   3  18
TORSDOF 6
ENDMDL
MODEL 9
REMARK VINA RESULT:    -3.233      2.680      8.330
REMARK INTER + INTRA:          -4.496
REMARK INTER:                  -4.721
REMARK INTRA:                   0.225
REMARK UNBOUND:                -0.224
REMARK SMILES [H]/N=C\C[C@H]1C[C@@H]1O[C@H]1CO[C@H]2C[C@@H](C3CC3)CCN2C1
REMARK SMILES IDX 7 1 6 2 5 3 8 4 9 5 14 6 13 7 18 8 12 9 19 10 20 11 11 12
REMARK SMILES IDX 21 13 10 14 15 15 16 16 17 17 4 18 3 19 2 20 1 21
REMARK H PARENT
ROOT
ATOM      1  C   UNL     1       5.190  -1.559   8.871  1.00  0.00     0.122 C 
ATOM      2  C   UNL     1       4.290  -0.497   9.437  1.00  0.00     0.039 C 
ATOM      3  C   UNL     1       5.045  -0.238   8.165  1.00  0.00     0.026 C 
ENDROOT
BRANCH   1   4
ATOM      4  O   UNL     1       6.404  -1.761   9.619  1.00  0.00    -0.371 OA
BRANCH   4   5
ATOM      5  C   UNL     1       7.041  -3.035   9.435  1.00  0.00     0.158 C 
ATOM      6  C   UNL     1      11.730  -1.858  11.391  1.00  0.00    -0.003 C 
ATOM      7  C   UNL     1      10.953  -1.509  10.116  1.00  0.00     0.052 C 
ATOM      8  C   UNL     1      10.744  -2.038  12.553  1.00  0.00     0.019 C 
ATOM      9  C   UNL     1       9.834  -2.522   9.835  1.00  0.00     0.189 C 
ATOM     10  C   UNL     1       9.637  -3.031  12.198  1.00  0.00     0.087 C 
ATOM     11  N   UNL     1       8.933  -2.618  10.984  1.00  0.00    -0.276 NA
ATOM     12  O   UNL     1       9.159  -2.069   8.660  1.00  0.00    -0.360 OA
ATOM     13  C   UNL     1       7.812  -3.513  10.678  1.00  0.00     0.121 C 
ATOM     14  C   UNL     1       8.054  -2.901   8.294  1.00  0.00     0.195 C 
BRANCH   6  15
ATOM     15  C   UNL     1      12.755  -0.797  11.724  1.00  0.00    -0.008 C 
ATOM     16  C   UNL     1      13.715  -0.304  10.667  1.00  0.00     0.004 C 
ATOM     17  C   UNL     1      12.629   0.601  11.170  1.00  0.00     0.004 C 
ENDBRANCH   6  15
ENDBRANCH   4   5
ENDBRANCH   1   4
BRANCH   3  18
ATOM     18  C   UNL     1       4.286  -0.151   6.875  1.00  0.00     0.053 C 
BRANCH  18  19
ATOM     19  C   UNL     1       4.541   1.073   6.033  1.00  0.00     0.074 C 
BRANCH  19  20
ATOM     20  N   UNL     1       5.042   2.188   6.451  1.00  0.00    -0.313 NA
ATOM     21  H   UNL     1       4.440   2.988   6.210  1.00  0.00     0.186 HD
ENDBRANCH  19  20
ENDBRANCH  18  19
ENDBRANCH   3  18
TORSDOF 6
ENDMDL
