MODEL 1
REMARK VINA RESULT:    -4.507      0.000      0.000
REMARK INTER + INTRA:          -6.110
REMARK INTER:                  -5.956
REMARK INTRA:                  -0.154
REMARK UNBOUND:                -0.154
REMARK SMILES [H]/N=C\C[C@H]1C[C@@H]1O[C@H]1CO[C@H]2C[C@@H](C3CC3)CCN2C1
REMARK SMILES IDX 7 1 6 2 5 3 8 4 9 5 14 6 13 7 18 8 12 9 19 10 20 11 11 12
REMARK SMILES IDX 21 13 10 14 15 15 16 16 17 17 4 18 3 19 2 20 1 21
REMARK H PARENT
ROOT
ATOM      1  C   UNL     1       5.352  15.141 -14.740  1.00  0.00     0.122 C 
ATOM      2  C   UNL     1       6.283  16.024 -13.957  1.00  0.00     0.039 C 
ATOM      3  C   UNL     1       6.232  14.550 -13.672  1.00  0.00     0.026 C 
ENDROOT
BRANCH   1   4
ATOM      4  O   UNL     1       3.962  15.314 -14.407  1.00  0.00    -0.371 OA
BRANCH   4   5
ATOM      5  C   UNL     1       3.033  14.587 -15.228  1.00  0.00     0.158 C 
ATOM      6  C   UNL     1       0.819  11.673 -11.511  1.00  0.00    -0.003 C 
ATOM      7  C   UNL     1       2.180  11.703 -12.218  1.00  0.00     0.052 C 
ATOM      8  C   UNL     1       0.268  13.102 -11.409  1.00  0.00     0.019 C 
ATOM      9  C   UNL     1       2.108  12.443 -13.561  1.00  0.00     0.189 C 
ATOM     10  C   UNL     1       0.256  13.794 -12.771  1.00  0.00     0.087 C 
ATOM     11  N   UNL     1       1.591  13.798 -13.369  1.00  0.00    -0.276 NA
ATOM     12  O   UNL     1       3.432  12.446 -14.097  1.00  0.00    -0.360 OA
ATOM     13  C   UNL     1       1.613  14.536 -14.638  1.00  0.00     0.121 C 
ATOM     14  C   UNL     1       3.531  13.142 -15.344  1.00  0.00     0.195 C 
BRANCH   6  15
ATOM     15  C   UNL     1       0.920  11.043 -10.140  1.00  0.00    -0.008 C 
ATOM     16  C   UNL     1       0.008   9.902  -9.755  1.00  0.00     0.004 C 
ATOM     17  C   UNL     1       1.473   9.649  -9.968  1.00  0.00     0.004 C 
ENDBRANCH   6  15
ENDBRANCH   4   5
ENDBRANCH   1   4
BRANCH   3  18
ATOM     18  C   UNL     1       7.406  13.696 -14.046  1.00  0.00     0.053 C 
BRANCH  18  19
ATOM     19  C   UNL     1       7.532  12.382 -13.320  1.00  0.00     0.074 C 
BRANCH  19  20
ATOM     20  N   UNL     1       8.485  11.523 -13.469  1.00  0.00    -0.313 NA
ATOM     21  H   UNL     1       8.142  10.556 -13.378  1.00  0.00     0.186 HD
ENDBRANCH  19  20
ENDBRANCH  18  19
ENDBRANCH   3  18
TORSDOF 6
ENDMDL
MODEL 2
REMARK VINA RESULT:    -4.416      4.023      5.807
REMARK INTER + INTRA:          -5.990
REMARK INTER:                  -5.714
REMARK INTRA:                  -0.276
REMARK UNBOUND:                -0.154
REMARK SMILES [H]/N=C\C[C@H]1C[C@@H]1O[C@H]1CO[C@H]2C[C@@H](C3CC3)CCN2C1
REMARK SMILES IDX 7 1 6 2 5 3 8 4 9 5 14 6 13 7 18 8 12 9 19 10 20 11 11 12
REMARK SMILES IDX 21 13 10 14 15 15 16 16 17 17 4 18 3 19 2 20 1 21
REMARK H PARENT
ROOT
ATOM      1  C   UNL     1       2.792  10.506 -13.746  1.00  0.00     0.122 C 
ATOM      2  C   UNL     1       3.239   9.477 -14.746  1.00  0.00     0.039 C 
ATOM      3  C   UNL     1       2.194  10.486 -15.126  1.00  0.00     0.026 C 
ENDROOT
BRANCH   1   4
ATOM      4  O   UNL     1       1.977   9.976 -12.683  1.00  0.00    -0.371 OA
BRANCH   4   5
ATOM      5  C   UNL     1       2.105  10.640 -11.415  1.00  0.00     0.158 C 
ATOM      6  C   UNL     1      -2.804  10.086  -9.742  1.00  0.00    -0.003 C 
ATOM      7  C   UNL     1      -2.096  10.928 -10.811  1.00  0.00     0.052 C 
ATOM      8  C   UNL     1      -2.079   8.741  -9.595  1.00  0.00     0.019 C 
ATOM      9  C   UNL     1      -0.592  11.055 -10.532  1.00  0.00     0.189 C 
ATOM     10  C   UNL     1      -0.583   8.936  -9.354  1.00  0.00     0.087 C 
ATOM     11  N   UNL     1       0.020   9.731 -10.423  1.00  0.00    -0.276 NA
ATOM     12  O   UNL     1      -0.040  11.815 -11.609  1.00  0.00    -0.360 OA
ATOM     13  C   UNL     1       1.472   9.854 -10.253  1.00  0.00     0.121 C 
ATOM     14  C   UNL     1       1.377  11.985 -11.506  1.00  0.00     0.195 C 
BRANCH   6  15
ATOM     15  C   UNL     1      -4.261   9.869 -10.082  1.00  0.00    -0.008 C 
ATOM     16  C   UNL     1      -5.333  10.702  -9.419  1.00  0.00     0.004 C 
ATOM     17  C   UNL     1      -5.032  10.897 -10.876  1.00  0.00     0.004 C 
ENDBRANCH   6  15
ENDBRANCH   4   5
ENDBRANCH   1   4
BRANCH   3  18
ATOM     18  C   UNL     1       2.543  11.556 -16.117  1.00  0.00     0.053 C 
BRANCH  18  19
ATOM     19  C   UNL     1       1.397  12.387 -16.632  1.00  0.00     0.074 C 
BRANCH  19  20
ATOM     20  N   UNL     1       0.157  12.258 -16.296  1.00  0.00    -0.313 NA
ATOM     21  H   UNL     1      -0.444  12.927 -16.797  1.00  0.00     0.186 HD
ENDBRANCH  19  20
ENDBRANCH  18  19
ENDBRANCH   3  18
TORSDOF 6
ENDMDL
MODEL 3
REMARK VINA RESULT:    -4.416      5.202      8.123
REMARK INTER + INTRA:          -5.990
REMARK INTER:                  -5.746
REMARK INTRA:                  -0.244
REMARK UNBOUND:                -0.154
REMARK SMILES [H]/N=C\C[C@H]1C[C@@H]1O[C@H]1CO[C@H]2C[C@@H](C3CC3)CCN2C1
REMARK SMILES IDX 7 1 6 2 5 3 8 4 9 5 14 6 13 7 18 8 12 9 19 10 20 11 11 12
REMARK SMILES IDX 21 13 10 14 15 15 16 16 17 17 4 18 3 19 2 20 1 21
REMARK H PARENT
ROOT
ATOM      1  C   UNL     1       0.512  10.005 -10.722  1.00  0.00     0.122 C 
ATOM      2  C   UNL     1       0.960  11.436 -10.825  1.00  0.00     0.039 C 
ATOM      3  C   UNL     1       1.946  10.325 -11.044  1.00  0.00     0.026 C 
ENDROOT
BRANCH   1   4
ATOM      4  O   UNL     1       0.233   9.573  -9.377  1.00  0.00    -0.371 OA
BRANCH   4   5
ATOM      5  C   UNL     1      -0.984  10.076  -8.804  1.00  0.00     0.158 C 
ATOM      6  C   UNL     1      -2.529   5.753  -6.329  1.00  0.00    -0.003 C 
ATOM      7  C   UNL     1      -2.448   6.212  -7.789  1.00  0.00     0.052 C 
ATOM      8  C   UNL     1      -1.386   6.394  -5.531  1.00  0.00     0.019 C 
ATOM      9  C   UNL     1      -2.387   7.741  -7.903  1.00  0.00     0.189 C 
ATOM     10  C   UNL     1      -1.359   7.911  -5.713  1.00  0.00     0.087 C 
ATOM     11  N   UNL     1      -1.262   8.266  -7.129  1.00  0.00    -0.276 NA
ATOM     12  O   UNL     1      -2.268   8.043  -9.295  1.00  0.00    -0.360 OA
ATOM     13  C   UNL     1      -1.148   9.717  -7.316  1.00  0.00     0.121 C 
ATOM     14  C   UNL     1      -2.161   9.446  -9.556  1.00  0.00     0.195 C 
BRANCH   6  15
ATOM     15  C   UNL     1      -2.474   4.246  -6.217  1.00  0.00    -0.008 C 
ATOM     16  C   UNL     1      -3.504   3.502  -5.399  1.00  0.00     0.004 C 
ATOM     17  C   UNL     1      -3.510   3.381  -6.895  1.00  0.00     0.004 C 
ENDBRANCH   6  15
ENDBRANCH   4   5
ENDBRANCH   1   4
BRANCH   3  18
ATOM     18  C   UNL     1       2.482  10.090 -12.424  1.00  0.00     0.053 C 
BRANCH  18  19
ATOM     19  C   UNL     1       3.112  11.276 -13.105  1.00  0.00     0.074 C 
BRANCH  19  20
ATOM     20  N   UNL     1       4.356  11.617 -13.035  1.00  0.00    -0.313 NA
ATOM     21  H   UNL     1       4.872  11.034 -12.361  1.00  0.00     0.186 HD
ENDBRANCH  19  20
ENDBRANCH  18  19
ENDBRANCH   3  18
TORSDOF 6
ENDMDL
MODEL 4
REMARK VINA RESULT:    -4.412      8.121     10.582
REMARK INTER + INTRA:          -5.985
REMARK INTER:                  -5.792
REMARK INTRA:                  -0.194
REMARK UNBOUND:                -0.154
REMARK SMILES [H]/N=C\C[C@H]1C[C@@H]1O[C@H]1CO[C@H]2C[C@@H](C3CC3)CCN2C1
REMARK SMILES IDX 7 1 6 2 5 3 8 4 9 5 14 6 13 7 18 8 12 9 19 10 20 11 11 12
REMARK SMILES IDX 21 13 10 14 15 15 16 16 17 17 4 18 3 19 2 20 1 21
REMARK H PARENT
ROOT
ATOM      1  C   UNL     1      -4.274  10.751  -9.553  1.00  0.00     0.122 C 
ATOM      2  C   UNL     1      -4.727  11.122 -10.937  1.00  0.00     0.039 C 
ATOM      3  C   UNL     1      -5.728  11.031  -9.822  1.00  0.00     0.026 C 
ENDROOT
BRANCH   1   4
ATOM      4  O   UNL     1      -3.899   9.368  -9.409  1.00  0.00    -0.371 OA
BRANCH   4   5
ATOM      5  C   UNL     1      -2.678   8.986 -10.062  1.00  0.00     0.158 C 
ATOM      6  C   UNL     1      -0.640   6.058  -6.257  1.00  0.00    -0.003 C 
ATOM      7  C   UNL     1      -0.870   7.556  -6.485  1.00  0.00     0.052 C 
ATOM      8  C   UNL     1      -1.758   5.262  -6.944  1.00  0.00     0.019 C 
ATOM      9  C   UNL     1      -1.047   7.885  -7.974  1.00  0.00     0.189 C 
ATOM     10  C   UNL     1      -1.905   5.660  -8.413  1.00  0.00     0.087 C 
ATOM     11  N   UNL     1      -2.141   7.098  -8.544  1.00  0.00    -0.276 NA
ATOM     12  O   UNL     1      -1.299   9.289  -8.055  1.00  0.00    -0.360 OA
ATOM     13  C   UNL     1      -2.371   7.482  -9.941  1.00  0.00     0.121 C 
ATOM     14  C   UNL     1      -1.524   9.742  -9.394  1.00  0.00     0.195 C 
BRANCH   6  15
ATOM     15  C   UNL     1      -0.580   5.724  -4.783  1.00  0.00    -0.008 C 
ATOM     16  C   UNL     1       0.465   4.768  -4.258  1.00  0.00     0.004 C 
ATOM     17  C   UNL     1       0.552   6.228  -3.921  1.00  0.00     0.004 C 
ENDBRANCH   6  15
ENDBRANCH   4   5
ENDBRANCH   1   4
BRANCH   3  18
ATOM     18  C   UNL     1      -6.362  12.289  -9.310  1.00  0.00     0.053 C 
BRANCH  18  19
ATOM     19  C   UNL     1      -7.097  13.125 -10.326  1.00  0.00     0.074 C 
BRANCH  19  20
ATOM     20  N   UNL     1      -8.312  12.942 -10.721  1.00  0.00    -0.313 NA
ATOM     21  H   UNL     1      -8.813  12.278 -10.114  1.00  0.00     0.186 HD
ENDBRANCH  19  20
ENDBRANCH  18  19
ENDBRANCH   3  18
TORSDOF 6
ENDMDL
MODEL 5
REMARK VINA RESULT:    -4.412      3.364      5.247
REMARK INTER + INTRA:          -5.985
REMARK INTER:                  -5.898
REMARK INTRA:                  -0.086
REMARK UNBOUND:                -0.154
REMARK SMILES [H]/N=C\C[C@H]1C[C@@H]1O[C@H]1CO[C@H]2C[C@@H](C3CC3)CCN2C1
REMARK SMILES IDX 7 1 6 2 5 3 8 4 9 5 14 6 13 7 18 8 12 9 19 10 20 11 11 12
REMARK SMILES IDX 21 13 10 14 15 15 16 16 17 17 4 18 3 19 2 20 1 21
REMARK H PARENT
ROOT
ATOM      1  C   UNL     1       1.213  13.434 -15.940  1.00  0.00     0.122 C 
ATOM      2  C   UNL     1       0.599  12.748 -17.128  1.00  0.00     0.039 C 
ATOM      3  C   UNL     1      -0.056  13.967 -16.546  1.00  0.00     0.026 C 
ENDROOT
BRANCH   1   4
ATOM      4  O   UNL     1       1.082  12.703 -14.707  1.00  0.00    -0.371 OA
BRANCH   4   5
ATOM      5  C   UNL     1       1.664  13.327 -13.551  1.00  0.00     0.158 C 
ATOM      6  C   UNL     1      -0.146  10.067  -9.904  1.00  0.00    -0.003 C 
ATOM      7  C   UNL     1      -0.748  11.156 -10.800  1.00  0.00     0.052 C 
ATOM      8  C   UNL     1       1.011   9.382 -10.646  1.00  0.00     0.019 C 
ATOM      9  C   UNL     1       0.324  12.125 -11.318  1.00  0.00     0.189 C 
ATOM     10  C   UNL     1       2.023  10.402 -11.165  1.00  0.00     0.087 C 
ATOM     11  N   UNL     1       1.375  11.393 -12.025  1.00  0.00    -0.276 NA
ATOM     12  O   UNL     1      -0.346  13.057 -12.169  1.00  0.00    -0.360 OA
ATOM     13  C   UNL     1       2.347  12.328 -12.601  1.00  0.00     0.121 C 
ATOM     14  C   UNL     1       0.541  14.010 -12.763  1.00  0.00     0.195 C 
BRANCH   6  15
ATOM     15  C   UNL     1      -1.186   9.051  -9.490  1.00  0.00    -0.008 C 
ATOM     16  C   UNL     1      -1.622   8.949  -8.047  1.00  0.00     0.004 C 
ATOM     17  C   UNL     1      -2.572   9.487  -9.078  1.00  0.00     0.004 C 
ENDBRANCH   6  15
ENDBRANCH   4   5
ENDBRANCH   1   4
BRANCH   3  18
ATOM     18  C   UNL     1      -0.041  15.245 -17.330  1.00  0.00     0.053 C 
BRANCH  18  19
ATOM     19  C   UNL     1      -0.462  16.487 -16.589  1.00  0.00     0.074 C 
BRANCH  19  20
ATOM     20  N   UNL     1       0.257  17.143 -15.740  1.00  0.00    -0.313 NA
ATOM     21  H   UNL     1       0.816  16.512 -15.149  1.00  0.00     0.186 HD
ENDBRANCH  19  20
ENDBRANCH  18  19
ENDBRANCH   3  18
TORSDOF 6
ENDMDL
MODEL 6
REMARK VINA RESULT:    -4.395      6.020      9.574
REMARK INTER + INTRA:          -5.962
REMARK INTER:                  -5.761
REMARK INTRA:                  -0.201
REMARK UNBOUND:                -0.154
REMARK SMILES [H]/N=C\C[C@H]1C[C@@H]1O[C@H]1CO[C@H]2C[C@@H](C3CC3)CCN2C1
REMARK SMILES IDX 7 1 6 2 5 3 8 4 9 5 14 6 13 7 18 8 12 9 19 10 20 11 11 12
REMARK SMILES IDX 21 13 10 14 15 15 16 16 17 17 4 18 3 19 2 20 1 21
REMARK H PARENT
ROOT
ATOM      1  C   UNL     1      -6.618  13.781  -9.720  1.00  0.00     0.122 C 
ATOM      2  C   UNL     1      -7.159  14.532  -8.536  1.00  0.00     0.039 C 
ATOM      3  C   UNL     1      -6.131  15.173  -9.424  1.00  0.00     0.026 C 
ENDROOT
BRANCH   1   4
ATOM      4  O   UNL     1      -5.732  12.700  -9.373  1.00  0.00    -0.371 OA
BRANCH   4   5
ATOM      5  C   UNL     1      -5.865  11.510 -10.169  1.00  0.00     0.158 C 
ATOM      6  C   UNL     1      -0.897   9.927 -10.048  1.00  0.00    -0.003 C 
ATOM      7  C   UNL     1      -1.671  11.062 -10.729  1.00  0.00     0.052 C 
ATOM      8  C   UNL     1      -1.547   9.610  -8.694  1.00  0.00     0.019 C 
ATOM      9  C   UNL     1      -3.173  10.757 -10.812  1.00  0.00     0.189 C 
ATOM     10  C   UNL     1      -3.046   9.350  -8.842  1.00  0.00     0.087 C 
ATOM     11  N   UNL     1      -3.713  10.484  -9.481  1.00  0.00    -0.276 NA
ATOM     12  O   UNL     1      -3.789  11.895 -11.418  1.00  0.00    -0.360 OA
ATOM     13  C   UNL     1      -5.166  10.286  -9.551  1.00  0.00     0.121 C 
ATOM     14  C   UNL     1      -5.210  11.771 -11.529  1.00  0.00     0.195 C 
BRANCH   6  15
ATOM     15  C   UNL     1       0.562  10.282  -9.866  1.00  0.00    -0.008 C 
ATOM     16  C   UNL     1       1.593   9.811 -10.864  1.00  0.00     0.004 C 
ATOM     17  C   UNL     1       1.239  11.268 -10.788  1.00  0.00     0.004 C 
ENDBRANCH   6  15
ENDBRANCH   4   5
ENDBRANCH   1   4
BRANCH   3  18
ATOM     18  C   UNL     1      -6.539  16.319 -10.300  1.00  0.00     0.053 C 
BRANCH  18  19
ATOM     19  C   UNL     1      -5.488  16.846 -11.241  1.00  0.00     0.074 C 
BRANCH  19  20
ATOM     20  N   UNL     1      -4.220  16.613 -11.167  1.00  0.00    -0.313 NA
ATOM     21  H   UNL     1      -3.685  17.474 -10.983  1.00  0.00     0.186 HD
ENDBRANCH  19  20
ENDBRANCH  18  19
ENDBRANCH   3  18
TORSDOF 6
ENDMDL
MODEL 7
REMARK VINA RESULT:    -4.242      3.124      5.758
REMARK INTER + INTRA:          -5.760
REMARK INTER:                  -5.507
REMARK INTRA:                  -0.253
REMARK UNBOUND:                -0.154
REMARK SMILES [H]/N=C\C[C@H]1C[C@@H]1O[C@H]1CO[C@H]2C[C@@H](C3CC3)CCN2C1
REMARK SMILES IDX 7 1 6 2 5 3 8 4 9 5 14 6 13 7 18 8 12 9 19 10 20 11 11 12
REMARK SMILES IDX 21 13 10 14 15 15 16 16 17 17 4 18 3 19 2 20 1 21
REMARK H PARENT
ROOT
ATOM      1  C   UNL     1       0.488  14.291 -16.031  1.00  0.00     0.122 C 
ATOM      2  C   UNL     1       0.119  13.732 -17.377  1.00  0.00     0.039 C 
ATOM      3  C   UNL     1      -0.959  14.151 -16.419  1.00  0.00     0.026 C 
ENDROOT
BRANCH   1   4
ATOM      4  O   UNL     1       1.006  13.312 -15.111  1.00  0.00    -0.371 OA
BRANCH   4   5
ATOM      5  C   UNL     1       1.808  13.833 -14.038  1.00  0.00     0.158 C 
ATOM      6  C   UNL     1       0.424  10.456 -10.312  1.00  0.00    -0.003 C 
ATOM      7  C   UNL     1      -0.249  11.629 -11.037  1.00  0.00     0.052 C 
ATOM      8  C   UNL     1       1.397   9.758 -11.272  1.00  0.00     0.019 C 
ATOM      9  C   UNL     1       0.781  12.569 -11.677  1.00  0.00     0.189 C 
ATOM     10  C   UNL     1       2.372  10.753 -11.901  1.00  0.00     0.087 C 
ATOM     11  N   UNL     1       1.654  11.827 -12.587  1.00  0.00    -0.276 NA
ATOM     12  O   UNL     1       0.041  13.586 -12.355  1.00  0.00    -0.360 OA
ATOM     13  C   UNL     1       2.575  12.743 -13.269  1.00  0.00     0.121 C 
ATOM     14  C   UNL     1       0.875  14.525 -13.039  1.00  0.00     0.195 C 
BRANCH   6  15
ATOM     15  C   UNL     1      -0.596   9.473  -9.782  1.00  0.00    -0.008 C 
ATOM     16  C   UNL     1      -1.133   9.614  -8.378  1.00  0.00     0.004 C 
ATOM     17  C   UNL     1      -2.027   9.893  -9.551  1.00  0.00     0.004 C 
ENDBRANCH   6  15
ENDBRANCH   4   5
ENDBRANCH   1   4
BRANCH   3  18
ATOM     18  C   UNL     1      -1.778  15.367 -16.733  1.00  0.00     0.053 C 
BRANCH  18  19
ATOM     19  C   UNL     1      -3.271  15.173 -16.770  1.00  0.00     0.074 C 
BRANCH  19  20
ATOM     20  N   UNL     1      -3.885  14.045 -16.903  1.00  0.00    -0.313 NA
ATOM     21  H   UNL     1      -4.779  14.036 -16.391  1.00  0.00     0.186 HD
ENDBRANCH  19  20
ENDBRANCH  18  19
ENDBRANCH   3  18
TORSDOF 6
ENDMDL
MODEL 8
REMARK VINA RESULT:    -4.192      2.588      5.053
REMARK INTER + INTRA:          -5.694
REMARK INTER:                  -5.041
REMARK INTRA:                  -0.653
REMARK UNBOUND:                -0.154
REMARK SMILES [H]/N=C\C[C@H]1C[C@@H]1O[C@H]1CO[C@H]2C[C@@H](C3CC3)CCN2C1
REMARK SMILES IDX 7 1 6 2 5 3 8 4 9 5 14 6 13 7 18 8 12 9 19 10 20 11 11 12
REMARK SMILES IDX 21 13 10 14 15 15 16 16 17 17 4 18 3 19 2 20 1 21
REMARK H PARENT
ROOT
ATOM      1  C   UNL     1       0.350  15.241 -15.791  1.00  0.00     0.122 C 
ATOM      2  C   UNL     1      -0.696  15.288 -16.869  1.00  0.00     0.039 C 
ATOM      3  C   UNL     1      -0.964  14.536 -15.597  1.00  0.00     0.026 C 
ENDROOT
BRANCH   1   4
ATOM      4  O   UNL     1       1.485  14.414 -16.109  1.00  0.00    -0.371 OA
BRANCH   4   5
ATOM      5  C   UNL     1       2.678  14.680 -15.352  1.00  0.00     0.158 C 
ATOM      6  C   UNL     1       2.266  10.825 -11.863  1.00  0.00    -0.003 C 
ATOM      7  C   UNL     1       1.544  12.153 -12.123  1.00  0.00     0.052 C 
ATOM      8  C   UNL     1       2.733  10.231 -13.199  1.00  0.00     0.019 C 
ATOM      9  C   UNL     1       2.396  13.109 -12.969  1.00  0.00     0.189 C 
ATOM     10  C   UNL     1       3.545  11.243 -14.007  1.00  0.00     0.087 C 
ATOM     11  N   UNL     1       2.781  12.470 -14.228  1.00  0.00    -0.276 NA
ATOM     12  O   UNL     1       1.606  14.280 -13.182  1.00  0.00    -0.360 OA
ATOM     13  C   UNL     1       3.514  13.418 -15.075  1.00  0.00     0.121 C 
ATOM     14  C   UNL     1       2.262  15.258 -13.996  1.00  0.00     0.195 C 
BRANCH   6  15
ATOM     15  C   UNL     1       1.379   9.846 -11.127  1.00  0.00    -0.008 C 
ATOM     16  C   UNL     1       1.487   9.695  -9.628  1.00  0.00     0.004 C 
ATOM     17  C   UNL     1       0.268  10.333 -10.229  1.00  0.00     0.004 C 
ENDBRANCH   6  15
ENDBRANCH   4   5
ENDBRANCH   1   4
BRANCH   3  18
ATOM     18  C   UNL     1      -1.977  15.077 -14.633  1.00  0.00     0.053 C 
BRANCH  18  19
ATOM     19  C   UNL     1      -2.003  14.442 -13.267  1.00  0.00     0.074 C 
BRANCH  19  20
ATOM     20  N   UNL     1      -1.142  14.637 -12.325  1.00  0.00    -0.313 NA
ATOM     21  H   UNL     1      -1.602  14.787 -11.415  1.00  0.00     0.186 HD
ENDBRANCH  19  20
ENDBRANCH  18  19
ENDBRANCH   3  18
TORSDOF 6
ENDMDL
MODEL 9
REMARK VINA RESULT:    -4.107      8.938     12.086
REMARK INTER + INTRA:          -5.582
REMARK INTER:                  -4.888
REMARK INTRA:                  -0.694
REMARK UNBOUND:                -0.154
REMARK SMILES [H]/N=C\C[C@H]1C[C@@H]1O[C@H]1CO[C@H]2C[C@@H](C3CC3)CCN2C1
REMARK SMILES IDX 7 1 6 2 5 3 8 4 9 5 14 6 13 7 18 8 12 9 19 10 20 11 11 12
REMARK SMILES IDX 21 13 10 14 15 15 16 16 17 17 4 18 3 19 2 20 1 21
REMARK H PARENT
ROOT
ATOM      1  C   UNL     1      -9.965  14.941 -13.458  1.00  0.00     0.122 C 
ATOM      2  C   UNL     1     -10.971  14.431 -14.450  1.00  0.00     0.039 C 
ATOM      3  C   UNL     1     -10.703  13.658 -13.191  1.00  0.00     0.026 C 
ENDROOT
BRANCH   1   4
ATOM      4  O   UNL     1      -8.597  14.820 -13.893  1.00  0.00    -0.371 OA
BRANCH   4   5
ATOM      5  C   UNL     1      -7.645  15.619 -13.173  1.00  0.00     0.158 C 
ATOM      6  C   UNL     1      -4.748  11.771 -11.173  1.00  0.00    -0.003 C 
ATOM      7  C   UNL     1      -6.151  12.334 -10.920  1.00  0.00     0.052 C 
ATOM      8  C   UNL     1      -4.398  11.928 -12.659  1.00  0.00     0.019 C 
ATOM      9  C   UNL     1      -6.294  13.768 -11.448  1.00  0.00     0.189 C 
ATOM     10  C   UNL     1      -4.594  13.369 -13.130  1.00  0.00     0.087 C 
ATOM     11  N   UNL     1      -5.960  13.823 -12.871  1.00  0.00    -0.276 NA
ATOM     12  O   UNL     1      -7.644  14.163 -11.198  1.00  0.00    -0.360 OA
ATOM     13  C   UNL     1      -6.189  15.174 -13.395  1.00  0.00     0.121 C 
ATOM     14  C   UNL     1      -7.941  15.479 -11.676  1.00  0.00     0.195 C 
BRANCH   6  15
ATOM     15  C   UNL     1      -4.647  10.321 -10.754  1.00  0.00    -0.008 C 
ATOM     16  C   UNL     1      -3.838   9.931  -9.540  1.00  0.00     0.004 C 
ATOM     17  C   UNL     1      -5.335   9.828  -9.504  1.00  0.00     0.004 C 
ENDBRANCH   6  15
ENDBRANCH   4   5
ENDBRANCH   1   4
BRANCH   3  18
ATOM     18  C   UNL     1     -11.764  13.602 -12.133  1.00  0.00     0.053 C 
BRANCH  18  19
ATOM     19  C   UNL     1     -11.343  13.047 -10.797  1.00  0.00     0.074 C 
BRANCH  19  20
ATOM     20  N   UNL     1     -10.139  13.024 -10.332  1.00  0.00    -0.313 NA
ATOM     21  H   UNL     1     -10.109  12.647  -9.374  1.00  0.00     0.186 HD
ENDBRANCH  19  20
ENDBRANCH  18  19
ENDBRANCH   3  18
TORSDOF 6
ENDMDL
