MODEL 1
REMARK VINA RESULT:    -4.150      0.000      0.000
REMARK INTER + INTRA:          -5.692
REMARK INTER:                  -5.484
REMARK INTRA:                  -0.208
REMARK UNBOUND:                -0.208
REMARK SMILES [H]/N=C\C[C@H]1C[C@@H]1O[C@H]1CO[C@H]2C[C@@H](C3CC3)CCN2C1
REMARK SMILES IDX 7 1 6 2 5 3 8 4 9 5 14 6 13 7 18 8 12 9 19 10 20 11 11 12
REMARK SMILES IDX 21 13 10 14 15 15 16 16 17 17 4 18 3 19 2 20 1 21
REMARK H PARENT
ROOT
ATOM      1  C   UNL     1      -9.311  -1.188 -10.619  1.00  0.00     0.122 C 
ATOM      2  C   UNL     1     -10.714  -0.797 -10.990  1.00  0.00     0.039 C 
ATOM      3  C   UNL     1      -9.561   0.078 -11.393  1.00  0.00     0.026 C 
ENDROOT
BRANCH   1   4
ATOM      4  O   UNL     1      -9.010  -1.039  -9.219  1.00  0.00    -0.371 OA
BRANCH   4   5
ATOM      5  C   UNL     1      -9.601  -2.020  -8.350  1.00  0.00     0.158 C 
ATOM      6  C   UNL     1      -5.458  -2.986  -5.331  1.00  0.00    -0.003 C 
ATOM      7  C   UNL     1      -5.862  -3.304  -6.777  1.00  0.00     0.052 C 
ATOM      8  C   UNL     1      -6.062  -1.636  -4.921  1.00  0.00     0.019 C 
ATOM      9  C   UNL     1      -7.381  -3.210  -6.978  1.00  0.00     0.189 C 
ATOM     10  C   UNL     1      -7.568  -1.596  -5.178  1.00  0.00     0.087 C 
ATOM     11  N   UNL     1      -7.868  -1.889  -6.579  1.00  0.00    -0.276 NA
ATOM     12  O   UNL     1      -7.627  -3.478  -8.359  1.00  0.00    -0.360 OA
ATOM     13  C   UNL     1      -9.303  -1.770  -6.861  1.00  0.00     0.121 C 
ATOM     14  C   UNL     1      -9.012  -3.389  -8.709  1.00  0.00     0.195 C 
BRANCH   6  15
ATOM     15  C   UNL     1      -3.956  -2.968  -5.167  1.00  0.00    -0.008 C 
ATOM     16  C   UNL     1      -3.312  -3.609  -3.960  1.00  0.00     0.004 C 
ATOM     17  C   UNL     1      -3.146  -4.234  -5.315  1.00  0.00     0.004 C 
ENDBRANCH   6  15
ENDBRANCH   4   5
ENDBRANCH   1   4
BRANCH   3  18
ATOM     18  C   UNL     1      -9.187   0.164 -12.842  1.00  0.00     0.053 C 
BRANCH  18  19
ATOM     19  C   UNL     1     -10.285   0.566 -13.791  1.00  0.00     0.074 C 
BRANCH  19  20
ATOM     20  N   UNL     1     -10.654   1.776 -14.054  1.00  0.00    -0.313 NA
ATOM     21  H   UNL     1      -9.847   2.385 -14.250  1.00  0.00     0.186 HD
ENDBRANCH  19  20
ENDBRANCH  18  19
ENDBRANCH   3  18
TORSDOF 6
ENDMDL
MODEL 2
REMARK VINA RESULT:    -4.128      3.306      5.550
REMARK INTER + INTRA:          -5.662
REMARK INTER:                  -5.434
REMARK INTRA:                  -0.228
REMARK UNBOUND:                -0.208
REMARK SMILES [H]/N=C\C[C@H]1C[C@@H]1O[C@H]1CO[C@H]2C[C@@H](C3CC3)CCN2C1
REMARK SMILES IDX 7 1 6 2 5 3 8 4 9 5 14 6 13 7 18 8 12 9 19 10 20 11 11 12
REMARK SMILES IDX 21 13 10 14 15 15 16 16 17 17 4 18 3 19 2 20 1 21
REMARK H PARENT
ROOT
ATOM      1  C   UNL     1     -10.366  -5.345  -8.242  1.00  0.00     0.122 C 
ATOM      2  C   UNL     1     -10.601  -6.281  -9.394  1.00  0.00     0.039 C 
ATOM      3  C   UNL     1     -10.709  -6.786  -7.984  1.00  0.00     0.026 C 
ENDROOT
BRANCH   1   4
ATOM      4  O   UNL     1      -8.987  -4.969  -8.064  1.00  0.00    -0.371 OA
BRANCH   4   5
ATOM      5  C   UNL     1      -8.474  -4.023  -9.017  1.00  0.00     0.158 C 
ATOM      6  C   UNL     1      -5.592  -1.128  -5.775  1.00  0.00    -0.003 C 
ATOM      7  C   UNL     1      -7.091  -1.323  -6.035  1.00  0.00     0.052 C 
ATOM      8  C   UNL     1      -4.854  -2.447  -6.043  1.00  0.00     0.019 C 
ATOM      9  C   UNL     1      -7.355  -1.915  -7.426  1.00  0.00     0.189 C 
ATOM     10  C   UNL     1      -5.187  -3.000  -7.429  1.00  0.00     0.087 C 
ATOM     11  N   UNL     1      -6.630  -3.175  -7.590  1.00  0.00    -0.276 NA
ATOM     12  O   UNL     1      -8.769  -2.093  -7.532  1.00  0.00    -0.360 OA
ATOM     13  C   UNL     1      -6.959  -3.787  -8.882  1.00  0.00     0.121 C 
ATOM     14  C   UNL     1      -9.168  -2.679  -8.775  1.00  0.00     0.195 C 
BRANCH   6  15
ATOM     15  C   UNL     1      -5.331  -0.652  -4.363  1.00  0.00    -0.008 C 
ATOM     16  C   UNL     1      -4.372   0.487  -4.106  1.00  0.00     0.004 C 
ATOM     17  C   UNL     1      -5.844   0.687  -3.891  1.00  0.00     0.004 C 
ENDBRANCH   6  15
ENDBRANCH   4   5
ENDBRANCH   1   4
BRANCH   3  18
ATOM     18  C   UNL     1     -12.059  -7.156  -7.446  1.00  0.00     0.053 C 
BRANCH  18  19
ATOM     19  C   UNL     1     -12.862  -8.127  -8.273  1.00  0.00     0.074 C 
BRANCH  19  20
ATOM     20  N   UNL     1     -12.792  -9.415  -8.208  1.00  0.00    -0.313 NA
ATOM     21  H   UNL     1     -13.337  -9.864  -8.958  1.00  0.00     0.186 HD
ENDBRANCH  19  20
ENDBRANCH  18  19
ENDBRANCH   3  18
TORSDOF 6
ENDMDL
MODEL 3
REMARK VINA RESULT:    -3.950      5.182      8.440
REMARK INTER + INTRA:          -5.427
REMARK INTER:                  -5.162
REMARK INTRA:                  -0.265
REMARK UNBOUND:                -0.208
REMARK SMILES [H]/N=C\C[C@H]1C[C@@H]1O[C@H]1CO[C@H]2C[C@@H](C3CC3)CCN2C1
REMARK SMILES IDX 7 1 6 2 5 3 8 4 9 5 14 6 13 7 18 8 12 9 19 10 20 11 11 12
REMARK SMILES IDX 21 13 10 14 15 15 16 16 17 17 4 18 3 19 2 20 1 21
REMARK H PARENT
ROOT
ATOM      1  C   UNL     1      -8.981  -3.378  -8.227  1.00  0.00     0.122 C 
ATOM      2  C   UNL     1      -9.269  -1.958  -8.626  1.00  0.00     0.039 C 
ATOM      3  C   UNL     1      -9.339  -2.358  -7.180  1.00  0.00     0.026 C 
ENDROOT
BRANCH   1   4
ATOM      4  O   UNL     1     -10.013  -4.312  -8.596  1.00  0.00    -0.371 OA
BRANCH   4   5
ATOM      5  C   UNL     1      -9.573  -5.659  -8.833  1.00  0.00     0.158 C 
ATOM      6  C   UNL     1     -14.212  -8.039  -8.673  1.00  0.00    -0.003 C 
ATOM      7  C   UNL     1     -13.274  -7.390  -7.647  1.00  0.00     0.052 C 
ATOM      8  C   UNL     1     -14.082  -7.305 -10.015  1.00  0.00     0.019 C 
ATOM      9  C   UNL     1     -11.835  -7.295  -8.171  1.00  0.00     0.189 C 
ATOM     10  C   UNL     1     -12.623  -7.214 -10.463  1.00  0.00     0.087 C 
ATOM     11  N   UNL     1     -11.801  -6.568  -9.440  1.00  0.00    -0.276 NA
ATOM     12  O   UNL     1     -11.073  -6.638  -7.156  1.00  0.00    -0.360 OA
ATOM     13  C   UNL     1     -10.415  -6.395  -9.891  1.00  0.00     0.121 C 
ATOM     14  C   UNL     1      -9.704  -6.441  -7.522  1.00  0.00     0.195 C 
BRANCH   6  15
ATOM     15  C   UNL     1     -15.647  -8.026  -8.198  1.00  0.00    -0.008 C 
ATOM     16  C   UNL     1     -16.504  -9.264  -8.325  1.00  0.00     0.004 C 
ATOM     17  C   UNL     1     -16.062  -8.797  -6.968  1.00  0.00     0.004 C 
ENDBRANCH   6  15
ENDBRANCH   4   5
ENDBRANCH   1   4
BRANCH   3  18
ATOM     18  C   UNL     1      -8.293  -1.848  -6.234  1.00  0.00     0.053 C 
BRANCH  18  19
ATOM     19  C   UNL     1      -8.797  -1.206  -4.968  1.00  0.00     0.074 C 
BRANCH  19  20
ATOM     20  N   UNL     1     -10.015  -0.842  -4.735  1.00  0.00    -0.313 NA
ATOM     21  H   UNL     1     -10.551  -0.732  -5.608  1.00  0.00     0.186 HD
ENDBRANCH  19  20
ENDBRANCH  18  19
ENDBRANCH   3  18
TORSDOF 6
ENDMDL
MODEL 4
REMARK VINA RESULT:    -3.921      4.112      7.039
REMARK INTER + INTRA:          -5.389
REMARK INTER:                  -4.983
REMARK INTRA:                  -0.406
REMARK UNBOUND:                -0.208
REMARK SMILES [H]/N=C\C[C@H]1C[C@@H]1O[C@H]1CO[C@H]2C[C@@H](C3CC3)CCN2C1
REMARK SMILES IDX 7 1 6 2 5 3 8 4 9 5 14 6 13 7 18 8 12 9 19 10 20 11 11 12
REMARK SMILES IDX 21 13 10 14 15 15 16 16 17 17 4 18 3 19 2 20 1 21
REMARK H PARENT
ROOT
ATOM      1  C   UNL     1     -13.732  -2.750 -15.142  1.00  0.00     0.122 C 
ATOM      2  C   UNL     1     -13.391  -3.801 -16.160  1.00  0.00     0.039 C 
ATOM      3  C   UNL     1     -13.438  -4.159 -14.702  1.00  0.00     0.026 C 
ENDROOT
BRANCH   1   4
ATOM      4  O   UNL     1     -12.690  -1.778 -14.930  1.00  0.00    -0.371 OA
BRANCH   4   5
ATOM      5  C   UNL     1     -13.082  -0.597 -14.212  1.00  0.00     0.158 C 
ATOM      6  C   UNL     1      -9.743  -0.961 -10.222  1.00  0.00    -0.003 C 
ATOM      7  C   UNL     1     -11.007  -1.706 -10.667  1.00  0.00     0.052 C 
ATOM      8  C   UNL     1      -8.978  -0.474 -11.460  1.00  0.00     0.019 C 
ATOM      9  C   UNL     1     -11.852  -0.866 -11.634  1.00  0.00     0.189 C 
ATOM     10  C   UNL     1      -9.883   0.325 -12.397  1.00  0.00     0.087 C 
ATOM     11  N   UNL     1     -11.053  -0.460 -12.790  1.00  0.00    -0.276 NA
ATOM     12  O   UNL     1     -12.967  -1.677 -12.012  1.00  0.00    -0.360 OA
ATOM     13  C   UNL     1     -11.887   0.261 -13.758  1.00  0.00     0.121 C 
ATOM     14  C   UNL     1     -13.835  -1.033 -12.951  1.00  0.00     0.195 C 
BRANCH   6  15
ATOM     15  C   UNL     1      -8.858  -1.835  -9.361  1.00  0.00    -0.008 C 
ATOM     16  C   UNL     1      -9.171  -2.031  -7.897  1.00  0.00     0.004 C 
ATOM     17  C   UNL     1      -9.346  -3.172  -8.857  1.00  0.00     0.004 C 
ENDBRANCH   6  15
ENDBRANCH   4   5
ENDBRANCH   1   4
BRANCH   3  18
ATOM     18  C   UNL     1     -14.544  -5.042 -14.206  1.00  0.00     0.053 C 
BRANCH  18  19
ATOM     19  C   UNL     1     -14.658  -5.190 -12.711  1.00  0.00     0.074 C 
BRANCH  19  20
ATOM     20  N   UNL     1     -14.422  -4.267 -11.838  1.00  0.00    -0.313 NA
ATOM     21  H   UNL     1     -13.487  -3.855 -11.965  1.00  0.00     0.186 HD
ENDBRANCH  19  20
ENDBRANCH  18  19
ENDBRANCH   3  18
TORSDOF 6
ENDMDL
MODEL 5
REMARK VINA RESULT:    -3.885      5.663      7.117
REMARK INTER + INTRA:          -5.342
REMARK INTER:                  -5.021
REMARK INTRA:                  -0.321
REMARK UNBOUND:                -0.208
REMARK SMILES [H]/N=C\C[C@H]1C[C@@H]1O[C@H]1CO[C@H]2C[C@@H](C3CC3)CCN2C1
REMARK SMILES IDX 7 1 6 2 5 3 8 4 9 5 14 6 13 7 18 8 12 9 19 10 20 11 11 12
REMARK SMILES IDX 21 13 10 14 15 15 16 16 17 17 4 18 3 19 2 20 1 21
REMARK H PARENT
ROOT
ATOM      1  C   UNL     1     -15.388  -6.399 -12.363  1.00  0.00     0.122 C 
ATOM      2  C   UNL     1     -16.582  -5.510 -12.163  1.00  0.00     0.039 C 
ATOM      3  C   UNL     1     -15.282  -4.922 -12.632  1.00  0.00     0.026 C 
ENDROOT
BRANCH   1   4
ATOM      4  O   UNL     1     -14.798  -6.875 -11.139  1.00  0.00    -0.371 OA
BRANCH   4   5
ATOM      5  C   UNL     1     -13.801  -7.900 -11.289  1.00  0.00     0.158 C 
ATOM      6  C   UNL     1      -9.932  -5.623  -8.633  1.00  0.00    -0.003 C 
ATOM      7  C   UNL     1     -10.614  -5.400  -9.988  1.00  0.00     0.052 C 
ATOM      8  C   UNL     1     -10.960  -6.170  -7.632  1.00  0.00     0.019 C 
ATOM      9  C   UNL     1     -11.348  -6.658 -10.471  1.00  0.00     0.189 C 
ATOM     10  C   UNL     1     -11.679  -7.400  -8.187  1.00  0.00     0.087 C 
ATOM     11  N   UNL     1     -12.317  -7.100  -9.468  1.00  0.00    -0.276 NA
ATOM     12  O   UNL     1     -11.976  -6.315 -11.709  1.00  0.00    -0.360 OA
ATOM     13  C   UNL     1     -13.084  -8.245  -9.972  1.00  0.00     0.121 C 
ATOM     14  C   UNL     1     -12.738  -7.390 -12.267  1.00  0.00     0.195 C 
BRANCH   6  15
ATOM     15  C   UNL     1      -9.308  -4.349  -8.109  1.00  0.00    -0.008 C 
ATOM     16  C   UNL     1      -7.952  -3.904  -8.602  1.00  0.00     0.004 C 
ATOM     17  C   UNL     1      -9.178  -3.132  -8.992  1.00  0.00     0.004 C 
ENDBRANCH   6  15
ENDBRANCH   4   5
ENDBRANCH   1   4
BRANCH   3  18
ATOM     18  C   UNL     1     -15.180  -4.415 -14.039  1.00  0.00     0.053 C 
BRANCH  18  19
ATOM     19  C   UNL     1     -13.791  -4.110 -14.538  1.00  0.00     0.074 C 
BRANCH  19  20
ATOM     20  N   UNL     1     -12.692  -4.330 -13.898  1.00  0.00    -0.313 NA
ATOM     21  H   UNL     1     -11.944  -3.687 -14.196  1.00  0.00     0.186 HD
ENDBRANCH  19  20
ENDBRANCH  18  19
ENDBRANCH   3  18
TORSDOF 6
ENDMDL
MODEL 6
REMARK VINA RESULT:    -3.863      3.207      4.689
REMARK INTER + INTRA:          -5.312
REMARK INTER:                  -5.527
REMARK INTRA:                   0.215
REMARK UNBOUND:                -0.208
REMARK SMILES [H]/N=C\C[C@H]1C[C@@H]1O[C@H]1CO[C@H]2C[C@@H](C3CC3)CCN2C1
REMARK SMILES IDX 7 1 6 2 5 3 8 4 9 5 14 6 13 7 18 8 12 9 19 10 20 11 11 12
REMARK SMILES IDX 21 13 10 14 15 15 16 16 17 17 4 18 3 19 2 20 1 21
REMARK H PARENT
ROOT
ATOM      1  C   UNL     1      -9.565  -6.128  -8.582  1.00  0.00     0.122 C 
ATOM      2  C   UNL     1     -10.765  -6.690  -7.874  1.00  0.00     0.039 C 
ATOM      3  C   UNL     1     -10.912  -6.109  -9.251  1.00  0.00     0.026 C 
ENDROOT
BRANCH   1   4
ATOM      4  O   UNL     1      -9.096  -4.878  -8.041  1.00  0.00    -0.371 OA
BRANCH   4   5
ATOM      5  C   UNL     1      -8.574  -3.945  -9.001  1.00  0.00     0.158 C 
ATOM      6  C   UNL     1      -5.572  -1.127  -5.799  1.00  0.00    -0.003 C 
ATOM      7  C   UNL     1      -7.079  -1.284  -6.037  1.00  0.00     0.052 C 
ATOM      8  C   UNL     1      -4.872  -2.464  -6.079  1.00  0.00     0.019 C 
ATOM      9  C   UNL     1      -7.379  -1.868  -7.424  1.00  0.00     0.189 C 
ATOM     10  C   UNL     1      -5.239  -3.007  -7.460  1.00  0.00     0.087 C 
ATOM     11  N   UNL     1      -6.688  -3.145  -7.600  1.00  0.00    -0.276 NA
ATOM     12  O   UNL     1      -8.798  -2.009  -7.510  1.00  0.00    -0.360 OA
ATOM     13  C   UNL     1      -7.052  -3.747  -8.888  1.00  0.00     0.121 C 
ATOM     14  C   UNL     1      -9.230  -2.583  -8.747  1.00  0.00     0.195 C 
BRANCH   6  15
ATOM     15  C   UNL     1      -5.279  -0.659  -4.391  1.00  0.00    -0.008 C 
ATOM     16  C   UNL     1      -4.342   0.501  -4.151  1.00  0.00     0.004 C 
ATOM     17  C   UNL     1      -5.811   0.661  -3.887  1.00  0.00     0.004 C 
ENDBRANCH   6  15
ENDBRANCH   4   5
ENDBRANCH   1   4
BRANCH   3  18
ATOM     18  C   UNL     1     -11.198  -7.029 -10.401  1.00  0.00     0.053 C 
BRANCH  18  19
ATOM     19  C   UNL     1     -11.888  -6.414 -11.590  1.00  0.00     0.074 C 
BRANCH  19  20
ATOM     20  N   UNL     1     -11.652  -6.690 -12.829  1.00  0.00    -0.313 NA
ATOM     21  H   UNL     1     -11.011  -7.490 -12.924  1.00  0.00     0.186 HD
ENDBRANCH  19  20
ENDBRANCH  18  19
ENDBRANCH   3  18
TORSDOF 6
ENDMDL
MODEL 7
REMARK VINA RESULT:    -3.668      6.280      7.936
REMARK INTER + INTRA:          -5.055
REMARK INTER:                  -4.470
REMARK INTRA:                  -0.585
REMARK UNBOUND:                -0.208
REMARK SMILES [H]/N=C\C[C@H]1C[C@@H]1O[C@H]1CO[C@H]2C[C@@H](C3CC3)CCN2C1
REMARK SMILES IDX 7 1 6 2 5 3 8 4 9 5 14 6 13 7 18 8 12 9 19 10 20 11 11 12
REMARK SMILES IDX 21 13 10 14 15 15 16 16 17 17 4 18 3 19 2 20 1 21
REMARK H PARENT
ROOT
ATOM      1  C   UNL     1     -15.152  -5.381 -13.600  1.00  0.00     0.122 C 
ATOM      2  C   UNL     1     -16.384  -4.570 -13.886  1.00  0.00     0.039 C 
ATOM      3  C   UNL     1     -15.357  -4.056 -12.919  1.00  0.00     0.026 C 
ENDROOT
BRANCH   1   4
ATOM      4  O   UNL     1     -15.396  -6.558 -12.806  1.00  0.00    -0.371 OA
BRANCH   4   5
ATOM      5  C   UNL     1     -14.538  -7.678 -13.079  1.00  0.00     0.158 C 
ATOM      6  C   UNL     1     -11.286  -7.179  -9.032  1.00  0.00    -0.003 C 
ATOM      7  C   UNL     1     -11.535  -6.420 -10.341  1.00  0.00     0.052 C 
ATOM      8  C   UNL     1     -12.611  -7.769  -8.528  1.00  0.00     0.019 C 
ATOM      9  C   UNL     1     -12.265  -7.290 -11.374  1.00  0.00     0.189 C 
ATOM     10  C   UNL     1     -13.303  -8.594  -9.613  1.00  0.00     0.087 C 
ATOM     11  N   UNL     1     -13.520  -7.795 -10.819  1.00  0.00    -0.276 NA
ATOM     12  O   UNL     1     -12.478  -6.467 -12.523  1.00  0.00    -0.360 OA
ATOM     13  C   UNL     1     -14.261  -8.547 -11.839  1.00  0.00     0.121 C 
ATOM     14  C   UNL     1     -13.190  -7.138 -13.567  1.00  0.00     0.195 C 
BRANCH   6  15
ATOM     15  C   UNL     1     -10.671  -6.284  -7.980  1.00  0.00    -0.008 C 
ATOM     16  C   UNL     1      -9.211  -6.423  -7.619  1.00  0.00     0.004 C 
ATOM     17  C   UNL     1      -9.684  -5.207  -8.362  1.00  0.00     0.004 C 
ENDBRANCH   6  15
ENDBRANCH   4   5
ENDBRANCH   1   4
BRANCH   3  18
ATOM     18  C   UNL     1     -14.524  -2.871 -13.306  1.00  0.00     0.053 C 
BRANCH  18  19
ATOM     19  C   UNL     1     -13.276  -2.640 -12.494  1.00  0.00     0.074 C 
BRANCH  19  20
ATOM     20  N   UNL     1     -12.594  -3.548 -11.879  1.00  0.00    -0.313 NA
ATOM     21  H   UNL     1     -11.843  -3.926 -12.472  1.00  0.00     0.186 HD
ENDBRANCH  19  20
ENDBRANCH  18  19
ENDBRANCH   3  18
TORSDOF 6
ENDMDL
MODEL 8
REMARK VINA RESULT:    -3.642      5.197      8.313
REMARK INTER + INTRA:          -5.021
REMARK INTER:                  -4.419
REMARK INTRA:                  -0.602
REMARK UNBOUND:                -0.208
REMARK SMILES [H]/N=C\C[C@H]1C[C@@H]1O[C@H]1CO[C@H]2C[C@@H](C3CC3)CCN2C1
REMARK SMILES IDX 7 1 6 2 5 3 8 4 9 5 14 6 13 7 18 8 12 9 19 10 20 11 11 12
REMARK SMILES IDX 21 13 10 14 15 15 16 16 17 17 4 18 3 19 2 20 1 21
REMARK H PARENT
ROOT
ATOM      1  C   UNL     1     -14.759  -3.911 -14.757  1.00  0.00     0.122 C 
ATOM      2  C   UNL     1     -14.574  -5.097 -15.661  1.00  0.00     0.039 C 
ATOM      3  C   UNL     1     -13.664  -4.906 -14.483  1.00  0.00     0.026 C 
ENDROOT
BRANCH   1   4
ATOM      4  O   UNL     1     -14.359  -2.658 -15.344  1.00  0.00    -0.371 OA
BRANCH   4   5
ATOM      5  C   UNL     1     -14.909  -1.482 -14.728  1.00  0.00     0.158 C 
ATOM      6  C   UNL     1     -10.741  -0.030 -11.949  1.00  0.00    -0.003 C 
ATOM      7  C   UNL     1     -11.777  -1.158 -11.867  1.00  0.00     0.052 C 
ATOM      8  C   UNL     1     -10.501   0.332 -13.421  1.00  0.00     0.019 C 
ATOM      9  C   UNL     1     -13.056  -0.814 -12.643  1.00  0.00     0.189 C 
ATOM     10  C   UNL     1     -11.814   0.629 -14.145  1.00  0.00     0.087 C 
ATOM     11  N   UNL     1     -12.739  -0.500 -14.036  1.00  0.00    -0.276 NA
ATOM     12  O   UNL     1     -13.918  -1.948 -12.532  1.00  0.00    -0.360 OA
ATOM     13  C   UNL     1     -13.970  -0.265 -14.798  1.00  0.00     0.121 C 
ATOM     14  C   UNL     1     -15.148  -1.788 -13.246  1.00  0.00     0.195 C 
BRANCH   6  15
ATOM     15  C   UNL     1      -9.442  -0.421 -11.280  1.00  0.00    -0.008 C 
ATOM     16  C   UNL     1      -9.028   0.228  -9.980  1.00  0.00     0.004 C 
ATOM     17  C   UNL     1      -9.442  -1.215  -9.996  1.00  0.00     0.004 C 
ENDBRANCH   6  15
ENDBRANCH   4   5
ENDBRANCH   1   4
BRANCH   3  18
ATOM     18  C   UNL     1     -13.772  -5.847 -13.320  1.00  0.00     0.053 C 
BRANCH  18  19
ATOM     19  C   UNL     1     -12.805  -5.620 -12.187  1.00  0.00     0.074 C 
BRANCH  19  20
ATOM     20  N   UNL     1     -12.363  -4.474 -11.787  1.00  0.00    -0.313 NA
ATOM     21  H   UNL     1     -12.420  -4.381 -10.763  1.00  0.00     0.186 HD
ENDBRANCH  19  20
ENDBRANCH  18  19
ENDBRANCH   3  18
TORSDOF 6
ENDMDL
MODEL 9
REMARK VINA RESULT:    -3.227      5.535      8.152
REMARK INTER + INTRA:          -4.472
REMARK INTER:                  -4.344
REMARK INTRA:                  -0.128
REMARK UNBOUND:                -0.208
REMARK SMILES [H]/N=C\C[C@H]1C[C@@H]1O[C@H]1CO[C@H]2C[C@@H](C3CC3)CCN2C1
REMARK SMILES IDX 7 1 6 2 5 3 8 4 9 5 14 6 13 7 18 8 12 9 19 10 20 11 11 12
REMARK SMILES IDX 21 13 10 14 15 15 16 16 17 17 4 18 3 19 2 20 1 21
REMARK H PARENT
ROOT
ATOM      1  C   UNL     1      -9.624  -3.417  -8.412  1.00  0.00     0.122 C 
ATOM      2  C   UNL     1      -8.280  -3.546  -9.072  1.00  0.00     0.039 C 
ATOM      3  C   UNL     1      -9.218  -2.451  -9.492  1.00  0.00     0.026 C 
ENDROOT
BRANCH   1   4
ATOM      4  O   UNL     1     -10.562  -4.444  -8.785  1.00  0.00    -0.371 OA
BRANCH   4   5
ATOM      5  C   UNL     1     -10.018  -5.769  -8.895  1.00  0.00     0.158 C 
ATOM      6  C   UNL     1     -14.488  -8.456  -8.857  1.00  0.00    -0.003 C 
ATOM      7  C   UNL     1     -13.668  -7.674  -7.824  1.00  0.00     0.052 C 
ATOM      8  C   UNL     1     -14.316  -7.808 -10.237  1.00  0.00     0.019 C 
ATOM      9  C   UNL     1     -12.206  -7.512  -8.261  1.00  0.00     0.189 C 
ATOM     10  C   UNL     1     -12.840  -7.645 -10.598  1.00  0.00     0.087 C 
ATOM     11  N   UNL     1     -12.134  -6.873  -9.575  1.00  0.00    -0.276 NA
ATOM     12  O   UNL     1     -11.561  -6.735  -7.250  1.00  0.00    -0.360 OA
ATOM     13  C   UNL     1     -10.735  -6.633  -9.948  1.00  0.00     0.121 C 
ATOM     14  C   UNL     1     -10.186  -6.467  -7.542  1.00  0.00     0.195 C 
BRANCH   6  15
ATOM     15  C   UNL     1     -15.951  -8.513  -8.476  1.00  0.00    -0.008 C 
ATOM     16  C   UNL     1     -16.601  -9.834  -8.140  1.00  0.00     0.004 C 
ATOM     17  C   UNL     1     -16.370  -8.819  -7.058  1.00  0.00     0.004 C 
ENDBRANCH   6  15
ENDBRANCH   4   5
ENDBRANCH   1   4
BRANCH   3  18
ATOM     18  C   UNL     1      -8.879  -1.031  -9.148  1.00  0.00     0.053 C 
BRANCH  18  19
ATOM     19  C   UNL     1      -9.199   0.003 -10.195  1.00  0.00     0.074 C 
BRANCH  19  20
ATOM     20  N   UNL     1      -9.053  -0.140 -11.470  1.00  0.00    -0.313 NA
ATOM     21  H   UNL     1      -9.137   0.759 -11.965  1.00  0.00     0.186 HD
ENDBRANCH  19  20
ENDBRANCH  18  19
ENDBRANCH   3  18
TORSDOF 6
ENDMDL
