MODEL 1
REMARK VINA RESULT:    -6.144      0.000      0.000
REMARK INTER + INTRA:          -7.592
REMARK INTER:                  -7.221
REMARK INTRA:                  -0.371
REMARK UNBOUND:                -0.371
REMARK SMILES Cc1ccc(CNC(=O)NC(=O)c2ccc(C)cc2)cc1
REMARK SMILES IDX 11 1 12 2 10 3 8 4 9 5 7 6 13 9 19 10 18 11 14 12 16 13
REMARK SMILES IDX 15 14 17 15 6 16 5 17 4 18 20 19 3 20 21 21 2 22 1 23
REMARK H PARENT 10 7 7 8
ROOT
ATOM      1  C   UNL     1      -7.646  -2.508  -7.630  1.00  0.00     0.259 C 
ATOM      2  O   UNL     1      -7.794  -1.318  -7.873  1.00  0.00    -0.269 OA
ATOM      3  N   UNL     1      -8.452  -3.586  -8.009  1.00  0.00    -0.274 N 
ATOM      4  C   UNL     1      -9.470  -3.827  -8.896  1.00  0.00     0.321 C 
ATOM      5  O   UNL     1      -9.846  -4.996  -9.033  1.00  0.00    -0.248 OA
ATOM      6  N   UNL     1     -10.054  -2.868  -9.638  1.00  0.00    -0.334 N 
ATOM      7  H   UNL     1      -8.135  -4.483  -7.669  1.00  0.00     0.175 HD
ATOM      8  H   UNL     1     -10.726  -3.221 -10.304  1.00  0.00     0.165 HD
ENDROOT
BRANCH   1   9
ATOM      9  C   UNL     1      -6.459  -2.876  -6.835  1.00  0.00     0.040 A 
ATOM     10  C   UNL     1      -6.545  -3.102  -5.460  1.00  0.00     0.014 A 
ATOM     11  C   UNL     1      -5.406  -3.500  -4.760  1.00  0.00     0.004 A 
ATOM     12  C   UNL     1      -5.233  -2.988  -7.499  1.00  0.00     0.014 A 
ATOM     13  C   UNL     1      -4.182  -3.665  -5.426  1.00  0.00    -0.051 A 
ATOM     14  C   UNL     1      -4.099  -3.392  -6.796  1.00  0.00     0.004 A 
ATOM     15  C   UNL     1      -2.987  -4.175  -4.676  1.00  0.00     0.044 C 
ENDBRANCH   1   9
BRANCH   6  16
ATOM     16  C   UNL     1      -9.701  -1.478  -9.708  1.00  0.00     0.153 C 
BRANCH  16  17
ATOM     17  C   UNL     1     -10.161  -0.709 -10.915  1.00  0.00    -0.029 A 
ATOM     18  C   UNL     1      -9.286  -0.006 -11.750  1.00  0.00     0.006 A 
ATOM     19  C   UNL     1     -11.492  -0.889 -11.325  1.00  0.00     0.006 A 
ATOM     20  C   UNL     1      -9.736   0.484 -12.981  1.00  0.00     0.004 A 
ATOM     21  C   UNL     1     -11.936  -0.407 -12.551  1.00  0.00     0.004 A 
ATOM     22  C   UNL     1     -11.059   0.276 -13.396  1.00  0.00    -0.051 A 
ATOM     23  C   UNL     1     -11.508   0.671 -14.770  1.00  0.00     0.044 C 
ENDBRANCH  16  17
ENDBRANCH   6  16
TORSDOF 3
ENDMDL
MODEL 2
REMARK VINA RESULT:    -6.142      0.530      8.069
REMARK INTER + INTRA:          -7.590
REMARK INTER:                  -7.117
REMARK INTRA:                  -0.472
REMARK UNBOUND:                -0.371
REMARK SMILES Cc1ccc(CNC(=O)NC(=O)c2ccc(C)cc2)cc1
REMARK SMILES IDX 11 1 12 2 10 3 8 4 9 5 7 6 13 9 19 10 18 11 14 12 16 13
REMARK SMILES IDX 15 14 17 15 6 16 5 17 4 18 20 19 3 20 21 21 2 22 1 23
REMARK H PARENT 10 7 7 8
ROOT
ATOM      1  C   UNL     1      -9.280  -1.499  -9.877  1.00  0.00     0.259 C 
ATOM      2  O   UNL     1      -8.474  -0.835  -9.241  1.00  0.00    -0.269 OA
ATOM      3  N   UNL     1      -9.669  -2.828  -9.678  1.00  0.00    -0.274 N 
ATOM      4  C   UNL     1      -9.559  -3.780  -8.697  1.00  0.00     0.321 C 
ATOM      5  O   UNL     1     -10.180  -4.837  -8.852  1.00  0.00    -0.248 OA
ATOM      6  N   UNL     1      -8.841  -3.610  -7.571  1.00  0.00    -0.334 N 
ATOM      7  H   UNL     1     -10.341  -3.171 -10.351  1.00  0.00     0.175 HD
ATOM      8  H   UNL     1      -8.932  -4.369  -6.912  1.00  0.00     0.165 HD
ENDROOT
BRANCH   1   9
ATOM      9  C   UNL     1      -9.946  -0.825 -11.008  1.00  0.00     0.040 A 
ATOM     10  C   UNL     1      -9.235  -0.011 -11.891  1.00  0.00     0.014 A 
ATOM     11  C   UNL     1      -9.898   0.562 -12.976  1.00  0.00     0.004 A 
ATOM     12  C   UNL     1     -11.322  -1.019 -11.169  1.00  0.00     0.014 A 
ATOM     13  C   UNL     1     -11.267   0.333 -13.177  1.00  0.00    -0.051 A 
ATOM     14  C   UNL     1     -11.978  -0.449 -12.258  1.00  0.00     0.004 A 
ATOM     15  C   UNL     1     -11.947   0.887 -14.395  1.00  0.00     0.044 C 
ENDBRANCH   1   9
BRANCH   6  16
ATOM     16  C   UNL     1      -8.137  -2.431  -7.152  1.00  0.00     0.153 C 
BRANCH  16  17
ATOM     17  C   UNL     1      -6.791  -2.623  -6.510  1.00  0.00    -0.029 A 
ATOM     18  C   UNL     1      -6.619  -2.797  -5.133  1.00  0.00     0.006 A 
ATOM     19  C   UNL     1      -5.697  -2.844  -7.363  1.00  0.00     0.006 A 
ATOM     20  C   UNL     1      -5.381  -3.209  -4.628  1.00  0.00     0.004 A 
ATOM     21  C   UNL     1      -4.468  -3.258  -6.861  1.00  0.00     0.004 A 
ATOM     22  C   UNL     1      -4.302  -3.454  -5.489  1.00  0.00    -0.051 A 
ATOM     23  C   UNL     1      -3.018  -4.031  -4.972  1.00  0.00     0.044 C 
ENDBRANCH  16  17
ENDBRANCH   6  16
TORSDOF 3
ENDMDL
MODEL 3
REMARK VINA RESULT:    -6.135      3.244      5.511
REMARK INTER + INTRA:          -7.582
REMARK INTER:                  -7.213
REMARK INTRA:                  -0.369
REMARK UNBOUND:                -0.371
REMARK SMILES Cc1ccc(CNC(=O)NC(=O)c2ccc(C)cc2)cc1
REMARK SMILES IDX 11 1 12 2 10 3 8 4 9 5 7 6 13 9 19 10 18 11 14 12 16 13
REMARK SMILES IDX 15 14 17 15 6 16 5 17 4 18 20 19 3 20 21 21 2 22 1 23
REMARK H PARENT 10 7 7 8
ROOT
ATOM      1  C   UNL     1      -7.786  -2.826  -7.383  1.00  0.00     0.259 C 
ATOM      2  O   UNL     1      -7.675  -4.022  -7.156  1.00  0.00    -0.269 OA
ATOM      3  N   UNL     1      -8.508  -2.191  -8.398  1.00  0.00    -0.274 N 
ATOM      4  C   UNL     1      -9.478  -2.520  -9.309  1.00  0.00     0.321 C 
ATOM      5  O   UNL     1      -9.974  -1.604  -9.975  1.00  0.00    -0.248 OA
ATOM      6  N   UNL     1      -9.935  -3.773  -9.490  1.00  0.00    -0.334 N 
ATOM      7  H   UNL     1      -8.431  -1.182  -8.397  1.00  0.00     0.175 HD
ATOM      8  H   UNL     1     -10.709  -3.834 -10.136  1.00  0.00     0.165 HD
ENDROOT
BRANCH   1   9
ATOM      9  C   UNL     1      -7.073  -1.911  -6.470  1.00  0.00     0.040 A 
ATOM     10  C   UNL     1      -5.844  -1.347  -6.817  1.00  0.00     0.014 A 
ATOM     11  C   UNL     1      -5.234  -0.447  -5.943  1.00  0.00     0.004 A 
ATOM     12  C   UNL     1      -7.662  -1.627  -5.233  1.00  0.00     0.014 A 
ATOM     13  C   UNL     1      -5.841  -0.115  -4.723  1.00  0.00    -0.051 A 
ATOM     14  C   UNL     1      -7.052  -0.723  -4.367  1.00  0.00     0.004 A 
ATOM     15  C   UNL     1      -5.215   0.918  -3.833  1.00  0.00     0.044 C 
ENDBRANCH   1   9
BRANCH   6  16
ATOM     16  C   UNL     1      -9.572  -4.952  -8.756  1.00  0.00     0.153 C 
BRANCH  16  17
ATOM     17  C   UNL     1     -10.512  -6.124  -8.825  1.00  0.00    -0.029 A 
ATOM     18  C   UNL     1     -11.061  -6.730  -7.691  1.00  0.00     0.006 A 
ATOM     19  C   UNL     1     -11.010  -6.475 -10.091  1.00  0.00     0.006 A 
ATOM     20  C   UNL     1     -12.106  -7.651  -7.826  1.00  0.00     0.004 A 
ATOM     21  C   UNL     1     -12.052  -7.387 -10.223  1.00  0.00     0.004 A 
ATOM     22  C   UNL     1     -12.617  -7.975  -9.090  1.00  0.00    -0.051 A 
ATOM     23  C   UNL     1     -13.827  -8.849  -9.233  1.00  0.00     0.044 C 
ENDBRANCH  16  17
ENDBRANCH   6  16
TORSDOF 3
ENDMDL
MODEL 4
REMARK VINA RESULT:    -6.129      3.137      7.357
REMARK INTER + INTRA:          -7.575
REMARK INTER:                  -7.101
REMARK INTRA:                  -0.474
REMARK UNBOUND:                -0.371
REMARK SMILES Cc1ccc(CNC(=O)NC(=O)c2ccc(C)cc2)cc1
REMARK SMILES IDX 11 1 12 2 10 3 8 4 9 5 7 6 13 9 19 10 18 11 14 12 16 13
REMARK SMILES IDX 15 14 17 15 6 16 5 17 4 18 20 19 3 20 21 21 2 22 1 23
REMARK H PARENT 10 7 7 8
ROOT
ATOM      1  C   UNL     1      -9.688  -4.850  -8.363  1.00  0.00     0.259 C 
ATOM      2  O   UNL     1      -8.836  -5.046  -7.507  1.00  0.00    -0.269 OA
ATOM      3  N   UNL     1      -9.920  -3.698  -9.120  1.00  0.00    -0.274 N 
ATOM      4  C   UNL     1      -9.266  -2.528  -9.412  1.00  0.00     0.321 C 
ATOM      5  O   UNL     1      -9.767  -1.789 -10.266  1.00  0.00    -0.248 OA
ATOM      6  N   UNL     1      -8.102  -2.165  -8.843  1.00  0.00    -0.334 N 
ATOM      7  H   UNL     1     -10.703  -3.767  -9.756  1.00  0.00     0.175 HD
ATOM      8  H   UNL     1      -7.707  -1.319  -9.229  1.00  0.00     0.165 HD
ENDROOT
BRANCH   1   9
ATOM      9  C   UNL     1     -10.601  -5.972  -8.654  1.00  0.00     0.040 A 
ATOM     10  C   UNL     1     -11.165  -6.737  -7.631  1.00  0.00     0.014 A 
ATOM     11  C   UNL     1     -12.064  -7.754  -7.953  1.00  0.00     0.004 A 
ATOM     12  C   UNL     1     -10.885  -6.257  -9.993  1.00  0.00     0.014 A 
ATOM     13  C   UNL     1     -12.395  -8.014  -9.291  1.00  0.00    -0.051 A 
ATOM     14  C   UNL     1     -11.789  -7.270 -10.310  1.00  0.00     0.004 A 
ATOM     15  C   UNL     1     -13.427  -9.054  -9.616  1.00  0.00     0.044 C 
ENDBRANCH   1   9
BRANCH   6  16
ATOM     16  C   UNL     1      -7.307  -2.919  -7.916  1.00  0.00     0.153 C 
BRANCH  16  17
ATOM     17  C   UNL     1      -6.686  -2.170  -6.770  1.00  0.00    -0.029 A 
ATOM     18  C   UNL     1      -5.404  -1.613  -6.827  1.00  0.00     0.006 A 
ATOM     19  C   UNL     1      -7.520  -1.844  -5.687  1.00  0.00     0.006 A 
ATOM     20  C   UNL     1      -4.980  -0.728  -5.829  1.00  0.00     0.004 A 
ATOM     21  C   UNL     1      -7.099  -0.961  -4.698  1.00  0.00     0.004 A 
ATOM     22  C   UNL     1      -5.828  -0.387  -4.766  1.00  0.00    -0.051 A 
ATOM     23  C   UNL     1      -5.436   0.666  -3.774  1.00  0.00     0.044 C 
ENDBRANCH  16  17
ENDBRANCH   6  16
TORSDOF 3
ENDMDL
MODEL 5
REMARK VINA RESULT:    -5.917      1.163      8.044
REMARK INTER + INTRA:          -7.326
REMARK INTER:                  -6.925
REMARK INTRA:                  -0.401
REMARK UNBOUND:                -0.371
REMARK SMILES Cc1ccc(CNC(=O)NC(=O)c2ccc(C)cc2)cc1
REMARK SMILES IDX 11 1 12 2 10 3 8 4 9 5 7 6 13 9 19 10 18 11 14 12 16 13
REMARK SMILES IDX 15 14 17 15 6 16 5 17 4 18 20 19 3 20 21 21 2 22 1 23
REMARK H PARENT 10 7 7 8
ROOT
ATOM      1  C   UNL     1      -9.520  -1.286 -10.016  1.00  0.00     0.259 C 
ATOM      2  O   UNL     1      -8.870  -0.541  -9.297  1.00  0.00    -0.269 OA
ATOM      3  N   UNL     1      -9.745  -2.660  -9.877  1.00  0.00    -0.274 N 
ATOM      4  C   UNL     1      -9.597  -3.618  -8.908  1.00  0.00     0.321 C 
ATOM      5  O   UNL     1     -10.055  -4.742  -9.138  1.00  0.00    -0.248 OA
ATOM      6  N   UNL     1      -9.011  -3.388  -7.718  1.00  0.00    -0.334 N 
ATOM      7  H   UNL     1     -10.303  -3.067 -10.616  1.00  0.00     0.175 HD
ATOM      8  H   UNL     1      -9.058  -4.173  -7.083  1.00  0.00     0.165 HD
ENDROOT
BRANCH   1   9
ATOM      9  C   UNL     1     -10.168  -0.672 -11.191  1.00  0.00     0.040 A 
ATOM     10  C   UNL     1      -9.442   0.099 -12.102  1.00  0.00     0.014 A 
ATOM     11  C   UNL     1     -10.087   0.615 -13.226  1.00  0.00     0.004 A 
ATOM     12  C   UNL     1     -11.539  -0.878 -11.368  1.00  0.00     0.014 A 
ATOM     13  C   UNL     1     -11.452   0.371 -13.440  1.00  0.00    -0.051 A 
ATOM     14  C   UNL     1     -12.177  -0.365 -12.496  1.00  0.00     0.004 A 
ATOM     15  C   UNL     1     -12.110   0.862 -14.696  1.00  0.00     0.044 C 
ENDBRANCH   1   9
BRANCH   6  16
ATOM     16  C   UNL     1      -8.510  -2.141  -7.214  1.00  0.00     0.153 C 
BRANCH  16  17
ATOM     17  C   UNL     1      -7.276  -2.188  -6.357  1.00  0.00    -0.029 A 
ATOM     18  C   UNL     1      -6.026  -2.591  -6.840  1.00  0.00     0.006 A 
ATOM     19  C   UNL     1      -7.354  -1.601  -5.084  1.00  0.00     0.006 A 
ATOM     20  C   UNL     1      -4.878  -2.384  -6.068  1.00  0.00     0.004 A 
ATOM     21  C   UNL     1      -6.211  -1.393  -4.319  1.00  0.00     0.004 A 
ATOM     22  C   UNL     1      -4.961  -1.773  -4.809  1.00  0.00    -0.051 A 
ATOM     23  C   UNL     1      -3.723  -1.420  -4.040  1.00  0.00     0.044 C 
ENDBRANCH  16  17
ENDBRANCH   6  16
TORSDOF 3
ENDMDL
MODEL 6
REMARK VINA RESULT:    -5.742      3.073      7.846
REMARK INTER + INTRA:          -7.120
REMARK INTER:                  -6.677
REMARK INTRA:                  -0.443
REMARK UNBOUND:                -0.371
REMARK SMILES Cc1ccc(CNC(=O)NC(=O)c2ccc(C)cc2)cc1
REMARK SMILES IDX 11 1 12 2 10 3 8 4 9 5 7 6 13 9 19 10 18 11 14 12 16 13
REMARK SMILES IDX 15 14 17 15 6 16 5 17 4 18 20 19 3 20 21 21 2 22 1 23
REMARK H PARENT 10 7 7 8
ROOT
ATOM      1  C   UNL     1      -9.640  -5.019  -8.362  1.00  0.00     0.259 C 
ATOM      2  O   UNL     1      -8.741  -5.373  -7.612  1.00  0.00    -0.269 OA
ATOM      3  N   UNL     1      -9.849  -3.766  -8.947  1.00  0.00    -0.274 N 
ATOM      4  C   UNL     1      -9.140  -2.609  -9.145  1.00  0.00     0.321 C 
ATOM      5  O   UNL     1      -9.653  -1.737  -9.854  1.00  0.00    -0.248 OA
ATOM      6  N   UNL     1      -7.914  -2.391  -8.635  1.00  0.00    -0.334 N 
ATOM      7  H   UNL     1     -10.681  -3.707  -9.519  1.00  0.00     0.175 HD
ATOM      8  H   UNL     1      -7.493  -1.527  -8.944  1.00  0.00     0.165 HD
ENDROOT
BRANCH   1   9
ATOM      9  C   UNL     1     -10.647  -6.039  -8.713  1.00  0.00     0.040 A 
ATOM     10  C   UNL     1     -10.988  -6.299 -10.041  1.00  0.00     0.014 A 
ATOM     11  C   UNL     1     -11.907  -7.309 -10.327  1.00  0.00     0.004 A 
ATOM     12  C   UNL     1     -11.263  -6.739  -7.671  1.00  0.00     0.014 A 
ATOM     13  C   UNL     1     -12.492  -8.053  -9.291  1.00  0.00    -0.051 A 
ATOM     14  C   UNL     1     -12.176  -7.751  -7.961  1.00  0.00     0.004 A 
ATOM     15  C   UNL     1     -13.414  -9.191  -9.618  1.00  0.00     0.044 C 
ENDBRANCH   1   9
BRANCH   6  16
ATOM     16  C   UNL     1      -7.104  -3.305  -7.879  1.00  0.00     0.153 C 
BRANCH  16  17
ATOM     17  C   UNL     1      -6.382  -2.756  -6.681  1.00  0.00    -0.029 A 
ATOM     18  C   UNL     1      -6.215  -3.477  -5.494  1.00  0.00     0.006 A 
ATOM     19  C   UNL     1      -5.672  -1.557  -6.851  1.00  0.00     0.006 A 
ATOM     20  C   UNL     1      -5.335  -3.014  -4.510  1.00  0.00     0.004 A 
ATOM     21  C   UNL     1      -4.792  -1.100  -5.874  1.00  0.00     0.004 A 
ATOM     22  C   UNL     1      -4.608  -1.830  -4.699  1.00  0.00    -0.051 A 
ATOM     23  C   UNL     1      -3.559  -1.403  -3.717  1.00  0.00     0.044 C 
ENDBRANCH  16  17
ENDBRANCH   6  16
TORSDOF 3
ENDMDL
MODEL 7
REMARK VINA RESULT:    -5.084      1.204      1.436
REMARK INTER + INTRA:          -6.347
REMARK INTER:                  -5.897
REMARK INTRA:                  -0.449
REMARK UNBOUND:                -0.371
REMARK SMILES Cc1ccc(CNC(=O)NC(=O)c2ccc(C)cc2)cc1
REMARK SMILES IDX 11 1 12 2 10 3 8 4 9 5 7 6 13 9 19 10 18 11 14 12 16 13
REMARK SMILES IDX 15 14 17 15 6 16 5 17 4 18 20 19 3 20 21 21 2 22 1 23
REMARK H PARENT 10 7 7 8
ROOT
ATOM      1  C   UNL     1      -7.689  -2.064  -7.119  1.00  0.00     0.259 C 
ATOM      2  O   UNL     1      -8.320  -1.023  -7.233  1.00  0.00    -0.269 OA
ATOM      3  N   UNL     1      -7.935  -3.306  -7.713  1.00  0.00    -0.274 N 
ATOM      4  C   UNL     1      -8.704  -3.808  -8.732  1.00  0.00     0.321 C 
ATOM      5  O   UNL     1      -8.534  -4.990  -9.049  1.00  0.00    -0.248 OA
ATOM      6  N   UNL     1      -9.603  -3.076  -9.416  1.00  0.00    -0.334 N 
ATOM      7  H   UNL     1      -7.282  -4.032  -7.448  1.00  0.00     0.175 HD
ATOM      8  H   UNL     1     -10.023  -3.569 -10.190  1.00  0.00     0.165 HD
ENDROOT
BRANCH   1   9
ATOM      9  C   UNL     1      -6.502  -2.024  -6.244  1.00  0.00     0.040 A 
ATOM     10  C   UNL     1      -5.644  -0.923  -6.231  1.00  0.00     0.014 A 
ATOM     11  C   UNL     1      -4.563  -0.909  -5.349  1.00  0.00     0.004 A 
ATOM     12  C   UNL     1      -6.251  -3.130  -5.426  1.00  0.00     0.014 A 
ATOM     13  C   UNL     1      -4.333  -1.991  -4.487  1.00  0.00    -0.051 A 
ATOM     14  C   UNL     1      -5.175  -3.109  -4.542  1.00  0.00     0.004 A 
ATOM     15  C   UNL     1      -3.218  -1.924  -3.485  1.00  0.00     0.044 C 
ENDBRANCH   1   9
BRANCH   6  16
ATOM     16  C   UNL     1      -9.877  -1.674  -9.278  1.00  0.00     0.153 C 
BRANCH  16  17
ATOM     17  C   UNL     1     -10.128  -0.893 -10.538  1.00  0.00    -0.029 A 
ATOM     18  C   UNL     1      -9.112  -0.246 -11.250  1.00  0.00     0.006 A 
ATOM     19  C   UNL     1     -11.400  -1.004 -11.121  1.00  0.00     0.006 A 
ATOM     20  C   UNL     1      -9.365   0.255 -12.531  1.00  0.00     0.004 A 
ATOM     21  C   UNL     1     -11.649  -0.509 -12.398  1.00  0.00     0.004 A 
ATOM     22  C   UNL     1     -10.631   0.116 -13.118  1.00  0.00    -0.051 A 
ATOM     23  C   UNL     1     -10.870   0.522 -14.542  1.00  0.00     0.044 C 
ENDBRANCH  16  17
ENDBRANCH   6  16
TORSDOF 3
ENDMDL
MODEL 8
REMARK VINA RESULT:    -4.457      3.852      5.022
REMARK INTER + INTRA:          -5.610
REMARK INTER:                  -5.220
REMARK INTRA:                  -0.389
REMARK UNBOUND:                -0.371
REMARK SMILES Cc1ccc(CNC(=O)NC(=O)c2ccc(C)cc2)cc1
REMARK SMILES IDX 11 1 12 2 10 3 8 4 9 5 7 6 13 9 19 10 18 11 14 12 16 13
REMARK SMILES IDX 15 14 17 15 6 16 5 17 4 18 20 19 3 20 21 21 2 22 1 23
REMARK H PARENT 10 7 7 8
ROOT
ATOM      1  C   UNL     1      -6.925  -2.713  -6.714  1.00  0.00     0.259 C 
ATOM      2  O   UNL     1      -6.711  -3.636  -7.487  1.00  0.00    -0.269 OA
ATOM      3  N   UNL     1      -8.096  -1.968  -6.543  1.00  0.00    -0.274 N 
ATOM      4  C   UNL     1      -9.416  -2.058  -6.903  1.00  0.00     0.321 C 
ATOM      5  O   UNL     1     -10.199  -1.230  -6.424  1.00  0.00    -0.248 OA
ATOM      6  N   UNL     1      -9.902  -3.012  -7.718  1.00  0.00    -0.334 N 
ATOM      7  H   UNL     1      -8.026  -1.234  -5.851  1.00  0.00     0.175 HD
ATOM      8  H   UNL     1     -10.907  -2.992  -7.815  1.00  0.00     0.165 HD
ENDROOT
BRANCH   1   9
ATOM      9  C   UNL     1      -5.811  -2.321  -5.829  1.00  0.00     0.040 A 
ATOM     10  C   UNL     1      -5.557  -0.982  -5.528  1.00  0.00     0.014 A 
ATOM     11  C   UNL     1      -4.525  -0.663  -4.645  1.00  0.00     0.004 A 
ATOM     12  C   UNL     1      -5.005  -3.334  -5.301  1.00  0.00     0.014 A 
ATOM     13  C   UNL     1      -3.743  -1.675  -4.069  1.00  0.00    -0.051 A 
ATOM     14  C   UNL     1      -3.979  -3.011  -4.414  1.00  0.00     0.004 A 
ATOM     15  C   UNL     1      -2.693  -1.322  -3.056  1.00  0.00     0.044 C 
ENDBRANCH   1   9
BRANCH   6  16
ATOM     16  C   UNL     1      -9.190  -4.119  -8.293  1.00  0.00     0.153 C 
BRANCH  16  17
ATOM     17  C   UNL     1      -9.971  -5.374  -8.568  1.00  0.00    -0.029 A 
ATOM     18  C   UNL     1     -10.469  -6.200  -7.555  1.00  0.00     0.006 A 
ATOM     19  C   UNL     1     -10.388  -5.595  -9.890  1.00  0.00     0.006 A 
ATOM     20  C   UNL     1     -11.385  -7.212  -7.864  1.00  0.00     0.004 A 
ATOM     21  C   UNL     1     -11.303  -6.598 -10.195  1.00  0.00     0.004 A 
ATOM     22  C   UNL     1     -11.818  -7.409  -9.182  1.00  0.00    -0.051 A 
ATOM     23  C   UNL     1     -12.903  -8.393  -9.499  1.00  0.00     0.044 C 
ENDBRANCH  16  17
ENDBRANCH   6  16
TORSDOF 3
ENDMDL
MODEL 9
REMARK VINA RESULT:    -4.103      5.555      9.341
REMARK INTER + INTRA:          -5.193
REMARK INTER:                  -4.737
REMARK INTRA:                  -0.456
REMARK UNBOUND:                -0.371
REMARK SMILES Cc1ccc(CNC(=O)NC(=O)c2ccc(C)cc2)cc1
REMARK SMILES IDX 11 1 12 2 10 3 8 4 9 5 7 6 13 9 19 10 18 11 14 12 16 13
REMARK SMILES IDX 15 14 17 15 6 16 5 17 4 18 20 19 3 20 21 21 2 22 1 23
REMARK H PARENT 10 7 7 8
ROOT
ATOM      1  C   UNL     1     -13.795  -3.876 -14.269  1.00  0.00     0.259 C 
ATOM      2  O   UNL     1     -12.653  -3.453 -14.373  1.00  0.00    -0.269 OA
ATOM      3  N   UNL     1     -14.948  -3.194 -13.866  1.00  0.00    -0.274 N 
ATOM      4  C   UNL     1     -15.343  -1.894 -13.679  1.00  0.00     0.321 C 
ATOM      5  O   UNL     1     -16.536  -1.687 -13.435  1.00  0.00    -0.248 OA
ATOM      6  N   UNL     1     -14.510  -0.842 -13.776  1.00  0.00    -0.334 N 
ATOM      7  H   UNL     1     -15.782  -3.765 -13.838  1.00  0.00     0.175 HD
ATOM      8  H   UNL     1     -14.972   0.052 -13.696  1.00  0.00     0.165 HD
ENDROOT
BRANCH   1   9
ATOM      9  C   UNL     1     -14.009  -5.294 -14.616  1.00  0.00     0.040 A 
ATOM     10  C   UNL     1     -13.698  -6.318 -13.719  1.00  0.00     0.014 A 
ATOM     11  C   UNL     1     -13.966  -7.641 -14.071  1.00  0.00     0.004 A 
ATOM     12  C   UNL     1     -14.528  -5.590 -15.880  1.00  0.00     0.014 A 
ATOM     13  C   UNL     1     -14.536  -7.945 -15.317  1.00  0.00    -0.051 A 
ATOM     14  C   UNL     1     -14.801  -6.912 -16.225  1.00  0.00     0.004 A 
ATOM     15  C   UNL     1     -14.896  -9.363 -15.647  1.00  0.00     0.044 C 
ENDBRANCH   1   9
BRANCH   6  16
ATOM     16  C   UNL     1     -13.123  -0.854 -14.149  1.00  0.00     0.153 C 
BRANCH  16  17
ATOM     17  C   UNL     1     -12.118  -0.533 -13.078  1.00  0.00    -0.029 A 
ATOM     18  C   UNL     1     -12.229  -0.997 -11.763  1.00  0.00     0.006 A 
ATOM     19  C   UNL     1     -10.921   0.080 -13.483  1.00  0.00     0.006 A 
ATOM     20  C   UNL     1     -11.150  -0.869 -10.882  1.00  0.00     0.004 A 
ATOM     21  C   UNL     1      -9.847   0.202 -12.607  1.00  0.00     0.004 A 
ATOM     22  C   UNL     1      -9.948  -0.281 -11.301  1.00  0.00    -0.051 A 
ATOM     23  C   UNL     1      -8.743  -0.269 -10.410  1.00  0.00     0.044 C 
ENDBRANCH  16  17
ENDBRANCH   6  16
TORSDOF 3
ENDMDL
