MODEL 1
REMARK VINA RESULT:    -6.098      0.000      0.000
REMARK INTER + INTRA:          -7.545
REMARK INTER:                  -7.168
REMARK INTRA:                  -0.378
REMARK UNBOUND:                -0.378
REMARK SMILES Cc1ccc(CNC(=O)NC(=O)c2ccc(C)cc2)cc1
REMARK SMILES IDX 11 1 12 2 10 3 8 4 9 5 7 6 13 9 19 10 18 11 14 12 16 13
REMARK SMILES IDX 15 14 17 15 6 16 5 17 4 18 20 19 3 20 21 21 2 22 1 23
REMARK H PARENT 10 7 7 8
ROOT
ATOM      1  C   UNL     1      -6.200  -5.085  -6.984  1.00  0.00     0.259 C 
ATOM      2  O   UNL     1      -5.582  -4.904  -8.023  1.00  0.00    -0.269 OA
ATOM      3  N   UNL     1      -7.463  -5.658  -6.805  1.00  0.00    -0.274 N 
ATOM      4  C   UNL     1      -8.352  -6.401  -7.539  1.00  0.00     0.321 C 
ATOM      5  O   UNL     1      -9.346  -6.846  -6.956  1.00  0.00    -0.248 OA
ATOM      6  N   UNL     1      -8.181  -6.691  -8.842  1.00  0.00    -0.334 N 
ATOM      7  H   UNL     1      -7.779  -5.681  -5.844  1.00  0.00     0.175 HD
ATOM      8  H   UNL     1      -8.880  -7.318  -9.214  1.00  0.00     0.165 HD
ENDROOT
BRANCH   1   9
ATOM      9  C   UNL     1      -5.539  -4.651  -5.738  1.00  0.00     0.040 A 
ATOM     10  C   UNL     1      -5.861  -3.438  -5.126  1.00  0.00     0.014 A 
ATOM     11  C   UNL     1      -5.248  -3.096  -3.921  1.00  0.00     0.004 A 
ATOM     12  C   UNL     1      -4.568  -5.491  -5.183  1.00  0.00     0.014 A 
ATOM     13  C   UNL     1      -4.310  -3.955  -3.330  1.00  0.00    -0.051 A 
ATOM     14  C   UNL     1      -3.962  -5.147  -3.976  1.00  0.00     0.004 A 
ATOM     15  C   UNL     1      -3.722  -3.612  -1.992  1.00  0.00     0.044 C 
ENDBRANCH   1   9
BRANCH   6  16
ATOM     16  C   UNL     1      -7.057  -6.363  -9.673  1.00  0.00     0.153 C 
BRANCH  16  17
ATOM     17  C   UNL     1      -6.839  -7.201 -10.901  1.00  0.00    -0.029 A 
ATOM     18  C   UNL     1      -5.633  -7.856 -11.175  1.00  0.00     0.006 A 
ATOM     19  C   UNL     1      -7.965  -7.499 -11.686  1.00  0.00     0.006 A 
ATOM     20  C   UNL     1      -5.570  -8.808 -12.198  1.00  0.00     0.004 A 
ATOM     21  C   UNL     1      -7.902  -8.449 -12.700  1.00  0.00     0.004 A 
ATOM     22  C   UNL     1      -6.706  -9.119 -12.959  1.00  0.00    -0.051 A 
ATOM     23  C   UNL     1      -6.682 -10.236 -13.959  1.00  0.00     0.044 C 
ENDBRANCH  16  17
ENDBRANCH   6  16
TORSDOF 3
ENDMDL
MODEL 2
REMARK VINA RESULT:    -6.092      3.244      5.539
REMARK INTER + INTRA:          -7.537
REMARK INTER:                  -7.157
REMARK INTRA:                  -0.380
REMARK UNBOUND:                -0.378
REMARK SMILES Cc1ccc(CNC(=O)NC(=O)c2ccc(C)cc2)cc1
REMARK SMILES IDX 11 1 12 2 10 3 8 4 9 5 7 6 13 9 19 10 18 11 14 12 16 13
REMARK SMILES IDX 15 14 17 15 6 16 5 17 4 18 20 19 3 20 21 21 2 22 1 23
REMARK H PARENT 10 7 7 8
ROOT
ATOM      1  C   UNL     1      -6.504  -4.923  -6.742  1.00  0.00     0.259 C 
ATOM      2  O   UNL     1      -7.133  -5.138  -5.715  1.00  0.00    -0.269 OA
ATOM      3  N   UNL     1      -6.629  -5.541  -7.990  1.00  0.00    -0.274 N 
ATOM      4  C   UNL     1      -7.527  -6.354  -8.633  1.00  0.00     0.321 C 
ATOM      5  O   UNL     1      -7.335  -6.585  -9.832  1.00  0.00    -0.248 OA
ATOM      6  N   UNL     1      -8.612  -6.882  -8.037  1.00  0.00    -0.334 N 
ATOM      7  H   UNL     1      -5.977  -5.207  -8.688  1.00  0.00     0.175 HD
ATOM      8  H   UNL     1      -9.218  -7.386  -8.668  1.00  0.00     0.165 HD
ENDROOT
BRANCH   1   9
ATOM      9  C   UNL     1      -5.472  -3.870  -6.677  1.00  0.00     0.040 A 
ATOM     10  C   UNL     1      -4.126  -4.181  -6.477  1.00  0.00     0.014 A 
ATOM     11  C   UNL     1      -3.180  -3.156  -6.476  1.00  0.00     0.004 A 
ATOM     12  C   UNL     1      -5.882  -2.540  -6.814  1.00  0.00     0.014 A 
ATOM     13  C   UNL     1      -3.574  -1.822  -6.665  1.00  0.00    -0.051 A 
ATOM     14  C   UNL     1      -4.933  -1.520  -6.819  1.00  0.00     0.004 A 
ATOM     15  C   UNL     1      -2.537  -0.741  -6.745  1.00  0.00     0.044 C 
ENDBRANCH   1   9
BRANCH   6  16
ATOM     16  C   UNL     1      -9.071  -6.657  -6.695  1.00  0.00     0.153 C 
BRANCH  16  17
ATOM     17  C   UNL     1     -10.531  -6.884  -6.419  1.00  0.00    -0.029 A 
ATOM     18  C   UNL     1     -11.367  -5.904  -5.873  1.00  0.00     0.006 A 
ATOM     19  C   UNL     1     -11.107  -8.059  -6.929  1.00  0.00     0.006 A 
ATOM     20  C   UNL     1     -12.753  -6.092  -5.864  1.00  0.00     0.004 A 
ATOM     21  C   UNL     1     -12.486  -8.243  -6.924  1.00  0.00     0.004 A 
ATOM     22  C   UNL     1     -13.322  -7.255  -6.400  1.00  0.00    -0.051 A 
ATOM     23  C   UNL     1     -14.810  -7.401  -6.523  1.00  0.00     0.044 C 
ENDBRANCH  16  17
ENDBRANCH   6  16
TORSDOF 3
ENDMDL
MODEL 3
REMARK VINA RESULT:    -6.001      3.145      7.321
REMARK INTER + INTRA:          -7.431
REMARK INTER:                  -6.943
REMARK INTRA:                  -0.488
REMARK UNBOUND:                -0.378
REMARK SMILES Cc1ccc(CNC(=O)NC(=O)c2ccc(C)cc2)cc1
REMARK SMILES IDX 11 1 12 2 10 3 8 4 9 5 7 6 13 9 19 10 18 11 14 12 16 13
REMARK SMILES IDX 15 14 17 15 6 16 5 17 4 18 20 19 3 20 21 21 2 22 1 23
REMARK H PARENT 10 7 7 8
ROOT
ATOM      1  C   UNL     1      -9.138  -6.168  -6.731  1.00  0.00     0.259 C 
ATOM      2  O   UNL     1      -8.628  -5.572  -5.792  1.00  0.00    -0.269 OA
ATOM      3  N   UNL     1      -8.583  -6.475  -7.977  1.00  0.00    -0.274 N 
ATOM      4  C   UNL     1      -7.340  -6.491  -8.557  1.00  0.00     0.321 C 
ATOM      5  O   UNL     1      -7.242  -6.973  -9.690  1.00  0.00    -0.248 OA
ATOM      6  N   UNL     1      -6.228  -6.041  -7.946  1.00  0.00    -0.334 N 
ATOM      7  H   UNL     1      -9.210  -6.959  -8.605  1.00  0.00     0.175 HD
ATOM      8  H   UNL     1      -5.381  -6.203  -8.472  1.00  0.00     0.165 HD
ENDROOT
BRANCH   1   9
ATOM      9  C   UNL     1     -10.523  -6.638  -6.542  1.00  0.00     0.040 A 
ATOM     10  C   UNL     1     -11.475  -5.854  -5.886  1.00  0.00     0.014 A 
ATOM     11  C   UNL     1     -12.786  -6.319  -5.777  1.00  0.00     0.004 A 
ATOM     12  C   UNL     1     -10.861  -7.903  -7.034  1.00  0.00     0.014 A 
ATOM     13  C   UNL     1     -13.147  -7.564  -6.313  1.00  0.00    -0.051 A 
ATOM     14  C   UNL     1     -12.173  -8.360  -6.929  1.00  0.00     0.004 A 
ATOM     15  C   UNL     1     -14.578  -8.012  -6.264  1.00  0.00     0.044 C 
ENDBRANCH   1   9
BRANCH   6  16
ATOM     16  C   UNL     1      -6.105  -5.544  -6.605  1.00  0.00     0.153 C 
BRANCH  16  17
ATOM     17  C   UNL     1      -5.263  -4.316  -6.398  1.00  0.00    -0.029 A 
ATOM     18  C   UNL     1      -3.888  -4.366  -6.149  1.00  0.00     0.006 A 
ATOM     19  C   UNL     1      -5.857  -3.075  -6.678  1.00  0.00     0.006 A 
ATOM     20  C   UNL     1      -3.123  -3.196  -6.206  1.00  0.00     0.004 A 
ATOM     21  C   UNL     1      -5.095  -1.913  -6.739  1.00  0.00     0.004 A 
ATOM     22  C   UNL     1      -3.718  -1.965  -6.514  1.00  0.00    -0.051 A 
ATOM     23  C   UNL     1      -2.886  -0.735  -6.717  1.00  0.00     0.044 C 
ENDBRANCH  16  17
ENDBRANCH   6  16
TORSDOF 3
ENDMDL
MODEL 4
REMARK VINA RESULT:    -5.987      0.550      8.023
REMARK INTER + INTRA:          -7.414
REMARK INTER:                  -6.925
REMARK INTRA:                  -0.489
REMARK UNBOUND:                -0.378
REMARK SMILES Cc1ccc(CNC(=O)NC(=O)c2ccc(C)cc2)cc1
REMARK SMILES IDX 11 1 12 2 10 3 8 4 9 5 7 6 13 9 19 10 18 11 14 12 16 13
REMARK SMILES IDX 15 14 17 15 6 16 5 17 4 18 20 19 3 20 21 21 2 22 1 23
REMARK H PARENT 10 7 7 8
ROOT
ATOM      1  C   UNL     1      -6.716  -6.571  -9.413  1.00  0.00     0.259 C 
ATOM      2  O   UNL     1      -5.742  -5.858  -9.213  1.00  0.00    -0.269 OA
ATOM      3  N   UNL     1      -7.837  -6.769  -8.601  1.00  0.00    -0.274 N 
ATOM      4  C   UNL     1      -8.416  -6.173  -7.510  1.00  0.00     0.321 C 
ATOM      5  O   UNL     1      -9.524  -6.586  -7.152  1.00  0.00    -0.248 OA
ATOM      6  N   UNL     1      -7.857  -5.152  -6.836  1.00  0.00    -0.334 N 
ATOM      7  H   UNL     1      -8.508  -7.429  -8.971  1.00  0.00     0.175 HD
ATOM      8  H   UNL     1      -8.448  -4.770  -6.112  1.00  0.00     0.165 HD
ENDROOT
BRANCH   1   9
ATOM      9  C   UNL     1      -6.730  -7.329 -10.679  1.00  0.00     0.040 A 
ATOM     10  C   UNL     1      -5.581  -7.954 -11.166  1.00  0.00     0.014 A 
ATOM     11  C   UNL     1      -5.657  -8.704 -12.340  1.00  0.00     0.004 A 
ATOM     12  C   UNL     1      -7.934  -7.400 -11.388  1.00  0.00     0.014 A 
ATOM     13  C   UNL     1      -6.871  -8.825 -13.032  1.00  0.00    -0.051 A 
ATOM     14  C   UNL     1      -8.006  -8.156 -12.557  1.00  0.00     0.004 A 
ATOM     15  C   UNL     1      -6.956  -9.703 -14.245  1.00  0.00     0.044 C 
ENDBRANCH   1   9
BRANCH   6  16
ATOM     16  C   UNL     1      -6.637  -4.461  -7.146  1.00  0.00     0.153 C 
BRANCH  16  17
ATOM     17  C   UNL     1      -5.712  -4.147  -6.002  1.00  0.00    -0.029 A 
ATOM     18  C   UNL     1      -5.767  -2.949  -5.283  1.00  0.00     0.006 A 
ATOM     19  C   UNL     1      -4.911  -5.194  -5.517  1.00  0.00     0.006 A 
ATOM     20  C   UNL     1      -5.050  -2.816  -4.089  1.00  0.00     0.004 A 
ATOM     21  C   UNL     1      -4.203  -5.062  -4.327  1.00  0.00     0.004 A 
ATOM     22  C   UNL     1      -4.275  -3.875  -3.597  1.00  0.00    -0.051 A 
ATOM     23  C   UNL     1      -3.621  -3.791  -2.250  1.00  0.00     0.044 C 
ENDBRANCH  16  17
ENDBRANCH   6  16
TORSDOF 3
ENDMDL
MODEL 5
REMARK VINA RESULT:    -5.709      2.993      7.689
REMARK INTER + INTRA:          -7.088
REMARK INTER:                  -6.655
REMARK INTRA:                  -0.433
REMARK UNBOUND:                -0.378
REMARK SMILES Cc1ccc(CNC(=O)NC(=O)c2ccc(C)cc2)cc1
REMARK SMILES IDX 11 1 12 2 10 3 8 4 9 5 7 6 13 9 19 10 18 11 14 12 16 13
REMARK SMILES IDX 15 14 17 15 6 16 5 17 4 18 20 19 3 20 21 21 2 22 1 23
REMARK H PARENT 10 7 7 8
ROOT
ATOM      1  C   UNL     1      -9.329  -6.391  -6.590  1.00  0.00     0.259 C 
ATOM      2  O   UNL     1      -8.777  -6.024  -5.563  1.00  0.00    -0.269 OA
ATOM      3  N   UNL     1      -8.798  -6.497  -7.880  1.00  0.00    -0.274 N 
ATOM      4  C   UNL     1      -7.560  -6.496  -8.469  1.00  0.00     0.321 C 
ATOM      5  O   UNL     1      -7.498  -6.760  -9.674  1.00  0.00    -0.248 OA
ATOM      6  N   UNL     1      -6.417  -6.253  -7.800  1.00  0.00    -0.334 N 
ATOM      7  H   UNL     1      -9.460  -6.806  -8.579  1.00  0.00     0.175 HD
ATOM      8  H   UNL     1      -5.585  -6.374  -8.359  1.00  0.00     0.165 HD
ENDROOT
BRANCH   1   9
ATOM      9  C   UNL     1     -10.746  -6.785  -6.474  1.00  0.00     0.040 A 
ATOM     10  C   UNL     1     -11.687  -5.948  -5.870  1.00  0.00     0.014 A 
ATOM     11  C   UNL     1     -13.025  -6.340  -5.830  1.00  0.00     0.004 A 
ATOM     12  C   UNL     1     -11.126  -8.031  -6.981  1.00  0.00     0.014 A 
ATOM     13  C   UNL     1     -13.425  -7.566  -6.383  1.00  0.00    -0.051 A 
ATOM     14  C   UNL     1     -12.465  -8.416  -6.945  1.00  0.00     0.004 A 
ATOM     15  C   UNL     1     -14.879  -7.935  -6.408  1.00  0.00     0.044 C 
ENDBRANCH   1   9
BRANCH   6  16
ATOM     16  C   UNL     1      -6.258  -6.030  -6.391  1.00  0.00     0.153 C 
BRANCH  16  17
ATOM     17  C   UNL     1      -5.309  -4.944  -5.967  1.00  0.00    -0.029 A 
ATOM     18  C   UNL     1      -5.481  -3.600  -6.317  1.00  0.00     0.006 A 
ATOM     19  C   UNL     1      -4.336  -5.277  -5.011  1.00  0.00     0.006 A 
ATOM     20  C   UNL     1      -4.708  -2.612  -5.699  1.00  0.00     0.004 A 
ATOM     21  C   UNL     1      -3.572  -4.292  -4.393  1.00  0.00     0.004 A 
ATOM     22  C   UNL     1      -3.758  -2.949  -4.724  1.00  0.00    -0.051 A 
ATOM     23  C   UNL     1      -3.029  -1.887  -3.957  1.00  0.00     0.044 C 
ENDBRANCH  16  17
ENDBRANCH   6  16
TORSDOF 3
ENDMDL
MODEL 6
REMARK VINA RESULT:    -4.412      2.297      4.035
REMARK INTER + INTRA:          -5.563
REMARK INTER:                  -5.138
REMARK INTRA:                  -0.425
REMARK UNBOUND:                -0.378
REMARK SMILES Cc1ccc(CNC(=O)NC(=O)c2ccc(C)cc2)cc1
REMARK SMILES IDX 11 1 12 2 10 3 8 4 9 5 7 6 13 9 19 10 18 11 14 12 16 13
REMARK SMILES IDX 15 14 17 15 6 16 5 17 4 18 20 19 3 20 21 21 2 22 1 23
REMARK H PARENT 10 7 7 8
ROOT
ATOM      1  C   UNL     1      -6.683  -6.732 -10.183  1.00  0.00     0.259 C 
ATOM      2  O   UNL     1      -5.612  -6.952 -10.730  1.00  0.00    -0.269 OA
ATOM      3  N   UNL     1      -7.973  -7.030 -10.633  1.00  0.00    -0.274 N 
ATOM      4  C   UNL     1      -8.554  -7.807 -11.603  1.00  0.00     0.321 C 
ATOM      5  O   UNL     1      -9.786  -7.910 -11.593  1.00  0.00    -0.248 OA
ATOM      6  N   UNL     1      -7.855  -8.479 -12.535  1.00  0.00    -0.334 N 
ATOM      7  H   UNL     1      -8.712  -6.729 -10.011  1.00  0.00     0.175 HD
ATOM      8  H   UNL     1      -8.425  -9.072 -13.122  1.00  0.00     0.165 HD
ENDROOT
BRANCH   1   9
ATOM      9  C   UNL     1      -6.629  -6.067  -8.867  1.00  0.00     0.040 A 
ATOM     10  C   UNL     1      -6.354  -6.783  -7.700  1.00  0.00     0.014 A 
ATOM     11  C   UNL     1      -6.260  -6.103  -6.486  1.00  0.00     0.004 A 
ATOM     12  C   UNL     1      -6.868  -4.691  -8.816  1.00  0.00     0.014 A 
ATOM     13  C   UNL     1      -6.448  -4.713  -6.432  1.00  0.00    -0.051 A 
ATOM     14  C   UNL     1      -6.767  -4.014  -7.602  1.00  0.00     0.004 A 
ATOM     15  C   UNL     1      -6.260  -3.984  -5.134  1.00  0.00     0.044 C 
ENDBRANCH   1   9
BRANCH   6  16
ATOM     16  C   UNL     1      -6.428  -8.578 -12.658  1.00  0.00     0.153 C 
BRANCH  16  17
ATOM     17  C   UNL     1      -5.860  -9.916 -13.041  1.00  0.00    -0.029 A 
ATOM     18  C   UNL     1      -5.829 -11.010 -12.170  1.00  0.00     0.006 A 
ATOM     19  C   UNL     1      -5.544 -10.118 -14.395  1.00  0.00     0.006 A 
ATOM     20  C   UNL     1      -5.514 -12.284 -12.656  1.00  0.00     0.004 A 
ATOM     21  C   UNL     1      -5.235 -11.385 -14.878  1.00  0.00     0.004 A 
ATOM     22  C   UNL     1      -5.227 -12.482 -14.014  1.00  0.00    -0.051 A 
ATOM     23  C   UNL     1      -5.029 -13.861 -14.568  1.00  0.00     0.044 C 
ENDBRANCH  16  17
ENDBRANCH   6  16
TORSDOF 3
ENDMDL
MODEL 7
REMARK VINA RESULT:    -4.397      3.884      7.856
REMARK INTER + INTRA:          -5.546
REMARK INTER:                  -5.133
REMARK INTRA:                  -0.413
REMARK UNBOUND:                -0.378
REMARK SMILES Cc1ccc(CNC(=O)NC(=O)c2ccc(C)cc2)cc1
REMARK SMILES IDX 11 1 12 2 10 3 8 4 9 5 7 6 13 9 19 10 18 11 14 12 16 13
REMARK SMILES IDX 15 14 17 15 6 16 5 17 4 18 20 19 3 20 21 21 2 22 1 23
REMARK H PARENT 10 7 7 8
ROOT
ATOM      1  C   UNL     1      -8.228  -6.103  -6.543  1.00  0.00     0.259 C 
ATOM      2  O   UNL     1      -8.019  -4.954  -6.905  1.00  0.00    -0.269 OA
ATOM      3  N   UNL     1      -7.305  -7.085  -6.171  1.00  0.00    -0.274 N 
ATOM      4  C   UNL     1      -5.976  -7.153  -5.838  1.00  0.00     0.321 C 
ATOM      5  O   UNL     1      -5.544  -8.233  -5.423  1.00  0.00    -0.248 OA
ATOM      6  N   UNL     1      -5.136  -6.104  -5.911  1.00  0.00    -0.334 N 
ATOM      7  H   UNL     1      -7.718  -7.975  -5.928  1.00  0.00     0.175 HD
ATOM      8  H   UNL     1      -4.213  -6.296  -5.548  1.00  0.00     0.165 HD
ENDROOT
BRANCH   1   9
ATOM      9  C   UNL     1      -9.639  -6.528  -6.477  1.00  0.00     0.040 A 
ATOM     10  C   UNL     1     -10.602  -5.756  -5.824  1.00  0.00     0.014 A 
ATOM     11  C   UNL     1     -11.934  -6.173  -5.833  1.00  0.00     0.004 A 
ATOM     12  C   UNL     1      -9.990  -7.737  -7.084  1.00  0.00     0.014 A 
ATOM     13  C   UNL     1     -12.305  -7.359  -6.485  1.00  0.00    -0.051 A 
ATOM     14  C   UNL     1     -11.322  -8.146  -7.097  1.00  0.00     0.004 A 
ATOM     15  C   UNL     1     -13.751  -7.749  -6.559  1.00  0.00     0.044 C 
ENDBRANCH   1   9
BRANCH   6  16
ATOM     16  C   UNL     1      -5.455  -4.749  -6.264  1.00  0.00     0.153 C 
BRANCH  16  17
ATOM     17  C   UNL     1      -4.745  -3.656  -5.515  1.00  0.00    -0.029 A 
ATOM     18  C   UNL     1      -4.801  -3.523  -4.124  1.00  0.00     0.006 A 
ATOM     19  C   UNL     1      -3.826  -2.875  -6.235  1.00  0.00     0.006 A 
ATOM     20  C   UNL     1      -3.933  -2.641  -3.469  1.00  0.00     0.004 A 
ATOM     21  C   UNL     1      -2.960  -2.003  -5.582  1.00  0.00     0.004 A 
ATOM     22  C   UNL     1      -2.999  -1.886  -4.192  1.00  0.00    -0.051 A 
ATOM     23  C   UNL     1      -1.973  -1.049  -3.488  1.00  0.00     0.044 C 
ENDBRANCH  16  17
ENDBRANCH   6  16
TORSDOF 3
ENDMDL
MODEL 8
REMARK VINA RESULT:    -4.258      5.098      9.586
REMARK INTER + INTRA:          -5.382
REMARK INTER:                  -4.828
REMARK INTRA:                  -0.555
REMARK UNBOUND:                -0.378
REMARK SMILES Cc1ccc(CNC(=O)NC(=O)c2ccc(C)cc2)cc1
REMARK SMILES IDX 11 1 12 2 10 3 8 4 9 5 7 6 13 9 19 10 18 11 14 12 16 13
REMARK SMILES IDX 15 14 17 15 6 16 5 17 4 18 20 19 3 20 21 21 2 22 1 23
REMARK H PARENT 10 7 7 8
ROOT
ATOM      1  C   UNL     1      -9.539 -11.690 -12.837  1.00  0.00     0.259 C 
ATOM      2  O   UNL     1      -9.697 -10.584 -13.335  1.00  0.00    -0.269 OA
ATOM      3  N   UNL     1      -8.358 -12.423 -12.689  1.00  0.00    -0.274 N 
ATOM      4  C   UNL     1      -7.008 -12.197 -12.772  1.00  0.00     0.321 C 
ATOM      5  O   UNL     1      -6.251 -13.111 -12.425  1.00  0.00    -0.248 OA
ATOM      6  N   UNL     1      -6.472 -11.032 -13.180  1.00  0.00    -0.334 N 
ATOM      7  H   UNL     1      -8.482 -13.332 -12.262  1.00  0.00     0.175 HD
ATOM      8  H   UNL     1      -5.466 -10.998 -13.102  1.00  0.00     0.165 HD
ENDROOT
BRANCH   1   9
ATOM      9  C   UNL     1     -10.747 -12.355 -12.311  1.00  0.00     0.040 A 
ATOM     10  C   UNL     1     -10.939 -13.731 -12.450  1.00  0.00     0.014 A 
ATOM     11  C   UNL     1     -12.072 -14.323 -11.890  1.00  0.00     0.004 A 
ATOM     12  C   UNL     1     -11.706 -11.564 -11.670  1.00  0.00     0.014 A 
ATOM     13  C   UNL     1     -13.014 -13.546 -11.199  1.00  0.00    -0.051 A 
ATOM     14  C   UNL     1     -12.832 -12.161 -11.106  1.00  0.00     0.004 A 
ATOM     15  C   UNL     1     -14.182 -14.209 -10.530  1.00  0.00     0.044 C 
ENDBRANCH   1   9
BRANCH   6  16
ATOM     16  C   UNL     1      -7.165  -9.822 -13.524  1.00  0.00     0.153 C 
BRANCH  16  17
ATOM     17  C   UNL     1      -7.031  -8.659 -12.581  1.00  0.00    -0.029 A 
ATOM     18  C   UNL     1      -8.120  -7.891 -12.157  1.00  0.00     0.006 A 
ATOM     19  C   UNL     1      -5.789  -8.483 -11.949  1.00  0.00     0.006 A 
ATOM     20  C   UNL     1      -7.969  -6.984 -11.102  1.00  0.00     0.004 A 
ATOM     21  C   UNL     1      -5.641  -7.584 -10.897  1.00  0.00     0.004 A 
ATOM     22  C   UNL     1      -6.733  -6.834 -10.457  1.00  0.00    -0.051 A 
ATOM     23  C   UNL     1      -6.599  -5.972  -9.238  1.00  0.00     0.044 C 
ENDBRANCH  16  17
ENDBRANCH   6  16
TORSDOF 3
ENDMDL
