MODEL 1
REMARK VINA RESULT:    -4.001      0.000      0.000
REMARK INTER + INTRA:          -5.548
REMARK INTER:                  -5.287
REMARK INTRA:                  -0.260
REMARK UNBOUND:                -0.260
REMARK SMILES [H]/N=C\C[C@H]1C[C@@H]1O[C@H]1CO[C@H]2C[C@@H](C3CC3)CCN2C1
REMARK SMILES IDX 7 1 6 2 5 3 8 4 9 5 14 6 13 7 18 8 12 9 19 10 20 11 11 12
REMARK SMILES IDX 21 13 10 14 15 15 16 16 17 17 4 18 3 19 2 20 1 21
REMARK H PARENT
ROOT
ATOM      1  C   UNL     1      -9.932  -6.143  -6.641  1.00  0.00     0.122 C 
ATOM      2  C   UNL     1     -10.660  -7.456  -6.564  1.00  0.00     0.039 C 
ATOM      3  C   UNL     1     -11.123  -6.293  -5.734  1.00  0.00     0.026 C 
ENDROOT
BRANCH   1   4
ATOM      4  O   UNL     1      -8.637  -6.153  -6.012  1.00  0.00    -0.371 OA
BRANCH   4   5
ATOM      5  C   UNL     1      -7.591  -6.796  -6.757  1.00  0.00     0.158 C 
ATOM      6  C   UNL     1      -3.849  -3.222  -6.101  1.00  0.00    -0.003 C 
ATOM      7  C   UNL     1      -5.152  -3.313  -6.905  1.00  0.00     0.052 C 
ATOM      8  C   UNL     1      -3.999  -4.021  -4.800  1.00  0.00     0.019 C 
ATOM      9  C   UNL     1      -5.593  -4.769  -7.112  1.00  0.00     0.189 C 
ATOM     10  C   UNL     1      -4.473  -5.449  -5.072  1.00  0.00     0.087 C 
ATOM     11  N   UNL     1      -5.727  -5.449  -5.824  1.00  0.00    -0.276 NA
ATOM     12  O   UNL     1      -6.830  -4.723  -7.826  1.00  0.00    -0.360 OA
ATOM     13  C   UNL     1      -6.240  -6.810  -6.019  1.00  0.00     0.121 C 
ATOM     14  C   UNL     1      -7.388  -6.019  -8.062  1.00  0.00     0.195 C 
BRANCH   6  15
ATOM     15  C   UNL     1      -3.481  -1.786  -5.803  1.00  0.00    -0.008 C 
ATOM     16  C   UNL     1      -2.083  -1.284  -6.074  1.00  0.00     0.004 C 
ATOM     17  C   UNL     1      -3.225  -0.804  -6.921  1.00  0.00     0.004 C 
ENDBRANCH   6  15
ENDBRANCH   4   5
ENDBRANCH   1   4
BRANCH   3  18
ATOM     18  C   UNL     1     -12.422  -5.627  -6.076  1.00  0.00     0.053 C 
BRANCH  18  19
ATOM     19  C   UNL     1     -13.634  -6.520  -6.132  1.00  0.00     0.074 C 
BRANCH  19  20
ATOM     20  N   UNL     1     -14.176  -7.124  -5.127  1.00  0.00    -0.313 NA
ATOM     21  H   UNL     1     -14.861  -6.523  -4.647  1.00  0.00     0.186 HD
ENDBRANCH  19  20
ENDBRANCH  18  19
ENDBRANCH   3  18
TORSDOF 6
ENDMDL
MODEL 2
REMARK VINA RESULT:    -3.999      3.314      5.546
REMARK INTER + INTRA:          -5.545
REMARK INTER:                  -5.312
REMARK INTRA:                  -0.233
REMARK UNBOUND:                -0.260
REMARK SMILES [H]/N=C\C[C@H]1C[C@@H]1O[C@H]1CO[C@H]2C[C@@H](C3CC3)CCN2C1
REMARK SMILES IDX 7 1 6 2 5 3 8 4 9 5 14 6 13 7 18 8 12 9 19 10 20 11 11 12
REMARK SMILES IDX 21 13 10 14 15 15 16 16 17 17 4 18 3 19 2 20 1 21
REMARK H PARENT
ROOT
ATOM      1  C   UNL     1      -6.542  -7.212  -9.994  1.00  0.00     0.122 C 
ATOM      2  C   UNL     1      -7.382  -7.189 -11.240  1.00  0.00     0.039 C 
ATOM      3  C   UNL     1      -5.909  -7.465 -11.335  1.00  0.00     0.026 C 
ENDROOT
BRANCH   1   4
ATOM      4  O   UNL     1      -6.320  -5.914  -9.411  1.00  0.00    -0.371 OA
BRANCH   4   5
ATOM      5  C   UNL     1      -7.446  -5.342  -8.726  1.00  0.00     0.158 C 
ATOM      6  C   UNL     1      -4.940  -3.400  -4.584  1.00  0.00    -0.003 C 
ATOM      7  C   UNL     1      -5.326  -4.800  -5.078  1.00  0.00     0.052 C 
ATOM      8  C   UNL     1      -4.670  -2.493  -5.793  1.00  0.00     0.019 C 
ATOM      9  C   UNL     1      -6.476  -4.750  -6.093  1.00  0.00     0.189 C 
ATOM     10  C   UNL     1      -5.837  -2.514  -6.780  1.00  0.00     0.087 C 
ATOM     11  N   UNL     1      -6.128  -3.880  -7.216  1.00  0.00    -0.276 NA
ATOM     12  O   UNL     1      -6.712  -6.096  -6.510  1.00  0.00    -0.360 OA
ATOM     13  C   UNL     1      -7.189  -3.908  -8.229  1.00  0.00     0.121 C 
ATOM     14  C   UNL     1      -7.744  -6.204  -7.496  1.00  0.00     0.195 C 
BRANCH   6  15
ATOM     15  C   UNL     1      -3.734  -3.446  -3.674  1.00  0.00    -0.008 C 
ATOM     16  C   UNL     1      -3.737  -2.695  -2.363  1.00  0.00     0.004 C 
ATOM     17  C   UNL     1      -3.780  -4.195  -2.365  1.00  0.00     0.004 C 
ENDBRANCH   6  15
ENDBRANCH   4   5
ENDBRANCH   1   4
BRANCH   3  18
ATOM     18  C   UNL     1      -5.451  -8.844 -11.707  1.00  0.00     0.053 C 
BRANCH  18  19
ATOM     19  C   UNL     1      -5.997  -9.403 -12.995  1.00  0.00     0.074 C 
BRANCH  19  20
ATOM     20  N   UNL     1      -5.475  -9.251 -14.167  1.00  0.00    -0.313 NA
ATOM     21  H   UNL     1      -6.190  -9.030 -14.875  1.00  0.00     0.186 HD
ENDBRANCH  19  20
ENDBRANCH  18  19
ENDBRANCH   3  18
TORSDOF 6
ENDMDL
MODEL 3
REMARK VINA RESULT:    -3.994      5.200      8.400
REMARK INTER + INTRA:          -5.538
REMARK INTER:                  -5.403
REMARK INTRA:                  -0.135
REMARK UNBOUND:                -0.260
REMARK SMILES [H]/N=C\C[C@H]1C[C@@H]1O[C@H]1CO[C@H]2C[C@@H](C3CC3)CCN2C1
REMARK SMILES IDX 7 1 6 2 5 3 8 4 9 5 14 6 13 7 18 8 12 9 19 10 20 11 11 12
REMARK SMILES IDX 21 13 10 14 15 15 16 16 17 17 4 18 3 19 2 20 1 21
REMARK H PARENT
ROOT
ATOM      1  C   UNL     1      -7.014  -6.074  -7.932  1.00  0.00     0.122 C 
ATOM      2  C   UNL     1      -7.924  -6.392  -6.779  1.00  0.00     0.039 C 
ATOM      3  C   UNL     1      -6.462  -6.724  -6.693  1.00  0.00     0.026 C 
ENDROOT
BRANCH   1   4
ATOM      4  O   UNL     1      -7.200  -6.926  -9.079  1.00  0.00    -0.371 OA
BRANCH   4   5
ATOM      5  C   UNL     1      -6.956  -6.310 -10.354  1.00  0.00     0.158 C 
ATOM      6  C   UNL     1      -6.351 -10.633 -13.209  1.00  0.00    -0.003 C 
ATOM      7  C   UNL     1      -5.530  -9.897 -12.143  1.00  0.00     0.052 C 
ATOM      8  C   UNL     1      -7.846 -10.440 -12.920  1.00  0.00     0.019 C 
ATOM      9  C   UNL     1      -5.956  -8.428 -12.009  1.00  0.00     0.189 C 
ATOM     10  C   UNL     1      -8.198  -8.960 -12.765  1.00  0.00     0.087 C 
ATOM     11  N   UNL     1      -7.387  -8.337 -11.719  1.00  0.00    -0.276 NA
ATOM     12  O   UNL     1      -5.160  -7.865 -10.965  1.00  0.00    -0.360 OA
ATOM     13  C   UNL     1      -7.773  -6.939 -11.497  1.00  0.00     0.121 C 
ATOM     14  C   UNL     1      -5.475  -6.495 -10.697  1.00  0.00     0.195 C 
BRANCH   6  15
ATOM     15  C   UNL     1      -6.006 -12.104 -13.256  1.00  0.00    -0.008 C 
ATOM     16  C   UNL     1      -6.173 -12.887 -14.537  1.00  0.00     0.004 C 
ATOM     17  C   UNL     1      -4.796 -12.591 -14.017  1.00  0.00     0.004 C 
ENDBRANCH   6  15
ENDBRANCH   4   5
ENDBRANCH   1   4
BRANCH   3  18
ATOM     18  C   UNL     1      -5.593  -5.943  -5.753  1.00  0.00     0.053 C 
BRANCH  18  19
ATOM     19  C   UNL     1      -4.564  -6.732  -4.987  1.00  0.00     0.074 C 
BRANCH  19  20
ATOM     20  N   UNL     1      -4.683  -7.959  -4.600  1.00  0.00    -0.313 NA
ATOM     21  H   UNL     1      -5.439  -8.444  -5.104  1.00  0.00     0.186 HD
ENDBRANCH  19  20
ENDBRANCH  18  19
ENDBRANCH   3  18
TORSDOF 6
ENDMDL
MODEL 4
REMARK VINA RESULT:    -3.620      6.180      7.614
REMARK INTER + INTRA:          -5.044
REMARK INTER:                  -4.875
REMARK INTRA:                  -0.170
REMARK UNBOUND:                -0.260
REMARK SMILES [H]/N=C\C[C@H]1C[C@@H]1O[C@H]1CO[C@H]2C[C@@H](C3CC3)CCN2C1
REMARK SMILES IDX 7 1 6 2 5 3 8 4 9 5 14 6 13 7 18 8 12 9 19 10 20 11 11 12
REMARK SMILES IDX 21 13 10 14 15 15 16 16 17 17 4 18 3 19 2 20 1 21
REMARK H PARENT
ROOT
ATOM      1  C   UNL     1      -9.091 -12.093 -13.183  1.00  0.00     0.122 C 
ATOM      2  C   UNL     1      -8.093 -13.212 -13.081  1.00  0.00     0.039 C 
ATOM      3  C   UNL     1      -9.390 -13.294 -12.328  1.00  0.00     0.026 C 
ENDROOT
BRANCH   1   4
ATOM      4  O   UNL     1      -8.699 -10.892 -12.492  1.00  0.00    -0.371 OA
BRANCH   4   5
ATOM      5  C   UNL     1      -8.728  -9.688 -13.277  1.00  0.00     0.158 C 
ATOM      6  C   UNL     1      -6.913  -6.368  -9.688  1.00  0.00    -0.003 C 
ATOM      7  C   UNL     1      -8.223  -7.133  -9.913  1.00  0.00     0.052 C 
ATOM      8  C   UNL     1      -5.740  -7.200 -10.226  1.00  0.00     0.019 C 
ATOM      9  C   UNL     1      -8.384  -7.568 -11.376  1.00  0.00     0.189 C 
ATOM     10  C   UNL     1      -5.978  -7.629 -11.673  1.00  0.00     0.087 C 
ATOM     11  N   UNL     1      -7.234  -8.367 -11.801  1.00  0.00    -0.276 NA
ATOM     12  O   UNL     1      -9.606  -8.304 -11.452  1.00  0.00    -0.360 OA
ATOM     13  C   UNL     1      -7.435  -8.861 -13.168  1.00  0.00     0.121 C 
ATOM     14  C   UNL     1      -9.874  -8.812 -12.762  1.00  0.00     0.195 C 
BRANCH   6  15
ATOM     15  C   UNL     1      -6.705  -6.042  -8.226  1.00  0.00    -0.008 C 
ATOM     16  C   UNL     1      -6.970  -4.648  -7.709  1.00  0.00     0.004 C 
ATOM     17  C   UNL     1      -7.882  -5.774  -7.319  1.00  0.00     0.004 C 
ENDBRANCH   6  15
ENDBRANCH   4   5
ENDBRANCH   1   4
BRANCH   3  18
ATOM     18  C   UNL     1     -10.420 -14.294 -12.762  1.00  0.00     0.053 C 
BRANCH  18  19
ATOM     19  C   UNL     1     -11.745 -14.236 -12.048  1.00  0.00     0.074 C 
BRANCH  19  20
ATOM     20  N   UNL     1     -12.015 -13.521 -11.008  1.00  0.00    -0.313 NA
ATOM     21  H   UNL     1     -11.212 -13.467 -10.365  1.00  0.00     0.186 HD
ENDBRANCH  19  20
ENDBRANCH  18  19
ENDBRANCH   3  18
TORSDOF 6
ENDMDL
MODEL 5
REMARK VINA RESULT:    -3.467      7.416      8.879
REMARK INTER + INTRA:          -4.842
REMARK INTER:                  -4.571
REMARK INTRA:                  -0.272
REMARK UNBOUND:                -0.260
REMARK SMILES [H]/N=C\C[C@H]1C[C@@H]1O[C@H]1CO[C@H]2C[C@@H](C3CC3)CCN2C1
REMARK SMILES IDX 7 1 6 2 5 3 8 4 9 5 14 6 13 7 18 8 12 9 19 10 20 11 11 12
REMARK SMILES IDX 21 13 10 14 15 15 16 16 17 17 4 18 3 19 2 20 1 21
REMARK H PARENT
ROOT
ATOM      1  C   UNL     1     -10.661 -11.488 -14.448  1.00  0.00     0.122 C 
ATOM      2  C   UNL     1     -11.779 -12.308 -13.868  1.00  0.00     0.039 C 
ATOM      3  C   UNL     1     -11.065 -11.302 -13.011  1.00  0.00     0.026 C 
ENDROOT
BRANCH   1   4
ATOM      4  O   UNL     1      -9.450 -12.231 -14.687  1.00  0.00    -0.371 OA
BRANCH   4   5
ATOM      5  C   UNL     1      -8.526 -11.630 -15.608  1.00  0.00     0.158 C 
ATOM      6  C   UNL     1      -5.910  -8.624 -12.243  1.00  0.00    -0.003 C 
ATOM      7  C   UNL     1      -7.309  -8.609 -12.871  1.00  0.00     0.052 C 
ATOM      8  C   UNL     1      -5.450 -10.078 -12.065  1.00  0.00     0.019 C 
ATOM      9  C   UNL     1      -7.365  -9.445 -14.157  1.00  0.00     0.189 C 
ATOM     10  C   UNL     1      -5.563 -10.863 -13.371  1.00  0.00     0.087 C 
ATOM     11  N   UNL     1      -6.928 -10.816 -13.894  1.00  0.00    -0.276 NA
ATOM     12  O   UNL     1      -8.716  -9.392 -14.620  1.00  0.00    -0.360 OA
ATOM     13  C   UNL     1      -7.073 -11.637 -15.101  1.00  0.00     0.121 C 
ATOM     14  C   UNL     1      -8.933 -10.166 -15.804  1.00  0.00     0.195 C 
BRANCH   6  15
ATOM     15  C   UNL     1      -5.889  -7.894 -10.919  1.00  0.00    -0.008 C 
ATOM     16  C   UNL     1      -5.477  -6.443 -10.853  1.00  0.00     0.004 C 
ATOM     17  C   UNL     1      -6.908  -6.825 -10.609  1.00  0.00     0.004 C 
ENDBRANCH   6  15
ENDBRANCH   4   5
ENDBRANCH   1   4
BRANCH   3  18
ATOM     18  C   UNL     1     -11.793 -10.063 -12.585  1.00  0.00     0.053 C 
BRANCH  18  19
ATOM     19  C   UNL     1     -11.027  -9.107 -11.708  1.00  0.00     0.074 C 
BRANCH  19  20
ATOM     20  N   UNL     1     -10.952  -7.828 -11.867  1.00  0.00    -0.313 NA
ATOM     21  H   UNL     1     -11.442  -7.522 -12.719  1.00  0.00     0.186 HD
ENDBRANCH  19  20
ENDBRANCH  18  19
ENDBRANCH   3  18
TORSDOF 6
ENDMDL
MODEL 6
REMARK VINA RESULT:    -3.415      4.724      7.283
REMARK INTER + INTRA:          -4.774
REMARK INTER:                  -4.621
REMARK INTRA:                  -0.152
REMARK UNBOUND:                -0.260
REMARK SMILES [H]/N=C\C[C@H]1C[C@@H]1O[C@H]1CO[C@H]2C[C@@H](C3CC3)CCN2C1
REMARK SMILES IDX 7 1 6 2 5 3 8 4 9 5 14 6 13 7 18 8 12 9 19 10 20 11 11 12
REMARK SMILES IDX 21 13 10 14 15 15 16 16 17 17 4 18 3 19 2 20 1 21
REMARK H PARENT
ROOT
ATOM      1  C   UNL     1     -14.724  -9.108 -10.463  1.00  0.00     0.122 C 
ATOM      2  C   UNL     1     -15.562  -8.228 -11.348  1.00  0.00     0.039 C 
ATOM      3  C   UNL     1     -14.269  -8.794 -11.862  1.00  0.00     0.026 C 
ENDROOT
BRANCH   1   4
ATOM      4  O   UNL     1     -14.059  -8.404  -9.396  1.00  0.00    -0.371 OA
BRANCH   4   5
ATOM      5  C   UNL     1     -13.848  -9.160  -8.193  1.00  0.00     0.158 C 
ATOM      6  C   UNL     1      -9.624  -6.660  -6.429  1.00  0.00    -0.003 C 
ATOM      7  C   UNL     1      -9.925  -7.635  -7.574  1.00  0.00     0.052 C 
ATOM      8  C   UNL     1     -10.858  -5.783  -6.171  1.00  0.00     0.019 C 
ATOM      9  C   UNL     1     -11.215  -8.428  -7.323  1.00  0.00     0.189 C 
ATOM     10  C   UNL     1     -12.112  -6.632  -5.963  1.00  0.00     0.087 C 
ATOM     11  N   UNL     1     -12.339  -7.518  -7.104  1.00  0.00    -0.276 NA
ATOM     12  O   UNL     1     -11.412  -9.260  -8.467  1.00  0.00    -0.360 OA
ATOM     13  C   UNL     1     -13.587  -8.276  -6.960  1.00  0.00     0.121 C 
ATOM     14  C   UNL     1     -12.610 -10.039  -8.394  1.00  0.00     0.195 C 
BRANCH   6  15
ATOM     15  C   UNL     1      -8.417  -5.801  -6.734  1.00  0.00    -0.008 C 
ATOM     16  C   UNL     1      -7.023  -6.328  -6.486  1.00  0.00     0.004 C 
ATOM     17  C   UNL     1      -7.508  -6.129  -7.893  1.00  0.00     0.004 C 
ENDBRANCH   6  15
ENDBRANCH   4   5
ENDBRANCH   1   4
BRANCH   3  18
ATOM     18  C   UNL     1     -14.311  -9.851 -12.925  1.00  0.00     0.053 C 
BRANCH  18  19
ATOM     19  C   UNL     1     -14.821  -9.419 -14.275  1.00  0.00     0.074 C 
BRANCH  19  20
ATOM     20  N   UNL     1     -14.282  -8.529 -15.039  1.00  0.00    -0.313 NA
ATOM     21  H   UNL     1     -14.265  -8.833 -16.023  1.00  0.00     0.186 HD
ENDBRANCH  19  20
ENDBRANCH  18  19
ENDBRANCH   3  18
TORSDOF 6
ENDMDL
MODEL 7
REMARK VINA RESULT:    -3.374      8.564      9.906
REMARK INTER + INTRA:          -4.719
REMARK INTER:                  -4.428
REMARK INTRA:                  -0.292
REMARK UNBOUND:                -0.260
REMARK SMILES [H]/N=C\C[C@H]1C[C@@H]1O[C@H]1CO[C@H]2C[C@@H](C3CC3)CCN2C1
REMARK SMILES IDX 7 1 6 2 5 3 8 4 9 5 14 6 13 7 18 8 12 9 19 10 20 11 11 12
REMARK SMILES IDX 21 13 10 14 15 15 16 16 17 17 4 18 3 19 2 20 1 21
REMARK H PARENT
ROOT
ATOM      1  C   UNL     1     -10.405 -12.959 -15.206  1.00  0.00     0.122 C 
ATOM      2  C   UNL     1     -10.912 -14.325 -14.836  1.00  0.00     0.039 C 
ATOM      3  C   UNL     1     -11.443 -13.112 -14.127  1.00  0.00     0.026 C 
ENDROOT
BRANCH   1   4
ATOM      4  O   UNL     1      -9.057 -12.696 -14.771  1.00  0.00    -0.371 OA
BRANCH   4   5
ATOM      5  C   UNL     1      -8.240 -11.960 -15.696  1.00  0.00     0.158 C 
ATOM      6  C   UNL     1      -6.018  -8.659 -12.324  1.00  0.00    -0.003 C 
ATOM      7  C   UNL     1      -7.415  -8.832 -12.933  1.00  0.00     0.052 C 
ATOM      8  C   UNL     1      -5.357 -10.036 -12.173  1.00  0.00     0.019 C 
ATOM      9  C   UNL     1      -7.374  -9.652 -14.230  1.00  0.00     0.189 C 
ATOM     10  C   UNL     1      -5.379 -10.814 -13.488  1.00  0.00     0.087 C 
ATOM     11  N   UNL     1      -6.745 -10.952 -13.992  1.00  0.00    -0.276 NA
ATOM     12  O   UNL     1      -8.726  -9.784 -14.673  1.00  0.00    -0.360 OA
ATOM     13  C   UNL     1      -6.793 -11.770 -15.209  1.00  0.00     0.121 C 
ATOM     14  C   UNL     1      -8.851 -10.565 -15.865  1.00  0.00     0.195 C 
BRANCH   6  15
ATOM     15  C   UNL     1      -6.078  -7.950 -10.990  1.00  0.00    -0.008 C 
ATOM     16  C   UNL     1      -5.555  -6.539 -10.851  1.00  0.00     0.004 C 
ATOM     17  C   UNL     1      -7.031  -6.800 -10.768  1.00  0.00     0.004 C 
ENDBRANCH   6  15
ENDBRANCH   4   5
ENDBRANCH   1   4
BRANCH   3  18
ATOM     18  C   UNL     1     -12.859 -12.687 -14.376  1.00  0.00     0.053 C 
BRANCH  18  19
ATOM     19  C   UNL     1     -13.876 -13.792 -14.491  1.00  0.00     0.074 C 
BRANCH  19  20
ATOM     20  N   UNL     1     -14.437 -14.195 -15.583  1.00  0.00    -0.313 NA
ATOM     21  H   UNL     1     -13.741 -14.402 -16.313  1.00  0.00     0.186 HD
ENDBRANCH  19  20
ENDBRANCH  18  19
ENDBRANCH   3  18
TORSDOF 6
ENDMDL
MODEL 8
REMARK VINA RESULT:    -3.334      5.551      7.032
REMARK INTER + INTRA:          -4.666
REMARK INTER:                  -4.493
REMARK INTRA:                  -0.173
REMARK UNBOUND:                -0.260
REMARK SMILES [H]/N=C\C[C@H]1C[C@@H]1O[C@H]1CO[C@H]2C[C@@H](C3CC3)CCN2C1
REMARK SMILES IDX 7 1 6 2 5 3 8 4 9 5 14 6 13 7 18 8 12 9 19 10 20 11 11 12
REMARK SMILES IDX 21 13 10 14 15 15 16 16 17 17 4 18 3 19 2 20 1 21
REMARK H PARENT
ROOT
ATOM      1  C   UNL     1     -11.028 -11.204 -12.676  1.00  0.00     0.122 C 
ATOM      2  C   UNL     1     -11.305 -12.554 -12.077  1.00  0.00     0.039 C 
ATOM      3  C   UNL     1     -11.577 -11.311 -11.279  1.00  0.00     0.026 C 
ENDROOT
BRANCH   1   4
ATOM      4  O   UNL     1      -9.627 -10.891 -12.796  1.00  0.00    -0.371 OA
BRANCH   4   5
ATOM      5  C   UNL     1      -9.307  -9.814 -13.691  1.00  0.00     0.158 C 
ATOM      6  C   UNL     1      -6.781  -6.727 -10.331  1.00  0.00    -0.003 C 
ATOM      7  C   UNL     1      -8.240  -7.139 -10.560  1.00  0.00     0.052 C 
ATOM      8  C   UNL     1      -5.858  -7.891 -10.718  1.00  0.00     0.019 C 
ATOM      9  C   UNL     1      -8.466  -7.669 -11.982  1.00  0.00     0.189 C 
ATOM     10  C   UNL     1      -6.157  -8.394 -12.130  1.00  0.00     0.087 C 
ATOM     11  N   UNL     1      -7.561  -8.784 -12.261  1.00  0.00    -0.276 NA
ATOM     12  O   UNL     1      -9.838  -8.060 -12.059  1.00  0.00    -0.360 OA
ATOM     13  C   UNL     1      -7.843  -9.351 -13.584  1.00  0.00     0.121 C 
ATOM     14  C   UNL     1     -10.192  -8.616 -13.330  1.00  0.00     0.195 C 
BRANCH   6  15
ATOM     15  C   UNL     1      -6.540  -6.313  -8.897  1.00  0.00    -0.008 C 
ATOM     16  C   UNL     1      -6.980  -4.953  -8.410  1.00  0.00     0.004 C 
ATOM     17  C   UNL     1      -7.688  -6.185  -7.925  1.00  0.00     0.004 C 
ENDBRANCH   6  15
ENDBRANCH   4   5
ENDBRANCH   1   4
BRANCH   3  18
ATOM     18  C   UNL     1     -12.998 -10.927 -10.994  1.00  0.00     0.053 C 
BRANCH  18  19
ATOM     19  C   UNL     1     -13.209  -9.572 -10.370  1.00  0.00     0.074 C 
BRANCH  19  20
ATOM     20  N   UNL     1     -12.931  -8.436 -10.916  1.00  0.00    -0.313 NA
ATOM     21  H   UNL     1     -12.463  -7.801 -10.254  1.00  0.00     0.186 HD
ENDBRANCH  19  20
ENDBRANCH  18  19
ENDBRANCH   3  18
TORSDOF 6
ENDMDL
MODEL 9
REMARK VINA RESULT:    -3.206      7.894     11.167
REMARK INTER + INTRA:          -4.497
REMARK INTER:                  -3.810
REMARK INTRA:                  -0.687
REMARK UNBOUND:                -0.260
REMARK SMILES [H]/N=C\C[C@H]1C[C@@H]1O[C@H]1CO[C@H]2C[C@@H](C3CC3)CCN2C1
REMARK SMILES IDX 7 1 6 2 5 3 8 4 9 5 14 6 13 7 18 8 12 9 19 10 20 11 11 12
REMARK SMILES IDX 21 13 10 14 15 15 16 16 17 17 4 18 3 19 2 20 1 21
REMARK H PARENT
ROOT
ATOM      1  C   UNL     1      -6.145 -10.210 -12.720  1.00  0.00     0.122 C 
ATOM      2  C   UNL     1      -5.017 -10.663 -11.836  1.00  0.00     0.039 C 
ATOM      3  C   UNL     1      -6.031 -11.657 -12.325  1.00  0.00     0.026 C 
ENDROOT
BRANCH   1   4
ATOM      4  O   UNL     1      -7.149  -9.433 -12.040  1.00  0.00    -0.371 OA
BRANCH   4   5
ATOM      5  C   UNL     1      -8.117  -8.793 -12.887  1.00  0.00     0.158 C 
ATOM      6  C   UNL     1     -12.348 -11.449 -11.388  1.00  0.00    -0.003 C 
ATOM      7  C   UNL     1     -11.096 -11.756 -12.219  1.00  0.00     0.052 C 
ATOM      8  C   UNL     1     -11.996 -10.429 -10.297  1.00  0.00     0.019 C 
ATOM      9  C   UNL     1     -10.436 -10.476 -12.749  1.00  0.00     0.189 C 
ATOM     10  C   UNL     1     -11.312  -9.195 -10.886  1.00  0.00     0.087 C 
ATOM     11  N   UNL     1     -10.119  -9.570 -11.644  1.00  0.00    -0.276 NA
ATOM     12  O   UNL     1      -9.265 -10.884 -13.460  1.00  0.00    -0.360 OA
ATOM     13  C   UNL     1      -9.402  -8.391 -12.143  1.00  0.00     0.121 C 
ATOM     14  C   UNL     1      -8.517  -9.784 -13.986  1.00  0.00     0.195 C 
BRANCH   6  15
ATOM     15  C   UNL     1     -12.928 -12.704 -10.775  1.00  0.00    -0.008 C 
ATOM     16  C   UNL     1     -14.272 -13.224 -11.228  1.00  0.00     0.004 C 
ATOM     17  C   UNL     1     -13.023 -13.982 -11.572  1.00  0.00     0.004 C 
ENDBRANCH   6  15
ENDBRANCH   4   5
ENDBRANCH   1   4
BRANCH   3  18
ATOM     18  C   UNL     1      -5.612 -12.685 -13.334  1.00  0.00     0.053 C 
BRANCH  18  19
ATOM     19  C   UNL     1      -6.716 -13.511 -13.941  1.00  0.00     0.074 C 
BRANCH  19  20
ATOM     20  N   UNL     1      -7.982 -13.340 -13.751  1.00  0.00    -0.313 NA
ATOM     21  H   UNL     1      -8.166 -12.585 -13.074  1.00  0.00     0.186 HD
ENDBRANCH  19  20
ENDBRANCH  18  19
ENDBRANCH   3  18
TORSDOF 6
ENDMDL
