MODEL 1
REMARK VINA RESULT:    -4.186      0.000      0.000
REMARK INTER + INTRA:          -5.667
REMARK INTER:                  -5.532
REMARK INTRA:                  -0.135
REMARK UNBOUND:                -0.135
REMARK SMILES [H]/N=C\C[C@H]1C[C@@H]1O[C@H]1CO[C@H]2C[C@@H](C3CC3)CCN2C1
REMARK SMILES IDX 7 1 6 2 5 3 8 4 9 5 14 6 13 7 18 8 12 9 19 10 20 11 11 12
REMARK SMILES IDX 21 13 10 14 15 15 16 16 17 17 4 18 3 19 2 20 1 21
REMARK H PARENT
ROOT
ATOM      1  C   UNL     1     -13.051   4.693  -0.995  1.00  0.00     0.122 C 
ATOM      2  C   UNL     1     -13.627   3.559  -1.795  1.00  0.00     0.039 C 
ATOM      3  C   UNL     1     -12.551   4.423  -2.388  1.00  0.00     0.026 C 
ENDROOT
BRANCH   1   4
ATOM      4  O   UNL     1     -13.944   5.812  -0.836  1.00  0.00    -0.371 OA
BRANCH   4   5
ATOM      5  C   UNL     1     -13.925   6.442   0.456  1.00  0.00     0.158 C 
ATOM      6  C   UNL     1     -16.440  10.841  -0.779  1.00  0.00    -0.003 C 
ATOM      7  C   UNL     1     -15.051  10.254  -1.059  1.00  0.00     0.052 C 
ATOM      8  C   UNL     1     -17.463   9.700  -0.682  1.00  0.00     0.019 C 
ATOM      9  C   UNL     1     -14.678   9.164  -0.046  1.00  0.00     0.189 C 
ATOM     10  C   UNL     1     -17.016   8.633   0.316  1.00  0.00     0.087 C 
ATOM     11  N   UNL     1     -15.694   8.111  -0.031  1.00  0.00    -0.276 NA
ATOM     12  O   UNL     1     -13.396   8.666  -0.435  1.00  0.00    -0.360 OA
ATOM     13  C   UNL     1     -15.288   7.024   0.867  1.00  0.00     0.121 C 
ATOM     14  C   UNL     1     -12.929   7.605   0.404  1.00  0.00     0.195 C 
BRANCH   6  15
ATOM     15  C   UNL     1     -16.849  11.832  -1.845  1.00  0.00    -0.008 C 
ATOM     16  C   UNL     1     -17.785  12.970  -1.511  1.00  0.00     0.004 C 
ATOM     17  C   UNL     1     -16.343  13.254  -1.815  1.00  0.00     0.004 C 
ENDBRANCH   6  15
ENDBRANCH   4   5
ENDBRANCH   1   4
BRANCH   3  18
ATOM     18  C   UNL     1     -11.186   3.840  -2.601  1.00  0.00     0.053 C 
BRANCH  18  19
ATOM     19  C   UNL     1     -10.411   4.374  -3.777  1.00  0.00     0.074 C 
BRANCH  19  20
ATOM     20  N   UNL     1     -10.911   4.742  -4.910  1.00  0.00    -0.313 NA
ATOM     21  H   UNL     1     -10.415   5.558  -5.296  1.00  0.00     0.186 HD
ENDBRANCH  19  20
ENDBRANCH  18  19
ENDBRANCH   3  18
TORSDOF 6
ENDMDL
MODEL 2
REMARK VINA RESULT:    -4.007      2.796      8.770
REMARK INTER + INTRA:          -5.431
REMARK INTER:                  -5.197
REMARK INTRA:                  -0.234
REMARK UNBOUND:                -0.135
REMARK SMILES [H]/N=C\C[C@H]1C[C@@H]1O[C@H]1CO[C@H]2C[C@@H](C3CC3)CCN2C1
REMARK SMILES IDX 7 1 6 2 5 3 8 4 9 5 14 6 13 7 18 8 12 9 19 10 20 11 11 12
REMARK SMILES IDX 21 13 10 14 15 15 16 16 17 17 4 18 3 19 2 20 1 21
REMARK H PARENT
ROOT
ATOM      1  C   UNL     1     -13.766   6.669  -0.509  1.00  0.00     0.122 C 
ATOM      2  C   UNL     1     -14.754   6.952   0.587  1.00  0.00     0.039 C 
ATOM      3  C   UNL     1     -13.687   7.958   0.262  1.00  0.00     0.026 C 
ENDROOT
BRANCH   1   4
ATOM      4  O   UNL     1     -12.795   5.658  -0.177  1.00  0.00    -0.371 OA
BRANCH   4   5
ATOM      5  C   UNL     1     -13.282   4.307  -0.178  1.00  0.00     0.158 C 
ATOM      6  C   UNL     1      -8.899   1.896  -1.655  1.00  0.00    -0.003 C 
ATOM      7  C   UNL     1      -9.941   2.794  -2.334  1.00  0.00     0.052 C 
ATOM      8  C   UNL     1      -8.765   2.300  -0.180  1.00  0.00     0.019 C 
ATOM      9  C   UNL     1     -11.269   2.806  -1.566  1.00  0.00     0.189 C 
ATOM     10  C   UNL     1     -10.125   2.326   0.517  1.00  0.00     0.087 C 
ATOM     11  N   UNL     1     -11.053   3.217  -0.178  1.00  0.00    -0.276 NA
ATOM     12  O   UNL     1     -12.136   3.704  -2.262  1.00  0.00    -0.360 OA
ATOM     13  C   UNL     1     -12.335   3.320   0.528  1.00  0.00     0.121 C 
ATOM     14  C   UNL     1     -13.413   3.849  -1.635  1.00  0.00     0.195 C 
BRANCH   6  15
ATOM     15  C   UNL     1      -7.559   1.978  -2.351  1.00  0.00    -0.008 C 
ATOM     16  C   UNL     1      -6.867   0.721  -2.826  1.00  0.00     0.004 C 
ATOM     17  C   UNL     1      -7.435   1.685  -3.827  1.00  0.00     0.004 C 
ENDBRANCH   6  15
ENDBRANCH   4   5
ENDBRANCH   1   4
BRANCH   3  18
ATOM     18  C   UNL     1     -14.081   9.252  -0.386  1.00  0.00     0.053 C 
BRANCH  18  19
ATOM     19  C   UNL     1     -15.224   9.996   0.253  1.00  0.00     0.074 C 
BRANCH  19  20
ATOM     20  N   UNL     1     -15.120  11.025   1.026  1.00  0.00    -0.313 NA
ATOM     21  H   UNL     1     -15.811  10.998   1.789  1.00  0.00     0.186 HD
ENDBRANCH  19  20
ENDBRANCH  18  19
ENDBRANCH   3  18
TORSDOF 6
ENDMDL
MODEL 3
REMARK VINA RESULT:    -3.990      5.386      8.597
REMARK INTER + INTRA:          -5.409
REMARK INTER:                  -5.176
REMARK INTRA:                  -0.233
REMARK UNBOUND:                -0.135
REMARK SMILES [H]/N=C\C[C@H]1C[C@@H]1O[C@H]1CO[C@H]2C[C@@H](C3CC3)CCN2C1
REMARK SMILES IDX 7 1 6 2 5 3 8 4 9 5 14 6 13 7 18 8 12 9 19 10 20 11 11 12
REMARK SMILES IDX 21 13 10 14 15 15 16 16 17 17 4 18 3 19 2 20 1 21
REMARK H PARENT
ROOT
ATOM      1  C   UNL     1     -15.166   2.197  -1.953  1.00  0.00     0.122 C 
ATOM      2  C   UNL     1     -16.187   2.495  -3.016  1.00  0.00     0.039 C 
ATOM      3  C   UNL     1     -15.843   1.071  -2.685  1.00  0.00     0.026 C 
ENDROOT
BRANCH   1   4
ATOM      4  O   UNL     1     -13.812   2.497  -2.340  1.00  0.00    -0.371 OA
BRANCH   4   5
ATOM      5  C   UNL     1     -13.455   3.889  -2.322  1.00  0.00     0.158 C 
ATOM      6  C   UNL     1      -8.461   3.399  -0.900  1.00  0.00    -0.003 C 
ATOM      7  C   UNL     1      -9.820   3.232  -0.210  1.00  0.00     0.052 C 
ATOM      8  C   UNL     1      -8.591   3.012  -2.380  1.00  0.00     0.019 C 
ATOM      9  C   UNL     1     -10.934   3.979  -0.957  1.00  0.00     0.189 C 
ATOM     10  C   UNL     1      -9.737   3.764  -3.055  1.00  0.00     0.087 C 
ATOM     11  N   UNL     1     -10.999   3.538  -2.350  1.00  0.00    -0.276 NA
ATOM     12  O   UNL     1     -12.148   3.713  -0.253  1.00  0.00    -0.360 OA
ATOM     13  C   UNL     1     -12.124   4.183  -3.036  1.00  0.00     0.121 C 
ATOM     14  C   UNL     1     -13.293   4.320  -0.860  1.00  0.00     0.195 C 
BRANCH   6  15
ATOM     15  C   UNL     1      -7.391   2.570  -0.226  1.00  0.00    -0.008 C 
ATOM     16  C   UNL     1      -6.075   3.196   0.169  1.00  0.00     0.004 C 
ATOM     17  C   UNL     1      -7.052   2.779   1.230  1.00  0.00     0.004 C 
ENDBRANCH   6  15
ENDBRANCH   4   5
ENDBRANCH   1   4
BRANCH   3  18
ATOM     18  C   UNL     1     -16.862   0.220  -1.988  1.00  0.00     0.053 C 
BRANCH  18  19
ATOM     19  C   UNL     1     -18.258   0.255  -2.553  1.00  0.00     0.074 C 
BRANCH  19  20
ATOM     20  N   UNL     1     -18.707  -0.489  -3.508  1.00  0.00    -0.313 NA
ATOM     21  H   UNL     1     -18.012  -1.189  -3.803  1.00  0.00     0.186 HD
ENDBRANCH  19  20
ENDBRANCH  18  19
ENDBRANCH   3  18
TORSDOF 6
ENDMDL
MODEL 4
REMARK VINA RESULT:    -3.673      5.307      8.512
REMARK INTER + INTRA:          -4.990
REMARK INTER:                  -5.213
REMARK INTRA:                   0.223
REMARK UNBOUND:                -0.135
REMARK SMILES [H]/N=C\C[C@H]1C[C@@H]1O[C@H]1CO[C@H]2C[C@@H](C3CC3)CCN2C1
REMARK SMILES IDX 7 1 6 2 5 3 8 4 9 5 14 6 13 7 18 8 12 9 19 10 20 11 11 12
REMARK SMILES IDX 21 13 10 14 15 15 16 16 17 17 4 18 3 19 2 20 1 21
REMARK H PARENT
ROOT
ATOM      1  C   UNL     1     -14.850   2.492  -2.805  1.00  0.00     0.122 C 
ATOM      2  C   UNL     1     -15.436   1.141  -3.103  1.00  0.00     0.039 C 
ATOM      3  C   UNL     1     -16.318   2.244  -2.592  1.00  0.00     0.026 C 
ENDROOT
BRANCH   1   4
ATOM      4  O   UNL     1     -14.024   2.527  -1.626  1.00  0.00    -0.371 OA
BRANCH   4   5
ATOM      5  C   UNL     1     -13.580   3.831  -1.218  1.00  0.00     0.158 C 
ATOM      6  C   UNL     1      -8.487   3.267  -2.192  1.00  0.00    -0.003 C 
ATOM      7  C   UNL     1      -9.471   2.733  -1.143  1.00  0.00     0.052 C 
ATOM      8  C   UNL     1      -9.224   3.464  -3.524  1.00  0.00     0.019 C 
ATOM      9  C   UNL     1     -10.726   3.610  -1.040  1.00  0.00     0.189 C 
ATOM     10  C   UNL     1     -10.480   4.316  -3.347  1.00  0.00     0.087 C 
ATOM     11  N   UNL     1     -11.373   3.730  -2.347  1.00  0.00    -0.276 NA
ATOM     12  O   UNL     1     -11.578   2.991  -0.074  1.00  0.00    -0.360 OA
ATOM     13  C   UNL     1     -12.623   4.489  -2.227  1.00  0.00     0.121 C 
ATOM     14  C   UNL     1     -12.818   3.683   0.103  1.00  0.00     0.195 C 
BRANCH   6  15
ATOM     15  C   UNL     1      -7.308   2.338  -2.370  1.00  0.00    -0.008 C 
ATOM     16  C   UNL     1      -6.357   2.082  -1.225  1.00  0.00     0.004 C 
ATOM     17  C   UNL     1      -7.275   0.990  -1.691  1.00  0.00     0.004 C 
ENDBRANCH   6  15
ENDBRANCH   4   5
ENDBRANCH   1   4
BRANCH   3  18
ATOM     18  C   UNL     1     -17.330   2.853  -3.516  1.00  0.00     0.053 C 
BRANCH  18  19
ATOM     19  C   UNL     1     -18.251   3.880  -2.911  1.00  0.00     0.074 C 
BRANCH  19  20
ATOM     20  N   UNL     1     -17.900   4.843  -2.125  1.00  0.00    -0.313 NA
ATOM     21  H   UNL     1     -17.173   5.435  -2.551  1.00  0.00     0.186 HD
ENDBRANCH  19  20
ENDBRANCH  18  19
ENDBRANCH   3  18
TORSDOF 6
ENDMDL
MODEL 5
REMARK VINA RESULT:    -3.490      3.180      6.725
REMARK INTER + INTRA:          -4.747
REMARK INTER:                  -4.260
REMARK INTRA:                  -0.487
REMARK UNBOUND:                -0.135
REMARK SMILES [H]/N=C\C[C@H]1C[C@@H]1O[C@H]1CO[C@H]2C[C@@H](C3CC3)CCN2C1
REMARK SMILES IDX 7 1 6 2 5 3 8 4 9 5 14 6 13 7 18 8 12 9 19 10 20 11 11 12
REMARK SMILES IDX 21 13 10 14 15 15 16 16 17 17 4 18 3 19 2 20 1 21
REMARK H PARENT
ROOT
ATOM      1  C   UNL     1     -19.593   8.690  -0.373  1.00  0.00     0.122 C 
ATOM      2  C   UNL     1     -20.545   9.231  -1.402  1.00  0.00     0.039 C 
ATOM      3  C   UNL     1     -19.736   8.002  -1.703  1.00  0.00     0.026 C 
ENDROOT
BRANCH   1   4
ATOM      4  O   UNL     1     -18.412   9.493  -0.186  1.00  0.00    -0.371 OA
BRANCH   4   5
ATOM      5  C   UNL     1     -17.831   9.444   1.128  1.00  0.00     0.158 C 
ATOM      6  C   UNL     1     -13.713   6.429   0.053  1.00  0.00    -0.003 C 
ATOM      7  C   UNL     1     -15.227   6.217   0.177  1.00  0.00     0.052 C 
ATOM      8  C   UNL     1     -13.441   7.842  -0.482  1.00  0.00     0.019 C 
ATOM      9  C   UNL     1     -15.894   7.333   0.993  1.00  0.00     0.189 C 
ATOM     10  C   UNL     1     -14.160   8.902   0.352  1.00  0.00     0.087 C 
ATOM     11  N   UNL     1     -15.598   8.640   0.406  1.00  0.00    -0.276 NA
ATOM     12  O   UNL     1     -17.295   7.053   0.999  1.00  0.00    -0.360 OA
ATOM     13  C   UNL     1     -16.313   9.697   1.129  1.00  0.00     0.121 C 
ATOM     14  C   UNL     1     -18.060   8.040   1.698  1.00  0.00     0.195 C 
BRANCH   6  15
ATOM     15  C   UNL     1     -13.079   5.391  -0.845  1.00  0.00    -0.008 C 
ATOM     16  C   UNL     1     -12.694   4.037  -0.295  1.00  0.00     0.004 C 
ATOM     17  C   UNL     1     -13.842   4.154  -1.256  1.00  0.00     0.004 C 
ENDBRANCH   6  15
ENDBRANCH   4   5
ENDBRANCH   1   4
BRANCH   3  18
ATOM     18  C   UNL     1     -20.433   6.678  -1.798  1.00  0.00     0.053 C 
BRANCH  18  19
ATOM     19  C   UNL     1     -19.573   5.456  -1.605  1.00  0.00     0.074 C 
BRANCH  19  20
ATOM     20  N   UNL     1     -18.315   5.454  -1.315  1.00  0.00    -0.313 NA
ATOM     21  H   UNL     1     -18.149   5.155  -0.344  1.00  0.00     0.186 HD
ENDBRANCH  19  20
ENDBRANCH  18  19
ENDBRANCH   3  18
TORSDOF 6
ENDMDL
MODEL 6
REMARK VINA RESULT:    -3.316      4.283      4.841
REMARK INTER + INTRA:          -4.518
REMARK INTER:                  -4.336
REMARK INTRA:                  -0.182
REMARK UNBOUND:                -0.135
REMARK SMILES [H]/N=C\C[C@H]1C[C@@H]1O[C@H]1CO[C@H]2C[C@@H](C3CC3)CCN2C1
REMARK SMILES IDX 7 1 6 2 5 3 8 4 9 5 14 6 13 7 18 8 12 9 19 10 20 11 11 12
REMARK SMILES IDX 21 13 10 14 15 15 16 16 17 17 4 18 3 19 2 20 1 21
REMARK H PARENT
ROOT
ATOM      1  C   UNL     1     -18.971   4.417  -2.671  1.00  0.00     0.122 C 
ATOM      2  C   UNL     1     -18.652   4.287  -4.133  1.00  0.00     0.039 C 
ATOM      3  C   UNL     1     -17.902   3.463  -3.126  1.00  0.00     0.026 C 
ENDROOT
BRANCH   1   4
ATOM      4  O   UNL     1     -18.524   5.652  -2.080  1.00  0.00    -0.371 OA
BRANCH   4   5
ATOM      5  C   UNL     1     -19.319   6.141  -0.987  1.00  0.00     0.158 C 
ATOM      6  C   UNL     1     -17.964  11.172  -1.221  1.00  0.00    -0.003 C 
ATOM      7  C   UNL     1     -17.281   9.870  -0.786  1.00  0.00     0.052 C 
ATOM      8  C   UNL     1     -18.946  10.874  -2.363  1.00  0.00     0.019 C 
ATOM      9  C   UNL     1     -18.302   8.771  -0.462  1.00  0.00     0.189 C 
ATOM     10  C   UNL     1     -19.912   9.749  -1.990  1.00  0.00     0.087 C 
ATOM     11  N   UNL     1     -19.184   8.540  -1.607  1.00  0.00    -0.276 NA
ATOM     12  O   UNL     1     -17.552   7.605  -0.119  1.00  0.00    -0.360 OA
ATOM     13  C   UNL     1     -20.096   7.425  -1.329  1.00  0.00     0.121 C 
ATOM     14  C   UNL     1     -18.378   6.474   0.175  1.00  0.00     0.195 C 
BRANCH   6  15
ATOM     15  C   UNL     1     -16.954  12.213  -1.647  1.00  0.00    -0.008 C 
ATOM     16  C   UNL     1     -16.545  13.315  -0.698  1.00  0.00     0.004 C 
ATOM     17  C   UNL     1     -15.566  12.233  -1.054  1.00  0.00     0.004 C 
ENDBRANCH   6  15
ENDBRANCH   4   5
ENDBRANCH   1   4
BRANCH   3  18
ATOM     18  C   UNL     1     -18.139   1.983  -3.077  1.00  0.00     0.053 C 
BRANCH  18  19
ATOM     19  C   UNL     1     -16.984   1.138  -2.607  1.00  0.00     0.074 C 
BRANCH  19  20
ATOM     20  N   UNL     1     -17.063   0.120  -1.816  1.00  0.00    -0.313 NA
ATOM     21  H   UNL     1     -16.170  -0.056  -1.334  1.00  0.00     0.186 HD
ENDBRANCH  19  20
ENDBRANCH  18  19
ENDBRANCH   3  18
TORSDOF 6
ENDMDL
MODEL 7
REMARK VINA RESULT:    -3.184      4.626      5.236
REMARK INTER + INTRA:          -4.344
REMARK INTER:                  -4.406
REMARK INTRA:                   0.062
REMARK UNBOUND:                -0.135
REMARK SMILES [H]/N=C\C[C@H]1C[C@@H]1O[C@H]1CO[C@H]2C[C@@H](C3CC3)CCN2C1
REMARK SMILES IDX 7 1 6 2 5 3 8 4 9 5 14 6 13 7 18 8 12 9 19 10 20 11 11 12
REMARK SMILES IDX 21 13 10 14 15 15 16 16 17 17 4 18 3 19 2 20 1 21
REMARK H PARENT
ROOT
ATOM      1  C   UNL     1     -18.809   4.537  -2.719  1.00  0.00     0.122 C 
ATOM      2  C   UNL     1     -20.249   4.400  -3.124  1.00  0.00     0.039 C 
ATOM      3  C   UNL     1     -19.198   4.649  -4.168  1.00  0.00     0.026 C 
ENDROOT
BRANCH   1   4
ATOM      4  O   UNL     1     -18.506   5.768  -2.036  1.00  0.00    -0.371 OA
BRANCH   4   5
ATOM      5  C   UNL     1     -19.565   6.305  -1.228  1.00  0.00     0.158 C 
ATOM      6  C   UNL     1     -17.600  11.070  -0.426  1.00  0.00    -0.003 C 
ATOM      7  C   UNL     1     -17.279   9.653   0.064  1.00  0.00     0.052 C 
ATOM      8  C   UNL     1     -18.149  10.999  -1.858  1.00  0.00     0.019 C 
ATOM      9  C   UNL     1     -18.477   8.708  -0.100  1.00  0.00     0.189 C 
ATOM     10  C   UNL     1     -19.316  10.017  -1.960  1.00  0.00     0.087 C 
ATOM     11  N   UNL     1     -18.925   8.688  -1.492  1.00  0.00    -0.276 NA
ATOM     12  O   UNL     1     -18.046   7.420   0.344  1.00  0.00    -0.360 OA
ATOM     13  C   UNL     1     -20.008   7.713  -1.665  1.00  0.00     0.121 C 
ATOM     14  C   UNL     1     -19.056   6.415   0.213  1.00  0.00     0.195 C 
BRANCH   6  15
ATOM     15  C   UNL     1     -16.383  11.966  -0.368  1.00  0.00    -0.008 C 
ATOM     16  C   UNL     1     -16.265  13.026   0.701  1.00  0.00     0.004 C 
ATOM     17  C   UNL     1     -15.369  11.822   0.741  1.00  0.00     0.004 C 
ENDBRANCH   6  15
ENDBRANCH   4   5
ENDBRANCH   1   4
BRANCH   3  18
ATOM     18  C   UNL     1     -18.855   3.551  -5.129  1.00  0.00     0.053 C 
BRANCH  18  19
ATOM     19  C   UNL     1     -18.868   3.917  -6.591  1.00  0.00     0.074 C 
BRANCH  19  20
ATOM     20  N   UNL     1     -17.840   4.253  -7.297  1.00  0.00    -0.313 NA
ATOM     21  H   UNL     1     -18.085   4.949  -8.015  1.00  0.00     0.186 HD
ENDBRANCH  19  20
ENDBRANCH  18  19
ENDBRANCH   3  18
TORSDOF 6
ENDMDL
MODEL 8
REMARK VINA RESULT:    -2.826      2.466      7.249
REMARK INTER + INTRA:          -3.871
REMARK INTER:                  -4.094
REMARK INTRA:                   0.224
REMARK UNBOUND:                -0.135
REMARK SMILES [H]/N=C\C[C@H]1C[C@@H]1O[C@H]1CO[C@H]2C[C@@H](C3CC3)CCN2C1
REMARK SMILES IDX 7 1 6 2 5 3 8 4 9 5 14 6 13 7 18 8 12 9 19 10 20 11 11 12
REMARK SMILES IDX 21 13 10 14 15 15 16 16 17 17 4 18 3 19 2 20 1 21
REMARK H PARENT
ROOT
ATOM      1  C   UNL     1     -16.903  10.342  -1.312  1.00  0.00     0.122 C 
ATOM      2  C   UNL     1     -17.541  11.266  -2.310  1.00  0.00     0.039 C 
ATOM      3  C   UNL     1     -17.306  11.732  -0.902  1.00  0.00     0.026 C 
ENDROOT
BRANCH   1   4
ATOM      4  O   UNL     1     -17.758   9.268  -0.876  1.00  0.00    -0.371 OA
BRANCH   4   5
ATOM      5  C   UNL     1     -17.581   8.850   0.488  1.00  0.00     0.158 C 
ATOM      6  C   UNL     1     -13.532   5.634  -0.196  1.00  0.00    -0.003 C 
ATOM      7  C   UNL     1     -15.029   5.602  -0.530  1.00  0.00     0.052 C 
ATOM      8  C   UNL     1     -13.028   7.082  -0.267  1.00  0.00     0.019 C 
ATOM      9  C   UNL     1     -15.827   6.586   0.337  1.00  0.00     0.189 C 
ATOM     10  C   UNL     1     -13.884   8.015   0.589  1.00  0.00     0.087 C 
ATOM     11  N   UNL     1     -15.292   7.940   0.197  1.00  0.00    -0.276 NA
ATOM     12  O   UNL     1     -17.187   6.499  -0.094  1.00  0.00    -0.360 OA
ATOM     13  C   UNL     1     -16.114   8.893   0.950  1.00  0.00     0.121 C 
ATOM     14  C   UNL     1     -18.054   7.397   0.605  1.00  0.00     0.195 C 
BRANCH   6  15
ATOM     15  C   UNL     1     -12.737   4.749  -1.128  1.00  0.00    -0.008 C 
ATOM     16  C   UNL     1     -12.149   3.449  -0.632  1.00  0.00     0.004 C 
ATOM     17  C   UNL     1     -13.293   3.428  -1.603  1.00  0.00     0.004 C 
ENDBRANCH   6  15
ENDBRANCH   4   5
ENDBRANCH   1   4
BRANCH   3  18
ATOM     18  C   UNL     1     -16.261  12.778  -0.647  1.00  0.00     0.053 C 
BRANCH  18  19
ATOM     19  C   UNL     1     -15.955  13.075   0.798  1.00  0.00     0.074 C 
BRANCH  19  20
ATOM     20  N   UNL     1     -15.264  12.329   1.594  1.00  0.00    -0.313 NA
ATOM     21  H   UNL     1     -15.831  11.562   1.983  1.00  0.00     0.186 HD
ENDBRANCH  19  20
ENDBRANCH  18  19
ENDBRANCH   3  18
TORSDOF 6
ENDMDL
MODEL 9
REMARK VINA RESULT:    -2.774      4.191      6.915
REMARK INTER + INTRA:          -3.801
REMARK INTER:                  -3.914
REMARK INTRA:                   0.113
REMARK UNBOUND:                -0.135
REMARK SMILES [H]/N=C\C[C@H]1C[C@@H]1O[C@H]1CO[C@H]2C[C@@H](C3CC3)CCN2C1
REMARK SMILES IDX 7 1 6 2 5 3 8 4 9 5 14 6 13 7 18 8 12 9 19 10 20 11 11 12
REMARK SMILES IDX 21 13 10 14 15 15 16 16 17 17 4 18 3 19 2 20 1 21
REMARK H PARENT
ROOT
ATOM      1  C   UNL     1     -18.588  11.288  -1.632  1.00  0.00     0.122 C 
ATOM      2  C   UNL     1     -19.807  11.444  -2.498  1.00  0.00     0.039 C 
ATOM      3  C   UNL     1     -19.340  10.072  -2.101  1.00  0.00     0.026 C 
ENDROOT
BRANCH   1   4
ATOM      4  O   UNL     1     -17.349  11.579  -2.305  1.00  0.00    -0.371 OA
BRANCH   4   5
ATOM      5  C   UNL     1     -16.258  11.967  -1.454  1.00  0.00     0.158 C 
ATOM      6  C   UNL     1     -16.561   8.093   2.025  1.00  0.00    -0.003 C 
ATOM      7  C   UNL     1     -17.392   9.339   1.693  1.00  0.00     0.052 C 
ATOM      8  C   UNL     1     -15.925   7.550   0.738  1.00  0.00     0.019 C 
ATOM      9  C   UNL     1     -16.575  10.377   0.912  1.00  0.00     0.189 C 
ATOM     10  C   UNL     1     -15.156   8.640  -0.008  1.00  0.00     0.087 C 
ATOM     11  N   UNL     1     -16.022   9.781  -0.304  1.00  0.00    -0.276 NA
ATOM     12  O   UNL     1     -17.461  11.461   0.623  1.00  0.00    -0.360 OA
ATOM     13  C   UNL     1     -15.322  10.799  -1.096  1.00  0.00     0.121 C 
ATOM     14  C   UNL     1     -16.844  12.500  -0.142  1.00  0.00     0.195 C 
BRANCH   6  15
ATOM     15  C   UNL     1     -17.401   7.028   2.693  1.00  0.00    -0.008 C 
ATOM     16  C   UNL     1     -17.519   6.980   4.198  1.00  0.00     0.004 C 
ATOM     17  C   UNL     1     -18.704   7.381   3.369  1.00  0.00     0.004 C 
ENDBRANCH   6  15
ENDBRANCH   4   5
ENDBRANCH   1   4
BRANCH   3  18
ATOM     18  C   UNL     1     -20.166   9.275  -1.136  1.00  0.00     0.053 C 
BRANCH  18  19
ATOM     19  C   UNL     1     -19.876   7.798  -1.074  1.00  0.00     0.074 C 
BRANCH  19  20
ATOM     20  N   UNL     1     -19.089   7.147  -1.864  1.00  0.00    -0.313 NA
ATOM     21  H   UNL     1     -19.520   6.271  -2.192  1.00  0.00     0.186 HD
ENDBRANCH  19  20
ENDBRANCH  18  19
ENDBRANCH   3  18
TORSDOF 6
ENDMDL
