MODEL 1
REMARK VINA RESULT:    -4.313      0.000      0.000
REMARK INTER + INTRA:          -5.859
REMARK INTER:                  -5.700
REMARK INTRA:                  -0.160
REMARK UNBOUND:                -0.160
REMARK SMILES [H]/N=C\C[C@H]1C[C@@H]1O[C@H]1CO[C@H]2C[C@@H](C3CC3)CCN2C1
REMARK SMILES IDX 7 1 6 2 5 3 8 4 9 5 14 6 13 7 18 8 12 9 19 10 20 11 11 12
REMARK SMILES IDX 21 13 10 14 15 15 16 16 17 17 4 18 3 19 2 20 1 21
REMARK H PARENT
ROOT
ATOM      1  C   UNL     1      17.427   1.138 -13.720  1.00  0.00     0.122 C 
ATOM      2  C   UNL     1      16.990   2.044 -14.836  1.00  0.00     0.039 C 
ATOM      3  C   UNL     1      16.456   2.255 -13.448  1.00  0.00     0.026 C 
ENDROOT
BRANCH   1   4
ATOM      4  O   UNL     1      16.876  -0.191 -13.793  1.00  0.00    -0.371 OA
BRANCH   4   5
ATOM      5  C   UNL     1      17.374  -1.122 -12.819  1.00  0.00     0.158 C 
ATOM      6  C   UNL     1      12.934  -1.981 -10.218  1.00  0.00    -0.003 C 
ATOM      7  C   UNL     1      13.929  -0.820 -10.340  1.00  0.00     0.052 C 
ATOM      8  C   UNL     1      12.880  -2.744 -11.549  1.00  0.00     0.019 C 
ATOM      9  C   UNL     1      15.299  -1.293 -10.845  1.00  0.00     0.189 C 
ATOM     10  C   UNL     1      14.277  -3.157 -12.013  1.00  0.00     0.087 C 
ATOM     11  N   UNL     1      15.157  -1.993 -12.122  1.00  0.00    -0.276 NA
ATOM     12  O   UNL     1      16.117  -0.127 -10.961  1.00  0.00    -0.360 OA
ATOM     13  C   UNL     1      16.476  -2.361 -12.650  1.00  0.00     0.121 C 
ATOM     14  C   UNL     1      17.427  -0.410 -11.463  1.00  0.00     0.195 C 
BRANCH   6  15
ATOM     15  C   UNL     1      11.557  -1.493  -9.830  1.00  0.00    -0.008 C 
ATOM     16  C   UNL     1      10.879  -2.027  -8.590  1.00  0.00     0.004 C 
ATOM     17  C   UNL     1      11.362  -0.606  -8.624  1.00  0.00     0.004 C 
ENDBRANCH   6  15
ENDBRANCH   4   5
ENDBRANCH   1   4
BRANCH   3  18
ATOM     18  C   UNL     1      16.893   3.465 -12.677  1.00  0.00     0.053 C 
BRANCH  18  19
ATOM     19  C   UNL     1      15.982   3.910 -11.563  1.00  0.00     0.074 C 
BRANCH  19  20
ATOM     20  N   UNL     1      15.127   4.876 -11.624  1.00  0.00    -0.313 NA
ATOM     21  H   UNL     1      14.760   4.999 -12.578  1.00  0.00     0.186 HD
ENDBRANCH  19  20
ENDBRANCH  18  19
ENDBRANCH   3  18
TORSDOF 6
ENDMDL
MODEL 2
REMARK VINA RESULT:    -4.093      8.277     10.743
REMARK INTER + INTRA:          -5.569
REMARK INTER:                  -5.355
REMARK INTRA:                  -0.214
REMARK UNBOUND:                -0.160
REMARK SMILES [H]/N=C\C[C@H]1C[C@@H]1O[C@H]1CO[C@H]2C[C@@H](C3CC3)CCN2C1
REMARK SMILES IDX 7 1 6 2 5 3 8 4 9 5 14 6 13 7 18 8 12 9 19 10 20 11 11 12
REMARK SMILES IDX 21 13 10 14 15 15 16 16 17 17 4 18 3 19 2 20 1 21
REMARK H PARENT
ROOT
ATOM      1  C   UNL     1       9.698  -6.191  -8.451  1.00  0.00     0.122 C 
ATOM      2  C   UNL     1      10.976  -6.982  -8.444  1.00  0.00     0.039 C 
ATOM      3  C   UNL     1       9.654  -7.693  -8.395  1.00  0.00     0.026 C 
ENDROOT
BRANCH   1   4
ATOM      4  O   UNL     1       9.434  -5.492  -7.219  1.00  0.00    -0.371 OA
BRANCH   4   5
ATOM      5  C   UNL     1      10.202  -4.296  -7.009  1.00  0.00     0.158 C 
ATOM      6  C   UNL     1       6.388  -1.222  -5.216  1.00  0.00    -0.003 C 
ATOM      7  C   UNL     1       6.771  -1.818  -6.577  1.00  0.00     0.052 C 
ATOM      8  C   UNL     1       6.800  -2.195  -4.102  1.00  0.00     0.019 C 
ATOM      9  C   UNL     1       8.248  -2.232  -6.622  1.00  0.00     0.189 C 
ATOM     10  C   UNL     1       8.271  -2.594  -4.225  1.00  0.00     0.087 C 
ATOM     11  N   UNL     1       8.549  -3.170  -5.541  1.00  0.00    -0.276 NA
ATOM     12  O   UNL     1       8.471  -2.809  -7.910  1.00  0.00    -0.360 OA
ATOM     13  C   UNL     1       9.936  -3.637  -5.643  1.00  0.00     0.121 C 
ATOM     14  C   UNL     1       9.810  -3.282  -8.088  1.00  0.00     0.195 C 
BRANCH   6  15
ATOM     15  C   UNL     1       4.908  -0.922  -5.138  1.00  0.00    -0.008 C 
ATOM     16  C   UNL     1       4.421   0.356  -4.498  1.00  0.00     0.004 C 
ATOM     17  C   UNL     1       4.295   0.168  -5.982  1.00  0.00     0.004 C 
ENDBRANCH   6  15
ENDBRANCH   4   5
ENDBRANCH   1   4
BRANCH   3  18
ATOM     18  C   UNL     1       9.208  -8.481  -9.591  1.00  0.00     0.053 C 
BRANCH  18  19
ATOM     19  C   UNL     1      10.164  -9.534 -10.089  1.00  0.00     0.074 C 
BRANCH  19  20
ATOM     20  N   UNL     1      10.233 -10.754  -9.669  1.00  0.00    -0.313 NA
ATOM     21  H   UNL     1      11.183 -10.992  -9.349  1.00  0.00     0.186 HD
ENDBRANCH  19  20
ENDBRANCH  18  19
ENDBRANCH   3  18
TORSDOF 6
ENDMDL
MODEL 3
REMARK VINA RESULT:    -4.064      5.453      8.386
REMARK INTER + INTRA:          -5.531
REMARK INTER:                  -5.312
REMARK INTRA:                  -0.218
REMARK UNBOUND:                -0.160
REMARK SMILES [H]/N=C\C[C@H]1C[C@@H]1O[C@H]1CO[C@H]2C[C@@H](C3CC3)CCN2C1
REMARK SMILES IDX 7 1 6 2 5 3 8 4 9 5 14 6 13 7 18 8 12 9 19 10 20 11 11 12
REMARK SMILES IDX 21 13 10 14 15 15 16 16 17 17 4 18 3 19 2 20 1 21
REMARK H PARENT
ROOT
ATOM      1  C   UNL     1      11.555  -1.677  -8.483  1.00  0.00     0.122 C 
ATOM      2  C   UNL     1      12.002  -1.593  -9.915  1.00  0.00     0.039 C 
ATOM      3  C   UNL     1      12.191  -0.416  -9.001  1.00  0.00     0.026 C 
ENDROOT
BRANCH   1   4
ATOM      4  O   UNL     1      10.125  -1.654  -8.311  1.00  0.00    -0.371 OA
BRANCH   4   5
ATOM      5  C   UNL     1       9.444  -2.882  -8.618  1.00  0.00     0.158 C 
ATOM      6  C   UNL     1       6.041  -2.900  -4.666  1.00  0.00    -0.003 C 
ATOM      7  C   UNL     1       7.550  -3.125  -4.817  1.00  0.00     0.052 C 
ATOM      8  C   UNL     1       5.573  -1.879  -5.713  1.00  0.00     0.019 C 
ATOM      9  C   UNL     1       7.931  -3.488  -6.258  1.00  0.00     0.189 C 
ATOM     10  C   UNL     1       6.013  -2.282  -7.121  1.00  0.00     0.087 C 
ATOM     11  N   UNL     1       7.464  -2.458  -7.185  1.00  0.00    -0.276 NA
ATOM     12  O   UNL     1       9.353  -3.627  -6.282  1.00  0.00    -0.360 OA
ATOM     13  C   UNL     1       7.912  -2.759  -8.549  1.00  0.00     0.121 C 
ATOM     14  C   UNL     1       9.865  -3.931  -7.584  1.00  0.00     0.195 C 
BRANCH   6  15
ATOM     15  C   UNL     1       5.686  -2.432  -3.273  1.00  0.00    -0.008 C 
ATOM     16  C   UNL     1       4.492  -3.013  -2.553  1.00  0.00     0.004 C 
ATOM     17  C   UNL     1       5.880  -3.336  -2.080  1.00  0.00     0.004 C 
ENDBRANCH   6  15
ENDBRANCH   4   5
ENDBRANCH   1   4
BRANCH   3  18
ATOM     18  C   UNL     1      13.580  -0.042  -8.578  1.00  0.00     0.053 C 
BRANCH  18  19
ATOM     19  C   UNL     1      14.594   0.114  -9.681  1.00  0.00     0.074 C 
BRANCH  19  20
ATOM     20  N   UNL     1      14.811   1.188 -10.365  1.00  0.00    -0.313 NA
ATOM     21  H   UNL     1      14.993   1.997  -9.753  1.00  0.00     0.186 HD
ENDBRANCH  19  20
ENDBRANCH  18  19
ENDBRANCH   3  18
TORSDOF 6
ENDMDL
MODEL 4
REMARK VINA RESULT:    -4.041      7.921     10.139
REMARK INTER + INTRA:          -5.500
REMARK INTER:                  -5.363
REMARK INTRA:                  -0.138
REMARK UNBOUND:                -0.160
REMARK SMILES [H]/N=C\C[C@H]1C[C@@H]1O[C@H]1CO[C@H]2C[C@@H](C3CC3)CCN2C1
REMARK SMILES IDX 7 1 6 2 5 3 8 4 9 5 14 6 13 7 18 8 12 9 19 10 20 11 11 12
REMARK SMILES IDX 21 13 10 14 15 15 16 16 17 17 4 18 3 19 2 20 1 21
REMARK H PARENT
ROOT
ATOM      1  C   UNL     1       9.319  -3.986  -7.766  1.00  0.00     0.122 C 
ATOM      2  C   UNL     1       9.719  -2.649  -8.322  1.00  0.00     0.039 C 
ATOM      3  C   UNL     1       8.310  -3.140  -8.493  1.00  0.00     0.026 C 
ENDROOT
BRANCH   1   4
ATOM      4  O   UNL     1       9.860  -5.108  -8.489  1.00  0.00    -0.371 OA
BRANCH   4   5
ATOM      5  C   UNL     1      10.272  -6.224  -7.684  1.00  0.00     0.158 C 
ATOM      6  C   UNL     1      10.487  -9.854 -11.423  1.00  0.00    -0.003 C 
ATOM      7  C   UNL     1       9.373  -9.101 -10.686  1.00  0.00     0.052 C 
ATOM      8  C   UNL     1      11.716  -8.943 -11.551  1.00  0.00     0.019 C 
ATOM      9  C   UNL     1       9.863  -8.521  -9.352  1.00  0.00     0.189 C 
ATOM     10  C   UNL     1      12.131  -8.372 -10.195  1.00  0.00     0.087 C 
ATOM     11  N   UNL     1      11.022  -7.655  -9.567  1.00  0.00    -0.276 NA
ATOM     12  O   UNL     1       8.760  -7.811  -8.785  1.00  0.00    -0.360 OA
ATOM     13  C   UNL     1      11.429  -7.027  -8.305  1.00  0.00     0.121 C 
ATOM     14  C   UNL     1       9.081  -7.177  -7.543  1.00  0.00     0.195 C 
BRANCH   6  15
ATOM     15  C   UNL     1      10.031 -10.324 -12.786  1.00  0.00    -0.008 C 
ATOM     16  C   UNL     1      10.625 -11.568 -13.403  1.00  0.00     0.004 C 
ATOM     17  C   UNL     1       9.199 -11.575 -12.934  1.00  0.00     0.004 C 
ENDBRANCH   6  15
ENDBRANCH   4   5
ENDBRANCH   1   4
BRANCH   3  18
ATOM     18  C   UNL     1       7.207  -2.462  -7.737  1.00  0.00     0.053 C 
BRANCH  18  19
ATOM     19  C   UNL     1       5.851  -2.464  -8.392  1.00  0.00     0.074 C 
BRANCH  19  20
ATOM     20  N   UNL     1       5.612  -2.237  -9.641  1.00  0.00    -0.313 NA
ATOM     21  H   UNL     1       4.701  -2.621  -9.929  1.00  0.00     0.186 HD
ENDBRANCH  19  20
ENDBRANCH  18  19
ENDBRANCH   3  18
TORSDOF 6
ENDMDL
MODEL 5
REMARK VINA RESULT:    -3.989      7.567      9.086
REMARK INTER + INTRA:          -5.431
REMARK INTER:                  -5.197
REMARK INTRA:                  -0.234
REMARK UNBOUND:                -0.160
REMARK SMILES [H]/N=C\C[C@H]1C[C@@H]1O[C@H]1CO[C@H]2C[C@@H](C3CC3)CCN2C1
REMARK SMILES IDX 7 1 6 2 5 3 8 4 9 5 14 6 13 7 18 8 12 9 19 10 20 11 11 12
REMARK SMILES IDX 21 13 10 14 15 15 16 16 17 17 4 18 3 19 2 20 1 21
REMARK H PARENT
ROOT
ATOM      1  C   UNL     1      12.502  -8.974 -12.971  1.00  0.00     0.122 C 
ATOM      2  C   UNL     1      11.335  -8.729 -13.886  1.00  0.00     0.039 C 
ATOM      3  C   UNL     1      12.735  -8.685 -14.429  1.00  0.00     0.026 C 
ENDROOT
BRANCH   1   4
ATOM      4  O   UNL     1      12.763  -7.897 -12.051  1.00  0.00    -0.371 OA
BRANCH   4   5
ATOM      5  C   UNL     1      13.231  -8.292 -10.751  1.00  0.00     0.158 C 
ATOM      6  C   UNL     1       9.999  -5.410  -7.844  1.00  0.00    -0.003 C 
ATOM      7  C   UNL     1      11.213  -5.133  -8.739  1.00  0.00     0.052 C 
ATOM      8  C   UNL     1       9.221  -6.611  -8.400  1.00  0.00     0.019 C 
ATOM      9  C   UNL     1      12.068  -6.391  -8.946  1.00  0.00     0.189 C 
ATOM     10  C   UNL     1      10.135  -7.818  -8.615  1.00  0.00     0.087 C 
ATOM     11  N   UNL     1      11.254  -7.477  -9.493  1.00  0.00    -0.276 NA
ATOM     12  O   UNL     1      13.132  -6.022  -9.826  1.00  0.00    -0.360 OA
ATOM     13  C   UNL     1      12.093  -8.647  -9.778  1.00  0.00     0.121 C 
ATOM     14  C   UNL     1      14.000  -7.114 -10.143  1.00  0.00     0.195 C 
BRANCH   6  15
ATOM     15  C   UNL     1       9.100  -4.199  -7.737  1.00  0.00    -0.008 C 
ATOM     16  C   UNL     1       9.047  -3.398  -6.458  1.00  0.00     0.004 C 
ATOM     17  C   UNL     1       9.682  -2.807  -7.683  1.00  0.00     0.004 C 
ENDBRANCH   6  15
ENDBRANCH   4   5
ENDBRANCH   1   4
BRANCH   3  18
ATOM     18  C   UNL     1      13.190  -9.775 -15.352  1.00  0.00     0.053 C 
BRANCH  18  19
ATOM     19  C   UNL     1      14.531  -9.574 -16.010  1.00  0.00     0.074 C 
BRANCH  19  20
ATOM     20  N   UNL     1      15.598 -10.265 -15.782  1.00  0.00    -0.313 NA
ATOM     21  H   UNL     1      16.027 -10.599 -16.656  1.00  0.00     0.186 HD
ENDBRANCH  19  20
ENDBRANCH  18  19
ENDBRANCH   3  18
TORSDOF 6
ENDMDL
MODEL 6
REMARK VINA RESULT:    -3.862      7.652      9.835
REMARK INTER + INTRA:          -5.264
REMARK INTER:                  -4.871
REMARK INTRA:                  -0.393
REMARK UNBOUND:                -0.160
REMARK SMILES [H]/N=C\C[C@H]1C[C@@H]1O[C@H]1CO[C@H]2C[C@@H](C3CC3)CCN2C1
REMARK SMILES IDX 7 1 6 2 5 3 8 4 9 5 14 6 13 7 18 8 12 9 19 10 20 11 11 12
REMARK SMILES IDX 21 13 10 14 15 15 16 16 17 17 4 18 3 19 2 20 1 21
REMARK H PARENT
ROOT
ATOM      1  C   UNL     1      14.483 -10.072 -14.136  1.00  0.00     0.122 C 
ATOM      2  C   UNL     1      14.749  -9.790 -15.588  1.00  0.00     0.039 C 
ATOM      3  C   UNL     1      14.236  -8.697 -14.695  1.00  0.00     0.026 C 
ENDROOT
BRANCH   1   4
ATOM      4  O   UNL     1      13.321 -10.890 -13.900  1.00  0.00    -0.371 OA
BRANCH   4   5
ATOM      5  C   UNL     1      13.389 -11.745 -12.747  1.00  0.00     0.158 C 
ATOM      6  C   UNL     1      10.360  -8.971  -9.533  1.00  0.00    -0.003 C 
ATOM      7  C   UNL     1      11.770  -8.820 -10.116  1.00  0.00     0.052 C 
ATOM      8  C   UNL     1       9.465  -9.696 -10.549  1.00  0.00     0.019 C 
ATOM      9  C   UNL     1      12.334 -10.163 -10.600  1.00  0.00     0.189 C 
ATOM     10  C   UNL     1      10.098 -11.006 -11.016  1.00  0.00     0.087 C 
ATOM     11  N   UNL     1      11.430 -10.775 -11.575  1.00  0.00    -0.276 NA
ATOM     12  O   UNL     1      13.620  -9.889 -11.159  1.00  0.00    -0.360 OA
ATOM     13  C   UNL     1      12.016 -12.010 -12.107  1.00  0.00     0.121 C 
ATOM     14  C   UNL     1      14.259 -11.053 -11.692  1.00  0.00     0.195 C 
BRANCH   6  15
ATOM     15  C   UNL     1       9.766  -7.631  -9.164  1.00  0.00    -0.008 C 
ATOM     16  C   UNL     1       9.289  -7.369  -7.754  1.00  0.00     0.004 C 
ATOM     17  C   UNL     1      10.515  -6.673  -8.270  1.00  0.00     0.004 C 
ENDBRANCH   6  15
ENDBRANCH   4   5
ENDBRANCH   1   4
BRANCH   3  18
ATOM     18  C   UNL     1      15.148  -7.562 -14.339  1.00  0.00     0.053 C 
BRANCH  18  19
ATOM     19  C   UNL     1      14.648  -6.612 -13.282  1.00  0.00     0.074 C 
BRANCH  19  20
ATOM     20  N   UNL     1      13.456  -6.591 -12.785  1.00  0.00    -0.313 NA
ATOM     21  H   UNL     1      12.749  -6.389 -13.505  1.00  0.00     0.186 HD
ENDBRANCH  19  20
ENDBRANCH  18  19
ENDBRANCH   3  18
TORSDOF 6
ENDMDL
MODEL 7
REMARK VINA RESULT:    -3.694      8.470     10.699
REMARK INTER + INTRA:          -5.042
REMARK INTER:                  -4.695
REMARK INTRA:                  -0.347
REMARK UNBOUND:                -0.160
REMARK SMILES [H]/N=C\C[C@H]1C[C@@H]1O[C@H]1CO[C@H]2C[C@@H](C3CC3)CCN2C1
REMARK SMILES IDX 7 1 6 2 5 3 8 4 9 5 14 6 13 7 18 8 12 9 19 10 20 11 11 12
REMARK SMILES IDX 21 13 10 14 15 15 16 16 17 17 4 18 3 19 2 20 1 21
REMARK H PARENT
ROOT
ATOM      1  C   UNL     1       9.408  -7.055  -8.883  1.00  0.00     0.122 C 
ATOM      2  C   UNL     1       9.419  -7.081  -7.380  1.00  0.00     0.039 C 
ATOM      3  C   UNL     1       9.984  -5.898  -8.114  1.00  0.00     0.026 C 
ENDROOT
BRANCH   1   4
ATOM      4  O   UNL     1      10.351  -7.958  -9.492  1.00  0.00    -0.371 OA
BRANCH   4   5
ATOM      5  C   UNL     1       9.801  -9.191  -9.983  1.00  0.00     0.158 C 
ATOM      6  C   UNL     1      13.298 -10.174 -13.726  1.00  0.00    -0.003 C 
ATOM      7  C   UNL     1      12.155  -9.171 -13.527  1.00  0.00     0.052 C 
ATOM      8  C   UNL     1      13.929 -10.501 -12.365  1.00  0.00     0.019 C 
ATOM      9  C   UNL     1      11.150  -9.654 -12.471  1.00  0.00     0.189 C 
ATOM     10  C   UNL     1      12.873 -10.942 -11.351  1.00  0.00     0.087 C 
ATOM     11  N   UNL     1      11.831  -9.925 -11.205  1.00  0.00    -0.276 NA
ATOM     12  O   UNL     1      10.168  -8.624 -12.342  1.00  0.00    -0.360 OA
ATOM     13  C   UNL     1      10.857 -10.294 -10.172  1.00  0.00     0.121 C 
ATOM     14  C   UNL     1       9.174  -8.919 -11.355  1.00  0.00     0.195 C 
BRANCH   6  15
ATOM     15  C   UNL     1      14.342  -9.643 -14.681  1.00  0.00    -0.008 C 
ATOM     16  C   UNL     1      14.571 -10.315 -16.014  1.00  0.00     0.004 C 
ATOM     17  C   UNL     1      13.940  -8.954 -15.962  1.00  0.00     0.004 C 
ENDBRANCH   6  15
ENDBRANCH   4   5
ENDBRANCH   1   4
BRANCH   3  18
ATOM     18  C   UNL     1       9.253  -4.590  -8.056  1.00  0.00     0.053 C 
BRANCH  18  19
ATOM     19  C   UNL     1       9.909  -3.495  -7.256  1.00  0.00     0.074 C 
BRANCH  19  20
ATOM     20  N   UNL     1      10.214  -3.551  -6.003  1.00  0.00    -0.313 NA
ATOM     21  H   UNL     1       9.575  -2.981  -5.430  1.00  0.00     0.186 HD
ENDBRANCH  19  20
ENDBRANCH  18  19
ENDBRANCH   3  18
TORSDOF 6
ENDMDL
MODEL 8
REMARK VINA RESULT:    -3.662      4.032      5.935
REMARK INTER + INTRA:          -4.999
REMARK INTER:                  -5.126
REMARK INTRA:                   0.127
REMARK UNBOUND:                -0.160
REMARK SMILES [H]/N=C\C[C@H]1C[C@@H]1O[C@H]1CO[C@H]2C[C@@H](C3CC3)CCN2C1
REMARK SMILES IDX 7 1 6 2 5 3 8 4 9 5 14 6 13 7 18 8 12 9 19 10 20 11 11 12
REMARK SMILES IDX 21 13 10 14 15 15 16 16 17 17 4 18 3 19 2 20 1 21
REMARK H PARENT
ROOT
ATOM      1  C   UNL     1      15.091  -0.297  -8.998  1.00  0.00     0.122 C 
ATOM      2  C   UNL     1      15.941   0.570  -8.113  1.00  0.00     0.039 C 
ATOM      3  C   UNL     1      16.298  -0.875  -8.312  1.00  0.00     0.026 C 
ENDROOT
BRANCH   1   4
ATOM      4  O   UNL     1      13.807  -0.631  -8.436  1.00  0.00    -0.371 OA
BRANCH   4   5
ATOM      5  C   UNL     1      12.677  -0.408  -9.296  1.00  0.00     0.158 C 
ATOM      6  C   UNL     1       9.892  -4.635  -8.039  1.00  0.00    -0.003 C 
ATOM      7  C   UNL     1      11.174  -4.361  -8.834  1.00  0.00     0.052 C 
ATOM      8  C   UNL     1       9.771  -3.610  -6.902  1.00  0.00     0.019 C 
ATOM      9  C   UNL     1      11.257  -2.900  -9.297  1.00  0.00     0.189 C 
ATOM     10  C   UNL     1       9.896  -2.179  -7.424  1.00  0.00     0.087 C 
ATOM     11  N   UNL     1      11.152  -1.995  -8.152  1.00  0.00    -0.276 NA
ATOM     12  O   UNL     1      12.505  -2.758  -9.979  1.00  0.00    -0.360 OA
ATOM     13  C   UNL     1      11.327  -0.604  -8.585  1.00  0.00     0.121 C 
ATOM     14  C   UNL     1      12.742  -1.424 -10.440  1.00  0.00     0.195 C 
BRANCH   6  15
ATOM     15  C   UNL     1       9.870  -6.043  -7.490  1.00  0.00    -0.008 C 
ATOM     16  C   UNL     1       9.262  -7.167  -8.294  1.00  0.00     0.004 C 
ATOM     17  C   UNL     1      10.747  -7.119  -8.083  1.00  0.00     0.004 C 
ENDBRANCH   6  15
ENDBRANCH   4   5
ENDBRANCH   1   4
BRANCH   3  18
ATOM     18  C   UNL     1      17.525  -1.218  -9.103  1.00  0.00     0.053 C 
BRANCH  18  19
ATOM     19  C   UNL     1      17.373  -2.311 -10.128  1.00  0.00     0.074 C 
BRANCH  19  20
ATOM     20  N   UNL     1      16.959  -3.513  -9.897  1.00  0.00    -0.313 NA
ATOM     21  H   UNL     1      16.465  -3.907 -10.711  1.00  0.00     0.186 HD
ENDBRANCH  19  20
ENDBRANCH  18  19
ENDBRANCH   3  18
TORSDOF 6
ENDMDL
MODEL 9
REMARK VINA RESULT:    -3.565      5.272      6.978
REMARK INTER + INTRA:          -4.871
REMARK INTER:                  -4.965
REMARK INTRA:                   0.094
REMARK UNBOUND:                -0.160
REMARK SMILES [H]/N=C\C[C@H]1C[C@@H]1O[C@H]1CO[C@H]2C[C@@H](C3CC3)CCN2C1
REMARK SMILES IDX 7 1 6 2 5 3 8 4 9 5 14 6 13 7 18 8 12 9 19 10 20 11 11 12
REMARK SMILES IDX 21 13 10 14 15 15 16 16 17 17 4 18 3 19 2 20 1 21
REMARK H PARENT
ROOT
ATOM      1  C   UNL     1      15.083  -6.518 -13.119  1.00  0.00     0.122 C 
ATOM      2  C   UNL     1      14.958  -6.443 -14.614  1.00  0.00     0.039 C 
ATOM      3  C   UNL     1      14.789  -5.202 -13.785  1.00  0.00     0.026 C 
ENDROOT
BRANCH   1   4
ATOM      4  O   UNL     1      13.976  -7.173 -12.469  1.00  0.00    -0.371 OA
BRANCH   4   5
ATOM      5  C   UNL     1      14.322  -8.026 -11.366  1.00  0.00     0.158 C 
ATOM      6  C   UNL     1      10.405  -6.780  -8.155  1.00  0.00    -0.003 C 
ATOM      7  C   UNL     1      11.677  -6.087  -8.656  1.00  0.00     0.052 C 
ATOM      8  C   UNL     1       9.864  -7.704  -9.256  1.00  0.00     0.019 C 
ATOM      9  C   UNL     1      12.705  -7.095  -9.187  1.00  0.00     0.189 C 
ATOM     10  C   UNL     1      10.944  -8.658  -9.765  1.00  0.00     0.087 C 
ATOM     11  N   UNL     1      12.113  -7.920 -10.241  1.00  0.00    -0.276 NA
ATOM     12  O   UNL     1      13.816  -6.333  -9.664  1.00  0.00    -0.360 OA
ATOM     13  C   UNL     1      13.123  -8.817 -10.813  1.00  0.00     0.121 C 
ATOM     14  C   UNL     1      14.850  -7.145 -10.230  1.00  0.00     0.195 C 
BRANCH   6  15
ATOM     15  C   UNL     1       9.353  -5.777  -7.739  1.00  0.00    -0.008 C 
ATOM     16  C   UNL     1       9.667  -4.728  -6.699  1.00  0.00     0.004 C 
ATOM     17  C   UNL     1       9.471  -4.324  -8.132  1.00  0.00     0.004 C 
ENDBRANCH   6  15
ENDBRANCH   4   5
ENDBRANCH   1   4
BRANCH   3  18
ATOM     18  C   UNL     1      15.842  -4.136 -13.850  1.00  0.00     0.053 C 
BRANCH  18  19
ATOM     19  C   UNL     1      15.686  -3.111 -14.942  1.00  0.00     0.074 C 
BRANCH  19  20
ATOM     20  N   UNL     1      16.612  -2.722 -15.755  1.00  0.00    -0.313 NA
ATOM     21  H   UNL     1      16.935  -1.770 -15.535  1.00  0.00     0.186 HD
ENDBRANCH  19  20
ENDBRANCH  18  19
ENDBRANCH   3  18
TORSDOF 6
ENDMDL
