MODEL 1
REMARK VINA RESULT:    -4.203      0.000      0.000
REMARK INTER + INTRA:          -5.769
REMARK INTER:                  -5.554
REMARK INTRA:                  -0.215
REMARK UNBOUND:                -0.215
REMARK SMILES [H]/N=C\C[C@H]1C[C@@H]1O[C@H]1CO[C@H]2C[C@@H](C3CC3)CCN2C1
REMARK SMILES IDX 7 1 6 2 5 3 8 4 9 5 14 6 13 7 18 8 12 9 19 10 20 11 11 12
REMARK SMILES IDX 21 13 10 14 15 15 16 16 17 17 4 18 3 19 2 20 1 21
REMARK H PARENT
ROOT
ATOM      1  C   UNL     1       6.038   3.943 -10.990  1.00  0.00     0.122 C 
ATOM      2  C   UNL     1       6.170   2.585 -11.619  1.00  0.00     0.039 C 
ATOM      3  C   UNL     1       6.763   2.843 -10.264  1.00  0.00     0.026 C 
ENDROOT
BRANCH   1   4
ATOM      4  O   UNL     1       6.854   4.957 -11.606  1.00  0.00    -0.371 OA
BRANCH   4   5
ATOM      5  C   UNL     1       6.272   6.269 -11.666  1.00  0.00     0.158 C 
ATOM      6  C   UNL     1      10.565   8.978 -12.863  1.00  0.00    -0.003 C 
ATOM      7  C   UNL     1      10.031   8.261 -11.617  1.00  0.00     0.052 C 
ATOM      8  C   UNL     1      10.084   8.239 -14.120  1.00  0.00     0.019 C 
ATOM      9  C   UNL     1       8.510   8.063 -11.682  1.00  0.00     0.189 C 
ATOM     10  C   UNL     1       8.568   8.044 -14.106  1.00  0.00     0.087 C 
ATOM     11  N   UNL     1       8.141   7.338 -12.898  1.00  0.00    -0.276 NA
ATOM     12  O   UNL     1       8.140   7.350 -10.500  1.00  0.00    -0.360 OA
ATOM     13  C   UNL     1       6.700   7.066 -12.912  1.00  0.00     0.121 C 
ATOM     14  C   UNL     1       6.741   7.056 -10.438  1.00  0.00     0.195 C 
BRANCH   6  15
ATOM     15  C   UNL     1      12.074   9.069 -12.846  1.00  0.00    -0.008 C 
ATOM     16  C   UNL     1      12.771  10.312 -13.348  1.00  0.00     0.004 C 
ATOM     17  C   UNL     1      12.783   9.989 -11.882  1.00  0.00     0.004 C 
ENDBRANCH   6  15
ENDBRANCH   4   5
ENDBRANCH   1   4
BRANCH   3  18
ATOM     18  C   UNL     1       6.143   2.193  -9.063  1.00  0.00     0.053 C 
BRANCH  18  19
ATOM     19  C   UNL     1       7.093   1.746  -7.982  1.00  0.00     0.074 C 
BRANCH  19  20
ATOM     20  N   UNL     1       8.304   1.335  -8.161  1.00  0.00    -0.313 NA
ATOM     21  H   UNL     1       8.630   0.760  -7.372  1.00  0.00     0.186 HD
ENDBRANCH  19  20
ENDBRANCH  18  19
ENDBRANCH   3  18
TORSDOF 6
ENDMDL
MODEL 2
REMARK VINA RESULT:    -4.089      5.327      8.537
REMARK INTER + INTRA:          -5.619
REMARK INTER:                  -5.353
REMARK INTRA:                  -0.266
REMARK UNBOUND:                -0.215
REMARK SMILES [H]/N=C\C[C@H]1C[C@@H]1O[C@H]1CO[C@H]2C[C@@H](C3CC3)CCN2C1
REMARK SMILES IDX 7 1 6 2 5 3 8 4 9 5 14 6 13 7 18 8 12 9 19 10 20 11 11 12
REMARK SMILES IDX 21 13 10 14 15 15 16 16 17 17 4 18 3 19 2 20 1 21
REMARK H PARENT
ROOT
ATOM      1  C   UNL     1       5.675   1.712 -13.447  1.00  0.00     0.122 C 
ATOM      2  C   UNL     1       6.902   1.364 -14.243  1.00  0.00     0.039 C 
ATOM      3  C   UNL     1       5.710   0.451 -14.266  1.00  0.00     0.026 C 
ENDROOT
BRANCH   1   4
ATOM      4  O   UNL     1       5.837   1.562 -12.024  1.00  0.00    -0.371 OA
BRANCH   4   5
ATOM      5  C   UNL     1       6.586   2.601 -11.372  1.00  0.00     0.158 C 
ATOM      6  C   UNL     1       3.833   2.898  -6.952  1.00  0.00    -0.003 C 
ATOM      7  C   UNL     1       3.608   3.299  -8.415  1.00  0.00     0.052 C 
ATOM      8  C   UNL     1       4.713   1.640  -6.900  1.00  0.00     0.019 C 
ATOM      9  C   UNL     1       4.932   3.430  -9.180  1.00  0.00     0.189 C 
ATOM     10  C   UNL     1       5.997   1.824  -7.708  1.00  0.00     0.087 C 
ATOM     11  N   UNL     1       5.697   2.186  -9.094  1.00  0.00    -0.276 NA
ATOM     12  O   UNL     1       4.594   3.758 -10.529  1.00  0.00    -0.360 OA
ATOM     13  C   UNL     1       6.916   2.280  -9.904  1.00  0.00     0.121 C 
ATOM     14  C   UNL     1       5.738   3.877 -11.381  1.00  0.00     0.195 C 
BRANCH   6  15
ATOM     15  C   UNL     1       2.524   2.659  -6.235  1.00  0.00    -0.008 C 
ATOM     16  C   UNL     1       2.201   3.411  -4.965  1.00  0.00     0.004 C 
ATOM     17  C   UNL     1       1.444   3.714  -6.226  1.00  0.00     0.004 C 
ENDBRANCH   6  15
ENDBRANCH   4   5
ENDBRANCH   1   4
BRANCH   3  18
ATOM     18  C   UNL     1       4.901   0.343 -15.524  1.00  0.00     0.053 C 
BRANCH  18  19
ATOM     19  C   UNL     1       5.670   0.065 -16.789  1.00  0.00     0.074 C 
BRANCH  19  20
ATOM     20  N   UNL     1       6.054  -1.097 -17.201  1.00  0.00    -0.313 NA
ATOM     21  H   UNL     1       7.070  -1.125 -17.365  1.00  0.00     0.186 HD
ENDBRANCH  19  20
ENDBRANCH  18  19
ENDBRANCH   3  18
TORSDOF 6
ENDMDL
MODEL 3
REMARK VINA RESULT:    -4.072      2.779      8.677
REMARK INTER + INTRA:          -5.596
REMARK INTER:                  -5.330
REMARK INTRA:                  -0.266
REMARK UNBOUND:                -0.215
REMARK SMILES [H]/N=C\C[C@H]1C[C@@H]1O[C@H]1CO[C@H]2C[C@@H](C3CC3)CCN2C1
REMARK SMILES IDX 7 1 6 2 5 3 8 4 9 5 14 6 13 7 18 8 12 9 19 10 20 11 11 12
REMARK SMILES IDX 21 13 10 14 15 15 16 16 17 17 4 18 3 19 2 20 1 21
REMARK H PARENT
ROOT
ATOM      1  C   UNL     1       7.083   5.885 -11.353  1.00  0.00     0.122 C 
ATOM      2  C   UNL     1       6.871   6.874 -12.465  1.00  0.00     0.039 C 
ATOM      3  C   UNL     1       7.367   7.345 -11.128  1.00  0.00     0.026 C 
ENDROOT
BRANCH   1   4
ATOM      4  O   UNL     1       5.864   5.371 -10.784  1.00  0.00    -0.371 OA
BRANCH   4   5
ATOM      5  C   UNL     1       5.201   4.356 -11.555  1.00  0.00     0.158 C 
ATOM      6  C   UNL     1       3.544   1.348  -7.629  1.00  0.00    -0.003 C 
ATOM      7  C   UNL     1       4.897   1.655  -8.282  1.00  0.00     0.052 C 
ATOM      8  C   UNL     1       2.650   2.594  -7.705  1.00  0.00     0.019 C 
ATOM      9  C   UNL     1       4.731   2.219  -9.699  1.00  0.00     0.189 C 
ATOM     10  C   UNL     1       2.554   3.125  -9.135  1.00  0.00     0.087 C 
ATOM     11  N   UNL     1       3.882   3.410  -9.678  1.00  0.00    -0.276 NA
ATOM     12  O   UNL     1       6.045   2.506 -10.182  1.00  0.00    -0.360 OA
ATOM     13  C   UNL     1       3.802   4.003 -11.018  1.00  0.00     0.121 C 
ATOM     14  C   UNL     1       6.048   3.081 -11.492  1.00  0.00     0.195 C 
BRANCH   6  15
ATOM     15  C   UNL     1       3.710   0.900  -6.194  1.00  0.00    -0.008 C 
ATOM     16  C   UNL     1       3.135  -0.419  -5.734  1.00  0.00     0.004 C 
ATOM     17  C   UNL     1       4.623  -0.249  -5.842  1.00  0.00     0.004 C 
ENDBRANCH   6  15
ENDBRANCH   4   5
ENDBRANCH   1   4
BRANCH   3  18
ATOM     18  C   UNL     1       8.781   7.830 -11.008  1.00  0.00     0.053 C 
BRANCH  18  19
ATOM     19  C   UNL     1       9.221   8.859 -12.016  1.00  0.00     0.074 C 
BRANCH  19  20
ATOM     20  N   UNL     1       9.074  10.138 -11.906  1.00  0.00    -0.313 NA
ATOM     21  H   UNL     1       9.812  10.649 -12.411  1.00  0.00     0.186 HD
ENDBRANCH  19  20
ENDBRANCH  18  19
ENDBRANCH   3  18
TORSDOF 6
ENDMDL
MODEL 4
REMARK VINA RESULT:    -3.649      2.851      7.609
REMARK INTER + INTRA:          -5.037
REMARK INTER:                  -4.724
REMARK INTRA:                  -0.313
REMARK UNBOUND:                -0.215
REMARK SMILES [H]/N=C\C[C@H]1C[C@@H]1O[C@H]1CO[C@H]2C[C@@H](C3CC3)CCN2C1
REMARK SMILES IDX 7 1 6 2 5 3 8 4 9 5 14 6 13 7 18 8 12 9 19 10 20 11 11 12
REMARK SMILES IDX 21 13 10 14 15 15 16 16 17 17 4 18 3 19 2 20 1 21
REMARK H PARENT
ROOT
ATOM      1  C   UNL     1      11.210   8.235 -15.117  1.00  0.00     0.122 C 
ATOM      2  C   UNL     1      12.332   8.089 -14.129  1.00  0.00     0.039 C 
ATOM      3  C   UNL     1      12.462   7.497 -15.503  1.00  0.00     0.026 C 
ENDROOT
BRANCH   1   4
ATOM      4  O   UNL     1      10.054   7.430 -14.816  1.00  0.00    -0.371 OA
BRANCH   4   5
ATOM      5  C   UNL     1       8.790   8.110 -14.884  1.00  0.00     0.158 C 
ATOM      6  C   UNL     1       6.187   5.279 -11.361  1.00  0.00    -0.003 C 
ATOM      7  C   UNL     1       6.700   5.054 -12.788  1.00  0.00     0.052 C 
ATOM      8  C   UNL     1       7.142   6.227 -10.622  1.00  0.00     0.019 C 
ATOM      9  C   UNL     1       6.955   6.380 -13.518  1.00  0.00     0.189 C 
ATOM     10  C   UNL     1       7.380   7.511 -11.416  1.00  0.00     0.087 C 
ATOM     11  N   UNL     1       7.886   7.212 -12.755  1.00  0.00    -0.276 NA
ATOM     12  O   UNL     1       7.469   6.044 -14.808  1.00  0.00    -0.360 OA
ATOM     13  C   UNL     1       8.202   8.436 -13.500  1.00  0.00     0.121 C 
ATOM     14  C   UNL     1       7.793   7.192 -15.598  1.00  0.00     0.195 C 
BRANCH   6  15
ATOM     15  C   UNL     1       6.047   3.975 -10.609  1.00  0.00    -0.008 C 
ATOM     16  C   UNL     1       4.678   3.425 -10.282  1.00  0.00     0.004 C 
ATOM     17  C   UNL     1       5.536   2.734 -11.302  1.00  0.00     0.004 C 
ENDBRANCH   6  15
ENDBRANCH   4   5
ENDBRANCH   1   4
BRANCH   3  18
ATOM     18  C   UNL     1      13.433   8.109 -16.469  1.00  0.00     0.053 C 
BRANCH  18  19
ATOM     19  C   UNL     1      14.517   7.202 -16.989  1.00  0.00     0.074 C 
BRANCH  19  20
ATOM     20  N   UNL     1      14.584   5.924 -16.813  1.00  0.00    -0.313 NA
ATOM     21  H   UNL     1      13.778   5.571 -16.277  1.00  0.00     0.186 HD
ENDBRANCH  19  20
ENDBRANCH  18  19
ENDBRANCH   3  18
TORSDOF 6
ENDMDL
MODEL 5
REMARK VINA RESULT:    -3.642      1.993      7.190
REMARK INTER + INTRA:          -5.029
REMARK INTER:                  -4.828
REMARK INTRA:                  -0.201
REMARK UNBOUND:                -0.215
REMARK SMILES [H]/N=C\C[C@H]1C[C@@H]1O[C@H]1CO[C@H]2C[C@@H](C3CC3)CCN2C1
REMARK SMILES IDX 7 1 6 2 5 3 8 4 9 5 14 6 13 7 18 8 12 9 19 10 20 11 11 12
REMARK SMILES IDX 21 13 10 14 15 15 16 16 17 17 4 18 3 19 2 20 1 21
REMARK H PARENT
ROOT
ATOM      1  C   UNL     1       9.976   8.376 -11.940  1.00  0.00     0.122 C 
ATOM      2  C   UNL     1      11.104   8.745 -11.018  1.00  0.00     0.039 C 
ATOM      3  C   UNL     1      11.376   7.915 -12.240  1.00  0.00     0.026 C 
ENDROOT
BRANCH   1   4
ATOM      4  O   UNL     1       9.075   7.390 -11.400  1.00  0.00    -0.371 OA
BRANCH   4   5
ATOM      5  C   UNL     1       7.676   7.675 -11.563  1.00  0.00     0.158 C 
ATOM      6  C   UNL     1       5.967   2.803 -12.306  1.00  0.00    -0.003 C 
ATOM      7  C   UNL     1       6.773   3.821 -13.123  1.00  0.00     0.052 C 
ATOM      8  C   UNL     1       6.271   2.996 -10.814  1.00  0.00     0.019 C 
ATOM      9  C   UNL     1       6.556   5.255 -12.620  1.00  0.00     0.189 C 
ATOM     10  C   UNL     1       6.068   4.449 -10.386  1.00  0.00     0.087 C 
ATOM     11  N   UNL     1       6.884   5.352 -11.198  1.00  0.00    -0.276 NA
ATOM     12  O   UNL     1       7.387   6.098 -13.421  1.00  0.00    -0.360 OA
ATOM     13  C   UNL     1       6.768   6.742 -10.743  1.00  0.00     0.121 C 
ATOM     14  C   UNL     1       7.318   7.476 -13.040  1.00  0.00     0.195 C 
BRANCH   6  15
ATOM     15  C   UNL     1       6.272   1.384 -12.731  1.00  0.00    -0.008 C 
ATOM     16  C   UNL     1       5.395   0.684 -13.742  1.00  0.00     0.004 C 
ATOM     17  C   UNL     1       6.792   1.087 -14.117  1.00  0.00     0.004 C 
ENDBRANCH   6  15
ENDBRANCH   4   5
ENDBRANCH   1   4
BRANCH   3  18
ATOM     18  C   UNL     1      12.145   8.523 -13.375  1.00  0.00     0.053 C 
BRANCH  18  19
ATOM     19  C   UNL     1      12.183   7.729 -14.655  1.00  0.00     0.074 C 
BRANCH  19  20
ATOM     20  N   UNL     1      11.317   6.845 -15.023  1.00  0.00    -0.313 NA
ATOM     21  H   UNL     1      11.673   6.263 -15.795  1.00  0.00     0.186 HD
ENDBRANCH  19  20
ENDBRANCH  18  19
ENDBRANCH   3  18
TORSDOF 6
ENDMDL
MODEL 6
REMARK VINA RESULT:    -3.536      3.206      8.502
REMARK INTER + INTRA:          -4.888
REMARK INTER:                  -5.328
REMARK INTRA:                   0.441
REMARK UNBOUND:                -0.215
REMARK SMILES [H]/N=C\C[C@H]1C[C@@H]1O[C@H]1CO[C@H]2C[C@@H](C3CC3)CCN2C1
REMARK SMILES IDX 7 1 6 2 5 3 8 4 9 5 14 6 13 7 18 8 12 9 19 10 20 11 11 12
REMARK SMILES IDX 21 13 10 14 15 15 16 16 17 17 4 18 3 19 2 20 1 21
REMARK H PARENT
ROOT
ATOM      1  C   UNL     1       6.303   6.228 -11.382  1.00  0.00     0.122 C 
ATOM      2  C   UNL     1       7.231   7.358 -11.034  1.00  0.00     0.039 C 
ATOM      3  C   UNL     1       7.369   6.654 -12.353  1.00  0.00     0.026 C 
ENDROOT
BRANCH   1   4
ATOM      4  O   UNL     1       6.551   5.016 -10.643  1.00  0.00    -0.371 OA
BRANCH   4   5
ATOM      5  C   UNL     1       6.130   3.802 -11.286  1.00  0.00     0.158 C 
ATOM      6  C   UNL     1       2.617   2.228  -7.766  1.00  0.00    -0.003 C 
ATOM      7  C   UNL     1       4.147   2.312  -7.829  1.00  0.00     0.052 C 
ATOM      8  C   UNL     1       2.012   3.377  -8.586  1.00  0.00     0.019 C 
ATOM      9  C   UNL     1       4.655   2.384  -9.276  1.00  0.00     0.189 C 
ATOM     10  C   UNL     1       2.584   3.413 -10.003  1.00  0.00     0.087 C 
ATOM     11  N   UNL     1       4.043   3.513  -9.977  1.00  0.00    -0.276 NA
ATOM     12  O   UNL     1       6.077   2.505  -9.204  1.00  0.00    -0.360 OA
ATOM     13  C   UNL     1       4.601   3.636 -11.328  1.00  0.00     0.121 C 
ATOM     14  C   UNL     1       6.695   2.621 -10.490  1.00  0.00     0.195 C 
BRANCH   6  15
ATOM     15  C   UNL     1       2.118   2.273  -6.340  1.00  0.00    -0.008 C 
ATOM     16  C   UNL     1       2.606   1.265  -5.327  1.00  0.00     0.004 C 
ATOM     17  C   UNL     1       3.028   2.701  -5.214  1.00  0.00     0.004 C 
ENDBRANCH   6  15
ENDBRANCH   4   5
ENDBRANCH   1   4
BRANCH   3  18
ATOM     18  C   UNL     1       6.999   7.385 -13.609  1.00  0.00     0.053 C 
BRANCH  18  19
ATOM     19  C   UNL     1       7.400   6.730 -14.905  1.00  0.00     0.074 C 
BRANCH  19  20
ATOM     20  N   UNL     1       7.669   5.477 -15.068  1.00  0.00    -0.313 NA
ATOM     21  H   UNL     1       8.464   5.181 -14.485  1.00  0.00     0.186 HD
ENDBRANCH  19  20
ENDBRANCH  18  19
ENDBRANCH   3  18
TORSDOF 6
ENDMDL
MODEL 7
REMARK VINA RESULT:    -3.442      2.481      7.540
REMARK INTER + INTRA:          -4.764
REMARK INTER:                  -4.370
REMARK INTRA:                  -0.394
REMARK UNBOUND:                -0.215
REMARK SMILES [H]/N=C\C[C@H]1C[C@@H]1O[C@H]1CO[C@H]2C[C@@H](C3CC3)CCN2C1
REMARK SMILES IDX 7 1 6 2 5 3 8 4 9 5 14 6 13 7 18 8 12 9 19 10 20 11 11 12
REMARK SMILES IDX 21 13 10 14 15 15 16 16 17 17 4 18 3 19 2 20 1 21
REMARK H PARENT
ROOT
ATOM      1  C   UNL     1      11.129   8.700 -13.047  1.00  0.00     0.122 C 
ATOM      2  C   UNL     1      11.962   7.799 -12.180  1.00  0.00     0.039 C 
ATOM      3  C   UNL     1      12.624   8.667 -13.211  1.00  0.00     0.026 C 
ENDROOT
BRANCH   1   4
ATOM      4  O   UNL     1      10.356   8.005 -14.044  1.00  0.00    -0.371 OA
BRANCH   4   5
ATOM      5  C   UNL     1       9.066   8.569 -14.333  1.00  0.00     0.158 C 
ATOM      6  C   UNL     1       6.134   5.301 -11.517  1.00  0.00    -0.003 C 
ATOM      7  C   UNL     1       6.934   5.212 -12.822  1.00  0.00     0.052 C 
ATOM      8  C   UNL     1       6.827   6.285 -10.564  1.00  0.00     0.019 C 
ATOM      9  C   UNL     1       7.188   6.597 -13.431  1.00  0.00     0.189 C 
ATOM     10  C   UNL     1       7.082   7.632 -11.241  1.00  0.00     0.087 C 
ATOM     11  N   UNL     1       7.864   7.463 -12.465  1.00  0.00    -0.276 NA
ATOM     12  O   UNL     1       7.973   6.389 -14.607  1.00  0.00    -0.360 OA
ATOM     13  C   UNL     1       8.191   8.754 -13.080  1.00  0.00     0.121 C 
ATOM     14  C   UNL     1       8.325   7.609 -15.268  1.00  0.00     0.195 C 
BRANCH   6  15
ATOM     15  C   UNL     1       5.985   3.946 -10.863  1.00  0.00    -0.008 C 
ATOM     16  C   UNL     1       4.616   3.338 -10.667  1.00  0.00     0.004 C 
ATOM     17  C   UNL     1       5.562   2.741 -11.669  1.00  0.00     0.004 C 
ENDBRANCH   6  15
ENDBRANCH   4   5
ENDBRANCH   1   4
BRANCH   3  18
ATOM     18  C   UNL     1      13.459   9.826 -12.757  1.00  0.00     0.053 C 
BRANCH  18  19
ATOM     19  C   UNL     1      14.335  10.467 -13.802  1.00  0.00     0.074 C 
BRANCH  19  20
ATOM     20  N   UNL     1      14.011  10.678 -15.035  1.00  0.00    -0.313 NA
ATOM     21  H   UNL     1      14.323   9.910 -15.646  1.00  0.00     0.186 HD
ENDBRANCH  19  20
ENDBRANCH  18  19
ENDBRANCH   3  18
TORSDOF 6
ENDMDL
MODEL 8
REMARK VINA RESULT:    -3.420      3.639      6.732
REMARK INTER + INTRA:          -4.734
REMARK INTER:                  -4.212
REMARK INTRA:                  -0.522
REMARK UNBOUND:                -0.215
REMARK SMILES [H]/N=C\C[C@H]1C[C@@H]1O[C@H]1CO[C@H]2C[C@@H](C3CC3)CCN2C1
REMARK SMILES IDX 7 1 6 2 5 3 8 4 9 5 14 6 13 7 18 8 12 9 19 10 20 11 11 12
REMARK SMILES IDX 21 13 10 14 15 15 16 16 17 17 4 18 3 19 2 20 1 21
REMARK H PARENT
ROOT
ATOM      1  C   UNL     1      10.803   7.811 -17.302  1.00  0.00     0.122 C 
ATOM      2  C   UNL     1      11.615   6.739 -17.972  1.00  0.00     0.039 C 
ATOM      3  C   UNL     1      10.565   6.364 -16.966  1.00  0.00     0.026 C 
ENDROOT
BRANCH   1   4
ATOM      4  O   UNL     1      11.537   8.585 -16.334  1.00  0.00    -0.371 OA
BRANCH   4   5
ATOM      5  C   UNL     1      10.925   9.823 -15.938  1.00  0.00     0.158 C 
ATOM      6  C   UNL     1       8.387   8.124 -11.709  1.00  0.00    -0.003 C 
ATOM      7  C   UNL     1       8.227   7.961 -13.226  1.00  0.00     0.052 C 
ATOM      8  C   UNL     1       9.878   8.257 -11.368  1.00  0.00     0.019 C 
ATOM      9  C   UNL     1       8.949   9.073 -13.998  1.00  0.00     0.189 C 
ATOM     10  C   UNL     1      10.544   9.357 -12.194  1.00  0.00     0.087 C 
ATOM     11  N   UNL     1      10.363   9.118 -13.626  1.00  0.00    -0.276 NA
ATOM     12  O   UNL     1       8.769   8.790 -15.387  1.00  0.00    -0.360 OA
ATOM     13  C   UNL     1      11.070  10.118 -14.434  1.00  0.00     0.121 C 
ATOM     14  C   UNL     1       9.425   9.731 -16.241  1.00  0.00     0.195 C 
BRANCH   6  15
ATOM     15  C   UNL     1       7.772   6.965 -10.958  1.00  0.00    -0.008 C 
ATOM     16  C   UNL     1       6.381   7.080 -10.382  1.00  0.00     0.004 C 
ATOM     17  C   UNL     1       6.631   6.176 -11.554  1.00  0.00     0.004 C 
ENDBRANCH   6  15
ENDBRANCH   4   5
ENDBRANCH   1   4
BRANCH   3  18
ATOM     18  C   UNL     1       9.320   5.674 -17.439  1.00  0.00     0.053 C 
BRANCH  18  19
ATOM     19  C   UNL     1       8.217   5.522 -16.424  1.00  0.00     0.074 C 
BRANCH  19  20
ATOM     20  N   UNL     1       7.213   6.320 -16.272  1.00  0.00    -0.313 NA
ATOM     21  H   UNL     1       7.516   7.302 -16.198  1.00  0.00     0.186 HD
ENDBRANCH  19  20
ENDBRANCH  18  19
ENDBRANCH   3  18
TORSDOF 6
ENDMDL
MODEL 9
REMARK VINA RESULT:    -3.227      2.490      3.611
REMARK INTER + INTRA:          -4.480
REMARK INTER:                  -4.229
REMARK INTRA:                  -0.251
REMARK UNBOUND:                -0.215
REMARK SMILES [H]/N=C\C[C@H]1C[C@@H]1O[C@H]1CO[C@H]2C[C@@H](C3CC3)CCN2C1
REMARK SMILES IDX 7 1 6 2 5 3 8 4 9 5 14 6 13 7 18 8 12 9 19 10 20 11 11 12
REMARK SMILES IDX 21 13 10 14 15 15 16 16 17 17 4 18 3 19 2 20 1 21
REMARK H PARENT
ROOT
ATOM      1  C   UNL     1       7.309   6.701 -11.201  1.00  0.00     0.122 C 
ATOM      2  C   UNL     1       5.966   6.853 -11.859  1.00  0.00     0.039 C 
ATOM      3  C   UNL     1       6.589   5.492 -11.733  1.00  0.00     0.026 C 
ENDROOT
BRANCH   1   4
ATOM      4  O   UNL     1       8.408   7.196 -11.990  1.00  0.00    -0.371 OA
BRANCH   4   5
ATOM      5  C   UNL     1       9.109   8.322 -11.438  1.00  0.00     0.158 C 
ATOM      6  C   UNL     1      12.246   9.348 -15.477  1.00  0.00    -0.003 C 
ATOM      7  C   UNL     1      12.156   8.253 -14.407  1.00  0.00     0.052 C 
ATOM      8  C   UNL     1      10.833   9.848 -15.812  1.00  0.00     0.019 C 
ATOM      9  C   UNL     1      11.350   8.715 -13.185  1.00  0.00     0.189 C 
ATOM     10  C   UNL     1      10.073  10.260 -14.551  1.00  0.00     0.087 C 
ATOM     11  N   UNL     1      10.016   9.157 -13.591  1.00  0.00    -0.276 NA
ATOM     12  O   UNL     1      11.297   7.605 -12.287  1.00  0.00    -0.360 OA
ATOM     13  C   UNL     1       9.215   9.508 -12.413  1.00  0.00     0.121 C 
ATOM     14  C   UNL     1      10.537   7.877 -11.105  1.00  0.00     0.195 C 
BRANCH   6  15
ATOM     15  C   UNL     1      12.941   8.850 -16.723  1.00  0.00    -0.008 C 
ATOM     16  C   UNL     1      14.411   9.125 -16.940  1.00  0.00     0.004 C 
ATOM     17  C   UNL     1      13.948   7.727 -16.651  1.00  0.00     0.004 C 
ENDBRANCH   6  15
ENDBRANCH   4   5
ENDBRANCH   1   4
BRANCH   3  18
ATOM     18  C   UNL     1       5.980   4.499 -10.789  1.00  0.00     0.053 C 
BRANCH  18  19
ATOM     19  C   UNL     1       5.989   3.061 -11.238  1.00  0.00     0.074 C 
BRANCH  19  20
ATOM     20  N   UNL     1       6.045   2.650 -12.461  1.00  0.00    -0.313 NA
ATOM     21  H   UNL     1       6.419   3.376 -13.089  1.00  0.00     0.186 HD
ENDBRANCH  19  20
ENDBRANCH  18  19
ENDBRANCH   3  18
TORSDOF 6
ENDMDL
