MODEL 1
REMARK VINA RESULT:    -6.218      0.000      0.000
REMARK INTER + INTRA:          -7.685
REMARK INTER:                  -7.309
REMARK INTRA:                  -0.375
REMARK UNBOUND:                -0.375
REMARK SMILES Cc1ccc(CNC(=O)NC(=O)c2ccc(C)cc2)cc1
REMARK SMILES IDX 11 1 12 2 10 3 8 4 9 5 7 6 13 9 19 10 18 11 14 12 16 13
REMARK SMILES IDX 15 14 17 15 6 16 5 17 4 18 20 19 3 20 21 21 2 22 1 23
REMARK H PARENT 10 7 7 8
ROOT
ATOM      1  C   UNL     1       5.056   3.086  -9.767  1.00  0.00     0.259 C 
ATOM      2  O   UNL     1       4.907   4.267  -9.486  1.00  0.00    -0.269 OA
ATOM      3  N   UNL     1       5.499   2.521 -10.967  1.00  0.00    -0.274 N 
ATOM      4  C   UNL     1       6.121   2.939 -12.115  1.00  0.00     0.321 C 
ATOM      5  O   UNL     1       6.478   2.073 -12.921  1.00  0.00    -0.248 OA
ATOM      6  N   UNL     1       6.386   4.229 -12.390  1.00  0.00    -0.334 N 
ATOM      7  H   UNL     1       5.519   1.510 -10.969  1.00  0.00     0.175 HD
ATOM      8  H   UNL     1       6.925   4.363 -13.234  1.00  0.00     0.165 HD
ENDROOT
BRANCH   1   9
ATOM      9  C   UNL     1       4.733   2.110  -8.708  1.00  0.00     0.040 A 
ATOM     10  C   UNL     1       3.492   1.474  -8.659  1.00  0.00     0.014 A 
ATOM     11  C   UNL     1       3.252   0.519  -7.670  1.00  0.00     0.004 A 
ATOM     12  C   UNL     1       5.709   1.842  -7.743  1.00  0.00     0.014 A 
ATOM     13  C   UNL     1       4.243   0.205  -6.728  1.00  0.00    -0.051 A 
ATOM     14  C   UNL     1       5.467   0.883  -6.761  1.00  0.00     0.004 A 
ATOM     15  C   UNL     1       4.000  -0.884  -5.724  1.00  0.00     0.044 C 
ENDBRANCH   1   9
BRANCH   6  16
ATOM     16  C   UNL     1       6.151   5.370 -11.551  1.00  0.00     0.153 C 
BRANCH  16  17
ATOM     17  C   UNL     1       6.963   6.606 -11.823  1.00  0.00    -0.029 A 
ATOM     18  C   UNL     1       7.769   7.218 -10.858  1.00  0.00     0.006 A 
ATOM     19  C   UNL     1       7.069   7.024 -13.160  1.00  0.00     0.006 A 
ATOM     20  C   UNL     1       8.680   8.211 -11.233  1.00  0.00     0.004 A 
ATOM     21  C   UNL     1       7.979   8.009 -13.532  1.00  0.00     0.004 A 
ATOM     22  C   UNL     1       8.800   8.605 -12.573  1.00  0.00    -0.051 A 
ATOM     23  C   UNL     1       9.869   9.563 -13.003  1.00  0.00     0.044 C 
ENDBRANCH  16  17
ENDBRANCH   6  16
TORSDOF 3
ENDMDL
MODEL 2
REMARK VINA RESULT:    -6.208      3.213      5.487
REMARK INTER + INTRA:          -7.672
REMARK INTER:                  -7.302
REMARK INTRA:                  -0.370
REMARK UNBOUND:                -0.375
REMARK SMILES Cc1ccc(CNC(=O)NC(=O)c2ccc(C)cc2)cc1
REMARK SMILES IDX 11 1 12 2 10 3 8 4 9 5 7 6 13 9 19 10 18 11 14 12 16 13
REMARK SMILES IDX 15 14 17 15 6 16 5 17 4 18 20 19 3 20 21 21 2 22 1 23
REMARK H PARENT 10 7 7 8
ROOT
ATOM      1  C   UNL     1       4.980   2.794  -9.892  1.00  0.00     0.259 C 
ATOM      2  O   UNL     1       5.112   1.626 -10.231  1.00  0.00    -0.269 OA
ATOM      3  N   UNL     1       5.529   3.941 -10.473  1.00  0.00    -0.274 N 
ATOM      4  C   UNL     1       6.153   4.284 -11.645  1.00  0.00     0.321 C 
ATOM      5  O   UNL     1       6.378   5.482 -11.846  1.00  0.00    -0.248 OA
ATOM      6  N   UNL     1       6.500   3.392 -12.592  1.00  0.00    -0.334 N 
ATOM      7  H   UNL     1       5.293   4.803  -9.999  1.00  0.00     0.175 HD
ATOM      8  H   UNL     1       6.872   3.814 -13.431  1.00  0.00     0.165 HD
ENDROOT
BRANCH   1   9
ATOM      9  C   UNL     1       4.127   3.048  -8.716  1.00  0.00     0.040 A 
ATOM     10  C   UNL     1       4.676   3.259  -7.449  1.00  0.00     0.014 A 
ATOM     11  C   UNL     1       3.831   3.548  -6.377  1.00  0.00     0.004 A 
ATOM     12  C   UNL     1       2.741   3.065  -8.901  1.00  0.00     0.014 A 
ATOM     13  C   UNL     1       2.442   3.619  -6.564  1.00  0.00    -0.051 A 
ATOM     14  C   UNL     1       1.901   3.361  -7.829  1.00  0.00     0.004 A 
ATOM     15  C   UNL     1       1.554   4.014  -5.420  1.00  0.00     0.044 C 
ENDBRANCH   1   9
BRANCH   6  16
ATOM     16  C   UNL     1       6.239   1.981 -12.604  1.00  0.00     0.153 C 
BRANCH  16  17
ATOM     17  C   UNL     1       6.311   1.277 -13.930  1.00  0.00    -0.029 A 
ATOM     18  C   UNL     1       5.274   0.482 -14.430  1.00  0.00     0.006 A 
ATOM     19  C   UNL     1       7.379   1.612 -14.779  1.00  0.00     0.006 A 
ATOM     20  C   UNL     1       5.299   0.055 -15.762  1.00  0.00     0.004 A 
ATOM     21  C   UNL     1       7.400   1.190 -16.105  1.00  0.00     0.004 A 
ATOM     22  C   UNL     1       6.355   0.416 -16.611  1.00  0.00    -0.051 A 
ATOM     23  C   UNL     1       6.318   0.084 -18.073  1.00  0.00     0.044 C 
ENDBRANCH  16  17
ENDBRANCH   6  16
TORSDOF 3
ENDMDL
MODEL 3
REMARK VINA RESULT:    -6.110      3.115      7.338
REMARK INTER + INTRA:          -7.557
REMARK INTER:                  -7.079
REMARK INTRA:                  -0.478
REMARK UNBOUND:                -0.375
REMARK SMILES Cc1ccc(CNC(=O)NC(=O)c2ccc(C)cc2)cc1
REMARK SMILES IDX 11 1 12 2 10 3 8 4 9 5 7 6 13 9 19 10 18 11 14 12 16 13
REMARK SMILES IDX 15 14 17 15 6 16 5 17 4 18 20 19 3 20 21 21 2 22 1 23
REMARK H PARENT 10 7 7 8
ROOT
ATOM      1  C   UNL     1       5.819   1.955 -12.664  1.00  0.00     0.259 C 
ATOM      2  O   UNL     1       5.361   1.205 -11.814  1.00  0.00    -0.269 OA
ATOM      3  N   UNL     1       6.134   3.314 -12.556  1.00  0.00    -0.274 N 
ATOM      4  C   UNL     1       6.300   4.238 -11.557  1.00  0.00     0.321 C 
ATOM      5  O   UNL     1       6.726   5.354 -11.874  1.00  0.00    -0.248 OA
ATOM      6  N   UNL     1       6.056   3.983 -10.258  1.00  0.00    -0.334 N 
ATOM      7  H   UNL     1       6.483   3.730 -13.408  1.00  0.00     0.175 HD
ATOM      8  H   UNL     1       6.310   4.740  -9.640  1.00  0.00     0.165 HD
ENDROOT
BRANCH   1   9
ATOM      9  C   UNL     1       6.089   1.365 -13.990  1.00  0.00     0.040 A 
ATOM     10  C   UNL     1       5.195   0.473 -14.585  1.00  0.00     0.014 A 
ATOM     11  C   UNL     1       5.468  -0.018 -15.862  1.00  0.00     0.004 A 
ATOM     12  C   UNL     1       7.277   1.719 -14.637  1.00  0.00     0.014 A 
ATOM     13  C   UNL     1       6.633   0.372 -16.542  1.00  0.00    -0.051 A 
ATOM     14  C   UNL     1       7.543   1.231 -15.915  1.00  0.00     0.004 A 
ATOM     15  C   UNL     1       6.870  -0.098 -17.947  1.00  0.00     0.044 C 
ENDBRANCH   1   9
BRANCH   6  16
ATOM     16  C   UNL     1       5.660   2.735  -9.670  1.00  0.00     0.153 C 
BRANCH  16  17
ATOM     17  C   UNL     1       4.601   2.780  -8.603  1.00  0.00    -0.029 A 
ATOM     18  C   UNL     1       4.896   2.832  -7.237  1.00  0.00     0.006 A 
ATOM     19  C   UNL     1       3.277   2.989  -9.020  1.00  0.00     0.006 A 
ATOM     20  C   UNL     1       3.884   3.114  -6.313  1.00  0.00     0.004 A 
ATOM     21  C   UNL     1       2.272   3.274  -8.101  1.00  0.00     0.004 A 
ATOM     22  C   UNL     1       2.570   3.349  -6.739  1.00  0.00    -0.051 A 
ATOM     23  C   UNL     1       1.512   3.791  -5.772  1.00  0.00     0.044 C 
ENDBRANCH  16  17
ENDBRANCH   6  16
TORSDOF 3
ENDMDL
MODEL 4
REMARK VINA RESULT:    -6.075      0.569      8.046
REMARK INTER + INTRA:          -7.516
REMARK INTER:                  -7.038
REMARK INTRA:                  -0.478
REMARK UNBOUND:                -0.375
REMARK SMILES Cc1ccc(CNC(=O)NC(=O)c2ccc(C)cc2)cc1
REMARK SMILES IDX 11 1 12 2 10 3 8 4 9 5 7 6 13 9 19 10 18 11 14 12 16 13
REMARK SMILES IDX 15 14 17 15 6 16 5 17 4 18 20 19 3 20 21 21 2 22 1 23
REMARK H PARENT 10 7 7 8
ROOT
ATOM      1  C   UNL     1       6.475   5.339 -11.200  1.00  0.00     0.259 C 
ATOM      2  O   UNL     1       5.905   5.458 -10.124  1.00  0.00    -0.269 OA
ATOM      3  N   UNL     1       6.549   4.217 -12.031  1.00  0.00    -0.274 N 
ATOM      4  C   UNL     1       5.918   3.006 -12.158  1.00  0.00     0.321 C 
ATOM      5  O   UNL     1       6.192   2.318 -13.147  1.00  0.00    -0.248 OA
ATOM      6  N   UNL     1       5.003   2.549 -11.283  1.00  0.00    -0.334 N 
ATOM      7  H   UNL     1       7.101   4.354 -12.868  1.00  0.00     0.175 HD
ATOM      8  H   UNL     1       4.570   1.681 -11.565  1.00  0.00     0.165 HD
ENDROOT
BRANCH   1   9
ATOM      9  C   UNL     1       7.182   6.530 -11.708  1.00  0.00     0.040 A 
ATOM     10  C   UNL     1       7.957   7.331 -10.867  1.00  0.00     0.014 A 
ATOM     11  C   UNL     1       8.650   8.417 -11.404  1.00  0.00     0.004 A 
ATOM     12  C   UNL     1       7.050   6.843 -13.064  1.00  0.00     0.014 A 
ATOM     13  C   UNL     1       8.565   8.709 -12.773  1.00  0.00    -0.051 A 
ATOM     14  C   UNL     1       7.748   7.925 -13.597  1.00  0.00     0.004 A 
ATOM     15  C   UNL     1       9.382   9.827 -13.350  1.00  0.00     0.044 C 
ENDBRANCH   1   9
BRANCH   6  16
ATOM     16  C   UNL     1       4.471   3.229 -10.136  1.00  0.00     0.153 C 
BRANCH  16  17
ATOM     17  C   UNL     1       4.296   2.425  -8.878  1.00  0.00    -0.029 A 
ATOM     18  C   UNL     1       3.081   1.839  -8.509  1.00  0.00     0.006 A 
ATOM     19  C   UNL     1       5.457   2.085  -8.165  1.00  0.00     0.006 A 
ATOM     20  C   UNL     1       3.040   0.911  -7.463  1.00  0.00     0.004 A 
ATOM     21  C   UNL     1       5.416   1.158  -7.129  1.00  0.00     0.004 A 
ATOM     22  C   UNL     1       4.208   0.555  -6.775  1.00  0.00    -0.051 A 
ATOM     23  C   UNL     1       4.198  -0.541  -5.751  1.00  0.00     0.044 C 
ENDBRANCH  16  17
ENDBRANCH   6  16
TORSDOF 3
ENDMDL
MODEL 5
REMARK VINA RESULT:    -5.147      3.076      5.103
REMARK INTER + INTRA:          -6.425
REMARK INTER:                  -5.958
REMARK INTRA:                  -0.467
REMARK UNBOUND:                -0.375
REMARK SMILES Cc1ccc(CNC(=O)NC(=O)c2ccc(C)cc2)cc1
REMARK SMILES IDX 11 1 12 2 10 3 8 4 9 5 7 6 13 9 19 10 18 11 14 12 16 13
REMARK SMILES IDX 15 14 17 15 6 16 5 17 4 18 20 19 3 20 21 21 2 22 1 23
REMARK H PARENT 10 7 7 8
ROOT
ATOM      1  C   UNL     1       5.401   2.486  -9.429  1.00  0.00     0.259 C 
ATOM      2  O   UNL     1       6.067   1.525  -9.788  1.00  0.00    -0.269 OA
ATOM      3  N   UNL     1       5.259   3.732 -10.046  1.00  0.00    -0.274 N 
ATOM      4  C   UNL     1       5.533   4.296 -11.266  1.00  0.00     0.321 C 
ATOM      5  O   UNL     1       5.117   5.441 -11.475  1.00  0.00    -0.248 OA
ATOM      6  N   UNL     1       6.200   3.660 -12.247  1.00  0.00    -0.334 N 
ATOM      7  H   UNL     1       4.666   4.380  -9.545  1.00  0.00     0.175 HD
ATOM      8  H   UNL     1       6.244   4.180 -13.112  1.00  0.00     0.165 HD
ENDROOT
BRANCH   1   9
ATOM      9  C   UNL     1       4.632   2.326  -8.180  1.00  0.00     0.040 A 
ATOM     10  C   UNL     1       3.846   3.362  -7.671  1.00  0.00     0.014 A 
ATOM     11  C   UNL     1       3.095   3.146  -6.515  1.00  0.00     0.004 A 
ATOM     12  C   UNL     1       4.716   1.102  -7.509  1.00  0.00     0.014 A 
ATOM     13  C   UNL     1       3.132   1.904  -5.863  1.00  0.00    -0.051 A 
ATOM     14  C   UNL     1       3.959   0.889  -6.358  1.00  0.00     0.004 A 
ATOM     15  C   UNL     1       2.254   1.661  -4.671  1.00  0.00     0.044 C 
ENDBRANCH   1   9
BRANCH   6  16
ATOM     16  C   UNL     1       6.673   2.305 -12.248  1.00  0.00     0.153 C 
BRANCH  16  17
ATOM     17  C   UNL     1       6.479   1.507 -13.507  1.00  0.00    -0.029 A 
ATOM     18  C   UNL     1       5.333   0.748 -13.761  1.00  0.00     0.006 A 
ATOM     19  C   UNL     1       7.400   1.713 -14.548  1.00  0.00     0.006 A 
ATOM     20  C   UNL     1       5.106   0.228 -15.040  1.00  0.00     0.004 A 
ATOM     21  C   UNL     1       7.171   1.200 -15.820  1.00  0.00     0.004 A 
ATOM     22  C   UNL     1       6.016   0.461 -16.080  1.00  0.00    -0.051 A 
ATOM     23  C   UNL     1       5.711   0.031 -17.484  1.00  0.00     0.044 C 
ENDBRANCH  16  17
ENDBRANCH   6  16
TORSDOF 3
ENDMDL
MODEL 6
REMARK VINA RESULT:    -4.978      5.052      8.021
REMARK INTER + INTRA:          -6.226
REMARK INTER:                  -5.836
REMARK INTRA:                  -0.391
REMARK UNBOUND:                -0.375
REMARK SMILES Cc1ccc(CNC(=O)NC(=O)c2ccc(C)cc2)cc1
REMARK SMILES IDX 11 1 12 2 10 3 8 4 9 5 7 6 13 9 19 10 18 11 14 12 16 13
REMARK SMILES IDX 15 14 17 15 6 16 5 17 4 18 20 19 3 20 21 21 2 22 1 23
REMARK H PARENT 10 7 7 8
ROOT
ATOM      1  C   UNL     1       9.479   9.328 -12.585  1.00  0.00     0.259 C 
ATOM      2  O   UNL     1      10.329   9.064 -13.424  1.00  0.00    -0.269 OA
ATOM      3  N   UNL     1       9.306  10.509 -11.856  1.00  0.00    -0.274 N 
ATOM      4  C   UNL     1       9.757  11.803 -11.901  1.00  0.00     0.321 C 
ATOM      5  O   UNL     1       9.246  12.616 -11.124  1.00  0.00    -0.248 OA
ATOM      6  N   UNL     1      10.697  12.234 -12.763  1.00  0.00    -0.334 N 
ATOM      7  H   UNL     1       8.538  10.484 -11.198  1.00  0.00     0.175 HD
ATOM      8  H   UNL     1      10.855  13.231 -12.727  1.00  0.00     0.165 HD
ENDROOT
BRANCH   1   9
ATOM      9  C   UNL     1       8.488   8.274 -12.293  1.00  0.00     0.040 A 
ATOM     10  C   UNL     1       7.711   7.705 -13.304  1.00  0.00     0.014 A 
ATOM     11  C   UNL     1       6.825   6.675 -12.987  1.00  0.00     0.004 A 
ATOM     12  C   UNL     1       8.342   7.860 -10.966  1.00  0.00     0.014 A 
ATOM     13  C   UNL     1       6.709   6.216 -11.666  1.00  0.00    -0.051 A 
ATOM     14  C   UNL     1       7.461   6.826 -10.655  1.00  0.00     0.004 A 
ATOM     15  C   UNL     1       5.816   5.051 -11.357  1.00  0.00     0.044 C 
ENDBRANCH   1   9
BRANCH   6  16
ATOM     16  C   UNL     1      11.337  11.485 -13.807  1.00  0.00     0.153 C 
BRANCH  16  17
ATOM     17  C   UNL     1      10.796  11.643 -15.201  1.00  0.00    -0.029 A 
ATOM     18  C   UNL     1      11.035  10.718 -16.222  1.00  0.00     0.006 A 
ATOM     19  C   UNL     1       9.843  12.654 -15.410  1.00  0.00     0.006 A 
ATOM     20  C   UNL     1      10.312  10.793 -17.418  1.00  0.00     0.004 A 
ATOM     21  C   UNL     1       9.122  12.725 -16.598  1.00  0.00     0.004 A 
ATOM     22  C   UNL     1       9.343  11.788 -17.609  1.00  0.00    -0.051 A 
ATOM     23  C   UNL     1       8.467  11.790 -18.826  1.00  0.00     0.044 C 
ENDBRANCH  16  17
ENDBRANCH   6  16
TORSDOF 3
ENDMDL
MODEL 7
REMARK VINA RESULT:    -4.592      3.837      7.810
REMARK INTER + INTRA:          -5.773
REMARK INTER:                  -5.355
REMARK INTRA:                  -0.417
REMARK UNBOUND:                -0.375
REMARK SMILES Cc1ccc(CNC(=O)NC(=O)c2ccc(C)cc2)cc1
REMARK SMILES IDX 11 1 12 2 10 3 8 4 9 5 7 6 13 9 19 10 18 11 14 12 16 13
REMARK SMILES IDX 15 14 17 15 6 16 5 17 4 18 20 19 3 20 21 21 2 22 1 23
REMARK H PARENT 10 7 7 8
ROOT
ATOM      1  C   UNL     1       5.871   2.130 -11.755  1.00  0.00     0.259 C 
ATOM      2  O   UNL     1       4.748   2.546 -11.506  1.00  0.00    -0.269 OA
ATOM      3  N   UNL     1       6.986   2.062 -10.913  1.00  0.00    -0.274 N 
ATOM      4  C   UNL     1       7.250   2.161  -9.571  1.00  0.00     0.321 C 
ATOM      5  O   UNL     1       8.396   1.897  -9.191  1.00  0.00    -0.248 OA
ATOM      6  N   UNL     1       6.325   2.499  -8.654  1.00  0.00    -0.334 N 
ATOM      7  H   UNL     1       7.820   1.696 -11.354  1.00  0.00     0.175 HD
ATOM      8  H   UNL     1       6.657   2.444  -7.702  1.00  0.00     0.165 HD
ENDROOT
BRANCH   1   9
ATOM      9  C   UNL     1       6.100   1.622 -13.122  1.00  0.00     0.040 A 
ATOM     10  C   UNL     1       5.219   0.720 -13.720  1.00  0.00     0.014 A 
ATOM     11  C   UNL     1       5.448   0.309 -15.033  1.00  0.00     0.004 A 
ATOM     12  C   UNL     1       7.235   2.067 -13.806  1.00  0.00     0.014 A 
ATOM     13  C   UNL     1       6.556   0.789 -15.747  1.00  0.00    -0.051 A 
ATOM     14  C   UNL     1       7.457   1.659 -15.120  1.00  0.00     0.004 A 
ATOM     15  C   UNL     1       6.742   0.405 -17.185  1.00  0.00     0.044 C 
ENDBRANCH   1   9
BRANCH   6  16
ATOM     16  C   UNL     1       4.926   2.741  -8.868  1.00  0.00     0.153 C 
BRANCH  16  17
ATOM     17  C   UNL     1       3.973   2.262  -7.809  1.00  0.00    -0.029 A 
ATOM     18  C   UNL     1       3.776   0.909  -7.514  1.00  0.00     0.006 A 
ATOM     19  C   UNL     1       3.425   3.230  -6.951  1.00  0.00     0.006 A 
ATOM     20  C   UNL     1       3.067   0.538  -6.367  1.00  0.00     0.004 A 
ATOM     21  C   UNL     1       2.724   2.860  -5.808  1.00  0.00     0.004 A 
ATOM     22  C   UNL     1       2.547   1.510  -5.501  1.00  0.00    -0.051 A 
ATOM     23  C   UNL     1       1.911   1.122  -4.199  1.00  0.00     0.044 C 
ENDBRANCH  16  17
ENDBRANCH   6  16
TORSDOF 3
ENDMDL
MODEL 8
REMARK VINA RESULT:    -4.372      2.050      3.643
REMARK INTER + INTRA:          -5.514
REMARK INTER:                  -5.023
REMARK INTRA:                  -0.491
REMARK UNBOUND:                -0.375
REMARK SMILES Cc1ccc(CNC(=O)NC(=O)c2ccc(C)cc2)cc1
REMARK SMILES IDX 11 1 12 2 10 3 8 4 9 5 7 6 13 9 19 10 18 11 14 12 16 13
REMARK SMILES IDX 15 14 17 15 6 16 5 17 4 18 20 19 3 20 21 21 2 22 1 23
REMARK H PARENT 10 7 7 8
ROOT
ATOM      1  C   UNL     1       6.336   5.683 -11.652  1.00  0.00     0.259 C 
ATOM      2  O   UNL     1       6.414   6.728 -11.021  1.00  0.00    -0.269 OA
ATOM      3  N   UNL     1       6.666   5.441 -12.989  1.00  0.00    -0.274 N 
ATOM      4  C   UNL     1       7.360   6.070 -13.992  1.00  0.00     0.321 C 
ATOM      5  O   UNL     1       7.548   5.442 -15.039  1.00  0.00    -0.248 OA
ATOM      6  N   UNL     1       7.866   7.312 -13.880  1.00  0.00    -0.334 N 
ATOM      7  H   UNL     1       6.493   4.493 -13.296  1.00  0.00     0.175 HD
ATOM      8  H   UNL     1       8.423   7.597 -14.674  1.00  0.00     0.165 HD
ENDROOT
BRANCH   1   9
ATOM      9  C   UNL     1       5.831   4.506 -10.920  1.00  0.00     0.040 A 
ATOM     10  C   UNL     1       6.701   3.582 -10.339  1.00  0.00     0.014 A 
ATOM     11  C   UNL     1       6.177   2.513  -9.611  1.00  0.00     0.004 A 
ATOM     12  C   UNL     1       4.446   4.334 -10.828  1.00  0.00     0.014 A 
ATOM     13  C   UNL     1       4.790   2.360  -9.469  1.00  0.00    -0.051 A 
ATOM     14  C   UNL     1       3.927   3.269 -10.095  1.00  0.00     0.004 A 
ATOM     15  C   UNL     1       4.244   1.255  -8.613  1.00  0.00     0.044 C 
ENDBRANCH   1   9
BRANCH   6  16
ATOM     16  C   UNL     1       7.851   8.164 -12.725  1.00  0.00     0.153 C 
BRANCH  16  17
ATOM     17  C   UNL     1       9.152   8.797 -12.317  1.00  0.00    -0.029 A 
ATOM     18  C   UNL     1      10.089   8.157 -11.500  1.00  0.00     0.006 A 
ATOM     19  C   UNL     1       9.516   9.991 -12.962  1.00  0.00     0.006 A 
ATOM     20  C   UNL     1      11.373   8.693 -11.355  1.00  0.00     0.004 A 
ATOM     21  C   UNL     1      10.795  10.520 -12.821  1.00  0.00     0.004 A 
ATOM     22  C   UNL     1      11.739   9.870 -12.024  1.00  0.00    -0.051 A 
ATOM     23  C   UNL     1      13.151  10.371 -11.988  1.00  0.00     0.044 C 
ENDBRANCH  16  17
ENDBRANCH   6  16
TORSDOF 3
ENDMDL
MODEL 9
REMARK VINA RESULT:    -3.621      5.013      9.873
REMARK INTER + INTRA:          -4.632
REMARK INTER:                  -4.056
REMARK INTRA:                  -0.576
REMARK UNBOUND:                -0.375
REMARK SMILES Cc1ccc(CNC(=O)NC(=O)c2ccc(C)cc2)cc1
REMARK SMILES IDX 11 1 12 2 10 3 8 4 9 5 7 6 13 9 19 10 18 11 14 12 16 13
REMARK SMILES IDX 15 14 17 15 6 16 5 17 4 18 20 19 3 20 21 21 2 22 1 23
REMARK H PARENT 10 7 7 8
ROOT
ATOM      1  C   UNL     1      11.199   8.310 -15.056  1.00  0.00     0.259 C 
ATOM      2  O   UNL     1      10.025   8.512 -15.333  1.00  0.00    -0.269 OA
ATOM      3  N   UNL     1      11.900   8.671 -13.901  1.00  0.00    -0.274 N 
ATOM      4  C   UNL     1      11.609   9.112 -12.635  1.00  0.00     0.321 C 
ATOM      5  O   UNL     1      12.542   9.194 -11.828  1.00  0.00    -0.248 OA
ATOM      6  N   UNL     1      10.367   9.426 -12.224  1.00  0.00    -0.334 N 
ATOM      7  H   UNL     1      12.878   8.412 -13.909  1.00  0.00     0.175 HD
ATOM      8  H   UNL     1      10.309   9.651 -11.241  1.00  0.00     0.165 HD
ENDROOT
BRANCH   1   9
ATOM      9  C   UNL     1      12.000   7.585 -16.061  1.00  0.00     0.040 A 
ATOM     10  C   UNL     1      13.391   7.695 -16.100  1.00  0.00     0.014 A 
ATOM     11  C   UNL     1      14.109   6.949 -17.035  1.00  0.00     0.004 A 
ATOM     12  C   UNL     1      11.323   6.783 -16.985  1.00  0.00     0.014 A 
ATOM     13  C   UNL     1      13.444   6.101 -17.933  1.00  0.00    -0.051 A 
ATOM     14  C   UNL     1      12.046   6.035 -17.913  1.00  0.00     0.004 A 
ATOM     15  C   UNL     1      14.235   5.242 -18.875  1.00  0.00     0.044 C 
ENDBRANCH   1   9
BRANCH   6  16
ATOM     16  C   UNL     1       9.142   9.303 -12.962  1.00  0.00     0.153 C 
BRANCH  16  17
ATOM     17  C   UNL     1       8.159   8.263 -12.499  1.00  0.00    -0.029 A 
ATOM     18  C   UNL     1       7.393   7.492 -13.379  1.00  0.00     0.006 A 
ATOM     19  C   UNL     1       8.180   7.920 -11.138  1.00  0.00     0.006 A 
ATOM     20  C   UNL     1       6.682   6.385 -12.903  1.00  0.00     0.004 A 
ATOM     21  C   UNL     1       7.476   6.816 -10.666  1.00  0.00     0.004 A 
ATOM     22  C   UNL     1       6.729   6.032 -11.547  1.00  0.00    -0.051 A 
ATOM     23  C   UNL     1       6.088   4.769 -11.056  1.00  0.00     0.044 C 
ENDBRANCH  16  17
ENDBRANCH   6  16
TORSDOF 3
ENDMDL
