MODEL 1
REMARK VINA RESULT:    -4.289      0.000      0.000
REMARK INTER + INTRA:          -5.798
REMARK INTER:                  -5.668
REMARK INTRA:                  -0.130
REMARK UNBOUND:                -0.130
REMARK SMILES [H]/N=C\C[C@H]1C[C@@H]1O[C@H]1CO[C@H]2C[C@@H](C3CC3)CCN2C1
REMARK SMILES IDX 7 1 6 2 5 3 8 4 9 5 14 6 13 7 18 8 12 9 19 10 20 11 11 12
REMARK SMILES IDX 21 13 10 14 15 15 16 16 17 17 4 18 3 19 2 20 1 21
REMARK H PARENT
ROOT
ATOM      1  C   UNL     1      11.351  -4.367  -3.288  1.00  0.00     0.122 C 
ATOM      2  C   UNL     1      11.932  -4.119  -1.924  1.00  0.00     0.039 C 
ATOM      3  C   UNL     1      11.292  -2.992  -2.682  1.00  0.00     0.026 C 
ENDROOT
BRANCH   1   4
ATOM      4  O   UNL     1      12.338  -4.577  -4.316  1.00  0.00    -0.371 OA
BRANCH   4   5
ATOM      5  C   UNL     1      12.008  -5.576  -5.296  1.00  0.00     0.158 C 
ATOM      6  C   UNL     1      15.471  -4.247  -8.963  1.00  0.00    -0.003 C 
ATOM      7  C   UNL     1      14.169  -3.650  -8.414  1.00  0.00     0.052 C 
ATOM      8  C   UNL     1      16.207  -4.983  -7.835  1.00  0.00     0.019 C 
ATOM      9  C   UNL     1      13.318  -4.705  -7.695  1.00  0.00     0.189 C 
ATOM     10  C   UNL     1      15.296  -5.993  -7.139  1.00  0.00     0.087 C 
ATOM     11  N   UNL     1      14.089  -5.343  -6.628  1.00  0.00    -0.276 NA
ATOM     12  O   UNL     1      12.165  -4.026  -7.192  1.00  0.00    -0.360 OA
ATOM     13  C   UNL     1      13.244  -6.282  -5.881  1.00  0.00     0.121 C 
ATOM     14  C   UNL     1      11.286  -4.884  -6.457  1.00  0.00     0.195 C 
BRANCH   6  15
ATOM     15  C   UNL     1      16.357  -3.182  -9.569  1.00  0.00    -0.008 C 
ATOM     16  C   UNL     1      17.320  -3.530 -10.679  1.00  0.00     0.004 C 
ATOM     17  C   UNL     1      16.117  -2.682 -10.973  1.00  0.00     0.004 C 
ENDBRANCH   6  15
ENDBRANCH   4   5
ENDBRANCH   1   4
BRANCH   3  18
ATOM     18  C   UNL     1       9.988  -2.436  -2.195  1.00  0.00     0.053 C 
BRANCH  18  19
ATOM     19  C   UNL     1       9.763  -0.964  -2.424  1.00  0.00     0.074 C 
BRANCH  19  20
ATOM     20  N   UNL     1      10.656  -0.037  -2.319  1.00  0.00    -0.313 NA
ATOM     21  H   UNL     1      10.807   0.448  -3.215  1.00  0.00     0.186 HD
ENDBRANCH  19  20
ENDBRANCH  18  19
ENDBRANCH   3  18
TORSDOF 6
ENDMDL
MODEL 2
REMARK VINA RESULT:    -4.168      5.589      8.561
REMARK INTER + INTRA:          -5.638
REMARK INTER:                  -5.349
REMARK INTRA:                  -0.289
REMARK UNBOUND:                -0.130
REMARK SMILES [H]/N=C\C[C@H]1C[C@@H]1O[C@H]1CO[C@H]2C[C@@H](C3CC3)CCN2C1
REMARK SMILES IDX 7 1 6 2 5 3 8 4 9 5 14 6 13 7 18 8 12 9 19 10 20 11 11 12
REMARK SMILES IDX 21 13 10 14 15 15 16 16 17 17 4 18 3 19 2 20 1 21
REMARK H PARENT
ROOT
ATOM      1  C   UNL     1      11.461  -4.727  -2.122  1.00  0.00     0.122 C 
ATOM      2  C   UNL     1      11.212  -5.292  -3.492  1.00  0.00     0.039 C 
ATOM      3  C   UNL     1      10.416  -5.791  -2.320  1.00  0.00     0.026 C 
ENDROOT
BRANCH   1   4
ATOM      4  O   UNL     1      12.706  -5.148  -1.532  1.00  0.00    -0.371 OA
BRANCH   4   5
ATOM      5  C   UNL     1      13.335  -4.190  -0.665  1.00  0.00     0.158 C 
ATOM      6  C   UNL     1      16.675  -7.391   1.745  1.00  0.00    -0.003 C 
ATOM      7  C   UNL     1      15.159  -7.159   1.776  1.00  0.00     0.052 C 
ATOM      8  C   UNL     1      17.204  -7.100   0.333  1.00  0.00     0.019 C 
ATOM      9  C   UNL     1      14.784  -5.771   1.241  1.00  0.00     0.189 C 
ATOM     10  C   UNL     1      16.767  -5.719  -0.154  1.00  0.00     0.087 C 
ATOM     11  N   UNL     1      15.311  -5.585  -0.111  1.00  0.00    -0.276 NA
ATOM     12  O   UNL     1      13.358  -5.691   1.276  1.00  0.00    -0.360 OA
ATOM     13  C   UNL     1      14.871  -4.296  -0.657  1.00  0.00     0.121 C 
ATOM     14  C   UNL     1      12.853  -4.453   0.765  1.00  0.00     0.195 C 
BRANCH   6  15
ATOM     15  C   UNL     1      17.030  -8.799   2.165  1.00  0.00    -0.008 C 
ATOM     16  C   UNL     1      18.091  -9.039   3.212  1.00  0.00     0.004 C 
ATOM     17  C   UNL     1      16.651  -9.317   3.531  1.00  0.00     0.004 C 
ENDBRANCH   6  15
ENDBRANCH   4   5
ENDBRANCH   1   4
BRANCH   3  18
ATOM     18  C   UNL     1       8.960  -5.445  -2.230  1.00  0.00     0.053 C 
BRANCH  18  19
ATOM     19  C   UNL     1       8.022  -6.584  -1.926  1.00  0.00     0.074 C 
BRANCH  19  20
ATOM     20  N   UNL     1       8.270  -7.838  -2.109  1.00  0.00    -0.313 NA
ATOM     21  H   UNL     1       9.020  -8.172  -1.486  1.00  0.00     0.186 HD
ENDBRANCH  19  20
ENDBRANCH  18  19
ENDBRANCH   3  18
TORSDOF 6
ENDMDL
MODEL 3
REMARK VINA RESULT:    -4.088      2.756      8.659
REMARK INTER + INTRA:          -5.532
REMARK INTER:                  -5.282
REMARK INTRA:                  -0.251
REMARK UNBOUND:                -0.130
REMARK SMILES [H]/N=C\C[C@H]1C[C@@H]1O[C@H]1CO[C@H]2C[C@@H](C3CC3)CCN2C1
REMARK SMILES IDX 7 1 6 2 5 3 8 4 9 5 14 6 13 7 18 8 12 9 19 10 20 11 11 12
REMARK SMILES IDX 21 13 10 14 15 15 16 16 17 17 4 18 3 19 2 20 1 21
REMARK H PARENT
ROOT
ATOM      1  C   UNL     1      12.285  -4.684  -5.288  1.00  0.00     0.122 C 
ATOM      2  C   UNL     1      12.983  -5.893  -5.844  1.00  0.00     0.039 C 
ATOM      3  C   UNL     1      12.278  -4.943  -6.770  1.00  0.00     0.026 C 
ENDROOT
BRANCH   1   4
ATOM      4  O   UNL     1      11.070  -4.983  -4.575  1.00  0.00    -0.371 OA
BRANCH   4   5
ATOM      5  C   UNL     1      11.242  -5.523  -3.255  1.00  0.00     0.158 C 
ATOM      6  C   UNL     1       7.357  -2.997  -0.861  1.00  0.00    -0.003 C 
ATOM      7  C   UNL     1       8.734  -2.617  -1.420  1.00  0.00     0.052 C 
ATOM      8  C   UNL     1       6.759  -4.128  -1.710  1.00  0.00     0.019 C 
ATOM      9  C   UNL     1       9.648  -3.842  -1.564  1.00  0.00     0.189 C 
ATOM     10  C   UNL     1       7.731  -5.300  -1.842  1.00  0.00     0.087 C 
ATOM     11  N   UNL     1       9.010  -4.860  -2.398  1.00  0.00    -0.276 NA
ATOM     12  O   UNL     1      10.873  -3.373  -2.132  1.00  0.00    -0.360 OA
ATOM     13  C   UNL     1       9.924  -5.988  -2.613  1.00  0.00     0.121 C 
ATOM     14  C   UNL     1      11.820  -4.420  -2.362  1.00  0.00     0.195 C 
BRANCH   6  15
ATOM     15  C   UNL     1       6.424  -1.807  -0.830  1.00  0.00    -0.008 C 
ATOM     16  C   UNL     1       5.659  -1.471   0.428  1.00  0.00     0.004 C 
ATOM     17  C   UNL     1       6.771  -0.573  -0.032  1.00  0.00     0.004 C 
ENDBRANCH   6  15
ENDBRANCH   4   5
ENDBRANCH   1   4
BRANCH   3  18
ATOM     18  C   UNL     1      13.094  -4.086  -7.691  1.00  0.00     0.053 C 
BRANCH  18  19
ATOM     19  C   UNL     1      14.091  -4.806  -8.562  1.00  0.00     0.074 C 
BRANCH  19  20
ATOM     20  N   UNL     1      13.876  -5.238  -9.759  1.00  0.00    -0.313 NA
ATOM     21  H   UNL     1      13.012  -4.843 -10.157  1.00  0.00     0.186 HD
ENDBRANCH  19  20
ENDBRANCH  18  19
ENDBRANCH   3  18
TORSDOF 6
ENDMDL
MODEL 4
REMARK VINA RESULT:    -4.024      5.304      8.491
REMARK INTER + INTRA:          -5.448
REMARK INTER:                  -5.212
REMARK INTRA:                  -0.236
REMARK UNBOUND:                -0.130
REMARK SMILES [H]/N=C\C[C@H]1C[C@@H]1O[C@H]1CO[C@H]2C[C@@H](C3CC3)CCN2C1
REMARK SMILES IDX 7 1 6 2 5 3 8 4 9 5 14 6 13 7 18 8 12 9 19 10 20 11 11 12
REMARK SMILES IDX 21 13 10 14 15 15 16 16 17 17 4 18 3 19 2 20 1 21
REMARK H PARENT
ROOT
ATOM      1  C   UNL     1      13.106  -5.183  -0.488  1.00  0.00     0.122 C 
ATOM      2  C   UNL     1      14.545  -4.749  -0.459  1.00  0.00     0.039 C 
ATOM      3  C   UNL     1      13.861  -5.158   0.814  1.00  0.00     0.026 C 
ENDROOT
BRANCH   1   4
ATOM      4  O   UNL     1      12.174  -4.109  -0.713  1.00  0.00    -0.371 OA
BRANCH   4   5
ATOM      5  C   UNL     1      12.110  -3.617  -2.062  1.00  0.00     0.158 C 
ATOM      6  C   UNL     1       6.924  -3.481  -2.601  1.00  0.00    -0.003 C 
ATOM      7  C   UNL     1       7.992  -4.579  -2.530  1.00  0.00     0.052 C 
ATOM      8  C   UNL     1       7.360  -2.292  -1.733  1.00  0.00     0.019 C 
ATOM      9  C   UNL     1       9.389  -4.038  -2.865  1.00  0.00     0.189 C 
ATOM     10  C   UNL     1       8.769  -1.824  -2.094  1.00  0.00     0.087 C 
ATOM     11  N   UNL     1       9.730  -2.922  -1.983  1.00  0.00    -0.276 NA
ATOM     12  O   UNL     1      10.296  -5.132  -2.721  1.00  0.00    -0.360 OA
ATOM     13  C   UNL     1      11.101  -2.469  -2.241  1.00  0.00     0.121 C 
ATOM     14  C   UNL     1      11.658  -4.767  -2.968  1.00  0.00     0.195 C 
BRANCH   6  15
ATOM     15  C   UNL     1       5.572  -3.993  -2.160  1.00  0.00    -0.008 C 
ATOM     16  C   UNL     1       4.341  -3.711  -2.989  1.00  0.00     0.004 C 
ATOM     17  C   UNL     1       4.884  -5.108  -2.910  1.00  0.00     0.004 C 
ENDBRANCH   6  15
ENDBRANCH   4   5
ENDBRANCH   1   4
BRANCH   3  18
ATOM     18  C   UNL     1      14.266  -6.440   1.477  1.00  0.00     0.053 C 
BRANCH  18  19
ATOM     19  C   UNL     1      15.734  -6.602   1.773  1.00  0.00     0.074 C 
BRANCH  19  20
ATOM     20  N   UNL     1      16.465  -5.781   2.451  1.00  0.00    -0.313 NA
ATOM     21  H   UNL     1      16.784  -4.990   1.874  1.00  0.00     0.186 HD
ENDBRANCH  19  20
ENDBRANCH  18  19
ENDBRANCH   3  18
TORSDOF 6
ENDMDL
MODEL 5
REMARK VINA RESULT:    -3.828      4.837      7.688
REMARK INTER + INTRA:          -5.188
REMARK INTER:                  -5.000
REMARK INTRA:                  -0.188
REMARK UNBOUND:                -0.130
REMARK SMILES [H]/N=C\C[C@H]1C[C@@H]1O[C@H]1CO[C@H]2C[C@@H](C3CC3)CCN2C1
REMARK SMILES IDX 7 1 6 2 5 3 8 4 9 5 14 6 13 7 18 8 12 9 19 10 20 11 11 12
REMARK SMILES IDX 21 13 10 14 15 15 16 16 17 17 4 18 3 19 2 20 1 21
REMARK H PARENT
ROOT
ATOM      1  C   UNL     1      15.770  -7.413   1.531  1.00  0.00     0.122 C 
ATOM      2  C   UNL     1      15.410  -8.548   2.447  1.00  0.00     0.039 C 
ATOM      3  C   UNL     1      16.103  -8.828   1.145  1.00  0.00     0.026 C 
ENDROOT
BRANCH   1   4
ATOM      4  O   UNL     1      14.641  -6.813   0.868  1.00  0.00    -0.371 OA
BRANCH   4   5
ATOM      5  C   UNL     1      14.650  -5.377   0.806  1.00  0.00     0.158 C 
ATOM      6  C   UNL     1      12.033  -4.768  -3.664  1.00  0.00    -0.003 C 
ATOM      7  C   UNL     1      13.434  -5.251  -3.269  1.00  0.00     0.052 C 
ATOM      8  C   UNL     1      11.036  -5.142  -2.558  1.00  0.00     0.019 C 
ATOM      9  C   UNL     1      13.834  -4.755  -1.872  1.00  0.00     0.189 C 
ATOM     10  C   UNL     1      11.510  -4.650  -1.190  1.00  0.00     0.087 C 
ATOM     11  N   UNL     1      12.842  -5.168  -0.880  1.00  0.00    -0.276 NA
ATOM     12  O   UNL     1      15.126  -5.303  -1.599  1.00  0.00    -0.360 OA
ATOM     13  C   UNL     1      13.274  -4.776   0.466  1.00  0.00     0.121 C 
ATOM     14  C   UNL     1      15.619  -4.954  -0.302  1.00  0.00     0.195 C 
BRANCH   6  15
ATOM     15  C   UNL     1      11.598  -5.353  -4.989  1.00  0.00    -0.008 C 
ATOM     16  C   UNL     1      11.800  -4.577  -6.269  1.00  0.00     0.004 C 
ATOM     17  C   UNL     1      12.618  -5.808  -6.006  1.00  0.00     0.004 C 
ENDBRANCH   6  15
ENDBRANCH   4   5
ENDBRANCH   1   4
BRANCH   3  18
ATOM     18  C   UNL     1      17.525  -9.303   1.166  1.00  0.00     0.053 C 
BRANCH  18  19
ATOM     19  C   UNL     1      18.217  -9.394  -0.170  1.00  0.00     0.074 C 
BRANCH  19  20
ATOM     20  N   UNL     1      17.728  -9.013  -1.303  1.00  0.00    -0.313 NA
ATOM     21  H   UNL     1      18.366  -9.227  -2.082  1.00  0.00     0.186 HD
ENDBRANCH  19  20
ENDBRANCH  18  19
ENDBRANCH   3  18
TORSDOF 6
ENDMDL
MODEL 6
REMARK VINA RESULT:    -3.570      6.358      9.259
REMARK INTER + INTRA:          -4.847
REMARK INTER:                  -4.628
REMARK INTRA:                  -0.219
REMARK UNBOUND:                -0.130
REMARK SMILES [H]/N=C\C[C@H]1C[C@@H]1O[C@H]1CO[C@H]2C[C@@H](C3CC3)CCN2C1
REMARK SMILES IDX 7 1 6 2 5 3 8 4 9 5 14 6 13 7 18 8 12 9 19 10 20 11 11 12
REMARK SMILES IDX 21 13 10 14 15 15 16 16 17 17 4 18 3 19 2 20 1 21
REMARK H PARENT
ROOT
ATOM      1  C   UNL     1      16.634  -8.212   1.341  1.00  0.00     0.122 C 
ATOM      2  C   UNL     1      16.354  -9.680   1.187  1.00  0.00     0.039 C 
ATOM      3  C   UNL     1      17.547  -9.224   1.978  1.00  0.00     0.026 C 
ENDROOT
BRANCH   1   4
ATOM      4  O   UNL     1      17.113  -7.576   0.141  1.00  0.00    -0.371 OA
BRANCH   4   5
ATOM      5  C   UNL     1      17.402  -6.173   0.255  1.00  0.00     0.158 C 
ATOM      6  C   UNL     1      12.741  -4.297  -1.147  1.00  0.00    -0.003 C 
ATOM      7  C   UNL     1      13.911  -4.982  -1.865  1.00  0.00     0.052 C 
ATOM      8  C   UNL     1      12.645  -4.831   0.289  1.00  0.00     0.019 C 
ATOM      9  C   UNL     1      15.216  -4.867  -1.065  1.00  0.00     0.189 C 
ATOM     10  C   UNL     1      13.984  -4.720   1.018  1.00  0.00     0.087 C 
ATOM     11  N   UNL     1      15.040  -5.413   0.280  1.00  0.00    -0.276 NA
ATOM     12  O   UNL     1      16.212  -5.575  -1.806  1.00  0.00    -0.360 OA
ATOM     13  C   UNL     1      16.313  -5.390   1.010  1.00  0.00     0.121 C 
ATOM     14  C   UNL     1      17.488  -5.588  -1.158  1.00  0.00     0.195 C 
BRANCH   6  15
ATOM     15  C   UNL     1      11.437  -4.511  -1.882  1.00  0.00    -0.008 C 
ATOM     16  C   UNL     1      10.710  -3.342  -2.503  1.00  0.00     0.004 C 
ATOM     17  C   UNL     1      11.363  -4.369  -3.383  1.00  0.00     0.004 C 
ENDBRANCH   6  15
ENDBRANCH   4   5
ENDBRANCH   1   4
BRANCH   3  18
ATOM     18  C   UNL     1      17.547  -9.411   3.465  1.00  0.00     0.053 C 
BRANCH  18  19
ATOM     19  C   UNL     1      17.642 -10.832   3.958  1.00  0.00     0.074 C 
BRANCH  19  20
ATOM     20  N   UNL     1      18.444 -11.738   3.506  1.00  0.00    -0.313 NA
ATOM     21  H   UNL     1      17.941 -12.603   3.265  1.00  0.00     0.186 HD
ENDBRANCH  19  20
ENDBRANCH  18  19
ENDBRANCH   3  18
TORSDOF 6
ENDMDL
MODEL 7
REMARK VINA RESULT:    -3.471      4.566      5.251
REMARK INTER + INTRA:          -4.717
REMARK INTER:                  -4.505
REMARK INTRA:                  -0.212
REMARK UNBOUND:                -0.130
REMARK SMILES [H]/N=C\C[C@H]1C[C@@H]1O[C@H]1CO[C@H]2C[C@@H](C3CC3)CCN2C1
REMARK SMILES IDX 7 1 6 2 5 3 8 4 9 5 14 6 13 7 18 8 12 9 19 10 20 11 11 12
REMARK SMILES IDX 21 13 10 14 15 15 16 16 17 17 4 18 3 19 2 20 1 21
REMARK H PARENT
ROOT
ATOM      1  C   UNL     1      17.767  -6.278  -2.991  1.00  0.00     0.122 C 
ATOM      2  C   UNL     1      18.654  -5.150  -2.545  1.00  0.00     0.039 C 
ATOM      3  C   UNL     1      17.490  -5.570  -1.693  1.00  0.00     0.026 C 
ENDROOT
BRANCH   1   4
ATOM      4  O   UNL     1      16.910  -5.947  -4.101  1.00  0.00    -0.371 OA
BRANCH   4   5
ATOM      5  C   UNL     1      16.543  -7.047  -4.949  1.00  0.00     0.158 C 
ATOM      6  C   UNL     1      17.485  -4.822  -9.571  1.00  0.00    -0.003 C 
ATOM      7  C   UNL     1      16.423  -4.670  -8.475  1.00  0.00     0.052 C 
ATOM      8  C   UNL     1      18.825  -5.208  -8.929  1.00  0.00     0.019 C 
ATOM      9  C   UNL     1      16.351  -5.912  -7.576  1.00  0.00     0.189 C 
ATOM     10  C   UNL     1      18.678  -6.428  -8.020  1.00  0.00     0.087 C 
ATOM     11  N   UNL     1      17.662  -6.197  -6.994  1.00  0.00    -0.276 NA
ATOM     12  O   UNL     1      15.368  -5.636  -6.576  1.00  0.00    -0.360 OA
ATOM     13  C   UNL     1      17.570  -7.326  -6.061  1.00  0.00     0.121 C 
ATOM     14  C   UNL     1      15.216  -6.700  -5.631  1.00  0.00     0.195 C 
BRANCH   6  15
ATOM     15  C   UNL     1      17.631  -3.554 -10.381  1.00  0.00    -0.008 C 
ATOM     16  C   UNL     1      16.921  -3.408 -11.707  1.00  0.00     0.004 C 
ATOM     17  C   UNL     1      16.476  -2.592 -10.528  1.00  0.00     0.004 C 
ENDBRANCH   6  15
ENDBRANCH   4   5
ENDBRANCH   1   4
BRANCH   3  18
ATOM     18  C   UNL     1      17.757  -6.257  -0.387  1.00  0.00     0.053 C 
BRANCH  18  19
ATOM     19  C   UNL     1      16.883  -5.849   0.771  1.00  0.00     0.074 C 
BRANCH  19  20
ATOM     20  N   UNL     1      17.288  -5.579   1.967  1.00  0.00    -0.313 NA
ATOM     21  H   UNL     1      18.296  -5.371   1.989  1.00  0.00     0.186 HD
ENDBRANCH  19  20
ENDBRANCH  18  19
ENDBRANCH   3  18
TORSDOF 6
ENDMDL
MODEL 8
REMARK VINA RESULT:    -3.455      6.236      9.146
REMARK INTER + INTRA:          -4.695
REMARK INTER:                  -4.421
REMARK INTRA:                  -0.274
REMARK UNBOUND:                -0.130
REMARK SMILES [H]/N=C\C[C@H]1C[C@@H]1O[C@H]1CO[C@H]2C[C@@H](C3CC3)CCN2C1
REMARK SMILES IDX 7 1 6 2 5 3 8 4 9 5 14 6 13 7 18 8 12 9 19 10 20 11 11 12
REMARK SMILES IDX 21 13 10 14 15 15 16 16 17 17 4 18 3 19 2 20 1 21
REMARK H PARENT
ROOT
ATOM      1  C   UNL     1      16.199  -6.327  -4.914  1.00  0.00     0.122 C 
ATOM      2  C   UNL     1      16.019  -7.561  -5.754  1.00  0.00     0.039 C 
ATOM      3  C   UNL     1      14.816  -6.821  -5.242  1.00  0.00     0.026 C 
ENDROOT
BRANCH   1   4
ATOM      4  O   UNL     1      16.679  -6.589  -3.582  1.00  0.00    -0.371 OA
BRANCH   4   5
ATOM      5  C   UNL     1      18.104  -6.522  -3.412  1.00  0.00     0.158 C 
ATOM      6  C   UNL     1      18.375  -8.093   1.554  1.00  0.00    -0.003 C 
ATOM      7  C   UNL     1      17.907  -6.827   0.827  1.00  0.00     0.052 C 
ATOM      8  C   UNL     1      18.108  -9.316   0.665  1.00  0.00     0.019 C 
ATOM      9  C   UNL     1      18.512  -6.721  -0.579  1.00  0.00     0.189 C 
ATOM     10  C   UNL     1      18.706  -9.133  -0.729  1.00  0.00     0.087 C 
ATOM     11  N   UNL     1      18.196  -7.916  -1.361  1.00  0.00    -0.276 NA
ATOM     12  O   UNL     1      17.971  -5.537  -1.168  1.00  0.00    -0.360 OA
ATOM     13  C   UNL     1      18.693  -7.772  -2.735  1.00  0.00     0.121 C 
ATOM     14  C   UNL     1      18.420  -5.324  -2.510  1.00  0.00     0.195 C 
BRANCH   6  15
ATOM     15  C   UNL     1      17.688  -8.250   2.893  1.00  0.00    -0.008 C 
ATOM     16  C   UNL     1      18.489  -8.200   4.172  1.00  0.00     0.004 C 
ATOM     17  C   UNL     1      17.551  -7.078   3.834  1.00  0.00     0.004 C 
ENDBRANCH   6  15
ENDBRANCH   4   5
ENDBRANCH   1   4
BRANCH   3  18
ATOM     18  C   UNL     1      13.956  -6.070  -6.214  1.00  0.00     0.053 C 
BRANCH  18  19
ATOM     19  C   UNL     1      12.619  -5.604  -5.699  1.00  0.00     0.074 C 
BRANCH  19  20
ATOM     20  N   UNL     1      12.371  -5.192  -4.501  1.00  0.00    -0.313 NA
ATOM     21  H   UNL     1      13.204  -5.250  -3.899  1.00  0.00     0.186 HD
ENDBRANCH  19  20
ENDBRANCH  18  19
ENDBRANCH   3  18
TORSDOF 6
ENDMDL
MODEL 9
REMARK VINA RESULT:    -3.438      2.632      7.583
REMARK INTER + INTRA:          -4.673
REMARK INTER:                  -5.142
REMARK INTRA:                   0.470
REMARK UNBOUND:                -0.130
REMARK SMILES [H]/N=C\C[C@H]1C[C@@H]1O[C@H]1CO[C@H]2C[C@@H](C3CC3)CCN2C1
REMARK SMILES IDX 7 1 6 2 5 3 8 4 9 5 14 6 13 7 18 8 12 9 19 10 20 11 11 12
REMARK SMILES IDX 21 13 10 14 15 15 16 16 17 17 4 18 3 19 2 20 1 21
REMARK H PARENT
ROOT
ATOM      1  C   UNL     1      17.839  -4.225  -8.216  1.00  0.00     0.122 C 
ATOM      2  C   UNL     1      18.080  -5.207  -9.328  1.00  0.00     0.039 C 
ATOM      3  C   UNL     1      17.407  -3.896  -9.619  1.00  0.00     0.026 C 
ENDROOT
BRANCH   1   4
ATOM      4  O   UNL     1      16.801  -4.621  -7.299  1.00  0.00    -0.371 OA
BRANCH   4   5
ATOM      5  C   UNL     1      16.180  -5.887  -7.574  1.00  0.00     0.158 C 
ATOM      6  C   UNL     1      11.888  -5.302  -4.669  1.00  0.00    -0.003 C 
ATOM      7  C   UNL     1      13.378  -5.536  -4.392  1.00  0.00     0.052 C 
ATOM      8  C   UNL     1      11.735  -4.465  -5.947  1.00  0.00     0.019 C 
ATOM      9  C   UNL     1      14.099  -6.122  -5.614  1.00  0.00     0.189 C 
ATOM     10  C   UNL     1      12.503  -5.083  -7.114  1.00  0.00     0.087 C 
ATOM     11  N   UNL     1      13.916  -5.256  -6.778  1.00  0.00    -0.276 NA
ATOM     12  O   UNL     1      15.476  -6.251  -5.252  1.00  0.00    -0.360 OA
ATOM     13  C   UNL     1      14.685  -5.767  -7.919  1.00  0.00     0.121 C 
ATOM     14  C   UNL     1      16.290  -6.755  -6.316  1.00  0.00     0.195 C 
BRANCH   6  15
ATOM     15  C   UNL     1      11.207  -4.621  -3.503  1.00  0.00    -0.008 C 
ATOM     16  C   UNL     1      10.386  -5.424  -2.523  1.00  0.00     0.004 C 
ATOM     17  C   UNL     1      11.696  -4.832  -2.091  1.00  0.00     0.004 C 
ENDBRANCH   6  15
ENDBRANCH   4   5
ENDBRANCH   1   4
BRANCH   3  18
ATOM     18  C   UNL     1      18.145  -2.861 -10.414  1.00  0.00     0.053 C 
BRANCH  18  19
ATOM     19  C   UNL     1      17.353  -2.148 -11.478  1.00  0.00     0.074 C 
BRANCH  19  20
ATOM     20  N   UNL     1      17.636  -0.996 -11.989  1.00  0.00    -0.313 NA
ATOM     21  H   UNL     1      18.632  -0.762 -11.869  1.00  0.00     0.186 HD
ENDBRANCH  19  20
ENDBRANCH  18  19
ENDBRANCH   3  18
TORSDOF 6
ENDMDL
