MODEL 1
REMARK VINA RESULT:    -6.082      0.000      0.000
REMARK INTER + INTRA:          -7.537
REMARK INTER:                  -7.148
REMARK INTRA:                  -0.389
REMARK UNBOUND:                -0.389
REMARK SMILES Cc1ccc(CNC(=O)NC(=O)c2ccc(C)cc2)cc1
REMARK SMILES IDX 11 1 12 2 10 3 8 4 9 5 7 6 13 9 19 10 18 11 14 12 16 13
REMARK SMILES IDX 15 14 17 15 6 16 5 17 4 18 20 19 3 20 21 21 2 22 1 23
REMARK H PARENT 10 7 7 8
ROOT
ATOM      1  C   UNL     1       9.983  -4.027  -2.596  1.00  0.00     0.259 C 
ATOM      2  O   UNL     1       9.642  -4.435  -3.697  1.00  0.00    -0.269 OA
ATOM      3  N   UNL     1      11.193  -4.230  -1.924  1.00  0.00    -0.274 N 
ATOM      4  C   UNL     1      12.454  -4.678  -2.221  1.00  0.00     0.321 C 
ATOM      5  O   UNL     1      13.320  -4.577  -1.344  1.00  0.00    -0.248 OA
ATOM      6  N   UNL     1      12.800  -5.190  -3.416  1.00  0.00    -0.334 N 
ATOM      7  H   UNL     1      11.236  -3.807  -1.006  1.00  0.00     0.175 HD
ATOM      8  H   UNL     1      13.785  -5.394  -3.502  1.00  0.00     0.165 HD
ENDROOT
BRANCH   1   9
ATOM      9  C   UNL     1       9.003  -3.203  -1.863  1.00  0.00     0.040 A 
ATOM     10  C   UNL     1       8.185  -3.752  -0.874  1.00  0.00     0.014 A 
ATOM     11  C   UNL     1       7.310  -2.922  -0.172  1.00  0.00     0.004 A 
ATOM     12  C   UNL     1       8.907  -1.847  -2.193  1.00  0.00     0.014 A 
ATOM     13  C   UNL     1       7.243  -1.551  -0.460  1.00  0.00    -0.051 A 
ATOM     14  C   UNL     1       8.036  -1.021  -1.485  1.00  0.00     0.004 A 
ATOM     15  C   UNL     1       6.360  -0.658   0.361  1.00  0.00     0.044 C 
ENDBRANCH   1   9
BRANCH   6  16
ATOM     16  C   UNL     1      11.983  -5.299  -4.592  1.00  0.00     0.153 C 
BRANCH  16  17
ATOM     17  C   UNL     1      12.685  -5.323  -5.921  1.00  0.00    -0.029 A 
ATOM     18  C   UNL     1      12.399  -4.422  -6.952  1.00  0.00     0.006 A 
ATOM     19  C   UNL     1      13.813  -6.151  -6.037  1.00  0.00     0.006 A 
ATOM     20  C   UNL     1      13.244  -4.339  -8.064  1.00  0.00     0.004 A 
ATOM     21  C   UNL     1      14.655  -6.064  -7.141  1.00  0.00     0.004 A 
ATOM     22  C   UNL     1      14.384  -5.150  -8.160  1.00  0.00    -0.051 A 
ATOM     23  C   UNL     1      15.368  -4.967  -9.276  1.00  0.00     0.044 C 
ENDBRANCH  16  17
ENDBRANCH   6  16
TORSDOF 3
ENDMDL
MODEL 2
REMARK VINA RESULT:    -6.077      3.263      5.598
REMARK INTER + INTRA:          -7.532
REMARK INTER:                  -7.142
REMARK INTRA:                  -0.390
REMARK UNBOUND:                -0.389
REMARK SMILES Cc1ccc(CNC(=O)NC(=O)c2ccc(C)cc2)cc1
REMARK SMILES IDX 11 1 12 2 10 3 8 4 9 5 7 6 13 9 19 10 18 11 14 12 16 13
REMARK SMILES IDX 15 14 17 15 6 16 5 17 4 18 20 19 3 20 21 21 2 22 1 23
REMARK H PARENT 10 7 7 8
ROOT
ATOM      1  C   UNL     1      10.048  -4.185  -2.113  1.00  0.00     0.259 C 
ATOM      2  O   UNL     1      10.416  -3.775  -1.022  1.00  0.00    -0.269 OA
ATOM      3  N   UNL     1      10.824  -4.592  -3.203  1.00  0.00    -0.274 N 
ATOM      4  C   UNL     1      12.133  -4.923  -3.447  1.00  0.00     0.321 C 
ATOM      5  O   UNL     1      12.410  -5.379  -4.562  1.00  0.00    -0.248 OA
ATOM      6  N   UNL     1      13.113  -4.804  -2.534  1.00  0.00    -0.334 N 
ATOM      7  H   UNL     1      10.290  -4.874  -4.014  1.00  0.00     0.175 HD
ATOM      8  H   UNL     1      14.003  -5.169  -2.842  1.00  0.00     0.165 HD
ENDROOT
BRANCH   1   9
ATOM      9  C   UNL     1       8.590  -4.274  -2.329  1.00  0.00     0.040 A 
ATOM     10  C   UNL     1       7.889  -3.264  -2.989  1.00  0.00     0.014 A 
ATOM     11  C   UNL     1       6.521  -3.417  -3.215  1.00  0.00     0.004 A 
ATOM     12  C   UNL     1       7.923  -5.403  -1.844  1.00  0.00     0.014 A 
ATOM     13  C   UNL     1       5.851  -4.570  -2.779  1.00  0.00    -0.051 A 
ATOM     14  C   UNL     1       6.557  -5.555  -2.078  1.00  0.00     0.004 A 
ATOM     15  C   UNL     1       4.399  -4.758  -3.104  1.00  0.00     0.044 C 
ENDBRANCH   1   9
BRANCH   6  16
ATOM     16  C   UNL     1      12.989  -4.397  -1.162  1.00  0.00     0.153 C 
BRANCH  16  17
ATOM     17  C   UNL     1      14.028  -4.897  -0.197  1.00  0.00    -0.029 A 
ATOM     18  C   UNL     1      13.711  -5.607   0.966  1.00  0.00     0.006 A 
ATOM     19  C   UNL     1      15.370  -4.823  -0.603  1.00  0.00     0.006 A 
ATOM     20  C   UNL     1      14.721  -6.249   1.690  1.00  0.00     0.004 A 
ATOM     21  C   UNL     1      16.373  -5.466   0.117  1.00  0.00     0.004 A 
ATOM     22  C   UNL     1      16.055  -6.194   1.264  1.00  0.00    -0.051 A 
ATOM     23  C   UNL     1      17.119  -6.995   1.953  1.00  0.00     0.044 C 
ENDBRANCH  16  17
ENDBRANCH   6  16
TORSDOF 3
ENDMDL
MODEL 3
REMARK VINA RESULT:    -6.038      3.144      7.305
REMARK INTER + INTRA:          -7.485
REMARK INTER:                  -6.981
REMARK INTRA:                  -0.505
REMARK UNBOUND:                -0.389
REMARK SMILES Cc1ccc(CNC(=O)NC(=O)c2ccc(C)cc2)cc1
REMARK SMILES IDX 11 1 12 2 10 3 8 4 9 5 7 6 13 9 19 10 18 11 14 12 16 13
REMARK SMILES IDX 15 14 17 15 6 16 5 17 4 18 20 19 3 20 21 21 2 22 1 23
REMARK H PARENT 10 7 7 8
ROOT
ATOM      1  C   UNL     1      12.601  -4.765  -1.063  1.00  0.00     0.259 C 
ATOM      2  O   UNL     1      11.653  -4.305  -0.442  1.00  0.00    -0.269 OA
ATOM      3  N   UNL     1      12.713  -5.010  -2.435  1.00  0.00    -0.274 N 
ATOM      4  C   UNL     1      12.041  -4.674  -3.582  1.00  0.00     0.321 C 
ATOM      5  O   UNL     1      12.554  -4.992  -4.661  1.00  0.00    -0.248 OA
ATOM      6  N   UNL     1      10.879  -3.994  -3.592  1.00  0.00    -0.334 N 
ATOM      7  H   UNL     1      13.594  -5.419  -2.715  1.00  0.00     0.175 HD
ATOM      8  H   UNL     1      10.559  -3.751  -4.519  1.00  0.00     0.165 HD
ENDROOT
BRANCH   1   9
ATOM      9  C   UNL     1      13.801  -5.110  -0.276  1.00  0.00     0.040 A 
ATOM     10  C   UNL     1      13.700  -5.703   0.984  1.00  0.00     0.014 A 
ATOM     11  C   UNL     1      14.863  -6.059   1.667  1.00  0.00     0.004 A 
ATOM     12  C   UNL     1      15.053  -4.820  -0.826  1.00  0.00     0.014 A 
ATOM     13  C   UNL     1      16.124  -5.819   1.101  1.00  0.00    -0.051 A 
ATOM     14  C   UNL     1      16.212  -5.183  -0.143  1.00  0.00     0.004 A 
ATOM     15  C   UNL     1      17.361  -6.285   1.810  1.00  0.00     0.044 C 
ENDBRANCH   1   9
BRANCH   6  16
ATOM     16  C   UNL     1      10.175  -3.446  -2.468  1.00  0.00     0.153 C 
BRANCH  16  17
ATOM     17  C   UNL     1       8.691  -3.675  -2.405  1.00  0.00    -0.029 A 
ATOM     18  C   UNL     1       7.758  -2.799  -2.969  1.00  0.00     0.006 A 
ATOM     19  C   UNL     1       8.252  -4.927  -1.942  1.00  0.00     0.006 A 
ATOM     20  C   UNL     1       6.419  -3.184  -3.089  1.00  0.00     0.004 A 
ATOM     21  C   UNL     1       6.921  -5.311  -2.066  1.00  0.00     0.004 A 
ATOM     22  C   UNL     1       5.994  -4.446  -2.650  1.00  0.00    -0.051 A 
ATOM     23  C   UNL     1       4.594  -4.920  -2.904  1.00  0.00     0.044 C 
ENDBRANCH  16  17
ENDBRANCH   6  16
TORSDOF 3
ENDMDL
MODEL 4
REMARK VINA RESULT:    -6.020      0.565      7.968
REMARK INTER + INTRA:          -7.465
REMARK INTER:                  -6.962
REMARK INTRA:                  -0.503
REMARK UNBOUND:                -0.389
REMARK SMILES Cc1ccc(CNC(=O)NC(=O)c2ccc(C)cc2)cc1
REMARK SMILES IDX 11 1 12 2 10 3 8 4 9 5 7 6 13 9 19 10 18 11 14 12 16 13
REMARK SMILES IDX 15 14 17 15 6 16 5 17 4 18 20 19 3 20 21 21 2 22 1 23
REMARK H PARENT 10 7 7 8
ROOT
ATOM      1  C   UNL     1      11.841  -4.774  -4.588  1.00  0.00     0.259 C 
ATOM      2  O   UNL     1      10.645  -4.584  -4.758  1.00  0.00    -0.269 OA
ATOM      3  N   UNL     1      12.565  -4.787  -3.392  1.00  0.00    -0.274 N 
ATOM      4  C   UNL     1      12.299  -4.845  -2.048  1.00  0.00     0.321 C 
ATOM      5  O   UNL     1      13.257  -4.976  -1.279  1.00  0.00    -0.248 OA
ATOM      6  N   UNL     1      11.056  -4.798  -1.532  1.00  0.00    -0.334 N 
ATOM      7  H   UNL     1      13.557  -4.945  -3.506  1.00  0.00     0.175 HD
ATOM      8  H   UNL     1      11.025  -4.939  -0.533  1.00  0.00     0.165 HD
ENDROOT
BRANCH   1   9
ATOM      9  C   UNL     1      12.647  -5.031  -5.797  1.00  0.00     0.040 A 
ATOM     10  C   UNL     1      12.426  -4.328  -6.983  1.00  0.00     0.014 A 
ATOM     11  C   UNL     1      13.248  -4.569  -8.084  1.00  0.00     0.004 A 
ATOM     12  C   UNL     1      13.643  -6.011  -5.727  1.00  0.00     0.014 A 
ATOM     13  C   UNL     1      14.283  -5.513  -8.008  1.00  0.00    -0.051 A 
ATOM     14  C   UNL     1      14.466  -6.243  -6.827  1.00  0.00     0.004 A 
ATOM     15  C   UNL     1      15.211  -5.699  -9.172  1.00  0.00     0.044 C 
ENDBRANCH   1   9
BRANCH   6  16
ATOM     16  C   UNL     1       9.812  -4.753  -2.247  1.00  0.00     0.153 C 
BRANCH  16  17
ATOM     17  C   UNL     1       8.780  -3.767  -1.775  1.00  0.00    -0.029 A 
ATOM     18  C   UNL     1       7.814  -4.076  -0.811  1.00  0.00     0.006 A 
ATOM     19  C   UNL     1       8.939  -2.430  -2.172  1.00  0.00     0.006 A 
ATOM     20  C   UNL     1       7.043  -3.057  -0.242  1.00  0.00     0.004 A 
ATOM     21  C   UNL     1       8.175  -1.417  -1.601  1.00  0.00     0.004 A 
ATOM     22  C   UNL     1       7.227  -1.721  -0.623  1.00  0.00    -0.051 A 
ATOM     23  C   UNL     1       6.507  -0.611   0.084  1.00  0.00     0.044 C 
ENDBRANCH  16  17
ENDBRANCH   6  16
TORSDOF 3
ENDMDL
MODEL 5
REMARK VINA RESULT:    -5.760      3.091      7.727
REMARK INTER + INTRA:          -7.159
REMARK INTER:                  -6.692
REMARK INTRA:                  -0.467
REMARK UNBOUND:                -0.389
REMARK SMILES Cc1ccc(CNC(=O)NC(=O)c2ccc(C)cc2)cc1
REMARK SMILES IDX 11 1 12 2 10 3 8 4 9 5 7 6 13 9 19 10 18 11 14 12 16 13
REMARK SMILES IDX 15 14 17 15 6 16 5 17 4 18 20 19 3 20 21 21 2 22 1 23
REMARK H PARENT 10 7 7 8
ROOT
ATOM      1  C   UNL     1      12.590  -4.633  -0.908  1.00  0.00     0.259 C 
ATOM      2  O   UNL     1      11.767  -4.026  -0.238  1.00  0.00    -0.269 OA
ATOM      3  N   UNL     1      12.528  -4.988  -2.260  1.00  0.00    -0.274 N 
ATOM      4  C   UNL     1      11.776  -4.662  -3.359  1.00  0.00     0.321 C 
ATOM      5  O   UNL     1      12.134  -5.112  -4.453  1.00  0.00    -0.248 OA
ATOM      6  N   UNL     1      10.697  -3.859  -3.312  1.00  0.00    -0.334 N 
ATOM      7  H   UNL     1      13.327  -5.512  -2.590  1.00  0.00     0.175 HD
ATOM      8  H   UNL     1      10.306  -3.649  -4.219  1.00  0.00     0.165 HD
ENDROOT
BRANCH   1   9
ATOM      9  C   UNL     1      13.824  -5.053  -0.218  1.00  0.00     0.040 A 
ATOM     10  C   UNL     1      13.783  -5.700   1.018  1.00  0.00     0.014 A 
ATOM     11  C   UNL     1      14.974  -6.125   1.608  1.00  0.00     0.004 A 
ATOM     12  C   UNL     1      15.048  -4.776  -0.835  1.00  0.00     0.014 A 
ATOM     13  C   UNL     1      16.204  -5.899   0.972  1.00  0.00    -0.051 A 
ATOM     14  C   UNL     1      16.235  -5.208  -0.245  1.00  0.00     0.004 A 
ATOM     15  C   UNL     1      17.467  -6.436   1.578  1.00  0.00     0.044 C 
ENDBRANCH   1   9
BRANCH   6  16
ATOM     16  C   UNL     1      10.178  -3.156  -2.173  1.00  0.00     0.153 C 
BRANCH  16  17
ATOM     17  C   UNL     1       8.697  -3.239  -1.926  1.00  0.00    -0.029 A 
ATOM     18  C   UNL     1       8.145  -3.454  -0.659  1.00  0.00     0.006 A 
ATOM     19  C   UNL     1       7.847  -2.876  -2.984  1.00  0.00     0.006 A 
ATOM     20  C   UNL     1       6.772  -3.282  -0.455  1.00  0.00     0.004 A 
ATOM     21  C   UNL     1       6.482  -2.701  -2.778  1.00  0.00     0.004 A 
ATOM     22  C   UNL     1       5.934  -2.893  -1.509  1.00  0.00    -0.051 A 
ATOM     23  C   UNL     1       4.490  -2.569  -1.268  1.00  0.00     0.044 C 
ENDBRANCH  16  17
ENDBRANCH   6  16
TORSDOF 3
ENDMDL
MODEL 6
REMARK VINA RESULT:    -5.660      1.523      7.701
REMARK INTER + INTRA:          -7.042
REMARK INTER:                  -6.534
REMARK INTRA:                  -0.508
REMARK UNBOUND:                -0.389
REMARK SMILES Cc1ccc(CNC(=O)NC(=O)c2ccc(C)cc2)cc1
REMARK SMILES IDX 11 1 12 2 10 3 8 4 9 5 7 6 13 9 19 10 18 11 14 12 16 13
REMARK SMILES IDX 15 14 17 15 6 16 5 17 4 18 20 19 3 20 21 21 2 22 1 23
REMARK H PARENT 10 7 7 8
ROOT
ATOM      1  C   UNL     1      12.012  -5.198  -4.743  1.00  0.00     0.259 C 
ATOM      2  O   UNL     1      10.836  -5.491  -4.902  1.00  0.00    -0.269 OA
ATOM      3  N   UNL     1      12.671  -4.827  -3.567  1.00  0.00    -0.274 N 
ATOM      4  C   UNL     1      12.429  -4.858  -2.217  1.00  0.00     0.321 C 
ATOM      5  O   UNL     1      13.356  -4.546  -1.461  1.00  0.00    -0.248 OA
ATOM      6  N   UNL     1      11.255  -5.237  -1.680  1.00  0.00    -0.334 N 
ATOM      7  H   UNL     1      13.651  -4.608  -3.688  1.00  0.00     0.175 HD
ATOM      8  H   UNL     1      11.267  -5.288  -0.671  1.00  0.00     0.165 HD
ENDROOT
BRANCH   1   9
ATOM      9  C   UNL     1      12.871  -5.241  -5.942  1.00  0.00     0.040 A 
ATOM     10  C   UNL     1      13.953  -6.119  -6.031  1.00  0.00     0.014 A 
ATOM     11  C   UNL     1      14.705  -6.161  -7.206  1.00  0.00     0.004 A 
ATOM     12  C   UNL     1      12.576  -4.367  -6.993  1.00  0.00     0.014 A 
ATOM     13  C   UNL     1      14.385  -5.325  -8.287  1.00  0.00    -0.051 A 
ATOM     14  C   UNL     1      13.326  -4.417  -8.167  1.00  0.00     0.004 A 
ATOM     15  C   UNL     1      15.149  -5.441  -9.573  1.00  0.00     0.044 C 
ENDBRANCH   1   9
BRANCH   6  16
ATOM     16  C   UNL     1      10.096  -5.732  -2.368  1.00  0.00     0.153 C 
BRANCH  16  17
ATOM     17  C   UNL     1       8.811  -4.972  -2.189  1.00  0.00    -0.029 A 
ATOM     18  C   UNL     1       8.664  -3.628  -2.546  1.00  0.00     0.006 A 
ATOM     19  C   UNL     1       7.668  -5.713  -1.847  1.00  0.00     0.006 A 
ATOM     20  C   UNL     1       7.391  -3.049  -2.582  1.00  0.00     0.004 A 
ATOM     21  C   UNL     1       6.402  -5.137  -1.888  1.00  0.00     0.004 A 
ATOM     22  C   UNL     1       6.251  -3.802  -2.266  1.00  0.00    -0.051 A 
ATOM     23  C   UNL     1       4.876  -3.230  -2.439  1.00  0.00     0.044 C 
ENDBRANCH  16  17
ENDBRANCH   6  16
TORSDOF 3
ENDMDL
MODEL 7
REMARK VINA RESULT:    -4.919      4.867      7.588
REMARK INTER + INTRA:          -6.170
REMARK INTER:                  -6.423
REMARK INTRA:                   0.253
REMARK UNBOUND:                -0.389
REMARK SMILES Cc1ccc(CNC(=O)NC(=O)c2ccc(C)cc2)cc1
REMARK SMILES IDX 11 1 12 2 10 3 8 4 9 5 7 6 13 9 19 10 18 11 14 12 16 13
REMARK SMILES IDX 15 14 17 15 6 16 5 17 4 18 20 19 3 20 21 21 2 22 1 23
REMARK H PARENT 10 7 7 8
ROOT
ATOM      1  C   UNL     1      14.713  -4.877  -8.766  1.00  0.00     0.259 C 
ATOM      2  O   UNL     1      15.859  -4.523  -8.528  1.00  0.00    -0.269 OA
ATOM      3  N   UNL     1      14.120  -5.150 -10.003  1.00  0.00    -0.274 N 
ATOM      4  C   UNL     1      14.525  -5.371 -11.294  1.00  0.00     0.321 C 
ATOM      5  O   UNL     1      13.669  -5.726 -12.111  1.00  0.00    -0.248 OA
ATOM      6  N   UNL     1      15.802  -5.253 -11.704  1.00  0.00    -0.334 N 
ATOM      7  H   UNL     1      13.143  -5.407  -9.950  1.00  0.00     0.175 HD
ATOM      8  H   UNL     1      15.949  -5.534 -12.663  1.00  0.00     0.165 HD
ENDROOT
BRANCH   1   9
ATOM      9  C   UNL     1      13.820  -5.049  -7.604  1.00  0.00     0.040 A 
ATOM     10  C   UNL     1      14.106  -5.972  -6.597  1.00  0.00     0.014 A 
ATOM     11  C   UNL     1      13.260  -6.061  -5.491  1.00  0.00     0.004 A 
ATOM     12  C   UNL     1      12.666  -4.262  -7.541  1.00  0.00     0.014 A 
ATOM     13  C   UNL     1      12.127  -5.240  -5.393  1.00  0.00    -0.051 A 
ATOM     14  C   UNL     1      11.827  -4.350  -6.431  1.00  0.00     0.004 A 
ATOM     15  C   UNL     1      11.275  -5.288  -4.159  1.00  0.00     0.044 C 
ENDBRANCH   1   9
BRANCH   6  16
ATOM     16  C   UNL     1      16.956  -4.957 -10.903  1.00  0.00     0.153 C 
BRANCH  16  17
ATOM     17  C   UNL     1      17.578  -6.096 -10.144  1.00  0.00    -0.029 A 
ATOM     18  C   UNL     1      18.465  -5.908  -9.078  1.00  0.00     0.006 A 
ATOM     19  C   UNL     1      17.077  -7.384 -10.390  1.00  0.00     0.006 A 
ATOM     20  C   UNL     1      18.818  -6.989  -8.263  1.00  0.00     0.004 A 
ATOM     21  C   UNL     1      17.426  -8.457  -9.577  1.00  0.00     0.004 A 
ATOM     22  C   UNL     1      18.292  -8.267  -8.499  1.00  0.00    -0.051 A 
ATOM     23  C   UNL     1      18.553  -9.397  -7.548  1.00  0.00     0.044 C 
ENDBRANCH  16  17
ENDBRANCH   6  16
TORSDOF 3
ENDMDL
MODEL 8
REMARK VINA RESULT:    -4.648      2.309      4.033
REMARK INTER + INTRA:          -5.852
REMARK INTER:                  -5.434
REMARK INTRA:                  -0.418
REMARK UNBOUND:                -0.389
REMARK SMILES Cc1ccc(CNC(=O)NC(=O)c2ccc(C)cc2)cc1
REMARK SMILES IDX 11 1 12 2 10 3 8 4 9 5 7 6 13 9 19 10 18 11 14 12 16 13
REMARK SMILES IDX 15 14 17 15 6 16 5 17 4 18 20 19 3 20 21 21 2 22 1 23
REMARK H PARENT 10 7 7 8
ROOT
ATOM      1  C   UNL     1      12.116  -5.084  -5.309  1.00  0.00     0.259 C 
ATOM      2  O   UNL     1      11.696  -4.661  -6.376  1.00  0.00    -0.269 OA
ATOM      3  N   UNL     1      13.239  -5.880  -5.063  1.00  0.00    -0.274 N 
ATOM      4  C   UNL     1      14.363  -6.282  -5.739  1.00  0.00     0.321 C 
ATOM      5  O   UNL     1      15.222  -6.903  -5.104  1.00  0.00    -0.248 OA
ATOM      6  N   UNL     1      14.587  -6.011  -7.038  1.00  0.00    -0.334 N 
ATOM      7  H   UNL     1      13.373  -6.123  -4.091  1.00  0.00     0.175 HD
ATOM      8  H   UNL     1      15.498  -6.302  -7.363  1.00  0.00     0.165 HD
ENDROOT
BRANCH   1   9
ATOM      9  C   UNL     1      11.350  -4.712  -4.103  1.00  0.00     0.040 A 
ATOM     10  C   UNL     1      11.434  -3.432  -3.554  1.00  0.00     0.014 A 
ATOM     11  C   UNL     1      10.651  -3.111  -2.444  1.00  0.00     0.004 A 
ATOM     12  C   UNL     1      10.536  -5.685  -3.516  1.00  0.00     0.014 A 
ATOM     13  C   UNL     1       9.792  -4.065  -1.879  1.00  0.00    -0.051 A 
ATOM     14  C   UNL     1       9.750  -5.359  -2.413  1.00  0.00     0.004 A 
ATOM     15  C   UNL     1       8.894  -3.679  -0.740  1.00  0.00     0.044 C 
ENDBRANCH   1   9
BRANCH   6  16
ATOM     16  C   UNL     1      13.775  -5.222  -7.921  1.00  0.00     0.153 C 
BRANCH  16  17
ATOM     17  C   UNL     1      14.487  -4.341  -8.910  1.00  0.00    -0.029 A 
ATOM     18  C   UNL     1      15.112  -3.142  -8.552  1.00  0.00     0.006 A 
ATOM     19  C   UNL     1      14.703  -4.861 -10.196  1.00  0.00     0.006 A 
ATOM     20  C   UNL     1      15.957  -2.495  -9.461  1.00  0.00     0.004 A 
ATOM     21  C   UNL     1      15.547  -4.219 -11.097  1.00  0.00     0.004 A 
ATOM     22  C   UNL     1      16.189  -3.035 -10.733  1.00  0.00    -0.051 A 
ATOM     23  C   UNL     1      17.201  -2.425 -11.657  1.00  0.00     0.044 C 
ENDBRANCH  16  17
ENDBRANCH   6  16
TORSDOF 3
ENDMDL
MODEL 9
REMARK VINA RESULT:    -4.586      5.019      7.426
REMARK INTER + INTRA:          -5.779
REMARK INTER:                  -5.424
REMARK INTRA:                  -0.355
REMARK UNBOUND:                -0.389
REMARK SMILES Cc1ccc(CNC(=O)NC(=O)c2ccc(C)cc2)cc1
REMARK SMILES IDX 11 1 12 2 10 3 8 4 9 5 7 6 13 9 19 10 18 11 14 12 16 13
REMARK SMILES IDX 15 14 17 15 6 16 5 17 4 18 20 19 3 20 21 21 2 22 1 23
REMARK H PARENT 10 7 7 8
ROOT
ATOM      1  C   UNL     1      13.350  -4.827  -0.668  1.00  0.00     0.259 C 
ATOM      2  O   UNL     1      13.263  -5.197   0.494  1.00  0.00    -0.269 OA
ATOM      3  N   UNL     1      14.500  -4.622  -1.437  1.00  0.00    -0.274 N 
ATOM      4  C   UNL     1      15.834  -4.930  -1.367  1.00  0.00     0.321 C 
ATOM      5  O   UNL     1      16.533  -4.678  -2.354  1.00  0.00    -0.248 OA
ATOM      6  N   UNL     1      16.407  -5.516  -0.300  1.00  0.00    -0.334 N 
ATOM      7  H   UNL     1      14.320  -4.290  -2.376  1.00  0.00     0.175 HD
ATOM      8  H   UNL     1      17.379  -5.755  -0.440  1.00  0.00     0.165 HD
ENDROOT
BRANCH   1   9
ATOM      9  C   UNL     1      12.082  -4.560  -1.373  1.00  0.00     0.040 A 
ATOM     10  C   UNL     1      11.212  -5.594  -1.724  1.00  0.00     0.014 A 
ATOM     11  C   UNL     1       9.999  -5.287  -2.343  1.00  0.00     0.004 A 
ATOM     12  C   UNL     1      11.773  -3.233  -1.690  1.00  0.00     0.014 A 
ATOM     13  C   UNL     1       9.657  -3.955  -2.619  1.00  0.00    -0.051 A 
ATOM     14  C   UNL     1      10.559  -2.931  -2.303  1.00  0.00     0.004 A 
ATOM     15  C   UNL     1       8.315  -3.635  -3.207  1.00  0.00     0.044 C 
ENDBRANCH   1   9
BRANCH   6  16
ATOM     16  C   UNL     1      15.762  -5.983   0.895  1.00  0.00     0.153 C 
BRANCH  16  17
ATOM     17  C   UNL     1      16.462  -7.054   1.684  1.00  0.00    -0.029 A 
ATOM     18  C   UNL     1      17.026  -6.830   2.944  1.00  0.00     0.006 A 
ATOM     19  C   UNL     1      16.352  -8.374   1.215  1.00  0.00     0.006 A 
ATOM     20  C   UNL     1      17.446  -7.912   3.726  1.00  0.00     0.004 A 
ATOM     21  C   UNL     1      16.765  -9.449   1.995  1.00  0.00     0.004 A 
ATOM     22  C   UNL     1      17.307  -9.227   3.263  1.00  0.00    -0.051 A 
ATOM     23  C   UNL     1      17.621 -10.395   4.150  1.00  0.00     0.044 C 
ENDBRANCH  16  17
ENDBRANCH   6  16
TORSDOF 3
ENDMDL
