MODEL 1
REMARK VINA RESULT:    -4.128      0.000      0.000
REMARK INTER + INTRA:          -5.757
REMARK INTER:                  -5.456
REMARK INTRA:                  -0.302
REMARK UNBOUND:                -0.302
REMARK SMILES [H]/N=C\C[C@H]1C[C@@H]1O[C@H]1CO[C@H]2C[C@@H](C3CC3)CCN2C1
REMARK SMILES IDX 7 1 6 2 5 3 8 4 9 5 14 6 13 7 18 8 12 9 19 10 20 11 11 12
REMARK SMILES IDX 21 13 10 14 15 15 16 16 17 17 4 18 3 19 2 20 1 21
REMARK H PARENT
ROOT
ATOM      1  C   UNL     1      11.415  -7.804  14.168  1.00  0.00     0.122 C 
ATOM      2  C   UNL     1      12.164  -8.503  13.069  1.00  0.00     0.039 C 
ATOM      3  C   UNL     1      12.913  -7.698  14.092  1.00  0.00     0.026 C 
ENDROOT
BRANCH   1   4
ATOM      4  O   UNL     1      10.663  -6.657  13.728  1.00  0.00    -0.371 OA
BRANCH   4   5
ATOM      5  C   UNL     1       9.320  -6.566  14.230  1.00  0.00     0.158 C 
ATOM      6  C   UNL     1       7.078  -4.352  10.074  1.00  0.00    -0.003 C 
ATOM      7  C   UNL     1       8.045  -3.896  11.174  1.00  0.00     0.052 C 
ATOM      8  C   UNL     1       7.321  -5.837   9.769  1.00  0.00     0.019 C 
ATOM      9  C   UNL     1       7.976  -4.807  12.407  1.00  0.00     0.189 C 
ATOM     10  C   UNL     1       7.273  -6.683  11.041  1.00  0.00     0.087 C 
ATOM     11  N   UNL     1       8.234  -6.196  12.030  1.00  0.00    -0.276 NA
ATOM     12  O   UNL     1       8.944  -4.313  13.334  1.00  0.00    -0.360 OA
ATOM     13  C   UNL     1       8.262  -7.050  13.223  1.00  0.00     0.121 C 
ATOM     14  C   UNL     1       9.022  -5.093  14.531  1.00  0.00     0.195 C 
BRANCH   6  15
ATOM     15  C   UNL     1       7.233  -3.521   8.820  1.00  0.00    -0.008 C 
ATOM     16  C   UNL     1       6.217  -2.456   8.480  1.00  0.00     0.004 C 
ATOM     17  C   UNL     1       7.602  -2.059   8.901  1.00  0.00     0.004 C 
ENDBRANCH   6  15
ENDBRANCH   4   5
ENDBRANCH   1   4
BRANCH   3  18
ATOM     18  C   UNL     1      13.773  -8.412  15.091  1.00  0.00     0.053 C 
BRANCH  18  19
ATOM     19  C   UNL     1      15.226  -8.014  15.125  1.00  0.00     0.074 C 
BRANCH  19  20
ATOM     20  N   UNL     1      15.923  -7.606  14.117  1.00  0.00    -0.313 NA
ATOM     21  H   UNL     1      15.482  -7.861  13.222  1.00  0.00     0.186 HD
ENDBRANCH  19  20
ENDBRANCH  18  19
ENDBRANCH   3  18
TORSDOF 6
ENDMDL
MODEL 2
REMARK VINA RESULT:    -3.923      7.709      8.967
REMARK INTER + INTRA:          -5.486
REMARK INTER:                  -5.231
REMARK INTRA:                  -0.255
REMARK UNBOUND:                -0.302
REMARK SMILES [H]/N=C\C[C@H]1C[C@@H]1O[C@H]1CO[C@H]2C[C@@H](C3CC3)CCN2C1
REMARK SMILES IDX 7 1 6 2 5 3 8 4 9 5 14 6 13 7 18 8 12 9 19 10 20 11 11 12
REMARK SMILES IDX 21 13 10 14 15 15 16 16 17 17 4 18 3 19 2 20 1 21
REMARK H PARENT
ROOT
ATOM      1  C   UNL     1      14.497   2.913  15.223  1.00  0.00     0.122 C 
ATOM      2  C   UNL     1      15.894   3.260  14.790  1.00  0.00     0.039 C 
ATOM      3  C   UNL     1      14.723   3.667  13.941  1.00  0.00     0.026 C 
ENDROOT
BRANCH   1   4
ATOM      4  O   UNL     1      14.176   1.514  15.101  1.00  0.00    -0.371 OA
BRANCH   4   5
ATOM      5  C   UNL     1      12.999   1.085  15.804  1.00  0.00     0.158 C 
ATOM      6  C   UNL     1      10.267  -0.708  11.739  1.00  0.00    -0.003 C 
ATOM      7  C   UNL     1      10.676   0.673  12.264  1.00  0.00     0.052 C 
ATOM      8  C   UNL     1      11.363  -1.726  12.082  1.00  0.00     0.019 C 
ATOM      9  C   UNL     1      11.046   0.631  13.753  1.00  0.00     0.189 C 
ATOM     10  C   UNL     1      11.709  -1.694  13.571  1.00  0.00     0.087 C 
ATOM     11  N   UNL     1      12.106  -0.349  13.987  1.00  0.00    -0.276 NA
ATOM     12  O   UNL     1      11.450   1.954  14.111  1.00  0.00    -0.360 OA
ATOM     13  C   UNL     1      12.525  -0.320  15.393  1.00  0.00     0.121 C 
ATOM     14  C   UNL     1      11.865   2.062  15.476  1.00  0.00     0.195 C 
BRANCH   6  15
ATOM     15  C   UNL     1      10.014  -0.683  10.249  1.00  0.00    -0.008 C 
ATOM     16  C   UNL     1       8.671  -1.099   9.695  1.00  0.00     0.004 C 
ATOM     17  C   UNL     1       9.089   0.342   9.638  1.00  0.00     0.004 C 
ENDBRANCH   6  15
ENDBRANCH   4   5
ENDBRANCH   1   4
BRANCH   3  18
ATOM     18  C   UNL     1      14.364   5.119  13.846  1.00  0.00     0.053 C 
BRANCH  18  19
ATOM     19  C   UNL     1      13.328   5.483  12.815  1.00  0.00     0.074 C 
BRANCH  19  20
ATOM     20  N   UNL     1      13.114   6.665  12.341  1.00  0.00    -0.313 NA
ATOM     21  H   UNL     1      13.666   7.379  12.837  1.00  0.00     0.186 HD
ENDBRANCH  19  20
ENDBRANCH  18  19
ENDBRANCH   3  18
TORSDOF 6
ENDMDL
MODEL 3
REMARK VINA RESULT:    -3.707      2.954      7.514
REMARK INTER + INTRA:          -5.200
REMARK INTER:                  -5.219
REMARK INTRA:                   0.019
REMARK UNBOUND:                -0.302
REMARK SMILES [H]/N=C\C[C@H]1C[C@@H]1O[C@H]1CO[C@H]2C[C@@H](C3CC3)CCN2C1
REMARK SMILES IDX 7 1 6 2 5 3 8 4 9 5 14 6 13 7 18 8 12 9 19 10 20 11 11 12
REMARK SMILES IDX 21 13 10 14 15 15 16 16 17 17 4 18 3 19 2 20 1 21
REMARK H PARENT
ROOT
ATOM      1  C   UNL     1       7.245  -3.640   9.120  1.00  0.00     0.122 C 
ATOM      2  C   UNL     1       7.320  -2.140   9.169  1.00  0.00     0.039 C 
ATOM      3  C   UNL     1       8.280  -2.910   8.308  1.00  0.00     0.026 C 
ENDROOT
BRANCH   1   4
ATOM      4  O   UNL     1       7.706  -4.290  10.319  1.00  0.00    -0.371 OA
BRANCH   4   5
ATOM      5  C   UNL     1       6.729  -5.090  11.005  1.00  0.00     0.158 C 
ATOM      6  C   UNL     1       9.749  -9.176  12.184  1.00  0.00    -0.003 C 
ATOM      7  C   UNL     1       9.112  -8.613  10.907  1.00  0.00     0.052 C 
ATOM      8  C   UNL     1      10.095  -8.019  13.131  1.00  0.00     0.019 C 
ATOM      9  C   UNL     1       7.930  -7.686  11.221  1.00  0.00     0.189 C 
ATOM     10  C   UNL     1       8.887  -7.116  13.375  1.00  0.00     0.087 C 
ATOM     11  N   UNL     1       8.351  -6.605  12.113  1.00  0.00    -0.276 NA
ATOM     12  O   UNL     1       7.454  -7.191   9.968  1.00  0.00    -0.360 OA
ATOM     13  C   UNL     1       7.245  -5.668  12.335  1.00  0.00     0.121 C 
ATOM     14  C   UNL     1       6.365  -6.274  10.104  1.00  0.00     0.195 C 
BRANCH   6  15
ATOM     15  C   UNL     1      10.981  -9.996  11.874  1.00  0.00    -0.008 C 
ATOM     16  C   UNL     1      11.568 -10.917  12.918  1.00  0.00     0.004 C 
ATOM     17  C   UNL     1      10.892 -11.494  11.708  1.00  0.00     0.004 C 
ENDBRANCH   6  15
ENDBRANCH   4   5
ENDBRANCH   1   4
BRANCH   3  18
ATOM     18  C   UNL     1       8.149  -2.824   6.817  1.00  0.00     0.053 C 
BRANCH  18  19
ATOM     19  C   UNL     1       9.317  -3.336   6.015  1.00  0.00     0.074 C 
BRANCH  19  20
ATOM     20  N   UNL     1       9.404  -3.349   4.727  1.00  0.00    -0.313 NA
ATOM     21  H   UNL     1      10.382  -3.288   4.412  1.00  0.00     0.186 HD
ENDBRANCH  19  20
ENDBRANCH  18  19
ENDBRANCH   3  18
TORSDOF 6
ENDMDL
MODEL 4
REMARK VINA RESULT:    -3.692      5.894      9.200
REMARK INTER + INTRA:          -5.181
REMARK INTER:                  -5.182
REMARK INTRA:                   0.001
REMARK UNBOUND:                -0.302
REMARK SMILES [H]/N=C\C[C@H]1C[C@@H]1O[C@H]1CO[C@H]2C[C@@H](C3CC3)CCN2C1
REMARK SMILES IDX 7 1 6 2 5 3 8 4 9 5 14 6 13 7 18 8 12 9 19 10 20 11 11 12
REMARK SMILES IDX 21 13 10 14 15 15 16 16 17 17 4 18 3 19 2 20 1 21
REMARK H PARENT
ROOT
ATOM      1  C   UNL     1       7.565  -1.636   9.295  1.00  0.00     0.122 C 
ATOM      2  C   UNL     1       7.349  -3.030   8.776  1.00  0.00     0.039 C 
ATOM      3  C   UNL     1       6.295  -2.374   9.620  1.00  0.00     0.026 C 
ENDROOT
BRANCH   1   4
ATOM      4  O   UNL     1       8.545  -1.547  10.346  1.00  0.00    -0.371 OA
BRANCH   4   5
ATOM      5  C   UNL     1       9.762  -0.863  10.003  1.00  0.00     0.158 C 
ATOM      6  C   UNL     1      10.332   1.953  14.356  1.00  0.00    -0.003 C 
ATOM      7  C   UNL     1       9.393   1.983  13.144  1.00  0.00     0.052 C 
ATOM      8  C   UNL     1      10.730   0.501  14.654  1.00  0.00     0.019 C 
ATOM      9  C   UNL     1       9.990   1.239  11.942  1.00  0.00     0.189 C 
ATOM     10  C   UNL     1      11.284  -0.193  13.410  1.00  0.00     0.087 C 
ATOM     11  N   UNL     1      10.324  -0.138  12.308  1.00  0.00    -0.276 NA
ATOM     12  O   UNL     1       9.014   1.295  10.900  1.00  0.00    -0.360 OA
ATOM     13  C   UNL     1      10.805  -0.875  11.134  1.00  0.00     0.121 C 
ATOM     14  C   UNL     1       9.419   0.603   9.715  1.00  0.00     0.195 C 
BRANCH   6  15
ATOM     15  C   UNL     1       9.692   2.588  15.570  1.00  0.00    -0.008 C 
ATOM     16  C   UNL     1      10.545   3.070  16.719  1.00  0.00     0.004 C 
ATOM     17  C   UNL     1       9.844   4.065  15.841  1.00  0.00     0.004 C 
ENDBRANCH   6  15
ENDBRANCH   4   5
ENDBRANCH   1   4
BRANCH   3  18
ATOM     18  C   UNL     1       5.001  -1.968   8.980  1.00  0.00     0.053 C 
BRANCH  18  19
ATOM     19  C   UNL     1       3.944  -1.420   9.904  1.00  0.00     0.074 C 
BRANCH  19  20
ATOM     20  N   UNL     1       2.739  -1.097   9.570  1.00  0.00    -0.313 NA
ATOM     21  H   UNL     1       2.413  -0.265  10.082  1.00  0.00     0.186 HD
ENDBRANCH  19  20
ENDBRANCH  18  19
ENDBRANCH   3  18
TORSDOF 6
ENDMDL
MODEL 5
REMARK VINA RESULT:    -3.614      4.901      7.187
REMARK INTER + INTRA:          -5.077
REMARK INTER:                  -4.845
REMARK INTRA:                  -0.232
REMARK UNBOUND:                -0.302
REMARK SMILES [H]/N=C\C[C@H]1C[C@@H]1O[C@H]1CO[C@H]2C[C@@H](C3CC3)CCN2C1
REMARK SMILES IDX 7 1 6 2 5 3 8 4 9 5 14 6 13 7 18 8 12 9 19 10 20 11 11 12
REMARK SMILES IDX 21 13 10 14 15 15 16 16 17 17 4 18 3 19 2 20 1 21
REMARK H PARENT
ROOT
ATOM      1  C   UNL     1       9.596   1.924  13.204  1.00  0.00     0.122 C 
ATOM      2  C   UNL     1       8.682   2.925  13.852  1.00  0.00     0.039 C 
ATOM      3  C   UNL     1       9.092   1.690  14.602  1.00  0.00     0.026 C 
ENDROOT
BRANCH   1   4
ATOM      4  O   UNL     1       8.976   1.153  12.157  1.00  0.00    -0.371 OA
BRANCH   4   5
ATOM      5  C   UNL     1       9.841   0.765  11.077  1.00  0.00     0.158 C 
ATOM      6  C   UNL     1       7.505  -3.713   9.775  1.00  0.00    -0.003 C 
ATOM      7  C   UNL     1       8.369  -3.224  10.944  1.00  0.00     0.052 C 
ATOM      8  C   UNL     1       6.660  -2.546   9.246  1.00  0.00     0.019 C 
ATOM      9  C   UNL     1       9.186  -1.981  10.568  1.00  0.00     0.189 C 
ATOM     10  C   UNL     1       7.528  -1.330   8.923  1.00  0.00     0.087 C 
ATOM     11  N   UNL     1       8.304  -0.915  10.092  1.00  0.00    -0.276 NA
ATOM     12  O   UNL     1       9.907  -1.596  11.740  1.00  0.00    -0.360 OA
ATOM     13  C   UNL     1       9.076   0.303   9.824  1.00  0.00     0.121 C 
ATOM     14  C   UNL     1      10.694  -0.416  11.552  1.00  0.00     0.195 C 
BRANCH   6  15
ATOM     15  C   UNL     1       6.619  -4.867  10.185  1.00  0.00    -0.008 C 
ATOM     16  C   UNL     1       7.056  -6.292   9.937  1.00  0.00     0.004 C 
ATOM     17  C   UNL     1       6.998  -5.762  11.340  1.00  0.00     0.004 C 
ENDBRANCH   6  15
ENDBRANCH   4   5
ENDBRANCH   1   4
BRANCH   3  18
ATOM     18  C   UNL     1      10.019   1.825  15.772  1.00  0.00     0.053 C 
BRANCH  18  19
ATOM     19  C   UNL     1      10.254   0.577  16.583  1.00  0.00     0.074 C 
BRANCH  19  20
ATOM     20  N   UNL     1       9.636  -0.548  16.438  1.00  0.00    -0.313 NA
ATOM     21  H   UNL     1      10.085  -1.138  15.723  1.00  0.00     0.186 HD
ENDBRANCH  19  20
ENDBRANCH  18  19
ENDBRANCH   3  18
TORSDOF 6
ENDMDL
MODEL 6
REMARK VINA RESULT:    -3.418      2.204      2.785
REMARK INTER + INTRA:          -4.819
REMARK INTER:                  -4.444
REMARK INTRA:                  -0.375
REMARK UNBOUND:                -0.302
REMARK SMILES [H]/N=C\C[C@H]1C[C@@H]1O[C@H]1CO[C@H]2C[C@@H](C3CC3)CCN2C1
REMARK SMILES IDX 7 1 6 2 5 3 8 4 9 5 14 6 13 7 18 8 12 9 19 10 20 11 11 12
REMARK SMILES IDX 21 13 10 14 15 15 16 16 17 17 4 18 3 19 2 20 1 21
REMARK H PARENT
ROOT
ATOM      1  C   UNL     1      11.428  -6.260  15.354  1.00  0.00     0.122 C 
ATOM      2  C   UNL     1      12.920  -6.341  15.199  1.00  0.00     0.039 C 
ATOM      3  C   UNL     1      12.201  -5.066  14.866  1.00  0.00     0.026 C 
ENDROOT
BRANCH   1   4
ATOM      4  O   UNL     1      10.693  -7.002  14.362  1.00  0.00    -0.371 OA
BRANCH   4   5
ATOM      5  C   UNL     1       9.319  -7.273  14.683  1.00  0.00     0.158 C 
ATOM      6  C   UNL     1       7.092  -5.064  10.516  1.00  0.00    -0.003 C 
ATOM      7  C   UNL     1       7.801  -4.560  11.779  1.00  0.00     0.052 C 
ATOM      8  C   UNL     1       7.704  -6.406  10.092  1.00  0.00     0.019 C 
ATOM      9  C   UNL     1       7.811  -5.620  12.889  1.00  0.00     0.189 C 
ATOM     10  C   UNL     1       7.715  -7.405  11.250  1.00  0.00     0.087 C 
ATOM     11  N   UNL     1       8.424  -6.857  12.406  1.00  0.00    -0.276 NA
ATOM     12  O   UNL     1       8.531  -5.056  13.986  1.00  0.00    -0.360 OA
ATOM     13  C   UNL     1       8.519  -7.836  13.495  1.00  0.00     0.121 C 
ATOM     14  C   UNL     1       8.657  -5.954  15.094  1.00  0.00     0.195 C 
BRANCH   6  15
ATOM     15  C   UNL     1       7.186  -4.059   9.389  1.00  0.00    -0.008 C 
ATOM     16  C   UNL     1       6.248  -2.876   9.341  1.00  0.00     0.004 C 
ATOM     17  C   UNL     1       7.704  -2.663   9.638  1.00  0.00     0.004 C 
ENDBRANCH   6  15
ENDBRANCH   4   5
ENDBRANCH   1   4
BRANCH   3  18
ATOM     18  C   UNL     1      12.389  -3.872  15.754  1.00  0.00     0.053 C 
BRANCH  18  19
ATOM     19  C   UNL     1      11.391  -2.756  15.589  1.00  0.00     0.074 C 
BRANCH  19  20
ATOM     20  N   UNL     1      10.158  -2.889  15.230  1.00  0.00    -0.313 NA
ATOM     21  H   UNL     1       9.590  -3.318  15.974  1.00  0.00     0.186 HD
ENDBRANCH  19  20
ENDBRANCH  18  19
ENDBRANCH   3  18
TORSDOF 6
ENDMDL
MODEL 7
REMARK VINA RESULT:    -3.256      2.604      3.642
REMARK INTER + INTRA:          -4.605
REMARK INTER:                  -4.329
REMARK INTRA:                  -0.276
REMARK UNBOUND:                -0.302
REMARK SMILES [H]/N=C\C[C@H]1C[C@@H]1O[C@H]1CO[C@H]2C[C@@H](C3CC3)CCN2C1
REMARK SMILES IDX 7 1 6 2 5 3 8 4 9 5 14 6 13 7 18 8 12 9 19 10 20 11 11 12
REMARK SMILES IDX 21 13 10 14 15 15 16 16 17 17 4 18 3 19 2 20 1 21
REMARK H PARENT
ROOT
ATOM      1  C   UNL     1      11.994  -7.231  15.835  1.00  0.00     0.122 C 
ATOM      2  C   UNL     1      13.399  -6.702  15.901  1.00  0.00     0.039 C 
ATOM      3  C   UNL     1      12.358  -5.966  15.107  1.00  0.00     0.026 C 
ENDROOT
BRANCH   1   4
ATOM      4  O   UNL     1      11.851  -8.419  15.033  1.00  0.00    -0.371 OA
BRANCH   4   5
ATOM      5  C   UNL     1      10.667  -9.194  15.279  1.00  0.00     0.158 C 
ATOM      6  C   UNL     1       7.803  -7.557  11.239  1.00  0.00    -0.003 C 
ATOM      7  C   UNL     1       8.278  -6.952  12.565  1.00  0.00     0.052 C 
ATOM      8  C   UNL     1       8.860  -8.545  10.725  1.00  0.00     0.019 C 
ATOM      9  C   UNL     1       8.668  -8.036  13.580  1.00  0.00     0.189 C 
ATOM     10  C   UNL     1       9.228  -9.575  11.792  1.00  0.00     0.087 C 
ATOM     11  N   UNL     1       9.688  -8.919  13.016  1.00  0.00    -0.276 NA
ATOM     12  O   UNL     1       9.133  -7.355  14.747  1.00  0.00    -0.360 OA
ATOM     13  C   UNL     1      10.128  -9.895  14.019  1.00  0.00     0.121 C 
ATOM     14  C   UNL     1       9.571  -8.246  15.777  1.00  0.00     0.195 C 
BRANCH   6  15
ATOM     15  C   UNL     1       7.530  -6.487  10.207  1.00  0.00    -0.008 C 
ATOM     16  C   UNL     1       6.111  -6.089   9.876  1.00  0.00     0.004 C 
ATOM     17  C   UNL     1       7.000  -5.134  10.617  1.00  0.00     0.004 C 
ENDBRANCH   6  15
ENDBRANCH   4   5
ENDBRANCH   1   4
BRANCH   3  18
ATOM     18  C   UNL     1      11.867  -4.640  15.606  1.00  0.00     0.053 C 
BRANCH  18  19
ATOM     19  C   UNL     1      11.662  -3.571  14.565  1.00  0.00     0.074 C 
BRANCH  19  20
ATOM     20  N   UNL     1      11.595  -3.760  13.289  1.00  0.00    -0.313 NA
ATOM     21  H   UNL     1      11.126  -4.647  13.060  1.00  0.00     0.186 HD
ENDBRANCH  19  20
ENDBRANCH  18  19
ENDBRANCH   3  18
TORSDOF 6
ENDMDL
MODEL 8
REMARK VINA RESULT:    -3.243      2.099      7.583
REMARK INTER + INTRA:          -4.587
REMARK INTER:                  -4.467
REMARK INTRA:                  -0.120
REMARK UNBOUND:                -0.302
REMARK SMILES [H]/N=C\C[C@H]1C[C@@H]1O[C@H]1CO[C@H]2C[C@@H](C3CC3)CCN2C1
REMARK SMILES IDX 7 1 6 2 5 3 8 4 9 5 14 6 13 7 18 8 12 9 19 10 20 11 11 12
REMARK SMILES IDX 21 13 10 14 15 15 16 16 17 17 4 18 3 19 2 20 1 21
REMARK H PARENT
ROOT
ATOM      1  C   UNL     1       7.265  -5.983  10.219  1.00  0.00     0.122 C 
ATOM      2  C   UNL     1       6.519  -5.136  11.210  1.00  0.00     0.039 C 
ATOM      3  C   UNL     1       7.320  -4.483  10.120  1.00  0.00     0.026 C 
ENDROOT
BRANCH   1   4
ATOM      4  O   UNL     1       8.428  -6.636  10.763  1.00  0.00    -0.371 OA
BRANCH   4   5
ATOM      5  C   UNL     1       8.187  -7.903  11.398  1.00  0.00     0.158 C 
ATOM      6  C   UNL     1      12.195  -7.879  14.736  1.00  0.00    -0.003 C 
ATOM      7  C   UNL     1      12.028  -8.050  13.221  1.00  0.00     0.052 C 
ATOM      8  C   UNL     1      11.112  -6.926  15.261  1.00  0.00     0.019 C 
ATOM      9  C   UNL     1      10.598  -8.463  12.848  1.00  0.00     0.189 C 
ATOM     10  C   UNL     1       9.716  -7.373  14.827  1.00  0.00     0.087 C 
ATOM     11  N   UNL     1       9.635  -7.494  13.371  1.00  0.00    -0.276 NA
ATOM     12  O   UNL     1      10.555  -8.545  11.422  1.00  0.00    -0.360 OA
ATOM     13  C   UNL     1       8.277  -7.838  12.933  1.00  0.00     0.121 C 
ATOM     14  C   UNL     1       9.260  -8.887  10.919  1.00  0.00     0.195 C 
BRANCH   6  15
ATOM     15  C   UNL     1      13.572  -7.363  15.088  1.00  0.00    -0.008 C 
ATOM     16  C   UNL     1      14.302  -7.898  16.298  1.00  0.00     0.004 C 
ATOM     17  C   UNL     1      14.792  -8.237  14.920  1.00  0.00     0.004 C 
ENDBRANCH   6  15
ENDBRANCH   4   5
ENDBRANCH   1   4
BRANCH   3  18
ATOM     18  C   UNL     1       6.598  -3.772   9.015  1.00  0.00     0.053 C 
BRANCH  18  19
ATOM     19  C   UNL     1       7.406  -2.774   8.226  1.00  0.00     0.074 C 
BRANCH  19  20
ATOM     20  N   UNL     1       8.464  -3.035   7.533  1.00  0.00    -0.313 NA
ATOM     21  H   UNL     1       9.316  -2.984   8.108  1.00  0.00     0.186 HD
ENDBRANCH  19  20
ENDBRANCH  18  19
ENDBRANCH   3  18
TORSDOF 6
ENDMDL
MODEL 9
REMARK VINA RESULT:    -3.217      5.124      8.068
REMARK INTER + INTRA:          -4.552
REMARK INTER:                  -4.651
REMARK INTRA:                   0.099
REMARK UNBOUND:                -0.302
REMARK SMILES [H]/N=C\C[C@H]1C[C@@H]1O[C@H]1CO[C@H]2C[C@@H](C3CC3)CCN2C1
REMARK SMILES IDX 7 1 6 2 5 3 8 4 9 5 14 6 13 7 18 8 12 9 19 10 20 11 11 12
REMARK SMILES IDX 21 13 10 14 15 15 16 16 17 17 4 18 3 19 2 20 1 21
REMARK H PARENT
ROOT
ATOM      1  C   UNL     1       7.199  -2.439   9.685  1.00  0.00     0.122 C 
ATOM      2  C   UNL     1       7.997  -3.064   8.576  1.00  0.00     0.039 C 
ATOM      3  C   UNL     1       7.625  -3.878   9.783  1.00  0.00     0.026 C 
ENDROOT
BRANCH   1   4
ATOM      4  O   UNL     1       7.939  -1.492  10.479  1.00  0.00    -0.371 OA
BRANCH   4   5
ATOM      5  C   UNL     1       9.135  -0.976   9.873  1.00  0.00     0.158 C 
ATOM      6  C   UNL     1      10.861   1.897  13.870  1.00  0.00    -0.003 C 
ATOM      7  C   UNL     1       9.714   2.000  12.858  1.00  0.00     0.052 C 
ATOM      8  C   UNL     1      11.140   0.417  14.171  1.00  0.00     0.019 C 
ATOM      9  C   UNL     1       9.976   1.147  11.609  1.00  0.00     0.189 C 
ATOM     10  C   UNL     1      11.358  -0.382  12.887  1.00  0.00     0.087 C 
ATOM     11  N   UNL     1      10.214  -0.247  11.985  1.00  0.00    -0.276 NA
ATOM     12  O   UNL     1       8.828   1.287  10.770  1.00  0.00    -0.360 OA
ATOM     13  C   UNL     1      10.370  -1.078  10.786  1.00  0.00     0.121 C 
ATOM     14  C   UNL     1       8.912   0.510   9.571  1.00  0.00     0.195 C 
BRANCH   6  15
ATOM     15  C   UNL     1      10.546   2.647  15.144  1.00  0.00    -0.008 C 
ATOM     16  C   UNL     1      11.532   3.644  15.707  1.00  0.00     0.004 C 
ATOM     17  C   UNL     1      10.239   4.125  15.115  1.00  0.00     0.004 C 
ENDBRANCH   6  15
ENDBRANCH   4   5
ENDBRANCH   1   4
BRANCH   3  18
ATOM     18  C   UNL     1       6.616  -4.977   9.635  1.00  0.00     0.053 C 
BRANCH  18  19
ATOM     19  C   UNL     1       6.996  -6.314  10.216  1.00  0.00     0.074 C 
BRANCH  19  20
ATOM     20  N   UNL     1       7.990  -6.540  11.009  1.00  0.00    -0.313 NA
ATOM     21  H   UNL     1       8.599  -7.289  10.652  1.00  0.00     0.186 HD
ENDBRANCH  19  20
ENDBRANCH  18  19
ENDBRANCH   3  18
TORSDOF 6
ENDMDL
