MODEL 1
REMARK VINA RESULT:    -4.919      0.000      0.000
REMARK INTER + INTRA:          -6.204
REMARK INTER:                  -5.781
REMARK INTRA:                  -0.423
REMARK UNBOUND:                -0.423
REMARK SMILES Cc1ccc(CNC(=O)NC(=O)c2ccc(C)cc2)cc1
REMARK SMILES IDX 11 1 12 2 10 3 8 4 9 5 7 6 13 9 19 10 18 11 14 12 16 13
REMARK SMILES IDX 15 14 17 15 6 16 5 17 4 18 20 19 3 20 21 21 2 22 1 23
REMARK H PARENT 10 7 7 8
ROOT
ATOM      1  C   UNL     1       7.157  -5.251  10.407  1.00  0.00     0.259 C 
ATOM      2  O   UNL     1       6.919  -6.360   9.949  1.00  0.00    -0.269 OA
ATOM      3  N   UNL     1       7.570  -4.908  11.698  1.00  0.00    -0.274 N 
ATOM      4  C   UNL     1       8.074  -5.544  12.804  1.00  0.00     0.321 C 
ATOM      5  O   UNL     1       8.456  -4.841  13.745  1.00  0.00    -0.248 OA
ATOM      6  N   UNL     1       8.201  -6.881  12.900  1.00  0.00    -0.334 N 
ATOM      7  H   UNL     1       7.683  -3.914  11.850  1.00  0.00     0.175 HD
ATOM      8  H   UNL     1       8.669  -7.185  13.742  1.00  0.00     0.165 HD
ENDROOT
BRANCH   1   9
ATOM      9  C   UNL     1       6.996  -4.108   9.488  1.00  0.00     0.040 A 
ATOM     10  C   UNL     1       7.904  -3.872   8.454  1.00  0.00     0.014 A 
ATOM     11  C   UNL     1       7.681  -2.809   7.578  1.00  0.00     0.004 A 
ATOM     12  C   UNL     1       5.905  -3.256   9.684  1.00  0.00     0.014 A 
ATOM     13  C   UNL     1       6.561  -1.979   7.735  1.00  0.00    -0.051 A 
ATOM     14  C   UNL     1       5.682  -2.200   8.803  1.00  0.00     0.004 A 
ATOM     15  C   UNL     1       6.289  -0.894   6.735  1.00  0.00     0.044 C 
ENDBRANCH   1   9
BRANCH   6  16
ATOM     16  C   UNL     1       7.918  -7.862  11.891  1.00  0.00     0.153 C 
BRANCH  16  17
ATOM     17  C   UNL     1       8.859  -9.030  11.782  1.00  0.00    -0.029 A 
ATOM     18  C   UNL     1      10.147  -8.926  11.246  1.00  0.00     0.006 A 
ATOM     19  C   UNL     1       8.492 -10.215  12.440  1.00  0.00     0.006 A 
ATOM     20  C   UNL     1      11.053  -9.981  11.392  1.00  0.00     0.004 A 
ATOM     21  C   UNL     1       9.396 -11.262  12.589  1.00  0.00     0.004 A 
ATOM     22  C   UNL     1      10.689 -11.150  12.074  1.00  0.00    -0.051 A 
ATOM     23  C   UNL     1      11.696 -12.224  12.358  1.00  0.00     0.044 C 
ENDBRANCH  16  17
ENDBRANCH   6  16
TORSDOF 3
ENDMDL
MODEL 2
REMARK VINA RESULT:    -4.882      6.217      9.063
REMARK INTER + INTRA:          -6.161
REMARK INTER:                  -5.726
REMARK INTRA:                  -0.435
REMARK UNBOUND:                -0.423
REMARK SMILES Cc1ccc(CNC(=O)NC(=O)c2ccc(C)cc2)cc1
REMARK SMILES IDX 11 1 12 2 10 3 8 4 9 5 7 6 13 9 19 10 18 11 14 12 16 13
REMARK SMILES IDX 15 14 17 15 6 16 5 17 4 18 20 19 3 20 21 21 2 22 1 23
REMARK H PARENT 10 7 7 8
ROOT
ATOM      1  C   UNL     1       9.155  -0.689  10.183  1.00  0.00     0.259 C 
ATOM      2  O   UNL     1       9.160   0.530  10.085  1.00  0.00    -0.269 OA
ATOM      3  N   UNL     1       9.959  -1.506  10.984  1.00  0.00    -0.274 N 
ATOM      4  C   UNL     1      10.809  -1.359  12.050  1.00  0.00     0.321 C 
ATOM      5  O   UNL     1      11.244  -2.386  12.582  1.00  0.00    -0.248 OA
ATOM      6  N   UNL     1      11.165  -0.165  12.559  1.00  0.00    -0.334 N 
ATOM      7  H   UNL     1       9.784  -2.496  10.877  1.00  0.00     0.175 HD
ATOM      8  H   UNL     1      11.727  -0.230  13.395  1.00  0.00     0.165 HD
ENDROOT
BRANCH   1   9
ATOM      9  C   UNL     1       8.172  -1.414   9.356  1.00  0.00     0.040 A 
ATOM     10  C   UNL     1       6.825  -1.483   9.719  1.00  0.00     0.014 A 
ATOM     11  C   UNL     1       5.923  -2.135   8.878  1.00  0.00     0.004 A 
ATOM     12  C   UNL     1       8.627  -2.042   8.193  1.00  0.00     0.014 A 
ATOM     13  C   UNL     1       6.361  -2.724   7.682  1.00  0.00    -0.051 A 
ATOM     14  C   UNL     1       7.722  -2.687   7.353  1.00  0.00     0.004 A 
ATOM     15  C   UNL     1       5.366  -3.347   6.748  1.00  0.00     0.044 C 
ENDBRANCH   1   9
BRANCH   6  16
ATOM     16  C   UNL     1      10.696   1.132  12.160  1.00  0.00     0.153 C 
BRANCH  16  17
ATOM     17  C   UNL     1      10.380   2.118  13.251  1.00  0.00    -0.029 A 
ATOM     18  C   UNL     1       9.296   1.971  14.121  1.00  0.00     0.006 A 
ATOM     19  C   UNL     1      11.343   3.103  13.525  1.00  0.00     0.006 A 
ATOM     20  C   UNL     1       9.195   2.782  15.257  1.00  0.00     0.004 A 
ATOM     21  C   UNL     1      11.244   3.906  14.657  1.00  0.00     0.004 A 
ATOM     22  C   UNL     1      10.174   3.745  15.539  1.00  0.00    -0.051 A 
ATOM     23  C   UNL     1      10.149   4.517  16.824  1.00  0.00     0.044 C 
ENDBRANCH  16  17
ENDBRANCH   6  16
TORSDOF 3
ENDMDL
MODEL 3
REMARK VINA RESULT:    -4.559      3.027      4.967
REMARK INTER + INTRA:          -5.781
REMARK INTER:                  -5.284
REMARK INTRA:                  -0.498
REMARK UNBOUND:                -0.423
REMARK SMILES Cc1ccc(CNC(=O)NC(=O)c2ccc(C)cc2)cc1
REMARK SMILES IDX 11 1 12 2 10 3 8 4 9 5 7 6 13 9 19 10 18 11 14 12 16 13
REMARK SMILES IDX 15 14 17 15 6 16 5 17 4 18 20 19 3 20 21 21 2 22 1 23
REMARK H PARENT 10 7 7 8
ROOT
ATOM      1  C   UNL     1       8.551  -8.890  12.992  1.00  0.00     0.259 C 
ATOM      2  O   UNL     1       9.463  -8.711  13.787  1.00  0.00    -0.269 OA
ATOM      3  N   UNL     1       7.835 -10.063  12.731  1.00  0.00    -0.274 N 
ATOM      4  C   UNL     1       7.656 -11.292  13.313  1.00  0.00     0.321 C 
ATOM      5  O   UNL     1       6.802 -12.039  12.823  1.00  0.00    -0.248 OA
ATOM      6  N   UNL     1       8.336 -11.708  14.397  1.00  0.00    -0.334 N 
ATOM      7  H   UNL     1       7.135  -9.971  12.007  1.00  0.00     0.175 HD
ATOM      8  H   UNL     1       8.026 -12.601  14.753  1.00  0.00     0.165 HD
ENDROOT
BRANCH   1   9
ATOM      9  C   UNL     1       8.131  -7.722  12.195  1.00  0.00     0.040 A 
ATOM     10  C   UNL     1       7.864  -7.831  10.829  1.00  0.00     0.014 A 
ATOM     11  C   UNL     1       7.418  -6.710  10.127  1.00  0.00     0.004 A 
ATOM     12  C   UNL     1       8.013  -6.490  12.846  1.00  0.00     0.014 A 
ATOM     13  C   UNL     1       7.247  -5.482  10.783  1.00  0.00    -0.051 A 
ATOM     14  C   UNL     1       7.562  -5.375  12.143  1.00  0.00     0.004 A 
ATOM     15  C   UNL     1       6.687  -4.308  10.035  1.00  0.00     0.044 C 
ENDBRANCH   1   9
BRANCH   6  16
ATOM     16  C   UNL     1       9.287 -10.964  15.174  1.00  0.00     0.153 C 
BRANCH  16  17
ATOM     17  C   UNL     1      10.697 -11.483  15.219  1.00  0.00    -0.029 A 
ATOM     18  C   UNL     1      11.355 -12.004  14.101  1.00  0.00     0.006 A 
ATOM     19  C   UNL     1      11.437 -11.233  16.386  1.00  0.00     0.006 A 
ATOM     20  C   UNL     1      12.733 -12.245  14.148  1.00  0.00     0.004 A 
ATOM     21  C   UNL     1      12.808 -11.468  16.430  1.00  0.00     0.004 A 
ATOM     22  C   UNL     1      13.470 -11.967  15.307  1.00  0.00    -0.051 A 
ATOM     23  C   UNL     1      14.964 -12.086  15.319  1.00  0.00     0.044 C 
ENDBRANCH  16  17
ENDBRANCH   6  16
TORSDOF 3
ENDMDL
MODEL 4
REMARK VINA RESULT:    -4.500      4.155      7.810
REMARK INTER + INTRA:          -5.712
REMARK INTER:                  -5.177
REMARK INTRA:                  -0.535
REMARK UNBOUND:                -0.423
REMARK SMILES Cc1ccc(CNC(=O)NC(=O)c2ccc(C)cc2)cc1
REMARK SMILES IDX 11 1 12 2 10 3 8 4 9 5 7 6 13 9 19 10 18 11 14 12 16 13
REMARK SMILES IDX 15 14 17 15 6 16 5 17 4 18 20 19 3 20 21 21 2 22 1 23
REMARK H PARENT 10 7 7 8
ROOT
ATOM      1  C   UNL     1      11.389  -7.959  14.176  1.00  0.00     0.259 C 
ATOM      2  O   UNL     1      10.294  -7.686  14.648  1.00  0.00    -0.269 OA
ATOM      3  N   UNL     1      11.695  -8.816  13.114  1.00  0.00    -0.274 N 
ATOM      4  C   UNL     1      11.027  -9.448  12.097  1.00  0.00     0.321 C 
ATOM      5  O   UNL     1      11.703 -10.038  11.247  1.00  0.00    -0.248 OA
ATOM      6  N   UNL     1       9.688  -9.432  11.964  1.00  0.00    -0.334 N 
ATOM      7  H   UNL     1      12.684  -8.900  12.918  1.00  0.00     0.175 HD
ATOM      8  H   UNL     1       9.359  -9.871  11.116  1.00  0.00     0.165 HD
ENDROOT
BRANCH   1   9
ATOM      9  C   UNL     1      12.557  -7.304  14.795  1.00  0.00     0.040 A 
ATOM     10  C   UNL     1      13.780  -7.965  14.923  1.00  0.00     0.014 A 
ATOM     11  C   UNL     1      14.871  -7.286  15.467  1.00  0.00     0.004 A 
ATOM     12  C   UNL     1      12.405  -5.994  15.261  1.00  0.00     0.014 A 
ATOM     13  C   UNL     1      14.742  -5.954  15.890  1.00  0.00    -0.051 A 
ATOM     14  C   UNL     1      13.499  -5.318  15.797  1.00  0.00     0.004 A 
ATOM     15  C   UNL     1      15.945  -5.211  16.393  1.00  0.00     0.044 C 
ENDBRANCH   1   9
BRANCH   6  16
ATOM     16  C   UNL     1       8.735  -8.727  12.773  1.00  0.00     0.153 C 
BRANCH  16  17
ATOM     17  C   UNL     1       8.052  -7.538  12.157  1.00  0.00    -0.029 A 
ATOM     18  C   UNL     1       7.987  -6.287  12.779  1.00  0.00     0.006 A 
ATOM     19  C   UNL     1       7.653  -7.650  10.815  1.00  0.00     0.006 A 
ATOM     20  C   UNL     1       7.555  -5.168  12.058  1.00  0.00     0.004 A 
ATOM     21  C   UNL     1       7.228  -6.536  10.098  1.00  0.00     0.004 A 
ATOM     22  C   UNL     1       7.185  -5.283  10.711  1.00  0.00    -0.051 A 
ATOM     23  C   UNL     1       6.858  -4.068   9.895  1.00  0.00     0.044 C 
ENDBRANCH  16  17
ENDBRANCH   6  16
TORSDOF 3
ENDMDL
MODEL 5
REMARK VINA RESULT:    -4.276      6.369      8.770
REMARK INTER + INTRA:          -5.448
REMARK INTER:                  -5.101
REMARK INTRA:                  -0.348
REMARK UNBOUND:                -0.423
REMARK SMILES Cc1ccc(CNC(=O)NC(=O)c2ccc(C)cc2)cc1
REMARK SMILES IDX 11 1 12 2 10 3 8 4 9 5 7 6 13 9 19 10 18 11 14 12 16 13
REMARK SMILES IDX 15 14 17 15 6 16 5 17 4 18 20 19 3 20 21 21 2 22 1 23
REMARK H PARENT 10 7 7 8
ROOT
ATOM      1  C   UNL     1       9.356  -1.012  10.368  1.00  0.00     0.259 C 
ATOM      2  O   UNL     1       9.488   0.203  10.408  1.00  0.00    -0.269 OA
ATOM      3  N   UNL     1      10.025  -1.990  11.110  1.00  0.00    -0.274 N 
ATOM      4  C   UNL     1      10.819  -2.049  12.226  1.00  0.00     0.321 C 
ATOM      5  O   UNL     1      11.117  -3.167  12.660  1.00  0.00    -0.248 OA
ATOM      6  N   UNL     1      11.261  -0.960  12.882  1.00  0.00    -0.334 N 
ATOM      7  H   UNL     1       9.758  -2.940  10.884  1.00  0.00     0.175 HD
ATOM      8  H   UNL     1      11.763  -1.174  13.732  1.00  0.00     0.165 HD
ENDROOT
BRANCH   1   9
ATOM      9  C   UNL     1       8.356  -1.537   9.418  1.00  0.00     0.040 A 
ATOM     10  C   UNL     1       8.732  -2.059   8.179  1.00  0.00     0.014 A 
ATOM     11  C   UNL     1       7.756  -2.591   7.336  1.00  0.00     0.004 A 
ATOM     12  C   UNL     1       7.009  -1.491   9.790  1.00  0.00     0.014 A 
ATOM     13  C   UNL     1       6.407  -2.597   7.722  1.00  0.00    -0.051 A 
ATOM     14  C   UNL     1       6.038  -2.030   8.948  1.00  0.00     0.004 A 
ATOM     15  C   UNL     1       5.382  -3.250   6.843  1.00  0.00     0.044 C 
ENDBRANCH   1   9
BRANCH   6  16
ATOM     16  C   UNL     1      10.949   0.414  12.609  1.00  0.00     0.153 C 
BRANCH  16  17
ATOM     17  C   UNL     1      11.699   1.460  13.387  1.00  0.00    -0.029 A 
ATOM     18  C   UNL     1      12.960   1.235  13.949  1.00  0.00     0.006 A 
ATOM     19  C   UNL     1      11.194   2.770  13.357  1.00  0.00     0.006 A 
ATOM     20  C   UNL     1      13.706   2.308  14.447  1.00  0.00     0.004 A 
ATOM     21  C   UNL     1      11.939   3.837  13.848  1.00  0.00     0.004 A 
ATOM     22  C   UNL     1      13.207   3.617  14.389  1.00  0.00    -0.051 A 
ATOM     23  C   UNL     1      14.056   4.786  14.789  1.00  0.00     0.044 C 
ENDBRANCH  16  17
ENDBRANCH   6  16
TORSDOF 3
ENDMDL
MODEL 6
REMARK VINA RESULT:    -4.194      6.353      8.921
REMARK INTER + INTRA:          -5.352
REMARK INTER:                  -4.926
REMARK INTRA:                  -0.426
REMARK UNBOUND:                -0.423
REMARK SMILES Cc1ccc(CNC(=O)NC(=O)c2ccc(C)cc2)cc1
REMARK SMILES IDX 11 1 12 2 10 3 8 4 9 5 7 6 13 9 19 10 18 11 14 12 16 13
REMARK SMILES IDX 15 14 17 15 6 16 5 17 4 18 20 19 3 20 21 21 2 22 1 23
REMARK H PARENT 10 7 7 8
ROOT
ATOM      1  C   UNL     1       9.922   0.977  12.566  1.00  0.00     0.259 C 
ATOM      2  O   UNL     1       9.062   1.204  11.727  1.00  0.00    -0.269 OA
ATOM      3  N   UNL     1      10.724  -0.160  12.712  1.00  0.00    -0.274 N 
ATOM      4  C   UNL     1      11.065  -1.261  11.969  1.00  0.00     0.321 C 
ATOM      5  O   UNL     1      11.946  -2.004  12.416  1.00  0.00    -0.248 OA
ATOM      6  N   UNL     1      10.514  -1.554  10.776  1.00  0.00    -0.334 N 
ATOM      7  H   UNL     1      11.355  -0.127  13.502  1.00  0.00     0.175 HD
ATOM      8  H   UNL     1      10.935  -2.350  10.319  1.00  0.00     0.165 HD
ENDROOT
BRANCH   1   9
ATOM      9  C   UNL     1      10.165   2.034  13.566  1.00  0.00     0.040 A 
ATOM     10  C   UNL     1       9.307   2.220  14.652  1.00  0.00     0.014 A 
ATOM     11  C   UNL     1       9.607   3.198  15.601  1.00  0.00     0.004 A 
ATOM     12  C   UNL     1      11.283   2.856  13.394  1.00  0.00     0.014 A 
ATOM     13  C   UNL     1      10.754   3.994  15.464  1.00  0.00    -0.051 A 
ATOM     14  C   UNL     1      11.582   3.828  14.347  1.00  0.00     0.004 A 
ATOM     15  C   UNL     1      11.108   4.983  16.536  1.00  0.00     0.044 C 
ENDBRANCH   1   9
BRANCH   6  16
ATOM     16  C   UNL     1       9.560  -0.777  10.037  1.00  0.00     0.153 C 
BRANCH  16  17
ATOM     17  C   UNL     1       8.451  -1.521   9.347  1.00  0.00    -0.029 A 
ATOM     18  C   UNL     1       7.115  -1.450   9.753  1.00  0.00     0.006 A 
ATOM     19  C   UNL     1       8.756  -2.137   8.122  1.00  0.00     0.006 A 
ATOM     20  C   UNL     1       6.105  -1.965   8.934  1.00  0.00     0.004 A 
ATOM     21  C   UNL     1       7.750  -2.645   7.305  1.00  0.00     0.004 A 
ATOM     22  C   UNL     1       6.414  -2.554   7.700  1.00  0.00    -0.051 A 
ATOM     23  C   UNL     1       5.331  -2.979   6.754  1.00  0.00     0.044 C 
ENDBRANCH  16  17
ENDBRANCH   6  16
TORSDOF 3
ENDMDL
MODEL 7
REMARK VINA RESULT:    -4.067      3.251      4.738
REMARK INTER + INTRA:          -5.203
REMARK INTER:                  -4.862
REMARK INTRA:                  -0.341
REMARK UNBOUND:                -0.423
REMARK SMILES Cc1ccc(CNC(=O)NC(=O)c2ccc(C)cc2)cc1
REMARK SMILES IDX 11 1 12 2 10 3 8 4 9 5 7 6 13 9 19 10 18 11 14 12 16 13
REMARK SMILES IDX 15 14 17 15 6 16 5 17 4 18 20 19 3 20 21 21 2 22 1 23
REMARK H PARENT 10 7 7 8
ROOT
ATOM      1  C   UNL     1       8.725  -8.521  12.528  1.00  0.00     0.259 C 
ATOM      2  O   UNL     1       9.769  -8.933  12.042  1.00  0.00    -0.269 OA
ATOM      3  N   UNL     1       8.029  -8.999  13.642  1.00  0.00    -0.274 N 
ATOM      4  C   UNL     1       8.265  -9.840  14.700  1.00  0.00     0.321 C 
ATOM      5  O   UNL     1       7.406  -9.903  15.585  1.00  0.00    -0.248 OA
ATOM      6  N   UNL     1       9.389 -10.569  14.834  1.00  0.00    -0.334 N 
ATOM      7  H   UNL     1       7.170  -8.505  13.842  1.00  0.00     0.175 HD
ATOM      8  H   UNL     1       9.446 -11.070  15.710  1.00  0.00     0.165 HD
ENDROOT
BRANCH   1   9
ATOM      9  C   UNL     1       8.102  -7.358  11.866  1.00  0.00     0.040 A 
ATOM     10  C   UNL     1       7.913  -6.151  12.540  1.00  0.00     0.014 A 
ATOM     11  C   UNL     1       7.368  -5.064  11.857  1.00  0.00     0.004 A 
ATOM     12  C   UNL     1       7.694  -7.501  10.535  1.00  0.00     0.014 A 
ATOM     13  C   UNL     1       7.004  -5.181  10.507  1.00  0.00    -0.051 A 
ATOM     14  C   UNL     1       7.156  -6.410   9.855  1.00  0.00     0.004 A 
ATOM     15  C   UNL     1       6.498  -3.980   9.763  1.00  0.00     0.044 C 
ENDBRANCH   1   9
BRANCH   6  16
ATOM     16  C   UNL     1      10.544 -10.563  13.982  1.00  0.00     0.153 C 
BRANCH  16  17
ATOM     17  C   UNL     1      11.787  -9.901  14.510  1.00  0.00    -0.029 A 
ATOM     18  C   UNL     1      12.872 -10.616  15.026  1.00  0.00     0.006 A 
ATOM     19  C   UNL     1      11.933  -8.525  14.272  1.00  0.00     0.006 A 
ATOM     20  C   UNL     1      14.085  -9.965  15.275  1.00  0.00     0.004 A 
ATOM     21  C   UNL     1      13.141  -7.879  14.515  1.00  0.00     0.004 A 
ATOM     22  C   UNL     1      14.232  -8.597  15.009  1.00  0.00    -0.051 A 
ATOM     23  C   UNL     1      15.565  -7.924  15.137  1.00  0.00     0.044 C 
ENDBRANCH  16  17
ENDBRANCH   6  16
TORSDOF 3
ENDMDL
MODEL 8
REMARK VINA RESULT:    -3.888      4.720      7.098
REMARK INTER + INTRA:          -4.993
REMARK INTER:                  -4.422
REMARK INTRA:                  -0.570
REMARK UNBOUND:                -0.423
REMARK SMILES Cc1ccc(CNC(=O)NC(=O)c2ccc(C)cc2)cc1
REMARK SMILES IDX 11 1 12 2 10 3 8 4 9 5 7 6 13 9 19 10 18 11 14 12 16 13
REMARK SMILES IDX 15 14 17 15 6 16 5 17 4 18 20 19 3 20 21 21 2 22 1 23
REMARK H PARENT 10 7 7 8
ROOT
ATOM      1  C   UNL     1      11.842  -5.031  14.960  1.00  0.00     0.259 C 
ATOM      2  O   UNL     1      10.674  -4.837  15.270  1.00  0.00    -0.269 OA
ATOM      3  N   UNL     1      12.460  -6.227  14.583  1.00  0.00    -0.274 N 
ATOM      4  C   UNL     1      12.080  -7.485  14.191  1.00  0.00     0.321 C 
ATOM      5  O   UNL     1      12.963  -8.254  13.797  1.00  0.00    -0.248 OA
ATOM      6  N   UNL     1      10.802  -7.908  14.186  1.00  0.00    -0.334 N 
ATOM      7  H   UNL     1      13.450  -6.142  14.392  1.00  0.00     0.175 HD
ATOM      8  H   UNL     1      10.680  -8.828  13.789  1.00  0.00     0.165 HD
ENDROOT
BRANCH   1   9
ATOM      9  C   UNL     1      12.733  -3.855  14.976  1.00  0.00     0.040 A 
ATOM     10  C   UNL     1      14.055  -3.949  15.414  1.00  0.00     0.014 A 
ATOM     11  C   UNL     1      14.875  -2.822  15.361  1.00  0.00     0.004 A 
ATOM     12  C   UNL     1      12.213  -2.631  14.543  1.00  0.00     0.014 A 
ATOM     13  C   UNL     1      14.378  -1.601  14.880  1.00  0.00    -0.051 A 
ATOM     14  C   UNL     1      13.038  -1.509  14.486  1.00  0.00     0.004 A 
ATOM     15  C   UNL     1      15.295  -0.421  14.749  1.00  0.00     0.044 C 
ENDBRANCH   1   9
BRANCH   6  16
ATOM     16  C   UNL     1       9.626  -7.148  14.502  1.00  0.00     0.153 C 
BRANCH  16  17
ATOM     17  C   UNL     1       8.673  -6.851  13.378  1.00  0.00    -0.029 A 
ATOM     18  C   UNL     1       8.113  -5.587  13.166  1.00  0.00     0.006 A 
ATOM     19  C   UNL     1       8.517  -7.836  12.390  1.00  0.00     0.006 A 
ATOM     20  C   UNL     1       7.432  -5.314  11.975  1.00  0.00     0.004 A 
ATOM     21  C   UNL     1       7.843  -7.562  11.204  1.00  0.00     0.004 A 
ATOM     22  C   UNL     1       7.303  -6.294  10.982  1.00  0.00    -0.051 A 
ATOM     23  C   UNL     1       6.701  -5.968   9.648  1.00  0.00     0.044 C 
ENDBRANCH  16  17
ENDBRANCH   6  16
TORSDOF 3
ENDMDL
MODEL 9
REMARK VINA RESULT:    -3.852      8.395     10.165
REMARK INTER + INTRA:          -4.950
REMARK INTER:                  -4.796
REMARK INTRA:                  -0.154
REMARK UNBOUND:                -0.423
REMARK SMILES Cc1ccc(CNC(=O)NC(=O)c2ccc(C)cc2)cc1
REMARK SMILES IDX 11 1 12 2 10 3 8 4 9 5 7 6 13 9 19 10 18 11 14 12 16 13
REMARK SMILES IDX 15 14 17 15 6 16 5 17 4 18 20 19 3 20 21 21 2 22 1 23
REMARK H PARENT 10 7 7 8
ROOT
ATOM      1  C   UNL     1      10.750   1.994  13.387  1.00  0.00     0.259 C 
ATOM      2  O   UNL     1      10.463   1.674  14.532  1.00  0.00    -0.269 OA
ATOM      3  N   UNL     1      11.447   3.121  12.942  1.00  0.00    -0.274 N 
ATOM      4  C   UNL     1      12.234   4.105  13.483  1.00  0.00     0.321 C 
ATOM      5  O   UNL     1      12.798   4.881  12.704  1.00  0.00    -0.248 OA
ATOM      6  N   UNL     1      12.446   4.246  14.805  1.00  0.00    -0.334 N 
ATOM      7  H   UNL     1      11.544   3.182  11.937  1.00  0.00     0.175 HD
ATOM      8  H   UNL     1      13.118   4.963  15.035  1.00  0.00     0.165 HD
ENDROOT
BRANCH   1   9
ATOM      9  C   UNL     1      10.315   1.076  12.316  1.00  0.00     0.040 A 
ATOM     10  C   UNL     1      10.888  -0.188  12.163  1.00  0.00     0.014 A 
ATOM     11  C   UNL     1      10.407  -1.040  11.169  1.00  0.00     0.004 A 
ATOM     12  C   UNL     1       9.310   1.512  11.446  1.00  0.00     0.014 A 
ATOM     13  C   UNL     1       9.364  -0.633  10.324  1.00  0.00    -0.051 A 
ATOM     14  C   UNL     1       8.829   0.654  10.459  1.00  0.00     0.004 A 
ATOM     15  C   UNL     1       8.801  -1.591   9.316  1.00  0.00     0.044 C 
ENDBRANCH   1   9
BRANCH   6  16
ATOM     16  C   UNL     1      11.976   3.397  15.862  1.00  0.00     0.153 C 
BRANCH  16  17
ATOM     17  C   UNL     1      12.900   2.311  16.339  1.00  0.00    -0.029 A 
ATOM     18  C   UNL     1      12.470   1.011  16.621  1.00  0.00     0.006 A 
ATOM     19  C   UNL     1      14.279   2.574  16.291  1.00  0.00     0.006 A 
ATOM     20  C   UNL     1      13.406  -0.008  16.825  1.00  0.00     0.004 A 
ATOM     21  C   UNL     1      15.210   1.559  16.490  1.00  0.00     0.004 A 
ATOM     22  C   UNL     1      14.781   0.256  16.748  1.00  0.00    -0.051 A 
ATOM     23  C   UNL     1      15.786  -0.854  16.824  1.00  0.00     0.044 C 
ENDBRANCH  16  17
ENDBRANCH   6  16
TORSDOF 3
ENDMDL
