MODEL 1
REMARK VINA RESULT:    -4.176      0.000      0.000
REMARK INTER + INTRA:          -5.718
REMARK INTER:                  -5.519
REMARK INTRA:                  -0.199
REMARK UNBOUND:                -0.199
REMARK SMILES [H]/N=C\C[C@H]1C[C@@H]1O[C@H]1CO[C@H]2C[C@@H](C3CC3)CCN2C1
REMARK SMILES IDX 7 1 6 2 5 3 8 4 9 5 14 6 13 7 18 8 12 9 19 10 20 11 11 12
REMARK SMILES IDX 21 13 10 14 15 15 16 16 17 17 4 18 3 19 2 20 1 21
REMARK H PARENT
ROOT
ATOM      1  C   UNL     1     -13.591   0.723  -0.452  1.00  0.00     0.122 C 
ATOM      2  C   UNL     1     -14.847   0.888  -1.261  1.00  0.00     0.039 C 
ATOM      3  C   UNL     1     -14.406  -0.483  -0.833  1.00  0.00     0.026 C 
ENDROOT
BRANCH   1   4
ATOM      4  O   UNL     1     -12.379   0.944  -1.198  1.00  0.00    -0.371 OA
BRANCH   4   5
ATOM      5  C   UNL     1     -12.105   2.312  -1.545  1.00  0.00     0.158 C 
ATOM      6  C   UNL     1      -6.999   2.382  -0.486  1.00  0.00    -0.003 C 
ATOM      7  C   UNL     1      -8.291   2.334   0.339  1.00  0.00     0.052 C 
ATOM      8  C   UNL     1      -7.216   1.640  -1.813  1.00  0.00     0.019 C 
ATOM      9  C   UNL     1      -9.499   2.832  -0.466  1.00  0.00     0.189 C 
ATOM     10  C   UNL     1      -8.452   2.159  -2.547  1.00  0.00     0.087 C 
ATOM     11  N   UNL     1      -9.642   2.062  -1.702  1.00  0.00    -0.276 NA
ATOM     12  O   UNL     1     -10.640   2.697   0.384  1.00  0.00    -0.360 OA
ATOM     13  C   UNL     1     -10.851   2.475  -2.422  1.00  0.00     0.121 C 
ATOM     14  C   UNL     1     -11.860   3.092  -0.249  1.00  0.00     0.195 C 
BRANCH   6  15
ATOM     15  C   UNL     1      -5.834   1.785   0.272  1.00  0.00    -0.008 C 
ATOM     16  C   UNL     1      -4.474   2.439   0.222  1.00  0.00     0.004 C 
ATOM     17  C   UNL     1      -5.272   2.471   1.493  1.00  0.00     0.004 C 
ENDBRANCH   6  15
ENDBRANCH   4   5
ENDBRANCH   1   4
BRANCH   3  18
ATOM     18  C   UNL     1     -15.206  -1.212   0.204  1.00  0.00     0.053 C 
BRANCH  18  19
ATOM     19  C   UNL     1     -16.657  -1.452  -0.122  1.00  0.00     0.074 C 
BRANCH  19  20
ATOM     20  N   UNL     1     -17.119  -2.396  -0.872  1.00  0.00    -0.313 NA
ATOM     21  H   UNL     1     -17.285  -3.260  -0.336  1.00  0.00     0.186 HD
ENDBRANCH  19  20
ENDBRANCH  18  19
ENDBRANCH   3  18
TORSDOF 6
ENDMDL
MODEL 2
REMARK VINA RESULT:    -4.118      3.340      5.541
REMARK INTER + INTRA:          -5.641
REMARK INTER:                  -5.407
REMARK INTRA:                  -0.234
REMARK UNBOUND:                -0.199
REMARK SMILES [H]/N=C\C[C@H]1C[C@@H]1O[C@H]1CO[C@H]2C[C@@H](C3CC3)CCN2C1
REMARK SMILES IDX 7 1 6 2 5 3 8 4 9 5 14 6 13 7 18 8 12 9 19 10 20 11 11 12
REMARK SMILES IDX 21 13 10 14 15 15 16 16 17 17 4 18 3 19 2 20 1 21
REMARK H PARENT
ROOT
ATOM      1  C   UNL     1     -12.125   5.450  -0.191  1.00  0.00     0.122 C 
ATOM      2  C   UNL     1     -13.095   5.884   0.870  1.00  0.00     0.039 C 
ATOM      3  C   UNL     1     -12.124   6.874   0.294  1.00  0.00     0.026 C 
ENDROOT
BRANCH   1   4
ATOM      4  O   UNL     1     -11.064   4.604   0.293  1.00  0.00    -0.371 OA
BRANCH   4   5
ATOM      5  C   UNL     1     -11.452   3.266   0.646  1.00  0.00     0.158 C 
ATOM      6  C   UNL     1      -7.387   0.709  -1.388  1.00  0.00    -0.003 C 
ATOM      7  C   UNL     1      -8.612   1.444  -1.945  1.00  0.00     0.052 C 
ATOM      8  C   UNL     1      -6.941   1.383  -0.083  1.00  0.00     0.019 C 
ATOM      9  C   UNL     1      -9.725   1.573  -0.896  1.00  0.00     0.189 C 
ATOM     10  C   UNL     1      -8.101   1.512   0.904  1.00  0.00     0.087 C 
ATOM     11  N   UNL     1      -9.220   2.239   0.305  1.00  0.00    -0.276 NA
ATOM     12  O   UNL     1     -10.784   2.309  -1.511  1.00  0.00    -0.360 OA
ATOM     13  C   UNL     1     -10.307   2.447   1.268  1.00  0.00     0.121 C 
ATOM     14  C   UNL     1     -11.888   2.543  -0.632  1.00  0.00     0.195 C 
BRANCH   6  15
ATOM     15  C   UNL     1      -6.253   0.685  -2.388  1.00  0.00    -0.008 C 
ATOM     16  C   UNL     1      -5.606  -0.623  -2.777  1.00  0.00     0.004 C 
ATOM     17  C   UNL     1      -6.453   0.116  -3.771  1.00  0.00     0.004 C 
ENDBRANCH   6  15
ENDBRANCH   4   5
ENDBRANCH   1   4
BRANCH   3  18
ATOM     18  C   UNL     1     -12.643   7.973  -0.585  1.00  0.00     0.053 C 
BRANCH  18  19
ATOM     19  C   UNL     1     -13.840   8.729  -0.070  1.00  0.00     0.074 C 
BRANCH  19  20
ATOM     20  N   UNL     1     -13.839   9.572   0.908  1.00  0.00    -0.313 NA
ATOM     21  H   UNL     1     -12.935   9.582   1.401  1.00  0.00     0.186 HD
ENDBRANCH  19  20
ENDBRANCH  18  19
ENDBRANCH   3  18
TORSDOF 6
ENDMDL
MODEL 3
REMARK VINA RESULT:    -3.960      5.156      8.345
REMARK INTER + INTRA:          -5.433
REMARK INTER:                  -5.240
REMARK INTRA:                  -0.193
REMARK UNBOUND:                -0.199
REMARK SMILES [H]/N=C\C[C@H]1C[C@@H]1O[C@H]1CO[C@H]2C[C@@H](C3CC3)CCN2C1
REMARK SMILES IDX 7 1 6 2 5 3 8 4 9 5 14 6 13 7 18 8 12 9 19 10 20 11 11 12
REMARK SMILES IDX 21 13 10 14 15 15 16 16 17 17 4 18 3 19 2 20 1 21
REMARK H PARENT
ROOT
ATOM      1  C   UNL     1     -11.389   3.228  -0.609  1.00  0.00     0.122 C 
ATOM      2  C   UNL     1     -12.012   2.007  -1.223  1.00  0.00     0.039 C 
ATOM      3  C   UNL     1     -11.049   2.837  -2.021  1.00  0.00     0.026 C 
ENDROOT
BRANCH   1   4
ATOM      4  O   UNL     1     -12.298   4.333  -0.447  1.00  0.00    -0.371 OA
BRANCH   4   5
ATOM      5  C   UNL     1     -12.133   5.101   0.756  1.00  0.00     0.158 C 
ATOM      6  C   UNL     1     -14.748   9.380  -0.678  1.00  0.00    -0.003 C 
ATOM      7  C   UNL     1     -13.402   8.742  -1.042  1.00  0.00     0.052 C 
ATOM      8  C   UNL     1     -15.759   8.274  -0.343  1.00  0.00     0.019 C 
ATOM      9  C   UNL     1     -12.924   7.763   0.039  1.00  0.00     0.189 C 
ATOM     10  C   UNL     1     -15.210   7.316   0.713  1.00  0.00     0.087 C 
ATOM     11  N   UNL     1     -13.937   6.737   0.283  1.00  0.00    -0.276 NA
ATOM     12  O   UNL     1     -11.696   7.204  -0.430  1.00  0.00    -0.360 OA
ATOM     13  C   UNL     1     -13.439   5.749   1.247  1.00  0.00     0.121 C 
ATOM     14  C   UNL     1     -11.143   6.234   0.466  1.00  0.00     0.195 C 
BRANCH   6  15
ATOM     15  C   UNL     1     -15.269  10.254  -1.797  1.00  0.00    -0.008 C 
ATOM     16  C   UNL     1     -16.057  11.504  -1.485  1.00  0.00     0.004 C 
ATOM     17  C   UNL     1     -14.673  11.617  -2.055  1.00  0.00     0.004 C 
ENDBRANCH   6  15
ENDBRANCH   4   5
ENDBRANCH   1   4
BRANCH   3  18
ATOM     18  C   UNL     1      -9.698   2.273  -2.345  1.00  0.00     0.053 C 
BRANCH  18  19
ATOM     19  C   UNL     1      -9.145   2.607  -3.706  1.00  0.00     0.074 C 
BRANCH  19  20
ATOM     20  N   UNL     1      -9.837   2.785  -4.782  1.00  0.00    -0.313 NA
ATOM     21  H   UNL     1     -10.732   2.277  -4.745  1.00  0.00     0.186 HD
ENDBRANCH  19  20
ENDBRANCH  18  19
ENDBRANCH   3  18
TORSDOF 6
ENDMDL
MODEL 4
REMARK VINA RESULT:    -3.749      4.900      7.265
REMARK INTER + INTRA:          -5.154
REMARK INTER:                  -4.962
REMARK INTRA:                  -0.192
REMARK UNBOUND:                -0.199
REMARK SMILES [H]/N=C\C[C@H]1C[C@@H]1O[C@H]1CO[C@H]2C[C@@H](C3CC3)CCN2C1
REMARK SMILES IDX 7 1 6 2 5 3 8 4 9 5 14 6 13 7 18 8 12 9 19 10 20 11 11 12
REMARK SMILES IDX 21 13 10 14 15 15 16 16 17 17 4 18 3 19 2 20 1 21
REMARK H PARENT
ROOT
ATOM      1  C   UNL     1     -14.004   8.807  -0.961  1.00  0.00     0.122 C 
ATOM      2  C   UNL     1     -13.711   9.794  -2.056  1.00  0.00     0.039 C 
ATOM      3  C   UNL     1     -14.914   8.901  -2.156  1.00  0.00     0.026 C 
ENDROOT
BRANCH   1   4
ATOM      4  O   UNL     1     -13.102   7.685  -0.925  1.00  0.00    -0.371 OA
BRANCH   4   5
ATOM      5  C   UNL     1     -12.705   7.252   0.387  1.00  0.00     0.158 C 
ATOM      6  C   UNL     1     -12.472   2.121  -0.522  1.00  0.00    -0.003 C 
ATOM      7  C   UNL     1     -13.589   3.161  -0.378  1.00  0.00     0.052 C 
ATOM      8  C   UNL     1     -11.236   2.788  -1.143  1.00  0.00     0.019 C 
ATOM      9  C   UNL     1     -13.111   4.412   0.371  1.00  0.00     0.189 C 
ATOM     10  C   UNL     1     -10.832   4.044  -0.372  1.00  0.00     0.087 C 
ATOM     11  N   UNL     1     -11.944   4.991  -0.296  1.00  0.00    -0.276 NA
ATOM     12  O   UNL     1     -14.215   5.318   0.401  1.00  0.00    -0.360 OA
ATOM     13  C   UNL     1     -11.547   6.239   0.366  1.00  0.00     0.121 C 
ATOM     14  C   UNL     1     -13.905   6.559   1.042  1.00  0.00     0.195 C 
BRANCH   6  15
ATOM     15  C   UNL     1     -12.915   0.942  -1.359  1.00  0.00    -0.008 C 
ATOM     16  C   UNL     1     -13.594  -0.241  -0.711  1.00  0.00     0.004 C 
ATOM     17  C   UNL     1     -14.381   0.674  -1.602  1.00  0.00     0.004 C 
ENDBRANCH   6  15
ENDBRANCH   4   5
ENDBRANCH   1   4
BRANCH   3  18
ATOM     18  C   UNL     1     -16.280   9.505  -2.020  1.00  0.00     0.053 C 
BRANCH  18  19
ATOM     19  C   UNL     1     -17.441   8.546  -2.076  1.00  0.00     0.074 C 
BRANCH  19  20
ATOM     20  N   UNL     1     -17.413   7.302  -1.728  1.00  0.00    -0.313 NA
ATOM     21  H   UNL     1     -16.878   7.163  -0.859  1.00  0.00     0.186 HD
ENDBRANCH  19  20
ENDBRANCH  18  19
ENDBRANCH   3  18
TORSDOF 6
ENDMDL
MODEL 5
REMARK VINA RESULT:    -3.654      2.646      8.404
REMARK INTER + INTRA:          -5.029
REMARK INTER:                  -4.926
REMARK INTRA:                  -0.103
REMARK UNBOUND:                -0.199
REMARK SMILES [H]/N=C\C[C@H]1C[C@@H]1O[C@H]1CO[C@H]2C[C@@H](C3CC3)CCN2C1
REMARK SMILES IDX 7 1 6 2 5 3 8 4 9 5 14 6 13 7 18 8 12 9 19 10 20 11 11 12
REMARK SMILES IDX 21 13 10 14 15 15 16 16 17 17 4 18 3 19 2 20 1 21
REMARK H PARENT
ROOT
ATOM      1  C   UNL     1     -11.510   2.244  -0.411  1.00  0.00     0.122 C 
ATOM      2  C   UNL     1     -11.279   3.576   0.245  1.00  0.00     0.039 C 
ATOM      3  C   UNL     1     -10.742   2.326   0.880  1.00  0.00     0.026 C 
ENDROOT
BRANCH   1   4
ATOM      4  O   UNL     1     -12.868   1.775  -0.325  1.00  0.00    -0.371 OA
BRANCH   4   5
ATOM      5  C   UNL     1     -13.358   1.079  -1.483  1.00  0.00     0.158 C 
ATOM      6  C   UNL     1     -17.728  -0.889   0.576  1.00  0.00    -0.003 C 
ATOM      7  C   UNL     1     -16.226  -1.166   0.716  1.00  0.00     0.052 C 
ATOM      8  C   UNL     1     -17.944   0.605   0.299  1.00  0.00     0.019 C 
ATOM      9  C   UNL     1     -15.433  -0.631  -0.484  1.00  0.00     0.189 C 
ATOM     10  C   UNL     1     -17.102   1.082  -0.884  1.00  0.00     0.087 C 
ATOM     11  N   UNL     1     -15.684   0.799  -0.665  1.00  0.00    -0.276 NA
ATOM     12  O   UNL     1     -14.056  -0.905  -0.219  1.00  0.00    -0.360 OA
ATOM     13  C   UNL     1     -14.853   1.327  -1.752  1.00  0.00     0.121 C 
ATOM     14  C   UNL     1     -13.182  -0.425  -1.245  1.00  0.00     0.195 C 
BRANCH   6  15
ATOM     15  C   UNL     1     -18.488  -1.315   1.811  1.00  0.00    -0.008 C 
ATOM     16  C   UNL     1     -18.814  -2.772   2.043  1.00  0.00     0.004 C 
ATOM     17  C   UNL     1     -17.803  -2.085   2.915  1.00  0.00     0.004 C 
ENDBRANCH   6  15
ENDBRANCH   4   5
ENDBRANCH   1   4
BRANCH   3  18
ATOM     18  C   UNL     1      -9.260   2.097   0.895  1.00  0.00     0.053 C 
BRANCH  18  19
ATOM     19  C   UNL     1      -8.684   1.549   2.174  1.00  0.00     0.074 C 
BRANCH  19  20
ATOM     20  N   UNL     1      -9.229   1.620   3.342  1.00  0.00    -0.313 NA
ATOM     21  H   UNL     1     -10.015   2.286   3.354  1.00  0.00     0.186 HD
ENDBRANCH  19  20
ENDBRANCH  18  19
ENDBRANCH   3  18
TORSDOF 6
ENDMDL
MODEL 6
REMARK VINA RESULT:    -3.343      3.355      4.768
REMARK INTER + INTRA:          -4.617
REMARK INTER:                  -4.759
REMARK INTRA:                   0.142
REMARK UNBOUND:                -0.199
REMARK SMILES [H]/N=C\C[C@H]1C[C@@H]1O[C@H]1CO[C@H]2C[C@@H](C3CC3)CCN2C1
REMARK SMILES IDX 7 1 6 2 5 3 8 4 9 5 14 6 13 7 18 8 12 9 19 10 20 11 11 12
REMARK SMILES IDX 21 13 10 14 15 15 16 16 17 17 4 18 3 19 2 20 1 21
REMARK H PARENT
ROOT
ATOM      1  C   UNL     1     -15.718  -1.698   0.895  1.00  0.00     0.122 C 
ATOM      2  C   UNL     1     -16.220  -1.784   2.309  1.00  0.00     0.039 C 
ATOM      3  C   UNL     1     -17.180  -1.498   1.189  1.00  0.00     0.026 C 
ENDROOT
BRANCH   1   4
ATOM      4  O   UNL     1     -14.949  -0.512   0.616  1.00  0.00    -0.371 OA
BRANCH   4   5
ATOM      5  C   UNL     1     -14.669  -0.267  -0.772  1.00  0.00     0.158 C 
ATOM      6  C   UNL     1     -11.949   4.153  -0.254  1.00  0.00    -0.003 C 
ATOM      7  C   UNL     1     -13.421   3.747  -0.114  1.00  0.00     0.052 C 
ATOM      8  C   UNL     1     -11.056   2.975   0.159  1.00  0.00     0.019 C 
ATOM      9  C   UNL     1     -13.725   2.440  -0.860  1.00  0.00     0.189 C 
ATOM     10  C   UNL     1     -11.432   1.699  -0.594  1.00  0.00     0.087 C 
ATOM     11  N   UNL     1     -12.843   1.370  -0.394  1.00  0.00    -0.276 NA
ATOM     12  O   UNL     1     -15.102   2.143  -0.619  1.00  0.00    -0.360 OA
ATOM     13  C   UNL     1     -13.199   0.100  -1.039  1.00  0.00     0.121 C 
ATOM     14  C   UNL     1     -15.526   0.919  -1.227  1.00  0.00     0.195 C 
BRANCH   6  15
ATOM     15  C   UNL     1     -11.630   5.377   0.575  1.00  0.00    -0.008 C 
ATOM     16  C   UNL     1     -11.777   6.759  -0.016  1.00  0.00     0.004 C 
ATOM     17  C   UNL     1     -12.729   6.297   1.049  1.00  0.00     0.004 C 
ENDBRANCH   6  15
ENDBRANCH   4   5
ENDBRANCH   1   4
BRANCH   3  18
ATOM     18  C   UNL     1     -18.178  -2.548   0.803  1.00  0.00     0.053 C 
BRANCH  18  19
ATOM     19  C   UNL     1     -18.684  -2.496  -0.616  1.00  0.00     0.074 C 
BRANCH  19  20
ATOM     20  N   UNL     1     -18.471  -1.544  -1.461  1.00  0.00    -0.313 NA
ATOM     21  H   UNL     1     -19.335  -1.268  -1.948  1.00  0.00     0.186 HD
ENDBRANCH  19  20
ENDBRANCH  18  19
ENDBRANCH   3  18
TORSDOF 6
ENDMDL
MODEL 7
REMARK VINA RESULT:    -3.335      6.787      8.351
REMARK INTER + INTRA:          -4.607
REMARK INTER:                  -5.176
REMARK INTRA:                   0.569
REMARK UNBOUND:                -0.199
REMARK SMILES [H]/N=C\C[C@H]1C[C@@H]1O[C@H]1CO[C@H]2C[C@@H](C3CC3)CCN2C1
REMARK SMILES IDX 7 1 6 2 5 3 8 4 9 5 14 6 13 7 18 8 12 9 19 10 20 11 11 12
REMARK SMILES IDX 21 13 10 14 15 15 16 16 17 17 4 18 3 19 2 20 1 21
REMARK H PARENT
ROOT
ATOM      1  C   UNL     1     -17.469   8.440  -1.579  1.00  0.00     0.122 C 
ATOM      2  C   UNL     1     -18.812   8.281  -2.234  1.00  0.00     0.039 C 
ATOM      3  C   UNL     1     -18.657   9.199  -1.056  1.00  0.00     0.026 C 
ENDROOT
BRANCH   1   4
ATOM      4  O   UNL     1     -17.048   7.294  -0.815  1.00  0.00    -0.371 OA
BRANCH   4   5
ATOM      5  C   UNL     1     -16.645   7.565   0.537  1.00  0.00     0.158 C 
ATOM      6  C   UNL     1     -12.034   5.129   0.484  1.00  0.00    -0.003 C 
ATOM      7  C   UNL     1     -13.505   4.695   0.487  1.00  0.00     0.052 C 
ATOM      8  C   UNL     1     -11.897   6.456  -0.276  1.00  0.00     0.019 C 
ATOM      9  C   UNL     1     -14.425   5.809   1.004  1.00  0.00     0.189 C 
ATOM     10  C   UNL     1     -12.864   7.510   0.264  1.00  0.00     0.087 C 
ATOM     11  N   UNL     1     -14.244   7.028   0.216  1.00  0.00    -0.276 NA
ATOM     12  O   UNL     1     -15.761   5.308   0.917  1.00  0.00    -0.360 OA
ATOM     13  C   UNL     1     -15.192   8.061   0.650  1.00  0.00     0.121 C 
ATOM     14  C   UNL     1     -16.744   6.261   1.334  1.00  0.00     0.195 C 
BRANCH   6  15
ATOM     15  C   UNL     1     -11.145   4.071  -0.132  1.00  0.00    -0.008 C 
ATOM     16  C   UNL     1     -10.736   2.857   0.668  1.00  0.00     0.004 C 
ATOM     17  C   UNL     1     -11.693   2.708  -0.480  1.00  0.00     0.004 C 
ENDBRANCH   6  15
ENDBRANCH   4   5
ENDBRANCH   1   4
BRANCH   3  18
ATOM     18  C   UNL     1     -18.763  10.680  -1.270  1.00  0.00     0.053 C 
BRANCH  18  19
ATOM     19  C   UNL     1     -18.182  11.552  -0.188  1.00  0.00     0.074 C 
BRANCH  19  20
ATOM     20  N   UNL     1     -18.077  11.241   1.061  1.00  0.00    -0.313 NA
ATOM     21  H   UNL     1     -18.013  10.222   1.194  1.00  0.00     0.186 HD
ENDBRANCH  19  20
ENDBRANCH  18  19
ENDBRANCH   3  18
TORSDOF 6
ENDMDL
MODEL 8
REMARK VINA RESULT:    -3.233      5.284      7.818
REMARK INTER + INTRA:          -4.472
REMARK INTER:                  -4.562
REMARK INTRA:                   0.090
REMARK UNBOUND:                -0.199
REMARK SMILES [H]/N=C\C[C@H]1C[C@@H]1O[C@H]1CO[C@H]2C[C@@H](C3CC3)CCN2C1
REMARK SMILES IDX 7 1 6 2 5 3 8 4 9 5 14 6 13 7 18 8 12 9 19 10 20 11 11 12
REMARK SMILES IDX 21 13 10 14 15 15 16 16 17 17 4 18 3 19 2 20 1 21
REMARK H PARENT
ROOT
ATOM      1  C   UNL     1     -11.667   3.302  -0.913  1.00  0.00     0.122 C 
ATOM      2  C   UNL     1     -11.407   2.596   0.387  1.00  0.00     0.039 C 
ATOM      3  C   UNL     1     -12.524   2.136  -0.505  1.00  0.00     0.026 C 
ENDROOT
BRANCH   1   4
ATOM      4  O   UNL     1     -12.246   4.613  -0.765  1.00  0.00    -0.371 OA
BRANCH   4   5
ATOM      5  C   UNL     1     -12.095   5.214   0.532  1.00  0.00     0.158 C 
ATOM      6  C   UNL     1     -14.925   9.521  -0.267  1.00  0.00    -0.003 C 
ATOM      7  C   UNL     1     -13.558   9.004  -0.731  1.00  0.00     0.052 C 
ATOM      8  C   UNL     1     -15.880   8.334  -0.077  1.00  0.00     0.019 C 
ATOM      9  C   UNL     1     -13.018   7.909   0.199  1.00  0.00     0.189 C 
ATOM     10  C   UNL     1     -15.269   7.266   0.830  1.00  0.00     0.087 C 
ATOM     11  N   UNL     1     -13.979   6.812   0.309  1.00  0.00    -0.276 NA
ATOM     12  O   UNL     1     -11.774   7.478  -0.357  1.00  0.00    -0.360 OA
ATOM     13  C   UNL     1     -13.421   5.725   1.122  1.00  0.00     0.121 C 
ATOM     14  C   UNL     1     -11.163   6.422   0.390  1.00  0.00     0.195 C 
BRANCH   6  15
ATOM     15  C   UNL     1     -15.504  10.516  -1.248  1.00  0.00    -0.008 C 
ATOM     16  C   UNL     1     -15.770  11.941  -0.824  1.00  0.00     0.004 C 
ATOM     17  C   UNL     1     -14.663  11.645  -1.792  1.00  0.00     0.004 C 
ENDBRANCH   6  15
ENDBRANCH   4   5
ENDBRANCH   1   4
BRANCH   3  18
ATOM     18  C   UNL     1     -12.395   0.819  -1.210  1.00  0.00     0.053 C 
BRANCH  18  19
ATOM     19  C   UNL     1     -13.612  -0.069  -1.191  1.00  0.00     0.074 C 
BRANCH  19  20
ATOM     20  N   UNL     1     -14.107  -0.653  -0.151  1.00  0.00    -0.313 NA
ATOM     21  H   UNL     1     -14.983  -0.207   0.155  1.00  0.00     0.186 HD
ENDBRANCH  19  20
ENDBRANCH  18  19
ENDBRANCH   3  18
TORSDOF 6
ENDMDL
MODEL 9
REMARK VINA RESULT:    -3.130      6.756      8.658
REMARK INTER + INTRA:          -4.336
REMARK INTER:                  -4.138
REMARK INTRA:                  -0.199
REMARK UNBOUND:                -0.199
REMARK SMILES [H]/N=C\C[C@H]1C[C@@H]1O[C@H]1CO[C@H]2C[C@@H](C3CC3)CCN2C1
REMARK SMILES IDX 7 1 6 2 5 3 8 4 9 5 14 6 13 7 18 8 12 9 19 10 20 11 11 12
REMARK SMILES IDX 21 13 10 14 15 15 16 16 17 17 4 18 3 19 2 20 1 21
REMARK H PARENT
ROOT
ATOM      1  C   UNL     1     -17.190   2.925  -0.506  1.00  0.00     0.122 C 
ATOM      2  C   UNL     1     -17.260   2.679  -1.987  1.00  0.00     0.039 C 
ATOM      3  C   UNL     1     -16.401   1.802  -1.121  1.00  0.00     0.026 C 
ENDROOT
BRANCH   1   4
ATOM      4  O   UNL     1     -16.453   4.108  -0.142  1.00  0.00    -0.371 OA
BRANCH   4   5
ATOM      5  C   UNL     1     -17.060   4.929   0.869  1.00  0.00     0.158 C 
ATOM      6  C   UNL     1     -16.287   9.589  -1.344  1.00  0.00    -0.003 C 
ATOM      7  C   UNL     1     -15.405   8.539  -0.658  1.00  0.00     0.052 C 
ATOM      8  C   UNL     1     -17.442   8.885  -2.070  1.00  0.00     0.019 C 
ATOM      9  C   UNL     1     -16.226   7.600   0.236  1.00  0.00     0.189 C 
ATOM     10  C   UNL     1     -18.197   7.941  -1.135  1.00  0.00     0.087 C 
ATOM     11  N   UNL     1     -17.290   6.960  -0.538  1.00  0.00    -0.276 NA
ATOM     12  O   UNL     1     -15.310   6.647   0.778  1.00  0.00    -0.360 OA
ATOM     13  C   UNL     1     -18.013   5.992   0.294  1.00  0.00     0.121 C 
ATOM     14  C   UNL     1     -15.944   5.672   1.612  1.00  0.00     0.195 C 
BRANCH   6  15
ATOM     15  C   UNL     1     -15.491  10.438  -2.309  1.00  0.00    -0.008 C 
ATOM     16  C   UNL     1     -15.793  11.910  -2.460  1.00  0.00     0.004 C 
ATOM     17  C   UNL     1     -14.515  11.474  -1.806  1.00  0.00     0.004 C 
ENDBRANCH   6  15
ENDBRANCH   4   5
ENDBRANCH   1   4
BRANCH   3  18
ATOM     18  C   UNL     1     -16.812   0.378  -0.895  1.00  0.00     0.053 C 
BRANCH  18  19
ATOM     19  C   UNL     1     -15.724  -0.568  -0.459  1.00  0.00     0.074 C 
BRANCH  19  20
ATOM     20  N   UNL     1     -15.410  -0.850   0.762  1.00  0.00    -0.313 NA
ATOM     21  H   UNL     1     -16.110  -1.464   1.202  1.00  0.00     0.186 HD
ENDBRANCH  19  20
ENDBRANCH  18  19
ENDBRANCH   3  18
TORSDOF 6
ENDMDL
