MODEL 1
REMARK VINA RESULT:    -6.032      0.000      0.000
REMARK INTER + INTRA:          -7.591
REMARK INTER:                  -7.090
REMARK INTRA:                  -0.501
REMARK UNBOUND:                -0.501
REMARK SMILES Cc1ccc(CNC(=O)NC(=O)c2ccc(C)cc2)cc1
REMARK SMILES IDX 11 1 12 2 10 3 8 4 9 5 7 6 13 9 19 10 18 11 14 12 16 13
REMARK SMILES IDX 15 14 17 15 6 16 5 17 4 18 20 19 3 20 21 21 2 22 1 23
REMARK H PARENT 10 7 7 8
ROOT
ATOM      1  C   UNL     1       3.817  14.314   1.794  1.00  0.00     0.259 C 
ATOM      2  O   UNL     1       3.443  13.436   1.029  1.00  0.00    -0.269 OA
ATOM      3  N   UNL     1       4.337  14.186   3.086  1.00  0.00    -0.274 N 
ATOM      4  C   UNL     1       4.837  13.188   3.882  1.00  0.00     0.321 C 
ATOM      5  O   UNL     1       5.342  13.515   4.962  1.00  0.00    -0.248 OA
ATOM      6  N   UNL     1       4.834  11.887   3.536  1.00  0.00    -0.334 N 
ATOM      7  H   UNL     1       4.557  15.064   3.536  1.00  0.00     0.175 HD
ATOM      8  H   UNL     1       5.317  11.291   4.193  1.00  0.00     0.165 HD
ENDROOT
BRANCH   1   9
ATOM      9  C   UNL     1       3.718  15.703   1.305  1.00  0.00     0.040 A 
ATOM     10  C   UNL     1       2.599  16.148   0.599  1.00  0.00     0.014 A 
ATOM     11  C   UNL     1       2.528  17.484   0.203  1.00  0.00     0.004 A 
ATOM     12  C   UNL     1       4.787  16.567   1.563  1.00  0.00     0.014 A 
ATOM     13  C   UNL     1       3.573  18.372   0.502  1.00  0.00    -0.051 A 
ATOM     14  C   UNL     1       4.709  17.902   1.170  1.00  0.00     0.004 A 
ATOM     15  C   UNL     1       3.444  19.824   0.144  1.00  0.00     0.044 C 
ENDBRANCH   1   9
BRANCH   6  16
ATOM     16  C   UNL     1       4.396  11.312   2.296  1.00  0.00     0.153 C 
BRANCH  16  17
ATOM     17  C   UNL     1       3.537  10.080   2.372  1.00  0.00    -0.029 A 
ATOM     18  C   UNL     1       4.063   8.785   2.424  1.00  0.00     0.006 A 
ATOM     19  C   UNL     1       2.166  10.266   2.612  1.00  0.00     0.006 A 
ATOM     20  C   UNL     1       3.231   7.704   2.736  1.00  0.00     0.004 A 
ATOM     21  C   UNL     1       1.341   9.191   2.927  1.00  0.00     0.004 A 
ATOM     22  C   UNL     1       1.869   7.901   3.001  1.00  0.00    -0.051 A 
ATOM     23  C   UNL     1       1.004   6.771   3.474  1.00  0.00     0.044 C 
ENDBRANCH  16  17
ENDBRANCH   6  16
TORSDOF 3
ENDMDL
MODEL 2
REMARK VINA RESULT:    -6.029      3.004      5.445
REMARK INTER + INTRA:          -7.588
REMARK INTER:                  -7.090
REMARK INTRA:                  -0.498
REMARK UNBOUND:                -0.501
REMARK SMILES Cc1ccc(CNC(=O)NC(=O)c2ccc(C)cc2)cc1
REMARK SMILES IDX 11 1 12 2 10 3 8 4 9 5 7 6 13 9 19 10 18 11 14 12 16 13
REMARK SMILES IDX 15 14 17 15 6 16 5 17 4 18 20 19 3 20 21 21 2 22 1 23
REMARK H PARENT 10 7 7 8
ROOT
ATOM      1  C   UNL     1       5.166  12.833   4.825  1.00  0.00     0.259 C 
ATOM      2  O   UNL     1       4.849  11.653   4.888  1.00  0.00    -0.269 OA
ATOM      3  N   UNL     1       4.908  13.755   3.806  1.00  0.00    -0.274 N 
ATOM      4  C   UNL     1       4.097  13.846   2.703  1.00  0.00     0.321 C 
ATOM      5  O   UNL     1       4.063  14.927   2.105  1.00  0.00    -0.248 OA
ATOM      6  N   UNL     1       3.323  12.837   2.263  1.00  0.00    -0.334 N 
ATOM      7  H   UNL     1       5.292  14.676   3.970  1.00  0.00     0.175 HD
ATOM      8  H   UNL     1       2.722  13.092   1.493  1.00  0.00     0.165 HD
ENDROOT
BRANCH   1   9
ATOM      9  C   UNL     1       5.918  13.377   5.972  1.00  0.00     0.040 A 
ATOM     10  C   UNL     1       6.934  12.645   6.589  1.00  0.00     0.014 A 
ATOM     11  C   UNL     1       7.653  13.222   7.636  1.00  0.00     0.004 A 
ATOM     12  C   UNL     1       5.580  14.653   6.433  1.00  0.00     0.014 A 
ATOM     13  C   UNL     1       7.356  14.522   8.073  1.00  0.00    -0.051 A 
ATOM     14  C   UNL     1       6.305  15.228   7.475  1.00  0.00     0.004 A 
ATOM     15  C   UNL     1       8.193  15.160   9.142  1.00  0.00     0.044 C 
ENDBRANCH   1   9
BRANCH   6  16
ATOM     16  C   UNL     1       3.138  11.548   2.866  1.00  0.00     0.153 C 
BRANCH  16  17
ATOM     17  C   UNL     1       3.161  10.351   1.956  1.00  0.00    -0.029 A 
ATOM     18  C   UNL     1       2.028   9.881   1.284  1.00  0.00     0.006 A 
ATOM     19  C   UNL     1       4.418   9.826   1.616  1.00  0.00     0.006 A 
ATOM     20  C   UNL     1       2.160   8.922   0.274  1.00  0.00     0.004 A 
ATOM     21  C   UNL     1       4.549   8.876   0.608  1.00  0.00     0.004 A 
ATOM     22  C   UNL     1       3.421   8.423  -0.080  1.00  0.00    -0.051 A 
ATOM     23  C   UNL     1       3.587   7.505  -1.253  1.00  0.00     0.044 C 
ENDBRANCH  16  17
ENDBRANCH   6  16
TORSDOF 3
ENDMDL
MODEL 3
REMARK VINA RESULT:    -5.983      0.573      7.969
REMARK INTER + INTRA:          -7.533
REMARK INTER:                  -7.142
REMARK INTRA:                  -0.391
REMARK UNBOUND:                -0.501
REMARK SMILES Cc1ccc(CNC(=O)NC(=O)c2ccc(C)cc2)cc1
REMARK SMILES IDX 11 1 12 2 10 3 8 4 9 5 7 6 13 9 19 10 18 11 14 12 16 13
REMARK SMILES IDX 15 14 17 15 6 16 5 17 4 18 20 19 3 20 21 21 2 22 1 23
REMARK H PARENT 10 7 7 8
ROOT
ATOM      1  C   UNL     1       3.626  11.565   2.432  1.00  0.00     0.259 C 
ATOM      2  O   UNL     1       3.590  11.991   1.286  1.00  0.00    -0.269 OA
ATOM      3  N   UNL     1       4.176  12.162   3.571  1.00  0.00    -0.274 N 
ATOM      4  C   UNL     1       4.628  13.401   3.948  1.00  0.00     0.321 C 
ATOM      5  O   UNL     1       4.928  13.565   5.135  1.00  0.00    -0.248 OA
ATOM      6  N   UNL     1       4.730  14.444   3.104  1.00  0.00    -0.334 N 
ATOM      7  H   UNL     1       4.103  11.604   4.411  1.00  0.00     0.175 HD
ATOM      8  H   UNL     1       4.996  15.308   3.555  1.00  0.00     0.165 HD
ENDROOT
BRANCH   1   9
ATOM      9  C   UNL     1       3.004  10.248   2.667  1.00  0.00     0.040 A 
ATOM     10  C   UNL     1       3.774   9.087   2.767  1.00  0.00     0.014 A 
ATOM     11  C   UNL     1       3.146   7.872   3.042  1.00  0.00     0.004 A 
ATOM     12  C   UNL     1       1.612  10.189   2.781  1.00  0.00     0.014 A 
ATOM     13  C   UNL     1       1.754   7.811   3.210  1.00  0.00    -0.051 A 
ATOM     14  C   UNL     1       0.990   8.975   3.062  1.00  0.00     0.004 A 
ATOM     15  C   UNL     1       1.104   6.513   3.589  1.00  0.00     0.044 C 
ENDBRANCH   1   9
BRANCH   6  16
ATOM     16  C   UNL     1       4.340  14.496   1.723  1.00  0.00     0.153 C 
BRANCH  16  17
ATOM     17  C   UNL     1       3.963  15.839   1.163  1.00  0.00    -0.029 A 
ATOM     18  C   UNL     1       2.711  16.107   0.599  1.00  0.00     0.006 A 
ATOM     19  C   UNL     1       4.837  16.909   1.414  1.00  0.00     0.006 A 
ATOM     20  C   UNL     1       2.338  17.426   0.318  1.00  0.00     0.004 A 
ATOM     21  C   UNL     1       4.463  18.220   1.138  1.00  0.00     0.004 A 
ATOM     22  C   UNL     1       3.205  18.491   0.597  1.00  0.00    -0.051 A 
ATOM     23  C   UNL     1       2.759  19.913   0.432  1.00  0.00     0.044 C 
ENDBRANCH  16  17
ENDBRANCH   6  16
TORSDOF 3
ENDMDL
MODEL 4
REMARK VINA RESULT:    -5.977      3.148      7.337
REMARK INTER + INTRA:          -7.527
REMARK INTER:                  -7.142
REMARK INTRA:                  -0.384
REMARK UNBOUND:                -0.501
REMARK SMILES Cc1ccc(CNC(=O)NC(=O)c2ccc(C)cc2)cc1
REMARK SMILES IDX 11 1 12 2 10 3 8 4 9 5 7 6 13 9 19 10 18 11 14 12 16 13
REMARK SMILES IDX 15 14 17 15 6 16 5 17 4 18 20 19 3 20 21 21 2 22 1 23
REMARK H PARENT 10 7 7 8
ROOT
ATOM      1  C   UNL     1       3.921  11.360   2.773  1.00  0.00     0.259 C 
ATOM      2  O   UNL     1       3.994  10.966   3.929  1.00  0.00    -0.269 OA
ATOM      3  N   UNL     1       3.998  12.669   2.288  1.00  0.00    -0.274 N 
ATOM      4  C   UNL     1       4.387  13.900   2.751  1.00  0.00     0.321 C 
ATOM      5  O   UNL     1       4.434  14.829   1.938  1.00  0.00    -0.248 OA
ATOM      6  N   UNL     1       4.744  14.136   4.027  1.00  0.00    -0.334 N 
ATOM      7  H   UNL     1       3.887  12.750   1.286  1.00  0.00     0.175 HD
ATOM      8  H   UNL     1       5.086  15.073   4.187  1.00  0.00     0.165 HD
ENDROOT
BRANCH   1   9
ATOM      9  C   UNL     1       3.729  10.329   1.735  1.00  0.00     0.040 A 
ATOM     10  C   UNL     1       2.479  10.101   1.157  1.00  0.00     0.014 A 
ATOM     11  C   UNL     1       2.357   9.152   0.142  1.00  0.00     0.004 A 
ATOM     12  C   UNL     1       4.840   9.573   1.347  1.00  0.00     0.014 A 
ATOM     13  C   UNL     1       3.477   8.425  -0.291  1.00  0.00    -0.051 A 
ATOM     14  C   UNL     1       4.715   8.631   0.328  1.00  0.00     0.004 A 
ATOM     15  C   UNL     1       3.347   7.470  -1.441  1.00  0.00     0.044 C 
ENDBRANCH   1   9
BRANCH   6  16
ATOM     16  C   UNL     1       4.858  13.184   5.096  1.00  0.00     0.153 C 
BRANCH  16  17
ATOM     17  C   UNL     1       5.785  13.526   6.229  1.00  0.00    -0.029 A 
ATOM     18  C   UNL     1       6.846  12.705   6.622  1.00  0.00     0.006 A 
ATOM     19  C   UNL     1       5.696  14.822   6.763  1.00  0.00     0.006 A 
ATOM     20  C   UNL     1       7.811  13.186   7.514  1.00  0.00     0.004 A 
ATOM     21  C   UNL     1       6.658  15.301   7.647  1.00  0.00     0.004 A 
ATOM     22  C   UNL     1       7.730  14.490   8.022  1.00  0.00    -0.051 A 
ATOM     23  C   UNL     1       8.833  15.059   8.864  1.00  0.00     0.044 C 
ENDBRANCH  16  17
ENDBRANCH   6  16
TORSDOF 3
ENDMDL
MODEL 5
REMARK VINA RESULT:    -5.644      2.948      5.184
REMARK INTER + INTRA:          -7.135
REMARK INTER:                  -6.662
REMARK INTRA:                  -0.473
REMARK UNBOUND:                -0.501
REMARK SMILES Cc1ccc(CNC(=O)NC(=O)c2ccc(C)cc2)cc1
REMARK SMILES IDX 11 1 12 2 10 3 8 4 9 5 7 6 13 9 19 10 18 11 14 12 16 13
REMARK SMILES IDX 15 14 17 15 6 16 5 17 4 18 20 19 3 20 21 21 2 22 1 23
REMARK H PARENT 10 7 7 8
ROOT
ATOM      1  C   UNL     1       5.107  12.773   4.974  1.00  0.00     0.259 C 
ATOM      2  O   UNL     1       4.659  11.654   5.180  1.00  0.00    -0.269 OA
ATOM      3  N   UNL     1       4.968  13.576   3.837  1.00  0.00    -0.274 N 
ATOM      4  C   UNL     1       4.189  13.609   2.709  1.00  0.00     0.321 C 
ATOM      5  O   UNL     1       4.284  14.599   1.975  1.00  0.00    -0.248 OA
ATOM      6  N   UNL     1       3.313  12.642   2.381  1.00  0.00    -0.334 N 
ATOM      7  H   UNL     1       5.451  14.463   3.891  1.00  0.00     0.175 HD
ATOM      8  H   UNL     1       2.755  12.857   1.567  1.00  0.00     0.165 HD
ENDROOT
BRANCH   1   9
ATOM      9  C   UNL     1       5.899  13.378   6.062  1.00  0.00     0.040 A 
ATOM     10  C   UNL     1       6.950  12.687   6.669  1.00  0.00     0.014 A 
ATOM     11  C   UNL     1       7.704  13.320   7.657  1.00  0.00     0.004 A 
ATOM     12  C   UNL     1       5.564  14.671   6.478  1.00  0.00     0.014 A 
ATOM     13  C   UNL     1       7.409  14.635   8.045  1.00  0.00    -0.051 A 
ATOM     14  C   UNL     1       6.325  15.301   7.461  1.00  0.00     0.004 A 
ATOM     15  C   UNL     1       8.282  15.332   9.048  1.00  0.00     0.044 C 
ENDBRANCH   1   9
BRANCH   6  16
ATOM     16  C   UNL     1       2.976  11.471   3.141  1.00  0.00     0.153 C 
BRANCH  16  17
ATOM     17  C   UNL     1       2.969  10.155   2.413  1.00  0.00    -0.029 A 
ATOM     18  C   UNL     1       3.618   9.013   2.895  1.00  0.00     0.006 A 
ATOM     19  C   UNL     1       2.098  10.029   1.319  1.00  0.00     0.006 A 
ATOM     20  C   UNL     1       3.377   7.769   2.303  1.00  0.00     0.004 A 
ATOM     21  C   UNL     1       1.856   8.790   0.734  1.00  0.00     0.004 A 
ATOM     22  C   UNL     1       2.485   7.647   1.229  1.00  0.00    -0.051 A 
ATOM     23  C   UNL     1       2.113   6.301   0.683  1.00  0.00     0.044 C 
ENDBRANCH  16  17
ENDBRANCH   6  16
TORSDOF 3
ENDMDL
MODEL 6
REMARK VINA RESULT:    -4.444      4.822      8.242
REMARK INTER + INTRA:          -5.724
REMARK INTER:                  -5.315
REMARK INTRA:                  -0.409
REMARK UNBOUND:                -0.501
REMARK SMILES Cc1ccc(CNC(=O)NC(=O)c2ccc(C)cc2)cc1
REMARK SMILES IDX 11 1 12 2 10 3 8 4 9 5 7 6 13 9 19 10 18 11 14 12 16 13
REMARK SMILES IDX 15 14 17 15 6 16 5 17 4 18 20 19 3 20 21 21 2 22 1 23
REMARK H PARENT 10 7 7 8
ROOT
ATOM      1  C   UNL     1       5.227  13.064   5.433  1.00  0.00     0.259 C 
ATOM      2  O   UNL     1       5.829  12.313   6.189  1.00  0.00    -0.269 OA
ATOM      3  N   UNL     1       5.050  14.447   5.532  1.00  0.00    -0.274 N 
ATOM      4  C   UNL     1       5.585  15.489   6.245  1.00  0.00     0.321 C 
ATOM      5  O   UNL     1       5.238  16.634   5.936  1.00  0.00    -0.248 OA
ATOM      6  N   UNL     1       6.483  15.330   7.235  1.00  0.00    -0.334 N 
ATOM      7  H   UNL     1       4.491  14.850   4.791  1.00  0.00     0.175 HD
ATOM      8  H   UNL     1       6.843  16.199   7.601  1.00  0.00     0.165 HD
ENDROOT
BRANCH   1   9
ATOM      9  C   UNL     1       4.600  12.446   4.249  1.00  0.00     0.040 A 
ATOM     10  C   UNL     1       5.351  12.099   3.125  1.00  0.00     0.014 A 
ATOM     11  C   UNL     1       4.723  11.469   2.050  1.00  0.00     0.004 A 
ATOM     12  C   UNL     1       3.220  12.220   4.280  1.00  0.00     0.014 A 
ATOM     13  C   UNL     1       3.348  11.191   2.092  1.00  0.00    -0.051 A 
ATOM     14  C   UNL     1       2.598  11.584   3.207  1.00  0.00     0.004 A 
ATOM     15  C   UNL     1       2.705  10.437   0.966  1.00  0.00     0.044 C 
ENDBRANCH   1   9
BRANCH   6  16
ATOM     16  C   UNL     1       7.091  14.107   7.678  1.00  0.00     0.153 C 
BRANCH  16  17
ATOM     17  C   UNL     1       8.517  14.176   8.148  1.00  0.00    -0.029 A 
ATOM     18  C   UNL     1       9.612  13.994   7.296  1.00  0.00     0.006 A 
ATOM     19  C   UNL     1       8.743  14.651   9.450  1.00  0.00     0.006 A 
ATOM     20  C   UNL     1      10.902  14.308   7.737  1.00  0.00     0.004 A 
ATOM     21  C   UNL     1      10.026  14.967   9.886  1.00  0.00     0.004 A 
ATOM     22  C   UNL     1      11.116  14.807   9.029  1.00  0.00    -0.051 A 
ATOM     23  C   UNL     1      12.473  15.278   9.459  1.00  0.00     0.044 C 
ENDBRANCH  16  17
ENDBRANCH   6  16
TORSDOF 3
ENDMDL
MODEL 7
REMARK VINA RESULT:    -4.424      6.365     10.083
REMARK INTER + INTRA:          -5.701
REMARK INTER:                  -5.890
REMARK INTRA:                   0.189
REMARK UNBOUND:                -0.501
REMARK SMILES Cc1ccc(CNC(=O)NC(=O)c2ccc(C)cc2)cc1
REMARK SMILES IDX 11 1 12 2 10 3 8 4 9 5 7 6 13 9 19 10 18 11 14 12 16 13
REMARK SMILES IDX 15 14 17 15 6 16 5 17 4 18 20 19 3 20 21 21 2 22 1 23
REMARK H PARENT 10 7 7 8
ROOT
ATOM      1  C   UNL     1       7.954  14.780   8.208  1.00  0.00     0.259 C 
ATOM      2  O   UNL     1       9.057  14.985   7.723  1.00  0.00    -0.269 OA
ATOM      3  N   UNL     1       7.503  15.052   9.504  1.00  0.00    -0.274 N 
ATOM      4  C   UNL     1       7.914  15.786  10.587  1.00  0.00     0.321 C 
ATOM      5  O   UNL     1       7.137  15.882  11.543  1.00  0.00    -0.248 OA
ATOM      6  N   UNL     1       9.097  16.426  10.646  1.00  0.00    -0.334 N 
ATOM      7  H   UNL     1       6.547  14.771   9.681  1.00  0.00     0.175 HD
ATOM      8  H   UNL     1       9.212  16.992  11.475  1.00  0.00     0.165 HD
ENDROOT
BRANCH   1   9
ATOM      9  C   UNL     1       6.946  14.168   7.322  1.00  0.00     0.040 A 
ATOM     10  C   UNL     1       5.857  14.899   6.843  1.00  0.00     0.014 A 
ATOM     11  C   UNL     1       4.959  14.292   5.965  1.00  0.00     0.004 A 
ATOM     12  C   UNL     1       7.106  12.822   6.975  1.00  0.00     0.014 A 
ATOM     13  C   UNL     1       5.139  12.958   5.570  1.00  0.00    -0.051 A 
ATOM     14  C   UNL     1       6.210  12.222   6.093  1.00  0.00     0.004 A 
ATOM     15  C   UNL     1       4.214  12.346   4.560  1.00  0.00     0.044 C 
ENDBRANCH   1   9
BRANCH   6  16
ATOM     16  C   UNL     1      10.090  16.528   9.615  1.00  0.00     0.153 C 
BRANCH  16  17
ATOM     17  C   UNL     1       9.927  17.632   8.607  1.00  0.00    -0.029 A 
ATOM     18  C   UNL     1      10.891  17.931   7.639  1.00  0.00     0.006 A 
ATOM     19  C   UNL     1       8.662  18.235   8.513  1.00  0.00     0.006 A 
ATOM     20  C   UNL     1      10.582  18.799   6.587  1.00  0.00     0.004 A 
ATOM     21  C   UNL     1       8.353  19.094   7.463  1.00  0.00     0.004 A 
ATOM     22  C   UNL     1       9.308  19.376   6.484  1.00  0.00    -0.051 A 
ATOM     23  C   UNL     1       8.924  20.191   5.286  1.00  0.00     0.044 C 
ENDBRANCH  16  17
ENDBRANCH   6  16
TORSDOF 3
ENDMDL
MODEL 8
REMARK VINA RESULT:    -4.196      5.357      8.702
REMARK INTER + INTRA:          -5.433
REMARK INTER:                  -4.909
REMARK INTRA:                  -0.524
REMARK UNBOUND:                -0.501
REMARK SMILES Cc1ccc(CNC(=O)NC(=O)c2ccc(C)cc2)cc1
REMARK SMILES IDX 11 1 12 2 10 3 8 4 9 5 7 6 13 9 19 10 18 11 14 12 16 13
REMARK SMILES IDX 15 14 17 15 6 16 5 17 4 18 20 19 3 20 21 21 2 22 1 23
REMARK H PARENT 10 7 7 8
ROOT
ATOM      1  C   UNL     1       5.616  14.441   6.195  1.00  0.00     0.259 C 
ATOM      2  O   UNL     1       6.217  13.788   7.036  1.00  0.00    -0.269 OA
ATOM      3  N   UNL     1       5.402  15.823   6.148  1.00  0.00    -0.274 N 
ATOM      4  C   UNL     1       5.893  16.946   6.762  1.00  0.00     0.321 C 
ATOM      5  O   UNL     1       5.526  18.043   6.329  1.00  0.00    -0.248 OA
ATOM      6  N   UNL     1       6.771  16.912   7.782  1.00  0.00    -0.334 N 
ATOM      7  H   UNL     1       4.851  16.132   5.358  1.00  0.00     0.175 HD
ATOM      8  H   UNL     1       7.100  17.824   8.065  1.00  0.00     0.165 HD
ENDROOT
BRANCH   1   9
ATOM      9  C   UNL     1       5.033  13.689   5.068  1.00  0.00     0.040 A 
ATOM     10  C   UNL     1       4.763  14.304   3.844  1.00  0.00     0.014 A 
ATOM     11  C   UNL     1       4.262  13.540   2.790  1.00  0.00     0.004 A 
ATOM     12  C   UNL     1       4.749  12.333   5.259  1.00  0.00     0.014 A 
ATOM     13  C   UNL     1       4.022  12.168   2.956  1.00  0.00    -0.051 A 
ATOM     14  C   UNL     1       4.254  11.572   4.202  1.00  0.00     0.004 A 
ATOM     15  C   UNL     1       3.563  11.343   1.790  1.00  0.00     0.044 C 
ENDBRANCH   1   9
BRANCH   6  16
ATOM     16  C   UNL     1       7.397  15.758   8.361  1.00  0.00     0.153 C 
BRANCH  16  17
ATOM     17  C   UNL     1       8.899  15.698   8.327  1.00  0.00    -0.029 A 
ATOM     18  C   UNL     1       9.714  16.796   8.625  1.00  0.00     0.006 A 
ATOM     19  C   UNL     1       9.490  14.431   8.195  1.00  0.00     0.006 A 
ATOM     20  C   UNL     1      11.089  16.617   8.811  1.00  0.00     0.004 A 
ATOM     21  C   UNL     1      10.857  14.254   8.384  1.00  0.00     0.004 A 
ATOM     22  C   UNL     1      11.667  15.344   8.704  1.00  0.00    -0.051 A 
ATOM     23  C   UNL     1      13.111  15.122   9.041  1.00  0.00     0.044 C 
ENDBRANCH  16  17
ENDBRANCH   6  16
TORSDOF 3
ENDMDL
MODEL 9
REMARK VINA RESULT:    -4.158      6.760     10.141
REMARK INTER + INTRA:          -5.388
REMARK INTER:                  -4.994
REMARK INTRA:                  -0.394
REMARK UNBOUND:                -0.501
REMARK SMILES Cc1ccc(CNC(=O)NC(=O)c2ccc(C)cc2)cc1
REMARK SMILES IDX 11 1 12 2 10 3 8 4 9 5 7 6 13 9 19 10 18 11 14 12 16 13
REMARK SMILES IDX 15 14 17 15 6 16 5 17 4 18 20 19 3 20 21 21 2 22 1 23
REMARK H PARENT 10 7 7 8
ROOT
ATOM      1  C   UNL     1       8.044  18.093   7.641  1.00  0.00     0.259 C 
ATOM      2  O   UNL     1       8.487  17.884   6.521  1.00  0.00    -0.269 OA
ATOM      3  N   UNL     1       7.022  18.965   8.029  1.00  0.00    -0.274 N 
ATOM      4  C   UNL     1       6.021  19.685   7.428  1.00  0.00     0.321 C 
ATOM      5  O   UNL     1       5.205  20.255   8.160  1.00  0.00    -0.248 OA
ATOM      6  N   UNL     1       5.867  19.774   6.094  1.00  0.00    -0.334 N 
ATOM      7  H   UNL     1       6.844  18.983   9.025  1.00  0.00     0.175 HD
ATOM      8  H   UNL     1       5.033  20.269   5.813  1.00  0.00     0.165 HD
ENDROOT
BRANCH   1   9
ATOM      9  C   UNL     1       8.653  17.328   8.746  1.00  0.00     0.040 A 
ATOM     10  C   UNL     1       9.923  16.761   8.626  1.00  0.00     0.014 A 
ATOM     11  C   UNL     1      10.479  16.092   9.716  1.00  0.00     0.004 A 
ATOM     12  C   UNL     1       7.916  17.178   9.925  1.00  0.00     0.014 A 
ATOM     13  C   UNL     1       9.770  15.981  10.921  1.00  0.00    -0.051 A 
ATOM     14  C   UNL     1       8.479  16.514  11.014  1.00  0.00     0.004 A 
ATOM     15  C   UNL     1      10.415  15.332  12.111  1.00  0.00     0.044 C 
ENDBRANCH   1   9
BRANCH   6  16
ATOM     16  C   UNL     1       6.633  19.111   5.077  1.00  0.00     0.153 C 
BRANCH  16  17
ATOM     17  C   UNL     1       6.011  18.988   3.714  1.00  0.00    -0.029 A 
ATOM     18  C   UNL     1       5.948  17.781   3.010  1.00  0.00     0.006 A 
ATOM     19  C   UNL     1       5.284  20.091   3.237  1.00  0.00     0.006 A 
ATOM     20  C   UNL     1       5.150  17.680   1.865  1.00  0.00     0.004 A 
ATOM     21  C   UNL     1       4.487  19.987   2.101  1.00  0.00     0.004 A 
ATOM     22  C   UNL     1       4.405  18.777   1.410  1.00  0.00    -0.051 A 
ATOM     23  C   UNL     1       3.441  18.637   0.271  1.00  0.00     0.044 C 
ENDBRANCH  16  17
ENDBRANCH   6  16
TORSDOF 3
ENDMDL
