MODEL 1
REMARK VINA RESULT:    -4.010      0.000      0.000
REMARK INTER + INTRA:          -5.747
REMARK INTER:                  -5.300
REMARK INTRA:                  -0.447
REMARK UNBOUND:                -0.447
REMARK SMILES [H]/N=C\C[C@H]1C[C@@H]1O[C@H]1CO[C@H]2C[C@@H](C3CC3)CCN2C1
REMARK SMILES IDX 7 1 6 2 5 3 8 4 9 5 14 6 13 7 18 8 12 9 19 10 20 11 11 12
REMARK SMILES IDX 21 13 10 14 15 15 16 16 17 17 4 18 3 19 2 20 1 21
REMARK H PARENT
ROOT
ATOM      1  C   UNL     1       8.623  19.193   7.212  1.00  0.00     0.122 C 
ATOM      2  C   UNL     1       9.026  20.053   6.047  1.00  0.00     0.039 C 
ATOM      3  C   UNL     1       8.075  18.909   5.841  1.00  0.00     0.026 C 
ENDROOT
BRANCH   1   4
ATOM      4  O   UNL     1       9.666  18.318   7.684  1.00  0.00    -0.371 OA
BRANCH   4   5
ATOM      5  C   UNL     1       9.427  17.703   8.961  1.00  0.00     0.158 C 
ATOM      6  C   UNL     1       7.274  13.254   7.295  1.00  0.00    -0.003 C 
ATOM      7  C   UNL     1       6.841  14.723   7.370  1.00  0.00     0.052 C 
ATOM      8  C   UNL     1       8.790  13.183   7.064  1.00  0.00     0.019 C 
ATOM      9  C   UNL     1       7.667  15.509   8.397  1.00  0.00     0.189 C 
ATOM     10  C   UNL     1       9.552  14.013   8.097  1.00  0.00     0.087 C 
ATOM     11  N   UNL     1       9.094  15.403   8.093  1.00  0.00    -0.276 NA
ATOM     12  O   UNL     1       7.207  16.861   8.343  1.00  0.00    -0.360 OA
ATOM     13  C   UNL     1       9.875  16.232   9.017  1.00  0.00     0.121 C 
ATOM     14  C   UNL     1       7.919  17.731   9.229  1.00  0.00     0.195 C 
BRANCH   6  15
ATOM     15  C   UNL     1       6.535  12.513   6.203  1.00  0.00    -0.008 C 
ATOM     16  C   UNL     1       5.273  11.746   6.520  1.00  0.00     0.004 C 
ATOM     17  C   UNL     1       5.198  13.004   5.703  1.00  0.00     0.004 C 
ENDBRANCH   6  15
ENDBRANCH   4   5
ENDBRANCH   1   4
BRANCH   3  18
ATOM     18  C   UNL     1       6.639  19.205   5.525  1.00  0.00     0.053 C 
BRANCH  18  19
ATOM     19  C   UNL     1       5.716  18.017   5.441  1.00  0.00     0.074 C 
BRANCH  19  20
ATOM     20  N   UNL     1       4.921  17.608   6.373  1.00  0.00    -0.313 NA
ATOM     21  H   UNL     1       4.003  18.071   6.319  1.00  0.00     0.186 HD
ENDBRANCH  19  20
ENDBRANCH  18  19
ENDBRANCH   3  18
TORSDOF 6
ENDMDL
MODEL 2
REMARK VINA RESULT:    -3.938      3.583      6.656
REMARK INTER + INTRA:          -5.652
REMARK INTER:                  -5.568
REMARK INTRA:                  -0.083
REMARK UNBOUND:                -0.447
REMARK SMILES [H]/N=C\C[C@H]1C[C@@H]1O[C@H]1CO[C@H]2C[C@@H](C3CC3)CCN2C1
REMARK SMILES IDX 7 1 6 2 5 3 8 4 9 5 14 6 13 7 18 8 12 9 19 10 20 11 11 12
REMARK SMILES IDX 21 13 10 14 15 15 16 16 17 17 4 18 3 19 2 20 1 21
REMARK H PARENT
ROOT
ATOM      1  C   UNL     1       4.577  12.631   3.405  1.00  0.00     0.122 C 
ATOM      2  C   UNL     1       4.573  13.280   2.050  1.00  0.00     0.039 C 
ATOM      3  C   UNL     1       5.358  12.019   2.274  1.00  0.00     0.026 C 
ENDROOT
BRANCH   1   4
ATOM      4  O   UNL     1       5.335  13.350   4.397  1.00  0.00    -0.371 OA
BRANCH   4   5
ATOM      5  C   UNL     1       4.893  13.184   5.755  1.00  0.00     0.158 C 
ATOM      6  C   UNL     1       9.248  14.709   8.187  1.00  0.00    -0.003 C 
ATOM      7  C   UNL     1       8.815  13.481   7.376  1.00  0.00     0.052 C 
ATOM      8  C   UNL     1       8.523  15.951   7.652  1.00  0.00     0.019 C 
ATOM      9  C   UNL     1       7.288  13.340   7.326  1.00  0.00     0.189 C 
ATOM     10  C   UNL     1       7.011  15.734   7.595  1.00  0.00     0.087 C 
ATOM     11  N   UNL     1       6.680  14.559   6.790  1.00  0.00    -0.276 NA
ATOM     12  O   UNL     1       7.009  12.199   6.513  1.00  0.00    -0.360 OA
ATOM     13  C   UNL     1       5.230  14.387   6.653  1.00  0.00     0.121 C 
ATOM     14  C   UNL     1       5.608  11.962   6.341  1.00  0.00     0.195 C 
BRANCH   6  15
ATOM     15  C   UNL     1      10.746  14.906   8.137  1.00  0.00    -0.008 C 
ATOM     16  C   UNL     1      11.446  15.715   9.204  1.00  0.00     0.004 C 
ATOM     17  C   UNL     1      11.649  14.229   9.139  1.00  0.00     0.004 C 
ENDBRANCH   6  15
ENDBRANCH   4   5
ENDBRANCH   1   4
BRANCH   3  18
ATOM     18  C   UNL     1       4.889  10.747   1.634  1.00  0.00     0.053 C 
BRANCH  18  19
ATOM     19  C   UNL     1       5.934   9.945   0.903  1.00  0.00     0.074 C 
BRANCH  19  20
ATOM     20  N   UNL     1       7.046  10.401   0.432  1.00  0.00    -0.313 NA
ATOM     21  H   UNL     1       7.009  10.510  -0.592  1.00  0.00     0.186 HD
ENDBRANCH  19  20
ENDBRANCH  18  19
ENDBRANCH   3  18
TORSDOF 6
ENDMDL
MODEL 3
REMARK VINA RESULT:    -3.769      5.525      8.396
REMARK INTER + INTRA:          -5.428
REMARK INTER:                  -5.193
REMARK INTRA:                  -0.235
REMARK UNBOUND:                -0.447
REMARK SMILES [H]/N=C\C[C@H]1C[C@@H]1O[C@H]1CO[C@H]2C[C@@H](C3CC3)CCN2C1
REMARK SMILES IDX 7 1 6 2 5 3 8 4 9 5 14 6 13 7 18 8 12 9 19 10 20 11 11 12
REMARK SMILES IDX 21 13 10 14 15 15 16 16 17 17 4 18 3 19 2 20 1 21
REMARK H PARENT
ROOT
ATOM      1  C   UNL     1       5.713  12.957   5.307  1.00  0.00     0.122 C 
ATOM      2  C   UNL     1       5.474  14.044   6.318  1.00  0.00     0.039 C 
ATOM      3  C   UNL     1       6.214  12.799   6.716  1.00  0.00     0.026 C 
ENDROOT
BRANCH   1   4
ATOM      4  O   UNL     1       4.532  12.212   4.955  1.00  0.00    -0.371 OA
BRANCH   4   5
ATOM      5  C   UNL     1       3.601  12.894   4.098  1.00  0.00     0.158 C 
ATOM      6  C   UNL     1       2.623   9.009   0.758  1.00  0.00    -0.003 C 
ATOM      7  C   UNL     1       3.806   9.944   1.040  1.00  0.00     0.052 C 
ATOM      8  C   UNL     1       1.872   8.733   2.068  1.00  0.00     0.019 C 
ATOM      9  C   UNL     1       3.367  11.209   1.788  1.00  0.00     0.189 C 
ATOM     10  C   UNL     1       1.494  10.031   2.780  1.00  0.00     0.087 C 
ATOM     11  N   UNL     1       2.677  10.855   3.029  1.00  0.00    -0.276 NA
ATOM     12  O   UNL     1       4.551  11.971   2.032  1.00  0.00    -0.360 OA
ATOM     13  C   UNL     1       2.342  12.065   3.788  1.00  0.00     0.121 C 
ATOM     14  C   UNL     1       4.301  13.175   2.764  1.00  0.00     0.195 C 
BRANCH   6  15
ATOM     15  C   UNL     1       3.078   7.715   0.123  1.00  0.00    -0.008 C 
ATOM     16  C   UNL     1       2.395   7.191  -1.118  1.00  0.00     0.004 C 
ATOM     17  C   UNL     1       3.799   7.715  -1.203  1.00  0.00     0.004 C 
ENDBRANCH   6  15
ENDBRANCH   4   5
ENDBRANCH   1   4
BRANCH   3  18
ATOM     18  C   UNL     1       7.682  12.890   7.011  1.00  0.00     0.053 C 
BRANCH  18  19
ATOM     19  C   UNL     1       8.091  13.897   8.054  1.00  0.00     0.074 C 
BRANCH  19  20
ATOM     20  N   UNL     1       8.184  13.677   9.324  1.00  0.00    -0.313 NA
ATOM     21  H   UNL     1       8.606  14.476   9.817  1.00  0.00     0.186 HD
ENDBRANCH  19  20
ENDBRANCH  18  19
ENDBRANCH   3  18
TORSDOF 6
ENDMDL
MODEL 4
REMARK VINA RESULT:    -3.758      6.861      8.331
REMARK INTER + INTRA:          -5.414
REMARK INTER:                  -5.190
REMARK INTRA:                  -0.224
REMARK UNBOUND:                -0.447
REMARK SMILES [H]/N=C\C[C@H]1C[C@@H]1O[C@H]1CO[C@H]2C[C@@H](C3CC3)CCN2C1
REMARK SMILES IDX 7 1 6 2 5 3 8 4 9 5 14 6 13 7 18 8 12 9 19 10 20 11 11 12
REMARK SMILES IDX 21 13 10 14 15 15 16 16 17 17 4 18 3 19 2 20 1 21
REMARK H PARENT
ROOT
ATOM      1  C   UNL     1       3.547  14.961   1.569  1.00  0.00     0.122 C 
ATOM      2  C   UNL     1       4.521  16.079   1.322  1.00  0.00     0.039 C 
ATOM      3  C   UNL     1       3.305  15.939   0.451  1.00  0.00     0.026 C 
ENDROOT
BRANCH   1   4
ATOM      4  O   UNL     1       4.039  13.660   1.193  1.00  0.00    -0.371 OA
BRANCH   4   5
ATOM      5  C   UNL     1       5.011  13.085   2.080  1.00  0.00     0.158 C 
ATOM      6  C   UNL     1       2.975   8.300   2.478  1.00  0.00    -0.003 C 
ATOM      7  C   UNL     1       2.606   9.697   2.993  1.00  0.00     0.052 C 
ATOM      8  C   UNL     1       3.666   8.428   1.114  1.00  0.00     0.019 C 
ATOM      9  C   UNL     1       3.815  10.642   2.991  1.00  0.00     0.189 C 
ATOM     10  C   UNL     1       4.837   9.408   1.171  1.00  0.00     0.087 C 
ATOM     11  N   UNL     1       4.401  10.719   1.652  1.00  0.00    -0.276 NA
ATOM     12  O   UNL     1       3.341  11.912   3.442  1.00  0.00    -0.360 OA
ATOM     13  C   UNL     1       5.495  11.695   1.631  1.00  0.00     0.121 C 
ATOM     14  C   UNL     1       4.360  12.917   3.457  1.00  0.00     0.195 C 
BRANCH   6  15
ATOM     15  C   UNL     1       1.758   7.408   2.375  1.00  0.00    -0.008 C 
ATOM     16  C   UNL     1       1.808   5.987   2.886  1.00  0.00     0.004 C 
ATOM     17  C   UNL     1       0.983   7.012   3.609  1.00  0.00     0.004 C 
ENDBRANCH   6  15
ENDBRANCH   4   5
ENDBRANCH   1   4
BRANCH   3  18
ATOM     18  C   UNL     1       2.210  16.957   0.562  1.00  0.00     0.053 C 
BRANCH  18  19
ATOM     19  C   UNL     1       2.598  18.385   0.279  1.00  0.00     0.074 C 
BRANCH  19  20
ATOM     20  N   UNL     1       2.652  18.938  -0.886  1.00  0.00    -0.313 NA
ATOM     21  H   UNL     1       1.935  18.559  -1.520  1.00  0.00     0.186 HD
ENDBRANCH  19  20
ENDBRANCH  18  19
ENDBRANCH   3  18
TORSDOF 6
ENDMDL
MODEL 5
REMARK VINA RESULT:    -3.643      3.147      4.589
REMARK INTER + INTRA:          -5.262
REMARK INTER:                  -5.080
REMARK INTRA:                  -0.182
REMARK UNBOUND:                -0.447
REMARK SMILES [H]/N=C\C[C@H]1C[C@@H]1O[C@H]1CO[C@H]2C[C@@H](C3CC3)CCN2C1
REMARK SMILES IDX 7 1 6 2 5 3 8 4 9 5 14 6 13 7 18 8 12 9 19 10 20 11 11 12
REMARK SMILES IDX 21 13 10 14 15 15 16 16 17 17 4 18 3 19 2 20 1 21
REMARK H PARENT
ROOT
ATOM      1  C   UNL     1       6.091  18.263   4.162  1.00  0.00     0.122 C 
ATOM      2  C   UNL     1       5.945  19.416   3.211  1.00  0.00     0.039 C 
ATOM      3  C   UNL     1       6.259  18.046   2.683  1.00  0.00     0.026 C 
ENDROOT
BRANCH   1   4
ATOM      4  O   UNL     1       7.296  18.300   4.950  1.00  0.00    -0.371 OA
BRANCH   4   5
ATOM      5  C   UNL     1       7.346  19.324   5.957  1.00  0.00     0.158 C 
ATOM      6  C   UNL     1      10.008  16.707   9.600  1.00  0.00    -0.003 C 
ATOM      7  C   UNL     1       8.587  16.652   9.027  1.00  0.00     0.052 C 
ATOM      8  C   UNL     1      10.983  17.144   8.498  1.00  0.00     0.019 C 
ATOM      9  C   UNL     1       8.200  17.967   8.336  1.00  0.00     0.189 C 
ATOM     10  C   UNL     1      10.523  18.439   7.828  1.00  0.00     0.087 C 
ATOM     11  N   UNL     1       9.170  18.299   7.292  1.00  0.00    -0.276 NA
ATOM     12  O   UNL     1       6.886  17.779   7.807  1.00  0.00    -0.360 OA
ATOM     13  C   UNL     1       8.747  19.504   6.569  1.00  0.00     0.121 C 
ATOM     14  C   UNL     1       6.401  18.921   7.094  1.00  0.00     0.195 C 
BRANCH   6  15
ATOM     15  C   UNL     1      10.425  15.373  10.179  1.00  0.00    -0.008 C 
ATOM     16  C   UNL     1      10.594  15.207  11.670  1.00  0.00     0.004 C 
ATOM     17  C   UNL     1       9.450  14.534  10.969  1.00  0.00     0.004 C 
ENDBRANCH   6  15
ENDBRANCH   4   5
ENDBRANCH   1   4
BRANCH   3  18
ATOM     18  C   UNL     1       5.211  17.309   1.903  1.00  0.00     0.053 C 
BRANCH  18  19
ATOM     19  C   UNL     1       4.275  18.156   1.081  1.00  0.00     0.074 C 
BRANCH  19  20
ATOM     20  N   UNL     1       3.029  18.379   1.341  1.00  0.00    -0.313 NA
ATOM     21  H   UNL     1       2.603  19.008   0.646  1.00  0.00     0.186 HD
ENDBRANCH  19  20
ENDBRANCH  18  19
ENDBRANCH   3  18
TORSDOF 6
ENDMDL
MODEL 6
REMARK VINA RESULT:    -3.559      2.286      4.419
REMARK INTER + INTRA:          -5.151
REMARK INTER:                  -5.372
REMARK INTRA:                   0.221
REMARK UNBOUND:                -0.447
REMARK SMILES [H]/N=C\C[C@H]1C[C@@H]1O[C@H]1CO[C@H]2C[C@@H](C3CC3)CCN2C1
REMARK SMILES IDX 7 1 6 2 5 3 8 4 9 5 14 6 13 7 18 8 12 9 19 10 20 11 11 12
REMARK SMILES IDX 21 13 10 14 15 15 16 16 17 17 4 18 3 19 2 20 1 21
REMARK H PARENT
ROOT
ATOM      1  C   UNL     1       9.935  17.145   7.652  1.00  0.00     0.122 C 
ATOM      2  C   UNL     1       9.894  17.249   9.150  1.00  0.00     0.039 C 
ATOM      3  C   UNL     1      10.820  16.266   8.493  1.00  0.00     0.026 C 
ENDROOT
BRANCH   1   4
ATOM      4  O   UNL     1       8.771  16.524   7.074  1.00  0.00    -0.371 OA
BRANCH   4   5
ATOM      5  C   UNL     1       7.653  16.357   7.962  1.00  0.00     0.158 C 
ATOM      6  C   UNL     1       4.838  13.058   5.065  1.00  0.00    -0.003 C 
ATOM      7  C   UNL     1       5.194  14.548   4.999  1.00  0.00     0.052 C 
ATOM      8  C   UNL     1       6.003  12.285   5.697  1.00  0.00     0.019 C 
ATOM      9  C   UNL     1       5.635  15.090   6.365  1.00  0.00     0.189 C 
ATOM     10  C   UNL     1       6.416  12.895   7.037  1.00  0.00     0.087 C 
ATOM     11  N   UNL     1       6.757  14.309   6.886  1.00  0.00    -0.276 NA
ATOM     12  O   UNL     1       5.982  16.462   6.168  1.00  0.00    -0.360 OA
ATOM     13  C   UNL     1       7.239  14.886   8.146  1.00  0.00     0.121 C 
ATOM     14  C   UNL     1       6.454  17.097   7.361  1.00  0.00     0.195 C 
BRANCH   6  15
ATOM     15  C   UNL     1       4.514  12.504   3.696  1.00  0.00    -0.008 C 
ATOM     16  C   UNL     1       3.086  12.191   3.316  1.00  0.00     0.004 C 
ATOM     17  C   UNL     1       3.795  13.346   2.670  1.00  0.00     0.004 C 
ENDBRANCH   6  15
ENDBRANCH   4   5
ENDBRANCH   1   4
BRANCH   3  18
ATOM     18  C   UNL     1      12.298  16.512   8.546  1.00  0.00     0.053 C 
BRANCH  18  19
ATOM     19  C   UNL     1      13.133  15.424   9.171  1.00  0.00     0.074 C 
BRANCH  19  20
ATOM     20  N   UNL     1      13.343  15.263  10.435  1.00  0.00    -0.313 NA
ATOM     21  H   UNL     1      14.232  14.775  10.613  1.00  0.00     0.186 HD
ENDBRANCH  19  20
ENDBRANCH  18  19
ENDBRANCH   3  18
TORSDOF 6
ENDMDL
MODEL 7
REMARK VINA RESULT:    -3.550      1.500      2.099
REMARK INTER + INTRA:          -5.138
REMARK INTER:                  -4.730
REMARK INTRA:                  -0.408
REMARK UNBOUND:                -0.447
REMARK SMILES [H]/N=C\C[C@H]1C[C@@H]1O[C@H]1CO[C@H]2C[C@@H](C3CC3)CCN2C1
REMARK SMILES IDX 7 1 6 2 5 3 8 4 9 5 14 6 13 7 18 8 12 9 19 10 20 11 11 12
REMARK SMILES IDX 21 13 10 14 15 15 16 16 17 17 4 18 3 19 2 20 1 21
REMARK H PARENT
ROOT
ATOM      1  C   UNL     1       8.179  18.865   7.028  1.00  0.00     0.122 C 
ATOM      2  C   UNL     1       9.278  19.501   6.225  1.00  0.00     0.039 C 
ATOM      3  C   UNL     1       7.976  19.150   5.565  1.00  0.00     0.026 C 
ENDROOT
BRANCH   1   4
ATOM      4  O   UNL     1       8.433  17.494   7.388  1.00  0.00    -0.371 OA
BRANCH   4   5
ATOM      5  C   UNL     1       7.576  16.951   8.406  1.00  0.00     0.158 C 
ATOM      6  C   UNL     1       5.369  13.135   5.620  1.00  0.00    -0.003 C 
ATOM      7  C   UNL     1       5.269  14.664   5.659  1.00  0.00     0.052 C 
ATOM      8  C   UNL     1       6.796  12.709   5.993  1.00  0.00     0.019 C 
ATOM      9  C   UNL     1       5.763  15.234   6.996  1.00  0.00     0.189 C 
ATOM     10  C   UNL     1       7.238  13.336   7.314  1.00  0.00     0.087 C 
ATOM     11  N   UNL     1       7.132  14.794   7.264  1.00  0.00    -0.276 NA
ATOM     12  O   UNL     1       5.666  16.656   6.895  1.00  0.00    -0.360 OA
ATOM     13  C   UNL     1       7.635  15.416   8.494  1.00  0.00     0.121 C 
ATOM     14  C   UNL     1       6.132  17.333   8.066  1.00  0.00     0.195 C 
BRANCH   6  15
ATOM     15  C   UNL     1       4.990  12.588   4.262  1.00  0.00    -0.008 C 
ATOM     16  C   UNL     1       3.540  12.351   3.912  1.00  0.00     0.004 C 
ATOM     17  C   UNL     1       4.298  13.461   3.243  1.00  0.00     0.004 C 
ENDBRANCH   6  15
ENDBRANCH   4   5
ENDBRANCH   1   4
BRANCH   3  18
ATOM     18  C   UNL     1       7.060  20.255   5.130  1.00  0.00     0.053 C 
BRANCH  18  19
ATOM     19  C   UNL     1       5.611  19.886   4.946  1.00  0.00     0.074 C 
BRANCH  19  20
ATOM     20  N   UNL     1       5.085  18.734   5.201  1.00  0.00    -0.313 NA
ATOM     21  H   UNL     1       5.688  17.963   4.883  1.00  0.00     0.186 HD
ENDBRANCH  19  20
ENDBRANCH  18  19
ENDBRANCH   3  18
TORSDOF 6
ENDMDL
MODEL 8
REMARK VINA RESULT:    -3.342      3.083      5.492
REMARK INTER + INTRA:          -4.865
REMARK INTER:                  -4.716
REMARK INTRA:                  -0.149
REMARK UNBOUND:                -0.447
REMARK SMILES [H]/N=C\C[C@H]1C[C@@H]1O[C@H]1CO[C@H]2C[C@@H](C3CC3)CCN2C1
REMARK SMILES IDX 7 1 6 2 5 3 8 4 9 5 14 6 13 7 18 8 12 9 19 10 20 11 11 12
REMARK SMILES IDX 21 13 10 14 15 15 16 16 17 17 4 18 3 19 2 20 1 21
REMARK H PARENT
ROOT
ATOM      1  C   UNL     1       8.959  14.060   7.744  1.00  0.00     0.122 C 
ATOM      2  C   UNL     1      10.390  13.869   7.327  1.00  0.00     0.039 C 
ATOM      3  C   UNL     1       9.825  15.255   7.450  1.00  0.00     0.026 C 
ENDROOT
BRANCH   1   4
ATOM      4  O   UNL     1       7.999  13.695   6.734  1.00  0.00    -0.371 OA
BRANCH   4   5
ATOM      5  C   UNL     1       6.654  13.499   7.199  1.00  0.00     0.158 C 
ATOM      6  C   UNL     1       4.180  13.875   2.623  1.00  0.00    -0.003 C 
ATOM      7  C   UNL     1       4.890  14.849   3.570  1.00  0.00     0.052 C 
ATOM      8  C   UNL     1       4.862  12.502   2.702  1.00  0.00     0.019 C 
ATOM      9  C   UNL     1       4.996  14.284   4.994  1.00  0.00     0.189 C 
ATOM     10  C   UNL     1       4.967  12.013   4.146  1.00  0.00     0.087 C 
ATOM     11  N   UNL     1       5.672  12.987   4.979  1.00  0.00    -0.276 NA
ATOM     12  O   UNL     1       5.710  15.252   5.765  1.00  0.00    -0.360 OA
ATOM     13  C   UNL     1       5.858  12.494   6.348  1.00  0.00     0.121 C 
ATOM     14  C   UNL     1       5.922  14.843   7.120  1.00  0.00     0.195 C 
BRANCH   6  15
ATOM     15  C   UNL     1       4.179  14.386   1.200  1.00  0.00    -0.008 C 
ATOM     16  C   UNL     1       3.041  15.242   0.696  1.00  0.00     0.004 C 
ATOM     17  C   UNL     1       4.398  15.850   0.904  1.00  0.00     0.004 C 
ENDBRANCH   6  15
ENDBRANCH   4   5
ENDBRANCH   1   4
BRANCH   3  18
ATOM     18  C   UNL     1      10.299  16.137   8.566  1.00  0.00     0.053 C 
BRANCH  18  19
ATOM     19  C   UNL     1      10.968  17.424   8.159  1.00  0.00     0.074 C 
BRANCH  19  20
ATOM     20  N   UNL     1      10.689  18.600   8.615  1.00  0.00    -0.313 NA
ATOM     21  H   UNL     1      11.172  18.787   9.504  1.00  0.00     0.186 HD
ENDBRANCH  19  20
ENDBRANCH  18  19
ENDBRANCH   3  18
TORSDOF 6
ENDMDL
MODEL 9
REMARK VINA RESULT:    -3.224      3.165      6.013
REMARK INTER + INTRA:          -4.708
REMARK INTER:                  -4.811
REMARK INTRA:                   0.103
REMARK UNBOUND:                -0.447
REMARK SMILES [H]/N=C\C[C@H]1C[C@@H]1O[C@H]1CO[C@H]2C[C@@H](C3CC3)CCN2C1
REMARK SMILES IDX 7 1 6 2 5 3 8 4 9 5 14 6 13 7 18 8 12 9 19 10 20 11 11 12
REMARK SMILES IDX 21 13 10 14 15 15 16 16 17 17 4 18 3 19 2 20 1 21
REMARK H PARENT
ROOT
ATOM      1  C   UNL     1       4.885  12.922   3.077  1.00  0.00     0.122 C 
ATOM      2  C   UNL     1       3.408  12.954   3.356  1.00  0.00     0.039 C 
ATOM      3  C   UNL     1       4.045  14.060   2.565  1.00  0.00     0.026 C 
ENDROOT
BRANCH   1   4
ATOM      4  O   UNL     1       5.706  13.195   4.229  1.00  0.00    -0.371 OA
BRANCH   4   5
ATOM      5  C   UNL     1       5.051  13.064   5.502  1.00  0.00     0.158 C 
ATOM      6  C   UNL     1       8.879  14.884   8.542  1.00  0.00    -0.003 C 
ATOM      7  C   UNL     1       8.635  13.605   7.730  1.00  0.00     0.052 C 
ATOM      8  C   UNL     1       8.206  16.069   7.836  1.00  0.00     0.019 C 
ATOM      9  C   UNL     1       7.143  13.394   7.436  1.00  0.00     0.189 C 
ATOM     10  C   UNL     1       6.734  15.781   7.541  1.00  0.00     0.087 C 
ATOM     11  N   UNL     1       6.588  14.560   6.750  1.00  0.00    -0.276 NA
ATOM     12  O   UNL     1       7.047  12.209   6.643  1.00  0.00    -0.360 OA
ATOM     13  C   UNL     1       5.187  14.317   6.385  1.00  0.00     0.121 C 
ATOM     14  C   UNL     1       5.705  11.901   6.256  1.00  0.00     0.195 C 
BRANCH   6  15
ATOM     15  C   UNL     1      10.356  15.147   8.730  1.00  0.00    -0.008 C 
ATOM     16  C   UNL     1      10.938  15.276  10.118  1.00  0.00     0.004 C 
ATOM     17  C   UNL     1      11.269  14.077   9.278  1.00  0.00     0.004 C 
ENDBRANCH   6  15
ENDBRANCH   4   5
ENDBRANCH   1   4
BRANCH   3  18
ATOM     18  C   UNL     1       3.740  14.174   1.101  1.00  0.00     0.053 C 
BRANCH  18  19
ATOM     19  C   UNL     1       3.201  15.502   0.634  1.00  0.00     0.074 C 
BRANCH  19  20
ATOM     20  N   UNL     1       3.422  16.646   1.190  1.00  0.00    -0.313 NA
ATOM     21  H   UNL     1       3.508  17.398   0.491  1.00  0.00     0.186 HD
ENDBRANCH  19  20
ENDBRANCH  18  19
ENDBRANCH   3  18
TORSDOF 6
ENDMDL
