MODEL 1
REMARK VINA RESULT:    -6.111      0.000      0.000
REMARK INTER + INTRA:          -7.552
REMARK INTER:                  -7.183
REMARK INTRA:                  -0.370
REMARK UNBOUND:                -0.370
REMARK SMILES Cc1ccc(CNC(=O)NC(=O)c2ccc(C)cc2)cc1
REMARK SMILES IDX 11 1 12 2 10 3 8 4 9 5 7 6 13 9 19 10 18 11 14 12 16 13
REMARK SMILES IDX 15 14 17 15 6 16 5 17 4 18 20 19 3 20 21 21 2 22 1 23
REMARK H PARENT 10 7 7 8
ROOT
ATOM      1  C   UNL     1      -4.013   5.452  10.436  1.00  0.00     0.259 C 
ATOM      2  O   UNL     1      -4.243   6.531   9.908  1.00  0.00    -0.269 OA
ATOM      3  N   UNL     1      -3.943   5.140  11.797  1.00  0.00    -0.274 N 
ATOM      4  C   UNL     1      -4.292   5.721  12.989  1.00  0.00     0.321 C 
ATOM      5  O   UNL     1      -4.182   5.039  14.014  1.00  0.00    -0.248 OA
ATOM      6  N   UNL     1      -4.773   6.974  13.094  1.00  0.00    -0.334 N 
ATOM      7  H   UNL     1      -3.715   4.174  11.993  1.00  0.00     0.175 HD
ATOM      8  H   UNL     1      -5.063   7.222  14.029  1.00  0.00     0.165 HD
ENDROOT
BRANCH   1   9
ATOM      9  C   UNL     1      -3.780   4.310   9.530  1.00  0.00     0.040 A 
ATOM     10  C   UNL     1      -2.489   3.870   9.230  1.00  0.00     0.014 A 
ATOM     11  C   UNL     1      -2.320   2.754   8.411  1.00  0.00     0.004 A 
ATOM     12  C   UNL     1      -4.894   3.679   8.969  1.00  0.00     0.014 A 
ATOM     13  C   UNL     1      -3.434   2.082   7.884  1.00  0.00    -0.051 A 
ATOM     14  C   UNL     1      -4.721   2.560   8.156  1.00  0.00     0.004 A 
ATOM     15  C   UNL     1      -3.238   0.834   7.075  1.00  0.00     0.044 C 
ENDBRANCH   1   9
BRANCH   6  16
ATOM     16  C   UNL     1      -5.073   7.889  12.028  1.00  0.00     0.153 C 
BRANCH  16  17
ATOM     17  C   UNL     1      -6.000   9.031  12.340  1.00  0.00    -0.029 A 
ATOM     18  C   UNL     1      -7.154   9.302  11.598  1.00  0.00     0.006 A 
ATOM     19  C   UNL     1      -5.797   9.711  13.552  1.00  0.00     0.006 A 
ATOM     20  C   UNL     1      -8.095  10.219  12.078  1.00  0.00     0.004 A 
ATOM     21  C   UNL     1      -6.736  10.619  14.030  1.00  0.00     0.004 A 
ATOM     22  C   UNL     1      -7.899  10.874  13.302  1.00  0.00    -0.051 A 
ATOM     23  C   UNL     1      -8.967  11.747  13.889  1.00  0.00     0.044 C 
ENDBRANCH  16  17
ENDBRANCH   6  16
TORSDOF 3
ENDMDL
MODEL 2
REMARK VINA RESULT:    -6.101      3.256      5.513
REMARK INTER + INTRA:          -7.541
REMARK INTER:                  -7.172
REMARK INTRA:                  -0.369
REMARK UNBOUND:                -0.370
REMARK SMILES Cc1ccc(CNC(=O)NC(=O)c2ccc(C)cc2)cc1
REMARK SMILES IDX 11 1 12 2 10 3 8 4 9 5 7 6 13 9 19 10 18 11 14 12 16 13
REMARK SMILES IDX 15 14 17 15 6 16 5 17 4 18 20 19 3 20 21 21 2 22 1 23
REMARK H PARENT 10 7 7 8
ROOT
ATOM      1  C   UNL     1      -3.637   5.247  10.616  1.00  0.00     0.259 C 
ATOM      2  O   UNL     1      -3.398   4.189  11.183  1.00  0.00    -0.269 OA
ATOM      3  N   UNL     1      -4.308   6.371  11.108  1.00  0.00    -0.274 N 
ATOM      4  C   UNL     1      -4.719   6.854  12.324  1.00  0.00     0.321 C 
ATOM      5  O   UNL     1      -5.182   7.999  12.359  1.00  0.00    -0.248 OA
ATOM      6  N   UNL     1      -4.616   6.162  13.474  1.00  0.00    -0.334 N 
ATOM      7  H   UNL     1      -4.403   7.125  10.441  1.00  0.00     0.175 HD
ATOM      8  H   UNL     1      -4.883   6.690  14.292  1.00  0.00     0.165 HD
ENDROOT
BRANCH   1   9
ATOM      9  C   UNL     1      -3.157   5.375   9.227  1.00  0.00     0.040 A 
ATOM     10  C   UNL     1      -4.013   5.187   8.141  1.00  0.00     0.014 A 
ATOM     11  C   UNL     1      -3.526   5.371   6.846  1.00  0.00     0.004 A 
ATOM     12  C   UNL     1      -1.809   5.685   9.024  1.00  0.00     0.014 A 
ATOM     13  C   UNL     1      -2.187   5.734   6.634  1.00  0.00    -0.051 A 
ATOM     14  C   UNL     1      -1.328   5.874   7.730  1.00  0.00     0.004 A 
ATOM     15  C   UNL     1      -1.700   6.010   5.242  1.00  0.00     0.044 C 
ENDBRANCH   1   9
BRANCH   6  16
ATOM     16  C   UNL     1      -4.019   4.871  13.668  1.00  0.00     0.153 C 
BRANCH  16  17
ATOM     17  C   UNL     1      -3.639   4.491  15.072  1.00  0.00    -0.029 A 
ATOM     18  C   UNL     1      -2.365   4.032  15.421  1.00  0.00     0.006 A 
ATOM     19  C   UNL     1      -4.546   4.816  16.094  1.00  0.00     0.006 A 
ATOM     20  C   UNL     1      -2.003   3.926  16.768  1.00  0.00     0.004 A 
ATOM     21  C   UNL     1      -4.184   4.715  17.433  1.00  0.00     0.004 A 
ATOM     22  C   UNL     1      -2.905   4.278  17.782  1.00  0.00    -0.051 A 
ATOM     23  C   UNL     1      -2.478   4.304  19.220  1.00  0.00     0.044 C 
ENDBRANCH  16  17
ENDBRANCH   6  16
TORSDOF 3
ENDMDL
MODEL 3
REMARK VINA RESULT:    -6.053      0.524      8.059
REMARK INTER + INTRA:          -7.484
REMARK INTER:                  -7.004
REMARK INTRA:                  -0.480
REMARK UNBOUND:                -0.370
REMARK SMILES Cc1ccc(CNC(=O)NC(=O)c2ccc(C)cc2)cc1
REMARK SMILES IDX 11 1 12 2 10 3 8 4 9 5 7 6 13 9 19 10 18 11 14 12 16 13
REMARK SMILES IDX 15 14 17 15 6 16 5 17 4 18 20 19 3 20 21 21 2 22 1 23
REMARK H PARENT 10 7 7 8
ROOT
ATOM      1  C   UNL     1      -5.358   7.611  11.780  1.00  0.00     0.259 C 
ATOM      2  O   UNL     1      -5.166   7.538  10.574  1.00  0.00    -0.269 OA
ATOM      3  N   UNL     1      -4.923   6.747  12.790  1.00  0.00    -0.274 N 
ATOM      4  C   UNL     1      -4.016   5.728  12.930  1.00  0.00     0.321 C 
ATOM      5  O   UNL     1      -3.823   5.285  14.067  1.00  0.00    -0.248 OA
ATOM      6  N   UNL     1      -3.310   5.214  11.906  1.00  0.00    -0.334 N 
ATOM      7  H   UNL     1      -5.227   7.005  13.719  1.00  0.00     0.175 HD
ATOM      8  H   UNL     1      -2.623   4.530  12.189  1.00  0.00     0.165 HD
ENDROOT
BRANCH   1   9
ATOM      9  C   UNL     1      -6.149   8.763  12.254  1.00  0.00     0.040 A 
ATOM     10  C   UNL     1      -7.281   9.202  11.566  1.00  0.00     0.014 A 
ATOM     11  C   UNL     1      -8.027  10.262  12.082  1.00  0.00     0.004 A 
ATOM     12  C   UNL     1      -5.727   9.415  13.418  1.00  0.00     0.014 A 
ATOM     13  C   UNL     1      -7.642  10.889  13.276  1.00  0.00    -0.051 A 
ATOM     14  C   UNL     1      -6.479  10.469  13.933  1.00  0.00     0.004 A 
ATOM     15  C   UNL     1      -8.501  11.971  13.862  1.00  0.00     0.044 C 
ENDBRANCH   1   9
BRANCH   6  16
ATOM     16  C   UNL     1      -3.306   5.650  10.538  1.00  0.00     0.153 C 
BRANCH  16  17
ATOM     17  C   UNL     1      -3.301   4.587   9.475  1.00  0.00    -0.029 A 
ATOM     18  C   UNL     1      -2.128   4.008   8.980  1.00  0.00     0.006 A 
ATOM     19  C   UNL     1      -4.537   4.017   9.130  1.00  0.00     0.006 A 
ATOM     20  C   UNL     1      -2.197   2.866   8.175  1.00  0.00     0.004 A 
ATOM     21  C   UNL     1      -4.604   2.878   8.334  1.00  0.00     0.004 A 
ATOM     22  C   UNL     1      -3.433   2.286   7.858  1.00  0.00    -0.051 A 
ATOM     23  C   UNL     1      -3.507   0.984   7.117  1.00  0.00     0.044 C 
ENDBRANCH  16  17
ENDBRANCH   6  16
TORSDOF 3
ENDMDL
MODEL 4
REMARK VINA RESULT:    -6.047      3.159      7.344
REMARK INTER + INTRA:          -7.477
REMARK INTER:                  -6.995
REMARK INTRA:                  -0.481
REMARK UNBOUND:                -0.370
REMARK SMILES Cc1ccc(CNC(=O)NC(=O)c2ccc(C)cc2)cc1
REMARK SMILES IDX 11 1 12 2 10 3 8 4 9 5 7 6 13 9 19 10 18 11 14 12 16 13
REMARK SMILES IDX 15 14 17 15 6 16 5 17 4 18 20 19 3 20 21 21 2 22 1 23
REMARK H PARENT 10 7 7 8
ROOT
ATOM      1  C   UNL     1      -3.620   4.943  13.498  1.00  0.00     0.259 C 
ATOM      2  O   UNL     1      -3.189   4.127  12.696  1.00  0.00    -0.269 OA
ATOM      3  N   UNL     1      -4.290   6.145  13.249  1.00  0.00    -0.274 N 
ATOM      4  C   UNL     1      -4.913   6.758  12.192  1.00  0.00     0.321 C 
ATOM      5  O   UNL     1      -5.528   7.805  12.419  1.00  0.00    -0.248 OA
ATOM      6  N   UNL     1      -4.913   6.264  10.940  1.00  0.00    -0.334 N 
ATOM      7  H   UNL     1      -4.532   6.667  14.081  1.00  0.00     0.175 HD
ATOM      8  H   UNL     1      -5.488   6.788  10.297  1.00  0.00     0.165 HD
ENDROOT
BRANCH   1   9
ATOM      9  C   UNL     1      -3.419   4.634  14.927  1.00  0.00     0.040 A 
ATOM     10  C   UNL     1      -2.217   4.101  15.395  1.00  0.00     0.014 A 
ATOM     11  C   UNL     1      -2.055   3.875  16.762  1.00  0.00     0.004 A 
ATOM     12  C   UNL     1      -4.476   4.886  15.808  1.00  0.00     0.014 A 
ATOM     13  C   UNL     1      -3.091   4.172  17.661  1.00  0.00    -0.051 A 
ATOM     14  C   UNL     1      -4.307   4.665  17.173  1.00  0.00     0.004 A 
ATOM     15  C   UNL     1      -2.871   4.003  19.135  1.00  0.00     0.044 C 
ENDBRANCH   1   9
BRANCH   6  16
ATOM     16  C   UNL     1      -4.353   5.021  10.489  1.00  0.00     0.153 C 
BRANCH  16  17
ATOM     17  C   UNL     1      -3.616   5.033   9.179  1.00  0.00    -0.029 A 
ATOM     18  C   UNL     1      -4.246   4.834   7.946  1.00  0.00     0.006 A 
ATOM     19  C   UNL     1      -2.281   5.469   9.196  1.00  0.00     0.006 A 
ATOM     20  C   UNL     1      -3.556   5.094   6.757  1.00  0.00     0.004 A 
ATOM     21  C   UNL     1      -1.597   5.732   8.013  1.00  0.00     0.004 A 
ATOM     22  C   UNL     1      -2.233   5.557   6.783  1.00  0.00    -0.051 A 
ATOM     23  C   UNL     1      -1.536   5.973   5.522  1.00  0.00     0.044 C 
ENDBRANCH  16  17
ENDBRANCH   6  16
TORSDOF 3
ENDMDL
MODEL 5
REMARK VINA RESULT:    -5.804      3.011      7.523
REMARK INTER + INTRA:          -7.192
REMARK INTER:                  -6.706
REMARK INTRA:                  -0.486
REMARK UNBOUND:                -0.370
REMARK SMILES Cc1ccc(CNC(=O)NC(=O)c2ccc(C)cc2)cc1
REMARK SMILES IDX 11 1 12 2 10 3 8 4 9 5 7 6 13 9 19 10 18 11 14 12 16 13
REMARK SMILES IDX 15 14 17 15 6 16 5 17 4 18 20 19 3 20 21 21 2 22 1 23
REMARK H PARENT 10 7 7 8
ROOT
ATOM      1  C   UNL     1      -3.895   4.725  13.777  1.00  0.00     0.259 C 
ATOM      2  O   UNL     1      -3.843   3.741  13.052  1.00  0.00    -0.269 OA
ATOM      3  N   UNL     1      -4.235   6.040  13.444  1.00  0.00    -0.274 N 
ATOM      4  C   UNL     1      -4.824   6.700  12.396  1.00  0.00     0.321 C 
ATOM      5  O   UNL     1      -5.079   7.900  12.544  1.00  0.00    -0.248 OA
ATOM      6  N   UNL     1      -5.163   6.104  11.237  1.00  0.00    -0.334 N 
ATOM      7  H   UNL     1      -4.185   6.692  14.215  1.00  0.00     0.175 HD
ATOM      8  H   UNL     1      -5.665   6.707  10.602  1.00  0.00     0.165 HD
ENDROOT
BRANCH   1   9
ATOM      9  C   UNL     1      -3.561   4.517  15.199  1.00  0.00     0.040 A 
ATOM     10  C   UNL     1      -2.306   4.046  15.591  1.00  0.00     0.014 A 
ATOM     11  C   UNL     1      -2.019   3.915  16.950  1.00  0.00     0.004 A 
ATOM     12  C   UNL     1      -4.544   4.799  16.152  1.00  0.00     0.014 A 
ATOM     13  C   UNL     1      -2.982   4.245  17.916  1.00  0.00    -0.051 A 
ATOM     14  C   UNL     1      -4.251   4.673  17.509  1.00  0.00     0.004 A 
ATOM     15  C   UNL     1      -2.629   4.180  19.373  1.00  0.00     0.044 C 
ENDBRANCH   1   9
BRANCH   6  16
ATOM     16  C   UNL     1      -5.051   4.712  10.902  1.00  0.00     0.153 C 
BRANCH  16  17
ATOM     17  C   UNL     1      -4.273   4.361   9.665  1.00  0.00    -0.029 A 
ATOM     18  C   UNL     1      -4.784   3.550   8.646  1.00  0.00     0.006 A 
ATOM     19  C   UNL     1      -3.071   5.053   9.443  1.00  0.00     0.006 A 
ATOM     20  C   UNL     1      -4.112   3.457   7.422  1.00  0.00     0.004 A 
ATOM     21  C   UNL     1      -2.407   4.964   8.224  1.00  0.00     0.004 A 
ATOM     22  C   UNL     1      -2.928   4.173   7.198  1.00  0.00    -0.051 A 
ATOM     23  C   UNL     1      -2.282   4.191   5.846  1.00  0.00     0.044 C 
ENDBRANCH  16  17
ENDBRANCH   6  16
TORSDOF 3
ENDMDL
MODEL 6
REMARK VINA RESULT:    -5.768      1.237      8.034
REMARK INTER + INTRA:          -7.150
REMARK INTER:                  -6.695
REMARK INTRA:                  -0.455
REMARK UNBOUND:                -0.370
REMARK SMILES Cc1ccc(CNC(=O)NC(=O)c2ccc(C)cc2)cc1
REMARK SMILES IDX 11 1 12 2 10 3 8 4 9 5 7 6 13 9 19 10 18 11 14 12 16 13
REMARK SMILES IDX 15 14 17 15 6 16 5 17 4 18 20 19 3 20 21 21 2 22 1 23
REMARK H PARENT 10 7 7 8
ROOT
ATOM      1  C   UNL     1      -5.303   7.778  11.638  1.00  0.00     0.259 C 
ATOM      2  O   UNL     1      -4.981   7.896  10.464  1.00  0.00    -0.269 OA
ATOM      3  N   UNL     1      -5.002   6.741  12.527  1.00  0.00    -0.274 N 
ATOM      4  C   UNL     1      -4.141   5.676  12.588  1.00  0.00     0.321 C 
ATOM      5  O   UNL     1      -4.085   5.044  13.648  1.00  0.00    -0.248 OA
ATOM      6  N   UNL     1      -3.340   5.308  11.571  1.00  0.00    -0.334 N 
ATOM      7  H   UNL     1      -5.400   6.855  13.450  1.00  0.00     0.175 HD
ATOM      8  H   UNL     1      -2.704   4.559  11.805  1.00  0.00     0.165 HD
ENDROOT
BRANCH   1   9
ATOM      9  C   UNL     1      -6.113   8.868  12.215  1.00  0.00     0.040 A 
ATOM     10  C   UNL     1      -7.279   9.316  11.592  1.00  0.00     0.014 A 
ATOM     11  C   UNL     1      -8.040  10.313  12.202  1.00  0.00     0.004 A 
ATOM     12  C   UNL     1      -5.675   9.452  13.407  1.00  0.00     0.014 A 
ATOM     13  C   UNL     1      -7.637  10.870  13.425  1.00  0.00    -0.051 A 
ATOM     14  C   UNL     1      -6.441  10.444  14.016  1.00  0.00     0.004 A 
ATOM     15  C   UNL     1      -8.509  11.880  14.110  1.00  0.00     0.044 C 
ENDBRANCH   1   9
BRANCH   6  16
ATOM     16  C   UNL     1      -3.175   5.963  10.305  1.00  0.00     0.153 C 
BRANCH  16  17
ATOM     17  C   UNL     1      -3.156   5.096   9.077  1.00  0.00    -0.029 A 
ATOM     18  C   UNL     1      -3.823   5.432   7.894  1.00  0.00     0.006 A 
ATOM     19  C   UNL     1      -2.258   4.016   9.065  1.00  0.00     0.006 A 
ATOM     20  C   UNL     1      -3.573   4.713   6.720  1.00  0.00     0.004 A 
ATOM     21  C   UNL     1      -2.007   3.305   7.896  1.00  0.00     0.004 A 
ATOM     22  C   UNL     1      -2.654   3.654   6.710  1.00  0.00    -0.051 A 
ATOM     23  C   UNL     1      -2.275   2.974   5.429  1.00  0.00     0.044 C 
ENDBRANCH  16  17
ENDBRANCH   6  16
TORSDOF 3
ENDMDL
MODEL 7
REMARK VINA RESULT:    -4.772      5.352      8.323
REMARK INTER + INTRA:          -5.978
REMARK INTER:                  -5.520
REMARK INTRA:                  -0.458
REMARK UNBOUND:                -0.370
REMARK SMILES Cc1ccc(CNC(=O)NC(=O)c2ccc(C)cc2)cc1
REMARK SMILES IDX 11 1 12 2 10 3 8 4 9 5 7 6 13 9 19 10 18 11 14 12 16 13
REMARK SMILES IDX 15 14 17 15 6 16 5 17 4 18 20 19 3 20 21 21 2 22 1 23
REMARK H PARENT 10 7 7 8
ROOT
ATOM      1  C   UNL     1      -9.326  11.372  13.053  1.00  0.00     0.259 C 
ATOM      2  O   UNL     1     -10.104  10.971  13.907  1.00  0.00    -0.269 OA
ATOM      3  N   UNL     1      -9.415  12.517  12.255  1.00  0.00    -0.274 N 
ATOM      4  C   UNL     1     -10.145  13.677  12.226  1.00  0.00     0.321 C 
ATOM      5  O   UNL     1      -9.821  14.538  11.401  1.00  0.00    -0.248 OA
ATOM      6  N   UNL     1     -11.167  13.934  13.062  1.00  0.00    -0.334 N 
ATOM      7  H   UNL     1      -8.654  12.628  11.598  1.00  0.00     0.175 HD
ATOM      8  H   UNL     1     -11.545  14.866  12.969  1.00  0.00     0.165 HD
ENDROOT
BRANCH   1   9
ATOM      9  C   UNL     1      -8.121  10.552  12.821  1.00  0.00     0.040 A 
ATOM     10  C   UNL     1      -7.038  10.584  13.701  1.00  0.00     0.014 A 
ATOM     11  C   UNL     1      -5.943   9.751  13.469  1.00  0.00     0.004 A 
ATOM     12  C   UNL     1      -8.088   9.741  11.682  1.00  0.00     0.014 A 
ATOM     13  C   UNL     1      -5.922   8.895  12.357  1.00  0.00    -0.051 A 
ATOM     14  C   UNL     1      -6.995   8.906  11.457  1.00  0.00     0.004 A 
ATOM     15  C   UNL     1      -4.776   7.946  12.167  1.00  0.00     0.044 C 
ENDBRANCH   1   9
BRANCH   6  16
ATOM     16  C   UNL     1     -11.635  13.122  14.150  1.00  0.00     0.153 C 
BRANCH  16  17
ATOM     17  C   UNL     1     -11.302  13.578  15.544  1.00  0.00    -0.029 A 
ATOM     18  C   UNL     1     -11.748  12.913  16.691  1.00  0.00     0.006 A 
ATOM     19  C   UNL     1     -10.333  14.585  15.677  1.00  0.00     0.006 A 
ATOM     20  C   UNL     1     -11.212  13.239  17.942  1.00  0.00     0.004 A 
ATOM     21  C   UNL     1      -9.797  14.905  16.920  1.00  0.00     0.004 A 
ATOM     22  C   UNL     1     -10.224  14.227  18.063  1.00  0.00    -0.051 A 
ATOM     23  C   UNL     1      -9.544  14.481  19.375  1.00  0.00     0.044 C 
ENDBRANCH  16  17
ENDBRANCH   6  16
TORSDOF 3
ENDMDL
MODEL 8
REMARK VINA RESULT:    -4.570      2.522      3.902
REMARK INTER + INTRA:          -5.741
REMARK INTER:                  -5.393
REMARK INTRA:                  -0.348
REMARK UNBOUND:                -0.370
REMARK SMILES Cc1ccc(CNC(=O)NC(=O)c2ccc(C)cc2)cc1
REMARK SMILES IDX 11 1 12 2 10 3 8 4 9 5 7 6 13 9 19 10 18 11 14 12 16 13
REMARK SMILES IDX 15 14 17 15 6 16 5 17 4 18 20 19 3 20 21 21 2 22 1 23
REMARK H PARENT 10 7 7 8
ROOT
ATOM      1  C   UNL     1      -4.944   7.042  12.100  1.00  0.00     0.259 C 
ATOM      2  O   UNL     1      -4.636   6.929  13.278  1.00  0.00    -0.269 OA
ATOM      3  N   UNL     1      -5.810   7.965  11.506  1.00  0.00    -0.274 N 
ATOM      4  C   UNL     1      -6.422   9.144  11.846  1.00  0.00     0.321 C 
ATOM      5  O   UNL     1      -7.032   9.750  10.958  1.00  0.00    -0.248 OA
ATOM      6  N   UNL     1      -6.365   9.684  13.077  1.00  0.00    -0.334 N 
ATOM      7  H   UNL     1      -5.924   7.847  10.508  1.00  0.00     0.175 HD
ATOM      8  H   UNL     1      -6.794  10.596  13.141  1.00  0.00     0.165 HD
ENDROOT
BRANCH   1   9
ATOM      9  C   UNL     1      -4.324   6.087  11.161  1.00  0.00     0.040 A 
ATOM     10  C   UNL     1      -4.980   4.918  10.772  1.00  0.00     0.014 A 
ATOM     11  C   UNL     1      -4.376   4.072   9.842  1.00  0.00     0.004 A 
ATOM     12  C   UNL     1      -3.047   6.382  10.672  1.00  0.00     0.014 A 
ATOM     13  C   UNL     1      -3.118   4.385   9.305  1.00  0.00    -0.051 A 
ATOM     14  C   UNL     1      -2.451   5.537   9.738  1.00  0.00     0.004 A 
ATOM     15  C   UNL     1      -2.520   3.510   8.243  1.00  0.00     0.044 C 
ENDBRANCH   1   9
BRANCH   6  16
ATOM     16  C   UNL     1      -5.631   9.202  14.212  1.00  0.00     0.153 C 
BRANCH  16  17
ATOM     17  C   UNL     1      -5.441  10.148  15.365  1.00  0.00    -0.029 A 
ATOM     18  C   UNL     1      -5.138  11.504  15.197  1.00  0.00     0.006 A 
ATOM     19  C   UNL     1      -5.793   9.685  16.643  1.00  0.00     0.006 A 
ATOM     20  C   UNL     1      -5.212  12.377  16.287  1.00  0.00     0.004 A 
ATOM     21  C   UNL     1      -5.871  10.555  17.725  1.00  0.00     0.004 A 
ATOM     22  C   UNL     1      -5.591  11.912  17.554  1.00  0.00    -0.051 A 
ATOM     23  C   UNL     1      -5.810  12.864  18.692  1.00  0.00     0.044 C 
ENDBRANCH  16  17
ENDBRANCH   6  16
TORSDOF 3
ENDMDL
MODEL 9
REMARK VINA RESULT:    -4.526      2.091      3.655
REMARK INTER + INTRA:          -5.689
REMARK INTER:                  -5.219
REMARK INTRA:                  -0.470
REMARK UNBOUND:                -0.370
REMARK SMILES Cc1ccc(CNC(=O)NC(=O)c2ccc(C)cc2)cc1
REMARK SMILES IDX 11 1 12 2 10 3 8 4 9 5 7 6 13 9 19 10 18 11 14 12 16 13
REMARK SMILES IDX 15 14 17 15 6 16 5 17 4 18 20 19 3 20 21 21 2 22 1 23
REMARK H PARENT 10 7 7 8
ROOT
ATOM      1  C   UNL     1      -5.300   8.140  11.968  1.00  0.00     0.259 C 
ATOM      2  O   UNL     1      -5.852   8.909  11.194  1.00  0.00    -0.269 OA
ATOM      3  N   UNL     1      -5.175   8.236  13.357  1.00  0.00    -0.274 N 
ATOM      4  C   UNL     1      -5.733   8.964  14.377  1.00  0.00     0.321 C 
ATOM      5  O   UNL     1      -5.440   8.647  15.535  1.00  0.00    -0.248 OA
ATOM      6  N   UNL     1      -6.600   9.975  14.182  1.00  0.00    -0.334 N 
ATOM      7  H   UNL     1      -4.651   7.483  13.782  1.00  0.00     0.175 HD
ATOM      8  H   UNL     1      -6.985  10.351  15.037  1.00  0.00     0.165 HD
ENDROOT
BRANCH   1   9
ATOM      9  C   UNL     1      -4.678   6.941  11.375  1.00  0.00     0.040 A 
ATOM     10  C   UNL     1      -5.371   5.732  11.281  1.00  0.00     0.014 A 
ATOM     11  C   UNL     1      -4.760   4.640  10.665  1.00  0.00     0.004 A 
ATOM     12  C   UNL     1      -3.362   7.044  10.912  1.00  0.00     0.014 A 
ATOM     13  C   UNL     1      -3.459   4.748  10.151  1.00  0.00    -0.051 A 
ATOM     14  C   UNL     1      -2.758   5.952  10.291  1.00  0.00     0.004 A 
ATOM     15  C   UNL     1      -2.848   3.590   9.416  1.00  0.00     0.044 C 
ENDBRANCH   1   9
BRANCH   6  16
ATOM     16  C   UNL     1      -7.147  10.431  12.936  1.00  0.00     0.153 C 
BRANCH  16  17
ATOM     17  C   UNL     1      -8.628  10.686  12.885  1.00  0.00    -0.029 A 
ATOM     18  C   UNL     1      -9.566   9.685  12.612  1.00  0.00     0.006 A 
ATOM     19  C   UNL     1      -9.082  11.935  13.340  1.00  0.00     0.006 A 
ATOM     20  C   UNL     1     -10.929   9.928  12.816  1.00  0.00     0.004 A 
ATOM     21  C   UNL     1     -10.437  12.174  13.546  1.00  0.00     0.004 A 
ATOM     22  C   UNL     1     -11.372  11.168  13.296  1.00  0.00    -0.051 A 
ATOM     23  C   UNL     1     -12.812  11.388  13.652  1.00  0.00     0.044 C 
ENDBRANCH  16  17
ENDBRANCH   6  16
TORSDOF 3
ENDMDL
