MODEL 1
REMARK VINA RESULT:    -4.084      0.000      0.000
REMARK INTER + INTRA:          -5.606
REMARK INTER:                  -5.397
REMARK INTRA:                  -0.209
REMARK UNBOUND:                -0.209
REMARK SMILES [H]/N=C\C[C@H]1C[C@@H]1O[C@H]1CO[C@H]2C[C@@H](C3CC3)CCN2C1
REMARK SMILES IDX 7 1 6 2 5 3 8 4 9 5 14 6 13 7 18 8 12 9 19 10 20 11 11 12
REMARK SMILES IDX 21 13 10 14 15 15 16 16 17 17 4 18 3 19 2 20 1 21
REMARK H PARENT
ROOT
ATOM      1  C   UNL     1      -5.968   8.118  11.895  1.00  0.00     0.122 C 
ATOM      2  C   UNL     1      -5.668   9.333  12.728  1.00  0.00     0.039 C 
ATOM      3  C   UNL     1      -6.601   9.440  11.556  1.00  0.00     0.026 C 
ENDROOT
BRANCH   1   4
ATOM      4  O   UNL     1      -4.873   7.694  11.060  1.00  0.00    -0.371 OA
BRANCH   4   5
ATOM      5  C   UNL     1      -3.780   7.063  11.745  1.00  0.00     0.158 C 
ATOM      6  C   UNL     1      -2.746   3.308   8.276  1.00  0.00    -0.003 C 
ATOM      7  C   UNL     1      -3.862   3.590   9.289  1.00  0.00     0.052 C 
ATOM      8  C   UNL     1      -2.201   4.638   7.738  1.00  0.00     0.019 C 
ATOM      9  C   UNL     1      -3.407   4.567  10.381  1.00  0.00     0.189 C 
ATOM     10  C   UNL     1      -1.798   5.577   8.875  1.00  0.00     0.087 C 
ATOM     11  N   UNL     1      -2.920   5.810   9.784  1.00  0.00    -0.276 NA
ATOM     12  O   UNL     1      -4.535   4.786  11.230  1.00  0.00    -0.360 OA
ATOM     13  C   UNL     1      -2.575   6.778  10.831  1.00  0.00     0.121 C 
ATOM     14  C   UNL     1      -4.271   5.715  12.285  1.00  0.00     0.195 C 
BRANCH   6  15
ATOM     15  C   UNL     1      -3.234   2.436   7.141  1.00  0.00    -0.008 C 
ATOM     16  C   UNL     1      -2.413   1.256   6.676  1.00  0.00     0.004 C 
ATOM     17  C   UNL     1      -3.710   1.027   7.397  1.00  0.00     0.004 C 
ENDBRANCH   6  15
ENDBRANCH   4   5
ENDBRANCH   1   4
BRANCH   3  18
ATOM     18  C   UNL     1      -8.061   9.666  11.808  1.00  0.00     0.053 C 
BRANCH  18  19
ATOM     19  C   UNL     1      -8.411  10.819  12.711  1.00  0.00     0.074 C 
BRANCH  19  20
ATOM     20  N   UNL     1      -8.889  11.958  12.335  1.00  0.00    -0.313 NA
ATOM     21  H   UNL     1      -9.627  11.845  11.626  1.00  0.00     0.186 HD
ENDBRANCH  19  20
ENDBRANCH  18  19
ENDBRANCH   3  18
TORSDOF 6
ENDMDL
MODEL 2
REMARK VINA RESULT:    -4.051      2.718      8.593
REMARK INTER + INTRA:          -5.563
REMARK INTER:                  -5.337
REMARK INTRA:                  -0.226
REMARK UNBOUND:                -0.209
REMARK SMILES [H]/N=C\C[C@H]1C[C@@H]1O[C@H]1CO[C@H]2C[C@@H](C3CC3)CCN2C1
REMARK SMILES IDX 7 1 6 2 5 3 8 4 9 5 14 6 13 7 18 8 12 9 19 10 20 11 11 12
REMARK SMILES IDX 21 13 10 14 15 15 16 16 17 17 4 18 3 19 2 20 1 21
REMARK H PARENT
ROOT
ATOM      1  C   UNL     1      -4.606   6.195  11.607  1.00  0.00     0.122 C 
ATOM      2  C   UNL     1      -4.342   4.994  12.471  1.00  0.00     0.039 C 
ATOM      3  C   UNL     1      -5.278   4.884  11.301  1.00  0.00     0.026 C 
ENDROOT
BRANCH   1   4
ATOM      4  O   UNL     1      -5.417   7.204  12.237  1.00  0.00    -0.371 OA
BRANCH   4   5
ATOM      5  C   UNL     1      -5.107   8.561  11.879  1.00  0.00     0.158 C 
ATOM      6  C   UNL     1      -9.480  10.839  13.580  1.00  0.00    -0.003 C 
ATOM      7  C   UNL     1      -9.102   9.924  12.409  1.00  0.00     0.052 C 
ATOM      8  C   UNL     1      -8.596  10.505  14.791  1.00  0.00     0.019 C 
ATOM      9  C   UNL     1      -7.597   9.966  12.115  1.00  0.00     0.189 C 
ATOM     10  C   UNL     1      -7.113  10.531  14.423  1.00  0.00     0.087 C 
ATOM     11  N   UNL     1      -6.833   9.620  13.314  1.00  0.00    -0.276 NA
ATOM     12  O   UNL     1      -7.363   9.048  11.046  1.00  0.00    -0.360 OA
ATOM     13  C   UNL     1      -5.399   9.568  13.006  1.00  0.00     0.121 C 
ATOM     14  C   UNL     1      -5.982   8.950  10.683  1.00  0.00     0.195 C 
BRANCH   6  15
ATOM     15  C   UNL     1     -10.943  10.707  13.939  1.00  0.00    -0.008 C 
ATOM     16  C   UNL     1     -11.748  11.925  14.324  1.00  0.00     0.004 C 
ATOM     17  C   UNL     1     -12.016  11.236  13.018  1.00  0.00     0.004 C 
ENDBRANCH   6  15
ENDBRANCH   4   5
ENDBRANCH   1   4
BRANCH   3  18
ATOM     18  C   UNL     1      -4.857   4.080  10.108  1.00  0.00     0.053 C 
BRANCH  18  19
ATOM     19  C   UNL     1      -5.934   3.261   9.444  1.00  0.00     0.074 C 
BRANCH  19  20
ATOM     20  N   UNL     1      -6.941   2.712  10.036  1.00  0.00    -0.313 NA
ATOM     21  H   UNL     1      -7.105   3.122  10.967  1.00  0.00     0.186 HD
ENDBRANCH  19  20
ENDBRANCH  18  19
ENDBRANCH   3  18
TORSDOF 6
ENDMDL
MODEL 3
REMARK VINA RESULT:    -3.952      3.191      5.430
REMARK INTER + INTRA:          -5.431
REMARK INTER:                  -5.141
REMARK INTRA:                  -0.291
REMARK UNBOUND:                -0.209
REMARK SMILES [H]/N=C\C[C@H]1C[C@@H]1O[C@H]1CO[C@H]2C[C@@H](C3CC3)CCN2C1
REMARK SMILES IDX 7 1 6 2 5 3 8 4 9 5 14 6 13 7 18 8 12 9 19 10 20 11 11 12
REMARK SMILES IDX 21 13 10 14 15 15 16 16 17 17 4 18 3 19 2 20 1 21
REMARK H PARENT
ROOT
ATOM      1  C   UNL     1      -3.513   4.386  14.388  1.00  0.00     0.122 C 
ATOM      2  C   UNL     1      -2.830   3.048  14.363  1.00  0.00     0.039 C 
ATOM      3  C   UNL     1      -2.271   4.158  15.206  1.00  0.00     0.026 C 
ENDROOT
BRANCH   1   4
ATOM      4  O   UNL     1      -3.355   5.149  13.176  1.00  0.00    -0.371 OA
BRANCH   4   5
ATOM      5  C   UNL     1      -4.575   5.582  12.553  1.00  0.00     0.158 C 
ATOM      6  C   UNL     1      -3.159   4.997   7.567  1.00  0.00    -0.003 C 
ATOM      7  C   UNL     1      -2.814   5.971   8.700  1.00  0.00     0.052 C 
ATOM      8  C   UNL     1      -3.452   3.612   8.161  1.00  0.00     0.019 C 
ATOM      9  C   UNL     1      -3.888   5.975   9.796  1.00  0.00     0.189 C 
ATOM     10  C   UNL     1      -4.503   3.689   9.268  1.00  0.00     0.087 C 
ATOM     11  N   UNL     1      -4.091   4.623  10.317  1.00  0.00    -0.276 NA
ATOM     12  O   UNL     1      -3.436   6.877  10.808  1.00  0.00    -0.360 OA
ATOM     13  C   UNL     1      -5.048   4.644  11.428  1.00  0.00     0.121 C 
ATOM     14  C   UNL     1      -4.327   6.957  11.925  1.00  0.00     0.195 C 
BRANCH   6  15
ATOM     15  C   UNL     1      -2.045   4.913   6.549  1.00  0.00    -0.008 C 
ATOM     16  C   UNL     1      -2.334   5.123   5.081  1.00  0.00     0.004 C 
ATOM     17  C   UNL     1      -1.548   6.151   5.842  1.00  0.00     0.004 C 
ENDBRANCH   6  15
ENDBRANCH   4   5
ENDBRANCH   1   4
BRANCH   3  18
ATOM     18  C   UNL     1      -2.359   4.051  16.699  1.00  0.00     0.053 C 
BRANCH  18  19
ATOM     19  C   UNL     1      -1.215   4.645  17.478  1.00  0.00     0.074 C 
BRANCH  19  20
ATOM     20  N   UNL     1      -1.167   5.843  17.959  1.00  0.00    -0.313 NA
ATOM     21  H   UNL     1      -2.016   6.071  18.496  1.00  0.00     0.186 HD
ENDBRANCH  19  20
ENDBRANCH  18  19
ENDBRANCH   3  18
TORSDOF 6
ENDMDL
MODEL 4
REMARK VINA RESULT:    -3.951      4.131      6.866
REMARK INTER + INTRA:          -5.431
REMARK INTER:                  -5.221
REMARK INTRA:                  -0.210
REMARK UNBOUND:                -0.209
REMARK SMILES [H]/N=C\C[C@H]1C[C@@H]1O[C@H]1CO[C@H]2C[C@@H](C3CC3)CCN2C1
REMARK SMILES IDX 7 1 6 2 5 3 8 4 9 5 14 6 13 7 18 8 12 9 19 10 20 11 11 12
REMARK SMILES IDX 21 13 10 14 15 15 16 16 17 17 4 18 3 19 2 20 1 21
REMARK H PARENT
ROOT
ATOM      1  C   UNL     1      -9.671  10.463  16.468  1.00  0.00     0.122 C 
ATOM      2  C   UNL     1     -10.773   9.592  15.933  1.00  0.00     0.039 C 
ATOM      3  C   UNL     1     -10.439   9.563  17.397  1.00  0.00     0.026 C 
ENDROOT
BRANCH   1   4
ATOM      4  O   UNL     1      -8.348  10.030  16.098  1.00  0.00    -0.371 OA
BRANCH   4   5
ATOM      5  C   UNL     1      -7.506  11.039  15.516  1.00  0.00     0.158 C 
ATOM      6  C   UNL     1      -5.271   8.145  11.797  1.00  0.00    -0.003 C 
ATOM      7  C   UNL     1      -5.168   8.241  13.324  1.00  0.00     0.052 C 
ATOM      8  C   UNL     1      -6.704   8.483  11.362  1.00  0.00     0.019 C 
ATOM      9  C   UNL     1      -5.678   9.591  13.846  1.00  0.00     0.189 C 
ATOM     10  C   UNL     1      -7.162   9.821  11.942  1.00  0.00     0.087 C 
ATOM     11  N   UNL     1      -7.052   9.825  13.401  1.00  0.00    -0.276 NA
ATOM     12  O   UNL     1      -5.577   9.544  15.270  1.00  0.00    -0.360 OA
ATOM     13  C   UNL     1      -7.570  11.070  13.979  1.00  0.00     0.121 C 
ATOM     14  C   UNL     1      -6.056  10.732  15.906  1.00  0.00     0.195 C 
BRANCH   6  15
ATOM     15  C   UNL     1      -4.875   6.773  11.300  1.00  0.00    -0.008 C 
ATOM     16  C   UNL     1      -3.422   6.438  11.059  1.00  0.00     0.004 C 
ATOM     17  C   UNL     1      -4.156   5.800  12.203  1.00  0.00     0.004 C 
ENDBRANCH   6  15
ENDBRANCH   4   5
ENDBRANCH   1   4
BRANCH   3  18
ATOM     18  C   UNL     1     -11.414  10.144  18.377  1.00  0.00     0.053 C 
BRANCH  18  19
ATOM     19  C   UNL     1     -12.007   9.184  19.375  1.00  0.00     0.074 C 
BRANCH  19  20
ATOM     20  N   UNL     1     -12.126   7.907  19.219  1.00  0.00    -0.313 NA
ATOM     21  H   UNL     1     -13.000   7.554  19.635  1.00  0.00     0.186 HD
ENDBRANCH  19  20
ENDBRANCH  18  19
ENDBRANCH   3  18
TORSDOF 6
ENDMDL
MODEL 5
REMARK VINA RESULT:    -3.872      4.060      6.953
REMARK INTER + INTRA:          -5.326
REMARK INTER:                  -4.834
REMARK INTRA:                  -0.492
REMARK UNBOUND:                -0.209
REMARK SMILES [H]/N=C\C[C@H]1C[C@@H]1O[C@H]1CO[C@H]2C[C@@H](C3CC3)CCN2C1
REMARK SMILES IDX 7 1 6 2 5 3 8 4 9 5 14 6 13 7 18 8 12 9 19 10 20 11 11 12
REMARK SMILES IDX 21 13 10 14 15 15 16 16 17 17 4 18 3 19 2 20 1 21
REMARK H PARENT
ROOT
ATOM      1  C   UNL     1      -8.115  10.475  17.427  1.00  0.00     0.122 C 
ATOM      2  C   UNL     1      -9.124   9.740  18.263  1.00  0.00     0.039 C 
ATOM      3  C   UNL     1      -7.802   9.100  17.950  1.00  0.00     0.026 C 
ENDROOT
BRANCH   1   4
ATOM      4  O   UNL     1      -8.465  10.570  16.033  1.00  0.00    -0.371 OA
BRANCH   4   5
ATOM      5  C   UNL     1      -7.721  11.535  15.272  1.00  0.00     0.158 C 
ATOM      6  C   UNL     1      -5.467   8.283  11.873  1.00  0.00    -0.003 C 
ATOM      7  C   UNL     1      -5.302   8.601  13.364  1.00  0.00     0.052 C 
ATOM      8  C   UNL     1      -6.938   8.468  11.475  1.00  0.00     0.019 C 
ATOM      9  C   UNL     1      -5.877   9.978  13.721  1.00  0.00     0.189 C 
ATOM     10  C   UNL     1      -7.459   9.845  11.888  1.00  0.00     0.087 C 
ATOM     11  N   UNL     1      -7.283  10.062  13.324  1.00  0.00    -0.276 NA
ATOM     12  O   UNL     1      -5.708  10.140  15.130  1.00  0.00    -0.360 OA
ATOM     13  C   UNL     1      -7.857  11.343  13.751  1.00  0.00     0.121 C 
ATOM     14  C   UNL     1      -6.237  11.375  15.620  1.00  0.00     0.195 C 
BRANCH   6  15
ATOM     15  C   UNL     1      -5.002   6.881  11.550  1.00  0.00    -0.008 C 
ATOM     16  C   UNL     1      -3.544   6.606  11.268  1.00  0.00     0.004 C 
ATOM     17  C   UNL     1      -4.169   6.096  12.534  1.00  0.00     0.004 C 
ENDBRANCH   6  15
ENDBRANCH   4   5
ENDBRANCH   1   4
BRANCH   3  18
ATOM     18  C   UNL     1      -6.802   8.921  19.053  1.00  0.00     0.053 C 
BRANCH  18  19
ATOM     19  C   UNL     1      -5.400   8.565  18.631  1.00  0.00     0.074 C 
BRANCH  19  20
ATOM     20  N   UNL     1      -4.846   8.877  17.507  1.00  0.00    -0.313 NA
ATOM     21  H   UNL     1      -5.464   8.674  16.709  1.00  0.00     0.186 HD
ENDBRANCH  19  20
ENDBRANCH  18  19
ENDBRANCH   3  18
TORSDOF 6
ENDMDL
MODEL 6
REMARK VINA RESULT:    -3.738      3.366      5.365
REMARK INTER + INTRA:          -5.149
REMARK INTER:                  -5.259
REMARK INTRA:                   0.111
REMARK UNBOUND:                -0.209
REMARK SMILES [H]/N=C\C[C@H]1C[C@@H]1O[C@H]1CO[C@H]2C[C@@H](C3CC3)CCN2C1
REMARK SMILES IDX 7 1 6 2 5 3 8 4 9 5 14 6 13 7 18 8 12 9 19 10 20 11 11 12
REMARK SMILES IDX 21 13 10 14 15 15 16 16 17 17 4 18 3 19 2 20 1 21
REMARK H PARENT
ROOT
ATOM      1  C   UNL     1      -3.554   4.493  14.131  1.00  0.00     0.122 C 
ATOM      2  C   UNL     1      -3.055   3.092  14.343  1.00  0.00     0.039 C 
ATOM      3  C   UNL     1      -2.529   4.211  15.196  1.00  0.00     0.026 C 
ENDROOT
BRANCH   1   4
ATOM      4  O   UNL     1      -3.073   5.111  12.922  1.00  0.00    -0.371 OA
BRANCH   4   5
ATOM      5  C   UNL     1      -4.000   5.992  12.266  1.00  0.00     0.158 C 
ATOM      6  C   UNL     1      -4.059   3.712   7.575  1.00  0.00    -0.003 C 
ATOM      7  C   UNL     1      -3.059   4.558   8.373  1.00  0.00     0.052 C 
ATOM      8  C   UNL     1      -4.892   2.863   8.546  1.00  0.00     0.019 C 
ATOM      9  C   UNL     1      -3.751   5.368   9.477  1.00  0.00     0.189 C 
ATOM     10  C   UNL     1      -5.525   3.723   9.639  1.00  0.00     0.087 C 
ATOM     11  N   UNL     1      -4.506   4.482  10.363  1.00  0.00    -0.276 NA
ATOM     12  O   UNL     1      -2.721   6.072  10.174  1.00  0.00    -0.360 OA
ATOM     13  C   UNL     1      -5.088   5.246  11.473  1.00  0.00     0.121 C 
ATOM     14  C   UNL     1      -3.216   6.850  11.268  1.00  0.00     0.195 C 
BRANCH   6  15
ATOM     15  C   UNL     1      -3.360   2.831   6.565  1.00  0.00    -0.008 C 
ATOM     16  C   UNL     1      -2.461   3.439   5.514  1.00  0.00     0.004 C 
ATOM     17  C   UNL     1      -1.866   2.622   6.624  1.00  0.00     0.004 C 
ENDBRANCH   6  15
ENDBRANCH   4   5
ENDBRANCH   1   4
BRANCH   3  18
ATOM     18  C   UNL     1      -2.912   4.261  16.645  1.00  0.00     0.053 C 
BRANCH  18  19
ATOM     19  C   UNL     1      -1.873   3.783  17.625  1.00  0.00     0.074 C 
BRANCH  19  20
ATOM     20  N   UNL     1      -2.107   3.178  18.743  1.00  0.00    -0.313 NA
ATOM     21  H   UNL     1      -3.113   3.004  18.876  1.00  0.00     0.186 HD
ENDBRANCH  19  20
ENDBRANCH  18  19
ENDBRANCH   3  18
TORSDOF 6
ENDMDL
MODEL 7
REMARK VINA RESULT:    -3.379      7.196     10.256
REMARK INTER + INTRA:          -4.675
REMARK INTER:                  -4.438
REMARK INTRA:                  -0.237
REMARK UNBOUND:                -0.209
REMARK SMILES [H]/N=C\C[C@H]1C[C@@H]1O[C@H]1CO[C@H]2C[C@@H](C3CC3)CCN2C1
REMARK SMILES IDX 7 1 6 2 5 3 8 4 9 5 14 6 13 7 18 8 12 9 19 10 20 11 11 12
REMARK SMILES IDX 21 13 10 14 15 15 16 16 17 17 4 18 3 19 2 20 1 21
REMARK H PARENT
ROOT
ATOM      1  C   UNL     1      -5.737   6.506  17.611  1.00  0.00     0.122 C 
ATOM      2  C   UNL     1      -6.395   5.178  17.361  1.00  0.00     0.039 C 
ATOM      3  C   UNL     1      -4.918   5.336  17.139  1.00  0.00     0.026 C 
ENDROOT
BRANCH   1   4
ATOM      4  O   UNL     1      -6.051   7.512  16.629  1.00  0.00    -0.371 OA
BRANCH   4   5
ATOM      5  C   UNL     1      -5.913   8.872  17.070  1.00  0.00     0.158 C 
ATOM      6  C   UNL     1     -10.446  10.736  15.286  1.00  0.00    -0.003 C 
ATOM      7  C   UNL     1      -9.121  10.286  14.659  1.00  0.00     0.052 C 
ATOM      8  C   UNL     1     -10.719   9.904  16.547  1.00  0.00     0.019 C 
ATOM      9  C   UNL     1      -7.974  10.303  15.679  1.00  0.00     0.189 C 
ATOM     10  C   UNL     1      -9.527   9.934  17.504  1.00  0.00     0.087 C 
ATOM     11  N   UNL     1      -8.309   9.475  16.837  1.00  0.00    -0.276 NA
ATOM     12  O   UNL     1      -6.813   9.825  14.996  1.00  0.00    -0.360 OA
ATOM     13  C   UNL     1      -7.174   9.415  17.765  1.00  0.00     0.121 C 
ATOM     14  C   UNL     1      -5.659   9.748  15.839  1.00  0.00     0.195 C 
BRANCH   6  15
ATOM     15  C   UNL     1     -11.593  10.609  14.309  1.00  0.00    -0.008 C 
ATOM     16  C   UNL     1     -12.457  11.805  13.985  1.00  0.00     0.004 C 
ATOM     17  C   UNL     1     -11.524  11.254  12.946  1.00  0.00     0.004 C 
ENDBRANCH   6  15
ENDBRANCH   4   5
ENDBRANCH   1   4
BRANCH   3  18
ATOM     18  C   UNL     1      -3.966   4.653  18.074  1.00  0.00     0.053 C 
BRANCH  18  19
ATOM     19  C   UNL     1      -2.696   4.121  17.461  1.00  0.00     0.074 C 
BRANCH  19  20
ATOM     20  N   UNL     1      -1.918   3.233  17.984  1.00  0.00    -0.313 NA
ATOM     21  H   UNL     1      -1.870   3.325  19.008  1.00  0.00     0.186 HD
ENDBRANCH  19  20
ENDBRANCH  18  19
ENDBRANCH   3  18
TORSDOF 6
ENDMDL
MODEL 8
REMARK VINA RESULT:    -3.335      3.622      8.740
REMARK INTER + INTRA:          -4.617
REMARK INTER:                  -4.535
REMARK INTRA:                  -0.083
REMARK UNBOUND:                -0.209
REMARK SMILES [H]/N=C\C[C@H]1C[C@@H]1O[C@H]1CO[C@H]2C[C@@H](C3CC3)CCN2C1
REMARK SMILES IDX 7 1 6 2 5 3 8 4 9 5 14 6 13 7 18 8 12 9 19 10 20 11 11 12
REMARK SMILES IDX 21 13 10 14 15 15 16 16 17 17 4 18 3 19 2 20 1 21
REMARK H PARENT
ROOT
ATOM      1  C   UNL     1      -4.815   5.982  11.975  1.00  0.00     0.122 C 
ATOM      2  C   UNL     1      -3.355   6.324  11.877  1.00  0.00     0.039 C 
ATOM      3  C   UNL     1      -3.850   5.470  13.009  1.00  0.00     0.026 C 
ENDROOT
BRANCH   1   4
ATOM      4  O   UNL     1      -5.652   7.088  12.366  1.00  0.00    -0.371 OA
BRANCH   4   5
ATOM      5  C   UNL     1      -5.212   8.383  11.928  1.00  0.00     0.158 C 
ATOM      6  C   UNL     1      -9.276  11.196  13.596  1.00  0.00    -0.003 C 
ATOM      7  C   UNL     1      -9.027  10.186  12.468  1.00  0.00     0.052 C 
ATOM      8  C   UNL     1      -8.399  10.834  14.803  1.00  0.00     0.019 C 
ATOM      9  C   UNL     1      -7.534  10.054  12.140  1.00  0.00     0.189 C 
ATOM     10  C   UNL     1      -6.932  10.683  14.403  1.00  0.00     0.087 C 
ATOM     11  N   UNL     1      -6.778   9.691  13.339  1.00  0.00    -0.276 NA
ATOM     12  O   UNL     1      -7.427   9.061  11.118  1.00  0.00    -0.360 OA
ATOM     13  C   UNL     1      -5.367   9.472  13.004  1.00  0.00     0.121 C 
ATOM     14  C   UNL     1      -6.074   8.800  10.731  1.00  0.00     0.195 C 
BRANCH   6  15
ATOM     15  C   UNL     1     -10.734  11.238  13.992  1.00  0.00    -0.008 C 
ATOM     16  C   UNL     1     -11.542  12.500  13.799  1.00  0.00     0.004 C 
ATOM     17  C   UNL     1     -11.819  11.298  12.944  1.00  0.00     0.004 C 
ENDBRANCH   6  15
ENDBRANCH   4   5
ENDBRANCH   1   4
BRANCH   3  18
ATOM     18  C   UNL     1      -3.476   4.018  13.041  1.00  0.00     0.053 C 
BRANCH  18  19
ATOM     19  C   UNL     1      -2.880   3.512  14.328  1.00  0.00     0.074 C 
BRANCH  19  20
ATOM     20  N   UNL     1      -2.185   4.207  15.166  1.00  0.00    -0.313 NA
ATOM     21  H   UNL     1      -2.662   5.084  15.419  1.00  0.00     0.186 HD
ENDBRANCH  19  20
ENDBRANCH  18  19
ENDBRANCH   3  18
TORSDOF 6
ENDMDL
MODEL 9
REMARK VINA RESULT:    -3.286      7.431     10.236
REMARK INTER + INTRA:          -4.551
REMARK INTER:                  -4.307
REMARK INTRA:                  -0.245
REMARK UNBOUND:                -0.209
REMARK SMILES [H]/N=C\C[C@H]1C[C@@H]1O[C@H]1CO[C@H]2C[C@@H](C3CC3)CCN2C1
REMARK SMILES IDX 7 1 6 2 5 3 8 4 9 5 14 6 13 7 18 8 12 9 19 10 20 11 11 12
REMARK SMILES IDX 21 13 10 14 15 15 16 16 17 17 4 18 3 19 2 20 1 21
REMARK H PARENT
ROOT
ATOM      1  C   UNL     1      -5.986   6.594  17.071  1.00  0.00     0.122 C 
ATOM      2  C   UNL     1      -5.331   6.333  18.399  1.00  0.00     0.039 C 
ATOM      3  C   UNL     1      -6.546   5.548  17.995  1.00  0.00     0.026 C 
ENDROOT
BRANCH   1   4
ATOM      4  O   UNL     1      -6.699   7.844  17.004  1.00  0.00    -0.371 OA
BRANCH   4   5
ATOM      5  C   UNL     1      -5.884   9.026  17.067  1.00  0.00     0.158 C 
ATOM      6  C   UNL     1      -9.229  12.396  14.907  1.00  0.00    -0.003 C 
ATOM      7  C   UNL     1      -8.365  11.232  14.406  1.00  0.00     0.052 C 
ATOM      8  C   UNL     1      -9.679  12.111  16.346  1.00  0.00     0.019 C 
ATOM      9  C   UNL     1      -7.213  10.920  15.371  1.00  0.00     0.189 C 
ATOM     10  C   UNL     1      -8.490  11.774  17.247  1.00  0.00     0.087 C 
ATOM     11  N   UNL     1      -7.731  10.644  16.711  1.00  0.00    -0.276 NA
ATOM     12  O   UNL     1      -6.515   9.799  14.825  1.00  0.00    -0.360 OA
ATOM     13  C   UNL     1      -6.638  10.253  17.609  1.00  0.00     0.121 C 
ATOM     14  C   UNL     1      -5.426   9.365  15.645  1.00  0.00     0.195 C 
BRANCH   6  15
ATOM     15  C   UNL     1     -10.426  12.624  14.012  1.00  0.00    -0.008 C 
ATOM     16  C   UNL     1     -10.669  13.980  13.393  1.00  0.00     0.004 C 
ATOM     17  C   UNL     1     -10.253  12.828  12.526  1.00  0.00     0.004 C 
ENDBRANCH   6  15
ENDBRANCH   4   5
ENDBRANCH   1   4
BRANCH   3  18
ATOM     18  C   UNL     1      -6.395   4.092  17.669  1.00  0.00     0.053 C 
BRANCH  18  19
ATOM     19  C   UNL     1      -7.474   3.178  18.187  1.00  0.00     0.074 C 
BRANCH  19  20
ATOM     20  N   UNL     1      -8.140   2.320  17.489  1.00  0.00    -0.313 NA
ATOM     21  H   UNL     1      -8.851   2.779  16.902  1.00  0.00     0.186 HD
ENDBRANCH  19  20
ENDBRANCH  18  19
ENDBRANCH   3  18
TORSDOF 6
ENDMDL
