MODEL 1
REMARK VINA RESULT:    -3.969      0.000      0.000
REMARK INTER + INTRA:          -5.772
REMARK INTER:                  -5.246
REMARK INTRA:                  -0.526
REMARK UNBOUND:                -0.526
REMARK SMILES [H]/N=C\C[C@H]1C[C@@H]1O[C@H]1CO[C@H]2C[C@@H](C3CC3)CCN2C1
REMARK SMILES IDX 7 1 6 2 5 3 8 4 9 5 14 6 13 7 18 8 12 9 19 10 20 11 11 12
REMARK SMILES IDX 21 13 10 14 15 15 16 16 17 17 4 18 3 19 2 20 1 21
REMARK H PARENT
ROOT
ATOM      1  C   UNL     1       8.050  17.372  -7.388  1.00  0.00     0.122 C 
ATOM      2  C   UNL     1       7.276  17.565  -8.661  1.00  0.00     0.039 C 
ATOM      3  C   UNL     1       6.724  16.686  -7.575  1.00  0.00     0.026 C 
ENDROOT
BRANCH   1   4
ATOM      4  O   UNL     1       9.226  16.553  -7.535  1.00  0.00    -0.371 OA
BRANCH   4   5
ATOM      5  C   UNL     1      10.054  16.443  -6.366  1.00  0.00     0.158 C 
ATOM      6  C   UNL     1       8.443  11.770  -4.701  1.00  0.00    -0.003 C 
ATOM      7  C   UNL     1       7.849  13.183  -4.751  1.00  0.00     0.052 C 
ATOM      8  C   UNL     1       9.375  11.569  -5.905  1.00  0.00     0.019 C 
ATOM      9  C   UNL     1       8.939  14.255  -4.884  1.00  0.00     0.189 C 
ATOM     10  C   UNL     1      10.413  12.686  -6.000  1.00  0.00     0.087 C 
ATOM     11  N   UNL     1       9.768  13.997  -6.062  1.00  0.00    -0.276 NA
ATOM     12  O   UNL     1       8.267  15.513  -4.966  1.00  0.00    -0.360 OA
ATOM     13  C   UNL     1      10.747  15.074  -6.241  1.00  0.00     0.121 C 
ATOM     14  C   UNL     1       9.163  16.617  -5.132  1.00  0.00     0.195 C 
BRANCH   6  15
ATOM     15  C   UNL     1       7.361  10.714  -4.685  1.00  0.00    -0.008 C 
ATOM     16  C   UNL     1       7.152   9.853  -3.462  1.00  0.00     0.004 C 
ATOM     17  C   UNL     1       6.126  10.884  -3.834  1.00  0.00     0.004 C 
ENDBRANCH   6  15
ENDBRANCH   4   5
ENDBRANCH   1   4
BRANCH   3  18
ATOM     18  C   UNL     1       5.521  17.147  -6.809  1.00  0.00     0.053 C 
BRANCH  18  19
ATOM     19  C   UNL     1       5.003  16.205  -5.753  1.00  0.00     0.074 C 
BRANCH  19  20
ATOM     20  N   UNL     1       5.472  16.076  -4.557  1.00  0.00    -0.313 NA
ATOM     21  H   UNL     1       6.498  15.981  -4.560  1.00  0.00     0.186 HD
ENDBRANCH  19  20
ENDBRANCH  18  19
ENDBRANCH   3  18
TORSDOF 6
ENDMDL
MODEL 2
REMARK VINA RESULT:    -3.864      6.946      8.468
REMARK INTER + INTRA:          -5.632
REMARK INTER:                  -5.406
REMARK INTRA:                  -0.226
REMARK UNBOUND:                -0.526
REMARK SMILES [H]/N=C\C[C@H]1C[C@@H]1O[C@H]1CO[C@H]2C[C@@H](C3CC3)CCN2C1
REMARK SMILES IDX 7 1 6 2 5 3 8 4 9 5 14 6 13 7 18 8 12 9 19 10 20 11 11 12
REMARK SMILES IDX 21 13 10 14 15 15 16 16 17 17 4 18 3 19 2 20 1 21
REMARK H PARENT
ROOT
ATOM      1  C   UNL     1       1.524  12.112  -4.155  1.00  0.00     0.122 C 
ATOM      2  C   UNL     1       1.480  13.007  -5.361  1.00  0.00     0.039 C 
ATOM      3  C   UNL     1       0.242  12.800  -4.536  1.00  0.00     0.026 C 
ENDROOT
BRANCH   1   4
ATOM      4  O   UNL     1       1.620  10.709  -4.468  1.00  0.00    -0.371 OA
BRANCH   4   5
ATOM      5  C   UNL     1       2.891  10.274  -4.977  1.00  0.00     0.158 C 
ATOM      6  C   UNL     1       3.307   5.803  -2.322  1.00  0.00    -0.003 C 
ATOM      7  C   UNL     1       3.400   7.296  -1.982  1.00  0.00     0.052 C 
ATOM      8  C   UNL     1       2.301   5.605  -3.464  1.00  0.00     0.019 C 
ATOM      9  C   UNL     1       3.690   8.147  -3.225  1.00  0.00     0.189 C 
ATOM     10  C   UNL     1       2.625   6.505  -4.657  1.00  0.00     0.087 C 
ATOM     11  N   UNL     1       2.676   7.910  -4.253  1.00  0.00    -0.276 NA
ATOM     12  O   UNL     1       3.707   9.509  -2.793  1.00  0.00    -0.360 OA
ATOM     13  C   UNL     1       2.900   8.795  -5.402  1.00  0.00     0.121 C 
ATOM     14  C   UNL     1       3.930  10.433  -3.862  1.00  0.00     0.195 C 
BRANCH   6  15
ATOM     15  C   UNL     1       2.910   4.983  -1.116  1.00  0.00    -0.008 C 
ATOM     16  C   UNL     1       3.665   3.721  -0.768  1.00  0.00     0.004 C 
ATOM     17  C   UNL     1       3.790   4.933   0.110  1.00  0.00     0.004 C 
ENDBRANCH   6  15
ENDBRANCH   4   5
ENDBRANCH   1   4
BRANCH   3  18
ATOM     18  C   UNL     1      -0.279  13.938  -3.710  1.00  0.00     0.053 C 
BRANCH  18  19
ATOM     19  C   UNL     1      -0.588  15.213  -4.452  1.00  0.00     0.074 C 
BRANCH  19  20
ATOM     20  N   UNL     1      -1.721  15.520  -4.992  1.00  0.00    -0.313 NA
ATOM     21  H   UNL     1      -2.192  14.691  -5.382  1.00  0.00     0.186 HD
ENDBRANCH  19  20
ENDBRANCH  18  19
ENDBRANCH   3  18
TORSDOF 6
ENDMDL
MODEL 3
REMARK VINA RESULT:    -3.839      1.030      1.291
REMARK INTER + INTRA:          -5.600
REMARK INTER:                  -4.993
REMARK INTRA:                  -0.606
REMARK UNBOUND:                -0.526
REMARK SMILES [H]/N=C\C[C@H]1C[C@@H]1O[C@H]1CO[C@H]2C[C@@H](C3CC3)CCN2C1
REMARK SMILES IDX 7 1 6 2 5 3 8 4 9 5 14 6 13 7 18 8 12 9 19 10 20 11 11 12
REMARK SMILES IDX 21 13 10 14 15 15 16 16 17 17 4 18 3 19 2 20 1 21
REMARK H PARENT
ROOT
ATOM      1  C   UNL     1       8.126  16.982  -6.670  1.00  0.00     0.122 C 
ATOM      2  C   UNL     1       7.790  17.527  -8.029  1.00  0.00     0.039 C 
ATOM      3  C   UNL     1       6.762  16.750  -7.259  1.00  0.00     0.026 C 
ENDROOT
BRANCH   1   4
ATOM      4  O   UNL     1       9.037  15.867  -6.693  1.00  0.00    -0.371 OA
BRANCH   4   5
ATOM      5  C   UNL     1       9.695  15.578  -5.448  1.00  0.00     0.158 C 
ATOM      6  C   UNL     1       7.056  11.270  -4.151  1.00  0.00    -0.003 C 
ATOM      7  C   UNL     1       6.748  12.771  -4.207  1.00  0.00     0.052 C 
ATOM      8  C   UNL     1       8.061  10.917  -5.257  1.00  0.00     0.019 C 
ATOM      9  C   UNL     1       8.029  13.617  -4.181  1.00  0.00     0.189 C 
ATOM     10  C   UNL     1       9.295  11.816  -5.197  1.00  0.00     0.087 C 
ATOM     11  N   UNL     1       8.920  13.227  -5.274  1.00  0.00    -0.276 NA
ATOM     12  O   UNL     1       7.620  14.982  -4.283  1.00  0.00    -0.360 OA
ATOM     13  C   UNL     1      10.099  14.100  -5.305  1.00  0.00     0.121 C 
ATOM     14  C   UNL     1       8.720  15.896  -4.310  1.00  0.00     0.195 C 
BRANCH   6  15
ATOM     15  C   UNL     1       5.799  10.441  -4.292  1.00  0.00    -0.008 C 
ATOM     16  C   UNL     1       4.987  10.072  -3.073  1.00  0.00     0.004 C 
ATOM     17  C   UNL     1       4.438  11.054  -4.067  1.00  0.00     0.004 C 
ENDBRANCH   6  15
ENDBRANCH   4   5
ENDBRANCH   1   4
BRANCH   3  18
ATOM     18  C   UNL     1       5.568  17.471  -6.708  1.00  0.00     0.053 C 
BRANCH  18  19
ATOM     19  C   UNL     1       4.742  16.718  -5.698  1.00  0.00     0.074 C 
BRANCH  19  20
ATOM     20  N   UNL     1       5.150  16.301  -4.545  1.00  0.00    -0.313 NA
ATOM     21  H   UNL     1       5.572  17.062  -3.994  1.00  0.00     0.186 HD
ENDBRANCH  19  20
ENDBRANCH  18  19
ENDBRANCH   3  18
TORSDOF 6
ENDMDL
MODEL 4
REMARK VINA RESULT:    -3.837      5.491      8.495
REMARK INTER + INTRA:          -5.597
REMARK INTER:                  -5.363
REMARK INTRA:                  -0.234
REMARK UNBOUND:                -0.526
REMARK SMILES [H]/N=C\C[C@H]1C[C@@H]1O[C@H]1CO[C@H]2C[C@@H](C3CC3)CCN2C1
REMARK SMILES IDX 7 1 6 2 5 3 8 4 9 5 14 6 13 7 18 8 12 9 19 10 20 11 11 12
REMARK SMILES IDX 21 13 10 14 15 15 16 16 17 17 4 18 3 19 2 20 1 21
REMARK H PARENT
ROOT
ATOM      1  C   UNL     1       6.210  10.756  -4.509  1.00  0.00     0.122 C 
ATOM      2  C   UNL     1       6.846  11.990  -3.934  1.00  0.00     0.039 C 
ATOM      3  C   UNL     1       7.706  10.837  -4.365  1.00  0.00     0.026 C 
ENDROOT
BRANCH   1   4
ATOM      4  O   UNL     1       5.512   9.950  -3.541  1.00  0.00    -0.371 OA
BRANCH   4   5
ATOM      5  C   UNL     1       4.274  10.496  -3.058  1.00  0.00     0.158 C 
ATOM      6  C   UNL     1       1.496   6.085  -2.866  1.00  0.00    -0.003 C 
ATOM      7  C   UNL     1       2.034   6.997  -3.976  1.00  0.00     0.052 C 
ATOM      8  C   UNL     1       2.466   6.108  -1.676  1.00  0.00     0.019 C 
ATOM      9  C   UNL     1       2.350   8.405  -3.453  1.00  0.00     0.189 C 
ATOM     10  C   UNL     1       2.765   7.538  -1.227  1.00  0.00     0.087 C 
ATOM     11  N   UNL     1       3.291   8.335  -2.335  1.00  0.00    -0.276 NA
ATOM     12  O   UNL     1       2.882   9.140  -4.557  1.00  0.00    -0.360 OA
ATOM     13  C   UNL     1       3.665   9.685  -1.900  1.00  0.00     0.121 C 
ATOM     14  C   UNL     1       3.263  10.475  -4.209  1.00  0.00     0.195 C 
BRANCH   6  15
ATOM     15  C   UNL     1       1.295   4.670  -3.359  1.00  0.00    -0.008 C 
ATOM     16  C   UNL     1      -0.008   3.950  -3.103  1.00  0.00     0.004 C 
ATOM     17  C   UNL     1       0.348   4.375  -4.498  1.00  0.00     0.004 C 
ENDBRANCH   6  15
ENDBRANCH   4   5
ENDBRANCH   1   4
BRANCH   3  18
ATOM     18  C   UNL     1       8.574  10.992  -5.577  1.00  0.00     0.053 C 
BRANCH  18  19
ATOM     19  C   UNL     1       9.518  12.166  -5.575  1.00  0.00     0.074 C 
BRANCH  19  20
ATOM     20  N   UNL     1      10.763  12.137  -5.234  1.00  0.00    -0.313 NA
ATOM     21  H   UNL     1      10.888  11.746  -4.289  1.00  0.00     0.186 HD
ENDBRANCH  19  20
ENDBRANCH  18  19
ENDBRANCH   3  18
TORSDOF 6
ENDMDL
MODEL 5
REMARK VINA RESULT:    -3.804      3.707      6.847
REMARK INTER + INTRA:          -5.552
REMARK INTER:                  -5.328
REMARK INTRA:                  -0.225
REMARK UNBOUND:                -0.526
REMARK SMILES [H]/N=C\C[C@H]1C[C@@H]1O[C@H]1CO[C@H]2C[C@@H](C3CC3)CCN2C1
REMARK SMILES IDX 7 1 6 2 5 3 8 4 9 5 14 6 13 7 18 8 12 9 19 10 20 11 11 12
REMARK SMILES IDX 21 13 10 14 15 15 16 16 17 17 4 18 3 19 2 20 1 21
REMARK H PARENT
ROOT
ATOM      1  C   UNL     1       4.065   9.967  -4.052  1.00  0.00     0.122 C 
ATOM      2  C   UNL     1       2.710  10.385  -4.548  1.00  0.00     0.039 C 
ATOM      3  C   UNL     1       3.371   9.161  -5.115  1.00  0.00     0.026 C 
ENDROOT
BRANCH   1   4
ATOM      4  O   UNL     1       5.140  10.821  -4.489  1.00  0.00    -0.371 OA
BRANCH   4   5
ATOM      5  C   UNL     1       6.198  11.022  -3.537  1.00  0.00     0.158 C 
ATOM      6  C   UNL     1       9.764  13.062  -6.750  1.00  0.00    -0.003 C 
ATOM      7  C   UNL     1       9.157  11.672  -6.524  1.00  0.00     0.052 C 
ATOM      8  C   UNL     1       8.707  14.133  -6.445  1.00  0.00     0.019 C 
ATOM      9  C   UNL     1       8.524  11.547  -5.131  1.00  0.00     0.189 C 
ATOM     10  C   UNL     1       8.092  13.932  -5.060  1.00  0.00     0.087 C 
ATOM     11  N   UNL     1       7.520  12.592  -4.931  1.00  0.00    -0.276 NA
ATOM     12  O   UNL     1       7.957  10.237  -5.056  1.00  0.00    -0.360 OA
ATOM     13  C   UNL     1       6.849  12.412  -3.639  1.00  0.00     0.121 C 
ATOM     14  C   UNL     1       7.291   9.985  -3.815  1.00  0.00     0.195 C 
BRANCH   6  15
ATOM     15  C   UNL     1      10.284  13.217  -8.161  1.00  0.00    -0.008 C 
ATOM     16  C   UNL     1      11.570  13.965  -8.424  1.00  0.00     0.004 C 
ATOM     17  C   UNL     1      11.518  12.477  -8.617  1.00  0.00     0.004 C 
ENDBRANCH   6  15
ENDBRANCH   4   5
ENDBRANCH   1   4
BRANCH   3  18
ATOM     18  C   UNL     1       2.802   7.812  -4.791  1.00  0.00     0.053 C 
BRANCH  18  19
ATOM     19  C   UNL     1       2.766   6.815  -5.920  1.00  0.00     0.074 C 
BRANCH  19  20
ATOM     20  N   UNL     1       2.683   7.098  -7.177  1.00  0.00    -0.313 NA
ATOM     21  H   UNL     1       1.739   7.424  -7.432  1.00  0.00     0.186 HD
ENDBRANCH  19  20
ENDBRANCH  18  19
ENDBRANCH   3  18
TORSDOF 6
ENDMDL
MODEL 6
REMARK VINA RESULT:    -3.559      3.079      5.298
REMARK INTER + INTRA:          -5.230
REMARK INTER:                  -5.069
REMARK INTRA:                  -0.160
REMARK UNBOUND:                -0.526
REMARK SMILES [H]/N=C\C[C@H]1C[C@@H]1O[C@H]1CO[C@H]2C[C@@H](C3CC3)CCN2C1
REMARK SMILES IDX 7 1 6 2 5 3 8 4 9 5 14 6 13 7 18 8 12 9 19 10 20 11 11 12
REMARK SMILES IDX 21 13 10 14 15 15 16 16 17 17 4 18 3 19 2 20 1 21
REMARK H PARENT
ROOT
ATOM      1  C   UNL     1       3.139  15.696  -6.646  1.00  0.00     0.122 C 
ATOM      2  C   UNL     1       2.378  14.978  -7.724  1.00  0.00     0.039 C 
ATOM      3  C   UNL     1       2.146  14.626  -6.282  1.00  0.00     0.026 C 
ENDROOT
BRANCH   1   4
ATOM      4  O   UNL     1       4.532  15.335  -6.570  1.00  0.00    -0.371 OA
BRANCH   4   5
ATOM      5  C   UNL     1       5.360  16.219  -5.797  1.00  0.00     0.158 C 
ATOM      6  C   UNL     1       9.859  15.498  -8.334  1.00  0.00    -0.003 C 
ATOM      7  C   UNL     1       8.994  14.671  -7.375  1.00  0.00     0.052 C 
ATOM      8  C   UNL     1       8.953  16.399  -9.185  1.00  0.00     0.019 C 
ATOM      9  C   UNL     1       8.045  15.556  -6.556  1.00  0.00     0.189 C 
ATOM     10  C   UNL     1       8.011  17.227  -8.313  1.00  0.00     0.087 C 
ATOM     11  N   UNL     1       7.210  16.366  -7.443  1.00  0.00    -0.276 NA
ATOM     12  O   UNL     1       7.267  14.677  -5.742  1.00  0.00    -0.360 OA
ATOM     13  C   UNL     1       6.238  17.139  -6.662  1.00  0.00     0.121 C 
ATOM     14  C   UNL     1       6.300  15.363  -4.941  1.00  0.00     0.195 C 
BRANCH   6  15
ATOM     15  C   UNL     1      10.709  14.614  -9.218  1.00  0.00    -0.008 C 
ATOM     16  C   UNL     1      12.137  14.300  -8.837  1.00  0.00     0.004 C 
ATOM     17  C   UNL     1      11.095  13.222  -8.778  1.00  0.00     0.004 C 
ENDBRANCH   6  15
ENDBRANCH   4   5
ENDBRANCH   1   4
BRANCH   3  18
ATOM     18  C   UNL     1       0.839  14.993  -5.646  1.00  0.00     0.053 C 
BRANCH  18  19
ATOM     19  C   UNL     1       0.299  14.024  -4.627  1.00  0.00     0.074 C 
BRANCH  19  20
ATOM     20  N   UNL     1       0.522  12.752  -4.598  1.00  0.00    -0.313 NA
ATOM     21  H   UNL     1       1.527  12.542  -4.672  1.00  0.00     0.186 HD
ENDBRANCH  19  20
ENDBRANCH  18  19
ENDBRANCH   3  18
TORSDOF 6
ENDMDL
MODEL 7
REMARK VINA RESULT:    -3.447      2.630      4.603
REMARK INTER + INTRA:          -5.082
REMARK INTER:                  -4.757
REMARK INTRA:                  -0.324
REMARK UNBOUND:                -0.526
REMARK SMILES [H]/N=C\C[C@H]1C[C@@H]1O[C@H]1CO[C@H]2C[C@@H](C3CC3)CCN2C1
REMARK SMILES IDX 7 1 6 2 5 3 8 4 9 5 14 6 13 7 18 8 12 9 19 10 20 11 11 12
REMARK SMILES IDX 21 13 10 14 15 15 16 16 17 17 4 18 3 19 2 20 1 21
REMARK H PARENT
ROOT
ATOM      1  C   UNL     1       9.512  13.150  -7.503  1.00  0.00     0.122 C 
ATOM      2  C   UNL     1       9.083  12.679  -8.864  1.00  0.00     0.039 C 
ATOM      3  C   UNL     1      10.249  13.615  -8.729  1.00  0.00     0.026 C 
ENDROOT
BRANCH   1   4
ATOM      4  O   UNL     1       8.609  14.094  -6.897  1.00  0.00    -0.371 OA
BRANCH   4   5
ATOM      5  C   UNL     1       8.799  14.317  -5.490  1.00  0.00     0.158 C 
ATOM      6  C   UNL     1       5.509  10.700  -3.674  1.00  0.00    -0.003 C 
ATOM      7  C   UNL     1       5.371  12.059  -4.372  1.00  0.00     0.052 C 
ATOM      8  C   UNL     1       6.782  10.001  -4.170  1.00  0.00     0.019 C 
ATOM      9  C   UNL     1       6.644  12.904  -4.230  1.00  0.00     0.189 C 
ATOM     10  C   UNL     1       8.006  10.907  -4.033  1.00  0.00     0.087 C 
ATOM     11  N   UNL     1       7.803  12.172  -4.741  1.00  0.00    -0.276 NA
ATOM     12  O   UNL     1       6.413  14.115  -4.953  1.00  0.00    -0.360 OA
ATOM     13  C   UNL     1       9.001  13.017  -4.692  1.00  0.00     0.121 C 
ATOM     14  C   UNL     1       7.540  14.997  -4.942  1.00  0.00     0.195 C 
BRANCH   6  15
ATOM     15  C   UNL     1       4.297   9.828  -3.913  1.00  0.00    -0.008 C 
ATOM     16  C   UNL     1       3.388   9.451  -2.767  1.00  0.00     0.004 C 
ATOM     17  C   UNL     1       2.903  10.399  -3.825  1.00  0.00     0.004 C 
ENDBRANCH   6  15
ENDBRANCH   4   5
ENDBRANCH   1   4
BRANCH   3  18
ATOM     18  C   UNL     1      11.629  13.104  -9.021  1.00  0.00     0.053 C 
BRANCH  18  19
ATOM     19  C   UNL     1      12.268  13.601 -10.292  1.00  0.00     0.074 C 
BRANCH  19  20
ATOM     20  N   UNL     1      12.008  14.719 -10.884  1.00  0.00    -0.313 NA
ATOM     21  H   UNL     1      11.135  15.139 -10.535  1.00  0.00     0.186 HD
ENDBRANCH  19  20
ENDBRANCH  18  19
ENDBRANCH   3  18
TORSDOF 6
ENDMDL
MODEL 8
REMARK VINA RESULT:    -3.370      2.158      3.390
REMARK INTER + INTRA:          -4.979
REMARK INTER:                  -4.779
REMARK INTRA:                  -0.200
REMARK UNBOUND:                -0.526
REMARK SMILES [H]/N=C\C[C@H]1C[C@@H]1O[C@H]1CO[C@H]2C[C@@H](C3CC3)CCN2C1
REMARK SMILES IDX 7 1 6 2 5 3 8 4 9 5 14 6 13 7 18 8 12 9 19 10 20 11 11 12
REMARK SMILES IDX 21 13 10 14 15 15 16 16 17 17 4 18 3 19 2 20 1 21
REMARK H PARENT
ROOT
ATOM      1  C   UNL     1      10.297  15.465  -8.975  1.00  0.00     0.122 C 
ATOM      2  C   UNL     1       9.869  16.311 -10.142  1.00  0.00     0.039 C 
ATOM      3  C   UNL     1       8.888  15.987  -9.052  1.00  0.00     0.026 C 
ENDROOT
BRANCH   1   4
ATOM      4  O   UNL     1      10.487  14.074  -9.298  1.00  0.00    -0.371 OA
BRANCH   4   5
ATOM      5  C   UNL     1      11.370  13.351  -8.424  1.00  0.00     0.158 C 
ATOM      6  C   UNL     1       8.760  14.005  -3.956  1.00  0.00    -0.003 C 
ATOM      7  C   UNL     1       9.603  14.897  -4.877  1.00  0.00     0.052 C 
ATOM      8  C   UNL     1       8.034  12.948  -4.800  1.00  0.00     0.019 C 
ATOM      9  C   UNL     1      10.530  14.071  -5.778  1.00  0.00     0.189 C 
ATOM     10  C   UNL     1       9.008  12.185  -5.698  1.00  0.00     0.087 C 
ATOM     11  N   UNL     1       9.757  13.103  -6.556  1.00  0.00    -0.276 NA
ATOM     12  O   UNL     1      11.223  15.000  -6.614  1.00  0.00    -0.360 OA
ATOM     13  C   UNL     1      10.633  12.380  -7.485  1.00  0.00     0.121 C 
ATOM     14  C   UNL     1      12.106  14.367  -7.544  1.00  0.00     0.195 C 
BRANCH   6  15
ATOM     15  C   UNL     1       7.769  14.817  -3.154  1.00  0.00    -0.008 C 
ATOM     16  C   UNL     1       8.029  15.117  -1.696  1.00  0.00     0.004 C 
ATOM     17  C   UNL     1       8.098  16.222  -2.710  1.00  0.00     0.004 C 
ENDBRANCH   6  15
ENDBRANCH   4   5
ENDBRANCH   1   4
BRANCH   3  18
ATOM     18  C   UNL     1       8.436  17.081  -8.132  1.00  0.00     0.053 C 
BRANCH  18  19
ATOM     19  C   UNL     1       7.181  16.813  -7.344  1.00  0.00     0.074 C 
BRANCH  19  20
ATOM     20  N   UNL     1       6.599  15.667  -7.213  1.00  0.00    -0.313 NA
ATOM     21  H   UNL     1       6.026  15.436  -8.037  1.00  0.00     0.186 HD
ENDBRANCH  19  20
ENDBRANCH  18  19
ENDBRANCH   3  18
TORSDOF 6
ENDMDL
MODEL 9
REMARK VINA RESULT:    -2.927      3.830      6.407
REMARK INTER + INTRA:          -4.394
REMARK INTER:                  -4.330
REMARK INTRA:                  -0.064
REMARK UNBOUND:                -0.526
REMARK SMILES [H]/N=C\C[C@H]1C[C@@H]1O[C@H]1CO[C@H]2C[C@@H](C3CC3)CCN2C1
REMARK SMILES IDX 7 1 6 2 5 3 8 4 9 5 14 6 13 7 18 8 12 9 19 10 20 11 11 12
REMARK SMILES IDX 21 13 10 14 15 15 16 16 17 17 4 18 3 19 2 20 1 21
REMARK H PARENT
ROOT
ATOM      1  C   UNL     1       6.112  16.708  -5.388  1.00  0.00     0.122 C 
ATOM      2  C   UNL     1       7.370  17.525  -5.297  1.00  0.00     0.039 C 
ATOM      3  C   UNL     1       6.987  16.613  -4.167  1.00  0.00     0.026 C 
ENDROOT
BRANCH   1   4
ATOM      4  O   UNL     1       4.902  17.477  -5.256  1.00  0.00    -0.371 OA
BRANCH   4   5
ATOM      5  C   UNL     1       4.071  17.531  -6.427  1.00  0.00     0.158 C 
ATOM      6  C   UNL     1       0.624  13.843  -5.117  1.00  0.00    -0.003 C 
ATOM      7  C   UNL     1       2.093  13.867  -5.555  1.00  0.00     0.052 C 
ATOM      8  C   UNL     1       0.313  15.114  -4.314  1.00  0.00     0.019 C 
ATOM      9  C   UNL     1       2.449  15.170  -6.284  1.00  0.00     0.189 C 
ATOM     10  C   UNL     1       0.722  16.372  -5.080  1.00  0.00     0.087 C 
ATOM     11  N   UNL     1       2.138  16.326  -5.444  1.00  0.00    -0.276 NA
ATOM     12  O   UNL     1       3.841  15.094  -6.599  1.00  0.00    -0.360 OA
ATOM     13  C   UNL     1       2.567  17.565  -6.103  1.00  0.00     0.121 C 
ATOM     14  C   UNL     1       4.332  16.268  -7.254  1.00  0.00     0.195 C 
BRANCH   6  15
ATOM     15  C   UNL     1       0.308  12.610  -4.301  1.00  0.00    -0.008 C 
ATOM     16  C   UNL     1      -0.083  11.321  -4.984  1.00  0.00     0.004 C 
ATOM     17  C   UNL     1       1.245  11.426  -4.293  1.00  0.00     0.004 C 
ENDBRANCH   6  15
ENDBRANCH   4   5
ENDBRANCH   1   4
BRANCH   3  18
ATOM     18  C   UNL     1       7.805  15.382  -3.917  1.00  0.00     0.053 C 
BRANCH  18  19
ATOM     19  C   UNL     1       8.212  15.131  -2.489  1.00  0.00     0.074 C 
BRANCH  19  20
ATOM     20  N   UNL     1       8.213  16.005  -1.537  1.00  0.00    -0.313 NA
ATOM     21  H   UNL     1       9.170  16.231  -1.230  1.00  0.00     0.186 HD
ENDBRANCH  19  20
ENDBRANCH  18  19
ENDBRANCH   3  18
TORSDOF 6
ENDMDL
