MODEL 1
REMARK VINA RESULT:    -5.939      0.000      0.000
REMARK INTER + INTRA:          -7.462
REMARK INTER:                  -6.980
REMARK INTRA:                  -0.482
REMARK UNBOUND:                -0.482
REMARK SMILES Cc1ccc(CNC(=O)NC(=O)c2ccc(C)cc2)cc1
REMARK SMILES IDX 11 1 12 2 10 3 8 4 9 5 7 6 13 9 19 10 18 11 14 12 16 13
REMARK SMILES IDX 15 14 17 15 6 16 5 17 4 18 20 19 3 20 21 21 2 22 1 23
REMARK H PARENT 10 7 7 8
ROOT
ATOM      1  C   UNL     1       1.985  11.438  -4.296  1.00  0.00     0.259 C 
ATOM      2  O   UNL     1       1.289  10.453  -4.095  1.00  0.00    -0.269 OA
ATOM      3  N   UNL     1       3.378  11.552  -4.240  1.00  0.00    -0.274 N 
ATOM      4  C   UNL     1       4.462  10.714  -4.200  1.00  0.00     0.321 C 
ATOM      5  O   UNL     1       5.584  11.223  -4.296  1.00  0.00    -0.248 OA
ATOM      6  N   UNL     1       4.365   9.376  -4.095  1.00  0.00    -0.334 N 
ATOM      7  H   UNL     1       3.728  12.483  -4.424  1.00  0.00     0.175 HD
ATOM      8  H   UNL     1       5.252   8.897  -4.167  1.00  0.00     0.165 HD
ENDROOT
BRANCH   1   9
ATOM      9  C   UNL     1       1.279  12.684  -4.650  1.00  0.00     0.040 A 
ATOM     10  C   UNL     1       0.096  13.059  -4.010  1.00  0.00     0.014 A 
ATOM     11  C   UNL     1      -0.507  14.272  -4.343  1.00  0.00     0.004 A 
ATOM     12  C   UNL     1       1.826  13.485  -5.659  1.00  0.00     0.014 A 
ATOM     13  C   UNL     1       0.062  15.107  -5.316  1.00  0.00    -0.051 A 
ATOM     14  C   UNL     1       1.223  14.699  -5.983  1.00  0.00     0.004 A 
ATOM     15  C   UNL     1      -0.552  16.446  -5.602  1.00  0.00     0.044 C 
ENDBRANCH   1   9
BRANCH   6  16
ATOM     16  C   UNL     1       3.169   8.583  -4.076  1.00  0.00     0.153 C 
BRANCH  16  17
ATOM     17  C   UNL     1       3.109   7.447  -3.093  1.00  0.00    -0.029 A 
ATOM     18  C   UNL     1       3.529   6.149  -3.399  1.00  0.00     0.006 A 
ATOM     19  C   UNL     1       2.815   7.768  -1.757  1.00  0.00     0.006 A 
ATOM     20  C   UNL     1       3.674   5.201  -2.381  1.00  0.00     0.004 A 
ATOM     21  C   UNL     1       2.964   6.826  -0.745  1.00  0.00     0.004 A 
ATOM     22  C   UNL     1       3.405   5.536  -1.046  1.00  0.00    -0.051 A 
ATOM     23  C   UNL     1       3.695   4.572   0.065  1.00  0.00     0.044 C 
ENDBRANCH  16  17
ENDBRANCH   6  16
TORSDOF 3
ENDMDL
MODEL 2
REMARK VINA RESULT:    -5.934      0.519      8.065
REMARK INTER + INTRA:          -7.457
REMARK INTER:                  -7.090
REMARK INTRA:                  -0.367
REMARK UNBOUND:                -0.482
REMARK SMILES Cc1ccc(CNC(=O)NC(=O)c2ccc(C)cc2)cc1
REMARK SMILES IDX 11 1 12 2 10 3 8 4 9 5 7 6 13 9 19 10 18 11 14 12 16 13
REMARK SMILES IDX 15 14 17 15 6 16 5 17 4 18 20 19 3 20 21 21 2 22 1 23
REMARK H PARENT 10 7 7 8
ROOT
ATOM      1  C   UNL     1       2.927   8.858  -3.408  1.00  0.00     0.259 C 
ATOM      2  O   UNL     1       1.794   9.049  -3.827  1.00  0.00    -0.269 OA
ATOM      3  N   UNL     1       4.075   9.632  -3.606  1.00  0.00    -0.274 N 
ATOM      4  C   UNL     1       4.385  10.888  -4.059  1.00  0.00     0.321 C 
ATOM      5  O   UNL     1       5.557  11.265  -3.950  1.00  0.00    -0.248 OA
ATOM      6  N   UNL     1       3.479  11.735  -4.582  1.00  0.00    -0.334 N 
ATOM      7  H   UNL     1       4.909   9.257  -3.175  1.00  0.00     0.175 HD
ATOM      8  H   UNL     1       3.850  12.651  -4.788  1.00  0.00     0.165 HD
ENDROOT
BRANCH   1   9
ATOM      9  C   UNL     1       3.129   7.657  -2.576  1.00  0.00     0.040 A 
ATOM     10  C   UNL     1       3.660   6.481  -3.112  1.00  0.00     0.014 A 
ATOM     11  C   UNL     1       3.883   5.388  -2.274  1.00  0.00     0.004 A 
ATOM     12  C   UNL     1       2.767   7.723  -1.227  1.00  0.00     0.014 A 
ATOM     13  C   UNL     1       3.570   5.462  -0.908  1.00  0.00    -0.051 A 
ATOM     14  C   UNL     1       2.997   6.631  -0.393  1.00  0.00     0.004 A 
ATOM     15  C   UNL     1       3.894   4.308  -0.005  1.00  0.00     0.044 C 
ENDBRANCH   1   9
BRANCH   6  16
ATOM     16  C   UNL     1       2.062  11.537  -4.702  1.00  0.00     0.153 C 
BRANCH  16  17
ATOM     17  C   UNL     1       1.212  12.756  -4.931  1.00  0.00    -0.029 A 
ATOM     18  C   UNL     1       0.094  13.065  -4.149  1.00  0.00     0.006 A 
ATOM     19  C   UNL     1       1.697  13.719  -5.832  1.00  0.00     0.006 A 
ATOM     20  C   UNL     1      -0.507  14.324  -4.254  1.00  0.00     0.004 A 
ATOM     21  C   UNL     1       1.101  14.972  -5.931  1.00  0.00     0.004 A 
ATOM     22  C   UNL     1      -0.001  15.289  -5.135  1.00  0.00    -0.051 A 
ATOM     23  C   UNL     1      -0.550  16.685  -5.150  1.00  0.00     0.044 C 
ENDBRANCH  16  17
ENDBRANCH   6  16
TORSDOF 3
ENDMDL
MODEL 3
REMARK VINA RESULT:    -5.912      3.021      5.438
REMARK INTER + INTRA:          -7.430
REMARK INTER:                  -6.949
REMARK INTRA:                  -0.481
REMARK UNBOUND:                -0.482
REMARK SMILES Cc1ccc(CNC(=O)NC(=O)c2ccc(C)cc2)cc1
REMARK SMILES IDX 11 1 12 2 10 3 8 4 9 5 7 6 13 9 19 10 18 11 14 12 16 13
REMARK SMILES IDX 15 14 17 15 6 16 5 17 4 18 20 19 3 20 21 21 2 22 1 23
REMARK H PARENT 10 7 7 8
ROOT
ATOM      1  C   UNL     1       5.524  10.572  -4.090  1.00  0.00     0.259 C 
ATOM      2  O   UNL     1       5.661   9.447  -3.629  1.00  0.00    -0.269 OA
ATOM      3  N   UNL     1       4.343  11.256  -4.392  1.00  0.00    -0.274 N 
ATOM      4  C   UNL     1       3.003  11.132  -4.125  1.00  0.00     0.321 C 
ATOM      5  O   UNL     1       2.261  12.056  -4.477  1.00  0.00    -0.248 OA
ATOM      6  N   UNL     1       2.467  10.080  -3.479  1.00  0.00    -0.334 N 
ATOM      7  H   UNL     1       4.483  12.176  -4.789  1.00  0.00     0.175 HD
ATOM      8  H   UNL     1       1.481  10.181  -3.286  1.00  0.00     0.165 HD
ENDROOT
BRANCH   1   9
ATOM      9  C   UNL     1       6.761  11.327  -4.367  1.00  0.00     0.040 A 
ATOM     10  C   UNL     1       7.883  10.708  -4.921  1.00  0.00     0.014 A 
ATOM     11  C   UNL     1       9.012  11.475  -5.214  1.00  0.00     0.004 A 
ATOM     12  C   UNL     1       6.784  12.689  -4.051  1.00  0.00     0.014 A 
ATOM     13  C   UNL     1       9.026  12.852  -4.949  1.00  0.00    -0.051 A 
ATOM     14  C   UNL     1       7.911  13.452  -4.351  1.00  0.00     0.004 A 
ATOM     15  C   UNL     1      10.214  13.677  -5.347  1.00  0.00     0.044 C 
ENDBRANCH   1   9
BRANCH   6  16
ATOM     16  C   UNL     1       3.158   8.962  -2.901  1.00  0.00     0.153 C 
BRANCH  16  17
ATOM     17  C   UNL     1       2.552   7.601  -3.096  1.00  0.00    -0.029 A 
ATOM     18  C   UNL     1       1.641   7.035  -2.197  1.00  0.00     0.006 A 
ATOM     19  C   UNL     1       2.756   6.977  -4.337  1.00  0.00     0.006 A 
ATOM     20  C   UNL     1       0.933   5.881  -2.551  1.00  0.00     0.004 A 
ATOM     21  C   UNL     1       2.048   5.832  -4.689  1.00  0.00     0.004 A 
ATOM     22  C   UNL     1       1.122   5.280  -3.803  1.00  0.00    -0.051 A 
ATOM     23  C   UNL     1       0.267   4.130  -4.244  1.00  0.00     0.044 C 
ENDBRANCH  16  17
ENDBRANCH   6  16
TORSDOF 3
ENDMDL
MODEL 4
REMARK VINA RESULT:    -5.910      3.164      7.357
REMARK INTER + INTRA:          -7.428
REMARK INTER:                  -7.060
REMARK INTRA:                  -0.369
REMARK UNBOUND:                -0.482
REMARK SMILES Cc1ccc(CNC(=O)NC(=O)c2ccc(C)cc2)cc1
REMARK SMILES IDX 11 1 12 2 10 3 8 4 9 5 7 6 13 9 19 10 18 11 14 12 16 13
REMARK SMILES IDX 15 14 17 15 6 16 5 17 4 18 20 19 3 20 21 21 2 22 1 23
REMARK H PARENT 10 7 7 8
ROOT
ATOM      1  C   UNL     1       3.394   8.695  -3.574  1.00  0.00     0.259 C 
ATOM      2  O   UNL     1       4.535   8.540  -3.161  1.00  0.00    -0.269 OA
ATOM      3  N   UNL     1       2.767   9.872  -3.995  1.00  0.00    -0.274 N 
ATOM      4  C   UNL     1       3.134  11.149  -4.338  1.00  0.00     0.321 C 
ATOM      5  O   UNL     1       2.262  11.890  -4.803  1.00  0.00    -0.248 OA
ATOM      6  N   UNL     1       4.390  11.619  -4.222  1.00  0.00    -0.334 N 
ATOM      7  H   UNL     1       1.803   9.754  -4.276  1.00  0.00     0.175 HD
ATOM      8  H   UNL     1       4.512  12.548  -4.598  1.00  0.00     0.165 HD
ENDROOT
BRANCH   1   9
ATOM      9  C   UNL     1       2.550   7.487  -3.652  1.00  0.00     0.040 A 
ATOM     10  C   UNL     1       1.614   7.188  -2.660  1.00  0.00     0.014 A 
ATOM     11  C   UNL     1       0.802   6.063  -2.803  1.00  0.00     0.004 A 
ATOM     12  C   UNL     1       2.718   6.638  -4.750  1.00  0.00     0.014 A 
ATOM     13  C   UNL     1       0.927   5.232  -3.927  1.00  0.00    -0.051 A 
ATOM     14  C   UNL     1       1.900   5.519  -4.892  1.00  0.00     0.004 A 
ATOM     15  C   UNL     1      -0.011   4.075  -4.109  1.00  0.00     0.044 C 
ENDBRANCH   1   9
BRANCH   6  16
ATOM     16  C   UNL     1       5.560  10.898  -3.807  1.00  0.00     0.153 C 
BRANCH  16  17
ATOM     17  C   UNL     1       6.896  11.491  -4.158  1.00  0.00    -0.029 A 
ATOM     18  C   UNL     1       7.902  10.773  -4.814  1.00  0.00     0.006 A 
ATOM     19  C   UNL     1       7.045  12.879  -4.003  1.00  0.00     0.006 A 
ATOM     20  C   UNL     1       9.020  11.442  -5.324  1.00  0.00     0.004 A 
ATOM     21  C   UNL     1       8.155  13.543  -4.515  1.00  0.00     0.004 A 
ATOM     22  C   UNL     1       9.148  12.831  -5.190  1.00  0.00    -0.051 A 
ATOM     23  C   UNL     1      10.268  13.571  -5.857  1.00  0.00     0.044 C 
ENDBRANCH  16  17
ENDBRANCH   6  16
TORSDOF 3
ENDMDL
MODEL 5
REMARK VINA RESULT:    -5.694      1.038      1.345
REMARK INTER + INTRA:          -7.175
REMARK INTER:                  -6.722
REMARK INTRA:                  -0.453
REMARK UNBOUND:                -0.482
REMARK SMILES Cc1ccc(CNC(=O)NC(=O)c2ccc(C)cc2)cc1
REMARK SMILES IDX 11 1 12 2 10 3 8 4 9 5 7 6 13 9 19 10 18 11 14 12 16 13
REMARK SMILES IDX 15 14 17 15 6 16 5 17 4 18 20 19 3 20 21 21 2 22 1 23
REMARK H PARENT 10 7 7 8
ROOT
ATOM      1  C   UNL     1       1.791  11.402  -4.415  1.00  0.00     0.259 C 
ATOM      2  O   UNL     1       1.040  10.437  -4.413  1.00  0.00    -0.269 OA
ATOM      3  N   UNL     1       3.165  11.443  -4.157  1.00  0.00    -0.274 N 
ATOM      4  C   UNL     1       4.203  10.553  -4.055  1.00  0.00     0.321 C 
ATOM      5  O   UNL     1       5.344  11.014  -3.943  1.00  0.00    -0.248 OA
ATOM      6  N   UNL     1       4.046   9.217  -4.100  1.00  0.00    -0.334 N 
ATOM      7  H   UNL     1       3.569  12.369  -4.196  1.00  0.00     0.175 HD
ATOM      8  H   UNL     1       4.916   8.704  -4.098  1.00  0.00     0.165 HD
ENDROOT
BRANCH   1   9
ATOM      9  C   UNL     1       1.186  12.709  -4.734  1.00  0.00     0.040 A 
ATOM     10  C   UNL     1       0.036  13.159  -4.081  1.00  0.00     0.014 A 
ATOM     11  C   UNL     1      -0.469  14.424  -4.380  1.00  0.00     0.004 A 
ATOM     12  C   UNL     1       1.794  13.491  -5.722  1.00  0.00     0.014 A 
ATOM     13  C   UNL     1       0.164  15.238  -5.332  1.00  0.00    -0.051 A 
ATOM     14  C   UNL     1       1.289  14.757  -6.012  1.00  0.00     0.004 A 
ATOM     15  C   UNL     1      -0.342  16.628  -5.580  1.00  0.00     0.044 C 
ENDBRANCH   1   9
BRANCH   6  16
ATOM     16  C   UNL     1       2.832   8.485  -4.327  1.00  0.00     0.153 C 
BRANCH  16  17
ATOM     17  C   UNL     1       2.568   7.297  -3.444  1.00  0.00    -0.029 A 
ATOM     18  C   UNL     1       1.301   6.991  -2.935  1.00  0.00     0.006 A 
ATOM     19  C   UNL     1       3.599   6.353  -3.310  1.00  0.00     0.006 A 
ATOM     20  C   UNL     1       1.073   5.752  -2.326  1.00  0.00     0.004 A 
ATOM     21  C   UNL     1       3.369   5.120  -2.709  1.00  0.00     0.004 A 
ATOM     22  C   UNL     1       2.100   4.804  -2.220  1.00  0.00    -0.051 A 
ATOM     23  C   UNL     1       1.827   3.425  -1.700  1.00  0.00     0.044 C 
ENDBRANCH  16  17
ENDBRANCH   6  16
TORSDOF 3
ENDMDL
MODEL 6
REMARK VINA RESULT:    -4.481      4.759      8.181
REMARK INTER + INTRA:          -5.749
REMARK INTER:                  -5.311
REMARK INTRA:                  -0.437
REMARK UNBOUND:                -0.482
REMARK SMILES Cc1ccc(CNC(=O)NC(=O)c2ccc(C)cc2)cc1
REMARK SMILES IDX 11 1 12 2 10 3 8 4 9 5 7 6 13 9 19 10 18 11 14 12 16 13
REMARK SMILES IDX 15 14 17 15 6 16 5 17 4 18 20 19 3 20 21 21 2 22 1 23
REMARK H PARENT 10 7 7 8
ROOT
ATOM      1  C   UNL     1       6.028  10.844  -3.951  1.00  0.00     0.259 C 
ATOM      2  O   UNL     1       7.094  10.250  -4.023  1.00  0.00    -0.269 OA
ATOM      3  N   UNL     1       5.787  12.220  -4.015  1.00  0.00    -0.274 N 
ATOM      4  C   UNL     1       6.468  13.352  -4.385  1.00  0.00     0.321 C 
ATOM      5  O   UNL     1       5.836  14.413  -4.425  1.00  0.00    -0.248 OA
ATOM      6  N   UNL     1       7.768  13.359  -4.732  1.00  0.00    -0.334 N 
ATOM      7  H   UNL     1       4.815  12.479  -3.908  1.00  0.00     0.175 HD
ATOM      8  H   UNL     1       8.096  14.255  -5.061  1.00  0.00     0.165 HD
ENDROOT
BRANCH   1   9
ATOM      9  C   UNL     1       4.820  10.015  -3.779  1.00  0.00     0.040 A 
ATOM     10  C   UNL     1       4.143   9.478  -4.875  1.00  0.00     0.014 A 
ATOM     11  C   UNL     1       3.036   8.656  -4.660  1.00  0.00     0.004 A 
ATOM     12  C   UNL     1       4.361   9.785  -2.478  1.00  0.00     0.014 A 
ATOM     13  C   UNL     1       2.599   8.377  -3.356  1.00  0.00    -0.051 A 
ATOM     14  C   UNL     1       3.259   8.959  -2.267  1.00  0.00     0.004 A 
ATOM     15  C   UNL     1       1.460   7.425  -3.138  1.00  0.00     0.044 C 
ENDBRANCH   1   9
BRANCH   6  16
ATOM     16  C   UNL     1       8.648  12.231  -4.852  1.00  0.00     0.153 C 
BRANCH  16  17
ATOM     17  C   UNL     1       9.571  12.200  -6.038  1.00  0.00    -0.029 A 
ATOM     18  C   UNL     1       9.125  11.989  -7.348  1.00  0.00     0.006 A 
ATOM     19  C   UNL     1      10.899  12.608  -5.831  1.00  0.00     0.006 A 
ATOM     20  C   UNL     1       9.990  12.210  -8.425  1.00  0.00     0.004 A 
ATOM     21  C   UNL     1      11.756  12.832  -6.904  1.00  0.00     0.004 A 
ATOM     22  C   UNL     1      11.305  12.645  -8.212  1.00  0.00    -0.051 A 
ATOM     23  C   UNL     1      12.190  13.020  -9.363  1.00  0.00     0.044 C 
ENDBRANCH  16  17
ENDBRANCH   6  16
TORSDOF 3
ENDMDL
MODEL 7
REMARK VINA RESULT:    -4.391      7.176      9.956
REMARK INTER + INTRA:          -5.643
REMARK INTER:                  -5.169
REMARK INTRA:                  -0.474
REMARK UNBOUND:                -0.482
REMARK SMILES Cc1ccc(CNC(=O)NC(=O)c2ccc(C)cc2)cc1
REMARK SMILES IDX 11 1 12 2 10 3 8 4 9 5 7 6 13 9 19 10 18 11 14 12 16 13
REMARK SMILES IDX 15 14 17 15 6 16 5 17 4 18 20 19 3 20 21 21 2 22 1 23
REMARK H PARENT 10 7 7 8
ROOT
ATOM      1  C   UNL     1       7.325  16.419  -6.922  1.00  0.00     0.259 C 
ATOM      2  O   UNL     1       6.662  17.225  -7.560  1.00  0.00    -0.269 OA
ATOM      3  N   UNL     1       7.121  15.956  -5.618  1.00  0.00    -0.274 N 
ATOM      4  C   UNL     1       6.119  15.972  -4.682  1.00  0.00     0.321 C 
ATOM      5  O   UNL     1       6.285  15.309  -3.653  1.00  0.00    -0.248 OA
ATOM      6  N   UNL     1       4.963  16.643  -4.841  1.00  0.00    -0.334 N 
ATOM      7  H   UNL     1       7.820  15.301  -5.294  1.00  0.00     0.175 HD
ATOM      8  H   UNL     1       4.296  16.484  -4.100  1.00  0.00     0.165 HD
ENDROOT
BRANCH   1   9
ATOM      9  C   UNL     1       8.499  15.841  -7.604  1.00  0.00     0.040 A 
ATOM     10  C   UNL     1       9.145  14.708  -7.107  1.00  0.00     0.014 A 
ATOM     11  C   UNL     1      10.219  14.167  -7.815  1.00  0.00     0.004 A 
ATOM     12  C   UNL     1       8.956  16.467  -8.768  1.00  0.00     0.014 A 
ATOM     13  C   UNL     1      10.653  14.758  -9.011  1.00  0.00    -0.051 A 
ATOM     14  C   UNL     1      10.025  15.920  -9.475  1.00  0.00     0.004 A 
ATOM     15  C   UNL     1      11.753  14.116  -9.805  1.00  0.00     0.044 C 
ENDBRANCH   1   9
BRANCH   6  16
ATOM     16  C   UNL     1       4.531  17.383  -5.993  1.00  0.00     0.153 C 
BRANCH  16  17
ATOM     17  C   UNL     1       3.488  16.746  -6.869  1.00  0.00    -0.029 A 
ATOM     18  C   UNL     1       3.060  17.307  -8.077  1.00  0.00     0.006 A 
ATOM     19  C   UNL     1       3.094  15.436  -6.552  1.00  0.00     0.006 A 
ATOM     20  C   UNL     1       2.274  16.557  -8.958  1.00  0.00     0.004 A 
ATOM     21  C   UNL     1       2.316  14.689  -7.431  1.00  0.00     0.004 A 
ATOM     22  C   UNL     1       1.907  15.240  -8.647  1.00  0.00    -0.051 A 
ATOM     23  C   UNL     1       1.188  14.383  -9.645  1.00  0.00     0.044 C 
ENDBRANCH  16  17
ENDBRANCH   6  16
TORSDOF 3
ENDMDL
MODEL 8
REMARK VINA RESULT:    -4.326      3.876      5.049
REMARK INTER + INTRA:          -5.566
REMARK INTER:                  -5.155
REMARK INTRA:                  -0.411
REMARK UNBOUND:                -0.482
REMARK SMILES Cc1ccc(CNC(=O)NC(=O)c2ccc(C)cc2)cc1
REMARK SMILES IDX 11 1 12 2 10 3 8 4 9 5 7 6 13 9 19 10 18 11 14 12 16 13
REMARK SMILES IDX 15 14 17 15 6 16 5 17 4 18 20 19 3 20 21 21 2 22 1 23
REMARK H PARENT 10 7 7 8
ROOT
ATOM      1  C   UNL     1       4.899  10.081  -3.609  1.00  0.00     0.259 C 
ATOM      2  O   UNL     1       4.458   9.286  -4.428  1.00  0.00    -0.269 OA
ATOM      3  N   UNL     1       4.431  10.362  -2.322  1.00  0.00    -0.274 N 
ATOM      4  C   UNL     1       3.570   9.803  -1.412  1.00  0.00     0.321 C 
ATOM      5  O   UNL     1       3.525  10.303  -0.283  1.00  0.00    -0.248 OA
ATOM      6  N   UNL     1       2.802   8.729  -1.677  1.00  0.00    -0.334 N 
ATOM      7  H   UNL     1       4.951  11.080  -1.836  1.00  0.00     0.175 HD
ATOM      8  H   UNL     1       2.289   8.389  -0.876  1.00  0.00     0.165 HD
ENDROOT
BRANCH   1   9
ATOM      9  C   UNL     1       6.089  10.853  -4.014  1.00  0.00     0.040 A 
ATOM     10  C   UNL     1       7.221  10.226  -4.538  1.00  0.00     0.014 A 
ATOM     11  C   UNL     1       8.302  11.004  -4.956  1.00  0.00     0.004 A 
ATOM     12  C   UNL     1       6.058  12.242  -3.850  1.00  0.00     0.014 A 
ATOM     13  C   UNL     1       8.259  12.401  -4.844  1.00  0.00    -0.051 A 
ATOM     14  C   UNL     1       7.137  13.015  -4.274  1.00  0.00     0.004 A 
ATOM     15  C   UNL     1       9.393  13.228  -5.375  1.00  0.00     0.044 C 
ENDBRANCH   1   9
BRANCH   6  16
ATOM     16  C   UNL     1       2.779   7.943  -2.877  1.00  0.00     0.153 C 
BRANCH  16  17
ATOM     17  C   UNL     1       2.574   6.461  -2.728  1.00  0.00    -0.029 A 
ATOM     18  C   UNL     1       3.504   5.620  -2.108  1.00  0.00     0.006 A 
ATOM     19  C   UNL     1       1.302   5.953  -3.039  1.00  0.00     0.006 A 
ATOM     20  C   UNL     1       3.153   4.305  -1.786  1.00  0.00     0.004 A 
ATOM     21  C   UNL     1       0.952   4.647  -2.713  1.00  0.00     0.004 A 
ATOM     22  C   UNL     1       1.872   3.814  -2.074  1.00  0.00    -0.051 A 
ATOM     23  C   UNL     1       1.442   2.456  -1.605  1.00  0.00     0.044 C 
ENDBRANCH  16  17
ENDBRANCH   6  16
TORSDOF 3
ENDMDL
MODEL 9
REMARK VINA RESULT:    -4.184      6.577      7.887
REMARK INTER + INTRA:          -5.400
REMARK INTER:                  -4.947
REMARK INTRA:                  -0.453
REMARK UNBOUND:                -0.482
REMARK SMILES Cc1ccc(CNC(=O)NC(=O)c2ccc(C)cc2)cc1
REMARK SMILES IDX 11 1 12 2 10 3 8 4 9 5 7 6 13 9 19 10 18 11 14 12 16 13
REMARK SMILES IDX 15 14 17 15 6 16 5 17 4 18 20 19 3 20 21 21 2 22 1 23
REMARK H PARENT 10 7 7 8
ROOT
ATOM      1  C   UNL     1       6.022  15.419  -5.123  1.00  0.00     0.259 C 
ATOM      2  O   UNL     1       6.087  14.199  -5.062  1.00  0.00    -0.269 OA
ATOM      3  N   UNL     1       6.773  16.371  -4.427  1.00  0.00    -0.274 N 
ATOM      4  C   UNL     1       7.918  16.405  -3.673  1.00  0.00     0.321 C 
ATOM      5  O   UNL     1       8.345  17.512  -3.327  1.00  0.00    -0.248 OA
ATOM      6  N   UNL     1       8.610  15.305  -3.320  1.00  0.00    -0.334 N 
ATOM      7  H   UNL     1       6.522  17.330  -4.629  1.00  0.00     0.175 HD
ATOM      8  H   UNL     1       9.475  15.506  -2.839  1.00  0.00     0.165 HD
ENDROOT
BRANCH   1   9
ATOM      9  C   UNL     1       5.025  15.982  -6.054  1.00  0.00     0.040 A 
ATOM     10  C   UNL     1       5.312  17.101  -6.838  1.00  0.00     0.014 A 
ATOM     11  C   UNL     1       4.357  17.565  -7.743  1.00  0.00     0.004 A 
ATOM     12  C   UNL     1       3.772  15.366  -6.126  1.00  0.00     0.014 A 
ATOM     13  C   UNL     1       3.115  16.922  -7.860  1.00  0.00    -0.051 A 
ATOM     14  C   UNL     1       2.823  15.829  -7.035  1.00  0.00     0.004 A 
ATOM     15  C   UNL     1       2.132  17.381  -8.896  1.00  0.00     0.044 C 
ENDBRANCH   1   9
BRANCH   6  16
ATOM     16  C   UNL     1       8.347  13.946  -3.700  1.00  0.00     0.153 C 
BRANCH  16  17
ATOM     17  C   UNL     1       9.203  13.357  -4.787  1.00  0.00    -0.029 A 
ATOM     18  C   UNL     1       8.846  12.208  -5.502  1.00  0.00     0.006 A 
ATOM     19  C   UNL     1      10.295  14.120  -5.232  1.00  0.00     0.006 A 
ATOM     20  C   UNL     1       9.556  11.851  -6.652  1.00  0.00     0.004 A 
ATOM     21  C   UNL     1      10.997  13.766  -6.379  1.00  0.00     0.004 A 
ATOM     22  C   UNL     1      10.628  12.633  -7.105  1.00  0.00    -0.051 A 
ATOM     23  C   UNL     1      11.301  12.337  -8.412  1.00  0.00     0.044 C 
ENDBRANCH  16  17
ENDBRANCH   6  16
TORSDOF 3
ENDMDL
