MODEL 1
REMARK VINA RESULT:    -4.098      0.000      0.000
REMARK INTER + INTRA:          -5.667
REMARK INTER:                  -5.416
REMARK INTRA:                  -0.251
REMARK UNBOUND:                -0.251
REMARK SMILES [H]/N=C\C[C@H]1C[C@@H]1O[C@H]1CO[C@H]2C[C@@H](C3CC3)CCN2C1
REMARK SMILES IDX 7 1 6 2 5 3 8 4 9 5 14 6 13 7 18 8 12 9 19 10 20 11 11 12
REMARK SMILES IDX 21 13 10 14 15 15 16 16 17 17 4 18 3 19 2 20 1 21
REMARK H PARENT
ROOT
ATOM      1  C   UNL     1     -12.114   6.560   5.279  1.00  0.00     0.122 C 
ATOM      2  C   UNL     1     -12.885   7.829   5.514  1.00  0.00     0.039 C 
ATOM      3  C   UNL     1     -13.065   7.069   4.231  1.00  0.00     0.026 C 
ENDROOT
BRANCH   1   4
ATOM      4  O   UNL     1     -10.710   6.765   5.030  1.00  0.00    -0.371 OA
BRANCH   4   5
ATOM      5  C   UNL     1      -9.916   7.086   6.184  1.00  0.00     0.158 C 
ATOM      6  C   UNL     1      -5.816   4.018   5.193  1.00  0.00    -0.003 C 
ATOM      7  C   UNL     1      -7.267   3.802   5.640  1.00  0.00     0.052 C 
ATOM      8  C   UNL     1      -5.746   5.245   4.273  1.00  0.00     0.019 C 
ATOM      9  C   UNL     1      -7.872   5.075   6.248  1.00  0.00     0.189 C 
ATOM     10  C   UNL     1      -6.395   6.467   4.921  1.00  0.00     0.087 C 
ATOM     11  N   UNL     1      -7.779   6.186   5.301  1.00  0.00    -0.276 NA
ATOM     12  O   UNL     1      -9.227   4.765   6.580  1.00  0.00    -0.360 OA
ATOM     13  C   UNL     1      -8.443   7.376   5.845  1.00  0.00     0.121 C 
ATOM     14  C   UNL     1      -9.938   5.879   7.128  1.00  0.00     0.195 C 
BRANCH   6  15
ATOM     15  C   UNL     1      -5.263   2.797   4.493  1.00  0.00    -0.008 C 
ATOM     16  C   UNL     1      -3.927   2.222   4.901  1.00  0.00     0.004 C 
ATOM     17  C   UNL     1      -5.189   1.466   5.202  1.00  0.00     0.004 C 
ENDBRANCH   6  15
ENDBRANCH   4   5
ENDBRANCH   1   4
BRANCH   3  18
ATOM     18  C   UNL     1     -14.363   6.361   3.981  1.00  0.00     0.053 C 
BRANCH  18  19
ATOM     19  C   UNL     1     -15.608   7.206   4.057  1.00  0.00     0.074 C 
BRANCH  19  20
ATOM     20  N   UNL     1     -16.092   7.929   3.103  1.00  0.00    -0.313 NA
ATOM     21  H   UNL     1     -15.817   8.917   3.198  1.00  0.00     0.186 HD
ENDBRANCH  19  20
ENDBRANCH  18  19
ENDBRANCH   3  18
TORSDOF 6
ENDMDL
MODEL 2
REMARK VINA RESULT:    -4.074      3.265      5.464
REMARK INTER + INTRA:          -5.635
REMARK INTER:                  -5.353
REMARK INTRA:                  -0.282
REMARK UNBOUND:                -0.251
REMARK SMILES [H]/N=C\C[C@H]1C[C@@H]1O[C@H]1CO[C@H]2C[C@@H](C3CC3)CCN2C1
REMARK SMILES IDX 7 1 6 2 5 3 8 4 9 5 14 6 13 7 18 8 12 9 19 10 20 11 11 12
REMARK SMILES IDX 21 13 10 14 15 15 16 16 17 17 4 18 3 19 2 20 1 21
REMARK H PARENT
ROOT
ATOM      1  C   UNL     1      -9.710   6.162   9.309  1.00  0.00     0.122 C 
ATOM      2  C   UNL     1     -10.785   5.744  10.271  1.00  0.00     0.039 C 
ATOM      3  C   UNL     1      -9.389   5.988  10.768  1.00  0.00     0.026 C 
ENDROOT
BRANCH   1   4
ATOM      4  O   UNL     1      -9.274   5.112   8.424  1.00  0.00    -0.371 OA
BRANCH   4   5
ATOM      5  C   UNL     1     -10.147   4.832   7.317  1.00  0.00     0.158 C 
ATOM      6  C   UNL     1      -6.571   4.648   3.525  1.00  0.00    -0.003 C 
ATOM      7  C   UNL     1      -7.205   5.749   4.384  1.00  0.00     0.052 C 
ATOM      8  C   UNL     1      -6.488   3.351   4.342  1.00  0.00     0.019 C 
ATOM      9  C   UNL     1      -8.545   5.302   4.985  1.00  0.00     0.189 C 
ATOM     10  C   UNL     1      -7.845   2.980   4.941  1.00  0.00     0.087 C 
ATOM     11  N   UNL     1      -8.372   4.072   5.759  1.00  0.00    -0.276 NA
ATOM     12  O   UNL     1      -9.011   6.383   5.794  1.00  0.00    -0.360 OA
ATOM     13  C   UNL     1      -9.632   3.700   6.411  1.00  0.00     0.121 C 
ATOM     14  C   UNL     1     -10.246   6.095   6.457  1.00  0.00     0.195 C 
BRANCH   6  15
ATOM     15  C   UNL     1      -5.200   5.051   3.030  1.00  0.00    -0.008 C 
ATOM     16  C   UNL     1      -4.886   5.032   1.552  1.00  0.00     0.004 C 
ATOM     17  C   UNL     1      -5.000   6.343   2.275  1.00  0.00     0.004 C 
ENDBRANCH   6  15
ENDBRANCH   4   5
ENDBRANCH   1   4
BRANCH   3  18
ATOM     18  C   UNL     1      -9.125   7.186  11.631  1.00  0.00     0.053 C 
BRANCH  18  19
ATOM     19  C   UNL     1      -9.979   7.320  12.864  1.00  0.00     0.074 C 
BRANCH  19  20
ATOM     20  N   UNL     1     -10.034   6.479  13.843  1.00  0.00    -0.313 NA
ATOM     21  H   UNL     1     -10.329   5.545  13.525  1.00  0.00     0.186 HD
ENDBRANCH  19  20
ENDBRANCH  18  19
ENDBRANCH   3  18
TORSDOF 6
ENDMDL
MODEL 3
REMARK VINA RESULT:    -4.009      1.514      1.820
REMARK INTER + INTRA:          -5.549
REMARK INTER:                  -5.787
REMARK INTRA:                   0.238
REMARK UNBOUND:                -0.251
REMARK SMILES [H]/N=C\C[C@H]1C[C@@H]1O[C@H]1CO[C@H]2C[C@@H](C3CC3)CCN2C1
REMARK SMILES IDX 7 1 6 2 5 3 8 4 9 5 14 6 13 7 18 8 12 9 19 10 20 11 11 12
REMARK SMILES IDX 21 13 10 14 15 15 16 16 17 17 4 18 3 19 2 20 1 21
REMARK H PARENT
ROOT
ATOM      1  C   UNL     1     -11.929   7.605   4.838  1.00  0.00     0.122 C 
ATOM      2  C   UNL     1     -13.184   6.968   4.310  1.00  0.00     0.039 C 
ATOM      3  C   UNL     1     -13.160   7.535   5.701  1.00  0.00     0.026 C 
ENDROOT
BRANCH   1   4
ATOM      4  O   UNL     1     -10.877   6.669   5.139  1.00  0.00    -0.371 OA
BRANCH   4   5
ATOM      5  C   UNL     1     -10.091   6.973   6.303  1.00  0.00     0.158 C 
ATOM      6  C   UNL     1      -5.937   4.002   5.242  1.00  0.00    -0.003 C 
ATOM      7  C   UNL     1      -7.385   3.750   5.679  1.00  0.00     0.052 C 
ATOM      8  C   UNL     1      -5.886   5.254   4.355  1.00  0.00     0.019 C 
ATOM      9  C   UNL     1      -8.013   4.996   6.319  1.00  0.00     0.189 C 
ATOM     10  C   UNL     1      -6.557   6.448   5.034  1.00  0.00     0.087 C 
ATOM     11  N   UNL     1      -7.938   6.133   5.402  1.00  0.00    -0.276 NA
ATOM     12  O   UNL     1      -9.363   4.654   6.639  1.00  0.00    -0.360 OA
ATOM     13  C   UNL     1      -8.622   7.296   5.976  1.00  0.00     0.121 C 
ATOM     14  C   UNL     1     -10.095   5.741   7.214  1.00  0.00     0.195 C 
BRANCH   6  15
ATOM     15  C   UNL     1      -5.363   2.810   4.511  1.00  0.00    -0.008 C 
ATOM     16  C   UNL     1      -3.993   2.282   4.869  1.00  0.00     0.004 C 
ATOM     17  C   UNL     1      -5.214   1.476   5.203  1.00  0.00     0.004 C 
ENDBRANCH   6  15
ENDBRANCH   4   5
ENDBRANCH   1   4
BRANCH   3  18
ATOM     18  C   UNL     1     -13.950   8.775   5.993  1.00  0.00     0.053 C 
BRANCH  18  19
ATOM     19  C   UNL     1     -14.470   8.917   7.400  1.00  0.00     0.074 C 
BRANCH  19  20
ATOM     20  N   UNL     1     -14.048   9.760   8.282  1.00  0.00    -0.313 NA
ATOM     21  H   UNL     1     -13.135   9.480   8.669  1.00  0.00     0.186 HD
ENDBRANCH  19  20
ENDBRANCH  18  19
ENDBRANCH   3  18
TORSDOF 6
ENDMDL
MODEL 4
REMARK VINA RESULT:    -3.977      6.588      8.000
REMARK INTER + INTRA:          -5.507
REMARK INTER:                  -5.348
REMARK INTRA:                  -0.158
REMARK UNBOUND:                -0.251
REMARK SMILES [H]/N=C\C[C@H]1C[C@@H]1O[C@H]1CO[C@H]2C[C@@H](C3CC3)CCN2C1
REMARK SMILES IDX 7 1 6 2 5 3 8 4 9 5 14 6 13 7 18 8 12 9 19 10 20 11 11 12
REMARK SMILES IDX 21 13 10 14 15 15 16 16 17 17 4 18 3 19 2 20 1 21
REMARK H PARENT
ROOT
ATOM      1  C   UNL     1     -14.044   9.660  13.209  1.00  0.00     0.122 C 
ATOM      2  C   UNL     1     -13.517  10.506  14.333  1.00  0.00     0.039 C 
ATOM      3  C   UNL     1     -13.935  11.151  13.043  1.00  0.00     0.026 C 
ENDROOT
BRANCH   1   4
ATOM      4  O   UNL     1     -13.039   8.863  12.553  1.00  0.00    -0.371 OA
BRANCH   4   5
ATOM      5  C   UNL     1     -12.956   7.494  12.983  1.00  0.00     0.158 C 
ATOM      6  C   UNL     1      -9.943   5.650   9.145  1.00  0.00    -0.003 C 
ATOM      7  C   UNL     1     -11.398   6.116   9.271  1.00  0.00     0.052 C 
ATOM      8  C   UNL     1      -9.067   6.456  10.115  1.00  0.00     0.019 C 
ATOM      9  C   UNL     1     -11.883   6.084  10.727  1.00  0.00     0.189 C 
ATOM     10  C   UNL     1      -9.622   6.411  11.538  1.00  0.00     0.087 C 
ATOM     11  N   UNL     1     -11.004   6.888  11.576  1.00  0.00    -0.276 NA
ATOM     12  O   UNL     1     -13.224   6.579  10.722  1.00  0.00    -0.360 OA
ATOM     13  C   UNL     1     -11.523   6.934  12.948  1.00  0.00     0.121 C 
ATOM     14  C   UNL     1     -13.802   6.643  12.030  1.00  0.00     0.195 C 
BRANCH   6  15
ATOM     15  C   UNL     1      -9.436   5.792   7.728  1.00  0.00    -0.008 C 
ATOM     16  C   UNL     1      -9.685   4.700   6.715  1.00  0.00     0.004 C 
ATOM     17  C   UNL     1     -10.393   6.018   6.583  1.00  0.00     0.004 C 
ENDBRANCH   6  15
ENDBRANCH   4   5
ENDBRANCH   1   4
BRANCH   3  18
ATOM     18  C   UNL     1     -15.170  12.001  13.022  1.00  0.00     0.053 C 
BRANCH  18  19
ATOM     19  C   UNL     1     -14.996  13.439  13.438  1.00  0.00     0.074 C 
BRANCH  19  20
ATOM     20  N   UNL     1     -14.631  14.411  12.669  1.00  0.00    -0.313 NA
ATOM     21  H   UNL     1     -15.368  15.126  12.587  1.00  0.00     0.186 HD
ENDBRANCH  19  20
ENDBRANCH  18  19
ENDBRANCH   3  18
TORSDOF 6
ENDMDL
MODEL 5
REMARK VINA RESULT:    -3.853      4.888      7.321
REMARK INTER + INTRA:          -5.343
REMARK INTER:                  -5.072
REMARK INTRA:                  -0.272
REMARK UNBOUND:                -0.251
REMARK SMILES [H]/N=C\C[C@H]1C[C@@H]1O[C@H]1CO[C@H]2C[C@@H](C3CC3)CCN2C1
REMARK SMILES IDX 7 1 6 2 5 3 8 4 9 5 14 6 13 7 18 8 12 9 19 10 20 11 11 12
REMARK SMILES IDX 21 13 10 14 15 15 16 16 17 17 4 18 3 19 2 20 1 21
REMARK H PARENT
ROOT
ATOM      1  C   UNL     1      -9.572   8.111  12.750  1.00  0.00     0.122 C 
ATOM      2  C   UNL     1      -8.659   9.241  13.136  1.00  0.00     0.039 C 
ATOM      3  C   UNL     1     -10.085   9.525  12.759  1.00  0.00     0.026 C 
ENDROOT
BRANCH   1   4
ATOM      4  O   UNL     1      -9.284   7.538  11.460  1.00  0.00    -0.371 OA
BRANCH   4   5
ATOM      5  C   UNL     1      -9.644   6.156  11.302  1.00  0.00     0.158 C 
ATOM      6  C   UNL     1     -10.991   6.269   6.265  1.00  0.00    -0.003 C 
ATOM      7  C   UNL     1     -11.597   6.786   7.575  1.00  0.00     0.052 C 
ATOM      8  C   UNL     1      -9.460   6.302   6.365  1.00  0.00     0.019 C 
ATOM      9  C   UNL     1     -11.033   6.045   8.795  1.00  0.00     0.189 C 
ATOM     10  C   UNL     1      -8.966   5.577   7.617  1.00  0.00     0.087 C 
ATOM     11  N   UNL     1      -9.574   6.141   8.822  1.00  0.00    -0.276 NA
ATOM     12  O   UNL     1     -11.631   6.641   9.948  1.00  0.00    -0.360 OA
ATOM     13  C   UNL     1      -9.044   5.514  10.038  1.00  0.00     0.121 C 
ATOM     14  C   UNL     1     -11.169   6.072  11.177  1.00  0.00     0.195 C 
BRANCH   6  15
ATOM     15  C   UNL     1     -11.463   7.078   5.078  1.00  0.00    -0.008 C 
ATOM     16  C   UNL     1     -12.641   6.611   4.255  1.00  0.00     0.004 C 
ATOM     17  C   UNL     1     -12.773   7.827   5.124  1.00  0.00     0.004 C 
ENDBRANCH   6  15
ENDBRANCH   4   5
ENDBRANCH   1   4
BRANCH   3  18
ATOM     18  C   UNL     1     -11.041   9.975  13.823  1.00  0.00     0.053 C 
BRANCH  18  19
ATOM     19  C   UNL     1     -12.329  10.593  13.344  1.00  0.00     0.074 C 
BRANCH  19  20
ATOM     20  N   UNL     1     -12.947  10.301  12.248  1.00  0.00    -0.313 NA
ATOM     21  H   UNL     1     -13.754  10.921  12.090  1.00  0.00     0.186 HD
ENDBRANCH  19  20
ENDBRANCH  18  19
ENDBRANCH   3  18
TORSDOF 6
ENDMDL
MODEL 6
REMARK VINA RESULT:    -3.807      5.640      7.105
REMARK INTER + INTRA:          -5.282
REMARK INTER:                  -4.907
REMARK INTRA:                  -0.375
REMARK UNBOUND:                -0.251
REMARK SMILES [H]/N=C\C[C@H]1C[C@@H]1O[C@H]1CO[C@H]2C[C@@H](C3CC3)CCN2C1
REMARK SMILES IDX 7 1 6 2 5 3 8 4 9 5 14 6 13 7 18 8 12 9 19 10 20 11 11 12
REMARK SMILES IDX 21 13 10 14 15 15 16 16 17 17 4 18 3 19 2 20 1 21
REMARK H PARENT
ROOT
ATOM      1  C   UNL     1     -14.819   8.907  12.584  1.00  0.00     0.122 C 
ATOM      2  C   UNL     1     -15.080  10.372  12.371  1.00  0.00     0.039 C 
ATOM      3  C   UNL     1     -15.195   9.416  11.219  1.00  0.00     0.026 C 
ENDROOT
BRANCH   1   4
ATOM      4  O   UNL     1     -13.432   8.582  12.792  1.00  0.00    -0.371 OA
BRANCH   4   5
ATOM      5  C   UNL     1     -13.171   7.244  13.247  1.00  0.00     0.158 C 
ATOM      6  C   UNL     1      -9.958   5.732   9.426  1.00  0.00    -0.003 C 
ATOM      7  C   UNL     1     -11.461   6.009   9.552  1.00  0.00     0.052 C 
ATOM      8  C   UNL     1      -9.190   6.663  10.375  1.00  0.00     0.019 C 
ATOM      9  C   UNL     1     -11.933   5.941  11.011  1.00  0.00     0.189 C 
ATOM     10  C   UNL     1      -9.730   6.574  11.802  1.00  0.00     0.087 C 
ATOM     11  N   UNL     1     -11.162   6.869  11.839  1.00  0.00    -0.276 NA
ATOM     12  O   UNL     1     -13.326   6.259  11.005  1.00  0.00    -0.360 OA
ATOM     13  C   UNL     1     -11.677   6.873  13.213  1.00  0.00     0.121 C 
ATOM     14  C   UNL     1     -13.903   6.273  12.314  1.00  0.00     0.195 C 
BRANCH   6  15
ATOM     15  C   UNL     1      -9.478   5.912   8.003  1.00  0.00    -0.008 C 
ATOM     16  C   UNL     1      -9.668   4.809   6.988  1.00  0.00     0.004 C 
ATOM     17  C   UNL     1     -10.462   6.078   6.870  1.00  0.00     0.004 C 
ENDBRANCH   6  15
ENDBRANCH   4   5
ENDBRANCH   1   4
BRANCH   3  18
ATOM     18  C   UNL     1     -16.551   9.123  10.651  1.00  0.00     0.053 C 
BRANCH  18  19
ATOM     19  C   UNL     1     -16.643   7.941   9.721  1.00  0.00     0.074 C 
BRANCH  19  20
ATOM     20  N   UNL     1     -15.727   7.048   9.538  1.00  0.00    -0.313 NA
ATOM     21  H   UNL     1     -15.133   7.274   8.728  1.00  0.00     0.186 HD
ENDBRANCH  19  20
ENDBRANCH  18  19
ENDBRANCH   3  18
TORSDOF 6
ENDMDL
MODEL 7
REMARK VINA RESULT:    -3.637      6.250      7.935
REMARK INTER + INTRA:          -5.057
REMARK INTER:                  -4.479
REMARK INTRA:                  -0.577
REMARK UNBOUND:                -0.251
REMARK SMILES [H]/N=C\C[C@H]1C[C@@H]1O[C@H]1CO[C@H]2C[C@@H](C3CC3)CCN2C1
REMARK SMILES IDX 7 1 6 2 5 3 8 4 9 5 14 6 13 7 18 8 12 9 19 10 20 11 11 12
REMARK SMILES IDX 21 13 10 14 15 15 16 16 17 17 4 18 3 19 2 20 1 21
REMARK H PARENT
ROOT
ATOM      1  C   UNL     1     -16.140   8.704  11.469  1.00  0.00     0.122 C 
ATOM      2  C   UNL     1     -16.776  10.044  11.229  1.00  0.00     0.039 C 
ATOM      3  C   UNL     1     -15.597   9.616  10.403  1.00  0.00     0.026 C 
ENDROOT
BRANCH   1   4
ATOM      4  O   UNL     1     -15.385   8.623  12.694  1.00  0.00    -0.371 OA
BRANCH   4   5
ATOM      5  C   UNL     1     -15.282   7.312  13.272  1.00  0.00     0.158 C 
ATOM      6  C   UNL     1     -10.538   6.052  11.507  1.00  0.00    -0.003 C 
ATOM      7  C   UNL     1     -11.933   6.207  10.891  1.00  0.00     0.052 C 
ATOM      8  C   UNL     1     -10.383   7.043  12.669  1.00  0.00     0.019 C 
ATOM      9  C   UNL     1     -13.039   6.106  11.951  1.00  0.00     0.189 C 
ATOM     10  C   UNL     1     -11.532   6.916  13.669  1.00  0.00     0.087 C 
ATOM     11  N   UNL     1     -12.824   7.095  13.008  1.00  0.00    -0.276 NA
ATOM     12  O   UNL     1     -14.278   6.311  11.269  1.00  0.00    -0.360 OA
ATOM     13  C   UNL     1     -13.932   7.062  13.968  1.00  0.00     0.121 C 
ATOM     14  C   UNL     1     -15.410   6.283  12.144  1.00  0.00     0.195 C 
BRANCH   6  15
ATOM     15  C   UNL     1      -9.450   6.265  10.479  1.00  0.00    -0.008 C 
ATOM     16  C   UNL     1      -8.636   5.097   9.975  1.00  0.00     0.004 C 
ATOM     17  C   UNL     1      -9.618   5.772   9.062  1.00  0.00     0.004 C 
ENDBRANCH   6  15
ENDBRANCH   4   5
ENDBRANCH   1   4
BRANCH   3  18
ATOM     18  C   UNL     1     -15.805   9.291   8.954  1.00  0.00     0.053 C 
BRANCH  18  19
ATOM     19  C   UNL     1     -14.619   8.720   8.222  1.00  0.00     0.074 C 
BRANCH  19  20
ATOM     20  N   UNL     1     -13.865   7.757   8.638  1.00  0.00    -0.313 NA
ATOM     21  H   UNL     1     -13.554   7.156   7.862  1.00  0.00     0.186 HD
ENDBRANCH  19  20
ENDBRANCH  18  19
ENDBRANCH   3  18
TORSDOF 6
ENDMDL
MODEL 8
REMARK VINA RESULT:    -3.546      5.071      8.346
REMARK INTER + INTRA:          -4.936
REMARK INTER:                  -4.981
REMARK INTRA:                   0.045
REMARK UNBOUND:                -0.251
REMARK SMILES [H]/N=C\C[C@H]1C[C@@H]1O[C@H]1CO[C@H]2C[C@@H](C3CC3)CCN2C1
REMARK SMILES IDX 7 1 6 2 5 3 8 4 9 5 14 6 13 7 18 8 12 9 19 10 20 11 11 12
REMARK SMILES IDX 21 13 10 14 15 15 16 16 17 17 4 18 3 19 2 20 1 21
REMARK H PARENT
ROOT
ATOM      1  C   UNL     1      -9.726   5.796   6.990  1.00  0.00     0.122 C 
ATOM      2  C   UNL     1     -10.092   6.737   5.876  1.00  0.00     0.039 C 
ATOM      3  C   UNL     1      -8.671   6.664   6.359  1.00  0.00     0.026 C 
ENDROOT
BRANCH   1   4
ATOM      4  O   UNL     1     -10.207   6.205   8.285  1.00  0.00    -0.371 OA
BRANCH   4   5
ATOM      5  C   UNL     1     -10.128   5.208   9.317  1.00  0.00     0.158 C 
ATOM      6  C   UNL     1     -10.370   8.360  13.466  1.00  0.00    -0.003 C 
ATOM      7  C   UNL     1      -9.324   8.037  12.392  1.00  0.00     0.052 C 
ATOM      8  C   UNL     1     -11.775   8.236  12.860  1.00  0.00     0.019 C 
ATOM      9  C   UNL     1      -9.598   6.685  11.718  1.00  0.00     0.189 C 
ATOM     10  C   UNL     1     -11.971   6.883  12.176  1.00  0.00     0.087 C 
ATOM     11  N   UNL     1     -10.948   6.660  11.155  1.00  0.00    -0.276 NA
ATOM     12  O   UNL     1      -8.595   6.518  10.715  1.00  0.00    -0.360 OA
ATOM     13  C   UNL     1     -11.173   5.404  10.430  1.00  0.00     0.121 C 
ATOM     14  C   UNL     1      -8.745   5.306   9.969  1.00  0.00     0.195 C 
BRANCH   6  15
ATOM     15  C   UNL     1     -10.162   9.741  14.046  1.00  0.00    -0.008 C 
ATOM     16  C   UNL     1     -10.868  10.150  15.317  1.00  0.00     0.004 C 
ATOM     17  C   UNL     1      -9.382   9.934  15.324  1.00  0.00     0.004 C 
ENDBRANCH   6  15
ENDBRANCH   4   5
ENDBRANCH   1   4
BRANCH   3  18
ATOM     18  C   UNL     1      -7.630   6.060   5.465  1.00  0.00     0.053 C 
BRANCH  18  19
ATOM     19  C   UNL     1      -6.454   6.937   5.124  1.00  0.00     0.074 C 
BRANCH  19  20
ATOM     20  N   UNL     1      -6.442   8.228   5.143  1.00  0.00    -0.313 NA
ATOM     21  H   UNL     1      -5.566   8.605   4.753  1.00  0.00     0.186 HD
ENDBRANCH  19  20
ENDBRANCH  18  19
ENDBRANCH   3  18
TORSDOF 6
ENDMDL
MODEL 9
REMARK VINA RESULT:    -3.307      3.445      4.893
REMARK INTER + INTRA:          -4.621
REMARK INTER:                  -4.630
REMARK INTRA:                   0.009
REMARK UNBOUND:                -0.251
REMARK SMILES [H]/N=C\C[C@H]1C[C@@H]1O[C@H]1CO[C@H]2C[C@@H](C3CC3)CCN2C1
REMARK SMILES IDX 7 1 6 2 5 3 8 4 9 5 14 6 13 7 18 8 12 9 19 10 20 11 11 12
REMARK SMILES IDX 21 13 10 14 15 15 16 16 17 17 4 18 3 19 2 20 1 21
REMARK H PARENT
ROOT
ATOM      1  C   UNL     1     -15.333   5.963   3.727  1.00  0.00     0.122 C 
ATOM      2  C   UNL     1     -16.377   4.962   4.135  1.00  0.00     0.039 C 
ATOM      3  C   UNL     1     -16.573   6.418   4.446  1.00  0.00     0.026 C 
ENDROOT
BRANCH   1   4
ATOM      4  O   UNL     1     -14.123   5.898   4.505  1.00  0.00    -0.371 OA
BRANCH   4   5
ATOM      5  C   UNL     1     -13.221   7.005   4.341  1.00  0.00     0.158 C 
ATOM      6  C   UNL     1      -9.924   5.914   8.232  1.00  0.00    -0.003 C 
ATOM      7  C   UNL     1     -11.363   6.433   8.125  1.00  0.00     0.052 C 
ATOM      8  C   UNL     1      -9.642   4.956   7.066  1.00  0.00     0.019 C 
ATOM      9  C   UNL     1     -11.651   7.031   6.741  1.00  0.00     0.189 C 
ATOM     10  C   UNL     1      -9.981   5.599   5.721  1.00  0.00     0.087 C 
ATOM     11  N   UNL     1     -11.373   6.050   5.693  1.00  0.00    -0.276 NA
ATOM     12  O   UNL     1     -13.022   7.435   6.748  1.00  0.00    -0.360 OA
ATOM     13  C   UNL     1     -11.739   6.590   4.379  1.00  0.00     0.121 C 
ATOM     14  C   UNL     1     -13.450   7.983   5.497  1.00  0.00     0.195 C 
BRANCH   6  15
ATOM     15  C   UNL     1      -9.681   5.224   9.556  1.00  0.00    -0.008 C 
ATOM     16  C   UNL     1      -8.922   5.929  10.656  1.00  0.00     0.004 C 
ATOM     17  C   UNL     1     -10.394   5.677  10.807  1.00  0.00     0.004 C 
ENDBRANCH   6  15
ENDBRANCH   4   5
ENDBRANCH   1   4
BRANCH   3  18
ATOM     18  C   UNL     1     -17.635   7.182   3.713  1.00  0.00     0.053 C 
BRANCH  18  19
ATOM     19  C   UNL     1     -17.635   8.676   3.907  1.00  0.00     0.074 C 
BRANCH  19  20
ATOM     20  N   UNL     1     -16.639   9.386   4.321  1.00  0.00    -0.313 NA
ATOM     21  H   UNL     1     -16.000   8.836   4.913  1.00  0.00     0.186 HD
ENDBRANCH  19  20
ENDBRANCH  18  19
ENDBRANCH   3  18
TORSDOF 6
ENDMDL
