MODEL 1
REMARK VINA RESULT:    -6.106      0.000      0.000
REMARK INTER + INTRA:          -7.654
REMARK INTER:                  -7.177
REMARK INTRA:                  -0.477
REMARK UNBOUND:                -0.477
REMARK SMILES Cc1ccc(CNC(=O)NC(=O)c2ccc(C)cc2)cc1
REMARK SMILES IDX 11 1 12 2 10 3 8 4 9 5 7 6 13 9 19 10 18 11 14 12 16 13
REMARK SMILES IDX 15 14 17 15 6 16 5 17 4 18 20 19 3 20 21 21 2 22 1 23
REMARK H PARENT 10 7 7 8
ROOT
ATOM      1  C   UNL     1     -11.465   6.543   5.551  1.00  0.00     0.259 C 
ATOM      2  O   UNL     1     -10.713   6.323   4.613  1.00  0.00    -0.269 OA
ATOM      3  N   UNL     1     -11.235   6.366   6.919  1.00  0.00    -0.274 N 
ATOM      4  C   UNL     1     -10.162   6.150   7.746  1.00  0.00     0.321 C 
ATOM      5  O   UNL     1     -10.362   6.184   8.965  1.00  0.00    -0.248 OA
ATOM      6  N   UNL     1      -8.911   5.935   7.301  1.00  0.00    -0.334 N 
ATOM      7  H   UNL     1     -12.023   6.599   7.508  1.00  0.00     0.175 HD
ATOM      8  H   UNL     1      -8.221   5.880   8.037  1.00  0.00     0.165 HD
ENDROOT
BRANCH   1   9
ATOM      9  C   UNL     1     -12.801   7.073   5.216  1.00  0.00     0.040 A 
ATOM     10  C   UNL     1     -13.528   6.581   4.130  1.00  0.00     0.014 A 
ATOM     11  C   UNL     1     -14.809   7.076   3.883  1.00  0.00     0.004 A 
ATOM     12  C   UNL     1     -13.323   8.094   6.016  1.00  0.00     0.014 A 
ATOM     13  C   UNL     1     -15.362   8.064   4.712  1.00  0.00    -0.051 A 
ATOM     14  C   UNL     1     -14.605   8.581   5.770  1.00  0.00     0.004 A 
ATOM     15  C   UNL     1     -16.772   8.525   4.485  1.00  0.00     0.044 C 
ENDBRANCH   1   9
BRANCH   6  16
ATOM     16  C   UNL     1      -8.448   5.959   5.942  1.00  0.00     0.153 C 
BRANCH  16  17
ATOM     17  C   UNL     1      -7.457   4.906   5.532  1.00  0.00    -0.029 A 
ATOM     18  C   UNL     1      -6.076   5.046   5.710  1.00  0.00     0.006 A 
ATOM     19  C   UNL     1      -7.968   3.654   5.152  1.00  0.00     0.006 A 
ATOM     20  C   UNL     1      -5.232   3.944   5.534  1.00  0.00     0.004 A 
ATOM     21  C   UNL     1      -7.128   2.558   4.981  1.00  0.00     0.004 A 
ATOM     22  C   UNL     1      -5.753   2.691   5.181  1.00  0.00    -0.051 A 
ATOM     23  C   UNL     1      -4.875   1.477   5.130  1.00  0.00     0.044 C 
ENDBRANCH  16  17
ENDBRANCH   6  16
TORSDOF 3
ENDMDL
MODEL 2
REMARK VINA RESULT:    -6.094      3.026      5.437
REMARK INTER + INTRA:          -7.640
REMARK INTER:                  -7.163
REMARK INTRA:                  -0.477
REMARK UNBOUND:                -0.477
REMARK SMILES Cc1ccc(CNC(=O)NC(=O)c2ccc(C)cc2)cc1
REMARK SMILES IDX 11 1 12 2 10 3 8 4 9 5 7 6 13 9 19 10 18 11 14 12 16 13
REMARK SMILES IDX 15 14 17 15 6 16 5 17 4 18 20 19 3 20 21 21 2 22 1 23
REMARK H PARENT 10 7 7 8
ROOT
ATOM      1  C   UNL     1      -9.773   5.933   8.688  1.00  0.00     0.259 C 
ATOM      2  O   UNL     1      -8.700   5.377   8.495  1.00  0.00    -0.269 OA
ATOM      3  N   UNL     1     -10.696   6.403   7.749  1.00  0.00    -0.274 N 
ATOM      4  C   UNL     1     -10.936   6.263   6.406  1.00  0.00     0.321 C 
ATOM      5  O   UNL     1     -11.976   6.755   5.956  1.00  0.00    -0.248 OA
ATOM      6  N   UNL     1     -10.119   5.597   5.569  1.00  0.00    -0.334 N 
ATOM      7  H   UNL     1     -11.509   6.851   8.152  1.00  0.00     0.175 HD
ATOM      8  H   UNL     1     -10.481   5.512   4.630  1.00  0.00     0.165 HD
ENDROOT
BRANCH   1   9
ATOM      9  C   UNL     1     -10.165   6.140  10.095  1.00  0.00     0.040 A 
ATOM     10  C   UNL     1      -9.240   6.550  11.057  1.00  0.00     0.014 A 
ATOM     11  C   UNL     1      -9.669   6.784  12.363  1.00  0.00     0.004 A 
ATOM     12  C   UNL     1     -11.499   5.906  10.446  1.00  0.00     0.014 A 
ATOM     13  C   UNL     1     -11.016   6.602  12.714  1.00  0.00    -0.051 A 
ATOM     14  C   UNL     1     -11.924   6.147  11.751  1.00  0.00     0.004 A 
ATOM     15  C   UNL     1     -11.478   6.939  14.101  1.00  0.00     0.044 C 
ENDBRANCH   1   9
BRANCH   6  16
ATOM     16  C   UNL     1      -8.927   4.871   5.903  1.00  0.00     0.153 C 
BRANCH  16  17
ATOM     17  C   UNL     1      -7.755   5.003   4.971  1.00  0.00    -0.029 A 
ATOM     18  C   UNL     1      -7.589   4.204   3.835  1.00  0.00     0.006 A 
ATOM     19  C   UNL     1      -6.916   6.116   5.146  1.00  0.00     0.006 A 
ATOM     20  C   UNL     1      -6.616   4.532   2.884  1.00  0.00     0.004 A 
ATOM     21  C   UNL     1      -5.953   6.444   4.198  1.00  0.00     0.004 A 
ATOM     22  C   UNL     1      -5.801   5.660   3.053  1.00  0.00    -0.051 A 
ATOM     23  C   UNL     1      -4.858   6.099   1.973  1.00  0.00     0.044 C 
ENDBRANCH  16  17
ENDBRANCH   6  16
TORSDOF 3
ENDMDL
MODEL 3
REMARK VINA RESULT:    -6.038      3.179      7.355
REMARK INTER + INTRA:          -7.574
REMARK INTER:                  -7.207
REMARK INTRA:                  -0.367
REMARK UNBOUND:                -0.477
REMARK SMILES Cc1ccc(CNC(=O)NC(=O)c2ccc(C)cc2)cc1
REMARK SMILES IDX 11 1 12 2 10 3 8 4 9 5 7 6 13 9 19 10 18 11 14 12 16 13
REMARK SMILES IDX 15 14 17 15 6 16 5 17 4 18 20 19 3 20 21 21 2 22 1 23
REMARK H PARENT 10 7 7 8
ROOT
ATOM      1  C   UNL     1      -8.552   5.486   6.145  1.00  0.00     0.259 C 
ATOM      2  O   UNL     1      -8.156   4.962   7.176  1.00  0.00    -0.269 OA
ATOM      3  N   UNL     1      -9.802   6.051   5.874  1.00  0.00    -0.274 N 
ATOM      4  C   UNL     1     -10.905   6.457   6.580  1.00  0.00     0.321 C 
ATOM      5  O   UNL     1     -11.794   7.055   5.963  1.00  0.00    -0.248 OA
ATOM      6  N   UNL     1     -11.053   6.265   7.904  1.00  0.00    -0.334 N 
ATOM      7  H   UNL     1      -9.904   6.407   4.933  1.00  0.00     0.175 HD
ATOM      8  H   UNL     1     -11.881   6.699   8.288  1.00  0.00     0.165 HD
ENDROOT
BRANCH   1   9
ATOM      9  C   UNL     1      -7.594   5.546   5.024  1.00  0.00     0.040 A 
ATOM     10  C   UNL     1      -7.695   4.682   3.933  1.00  0.00     0.014 A 
ATOM     11  C   UNL     1      -6.798   4.811   2.872  1.00  0.00     0.004 A 
ATOM     12  C   UNL     1      -6.568   6.494   5.087  1.00  0.00     0.014 A 
ATOM     13  C   UNL     1      -5.797   5.793   2.902  1.00  0.00    -0.051 A 
ATOM     14  C   UNL     1      -5.678   6.624   4.023  1.00  0.00     0.004 A 
ATOM     15  C   UNL     1      -4.893   5.975   1.718  1.00  0.00     0.044 C 
ENDBRANCH   1   9
BRANCH   6  16
ATOM     16  C   UNL     1     -10.105   5.692   8.818  1.00  0.00     0.153 C 
BRANCH  16  17
ATOM     17  C   UNL     1     -10.318   5.949  10.284  1.00  0.00    -0.029 A 
ATOM     18  C   UNL     1      -9.320   6.456  11.123  1.00  0.00     0.006 A 
ATOM     19  C   UNL     1     -11.634   5.871  10.766  1.00  0.00     0.006 A 
ATOM     20  C   UNL     1      -9.645   6.897  12.410  1.00  0.00     0.004 A 
ATOM     21  C   UNL     1     -11.957   6.314  12.045  1.00  0.00     0.004 A 
ATOM     22  C   UNL     1     -10.966   6.842  12.874  1.00  0.00    -0.051 A 
ATOM     23  C   UNL     1     -11.346   7.443  14.195  1.00  0.00     0.044 C 
ENDBRANCH  16  17
ENDBRANCH   6  16
TORSDOF 3
ENDMDL
MODEL 4
REMARK VINA RESULT:    -6.032      0.517      8.077
REMARK INTER + INTRA:          -7.567
REMARK INTER:                  -7.201
REMARK INTRA:                  -0.367
REMARK UNBOUND:                -0.477
REMARK SMILES Cc1ccc(CNC(=O)NC(=O)c2ccc(C)cc2)cc1
REMARK SMILES IDX 11 1 12 2 10 3 8 4 9 5 7 6 13 9 19 10 18 11 14 12 16 13
REMARK SMILES IDX 15 14 17 15 6 16 5 17 4 18 20 19 3 20 21 21 2 22 1 23
REMARK H PARENT 10 7 7 8
ROOT
ATOM      1  C   UNL     1      -8.847   5.358   5.728  1.00  0.00     0.259 C 
ATOM      2  O   UNL     1      -9.269   5.897   4.714  1.00  0.00    -0.269 OA
ATOM      3  N   UNL     1      -9.288   5.508   7.046  1.00  0.00    -0.274 N 
ATOM      4  C   UNL     1     -10.375   6.032   7.698  1.00  0.00     0.321 C 
ATOM      5  O   UNL     1     -10.459   5.843   8.916  1.00  0.00    -0.248 OA
ATOM      6  N   UNL     1     -11.360   6.707   7.078  1.00  0.00    -0.334 N 
ATOM      7  H   UNL     1      -8.765   4.970   7.725  1.00  0.00     0.175 HD
ATOM      8  H   UNL     1     -12.130   6.951   7.684  1.00  0.00     0.165 HD
ENDROOT
BRANCH   1   9
ATOM      9  C   UNL     1      -7.726   4.414   5.557  1.00  0.00     0.040 A 
ATOM     10  C   UNL     1      -6.417   4.771   5.887  1.00  0.00     0.014 A 
ATOM     11  C   UNL     1      -5.398   3.828   5.759  1.00  0.00     0.004 A 
ATOM     12  C   UNL     1      -8.008   3.144   5.045  1.00  0.00     0.014 A 
ATOM     13  C   UNL     1      -5.679   2.534   5.294  1.00  0.00    -0.051 A 
ATOM     14  C   UNL     1      -6.988   2.203   4.924  1.00  0.00     0.004 A 
ATOM     15  C   UNL     1      -4.588   1.506   5.242  1.00  0.00     0.044 C 
ENDBRANCH   1   9
BRANCH   6  16
ATOM     16  C   UNL     1     -11.508   6.945   5.670  1.00  0.00     0.153 C 
BRANCH  16  17
ATOM     17  C   UNL     1     -12.868   7.358   5.179  1.00  0.00    -0.029 A 
ATOM     18  C   UNL     1     -13.538   6.699   4.143  1.00  0.00     0.006 A 
ATOM     19  C   UNL     1     -13.565   8.310   5.941  1.00  0.00     0.006 A 
ATOM     20  C   UNL     1     -14.887   6.975   3.896  1.00  0.00     0.004 A 
ATOM     21  C   UNL     1     -14.908   8.579   5.697  1.00  0.00     0.004 A 
ATOM     22  C   UNL     1     -15.584   7.906   4.678  1.00  0.00    -0.051 A 
ATOM     23  C   UNL     1     -17.061   8.101   4.513  1.00  0.00     0.044 C 
ENDBRANCH  16  17
ENDBRANCH   6  16
TORSDOF 3
ENDMDL
MODEL 5
REMARK VINA RESULT:    -5.830      0.110      1.063
REMARK INTER + INTRA:          -7.330
REMARK INTER:                  -6.855
REMARK INTRA:                  -0.475
REMARK UNBOUND:                -0.477
REMARK SMILES Cc1ccc(CNC(=O)NC(=O)c2ccc(C)cc2)cc1
REMARK SMILES IDX 11 1 12 2 10 3 8 4 9 5 7 6 13 9 19 10 18 11 14 12 16 13
REMARK SMILES IDX 15 14 17 15 6 16 5 17 4 18 20 19 3 20 21 21 2 22 1 23
REMARK H PARENT 10 7 7 8
ROOT
ATOM      1  C   UNL     1     -11.469   6.534   5.622  1.00  0.00     0.259 C 
ATOM      2  O   UNL     1     -10.744   6.306   4.664  1.00  0.00    -0.269 OA
ATOM      3  N   UNL     1     -11.194   6.380   6.984  1.00  0.00    -0.274 N 
ATOM      4  C   UNL     1     -10.094   6.187   7.780  1.00  0.00     0.321 C 
ATOM      5  O   UNL     1     -10.256   6.238   9.004  1.00  0.00    -0.248 OA
ATOM      6  N   UNL     1      -8.854   5.978   7.299  1.00  0.00    -0.334 N 
ATOM      7  H   UNL     1     -11.965   6.614   7.595  1.00  0.00     0.175 HD
ATOM      8  H   UNL     1      -8.141   5.941   8.013  1.00  0.00     0.165 HD
ENDROOT
BRANCH   1   9
ATOM      9  C   UNL     1     -12.820   7.045   5.321  1.00  0.00     0.040 A 
ATOM     10  C   UNL     1     -13.406   8.052   6.090  1.00  0.00     0.014 A 
ATOM     11  C   UNL     1     -14.664   8.540   5.735  1.00  0.00     0.004 A 
ATOM     12  C   UNL     1     -13.509   6.485   4.240  1.00  0.00     0.014 A 
ATOM     13  C   UNL     1     -15.341   8.020   4.621  1.00  0.00    -0.051 A 
ATOM     14  C   UNL     1     -14.762   6.979   3.885  1.00  0.00     0.004 A 
ATOM     15  C   UNL     1     -16.654   8.613   4.202  1.00  0.00     0.044 C 
ENDBRANCH   1   9
BRANCH   6  16
ATOM     16  C   UNL     1      -8.435   5.986   5.926  1.00  0.00     0.153 C 
BRANCH  16  17
ATOM     17  C   UNL     1      -7.446   4.936   5.501  1.00  0.00    -0.029 A 
ATOM     18  C   UNL     1      -6.062   5.090   5.640  1.00  0.00     0.006 A 
ATOM     19  C   UNL     1      -7.956   3.676   5.148  1.00  0.00     0.006 A 
ATOM     20  C   UNL     1      -5.214   3.994   5.453  1.00  0.00     0.004 A 
ATOM     21  C   UNL     1      -7.112   2.586   4.968  1.00  0.00     0.004 A 
ATOM     22  C   UNL     1      -5.733   2.732   5.129  1.00  0.00    -0.051 A 
ATOM     23  C   UNL     1      -4.846   1.525   5.067  1.00  0.00     0.044 C 
ENDBRANCH  16  17
ENDBRANCH   6  16
TORSDOF 3
ENDMDL
MODEL 6
REMARK VINA RESULT:    -5.806      3.006      5.403
REMARK INTER + INTRA:          -7.301
REMARK INTER:                  -6.821
REMARK INTRA:                  -0.480
REMARK UNBOUND:                -0.477
REMARK SMILES Cc1ccc(CNC(=O)NC(=O)c2ccc(C)cc2)cc1
REMARK SMILES IDX 11 1 12 2 10 3 8 4 9 5 7 6 13 9 19 10 18 11 14 12 16 13
REMARK SMILES IDX 15 14 17 15 6 16 5 17 4 18 20 19 3 20 21 21 2 22 1 23
REMARK H PARENT 10 7 7 8
ROOT
ATOM      1  C   UNL     1      -9.818   5.964   8.655  1.00  0.00     0.259 C 
ATOM      2  O   UNL     1      -8.740   5.411   8.488  1.00  0.00    -0.269 OA
ATOM      3  N   UNL     1     -10.737   6.398   7.695  1.00  0.00    -0.274 N 
ATOM      4  C   UNL     1     -10.965   6.216   6.355  1.00  0.00     0.321 C 
ATOM      5  O   UNL     1     -12.004   6.686   5.881  1.00  0.00    -0.248 OA
ATOM      6  N   UNL     1     -10.136   5.531   5.545  1.00  0.00    -0.334 N 
ATOM      7  H   UNL     1     -11.556   6.852   8.077  1.00  0.00     0.175 HD
ATOM      8  H   UNL     1     -10.489   5.414   4.606  1.00  0.00     0.165 HD
ENDROOT
BRANCH   1   9
ATOM      9  C   UNL     1     -10.224   6.211  10.052  1.00  0.00     0.040 A 
ATOM     10  C   UNL     1     -11.538   6.006  10.475  1.00  0.00     0.014 A 
ATOM     11  C   UNL     1     -11.863   6.202  11.818  1.00  0.00     0.004 A 
ATOM     12  C   UNL     1      -9.252   6.668  10.948  1.00  0.00     0.014 A 
ATOM     13  C   UNL     1     -10.883   6.610  12.735  1.00  0.00    -0.051 A 
ATOM     14  C   UNL     1      -9.579   6.856  12.289  1.00  0.00     0.004 A 
ATOM     15  C   UNL     1     -11.228   6.735  14.190  1.00  0.00     0.044 C 
ENDBRANCH   1   9
BRANCH   6  16
ATOM     16  C   UNL     1      -8.941   4.824   5.911  1.00  0.00     0.153 C 
BRANCH  16  17
ATOM     17  C   UNL     1      -7.755   4.954   4.996  1.00  0.00    -0.029 A 
ATOM     18  C   UNL     1      -7.554   4.129   3.885  1.00  0.00     0.006 A 
ATOM     19  C   UNL     1      -6.940   6.087   5.157  1.00  0.00     0.006 A 
ATOM     20  C   UNL     1      -6.571   4.451   2.942  1.00  0.00     0.004 A 
ATOM     21  C   UNL     1      -5.966   6.409   4.217  1.00  0.00     0.004 A 
ATOM     22  C   UNL     1      -5.780   5.599   3.095  1.00  0.00    -0.051 A 
ATOM     23  C   UNL     1      -4.826   6.027   2.021  1.00  0.00     0.044 C 
ENDBRANCH  16  17
ENDBRANCH   6  16
TORSDOF 3
ENDMDL
MODEL 7
REMARK VINA RESULT:    -4.455      1.852      2.135
REMARK INTER + INTRA:          -5.713
REMARK INTER:                  -5.299
REMARK INTRA:                  -0.414
REMARK UNBOUND:                -0.477
REMARK SMILES Cc1ccc(CNC(=O)NC(=O)c2ccc(C)cc2)cc1
REMARK SMILES IDX 11 1 12 2 10 3 8 4 9 5 7 6 13 9 19 10 18 11 14 12 16 13
REMARK SMILES IDX 15 14 17 15 6 16 5 17 4 18 20 19 3 20 21 21 2 22 1 23
REMARK H PARENT 10 7 7 8
ROOT
ATOM      1  C   UNL     1     -10.531   6.461   5.590  1.00  0.00     0.259 C 
ATOM      2  O   UNL     1     -10.307   5.260   5.545  1.00  0.00    -0.269 OA
ATOM      3  N   UNL     1      -9.642   7.508   5.854  1.00  0.00    -0.274 N 
ATOM      4  C   UNL     1      -8.284   7.692   5.919  1.00  0.00     0.321 C 
ATOM      5  O   UNL     1      -7.868   8.847   6.055  1.00  0.00    -0.248 OA
ATOM      6  N   UNL     1      -7.391   6.690   5.812  1.00  0.00    -0.334 N 
ATOM      7  H   UNL     1     -10.067   8.425   5.859  1.00  0.00     0.175 HD
ATOM      8  H   UNL     1      -6.431   7.002   5.794  1.00  0.00     0.165 HD
ENDROOT
BRANCH   1   9
ATOM      9  C   UNL     1     -11.920   6.885   5.329  1.00  0.00     0.040 A 
ATOM     10  C   UNL     1     -12.622   6.429   4.211  1.00  0.00     0.014 A 
ATOM     11  C   UNL     1     -13.951   6.815   4.034  1.00  0.00     0.004 A 
ATOM     12  C   UNL     1     -12.518   7.768   6.232  1.00  0.00     0.014 A 
ATOM     13  C   UNL     1     -14.577   7.660   4.963  1.00  0.00    -0.051 A 
ATOM     14  C   UNL     1     -13.848   8.147   6.055  1.00  0.00     0.004 A 
ATOM     15  C   UNL     1     -16.030   7.998   4.804  1.00  0.00     0.044 C 
ENDBRANCH   1   9
BRANCH   6  16
ATOM     16  C   UNL     1      -7.657   5.304   5.549  1.00  0.00     0.153 C 
BRANCH  16  17
ATOM     17  C   UNL     1      -6.683   4.570   4.669  1.00  0.00    -0.029 A 
ATOM     18  C   UNL     1      -6.492   4.879   3.318  1.00  0.00     0.006 A 
ATOM     19  C   UNL     1      -5.791   3.686   5.296  1.00  0.00     0.006 A 
ATOM     20  C   UNL     1      -5.411   4.330   2.621  1.00  0.00     0.004 A 
ATOM     21  C   UNL     1      -4.713   3.144   4.603  1.00  0.00     0.004 A 
ATOM     22  C   UNL     1      -4.508   3.469   3.261  1.00  0.00    -0.051 A 
ATOM     23  C   UNL     1      -3.270   2.991   2.562  1.00  0.00     0.044 C 
ENDBRANCH  16  17
ENDBRANCH   6  16
TORSDOF 3
ENDMDL
MODEL 8
REMARK VINA RESULT:    -4.432      3.860      5.031
REMARK INTER + INTRA:          -5.687
REMARK INTER:                  -5.269
REMARK INTRA:                  -0.417
REMARK UNBOUND:                -0.477
REMARK SMILES Cc1ccc(CNC(=O)NC(=O)c2ccc(C)cc2)cc1
REMARK SMILES IDX 11 1 12 2 10 3 8 4 9 5 7 6 13 9 19 10 18 11 14 12 16 13
REMARK SMILES IDX 15 14 17 15 6 16 5 17 4 18 20 19 3 20 21 21 2 22 1 23
REMARK H PARENT 10 7 7 8
ROOT
ATOM      1  C   UNL     1      -9.511   5.477   7.908  1.00  0.00     0.259 C 
ATOM      2  O   UNL     1      -8.775   6.269   7.336  1.00  0.00    -0.269 OA
ATOM      3  N   UNL     1     -10.032   4.268   7.436  1.00  0.00    -0.274 N 
ATOM      4  C   UNL     1      -9.805   3.406   6.394  1.00  0.00     0.321 C 
ATOM      5  O   UNL     1     -10.413   2.330   6.398  1.00  0.00    -0.248 OA
ATOM      6  N   UNL     1      -8.941   3.657   5.394  1.00  0.00    -0.334 N 
ATOM      7  H   UNL     1     -10.640   3.793   8.089  1.00  0.00     0.175 HD
ATOM      8  H   UNL     1      -8.825   2.886   4.752  1.00  0.00     0.165 HD
ENDROOT
BRANCH   1   9
ATOM      9  C   UNL     1      -9.912   5.824   9.285  1.00  0.00     0.040 A 
ATOM     10  C   UNL     1      -8.968   6.184  10.249  1.00  0.00     0.014 A 
ATOM     11  C   UNL     1      -9.399   6.554  11.523  1.00  0.00     0.004 A 
ATOM     12  C   UNL     1     -11.272   5.774   9.606  1.00  0.00     0.014 A 
ATOM     13  C   UNL     1     -10.766   6.558  11.840  1.00  0.00    -0.051 A 
ATOM     14  C   UNL     1     -11.698   6.151  10.878  1.00  0.00     0.004 A 
ATOM     15  C   UNL     1     -11.219   7.040  13.186  1.00  0.00     0.044 C 
ENDBRANCH   1   9
BRANCH   6  16
ATOM     16  C   UNL     1      -8.067   4.788   5.255  1.00  0.00     0.153 C 
BRANCH  16  17
ATOM     17  C   UNL     1      -6.697   4.537   4.688  1.00  0.00    -0.029 A 
ATOM     18  C   UNL     1      -5.734   3.758   5.337  1.00  0.00     0.006 A 
ATOM     19  C   UNL     1      -6.469   4.931   3.359  1.00  0.00     0.006 A 
ATOM     20  C   UNL     1      -4.577   3.364   4.656  1.00  0.00     0.004 A 
ATOM     21  C   UNL     1      -5.320   4.534   2.682  1.00  0.00     0.004 A 
ATOM     22  C   UNL     1      -4.369   3.738   3.321  1.00  0.00    -0.051 A 
ATOM     23  C   UNL     1      -3.204   3.203   2.543  1.00  0.00     0.044 C 
ENDBRANCH  16  17
ENDBRANCH   6  16
TORSDOF 3
ENDMDL
MODEL 9
REMARK VINA RESULT:    -4.353      6.319      8.186
REMARK INTER + INTRA:          -5.594
REMARK INTER:                  -5.013
REMARK INTRA:                  -0.580
REMARK UNBOUND:                -0.477
REMARK SMILES Cc1ccc(CNC(=O)NC(=O)c2ccc(C)cc2)cc1
REMARK SMILES IDX 11 1 12 2 10 3 8 4 9 5 7 6 13 9 19 10 18 11 14 12 16 13
REMARK SMILES IDX 15 14 17 15 6 16 5 17 4 18 20 19 3 20 21 21 2 22 1 23
REMARK H PARENT 10 7 7 8
ROOT
ATOM      1  C   UNL     1     -13.282   9.781  13.391  1.00  0.00     0.259 C 
ATOM      2  O   UNL     1     -13.548   8.587  13.400  1.00  0.00    -0.269 OA
ATOM      3  N   UNL     1     -12.069  10.409  13.691  1.00  0.00    -0.274 N 
ATOM      4  C   UNL     1     -10.756  10.051  13.856  1.00  0.00     0.321 C 
ATOM      5  O   UNL     1      -9.926  10.958  13.988  1.00  0.00    -0.248 OA
ATOM      6  N   UNL     1     -10.326   8.776  13.850  1.00  0.00    -0.334 N 
ATOM      7  H   UNL     1     -12.097  11.419  13.633  1.00  0.00     0.175 HD
ATOM      8  H   UNL     1      -9.321   8.685  13.897  1.00  0.00     0.165 HD
ENDROOT
BRANCH   1   9
ATOM      9  C   UNL     1     -14.372  10.698  13.008  1.00  0.00     0.040 A 
ATOM     10  C   UNL     1     -14.475  11.977  13.559  1.00  0.00     0.014 A 
ATOM     11  C   UNL     1     -15.493  12.827  13.127  1.00  0.00     0.004 A 
ATOM     12  C   UNL     1     -15.313  10.247  12.077  1.00  0.00     0.014 A 
ATOM     13  C   UNL     1     -16.412  12.403  12.155  1.00  0.00    -0.051 A 
ATOM     14  C   UNL     1     -16.324  11.103  11.644  1.00  0.00     0.004 A 
ATOM     15  C   UNL     1     -17.448  13.358  11.640  1.00  0.00     0.044 C 
ENDBRANCH   1   9
BRANCH   6  16
ATOM     16  C   UNL     1     -11.100   7.591  13.610  1.00  0.00     0.153 C 
BRANCH  16  17
ATOM     17  C   UNL     1     -10.791   6.805  12.366  1.00  0.00    -0.029 A 
ATOM     18  C   UNL     1     -11.780   6.254  11.545  1.00  0.00     0.006 A 
ATOM     19  C   UNL     1      -9.462   6.815  11.913  1.00  0.00     0.006 A 
ATOM     20  C   UNL     1     -11.443   5.747  10.286  1.00  0.00     0.004 A 
ATOM     21  C   UNL     1      -9.128   6.314  10.659  1.00  0.00     0.004 A 
ATOM     22  C   UNL     1     -10.118   5.785   9.829  1.00  0.00    -0.051 A 
ATOM     23  C   UNL     1      -9.772   5.376   8.429  1.00  0.00     0.044 C 
ENDBRANCH  16  17
ENDBRANCH   6  16
TORSDOF 3
ENDMDL
