MODEL 1
REMARK VINA RESULT:    -4.235      0.000      0.000
REMARK INTER + INTRA:          -5.826
REMARK INTER:                  -5.596
REMARK INTRA:                  -0.229
REMARK UNBOUND:                -0.229
REMARK SMILES [H]/N=C\C[C@H]1C[C@@H]1O[C@H]1CO[C@H]2C[C@@H](C3CC3)CCN2C1
REMARK SMILES IDX 7 1 6 2 5 3 8 4 9 5 14 6 13 7 18 8 12 9 19 10 20 11 11 12
REMARK SMILES IDX 21 13 10 14 15 15 16 16 17 17 4 18 3 19 2 20 1 21
REMARK H PARENT
ROOT
ATOM      1  C   UNL     1      -6.508 -10.603   0.486  1.00  0.00     0.122 C 
ATOM      2  C   UNL     1      -7.590 -11.238   1.313  1.00  0.00     0.039 C 
ATOM      3  C   UNL     1      -7.950 -10.458   0.080  1.00  0.00     0.026 C 
ENDROOT
BRANCH   1   4
ATOM      4  O   UNL     1      -5.894  -9.455   1.104  1.00  0.00    -0.371 OA
BRANCH   4   5
ATOM      5  C   UNL     1      -5.016  -9.741   2.205  1.00  0.00     0.158 C 
ATOM      6  C   UNL     1      -1.202  -6.373   1.058  1.00  0.00    -0.003 C 
ATOM      7  C   UNL     1      -1.707  -7.700   0.478  1.00  0.00     0.052 C 
ATOM      8  C   UNL     1      -2.386  -5.593   1.647  1.00  0.00     0.019 C 
ATOM      9  C   UNL     1      -2.532  -8.492   1.501  1.00  0.00     0.189 C 
ATOM     10  C   UNL     1      -3.184  -6.449   2.631  1.00  0.00     0.087 C 
ATOM     11  N   UNL     1      -3.645  -7.683   1.996  1.00  0.00    -0.276 NA
ATOM     12  O   UNL     1      -2.982  -9.674   0.836  1.00  0.00    -0.360 OA
ATOM     13  C   UNL     1      -4.486  -8.475   2.901  1.00  0.00     0.121 C 
ATOM     14  C   UNL     1      -3.804 -10.504   1.662  1.00  0.00     0.195 C 
BRANCH   6  15
ATOM     15  C   UNL     1      -0.489  -5.546   0.013  1.00  0.00    -0.008 C 
ATOM     16  C   UNL     1       0.852  -4.920   0.318  1.00  0.00     0.004 C 
ATOM     17  C   UNL     1       0.763  -6.058  -0.658  1.00  0.00     0.004 C 
ENDBRANCH   6  15
ENDBRANCH   4   5
ENDBRANCH   1   4
BRANCH   3  18
ATOM     18  C   UNL     1      -8.475 -11.193  -1.116  1.00  0.00     0.053 C 
BRANCH  18  19
ATOM     19  C   UNL     1      -9.697 -12.044  -0.892  1.00  0.00     0.074 C 
BRANCH  19  20
ATOM     20  N   UNL     1     -10.923 -11.666  -1.044  1.00  0.00    -0.313 NA
ATOM     21  H   UNL     1     -11.534 -12.055  -0.313  1.00  0.00     0.186 HD
ENDBRANCH  19  20
ENDBRANCH  18  19
ENDBRANCH   3  18
TORSDOF 6
ENDMDL
MODEL 2
REMARK VINA RESULT:    -4.203      3.301      5.540
REMARK INTER + INTRA:          -5.784
REMARK INTER:                  -5.602
REMARK INTRA:                  -0.182
REMARK UNBOUND:                -0.229
REMARK SMILES [H]/N=C\C[C@H]1C[C@@H]1O[C@H]1CO[C@H]2C[C@@H](C3CC3)CCN2C1
REMARK SMILES IDX 7 1 6 2 5 3 8 4 9 5 14 6 13 7 18 8 12 9 19 10 20 11 11 12
REMARK SMILES IDX 21 13 10 14 15 15 16 16 17 17 4 18 3 19 2 20 1 21
REMARK H PARENT
ROOT
ATOM      1  C   UNL     1      -2.725 -11.999   3.191  1.00  0.00     0.122 C 
ATOM      2  C   UNL     1      -2.682 -13.430   2.737  1.00  0.00     0.039 C 
ATOM      3  C   UNL     1      -1.662 -12.925   3.716  1.00  0.00     0.026 C 
ENDROOT
BRANCH   1   4
ATOM      4  O   UNL     1      -2.317 -11.051   2.187  1.00  0.00    -0.371 OA
BRANCH   4   5
ATOM      5  C   UNL     1      -3.243 -10.856   1.106  1.00  0.00     0.158 C 
ATOM      6  C   UNL     1      -2.934  -5.662   0.738  1.00  0.00    -0.003 C 
ATOM      7  C   UNL     1      -3.543  -6.658   1.733  1.00  0.00     0.052 C 
ATOM      8  C   UNL     1      -1.673  -6.275   0.113  1.00  0.00     0.019 C 
ATOM      9  C   UNL     1      -3.768  -8.036   1.094  1.00  0.00     0.189 C 
ATOM     10  C   UNL     1      -1.956  -7.658  -0.473  1.00  0.00     0.087 C 
ATOM     11  N   UNL     1      -2.516  -8.552   0.540  1.00  0.00    -0.276 NA
ATOM     12  O   UNL     1      -4.289  -8.882   2.121  1.00  0.00    -0.360 OA
ATOM     13  C   UNL     1      -2.712  -9.908   0.016  1.00  0.00     0.121 C 
ATOM     14  C   UNL     1      -4.516 -10.224   1.679  1.00  0.00     0.195 C 
BRANCH   6  15
ATOM     15  C   UNL     1      -2.609  -4.343   1.403  1.00  0.00    -0.008 C 
ATOM     16  C   UNL     1      -2.855  -3.041   0.677  1.00  0.00     0.004 C 
ATOM     17  C   UNL     1      -3.709  -3.413   1.855  1.00  0.00     0.004 C 
ENDBRANCH   6  15
ENDBRANCH   4   5
ENDBRANCH   1   4
BRANCH   3  18
ATOM     18  C   UNL     1      -1.713 -13.409   5.134  1.00  0.00     0.053 C 
BRANCH  18  19
ATOM     19  C   UNL     1      -1.573 -14.895   5.336  1.00  0.00     0.074 C 
BRANCH  19  20
ATOM     20  N   UNL     1      -0.466 -15.533   5.523  1.00  0.00    -0.313 NA
ATOM     21  H   UNL     1      -0.550 -16.525   5.261  1.00  0.00     0.186 HD
ENDBRANCH  19  20
ENDBRANCH  18  19
ENDBRANCH   3  18
TORSDOF 6
ENDMDL
MODEL 3
REMARK VINA RESULT:    -4.127      3.687      5.170
REMARK INTER + INTRA:          -5.683
REMARK INTER:                  -5.424
REMARK INTRA:                  -0.259
REMARK UNBOUND:                -0.229
REMARK SMILES [H]/N=C\C[C@H]1C[C@@H]1O[C@H]1CO[C@H]2C[C@@H](C3CC3)CCN2C1
REMARK SMILES IDX 7 1 6 2 5 3 8 4 9 5 14 6 13 7 18 8 12 9 19 10 20 11 11 12
REMARK SMILES IDX 21 13 10 14 15 15 16 16 17 17 4 18 3 19 2 20 1 21
REMARK H PARENT
ROOT
ATOM      1  C   UNL     1      -9.066 -12.299  -1.909  1.00  0.00     0.122 C 
ATOM      2  C   UNL     1      -8.932 -12.484  -3.394  1.00  0.00     0.039 C 
ATOM      3  C   UNL     1      -8.667 -13.637  -2.469  1.00  0.00     0.026 C 
ENDROOT
BRANCH   1   4
ATOM      4  O   UNL     1      -8.017 -11.508  -1.319  1.00  0.00    -0.371 OA
BRANCH   4   5
ATOM      5  C   UNL     1      -8.358 -10.844  -0.091  1.00  0.00     0.158 C 
ATOM      6  C   UNL     1      -3.690 -11.042   2.227  1.00  0.00    -0.003 C 
ATOM      7  C   UNL     1      -4.794 -12.053   1.893  1.00  0.00     0.052 C 
ATOM      8  C   UNL     1      -3.657  -9.951   1.148  1.00  0.00     0.019 C 
ATOM      9  C   UNL     1      -6.145 -11.364   1.659  1.00  0.00     0.189 C 
ATOM     10  C   UNL     1      -5.038  -9.330   0.939  1.00  0.00     0.087 C 
ATOM     11  N   UNL     1      -6.027 -10.354   0.606  1.00  0.00    -0.276 NA
ATOM     12  O   UNL     1      -7.074 -12.393   1.313  1.00  0.00    -0.360 OA
ATOM     13  C   UNL     1      -7.339  -9.765   0.318  1.00  0.00     0.121 C 
ATOM     14  C   UNL     1      -8.383 -11.893   1.026  1.00  0.00     0.195 C 
BRANCH   6  15
ATOM     15  C   UNL     1      -2.340 -11.714   2.344  1.00  0.00    -0.008 C 
ATOM     16  C   UNL     1      -1.814 -12.140   3.695  1.00  0.00     0.004 C 
ATOM     17  C   UNL     1      -2.232 -13.178   2.694  1.00  0.00     0.004 C 
ENDBRANCH   6  15
ENDBRANCH   4   5
ENDBRANCH   1   4
BRANCH   3  18
ATOM     18  C   UNL     1      -9.631 -14.785  -2.444  1.00  0.00     0.053 C 
BRANCH  18  19
ATOM     19  C   UNL     1      -9.173 -16.023  -1.719  1.00  0.00     0.074 C 
BRANCH  19  20
ATOM     20  N   UNL     1      -8.114 -16.124  -0.986  1.00  0.00    -0.313 NA
ATOM     21  H   UNL     1      -8.317 -16.584  -0.087  1.00  0.00     0.186 HD
ENDBRANCH  19  20
ENDBRANCH  18  19
ENDBRANCH   3  18
TORSDOF 6
ENDMDL
MODEL 4
REMARK VINA RESULT:    -4.077      4.914      7.342
REMARK INTER + INTRA:          -5.618
REMARK INTER:                  -5.335
REMARK INTRA:                  -0.283
REMARK UNBOUND:                -0.229
REMARK SMILES [H]/N=C\C[C@H]1C[C@@H]1O[C@H]1CO[C@H]2C[C@@H](C3CC3)CCN2C1
REMARK SMILES IDX 7 1 6 2 5 3 8 4 9 5 14 6 13 7 18 8 12 9 19 10 20 11 11 12
REMARK SMILES IDX 21 13 10 14 15 15 16 16 17 17 4 18 3 19 2 20 1 21
REMARK H PARENT
ROOT
ATOM      1  C   UNL     1      -1.944 -14.176   6.150  1.00  0.00     0.122 C 
ATOM      2  C   UNL     1      -1.992 -13.770   7.596  1.00  0.00     0.039 C 
ATOM      3  C   UNL     1      -3.130 -14.546   6.999  1.00  0.00     0.026 C 
ENDROOT
BRANCH   1   4
ATOM      4  O   UNL     1      -2.127 -13.085   5.228  1.00  0.00    -0.371 OA
BRANCH   4   5
ATOM      5  C   UNL     1      -1.604 -13.297   3.906  1.00  0.00     0.158 C 
ATOM      6  C   UNL     1      -5.117 -10.529   1.222  1.00  0.00    -0.003 C 
ATOM      7  C   UNL     1      -5.113 -11.867   1.972  1.00  0.00     0.052 C 
ATOM      8  C   UNL     1      -4.150  -9.558   1.913  1.00  0.00     0.019 C 
ATOM      9  C   UNL     1      -3.692 -12.419   2.146  1.00  0.00     0.189 C 
ATOM     10  C   UNL     1      -2.764 -10.179   2.086  1.00  0.00     0.087 C 
ATOM     11  N   UNL     1      -2.844 -11.439   2.825  1.00  0.00    -0.276 NA
ATOM     12  O   UNL     1      -3.813 -13.632   2.891  1.00  0.00    -0.360 OA
ATOM     13  C   UNL     1      -1.513 -12.004   3.076  1.00  0.00     0.121 C 
ATOM     14  C   UNL     1      -2.551 -14.248   3.167  1.00  0.00     0.195 C 
BRANCH   6  15
ATOM     15  C   UNL     1      -6.506  -9.935   1.154  1.00  0.00    -0.008 C 
ATOM     16  C   UNL     1      -7.337 -10.078  -0.099  1.00  0.00     0.004 C 
ATOM     17  C   UNL     1      -7.727 -10.823   1.144  1.00  0.00     0.004 C 
ENDBRANCH   6  15
ENDBRANCH   4   5
ENDBRANCH   1   4
BRANCH   3  18
ATOM     18  C   UNL     1      -3.342 -15.969   7.422  1.00  0.00     0.053 C 
BRANCH  18  19
ATOM     19  C   UNL     1      -4.742 -16.506   7.277  1.00  0.00     0.074 C 
BRANCH  19  20
ATOM     20  N   UNL     1      -5.704 -15.945   6.624  1.00  0.00    -0.313 NA
ATOM     21  H   UNL     1      -5.996 -15.060   7.064  1.00  0.00     0.186 HD
ENDBRANCH  19  20
ENDBRANCH  18  19
ENDBRANCH   3  18
TORSDOF 6
ENDMDL
MODEL 5
REMARK VINA RESULT:    -3.932      2.709      8.548
REMARK INTER + INTRA:          -5.426
REMARK INTER:                  -5.249
REMARK INTRA:                  -0.176
REMARK UNBOUND:                -0.229
REMARK SMILES [H]/N=C\C[C@H]1C[C@@H]1O[C@H]1CO[C@H]2C[C@@H](C3CC3)CCN2C1
REMARK SMILES IDX 7 1 6 2 5 3 8 4 9 5 14 6 13 7 18 8 12 9 19 10 20 11 11 12
REMARK SMILES IDX 21 13 10 14 15 15 16 16 17 17 4 18 3 19 2 20 1 21
REMARK H PARENT
ROOT
ATOM      1  C   UNL     1      -4.244 -10.031   1.228  1.00  0.00     0.122 C 
ATOM      2  C   UNL     1      -2.966 -10.805   1.380  1.00  0.00     0.039 C 
ATOM      3  C   UNL     1      -3.202  -9.984   0.144  1.00  0.00     0.026 C 
ENDROOT
BRANCH   1   4
ATOM      4  O   UNL     1      -5.401 -10.851   0.976  1.00  0.00    -0.371 OA
BRANCH   4   5
ATOM      5  C   UNL     1      -6.655 -10.309   1.424  1.00  0.00     0.158 C 
ATOM      6  C   UNL     1      -9.850 -13.186  -1.530  1.00  0.00    -0.003 C 
ATOM      7  C   UNL     1      -8.874 -12.028  -1.773  1.00  0.00     0.052 C 
ATOM      8  C   UNL     1      -9.327 -14.057  -0.379  1.00  0.00     0.019 C 
ATOM      9  C   UNL     1      -8.580 -11.250  -0.484  1.00  0.00     0.189 C 
ATOM     10  C   UNL     1      -9.021 -13.218   0.862  1.00  0.00     0.087 C 
ATOM     11  N   UNL     1      -8.071 -12.150   0.551  1.00  0.00    -0.276 NA
ATOM     12  O   UNL     1      -7.632 -10.236  -0.825  1.00  0.00    -0.360 OA
ATOM     13  C   UNL     1      -7.700 -11.390   1.750  1.00  0.00     0.121 C 
ATOM     14  C   UNL     1      -7.229  -9.445   0.297  1.00  0.00     0.195 C 
BRANCH   6  15
ATOM     15  C   UNL     1     -10.047 -14.017  -2.777  1.00  0.00    -0.008 C 
ATOM     16  C   UNL     1     -11.366 -14.706  -3.035  1.00  0.00     0.004 C 
ATOM     17  C   UNL     1     -10.952 -13.542  -3.888  1.00  0.00     0.004 C 
ENDBRANCH   6  15
ENDBRANCH   4   5
ENDBRANCH   1   4
BRANCH   3  18
ATOM     18  C   UNL     1      -2.390  -8.743  -0.070  1.00  0.00     0.053 C 
BRANCH  18  19
ATOM     19  C   UNL     1      -1.752  -8.590  -1.426  1.00  0.00     0.074 C 
BRANCH  19  20
ATOM     20  N   UNL     1      -1.447  -9.551  -2.232  1.00  0.00    -0.313 NA
ATOM     21  H   UNL     1      -1.656 -10.472  -1.821  1.00  0.00     0.186 HD
ENDBRANCH  19  20
ENDBRANCH  18  19
ENDBRANCH   3  18
TORSDOF 6
ENDMDL
MODEL 6
REMARK VINA RESULT:    -3.916      5.133      8.363
REMARK INTER + INTRA:          -5.404
REMARK INTER:                  -5.135
REMARK INTRA:                  -0.268
REMARK UNBOUND:                -0.229
REMARK SMILES [H]/N=C\C[C@H]1C[C@@H]1O[C@H]1CO[C@H]2C[C@@H](C3CC3)CCN2C1
REMARK SMILES IDX 7 1 6 2 5 3 8 4 9 5 14 6 13 7 18 8 12 9 19 10 20 11 11 12
REMARK SMILES IDX 21 13 10 14 15 15 16 16 17 17 4 18 3 19 2 20 1 21
REMARK H PARENT
ROOT
ATOM      1  C   UNL     1      -3.758 -10.093   1.995  1.00  0.00     0.122 C 
ATOM      2  C   UNL     1      -5.186  -9.661   1.817  1.00  0.00     0.039 C 
ATOM      3  C   UNL     1      -4.319  -8.979   2.837  1.00  0.00     0.026 C 
ENDROOT
BRANCH   1   4
ATOM      4  O   UNL     1      -3.608 -11.373   2.637  1.00  0.00    -0.371 OA
BRANCH   4   5
ATOM      5  C   UNL     1      -2.496 -12.165   2.187  1.00  0.00     0.158 C 
ATOM      6  C   UNL     1      -2.307 -15.564   6.139  1.00  0.00    -0.003 C 
ATOM      7  C   UNL     1      -1.963 -14.082   5.948  1.00  0.00     0.052 C 
ATOM      8  C   UNL     1      -3.488 -15.932   5.229  1.00  0.00     0.019 C 
ATOM      9  C   UNL     1      -1.746 -13.733   4.469  1.00  0.00     0.189 C 
ATOM     10  C   UNL     1      -3.223 -15.528   3.779  1.00  0.00     0.087 C 
ATOM     11  N   UNL     1      -2.922 -14.100   3.680  1.00  0.00    -0.276 NA
ATOM     12  O   UNL     1      -1.480 -12.330   4.415  1.00  0.00    -0.360 OA
ATOM     13  C   UNL     1      -2.751 -13.679   2.285  1.00  0.00     0.121 C 
ATOM     14  C   UNL     1      -1.293 -11.847   3.081  1.00  0.00     0.195 C 
BRANCH   6  15
ATOM     15  C   UNL     1      -2.631 -15.877   7.582  1.00  0.00    -0.008 C 
ATOM     16  C   UNL     1      -2.023 -17.084   8.257  1.00  0.00     0.004 C 
ATOM     17  C   UNL     1      -1.591 -15.705   8.663  1.00  0.00     0.004 C 
ENDBRANCH   6  15
ENDBRANCH   4   5
ENDBRANCH   1   4
BRANCH   3  18
ATOM     18  C   UNL     1      -3.893  -7.562   2.597  1.00  0.00     0.053 C 
BRANCH  18  19
ATOM     19  C   UNL     1      -3.894  -6.653   3.799  1.00  0.00     0.074 C 
BRANCH  19  20
ATOM     20  N   UNL     1      -4.751  -6.676   4.764  1.00  0.00    -0.313 NA
ATOM     21  H   UNL     1      -4.792  -7.602   5.214  1.00  0.00     0.186 HD
ENDBRANCH  19  20
ENDBRANCH  18  19
ENDBRANCH   3  18
TORSDOF 6
ENDMDL
MODEL 7
REMARK VINA RESULT:    -3.833      3.664      6.097
REMARK INTER + INTRA:          -5.295
REMARK INTER:                  -4.947
REMARK INTRA:                  -0.348
REMARK UNBOUND:                -0.229
REMARK SMILES [H]/N=C\C[C@H]1C[C@@H]1O[C@H]1CO[C@H]2C[C@@H](C3CC3)CCN2C1
REMARK SMILES IDX 7 1 6 2 5 3 8 4 9 5 14 6 13 7 18 8 12 9 19 10 20 11 11 12
REMARK SMILES IDX 21 13 10 14 15 15 16 16 17 17 4 18 3 19 2 20 1 21
REMARK H PARENT
ROOT
ATOM      1  C   UNL     1      -9.567 -13.739  -2.021  1.00  0.00     0.122 C 
ATOM      2  C   UNL     1      -8.643 -13.984  -3.180  1.00  0.00     0.039 C 
ATOM      3  C   UNL     1      -9.944 -14.729  -3.089  1.00  0.00     0.026 C 
ENDROOT
BRANCH   1   4
ATOM      4  O   UNL     1      -9.100 -14.284  -0.772  1.00  0.00    -0.371 OA
BRANCH   4   5
ATOM      5  C   UNL     1      -9.680 -13.710   0.410  1.00  0.00     0.158 C 
ATOM      6  C   UNL     1      -6.025 -10.128   1.415  1.00  0.00    -0.003 C 
ATOM      7  C   UNL     1      -6.122 -11.655   1.513  1.00  0.00     0.052 C 
ATOM      8  C   UNL     1      -6.882  -9.639   0.239  1.00  0.00     0.019 C 
ATOM      9  C   UNL     1      -7.580 -12.131   1.561  1.00  0.00     0.189 C 
ATOM     10  C   UNL     1      -8.310 -10.176   0.328  1.00  0.00     0.087 C 
ATOM     11  N   UNL     1      -8.318 -11.637   0.399  1.00  0.00    -0.276 NA
ATOM     12  O   UNL     1      -7.542 -13.559   1.604  1.00  0.00    -0.360 OA
ATOM     13  C   UNL     1      -9.684 -12.171   0.397  1.00  0.00     0.121 C 
ATOM     14  C   UNL     1      -8.844 -14.154   1.615  1.00  0.00     0.195 C 
BRANCH   6  15
ATOM     15  C   UNL     1      -4.592  -9.672   1.253  1.00  0.00    -0.008 C 
ATOM     16  C   UNL     1      -3.954  -8.775   2.286  1.00  0.00     0.004 C 
ATOM     17  C   UNL     1      -3.505 -10.201   2.157  1.00  0.00     0.004 C 
ENDBRANCH   6  15
ENDBRANCH   4   5
ENDBRANCH   1   4
BRANCH   3  18
ATOM     18  C   UNL     1     -11.035 -14.408  -4.067  1.00  0.00     0.053 C 
BRANCH  18  19
ATOM     19  C   UNL     1     -11.335 -15.463  -5.100  1.00  0.00     0.074 C 
BRANCH  19  20
ATOM     20  N   UNL     1     -11.086 -15.377  -6.364  1.00  0.00    -0.313 NA
ATOM     21  H   UNL     1     -11.844 -14.894  -6.868  1.00  0.00     0.186 HD
ENDBRANCH  19  20
ENDBRANCH  18  19
ENDBRANCH   3  18
TORSDOF 6
ENDMDL
MODEL 8
REMARK VINA RESULT:    -3.827      5.333      8.110
REMARK INTER + INTRA:          -5.287
REMARK INTER:                  -5.504
REMARK INTRA:                   0.217
REMARK UNBOUND:                -0.229
REMARK SMILES [H]/N=C\C[C@H]1C[C@@H]1O[C@H]1CO[C@H]2C[C@@H](C3CC3)CCN2C1
REMARK SMILES IDX 7 1 6 2 5 3 8 4 9 5 14 6 13 7 18 8 12 9 19 10 20 11 11 12
REMARK SMILES IDX 21 13 10 14 15 15 16 16 17 17 4 18 3 19 2 20 1 21
REMARK H PARENT
ROOT
ATOM      1  C   UNL     1      -1.852 -14.083   6.416  1.00  0.00     0.122 C 
ATOM      2  C   UNL     1      -2.666 -14.332   7.654  1.00  0.00     0.039 C 
ATOM      3  C   UNL     1      -2.068 -15.489   6.906  1.00  0.00     0.026 C 
ENDROOT
BRANCH   1   4
ATOM      4  O   UNL     1      -2.629 -13.671   5.275  1.00  0.00    -0.371 OA
BRANCH   4   5
ATOM      5  C   UNL     1      -1.961 -13.757   4.006  1.00  0.00     0.158 C 
ATOM      6  C   UNL     1      -5.002 -10.499   1.297  1.00  0.00    -0.003 C 
ATOM      7  C   UNL     1      -5.146 -11.913   1.873  1.00  0.00     0.052 C 
ATOM      8  C   UNL     1      -4.083  -9.672   2.208  1.00  0.00     0.019 C 
ATOM      9  C   UNL     1      -3.781 -12.561   2.139  1.00  0.00     0.189 C 
ATOM     10  C   UNL     1      -2.757 -10.387   2.461  1.00  0.00     0.087 C 
ATOM     11  N   UNL     1      -2.980 -11.718   3.026  1.00  0.00    -0.276 NA
ATOM     12  O   UNL     1      -4.043 -13.844   2.712  1.00  0.00    -0.360 OA
ATOM     13  C   UNL     1      -1.714 -12.384   3.356  1.00  0.00     0.121 C 
ATOM     14  C   UNL     1      -2.851 -14.560   3.052  1.00  0.00     0.195 C 
BRANCH   6  15
ATOM     15  C   UNL     1      -6.345  -9.822   1.144  1.00  0.00    -0.008 C 
ATOM     16  C   UNL     1      -7.140  -9.984  -0.131  1.00  0.00     0.004 C 
ATOM     17  C   UNL     1      -7.621 -10.629   1.136  1.00  0.00     0.004 C 
ENDBRANCH   6  15
ENDBRANCH   4   5
ENDBRANCH   1   4
BRANCH   3  18
ATOM     18  C   UNL     1      -0.940 -16.254   7.530  1.00  0.00     0.053 C 
BRANCH  18  19
ATOM     19  C   UNL     1      -0.143 -17.138   6.607  1.00  0.00     0.074 C 
BRANCH  19  20
ATOM     20  N   UNL     1       1.058 -16.912   6.191  1.00  0.00    -0.313 NA
ATOM     21  H   UNL     1       1.698 -17.679   6.440  1.00  0.00     0.186 HD
ENDBRANCH  19  20
ENDBRANCH  18  19
ENDBRANCH   3  18
TORSDOF 6
ENDMDL
