MODEL 1
REMARK VINA RESULT:    -6.118      0.000      0.000
REMARK INTER + INTRA:          -7.664
REMARK INTER:                  -7.190
REMARK INTRA:                  -0.473
REMARK UNBOUND:                -0.473
REMARK SMILES Cc1ccc(CNC(=O)NC(=O)c2ccc(C)cc2)cc1
REMARK SMILES IDX 11 1 12 2 10 3 8 4 9 5 7 6 13 9 19 10 18 11 14 12 16 13
REMARK SMILES IDX 15 14 17 15 6 16 5 17 4 18 20 19 3 20 21 21 2 22 1 23
REMARK H PARENT 10 7 7 8
ROOT
ATOM      1  C   UNL     1      -5.907 -10.289   0.903  1.00  0.00     0.259 C 
ATOM      2  O   UNL     1      -5.804  -9.109   0.601  1.00  0.00    -0.269 OA
ATOM      3  N   UNL     1      -4.956 -11.130   1.489  1.00  0.00    -0.274 N 
ATOM      4  C   UNL     1      -3.753 -11.002   2.135  1.00  0.00     0.321 C 
ATOM      5  O   UNL     1      -3.265 -12.018   2.644  1.00  0.00    -0.248 OA
ATOM      6  N   UNL     1      -3.099  -9.834   2.268  1.00  0.00    -0.334 N 
ATOM      7  H   UNL     1      -5.268 -12.082   1.626  1.00  0.00     0.175 HD
ATOM      8  H   UNL     1      -2.271  -9.893   2.844  1.00  0.00     0.165 HD
ENDROOT
BRANCH   1   9
ATOM      9  C   UNL     1      -7.207 -10.931   0.624  1.00  0.00     0.040 A 
ATOM     10  C   UNL     1      -7.905 -10.678  -0.558  1.00  0.00     0.014 A 
ATOM     11  C   UNL     1      -9.104 -11.348  -0.801  1.00  0.00     0.004 A 
ATOM     12  C   UNL     1      -7.729 -11.802   1.586  1.00  0.00     0.014 A 
ATOM     13  C   UNL     1      -9.611 -12.263   0.135  1.00  0.00    -0.051 A 
ATOM     14  C   UNL     1      -8.924 -12.474   1.336  1.00  0.00     0.004 A 
ATOM     15  C   UNL     1     -10.856 -13.039  -0.179  1.00  0.00     0.044 C 
ENDBRANCH   1   9
BRANCH   6  16
ATOM     16  C   UNL     1      -3.536  -8.533   1.847  1.00  0.00     0.153 C 
BRANCH  16  17
ATOM     17  C   UNL     1      -2.505  -7.621   1.242  1.00  0.00    -0.029 A 
ATOM     18  C   UNL     1      -1.683  -6.785   2.005  1.00  0.00     0.006 A 
ATOM     19  C   UNL     1      -2.226  -7.783  -0.125  1.00  0.00     0.006 A 
ATOM     20  C   UNL     1      -0.589  -6.146   1.411  1.00  0.00     0.004 A 
ATOM     21  C   UNL     1      -1.135  -7.151  -0.713  1.00  0.00     0.004 A 
ATOM     22  C   UNL     1      -0.300  -6.335   0.052  1.00  0.00    -0.051 A 
ATOM     23  C   UNL     1       0.948  -5.770  -0.557  1.00  0.00     0.044 C 
ENDBRANCH  16  17
ENDBRANCH   6  16
TORSDOF 3
ENDMDL
MODEL 2
REMARK VINA RESULT:    -6.103      3.038      5.441
REMARK INTER + INTRA:          -7.646
REMARK INTER:                  -7.175
REMARK INTRA:                  -0.471
REMARK UNBOUND:                -0.473
REMARK SMILES Cc1ccc(CNC(=O)NC(=O)c2ccc(C)cc2)cc1
REMARK SMILES IDX 11 1 12 2 10 3 8 4 9 5 7 6 13 9 19 10 18 11 14 12 16 13
REMARK SMILES IDX 15 14 17 15 6 16 5 17 4 18 20 19 3 20 21 21 2 22 1 23
REMARK H PARENT 10 7 7 8
ROOT
ATOM      1  C   UNL     1      -2.898 -11.444   2.573  1.00  0.00     0.259 C 
ATOM      2  O   UNL     1      -2.020 -10.594   2.525  1.00  0.00    -0.269 OA
ATOM      3  N   UNL     1      -4.215 -11.369   2.109  1.00  0.00    -0.274 N 
ATOM      4  C   UNL     1      -4.957 -10.557   1.290  1.00  0.00     0.321 C 
ATOM      5  O   UNL     1      -6.106 -10.917   1.013  1.00  0.00    -0.248 OA
ATOM      6  N   UNL     1      -4.489  -9.415   0.753  1.00  0.00    -0.334 N 
ATOM      7  H   UNL     1      -4.766 -12.199   2.283  1.00  0.00     0.175 HD
ATOM      8  H   UNL     1      -5.128  -8.979   0.104  1.00  0.00     0.165 HD
ENDROOT
BRANCH   1   9
ATOM      9  C   UNL     1      -2.537 -12.731   3.196  1.00  0.00     0.040 A 
ATOM     10  C   UNL     1      -1.730 -12.788   4.334  1.00  0.00     0.014 A 
ATOM     11  C   UNL     1      -1.459 -14.026   4.919  1.00  0.00     0.004 A 
ATOM     12  C   UNL     1      -3.022 -13.904   2.609  1.00  0.00     0.014 A 
ATOM     13  C   UNL     1      -1.984 -15.204   4.368  1.00  0.00    -0.051 A 
ATOM     14  C   UNL     1      -2.754 -15.137   3.200  1.00  0.00     0.004 A 
ATOM     15  C   UNL     1      -1.753 -16.518   5.056  1.00  0.00     0.044 C 
ENDBRANCH   1   9
BRANCH   6  16
ATOM     16  C   UNL     1      -3.163  -8.874   0.862  1.00  0.00     0.153 C 
BRANCH  16  17
ATOM     17  C   UNL     1      -3.037  -7.386   1.032  1.00  0.00    -0.029 A 
ATOM     18  C   UNL     1      -3.020  -6.493  -0.044  1.00  0.00     0.006 A 
ATOM     19  C   UNL     1      -3.154  -6.875   2.336  1.00  0.00     0.006 A 
ATOM     20  C   UNL     1      -3.144  -5.118   0.185  1.00  0.00     0.004 A 
ATOM     21  C   UNL     1      -3.281  -5.509   2.561  1.00  0.00     0.004 A 
ATOM     22  C   UNL     1      -3.288  -4.618   1.486  1.00  0.00    -0.051 A 
ATOM     23  C   UNL     1      -3.563  -3.164   1.729  1.00  0.00     0.044 C 
ENDBRANCH  16  17
ENDBRANCH   6  16
TORSDOF 3
ENDMDL
MODEL 3
REMARK VINA RESULT:    -6.033      3.158      7.352
REMARK INTER + INTRA:          -7.565
REMARK INTER:                  -7.196
REMARK INTRA:                  -0.369
REMARK UNBOUND:                -0.473
REMARK SMILES Cc1ccc(CNC(=O)NC(=O)c2ccc(C)cc2)cc1
REMARK SMILES IDX 11 1 12 2 10 3 8 4 9 5 7 6 13 9 19 10 18 11 14 12 16 13
REMARK SMILES IDX 15 14 17 15 6 16 5 17 4 18 20 19 3 20 21 21 2 22 1 23
REMARK H PARENT 10 7 7 8
ROOT
ATOM      1  C   UNL     1      -3.222  -8.739   1.532  1.00  0.00     0.259 C 
ATOM      2  O   UNL     1      -2.131  -9.255   1.732  1.00  0.00    -0.269 OA
ATOM      3  N   UNL     1      -4.461  -9.359   1.343  1.00  0.00    -0.274 N 
ATOM      4  C   UNL     1      -5.008 -10.604   1.517  1.00  0.00     0.321 C 
ATOM      5  O   UNL     1      -6.227 -10.723   1.353  1.00  0.00    -0.248 OA
ATOM      6  N   UNL     1      -4.296 -11.686   1.883  1.00  0.00    -0.334 N 
ATOM      7  H   UNL     1      -5.225  -8.719   1.172  1.00  0.00     0.175 HD
ATOM      8  H   UNL     1      -4.860 -12.506   2.052  1.00  0.00     0.165 HD
ENDROOT
BRANCH   1   9
ATOM      9  C   UNL     1      -3.258  -7.265   1.487  1.00  0.00     0.040 A 
ATOM     10  C   UNL     1      -3.324  -6.575   0.275  1.00  0.00     0.014 A 
ATOM     11  C   UNL     1      -3.409  -5.182   0.285  1.00  0.00     0.004 A 
ATOM     12  C   UNL     1      -3.216  -6.570   2.700  1.00  0.00     0.014 A 
ATOM     13  C   UNL     1      -3.420  -4.478   1.498  1.00  0.00    -0.051 A 
ATOM     14  C   UNL     1      -3.308  -5.179   2.705  1.00  0.00     0.004 A 
ATOM     15  C   UNL     1      -3.598  -2.988   1.495  1.00  0.00     0.044 C 
ENDBRANCH   1   9
BRANCH   6  16
ATOM     16  C   UNL     1      -2.902 -11.743   2.222  1.00  0.00     0.153 C 
BRANCH  16  17
ATOM     17  C   UNL     1      -2.431 -12.936   3.007  1.00  0.00    -0.029 A 
ATOM     18  C   UNL     1      -1.721 -12.828   4.207  1.00  0.00     0.006 A 
ATOM     19  C   UNL     1      -2.913 -14.195   2.615  1.00  0.00     0.006 A 
ATOM     20  C   UNL     1      -1.523 -13.958   5.007  1.00  0.00     0.004 A 
ATOM     21  C   UNL     1      -2.720 -15.317   3.414  1.00  0.00     0.004 A 
ATOM     22  C   UNL     1      -2.032 -15.207   4.623  1.00  0.00    -0.051 A 
ATOM     23  C   UNL     1      -1.948 -16.390   5.540  1.00  0.00     0.044 C 
ENDBRANCH  16  17
ENDBRANCH   6  16
TORSDOF 3
ENDMDL
MODEL 4
REMARK VINA RESULT:    -6.016      0.537      8.048
REMARK INTER + INTRA:          -7.544
REMARK INTER:                  -7.166
REMARK INTRA:                  -0.379
REMARK UNBOUND:                -0.473
REMARK SMILES Cc1ccc(CNC(=O)NC(=O)c2ccc(C)cc2)cc1
REMARK SMILES IDX 11 1 12 2 10 3 8 4 9 5 7 6 13 9 19 10 18 11 14 12 16 13
REMARK SMILES IDX 15 14 17 15 6 16 5 17 4 18 20 19 3 20 21 21 2 22 1 23
REMARK H PARENT 10 7 7 8
ROOT
ATOM      1  C   UNL     1      -3.505  -8.699   1.186  1.00  0.00     0.259 C 
ATOM      2  O   UNL     1      -4.615  -8.209   1.033  1.00  0.00    -0.269 OA
ATOM      3  N   UNL     1      -3.167  -9.966   1.674  1.00  0.00    -0.274 N 
ATOM      4  C   UNL     1      -3.799 -11.156   1.927  1.00  0.00     0.321 C 
ATOM      5  O   UNL     1      -3.097 -12.122   2.243  1.00  0.00    -0.248 OA
ATOM      6  N   UNL     1      -5.130 -11.330   1.819  1.00  0.00    -0.334 N 
ATOM      7  H   UNL     1      -2.173 -10.139   1.730  1.00  0.00     0.175 HD
ATOM      8  H   UNL     1      -5.427 -12.286   1.954  1.00  0.00     0.165 HD
ENDROOT
BRANCH   1   9
ATOM      9  C   UNL     1      -2.354  -7.859   0.804  1.00  0.00     0.040 A 
ATOM     10  C   UNL     1      -1.619  -7.154   1.759  1.00  0.00     0.014 A 
ATOM     11  C   UNL     1      -0.506  -6.415   1.356  1.00  0.00     0.004 A 
ATOM     12  C   UNL     1      -2.019  -7.781  -0.551  1.00  0.00     0.014 A 
ATOM     13  C   UNL     1      -0.131  -6.372   0.005  1.00  0.00    -0.051 A 
ATOM     14  C   UNL     1      -0.903  -7.047  -0.948  1.00  0.00     0.004 A 
ATOM     15  C   UNL     1       1.117  -5.643  -0.400  1.00  0.00     0.044 C 
ENDBRANCH   1   9
BRANCH   6  16
ATOM     16  C   UNL     1      -6.104 -10.376   1.369  1.00  0.00     0.153 C 
BRANCH  16  17
ATOM     17  C   UNL     1      -7.397 -10.916   0.823  1.00  0.00    -0.029 A 
ATOM     18  C   UNL     1      -7.839 -10.664  -0.480  1.00  0.00     0.006 A 
ATOM     19  C   UNL     1      -8.068 -11.880   1.592  1.00  0.00     0.006 A 
ATOM     20  C   UNL     1      -8.918 -11.384  -1.005  1.00  0.00     0.004 A 
ATOM     21  C   UNL     1      -9.137 -12.599   1.068  1.00  0.00     0.004 A 
ATOM     22  C   UNL     1      -9.565 -12.364  -0.240  1.00  0.00    -0.051 A 
ATOM     23  C   UNL     1     -10.626 -13.237  -0.841  1.00  0.00     0.044 C 
ENDBRANCH  16  17
ENDBRANCH   6  16
TORSDOF 3
ENDMDL
MODEL 5
REMARK VINA RESULT:    -5.840      3.021      5.408
REMARK INTER + INTRA:          -7.337
REMARK INTER:                  -6.858
REMARK INTRA:                  -0.479
REMARK UNBOUND:                -0.473
REMARK SMILES Cc1ccc(CNC(=O)NC(=O)c2ccc(C)cc2)cc1
REMARK SMILES IDX 11 1 12 2 10 3 8 4 9 5 7 6 13 9 19 10 18 11 14 12 16 13
REMARK SMILES IDX 15 14 17 15 6 16 5 17 4 18 20 19 3 20 21 21 2 22 1 23
REMARK H PARENT 10 7 7 8
ROOT
ATOM      1  C   UNL     1      -2.959 -11.466   2.572  1.00  0.00     0.259 C 
ATOM      2  O   UNL     1      -2.062 -10.637   2.526  1.00  0.00    -0.269 OA
ATOM      3  N   UNL     1      -4.268 -11.367   2.089  1.00  0.00    -0.274 N 
ATOM      4  C   UNL     1      -4.979 -10.549   1.250  1.00  0.00     0.321 C 
ATOM      5  O   UNL     1      -6.132 -10.887   0.961  1.00  0.00    -0.248 OA
ATOM      6  N   UNL     1      -4.478  -9.424   0.707  1.00  0.00    -0.334 N 
ATOM      7  H   UNL     1      -4.840 -12.183   2.265  1.00  0.00     0.175 HD
ATOM      8  H   UNL     1      -5.099  -8.981   0.044  1.00  0.00     0.165 HD
ENDROOT
BRANCH   1   9
ATOM      9  C   UNL     1      -2.636 -12.754   3.216  1.00  0.00     0.040 A 
ATOM     10  C   UNL     1      -3.087 -13.965   2.688  1.00  0.00     0.014 A 
ATOM     11  C   UNL     1      -2.712 -15.161   3.302  1.00  0.00     0.004 A 
ATOM     12  C   UNL     1      -1.865 -12.730   4.382  1.00  0.00     0.014 A 
ATOM     13  C   UNL     1      -1.896 -15.150   4.443  1.00  0.00    -0.051 A 
ATOM     14  C   UNL     1      -1.487 -13.927   4.988  1.00  0.00     0.004 A 
ATOM     15  C   UNL     1      -1.431 -16.445   5.041  1.00  0.00     0.044 C 
ENDBRANCH   1   9
BRANCH   6  16
ATOM     16  C   UNL     1      -3.142  -8.912   0.828  1.00  0.00     0.153 C 
BRANCH  16  17
ATOM     17  C   UNL     1      -2.987  -7.431   1.030  1.00  0.00    -0.029 A 
ATOM     18  C   UNL     1      -2.853  -6.525  -0.027  1.00  0.00     0.006 A 
ATOM     19  C   UNL     1      -3.198  -6.933   2.327  1.00  0.00     0.006 A 
ATOM     20  C   UNL     1      -2.955  -5.150   0.211  1.00  0.00     0.004 A 
ATOM     21  C   UNL     1      -3.304  -5.566   2.562  1.00  0.00     0.004 A 
ATOM     22  C   UNL     1      -3.193  -4.663   1.503  1.00  0.00    -0.051 A 
ATOM     23  C   UNL     1      -3.445  -3.204   1.744  1.00  0.00     0.044 C 
ENDBRANCH  16  17
ENDBRANCH   6  16
TORSDOF 3
ENDMDL
MODEL 6
REMARK VINA RESULT:    -5.728      0.946      1.446
REMARK INTER + INTRA:          -7.205
REMARK INTER:                  -6.804
REMARK INTRA:                  -0.401
REMARK UNBOUND:                -0.473
REMARK SMILES Cc1ccc(CNC(=O)NC(=O)c2ccc(C)cc2)cc1
REMARK SMILES IDX 11 1 12 2 10 3 8 4 9 5 7 6 13 9 19 10 18 11 14 12 16 13
REMARK SMILES IDX 15 14 17 15 6 16 5 17 4 18 20 19 3 20 21 21 2 22 1 23
REMARK H PARENT 10 7 7 8
ROOT
ATOM      1  C   UNL     1      -6.244 -10.329   0.977  1.00  0.00     0.259 C 
ATOM      2  O   UNL     1      -6.244  -9.112   0.860  1.00  0.00    -0.269 OA
ATOM      3  N   UNL     1      -5.206 -11.169   1.391  1.00  0.00    -0.274 N 
ATOM      4  C   UNL     1      -3.987 -11.045   2.008  1.00  0.00     0.321 C 
ATOM      5  O   UNL     1      -3.402 -12.083   2.335  1.00  0.00    -0.248 OA
ATOM      6  N   UNL     1      -3.417  -9.861   2.299  1.00  0.00    -0.334 N 
ATOM      7  H   UNL     1      -5.439 -12.153   1.388  1.00  0.00     0.175 HD
ATOM      8  H   UNL     1      -2.562  -9.940   2.830  1.00  0.00     0.165 HD
ENDROOT
BRANCH   1   9
ATOM      9  C   UNL     1      -7.503 -11.024   0.646  1.00  0.00     0.040 A 
ATOM     10  C   UNL     1      -8.152 -10.814  -0.572  1.00  0.00     0.014 A 
ATOM     11  C   UNL     1      -9.312 -11.534  -0.862  1.00  0.00     0.004 A 
ATOM     12  C   UNL     1      -8.039 -11.900   1.595  1.00  0.00     0.014 A 
ATOM     13  C   UNL     1      -9.829 -12.454   0.062  1.00  0.00    -0.051 A 
ATOM     14  C   UNL     1      -9.194 -12.621   1.299  1.00  0.00     0.004 A 
ATOM     15  C   UNL     1     -11.027 -13.282  -0.299  1.00  0.00     0.044 C 
ENDBRANCH   1   9
BRANCH   6  16
ATOM     16  C   UNL     1      -3.970  -8.550   2.102  1.00  0.00     0.153 C 
BRANCH  16  17
ATOM     17  C   UNL     1      -3.019  -7.451   1.720  1.00  0.00    -0.029 A 
ATOM     18  C   UNL     1      -2.302  -7.444   0.519  1.00  0.00     0.006 A 
ATOM     19  C   UNL     1      -3.023  -6.292   2.514  1.00  0.00     0.006 A 
ATOM     20  C   UNL     1      -1.624  -6.289   0.115  1.00  0.00     0.004 A 
ATOM     21  C   UNL     1      -2.353  -5.142   2.109  1.00  0.00     0.004 A 
ATOM     22  C   UNL     1      -1.656  -5.127   0.899  1.00  0.00    -0.051 A 
ATOM     23  C   UNL     1      -1.054  -3.846   0.406  1.00  0.00     0.044 C 
ENDBRANCH  16  17
ENDBRANCH   6  16
TORSDOF 3
ENDMDL
MODEL 7
REMARK VINA RESULT:    -4.760      5.010      8.202
REMARK INTER + INTRA:          -6.068
REMARK INTER:                  -5.636
REMARK INTRA:                  -0.432
REMARK UNBOUND:                -0.473
REMARK SMILES Cc1ccc(CNC(=O)NC(=O)c2ccc(C)cc2)cc1
REMARK SMILES IDX 11 1 12 2 10 3 8 4 9 5 7 6 13 9 19 10 18 11 14 12 16 13
REMARK SMILES IDX 15 14 17 15 6 16 5 17 4 18 20 19 3 20 21 21 2 22 1 23
REMARK H PARENT 10 7 7 8
ROOT
ATOM      1  C   UNL     1     -11.204 -14.474  -2.526  1.00  0.00     0.259 C 
ATOM      2  O   UNL     1     -10.353 -14.880  -1.748  1.00  0.00    -0.269 OA
ATOM      3  N   UNL     1     -11.997 -13.326  -2.434  1.00  0.00    -0.274 N 
ATOM      4  C   UNL     1     -12.024 -12.169  -1.698  1.00  0.00     0.321 C 
ATOM      5  O   UNL     1     -12.845 -11.303  -2.021  1.00  0.00    -0.248 OA
ATOM      6  N   UNL     1     -11.189 -11.919  -0.673  1.00  0.00    -0.334 N 
ATOM      7  H   UNL     1     -12.652 -13.209  -3.196  1.00  0.00     0.175 HD
ATOM      8  H   UNL     1     -11.279 -10.988  -0.292  1.00  0.00     0.165 HD
ENDROOT
BRANCH   1   9
ATOM      9  C   UNL     1     -11.436 -15.287  -3.735  1.00  0.00     0.040 A 
ATOM     10  C   UNL     1     -11.645 -16.665  -3.656  1.00  0.00     0.014 A 
ATOM     11  C   UNL     1     -11.913 -17.384  -4.821  1.00  0.00     0.004 A 
ATOM     12  C   UNL     1     -11.434 -14.638  -4.974  1.00  0.00     0.014 A 
ATOM     13  C   UNL     1     -11.965 -16.734  -6.063  1.00  0.00    -0.051 A 
ATOM     14  C   UNL     1     -11.709 -15.359  -6.134  1.00  0.00     0.004 A 
ATOM     15  C   UNL     1     -12.338 -17.505  -7.295  1.00  0.00     0.044 C 
ENDBRANCH   1   9
BRANCH   6  16
ATOM     16  C   UNL     1     -10.105 -12.737  -0.207  1.00  0.00     0.153 C 
BRANCH  16  17
ATOM     17  C   UNL     1      -8.808 -12.048   0.114  1.00  0.00    -0.029 A 
ATOM     18  C   UNL     1      -8.302 -10.984  -0.641  1.00  0.00     0.006 A 
ATOM     19  C   UNL     1      -8.202 -12.357   1.342  1.00  0.00     0.006 A 
ATOM     20  C   UNL     1      -7.225 -10.233  -0.158  1.00  0.00     0.004 A 
ATOM     21  C   UNL     1      -7.134 -11.606   1.824  1.00  0.00     0.004 A 
ATOM     22  C   UNL     1      -6.643 -10.530   1.082  1.00  0.00    -0.051 A 
ATOM     23  C   UNL     1      -5.586  -9.644   1.671  1.00  0.00     0.044 C 
ENDBRANCH  16  17
ENDBRANCH   6  16
TORSDOF 3
ENDMDL
MODEL 8
REMARK VINA RESULT:    -4.556      2.177      8.243
REMARK INTER + INTRA:          -5.828
REMARK INTER:                  -5.362
REMARK INTRA:                  -0.466
REMARK UNBOUND:                -0.473
REMARK SMILES Cc1ccc(CNC(=O)NC(=O)c2ccc(C)cc2)cc1
REMARK SMILES IDX 11 1 12 2 10 3 8 4 9 5 7 6 13 9 19 10 18 11 14 12 16 13
REMARK SMILES IDX 15 14 17 15 6 16 5 17 4 18 20 19 3 20 21 21 2 22 1 23
REMARK H PARENT 10 7 7 8
ROOT
ATOM      1  C   UNL     1      -6.415 -10.363   1.120  1.00  0.00     0.259 C 
ATOM      2  O   UNL     1      -7.267  -9.789   0.456  1.00  0.00    -0.269 OA
ATOM      3  N   UNL     1      -6.512 -11.578   1.805  1.00  0.00    -0.274 N 
ATOM      4  C   UNL     1      -7.361 -12.654   1.845  1.00  0.00     0.321 C 
ATOM      5  O   UNL     1      -7.014 -13.634   2.513  1.00  0.00    -0.248 OA
ATOM      6  N   UNL     1      -8.527 -12.707   1.175  1.00  0.00    -0.334 N 
ATOM      7  H   UNL     1      -5.674 -11.841   2.307  1.00  0.00     0.175 HD
ATOM      8  H   UNL     1      -8.993 -13.601   1.240  1.00  0.00     0.165 HD
ENDROOT
BRANCH   1   9
ATOM      9  C   UNL     1      -5.100  -9.702   1.221  1.00  0.00     0.040 A 
ATOM     10  C   UNL     1      -4.063 -10.006   0.338  1.00  0.00     0.014 A 
ATOM     11  C   UNL     1      -2.854  -9.317   0.440  1.00  0.00     0.004 A 
ATOM     12  C   UNL     1      -4.915  -8.759   2.237  1.00  0.00     0.014 A 
ATOM     13  C   UNL     1      -2.675  -8.333   1.423  1.00  0.00    -0.051 A 
ATOM     14  C   UNL     1      -3.708  -8.069   2.331  1.00  0.00     0.004 A 
ATOM     15  C   UNL     1      -1.401  -7.542   1.465  1.00  0.00     0.044 C 
ENDBRANCH   1   9
BRANCH   6  16
ATOM     16  C   UNL     1      -9.062 -11.730   0.269  1.00  0.00     0.153 C 
BRANCH  16  17
ATOM     17  C   UNL     1      -9.622 -12.231  -1.034  1.00  0.00    -0.029 A 
ATOM     18  C   UNL     1      -8.824 -12.537  -2.141  1.00  0.00     0.006 A 
ATOM     19  C   UNL     1     -10.977 -12.600  -1.052  1.00  0.00     0.006 A 
ATOM     20  C   UNL     1      -9.371 -13.221  -3.231  1.00  0.00     0.004 A 
ATOM     21  C   UNL     1     -11.519 -13.285  -2.135  1.00  0.00     0.004 A 
ATOM     22  C   UNL     1     -10.718 -13.611  -3.230  1.00  0.00    -0.051 A 
ATOM     23  C   UNL     1     -11.274 -14.467  -4.328  1.00  0.00     0.044 C 
ENDBRANCH  16  17
ENDBRANCH   6  16
TORSDOF 3
ENDMDL
MODEL 9
REMARK VINA RESULT:    -4.552      2.561      8.763
REMARK INTER + INTRA:          -5.823
REMARK INTER:                  -5.475
REMARK INTRA:                  -0.348
REMARK UNBOUND:                -0.473
REMARK SMILES Cc1ccc(CNC(=O)NC(=O)c2ccc(C)cc2)cc1
REMARK SMILES IDX 11 1 12 2 10 3 8 4 9 5 7 6 13 9 19 10 18 11 14 12 16 13
REMARK SMILES IDX 15 14 17 15 6 16 5 17 4 18 20 19 3 20 21 21 2 22 1 23
REMARK H PARENT 10 7 7 8
ROOT
ATOM      1  C   UNL     1      -5.421 -10.737   1.303  1.00  0.00     0.259 C 
ATOM      2  O   UNL     1      -5.261 -11.702   2.037  1.00  0.00    -0.269 OA
ATOM      3  N   UNL     1      -6.507 -10.439   0.473  1.00  0.00    -0.274 N 
ATOM      4  C   UNL     1      -7.799 -10.865   0.304  1.00  0.00     0.321 C 
ATOM      5  O   UNL     1      -8.513 -10.233  -0.483  1.00  0.00    -0.248 OA
ATOM      6  N   UNL     1      -8.332 -11.908   0.967  1.00  0.00    -0.334 N 
ATOM      7  H   UNL     1      -6.402  -9.587  -0.061  1.00  0.00     0.175 HD
ATOM      8  H   UNL     1      -9.319 -12.038   0.794  1.00  0.00     0.165 HD
ENDROOT
BRANCH   1   9
ATOM      9  C   UNL     1      -4.336  -9.737   1.279  1.00  0.00     0.040 A 
ATOM     10  C   UNL     1      -3.331  -9.777   0.310  1.00  0.00     0.014 A 
ATOM     11  C   UNL     1      -2.356  -8.779   0.296  1.00  0.00     0.004 A 
ATOM     12  C   UNL     1      -4.335  -8.745   2.264  1.00  0.00     0.014 A 
ATOM     13  C   UNL     1      -2.375  -7.750   1.249  1.00  0.00    -0.051 A 
ATOM     14  C   UNL     1      -3.362  -7.747   2.243  1.00  0.00     0.004 A 
ATOM     15  C   UNL     1      -1.370  -6.639   1.169  1.00  0.00     0.044 C 
ENDBRANCH   1   9
BRANCH   6  16
ATOM     16  C   UNL     1      -7.714 -12.703   1.990  1.00  0.00     0.153 C 
BRANCH  16  17
ATOM     17  C   UNL     1      -8.613 -13.576   2.822  1.00  0.00    -0.029 A 
ATOM     18  C   UNL     1      -9.847 -13.145   3.320  1.00  0.00     0.006 A 
ATOM     19  C   UNL     1      -8.281 -14.937   2.916  1.00  0.00     0.006 A 
ATOM     20  C   UNL     1     -10.738 -14.069   3.876  1.00  0.00     0.004 A 
ATOM     21  C   UNL     1      -9.170 -15.856   3.465  1.00  0.00     0.004 A 
ATOM     22  C   UNL     1     -10.411 -15.431   3.941  1.00  0.00    -0.051 A 
ATOM     23  C   UNL     1     -11.415 -16.444   4.404  1.00  0.00     0.044 C 
ENDBRANCH  16  17
ENDBRANCH   6  16
TORSDOF 3
ENDMDL
