MODEL 1
REMARK VINA RESULT:    -6.088      0.000      0.000
REMARK INTER + INTRA:          -7.631
REMARK INTER:                  -7.156
REMARK INTRA:                  -0.475
REMARK UNBOUND:                -0.475
REMARK SMILES Cc1ccc(CNC(=O)NC(=O)c2ccc(C)cc2)cc1
REMARK SMILES IDX 11 1 12 2 10 3 8 4 9 5 7 6 13 9 19 10 18 11 14 12 16 13
REMARK SMILES IDX 15 14 17 15 6 16 5 17 4 18 20 19 3 20 21 21 2 22 1 23
REMARK H PARENT 10 7 7 8
ROOT
ATOM      1  C   UNL     1      -3.772 -12.496   1.328  1.00  0.00     0.259 C 
ATOM      2  O   UNL     1      -4.016 -11.311   1.148  1.00  0.00    -0.269 OA
ATOM      3  N   UNL     1      -2.592 -13.087   1.792  1.00  0.00    -0.274 N 
ATOM      4  C   UNL     1      -1.435 -12.688   2.410  1.00  0.00     0.321 C 
ATOM      5  O   UNL     1      -0.657 -13.568   2.794  1.00  0.00    -0.248 OA
ATOM      6  N   UNL     1      -1.121 -11.400   2.643  1.00  0.00    -0.334 N 
ATOM      7  H   UNL     1      -2.621 -14.096   1.838  1.00  0.00     0.175 HD
ATOM      8  H   UNL     1      -0.276 -11.278   3.182  1.00  0.00     0.165 HD
ENDROOT
BRANCH   1   9
ATOM      9  C   UNL     1      -4.858 -13.448   1.025  1.00  0.00     0.040 A 
ATOM     10  C   UNL     1      -5.647 -13.312  -0.119  1.00  0.00     0.014 A 
ATOM     11  C   UNL     1      -6.628 -14.266  -0.390  1.00  0.00     0.004 A 
ATOM     12  C   UNL     1      -5.085 -14.494   1.924  1.00  0.00     0.014 A 
ATOM     13  C   UNL     1      -6.829 -15.349   0.479  1.00  0.00    -0.051 A 
ATOM     14  C   UNL     1      -6.061 -15.449   1.646  1.00  0.00     0.004 A 
ATOM     15  C   UNL     1      -7.829 -16.411   0.130  1.00  0.00     0.044 C 
ENDBRANCH   1   9
BRANCH   6  16
ATOM     16  C   UNL     1      -1.924 -10.240   2.374  1.00  0.00     0.153 C 
BRANCH  16  17
ATOM     17  C   UNL     1      -1.224  -9.031   1.818  1.00  0.00    -0.029 A 
ATOM     18  C   UNL     1      -0.670  -8.032   2.625  1.00  0.00     0.006 A 
ATOM     19  C   UNL     1      -0.942  -9.026   0.442  1.00  0.00     0.006 A 
ATOM     20  C   UNL     1       0.171  -7.065   2.063  1.00  0.00     0.004 A 
ATOM     21  C   UNL     1      -0.102  -8.067  -0.114  1.00  0.00     0.004 A 
ATOM     22  C   UNL     1       0.470  -7.083   0.694  1.00  0.00    -0.051 A 
ATOM     23  C   UNL     1       1.480  -6.140   0.111  1.00  0.00     0.044 C 
ENDBRANCH  16  17
ENDBRANCH   6  16
TORSDOF 3
ENDMDL
MODEL 2
REMARK VINA RESULT:    -6.085      3.043      5.473
REMARK INTER + INTRA:          -7.627
REMARK INTER:                  -7.153
REMARK INTRA:                  -0.475
REMARK UNBOUND:                -0.475
REMARK SMILES Cc1ccc(CNC(=O)NC(=O)c2ccc(C)cc2)cc1
REMARK SMILES IDX 11 1 12 2 10 3 8 4 9 5 7 6 13 9 19 10 18 11 14 12 16 13
REMARK SMILES IDX 15 14 17 15 6 16 5 17 4 18 20 19 3 20 21 21 2 22 1 23
REMARK H PARENT 10 7 7 8
ROOT
ATOM      1  C   UNL     1      -0.416 -12.914   2.767  1.00  0.00     0.259 C 
ATOM      2  O   UNL     1       0.187 -11.850   2.742  1.00  0.00    -0.269 OA
ATOM      3  N   UNL     1      -1.733 -13.182   2.383  1.00  0.00    -0.274 N 
ATOM      4  C   UNL     1      -2.729 -12.560   1.674  1.00  0.00     0.321 C 
ATOM      5  O   UNL     1      -3.751 -13.209   1.430  1.00  0.00    -0.248 OA
ATOM      6  N   UNL     1      -2.636 -11.300   1.209  1.00  0.00    -0.334 N 
ATOM      7  H   UNL     1      -2.019 -14.143   2.516  1.00  0.00     0.175 HD
ATOM      8  H   UNL     1      -3.417 -11.019   0.634  1.00  0.00     0.165 HD
ENDROOT
BRANCH   1   9
ATOM      9  C   UNL     1       0.332 -14.086   3.261  1.00  0.00     0.040 A 
ATOM     10  C   UNL     1       1.163 -14.000   4.380  1.00  0.00     0.014 A 
ATOM     11  C   UNL     1       1.808 -15.148   4.842  1.00  0.00     0.004 A 
ATOM     12  C   UNL     1       0.192 -15.294   2.571  1.00  0.00     0.014 A 
ATOM     13  C   UNL     1       1.633 -16.376   4.187  1.00  0.00    -0.051 A 
ATOM     14  C   UNL     1       0.833 -16.439   3.039  1.00  0.00     0.004 A 
ATOM     15  C   UNL     1       2.265 -17.617   4.745  1.00  0.00     0.044 C 
ENDBRANCH   1   9
BRANCH   6  16
ATOM     16  C   UNL     1      -1.506 -10.417   1.291  1.00  0.00     0.153 C 
BRANCH  16  17
ATOM     17  C   UNL     1      -1.781  -8.972   1.602  1.00  0.00    -0.029 A 
ATOM     18  C   UNL     1      -2.028  -8.012   0.615  1.00  0.00     0.006 A 
ATOM     19  C   UNL     1      -2.003  -8.635   2.948  1.00  0.00     0.006 A 
ATOM     20  C   UNL     1      -2.511  -6.749   0.973  1.00  0.00     0.004 A 
ATOM     21  C   UNL     1      -2.488  -7.380   3.301  1.00  0.00     0.004 A 
ATOM     22  C   UNL     1      -2.757  -6.429   2.315  1.00  0.00    -0.051 A 
ATOM     23  C   UNL     1      -3.407  -5.132   2.693  1.00  0.00     0.044 C 
ENDBRANCH  16  17
ENDBRANCH   6  16
TORSDOF 3
ENDMDL
MODEL 3
REMARK VINA RESULT:    -6.019      0.530      8.069
REMARK INTER + INTRA:          -7.550
REMARK INTER:                  -7.180
REMARK INTRA:                  -0.370
REMARK UNBOUND:                -0.475
REMARK SMILES Cc1ccc(CNC(=O)NC(=O)c2ccc(C)cc2)cc1
REMARK SMILES IDX 11 1 12 2 10 3 8 4 9 5 7 6 13 9 19 10 18 11 14 12 16 13
REMARK SMILES IDX 15 14 17 15 6 16 5 17 4 18 20 19 3 20 21 21 2 22 1 23
REMARK H PARENT 10 7 7 8
ROOT
ATOM      1  C   UNL     1      -1.860 -10.285   1.652  1.00  0.00     0.259 C 
ATOM      2  O   UNL     1      -3.066 -10.114   1.540  1.00  0.00    -0.269 OA
ATOM      3  N   UNL     1      -1.172 -11.439   2.040  1.00  0.00    -0.274 N 
ATOM      4  C   UNL     1      -1.441 -12.774   2.198  1.00  0.00     0.321 C 
ATOM      5  O   UNL     1      -0.490 -13.526   2.437  1.00  0.00    -0.248 OA
ATOM      6  N   UNL     1      -2.672 -13.304   2.078  1.00  0.00    -0.334 N 
ATOM      7  H   UNL     1      -0.167 -11.331   2.080  1.00  0.00     0.175 HD
ATOM      8  H   UNL     1      -2.688 -14.312   2.139  1.00  0.00     0.165 HD
ENDROOT
BRANCH   1   9
ATOM      9  C   UNL     1      -0.998  -9.130   1.337  1.00  0.00     0.040 A 
ATOM     10  C   UNL     1      -0.485  -8.308   2.342  1.00  0.00     0.014 A 
ATOM     11  C   UNL     1       0.369  -7.260   1.999  1.00  0.00     0.004 A 
ATOM     12  C   UNL     1      -0.710  -8.873  -0.007  1.00  0.00     0.014 A 
ATOM     13  C   UNL     1       0.706  -7.025   0.657  1.00  0.00    -0.051 A 
ATOM     14  C   UNL     1       0.148  -7.828  -0.345  1.00  0.00     0.004 A 
ATOM     15  C   UNL     1       1.691  -5.948   0.312  1.00  0.00     0.044 C 
ENDBRANCH   1   9
BRANCH   6  16
ATOM     16  C   UNL     1      -3.884 -12.630   1.706  1.00  0.00     0.153 C 
BRANCH  16  17
ATOM     17  C   UNL     1      -5.017 -13.478   1.197  1.00  0.00    -0.029 A 
ATOM     18  C   UNL     1      -5.612 -13.285  -0.054  1.00  0.00     0.006 A 
ATOM     19  C   UNL     1      -5.334 -14.634   1.929  1.00  0.00     0.006 A 
ATOM     20  C   UNL     1      -6.489 -14.247  -0.567  1.00  0.00     0.004 A 
ATOM     21  C   UNL     1      -6.202 -15.592   1.415  1.00  0.00     0.004 A 
ATOM     22  C   UNL     1      -6.779 -15.411   0.157  1.00  0.00    -0.051 A 
ATOM     23  C   UNL     1      -7.603 -16.510  -0.446  1.00  0.00     0.044 C 
ENDBRANCH  16  17
ENDBRANCH   6  16
TORSDOF 3
ENDMDL
MODEL 4
REMARK VINA RESULT:    -6.000      3.157      7.326
REMARK INTER + INTRA:          -7.528
REMARK INTER:                  -7.152
REMARK INTRA:                  -0.376
REMARK UNBOUND:                -0.475
REMARK SMILES Cc1ccc(CNC(=O)NC(=O)c2ccc(C)cc2)cc1
REMARK SMILES IDX 11 1 12 2 10 3 8 4 9 5 7 6 13 9 19 10 18 11 14 12 16 13
REMARK SMILES IDX 15 14 17 15 6 16 5 17 4 18 20 19 3 20 21 21 2 22 1 23
REMARK H PARENT 10 7 7 8
ROOT
ATOM      1  C   UNL     1      -1.560 -10.314   2.002  1.00  0.00     0.259 C 
ATOM      2  O   UNL     1      -0.357 -10.508   2.106  1.00  0.00    -0.269 OA
ATOM      3  N   UNL     1      -2.584 -11.247   1.812  1.00  0.00    -0.274 N 
ATOM      4  C   UNL     1      -2.745 -12.606   1.899  1.00  0.00     0.321 C 
ATOM      5  O   UNL     1      -3.890 -13.056   1.778  1.00  0.00    -0.248 OA
ATOM      6  N   UNL     1      -1.734 -13.462   2.136  1.00  0.00    -0.334 N 
ATOM      7  H   UNL     1      -3.507 -10.842   1.733  1.00  0.00     0.175 HD
ATOM      8  H   UNL     1      -2.031 -14.419   2.255  1.00  0.00     0.165 HD
ENDROOT
BRANCH   1   9
ATOM      9  C   UNL     1      -2.012  -8.912   2.090  1.00  0.00     0.040 A 
ATOM     10  C   UNL     1      -2.278  -8.159   0.945  1.00  0.00     0.014 A 
ATOM     11  C   UNL     1      -2.754  -6.855   1.079  1.00  0.00     0.004 A 
ATOM     12  C   UNL     1      -2.163  -8.349   3.361  1.00  0.00     0.014 A 
ATOM     13  C   UNL     1      -2.959  -6.298   2.351  1.00  0.00    -0.051 A 
ATOM     14  C   UNL     1      -2.646  -7.048   3.491  1.00  0.00     0.004 A 
ATOM     15  C   UNL     1      -3.551  -4.926   2.479  1.00  0.00     0.044 C 
ENDBRANCH   1   9
BRANCH   6  16
ATOM     16  C   UNL     1      -0.361 -13.142   2.406  1.00  0.00     0.153 C 
BRANCH  16  17
ATOM     17  C   UNL     1       0.458 -14.173   3.132  1.00  0.00    -0.029 A 
ATOM     18  C   UNL     1       1.080 -13.928   4.360  1.00  0.00     0.006 A 
ATOM     19  C   UNL     1       0.410 -15.490   2.647  1.00  0.00     0.006 A 
ATOM     20  C   UNL     1       1.620 -14.988   5.095  1.00  0.00     0.004 A 
ATOM     21  C   UNL     1       0.943 -16.545   3.381  1.00  0.00     0.004 A 
ATOM     22  C   UNL     1       1.544 -16.304   4.618  1.00  0.00    -0.051 A 
ATOM     23  C   UNL     1       1.991 -17.459   5.463  1.00  0.00     0.044 C 
ENDBRANCH  16  17
ENDBRANCH   6  16
TORSDOF 3
ENDMDL
MODEL 5
REMARK VINA RESULT:    -5.772      0.939      1.442
REMARK INTER + INTRA:          -7.260
REMARK INTER:                  -6.858
REMARK INTRA:                  -0.402
REMARK UNBOUND:                -0.475
REMARK SMILES Cc1ccc(CNC(=O)NC(=O)c2ccc(C)cc2)cc1
REMARK SMILES IDX 11 1 12 2 10 3 8 4 9 5 7 6 13 9 19 10 18 11 14 12 16 13
REMARK SMILES IDX 15 14 17 15 6 16 5 17 4 18 20 19 3 20 21 21 2 22 1 23
REMARK H PARENT 10 7 7 8
ROOT
ATOM      1  C   UNL     1      -4.070 -12.623   1.411  1.00  0.00     0.259 C 
ATOM      2  O   UNL     1      -4.415 -11.450   1.421  1.00  0.00    -0.269 OA
ATOM      3  N   UNL     1      -2.815 -13.168   1.700  1.00  0.00    -0.274 N 
ATOM      4  C   UNL     1      -1.644 -12.761   2.286  1.00  0.00     0.321 C 
ATOM      5  O   UNL     1      -0.773 -13.616   2.483  1.00  0.00    -0.248 OA
ATOM      6  N   UNL     1      -1.410 -11.496   2.680  1.00  0.00    -0.334 N 
ATOM      7  H   UNL     1      -2.764 -14.174   1.602  1.00  0.00     0.175 HD
ATOM      8  H   UNL     1      -0.535 -11.378   3.171  1.00  0.00     0.165 HD
ENDROOT
BRANCH   1   9
ATOM      9  C   UNL     1      -5.103 -13.613   1.051  1.00  0.00     0.040 A 
ATOM     10  C   UNL     1      -5.852 -13.490  -0.121  1.00  0.00     0.014 A 
ATOM     11  C   UNL     1      -6.781 -14.479  -0.446  1.00  0.00     0.004 A 
ATOM     12  C   UNL     1      -5.319 -14.684   1.924  1.00  0.00     0.014 A 
ATOM     13  C   UNL     1      -6.969 -15.584   0.398  1.00  0.00    -0.051 A 
ATOM     14  C   UNL     1      -6.244 -15.672   1.592  1.00  0.00     0.004 A 
ATOM     15  C   UNL     1      -7.909 -16.681  -0.007  1.00  0.00     0.044 C 
ENDBRANCH   1   9
BRANCH   6  16
ATOM     16  C   UNL     1      -2.317 -10.383   2.639  1.00  0.00     0.153 C 
BRANCH  16  17
ATOM     17  C   UNL     1      -1.736  -9.031   2.332  1.00  0.00    -0.029 A 
ATOM     18  C   UNL     1      -1.063  -8.742   1.140  1.00  0.00     0.006 A 
ATOM     19  C   UNL     1      -2.076  -7.974   3.193  1.00  0.00     0.006 A 
ATOM     20  C   UNL     1      -0.761  -7.416   0.810  1.00  0.00     0.004 A 
ATOM     21  C   UNL     1      -1.779  -6.656   2.861  1.00  0.00     0.004 A 
ATOM     22  C   UNL     1      -1.128  -6.365   1.662  1.00  0.00    -0.051 A 
ATOM     23  C   UNL     1      -0.936  -4.936   1.250  1.00  0.00     0.044 C 
ENDBRANCH  16  17
ENDBRANCH   6  16
TORSDOF 3
ENDMDL
MODEL 6
REMARK VINA RESULT:    -5.728      3.021      5.214
REMARK INTER + INTRA:          -7.208
REMARK INTER:                  -6.761
REMARK INTRA:                  -0.447
REMARK UNBOUND:                -0.475
REMARK SMILES Cc1ccc(CNC(=O)NC(=O)c2ccc(C)cc2)cc1
REMARK SMILES IDX 11 1 12 2 10 3 8 4 9 5 7 6 13 9 19 10 18 11 14 12 16 13
REMARK SMILES IDX 15 14 17 15 6 16 5 17 4 18 20 19 3 20 21 21 2 22 1 23
REMARK H PARENT 10 7 7 8
ROOT
ATOM      1  C   UNL     1      -0.163 -12.917   2.733  1.00  0.00     0.259 C 
ATOM      2  O   UNL     1       0.569 -11.951   2.566  1.00  0.00    -0.269 OA
ATOM      3  N   UNL     1      -1.537 -13.025   2.495  1.00  0.00    -0.274 N 
ATOM      4  C   UNL     1      -2.509 -12.321   1.833  1.00  0.00     0.321 C 
ATOM      5  O   UNL     1      -3.628 -12.838   1.739  1.00  0.00    -0.248 OA
ATOM      6  N   UNL     1      -2.300 -11.121   1.260  1.00  0.00    -0.334 N 
ATOM      7  H   UNL     1      -1.931 -13.926   2.732  1.00  0.00     0.175 HD
ATOM      8  H   UNL     1      -3.092 -10.775   0.739  1.00  0.00     0.165 HD
ENDROOT
BRANCH   1   9
ATOM      9  C   UNL     1       0.471 -14.144   3.250  1.00  0.00     0.040 A 
ATOM     10  C   UNL     1       1.253 -14.128   4.407  1.00  0.00     0.014 A 
ATOM     11  C   UNL     1       1.789 -15.323   4.887  1.00  0.00     0.004 A 
ATOM     12  C   UNL     1       0.274 -15.334   2.543  1.00  0.00     0.014 A 
ATOM     13  C   UNL     1       1.554 -16.531   4.213  1.00  0.00    -0.051 A 
ATOM     14  C   UNL     1       0.805 -16.527   3.029  1.00  0.00     0.004 A 
ATOM     15  C   UNL     1       2.065 -17.819   4.788  1.00  0.00     0.044 C 
ENDBRANCH   1   9
BRANCH   6  16
ATOM     16  C   UNL     1      -1.062 -10.400   1.165  1.00  0.00     0.153 C 
BRANCH  16  17
ATOM     17  C   UNL     1      -1.101  -8.923   1.442  1.00  0.00    -0.029 A 
ATOM     18  C   UNL     1      -0.074  -8.243   2.105  1.00  0.00     0.006 A 
ATOM     19  C   UNL     1      -2.115  -8.178   0.818  1.00  0.00     0.006 A 
ATOM     20  C   UNL     1      -0.056  -6.844   2.118  1.00  0.00     0.004 A 
ATOM     21  C   UNL     1      -2.093  -6.787   0.828  1.00  0.00     0.004 A 
ATOM     22  C   UNL     1      -1.057  -6.108   1.470  1.00  0.00    -0.051 A 
ATOM     23  C   UNL     1      -0.967  -4.615   1.358  1.00  0.00     0.044 C 
ENDBRANCH  16  17
ENDBRANCH   6  16
TORSDOF 3
ENDMDL
MODEL 7
REMARK VINA RESULT:    -4.838      5.485      8.757
REMARK INTER + INTRA:          -6.162
REMARK INTER:                  -5.584
REMARK INTRA:                  -0.578
REMARK UNBOUND:                -0.475
REMARK SMILES Cc1ccc(CNC(=O)NC(=O)c2ccc(C)cc2)cc1
REMARK SMILES IDX 11 1 12 2 10 3 8 4 9 5 7 6 13 9 19 10 18 11 14 12 16 13
REMARK SMILES IDX 15 14 17 15 6 16 5 17 4 18 20 19 3 20 21 21 2 22 1 23
REMARK H PARENT 10 7 7 8
ROOT
ATOM      1  C   UNL     1      -8.606 -18.057  -2.000  1.00  0.00     0.259 C 
ATOM      2  O   UNL     1      -7.500 -18.286  -1.531  1.00  0.00    -0.269 OA
ATOM      3  N   UNL     1      -9.739 -17.545  -1.360  1.00  0.00    -0.274 N 
ATOM      4  C   UNL     1     -10.039 -16.917  -0.178  1.00  0.00     0.321 C 
ATOM      5  O   UNL     1     -11.187 -16.483  -0.034  1.00  0.00    -0.248 OA
ATOM      6  N   UNL     1      -9.145 -16.724   0.809  1.00  0.00    -0.334 N 
ATOM      7  H   UNL     1     -10.553 -17.463  -1.955  1.00  0.00     0.175 HD
ATOM      8  H   UNL     1      -9.499 -16.170   1.576  1.00  0.00     0.165 HD
ENDROOT
BRANCH   1   9
ATOM      9  C   UNL     1      -8.789 -18.350  -3.434  1.00  0.00     0.040 A 
ATOM     10  C   UNL     1     -10.017 -18.782  -3.939  1.00  0.00     0.014 A 
ATOM     11  C   UNL     1     -10.156 -18.995  -5.311  1.00  0.00     0.004 A 
ATOM     12  C   UNL     1      -7.689 -18.189  -4.283  1.00  0.00     0.014 A 
ATOM     13  C   UNL     1      -9.073 -18.787  -6.177  1.00  0.00    -0.051 A 
ATOM     14  C   UNL     1      -7.834 -18.397  -5.653  1.00  0.00     0.004 A 
ATOM     15  C   UNL     1      -9.261 -18.938  -7.658  1.00  0.00     0.044 C 
ENDBRANCH   1   9
BRANCH   6  16
ATOM     16  C   UNL     1      -7.747 -17.053   0.803  1.00  0.00     0.153 C 
BRANCH  16  17
ATOM     17  C   UNL     1      -6.770 -15.912   0.748  1.00  0.00    -0.029 A 
ATOM     18  C   UNL     1      -6.734 -14.987  -0.300  1.00  0.00     0.006 A 
ATOM     19  C   UNL     1      -6.013 -15.657   1.904  1.00  0.00     0.006 A 
ATOM     20  C   UNL     1      -5.973 -13.819  -0.178  1.00  0.00     0.004 A 
ATOM     21  C   UNL     1      -5.261 -14.494   2.026  1.00  0.00     0.004 A 
ATOM     22  C   UNL     1      -5.243 -13.559   0.990  1.00  0.00    -0.051 A 
ATOM     23  C   UNL     1      -4.542 -12.248   1.186  1.00  0.00     0.044 C 
ENDBRANCH  16  17
ENDBRANCH   6  16
TORSDOF 3
ENDMDL
MODEL 8
REMARK VINA RESULT:    -4.524      2.350      8.340
REMARK INTER + INTRA:          -5.792
REMARK INTER:                  -5.349
REMARK INTRA:                  -0.443
REMARK UNBOUND:                -0.475
REMARK SMILES Cc1ccc(CNC(=O)NC(=O)c2ccc(C)cc2)cc1
REMARK SMILES IDX 11 1 12 2 10 3 8 4 9 5 7 6 13 9 19 10 18 11 14 12 16 13
REMARK SMILES IDX 15 14 17 15 6 16 5 17 4 18 20 19 3 20 21 21 2 22 1 23
REMARK H PARENT 10 7 7 8
ROOT
ATOM      1  C   UNL     1      -4.352 -12.800   1.385  1.00  0.00     0.259 C 
ATOM      2  O   UNL     1      -5.282 -12.440   0.678  1.00  0.00    -0.269 OA
ATOM      3  N   UNL     1      -4.178 -14.019   2.049  1.00  0.00    -0.274 N 
ATOM      4  C   UNL     1      -4.732 -15.273   2.027  1.00  0.00     0.321 C 
ATOM      5  O   UNL     1      -4.188 -16.152   2.703  1.00  0.00    -0.248 OA
ATOM      6  N   UNL     1      -5.809 -15.598   1.288  1.00  0.00    -0.334 N 
ATOM      7  H   UNL     1      -3.330 -14.078   2.597  1.00  0.00     0.175 HD
ATOM      8  H   UNL     1      -6.039 -16.581   1.315  1.00  0.00     0.165 HD
ENDROOT
BRANCH   1   9
ATOM      9  C   UNL     1      -3.252 -11.835   1.572  1.00  0.00     0.040 A 
ATOM     10  C   UNL     1      -2.190 -11.758   0.668  1.00  0.00     0.014 A 
ATOM     11  C   UNL     1      -1.200 -10.793   0.857  1.00  0.00     0.004 A 
ATOM     12  C   UNL     1      -3.295 -10.997   2.690  1.00  0.00     0.014 A 
ATOM     13  C   UNL     1      -1.262  -9.913   1.948  1.00  0.00    -0.051 A 
ATOM     14  C   UNL     1      -2.308 -10.031   2.872  1.00  0.00     0.004 A 
ATOM     15  C   UNL     1      -0.236  -8.827   2.091  1.00  0.00     0.044 C 
ENDBRANCH   1   9
BRANCH   6  16
ATOM     16  C   UNL     1      -6.521 -14.762   0.363  1.00  0.00     0.153 C 
BRANCH  16  17
ATOM     17  C   UNL     1      -6.906 -15.368  -0.959  1.00  0.00    -0.029 A 
ATOM     18  C   UNL     1      -5.969 -15.746  -1.927  1.00  0.00     0.006 A 
ATOM     19  C   UNL     1      -8.245 -15.755  -1.123  1.00  0.00     0.006 A 
ATOM     20  C   UNL     1      -6.368 -16.518  -3.023  1.00  0.00     0.004 A 
ATOM     21  C   UNL     1      -8.640 -16.527  -2.211  1.00  0.00     0.004 A 
ATOM     22  C   UNL     1      -7.702 -16.924  -3.166  1.00  0.00    -0.051 A 
ATOM     23  C   UNL     1      -8.109 -17.868  -4.257  1.00  0.00     0.044 C 
ENDBRANCH  16  17
ENDBRANCH   6  16
TORSDOF 3
ENDMDL
MODEL 9
REMARK VINA RESULT:    -4.383      4.471      9.927
REMARK INTER + INTRA:          -5.627
REMARK INTER:                  -5.044
REMARK INTRA:                  -0.583
REMARK UNBOUND:                -0.475
REMARK SMILES Cc1ccc(CNC(=O)NC(=O)c2ccc(C)cc2)cc1
REMARK SMILES IDX 11 1 12 2 10 3 8 4 9 5 7 6 13 9 19 10 18 11 14 12 16 13
REMARK SMILES IDX 15 14 17 15 6 16 5 17 4 18 20 19 3 20 21 21 2 22 1 23
REMARK H PARENT 10 7 7 8
ROOT
ATOM      1  C   UNL     1      -7.199 -15.664   0.356  1.00  0.00     0.259 C 
ATOM      2  O   UNL     1      -8.031 -15.348  -0.483  1.00  0.00    -0.269 OA
ATOM      3  N   UNL     1      -7.092 -16.859   1.075  1.00  0.00    -0.274 N 
ATOM      4  C   UNL     1      -7.609 -18.127   1.016  1.00  0.00     0.321 C 
ATOM      5  O   UNL     1      -7.145 -18.973   1.787  1.00  0.00    -0.248 OA
ATOM      6  N   UNL     1      -8.567 -18.500   0.146  1.00  0.00    -0.334 N 
ATOM      7  H   UNL     1      -6.326 -16.880   1.736  1.00  0.00     0.175 HD
ATOM      8  H   UNL     1      -8.777 -19.488   0.172  1.00  0.00     0.165 HD
ENDROOT
BRANCH   1   9
ATOM      9  C   UNL     1      -6.156 -14.666   0.662  1.00  0.00     0.040 A 
ATOM     10  C   UNL     1      -5.995 -13.520  -0.118  1.00  0.00     0.014 A 
ATOM     11  C   UNL     1      -5.030 -12.578   0.241  1.00  0.00     0.004 A 
ATOM     12  C   UNL     1      -5.323 -14.902   1.760  1.00  0.00     0.014 A 
ATOM     13  C   UNL     1      -4.222 -12.781   1.370  1.00  0.00    -0.051 A 
ATOM     14  C   UNL     1      -4.364 -13.956   2.118  1.00  0.00     0.004 A 
ATOM     15  C   UNL     1      -3.248 -11.721   1.792  1.00  0.00     0.044 C 
ENDBRANCH   1   9
BRANCH   6  16
ATOM     16  C   UNL     1      -9.163 -17.709  -0.893  1.00  0.00     0.153 C 
BRANCH  16  17
ATOM     17  C   UNL     1      -8.952 -18.162  -2.311  1.00  0.00    -0.029 A 
ATOM     18  C   UNL     1      -9.937 -18.816  -3.058  1.00  0.00     0.006 A 
ATOM     19  C   UNL     1      -7.791 -17.716  -2.963  1.00  0.00     0.006 A 
ATOM     20  C   UNL     1      -9.769 -18.995  -4.435  1.00  0.00     0.004 A 
ATOM     21  C   UNL     1      -7.626 -17.890  -4.334  1.00  0.00     0.004 A 
ATOM     22  C   UNL     1      -8.619 -18.522  -5.084  1.00  0.00    -0.051 A 
ATOM     23  C   UNL     1      -8.496 -18.582  -6.577  1.00  0.00     0.044 C 
ENDBRANCH  16  17
ENDBRANCH   6  16
TORSDOF 3
ENDMDL
