MODEL 1
REMARK VINA RESULT:    -4.164      0.000      0.000
REMARK INTER + INTRA:          -5.776
REMARK INTER:                  -5.503
REMARK INTRA:                  -0.274
REMARK UNBOUND:                -0.274
REMARK SMILES [H]/N=C\C[C@H]1C[C@@H]1O[C@H]1CO[C@H]2C[C@@H](C3CC3)CCN2C1
REMARK SMILES IDX 7 1 6 2 5 3 8 4 9 5 14 6 13 7 18 8 12 9 19 10 20 11 11 12
REMARK SMILES IDX 21 13 10 14 15 15 16 16 17 17 4 18 3 19 2 20 1 21
REMARK H PARENT
ROOT
ATOM      1  C   UNL     1      -0.094 -13.341   3.300  1.00  0.00     0.122 C 
ATOM      2  C   UNL     1       0.440 -14.646   2.780  1.00  0.00     0.039 C 
ATOM      3  C   UNL     1       1.198 -13.896   3.837  1.00  0.00     0.026 C 
ENDROOT
BRANCH   1   4
ATOM      4  O   UNL     1       0.012 -12.250   2.367  1.00  0.00    -0.371 OA
BRANCH   4   5
ATOM      5  C   UNL     1      -0.961 -12.242   1.310  1.00  0.00     0.158 C 
ATOM      6  C   UNL     1      -2.138  -7.161   1.367  1.00  0.00    -0.003 C 
ATOM      7  C   UNL     1      -2.414  -8.362   2.279  1.00  0.00     0.052 C 
ATOM      8  C   UNL     1      -0.773  -7.342   0.688  1.00  0.00     0.019 C 
ATOM      9  C   UNL     1      -2.259  -9.693   1.531  1.00  0.00     0.189 C 
ATOM     10  C   UNL     1      -0.671  -8.699  -0.008  1.00  0.00     0.087 C 
ATOM     11  N   UNL     1      -0.928  -9.790   0.931  1.00  0.00    -0.276 NA
ATOM     12  O   UNL     1      -2.493 -10.729   2.487  1.00  0.00    -0.360 OA
ATOM     13  C   UNL     1      -0.749 -11.101   0.298  1.00  0.00     0.121 C 
ATOM     14  C   UNL     1      -2.345 -12.042   1.938  1.00  0.00     0.195 C 
BRANCH   6  15
ATOM     15  C   UNL     1      -2.180  -5.859   2.136  1.00  0.00    -0.008 C 
ATOM     16  C   UNL     1      -3.025  -4.708   1.644  1.00  0.00     0.004 C 
ATOM     17  C   UNL     1      -3.420  -5.446   2.890  1.00  0.00     0.004 C 
ENDBRANCH   6  15
ENDBRANCH   4   5
ENDBRANCH   1   4
BRANCH   3  18
ATOM     18  C   UNL     1       1.259 -14.459   5.226  1.00  0.00     0.053 C 
BRANCH  18  19
ATOM     19  C   UNL     1       1.792 -15.862   5.352  1.00  0.00     0.074 C 
BRANCH  19  20
ATOM     20  N   UNL     1       3.004 -16.236   5.108  1.00  0.00    -0.313 NA
ATOM     21  H   UNL     1       3.683 -15.496   5.335  1.00  0.00     0.186 HD
ENDBRANCH  19  20
ENDBRANCH  18  19
ENDBRANCH   3  18
TORSDOF 6
ENDMDL
MODEL 2
REMARK VINA RESULT:    -4.120      3.273      5.495
REMARK INTER + INTRA:          -5.718
REMARK INTER:                  -5.458
REMARK INTRA:                  -0.259
REMARK UNBOUND:                -0.274
REMARK SMILES [H]/N=C\C[C@H]1C[C@@H]1O[C@H]1CO[C@H]2C[C@@H](C3CC3)CCN2C1
REMARK SMILES IDX 7 1 6 2 5 3 8 4 9 5 14 6 13 7 18 8 12 9 19 10 20 11 11 12
REMARK SMILES IDX 21 13 10 14 15 15 16 16 17 17 4 18 3 19 2 20 1 21
REMARK H PARENT
ROOT
ATOM      1  C   UNL     1      -4.186 -12.812   0.911  1.00  0.00     0.122 C 
ATOM      2  C   UNL     1      -4.988 -13.819   1.686  1.00  0.00     0.039 C 
ATOM      3  C   UNL     1      -5.620 -13.077   0.543  1.00  0.00     0.026 C 
ENDROOT
BRANCH   1   4
ATOM      4  O   UNL     1      -3.919 -11.594   1.632  1.00  0.00    -0.371 OA
BRANCH   4   5
ATOM      5  C   UNL     1      -2.969 -11.704   2.704  1.00  0.00     0.158 C 
ATOM      6  C   UNL     1      -0.284  -7.320   1.824  1.00  0.00    -0.003 C 
ATOM      7  C   UNL     1      -0.411  -8.686   1.139  1.00  0.00     0.052 C 
ATOM      8  C   UNL     1      -1.624  -6.953   2.477  1.00  0.00     0.019 C 
ATOM      9  C   UNL     1      -0.953  -9.755   2.097  1.00  0.00     0.189 C 
ATOM     10  C   UNL     1      -2.125  -8.071   3.390  1.00  0.00     0.087 C 
ATOM     11  N   UNL     1      -2.236  -9.334   2.659  1.00  0.00    -0.276 NA
ATOM     12  O   UNL     1      -1.070 -10.961   1.339  1.00  0.00    -0.360 OA
ATOM     13  C   UNL     1      -2.798 -10.397   3.499  1.00  0.00     0.121 C 
ATOM     14  C   UNL     1      -1.605 -12.050   2.098  1.00  0.00     0.195 C 
BRANCH   6  15
ATOM     15  C   UNL     1       0.141  -6.247   0.847  1.00  0.00    -0.008 C 
ATOM     16  C   UNL     1       1.434  -5.494   1.054  1.00  0.00     0.004 C 
ATOM     17  C   UNL     1       1.310  -6.466  -0.083  1.00  0.00     0.004 C 
ENDBRANCH   6  15
ENDBRANCH   4   5
ENDBRANCH   1   4
BRANCH   3  18
ATOM     18  C   UNL     1      -5.952 -13.824  -0.714  1.00  0.00     0.053 C 
BRANCH  18  19
ATOM     19  C   UNL     1      -6.856 -15.019  -0.559  1.00  0.00     0.074 C 
BRANCH  19  20
ATOM     20  N   UNL     1      -8.147 -14.993  -0.519  1.00  0.00    -0.313 NA
ATOM     21  H   UNL     1      -8.561 -15.537  -1.289  1.00  0.00     0.186 HD
ENDBRANCH  19  20
ENDBRANCH  18  19
ENDBRANCH   3  18
TORSDOF 6
ENDMDL
MODEL 3
REMARK VINA RESULT:    -4.072      3.127      4.623
REMARK INTER + INTRA:          -5.655
REMARK INTER:                  -5.898
REMARK INTRA:                   0.243
REMARK UNBOUND:                -0.274
REMARK SMILES [H]/N=C\C[C@H]1C[C@@H]1O[C@H]1CO[C@H]2C[C@@H](C3CC3)CCN2C1
REMARK SMILES IDX 7 1 6 2 5 3 8 4 9 5 14 6 13 7 18 8 12 9 19 10 20 11 11 12
REMARK SMILES IDX 21 13 10 14 15 15 16 16 17 17 4 18 3 19 2 20 1 21
REMARK H PARENT
ROOT
ATOM      1  C   UNL     1      -5.071 -12.574   1.620  1.00  0.00     0.122 C 
ATOM      2  C   UNL     1      -5.570 -13.182   0.340  1.00  0.00     0.039 C 
ATOM      3  C   UNL     1      -4.929 -14.052   1.382  1.00  0.00     0.026 C 
ENDROOT
BRANCH   1   4
ATOM      4  O   UNL     1      -3.880 -11.779   1.468  1.00  0.00    -0.371 OA
BRANCH   4   5
ATOM      5  C   UNL     1      -2.918 -11.894   2.529  1.00  0.00     0.158 C 
ATOM      6  C   UNL     1      -0.292  -7.466   1.690  1.00  0.00    -0.003 C 
ATOM      7  C   UNL     1      -0.410  -8.823   0.985  1.00  0.00     0.052 C 
ATOM      8  C   UNL     1      -1.629  -7.125   2.362  1.00  0.00     0.019 C 
ATOM      9  C   UNL     1      -0.930  -9.914   1.932  1.00  0.00     0.189 C 
ATOM     10  C   UNL     1      -2.108  -8.264   3.263  1.00  0.00     0.087 C 
ATOM     11  N   UNL     1      -2.212  -9.515   2.513  1.00  0.00    -0.276 NA
ATOM     12  O   UNL     1      -1.041 -11.109   1.157  1.00  0.00    -0.360 OA
ATOM     13  C   UNL     1      -2.754 -10.598   3.343  1.00  0.00     0.121 C 
ATOM     14  C   UNL     1      -1.556 -12.215   1.904  1.00  0.00     0.195 C 
BRANCH   6  15
ATOM     15  C   UNL     1       0.112  -6.374   0.726  1.00  0.00    -0.008 C 
ATOM     16  C   UNL     1       1.250  -5.440   1.063  1.00  0.00     0.004 C 
ATOM     17  C   UNL     1       1.415  -6.453  -0.032  1.00  0.00     0.004 C 
ENDBRANCH   6  15
ENDBRANCH   4   5
ENDBRANCH   1   4
BRANCH   3  18
ATOM     18  C   UNL     1      -5.781 -15.025   2.141  1.00  0.00     0.053 C 
BRANCH  18  19
ATOM     19  C   UNL     1      -5.130 -16.332   2.513  1.00  0.00     0.074 C 
BRANCH  19  20
ATOM     20  N   UNL     1      -4.871 -16.734   3.713  1.00  0.00    -0.313 NA
ATOM     21  H   UNL     1      -4.753 -17.756   3.753  1.00  0.00     0.186 HD
ENDBRANCH  19  20
ENDBRANCH  18  19
ENDBRANCH   3  18
TORSDOF 6
ENDMDL
MODEL 4
REMARK VINA RESULT:    -3.938      2.706      8.589
REMARK INTER + INTRA:          -5.478
REMARK INTER:                  -5.419
REMARK INTRA:                  -0.059
REMARK UNBOUND:                -0.274
REMARK SMILES [H]/N=C\C[C@H]1C[C@@H]1O[C@H]1CO[C@H]2C[C@@H](C3CC3)CCN2C1
REMARK SMILES IDX 7 1 6 2 5 3 8 4 9 5 14 6 13 7 18 8 12 9 19 10 20 11 11 12
REMARK SMILES IDX 21 13 10 14 15 15 16 16 17 17 4 18 3 19 2 20 1 21
REMARK H PARENT
ROOT
ATOM      1  C   UNL     1      -1.564 -11.851   2.304  1.00  0.00     0.122 C 
ATOM      2  C   UNL     1      -3.053 -11.810   2.107  1.00  0.00     0.039 C 
ATOM      3  C   UNL     1      -2.420 -11.005   3.206  1.00  0.00     0.026 C 
ENDROOT
BRANCH   1   4
ATOM      4  O   UNL     1      -1.079 -13.091   2.853  1.00  0.00    -0.371 OA
BRANCH   4   5
ATOM      5  C   UNL     1       0.226 -13.497   2.409  1.00  0.00     0.158 C 
ATOM      6  C   UNL     1       1.327 -16.893   6.212  1.00  0.00    -0.003 C 
ATOM      7  C   UNL     1       1.222 -15.367   6.098  1.00  0.00     0.052 C 
ATOM      8  C   UNL     1       0.326 -17.543   5.246  1.00  0.00     0.019 C 
ATOM      9  C   UNL     1       1.357 -14.893   4.645  1.00  0.00     0.189 C 
ATOM     10  C   UNL     1       0.491 -17.004   3.825  1.00  0.00     0.087 C 
ATOM     11  N   UNL     1       0.359 -15.548   3.800  1.00  0.00    -0.276 NA
ATOM     12  O   UNL     1       1.198 -13.473   4.662  1.00  0.00    -0.360 OA
ATOM     13  C   UNL     1       0.427 -15.023   2.431  1.00  0.00     0.121 C 
ATOM     14  C   UNL     1       1.263 -12.887   3.358  1.00  0.00     0.195 C 
BRANCH   6  15
ATOM     15  C   UNL     1       1.079 -17.363   7.628  1.00  0.00    -0.008 C 
ATOM     16  C   UNL     1       1.548 -18.728   8.073  1.00  0.00     0.004 C 
ATOM     17  C   UNL     1       2.219 -17.496   8.609  1.00  0.00     0.004 C 
ENDBRANCH   6  15
ENDBRANCH   4   5
ENDBRANCH   1   4
BRANCH   3  18
ATOM     18  C   UNL     1      -2.394  -9.510   3.089  1.00  0.00     0.053 C 
BRANCH  18  19
ATOM     19  C   UNL     1      -2.665  -8.738   4.354  1.00  0.00     0.074 C 
BRANCH  19  20
ATOM     20  N   UNL     1      -3.408  -9.129   5.335  1.00  0.00    -0.313 NA
ATOM     21  H   UNL     1      -4.363  -9.356   5.022  1.00  0.00     0.186 HD
ENDBRANCH  19  20
ENDBRANCH  18  19
ENDBRANCH   3  18
TORSDOF 6
ENDMDL
MODEL 5
REMARK VINA RESULT:    -3.937      5.176      8.429
REMARK INTER + INTRA:          -5.476
REMARK INTER:                  -5.221
REMARK INTRA:                  -0.255
REMARK UNBOUND:                -0.274
REMARK SMILES [H]/N=C\C[C@H]1C[C@@H]1O[C@H]1CO[C@H]2C[C@@H](C3CC3)CCN2C1
REMARK SMILES IDX 7 1 6 2 5 3 8 4 9 5 14 6 13 7 18 8 12 9 19 10 20 11 11 12
REMARK SMILES IDX 21 13 10 14 15 15 16 16 17 17 4 18 3 19 2 20 1 21
REMARK H PARENT
ROOT
ATOM      1  C   UNL     1      -2.351 -11.721   1.590  1.00  0.00     0.122 C 
ATOM      2  C   UNL     1      -0.923 -12.133   1.816  1.00  0.00     0.039 C 
ATOM      3  C   UNL     1      -1.294 -11.369   0.578  1.00  0.00     0.026 C 
ENDROOT
BRANCH   1   4
ATOM      4  O   UNL     1      -3.230 -12.810   1.251  1.00  0.00    -0.371 OA
BRANCH   4   5
ATOM      5  C   UNL     1      -4.566 -12.713   1.772  1.00  0.00     0.158 C 
ATOM      6  C   UNL     1      -6.809 -16.419  -1.133  1.00  0.00    -0.003 C 
ATOM      7  C   UNL     1      -6.275 -15.003  -1.380  1.00  0.00     0.052 C 
ATOM      8  C   UNL     1      -5.973 -17.093  -0.037  1.00  0.00     0.019 C 
ATOM      9  C   UNL     1      -6.181 -14.194  -0.080  1.00  0.00     0.189 C 
ATOM     10  C   UNL     1      -5.890 -16.222   1.217  1.00  0.00     0.087 C 
ATOM     11  N   UNL     1      -5.354 -14.898   0.901  1.00  0.00    -0.276 NA
ATOM     12  O   UNL     1      -5.632 -12.922  -0.428  1.00  0.00    -0.360 OA
ATOM     13  C   UNL     1      -5.187 -14.081   2.107  1.00  0.00     0.121 C 
ATOM     14  C   UNL     1      -5.448 -12.062   0.701  1.00  0.00     0.195 C 
BRANCH   6  15
ATOM     15  C   UNL     1      -6.793 -17.247  -2.398  1.00  0.00    -0.008 C 
ATOM     16  C   UNL     1      -7.979 -18.107  -2.764  1.00  0.00     0.004 C 
ATOM     17  C   UNL     1      -7.667 -16.882  -3.573  1.00  0.00     0.004 C 
ENDBRANCH   6  15
ENDBRANCH   4   5
ENDBRANCH   1   4
BRANCH   3  18
ATOM     18  C   UNL     1      -0.830  -9.950   0.433  1.00  0.00     0.053 C 
BRANCH  18  19
ATOM     19  C   UNL     1      -0.342  -9.546  -0.933  1.00  0.00     0.074 C 
BRANCH  19  20
ATOM     20  N   UNL     1       0.163 -10.335  -1.822  1.00  0.00    -0.313 NA
ATOM     21  H   UNL     1      -0.484 -10.483  -2.609  1.00  0.00     0.186 HD
ENDBRANCH  19  20
ENDBRANCH  18  19
ENDBRANCH   3  18
TORSDOF 6
ENDMDL
MODEL 6
REMARK VINA RESULT:    -3.709      3.593      5.055
REMARK INTER + INTRA:          -5.175
REMARK INTER:                  -4.972
REMARK INTRA:                  -0.204
REMARK UNBOUND:                -0.274
REMARK SMILES [H]/N=C\C[C@H]1C[C@@H]1O[C@H]1CO[C@H]2C[C@@H](C3CC3)CCN2C1
REMARK SMILES IDX 7 1 6 2 5 3 8 4 9 5 14 6 13 7 18 8 12 9 19 10 20 11 11 12
REMARK SMILES IDX 21 13 10 14 15 15 16 16 17 17 4 18 3 19 2 20 1 21
REMARK H PARENT
ROOT
ATOM      1  C   UNL     1       1.276 -15.549   6.103  1.00  0.00     0.122 C 
ATOM      2  C   UNL     1       1.312 -15.246   7.575  1.00  0.00     0.039 C 
ATOM      3  C   UNL     1       0.289 -16.202   7.032  1.00  0.00     0.026 C 
ENDROOT
BRANCH   1   4
ATOM      4  O   UNL     1       0.779 -14.466   5.294  1.00  0.00    -0.371 OA
BRANCH   4   5
ATOM      5  C   UNL     1       1.323 -14.385   3.966  1.00  0.00     0.158 C 
ATOM      6  C   UNL     1      -2.835 -12.380   1.537  1.00  0.00    -0.003 C 
ATOM      7  C   UNL     1      -2.464 -13.742   2.137  1.00  0.00     0.052 C 
ATOM      8  C   UNL     1      -2.153 -11.267   2.346  1.00  0.00     0.019 C 
ATOM      9  C   UNL     1      -0.945 -13.910   2.275  1.00  0.00     0.189 C 
ATOM     10  C   UNL     1      -0.650 -11.511   2.475  1.00  0.00     0.087 C 
ATOM     11  N   UNL     1      -0.381 -12.819   3.071  1.00  0.00    -0.276 NA
ATOM     12  O   UNL     1      -0.728 -15.185   2.882  1.00  0.00    -0.360 OA
ATOM     13  C   UNL     1       1.055 -13.032   3.282  1.00  0.00     0.121 C 
ATOM     14  C   UNL     1       0.656 -15.468   3.111  1.00  0.00     0.195 C 
BRANCH   6  15
ATOM     15  C   UNL     1      -4.333 -12.175   1.510  1.00  0.00    -0.008 C 
ATOM     16  C   UNL     1      -5.145 -12.638   0.323  1.00  0.00     0.004 C 
ATOM     17  C   UNL     1      -5.276 -13.347   1.640  1.00  0.00     0.004 C 
ENDBRANCH   6  15
ENDBRANCH   4   5
ENDBRANCH   1   4
BRANCH   3  18
ATOM     18  C   UNL     1       0.412 -17.661   7.359  1.00  0.00     0.053 C 
BRANCH  18  19
ATOM     19  C   UNL     1      -0.719 -18.544   6.898  1.00  0.00     0.074 C 
BRANCH  19  20
ATOM     20  N   UNL     1      -1.609 -18.236   6.015  1.00  0.00    -0.313 NA
ATOM     21  H   UNL     1      -1.770 -19.008   5.353  1.00  0.00     0.186 HD
ENDBRANCH  19  20
ENDBRANCH  18  19
ENDBRANCH   3  18
TORSDOF 6
ENDMDL
MODEL 7
REMARK VINA RESULT:    -3.693      4.806      7.242
REMARK INTER + INTRA:          -5.154
REMARK INTER:                  -4.883
REMARK INTRA:                  -0.271
REMARK UNBOUND:                -0.274
REMARK SMILES [H]/N=C\C[C@H]1C[C@@H]1O[C@H]1CO[C@H]2C[C@@H](C3CC3)CCN2C1
REMARK SMILES IDX 7 1 6 2 5 3 8 4 9 5 14 6 13 7 18 8 12 9 19 10 20 11 11 12
REMARK SMILES IDX 21 13 10 14 15 15 16 16 17 17 4 18 3 19 2 20 1 21
REMARK H PARENT
ROOT
ATOM      1  C   UNL     1      -6.321 -14.900  -1.461  1.00  0.00     0.122 C 
ATOM      2  C   UNL     1      -6.202 -15.006  -2.955  1.00  0.00     0.039 C 
ATOM      3  C   UNL     1      -5.629 -16.083  -2.079  1.00  0.00     0.026 C 
ENDROOT
BRANCH   1   4
ATOM      4  O   UNL     1      -5.476 -13.892  -0.874  1.00  0.00    -0.371 OA
BRANCH   4   5
ATOM      5  C   UNL     1      -5.891 -13.407   0.413  1.00  0.00     0.158 C 
ATOM      6  C   UNL     1      -1.180 -12.611   2.506  1.00  0.00    -0.003 C 
ATOM      7  C   UNL     1      -2.029 -13.837   2.146  1.00  0.00     0.052 C 
ATOM      8  C   UNL     1      -1.473 -11.481   1.510  1.00  0.00     0.019 C 
ATOM      9  C   UNL     1      -3.517 -13.482   2.022  1.00  0.00     0.189 C 
ATOM     10  C   UNL     1      -2.972 -11.201   1.408  1.00  0.00     0.087 C 
ATOM     11  N   UNL     1      -3.707 -12.412   1.043  1.00  0.00    -0.276 NA
ATOM     12  O   UNL     1      -4.193 -14.683   1.641  1.00  0.00    -0.360 OA
ATOM     13  C   UNL     1      -5.137 -12.141   0.856  1.00  0.00     0.121 C 
ATOM     14  C   UNL     1      -5.598 -14.498   1.449  1.00  0.00     0.195 C 
BRANCH   6  15
ATOM     15  C   UNL     1       0.295 -12.942   2.515  1.00  0.00    -0.008 C 
ATOM     16  C   UNL     1       0.993 -13.289   3.809  1.00  0.00     0.004 C 
ATOM     17  C   UNL     1       0.771 -14.352   2.772  1.00  0.00     0.004 C 
ENDBRANCH   6  15
ENDBRANCH   4   5
ENDBRANCH   1   4
BRANCH   3  18
ATOM     18  C   UNL     1      -6.282 -17.433  -2.066  1.00  0.00     0.053 C 
BRANCH  18  19
ATOM     19  C   UNL     1      -5.416 -18.588  -1.632  1.00  0.00     0.074 C 
BRANCH  19  20
ATOM     20  N   UNL     1      -4.340 -18.503  -0.924  1.00  0.00    -0.313 NA
ATOM     21  H   UNL     1      -4.197 -19.344  -0.348  1.00  0.00     0.186 HD
ENDBRANCH  19  20
ENDBRANCH  18  19
ENDBRANCH   3  18
TORSDOF 6
ENDMDL
MODEL 8
REMARK VINA RESULT:    -3.442      3.846      6.348
REMARK INTER + INTRA:          -4.822
REMARK INTER:                  -4.486
REMARK INTRA:                  -0.336
REMARK UNBOUND:                -0.274
REMARK SMILES [H]/N=C\C[C@H]1C[C@@H]1O[C@H]1CO[C@H]2C[C@@H](C3CC3)CCN2C1
REMARK SMILES IDX 7 1 6 2 5 3 8 4 9 5 14 6 13 7 18 8 12 9 19 10 20 11 11 12
REMARK SMILES IDX 21 13 10 14 15 15 16 16 17 17 4 18 3 19 2 20 1 21
REMARK H PARENT
ROOT
ATOM      1  C   UNL     1       0.961 -17.255   6.637  1.00  0.00     0.122 C 
ATOM      2  C   UNL     1       0.037 -16.700   7.684  1.00  0.00     0.039 C 
ATOM      3  C   UNL     1       0.808 -17.960   7.957  1.00  0.00     0.026 C 
ENDROOT
BRANCH   1   4
ATOM      4  O   UNL     1       0.285 -17.844   5.509  1.00  0.00    -0.371 OA
BRANCH   4   5
ATOM      5  C   UNL     1       1.038 -17.883   4.286  1.00  0.00     0.158 C 
ATOM      6  C   UNL     1      -0.244 -13.182   2.426  1.00  0.00    -0.003 C 
ATOM      7  C   UNL     1      -0.961 -14.526   2.604  1.00  0.00     0.052 C 
ATOM      8  C   UNL     1       0.782 -13.002   3.554  1.00  0.00     0.019 C 
ATOM      9  C   UNL     1       0.032 -15.689   2.738  1.00  0.00     0.189 C 
ATOM     10  C   UNL     1       1.717 -14.206   3.656  1.00  0.00     0.087 C 
ATOM     11  N   UNL     1       0.959 -15.443   3.843  1.00  0.00    -0.276 NA
ATOM     12  O   UNL     1      -0.747 -16.869   2.943  1.00  0.00    -0.360 OA
ATOM     13  C   UNL     1       1.845 -16.598   4.030  1.00  0.00     0.121 C 
ATOM     14  C   UNL     1       0.052 -18.042   3.125  1.00  0.00     0.195 C 
BRANCH   6  15
ATOM     15  C   UNL     1      -1.222 -12.029   2.409  1.00  0.00    -0.008 C 
ATOM     16  C   UNL     1      -1.463 -11.250   1.138  1.00  0.00     0.004 C 
ATOM     17  C   UNL     1      -2.540 -12.143   1.681  1.00  0.00     0.004 C 
ENDBRANCH   6  15
ENDBRANCH   4   5
ENDBRANCH   1   4
BRANCH   3  18
ATOM     18  C   UNL     1       1.918 -17.928   8.964  1.00  0.00     0.053 C 
BRANCH  18  19
ATOM     19  C   UNL     1       1.688 -18.703  10.235  1.00  0.00     0.074 C 
BRANCH  19  20
ATOM     20  N   UNL     1       1.749 -18.227  11.434  1.00  0.00    -0.313 NA
ATOM     21  H   UNL     1       1.971 -18.960  12.123  1.00  0.00     0.186 HD
ENDBRANCH  19  20
ENDBRANCH  18  19
ENDBRANCH   3  18
TORSDOF 6
ENDMDL
MODEL 9
REMARK VINA RESULT:    -3.429      6.705      8.791
REMARK INTER + INTRA:          -4.805
REMARK INTER:                  -4.456
REMARK INTRA:                  -0.349
REMARK UNBOUND:                -0.274
REMARK SMILES [H]/N=C\C[C@H]1C[C@@H]1O[C@H]1CO[C@H]2C[C@@H](C3CC3)CCN2C1
REMARK SMILES IDX 7 1 6 2 5 3 8 4 9 5 14 6 13 7 18 8 12 9 19 10 20 11 11 12
REMARK SMILES IDX 21 13 10 14 15 15 16 16 17 17 4 18 3 19 2 20 1 21
REMARK H PARENT
ROOT
ATOM      1  C   UNL     1      -6.573 -16.798  -1.764  1.00  0.00     0.122 C 
ATOM      2  C   UNL     1      -5.549 -16.697  -2.859  1.00  0.00     0.039 C 
ATOM      3  C   UNL     1      -6.647 -17.716  -2.953  1.00  0.00     0.026 C 
ENDROOT
BRANCH   1   4
ATOM      4  O   UNL     1      -6.071 -17.368  -0.540  1.00  0.00    -0.371 OA
BRANCH   4   5
ATOM      5  C   UNL     1      -6.754 -16.964   0.657  1.00  0.00     0.158 C 
ATOM      6  C   UNL     1      -4.016 -12.650   1.706  1.00  0.00    -0.003 C 
ATOM      7  C   UNL     1      -3.756 -14.160   1.775  1.00  0.00     0.052 C 
ATOM      8  C   UNL     1      -4.977 -12.353   0.546  1.00  0.00     0.019 C 
ATOM      9  C   UNL     1      -5.064 -14.962   1.824  1.00  0.00     0.189 C 
ATOM     10  C   UNL     1      -6.241 -13.207   0.635  1.00  0.00     0.087 C 
ATOM     11  N   UNL     1      -5.909 -14.631   0.677  1.00  0.00    -0.276 NA
ATOM     12  O   UNL     1      -4.696 -16.343   1.839  1.00  0.00    -0.360 OA
ATOM     13  C   UNL     1      -7.114 -15.468   0.675  1.00  0.00     0.121 C 
ATOM     14  C   UNL     1      -5.824 -17.223   1.847  1.00  0.00     0.195 C 
BRANCH   6  15
ATOM     15  C   UNL     1      -2.730 -11.873   1.542  1.00  0.00    -0.008 C 
ATOM     16  C   UNL     1      -2.252 -10.947   2.636  1.00  0.00     0.004 C 
ATOM     17  C   UNL     1      -1.507 -12.220   2.357  1.00  0.00     0.004 C 
ENDBRANCH   6  15
ENDBRANCH   4   5
ENDBRANCH   1   4
BRANCH   3  18
ATOM     18  C   UNL     1      -7.721 -17.534  -3.984  1.00  0.00     0.053 C 
BRANCH  18  19
ATOM     19  C   UNL     1      -7.792 -18.580  -5.065  1.00  0.00     0.074 C 
BRANCH  19  20
ATOM     20  N   UNL     1      -7.732 -18.360  -6.336  1.00  0.00    -0.313 NA
ATOM     21  H   UNL     1      -7.057 -18.987  -6.798  1.00  0.00     0.186 HD
ENDBRANCH  19  20
ENDBRANCH  18  19
ENDBRANCH   3  18
TORSDOF 6
ENDMDL
