MODEL 1
REMARK VINA RESULT:    -4.174      0.000      0.000
REMARK INTER + INTRA:          -5.692
REMARK INTER:                  -5.517
REMARK INTRA:                  -0.175
REMARK UNBOUND:                -0.175
REMARK SMILES [H]/N=C\C[C@H]1C[C@@H]1O[C@H]1CO[C@H]2C[C@@H](C3CC3)CCN2C1
REMARK SMILES IDX 7 1 6 2 5 3 8 4 9 5 14 6 13 7 18 8 12 9 19 10 20 11 11 12
REMARK SMILES IDX 21 13 10 14 15 15 16 16 17 17 4 18 3 19 2 20 1 21
REMARK H PARENT
ROOT
ATOM      1  C   UNL     1       9.595  -1.934   6.703  1.00  0.00     0.122 C 
ATOM      2  C   UNL     1      10.125  -0.536   6.852  1.00  0.00     0.039 C 
ATOM      3  C   UNL     1       9.813  -1.078   5.486  1.00  0.00     0.026 C 
ENDROOT
BRANCH   1   4
ATOM      4  O   UNL     1      10.573  -2.963   6.951  1.00  0.00    -0.371 OA
BRANCH   4   5
ATOM      5  C   UNL     1      10.075  -4.149   7.591  1.00  0.00     0.158 C 
ATOM      6  C   UNL     1      14.063  -7.340   6.532  1.00  0.00    -0.003 C 
ATOM      7  C   UNL     1      12.923  -6.702   5.728  1.00  0.00     0.052 C 
ATOM      8  C   UNL     1      14.480  -6.389   7.663  1.00  0.00     0.019 C 
ATOM      9  C   UNL     1      11.766  -6.259   6.633  1.00  0.00     0.189 C 
ATOM     10  C   UNL     1      13.279  -5.960   8.504  1.00  0.00     0.087 C 
ATOM     11  N   UNL     1      12.248  -5.345   7.668  1.00  0.00    -0.276 NA
ATOM     12  O   UNL     1      10.795  -5.644   5.784  1.00  0.00    -0.360 OA
ATOM     13  C   UNL     1      11.125  -4.849   8.472  1.00  0.00     0.121 C 
ATOM     14  C   UNL     1       9.663  -5.141   6.499  1.00  0.00     0.195 C 
BRANCH   6  15
ATOM     15  C   UNL     1      15.247  -7.670   5.651  1.00  0.00    -0.008 C 
ATOM     16  C   UNL     1      16.115  -8.868   5.956  1.00  0.00     0.004 C 
ATOM     17  C   UNL     1      15.225  -8.878   4.747  1.00  0.00     0.004 C 
ENDBRANCH   6  15
ENDBRANCH   4   5
ENDBRANCH   1   4
BRANCH   3  18
ATOM     18  C   UNL     1       8.642  -0.521   4.734  1.00  0.00     0.053 C 
BRANCH  18  19
ATOM     19  C   UNL     1       8.818  -0.366   3.246  1.00  0.00     0.074 C 
BRANCH  19  20
ATOM     20  N   UNL     1       9.923  -0.086   2.639  1.00  0.00    -0.313 NA
ATOM     21  H   UNL     1      10.583   0.404   3.260  1.00  0.00     0.186 HD
ENDBRANCH  19  20
ENDBRANCH  18  19
ENDBRANCH   3  18
TORSDOF 6
ENDMDL
MODEL 2
REMARK VINA RESULT:    -4.164      5.493      8.540
REMARK INTER + INTRA:          -5.679
REMARK INTER:                  -5.580
REMARK INTRA:                  -0.099
REMARK UNBOUND:                -0.175
REMARK SMILES [H]/N=C\C[C@H]1C[C@@H]1O[C@H]1CO[C@H]2C[C@@H](C3CC3)CCN2C1
REMARK SMILES IDX 7 1 6 2 5 3 8 4 9 5 14 6 13 7 18 8 12 9 19 10 20 11 11 12
REMARK SMILES IDX 21 13 10 14 15 15 16 16 17 17 4 18 3 19 2 20 1 21
REMARK H PARENT
ROOT
ATOM      1  C   UNL     1       9.640  -0.763   7.117  1.00  0.00     0.122 C 
ATOM      2  C   UNL     1       9.507  -2.260   7.104  1.00  0.00     0.039 C 
ATOM      3  C   UNL     1       8.458  -1.421   7.775  1.00  0.00     0.026 C 
ENDROOT
BRANCH   1   4
ATOM      4  O   UNL     1      10.675  -0.274   7.991  1.00  0.00    -0.371 OA
BRANCH   4   5
ATOM      5  C   UNL     1      11.421   0.851   7.498  1.00  0.00     0.158 C 
ATOM      6  C   UNL     1      13.476   2.466  12.012  1.00  0.00    -0.003 C 
ATOM      7  C   UNL     1      12.083   2.483  11.371  1.00  0.00     0.052 C 
ATOM      8  C   UNL     1      14.233   1.215  11.547  1.00  0.00     0.019 C 
ATOM      9  C   UNL     1      12.155   2.327   9.846  1.00  0.00     0.189 C 
ATOM     10  C   UNL     1      14.239   1.100  10.023  1.00  0.00     0.087 C 
ATOM     11  N   UNL     1      12.876   1.104   9.492  1.00  0.00    -0.276 NA
ATOM     12  O   UNL     1      10.807   2.310   9.372  1.00  0.00    -0.360 OA
ATOM     13  C   UNL     1      12.861   0.907   8.038  1.00  0.00     0.121 C 
ATOM     14  C   UNL     1      10.713   2.130   7.956  1.00  0.00     0.195 C 
BRANCH   6  15
ATOM     15  C   UNL     1      13.392   2.506  13.521  1.00  0.00    -0.008 C 
ATOM     16  C   UNL     1      14.547   3.040  14.336  1.00  0.00     0.004 C 
ATOM     17  C   UNL     1      13.266   3.820  14.255  1.00  0.00     0.004 C 
ENDBRANCH   6  15
ENDBRANCH   4   5
ENDBRANCH   1   4
BRANCH   3  18
ATOM     18  C   UNL     1       7.097  -1.325   7.153  1.00  0.00     0.053 C 
BRANCH  18  19
ATOM     19  C   UNL     1       5.940  -1.161   8.105  1.00  0.00     0.074 C 
BRANCH  19  20
ATOM     20  N   UNL     1       5.809  -1.749   9.247  1.00  0.00    -0.313 NA
ATOM     21  H   UNL     1       4.908  -2.241   9.320  1.00  0.00     0.186 HD
ENDBRANCH  19  20
ENDBRANCH  18  19
ENDBRANCH   3  18
TORSDOF 6
ENDMDL
MODEL 3
REMARK VINA RESULT:    -4.113      5.221      8.465
REMARK INTER + INTRA:          -5.611
REMARK INTER:                  -5.357
REMARK INTRA:                  -0.253
REMARK UNBOUND:                -0.175
REMARK SMILES [H]/N=C\C[C@H]1C[C@@H]1O[C@H]1CO[C@H]2C[C@@H](C3CC3)CCN2C1
REMARK SMILES IDX 7 1 6 2 5 3 8 4 9 5 14 6 13 7 18 8 12 9 19 10 20 11 11 12
REMARK SMILES IDX 21 13 10 14 15 15 16 16 17 17 4 18 3 19 2 20 1 21
REMARK H PARENT
ROOT
ATOM      1  C   UNL     1      11.262   1.206   7.667  1.00  0.00     0.122 C 
ATOM      2  C   UNL     1      10.982   2.663   7.905  1.00  0.00     0.039 C 
ATOM      3  C   UNL     1      11.355   1.774   9.056  1.00  0.00     0.026 C 
ENDROOT
BRANCH   1   4
ATOM      4  O   UNL     1      10.091   0.424   7.366  1.00  0.00    -0.371 OA
BRANCH   4   5
ATOM      5  C   UNL     1      10.314  -0.738   6.550  1.00  0.00     0.158 C 
ATOM      6  C   UNL     1       5.486  -1.302   4.657  1.00  0.00    -0.003 C 
ATOM      7  C   UNL     1       6.166  -1.519   6.015  1.00  0.00     0.052 C 
ATOM      8  C   UNL     1       6.166  -0.133   3.931  1.00  0.00     0.019 C 
ATOM      9  C   UNL     1       7.687  -1.670   5.873  1.00  0.00     0.189 C 
ATOM     10  C   UNL     1       7.680  -0.328   3.853  1.00  0.00     0.087 C 
ATOM     11  N   UNL     1       8.253  -0.509   5.187  1.00  0.00    -0.276 NA
ATOM     12  O   UNL     1       8.208  -1.818   7.195  1.00  0.00    -0.360 OA
ATOM     13  C   UNL     1       9.716  -0.610   5.137  1.00  0.00     0.121 C 
ATOM     14  C   UNL     1       9.634  -1.933   7.226  1.00  0.00     0.195 C 
BRANCH   6  15
ATOM     15  C   UNL     1       4.005  -1.041   4.814  1.00  0.00    -0.008 C 
ATOM     16  C   UNL     1       2.996  -1.916   4.108  1.00  0.00     0.004 C 
ATOM     17  C   UNL     1       3.131  -1.988   5.601  1.00  0.00     0.004 C 
ENDBRANCH   6  15
ENDBRANCH   4   5
ENDBRANCH   1   4
BRANCH   3  18
ATOM     18  C   UNL     1      12.691   1.956   9.711  1.00  0.00     0.053 C 
BRANCH  18  19
ATOM     19  C   UNL     1      12.782   3.045  10.748  1.00  0.00     0.074 C 
BRANCH  19  20
ATOM     20  N   UNL     1      13.691   3.961  10.807  1.00  0.00    -0.313 NA
ATOM     21  H   UNL     1      14.529   3.633  11.306  1.00  0.00     0.186 HD
ENDBRANCH  19  20
ENDBRANCH  18  19
ENDBRANCH   3  18
TORSDOF 6
ENDMDL
MODEL 4
REMARK VINA RESULT:    -4.085      2.588      8.529
REMARK INTER + INTRA:          -5.574
REMARK INTER:                  -5.310
REMARK INTRA:                  -0.265
REMARK UNBOUND:                -0.175
REMARK SMILES [H]/N=C\C[C@H]1C[C@@H]1O[C@H]1CO[C@H]2C[C@@H](C3CC3)CCN2C1
REMARK SMILES IDX 7 1 6 2 5 3 8 4 9 5 14 6 13 7 18 8 12 9 19 10 20 11 11 12
REMARK SMILES IDX 21 13 10 14 15 15 16 16 17 17 4 18 3 19 2 20 1 21
REMARK H PARENT
ROOT
ATOM      1  C   UNL     1      10.259  -4.378   7.140  1.00  0.00     0.122 C 
ATOM      2  C   UNL     1       9.468  -5.580   6.707  1.00  0.00     0.039 C 
ATOM      3  C   UNL     1      10.876  -5.394   6.219  1.00  0.00     0.026 C 
ENDROOT
BRANCH   1   4
ATOM      4  O   UNL     1       9.826  -3.143   6.540  1.00  0.00    -0.371 OA
BRANCH   4   5
ATOM      5  C   UNL     1       9.632  -2.047   7.449  1.00  0.00     0.158 C 
ATOM      6  C   UNL     1       6.001   0.564   4.764  1.00  0.00    -0.003 C 
ATOM      7  C   UNL     1       7.506   0.310   4.616  1.00  0.00     0.052 C 
ATOM      8  C   UNL     1       5.343  -0.657   5.422  1.00  0.00     0.019 C 
ATOM      9  C   UNL     1       8.148  -0.105   5.946  1.00  0.00     0.189 C 
ATOM     10  C   UNL     1       6.050  -1.039   6.723  1.00  0.00     0.087 C 
ATOM     11  N   UNL     1       7.474  -1.282   6.493  1.00  0.00    -0.276 NA
ATOM     12  O   UNL     1       9.528  -0.356   5.673  1.00  0.00    -0.360 OA
ATOM     13  C   UNL     1       8.149  -1.734   7.715  1.00  0.00     0.121 C 
ATOM     14  C   UNL     1      10.256  -0.794   6.825  1.00  0.00     0.195 C 
BRANCH   6  15
ATOM     15  C   UNL     1       5.355   0.861   3.430  1.00  0.00    -0.008 C 
ATOM     16  C   UNL     1       4.550   2.125   3.236  1.00  0.00     0.004 C 
ATOM     17  C   UNL     1       5.875   1.970   2.548  1.00  0.00     0.004 C 
ENDBRANCH   6  15
ENDBRANCH   4   5
ENDBRANCH   1   4
BRANCH   3  18
ATOM     18  C   UNL     1      11.947  -6.317   6.720  1.00  0.00     0.053 C 
BRANCH  18  19
ATOM     19  C   UNL     1      13.027  -6.681   5.735  1.00  0.00     0.074 C 
BRANCH  19  20
ATOM     20  N   UNL     1      14.229  -6.208   5.720  1.00  0.00    -0.313 NA
ATOM     21  H   UNL     1      14.782  -6.604   4.947  1.00  0.00     0.186 HD
ENDBRANCH  19  20
ENDBRANCH  18  19
ENDBRANCH   3  18
TORSDOF 6
ENDMDL
MODEL 5
REMARK VINA RESULT:    -3.688      5.105      8.759
REMARK INTER + INTRA:          -5.050
REMARK INTER:                  -4.585
REMARK INTRA:                  -0.464
REMARK UNBOUND:                -0.175
REMARK SMILES [H]/N=C\C[C@H]1C[C@@H]1O[C@H]1CO[C@H]2C[C@@H](C3CC3)CCN2C1
REMARK SMILES IDX 7 1 6 2 5 3 8 4 9 5 14 6 13 7 18 8 12 9 19 10 20 11 11 12
REMARK SMILES IDX 21 13 10 14 15 15 16 16 17 17 4 18 3 19 2 20 1 21
REMARK H PARENT
ROOT
ATOM      1  C   UNL     1      16.316  -0.713  11.811  1.00  0.00     0.122 C 
ATOM      2  C   UNL     1      16.210  -1.447  13.118  1.00  0.00     0.039 C 
ATOM      3  C   UNL     1      15.729  -2.098  11.853  1.00  0.00     0.026 C 
ENDROOT
BRANCH   1   4
ATOM      4  O   UNL     1      15.385   0.377  11.673  1.00  0.00    -0.371 OA
BRANCH   4   5
ATOM      5  C   UNL     1      15.679   1.314  10.624  1.00  0.00     0.158 C 
ATOM      6  C   UNL     1      11.260   0.843   7.893  1.00  0.00    -0.003 C 
ATOM      7  C   UNL     1      12.499  -0.027   8.136  1.00  0.00     0.052 C 
ATOM      8  C   UNL     1      10.977   1.683   9.147  1.00  0.00     0.019 C 
ATOM      9  C   UNL     1      13.696   0.806   8.615  1.00  0.00     0.189 C 
ATOM     10  C   UNL     1      12.216   2.460   9.591  1.00  0.00     0.087 C 
ATOM     11  N   UNL     1      13.345   1.558   9.819  1.00  0.00    -0.276 NA
ATOM     12  O   UNL     1      14.766  -0.113   8.849  1.00  0.00    -0.360 OA
ATOM     13  C   UNL     1      14.517   2.279  10.329  1.00  0.00     0.121 C 
ATOM     14  C   UNL     1      15.951   0.521   9.341  1.00  0.00     0.195 C 
BRANCH   6  15
ATOM     15  C   UNL     1      10.055   0.004   7.533  1.00  0.00    -0.008 C 
ATOM     16  C   UNL     1       9.833  -0.440   6.106  1.00  0.00     0.004 C 
ATOM     17  C   UNL     1      10.209  -1.448   7.153  1.00  0.00     0.004 C 
ENDBRANCH   6  15
ENDBRANCH   4   5
ENDBRANCH   1   4
BRANCH   3  18
ATOM     18  C   UNL     1      16.496  -3.261  11.298  1.00  0.00     0.053 C 
BRANCH  18  19
ATOM     19  C   UNL     1      16.090  -3.731   9.925  1.00  0.00     0.074 C 
BRANCH  19  20
ATOM     20  N   UNL     1      15.666  -2.981   8.962  1.00  0.00    -0.313 NA
ATOM     21  H   UNL     1      15.279  -3.540   8.188  1.00  0.00     0.186 HD
ENDBRANCH  19  20
ENDBRANCH  18  19
ENDBRANCH   3  18
TORSDOF 6
ENDMDL
MODEL 6
REMARK VINA RESULT:    -3.679      6.426      9.819
REMARK INTER + INTRA:          -5.037
REMARK INTER:                  -4.372
REMARK INTRA:                  -0.665
REMARK UNBOUND:                -0.175
REMARK SMILES [H]/N=C\C[C@H]1C[C@@H]1O[C@H]1CO[C@H]2C[C@@H](C3CC3)CCN2C1
REMARK SMILES IDX 7 1 6 2 5 3 8 4 9 5 14 6 13 7 18 8 12 9 19 10 20 11 11 12
REMARK SMILES IDX 21 13 10 14 15 15 16 16 17 17 4 18 3 19 2 20 1 21
REMARK H PARENT
ROOT
ATOM      1  C   UNL     1      17.041  -0.963  12.311  1.00  0.00     0.122 C 
ATOM      2  C   UNL     1      16.982  -2.137  13.247  1.00  0.00     0.039 C 
ATOM      3  C   UNL     1      15.993  -2.026  12.123  1.00  0.00     0.026 C 
ENDROOT
BRANCH   1   4
ATOM      4  O   UNL     1      16.603   0.278  12.898  1.00  0.00    -0.371 OA
BRANCH   4   5
ATOM      5  C   UNL     1      16.985   1.467  12.189  1.00  0.00     0.158 C 
ATOM      6  C   UNL     1      12.536   2.301   9.598  1.00  0.00    -0.003 C 
ATOM      7  C   UNL     1      13.684   1.287   9.512  1.00  0.00     0.052 C 
ATOM      8  C   UNL     1      12.339   2.721  11.061  1.00  0.00     0.019 C 
ATOM      9  C   UNL     1      14.958   1.810  10.189  1.00  0.00     0.189 C 
ATOM     10  C   UNL     1      13.650   3.198  11.686  1.00  0.00     0.087 C 
ATOM     11  N   UNL     1      14.685   2.170  11.581  1.00  0.00    -0.276 NA
ATOM     12  O   UNL     1      15.932   0.770  10.086  1.00  0.00    -0.360 OA
ATOM     13  C   UNL     1      15.923   2.579  12.253  1.00  0.00     0.121 C 
ATOM     14  C   UNL     1      17.175   1.102  10.713  1.00  0.00     0.195 C 
BRANCH   6  15
ATOM     15  C   UNL     1      11.253   1.735   9.031  1.00  0.00    -0.008 C 
ATOM     16  C   UNL     1      10.748   2.192   7.682  1.00  0.00     0.004 C 
ATOM     17  C   UNL     1      11.278   0.797   7.849  1.00  0.00     0.004 C 
ENDBRANCH   6  15
ENDBRANCH   4   5
ENDBRANCH   1   4
BRANCH   3  18
ATOM     18  C   UNL     1      16.087  -2.984  10.974  1.00  0.00     0.053 C 
BRANCH  18  19
ATOM     19  C   UNL     1      15.194  -2.701   9.794  1.00  0.00     0.074 C 
BRANCH  19  20
ATOM     20  N   UNL     1      15.430  -1.848   8.854  1.00  0.00    -0.313 NA
ATOM     21  H   UNL     1      15.512  -2.307   7.936  1.00  0.00     0.186 HD
ENDBRANCH  19  20
ENDBRANCH  18  19
ENDBRANCH   3  18
TORSDOF 6
ENDMDL
MODEL 7
REMARK VINA RESULT:    -3.619      5.303      8.396
REMARK INTER + INTRA:          -4.958
REMARK INTER:                  -5.149
REMARK INTRA:                   0.192
REMARK UNBOUND:                -0.175
REMARK SMILES [H]/N=C\C[C@H]1C[C@@H]1O[C@H]1CO[C@H]2C[C@@H](C3CC3)CCN2C1
REMARK SMILES IDX 7 1 6 2 5 3 8 4 9 5 14 6 13 7 18 8 12 9 19 10 20 11 11 12
REMARK SMILES IDX 21 13 10 14 15 15 16 16 17 17 4 18 3 19 2 20 1 21
REMARK H PARENT
ROOT
ATOM      1  C   UNL     1      11.134   0.791   7.483  1.00  0.00     0.122 C 
ATOM      2  C   UNL     1      11.228   2.155   8.105  1.00  0.00     0.039 C 
ATOM      3  C   UNL     1      12.103   1.043   8.606  1.00  0.00     0.026 C 
ENDROOT
BRANCH   1   4
ATOM      4  O   UNL     1       9.931   0.073   7.818  1.00  0.00    -0.371 OA
BRANCH   4   5
ATOM      5  C   UNL     1       9.831  -1.255   7.279  1.00  0.00     0.158 C 
ATOM      6  C   UNL     1       6.170  -0.361   3.673  1.00  0.00    -0.003 C 
ATOM      7  C   UNL     1       6.204  -0.454   5.203  1.00  0.00     0.052 C 
ATOM      8  C   UNL     1       7.505   0.205   3.169  1.00  0.00     0.019 C 
ATOM      9  C   UNL     1       7.436  -1.223   5.700  1.00  0.00     0.189 C 
ATOM     10  C   UNL     1       8.690  -0.583   3.726  1.00  0.00     0.087 C 
ATOM     11  N   UNL     1       8.661  -0.609   5.188  1.00  0.00    -0.276 NA
ATOM     12  O   UNL     1       7.382  -1.203   7.127  1.00  0.00    -0.360 OA
ATOM     13  C   UNL     1       9.840  -1.286   5.740  1.00  0.00     0.121 C 
ATOM     14  C   UNL     1       8.499  -1.856   7.739  1.00  0.00     0.195 C 
BRANCH   6  15
ATOM     15  C   UNL     1       5.017   0.494   3.195  1.00  0.00    -0.008 C 
ATOM     16  C   UNL     1       3.592   0.078   3.473  1.00  0.00     0.004 C 
ATOM     17  C   UNL     1       4.172   1.271   4.175  1.00  0.00     0.004 C 
ENDBRANCH   6  15
ENDBRANCH   4   5
ENDBRANCH   1   4
BRANCH   3  18
ATOM     18  C   UNL     1      13.577   1.099   8.334  1.00  0.00     0.053 C 
BRANCH  18  19
ATOM     19  C   UNL     1      14.405  -0.016   8.917  1.00  0.00     0.074 C 
BRANCH  19  20
ATOM     20  N   UNL     1      14.108  -1.273   8.890  1.00  0.00    -0.313 NA
ATOM     21  H   UNL     1      13.742  -1.558   7.971  1.00  0.00     0.186 HD
ENDBRANCH  19  20
ENDBRANCH  18  19
ENDBRANCH   3  18
TORSDOF 6
ENDMDL
MODEL 8
REMARK VINA RESULT:    -3.557      3.176      6.573
REMARK INTER + INTRA:          -4.875
REMARK INTER:                  -4.720
REMARK INTRA:                  -0.155
REMARK UNBOUND:                -0.175
REMARK SMILES [H]/N=C\C[C@H]1C[C@@H]1O[C@H]1CO[C@H]2C[C@@H](C3CC3)CCN2C1
REMARK SMILES IDX 7 1 6 2 5 3 8 4 9 5 14 6 13 7 18 8 12 9 19 10 20 11 11 12
REMARK SMILES IDX 21 13 10 14 15 15 16 16 17 17 4 18 3 19 2 20 1 21
REMARK H PARENT
ROOT
ATOM      1  C   UNL     1      15.755  -4.990  10.149  1.00  0.00     0.122 C 
ATOM      2  C   UNL     1      17.232  -4.720  10.107  1.00  0.00     0.039 C 
ATOM      3  C   UNL     1      16.272  -3.718   9.534  1.00  0.00     0.026 C 
ENDROOT
BRANCH   1   4
ATOM      4  O   UNL     1      15.319  -6.017   9.237  1.00  0.00    -0.371 OA
BRANCH   4   5
ATOM      5  C   UNL     1      14.230  -6.833   9.698  1.00  0.00     0.158 C 
ATOM      6  C   UNL     1      10.332  -4.403   7.227  1.00  0.00    -0.003 C 
ATOM      7  C   UNL     1      11.245  -4.085   8.418  1.00  0.00     0.052 C 
ATOM      8  C   UNL     1      11.103  -5.255   6.210  1.00  0.00     0.019 C 
ATOM      9  C   UNL     1      11.869  -5.355   9.012  1.00  0.00     0.189 C 
ATOM     10  C   UNL     1      11.728  -6.484   6.871  1.00  0.00     0.087 C 
ATOM     11  N   UNL     1      12.597  -6.096   7.981  1.00  0.00    -0.276 NA
ATOM     12  O   UNL     1      12.726  -4.931  10.073  1.00  0.00    -0.360 OA
ATOM     13  C   UNL     1      13.272  -7.258   8.571  1.00  0.00     0.121 C 
ATOM     14  C   UNL     1      13.414  -6.015  10.705  1.00  0.00     0.195 C 
BRANCH   6  15
ATOM     15  C   UNL     1       9.811  -3.141   6.576  1.00  0.00    -0.008 C 
ATOM     16  C   UNL     1       8.759  -2.305   7.264  1.00  0.00     0.004 C 
ATOM     17  C   UNL     1      10.160  -1.782   7.132  1.00  0.00     0.004 C 
ENDBRANCH   6  15
ENDBRANCH   4   5
ENDBRANCH   1   4
BRANCH   3  18
ATOM     18  C   UNL     1      16.083  -2.408  10.238  1.00  0.00     0.053 C 
BRANCH  18  19
ATOM     19  C   UNL     1      15.185  -1.409   9.556  1.00  0.00     0.074 C 
BRANCH  19  20
ATOM     20  N   UNL     1      14.040  -1.665   9.016  1.00  0.00    -0.313 NA
ATOM     21  H   UNL     1      13.935  -1.192   8.107  1.00  0.00     0.186 HD
ENDBRANCH  19  20
ENDBRANCH  18  19
ENDBRANCH   3  18
TORSDOF 6
ENDMDL
MODEL 9
REMARK VINA RESULT:    -3.523      2.030      2.443
REMARK INTER + INTRA:          -4.831
REMARK INTER:                  -5.177
REMARK INTRA:                   0.346
REMARK UNBOUND:                -0.175
REMARK SMILES [H]/N=C\C[C@H]1C[C@@H]1O[C@H]1CO[C@H]2C[C@@H](C3CC3)CCN2C1
REMARK SMILES IDX 7 1 6 2 5 3 8 4 9 5 14 6 13 7 18 8 12 9 19 10 20 11 11 12
REMARK SMILES IDX 21 13 10 14 15 15 16 16 17 17 4 18 3 19 2 20 1 21
REMARK H PARENT
ROOT
ATOM      1  C   UNL     1      10.155  -2.098   7.338  1.00  0.00     0.122 C 
ATOM      2  C   UNL     1       9.642  -1.202   6.247  1.00  0.00     0.039 C 
ATOM      3  C   UNL     1       8.674  -1.941   7.125  1.00  0.00     0.026 C 
ENDROOT
BRANCH   1   4
ATOM      4  O   UNL     1      10.748  -3.322   6.863  1.00  0.00    -0.371 OA
BRANCH   4   5
ATOM      5  C   UNL     1      10.349  -4.515   7.557  1.00  0.00     0.158 C 
ATOM      6  C   UNL     1      14.577  -7.420   6.616  1.00  0.00    -0.003 C 
ATOM      7  C   UNL     1      13.388  -6.912   5.791  1.00  0.00     0.052 C 
ATOM      8  C   UNL     1      14.920  -6.390   7.701  1.00  0.00     0.019 C 
ATOM      9  C   UNL     1      12.201  -6.523   6.683  1.00  0.00     0.189 C 
ATOM     10  C   UNL     1      13.690  -6.021   8.530  1.00  0.00     0.087 C 
ATOM     11  N   UNL     1      12.611  -5.528   7.674  1.00  0.00    -0.276 NA
ATOM     12  O   UNL     1      11.183  -6.026   5.813  1.00  0.00    -0.360 OA
ATOM     13  C   UNL     1      11.454  -5.088   8.462  1.00  0.00     0.121 C 
ATOM     14  C   UNL     1      10.015  -5.584   6.512  1.00  0.00     0.195 C 
BRANCH   6  15
ATOM     15  C   UNL     1      15.781  -7.693   5.744  1.00  0.00    -0.008 C 
ATOM     16  C   UNL     1      16.602  -8.946   5.944  1.00  0.00     0.004 C 
ATOM     17  C   UNL     1      15.756  -8.795   4.712  1.00  0.00     0.004 C 
ENDBRANCH   6  15
ENDBRANCH   4   5
ENDBRANCH   1   4
BRANCH   3  18
ATOM     18  C   UNL     1       7.847  -1.167   8.108  1.00  0.00     0.053 C 
BRANCH  18  19
ATOM     19  C   UNL     1       6.404  -1.578   8.234  1.00  0.00     0.074 C 
BRANCH  19  20
ATOM     20  N   UNL     1       5.743  -1.696   9.338  1.00  0.00    -0.313 NA
ATOM     21  H   UNL     1       5.368  -0.791   9.654  1.00  0.00     0.186 HD
ENDBRANCH  19  20
ENDBRANCH  18  19
ENDBRANCH   3  18
TORSDOF 6
ENDMDL
