MODEL 1
REMARK VINA RESULT:    -6.026      0.000      0.000
REMARK INTER + INTRA:          -7.452
REMARK INTER:                  -7.082
REMARK INTRA:                  -0.369
REMARK UNBOUND:                -0.369
REMARK SMILES Cc1ccc(CNC(=O)NC(=O)c2ccc(C)cc2)cc1
REMARK SMILES IDX 11 1 12 2 10 3 8 4 9 5 7 6 13 9 19 10 18 11 14 12 16 13
REMARK SMILES IDX 15 14 17 15 6 16 5 17 4 18 20 19 3 20 21 21 2 22 1 23
REMARK H PARENT 10 7 7 8
ROOT
ATOM      1  C   UNL     1       8.257  -1.204   6.053  1.00  0.00     0.259 C 
ATOM      2  O   UNL     1       7.935  -2.383   6.092  1.00  0.00    -0.269 OA
ATOM      3  N   UNL     1       9.310  -0.562   6.713  1.00  0.00    -0.274 N 
ATOM      4  C   UNL     1      10.447  -0.917   7.393  1.00  0.00     0.321 C 
ATOM      5  O   UNL     1      11.222  -0.014   7.725  1.00  0.00    -0.248 OA
ATOM      6  N   UNL     1      10.772  -2.190   7.686  1.00  0.00    -0.334 N 
ATOM      7  H   UNL     1       9.365   0.433   6.540  1.00  0.00     0.175 HD
ATOM      8  H   UNL     1      11.681  -2.289   8.113  1.00  0.00     0.165 HD
ENDROOT
BRANCH   1   9
ATOM      9  C   UNL     1       7.441  -0.324   5.195  1.00  0.00     0.040 A 
ATOM     10  C   UNL     1       6.440   0.489   5.730  1.00  0.00     0.014 A 
ATOM     11  C   UNL     1       5.729   1.343   4.886  1.00  0.00     0.004 A 
ATOM     12  C   UNL     1       7.691  -0.331   3.819  1.00  0.00     0.014 A 
ATOM     13  C   UNL     1       6.009   1.382   3.512  1.00  0.00    -0.051 A 
ATOM     14  C   UNL     1       6.984   0.528   2.981  1.00  0.00     0.004 A 
ATOM     15  C   UNL     1       5.295   2.366   2.632  1.00  0.00     0.044 C 
ENDBRANCH   1   9
BRANCH   6  16
ATOM     16  C   UNL     1      10.070  -3.383   7.304  1.00  0.00     0.153 C 
BRANCH  16  17
ATOM     17  C   UNL     1      10.834  -4.677   7.351  1.00  0.00    -0.029 A 
ATOM     18  C   UNL     1      10.951  -5.535   6.252  1.00  0.00     0.006 A 
ATOM     19  C   UNL     1      11.629  -4.915   8.484  1.00  0.00     0.006 A 
ATOM     20  C   UNL     1      11.866  -6.592   6.284  1.00  0.00     0.004 A 
ATOM     21  C   UNL     1      12.541  -5.964   8.513  1.00  0.00     0.004 A 
ATOM     22  C   UNL     1      12.676  -6.807   7.408  1.00  0.00    -0.051 A 
ATOM     23  C   UNL     1      13.755  -7.847   7.395  1.00  0.00     0.044 C 
ENDBRANCH  16  17
ENDBRANCH   6  16
TORSDOF 3
ENDMDL
MODEL 2
REMARK VINA RESULT:    -6.023      3.291      5.588
REMARK INTER + INTRA:          -7.448
REMARK INTER:                  -7.082
REMARK INTRA:                  -0.366
REMARK UNBOUND:                -0.369
REMARK SMILES Cc1ccc(CNC(=O)NC(=O)c2ccc(C)cc2)cc1
REMARK SMILES IDX 11 1 12 2 10 3 8 4 9 5 7 6 13 9 19 10 18 11 14 12 16 13
REMARK SMILES IDX 15 14 17 15 6 16 5 17 4 18 20 19 3 20 21 21 2 22 1 23
REMARK H PARENT 10 7 7 8
ROOT
ATOM      1  C   UNL     1       8.252  -0.790   6.274  1.00  0.00     0.259 C 
ATOM      2  O   UNL     1       8.574   0.390   6.258  1.00  0.00    -0.269 OA
ATOM      3  N   UNL     1       9.028  -1.904   6.610  1.00  0.00    -0.274 N 
ATOM      4  C   UNL     1      10.227  -2.155   7.226  1.00  0.00     0.321 C 
ATOM      5  O   UNL     1      10.515  -3.334   7.462  1.00  0.00    -0.248 OA
ATOM      6  N   UNL     1      11.083  -1.190   7.610  1.00  0.00    -0.334 N 
ATOM      7  H   UNL     1       8.545  -2.789   6.527  1.00  0.00     0.175 HD
ATOM      8  H   UNL     1      11.880  -1.535   8.126  1.00  0.00     0.165 HD
ENDROOT
BRANCH   1   9
ATOM      9  C   UNL     1       6.860  -1.100   5.896  1.00  0.00     0.040 A 
ATOM     10  C   UNL     1       6.540  -1.569   4.621  1.00  0.00     0.014 A 
ATOM     11  C   UNL     1       5.216  -1.899   4.326  1.00  0.00     0.004 A 
ATOM     12  C   UNL     1       5.860  -0.905   6.854  1.00  0.00     0.014 A 
ATOM     13  C   UNL     1       4.213  -1.756   5.296  1.00  0.00    -0.051 A 
ATOM     14  C   UNL     1       4.541  -1.242   6.557  1.00  0.00     0.004 A 
ATOM     15  C   UNL     1       2.811  -2.195   4.992  1.00  0.00     0.044 C 
ENDBRANCH   1   9
BRANCH   6  16
ATOM     16  C   UNL     1      10.897   0.231   7.526  1.00  0.00     0.153 C 
BRANCH  16  17
ATOM     17  C   UNL     1      11.791   1.096   8.369  1.00  0.00    -0.029 A 
ATOM     18  C   UNL     1      11.306   2.081   9.234  1.00  0.00     0.006 A 
ATOM     19  C   UNL     1      13.149   0.744   8.436  1.00  0.00     0.006 A 
ATOM     20  C   UNL     1      12.163   2.681  10.163  1.00  0.00     0.004 A 
ATOM     21  C   UNL     1      13.999   1.338   9.363  1.00  0.00     0.004 A 
ATOM     22  C   UNL     1      13.511   2.305  10.243  1.00  0.00    -0.051 A 
ATOM     23  C   UNL     1      14.398   2.839  11.327  1.00  0.00     0.044 C 
ENDBRANCH  16  17
ENDBRANCH   6  16
TORSDOF 3
ENDMDL
MODEL 3
REMARK VINA RESULT:    -5.928      0.534      8.059
REMARK INTER + INTRA:          -7.337
REMARK INTER:                  -6.856
REMARK INTRA:                  -0.481
REMARK UNBOUND:                -0.369
REMARK SMILES Cc1ccc(CNC(=O)NC(=O)c2ccc(C)cc2)cc1
REMARK SMILES IDX 11 1 12 2 10 3 8 4 9 5 7 6 13 9 19 10 18 11 14 12 16 13
REMARK SMILES IDX 15 14 17 15 6 16 5 17 4 18 20 19 3 20 21 21 2 22 1 23
REMARK H PARENT 10 7 7 8
ROOT
ATOM      1  C   UNL     1      10.098  -3.315   6.911  1.00  0.00     0.259 C 
ATOM      2  O   UNL     1       9.008  -3.480   6.383  1.00  0.00    -0.269 OA
ATOM      3  N   UNL     1      10.701  -2.121   7.320  1.00  0.00    -0.274 N 
ATOM      4  C   UNL     1      10.328  -0.819   7.534  1.00  0.00     0.321 C 
ATOM      5  O   UNL     1      11.159  -0.061   8.044  1.00  0.00    -0.248 OA
ATOM      6  N   UNL     1       9.104  -0.339   7.246  1.00  0.00    -0.334 N 
ATOM      7  H   UNL     1      11.625  -2.235   7.715  1.00  0.00     0.175 HD
ATOM      8  H   UNL     1       8.962   0.616   7.543  1.00  0.00     0.165 HD
ENDROOT
BRANCH   1   9
ATOM      9  C   UNL     1      10.900  -4.527   7.163  1.00  0.00     0.040 A 
ATOM     10  C   UNL     1      11.018  -5.535   6.204  1.00  0.00     0.014 A 
ATOM     11  C   UNL     1      11.830  -6.638   6.468  1.00  0.00     0.004 A 
ATOM     12  C   UNL     1      11.540  -4.646   8.401  1.00  0.00     0.014 A 
ATOM     13  C   UNL     1      12.517  -6.742   7.686  1.00  0.00    -0.051 A 
ATOM     14  C   UNL     1      12.355  -5.747   8.658  1.00  0.00     0.004 A 
ATOM     15  C   UNL     1      13.453  -7.892   7.921  1.00  0.00     0.044 C 
ENDBRANCH   1   9
BRANCH   6  16
ATOM     16  C   UNL     1       7.971  -1.068   6.750  1.00  0.00     0.153 C 
BRANCH  16  17
ATOM     17  C   UNL     1       7.149  -0.417   5.673  1.00  0.00    -0.029 A 
ATOM     18  C   UNL     1       6.047   0.401   5.942  1.00  0.00     0.006 A 
ATOM     19  C   UNL     1       7.649  -0.473   4.361  1.00  0.00     0.006 A 
ATOM     20  C   UNL     1       5.476   1.165   4.919  1.00  0.00     0.004 A 
ATOM     21  C   UNL     1       7.083   0.292   3.346  1.00  0.00     0.004 A 
ATOM     22  C   UNL     1       5.998   1.126   3.618  1.00  0.00    -0.051 A 
ATOM     23  C   UNL     1       5.484   2.047   2.552  1.00  0.00     0.044 C 
ENDBRANCH  16  17
ENDBRANCH   6  16
TORSDOF 3
ENDMDL
MODEL 4
REMARK VINA RESULT:    -5.888      3.162      7.310
REMARK INTER + INTRA:          -7.291
REMARK INTER:                  -6.807
REMARK INTRA:                  -0.483
REMARK UNBOUND:                -0.369
REMARK SMILES Cc1ccc(CNC(=O)NC(=O)c2ccc(C)cc2)cc1
REMARK SMILES IDX 11 1 12 2 10 3 8 4 9 5 7 6 13 9 19 10 18 11 14 12 16 13
REMARK SMILES IDX 15 14 17 15 6 16 5 17 4 18 20 19 3 20 21 21 2 22 1 23
REMARK H PARENT 10 7 7 8
ROOT
ATOM      1  C   UNL     1      10.568   0.242   7.710  1.00  0.00     0.259 C 
ATOM      2  O   UNL     1       9.713   0.913   7.150  1.00  0.00    -0.269 OA
ATOM      3  N   UNL     1      10.721  -1.148   7.723  1.00  0.00    -0.274 N 
ATOM      4  C   UNL     1      10.237  -2.227   7.028  1.00  0.00     0.321 C 
ATOM      5  O   UNL     1      10.738  -3.332   7.263  1.00  0.00    -0.248 OA
ATOM      6  N   UNL     1       9.274  -2.138   6.091  1.00  0.00    -0.334 N 
ATOM      7  H   UNL     1      11.498  -1.478   8.280  1.00  0.00     0.175 HD
ATOM      8  H   UNL     1       9.092  -3.008   5.612  1.00  0.00     0.165 HD
ENDROOT
BRANCH   1   9
ATOM      9  C   UNL     1      11.588   0.980   8.479  1.00  0.00     0.040 A 
ATOM     10  C   UNL     1      11.242   2.043   9.315  1.00  0.00     0.014 A 
ATOM     11  C   UNL     1      12.235   2.677  10.063  1.00  0.00     0.004 A 
ATOM     12  C   UNL     1      12.924   0.589   8.343  1.00  0.00     0.014 A 
ATOM     13  C   UNL     1      13.571   2.258   9.972  1.00  0.00    -0.051 A 
ATOM     14  C   UNL     1      13.912   1.220   9.096  1.00  0.00     0.004 A 
ATOM     15  C   UNL     1      14.614   2.892  10.845  1.00  0.00     0.044 C 
ENDBRANCH   1   9
BRANCH   6  16
ATOM     16  C   UNL     1       8.639  -0.949   5.598  1.00  0.00     0.153 C 
BRANCH  16  17
ATOM     17  C   UNL     1       7.150  -0.996   5.394  1.00  0.00    -0.029 A 
ATOM     18  C   UNL     1       6.557  -1.349   4.178  1.00  0.00     0.006 A 
ATOM     19  C   UNL     1       6.341  -0.883   6.536  1.00  0.00     0.006 A 
ATOM     20  C   UNL     1       5.184  -1.608   4.118  1.00  0.00     0.004 A 
ATOM     21  C   UNL     1       4.976  -1.145   6.476  1.00  0.00     0.004 A 
ATOM     22  C   UNL     1       4.387  -1.520   5.267  1.00  0.00    -0.051 A 
ATOM     23  C   UNL     1       2.945  -1.933   5.241  1.00  0.00     0.044 C 
ENDBRANCH  16  17
ENDBRANCH   6  16
TORSDOF 3
ENDMDL
MODEL 5
REMARK VINA RESULT:    -5.594      3.018      7.623
REMARK INTER + INTRA:          -6.944
REMARK INTER:                  -6.446
REMARK INTRA:                  -0.498
REMARK UNBOUND:                -0.369
REMARK SMILES Cc1ccc(CNC(=O)NC(=O)c2ccc(C)cc2)cc1
REMARK SMILES IDX 11 1 12 2 10 3 8 4 9 5 7 6 13 9 19 10 18 11 14 12 16 13
REMARK SMILES IDX 15 14 17 15 6 16 5 17 4 18 20 19 3 20 21 21 2 22 1 23
REMARK H PARENT 10 7 7 8
ROOT
ATOM      1  C   UNL     1      10.982   0.387   7.568  1.00  0.00     0.259 C 
ATOM      2  O   UNL     1      10.482   1.107   6.716  1.00  0.00    -0.269 OA
ATOM      3  N   UNL     1      10.795  -0.983   7.777  1.00  0.00    -0.274 N 
ATOM      4  C   UNL     1      10.264  -2.048   7.095  1.00  0.00     0.321 C 
ATOM      5  O   UNL     1      10.415  -3.173   7.584  1.00  0.00    -0.248 OA
ATOM      6  N   UNL     1       9.622  -1.934   5.918  1.00  0.00    -0.334 N 
ATOM      7  H   UNL     1      11.304  -1.358   8.566  1.00  0.00     0.175 HD
ATOM      8  H   UNL     1       9.368  -2.820   5.506  1.00  0.00     0.165 HD
ENDROOT
BRANCH   1   9
ATOM      9  C   UNL     1      11.917   1.032   8.511  1.00  0.00     0.040 A 
ATOM     10  C   UNL     1      13.268   0.683   8.549  1.00  0.00     0.014 A 
ATOM     11  C   UNL     1      14.124   1.357   9.421  1.00  0.00     0.004 A 
ATOM     12  C   UNL     1      11.408   2.003   9.379  1.00  0.00     0.014 A 
ATOM     13  C   UNL     1      13.634   2.370  10.259  1.00  0.00    -0.051 A 
ATOM     14  C   UNL     1      12.268   2.678  10.243  1.00  0.00     0.004 A 
ATOM     15  C   UNL     1      14.581   3.143  11.129  1.00  0.00     0.044 C 
ENDBRANCH   1   9
BRANCH   6  16
ATOM     16  C   UNL     1       9.432  -0.745   5.136  1.00  0.00     0.153 C 
BRANCH  16  17
ATOM     17  C   UNL     1       8.019  -0.372   4.779  1.00  0.00    -0.029 A 
ATOM     18  C   UNL     1       7.569  -0.264   3.460  1.00  0.00     0.006 A 
ATOM     19  C   UNL     1       7.079  -0.343   5.822  1.00  0.00     0.006 A 
ATOM     20  C   UNL     1       6.200  -0.153   3.194  1.00  0.00     0.004 A 
ATOM     21  C   UNL     1       5.717  -0.238   5.556  1.00  0.00     0.004 A 
ATOM     22  C   UNL     1       5.265  -0.152   4.239  1.00  0.00    -0.051 A 
ATOM     23  C   UNL     1       3.792  -0.178   3.957  1.00  0.00     0.044 C 
ENDBRANCH  16  17
ENDBRANCH   6  16
TORSDOF 3
ENDMDL
MODEL 6
REMARK VINA RESULT:    -4.532      5.008      8.155
REMARK INTER + INTRA:          -5.697
REMARK INTER:                  -5.151
REMARK INTRA:                  -0.546
REMARK UNBOUND:                -0.369
REMARK SMILES Cc1ccc(CNC(=O)NC(=O)c2ccc(C)cc2)cc1
REMARK SMILES IDX 11 1 12 2 10 3 8 4 9 5 7 6 13 9 19 10 18 11 14 12 16 13
REMARK SMILES IDX 15 14 17 15 6 16 5 17 4 18 20 19 3 20 21 21 2 22 1 23
REMARK H PARENT 10 7 7 8
ROOT
ATOM      1  C   UNL     1      13.541  -7.293   7.430  1.00  0.00     0.259 C 
ATOM      2  O   UNL     1      14.678  -6.863   7.562  1.00  0.00    -0.269 OA
ATOM      3  N   UNL     1      13.115  -8.619   7.298  1.00  0.00    -0.274 N 
ATOM      4  C   UNL     1      13.638  -9.873   7.481  1.00  0.00     0.321 C 
ATOM      5  O   UNL     1      12.868 -10.835   7.381  1.00  0.00    -0.248 OA
ATOM      6  N   UNL     1      14.927 -10.105   7.791  1.00  0.00    -0.334 N 
ATOM      7  H   UNL     1      12.117  -8.726   7.179  1.00  0.00     0.175 HD
ATOM      8  H   UNL     1      15.132 -11.076   7.976  1.00  0.00     0.165 HD
ENDROOT
BRANCH   1   9
ATOM      9  C   UNL     1      12.455  -6.293   7.411  1.00  0.00     0.040 A 
ATOM     10  C   UNL     1      12.240  -5.431   8.488  1.00  0.00     0.014 A 
ATOM     11  C   UNL     1      11.235  -4.468   8.403  1.00  0.00     0.004 A 
ATOM     12  C   UNL     1      11.635  -6.236   6.280  1.00  0.00     0.014 A 
ATOM     13  C   UNL     1      10.441  -4.367   7.251  1.00  0.00    -0.051 A 
ATOM     14  C   UNL     1      10.637  -5.267   6.196  1.00  0.00     0.004 A 
ATOM     15  C   UNL     1       9.421  -3.272   7.140  1.00  0.00     0.044 C 
ENDBRANCH   1   9
BRANCH   6  16
ATOM     16  C   UNL     1      15.953  -9.135   8.052  1.00  0.00     0.153 C 
BRANCH  16  17
ATOM     17  C   UNL     1      16.440  -9.012   9.469  1.00  0.00    -0.029 A 
ATOM     18  C   UNL     1      16.679  -7.782  10.091  1.00  0.00     0.006 A 
ATOM     19  C   UNL     1      16.449 -10.179  10.250  1.00  0.00     0.006 A 
ATOM     20  C   UNL     1      16.896  -7.725  11.471  1.00  0.00     0.004 A 
ATOM     21  C   UNL     1      16.660 -10.121  11.624  1.00  0.00     0.004 A 
ATOM     22  C   UNL     1      16.876  -8.892  12.249  1.00  0.00    -0.051 A 
ATOM     23  C   UNL     1      16.965  -8.824  13.744  1.00  0.00     0.044 C 
ENDBRANCH  16  17
ENDBRANCH   6  16
TORSDOF 3
ENDMDL
MODEL 7
REMARK VINA RESULT:    -4.364      6.570     10.980
REMARK INTER + INTRA:          -5.499
REMARK INTER:                  -4.919
REMARK INTRA:                  -0.580
REMARK UNBOUND:                -0.369
REMARK SMILES Cc1ccc(CNC(=O)NC(=O)c2ccc(C)cc2)cc1
REMARK SMILES IDX 11 1 12 2 10 3 8 4 9 5 7 6 13 9 19 10 18 11 14 12 16 13
REMARK SMILES IDX 15 14 17 15 6 16 5 17 4 18 20 19 3 20 21 21 2 22 1 23
REMARK H PARENT 10 7 7 8
ROOT
ATOM      1  C   UNL     1      15.471   0.216  13.040  1.00  0.00     0.259 C 
ATOM      2  O   UNL     1      15.902   0.477  11.926  1.00  0.00    -0.269 OA
ATOM      3  N   UNL     1      14.572   0.947  13.824  1.00  0.00    -0.274 N 
ATOM      4  C   UNL     1      13.693   1.986  13.655  1.00  0.00     0.321 C 
ATOM      5  O   UNL     1      12.950   2.268  14.601  1.00  0.00    -0.248 OA
ATOM      6  N   UNL     1      13.578   2.685  12.511  1.00  0.00    -0.334 N 
ATOM      7  H   UNL     1      14.379   0.538  14.729  1.00  0.00     0.175 HD
ATOM      8  H   UNL     1      12.826   3.359  12.520  1.00  0.00     0.165 HD
ENDROOT
BRANCH   1   9
ATOM      9  C   UNL     1      15.947  -1.037  13.657  1.00  0.00     0.040 A 
ATOM     10  C   UNL     1      16.024  -1.183  15.043  1.00  0.00     0.014 A 
ATOM     11  C   UNL     1      16.430  -2.405  15.581  1.00  0.00     0.004 A 
ATOM     12  C   UNL     1      16.328  -2.082  12.810  1.00  0.00     0.014 A 
ATOM     13  C   UNL     1      16.765  -3.477  14.740  1.00  0.00    -0.051 A 
ATOM     14  C   UNL     1      16.727  -3.303  13.351  1.00  0.00     0.004 A 
ATOM     15  C   UNL     1      17.118  -4.809  15.333  1.00  0.00     0.044 C 
ENDBRANCH   1   9
BRANCH   6  16
ATOM     16  C   UNL     1      14.265   2.456  11.271  1.00  0.00     0.153 C 
BRANCH  16  17
ATOM     17  C   UNL     1      13.430   2.067  10.082  1.00  0.00    -0.029 A 
ATOM     18  C   UNL     1      13.839   1.118   9.140  1.00  0.00     0.006 A 
ATOM     19  C   UNL     1      12.105   2.529  10.048  1.00  0.00     0.006 A 
ATOM     20  C   UNL     1      12.927   0.627   8.200  1.00  0.00     0.004 A 
ATOM     21  C   UNL     1      11.197   2.036   9.116  1.00  0.00     0.004 A 
ATOM     22  C   UNL     1      11.598   1.072   8.190  1.00  0.00    -0.051 A 
ATOM     23  C   UNL     1      10.582   0.448   7.281  1.00  0.00     0.044 C 
ENDBRANCH  16  17
ENDBRANCH   6  16
TORSDOF 3
ENDMDL
MODEL 8
REMARK VINA RESULT:    -4.270      4.897      7.293
REMARK INTER + INTRA:          -5.388
REMARK INTER:                  -4.951
REMARK INTRA:                  -0.438
REMARK UNBOUND:                -0.369
REMARK SMILES Cc1ccc(CNC(=O)NC(=O)c2ccc(C)cc2)cc1
REMARK SMILES IDX 11 1 12 2 10 3 8 4 9 5 7 6 13 9 19 10 18 11 14 12 16 13
REMARK SMILES IDX 15 14 17 15 6 16 5 17 4 18 20 19 3 20 21 21 2 22 1 23
REMARK H PARENT 10 7 7 8
ROOT
ATOM      1  C   UNL     1      11.119   0.673   7.863  1.00  0.00     0.259 C 
ATOM      2  O   UNL     1      10.880   1.814   8.230  1.00  0.00    -0.269 OA
ATOM      3  N   UNL     1      12.304  -0.059   7.994  1.00  0.00    -0.274 N 
ATOM      4  C   UNL     1      13.476   0.028   8.701  1.00  0.00     0.321 C 
ATOM      5  O   UNL     1      14.255  -0.929   8.640  1.00  0.00    -0.248 OA
ATOM      6  N   UNL     1      13.803   1.081   9.473  1.00  0.00    -0.334 N 
ATOM      7  H   UNL     1      12.269  -0.985   7.589  1.00  0.00     0.175 HD
ATOM      8  H   UNL     1      14.658   0.954   9.994  1.00  0.00     0.165 HD
ENDROOT
BRANCH   1   9
ATOM      9  C   UNL     1      10.021  -0.049   7.192  1.00  0.00     0.040 A 
ATOM     10  C   UNL     1       9.011  -0.678   7.923  1.00  0.00     0.014 A 
ATOM     11  C   UNL     1       7.965  -1.304   7.244  1.00  0.00     0.004 A 
ATOM     12  C   UNL     1      10.021  -0.094   5.795  1.00  0.00     0.014 A 
ATOM     13  C   UNL     1       7.928  -1.309   5.841  1.00  0.00    -0.051 A 
ATOM     14  C   UNL     1       8.971  -0.714   5.121  1.00  0.00     0.004 A 
ATOM     15  C   UNL     1       6.753  -1.911   5.127  1.00  0.00     0.044 C 
ENDBRANCH   1   9
BRANCH   6  16
ATOM     16  C   UNL     1      13.002   2.238   9.761  1.00  0.00     0.153 C 
BRANCH  16  17
ATOM     17  C   UNL     1      12.988   2.731  11.182  1.00  0.00    -0.029 A 
ATOM     18  C   UNL     1      12.386   2.025  12.228  1.00  0.00     0.006 A 
ATOM     19  C   UNL     1      13.798   3.837  11.487  1.00  0.00     0.006 A 
ATOM     20  C   UNL     1      12.613   2.410  13.554  1.00  0.00     0.004 A 
ATOM     21  C   UNL     1      14.026   4.216  12.806  1.00  0.00     0.004 A 
ATOM     22  C   UNL     1      13.444   3.499  13.852  1.00  0.00    -0.051 A 
ATOM     23  C   UNL     1      13.805   3.829  15.269  1.00  0.00     0.044 C 
ENDBRANCH  16  17
ENDBRANCH   6  16
TORSDOF 3
ENDMDL
MODEL 9
REMARK VINA RESULT:    -4.164      7.290      9.004
REMARK INTER + INTRA:          -5.264
REMARK INTER:                  -4.775
REMARK INTRA:                  -0.488
REMARK UNBOUND:                -0.369
REMARK SMILES Cc1ccc(CNC(=O)NC(=O)c2ccc(C)cc2)cc1
REMARK SMILES IDX 11 1 12 2 10 3 8 4 9 5 7 6 13 9 19 10 18 11 14 12 16 13
REMARK SMILES IDX 15 14 17 15 6 16 5 17 4 18 20 19 3 20 21 21 2 22 1 23
REMARK H PARENT 10 7 7 8
ROOT
ATOM      1  C   UNL     1      15.523  -0.678  12.004  1.00  0.00     0.259 C 
ATOM      2  O   UNL     1      15.951  -1.712  12.497  1.00  0.00    -0.269 OA
ATOM      3  N   UNL     1      15.380  -0.347  10.653  1.00  0.00    -0.274 N 
ATOM      4  C   UNL     1      15.395  -0.994   9.444  1.00  0.00     0.321 C 
ATOM      5  O   UNL     1      15.082  -0.343   8.442  1.00  0.00    -0.248 OA
ATOM      6  N   UNL     1      15.701  -2.296   9.301  1.00  0.00    -0.334 N 
ATOM      7  H   UNL     1      15.020   0.584  10.488  1.00  0.00     0.175 HD
ATOM      8  H   UNL     1      15.583  -2.641   8.359  1.00  0.00     0.165 HD
ENDROOT
BRANCH   1   9
ATOM      9  C   UNL     1      15.091   0.373  12.945  1.00  0.00     0.040 A 
ATOM     10  C   UNL     1      15.951   0.872  13.925  1.00  0.00     0.014 A 
ATOM     11  C   UNL     1      15.515   1.903  14.757  1.00  0.00     0.004 A 
ATOM     12  C   UNL     1      13.783   0.855  12.835  1.00  0.00     0.014 A 
ATOM     13  C   UNL     1      14.221   2.430  14.621  1.00  0.00    -0.051 A 
ATOM     14  C   UNL     1      13.353   1.889  13.665  1.00  0.00     0.004 A 
ATOM     15  C   UNL     1      13.796   3.594  15.466  1.00  0.00     0.044 C 
ENDBRANCH   1   9
BRANCH   6  16
ATOM     16  C   UNL     1      15.989  -3.248  10.337  1.00  0.00     0.153 C 
BRANCH  16  17
ATOM     17  C   UNL     1      14.963  -4.316  10.597  1.00  0.00    -0.029 A 
ATOM     18  C   UNL     1      15.124  -5.307  11.571  1.00  0.00     0.006 A 
ATOM     19  C   UNL     1      13.713  -4.171   9.975  1.00  0.00     0.006 A 
ATOM     20  C   UNL     1      14.041  -6.118  11.929  1.00  0.00     0.004 A 
ATOM     21  C   UNL     1      12.636  -4.975  10.336  1.00  0.00     0.004 A 
ATOM     22  C   UNL     1      12.788  -5.949  11.324  1.00  0.00    -0.051 A 
ATOM     23  C   UNL     1      11.591  -6.715  11.802  1.00  0.00     0.044 C 
ENDBRANCH  16  17
ENDBRANCH   6  16
TORSDOF 3
ENDMDL
