MODEL 1
REMARK VINA RESULT:    -4.172      0.000      0.000
REMARK INTER + INTRA:          -5.721
REMARK INTER:                  -5.514
REMARK INTRA:                  -0.207
REMARK UNBOUND:                -0.207
REMARK SMILES [H]/N=C\C[C@H]1C[C@@H]1O[C@H]1CO[C@H]2C[C@@H](C3CC3)CCN2C1
REMARK SMILES IDX 7 1 6 2 5 3 8 4 9 5 14 6 13 7 18 8 12 9 19 10 20 11 11 12
REMARK SMILES IDX 21 13 10 14 15 15 16 16 17 17 4 18 3 19 2 20 1 21
REMARK H PARENT
ROOT
ATOM      1  C   UNL     1      -5.214   4.360 -11.406  1.00  0.00     0.122 C 
ATOM      2  C   UNL     1      -5.052   5.539 -12.323  1.00  0.00     0.039 C 
ATOM      3  C   UNL     1      -4.167   4.336 -12.486  1.00  0.00     0.026 C 
ENDROOT
BRANCH   1   4
ATOM      4  O   UNL     1      -4.750   4.594 -10.063  1.00  0.00    -0.371 OA
BRANCH   4   5
ATOM      5  C   UNL     1      -5.592   5.429  -9.252  1.00  0.00     0.158 C 
ATOM      6  C   UNL     1      -5.253   2.776  -4.774  1.00  0.00    -0.003 C 
ATOM      7  C   UNL     1      -5.936   2.560  -6.130  1.00  0.00     0.052 C 
ATOM      8  C   UNL     1      -3.949   3.559  -4.982  1.00  0.00     0.019 C 
ATOM      9  C   UNL     1      -6.113   3.877  -6.897  1.00  0.00     0.189 C 
ATOM     10  C   UNL     1      -4.188   4.841  -5.780  1.00  0.00     0.087 C 
ATOM     11  N   UNL     1      -4.823   4.547  -7.065  1.00  0.00    -0.276 NA
ATOM     12  O   UNL     1      -6.711   3.544  -8.151  1.00  0.00    -0.360 OA
ATOM     13  C   UNL     1      -4.980   5.758  -7.879  1.00  0.00     0.121 C 
ATOM     14  C   UNL     1      -6.905   4.680  -8.999  1.00  0.00     0.195 C 
BRANCH   6  15
ATOM     15  C   UNL     1      -4.978   1.464  -4.075  1.00  0.00    -0.008 C 
ATOM     16  C   UNL     1      -5.223   1.324  -2.591  1.00  0.00     0.004 C 
ATOM     17  C   UNL     1      -6.112   0.607  -3.566  1.00  0.00     0.004 C 
ENDBRANCH   6  15
ENDBRANCH   4   5
ENDBRANCH   1   4
BRANCH   3  18
ATOM     18  C   UNL     1      -4.344   3.462 -13.691  1.00  0.00     0.053 C 
BRANCH  18  19
ATOM     19  C   UNL     1      -4.275   4.150 -15.029  1.00  0.00     0.074 C 
BRANCH  19  20
ATOM     20  N   UNL     1      -3.196   4.471 -15.661  1.00  0.00    -0.313 NA
ATOM     21  H   UNL     1      -2.608   3.648 -15.853  1.00  0.00     0.186 HD
ENDBRANCH  19  20
ENDBRANCH  18  19
ENDBRANCH   3  18
TORSDOF 6
ENDMDL
MODEL 2
REMARK VINA RESULT:    -4.151      3.322      5.595
REMARK INTER + INTRA:          -5.693
REMARK INTER:                  -5.471
REMARK INTRA:                  -0.222
REMARK UNBOUND:                -0.207
REMARK SMILES [H]/N=C\C[C@H]1C[C@@H]1O[C@H]1CO[C@H]2C[C@@H](C3CC3)CCN2C1
REMARK SMILES IDX 7 1 6 2 5 3 8 4 9 5 14 6 13 7 18 8 12 9 19 10 20 11 11 12
REMARK SMILES IDX 21 13 10 14 15 15 16 16 17 17 4 18 3 19 2 20 1 21
REMARK H PARENT
ROOT
ATOM      1  C   UNL     1      -8.913   6.053  -8.498  1.00  0.00     0.122 C 
ATOM      2  C   UNL     1     -10.109   5.736  -9.351  1.00  0.00     0.039 C 
ATOM      3  C   UNL     1     -10.299   6.361  -7.999  1.00  0.00     0.026 C 
ENDROOT
BRANCH   1   4
ATOM      4  O   UNL     1      -8.269   4.893  -7.937  1.00  0.00    -0.371 OA
BRANCH   4   5
ATOM      5  C   UNL     1      -7.491   4.111  -8.857  1.00  0.00     0.158 C 
ATOM      6  C   UNL     1      -3.549   2.856  -5.681  1.00  0.00    -0.003 C 
ATOM      7  C   UNL     1      -4.021   4.128  -6.396  1.00  0.00     0.052 C 
ATOM      8  C   UNL     1      -4.767   1.998  -5.315  1.00  0.00     0.019 C 
ATOM      9  C   UNL     1      -4.939   3.807  -7.583  1.00  0.00     0.189 C 
ATOM     10  C   UNL     1      -5.657   1.743  -6.532  1.00  0.00     0.087 C 
ATOM     11  N   UNL     1      -6.080   3.003  -7.144  1.00  0.00    -0.276 NA
ATOM     12  O   UNL     1      -5.348   5.061  -8.134  1.00  0.00    -0.360 OA
ATOM     13  C   UNL     1      -7.004   2.778  -8.260  1.00  0.00     0.121 C 
ATOM     14  C   UNL     1      -6.247   4.921  -9.238  1.00  0.00     0.195 C 
BRANCH   6  15
ATOM     15  C   UNL     1      -2.739   3.182  -4.446  1.00  0.00    -0.008 C 
ATOM     16  C   UNL     1      -1.408   2.510  -4.207  1.00  0.00     0.004 C 
ATOM     17  C   UNL     1      -1.456   3.971  -4.548  1.00  0.00     0.004 C 
ENDBRANCH   6  15
ENDBRANCH   4   5
ENDBRANCH   1   4
BRANCH   3  18
ATOM     18  C   UNL     1     -10.773   7.781  -7.914  1.00  0.00     0.053 C 
BRANCH  18  19
ATOM     19  C   UNL     1     -11.956   8.140  -8.775  1.00  0.00     0.074 C 
BRANCH  19  20
ATOM     20  N   UNL     1     -13.198   8.050  -8.431  1.00  0.00    -0.313 NA
ATOM     21  H   UNL     1     -13.821   8.442  -9.152  1.00  0.00     0.186 HD
ENDBRANCH  19  20
ENDBRANCH  18  19
ENDBRANCH   3  18
TORSDOF 6
ENDMDL
MODEL 3
REMARK VINA RESULT:    -4.091      5.214      8.415
REMARK INTER + INTRA:          -5.613
REMARK INTER:                  -5.448
REMARK INTRA:                  -0.166
REMARK UNBOUND:                -0.207
REMARK SMILES [H]/N=C\C[C@H]1C[C@@H]1O[C@H]1CO[C@H]2C[C@@H](C3CC3)CCN2C1
REMARK SMILES IDX 7 1 6 2 5 3 8 4 9 5 14 6 13 7 18 8 12 9 19 10 20 11 11 12
REMARK SMILES IDX 21 13 10 14 15 15 16 16 17 17 4 18 3 19 2 20 1 21
REMARK H PARENT
ROOT
ATOM      1  C   UNL     1      -6.759   4.917  -8.461  1.00  0.00     0.122 C 
ATOM      2  C   UNL     1      -5.537   5.019  -9.330  1.00  0.00     0.039 C 
ATOM      3  C   UNL     1      -5.553   5.678  -7.980  1.00  0.00     0.026 C 
ENDROOT
BRANCH   1   4
ATOM      4  O   UNL     1      -7.875   5.702  -8.923  1.00  0.00    -0.371 OA
BRANCH   4   5
ATOM      5  C   UNL     1      -9.170   5.111  -8.731  1.00  0.00     0.158 C 
ATOM      6  C   UNL     1     -12.084   9.395  -9.333  1.00  0.00    -0.003 C 
ATOM      7  C   UNL     1     -11.133   8.855  -8.257  1.00  0.00     0.052 C 
ATOM      8  C   UNL     1     -11.603   8.929 -10.714  1.00  0.00     0.019 C 
ATOM      9  C   UNL     1     -10.944   7.337  -8.374  1.00  0.00     0.189 C 
ATOM     10  C   UNL     1     -11.401   7.415 -10.754  1.00  0.00     0.087 C 
ATOM     11  N   UNL     1     -10.469   6.983  -9.712  1.00  0.00    -0.276 NA
ATOM     12  O   UNL     1     -10.011   6.962  -7.358  1.00  0.00    -0.360 OA
ATOM     13  C   UNL     1     -10.198   5.544  -9.791  1.00  0.00     0.121 C 
ATOM     14  C   UNL     1      -9.703   5.565  -7.368  1.00  0.00     0.195 C 
BRANCH   6  15
ATOM     15  C   UNL     1     -12.177  10.903  -9.284  1.00  0.00    -0.008 C 
ATOM     16  C   UNL     1     -13.453  11.603  -9.689  1.00  0.00     0.004 C 
ATOM     17  C   UNL     1     -13.032  11.593  -8.248  1.00  0.00     0.004 C 
ENDBRANCH   6  15
ENDBRANCH   4   5
ENDBRANCH   1   4
BRANCH   3  18
ATOM     18  C   UNL     1      -4.693   5.117  -6.888  1.00  0.00     0.053 C 
BRANCH  18  19
ATOM     19  C   UNL     1      -3.999   6.121  -6.004  1.00  0.00     0.074 C 
BRANCH  19  20
ATOM     20  N   UNL     1      -3.656   7.319  -6.344  1.00  0.00    -0.313 NA
ATOM     21  H   UNL     1      -3.832   7.994  -5.586  1.00  0.00     0.186 HD
ENDBRANCH  19  20
ENDBRANCH  18  19
ENDBRANCH   3  18
TORSDOF 6
ENDMDL
MODEL 4
REMARK VINA RESULT:    -3.670      6.410      7.825
REMARK INTER + INTRA:          -5.057
REMARK INTER:                  -4.849
REMARK INTRA:                  -0.208
REMARK UNBOUND:                -0.207
REMARK SMILES [H]/N=C\C[C@H]1C[C@@H]1O[C@H]1CO[C@H]2C[C@@H](C3CC3)CCN2C1
REMARK SMILES IDX 7 1 6 2 5 3 8 4 9 5 14 6 13 7 18 8 12 9 19 10 20 11 11 12
REMARK SMILES IDX 21 13 10 14 15 15 16 16 17 17 4 18 3 19 2 20 1 21
REMARK H PARENT
ROOT
ATOM      1  C   UNL     1     -11.705  10.362 -12.236  1.00  0.00     0.122 C 
ATOM      2  C   UNL     1     -11.210  11.519 -11.414  1.00  0.00     0.039 C 
ATOM      3  C   UNL     1     -10.912  11.463 -12.885  1.00  0.00     0.026 C 
ENDROOT
BRANCH   1   4
ATOM      4  O   UNL     1     -11.009   9.125 -11.988  1.00  0.00    -0.371 OA
BRANCH   4   5
ATOM      5  C   UNL     1     -11.845   7.972 -11.798  1.00  0.00     0.158 C 
ATOM      6  C   UNL     1      -8.729   5.265  -8.609  1.00  0.00    -0.003 C 
ATOM      7  C   UNL     1      -8.726   5.629 -10.099  1.00  0.00     0.052 C 
ATOM      8  C   UNL     1      -9.382   6.401  -7.810  1.00  0.00     0.019 C 
ATOM      9  C   UNL     1     -10.127   6.016 -10.593  1.00  0.00     0.189 C 
ATOM     10  C   UNL     1     -10.757   6.761  -8.373  1.00  0.00     0.087 C 
ATOM     11  N   UNL     1     -10.666   7.113  -9.790  1.00  0.00    -0.276 NA
ATOM     12  O   UNL     1      -9.989   6.376 -11.969  1.00  0.00    -0.360 OA
ATOM     13  C   UNL     1     -11.963   7.545 -10.324  1.00  0.00     0.121 C 
ATOM     14  C   UNL     1     -11.220   6.800 -12.563  1.00  0.00     0.195 C 
BRANCH   6  15
ATOM     15  C   UNL     1      -7.330   4.996  -8.102  1.00  0.00    -0.008 C 
ATOM     16  C   UNL     1      -6.760   3.598  -8.140  1.00  0.00     0.004 C 
ATOM     17  C   UNL     1      -6.213   4.652  -9.057  1.00  0.00     0.004 C 
ENDBRANCH   6  15
ENDBRANCH   4   5
ENDBRANCH   1   4
BRANCH   3  18
ATOM     18  C   UNL     1     -11.585  12.440 -13.801  1.00  0.00     0.053 C 
BRANCH  18  19
ATOM     19  C   UNL     1     -10.689  13.184 -14.757  1.00  0.00     0.074 C 
BRANCH  19  20
ATOM     20  N   UNL     1      -9.689  12.682 -15.403  1.00  0.00    -0.313 NA
ATOM     21  H   UNL     1      -9.936  12.472 -16.381  1.00  0.00     0.186 HD
ENDBRANCH  19  20
ENDBRANCH  18  19
ENDBRANCH   3  18
TORSDOF 6
ENDMDL
MODEL 5
REMARK VINA RESULT:    -3.542      6.930      8.360
REMARK INTER + INTRA:          -4.888
REMARK INTER:                  -4.287
REMARK INTRA:                  -0.601
REMARK UNBOUND:                -0.207
REMARK SMILES [H]/N=C\C[C@H]1C[C@@H]1O[C@H]1CO[C@H]2C[C@@H](C3CC3)CCN2C1
REMARK SMILES IDX 7 1 6 2 5 3 8 4 9 5 14 6 13 7 18 8 12 9 19 10 20 11 11 12
REMARK SMILES IDX 21 13 10 14 15 15 16 16 17 17 4 18 3 19 2 20 1 21
REMARK H PARENT
ROOT
ATOM      1  C   UNL     1     -11.752   9.737 -14.081  1.00  0.00     0.122 C 
ATOM      2  C   UNL     1     -10.751  10.470 -14.928  1.00  0.00     0.039 C 
ATOM      3  C   UNL     1     -10.337   9.236 -14.179  1.00  0.00     0.026 C 
ENDROOT
BRANCH   1   4
ATOM      4  O   UNL     1     -12.110  10.424 -12.867  1.00  0.00    -0.371 OA
BRANCH   4   5
ATOM      5  C   UNL     1     -13.279   9.927 -12.195  1.00  0.00     0.158 C 
ATOM      6  C   UNL     1     -10.918   7.282  -8.370  1.00  0.00    -0.003 C 
ATOM      7  C   UNL     1     -11.104   7.096  -9.881  1.00  0.00     0.052 C 
ATOM      8  C   UNL     1     -10.846   8.781  -8.048  1.00  0.00     0.019 C 
ATOM      9  C   UNL     1     -12.294   7.908 -10.412  1.00  0.00     0.189 C 
ATOM     10  C   UNL     1     -12.040   9.536  -8.633  1.00  0.00     0.087 C 
ATOM     11  N   UNL     1     -12.136   9.323 -10.077  1.00  0.00    -0.276 NA
ATOM     12  O   UNL     1     -12.337   7.692 -11.824  1.00  0.00    -0.360 OA
ATOM     13  C   UNL     1     -13.224  10.110 -10.668  1.00  0.00     0.121 C 
ATOM     14  C   UNL     1     -13.383   8.423 -12.471  1.00  0.00     0.195 C 
BRANCH   6  15
ATOM     15  C   UNL     1      -9.679   6.572  -7.872  1.00  0.00    -0.008 C 
ATOM     16  C   UNL     1      -9.783   5.200  -7.249  1.00  0.00     0.004 C 
ATOM     17  C   UNL     1      -9.138   5.363  -8.595  1.00  0.00     0.004 C 
ENDBRANCH   6  15
ENDBRANCH   4   5
ENDBRANCH   1   4
BRANCH   3  18
ATOM     18  C   UNL     1     -10.028   7.988 -14.950  1.00  0.00     0.053 C 
BRANCH  18  19
ATOM     19  C   UNL     1      -9.587   6.797 -14.141  1.00  0.00     0.074 C 
BRANCH  19  20
ATOM     20  N   UNL     1     -10.347   6.059 -13.402  1.00  0.00    -0.313 NA
ATOM     21  H   UNL     1     -10.615   6.541 -12.532  1.00  0.00     0.186 HD
ENDBRANCH  19  20
ENDBRANCH  18  19
ENDBRANCH   3  18
TORSDOF 6
ENDMDL
MODEL 6
REMARK VINA RESULT:    -3.373      6.055      7.775
REMARK INTER + INTRA:          -4.665
REMARK INTER:                  -4.021
REMARK INTRA:                  -0.644
REMARK UNBOUND:                -0.207
REMARK SMILES [H]/N=C\C[C@H]1C[C@@H]1O[C@H]1CO[C@H]2C[C@@H](C3CC3)CCN2C1
REMARK SMILES IDX 7 1 6 2 5 3 8 4 9 5 14 6 13 7 18 8 12 9 19 10 20 11 11 12
REMARK SMILES IDX 21 13 10 14 15 15 16 16 17 17 4 18 3 19 2 20 1 21
REMARK H PARENT
ROOT
ATOM      1  C   UNL     1     -10.118   8.496 -15.235  1.00  0.00     0.122 C 
ATOM      2  C   UNL     1      -9.396   9.607 -15.943  1.00  0.00     0.039 C 
ATOM      3  C   UNL     1      -8.718   8.865 -14.827  1.00  0.00     0.026 C 
ENDROOT
BRANCH   1   4
ATOM      4  O   UNL     1     -11.180   8.942 -14.371  1.00  0.00    -0.371 OA
BRANCH   4   5
ATOM      5  C   UNL     1     -12.221   7.983 -14.121  1.00  0.00     0.158 C 
ATOM      6  C   UNL     1     -10.812   6.534  -9.313  1.00  0.00    -0.003 C 
ATOM      7  C   UNL     1     -10.270   6.311 -10.730  1.00  0.00     0.052 C 
ATOM      8  C   UNL     1     -11.478   7.915  -9.235  1.00  0.00     0.019 C 
ATOM      9  C   UNL     1     -11.348   6.547 -11.797  1.00  0.00     0.189 C 
ATOM     10  C   UNL     1     -12.515   8.098 -10.343  1.00  0.00     0.087 C 
ATOM     11  N   UNL     1     -11.916   7.889 -11.661  1.00  0.00    -0.276 NA
ATOM     12  O   UNL     1     -10.717   6.358 -13.065  1.00  0.00    -0.360 OA
ATOM     13  C   UNL     1     -12.877   8.146 -12.739  1.00  0.00     0.121 C 
ATOM     14  C   UNL     1     -11.600   6.584 -14.169  1.00  0.00     0.195 C 
BRANCH   6  15
ATOM     15  C   UNL     1      -9.719   6.412  -8.276  1.00  0.00    -0.008 C 
ATOM     16  C   UNL     1      -9.715   5.256  -7.303  1.00  0.00     0.004 C 
ATOM     17  C   UNL     1      -8.671   5.330  -8.379  1.00  0.00     0.004 C 
ENDBRANCH   6  15
ENDBRANCH   4   5
ENDBRANCH   1   4
BRANCH   3  18
ATOM     18  C   UNL     1      -7.571   7.954 -15.151  1.00  0.00     0.053 C 
BRANCH  18  19
ATOM     19  C   UNL     1      -7.061   7.098 -14.021  1.00  0.00     0.074 C 
BRANCH  19  20
ATOM     20  N   UNL     1      -7.730   6.750 -12.973  1.00  0.00    -0.313 NA
ATOM     21  H   UNL     1      -8.713   7.052 -13.032  1.00  0.00     0.186 HD
ENDBRANCH  19  20
ENDBRANCH  18  19
ENDBRANCH   3  18
TORSDOF 6
ENDMDL
MODEL 7
REMARK VINA RESULT:    -3.268      4.913      8.051
REMARK INTER + INTRA:          -4.526
REMARK INTER:                  -4.128
REMARK INTRA:                  -0.398
REMARK UNBOUND:                -0.207
REMARK SMILES [H]/N=C\C[C@H]1C[C@@H]1O[C@H]1CO[C@H]2C[C@@H](C3CC3)CCN2C1
REMARK SMILES IDX 7 1 6 2 5 3 8 4 9 5 14 6 13 7 18 8 12 9 19 10 20 11 11 12
REMARK SMILES IDX 21 13 10 14 15 15 16 16 17 17 4 18 3 19 2 20 1 21
REMARK H PARENT
ROOT
ATOM      1  C   UNL     1     -10.595   7.266 -14.419  1.00  0.00     0.122 C 
ATOM      2  C   UNL     1     -11.940   6.597 -14.398  1.00  0.00     0.039 C 
ATOM      3  C   UNL     1     -10.964   6.349 -13.285  1.00  0.00     0.026 C 
ENDROOT
BRANCH   1   4
ATOM      4  O   UNL     1      -9.691   6.738 -15.408  1.00  0.00    -0.371 OA
BRANCH   4   5
ATOM      5  C   UNL     1      -8.595   7.595 -15.766  1.00  0.00     0.158 C 
ATOM      6  C   UNL     1      -4.794   5.119 -13.190  1.00  0.00    -0.003 C 
ATOM      7  C   UNL     1      -5.994   5.993 -12.804  1.00  0.00     0.052 C 
ATOM      8  C   UNL     1      -5.137   4.316 -14.453  1.00  0.00     0.019 C 
ATOM      9  C   UNL     1      -6.475   6.852 -13.981  1.00  0.00     0.189 C 
ATOM     10  C   UNL     1      -5.642   5.224 -15.573  1.00  0.00     0.087 C 
ATOM     11  N   UNL     1      -6.795   6.008 -15.132  1.00  0.00    -0.276 NA
ATOM     12  O   UNL     1      -7.614   7.580 -13.517  1.00  0.00    -0.360 OA
ATOM     13  C   UNL     1      -7.345   6.821 -16.223  1.00  0.00     0.121 C 
ATOM     14  C   UNL     1      -8.201   8.406 -14.527  1.00  0.00     0.195 C 
BRANCH   6  15
ATOM     15  C   UNL     1      -4.397   4.193 -12.063  1.00  0.00    -0.008 C 
ATOM     16  C   UNL     1      -3.309   4.591 -11.094  1.00  0.00     0.004 C 
ATOM     17  C   UNL     1      -4.735   4.528 -10.631  1.00  0.00     0.004 C 
ENDBRANCH   6  15
ENDBRANCH   4   5
ENDBRANCH   1   4
BRANCH   3  18
ATOM     18  C   UNL     1     -11.255   6.909 -11.925  1.00  0.00     0.053 C 
BRANCH  18  19
ATOM     19  C   UNL     1     -10.451   6.342 -10.784  1.00  0.00     0.074 C 
BRANCH  19  20
ATOM     20  N   UNL     1      -9.193   6.050 -10.817  1.00  0.00    -0.313 NA
ATOM     21  H   UNL     1      -9.035   5.039 -10.699  1.00  0.00     0.186 HD
ENDBRANCH  19  20
ENDBRANCH  18  19
ENDBRANCH   3  18
TORSDOF 6
ENDMDL
MODEL 8
REMARK VINA RESULT:    -3.219      6.834     10.285
REMARK INTER + INTRA:          -4.461
REMARK INTER:                  -4.146
REMARK INTRA:                  -0.315
REMARK UNBOUND:                -0.207
REMARK SMILES [H]/N=C\C[C@H]1C[C@@H]1O[C@H]1CO[C@H]2C[C@@H](C3CC3)CCN2C1
REMARK SMILES IDX 7 1 6 2 5 3 8 4 9 5 14 6 13 7 18 8 12 9 19 10 20 11 11 12
REMARK SMILES IDX 21 13 10 14 15 15 16 16 17 17 4 18 3 19 2 20 1 21
REMARK H PARENT
ROOT
ATOM      1  C   UNL     1      -9.426   6.225  -8.154  1.00  0.00     0.122 C 
ATOM      2  C   UNL     1      -9.816   4.781  -8.300  1.00  0.00     0.039 C 
ATOM      3  C   UNL     1      -8.474   5.247  -8.788  1.00  0.00     0.026 C 
ENDROOT
BRANCH   1   4
ATOM      4  O   UNL     1     -10.124   7.115  -9.046  1.00  0.00    -0.371 OA
BRANCH   4   5
ATOM      5  C   UNL     1     -11.251   7.803  -8.477  1.00  0.00     0.158 C 
ATOM      6  C   UNL     1     -12.524  10.751 -12.587  1.00  0.00    -0.003 C 
ATOM      7  C   UNL     1     -11.388  10.734 -11.557  1.00  0.00     0.052 C 
ATOM      8  C   UNL     1     -12.991   9.312 -12.850  1.00  0.00     0.019 C 
ATOM      9  C   UNL     1     -11.779   9.962 -10.290  1.00  0.00     0.189 C 
ATOM     10  C   UNL     1     -13.331   8.589 -11.548  1.00  0.00     0.087 C 
ATOM     11  N   UNL     1     -12.193   8.601 -10.629  1.00  0.00    -0.276 NA
ATOM     12  O   UNL     1     -10.636   9.977  -9.433  1.00  0.00    -0.360 OA
ATOM     13  C   UNL     1     -12.475   7.835  -9.410  1.00  0.00     0.121 C 
ATOM     14  C   UNL     1     -10.839   9.255  -8.214  1.00  0.00     0.195 C 
BRANCH   6  15
ATOM     15  C   UNL     1     -12.094  11.413 -13.877  1.00  0.00    -0.008 C 
ATOM     16  C   UNL     1     -12.620  12.780 -14.245  1.00  0.00     0.004 C 
ATOM     17  C   UNL     1     -11.179  12.614 -13.862  1.00  0.00     0.004 C 
ENDBRANCH   6  15
ENDBRANCH   4   5
ENDBRANCH   1   4
BRANCH   3  18
ATOM     18  C   UNL     1      -7.242   4.809  -8.055  1.00  0.00     0.053 C 
BRANCH  18  19
ATOM     19  C   UNL     1      -6.570   3.562  -8.568  1.00  0.00     0.074 C 
BRANCH  19  20
ATOM     20  N   UNL     1      -7.046   2.364  -8.504  1.00  0.00    -0.313 NA
ATOM     21  H   UNL     1      -6.878   1.841  -9.375  1.00  0.00     0.186 HD
ENDBRANCH  19  20
ENDBRANCH  18  19
ENDBRANCH   3  18
TORSDOF 6
ENDMDL
MODEL 9
REMARK VINA RESULT:    -3.203      6.599      8.467
REMARK INTER + INTRA:          -4.440
REMARK INTER:                  -4.044
REMARK INTRA:                  -0.396
REMARK UNBOUND:                -0.207
REMARK SMILES [H]/N=C\C[C@H]1C[C@@H]1O[C@H]1CO[C@H]2C[C@@H](C3CC3)CCN2C1
REMARK SMILES IDX 7 1 6 2 5 3 8 4 9 5 14 6 13 7 18 8 12 9 19 10 20 11 11 12
REMARK SMILES IDX 21 13 10 14 15 15 16 16 17 17 4 18 3 19 2 20 1 21
REMARK H PARENT
ROOT
ATOM      1  C   UNL     1     -11.775  10.087  -9.606  1.00  0.00     0.122 C 
ATOM      2  C   UNL     1     -10.677  10.956  -9.060  1.00  0.00     0.039 C 
ATOM      3  C   UNL     1     -11.805  11.574  -9.836  1.00  0.00     0.026 C 
ENDROOT
BRANCH   1   4
ATOM      4  O   UNL     1     -11.376   9.270 -10.724  1.00  0.00    -0.371 OA
BRANCH   4   5
ATOM      5  C   UNL     1     -12.064   8.015 -10.849  1.00  0.00     0.158 C 
ATOM      6  C   UNL     1      -8.489   4.939  -8.622  1.00  0.00    -0.003 C 
ATOM      7  C   UNL     1      -8.610   5.700  -9.948  1.00  0.00     0.052 C 
ATOM      8  C   UNL     1      -9.222   5.718  -7.521  1.00  0.00     0.019 C 
ATOM      9  C   UNL     1     -10.071   6.031 -10.283  1.00  0.00     0.189 C 
ATOM     10  C   UNL     1     -10.657   6.046  -7.930  1.00  0.00     0.087 C 
ATOM     11  N   UNL     1     -10.686   6.786  -9.192  1.00  0.00    -0.276 NA
ATOM     12  O   UNL     1     -10.051   6.773 -11.504  1.00  0.00    -0.360 OA
ATOM     13  C   UNL     1     -12.051   7.184  -9.554  1.00  0.00     0.121 C 
ATOM     14  C   UNL     1     -11.354   7.189 -11.927  1.00  0.00     0.195 C 
BRANCH   6  15
ATOM     15  C   UNL     1      -7.043   4.715  -8.241  1.00  0.00    -0.008 C 
ATOM     16  C   UNL     1      -6.472   3.318  -8.194  1.00  0.00     0.004 C 
ATOM     17  C   UNL     1      -6.032   4.268  -9.269  1.00  0.00     0.004 C 
ENDBRANCH   6  15
ENDBRANCH   4   5
ENDBRANCH   1   4
BRANCH   3  18
ATOM     18  C   UNL     1     -12.801  12.430  -9.112  1.00  0.00     0.053 C 
BRANCH  18  19
ATOM     19  C   UNL     1     -13.445  13.528  -9.918  1.00  0.00     0.074 C 
BRANCH  19  20
ATOM     20  N   UNL     1     -13.920  13.411 -11.113  1.00  0.00    -0.313 NA
ATOM     21  H   UNL     1     -13.180  13.487 -11.825  1.00  0.00     0.186 HD
ENDBRANCH  19  20
ENDBRANCH  18  19
ENDBRANCH   3  18
TORSDOF 6
ENDMDL
