MODEL 1
REMARK VINA RESULT:    -5.974      0.000      0.000
REMARK INTER + INTRA:          -7.408
REMARK INTER:                  -7.022
REMARK INTRA:                  -0.386
REMARK UNBOUND:                -0.386
REMARK SMILES Cc1ccc(CNC(=O)NC(=O)c2ccc(C)cc2)cc1
REMARK SMILES IDX 11 1 12 2 10 3 8 4 9 5 7 6 13 9 19 10 18 11 14 12 16 13
REMARK SMILES IDX 15 14 17 15 6 16 5 17 4 18 20 19 3 20 21 21 2 22 1 23
REMARK H PARENT 10 7 7 8
ROOT
ATOM      1  C   UNL     1      -5.596   3.908  -7.725  1.00  0.00     0.259 C 
ATOM      2  O   UNL     1      -4.520   4.002  -8.299  1.00  0.00    -0.269 OA
ATOM      3  N   UNL     1      -6.829   4.466  -8.079  1.00  0.00    -0.274 N 
ATOM      4  C   UNL     1      -7.393   5.063  -9.177  1.00  0.00     0.321 C 
ATOM      5  O   UNL     1      -8.603   5.311  -9.137  1.00  0.00    -0.248 OA
ATOM      6  N   UNL     1      -6.707   5.362 -10.296  1.00  0.00    -0.334 N 
ATOM      7  H   UNL     1      -7.579   4.265  -7.432  1.00  0.00     0.175 HD
ATOM      8  H   UNL     1      -7.285   5.719 -11.044  1.00  0.00     0.165 HD
ENDROOT
BRANCH   1   9
ATOM      9  C   UNL     1      -5.619   3.095  -6.494  1.00  0.00     0.040 A 
ATOM     10  C   UNL     1      -5.537   3.684  -5.231  1.00  0.00     0.014 A 
ATOM     11  C   UNL     1      -5.616   2.878  -4.095  1.00  0.00     0.004 A 
ATOM     12  C   UNL     1      -5.720   1.706  -6.626  1.00  0.00     0.014 A 
ATOM     13  C   UNL     1      -5.769   1.489  -4.215  1.00  0.00    -0.051 A 
ATOM     14  C   UNL     1      -5.806   0.906  -5.488  1.00  0.00     0.004 A 
ATOM     15  C   UNL     1      -5.938   0.647  -2.985  1.00  0.00     0.044 C 
ENDBRANCH   1   9
BRANCH   6  16
ATOM     16  C   UNL     1      -5.332   5.067 -10.586  1.00  0.00     0.153 C 
BRANCH  16  17
ATOM     17  C   UNL     1      -4.942   4.954 -12.034  1.00  0.00    -0.029 A 
ATOM     18  C   UNL     1      -4.293   3.834 -12.565  1.00  0.00     0.006 A 
ATOM     19  C   UNL     1      -5.443   5.928 -12.913  1.00  0.00     0.006 A 
ATOM     20  C   UNL     1      -4.174   3.685 -13.951  1.00  0.00     0.004 A 
ATOM     21  C   UNL     1      -5.328   5.776 -14.291  1.00  0.00     0.004 A 
ATOM     22  C   UNL     1      -4.701   4.648 -14.823  1.00  0.00    -0.051 A 
ATOM     23  C   UNL     1      -4.704   4.427 -16.306  1.00  0.00     0.044 C 
ENDBRANCH  16  17
ENDBRANCH   6  16
TORSDOF 3
ENDMDL
MODEL 2
REMARK VINA RESULT:    -5.960      3.244      5.565
REMARK INTER + INTRA:          -7.391
REMARK INTER:                  -7.006
REMARK INTRA:                  -0.386
REMARK UNBOUND:                -0.386
REMARK SMILES Cc1ccc(CNC(=O)NC(=O)c2ccc(C)cc2)cc1
REMARK SMILES IDX 11 1 12 2 10 3 8 4 9 5 7 6 13 9 19 10 18 11 14 12 16 13
REMARK SMILES IDX 15 14 17 15 6 16 5 17 4 18 20 19 3 20 21 21 2 22 1 23
REMARK H PARENT 10 7 7 8
ROOT
ATOM      1  C   UNL     1      -5.882   4.135  -7.448  1.00  0.00     0.259 C 
ATOM      2  O   UNL     1      -6.972   4.051  -6.900  1.00  0.00    -0.269 OA
ATOM      3  N   UNL     1      -5.595   4.437  -8.783  1.00  0.00    -0.274 N 
ATOM      4  C   UNL     1      -6.254   4.950  -9.871  1.00  0.00     0.321 C 
ATOM      5  O   UNL     1      -5.587   5.198 -10.881  1.00  0.00    -0.248 OA
ATOM      6  N   UNL     1      -7.572   5.223  -9.882  1.00  0.00    -0.334 N 
ATOM      7  H   UNL     1      -4.609   4.427  -9.010  1.00  0.00     0.175 HD
ATOM      8  H   UNL     1      -7.886   5.676 -10.727  1.00  0.00     0.165 HD
ENDROOT
BRANCH   1   9
ATOM      9  C   UNL     1      -4.697   3.895  -6.602  1.00  0.00     0.040 A 
ATOM     10  C   UNL     1      -4.069   2.649  -6.566  1.00  0.00     0.014 A 
ATOM     11  C   UNL     1      -2.920   2.484  -5.792  1.00  0.00     0.004 A 
ATOM     12  C   UNL     1      -4.220   4.955  -5.825  1.00  0.00     0.014 A 
ATOM     13  C   UNL     1      -2.403   3.556  -5.049  1.00  0.00    -0.051 A 
ATOM     14  C   UNL     1      -3.068   4.787  -5.058  1.00  0.00     0.004 A 
ATOM     15  C   UNL     1      -1.120   3.387  -4.289  1.00  0.00     0.044 C 
ENDBRANCH   1   9
BRANCH   6  16
ATOM     16  C   UNL     1      -8.499   5.108  -8.792  1.00  0.00     0.153 C 
BRANCH  16  17
ATOM     17  C   UNL     1      -9.725   5.977  -8.834  1.00  0.00    -0.029 A 
ATOM     18  C   UNL     1     -10.078   6.850  -7.799  1.00  0.00     0.006 A 
ATOM     19  C   UNL     1     -10.414   6.059 -10.055  1.00  0.00     0.006 A 
ATOM     20  C   UNL     1     -11.085   7.800  -7.998  1.00  0.00     0.004 A 
ATOM     21  C   UNL     1     -11.411   7.008 -10.253  1.00  0.00     0.004 A 
ATOM     22  C   UNL     1     -11.749   7.895  -9.229  1.00  0.00    -0.051 A 
ATOM     23  C   UNL     1     -12.726   9.000  -9.496  1.00  0.00     0.044 C 
ENDBRANCH  16  17
ENDBRANCH   6  16
TORSDOF 3
ENDMDL
MODEL 3
REMARK VINA RESULT:    -5.959      0.560      7.976
REMARK INTER + INTRA:          -7.390
REMARK INTER:                  -6.888
REMARK INTRA:                  -0.502
REMARK UNBOUND:                -0.386
REMARK SMILES Cc1ccc(CNC(=O)NC(=O)c2ccc(C)cc2)cc1
REMARK SMILES IDX 11 1 12 2 10 3 8 4 9 5 7 6 13 9 19 10 18 11 14 12 16 13
REMARK SMILES IDX 15 14 17 15 6 16 5 17 4 18 20 19 3 20 21 21 2 22 1 23
REMARK H PARENT 10 7 7 8
ROOT
ATOM      1  C   UNL     1      -5.368   4.563 -10.486  1.00  0.00     0.259 C 
ATOM      2  O   UNL     1      -4.473   4.135  -9.770  1.00  0.00    -0.269 OA
ATOM      3  N   UNL     1      -6.667   4.940 -10.131  1.00  0.00    -0.274 N 
ATOM      4  C   UNL     1      -7.365   5.215  -8.983  1.00  0.00     0.321 C 
ATOM      5  O   UNL     1      -8.511   5.662  -9.102  1.00  0.00    -0.248 OA
ATOM      6  N   UNL     1      -6.858   5.052  -7.747  1.00  0.00    -0.334 N 
ATOM      7  H   UNL     1      -7.239   5.246 -10.907  1.00  0.00     0.175 HD
ATOM      8  H   UNL     1      -7.467   5.380  -7.011  1.00  0.00     0.165 HD
ENDROOT
BRANCH   1   9
ATOM      9  C   UNL     1      -5.052   4.715 -11.919  1.00  0.00     0.040 A 
ATOM     10  C   UNL     1      -4.284   3.769 -12.599  1.00  0.00     0.014 A 
ATOM     11  C   UNL     1      -4.056   3.928 -13.966  1.00  0.00     0.004 A 
ATOM     12  C   UNL     1      -5.541   5.844 -12.583  1.00  0.00     0.014 A 
ATOM     13  C   UNL     1      -4.585   5.030 -14.653  1.00  0.00    -0.051 A 
ATOM     14  C   UNL     1      -5.317   5.996 -13.950  1.00  0.00     0.004 A 
ATOM     15  C   UNL     1      -4.403   5.143 -16.138  1.00  0.00     0.044 C 
ENDBRANCH   1   9
BRANCH   6  16
ATOM     16  C   UNL     1      -5.527   4.648  -7.393  1.00  0.00     0.153 C 
BRANCH  16  17
ATOM     17  C   UNL     1      -5.386   3.609  -6.315  1.00  0.00    -0.029 A 
ATOM     18  C   UNL     1      -5.241   3.929  -4.961  1.00  0.00     0.006 A 
ATOM     19  C   UNL     1      -5.621   2.272  -6.675  1.00  0.00     0.006 A 
ATOM     20  C   UNL     1      -5.357   2.929  -3.989  1.00  0.00     0.004 A 
ATOM     21  C   UNL     1      -5.741   1.280  -5.707  1.00  0.00     0.004 A 
ATOM     22  C   UNL     1      -5.620   1.601  -4.355  1.00  0.00    -0.051 A 
ATOM     23  C   UNL     1      -5.886   0.553  -3.316  1.00  0.00     0.044 C 
ENDBRANCH  16  17
ENDBRANCH   6  16
TORSDOF 3
ENDMDL
MODEL 4
REMARK VINA RESULT:    -5.941      3.135      7.287
REMARK INTER + INTRA:          -7.369
REMARK INTER:                  -6.863
REMARK INTRA:                  -0.506
REMARK UNBOUND:                -0.386
REMARK SMILES Cc1ccc(CNC(=O)NC(=O)c2ccc(C)cc2)cc1
REMARK SMILES IDX 11 1 12 2 10 3 8 4 9 5 7 6 13 9 19 10 18 11 14 12 16 13
REMARK SMILES IDX 15 14 17 15 6 16 5 17 4 18 20 19 3 20 21 21 2 22 1 23
REMARK H PARENT 10 7 7 8
ROOT
ATOM      1  C   UNL     1      -8.224   5.387  -8.473  1.00  0.00     0.259 C 
ATOM      2  O   UNL     1      -8.098   4.884  -7.366  1.00  0.00    -0.269 OA
ATOM      3  N   UNL     1      -7.327   5.381  -9.546  1.00  0.00    -0.274 N 
ATOM      4  C   UNL     1      -6.188   4.709  -9.910  1.00  0.00     0.321 C 
ATOM      5  O   UNL     1      -5.745   4.905 -11.047  1.00  0.00    -0.248 OA
ATOM      6  N   UNL     1      -5.552   3.833  -9.110  1.00  0.00    -0.334 N 
ATOM      7  H   UNL     1      -7.647   5.887 -10.360  1.00  0.00     0.175 HD
ATOM      8  H   UNL     1      -4.781   3.359  -9.557  1.00  0.00     0.165 HD
ENDROOT
BRANCH   1   9
ATOM      9  C   UNL     1      -9.491   6.098  -8.735  1.00  0.00     0.040 A 
ATOM     10  C   UNL     1     -10.093   6.895  -7.760  1.00  0.00     0.014 A 
ATOM     11  C   UNL     1     -11.262   7.589  -8.071  1.00  0.00     0.004 A 
ATOM     12  C   UNL     1     -10.081   5.946  -9.993  1.00  0.00     0.014 A 
ATOM     13  C   UNL     1     -11.835   7.485  -9.347  1.00  0.00    -0.051 A 
ATOM     14  C   UNL     1     -11.245   6.647 -10.302  1.00  0.00     0.004 A 
ATOM     15  C   UNL     1     -13.044   8.304  -9.693  1.00  0.00     0.044 C 
ENDBRANCH   1   9
BRANCH   6  16
ATOM     16  C   UNL     1      -5.954   3.388  -7.805  1.00  0.00     0.153 C 
BRANCH  16  17
ATOM     17  C   UNL     1      -4.899   3.349  -6.734  1.00  0.00    -0.029 A 
ATOM     18  C   UNL     1      -4.133   2.212  -6.457  1.00  0.00     0.006 A 
ATOM     19  C   UNL     1      -4.538   4.571  -6.144  1.00  0.00     0.006 A 
ATOM     20  C   UNL     1      -3.013   2.308  -5.624  1.00  0.00     0.004 A 
ATOM     21  C   UNL     1      -3.421   4.666  -5.319  1.00  0.00     0.004 A 
ATOM     22  C   UNL     1      -2.643   3.537  -5.060  1.00  0.00    -0.051 A 
ATOM     23  C   UNL     1      -1.367   3.677  -4.285  1.00  0.00     0.044 C 
ENDBRANCH  16  17
ENDBRANCH   6  16
TORSDOF 3
ENDMDL
MODEL 5
REMARK VINA RESULT:    -5.653      1.244      7.963
REMARK INTER + INTRA:          -7.031
REMARK INTER:                  -6.558
REMARK INTRA:                  -0.472
REMARK UNBOUND:                -0.386
REMARK SMILES Cc1ccc(CNC(=O)NC(=O)c2ccc(C)cc2)cc1
REMARK SMILES IDX 11 1 12 2 10 3 8 4 9 5 7 6 13 9 19 10 18 11 14 12 16 13
REMARK SMILES IDX 15 14 17 15 6 16 5 17 4 18 20 19 3 20 21 21 2 22 1 23
REMARK H PARENT 10 7 7 8
ROOT
ATOM      1  C   UNL     1      -5.175   4.616 -10.507  1.00  0.00     0.259 C 
ATOM      2  O   UNL     1      -4.178   4.377  -9.842  1.00  0.00    -0.269 OA
ATOM      3  N   UNL     1      -6.497   4.776 -10.077  1.00  0.00    -0.274 N 
ATOM      4  C   UNL     1      -7.160   4.969  -8.893  1.00  0.00     0.321 C 
ATOM      5  O   UNL     1      -8.372   5.207  -8.947  1.00  0.00    -0.248 OA
ATOM      6  N   UNL     1      -6.558   4.944  -7.689  1.00  0.00    -0.334 N 
ATOM      7  H   UNL     1      -7.159   4.948 -10.821  1.00  0.00     0.175 HD
ATOM      8  H   UNL     1      -7.169   5.190  -6.924  1.00  0.00     0.165 HD
ENDROOT
BRANCH   1   9
ATOM      9  C   UNL     1      -4.979   4.766 -11.962  1.00  0.00     0.040 A 
ATOM     10  C   UNL     1      -4.250   3.830 -12.698  1.00  0.00     0.014 A 
ATOM     11  C   UNL     1      -4.136   3.985 -14.080  1.00  0.00     0.004 A 
ATOM     12  C   UNL     1      -5.541   5.882 -12.589  1.00  0.00     0.014 A 
ATOM     13  C   UNL     1      -4.740   5.074 -14.726  1.00  0.00    -0.051 A 
ATOM     14  C   UNL     1      -5.430   6.030 -13.970  1.00  0.00     0.004 A 
ATOM     15  C   UNL     1      -4.681   5.181 -16.222  1.00  0.00     0.044 C 
ENDBRANCH   1   9
BRANCH   6  16
ATOM     16  C   UNL     1      -5.158   4.790  -7.414  1.00  0.00     0.153 C 
BRANCH  16  17
ATOM     17  C   UNL     1      -4.767   3.780  -6.371  1.00  0.00    -0.029 A 
ATOM     18  C   UNL     1      -3.691   2.900  -6.526  1.00  0.00     0.006 A 
ATOM     19  C   UNL     1      -5.385   3.881  -5.114  1.00  0.00     0.006 A 
ATOM     20  C   UNL     1      -3.231   2.157  -5.433  1.00  0.00     0.004 A 
ATOM     21  C   UNL     1      -4.923   3.145  -4.027  1.00  0.00     0.004 A 
ATOM     22  C   UNL     1      -3.835   2.284  -4.175  1.00  0.00    -0.051 A 
ATOM     23  C   UNL     1      -3.260   1.602  -2.970  1.00  0.00     0.044 C 
ENDBRANCH  16  17
ENDBRANCH   6  16
TORSDOF 3
ENDMDL
MODEL 6
REMARK VINA RESULT:    -5.653      3.071      7.715
REMARK INTER + INTRA:          -7.030
REMARK INTER:                  -6.559
REMARK INTRA:                  -0.471
REMARK UNBOUND:                -0.386
REMARK SMILES Cc1ccc(CNC(=O)NC(=O)c2ccc(C)cc2)cc1
REMARK SMILES IDX 11 1 12 2 10 3 8 4 9 5 7 6 13 9 19 10 18 11 14 12 16 13
REMARK SMILES IDX 15 14 17 15 6 16 5 17 4 18 20 19 3 20 21 21 2 22 1 23
REMARK H PARENT 10 7 7 8
ROOT
ATOM      1  C   UNL     1      -8.384   5.305  -8.364  1.00  0.00     0.259 C 
ATOM      2  O   UNL     1      -8.423   4.680  -7.314  1.00  0.00    -0.269 OA
ATOM      3  N   UNL     1      -7.340   5.396  -9.290  1.00  0.00    -0.274 N 
ATOM      4  C   UNL     1      -6.165   4.742  -9.560  1.00  0.00     0.321 C 
ATOM      5  O   UNL     1      -5.561   5.052 -10.593  1.00  0.00    -0.248 OA
ATOM      6  N   UNL     1      -5.659   3.769  -8.781  1.00  0.00    -0.334 N 
ATOM      7  H   UNL     1      -7.535   5.996 -10.080  1.00  0.00     0.175 HD
ATOM      8  H   UNL     1      -4.834   3.330  -9.163  1.00  0.00     0.165 HD
ENDROOT
BRANCH   1   9
ATOM      9  C   UNL     1      -9.594   6.069  -8.723  1.00  0.00     0.040 A 
ATOM     10  C   UNL     1     -10.227   6.905  -7.801  1.00  0.00     0.014 A 
ATOM     11  C   UNL     1     -11.337   7.649  -8.203  1.00  0.00     0.004 A 
ATOM     12  C   UNL     1     -10.099   5.929 -10.019  1.00  0.00     0.014 A 
ATOM     13  C   UNL     1     -11.821   7.554  -9.516  1.00  0.00    -0.051 A 
ATOM     14  C   UNL     1     -11.204   6.678 -10.418  1.00  0.00     0.004 A 
ATOM     15  C   UNL     1     -12.963   8.423  -9.956  1.00  0.00     0.044 C 
ENDBRANCH   1   9
BRANCH   6  16
ATOM     16  C   UNL     1      -6.249   3.192  -7.606  1.00  0.00     0.153 C 
BRANCH  16  17
ATOM     17  C   UNL     1      -5.374   3.056  -6.390  1.00  0.00    -0.029 A 
ATOM     18  C   UNL     1      -5.813   3.355  -5.096  1.00  0.00     0.006 A 
ATOM     19  C   UNL     1      -4.141   2.404  -6.555  1.00  0.00     0.006 A 
ATOM     20  C   UNL     1      -5.040   2.982  -3.991  1.00  0.00     0.004 A 
ATOM     21  C   UNL     1      -3.376   2.030  -5.455  1.00  0.00     0.004 A 
ATOM     22  C   UNL     1      -3.824   2.307  -4.162  1.00  0.00    -0.051 A 
ATOM     23  C   UNL     1      -3.062   1.779  -2.983  1.00  0.00     0.044 C 
ENDBRANCH  16  17
ENDBRANCH   6  16
TORSDOF 3
ENDMDL
MODEL 7
REMARK VINA RESULT:    -4.677      4.792      7.224
REMARK INTER + INTRA:          -5.883
REMARK INTER:                  -5.448
REMARK INTRA:                  -0.435
REMARK UNBOUND:                -0.386
REMARK SMILES Cc1ccc(CNC(=O)NC(=O)c2ccc(C)cc2)cc1
REMARK SMILES IDX 11 1 12 2 10 3 8 4 9 5 7 6 13 9 19 10 18 11 14 12 16 13
REMARK SMILES IDX 15 14 17 15 6 16 5 17 4 18 20 19 3 20 21 21 2 22 1 23
REMARK H PARENT 10 7 7 8
ROOT
ATOM      1  C   UNL     1      -8.868   5.407  -8.572  1.00  0.00     0.259 C 
ATOM      2  O   UNL     1      -9.592   5.748  -7.647  1.00  0.00    -0.269 OA
ATOM      3  N   UNL     1      -9.109   5.488  -9.947  1.00  0.00    -0.274 N 
ATOM      4  C   UNL     1      -9.995   6.114 -10.786  1.00  0.00     0.321 C 
ATOM      5  O   UNL     1      -9.786   6.038 -12.001  1.00  0.00    -0.248 OA
ATOM      6  N   UNL     1     -11.052   6.826 -10.354  1.00  0.00    -0.334 N 
ATOM      7  H   UNL     1      -8.364   5.120 -10.523  1.00  0.00     0.175 HD
ATOM      8  H   UNL     1     -11.556   7.295 -11.093  1.00  0.00     0.165 HD
ENDROOT
BRANCH   1   9
ATOM      9  C   UNL     1      -7.558   4.835  -8.209  1.00  0.00     0.040 A 
ATOM     10  C   UNL     1      -6.445   5.648  -7.984  1.00  0.00     0.014 A 
ATOM     11  C   UNL     1      -5.240   5.065  -7.591  1.00  0.00     0.004 A 
ATOM     12  C   UNL     1      -7.455   3.444  -8.101  1.00  0.00     0.014 A 
ATOM     13  C   UNL     1      -5.141   3.675  -7.430  1.00  0.00    -0.051 A 
ATOM     14  C   UNL     1      -6.251   2.867  -7.702  1.00  0.00     0.004 A 
ATOM     15  C   UNL     1      -3.863   3.071  -6.926  1.00  0.00     0.044 C 
ENDBRANCH   1   9
BRANCH   6  16
ATOM     16  C   UNL     1     -11.413   7.123  -8.996  1.00  0.00     0.153 C 
BRANCH  16  17
ATOM     17  C   UNL     1     -11.886   8.519  -8.698  1.00  0.00    -0.029 A 
ATOM     18  C   UNL     1     -11.034   9.628  -8.682  1.00  0.00     0.006 A 
ATOM     19  C   UNL     1     -13.274   8.729  -8.643  1.00  0.00     0.006 A 
ATOM     20  C   UNL     1     -11.567  10.920  -8.638  1.00  0.00     0.004 A 
ATOM     21  C   UNL     1     -13.803  10.015  -8.605  1.00  0.00     0.004 A 
ATOM     22  C   UNL     1     -12.954  11.123  -8.612  1.00  0.00    -0.051 A 
ATOM     23  C   UNL     1     -13.534  12.502  -8.709  1.00  0.00     0.044 C 
ENDBRANCH  16  17
ENDBRANCH   6  16
TORSDOF 3
ENDMDL
MODEL 8
REMARK VINA RESULT:    -4.436      3.720      7.597
REMARK INTER + INTRA:          -5.600
REMARK INTER:                  -5.162
REMARK INTRA:                  -0.438
REMARK UNBOUND:                -0.386
REMARK SMILES Cc1ccc(CNC(=O)NC(=O)c2ccc(C)cc2)cc1
REMARK SMILES IDX 11 1 12 2 10 3 8 4 9 5 7 6 13 9 19 10 18 11 14 12 16 13
REMARK SMILES IDX 15 14 17 15 6 16 5 17 4 18 20 19 3 20 21 21 2 22 1 23
REMARK H PARENT 10 7 7 8
ROOT
ATOM      1  C   UNL     1      -7.715   5.191  -8.129  1.00  0.00     0.259 C 
ATOM      2  O   UNL     1      -7.727   3.978  -7.977  1.00  0.00    -0.269 OA
ATOM      3  N   UNL     1      -6.655   6.086  -7.950  1.00  0.00    -0.274 N 
ATOM      4  C   UNL     1      -5.293   6.026  -7.800  1.00  0.00     0.321 C 
ATOM      5  O   UNL     1      -4.669   7.092  -7.802  1.00  0.00    -0.248 OA
ATOM      6  N   UNL     1      -4.607   4.874  -7.683  1.00  0.00    -0.334 N 
ATOM      7  H   UNL     1      -6.894   7.054  -8.117  1.00  0.00     0.175 HD
ATOM      8  H   UNL     1      -3.605   4.997  -7.667  1.00  0.00     0.165 HD
ENDROOT
BRANCH   1   9
ATOM      9  C   UNL     1      -8.979   5.815  -8.566  1.00  0.00     0.040 A 
ATOM     10  C   UNL     1      -9.720   6.634  -7.711  1.00  0.00     0.014 A 
ATOM     11  C   UNL     1     -10.882   7.244  -8.186  1.00  0.00     0.004 A 
ATOM     12  C   UNL     1      -9.425   5.556  -9.866  1.00  0.00     0.014 A 
ATOM     13  C   UNL     1     -11.309   7.032  -9.505  1.00  0.00    -0.051 A 
ATOM     14  C   UNL     1     -10.582   6.173 -10.337  1.00  0.00     0.004 A 
ATOM     15  C   UNL     1     -12.513   7.762 -10.026  1.00  0.00     0.044 C 
ENDBRANCH   1   9
BRANCH   6  16
ATOM     16  C   UNL     1      -5.123   3.536  -7.759  1.00  0.00     0.153 C 
BRANCH  16  17
ATOM     17  C   UNL     1      -5.178   2.744  -6.483  1.00  0.00    -0.029 A 
ATOM     18  C   UNL     1      -5.046   3.325  -5.217  1.00  0.00     0.006 A 
ATOM     19  C   UNL     1      -5.590   1.404  -6.574  1.00  0.00     0.006 A 
ATOM     20  C   UNL     1      -5.345   2.581  -4.071  1.00  0.00     0.004 A 
ATOM     21  C   UNL     1      -5.892   0.667  -5.433  1.00  0.00     0.004 A 
ATOM     22  C   UNL     1      -5.782   1.253  -4.171  1.00  0.00    -0.051 A 
ATOM     23  C   UNL     1      -6.240   0.498  -2.960  1.00  0.00     0.044 C 
ENDBRANCH  16  17
ENDBRANCH   6  16
TORSDOF 3
ENDMDL
MODEL 9
REMARK VINA RESULT:    -4.241      6.573     10.873
REMARK INTER + INTRA:          -5.371
REMARK INTER:                  -4.927
REMARK INTRA:                  -0.444
REMARK UNBOUND:                -0.386
REMARK SMILES Cc1ccc(CNC(=O)NC(=O)c2ccc(C)cc2)cc1
REMARK SMILES IDX 11 1 12 2 10 3 8 4 9 5 7 6 13 9 19 10 18 11 14 12 16 13
REMARK SMILES IDX 15 14 17 15 6 16 5 17 4 18 20 19 3 20 21 21 2 22 1 23
REMARK H PARENT 10 7 7 8
ROOT
ATOM      1  C   UNL     1     -11.664   9.894 -12.326  1.00  0.00     0.259 C 
ATOM      2  O   UNL     1     -10.882   9.806 -11.389  1.00  0.00    -0.269 OA
ATOM      3  N   UNL     1     -12.891   9.248 -12.505  1.00  0.00    -0.274 N 
ATOM      4  C   UNL     1     -13.781   8.535 -11.744  1.00  0.00     0.321 C 
ATOM      5  O   UNL     1     -14.863   8.232 -12.259  1.00  0.00    -0.248 OA
ATOM      6  N   UNL     1     -13.551   8.179 -10.466  1.00  0.00    -0.334 N 
ATOM      7  H   UNL     1     -13.353   9.465 -13.378  1.00  0.00     0.175 HD
ATOM      8  H   UNL     1     -14.339   7.733 -10.019  1.00  0.00     0.165 HD
ENDROOT
BRANCH   1   9
ATOM      9  C   UNL     1     -11.281  10.804 -13.422  1.00  0.00     0.040 A 
ATOM     10  C   UNL     1     -11.549  12.173 -13.359  1.00  0.00     0.014 A 
ATOM     11  C   UNL     1     -11.121  13.001 -14.397  1.00  0.00     0.004 A 
ATOM     12  C   UNL     1     -10.644  10.254 -14.540  1.00  0.00     0.014 A 
ATOM     13  C   UNL     1     -10.435  12.467 -15.499  1.00  0.00    -0.051 A 
ATOM     14  C   UNL     1     -10.213  11.087 -15.571  1.00  0.00     0.004 A 
ATOM     15  C   UNL     1      -9.907  13.382 -16.565  1.00  0.00     0.044 C 
ENDBRANCH   1   9
BRANCH   6  16
ATOM     16  C   UNL     1     -12.416   8.516  -9.654  1.00  0.00     0.153 C 
BRANCH  16  17
ATOM     17  C   UNL     1     -11.460   7.408  -9.310  1.00  0.00    -0.029 A 
ATOM     18  C   UNL     1     -10.962   6.507 -10.257  1.00  0.00     0.006 A 
ATOM     19  C   UNL     1     -10.893   7.424  -8.025  1.00  0.00     0.006 A 
ATOM     20  C   UNL     1      -9.901   5.658  -9.925  1.00  0.00     0.004 A 
ATOM     21  C   UNL     1      -9.835   6.583  -7.698  1.00  0.00     0.004 A 
ATOM     22  C   UNL     1      -9.322   5.699  -8.649  1.00  0.00    -0.051 A 
ATOM     23  C   UNL     1      -8.095   4.897  -8.332  1.00  0.00     0.044 C 
ENDBRANCH  16  17
ENDBRANCH   6  16
TORSDOF 3
ENDMDL
