MODEL 1
REMARK VINA RESULT:    -4.459      0.000      0.000
REMARK INTER + INTRA:          -6.104
REMARK INTER:                  -5.892
REMARK INTRA:                  -0.211
REMARK UNBOUND:                -0.211
REMARK SMILES [H]/N=C\C[C@H]1C[C@@H]1O[C@H]1CO[C@H]2C[C@@H](C3CC3)CCN2C1
REMARK SMILES IDX 7 1 6 2 5 3 8 4 9 5 14 6 13 7 18 8 12 9 19 10 20 11 11 12
REMARK SMILES IDX 21 13 10 14 15 15 16 16 17 17 4 18 3 19 2 20 1 21
REMARK H PARENT
ROOT
ATOM      1  C   UNL     1     -11.388  -3.594   3.105  1.00  0.00     0.122 C 
ATOM      2  C   UNL     1     -12.751  -3.901   2.550  1.00  0.00     0.039 C 
ATOM      3  C   UNL     1     -11.771  -5.014   2.788  1.00  0.00     0.026 C 
ENDROOT
BRANCH   1   4
ATOM      4  O   UNL     1     -10.508  -2.941   2.171  1.00  0.00    -0.371 OA
BRANCH   4   5
ATOM      5  C   UNL     1     -10.781  -1.550   1.931  1.00  0.00     0.158 C 
ATOM      6  C   UNL     1      -5.880   0.232   1.990  1.00  0.00    -0.003 C 
ATOM      7  C   UNL     1      -6.872  -0.290   3.037  1.00  0.00     0.052 C 
ATOM      8  C   UNL     1      -6.125  -0.487   0.656  1.00  0.00     0.019 C 
ATOM      9  C   UNL     1      -8.321  -0.207   2.540  1.00  0.00     0.189 C 
ATOM     10  C   UNL     1      -7.592  -0.397   0.235  1.00  0.00     0.087 C 
ATOM     11  N   UNL     1      -8.469  -0.931   1.277  1.00  0.00    -0.276 NA
ATOM     12  O   UNL     1      -9.140  -0.759   3.573  1.00  0.00    -0.360 OA
ATOM     13  C   UNL     1      -9.874  -0.931   0.853  1.00  0.00     0.121 C 
ATOM     14  C   UNL     1     -10.529  -0.784   3.233  1.00  0.00     0.195 C 
BRANCH   6  15
ATOM     15  C   UNL     1      -4.448   0.043   2.439  1.00  0.00    -0.008 C 
ATOM     16  C   UNL     1      -3.421   1.122   2.191  1.00  0.00     0.004 C 
ATOM     17  C   UNL     1      -3.887   0.842   3.590  1.00  0.00     0.004 C 
ENDBRANCH   6  15
ENDBRANCH   4   5
ENDBRANCH   1   4
BRANCH   3  18
ATOM     18  C   UNL     1     -12.035  -5.990   3.896  1.00  0.00     0.053 C 
BRANCH  18  19
ATOM     19  C   UNL     1     -13.330  -6.757   3.813  1.00  0.00     0.074 C 
BRANCH  19  20
ATOM     20  N   UNL     1     -13.535  -7.822   3.112  1.00  0.00    -0.313 NA
ATOM     21  H   UNL     1     -13.473  -7.630   2.102  1.00  0.00     0.186 HD
ENDBRANCH  19  20
ENDBRANCH  18  19
ENDBRANCH   3  18
TORSDOF 6
ENDMDL
MODEL 2
REMARK VINA RESULT:    -4.444      3.303      5.606
REMARK INTER + INTRA:          -6.084
REMARK INTER:                  -5.848
REMARK INTRA:                  -0.236
REMARK UNBOUND:                -0.211
REMARK SMILES [H]/N=C\C[C@H]1C[C@@H]1O[C@H]1CO[C@H]2C[C@@H](C3CC3)CCN2C1
REMARK SMILES IDX 7 1 6 2 5 3 8 4 9 5 14 6 13 7 18 8 12 9 19 10 20 11 11 12
REMARK SMILES IDX 21 13 10 14 15 15 16 16 17 17 4 18 3 19 2 20 1 21
REMARK H PARENT
ROOT
ATOM      1  C   UNL     1     -11.782   1.335   3.505  1.00  0.00     0.122 C 
ATOM      2  C   UNL     1     -12.576   1.567   4.760  1.00  0.00     0.039 C 
ATOM      3  C   UNL     1     -12.116   2.737   3.938  1.00  0.00     0.026 C 
ENDROOT
BRANCH   1   4
ATOM      4  O   UNL     1     -10.431   0.893   3.738  1.00  0.00    -0.371 OA
BRANCH   4   5
ATOM      5  C   UNL     1     -10.276  -0.510   4.006  1.00  0.00     0.158 C 
ATOM      6  C   UNL     1      -6.020  -1.391   1.122  1.00  0.00    -0.003 C 
ATOM      7  C   UNL     1      -7.500  -1.106   0.837  1.00  0.00     0.052 C 
ATOM      8  C   UNL     1      -5.601  -0.662   2.407  1.00  0.00     0.019 C 
ATOM      9  C   UNL     1      -8.384  -1.421   2.051  1.00  0.00     0.189 C 
ATOM     10  C   UNL     1      -6.541  -0.992   3.567  1.00  0.00     0.087 C 
ATOM     11  N   UNL     1      -7.927  -0.675   3.224  1.00  0.00    -0.276 NA
ATOM     12  O   UNL     1      -9.721  -1.076   1.684  1.00  0.00    -0.360 OA
ATOM     13  C   UNL     1      -8.830  -0.904   4.357  1.00  0.00     0.121 C 
ATOM     14  C   UNL     1     -10.664  -1.282   2.740  1.00  0.00     0.195 C 
BRANCH   6  15
ATOM     15  C   UNL     1      -5.142  -0.972  -0.036  1.00  0.00    -0.008 C 
ATOM     16  C   UNL     1      -3.981  -1.837  -0.466  1.00  0.00     0.004 C 
ATOM     17  C   UNL     1      -5.188  -1.713  -1.350  1.00  0.00     0.004 C 
ENDBRANCH   6  15
ENDBRANCH   4   5
ENDBRANCH   1   4
BRANCH   3  18
ATOM     18  C   UNL     1     -13.134   3.538   3.183  1.00  0.00     0.053 C 
BRANCH  18  19
ATOM     19  C   UNL     1     -14.265   4.113   3.995  1.00  0.00     0.074 C 
BRANCH  19  20
ATOM     20  N   UNL     1     -14.153   4.992   4.934  1.00  0.00    -0.313 NA
ATOM     21  H   UNL     1     -15.022   5.530   5.057  1.00  0.00     0.186 HD
ENDBRANCH  19  20
ENDBRANCH  18  19
ENDBRANCH   3  18
TORSDOF 6
ENDMDL
MODEL 3
REMARK VINA RESULT:    -4.181      2.696      8.560
REMARK INTER + INTRA:          -5.737
REMARK INTER:                  -5.592
REMARK INTRA:                  -0.145
REMARK UNBOUND:                -0.211
REMARK SMILES [H]/N=C\C[C@H]1C[C@@H]1O[C@H]1CO[C@H]2C[C@@H](C3CC3)CCN2C1
REMARK SMILES IDX 7 1 6 2 5 3 8 4 9 5 14 6 13 7 18 8 12 9 19 10 20 11 11 12
REMARK SMILES IDX 21 13 10 14 15 15 16 16 17 17 4 18 3 19 2 20 1 21
REMARK H PARENT
ROOT
ATOM      1  C   UNL     1     -10.229  -1.469   2.991  1.00  0.00     0.122 C 
ATOM      2  C   UNL     1     -10.291  -0.189   3.776  1.00  0.00     0.039 C 
ATOM      3  C   UNL     1      -9.232  -1.208   4.087  1.00  0.00     0.026 C 
ENDROOT
BRANCH   1   4
ATOM      4  O   UNL     1     -11.291  -2.394   3.292  1.00  0.00    -0.371 OA
BRANCH   4   5
ATOM      5  C   UNL     1     -11.717  -3.225   2.199  1.00  0.00     0.158 C 
ATOM      6  C   UNL     1     -14.073  -6.981   4.946  1.00  0.00    -0.003 C 
ATOM      7  C   UNL     1     -12.624  -6.548   4.696  1.00  0.00     0.052 C 
ATOM      8  C   UNL     1     -14.983  -5.745   4.922  1.00  0.00     0.019 C 
ATOM      9  C   UNL     1     -12.493  -5.700   3.424  1.00  0.00     0.189 C 
ATOM     10  C   UNL     1     -14.780  -4.927   3.647  1.00  0.00     0.087 C 
ATOM     11  N   UNL     1     -13.379  -4.538   3.492  1.00  0.00    -0.276 NA
ATOM     12  O   UNL     1     -11.119  -5.322   3.324  1.00  0.00    -0.360 OA
ATOM     13  C   UNL     1     -13.183  -3.679   2.319  1.00  0.00     0.121 C 
ATOM     14  C   UNL     1     -10.848  -4.487   2.194  1.00  0.00     0.195 C 
BRANCH   6  15
ATOM     15  C   UNL     1     -14.214  -7.718   6.258  1.00  0.00    -0.008 C 
ATOM     16  C   UNL     1     -15.310  -8.741   6.446  1.00  0.00     0.004 C 
ATOM     17  C   UNL     1     -13.879  -9.187   6.361  1.00  0.00     0.004 C 
ENDBRANCH   6  15
ENDBRANCH   4   5
ENDBRANCH   1   4
BRANCH   3  18
ATOM     18  C   UNL     1      -7.804  -0.898   3.751  1.00  0.00     0.053 C 
BRANCH  18  19
ATOM     19  C   UNL     1      -6.783  -1.238   4.806  1.00  0.00     0.074 C 
BRANCH  19  20
ATOM     20  N   UNL     1      -6.989  -1.257   6.081  1.00  0.00    -0.313 NA
ATOM     21  H   UNL     1      -7.630  -2.016   6.350  1.00  0.00     0.186 HD
ENDBRANCH  19  20
ENDBRANCH  18  19
ENDBRANCH   3  18
TORSDOF 6
ENDMDL
MODEL 4
REMARK VINA RESULT:    -3.939      3.648      5.119
REMARK INTER + INTRA:          -5.417
REMARK INTER:                  -5.163
REMARK INTRA:                  -0.254
REMARK UNBOUND:                -0.211
REMARK SMILES [H]/N=C\C[C@H]1C[C@@H]1O[C@H]1CO[C@H]2C[C@@H](C3CC3)CCN2C1
REMARK SMILES IDX 7 1 6 2 5 3 8 4 9 5 14 6 13 7 18 8 12 9 19 10 20 11 11 12
REMARK SMILES IDX 21 13 10 14 15 15 16 16 17 17 4 18 3 19 2 20 1 21
REMARK H PARENT
ROOT
ATOM      1  C   UNL     1     -12.820  -6.581   4.636  1.00  0.00     0.122 C 
ATOM      2  C   UNL     1     -12.278  -7.337   5.816  1.00  0.00     0.039 C 
ATOM      3  C   UNL     1     -13.432  -6.393   5.997  1.00  0.00     0.026 C 
ENDROOT
BRANCH   1   4
ATOM      4  O   UNL     1     -11.957  -5.528   4.166  1.00  0.00    -0.371 OA
BRANCH   4   5
ATOM      5  C   UNL     1     -12.146  -5.137   2.796  1.00  0.00     0.158 C 
ATOM      6  C   UNL     1     -11.169  -0.038   3.295  1.00  0.00    -0.003 C 
ATOM      7  C   UNL     1     -12.308  -0.982   3.697  1.00  0.00     0.052 C 
ATOM      8  C   UNL     1      -9.837  -0.801   3.341  1.00  0.00     0.019 C 
ATOM      9  C   UNL     1     -12.298  -2.273   2.868  1.00  0.00     0.189 C 
ATOM     10  C   UNL     1      -9.904  -2.091   2.525  1.00  0.00     0.087 C 
ATOM     11  N   UNL     1     -11.002  -2.943   2.982  1.00  0.00    -0.276 NA
ATOM     12  O   UNL     1     -13.366  -3.084   3.361  1.00  0.00    -0.360 OA
ATOM     13  C   UNL     1     -11.026  -4.224   2.266  1.00  0.00     0.121 C 
ATOM     14  C   UNL     1     -13.458  -4.351   2.701  1.00  0.00     0.195 C 
BRANCH   6  15
ATOM     15  C   UNL     1     -11.115   1.179   4.191  1.00  0.00    -0.008 C 
ATOM     16  C   UNL     1     -11.823   2.453   3.792  1.00  0.00     0.004 C 
ATOM     17  C   UNL     1     -12.339   1.640   4.944  1.00  0.00     0.004 C 
ENDBRANCH   6  15
ENDBRANCH   4   5
ENDBRANCH   1   4
BRANCH   3  18
ATOM     18  C   UNL     1     -14.789  -6.955   6.300  1.00  0.00     0.053 C 
BRANCH  18  19
ATOM     19  C   UNL     1     -15.793  -5.994   6.881  1.00  0.00     0.074 C 
BRANCH  19  20
ATOM     20  N   UNL     1     -15.611  -4.730   7.068  1.00  0.00    -0.313 NA
ATOM     21  H   UNL     1     -15.037  -4.314   6.321  1.00  0.00     0.186 HD
ENDBRANCH  19  20
ENDBRANCH  18  19
ENDBRANCH   3  18
TORSDOF 6
ENDMDL
MODEL 5
REMARK VINA RESULT:    -3.787      7.925     10.162
REMARK INTER + INTRA:          -5.217
REMARK INTER:                  -5.402
REMARK INTRA:                   0.186
REMARK UNBOUND:                -0.211
REMARK SMILES [H]/N=C\C[C@H]1C[C@@H]1O[C@H]1CO[C@H]2C[C@@H](C3CC3)CCN2C1
REMARK SMILES IDX 7 1 6 2 5 3 8 4 9 5 14 6 13 7 18 8 12 9 19 10 20 11 11 12
REMARK SMILES IDX 21 13 10 14 15 15 16 16 17 17 4 18 3 19 2 20 1 21
REMARK H PARENT
ROOT
ATOM      1  C   UNL     1     -16.082   6.437   6.789  1.00  0.00     0.122 C 
ATOM      2  C   UNL     1     -17.361   5.781   7.226  1.00  0.00     0.039 C 
ATOM      3  C   UNL     1     -16.278   6.054   8.230  1.00  0.00     0.026 C 
ENDROOT
BRANCH   1   4
ATOM      4  O   UNL     1     -15.223   5.586   6.007  1.00  0.00    -0.371 OA
BRANCH   4   5
ATOM      5  C   UNL     1     -15.864   4.879   4.932  1.00  0.00     0.158 C 
ATOM      6  C   UNL     1     -12.215   1.247   4.099  1.00  0.00    -0.003 C 
ATOM      7  C   UNL     1     -12.344   2.753   3.841  1.00  0.00     0.052 C 
ATOM      8  C   UNL     1     -12.991   0.881   5.372  1.00  0.00     0.019 C 
ATOM      9  C   UNL     1     -13.810   3.206   3.832  1.00  0.00     0.189 C 
ATOM     10  C   UNL     1     -14.431   1.389   5.313  1.00  0.00     0.087 C 
ATOM     11  N   UNL     1     -14.468   2.834   5.085  1.00  0.00    -0.276 NA
ATOM     12  O   UNL     1     -13.800   4.621   3.631  1.00  0.00    -0.360 OA
ATOM     13  C   UNL     1     -15.840   3.351   5.112  1.00  0.00     0.121 C 
ATOM     14  C   UNL     1     -15.109   5.197   3.637  1.00  0.00     0.195 C 
BRANCH   6  15
ATOM     15  C   UNL     1     -10.767   0.827   4.221  1.00  0.00    -0.008 C 
ATOM     16  C   UNL     1     -10.336  -0.559   3.803  1.00  0.00     0.004 C 
ATOM     17  C   UNL     1      -9.912   0.631   2.992  1.00  0.00     0.004 C 
ENDBRANCH   6  15
ENDBRANCH   4   5
ENDBRANCH   1   4
BRANCH   3  18
ATOM     18  C   UNL     1     -16.501   7.112   9.270  1.00  0.00     0.053 C 
BRANCH  18  19
ATOM     19  C   UNL     1     -15.479   7.185  10.375  1.00  0.00     0.074 C 
BRANCH  19  20
ATOM     20  N   UNL     1     -14.822   8.239  10.729  1.00  0.00    -0.313 NA
ATOM     21  H   UNL     1     -13.818   8.040  10.842  1.00  0.00     0.186 HD
ENDBRANCH  19  20
ENDBRANCH  18  19
ENDBRANCH   3  18
TORSDOF 6
ENDMDL
MODEL 6
REMARK VINA RESULT:    -3.577      5.016      7.877
REMARK INTER + INTRA:          -4.939
REMARK INTER:                  -5.063
REMARK INTRA:                   0.125
REMARK UNBOUND:                -0.211
REMARK SMILES [H]/N=C\C[C@H]1C[C@@H]1O[C@H]1CO[C@H]2C[C@@H](C3CC3)CCN2C1
REMARK SMILES IDX 7 1 6 2 5 3 8 4 9 5 14 6 13 7 18 8 12 9 19 10 20 11 11 12
REMARK SMILES IDX 21 13 10 14 15 15 16 16 17 17 4 18 3 19 2 20 1 21
REMARK H PARENT
ROOT
ATOM      1  C   UNL     1     -13.914   4.167   2.881  1.00  0.00     0.122 C 
ATOM      2  C   UNL     1     -15.056   4.282   1.911  1.00  0.00     0.039 C 
ATOM      3  C   UNL     1     -15.320   4.334   3.388  1.00  0.00     0.026 C 
ENDROOT
BRANCH   1   4
ATOM      4  O   UNL     1     -13.351   2.844   2.968  1.00  0.00    -0.371 OA
BRANCH   4   5
ATOM      5  C   UNL     1     -12.608   2.565   4.167  1.00  0.00     0.158 C 
ATOM      6  C   UNL     1     -11.037  -2.271   3.007  1.00  0.00    -0.003 C 
ATOM      7  C   UNL     1     -12.366  -1.612   3.395  1.00  0.00     0.052 C 
ATOM      8  C   UNL     1     -10.191  -1.273   2.204  1.00  0.00     0.019 C 
ATOM      9  C   UNL     1     -12.150  -0.266   4.100  1.00  0.00     0.189 C 
ATOM     10  C   UNL     1     -10.043   0.056   2.944  1.00  0.00     0.087 C 
ATOM     11  N   UNL     1     -11.351   0.628   3.260  1.00  0.00    -0.276 NA
ATOM     12  O   UNL     1     -13.448   0.268   4.368  1.00  0.00    -0.360 OA
ATOM     13  C   UNL     1     -11.227   1.945   3.894  1.00  0.00     0.121 C 
ATOM     14  C   UNL     1     -13.406   1.553   4.996  1.00  0.00     0.195 C 
BRANCH   6  15
ATOM     15  C   UNL     1     -11.258  -3.539   2.213  1.00  0.00    -0.008 C 
ATOM     16  C   UNL     1     -11.376  -4.870   2.918  1.00  0.00     0.004 C 
ATOM     17  C   UNL     1     -12.582  -4.262   2.263  1.00  0.00     0.004 C 
ENDBRANCH   6  15
ENDBRANCH   4   5
ENDBRANCH   1   4
BRANCH   3  18
ATOM     18  C   UNL     1     -15.752   5.632   4.004  1.00  0.00     0.053 C 
BRANCH  18  19
ATOM     19  C   UNL     1     -15.887   5.644   5.505  1.00  0.00     0.074 C 
BRANCH  19  20
ATOM     20  N   UNL     1     -15.415   4.756   6.315  1.00  0.00    -0.313 NA
ATOM     21  H   UNL     1     -14.982   3.971   5.808  1.00  0.00     0.186 HD
ENDBRANCH  19  20
ENDBRANCH  18  19
ENDBRANCH   3  18
TORSDOF 6
ENDMDL
MODEL 7
REMARK VINA RESULT:    -3.518      3.707      6.083
REMARK INTER + INTRA:          -4.861
REMARK INTER:                  -4.500
REMARK INTRA:                  -0.361
REMARK UNBOUND:                -0.211
REMARK SMILES [H]/N=C\C[C@H]1C[C@@H]1O[C@H]1CO[C@H]2C[C@@H](C3CC3)CCN2C1
REMARK SMILES IDX 7 1 6 2 5 3 8 4 9 5 14 6 13 7 18 8 12 9 19 10 20 11 11 12
REMARK SMILES IDX 21 13 10 14 15 15 16 16 17 17 4 18 3 19 2 20 1 21
REMARK H PARENT
ROOT
ATOM      1  C   UNL     1     -14.236  -6.879   5.564  1.00  0.00     0.122 C 
ATOM      2  C   UNL     1     -13.387  -6.764   6.798  1.00  0.00     0.039 C 
ATOM      3  C   UNL     1     -14.616  -7.628   6.812  1.00  0.00     0.026 C 
ENDROOT
BRANCH   1   4
ATOM      4  O   UNL     1     -15.000  -5.695   5.265  1.00  0.00    -0.371 OA
BRANCH   4   5
ATOM      5  C   UNL     1     -15.370  -5.528   3.887  1.00  0.00     0.158 C 
ATOM      6  C   UNL     1     -11.288  -2.682   2.323  1.00  0.00    -0.003 C 
ATOM      7  C   UNL     1     -12.526  -2.440   3.196  1.00  0.00     0.052 C 
ATOM      8  C   UNL     1     -10.841  -4.143   2.470  1.00  0.00     0.019 C 
ATOM      9  C   UNL     1     -13.633  -3.464   2.911  1.00  0.00     0.189 C 
ATOM     10  C   UNL     1     -11.996  -5.109   2.208  1.00  0.00     0.087 C 
ATOM     11  N   UNL     1     -13.127  -4.825   3.091  1.00  0.00    -0.276 NA
ATOM     12  O   UNL     1     -14.705  -3.167   3.808  1.00  0.00    -0.360 OA
ATOM     13  C   UNL     1     -14.211  -5.798   2.911  1.00  0.00     0.121 C 
ATOM     14  C   UNL     1     -15.806  -4.073   3.684  1.00  0.00     0.195 C 
BRANCH   6  15
ATOM     15  C   UNL     1     -10.160  -1.743   2.687  1.00  0.00    -0.008 C 
ATOM     16  C   UNL     1      -9.644  -0.742   1.681  1.00  0.00     0.004 C 
ATOM     17  C   UNL     1     -10.414  -0.267   2.878  1.00  0.00     0.004 C 
ENDBRANCH   6  15
ENDBRANCH   4   5
ENDBRANCH   1   4
BRANCH   3  18
ATOM     18  C   UNL     1     -14.456  -9.118   6.877  1.00  0.00     0.053 C 
BRANCH  18  19
ATOM     19  C   UNL     1     -14.846  -9.773   8.176  1.00  0.00     0.074 C 
BRANCH  19  20
ATOM     20  N   UNL     1     -14.060 -10.440   8.954  1.00  0.00    -0.313 NA
ATOM     21  H   UNL     1     -13.089 -10.429   8.613  1.00  0.00     0.186 HD
ENDBRANCH  19  20
ENDBRANCH  18  19
ENDBRANCH   3  18
TORSDOF 6
ENDMDL
MODEL 8
REMARK VINA RESULT:    -3.348      7.848     10.324
REMARK INTER + INTRA:          -4.636
REMARK INTER:                  -5.371
REMARK INTRA:                   0.734
REMARK UNBOUND:                -0.211
REMARK SMILES [H]/N=C\C[C@H]1C[C@@H]1O[C@H]1CO[C@H]2C[C@@H](C3CC3)CCN2C1
REMARK SMILES IDX 7 1 6 2 5 3 8 4 9 5 14 6 13 7 18 8 12 9 19 10 20 11 11 12
REMARK SMILES IDX 21 13 10 14 15 15 16 16 17 17 4 18 3 19 2 20 1 21
REMARK H PARENT
ROOT
ATOM      1  C   UNL     1     -12.343   2.512   3.781  1.00  0.00     0.122 C 
ATOM      2  C   UNL     1     -10.934   2.638   4.288  1.00  0.00     0.039 C 
ATOM      3  C   UNL     1     -11.656   1.326   4.401  1.00  0.00     0.026 C 
ENDROOT
BRANCH   1   4
ATOM      4  O   UNL     1     -13.322   3.187   4.594  1.00  0.00    -0.371 OA
BRANCH   4   5
ATOM      5  C   UNL     1     -14.582   3.451   3.955  1.00  0.00     0.158 C 
ATOM      6  C   UNL     1     -16.622   6.645   7.538  1.00  0.00    -0.003 C 
ATOM      7  C   UNL     1     -16.330   5.143   7.446  1.00  0.00     0.052 C 
ATOM      8  C   UNL     1     -15.567   7.418   6.735  1.00  0.00     0.019 C 
ATOM      9  C   UNL     1     -16.189   4.678   5.989  1.00  0.00     0.189 C 
ATOM     10  C   UNL     1     -15.452   6.885   5.307  1.00  0.00     0.087 C 
ATOM     11  N   UNL     1     -15.154   5.453   5.305  1.00  0.00    -0.276 NA
ATOM     12  O   UNL     1     -15.876   3.285   6.033  1.00  0.00    -0.360 OA
ATOM     13  C   UNL     1     -14.955   4.944   3.943  1.00  0.00     0.121 C 
ATOM     14  C   UNL     1     -15.675   2.715   4.736  1.00  0.00     0.195 C 
BRANCH   6  15
ATOM     15  C   UNL     1     -16.647   7.118   8.974  1.00  0.00    -0.008 C 
ATOM     16  C   UNL     1     -16.543   6.124  10.107  1.00  0.00     0.004 C 
ATOM     17  C   UNL     1     -15.404   7.061   9.829  1.00  0.00     0.004 C 
ENDBRANCH   6  15
ENDBRANCH   4   5
ENDBRANCH   1   4
BRANCH   3  18
ATOM     18  C   UNL     1     -11.214   0.177   3.545  1.00  0.00     0.053 C 
BRANCH  18  19
ATOM     19  C   UNL     1      -9.750  -0.176   3.608  1.00  0.00     0.074 C 
BRANCH  19  20
ATOM     20  N   UNL     1      -9.208  -1.017   4.425  1.00  0.00    -0.313 NA
ATOM     21  H   UNL     1      -9.893  -1.386   5.099  1.00  0.00     0.186 HD
ENDBRANCH  19  20
ENDBRANCH  18  19
ENDBRANCH   3  18
TORSDOF 6
ENDMDL
