MODEL 1
REMARK VINA RESULT:    -6.385      0.000      0.000
REMARK INTER + INTRA:          -7.896
REMARK INTER:                  -7.505
REMARK INTRA:                  -0.391
REMARK UNBOUND:                -0.391
REMARK SMILES Cc1ccc(CNC(=O)NC(=O)c2ccc(C)cc2)cc1
REMARK SMILES IDX 11 1 12 2 10 3 8 4 9 5 7 6 13 9 19 10 18 11 14 12 16 13
REMARK SMILES IDX 15 14 17 15 6 16 5 17 4 18 20 19 3 20 21 21 2 22 1 23
REMARK H PARENT 10 7 7 8
ROOT
ATOM      1  C   UNL     1      -8.811  -0.669   2.404  1.00  0.00     0.259 C 
ATOM      2  O   UNL     1      -8.720   0.374   3.037  1.00  0.00    -0.269 OA
ATOM      3  N   UNL     1      -9.833  -1.623   2.432  1.00  0.00    -0.274 N 
ATOM      4  C   UNL     1     -11.121  -1.715   2.896  1.00  0.00     0.321 C 
ATOM      5  O   UNL     1     -11.768  -2.724   2.594  1.00  0.00    -0.248 OA
ATOM      6  N   UNL     1     -11.718  -0.758   3.629  1.00  0.00    -0.334 N 
ATOM      7  H   UNL     1      -9.676  -2.421   1.831  1.00  0.00     0.175 HD
ATOM      8  H   UNL     1     -12.693  -0.940   3.818  1.00  0.00     0.165 HD
ENDROOT
BRANCH   1   9
ATOM      9  C   UNL     1      -7.706  -0.978   1.477  1.00  0.00     0.040 A 
ATOM     10  C   UNL     1      -6.706  -1.892   1.815  1.00  0.00     0.014 A 
ATOM     11  C   UNL     1      -5.710  -2.191   0.885  1.00  0.00     0.004 A 
ATOM     12  C   UNL     1      -7.681  -0.321   0.243  1.00  0.00     0.014 A 
ATOM     13  C   UNL     1      -5.706  -1.576  -0.376  1.00  0.00    -0.051 A 
ATOM     14  C   UNL     1      -6.688  -0.628  -0.686  1.00  0.00     0.004 A 
ATOM     15  C   UNL     1      -4.678  -1.971  -1.396  1.00  0.00     0.044 C 
ENDBRANCH   1   9
BRANCH   6  16
ATOM     16  C   UNL     1     -11.186   0.523   3.998  1.00  0.00     0.153 C 
BRANCH  16  17
ATOM     17  C   UNL     1     -12.169   1.632   4.252  1.00  0.00    -0.029 A 
ATOM     18  C   UNL     1     -12.164   2.835   3.538  1.00  0.00     0.006 A 
ATOM     19  C   UNL     1     -13.256   1.347   5.094  1.00  0.00     0.006 A 
ATOM     20  C   UNL     1     -13.242   3.720   3.650  1.00  0.00     0.004 A 
ATOM     21  C   UNL     1     -14.330   2.226   5.201  1.00  0.00     0.004 A 
ATOM     22  C   UNL     1     -14.336   3.416   4.472  1.00  0.00    -0.051 A 
ATOM     23  C   UNL     1     -15.555   4.289   4.487  1.00  0.00     0.044 C 
ENDBRANCH  16  17
ENDBRANCH   6  16
TORSDOF 3
ENDMDL
MODEL 2
REMARK VINA RESULT:    -6.385      3.256      5.588
REMARK INTER + INTRA:          -7.896
REMARK INTER:                  -7.505
REMARK INTRA:                  -0.391
REMARK UNBOUND:                -0.391
REMARK SMILES Cc1ccc(CNC(=O)NC(=O)c2ccc(C)cc2)cc1
REMARK SMILES IDX 11 1 12 2 10 3 8 4 9 5 7 6 13 9 19 10 18 11 14 12 16 13
REMARK SMILES IDX 15 14 17 15 6 16 5 17 4 18 20 19 3 20 21 21 2 22 1 23
REMARK H PARENT 10 7 7 8
ROOT
ATOM      1  C   UNL     1      -8.763  -1.046   2.474  1.00  0.00     0.259 C 
ATOM      2  O   UNL     1      -8.866  -2.091   1.847  1.00  0.00    -0.269 OA
ATOM      3  N   UNL     1      -9.770  -0.283   3.073  1.00  0.00    -0.274 N 
ATOM      4  C   UNL     1     -11.088  -0.436   3.418  1.00  0.00     0.321 C 
ATOM      5  O   UNL     1     -11.616   0.463   4.082  1.00  0.00    -0.248 OA
ATOM      6  N   UNL     1     -11.820  -1.520   3.099  1.00  0.00    -0.334 N 
ATOM      7  H   UNL     1      -9.441   0.562   3.522  1.00  0.00     0.175 HD
ATOM      8  H   UNL     1     -12.747  -1.517   3.500  1.00  0.00     0.165 HD
ENDROOT
BRANCH   1   9
ATOM      9  C   UNL     1      -7.401  -0.504   2.634  1.00  0.00     0.040 A 
ATOM     10  C   UNL     1      -6.937   0.546   1.840  1.00  0.00     0.014 A 
ATOM     11  C   UNL     1      -5.660   1.061   2.064  1.00  0.00     0.004 A 
ATOM     12  C   UNL     1      -6.576  -1.077   3.607  1.00  0.00     0.014 A 
ATOM     13  C   UNL     1      -4.843   0.527   3.072  1.00  0.00    -0.051 A 
ATOM     14  C   UNL     1      -5.303  -0.556   3.832  1.00  0.00     0.004 A 
ATOM     15  C   UNL     1      -3.507   1.146   3.357  1.00  0.00     0.044 C 
ENDBRANCH   1   9
BRANCH   6  16
ATOM     16  C   UNL     1     -11.377  -2.710   2.430  1.00  0.00     0.153 C 
BRANCH  16  17
ATOM     17  C   UNL     1     -12.128  -3.981   2.713  1.00  0.00    -0.029 A 
ATOM     18  C   UNL     1     -11.517  -5.134   3.217  1.00  0.00     0.006 A 
ATOM     19  C   UNL     1     -13.531  -3.924   2.663  1.00  0.00     0.006 A 
ATOM     20  C   UNL     1     -12.300  -6.195   3.684  1.00  0.00     0.004 A 
ATOM     21  C   UNL     1     -14.308  -4.978   3.132  1.00  0.00     0.004 A 
ATOM     22  C   UNL     1     -13.699  -6.119   3.657  1.00  0.00    -0.051 A 
ATOM     23  C   UNL     1     -14.542  -7.188   4.284  1.00  0.00     0.044 C 
ENDBRANCH  16  17
ENDBRANCH   6  16
TORSDOF 3
ENDMDL
MODEL 3
REMARK VINA RESULT:    -6.190      3.161      7.272
REMARK INTER + INTRA:          -7.666
REMARK INTER:                  -7.180
REMARK INTRA:                  -0.487
REMARK UNBOUND:                -0.391
REMARK SMILES Cc1ccc(CNC(=O)NC(=O)c2ccc(C)cc2)cc1
REMARK SMILES IDX 11 1 12 2 10 3 8 4 9 5 7 6 13 9 19 10 18 11 14 12 16 13
REMARK SMILES IDX 15 14 17 15 6 16 5 17 4 18 20 19 3 20 21 21 2 22 1 23
REMARK H PARENT 10 7 7 8
ROOT
ATOM      1  C   UNL     1     -11.016  -2.872   2.804  1.00  0.00     0.259 C 
ATOM      2  O   UNL     1      -9.950  -3.145   2.271  1.00  0.00    -0.269 OA
ATOM      3  N   UNL     1     -11.451  -1.644   3.312  1.00  0.00    -0.274 N 
ATOM      4  C   UNL     1     -11.076  -0.327   3.238  1.00  0.00     0.321 C 
ATOM      5  O   UNL     1     -11.830   0.513   3.742  1.00  0.00    -0.248 OA
ATOM      6  N   UNL     1      -9.955   0.095   2.624  1.00  0.00    -0.334 N 
ATOM      7  H   UNL     1     -12.372  -1.668   3.730  1.00  0.00     0.175 HD
ATOM      8  H   UNL     1      -9.867   1.100   2.583  1.00  0.00     0.165 HD
ENDROOT
BRANCH   1   9
ATOM      9  C   UNL     1     -11.990  -3.972   2.936  1.00  0.00     0.040 A 
ATOM     10  C   UNL     1     -11.585  -5.270   3.254  1.00  0.00     0.014 A 
ATOM     11  C   UNL     1     -12.547  -6.266   3.419  1.00  0.00     0.004 A 
ATOM     12  C   UNL     1     -13.342  -3.682   2.724  1.00  0.00     0.014 A 
ATOM     13  C   UNL     1     -13.910  -5.973   3.260  1.00  0.00    -0.051 A 
ATOM     14  C   UNL     1     -14.300  -4.678   2.897  1.00  0.00     0.004 A 
ATOM     15  C   UNL     1     -14.938  -7.034   3.524  1.00  0.00     0.044 C 
ENDBRANCH   1   9
BRANCH   6  16
ATOM     16  C   UNL     1      -9.006  -0.697   1.894  1.00  0.00     0.153 C 
BRANCH  16  17
ATOM     17  C   UNL     1      -7.548  -0.402   2.113  1.00  0.00    -0.029 A 
ATOM     18  C   UNL     1      -6.851   0.576   1.395  1.00  0.00     0.006 A 
ATOM     19  C   UNL     1      -6.932  -0.993   3.228  1.00  0.00     0.006 A 
ATOM     20  C   UNL     1      -5.573   0.969   1.806  1.00  0.00     0.004 A 
ATOM     21  C   UNL     1      -5.662  -0.598   3.638  1.00  0.00     0.004 A 
ATOM     22  C   UNL     1      -4.975   0.394   2.937  1.00  0.00    -0.051 A 
ATOM     23  C   UNL     1      -3.670   0.909   3.466  1.00  0.00     0.044 C 
ENDBRANCH  16  17
ENDBRANCH   6  16
TORSDOF 3
ENDMDL
MODEL 4
REMARK VINA RESULT:    -6.168      0.566      7.996
REMARK INTER + INTRA:          -7.641
REMARK INTER:                  -7.155
REMARK INTRA:                  -0.486
REMARK UNBOUND:                -0.391
REMARK SMILES Cc1ccc(CNC(=O)NC(=O)c2ccc(C)cc2)cc1
REMARK SMILES IDX 11 1 12 2 10 3 8 4 9 5 7 6 13 9 19 10 18 11 14 12 16 13
REMARK SMILES IDX 15 14 17 15 6 16 5 17 4 18 20 19 3 20 21 21 2 22 1 23
REMARK H PARENT 10 7 7 8
ROOT
ATOM      1  C   UNL     1     -11.129   0.724   3.492  1.00  0.00     0.259 C 
ATOM      2  O   UNL     1     -10.015   1.206   3.345  1.00  0.00    -0.269 OA
ATOM      3  N   UNL     1     -11.553  -0.587   3.256  1.00  0.00    -0.274 N 
ATOM      4  C   UNL     1     -10.980  -1.814   3.037  1.00  0.00     0.321 C 
ATOM      5  O   UNL     1     -11.727  -2.798   3.003  1.00  0.00    -0.248 OA
ATOM      6  N   UNL     1      -9.656  -2.001   2.889  1.00  0.00    -0.334 N 
ATOM      7  H   UNL     1     -12.537  -0.745   3.431  1.00  0.00     0.175 HD
ATOM      8  H   UNL     1      -9.387  -2.972   2.822  1.00  0.00     0.165 HD
ENDROOT
BRANCH   1   9
ATOM      9  C   UNL     1     -12.181   1.631   3.990  1.00  0.00     0.040 A 
ATOM     10  C   UNL     1     -12.268   2.954   3.553  1.00  0.00     0.014 A 
ATOM     11  C   UNL     1     -13.312   3.758   4.012  1.00  0.00     0.004 A 
ATOM     12  C   UNL     1     -13.092   1.130   4.925  1.00  0.00     0.014 A 
ATOM     13  C   UNL     1     -14.262   3.249   4.910  1.00  0.00    -0.051 A 
ATOM     14  C   UNL     1     -14.136   1.935   5.376  1.00  0.00     0.004 A 
ATOM     15  C   UNL     1     -15.425   4.100   5.328  1.00  0.00     0.044 C 
ENDBRANCH   1   9
BRANCH   6  16
ATOM     16  C   UNL     1      -8.615  -1.018   2.997  1.00  0.00     0.153 C 
BRANCH  16  17
ATOM     17  C   UNL     1      -7.507  -1.072   1.982  1.00  0.00    -0.029 A 
ATOM     18  C   UNL     1      -6.372  -1.874   2.132  1.00  0.00     0.006 A 
ATOM     19  C   UNL     1      -7.738  -0.448   0.745  1.00  0.00     0.006 A 
ATOM     20  C   UNL     1      -5.501  -2.064   1.054  1.00  0.00     0.004 A 
ATOM     21  C   UNL     1      -6.874  -0.642  -0.328  1.00  0.00     0.004 A 
ATOM     22  C   UNL     1      -5.752  -1.461  -0.186  1.00  0.00    -0.051 A 
ATOM     23  C   UNL     1      -4.905  -1.773  -1.383  1.00  0.00     0.044 C 
ENDBRANCH  16  17
ENDBRANCH   6  16
TORSDOF 3
ENDMDL
MODEL 5
REMARK VINA RESULT:    -6.006      2.984      7.738
REMARK INTER + INTRA:          -7.451
REMARK INTER:                  -6.946
REMARK INTRA:                  -0.505
REMARK UNBOUND:                -0.391
REMARK SMILES Cc1ccc(CNC(=O)NC(=O)c2ccc(C)cc2)cc1
REMARK SMILES IDX 11 1 12 2 10 3 8 4 9 5 7 6 13 9 19 10 18 11 14 12 16 13
REMARK SMILES IDX 15 14 17 15 6 16 5 17 4 18 20 19 3 20 21 21 2 22 1 23
REMARK H PARENT 10 7 7 8
ROOT
ATOM      1  C   UNL     1     -11.415  -3.042   2.521  1.00  0.00     0.259 C 
ATOM      2  O   UNL     1     -10.646  -3.242   1.591  1.00  0.00    -0.269 OA
ATOM      3  N   UNL     1     -11.575  -1.886   3.291  1.00  0.00    -0.274 N 
ATOM      4  C   UNL     1     -11.207  -0.567   3.226  1.00  0.00     0.321 C 
ATOM      5  O   UNL     1     -11.678   0.202   4.072  1.00  0.00    -0.248 OA
ATOM      6  N   UNL     1     -10.392  -0.067   2.280  1.00  0.00    -0.334 N 
ATOM      7  H   UNL     1     -12.265  -1.967   4.026  1.00  0.00     0.175 HD
ATOM      8  H   UNL     1     -10.288   0.937   2.320  1.00  0.00     0.165 HD
ENDROOT
BRANCH   1   9
ATOM      9  C   UNL     1     -12.306  -4.158   2.893  1.00  0.00     0.040 A 
ATOM     10  C   UNL     1     -13.693  -4.054   2.773  1.00  0.00     0.014 A 
ATOM     11  C   UNL     1     -14.491  -5.154   3.088  1.00  0.00     0.004 A 
ATOM     12  C   UNL     1     -11.720  -5.332   3.379  1.00  0.00     0.014 A 
ATOM     13  C   UNL     1     -13.910  -6.353   3.527  1.00  0.00    -0.051 A 
ATOM     14  C   UNL     1     -12.521  -6.430   3.686  1.00  0.00     0.004 A 
ATOM     15  C   UNL     1     -14.775  -7.553   3.780  1.00  0.00     0.044 C 
ENDBRANCH   1   9
BRANCH   6  16
ATOM     16  C   UNL     1      -9.826  -0.759   1.156  1.00  0.00     0.153 C 
BRANCH  16  17
ATOM     17  C   UNL     1      -8.327  -0.762   1.031  1.00  0.00    -0.029 A 
ATOM     18  C   UNL     1      -7.483  -1.339   1.986  1.00  0.00     0.006 A 
ATOM     19  C   UNL     1      -7.784  -0.354  -0.197  1.00  0.00     0.006 A 
ATOM     20  C   UNL     1      -6.126  -1.523   1.700  1.00  0.00     0.004 A 
ATOM     21  C   UNL     1      -6.435  -0.542  -0.482  1.00  0.00     0.004 A 
ATOM     22  C   UNL     1      -5.596  -1.138   0.460  1.00  0.00    -0.051 A 
ATOM     23  C   UNL     1      -4.179  -1.461   0.093  1.00  0.00     0.044 C 
ENDBRANCH  16  17
ENDBRANCH   6  16
TORSDOF 3
ENDMDL
MODEL 6
REMARK VINA RESULT:    -5.977      1.603      7.722
REMARK INTER + INTRA:          -7.417
REMARK INTER:                  -6.912
REMARK INTRA:                  -0.504
REMARK UNBOUND:                -0.391
REMARK SMILES Cc1ccc(CNC(=O)NC(=O)c2ccc(C)cc2)cc1
REMARK SMILES IDX 11 1 12 2 10 3 8 4 9 5 7 6 13 9 19 10 18 11 14 12 16 13
REMARK SMILES IDX 15 14 17 15 6 16 5 17 4 18 20 19 3 20 21 21 2 22 1 23
REMARK H PARENT 10 7 7 8
ROOT
ATOM      1  C   UNL     1     -11.345   0.840   3.952  1.00  0.00     0.259 C 
ATOM      2  O   UNL     1     -10.233   1.223   4.285  1.00  0.00    -0.269 OA
ATOM      3  N   UNL     1     -11.714  -0.372   3.360  1.00  0.00    -0.274 N 
ATOM      4  C   UNL     1     -11.154  -1.605   3.144  1.00  0.00     0.321 C 
ATOM      5  O   UNL     1     -11.882  -2.493   2.685  1.00  0.00    -0.248 OA
ATOM      6  N   UNL     1      -9.874  -1.903   3.433  1.00  0.00    -0.334 N 
ATOM      7  H   UNL     1     -12.701  -0.453   3.155  1.00  0.00     0.175 HD
ATOM      8  H   UNL     1      -9.641  -2.876   3.295  1.00  0.00     0.165 HD
ENDROOT
BRANCH   1   9
ATOM      9  C   UNL     1     -12.465   1.767   4.205  1.00  0.00     0.040 A 
ATOM     10  C   UNL     1     -13.499   1.437   5.084  1.00  0.00     0.014 A 
ATOM     11  C   UNL     1     -14.509   2.368   5.331  1.00  0.00     0.004 A 
ATOM     12  C   UNL     1     -12.469   2.992   3.530  1.00  0.00     0.014 A 
ATOM     13  C   UNL     1     -14.494   3.620   4.699  1.00  0.00    -0.051 A 
ATOM     14  C   UNL     1     -13.477   3.920   3.786  1.00  0.00     0.004 A 
ATOM     15  C   UNL     1     -15.540   4.641   5.040  1.00  0.00     0.044 C 
ENDBRANCH   1   9
BRANCH   6  16
ATOM     16  C   UNL     1      -8.899  -1.057   4.062  1.00  0.00     0.153 C 
BRANCH  16  17
ATOM     17  C   UNL     1      -7.620  -0.803   3.312  1.00  0.00    -0.029 A 
ATOM     18  C   UNL     1      -7.578  -0.159   2.071  1.00  0.00     0.006 A 
ATOM     19  C   UNL     1      -6.416  -1.038   3.996  1.00  0.00     0.006 A 
ATOM     20  C   UNL     1      -6.353   0.261   1.542  1.00  0.00     0.004 A 
ATOM     21  C   UNL     1      -5.199  -0.615   3.471  1.00  0.00     0.004 A 
ATOM     22  C   UNL     1      -5.158   0.048   2.243  1.00  0.00    -0.051 A 
ATOM     23  C   UNL     1      -3.862   0.620   1.752  1.00  0.00     0.044 C 
ENDBRANCH  16  17
ENDBRANCH   6  16
TORSDOF 3
ENDMDL
MODEL 7
REMARK VINA RESULT:    -5.422      3.105      5.251
REMARK INTER + INTRA:          -6.764
REMARK INTER:                  -6.350
REMARK INTRA:                  -0.414
REMARK UNBOUND:                -0.391
REMARK SMILES Cc1ccc(CNC(=O)NC(=O)c2ccc(C)cc2)cc1
REMARK SMILES IDX 11 1 12 2 10 3 8 4 9 5 7 6 13 9 19 10 18 11 14 12 16 13
REMARK SMILES IDX 15 14 17 15 6 16 5 17 4 18 20 19 3 20 21 21 2 22 1 23
REMARK H PARENT 10 7 7 8
ROOT
ATOM      1  C   UNL     1      -8.659  -1.285   1.878  1.00  0.00     0.259 C 
ATOM      2  O   UNL     1      -9.114  -2.231   1.251  1.00  0.00    -0.269 OA
ATOM      3  N   UNL     1      -9.315  -0.428   2.767  1.00  0.00    -0.274 N 
ATOM      4  C   UNL     1     -10.504  -0.391   3.449  1.00  0.00     0.321 C 
ATOM      5  O   UNL     1     -10.663   0.513   4.276  1.00  0.00    -0.248 OA
ATOM      6  N   UNL     1     -11.483  -1.300   3.287  1.00  0.00    -0.334 N 
ATOM      7  H   UNL     1      -8.729   0.302   3.151  1.00  0.00     0.175 HD
ATOM      8  H   UNL     1     -12.257  -1.183   3.924  1.00  0.00     0.165 HD
ENDROOT
BRANCH   1   9
ATOM      9  C   UNL     1      -7.224  -0.997   1.690  1.00  0.00     0.040 A 
ATOM     10  C   UNL     1      -6.292  -2.021   1.517  1.00  0.00     0.014 A 
ATOM     11  C   UNL     1      -4.954  -1.698   1.289  1.00  0.00     0.004 A 
ATOM     12  C   UNL     1      -6.817   0.341   1.696  1.00  0.00     0.014 A 
ATOM     13  C   UNL     1      -4.544  -0.357   1.242  1.00  0.00    -0.051 A 
ATOM     14  C   UNL     1      -5.481   0.660   1.462  1.00  0.00     0.004 A 
ATOM     15  C   UNL     1      -3.119  -0.023   0.912  1.00  0.00     0.044 C 
ENDBRANCH   1   9
BRANCH   6  16
ATOM     16  C   UNL     1     -11.459  -2.476   2.463  1.00  0.00     0.153 C 
BRANCH  16  17
ATOM     17  C   UNL     1     -12.229  -3.673   2.947  1.00  0.00    -0.029 A 
ATOM     18  C   UNL     1     -13.620  -3.779   2.843  1.00  0.00     0.006 A 
ATOM     19  C   UNL     1     -11.489  -4.806   3.322  1.00  0.00     0.006 A 
ATOM     20  C   UNL     1     -14.249  -5.005   3.087  1.00  0.00     0.004 A 
ATOM     21  C   UNL     1     -12.115  -6.026   3.558  1.00  0.00     0.004 A 
ATOM     22  C   UNL     1     -13.500  -6.138   3.433  1.00  0.00    -0.051 A 
ATOM     23  C   UNL     1     -14.150  -7.484   3.555  1.00  0.00     0.044 C 
ENDBRANCH  16  17
ENDBRANCH   6  16
TORSDOF 3
ENDMDL
MODEL 8
REMARK VINA RESULT:    -4.857      4.541      7.043
REMARK INTER + INTRA:          -6.100
REMARK INTER:                  -5.603
REMARK INTRA:                  -0.497
REMARK UNBOUND:                -0.391
REMARK SMILES Cc1ccc(CNC(=O)NC(=O)c2ccc(C)cc2)cc1
REMARK SMILES IDX 11 1 12 2 10 3 8 4 9 5 7 6 13 9 19 10 18 11 14 12 16 13
REMARK SMILES IDX 15 14 17 15 6 16 5 17 4 18 20 19 3 20 21 21 2 22 1 23
REMARK H PARENT 10 7 7 8
ROOT
ATOM      1  C   UNL     1     -11.561  -2.924   2.457  1.00  0.00     0.259 C 
ATOM      2  O   UNL     1     -11.349  -4.066   2.074  1.00  0.00    -0.269 OA
ATOM      3  N   UNL     1     -12.759  -2.361   2.909  1.00  0.00    -0.274 N 
ATOM      4  C   UNL     1     -13.992  -2.798   3.320  1.00  0.00     0.321 C 
ATOM      5  O   UNL     1     -14.770  -1.960   3.789  1.00  0.00    -0.248 OA
ATOM      6  N   UNL     1     -14.382  -4.085   3.265  1.00  0.00    -0.334 N 
ATOM      7  H   UNL     1     -12.693  -1.382   3.154  1.00  0.00     0.175 HD
ATOM      8  H   UNL     1     -15.285  -4.254   3.685  1.00  0.00     0.165 HD
ENDROOT
BRANCH   1   9
ATOM      9  C   UNL     1     -10.410  -2.002   2.454  1.00  0.00     0.040 A 
ATOM     10  C   UNL     1      -9.794  -1.602   3.642  1.00  0.00     0.014 A 
ATOM     11  C   UNL     1      -8.675  -0.770   3.586  1.00  0.00     0.004 A 
ATOM     12  C   UNL     1      -9.951  -1.527   1.221  1.00  0.00     0.014 A 
ATOM     13  C   UNL     1      -8.176  -0.331   2.351  1.00  0.00    -0.051 A 
ATOM     14  C   UNL     1      -8.830  -0.702   1.170  1.00  0.00     0.004 A 
ATOM     15  C   UNL     1      -6.923   0.494   2.303  1.00  0.00     0.044 C 
ENDBRANCH   1   9
BRANCH   6  16
ATOM     16  C   UNL     1     -13.604  -5.219   2.856  1.00  0.00     0.153 C 
BRANCH  16  17
ATOM     17  C   UNL     1     -13.575  -6.405   3.779  1.00  0.00    -0.029 A 
ATOM     18  C   UNL     1     -12.749  -6.475   4.907  1.00  0.00     0.006 A 
ATOM     19  C   UNL     1     -14.572  -7.379   3.607  1.00  0.00     0.006 A 
ATOM     20  C   UNL     1     -12.940  -7.488   5.852  1.00  0.00     0.004 A 
ATOM     21  C   UNL     1     -14.763  -8.384   4.551  1.00  0.00     0.004 A 
ATOM     22  C   UNL     1     -13.955  -8.441   5.688  1.00  0.00    -0.051 A 
ATOM     23  C   UNL     1     -14.257  -9.440   6.764  1.00  0.00     0.044 C 
ENDBRANCH  16  17
ENDBRANCH   6  16
TORSDOF 3
ENDMDL
MODEL 9
REMARK VINA RESULT:    -4.826      4.986      7.975
REMARK INTER + INTRA:          -6.063
REMARK INTER:                  -5.600
REMARK INTRA:                  -0.464
REMARK UNBOUND:                -0.391
REMARK SMILES Cc1ccc(CNC(=O)NC(=O)c2ccc(C)cc2)cc1
REMARK SMILES IDX 11 1 12 2 10 3 8 4 9 5 7 6 13 9 19 10 18 11 14 12 16 13
REMARK SMILES IDX 15 14 17 15 6 16 5 17 4 18 20 19 3 20 21 21 2 22 1 23
REMARK H PARENT 10 7 7 8
ROOT
ATOM      1  C   UNL     1     -15.159   3.729   4.606  1.00  0.00     0.259 C 
ATOM      2  O   UNL     1     -15.903   3.410   5.523  1.00  0.00    -0.269 OA
ATOM      3  N   UNL     1     -15.286   4.789   3.703  1.00  0.00    -0.274 N 
ATOM      4  C   UNL     1     -16.029   5.937   3.586  1.00  0.00     0.321 C 
ATOM      5  O   UNL     1     -15.741   6.714   2.670  1.00  0.00    -0.248 OA
ATOM      6  N   UNL     1     -17.024   6.269   4.429  1.00  0.00    -0.334 N 
ATOM      7  H   UNL     1     -14.550   4.840   3.012  1.00  0.00     0.175 HD
ATOM      8  H   UNL     1     -17.413   7.184   4.258  1.00  0.00     0.165 HD
ENDROOT
BRANCH   1   9
ATOM      9  C   UNL     1     -13.955   2.898   4.413  1.00  0.00     0.040 A 
ATOM     10  C   UNL     1     -12.895   3.326   3.610  1.00  0.00     0.014 A 
ATOM     11  C   UNL     1     -11.755   2.529   3.500  1.00  0.00     0.004 A 
ATOM     12  C   UNL     1     -13.904   1.657   5.055  1.00  0.00     0.014 A 
ATOM     13  C   UNL     1     -11.673   1.306   4.182  1.00  0.00    -0.051 A 
ATOM     14  C   UNL     1     -12.760   0.867   4.947  1.00  0.00     0.004 A 
ATOM     15  C   UNL     1     -10.408   0.501   4.122  1.00  0.00     0.044 C 
ENDBRANCH   1   9
BRANCH   6  16
ATOM     16  C   UNL     1     -17.445   5.565   5.608  1.00  0.00     0.153 C 
BRANCH  16  17
ATOM     17  C   UNL     1     -17.061   6.153   6.937  1.00  0.00    -0.029 A 
ATOM     18  C   UNL     1     -17.413   5.571   8.159  1.00  0.00     0.006 A 
ATOM     19  C   UNL     1     -16.135   7.209   6.930  1.00  0.00     0.006 A 
ATOM     20  C   UNL     1     -16.827   6.027   9.346  1.00  0.00     0.004 A 
ATOM     21  C   UNL     1     -15.550   7.657   8.109  1.00  0.00     0.004 A 
ATOM     22  C   UNL     1     -15.883   7.063   9.327  1.00  0.00    -0.051 A 
ATOM     23  C   UNL     1     -15.148   7.459  10.572  1.00  0.00     0.044 C 
ENDBRANCH  16  17
ENDBRANCH   6  16
TORSDOF 3
ENDMDL
