MODEL 1
REMARK VINA RESULT:    -6.098      0.000      0.000
REMARK INTER + INTRA:          -7.535
REMARK INTER:                  -7.167
REMARK INTRA:                  -0.368
REMARK UNBOUND:                -0.368
REMARK SMILES Cc1ccc(CNC(=O)NC(=O)c2ccc(C)cc2)cc1
REMARK SMILES IDX 11 1 12 2 10 3 8 4 9 5 7 6 13 9 19 10 18 11 14 12 16 13
REMARK SMILES IDX 15 14 17 15 6 16 5 17 4 18 20 19 3 20 21 21 2 22 1 23
REMARK H PARENT 10 7 7 8
ROOT
ATOM      1  C   UNL     1       5.586  -2.195   8.475  1.00  0.00     0.259 C 
ATOM      2  O   UNL     1       6.075  -1.086   8.309  1.00  0.00    -0.269 OA
ATOM      3  N   UNL     1       6.066  -3.256   9.248  1.00  0.00    -0.274 N 
ATOM      4  C   UNL     1       7.004  -3.452  10.229  1.00  0.00     0.321 C 
ATOM      5  O   UNL     1       7.036  -4.559  10.779  1.00  0.00    -0.248 OA
ATOM      6  N   UNL     1       7.862  -2.500  10.639  1.00  0.00    -0.334 N 
ATOM      7  H   UNL     1       5.494  -4.090   9.212  1.00  0.00     0.175 HD
ATOM      8  H   UNL     1       8.430  -2.776  11.427  1.00  0.00     0.165 HD
ENDROOT
BRANCH   1   9
ATOM      9  C   UNL     1       4.316  -2.467   7.775  1.00  0.00     0.040 A 
ATOM     10  C   UNL     1       4.277  -3.231   6.607  1.00  0.00     0.014 A 
ATOM     11  C   UNL     1       3.046  -3.506   6.011  1.00  0.00     0.004 A 
ATOM     12  C   UNL     1       3.142  -1.931   8.314  1.00  0.00     0.014 A 
ATOM     13  C   UNL     1       1.857  -3.016   6.572  1.00  0.00    -0.051 A 
ATOM     14  C   UNL     1       1.914  -2.214   7.718  1.00  0.00     0.004 A 
ATOM     15  C   UNL     1       0.536  -3.391   5.968  1.00  0.00     0.044 C 
ENDBRANCH   1   9
BRANCH   6  16
ATOM     16  C   UNL     1       7.922  -1.131  10.210  1.00  0.00     0.153 C 
BRANCH  16  17
ATOM     17  C   UNL     1       8.662  -0.164  11.091  1.00  0.00    -0.029 A 
ATOM     18  C   UNL     1       8.104   1.036  11.545  1.00  0.00     0.006 A 
ATOM     19  C   UNL     1       9.880  -0.596  11.641  1.00  0.00     0.006 A 
ATOM     20  C   UNL     1       8.745   1.771  12.548  1.00  0.00     0.004 A 
ATOM     21  C   UNL     1      10.513   0.133  12.642  1.00  0.00     0.004 A 
ATOM     22  C   UNL     1       9.946   1.319  13.112  1.00  0.00    -0.051 A 
ATOM     23  C   UNL     1      10.563   2.024  14.283  1.00  0.00     0.044 C 
ENDBRANCH  16  17
ENDBRANCH   6  16
TORSDOF 3
ENDMDL
MODEL 2
REMARK VINA RESULT:    -6.061      3.305      5.586
REMARK INTER + INTRA:          -7.493
REMARK INTER:                  -7.126
REMARK INTRA:                  -0.367
REMARK UNBOUND:                -0.368
REMARK SMILES Cc1ccc(CNC(=O)NC(=O)c2ccc(C)cc2)cc1
REMARK SMILES IDX 11 1 12 2 10 3 8 4 9 5 7 6 13 9 19 10 18 11 14 12 16 13
REMARK SMILES IDX 15 14 17 15 6 16 5 17 4 18 20 19 3 20 21 21 2 22 1 23
REMARK H PARENT 10 7 7 8
ROOT
ATOM      1  C   UNL     1       5.634  -2.725   8.343  1.00  0.00     0.259 C 
ATOM      2  O   UNL     1       5.162  -3.839   8.521  1.00  0.00    -0.269 OA
ATOM      3  N   UNL     1       6.529  -2.014   9.149  1.00  0.00    -0.274 N 
ATOM      4  C   UNL     1       7.366  -2.271  10.204  1.00  0.00     0.321 C 
ATOM      5  O   UNL     1       8.125  -1.367  10.567  1.00  0.00    -0.248 OA
ATOM      6  N   UNL     1       7.423  -3.458  10.838  1.00  0.00    -0.334 N 
ATOM      7  H   UNL     1       6.762  -1.094   8.802  1.00  0.00     0.175 HD
ATOM      8  H   UNL     1       8.150  -3.512  11.536  1.00  0.00     0.165 HD
ENDROOT
BRANCH   1   9
ATOM      9  C   UNL     1       5.221  -2.022   7.113  1.00  0.00     0.040 A 
ATOM     10  C   UNL     1       4.294  -0.978   7.148  1.00  0.00     0.014 A 
ATOM     11  C   UNL     1       3.974  -0.308   5.967  1.00  0.00     0.004 A 
ATOM     12  C   UNL     1       5.780  -2.435   5.900  1.00  0.00     0.014 A 
ATOM     13  C   UNL     1       4.569  -0.682   4.753  1.00  0.00    -0.051 A 
ATOM     14  C   UNL     1       5.462  -1.759   4.724  1.00  0.00     0.004 A 
ATOM     15  C   UNL     1       4.278   0.103   3.507  1.00  0.00     0.044 C 
ENDBRANCH   1   9
BRANCH   6  16
ATOM     16  C   UNL     1       6.709  -4.660  10.511  1.00  0.00     0.153 C 
BRANCH  16  17
ATOM     17  C   UNL     1       7.223  -5.947  11.094  1.00  0.00    -0.029 A 
ATOM     18  C   UNL     1       7.493  -7.081  10.321  1.00  0.00     0.006 A 
ATOM     19  C   UNL     1       7.642  -5.924  12.434  1.00  0.00     0.006 A 
ATOM     20  C   UNL     1       8.191  -8.158  10.877  1.00  0.00     0.004 A 
ATOM     21  C   UNL     1       8.341  -6.994  12.985  1.00  0.00     0.004 A 
ATOM     22  C   UNL     1       8.630  -8.117  12.208  1.00  0.00    -0.051 A 
ATOM     23  C   UNL     1       9.500  -9.202  12.768  1.00  0.00     0.044 C 
ENDBRANCH  16  17
ENDBRANCH   6  16
TORSDOF 3
ENDMDL
MODEL 3
REMARK VINA RESULT:    -5.991      0.533      8.059
REMARK INTER + INTRA:          -7.410
REMARK INTER:                  -6.926
REMARK INTRA:                  -0.484
REMARK UNBOUND:                -0.368
REMARK SMILES Cc1ccc(CNC(=O)NC(=O)c2ccc(C)cc2)cc1
REMARK SMILES IDX 11 1 12 2 10 3 8 4 9 5 7 6 13 9 19 10 18 11 14 12 16 13
REMARK SMILES IDX 15 14 17 15 6 16 5 17 4 18 20 19 3 20 21 21 2 22 1 23
REMARK H PARENT 10 7 7 8
ROOT
ATOM      1  C   UNL     1       7.514  -1.086  10.256  1.00  0.00     0.259 C 
ATOM      2  O   UNL     1       6.950  -0.504   9.340  1.00  0.00    -0.269 OA
ATOM      3  N   UNL     1       7.456  -2.440  10.601  1.00  0.00    -0.274 N 
ATOM      4  C   UNL     1       7.030  -3.613  10.032  1.00  0.00     0.321 C 
ATOM      5  O   UNL     1       7.284  -4.665  10.629  1.00  0.00    -0.248 OA
ATOM      6  N   UNL     1       6.382  -3.677   8.854  1.00  0.00    -0.334 N 
ATOM      7  H   UNL     1       7.997  -2.685  11.419  1.00  0.00     0.175 HD
ATOM      8  H   UNL     1       6.213  -4.619   8.533  1.00  0.00     0.165 HD
ENDROOT
BRANCH   1   9
ATOM      9  C   UNL     1       8.382  -0.266  11.123  1.00  0.00     0.040 A 
ATOM     10  C   UNL     1       7.981   0.993  11.572  1.00  0.00     0.014 A 
ATOM     11  C   UNL     1       8.814   1.709  12.434  1.00  0.00     0.004 A 
ATOM     12  C   UNL     1       9.630  -0.785  11.482  1.00  0.00     0.014 A 
ATOM     13  C   UNL     1      10.045   1.175  12.841  1.00  0.00    -0.051 A 
ATOM     14  C   UNL     1      10.455  -0.070  12.348  1.00  0.00     0.004 A 
ATOM     15  C   UNL     1      10.890   1.918  13.834  1.00  0.00     0.044 C 
ENDBRANCH   1   9
BRANCH   6  16
ATOM     16  C   UNL     1       6.082  -2.595   7.959  1.00  0.00     0.153 C 
BRANCH  16  17
ATOM     17  C   UNL     1       4.718  -2.578   7.329  1.00  0.00    -0.029 A 
ATOM     18  C   UNL     1       4.420  -3.241   6.134  1.00  0.00     0.006 A 
ATOM     19  C   UNL     1       3.663  -2.048   8.091  1.00  0.00     0.006 A 
ATOM     20  C   UNL     1       3.090  -3.390   5.728  1.00  0.00     0.004 A 
ATOM     21  C   UNL     1       2.341  -2.201   7.689  1.00  0.00     0.004 A 
ATOM     22  C   UNL     1       2.041  -2.882   6.508  1.00  0.00    -0.051 A 
ATOM     23  C   UNL     1       0.611  -3.161   6.154  1.00  0.00     0.044 C 
ENDBRANCH  16  17
ENDBRANCH   6  16
TORSDOF 3
ENDMDL
MODEL 4
REMARK VINA RESULT:    -5.971      3.176      7.331
REMARK INTER + INTRA:          -7.386
REMARK INTER:                  -6.904
REMARK INTRA:                  -0.482
REMARK UNBOUND:                -0.368
REMARK SMILES Cc1ccc(CNC(=O)NC(=O)c2ccc(C)cc2)cc1
REMARK SMILES IDX 11 1 12 2 10 3 8 4 9 5 7 6 13 9 19 10 18 11 14 12 16 13
REMARK SMILES IDX 15 14 17 15 6 16 5 17 4 18 20 19 3 20 21 21 2 22 1 23
REMARK H PARENT 10 7 7 8
ROOT
ATOM      1  C   UNL     1       6.785  -4.622  10.115  1.00  0.00     0.259 C 
ATOM      2  O   UNL     1       5.865  -4.826   9.335  1.00  0.00    -0.269 OA
ATOM      3  N   UNL     1       7.421  -3.415  10.421  1.00  0.00    -0.274 N 
ATOM      4  C   UNL     1       7.197  -2.075  10.233  1.00  0.00     0.321 C 
ATOM      5  O   UNL     1       7.961  -1.282  10.794  1.00  0.00    -0.248 OA
ATOM      6  N   UNL     1       6.179  -1.586   9.501  1.00  0.00    -0.334 N 
ATOM      7  H   UNL     1       8.178  -3.499  11.087  1.00  0.00     0.175 HD
ATOM      8  H   UNL     1       6.102  -0.579   9.532  1.00  0.00     0.165 HD
ENDROOT
BRANCH   1   9
ATOM      9  C   UNL     1       7.304  -5.794  10.845  1.00  0.00     0.040 A 
ATOM     10  C   UNL     1       7.542  -7.008  10.197  1.00  0.00     0.014 A 
ATOM     11  C   UNL     1       8.083  -8.073  10.918  1.00  0.00     0.004 A 
ATOM     12  C   UNL     1       7.549  -5.659  12.215  1.00  0.00     0.014 A 
ATOM     13  C   UNL     1       8.380  -7.932  12.282  1.00  0.00    -0.051 A 
ATOM     14  C   UNL     1       8.095  -6.724  12.929  1.00  0.00     0.004 A 
ATOM     15  C   UNL     1       9.041  -9.057  13.022  1.00  0.00     0.044 C 
ENDBRANCH   1   9
BRANCH   6  16
ATOM     16  C   UNL     1       5.129  -2.324   8.859  1.00  0.00     0.153 C 
BRANCH  16  17
ATOM     17  C   UNL     1       4.730  -1.894   7.474  1.00  0.00    -0.029 A 
ATOM     18  C   UNL     1       3.764  -0.912   7.229  1.00  0.00     0.006 A 
ATOM     19  C   UNL     1       5.516  -2.354   6.406  1.00  0.00     0.006 A 
ATOM     20  C   UNL     1       3.612  -0.387   5.941  1.00  0.00     0.004 A 
ATOM     21  C   UNL     1       5.367  -1.828   5.127  1.00  0.00     0.004 A 
ATOM     22  C   UNL     1       4.420  -0.832   4.885  1.00  0.00    -0.051 A 
ATOM     23  C   UNL     1       4.360  -0.175   3.538  1.00  0.00     0.044 C 
ENDBRANCH  16  17
ENDBRANCH   6  16
TORSDOF 3
ENDMDL
MODEL 5
REMARK VINA RESULT:    -5.490      2.983      7.841
REMARK INTER + INTRA:          -6.821
REMARK INTER:                  -6.321
REMARK INTRA:                  -0.500
REMARK UNBOUND:                -0.368
REMARK SMILES Cc1ccc(CNC(=O)NC(=O)c2ccc(C)cc2)cc1
REMARK SMILES IDX 11 1 12 2 10 3 8 4 9 5 7 6 13 9 19 10 18 11 14 12 16 13
REMARK SMILES IDX 15 14 17 15 6 16 5 17 4 18 20 19 3 20 21 21 2 22 1 23
REMARK H PARENT 10 7 7 8
ROOT
ATOM      1  C   UNL     1       6.702  -4.820  10.620  1.00  0.00     0.259 C 
ATOM      2  O   UNL     1       5.546  -5.004  10.263  1.00  0.00    -0.269 OA
ATOM      3  N   UNL     1       7.468  -3.653  10.536  1.00  0.00    -0.274 N 
ATOM      4  C   UNL     1       7.260  -2.319  10.299  1.00  0.00     0.321 C 
ATOM      5  O   UNL     1       8.218  -1.554  10.448  1.00  0.00    -0.248 OA
ATOM      6  N   UNL     1       6.068  -1.803   9.947  1.00  0.00    -0.334 N 
ATOM      7  H   UNL     1       8.414  -3.750  10.880  1.00  0.00     0.175 HD
ATOM      8  H   UNL     1       6.061  -0.794   9.895  1.00  0.00     0.165 HD
ENDROOT
BRANCH   1   9
ATOM      9  C   UNL     1       7.396  -5.971  11.229  1.00  0.00     0.040 A 
ATOM     10  C   UNL     1       7.789  -5.958  12.568  1.00  0.00     0.014 A 
ATOM     11  C   UNL     1       8.396  -7.090  13.114  1.00  0.00     0.004 A 
ATOM     12  C   UNL     1       7.660  -7.081  10.421  1.00  0.00     0.014 A 
ATOM     13  C   UNL     1       8.618  -8.229  12.325  1.00  0.00    -0.051 A 
ATOM     14  C   UNL     1       8.260  -8.212  10.972  1.00  0.00     0.004 A 
ATOM     15  C   UNL     1       9.194  -9.467  12.947  1.00  0.00     0.044 C 
ENDBRANCH   1   9
BRANCH   6  16
ATOM     16  C   UNL     1       4.816  -2.495   9.823  1.00  0.00     0.153 C 
BRANCH  16  17
ATOM     17  C   UNL     1       4.100  -2.394   8.504  1.00  0.00    -0.029 A 
ATOM     18  C   UNL     1       4.609  -2.929   7.316  1.00  0.00     0.006 A 
ATOM     19  C   UNL     1       2.776  -1.927   8.525  1.00  0.00     0.006 A 
ATOM     20  C   UNL     1       3.794  -3.016   6.182  1.00  0.00     0.004 A 
ATOM     21  C   UNL     1       1.965  -2.018   7.398  1.00  0.00     0.004 A 
ATOM     22  C   UNL     1       2.465  -2.574   6.219  1.00  0.00    -0.051 A 
ATOM     23  C   UNL     1       1.545  -2.793   5.055  1.00  0.00     0.044 C 
ENDBRANCH  16  17
ENDBRANCH   6  16
TORSDOF 3
ENDMDL
MODEL 6
REMARK VINA RESULT:    -4.432      6.522      9.675
REMARK INTER + INTRA:          -5.577
REMARK INTER:                  -5.003
REMARK INTRA:                  -0.574
REMARK UNBOUND:                -0.368
REMARK SMILES Cc1ccc(CNC(=O)NC(=O)c2ccc(C)cc2)cc1
REMARK SMILES IDX 11 1 12 2 10 3 8 4 9 5 7 6 13 9 19 10 18 11 14 12 16 13
REMARK SMILES IDX 15 14 17 15 6 16 5 17 4 18 20 19 3 20 21 21 2 22 1 23
REMARK H PARENT 10 7 7 8
ROOT
ATOM      1  C   UNL     1      10.204  -3.673  14.097  1.00  0.00     0.259 C 
ATOM      2  O   UNL     1       9.234  -3.990  13.421  1.00  0.00    -0.269 OA
ATOM      3  N   UNL     1      10.570  -4.127  15.368  1.00  0.00    -0.274 N 
ATOM      4  C   UNL     1      10.233  -5.152  16.214  1.00  0.00     0.321 C 
ATOM      5  O   UNL     1      10.908  -5.294  17.239  1.00  0.00    -0.248 OA
ATOM      6  N   UNL     1       9.233  -6.019  15.971  1.00  0.00    -0.334 N 
ATOM      7  H   UNL     1      11.410  -3.700  15.737  1.00  0.00     0.175 HD
ATOM      8  H   UNL     1       9.169  -6.766  16.648  1.00  0.00     0.165 HD
ENDROOT
BRANCH   1   9
ATOM      9  C   UNL     1      11.126  -2.684  13.506  1.00  0.00     0.040 A 
ATOM     10  C   UNL     1      12.426  -2.523  13.989  1.00  0.00     0.014 A 
ATOM     11  C   UNL     1      13.279  -1.612  13.364  1.00  0.00     0.004 A 
ATOM     12  C   UNL     1      10.658  -1.901  12.446  1.00  0.00     0.014 A 
ATOM     13  C   UNL     1      12.836  -0.859  12.266  1.00  0.00    -0.051 A 
ATOM     14  C   UNL     1      11.515  -0.998  11.821  1.00  0.00     0.004 A 
ATOM     15  C   UNL     1      13.790   0.053  11.553  1.00  0.00     0.044 C 
ENDBRANCH   1   9
BRANCH   6  16
ATOM     16  C   UNL     1       8.403  -6.094  14.802  1.00  0.00     0.153 C 
BRANCH  16  17
ATOM     17  C   UNL     1       8.544  -7.312  13.933  1.00  0.00    -0.029 A 
ATOM     18  C   UNL     1       8.409  -7.277  12.541  1.00  0.00     0.006 A 
ATOM     19  C   UNL     1       9.036  -8.480  14.537  1.00  0.00     0.006 A 
ATOM     20  C   UNL     1       8.786  -8.383  11.772  1.00  0.00     0.004 A 
ATOM     21  C   UNL     1       9.416  -9.578  13.771  1.00  0.00     0.004 A 
ATOM     22  C   UNL     1       9.304  -9.535  12.380  1.00  0.00    -0.051 A 
ATOM     23  C   UNL     1       9.842 -10.667  11.557  1.00  0.00     0.044 C 
ENDBRANCH  16  17
ENDBRANCH   6  16
TORSDOF 3
ENDMDL
MODEL 7
REMARK VINA RESULT:    -4.428      6.297      7.427
REMARK INTER + INTRA:          -5.572
REMARK INTER:                  -4.999
REMARK INTRA:                  -0.574
REMARK UNBOUND:                -0.368
REMARK SMILES Cc1ccc(CNC(=O)NC(=O)c2ccc(C)cc2)cc1
REMARK SMILES IDX 11 1 12 2 10 3 8 4 9 5 7 6 13 9 19 10 18 11 14 12 16 13
REMARK SMILES IDX 15 14 17 15 6 16 5 17 4 18 20 19 3 20 21 21 2 22 1 23
REMARK H PARENT 10 7 7 8
ROOT
ATOM      1  C   UNL     1      10.620  -3.701  13.750  1.00  0.00     0.259 C 
ATOM      2  O   UNL     1      10.198  -3.038  12.813  1.00  0.00    -0.269 OA
ATOM      3  N   UNL     1      11.878  -3.655  14.359  1.00  0.00    -0.274 N 
ATOM      4  C   UNL     1      12.965  -2.819  14.377  1.00  0.00     0.321 C 
ATOM      5  O   UNL     1      13.869  -3.071  15.180  1.00  0.00    -0.248 OA
ATOM      6  N   UNL     1      13.080  -1.731  13.593  1.00  0.00    -0.334 N 
ATOM      7  H   UNL     1      12.003  -4.321  15.109  1.00  0.00     0.175 HD
ATOM      8  H   UNL     1      13.900  -1.174  13.788  1.00  0.00     0.165 HD
ENDROOT
BRANCH   1   9
ATOM      9  C   UNL     1       9.689  -4.686  14.335  1.00  0.00     0.040 A 
ATOM     10  C   UNL     1       9.904  -5.226  15.604  1.00  0.00     0.014 A 
ATOM     11  C   UNL     1       8.968  -6.114  16.136  1.00  0.00     0.004 A 
ATOM     12  C   UNL     1       8.581  -5.072  13.575  1.00  0.00     0.014 A 
ATOM     13  C   UNL     1       7.826  -6.469  15.403  1.00  0.00    -0.051 A 
ATOM     14  C   UNL     1       7.645  -5.954  14.113  1.00  0.00     0.004 A 
ATOM     15  C   UNL     1       6.787  -7.357  16.023  1.00  0.00     0.044 C 
ENDBRANCH   1   9
BRANCH   6  16
ATOM     16  C   UNL     1      12.109  -1.206  12.675  1.00  0.00     0.153 C 
BRANCH  16  17
ATOM     17  C   UNL     1      11.497   0.127  13.006  1.00  0.00    -0.029 A 
ATOM     18  C   UNL     1      10.167   0.449  12.716  1.00  0.00     0.006 A 
ATOM     19  C   UNL     1      12.241   0.991  13.827  1.00  0.00     0.006 A 
ATOM     20  C   UNL     1       9.592   1.603  13.260  1.00  0.00     0.004 A 
ATOM     21  C   UNL     1      11.666   2.135  14.371  1.00  0.00     0.004 A 
ATOM     22  C   UNL     1      10.333   2.445  14.100  1.00  0.00    -0.051 A 
ATOM     23  C   UNL     1       9.684   3.602  14.800  1.00  0.00     0.044 C 
ENDBRANCH  16  17
ENDBRANCH   6  16
TORSDOF 3
ENDMDL
MODEL 8
REMARK VINA RESULT:    -4.309      2.334      3.675
REMARK INTER + INTRA:          -5.433
REMARK INTER:                  -5.079
REMARK INTRA:                  -0.353
REMARK UNBOUND:                -0.368
REMARK SMILES Cc1ccc(CNC(=O)NC(=O)c2ccc(C)cc2)cc1
REMARK SMILES IDX 11 1 12 2 10 3 8 4 9 5 7 6 13 9 19 10 18 11 14 12 16 13
REMARK SMILES IDX 15 14 17 15 6 16 5 17 4 18 20 19 3 20 21 21 2 22 1 23
REMARK H PARENT 10 7 7 8
ROOT
ATOM      1  C   UNL     1       7.138  -1.762   9.786  1.00  0.00     0.259 C 
ATOM      2  O   UNL     1       7.674  -2.682  10.387  1.00  0.00    -0.269 OA
ATOM      3  N   UNL     1       7.296  -0.385   9.973  1.00  0.00    -0.274 N 
ATOM      4  C   UNL     1       8.163   0.457  10.621  1.00  0.00     0.321 C 
ATOM      5  O   UNL     1       8.035   1.671  10.428  1.00  0.00    -0.248 OA
ATOM      6  N   UNL     1       9.156   0.030  11.423  1.00  0.00    -0.334 N 
ATOM      7  H   UNL     1       6.725   0.186   9.364  1.00  0.00     0.175 HD
ATOM      8  H   UNL     1       9.758   0.770  11.754  1.00  0.00     0.165 HD
ENDROOT
BRANCH   1   9
ATOM      9  C   UNL     1       6.198  -2.134   8.711  1.00  0.00     0.040 A 
ATOM     10  C   UNL     1       4.839  -2.321   8.965  1.00  0.00     0.014 A 
ATOM     11  C   UNL     1       3.980  -2.620   7.907  1.00  0.00     0.004 A 
ATOM     12  C   UNL     1       6.710  -2.302   7.421  1.00  0.00     0.014 A 
ATOM     13  C   UNL     1       4.475  -2.740   6.600  1.00  0.00    -0.051 A 
ATOM     14  C   UNL     1       5.848  -2.595   6.366  1.00  0.00     0.004 A 
ATOM     15  C   UNL     1       3.528  -2.978   5.461  1.00  0.00     0.044 C 
ENDBRANCH   1   9
BRANCH   6  16
ATOM     16  C   UNL     1       9.539  -1.327  11.696  1.00  0.00     0.153 C 
BRANCH  16  17
ATOM     17  C   UNL     1      10.917  -1.556  12.251  1.00  0.00    -0.029 A 
ATOM     18  C   UNL     1      12.026  -0.788  11.881  1.00  0.00     0.006 A 
ATOM     19  C   UNL     1      11.035  -2.439  13.337  1.00  0.00     0.006 A 
ATOM     20  C   UNL     1      13.220  -0.889  12.604  1.00  0.00     0.004 A 
ATOM     21  C   UNL     1      12.220  -2.535  14.058  1.00  0.00     0.004 A 
ATOM     22  C   UNL     1      13.321  -1.752  13.704  1.00  0.00    -0.051 A 
ATOM     23  C   UNL     1      14.546  -1.761  14.568  1.00  0.00     0.044 C 
ENDBRANCH  16  17
ENDBRANCH   6  16
TORSDOF 3
ENDMDL
MODEL 9
REMARK VINA RESULT:    -4.259      3.957      4.983
REMARK INTER + INTRA:          -5.375
REMARK INTER:                  -5.021
REMARK INTRA:                  -0.353
REMARK UNBOUND:                -0.368
REMARK SMILES Cc1ccc(CNC(=O)NC(=O)c2ccc(C)cc2)cc1
REMARK SMILES IDX 11 1 12 2 10 3 8 4 9 5 7 6 13 9 19 10 18 11 14 12 16 13
REMARK SMILES IDX 15 14 17 15 6 16 5 17 4 18 20 19 3 20 21 21 2 22 1 23
REMARK H PARENT 10 7 7 8
ROOT
ATOM      1  C   UNL     1       6.541  -3.803   9.899  1.00  0.00     0.259 C 
ATOM      2  O   UNL     1       7.252  -3.215  10.702  1.00  0.00    -0.269 OA
ATOM      3  N   UNL     1       6.371  -5.180   9.724  1.00  0.00    -0.274 N 
ATOM      4  C   UNL     1       6.659  -6.332  10.410  1.00  0.00     0.321 C 
ATOM      5  O   UNL     1       6.208  -7.392   9.965  1.00  0.00    -0.248 OA
ATOM      6  N   UNL     1       7.377  -6.360  11.548  1.00  0.00    -0.334 N 
ATOM      7  H   UNL     1       5.740  -5.430   8.974  1.00  0.00     0.175 HD
ATOM      8  H   UNL     1       7.427  -7.274  11.975  1.00  0.00     0.165 HD
ENDROOT
BRANCH   1   9
ATOM      9  C   UNL     1       5.742  -2.963   8.986  1.00  0.00     0.040 A 
ATOM     10  C   UNL     1       6.232  -2.576   7.737  1.00  0.00     0.014 A 
ATOM     11  C   UNL     1       5.419  -1.826   6.886  1.00  0.00     0.004 A 
ATOM     12  C   UNL     1       4.473  -2.555   9.409  1.00  0.00     0.014 A 
ATOM     13  C   UNL     1       4.125  -1.455   7.281  1.00  0.00    -0.051 A 
ATOM     14  C   UNL     1       3.663  -1.812   8.553  1.00  0.00     0.004 A 
ATOM     15  C   UNL     1       3.233  -0.722   6.322  1.00  0.00     0.044 C 
ENDBRANCH   1   9
BRANCH   6  16
ATOM     16  C   UNL     1       7.900  -5.242  12.282  1.00  0.00     0.153 C 
BRANCH  16  17
ATOM     17  C   UNL     1       8.290  -5.479  13.715  1.00  0.00    -0.029 A 
ATOM     18  C   UNL     1       7.630  -6.390  14.545  1.00  0.00     0.006 A 
ATOM     19  C   UNL     1       9.497  -4.911  14.155  1.00  0.00     0.006 A 
ATOM     20  C   UNL     1       8.185  -6.741  15.781  1.00  0.00     0.004 A 
ATOM     21  C   UNL     1      10.050  -5.265  15.381  1.00  0.00     0.004 A 
ATOM     22  C   UNL     1       9.404  -6.191  16.201  1.00  0.00    -0.051 A 
ATOM     23  C   UNL     1      10.074  -6.668  17.455  1.00  0.00     0.044 C 
ENDBRANCH  16  17
ENDBRANCH   6  16
TORSDOF 3
ENDMDL
