MODEL 1
REMARK VINA RESULT:    -3.963      0.000      0.000
REMARK INTER + INTRA:          -5.469
REMARK INTER:                  -5.238
REMARK INTRA:                  -0.231
REMARK UNBOUND:                -0.231
REMARK SMILES [H]/N=C\C[C@H]1C[C@@H]1O[C@H]1CO[C@H]2C[C@@H](C3CC3)CCN2C1
REMARK SMILES IDX 7 1 6 2 5 3 8 4 9 5 14 6 13 7 18 8 12 9 19 10 20 11 11 12
REMARK SMILES IDX 21 13 10 14 15 15 16 16 17 17 4 18 3 19 2 20 1 21
REMARK H PARENT
ROOT
ATOM      1  C   UNL     1       7.665  -0.520  10.768  1.00  0.00     0.122 C 
ATOM      2  C   UNL     1       9.120  -0.429  11.129  1.00  0.00     0.039 C 
ATOM      3  C   UNL     1       8.283   0.817  11.071  1.00  0.00     0.026 C 
ENDROOT
BRANCH   1   4
ATOM      4  O   UNL     1       7.422  -0.818   9.380  1.00  0.00    -0.371 OA
BRANCH   4   5
ATOM      5  C   UNL     1       7.626  -2.188   8.995  1.00  0.00     0.158 C 
ATOM      6  C   UNL     1       3.250  -2.890   6.245  1.00  0.00    -0.003 C 
ATOM      7  C   UNL     1       3.602  -2.740   7.730  1.00  0.00     0.052 C 
ATOM      8  C   UNL     1       4.231  -2.060   5.405  1.00  0.00     0.019 C 
ATOM      9  C   UNL     1       5.079  -3.055   8.001  1.00  0.00     0.189 C 
ATOM     10  C   UNL     1       5.682  -2.397   5.746  1.00  0.00     0.087 C 
ATOM     11  N   UNL     1       5.941  -2.211   7.174  1.00  0.00    -0.276 NA
ATOM     12  O   UNL     1       5.294  -2.837   9.396  1.00  0.00    -0.360 OA
ATOM     13  C   UNL     1       7.351  -2.446   7.503  1.00  0.00     0.121 C 
ATOM     14  C   UNL     1       6.651  -3.058   9.795  1.00  0.00     0.195 C 
BRANCH   6  15
ATOM     15  C   UNL     1       1.825  -2.469   5.967  1.00  0.00    -0.008 C 
ATOM     16  C   UNL     1       0.924  -3.335   5.119  1.00  0.00     0.004 C 
ATOM     17  C   UNL     1       0.665  -3.205   6.591  1.00  0.00     0.004 C 
ENDBRANCH   6  15
ENDBRANCH   4   5
ENDBRANCH   1   4
BRANCH   3  18
ATOM     18  C   UNL     1       7.953   1.530  12.348  1.00  0.00     0.053 C 
BRANCH  18  19
ATOM     19  C   UNL     1       9.110   1.820  13.268  1.00  0.00     0.074 C 
BRANCH  19  20
ATOM     20  N   UNL     1      10.102   2.607  13.013  1.00  0.00    -0.313 NA
ATOM     21  H   UNL     1      10.282   2.675  12.001  1.00  0.00     0.186 HD
ENDBRANCH  19  20
ENDBRANCH  18  19
ENDBRANCH   3  18
TORSDOF 6
ENDMDL
MODEL 2
REMARK VINA RESULT:    -3.946      2.697      8.551
REMARK INTER + INTRA:          -5.446
REMARK INTER:                  -5.207
REMARK INTRA:                  -0.239
REMARK UNBOUND:                -0.231
REMARK SMILES [H]/N=C\C[C@H]1C[C@@H]1O[C@H]1CO[C@H]2C[C@@H](C3CC3)CCN2C1
REMARK SMILES IDX 7 1 6 2 5 3 8 4 9 5 14 6 13 7 18 8 12 9 19 10 20 11 11 12
REMARK SMILES IDX 21 13 10 14 15 15 16 16 17 17 4 18 3 19 2 20 1 21
REMARK H PARENT
ROOT
ATOM      1  C   UNL     1       6.505  -2.175   9.609  1.00  0.00     0.122 C 
ATOM      2  C   UNL     1       6.029  -3.553   9.972  1.00  0.00     0.039 C 
ATOM      3  C   UNL     1       5.070  -2.397  10.003  1.00  0.00     0.026 C 
ENDROOT
BRANCH   1   4
ATOM      4  O   UNL     1       7.359  -1.569  10.599  1.00  0.00    -0.371 OA
BRANCH   4   5
ATOM      5  C   UNL     1       8.375  -0.692  10.087  1.00  0.00     0.158 C 
ATOM      6  C   UNL     1       9.530   1.831  14.504  1.00  0.00    -0.003 C 
ATOM      7  C   UNL     1       8.353   1.819  13.521  1.00  0.00     0.052 C 
ATOM      8  C   UNL     1      10.161   0.432  14.557  1.00  0.00     0.019 C 
ATOM      9  C   UNL     1       8.760   1.264  12.150  1.00  0.00     0.189 C 
ATOM     10  C   UNL     1      10.511  -0.076  13.158  1.00  0.00     0.087 C 
ATOM     11  N   UNL     1       9.334  -0.075  12.291  1.00  0.00    -0.276 NA
ATOM     12  O   UNL     1       7.580   1.259  11.344  1.00  0.00    -0.360 OA
ATOM     13  C   UNL     1       9.634  -0.641  10.971  1.00  0.00     0.121 C 
ATOM     14  C   UNL     1       7.798   0.727  10.034  1.00  0.00     0.195 C 
BRANCH   6  15
ATOM     15  C   UNL     1       9.097   2.270  15.884  1.00  0.00    -0.008 C 
ATOM     16  C   UNL     1       9.967   3.199  16.697  1.00  0.00     0.004 C 
ATOM     17  C   UNL     1       8.663   3.693  16.142  1.00  0.00     0.004 C 
ENDBRANCH   6  15
ENDBRANCH   4   5
ENDBRANCH   1   4
BRANCH   3  18
ATOM     18  C   UNL     1       3.984  -2.326   8.971  1.00  0.00     0.053 C 
BRANCH  18  19
ATOM     19  C   UNL     1       2.624  -1.908   9.464  1.00  0.00     0.074 C 
BRANCH  19  20
ATOM     20  N   UNL     1       2.138  -2.142  10.638  1.00  0.00    -0.313 NA
ATOM     21  H   UNL     1       1.143  -2.404  10.592  1.00  0.00     0.186 HD
ENDBRANCH  19  20
ENDBRANCH  18  19
ENDBRANCH   3  18
TORSDOF 6
ENDMDL
MODEL 3
REMARK VINA RESULT:    -3.917      5.170      8.366
REMARK INTER + INTRA:          -5.408
REMARK INTER:                  -5.174
REMARK INTRA:                  -0.234
REMARK UNBOUND:                -0.231
REMARK SMILES [H]/N=C\C[C@H]1C[C@@H]1O[C@H]1CO[C@H]2C[C@@H](C3CC3)CCN2C1
REMARK SMILES IDX 7 1 6 2 5 3 8 4 9 5 14 6 13 7 18 8 12 9 19 10 20 11 11 12
REMARK SMILES IDX 21 13 10 14 15 15 16 16 17 17 4 18 3 19 2 20 1 21
REMARK H PARENT
ROOT
ATOM      1  C   UNL     1       6.565  -3.216   9.349  1.00  0.00     0.122 C 
ATOM      2  C   UNL     1       7.292  -1.904   9.254  1.00  0.00     0.039 C 
ATOM      3  C   UNL     1       7.215  -2.806   8.056  1.00  0.00     0.026 C 
ENDROOT
BRANCH   1   4
ATOM      4  O   UNL     1       7.252  -4.213  10.129  1.00  0.00    -0.371 OA
BRANCH   4   5
ATOM      5  C   UNL     1       6.409  -5.131  10.843  1.00  0.00     0.158 C 
ATOM      6  C   UNL     1       9.930  -8.863  11.780  1.00  0.00    -0.003 C 
ATOM      7  C   UNL     1       9.170  -8.354  10.549  1.00  0.00     0.052 C 
ATOM      8  C   UNL     1      10.190  -7.691  12.736  1.00  0.00     0.019 C 
ATOM      9  C   UNL     1       7.907  -7.575  10.940  1.00  0.00     0.189 C 
ATOM     10  C   UNL     1       8.900  -6.937  13.059  1.00  0.00     0.087 C 
ATOM     11  N   UNL     1       8.247  -6.469  11.836  1.00  0.00    -0.276 NA
ATOM     12  O   UNL     1       7.316  -7.117   9.723  1.00  0.00    -0.360 OA
ATOM     13  C   UNL     1       7.053  -5.670  12.133  1.00  0.00     0.121 C 
ATOM     14  C   UNL     1       6.137  -6.334   9.933  1.00  0.00     0.195 C 
BRANCH   6  15
ATOM     15  C   UNL     1      11.231  -9.530  11.392  1.00  0.00    -0.008 C 
ATOM     16  C   UNL     1      11.693 -10.777  12.108  1.00  0.00     0.004 C 
ATOM     17  C   UNL     1      11.236 -10.861  10.681  1.00  0.00     0.004 C 
ENDBRANCH   6  15
ENDBRANCH   4   5
ENDBRANCH   1   4
BRANCH   3  18
ATOM     18  C   UNL     1       6.374  -2.390   6.886  1.00  0.00     0.053 C 
BRANCH  18  19
ATOM     19  C   UNL     1       6.989  -2.576   5.524  1.00  0.00     0.074 C 
BRANCH  19  20
ATOM     20  N   UNL     1       8.252  -2.549   5.253  1.00  0.00    -0.313 NA
ATOM     21  H   UNL     1       8.729  -1.778   5.741  1.00  0.00     0.186 HD
ENDBRANCH  19  20
ENDBRANCH  18  19
ENDBRANCH   3  18
TORSDOF 6
ENDMDL
MODEL 4
REMARK VINA RESULT:    -3.891      3.271      5.509
REMARK INTER + INTRA:          -5.373
REMARK INTER:                  -5.117
REMARK INTRA:                  -0.256
REMARK UNBOUND:                -0.231
REMARK SMILES [H]/N=C\C[C@H]1C[C@@H]1O[C@H]1CO[C@H]2C[C@@H](C3CC3)CCN2C1
REMARK SMILES IDX 7 1 6 2 5 3 8 4 9 5 14 6 13 7 18 8 12 9 19 10 20 11 11 12
REMARK SMILES IDX 21 13 10 14 15 15 16 16 17 17 4 18 3 19 2 20 1 21
REMARK H PARENT
ROOT
ATOM      1  C   UNL     1       7.098  -5.300  10.277  1.00  0.00     0.122 C 
ATOM      2  C   UNL     1       6.989  -5.915  11.643  1.00  0.00     0.039 C 
ATOM      3  C   UNL     1       6.988  -6.792  10.425  1.00  0.00     0.026 C 
ENDROOT
BRANCH   1   4
ATOM      4  O   UNL     1       5.911  -4.604   9.850  1.00  0.00    -0.371 OA
BRANCH   4   5
ATOM      5  C   UNL     1       5.762  -3.266  10.352  1.00  0.00     0.158 C 
ATOM      6  C   UNL     1       3.899  -1.012   6.033  1.00  0.00    -0.003 C 
ATOM      7  C   UNL     1       5.258  -1.558   6.488  1.00  0.00     0.052 C 
ATOM      8  C   UNL     1       2.778  -1.837   6.680  1.00  0.00     0.019 C 
ATOM      9  C   UNL     1       5.352  -1.651   8.017  1.00  0.00     0.189 C 
ATOM     10  C   UNL     1       2.949  -1.919   8.197  1.00  0.00     0.087 C 
ATOM     11  N   UNL     1       4.259  -2.467   8.547  1.00  0.00    -0.276 NA
ATOM     12  O   UNL     1       6.632  -2.211   8.315  1.00  0.00    -0.360 OA
ATOM     13  C   UNL     1       4.405  -2.633   9.998  1.00  0.00     0.121 C 
ATOM     14  C   UNL     1       6.851  -2.395   9.717  1.00  0.00     0.195 C 
BRANCH   6  15
ATOM     15  C   UNL     1       3.770  -1.029   4.527  1.00  0.00    -0.008 C 
ATOM     16  C   UNL     1       3.414   0.232   3.776  1.00  0.00     0.004 C 
ATOM     17  C   UNL     1       4.795  -0.344   3.655  1.00  0.00     0.004 C 
ENDBRANCH   6  15
ENDBRANCH   4   5
ENDBRANCH   1   4
BRANCH   3  18
ATOM     18  C   UNL     1       8.175  -7.668  10.158  1.00  0.00     0.053 C 
BRANCH  18  19
ATOM     19  C   UNL     1       8.719  -8.431  11.338  1.00  0.00     0.074 C 
BRANCH  19  20
ATOM     20  N   UNL     1       8.208  -9.502  11.848  1.00  0.00    -0.313 NA
ATOM     21  H   UNL     1       8.937 -10.159  12.159  1.00  0.00     0.186 HD
ENDBRANCH  19  20
ENDBRANCH  18  19
ENDBRANCH   3  18
TORSDOF 6
ENDMDL
MODEL 5
REMARK VINA RESULT:    -3.648      4.089      7.047
REMARK INTER + INTRA:          -5.052
REMARK INTER:                  -4.619
REMARK INTRA:                  -0.434
REMARK UNBOUND:                -0.231
REMARK SMILES [H]/N=C\C[C@H]1C[C@@H]1O[C@H]1CO[C@H]2C[C@@H](C3CC3)CCN2C1
REMARK SMILES IDX 7 1 6 2 5 3 8 4 9 5 14 6 13 7 18 8 12 9 19 10 20 11 11 12
REMARK SMILES IDX 21 13 10 14 15 15 16 16 17 17 4 18 3 19 2 20 1 21
REMARK H PARENT
ROOT
ATOM      1  C   UNL     1      11.689  -1.536  15.885  1.00  0.00     0.122 C 
ATOM      2  C   UNL     1      11.134  -1.967  17.213  1.00  0.00     0.039 C 
ATOM      3  C   UNL     1      10.966  -2.849  16.009  1.00  0.00     0.026 C 
ENDROOT
BRANCH   1   4
ATOM      4  O   UNL     1      10.962  -0.456  15.267  1.00  0.00    -0.371 OA
BRANCH   4   5
ATOM      5  C   UNL     1      11.643   0.215  14.194  1.00  0.00     0.158 C 
ATOM      6  C   UNL     1       8.117  -0.554  10.428  1.00  0.00    -0.003 C 
ATOM      7  C   UNL     1       9.129  -1.427  11.181  1.00  0.00     0.052 C 
ATOM      8  C   UNL     1       7.604   0.549  11.364  1.00  0.00     0.019 C 
ATOM      9  C   UNL     1      10.240  -0.586  11.824  1.00  0.00     0.189 C 
ATOM     10  C   UNL     1       8.758   1.325  11.998  1.00  0.00     0.087 C 
ATOM     11  N   UNL     1       9.665   0.426  12.711  1.00  0.00    -0.276 NA
ATOM     12  O   UNL     1      11.086  -1.498  12.528  1.00  0.00    -0.360 OA
ATOM     13  C   UNL     1      10.730   1.165  13.398  1.00  0.00     0.121 C 
ATOM     14  C   UNL     1      12.158  -0.848  13.218  1.00  0.00     0.195 C 
BRANCH   6  15
ATOM     15  C   UNL     1       6.965  -1.375   9.893  1.00  0.00    -0.008 C 
ATOM     16  C   UNL     1       7.112  -2.147   8.604  1.00  0.00     0.004 C 
ATOM     17  C   UNL     1       7.018  -2.883   9.909  1.00  0.00     0.004 C 
ENDBRANCH   6  15
ENDBRANCH   4   5
ENDBRANCH   1   4
BRANCH   3  18
ATOM     18  C   UNL     1      11.728  -4.140  15.942  1.00  0.00     0.053 C 
BRANCH  18  19
ATOM     19  C   UNL     1      11.767  -4.821  14.599  1.00  0.00     0.074 C 
BRANCH  19  20
ATOM     20  N   UNL     1      11.558  -4.256  13.457  1.00  0.00    -0.313 NA
ATOM     21  H   UNL     1      10.771  -3.593  13.499  1.00  0.00     0.186 HD
ENDBRANCH  19  20
ENDBRANCH  18  19
ENDBRANCH   3  18
TORSDOF 6
ENDMDL
MODEL 6
REMARK VINA RESULT:    -3.634      5.723      8.625
REMARK INTER + INTRA:          -5.034
REMARK INTER:                  -4.939
REMARK INTRA:                  -0.095
REMARK UNBOUND:                -0.231
REMARK SMILES [H]/N=C\C[C@H]1C[C@@H]1O[C@H]1CO[C@H]2C[C@@H](C3CC3)CCN2C1
REMARK SMILES IDX 7 1 6 2 5 3 8 4 9 5 14 6 13 7 18 8 12 9 19 10 20 11 11 12
REMARK SMILES IDX 21 13 10 14 15 15 16 16 17 17 4 18 3 19 2 20 1 21
REMARK H PARENT
ROOT
ATOM      1  C   UNL     1      12.301   3.333  15.966  1.00  0.00     0.122 C 
ATOM      2  C   UNL     1      12.958   4.651  16.269  1.00  0.00     0.039 C 
ATOM      3  C   UNL     1      12.426   4.379  14.891  1.00  0.00     0.026 C 
ENDROOT
BRANCH   1   4
ATOM      4  O   UNL     1      13.216   2.224  15.896  1.00  0.00    -0.371 OA
BRANCH   4   5
ATOM      5  C   UNL     1      12.706   0.969  16.376  1.00  0.00     0.158 C 
ATOM      6  C   UNL     1      10.084  -0.494  12.111  1.00  0.00    -0.003 C 
ATOM      7  C   UNL     1       9.898   0.563  13.206  1.00  0.00     0.052 C 
ATOM      8  C   UNL     1      11.584  -0.709  11.864  1.00  0.00     0.019 C 
ATOM      9  C   UNL     1      10.697   0.220  14.471  1.00  0.00     0.189 C 
ATOM     10  C   UNL     1      12.326  -1.013  13.165  1.00  0.00     0.087 C 
ATOM     11  N   UNL     1      12.113   0.049  14.149  1.00  0.00    -0.276 NA
ATOM     12  O   UNL     1      10.481   1.290  15.393  1.00  0.00    -0.360 OA
ATOM     13  C   UNL     1      12.889  -0.184  15.372  1.00  0.00     0.121 C 
ATOM     14  C   UNL     1      11.202   1.128  16.618  1.00  0.00     0.195 C 
BRANCH   6  15
ATOM     15  C   UNL     1       9.388  -0.094  10.830  1.00  0.00    -0.008 C 
ATOM     16  C   UNL     1       8.154  -0.834  10.368  1.00  0.00     0.004 C 
ATOM     17  C   UNL     1       8.037   0.579  10.861  1.00  0.00     0.004 C 
ENDBRANCH   6  15
ENDBRANCH   4   5
ENDBRANCH   1   4
BRANCH   3  18
ATOM     18  C   UNL     1      11.215   5.126  14.419  1.00  0.00     0.053 C 
BRANCH  18  19
ATOM     19  C   UNL     1      11.416   6.047  13.244  1.00  0.00     0.074 C 
BRANCH  19  20
ATOM     20  N   UNL     1      10.966   7.253  13.141  1.00  0.00    -0.313 NA
ATOM     21  H   UNL     1      10.254   7.331  12.401  1.00  0.00     0.186 HD
ENDBRANCH  19  20
ENDBRANCH  18  19
ENDBRANCH   3  18
TORSDOF 6
ENDMDL
MODEL 7
REMARK VINA RESULT:    -3.618      5.691      7.148
REMARK INTER + INTRA:          -5.013
REMARK INTER:                  -4.633
REMARK INTRA:                  -0.380
REMARK UNBOUND:                -0.231
REMARK SMILES [H]/N=C\C[C@H]1C[C@@H]1O[C@H]1CO[C@H]2C[C@@H](C3CC3)CCN2C1
REMARK SMILES IDX 7 1 6 2 5 3 8 4 9 5 14 6 13 7 18 8 12 9 19 10 20 11 11 12
REMARK SMILES IDX 21 13 10 14 15 15 16 16 17 17 4 18 3 19 2 20 1 21
REMARK H PARENT
ROOT
ATOM      1  C   UNL     1      11.687  -6.377  14.905  1.00  0.00     0.122 C 
ATOM      2  C   UNL     1      13.152  -6.184  14.631  1.00  0.00     0.039 C 
ATOM      3  C   UNL     1      12.207  -5.023  14.506  1.00  0.00     0.026 C 
ENDROOT
BRANCH   1   4
ATOM      4  O   UNL     1      10.994  -7.127  13.889  1.00  0.00    -0.371 OA
BRANCH   4   5
ATOM      5  C   UNL     1       9.720  -7.665  14.278  1.00  0.00     0.158 C 
ATOM      6  C   UNL     1       6.764  -5.391  10.631  1.00  0.00    -0.003 C 
ATOM      7  C   UNL     1       7.505  -4.926  11.891  1.00  0.00     0.052 C 
ATOM      8  C   UNL     1       7.537  -6.549   9.986  1.00  0.00     0.019 C 
ATOM      9  C   UNL     1       7.795  -6.094  12.845  1.00  0.00     0.189 C 
ATOM     10  C   UNL     1       7.823  -7.661  10.995  1.00  0.00     0.087 C 
ATOM     11  N   UNL     1       8.547  -7.142  12.155  1.00  0.00    -0.276 NA
ATOM     12  O   UNL     1       8.522  -5.549  13.948  1.00  0.00    -0.360 OA
ATOM     13  C   UNL     1       8.906  -8.212  13.092  1.00  0.00     0.121 C 
ATOM     14  C   UNL     1       8.899  -6.537  14.912  1.00  0.00     0.195 C 
BRANCH   6  15
ATOM     15  C   UNL     1       6.583  -4.259   9.646  1.00  0.00    -0.008 C 
ATOM     16  C   UNL     1       5.497  -3.230   9.855  1.00  0.00     0.004 C 
ATOM     17  C   UNL     1       6.937  -2.841  10.022  1.00  0.00     0.004 C 
ENDBRANCH   6  15
ENDBRANCH   4   5
ENDBRANCH   1   4
BRANCH   3  18
ATOM     18  C   UNL     1      12.281  -3.915  15.513  1.00  0.00     0.053 C 
BRANCH  18  19
ATOM     19  C   UNL     1      11.080  -3.008  15.595  1.00  0.00     0.074 C 
BRANCH  19  20
ATOM     20  N   UNL     1       9.895  -3.280  15.160  1.00  0.00    -0.313 NA
ATOM     21  H   UNL     1       9.244  -3.479  15.933  1.00  0.00     0.186 HD
ENDBRANCH  19  20
ENDBRANCH  18  19
ENDBRANCH   3  18
TORSDOF 6
ENDMDL
MODEL 8
REMARK VINA RESULT:    -3.514      7.020      8.534
REMARK INTER + INTRA:          -4.876
REMARK INTER:                  -4.173
REMARK INTRA:                  -0.702
REMARK UNBOUND:                -0.231
REMARK SMILES [H]/N=C\C[C@H]1C[C@@H]1O[C@H]1CO[C@H]2C[C@@H](C3CC3)CCN2C1
REMARK SMILES IDX 7 1 6 2 5 3 8 4 9 5 14 6 13 7 18 8 12 9 19 10 20 11 11 12
REMARK SMILES IDX 21 13 10 14 15 15 16 16 17 17 4 18 3 19 2 20 1 21
REMARK H PARENT
ROOT
ATOM      1  C   UNL     1      12.019  -6.624  15.788  1.00  0.00     0.122 C 
ATOM      2  C   UNL     1      13.419  -6.079  15.789  1.00  0.00     0.039 C 
ATOM      3  C   UNL     1      12.374  -5.457  14.908  1.00  0.00     0.026 C 
ENDROOT
BRANCH   1   4
ATOM      4  O   UNL     1      11.887  -7.903  15.140  1.00  0.00    -0.371 OA
BRANCH   4   5
ATOM      5  C   UNL     1      10.725  -8.666  15.505  1.00  0.00     0.158 C 
ATOM      6  C   UNL     1       7.702  -7.484  11.421  1.00  0.00    -0.003 C 
ATOM      7  C   UNL     1       8.210  -6.741  12.663  1.00  0.00     0.052 C 
ATOM      8  C   UNL     1       8.758  -8.505  10.973  1.00  0.00     0.019 C 
ATOM      9  C   UNL     1       8.651  -7.712  13.767  1.00  0.00     0.189 C 
ATOM     10  C   UNL     1       9.178  -9.417  12.125  1.00  0.00     0.087 C 
ATOM     11  N   UNL     1       9.667  -8.634  13.260  1.00  0.00    -0.276 NA
ATOM     12  O   UNL     1       9.143  -6.910  14.843  1.00  0.00    -0.360 OA
ATOM     13  C   UNL     1      10.156  -9.497  14.341  1.00  0.00     0.121 C 
ATOM     14  C   UNL     1       9.631  -7.686  15.942  1.00  0.00     0.195 C 
BRANCH   6  15
ATOM     15  C   UNL     1       7.377  -6.528  10.297  1.00  0.00    -0.008 C 
ATOM     16  C   UNL     1       5.941  -6.270   9.904  1.00  0.00     0.004 C 
ATOM     17  C   UNL     1       6.737  -5.190  10.579  1.00  0.00     0.004 C 
ENDBRANCH   6  15
ENDBRANCH   4   5
ENDBRANCH   1   4
BRANCH   3  18
ATOM     18  C   UNL     1      11.871  -4.082  15.236  1.00  0.00     0.053 C 
BRANCH  18  19
ATOM     19  C   UNL     1      10.595  -3.660  14.557  1.00  0.00     0.074 C 
BRANCH  19  20
ATOM     20  N   UNL     1       9.408  -4.076  14.849  1.00  0.00    -0.313 NA
ATOM     21  H   UNL     1       8.692  -3.622  14.265  1.00  0.00     0.186 HD
ENDBRANCH  19  20
ENDBRANCH  18  19
ENDBRANCH   3  18
TORSDOF 6
ENDMDL
MODEL 9
REMARK VINA RESULT:    -3.402      6.926     10.170
REMARK INTER + INTRA:          -4.727
REMARK INTER:                  -4.484
REMARK INTRA:                  -0.243
REMARK UNBOUND:                -0.231
REMARK SMILES [H]/N=C\C[C@H]1C[C@@H]1O[C@H]1CO[C@H]2C[C@@H](C3CC3)CCN2C1
REMARK SMILES IDX 7 1 6 2 5 3 8 4 9 5 14 6 13 7 18 8 12 9 19 10 20 11 11 12
REMARK SMILES IDX 21 13 10 14 15 15 16 16 17 17 4 18 3 19 2 20 1 21
REMARK H PARENT
ROOT
ATOM      1  C   UNL     1       9.345  -5.252  14.205  1.00  0.00     0.122 C 
ATOM      2  C   UNL     1       7.970  -5.594  14.708  1.00  0.00     0.039 C 
ATOM      3  C   UNL     1       8.359  -5.936  13.298  1.00  0.00     0.026 C 
ENDROOT
BRANCH   1   4
ATOM      4  O   UNL     1       9.556  -3.845  13.985  1.00  0.00    -0.371 OA
BRANCH   4   5
ATOM      5  C   UNL     1      10.913  -3.393  14.119  1.00  0.00     0.158 C 
ATOM      6  C   UNL     1       9.982   1.237  16.333  1.00  0.00    -0.003 C 
ATOM      7  C   UNL     1       9.803   0.632  14.935  1.00  0.00     0.052 C 
ATOM      8  C   UNL     1       9.791   0.139  17.389  1.00  0.00     0.019 C 
ATOM      9  C   UNL     1      10.696  -0.598  14.728  1.00  0.00     0.189 C 
ATOM     10  C   UNL     1      10.683  -1.069  17.106  1.00  0.00     0.087 C 
ATOM     11  N   UNL     1      10.438  -1.598  15.764  1.00  0.00    -0.276 NA
ATOM     12  O   UNL     1      10.409  -1.096  13.419  1.00  0.00    -0.360 OA
ATOM     13  C   UNL     1      11.223  -2.810  15.509  1.00  0.00     0.121 C 
ATOM     14  C   UNL     1      11.148  -2.278  13.095  1.00  0.00     0.195 C 
BRANCH   6  15
ATOM     15  C   UNL     1       9.018   2.377  16.572  1.00  0.00    -0.008 C 
ATOM     16  C   UNL     1       9.535   3.763  16.878  1.00  0.00     0.004 C 
ATOM     17  C   UNL     1       8.869   3.489  15.561  1.00  0.00     0.004 C 
ENDBRANCH   6  15
ENDBRANCH   4   5
ENDBRANCH   1   4
BRANCH   3  18
ATOM     18  C   UNL     1       8.548  -7.376  12.925  1.00  0.00     0.053 C 
BRANCH  18  19
ATOM     19  C   UNL     1       8.322  -7.724  11.477  1.00  0.00     0.074 C 
BRANCH  19  20
ATOM     20  N   UNL     1       9.225  -7.751  10.555  1.00  0.00    -0.313 NA
ATOM     21  H   UNL     1      10.147  -7.467  10.917  1.00  0.00     0.186 HD
ENDBRANCH  19  20
ENDBRANCH  18  19
ENDBRANCH   3  18
TORSDOF 6
ENDMDL
