MODEL 1
REMARK VINA RESULT:    -4.285      0.000      0.000
REMARK INTER + INTRA:          -5.859
REMARK INTER:                  -5.663
REMARK INTRA:                  -0.195
REMARK UNBOUND:                -0.195
REMARK SMILES [H]/N=C\C[C@H]1C[C@@H]1O[C@H]1CO[C@H]2C[C@@H](C3CC3)CCN2C1
REMARK SMILES IDX 7 1 6 2 5 3 8 4 9 5 14 6 13 7 18 8 12 9 19 10 20 11 11 12
REMARK SMILES IDX 21 13 10 14 15 15 16 16 17 17 4 18 3 19 2 20 1 21
REMARK H PARENT
ROOT
ATOM      1  C   UNL     1      -4.510   9.292  -6.398  1.00  0.00     0.122 C 
ATOM      2  C   UNL     1      -5.890   8.698  -6.416  1.00  0.00     0.039 C 
ATOM      3  C   UNL     1      -4.762   7.993  -7.113  1.00  0.00     0.026 C 
ENDROOT
BRANCH   1   4
ATOM      4  O   UNL     1      -4.364  10.465  -7.221  1.00  0.00    -0.371 OA
BRANCH   4   5
ATOM      5  C   UNL     1      -3.447  11.456  -6.731  1.00  0.00     0.158 C 
ATOM      6  C   UNL     1      -2.888  14.237 -11.108  1.00  0.00    -0.003 C 
ATOM      7  C   UNL     1      -2.429  12.859 -10.616  1.00  0.00     0.052 C 
ATOM      8  C   UNL     1      -4.250  14.571 -10.484  1.00  0.00     0.019 C 
ATOM      9  C   UNL     1      -2.456  12.762  -9.085  1.00  0.00     0.189 C 
ATOM     10  C   UNL     1      -4.219  14.422  -8.963  1.00  0.00     0.087 C 
ATOM     11  N   UNL     1      -3.791  13.078  -8.577  1.00  0.00    -0.276 NA
ATOM     12  O   UNL     1      -2.057  11.431  -8.752  1.00  0.00    -0.360 OA
ATOM     13  C   UNL     1      -3.840  12.892  -7.123  1.00  0.00     0.121 C 
ATOM     14  C   UNL     1      -2.071  11.177  -7.344  1.00  0.00     0.195 C 
BRANCH   6  15
ATOM     15  C   UNL     1      -2.968  14.289 -12.617  1.00  0.00    -0.008 C 
ATOM     16  C   UNL     1      -2.621  15.560 -13.357  1.00  0.00     0.004 C 
ATOM     17  C   UNL     1      -1.715  14.367 -13.456  1.00  0.00     0.004 C 
ENDBRANCH   6  15
ENDBRANCH   4   5
ENDBRANCH   1   4
BRANCH   3  18
ATOM     18  C   UNL     1      -4.248   6.705  -6.545  1.00  0.00     0.053 C 
BRANCH  18  19
ATOM     19  C   UNL     1      -3.923   5.620  -7.539  1.00  0.00     0.074 C 
BRANCH  19  20
ATOM     20  N   UNL     1      -4.488   5.452  -8.688  1.00  0.00    -0.313 NA
ATOM     21  H   UNL     1      -5.459   5.125  -8.589  1.00  0.00     0.186 HD
ENDBRANCH  19  20
ENDBRANCH  18  19
ENDBRANCH   3  18
TORSDOF 6
ENDMDL
MODEL 2
REMARK VINA RESULT:    -4.245      5.248      8.454
REMARK INTER + INTRA:          -5.805
REMARK INTER:                  -5.586
REMARK INTRA:                  -0.219
REMARK UNBOUND:                -0.195
REMARK SMILES [H]/N=C\C[C@H]1C[C@@H]1O[C@H]1CO[C@H]2C[C@@H](C3CC3)CCN2C1
REMARK SMILES IDX 7 1 6 2 5 3 8 4 9 5 14 6 13 7 18 8 12 9 19 10 20 11 11 12
REMARK SMILES IDX 21 13 10 14 15 15 16 16 17 17 4 18 3 19 2 20 1 21
REMARK H PARENT
ROOT
ATOM      1  C   UNL     1      -7.728   9.432  -5.599  1.00  0.00     0.122 C 
ATOM      2  C   UNL     1      -8.662   9.786  -6.722  1.00  0.00     0.039 C 
ATOM      3  C   UNL     1      -9.193   9.105  -5.493  1.00  0.00     0.026 C 
ENDROOT
BRANCH   1   4
ATOM      4  O   UNL     1      -6.843   8.335  -5.897  1.00  0.00    -0.371 OA
BRANCH   4   5
ATOM      5  C   UNL     1      -5.765   8.635  -6.798  1.00  0.00     0.158 C 
ATOM      6  C   UNL     1      -1.942   6.096  -4.319  1.00  0.00    -0.003 C 
ATOM      7  C   UNL     1      -2.748   7.378  -4.074  1.00  0.00     0.052 C 
ATOM      8  C   UNL     1      -2.827   5.070  -5.040  1.00  0.00     0.019 C 
ATOM      9  C   UNL     1      -3.390   7.903  -5.365  1.00  0.00     0.189 C 
ATOM     10  C   UNL     1      -3.462   5.665  -6.297  1.00  0.00     0.087 C 
ATOM     11  N   UNL     1      -4.227   6.870  -5.976  1.00  0.00    -0.276 NA
ATOM     12  O   UNL     1      -4.145   9.061  -5.005  1.00  0.00    -0.360 OA
ATOM     13  C   UNL     1      -4.914   7.405  -7.157  1.00  0.00     0.121 C 
ATOM     14  C   UNL     1      -4.838   9.645  -6.112  1.00  0.00     0.195 C 
BRANCH   6  15
ATOM     15  C   UNL     1      -1.408   5.521  -3.027  1.00  0.00    -0.008 C 
ATOM     16  C   UNL     1       0.029   5.063  -2.931  1.00  0.00     0.004 C 
ATOM     17  C   UNL     1      -0.415   6.291  -2.189  1.00  0.00     0.004 C 
ENDBRANCH   6  15
ENDBRANCH   4   5
ENDBRANCH   1   4
BRANCH   3  18
ATOM     18  C   UNL     1     -10.073   9.878  -4.557  1.00  0.00     0.053 C 
BRANCH  18  19
ATOM     19  C   UNL     1     -11.245  10.591  -5.180  1.00  0.00     0.074 C 
BRANCH  19  20
ATOM     20  N   UNL     1     -12.393  10.066  -5.452  1.00  0.00    -0.313 NA
ATOM     21  H   UNL     1     -12.671   9.372  -4.744  1.00  0.00     0.186 HD
ENDBRANCH  19  20
ENDBRANCH  18  19
ENDBRANCH   3  18
TORSDOF 6
ENDMDL
MODEL 3
REMARK VINA RESULT:    -4.238      2.698      8.610
REMARK INTER + INTRA:          -5.795
REMARK INTER:                  -5.541
REMARK INTRA:                  -0.255
REMARK UNBOUND:                -0.195
REMARK SMILES [H]/N=C\C[C@H]1C[C@@H]1O[C@H]1CO[C@H]2C[C@@H](C3CC3)CCN2C1
REMARK SMILES IDX 7 1 6 2 5 3 8 4 9 5 14 6 13 7 18 8 12 9 19 10 20 11 11 12
REMARK SMILES IDX 21 13 10 14 15 15 16 16 17 17 4 18 3 19 2 20 1 21
REMARK H PARENT
ROOT
ATOM      1  C   UNL     1      -3.531  10.979  -7.551  1.00  0.00     0.122 C 
ATOM      2  C   UNL     1      -3.648  12.470  -7.407  1.00  0.00     0.039 C 
ATOM      3  C   UNL     1      -2.434  11.873  -8.061  1.00  0.00     0.026 C 
ENDROOT
BRANCH   1   4
ATOM      4  O   UNL     1      -3.276  10.288  -6.314  1.00  0.00    -0.371 OA
BRANCH   4   5
ATOM      5  C   UNL     1      -4.418  10.101  -5.462  1.00  0.00     0.158 C 
ATOM      6  C   UNL     1      -3.649   5.098  -4.205  1.00  0.00    -0.003 C 
ATOM      7  C   UNL     1      -4.093   5.859  -5.460  1.00  0.00     0.052 C 
ATOM      8  C   UNL     1      -2.660   5.962  -3.410  1.00  0.00     0.019 C 
ATOM      9  C   UNL     1      -4.619   7.260  -5.120  1.00  0.00     0.189 C 
ATOM     10  C   UNL     1      -3.231   7.353  -3.135  1.00  0.00     0.087 C 
ATOM     11  N   UNL     1      -3.611   8.019  -4.380  1.00  0.00    -0.276 NA
ATOM     12  O   UNL     1      -4.955   7.883  -6.362  1.00  0.00    -0.360 OA
ATOM     13  C   UNL     1      -4.079   9.389  -4.140  1.00  0.00     0.121 C 
ATOM     14  C   UNL     1      -5.430   9.224  -6.206  1.00  0.00     0.195 C 
BRANCH   6  15
ATOM     15  C   UNL     1      -3.027   3.765  -4.555  1.00  0.00    -0.008 C 
ATOM     16  C   UNL     1      -3.424   2.516  -3.806  1.00  0.00     0.004 C 
ATOM     17  C   UNL     1      -3.836   2.689  -5.239  1.00  0.00     0.004 C 
ENDBRANCH   6  15
ENDBRANCH   4   5
ENDBRANCH   1   4
BRANCH   3  18
ATOM     18  C   UNL     1      -2.237  12.062  -9.536  1.00  0.00     0.053 C 
BRANCH  18  19
ATOM     19  C   UNL     1      -2.236  13.485 -10.031  1.00  0.00     0.074 C 
BRANCH  19  20
ATOM     20  N   UNL     1      -1.349  14.382  -9.756  1.00  0.00    -0.313 NA
ATOM     21  H   UNL     1      -1.744  15.332  -9.798  1.00  0.00     0.186 HD
ENDBRANCH  19  20
ENDBRANCH  18  19
ENDBRANCH   3  18
TORSDOF 6
ENDMDL
MODEL 4
REMARK VINA RESULT:    -4.150      5.547      8.419
REMARK INTER + INTRA:          -5.680
REMARK INTER:                  -5.512
REMARK INTRA:                  -0.168
REMARK UNBOUND:                -0.195
REMARK SMILES [H]/N=C\C[C@H]1C[C@@H]1O[C@H]1CO[C@H]2C[C@@H](C3CC3)CCN2C1
REMARK SMILES IDX 7 1 6 2 5 3 8 4 9 5 14 6 13 7 18 8 12 9 19 10 20 11 11 12
REMARK SMILES IDX 21 13 10 14 15 15 16 16 17 17 4 18 3 19 2 20 1 21
REMARK H PARENT
ROOT
ATOM      1  C   UNL     1      -5.502   9.005  -5.837  1.00  0.00     0.122 C 
ATOM      2  C   UNL     1      -4.283   9.884  -5.864  1.00  0.00     0.039 C 
ATOM      3  C   UNL     1      -4.729   9.262  -4.572  1.00  0.00     0.026 C 
ENDROOT
BRANCH   1   4
ATOM      4  O   UNL     1      -6.743   9.719  -5.990  1.00  0.00    -0.371 OA
BRANCH   4   5
ATOM      5  C   UNL     1      -7.832   8.958  -6.538  1.00  0.00     0.158 C 
ATOM      6  C   UNL     1     -11.776  11.981  -4.954  1.00  0.00    -0.003 C 
ATOM      7  C   UNL     1     -10.792  11.016  -4.280  1.00  0.00     0.052 C 
ATOM      8  C   UNL     1     -11.086  12.657  -6.146  1.00  0.00     0.019 C 
ATOM      9  C   UNL     1     -10.178  10.034  -5.287  1.00  0.00     0.189 C 
ATOM     10  C   UNL     1     -10.467  11.628  -7.091  1.00  0.00     0.087 C 
ATOM     11  N   UNL     1      -9.529  10.761  -6.378  1.00  0.00    -0.276 NA
ATOM     12  O   UNL     1      -9.253   9.225  -4.556  1.00  0.00    -0.360 OA
ATOM     13  C   UNL     1      -8.861   9.823  -7.287  1.00  0.00     0.121 C 
ATOM     14  C   UNL     1      -8.567   8.277  -5.379  1.00  0.00     0.195 C 
BRANCH   6  15
ATOM     15  C   UNL     1     -12.291  13.017  -3.980  1.00  0.00    -0.008 C 
ATOM     16  C   UNL     1     -13.675  13.599  -4.146  1.00  0.00     0.004 C 
ATOM     17  C   UNL     1     -13.384  12.678  -2.996  1.00  0.00     0.004 C 
ENDBRANCH   6  15
ENDBRANCH   4   5
ENDBRANCH   1   4
BRANCH   3  18
ATOM     18  C   UNL     1      -3.895   8.176  -3.962  1.00  0.00     0.053 C 
BRANCH  18  19
ATOM     19  C   UNL     1      -3.231   8.503  -2.650  1.00  0.00     0.074 C 
BRANCH  19  20
ATOM     20  N   UNL     1      -3.535   9.488  -1.872  1.00  0.00    -0.313 NA
ATOM     21  H   UNL     1      -3.857  10.308  -2.406  1.00  0.00     0.186 HD
ENDBRANCH  19  20
ENDBRANCH  18  19
ENDBRANCH   3  18
TORSDOF 6
ENDMDL
MODEL 5
REMARK VINA RESULT:    -3.937      3.117      7.640
REMARK INTER + INTRA:          -5.398
REMARK INTER:                  -5.150
REMARK INTRA:                  -0.248
REMARK UNBOUND:                -0.195
REMARK SMILES [H]/N=C\C[C@H]1C[C@@H]1O[C@H]1CO[C@H]2C[C@@H](C3CC3)CCN2C1
REMARK SMILES IDX 7 1 6 2 5 3 8 4 9 5 14 6 13 7 18 8 12 9 19 10 20 11 11 12
REMARK SMILES IDX 21 13 10 14 15 15 16 16 17 17 4 18 3 19 2 20 1 21
REMARK H PARENT
ROOT
ATOM      1  C   UNL     1      -5.487  15.475 -11.841  1.00  0.00     0.122 C 
ATOM      2  C   UNL     1      -5.127  14.723 -13.091  1.00  0.00     0.039 C 
ATOM      3  C   UNL     1      -6.550  15.141 -12.851  1.00  0.00     0.026 C 
ENDROOT
BRANCH   1   4
ATOM      4  O   UNL     1      -5.460  14.673 -10.645  1.00  0.00    -0.371 OA
BRANCH   4   5
ATOM      5  C   UNL     1      -4.818  15.275  -9.509  1.00  0.00     0.158 C 
ATOM      6  C   UNL     1      -3.688  10.931  -6.852  1.00  0.00    -0.003 C 
ATOM      7  C   UNL     1      -4.962  11.723  -7.173  1.00  0.00     0.052 C 
ATOM      8  C   UNL     1      -2.701  11.064  -8.020  1.00  0.00     0.019 C 
ATOM      9  C   UNL     1      -4.648  13.173  -7.565  1.00  0.00     0.189 C 
ATOM     10  C   UNL     1      -2.459  12.529  -8.383  1.00  0.00     0.087 C 
ATOM     11  N   UNL     1      -3.717  13.207  -8.693  1.00  0.00    -0.276 NA
ATOM     12  O   UNL     1      -5.898  13.790  -7.882  1.00  0.00    -0.360 OA
ATOM     13  C   UNL     1      -3.494  14.590  -9.127  1.00  0.00     0.121 C 
ATOM     14  C   UNL     1      -5.759  15.149  -8.307  1.00  0.00     0.195 C 
BRANCH   6  15
ATOM     15  C   UNL     1      -3.994   9.476  -6.578  1.00  0.00    -0.008 C 
ATOM     16  C   UNL     1      -4.187   8.990  -5.161  1.00  0.00     0.004 C 
ATOM     17  C   UNL     1      -5.359   9.050  -6.096  1.00  0.00     0.004 C 
ENDBRANCH   6  15
ENDBRANCH   4   5
ENDBRANCH   1   4
BRANCH   3  18
ATOM     18  C   UNL     1      -7.144  16.219 -13.708  1.00  0.00     0.053 C 
BRANCH  18  19
ATOM     19  C   UNL     1      -8.288  15.808 -14.598  1.00  0.00     0.074 C 
BRANCH  19  20
ATOM     20  N   UNL     1      -8.516  14.614 -15.035  1.00  0.00    -0.313 NA
ATOM     21  H   UNL     1      -8.566  13.931 -14.265  1.00  0.00     0.186 HD
ENDBRANCH  19  20
ENDBRANCH  18  19
ENDBRANCH   3  18
TORSDOF 6
ENDMDL
MODEL 6
REMARK VINA RESULT:    -3.775      6.417      9.790
REMARK INTER + INTRA:          -5.184
REMARK INTER:                  -4.596
REMARK INTRA:                  -0.588
REMARK UNBOUND:                -0.195
REMARK SMILES [H]/N=C\C[C@H]1C[C@@H]1O[C@H]1CO[C@H]2C[C@@H](C3CC3)CCN2C1
REMARK SMILES IDX 7 1 6 2 5 3 8 4 9 5 14 6 13 7 18 8 12 9 19 10 20 11 11 12
REMARK SMILES IDX 21 13 10 14 15 15 16 16 17 17 4 18 3 19 2 20 1 21
REMARK H PARENT
ROOT
ATOM      1  C   UNL     1     -11.412  15.407  -7.944  1.00  0.00     0.122 C 
ATOM      2  C   UNL     1     -10.724  16.726  -7.735  1.00  0.00     0.039 C 
ATOM      3  C   UNL     1      -9.922  15.456  -7.743  1.00  0.00     0.026 C 
ENDROOT
BRANCH   1   4
ATOM      4  O   UNL     1     -12.201  14.971  -6.820  1.00  0.00    -0.371 OA
BRANCH   4   5
ATOM      5  C   UNL     1     -13.123  13.901  -7.088  1.00  0.00     0.158 C 
ATOM      6  C   UNL     1     -10.196   9.913  -5.434  1.00  0.00    -0.003 C 
ATOM      7  C   UNL     1     -10.181  10.861  -6.640  1.00  0.00     0.052 C 
ATOM      8  C   UNL     1     -10.750  10.657  -4.211  1.00  0.00     0.019 C 
ATOM      9  C   UNL     1     -11.552  11.511  -6.871  1.00  0.00     0.189 C 
ATOM     10  C   UNL     1     -12.098  11.310  -4.517  1.00  0.00     0.087 C 
ATOM     11  N   UNL     1     -11.994  12.211  -5.665  1.00  0.00    -0.276 NA
ATOM     12  O   UNL     1     -11.401  12.399  -7.981  1.00  0.00    -0.360 OA
ATOM     13  C   UNL     1     -13.259  12.911  -5.918  1.00  0.00     0.121 C 
ATOM     14  C   UNL     1     -12.601  13.113  -8.294  1.00  0.00     0.195 C 
BRANCH   6  15
ATOM     15  C   UNL     1      -8.818   9.364  -5.143  1.00  0.00    -0.008 C 
ATOM     16  C   UNL     1      -8.440   7.972  -5.592  1.00  0.00     0.004 C 
ATOM     17  C   UNL     1      -7.814   9.166  -6.252  1.00  0.00     0.004 C 
ENDBRANCH   6  15
ENDBRANCH   4   5
ENDBRANCH   1   4
BRANCH   3  18
ATOM     18  C   UNL     1      -8.995  15.189  -8.891  1.00  0.00     0.053 C 
BRANCH  18  19
ATOM     19  C   UNL     1      -8.284  13.861  -8.878  1.00  0.00     0.074 C 
BRANCH  19  20
ATOM     20  N   UNL     1      -8.743  12.752  -9.354  1.00  0.00    -0.313 NA
ATOM     21  H   UNL     1      -9.476  12.916 -10.058  1.00  0.00     0.186 HD
ENDBRANCH  19  20
ENDBRANCH  18  19
ENDBRANCH   3  18
TORSDOF 6
ENDMDL
MODEL 7
REMARK VINA RESULT:    -3.598      5.917      9.290
REMARK INTER + INTRA:          -4.951
REMARK INTER:                  -4.903
REMARK INTRA:                  -0.048
REMARK UNBOUND:                -0.195
REMARK SMILES [H]/N=C\C[C@H]1C[C@@H]1O[C@H]1CO[C@H]2C[C@@H](C3CC3)CCN2C1
REMARK SMILES IDX 7 1 6 2 5 3 8 4 9 5 14 6 13 7 18 8 12 9 19 10 20 11 11 12
REMARK SMILES IDX 21 13 10 14 15 15 16 16 17 17 4 18 3 19 2 20 1 21
REMARK H PARENT
ROOT
ATOM      1  C   UNL     1     -11.661  14.464  -6.128  1.00  0.00     0.122 C 
ATOM      2  C   UNL     1     -11.177  15.607  -5.282  1.00  0.00     0.039 C 
ATOM      3  C   UNL     1     -11.374  15.800  -6.758  1.00  0.00     0.026 C 
ENDROOT
BRANCH   1   4
ATOM      4  O   UNL     1     -10.679  13.430  -6.335  1.00  0.00    -0.371 OA
BRANCH   4   5
ATOM      5  C   UNL     1     -11.094  12.341  -7.176  1.00  0.00     0.158 C 
ATOM      6  C   UNL     1      -7.189   9.036  -6.160  1.00  0.00    -0.003 C 
ATOM      7  C   UNL     1      -7.343  10.346  -6.942  1.00  0.00     0.052 C 
ATOM      8  C   UNL     1      -8.152   9.041  -4.965  1.00  0.00     0.019 C 
ATOM      9  C   UNL     1      -8.806  10.616  -7.319  1.00  0.00     0.189 C 
ATOM     10  C   UNL     1      -9.584   9.349  -5.403  1.00  0.00     0.087 C 
ATOM     11  N   UNL     1      -9.649  10.621  -6.123  1.00  0.00    -0.276 NA
ATOM     12  O   UNL     1      -8.828  11.875  -7.995  1.00  0.00    -0.360 OA
ATOM     13  C   UNL     1     -11.029  10.973  -6.474  1.00  0.00     0.121 C 
ATOM     14  C   UNL     1     -10.146  12.281  -8.379  1.00  0.00     0.195 C 
BRANCH   6  15
ATOM     15  C   UNL     1      -5.765   8.833  -5.694  1.00  0.00    -0.008 C 
ATOM     16  C   UNL     1      -4.819   7.960  -6.484  1.00  0.00     0.004 C 
ATOM     17  C   UNL     1      -4.609   9.445  -6.447  1.00  0.00     0.004 C 
ENDBRANCH   6  15
ENDBRANCH   4   5
ENDBRANCH   1   4
BRANCH   3  18
ATOM     18  C   UNL     1     -12.500  16.668  -7.234  1.00  0.00     0.053 C 
BRANCH  18  19
ATOM     19  C   UNL     1     -12.541  16.955  -8.712  1.00  0.00     0.074 C 
BRANCH  19  20
ATOM     20  N   UNL     1     -12.940  16.140  -9.631  1.00  0.00    -0.313 NA
ATOM     21  H   UNL     1     -13.968  16.087  -9.672  1.00  0.00     0.186 HD
ENDBRANCH  19  20
ENDBRANCH  18  19
ENDBRANCH   3  18
TORSDOF 6
ENDMDL
MODEL 8
REMARK VINA RESULT:    -2.022      4.141      8.027
REMARK INTER + INTRA:          -2.868
REMARK INTER:                  -2.622
REMARK INTRA:                  -0.245
REMARK UNBOUND:                -0.195
REMARK SMILES [H]/N=C\C[C@H]1C[C@@H]1O[C@H]1CO[C@H]2C[C@@H](C3CC3)CCN2C1
REMARK SMILES IDX 7 1 6 2 5 3 8 4 9 5 14 6 13 7 18 8 12 9 19 10 20 11 11 12
REMARK SMILES IDX 21 13 10 14 15 15 16 16 17 17 4 18 3 19 2 20 1 21
REMARK H PARENT
ROOT
ATOM      1  C   UNL     1      -6.704  16.770 -13.210  1.00  0.00     0.122 C 
ATOM      2  C   UNL     1      -6.708  16.676 -14.710  1.00  0.00     0.039 C 
ATOM      3  C   UNL     1      -7.815  16.042 -13.916  1.00  0.00     0.026 C 
ENDROOT
BRANCH   1   4
ATOM      4  O   UNL     1      -5.701  15.955 -12.574  1.00  0.00    -0.371 OA
BRANCH   4   5
ATOM      5  C   UNL     1      -4.552  16.661 -12.077  1.00  0.00     0.158 C 
ATOM      6  C   UNL     1      -2.470  12.841  -9.199  1.00  0.00    -0.003 C 
ATOM      7  C   UNL     1      -3.696  13.757  -9.088  1.00  0.00     0.052 C 
ATOM      8  C   UNL     1      -2.185  12.553 -10.680  1.00  0.00     0.019 C 
ATOM      9  C   UNL     1      -3.547  15.016  -9.953  1.00  0.00     0.189 C 
ATOM     10  C   UNL     1      -2.083  13.845 -11.490  1.00  0.00     0.087 C 
ATOM     11  N   UNL     1      -3.295  14.650 -11.347  1.00  0.00    -0.276 NA
ATOM     12  O   UNL     1      -4.757  15.760  -9.804  1.00  0.00    -0.360 OA
ATOM     13  C   UNL     1      -3.248  15.852 -12.188  1.00  0.00     0.121 C 
ATOM     14  C   UNL     1      -4.781  16.955 -10.590  1.00  0.00     0.195 C 
BRANCH   6  15
ATOM     15  C   UNL     1      -2.671  11.552  -8.436  1.00  0.00    -0.008 C 
ATOM     16  C   UNL     1      -1.964  11.325  -7.120  1.00  0.00     0.004 C 
ATOM     17  C   UNL     1      -3.451  11.530  -7.144  1.00  0.00     0.004 C 
ENDBRANCH   6  15
ENDBRANCH   4   5
ENDBRANCH   1   4
BRANCH   3  18
ATOM     18  C   UNL     1      -9.189  16.639 -13.979  1.00  0.00     0.053 C 
BRANCH  18  19
ATOM     19  C   UNL     1     -10.322  15.749 -13.539  1.00  0.00     0.074 C 
BRANCH  19  20
ATOM     20  N   UNL     1     -10.853  14.799 -14.235  1.00  0.00    -0.313 NA
ATOM     21  H   UNL     1     -10.492  14.787 -15.199  1.00  0.00     0.186 HD
ENDBRANCH  19  20
ENDBRANCH  18  19
ENDBRANCH   3  18
TORSDOF 6
ENDMDL
