MODEL 1
REMARK VINA RESULT:    -6.212      0.000      0.000
REMARK INTER + INTRA:          -7.677
REMARK INTER:                  -7.301
REMARK INTRA:                  -0.376
REMARK UNBOUND:                -0.376
REMARK SMILES Cc1ccc(CNC(=O)NC(=O)c2ccc(C)cc2)cc1
REMARK SMILES IDX 11 1 12 2 10 3 8 4 9 5 7 6 13 9 19 10 18 11 14 12 16 13
REMARK SMILES IDX 15 14 17 15 6 16 5 17 4 18 20 19 3 20 21 21 2 22 1 23
REMARK H PARENT 10 7 7 8
ROOT
ATOM      1  C   UNL     1      -4.397   7.871  -5.317  1.00  0.00     0.259 C 
ATOM      2  O   UNL     1      -5.453   7.254  -5.293  1.00  0.00    -0.269 OA
ATOM      3  N   UNL     1      -4.104   9.080  -5.956  1.00  0.00    -0.274 N 
ATOM      4  C   UNL     1      -4.795  10.112  -6.538  1.00  0.00     0.321 C 
ATOM      5  O   UNL     1      -4.153  11.108  -6.886  1.00  0.00    -0.248 OA
ATOM      6  N   UNL     1      -6.129  10.105  -6.721  1.00  0.00    -0.334 N 
ATOM      7  H   UNL     1      -3.146   9.386  -5.851  1.00  0.00     0.175 HD
ATOM      8  H   UNL     1      -6.494  10.974  -7.084  1.00  0.00     0.165 HD
ENDROOT
BRANCH   1   9
ATOM      9  C   UNL     1      -3.268   7.278  -4.575  1.00  0.00     0.040 A 
ATOM     10  C   UNL     1      -2.266   6.558  -5.227  1.00  0.00     0.014 A 
ATOM     11  C   UNL     1      -1.191   6.061  -4.490  1.00  0.00     0.004 A 
ATOM     12  C   UNL     1      -3.231   7.451  -3.188  1.00  0.00     0.014 A 
ATOM     13  C   UNL     1      -1.117   6.274  -3.105  1.00  0.00    -0.051 A 
ATOM     14  C   UNL     1      -2.152   6.958  -2.456  1.00  0.00     0.004 A 
ATOM     15  C   UNL     1       0.086   5.807  -2.340  1.00  0.00     0.044 C 
ENDBRANCH   1   9
BRANCH   6  16
ATOM     16  C   UNL     1      -7.065   9.102  -6.299  1.00  0.00     0.153 C 
BRANCH  16  17
ATOM     17  C   UNL     1      -8.504   9.517  -6.158  1.00  0.00    -0.029 A 
ATOM     18  C   UNL     1      -9.244   9.320  -4.987  1.00  0.00     0.006 A 
ATOM     19  C   UNL     1      -9.044  10.319  -7.175  1.00  0.00     0.006 A 
ATOM     20  C   UNL     1     -10.489   9.939  -4.834  1.00  0.00     0.004 A 
ATOM     21  C   UNL     1     -10.281  10.938  -7.020  1.00  0.00     0.004 A 
ATOM     22  C   UNL     1     -11.010  10.761  -5.843  1.00  0.00    -0.051 A 
ATOM     23  C   UNL     1     -12.274  11.539  -5.629  1.00  0.00     0.044 C 
ENDBRANCH  16  17
ENDBRANCH   6  16
TORSDOF 3
ENDMDL
MODEL 2
REMARK VINA RESULT:    -6.178      3.273      5.576
REMARK INTER + INTRA:          -7.637
REMARK INTER:                  -7.259
REMARK INTRA:                  -0.378
REMARK UNBOUND:                -0.376
REMARK SMILES Cc1ccc(CNC(=O)NC(=O)c2ccc(C)cc2)cc1
REMARK SMILES IDX 11 1 12 2 10 3 8 4 9 5 7 6 13 9 19 10 18 11 14 12 16 13
REMARK SMILES IDX 15 14 17 15 6 16 5 17 4 18 20 19 3 20 21 21 2 22 1 23
REMARK H PARENT 10 7 7 8
ROOT
ATOM      1  C   UNL     1      -4.042   7.980  -5.599  1.00  0.00     0.259 C 
ATOM      2  O   UNL     1      -2.998   8.617  -5.620  1.00  0.00    -0.269 OA
ATOM      3  N   UNL     1      -5.348   8.432  -5.817  1.00  0.00    -0.274 N 
ATOM      4  C   UNL     1      -5.962   9.548  -6.327  1.00  0.00     0.321 C 
ATOM      5  O   UNL     1      -7.187   9.508  -6.479  1.00  0.00    -0.248 OA
ATOM      6  N   UNL     1      -5.299  10.660  -6.694  1.00  0.00    -0.334 N 
ATOM      7  H   UNL     1      -6.057   7.717  -5.726  1.00  0.00     0.175 HD
ATOM      8  H   UNL     1      -5.885  11.357  -7.129  1.00  0.00     0.165 HD
ENDROOT
BRANCH   1   9
ATOM      9  C   UNL     1      -3.931   6.537  -5.313  1.00  0.00     0.040 A 
ATOM     10  C   UNL     1      -4.209   6.023  -4.045  1.00  0.00     0.014 A 
ATOM     11  C   UNL     1      -4.140   4.645  -3.835  1.00  0.00     0.004 A 
ATOM     12  C   UNL     1      -3.529   5.690  -6.350  1.00  0.00     0.014 A 
ATOM     13  C   UNL     1      -3.788   3.782  -4.883  1.00  0.00    -0.051 A 
ATOM     14  C   UNL     1      -3.468   4.314  -6.138  1.00  0.00     0.004 A 
ATOM     15  C   UNL     1      -3.802   2.298  -4.665  1.00  0.00     0.044 C 
ENDBRANCH   1   9
BRANCH   6  16
ATOM     16  C   UNL     1      -3.879  10.873  -6.697  1.00  0.00     0.153 C 
BRANCH  16  17
ATOM     17  C   UNL     1      -3.344  11.944  -7.607  1.00  0.00    -0.029 A 
ATOM     18  C   UNL     1      -2.364  11.704  -8.575  1.00  0.00     0.006 A 
ATOM     19  C   UNL     1      -4.017  13.177  -7.613  1.00  0.00     0.006 A 
ATOM     20  C   UNL     1      -2.084  12.674  -9.543  1.00  0.00     0.004 A 
ATOM     21  C   UNL     1      -3.741  14.139  -8.580  1.00  0.00     0.004 A 
ATOM     22  C   UNL     1      -2.778  13.891  -9.560  1.00  0.00    -0.051 A 
ATOM     23  C   UNL     1      -2.586  14.874 -10.676  1.00  0.00     0.044 C 
ENDBRANCH  16  17
ENDBRANCH   6  16
TORSDOF 3
ENDMDL
MODEL 3
REMARK VINA RESULT:    -6.165      0.544      8.021
REMARK INTER + INTRA:          -7.622
REMARK INTER:                  -7.129
REMARK INTRA:                  -0.493
REMARK UNBOUND:                -0.376
REMARK SMILES Cc1ccc(CNC(=O)NC(=O)c2ccc(C)cc2)cc1
REMARK SMILES IDX 11 1 12 2 10 3 8 4 9 5 7 6 13 9 19 10 18 11 14 12 16 13
REMARK SMILES IDX 15 14 17 15 6 16 5 17 4 18 20 19 3 20 21 21 2 22 1 23
REMARK H PARENT 10 7 7 8
ROOT
ATOM      1  C   UNL     1      -6.932   9.121  -5.877  1.00  0.00     0.259 C 
ATOM      2  O   UNL     1      -6.759   8.002  -5.413  1.00  0.00    -0.269 OA
ATOM      3  N   UNL     1      -5.979  10.029  -6.348  1.00  0.00    -0.274 N 
ATOM      4  C   UNL     1      -4.654  10.015  -6.703  1.00  0.00     0.321 C 
ATOM      5  O   UNL     1      -4.189  11.036  -7.221  1.00  0.00    -0.248 OA
ATOM      6  N   UNL     1      -3.853   8.946  -6.545  1.00  0.00    -0.334 N 
ATOM      7  H   UNL     1      -6.363  10.909  -6.667  1.00  0.00     0.175 HD
ATOM      8  H   UNL     1      -2.929   9.069  -6.935  1.00  0.00     0.165 HD
ENDROOT
BRANCH   1   9
ATOM      9  C   UNL     1      -8.327   9.592  -5.963  1.00  0.00     0.040 A 
ATOM     10  C   UNL     1      -9.241   9.354  -4.935  1.00  0.00     0.014 A 
ATOM     11  C   UNL     1     -10.535   9.865  -5.039  1.00  0.00     0.004 A 
ATOM     12  C   UNL     1      -8.717  10.283  -7.115  1.00  0.00     0.014 A 
ATOM     13  C   UNL     1     -10.921  10.604  -6.167  1.00  0.00    -0.051 A 
ATOM     14  C   UNL     1     -10.009  10.797  -7.211  1.00  0.00     0.004 A 
ATOM     15  C   UNL     1     -12.289  11.219  -6.225  1.00  0.00     0.044 C 
ENDBRANCH   1   9
BRANCH   6  16
ATOM     16  C   UNL     1      -4.216   7.642  -6.066  1.00  0.00     0.153 C 
BRANCH  16  17
ATOM     17  C   UNL     1      -3.288   6.987  -5.080  1.00  0.00    -0.029 A 
ATOM     18  C   UNL     1      -2.220   6.170  -5.465  1.00  0.00     0.006 A 
ATOM     19  C   UNL     1      -3.385   7.391  -3.739  1.00  0.00     0.006 A 
ATOM     20  C   UNL     1      -1.256   5.789  -4.525  1.00  0.00     0.004 A 
ATOM     21  C   UNL     1      -2.424   7.015  -2.806  1.00  0.00     0.004 A 
ATOM     22  C   UNL     1      -1.344   6.219  -3.193  1.00  0.00    -0.051 A 
ATOM     23  C   UNL     1      -0.244   5.934  -2.216  1.00  0.00     0.044 C 
ENDBRANCH  16  17
ENDBRANCH   6  16
TORSDOF 3
ENDMDL
MODEL 4
REMARK VINA RESULT:    -6.146      3.154      7.299
REMARK INTER + INTRA:          -7.599
REMARK INTER:                  -7.106
REMARK INTRA:                  -0.494
REMARK UNBOUND:                -0.376
REMARK SMILES Cc1ccc(CNC(=O)NC(=O)c2ccc(C)cc2)cc1
REMARK SMILES IDX 11 1 12 2 10 3 8 4 9 5 7 6 13 9 19 10 18 11 14 12 16 13
REMARK SMILES IDX 15 14 17 15 6 16 5 17 4 18 20 19 3 20 21 21 2 22 1 23
REMARK H PARENT 10 7 7 8
ROOT
ATOM      1  C   UNL     1      -3.796  10.488  -6.948  1.00  0.00     0.259 C 
ATOM      2  O   UNL     1      -2.880   9.813  -6.501  1.00  0.00    -0.269 OA
ATOM      3  N   UNL     1      -5.174  10.278  -6.834  1.00  0.00    -0.274 N 
ATOM      4  C   UNL     1      -6.023   9.506  -6.082  1.00  0.00     0.321 C 
ATOM      5  O   UNL     1      -7.236   9.715  -6.191  1.00  0.00    -0.248 OA
ATOM      6  N   UNL     1      -5.603   8.563  -5.219  1.00  0.00    -0.334 N 
ATOM      7  H   UNL     1      -5.742  10.965  -7.311  1.00  0.00     0.175 HD
ATOM      8  H   UNL     1      -6.347   8.144  -4.680  1.00  0.00     0.165 HD
ENDROOT
BRANCH   1   9
ATOM      9  C   UNL     1      -3.418  11.693  -7.711  1.00  0.00     0.040 A 
ATOM     10  C   UNL     1      -2.354  11.679  -8.614  1.00  0.00     0.014 A 
ATOM     11  C   UNL     1      -2.067  12.828  -9.351  1.00  0.00     0.004 A 
ATOM     12  C   UNL     1      -4.156  12.862  -7.499  1.00  0.00     0.014 A 
ATOM     13  C   UNL     1      -2.834  13.991  -9.184  1.00  0.00    -0.051 A 
ATOM     14  C   UNL     1      -3.870  14.006  -8.242  1.00  0.00     0.004 A 
ATOM     15  C   UNL     1      -2.568  15.192 -10.044  1.00  0.00     0.044 C 
ENDBRANCH   1   9
BRANCH   6  16
ATOM     16  C   UNL     1      -4.249   8.236  -4.869  1.00  0.00     0.153 C 
BRANCH  16  17
ATOM     17  C   UNL     1      -3.891   6.778  -4.783  1.00  0.00    -0.029 A 
ATOM     18  C   UNL     1      -4.020   6.028  -3.610  1.00  0.00     0.006 A 
ATOM     19  C   UNL     1      -3.620   6.111  -5.989  1.00  0.00     0.006 A 
ATOM     20  C   UNL     1      -3.903   4.634  -3.654  1.00  0.00     0.004 A 
ATOM     21  C   UNL     1      -3.509   4.724  -6.032  1.00  0.00     0.004 A 
ATOM     22  C   UNL     1      -3.660   3.973  -4.865  1.00  0.00    -0.051 A 
ATOM     23  C   UNL     1      -3.675   2.476  -4.944  1.00  0.00     0.044 C 
ENDBRANCH  16  17
ENDBRANCH   6  16
TORSDOF 3
ENDMDL
MODEL 5
REMARK VINA RESULT:    -5.848      0.615      7.972
REMARK INTER + INTRA:          -7.250
REMARK INTER:                  -6.764
REMARK INTRA:                  -0.485
REMARK UNBOUND:                -0.376
REMARK SMILES Cc1ccc(CNC(=O)NC(=O)c2ccc(C)cc2)cc1
REMARK SMILES IDX 11 1 12 2 10 3 8 4 9 5 7 6 13 9 19 10 18 11 14 12 16 13
REMARK SMILES IDX 15 14 17 15 6 16 5 17 4 18 20 19 3 20 21 21 2 22 1 23
REMARK H PARENT 10 7 7 8
ROOT
ATOM      1  C   UNL     1      -6.972   9.135  -5.890  1.00  0.00     0.259 C 
ATOM      2  O   UNL     1      -6.841   8.010  -5.428  1.00  0.00    -0.269 OA
ATOM      3  N   UNL     1      -5.987  10.006  -6.366  1.00  0.00    -0.274 N 
ATOM      4  C   UNL     1      -4.666   9.941  -6.728  1.00  0.00     0.321 C 
ATOM      5  O   UNL     1      -4.164  10.943  -7.248  1.00  0.00    -0.248 OA
ATOM      6  N   UNL     1      -3.906   8.840  -6.576  1.00  0.00    -0.334 N 
ATOM      7  H   UNL     1      -6.339  10.900  -6.682  1.00  0.00     0.175 HD
ATOM      8  H   UNL     1      -2.981   8.927  -6.971  1.00  0.00     0.165 HD
ENDROOT
BRANCH   1   9
ATOM      9  C   UNL     1      -8.349   9.661  -5.968  1.00  0.00     0.040 A 
ATOM     10  C   UNL     1      -8.806  10.339  -7.100  1.00  0.00     0.014 A 
ATOM     11  C   UNL     1     -10.132  10.771  -7.149  1.00  0.00     0.004 A 
ATOM     12  C   UNL     1      -9.189   9.467  -4.867  1.00  0.00     0.014 A 
ATOM     13  C   UNL     1     -10.998  10.536  -6.070  1.00  0.00    -0.051 A 
ATOM     14  C   UNL     1     -10.514   9.895  -4.923  1.00  0.00     0.004 A 
ATOM     15  C   UNL     1     -12.442  10.932  -6.172  1.00  0.00     0.044 C 
ENDBRANCH   1   9
BRANCH   6  16
ATOM     16  C   UNL     1      -4.317   7.551  -6.096  1.00  0.00     0.153 C 
BRANCH  16  17
ATOM     17  C   UNL     1      -3.408   6.857  -5.120  1.00  0.00    -0.029 A 
ATOM     18  C   UNL     1      -2.464   5.899  -5.506  1.00  0.00     0.006 A 
ATOM     19  C   UNL     1      -3.374   7.353  -3.807  1.00  0.00     0.006 A 
ATOM     20  C   UNL     1      -1.492   5.469  -4.596  1.00  0.00     0.004 A 
ATOM     21  C   UNL     1      -2.403   6.929  -2.905  1.00  0.00     0.004 A 
ATOM     22  C   UNL     1      -1.446   5.990  -3.296  1.00  0.00    -0.051 A 
ATOM     23  C   UNL     1      -0.324   5.642  -2.364  1.00  0.00     0.044 C 
ENDBRANCH  16  17
ENDBRANCH   6  16
TORSDOF 3
ENDMDL
MODEL 6
REMARK VINA RESULT:    -4.829      4.829      7.256
REMARK INTER + INTRA:          -6.051
REMARK INTER:                  -5.616
REMARK INTRA:                  -0.435
REMARK UNBOUND:                -0.376
REMARK SMILES Cc1ccc(CNC(=O)NC(=O)c2ccc(C)cc2)cc1
REMARK SMILES IDX 11 1 12 2 10 3 8 4 9 5 7 6 13 9 19 10 18 11 14 12 16 13
REMARK SMILES IDX 15 14 17 15 6 16 5 17 4 18 20 19 3 20 21 21 2 22 1 23
REMARK H PARENT 10 7 7 8
ROOT
ATOM      1  C   UNL     1      -3.585  11.129  -7.032  1.00  0.00     0.259 C 
ATOM      2  O   UNL     1      -2.437  11.291  -7.420  1.00  0.00    -0.269 OA
ATOM      3  N   UNL     1      -4.667  12.012  -7.108  1.00  0.00    -0.274 N 
ATOM      4  C   UNL     1      -4.984  13.172  -7.767  1.00  0.00     0.321 C 
ATOM      5  O   UNL     1      -6.142  13.592  -7.666  1.00  0.00    -0.248 OA
ATOM      6  N   UNL     1      -4.114  13.853  -8.537  1.00  0.00    -0.334 N 
ATOM      7  H   UNL     1      -5.521  11.662  -6.696  1.00  0.00     0.175 HD
ATOM      8  H   UNL     1      -4.526  14.637  -9.021  1.00  0.00     0.165 HD
ENDROOT
BRANCH   1   9
ATOM      9  C   UNL     1      -3.892   9.832  -6.399  1.00  0.00     0.040 A 
ATOM     10  C   UNL     1      -4.287   8.728  -7.157  1.00  0.00     0.014 A 
ATOM     11  C   UNL     1      -4.516   7.508  -6.520  1.00  0.00     0.004 A 
ATOM     12  C   UNL     1      -3.784   9.738  -5.008  1.00  0.00     0.014 A 
ATOM     13  C   UNL     1      -4.360   7.390  -5.131  1.00  0.00    -0.051 A 
ATOM     14  C   UNL     1      -4.007   8.516  -4.377  1.00  0.00     0.004 A 
ATOM     15  C   UNL     1      -4.527   6.052  -4.472  1.00  0.00     0.044 C 
ENDBRANCH   1   9
BRANCH   6  16
ATOM     16  C   UNL     1      -2.766  13.487  -8.868  1.00  0.00     0.153 C 
BRANCH  16  17
ATOM     17  C   UNL     1      -2.327  13.688 -10.292  1.00  0.00    -0.029 A 
ATOM     18  C   UNL     1      -2.823  12.930 -11.358  1.00  0.00     0.006 A 
ATOM     19  C   UNL     1      -1.548  14.823 -10.571  1.00  0.00     0.006 A 
ATOM     20  C   UNL     1      -2.561  13.321 -12.676  1.00  0.00     0.004 A 
ATOM     21  C   UNL     1      -1.293  15.213 -11.882  1.00  0.00     0.004 A 
ATOM     22  C   UNL     1      -1.806  14.471 -12.946  1.00  0.00    -0.051 A 
ATOM     23  C   UNL     1      -1.642  14.974 -14.349  1.00  0.00     0.044 C 
ENDBRANCH  16  17
ENDBRANCH   6  16
TORSDOF 3
ENDMDL
MODEL 7
REMARK VINA RESULT:    -4.790      3.738      7.607
REMARK INTER + INTRA:          -6.006
REMARK INTER:                  -5.571
REMARK INTRA:                  -0.435
REMARK UNBOUND:                -0.376
REMARK SMILES Cc1ccc(CNC(=O)NC(=O)c2ccc(C)cc2)cc1
REMARK SMILES IDX 11 1 12 2 10 3 8 4 9 5 7 6 13 9 19 10 18 11 14 12 16 13
REMARK SMILES IDX 15 14 17 15 6 16 5 17 4 18 20 19 3 20 21 21 2 22 1 23
REMARK H PARENT 10 7 7 8
ROOT
ATOM      1  C   UNL     1      -3.756   9.841  -6.737  1.00  0.00     0.259 C 
ATOM      2  O   UNL     1      -3.576   9.797  -5.528  1.00  0.00    -0.269 OA
ATOM      3  N   UNL     1      -4.155   8.815  -7.600  1.00  0.00    -0.274 N 
ATOM      4  C   UNL     1      -4.696   7.559  -7.499  1.00  0.00     0.321 C 
ATOM      5  O   UNL     1      -5.043   6.998  -8.544  1.00  0.00    -0.248 OA
ATOM      6  N   UNL     1      -4.893   6.925  -6.328  1.00  0.00    -0.334 N 
ATOM      7  H   UNL     1      -4.216   9.088  -8.572  1.00  0.00     0.175 HD
ATOM      8  H   UNL     1      -5.379   6.045  -6.419  1.00  0.00     0.165 HD
ENDROOT
BRANCH   1   9
ATOM      9  C   UNL     1      -3.532  11.144  -7.392  1.00  0.00     0.040 A 
ATOM     10  C   UNL     1      -2.485  11.334  -8.295  1.00  0.00     0.014 A 
ATOM     11  C   UNL     1      -2.344  12.569  -8.929  1.00  0.00     0.004 A 
ATOM     12  C   UNL     1      -4.400  12.195  -7.077  1.00  0.00     0.014 A 
ATOM     13  C   UNL     1      -3.240  13.614  -8.659  1.00  0.00    -0.051 A 
ATOM     14  C   UNL     1      -4.260  13.424  -7.718  1.00  0.00     0.004 A 
ATOM     15  C   UNL     1      -3.128  14.908  -9.411  1.00  0.00     0.044 C 
ENDBRANCH   1   9
BRANCH   6  16
ATOM     16  C   UNL     1      -4.659   7.435  -5.006  1.00  0.00     0.153 C 
BRANCH  16  17
ATOM     17  C   UNL     1      -3.490   6.872  -4.248  1.00  0.00    -0.029 A 
ATOM     18  C   UNL     1      -2.506   6.075  -4.842  1.00  0.00     0.006 A 
ATOM     19  C   UNL     1      -3.279   7.349  -2.944  1.00  0.00     0.006 A 
ATOM     20  C   UNL     1      -1.326   5.785  -4.148  1.00  0.00     0.004 A 
ATOM     21  C   UNL     1      -2.104   7.064  -2.257  1.00  0.00     0.004 A 
ATOM     22  C   UNL     1      -1.112   6.288  -2.857  1.00  0.00    -0.051 A 
ATOM     23  C   UNL     1       0.206   6.101  -2.166  1.00  0.00     0.044 C 
ENDBRANCH  16  17
ENDBRANCH   6  16
TORSDOF 3
ENDMDL
MODEL 8
REMARK VINA RESULT:    -4.725      1.775      7.614
REMARK INTER + INTRA:          -5.929
REMARK INTER:                  -5.425
REMARK INTRA:                  -0.504
REMARK UNBOUND:                -0.376
REMARK SMILES Cc1ccc(CNC(=O)NC(=O)c2ccc(C)cc2)cc1
REMARK SMILES IDX 11 1 12 2 10 3 8 4 9 5 7 6 13 9 19 10 18 11 14 12 16 13
REMARK SMILES IDX 15 14 17 15 6 16 5 17 4 18 20 19 3 20 21 21 2 22 1 23
REMARK H PARENT 10 7 7 8
ROOT
ATOM      1  C   UNL     1      -6.512   9.417  -5.527  1.00  0.00     0.259 C 
ATOM      2  O   UNL     1      -6.330   8.853  -4.457  1.00  0.00    -0.269 OA
ATOM      3  N   UNL     1      -5.569   9.791  -6.490  1.00  0.00    -0.274 N 
ATOM      4  C   UNL     1      -4.255   9.526  -6.779  1.00  0.00     0.321 C 
ATOM      5  O   UNL     1      -3.801   9.967  -7.840  1.00  0.00    -0.248 OA
ATOM      6  N   UNL     1      -3.453   8.791  -5.986  1.00  0.00    -0.334 N 
ATOM      7  H   UNL     1      -5.959  10.269  -7.292  1.00  0.00     0.175 HD
ATOM      8  H   UNL     1      -2.540   8.616  -6.382  1.00  0.00     0.165 HD
ENDROOT
BRANCH   1   9
ATOM      9  C   UNL     1      -7.908   9.751  -5.869  1.00  0.00     0.040 A 
ATOM     10  C   UNL     1      -8.958   9.475  -4.992  1.00  0.00     0.014 A 
ATOM     11  C   UNL     1     -10.255   9.857  -5.337  1.00  0.00     0.004 A 
ATOM     12  C   UNL     1      -8.155  10.350  -7.108  1.00  0.00     0.014 A 
ATOM     13  C   UNL     1     -10.507  10.505  -6.555  1.00  0.00    -0.051 A 
ATOM     14  C   UNL     1      -9.451  10.735  -7.446  1.00  0.00     0.004 A 
ATOM     15  C   UNL     1     -11.892  10.986  -6.874  1.00  0.00     0.044 C 
ENDBRANCH   1   9
BRANCH   6  16
ATOM     16  C   UNL     1      -3.807   8.107  -4.775  1.00  0.00     0.153 C 
BRANCH  16  17
ATOM     17  C   UNL     1      -3.628   6.614  -4.748  1.00  0.00    -0.029 A 
ATOM     18  C   UNL     1      -3.839   5.840  -3.602  1.00  0.00     0.006 A 
ATOM     19  C   UNL     1      -3.448   5.966  -5.981  1.00  0.00     0.006 A 
ATOM     20  C   UNL     1      -3.892   4.446  -3.699  1.00  0.00     0.004 A 
ATOM     21  C   UNL     1      -3.506   4.579  -6.077  1.00  0.00     0.004 A 
ATOM     22  C   UNL     1      -3.739   3.807  -4.938  1.00  0.00    -0.051 A 
ATOM     23  C   UNL     1      -3.937   2.327  -5.072  1.00  0.00     0.044 C 
ENDBRANCH  16  17
ENDBRANCH   6  16
TORSDOF 3
ENDMDL
MODEL 9
REMARK VINA RESULT:    -4.636      6.773     11.121
REMARK INTER + INTRA:          -5.825
REMARK INTER:                  -5.279
REMARK INTRA:                  -0.546
REMARK UNBOUND:                -0.376
REMARK SMILES Cc1ccc(CNC(=O)NC(=O)c2ccc(C)cc2)cc1
REMARK SMILES IDX 11 1 12 2 10 3 8 4 9 5 7 6 13 9 19 10 18 11 14 12 16 13
REMARK SMILES IDX 15 14 17 15 6 16 5 17 4 18 20 19 3 20 21 21 2 22 1 23
REMARK H PARENT 10 7 7 8
ROOT
ATOM      1  C   UNL     1      -5.507  15.507 -12.141  1.00  0.00     0.259 C 
ATOM      2  O   UNL     1      -5.378  15.908 -10.993  1.00  0.00    -0.269 OA
ATOM      3  N   UNL     1      -4.563  14.880 -12.961  1.00  0.00    -0.274 N 
ATOM      4  C   UNL     1      -3.339  14.279 -12.820  1.00  0.00     0.321 C 
ATOM      5  O   UNL     1      -2.867  13.702 -13.805  1.00  0.00    -0.248 OA
ATOM      6  N   UNL     1      -2.647  14.261 -11.666  1.00  0.00    -0.334 N 
ATOM      7  H   UNL     1      -4.899  14.657 -13.888  1.00  0.00     0.175 HD
ATOM      8  H   UNL     1      -1.805  13.705 -11.705  1.00  0.00     0.165 HD
ENDROOT
BRANCH   1   9
ATOM      9  C   UNL     1      -6.832  15.697 -12.762  1.00  0.00     0.040 A 
ATOM     10  C   UNL     1      -6.969  15.916 -14.134  1.00  0.00     0.014 A 
ATOM     11  C   UNL     1      -8.246  16.037 -14.683  1.00  0.00     0.004 A 
ATOM     12  C   UNL     1      -7.957  15.658 -11.932  1.00  0.00     0.014 A 
ATOM     13  C   UNL     1      -9.384  15.948 -13.867  1.00  0.00    -0.051 A 
ATOM     14  C   UNL     1      -9.231  15.774 -12.486  1.00  0.00     0.004 A 
ATOM     15  C   UNL     1     -10.750  15.996 -14.484  1.00  0.00     0.044 C 
ENDBRANCH   1   9
BRANCH   6  16
ATOM     16  C   UNL     1      -3.058  14.776 -10.390  1.00  0.00     0.153 C 
BRANCH  16  17
ATOM     17  C   UNL     1      -3.077  13.816  -9.232  1.00  0.00    -0.029 A 
ATOM     18  C   UNL     1      -4.020  13.882  -8.202  1.00  0.00     0.006 A 
ATOM     19  C   UNL     1      -2.240  12.692  -9.315  1.00  0.00     0.006 A 
ATOM     20  C   UNL     1      -4.135  12.827  -7.290  1.00  0.00     0.004 A 
ATOM     21  C   UNL     1      -2.358  11.641  -8.411  1.00  0.00     0.004 A 
ATOM     22  C   UNL     1      -3.315  11.695  -7.396  1.00  0.00    -0.051 A 
ATOM     23  C   UNL     1      -3.528  10.503  -6.513  1.00  0.00     0.044 C 
ENDBRANCH  16  17
ENDBRANCH   6  16
TORSDOF 3
ENDMDL
