MODEL 1
REMARK VINA RESULT:    -4.231      0.000      0.000
REMARK INTER + INTRA:          -5.628
REMARK INTER:                  -5.591
REMARK INTRA:                  -0.037
REMARK UNBOUND:                -0.037
REMARK SMILES [H]/N=C\C[C@H]1C[C@@H]1O[C@H]1CO[C@H]2C[C@@H](C3CC3)CCN2C1
REMARK SMILES IDX 7 1 6 2 5 3 8 4 9 5 14 6 13 7 18 8 12 9 19 10 20 11 11 12
REMARK SMILES IDX 21 13 10 14 15 15 16 16 17 17 4 18 3 19 2 20 1 21
REMARK H PARENT
ROOT
ATOM      1  C   UNL     1       0.103   1.298 -11.047  1.00  0.00     0.122 C 
ATOM      2  C   UNL     1      -0.102  -0.126 -11.480  1.00  0.00     0.039 C 
ATOM      3  C   UNL     1       0.995   0.211 -10.512  1.00  0.00     0.026 C 
ENDROOT
BRANCH   1   4
ATOM      4  O   UNL     1       0.662   2.147 -12.067  1.00  0.00    -0.371 OA
BRANCH   4   5
ATOM      5  C   UNL     1       0.253   3.524 -12.019  1.00  0.00     0.158 C 
ATOM      6  C   UNL     1       4.101   5.583 -14.876  1.00  0.00    -0.003 C 
ATOM      7  C   UNL     1       3.977   4.985 -13.469  1.00  0.00     0.052 C 
ATOM      8  C   UNL     1       3.114   4.877 -15.816  1.00  0.00     0.019 C 
ATOM      9  C   UNL     1       2.524   4.994 -12.972  1.00  0.00     0.189 C 
ATOM     10  C   UNL     1       1.695   4.891 -15.248  1.00  0.00     0.087 C 
ATOM     11  N   UNL     1       1.658   4.288 -13.916  1.00  0.00    -0.276 NA
ATOM     12  O   UNL     1       2.530   4.376 -11.684  1.00  0.00    -0.360 OA
ATOM     13  C   UNL     1       0.289   4.215 -13.394  1.00  0.00     0.121 C 
ATOM     14  C   UNL     1       1.225   4.278 -11.105  1.00  0.00     0.195 C 
BRANCH   6  15
ATOM     15  C   UNL     1       5.513   5.467 -15.405  1.00  0.00    -0.008 C 
ATOM     16  C   UNL     1       5.966   6.323 -16.564  1.00  0.00     0.004 C 
ATOM     17  C   UNL     1       6.513   6.578 -15.189  1.00  0.00     0.004 C 
ENDBRANCH   6  15
ENDBRANCH   4   5
ENDBRANCH   1   4
BRANCH   3  18
ATOM     18  C   UNL     1       0.870  -0.237  -9.086  1.00  0.00     0.053 C 
BRANCH  18  19
ATOM     19  C   UNL     1       2.140  -0.690  -8.416  1.00  0.00     0.074 C 
BRANCH  19  20
ATOM     20  N   UNL     1       3.085  -1.376  -8.968  1.00  0.00    -0.313 NA
ATOM     21  H   UNL     1       3.043  -1.321  -9.995  1.00  0.00     0.186 HD
ENDBRANCH  19  20
ENDBRANCH  18  19
ENDBRANCH   3  18
TORSDOF 6
ENDMDL
MODEL 2
REMARK VINA RESULT:    -4.150      5.262      8.454
REMARK INTER + INTRA:          -5.521
REMARK INTER:                  -5.281
REMARK INTRA:                  -0.240
REMARK UNBOUND:                -0.037
REMARK SMILES [H]/N=C\C[C@H]1C[C@@H]1O[C@H]1CO[C@H]2C[C@@H](C3CC3)CCN2C1
REMARK SMILES IDX 7 1 6 2 5 3 8 4 9 5 14 6 13 7 18 8 12 9 19 10 20 11 11 12
REMARK SMILES IDX 21 13 10 14 15 15 16 16 17 17 4 18 3 19 2 20 1 21
REMARK H PARENT
ROOT
ATOM      1  C   UNL     1      -1.341  -0.971 -12.719  1.00  0.00     0.122 C 
ATOM      2  C   UNL     1      -0.608  -1.501 -13.919  1.00  0.00     0.039 C 
ATOM      3  C   UNL     1      -1.775  -2.261 -13.358  1.00  0.00     0.026 C 
ENDROOT
BRANCH   1   4
ATOM      4  O   UNL     1      -0.604  -1.078 -11.486  1.00  0.00    -0.371 OA
BRANCH   4   5
ATOM      5  C   UNL     1       0.465  -0.132 -11.319  1.00  0.00     0.158 C 
ATOM      6  C   UNL     1      -0.350   1.095  -6.316  1.00  0.00    -0.003 C 
ATOM      7  C   UNL     1      -1.056   1.382  -7.646  1.00  0.00     0.052 C 
ATOM      8  C   UNL     1       0.312  -0.289  -6.382  1.00  0.00     0.019 C 
ATOM      9  C   UNL     1      -0.114   1.196  -8.844  1.00  0.00     0.189 C 
ATOM     10  C   UNL     1       1.208  -0.422  -7.613  1.00  0.00     0.087 C 
ATOM     11  N   UNL     1       0.457  -0.151  -8.838  1.00  0.00    -0.276 NA
ATOM     12  O   UNL     1      -0.891   1.444 -10.017  1.00  0.00    -0.360 OA
ATOM     13  C   UNL     1       1.281  -0.359 -10.034  1.00  0.00     0.121 C 
ATOM     14  C   UNL     1      -0.149   1.269 -11.228  1.00  0.00     0.195 C 
BRANCH   6  15
ATOM     15  C   UNL     1      -1.310   1.169  -5.150  1.00  0.00    -0.008 C 
ATOM     16  C   UNL     1      -0.976   2.005  -3.937  1.00  0.00     0.004 C 
ATOM     17  C   UNL     1      -2.078   2.435  -4.860  1.00  0.00     0.004 C 
ENDBRANCH   6  15
ENDBRANCH   4   5
ENDBRANCH   1   4
BRANCH   3  18
ATOM     18  C   UNL     1      -3.049  -2.323 -14.147  1.00  0.00     0.053 C 
BRANCH  18  19
ATOM     19  C   UNL     1      -2.926  -2.786 -15.576  1.00  0.00     0.074 C 
BRANCH  19  20
ATOM     20  N   UNL     1      -3.076  -3.998 -15.994  1.00  0.00    -0.313 NA
ATOM     21  H   UNL     1      -2.457  -4.204 -16.791  1.00  0.00     0.186 HD
ENDBRANCH  19  20
ENDBRANCH  18  19
ENDBRANCH   3  18
TORSDOF 6
ENDMDL
MODEL 3
REMARK VINA RESULT:    -4.148      2.709      8.622
REMARK INTER + INTRA:          -5.518
REMARK INTER:                  -5.306
REMARK INTRA:                  -0.212
REMARK UNBOUND:                -0.037
REMARK SMILES [H]/N=C\C[C@H]1C[C@@H]1O[C@H]1CO[C@H]2C[C@@H](C3CC3)CCN2C1
REMARK SMILES IDX 7 1 6 2 5 3 8 4 9 5 14 6 13 7 18 8 12 9 19 10 20 11 11 12
REMARK SMILES IDX 21 13 10 14 15 15 16 16 17 17 4 18 3 19 2 20 1 21
REMARK H PARENT
ROOT
ATOM      1  C   UNL     1       1.180   3.086 -11.903  1.00  0.00     0.122 C 
ATOM      2  C   UNL     1       0.648   3.927 -13.029  1.00  0.00     0.039 C 
ATOM      3  C   UNL     1       1.659   4.502 -12.079  1.00  0.00     0.026 C 
ENDROOT
BRANCH   1   4
ATOM      4  O   UNL     1       0.231   2.853 -10.845  1.00  0.00    -0.371 OA
BRANCH   4   5
ATOM      5  C   UNL     1      -0.820   1.922 -11.150  1.00  0.00     0.158 C 
ATOM      6  C   UNL     1      -0.791  -0.779  -6.688  1.00  0.00    -0.003 C 
ATOM      7  C   UNL     1       0.131  -0.663  -7.908  1.00  0.00     0.052 C 
ATOM      8  C   UNL     1      -1.477   0.573  -6.441  1.00  0.00     0.019 C 
ATOM      9  C   UNL     1      -0.609  -0.104  -9.131  1.00  0.00     0.189 C 
ATOM     10  C   UNL     1      -2.165   1.090  -7.704  1.00  0.00     0.087 C 
ATOM     11  N   UNL     1      -1.216   1.189  -8.813  1.00  0.00    -0.276 NA
ATOM     12  O   UNL     1       0.355  -0.000 -10.180  1.00  0.00    -0.360 OA
ATOM     13  C   UNL     1      -1.841   1.765 -10.009  1.00  0.00     0.121 C 
ATOM     14  C   UNL     1      -0.185   0.548 -11.386  1.00  0.00     0.195 C 
BRANCH   6  15
ATOM     15  C   UNL     1      -0.032  -1.221  -5.458  1.00  0.00    -0.008 C 
ATOM     16  C   UNL     1      -0.575  -2.324  -4.580  1.00  0.00     0.004 C 
ATOM     17  C   UNL     1       0.650  -2.567  -5.413  1.00  0.00     0.004 C 
ENDBRANCH   6  15
ENDBRANCH   4   5
ENDBRANCH   1   4
BRANCH   3  18
ATOM     18  C   UNL     1       3.048   4.774 -12.573  1.00  0.00     0.053 C 
BRANCH  18  19
ATOM     19  C   UNL     1       3.157   5.500 -13.889  1.00  0.00     0.074 C 
BRANCH  19  20
ATOM     20  N   UNL     1       2.952   6.761 -14.076  1.00  0.00    -0.313 NA
ATOM     21  H   UNL     1       2.092   6.930 -14.616  1.00  0.00     0.186 HD
ENDBRANCH  19  20
ENDBRANCH  18  19
ENDBRANCH   3  18
TORSDOF 6
ENDMDL
MODEL 4
REMARK VINA RESULT:    -3.958      5.510      8.415
REMARK INTER + INTRA:          -5.267
REMARK INTER:                  -5.010
REMARK INTRA:                  -0.257
REMARK UNBOUND:                -0.037
REMARK SMILES [H]/N=C\C[C@H]1C[C@@H]1O[C@H]1CO[C@H]2C[C@@H](C3CC3)CCN2C1
REMARK SMILES IDX 7 1 6 2 5 3 8 4 9 5 14 6 13 7 18 8 12 9 19 10 20 11 11 12
REMARK SMILES IDX 21 13 10 14 15 15 16 16 17 17 4 18 3 19 2 20 1 21
REMARK H PARENT
ROOT
ATOM      1  C   UNL     1      -0.549   0.509 -11.155  1.00  0.00     0.122 C 
ATOM      2  C   UNL     1      -0.467   2.009 -11.104  1.00  0.00     0.039 C 
ATOM      3  C   UNL     1      -1.609   1.298 -10.435  1.00  0.00     0.026 C 
ENDROOT
BRANCH   1   4
ATOM      4  O   UNL     1      -0.904  -0.015 -12.449  1.00  0.00    -0.371 OA
BRANCH   4   5
ATOM      5  C   UNL     1      -0.459  -1.354 -12.718  1.00  0.00     0.158 C 
ATOM      6  C   UNL     1      -3.379  -2.319 -16.931  1.00  0.00    -0.003 C 
ATOM      7  C   UNL     1      -3.635  -2.180 -15.425  1.00  0.00     0.052 C 
ATOM      8  C   UNL     1      -2.221  -1.395 -17.336  1.00  0.00     0.019 C 
ATOM      9  C   UNL     1      -2.353  -2.388 -14.607  1.00  0.00     0.189 C 
ATOM     10  C   UNL     1      -0.989  -1.629 -16.463  1.00  0.00     0.087 C 
ATOM     11  N   UNL     1      -1.312  -1.459 -15.046  1.00  0.00    -0.276 NA
ATOM     12  O   UNL     1      -2.706  -2.190 -13.237  1.00  0.00    -0.360 OA
ATOM     13  C   UNL     1      -0.120  -1.595 -14.200  1.00  0.00     0.121 C 
ATOM     14  C   UNL     1      -1.592  -2.316 -12.348  1.00  0.00     0.195 C 
BRANCH   6  15
ATOM     15  C   UNL     1      -4.618  -2.001 -17.736  1.00  0.00    -0.008 C 
ATOM     16  C   UNL     1      -5.494  -3.113 -18.263  1.00  0.00     0.004 C 
ATOM     17  C   UNL     1      -5.995  -2.227 -17.159  1.00  0.00     0.004 C 
ENDBRANCH   6  15
ENDBRANCH   4   5
ENDBRANCH   1   4
BRANCH   3  18
ATOM     18  C   UNL     1      -1.676   1.280  -8.937  1.00  0.00     0.053 C 
BRANCH  18  19
ATOM     19  C   UNL     1      -2.986   1.704  -8.324  1.00  0.00     0.074 C 
BRANCH  19  20
ATOM     20  N   UNL     1      -3.914   2.381  -8.914  1.00  0.00    -0.313 NA
ATOM     21  H   UNL     1      -4.850   2.109  -8.584  1.00  0.00     0.186 HD
ENDBRANCH  19  20
ENDBRANCH  18  19
ENDBRANCH   3  18
TORSDOF 6
ENDMDL
MODEL 5
REMARK VINA RESULT:    -3.563      2.049      2.416
REMARK INTER + INTRA:          -4.746
REMARK INTER:                  -5.230
REMARK INTRA:                   0.485
REMARK UNBOUND:                -0.037
REMARK SMILES [H]/N=C\C[C@H]1C[C@@H]1O[C@H]1CO[C@H]2C[C@@H](C3CC3)CCN2C1
REMARK SMILES IDX 7 1 6 2 5 3 8 4 9 5 14 6 13 7 18 8 12 9 19 10 20 11 11 12
REMARK SMILES IDX 21 13 10 14 15 15 16 16 17 17 4 18 3 19 2 20 1 21
REMARK H PARENT
ROOT
ATOM      1  C   UNL     1      -0.168   1.457 -11.857  1.00  0.00     0.122 C 
ATOM      2  C   UNL     1       0.232   0.422 -10.843  1.00  0.00     0.039 C 
ATOM      3  C   UNL     1      -0.695   1.537 -10.450  1.00  0.00     0.026 C 
ENDROOT
BRANCH   1   4
ATOM      4  O   UNL     1       0.885   2.376 -12.204  1.00  0.00    -0.371 OA
BRANCH   4   5
ATOM      5  C   UNL     1       0.521   3.766 -12.196  1.00  0.00     0.158 C 
ATOM      6  C   UNL     1       4.270   5.574 -15.340  1.00  0.00    -0.003 C 
ATOM      7  C   UNL     1       4.203   5.041 -13.904  1.00  0.00     0.052 C 
ATOM      8  C   UNL     1       3.212   4.862 -16.195  1.00  0.00     0.019 C 
ATOM      9  C   UNL     1       2.781   5.119 -13.332  1.00  0.00     0.189 C 
ATOM     10  C   UNL     1       1.827   4.947 -15.554  1.00  0.00     0.087 C 
ATOM     11  N   UNL     1       1.844   4.402 -14.197  1.00  0.00    -0.276 NA
ATOM     12  O   UNL     1       2.837   4.557 -12.020  1.00  0.00    -0.360 OA
ATOM     13  C   UNL     1       0.503   4.397 -13.600  1.00  0.00     0.121 C 
ATOM     14  C   UNL     1       1.563   4.526 -11.369  1.00  0.00     0.195 C 
BRANCH   6  15
ATOM     15  C   UNL     1       5.646   5.390 -15.938  1.00  0.00    -0.008 C 
ATOM     16  C   UNL     1       6.167   6.360 -16.972  1.00  0.00     0.004 C 
ATOM     17  C   UNL     1       6.770   6.339 -15.598  1.00  0.00     0.004 C 
ENDBRANCH   6  15
ENDBRANCH   4   5
ENDBRANCH   1   4
BRANCH   3  18
ATOM     18  C   UNL     1      -2.132   1.219 -10.162  1.00  0.00     0.053 C 
BRANCH  18  19
ATOM     19  C   UNL     1      -2.762   1.967  -9.015  1.00  0.00     0.074 C 
BRANCH  19  20
ATOM     20  N   UNL     1      -3.986   2.373  -8.958  1.00  0.00    -0.313 NA
ATOM     21  H   UNL     1      -4.303   2.751  -9.861  1.00  0.00     0.186 HD
ENDBRANCH  19  20
ENDBRANCH  18  19
ENDBRANCH   3  18
TORSDOF 6
ENDMDL
MODEL 6
REMARK VINA RESULT:    -3.491      2.704      7.737
REMARK INTER + INTRA:          -4.651
REMARK INTER:                  -5.090
REMARK INTRA:                   0.440
REMARK UNBOUND:                -0.037
REMARK SMILES [H]/N=C\C[C@H]1C[C@@H]1O[C@H]1CO[C@H]2C[C@@H](C3CC3)CCN2C1
REMARK SMILES IDX 7 1 6 2 5 3 8 4 9 5 14 6 13 7 18 8 12 9 19 10 20 11 11 12
REMARK SMILES IDX 21 13 10 14 15 15 16 16 17 17 4 18 3 19 2 20 1 21
REMARK H PARENT
ROOT
ATOM      1  C   UNL     1       4.091   4.586 -17.556  1.00  0.00     0.122 C 
ATOM      2  C   UNL     1       3.775   5.913 -18.186  1.00  0.00     0.039 C 
ATOM      3  C   UNL     1       4.986   5.770 -17.309  1.00  0.00     0.026 C 
ENDROOT
BRANCH   1   4
ATOM      4  O   UNL     1       3.200   4.217 -16.486  1.00  0.00    -0.371 OA
BRANCH   4   5
ATOM      5  C   UNL     1       2.143   5.151 -16.210  1.00  0.00     0.158 C 
ATOM      6  C   UNL     1       0.334   3.009 -11.812  1.00  0.00    -0.003 C 
ATOM      7  C   UNL     1       0.298   2.653 -13.303  1.00  0.00     0.052 C 
ATOM      8  C   UNL     1       1.645   3.744 -11.498  1.00  0.00     0.019 C 
ATOM      9  C   UNL     1       0.554   3.879 -14.189  1.00  0.00     0.189 C 
ATOM     10  C   UNL     1       1.857   4.933 -12.436  1.00  0.00     0.087 C 
ATOM     11  N   UNL     1       1.828   4.507 -13.835  1.00  0.00    -0.276 NA
ATOM     12  O   UNL     1       0.541   3.417 -15.541  1.00  0.00    -0.360 OA
ATOM     13  C   UNL     1       2.116   5.621 -14.745  1.00  0.00     0.121 C 
ATOM     14  C   UNL     1       0.807   4.454 -16.490  1.00  0.00     0.195 C 
BRANCH   6  15
ATOM     15  C   UNL     1       0.195   1.780 -10.943  1.00  0.00    -0.008 C 
ATOM     16  C   UNL     1      -1.149   1.399 -10.369  1.00  0.00     0.004 C 
ATOM     17  C   UNL     1      -0.532   0.556 -11.446  1.00  0.00     0.004 C 
ENDBRANCH   6  15
ENDBRANCH   4   5
ENDBRANCH   1   4
BRANCH   3  18
ATOM     18  C   UNL     1       6.347   5.832 -17.934  1.00  0.00     0.053 C 
BRANCH  18  19
ATOM     19  C   UNL     1       7.437   6.448 -17.096  1.00  0.00     0.074 C 
BRANCH  19  20
ATOM     20  N   UNL     1       8.649   6.679 -17.481  1.00  0.00    -0.313 NA
ATOM     21  H   UNL     1       8.825   6.306 -18.424  1.00  0.00     0.186 HD
ENDBRANCH  19  20
ENDBRANCH  18  19
ENDBRANCH   3  18
TORSDOF 6
ENDMDL
MODEL 7
REMARK VINA RESULT:    -3.476      4.423      5.417
REMARK INTER + INTRA:          -4.630
REMARK INTER:                  -4.585
REMARK INTRA:                  -0.045
REMARK UNBOUND:                -0.037
REMARK SMILES [H]/N=C\C[C@H]1C[C@@H]1O[C@H]1CO[C@H]2C[C@@H](C3CC3)CCN2C1
REMARK SMILES IDX 7 1 6 2 5 3 8 4 9 5 14 6 13 7 18 8 12 9 19 10 20 11 11 12
REMARK SMILES IDX 21 13 10 14 15 15 16 16 17 17 4 18 3 19 2 20 1 21
REMARK H PARENT
ROOT
ATOM      1  C   UNL     1       0.805   3.779 -16.442  1.00  0.00     0.122 C 
ATOM      2  C   UNL     1       0.363   4.329 -17.769  1.00  0.00     0.039 C 
ATOM      3  C   UNL     1       0.811   2.899 -17.662  1.00  0.00     0.026 C 
ENDROOT
BRANCH   1   4
ATOM      4  O   UNL     1       2.083   4.274 -15.998  1.00  0.00    -0.371 OA
BRANCH   4   5
ATOM      5  C   UNL     1       2.041   5.462 -15.191  1.00  0.00     0.158 C 
ATOM      6  C   UNL     1       6.834   7.259 -16.191  1.00  0.00    -0.003 C 
ATOM      7  C   UNL     1       6.243   6.096 -15.385  1.00  0.00     0.052 C 
ATOM      8  C   UNL     1       5.940   7.539 -17.407  1.00  0.00     0.019 C 
ATOM      9  C   UNL     1       4.768   6.336 -15.035  1.00  0.00     0.189 C 
ATOM     10  C   UNL     1       4.481   7.734 -16.995  1.00  0.00     0.087 C 
ATOM     11  N   UNL     1       3.988   6.577 -16.249  1.00  0.00    -0.276 NA
ATOM     12  O   UNL     1       4.321   5.176 -14.331  1.00  0.00    -0.360 OA
ATOM     13  C   UNL     1       2.564   6.711 -15.921  1.00  0.00     0.121 C 
ATOM     14  C   UNL     1       2.938   5.239 -13.969  1.00  0.00     0.195 C 
BRANCH   6  15
ATOM     15  C   UNL     1       8.251   6.967 -16.630  1.00  0.00    -0.008 C 
ATOM     16  C   UNL     1       9.280   8.072 -16.674  1.00  0.00     0.004 C 
ATOM     17  C   UNL     1       9.388   6.991 -15.638  1.00  0.00     0.004 C 
ENDBRANCH   6  15
ENDBRANCH   4   5
ENDBRANCH   1   4
BRANCH   3  18
ATOM     18  C   UNL     1      -0.205   1.806 -17.810  1.00  0.00     0.053 C 
BRANCH  18  19
ATOM     19  C   UNL     1       0.257   0.415 -17.464  1.00  0.00     0.074 C 
BRANCH  19  20
ATOM     20  N   UNL     1       1.272   0.117 -16.723  1.00  0.00    -0.313 NA
ATOM     21  H   UNL     1       2.144   0.078 -17.270  1.00  0.00     0.186 HD
ENDBRANCH  19  20
ENDBRANCH  18  19
ENDBRANCH   3  18
TORSDOF 6
ENDMDL
MODEL 8
REMARK VINA RESULT:    -3.280      3.999      8.324
REMARK INTER + INTRA:          -4.371
REMARK INTER:                  -4.900
REMARK INTRA:                   0.529
REMARK UNBOUND:                -0.037
REMARK SMILES [H]/N=C\C[C@H]1C[C@@H]1O[C@H]1CO[C@H]2C[C@@H](C3CC3)CCN2C1
REMARK SMILES IDX 7 1 6 2 5 3 8 4 9 5 14 6 13 7 18 8 12 9 19 10 20 11 11 12
REMARK SMILES IDX 21 13 10 14 15 15 16 16 17 17 4 18 3 19 2 20 1 21
REMARK H PARENT
ROOT
ATOM      1  C   UNL     1       4.802   8.599 -16.714  1.00  0.00     0.122 C 
ATOM      2  C   UNL     1       4.434   9.432 -15.519  1.00  0.00     0.039 C 
ATOM      3  C   UNL     1       4.402  10.038 -16.892  1.00  0.00     0.026 C 
ENDROOT
BRANCH   1   4
ATOM      4  O   UNL     1       6.208   8.303 -16.813  1.00  0.00    -0.371 OA
BRANCH   4   5
ATOM      5  C   UNL     1       6.537   6.919 -17.012  1.00  0.00     0.158 C 
ATOM      6  C   UNL     1       2.717   4.788 -14.171  1.00  0.00    -0.003 C 
ATOM      7  C   UNL     1       4.007   5.561 -13.872  1.00  0.00     0.052 C 
ATOM      8  C   UNL     1       2.126   5.282 -15.499  1.00  0.00     0.019 C 
ATOM      9  C   UNL     1       4.988   5.510 -15.051  1.00  0.00     0.189 C 
ATOM     10  C   UNL     1       3.161   5.237 -16.622  1.00  0.00     0.087 C 
ATOM     11  N   UNL     1       4.350   6.012 -16.268  1.00  0.00    -0.276 NA
ATOM     12  O   UNL     1       6.121   6.296 -14.676  1.00  0.00    -0.360 OA
ATOM     13  C   UNL     1       5.318   6.051 -17.371  1.00  0.00     0.121 C 
ATOM     14  C   UNL     1       7.115   6.373 -15.702  1.00  0.00     0.195 C 
BRANCH   6  15
ATOM     15  C   UNL     1       1.709   4.938 -13.053  1.00  0.00    -0.008 C 
ATOM     16  C   UNL     1       0.767   3.806 -12.718  1.00  0.00     0.004 C 
ATOM     17  C   UNL     1       1.866   4.170 -11.763  1.00  0.00     0.004 C 
ENDBRANCH   6  15
ENDBRANCH   4   5
ENDBRANCH   1   4
BRANCH   3  18
ATOM     18  C   UNL     1       3.077  10.384 -17.504  1.00  0.00     0.053 C 
BRANCH  18  19
ATOM     19  C   UNL     1       1.920  10.525 -16.549  1.00  0.00     0.074 C 
BRANCH  19  20
ATOM     20  N   UNL     1       0.993   9.649 -16.349  1.00  0.00    -0.313 NA
ATOM     21  H   UNL     1       0.395   9.532 -17.180  1.00  0.00     0.186 HD
ENDBRANCH  19  20
ENDBRANCH  18  19
ENDBRANCH   3  18
TORSDOF 6
ENDMDL
MODEL 9
REMARK VINA RESULT:    -3.265      1.956      2.166
REMARK INTER + INTRA:          -4.352
REMARK INTER:                  -4.347
REMARK INTRA:                  -0.005
REMARK UNBOUND:                -0.037
REMARK SMILES [H]/N=C\C[C@H]1C[C@@H]1O[C@H]1CO[C@H]2C[C@@H](C3CC3)CCN2C1
REMARK SMILES IDX 7 1 6 2 5 3 8 4 9 5 14 6 13 7 18 8 12 9 19 10 20 11 11 12
REMARK SMILES IDX 21 13 10 14 15 15 16 16 17 17 4 18 3 19 2 20 1 21
REMARK H PARENT
ROOT
ATOM      1  C   UNL     1       0.454   1.313 -11.465  1.00  0.00     0.122 C 
ATOM      2  C   UNL     1      -0.963   1.590 -11.049  1.00  0.00     0.039 C 
ATOM      3  C   UNL     1      -0.654   0.398 -11.910  1.00  0.00     0.026 C 
ENDROOT
BRANCH   1   4
ATOM      4  O   UNL     1       0.967   2.230 -12.449  1.00  0.00    -0.371 OA
BRANCH   4   5
ATOM      5  C   UNL     1       0.573   3.602 -12.283  1.00  0.00     0.158 C 
ATOM      6  C   UNL     1       4.202   5.831 -15.294  1.00  0.00    -0.003 C 
ATOM      7  C   UNL     1       4.183   5.145 -13.922  1.00  0.00     0.052 C 
ATOM      8  C   UNL     1       3.140   5.189 -16.197  1.00  0.00     0.019 C 
ATOM      9  C   UNL     1       2.774   5.125 -13.315  1.00  0.00     0.189 C 
ATOM     10  C   UNL     1       1.769   5.170 -15.521  1.00  0.00     0.087 C 
ATOM     11  N   UNL     1       1.832   4.483 -14.231  1.00  0.00    -0.276 NA
ATOM     12  O   UNL     1       2.874   4.427 -12.072  1.00  0.00    -0.360 OA
ATOM     13  C   UNL     1       0.507   4.379 -13.609  1.00  0.00     0.121 C 
ATOM     14  C   UNL     1       1.618   4.294 -11.401  1.00  0.00     0.195 C 
BRANCH   6  15
ATOM     15  C   UNL     1       5.568   5.747 -15.937  1.00  0.00    -0.008 C 
ATOM     16  C   UNL     1       6.122   6.921 -16.710  1.00  0.00     0.004 C 
ATOM     17  C   UNL     1       6.730   6.540 -15.391  1.00  0.00     0.004 C 
ENDBRANCH   6  15
ENDBRANCH   4   5
ENDBRANCH   1   4
BRANCH   3  18
ATOM     18  C   UNL     1      -0.782  -0.975 -11.322  1.00  0.00     0.053 C 
BRANCH  18  19
ATOM     19  C   UNL     1      -1.217  -2.066 -12.266  1.00  0.00     0.074 C 
BRANCH  19  20
ATOM     20  N   UNL     1      -2.241  -2.024 -13.051  1.00  0.00    -0.313 NA
ATOM     21  H   UNL     1      -1.965  -2.101 -14.040  1.00  0.00     0.186 HD
ENDBRANCH  19  20
ENDBRANCH  18  19
ENDBRANCH   3  18
TORSDOF 6
ENDMDL
