MODEL 1
REMARK VINA RESULT:    -6.011      0.000      0.000
REMARK INTER + INTRA:          -7.442
REMARK INTER:                  -7.065
REMARK INTRA:                  -0.376
REMARK UNBOUND:                -0.376
REMARK SMILES Cc1ccc(CNC(=O)NC(=O)c2ccc(C)cc2)cc1
REMARK SMILES IDX 11 1 12 2 10 3 8 4 9 5 7 6 13 9 19 10 18 11 14 12 16 13
REMARK SMILES IDX 15 14 17 15 6 16 5 17 4 18 20 19 3 20 21 21 2 22 1 23
REMARK H PARENT 10 7 7 8
ROOT
ATOM      1  C   UNL     1      -0.216   0.766  -9.399  1.00  0.00     0.259 C 
ATOM      2  O   UNL     1      -0.065   1.966  -9.221  1.00  0.00    -0.269 OA
ATOM      3  N   UNL     1      -0.444   0.080 -10.596  1.00  0.00    -0.274 N 
ATOM      4  C   UNL     1      -0.362   0.334 -11.941  1.00  0.00     0.321 C 
ATOM      5  O   UNL     1      -0.526  -0.615 -12.715  1.00  0.00    -0.248 OA
ATOM      6  N   UNL     1      -0.084   1.547 -12.453  1.00  0.00    -0.334 N 
ATOM      7  H   UNL     1      -0.560  -0.919 -10.488  1.00  0.00     0.175 HD
ATOM      8  H   UNL     1       0.025   1.549 -13.457  1.00  0.00     0.165 HD
ENDROOT
BRANCH   1   9
ATOM      9  C   UNL     1      -0.148  -0.093  -8.200  1.00  0.00     0.040 A 
ATOM     10  C   UNL     1      -1.304  -0.540  -7.558  1.00  0.00     0.014 A 
ATOM     11  C   UNL     1      -1.190  -1.393  -6.460  1.00  0.00     0.004 A 
ATOM     12  C   UNL     1       1.115  -0.445  -7.716  1.00  0.00     0.014 A 
ATOM     13  C   UNL     1       0.072  -1.794  -5.998  1.00  0.00    -0.051 A 
ATOM     14  C   UNL     1       1.225  -1.302  -6.623  1.00  0.00     0.004 A 
ATOM     15  C   UNL     1       0.176  -2.778  -4.870  1.00  0.00     0.044 C 
ENDBRANCH   1   9
BRANCH   6  16
ATOM     16  C   UNL     1       0.239   2.748 -11.736  1.00  0.00     0.153 C 
BRANCH  16  17
ATOM     17  C   UNL     1       0.993   3.815 -12.481  1.00  0.00    -0.029 A 
ATOM     18  C   UNL     1       2.189   4.371 -12.015  1.00  0.00     0.006 A 
ATOM     19  C   UNL     1       0.577   4.100 -13.792  1.00  0.00     0.006 A 
ATOM     20  C   UNL     1       2.962   5.175 -12.859  1.00  0.00     0.004 A 
ATOM     21  C   UNL     1       1.349   4.896 -14.631  1.00  0.00     0.004 A 
ATOM     22  C   UNL     1       2.554   5.433 -14.175  1.00  0.00    -0.051 A 
ATOM     23  C   UNL     1       3.443   6.174 -15.128  1.00  0.00     0.044 C 
ENDBRANCH  16  17
ENDBRANCH   6  16
TORSDOF 3
ENDMDL
MODEL 2
REMARK VINA RESULT:    -5.999      3.230      5.515
REMARK INTER + INTRA:          -7.427
REMARK INTER:                  -7.048
REMARK INTRA:                  -0.379
REMARK UNBOUND:                -0.376
REMARK SMILES Cc1ccc(CNC(=O)NC(=O)c2ccc(C)cc2)cc1
REMARK SMILES IDX 11 1 12 2 10 3 8 4 9 5 7 6 13 9 19 10 18 11 14 12 16 13
REMARK SMILES IDX 15 14 17 15 6 16 5 17 4 18 20 19 3 20 21 21 2 22 1 23
REMARK H PARENT 10 7 7 8
ROOT
ATOM      1  C   UNL     1      -0.462   0.455  -9.496  1.00  0.00     0.259 C 
ATOM      2  O   UNL     1      -0.591  -0.742  -9.713  1.00  0.00    -0.269 OA
ATOM      3  N   UNL     1      -0.090   1.470 -10.383  1.00  0.00    -0.274 N 
ATOM      4  C   UNL     1       0.035   1.636 -11.738  1.00  0.00     0.321 C 
ATOM      5  O   UNL     1       0.273   2.774 -12.157  1.00  0.00    -0.248 OA
ATOM      6  N   UNL     1      -0.118   0.638 -12.627  1.00  0.00    -0.334 N 
ATOM      7  H   UNL     1      -0.030   2.389  -9.963  1.00  0.00     0.175 HD
ATOM      8  H   UNL     1      -0.080   0.941 -13.590  1.00  0.00     0.165 HD
ENDROOT
BRANCH   1   9
ATOM      9  C   UNL     1      -0.738   0.910  -8.120  1.00  0.00     0.040 A 
ATOM     10  C   UNL     1       0.293   1.116  -7.201  1.00  0.00     0.014 A 
ATOM     11  C   UNL     1      -0.012   1.597  -5.927  1.00  0.00     0.004 A 
ATOM     12  C   UNL     1      -2.070   1.125  -7.753  1.00  0.00     0.014 A 
ATOM     13  C   UNL     1      -1.341   1.866  -5.567  1.00  0.00    -0.051 A 
ATOM     14  C   UNL     1      -2.369   1.612  -6.482  1.00  0.00     0.004 A 
ATOM     15  C   UNL     1      -1.644   2.463  -4.224  1.00  0.00     0.044 C 
ENDBRANCH   1   9
BRANCH   6  16
ATOM     16  C   UNL     1      -0.494  -0.722 -12.362  1.00  0.00     0.153 C 
BRANCH  16  17
ATOM     17  C   UNL     1      -1.112  -1.500 -13.491  1.00  0.00    -0.029 A 
ATOM     18  C   UNL     1      -2.364  -2.116 -13.398  1.00  0.00     0.006 A 
ATOM     19  C   UNL     1      -0.488  -1.416 -14.746  1.00  0.00     0.006 A 
ATOM     20  C   UNL     1      -2.986  -2.614 -14.548  1.00  0.00     0.004 A 
ATOM     21  C   UNL     1      -1.110  -1.907 -15.890  1.00  0.00     0.004 A 
ATOM     22  C   UNL     1      -2.370  -2.502 -15.802  1.00  0.00    -0.051 A 
ATOM     23  C   UNL     1      -3.090  -2.903 -17.055  1.00  0.00     0.044 C 
ENDBRANCH  16  17
ENDBRANCH   6  16
TORSDOF 3
ENDMDL
MODEL 3
REMARK VINA RESULT:    -5.851      0.558      8.008
REMARK INTER + INTRA:          -7.254
REMARK INTER:                  -6.756
REMARK INTRA:                  -0.498
REMARK UNBOUND:                -0.376
REMARK SMILES Cc1ccc(CNC(=O)NC(=O)c2ccc(C)cc2)cc1
REMARK SMILES IDX 11 1 12 2 10 3 8 4 9 5 7 6 13 9 19 10 18 11 14 12 16 13
REMARK SMILES IDX 15 14 17 15 6 16 5 17 4 18 20 19 3 20 21 21 2 22 1 23
REMARK H PARENT 10 7 7 8
ROOT
ATOM      1  C   UNL     1       0.604   2.598 -11.520  1.00  0.00     0.259 C 
ATOM      2  O   UNL     1       0.550   2.866 -10.328  1.00  0.00    -0.269 OA
ATOM      3  N   UNL     1       0.190   1.433 -12.175  1.00  0.00    -0.274 N 
ATOM      4  C   UNL     1      -0.577   0.332 -11.896  1.00  0.00     0.321 C 
ATOM      5  O   UNL     1      -0.823  -0.446 -12.824  1.00  0.00    -0.248 OA
ATOM      6  N   UNL     1      -1.095   0.074 -10.681  1.00  0.00    -0.334 N 
ATOM      7  H   UNL     1       0.358   1.434 -13.172  1.00  0.00     0.175 HD
ATOM      8  H   UNL     1      -1.707  -0.729 -10.661  1.00  0.00     0.165 HD
ENDROOT
BRANCH   1   9
ATOM      9  C   UNL     1       1.174   3.632 -12.404  1.00  0.00     0.040 A 
ATOM     10  C   UNL     1       2.324   4.340 -12.049  1.00  0.00     0.014 A 
ATOM     11  C   UNL     1       2.856   5.271 -12.941  1.00  0.00     0.004 A 
ATOM     12  C   UNL     1       0.524   3.893 -13.615  1.00  0.00     0.014 A 
ATOM     13  C   UNL     1       2.241   5.503 -14.180  1.00  0.00    -0.051 A 
ATOM     14  C   UNL     1       1.063   4.819 -14.505  1.00  0.00     0.004 A 
ATOM     15  C   UNL     1       2.873   6.444 -15.163  1.00  0.00     0.044 C 
ENDBRANCH   1   9
BRANCH   6  16
ATOM     16  C   UNL     1      -1.018   0.893  -9.504  1.00  0.00     0.153 C 
BRANCH  16  17
ATOM     17  C   UNL     1      -0.683   0.208  -8.208  1.00  0.00    -0.029 A 
ATOM     18  C   UNL     1      -1.656  -0.267  -7.322  1.00  0.00     0.006 A 
ATOM     19  C   UNL     1       0.659  -0.147  -7.996  1.00  0.00     0.006 A 
ATOM     20  C   UNL     1      -1.288  -1.101  -6.261  1.00  0.00     0.004 A 
ATOM     21  C   UNL     1       1.022  -0.980  -6.943  1.00  0.00     0.004 A 
ATOM     22  C   UNL     1       0.050  -1.474  -6.072  1.00  0.00    -0.051 A 
ATOM     23  C   UNL     1       0.431  -2.479  -5.026  1.00  0.00     0.044 C 
ENDBRANCH  16  17
ENDBRANCH   6  16
TORSDOF 3
ENDMDL
MODEL 4
REMARK VINA RESULT:    -5.840      3.114      7.335
REMARK INTER + INTRA:          -7.241
REMARK INTER:                  -6.746
REMARK INTRA:                  -0.495
REMARK UNBOUND:                -0.376
REMARK SMILES Cc1ccc(CNC(=O)NC(=O)c2ccc(C)cc2)cc1
REMARK SMILES IDX 11 1 12 2 10 3 8 4 9 5 7 6 13 9 19 10 18 11 14 12 16 13
REMARK SMILES IDX 15 14 17 15 6 16 5 17 4 18 20 19 3 20 21 21 2 22 1 23
REMARK H PARENT 10 7 7 8
ROOT
ATOM      1  C   UNL     1      -0.914  -0.648 -12.148  1.00  0.00     0.259 C 
ATOM      2  O   UNL     1      -1.042  -1.264 -11.100  1.00  0.00    -0.269 OA
ATOM      3  N   UNL     1      -0.431   0.649 -12.347  1.00  0.00    -0.274 N 
ATOM      4  C   UNL     1       0.256   1.596 -11.632  1.00  0.00     0.321 C 
ATOM      5  O   UNL     1       0.626   2.611 -12.231  1.00  0.00    -0.248 OA
ATOM      6  N   UNL     1       0.570   1.461 -10.330  1.00  0.00    -0.334 N 
ATOM      7  H   UNL     1      -0.440   0.954 -13.312  1.00  0.00     0.175 HD
ATOM      8  H   UNL     1       1.152   2.206  -9.973  1.00  0.00     0.165 HD
ENDROOT
BRANCH   1   9
ATOM      9  C   UNL     1      -1.314  -1.352 -13.381  1.00  0.00     0.040 A 
ATOM     10  C   UNL     1      -2.490  -2.102 -13.443  1.00  0.00     0.014 A 
ATOM     11  C   UNL     1      -2.853  -2.707 -14.646  1.00  0.00     0.004 A 
ATOM     12  C   UNL     1      -0.474  -1.255 -14.495  1.00  0.00     0.014 A 
ATOM     13  C   UNL     1      -2.043  -2.572 -15.784  1.00  0.00    -0.051 A 
ATOM     14  C   UNL     1      -0.844  -1.855 -15.697  1.00  0.00     0.004 A 
ATOM     15  C   UNL     1      -2.490  -3.157 -17.092  1.00  0.00     0.044 C 
ENDBRANCH   1   9
BRANCH   6  16
ATOM     16  C   UNL     1       0.329   0.328  -9.483  1.00  0.00     0.153 C 
BRANCH  16  17
ATOM     17  C   UNL     1      -0.212   0.598  -8.106  1.00  0.00    -0.029 A 
ATOM     18  C   UNL     1       0.604   0.737  -6.979  1.00  0.00     0.006 A 
ATOM     19  C   UNL     1      -1.573   0.928  -8.004  1.00  0.00     0.006 A 
ATOM     20  C   UNL     1       0.067   1.223  -5.782  1.00  0.00     0.004 A 
ATOM     21  C   UNL     1      -2.104   1.416  -6.814  1.00  0.00     0.004 A 
ATOM     22  C   UNL     1      -1.286   1.577  -5.695  1.00  0.00    -0.051 A 
ATOM     23  C   UNL     1      -1.835   2.231  -4.462  1.00  0.00     0.044 C 
ENDBRANCH  16  17
ENDBRANCH   6  16
TORSDOF 3
ENDMDL
MODEL 5
REMARK VINA RESULT:    -5.167      5.026      8.073
REMARK INTER + INTRA:          -6.450
REMARK INTER:                  -6.177
REMARK INTRA:                  -0.273
REMARK UNBOUND:                -0.376
REMARK SMILES Cc1ccc(CNC(=O)NC(=O)c2ccc(C)cc2)cc1
REMARK SMILES IDX 11 1 12 2 10 3 8 4 9 5 7 6 13 9 19 10 18 11 14 12 16 13
REMARK SMILES IDX 15 14 17 15 6 16 5 17 4 18 20 19 3 20 21 21 2 22 1 23
REMARK H PARENT 10 7 7 8
ROOT
ATOM      1  C   UNL     1       2.598   5.930 -15.297  1.00  0.00     0.259 C 
ATOM      2  O   UNL     1       3.520   5.397 -15.898  1.00  0.00    -0.269 OA
ATOM      3  N   UNL     1       2.042   7.198 -15.493  1.00  0.00    -0.274 N 
ATOM      4  C   UNL     1       2.073   8.181 -16.449  1.00  0.00     0.321 C 
ATOM      5  O   UNL     1       1.306   9.140 -16.310  1.00  0.00    -0.248 OA
ATOM      6  N   UNL     1       2.866   8.138 -17.535  1.00  0.00    -0.334 N 
ATOM      7  H   UNL     1       1.294   7.429 -14.852  1.00  0.00     0.175 HD
ATOM      8  H   UNL     1       2.707   8.895 -18.185  1.00  0.00     0.165 HD
ENDROOT
BRANCH   1   9
ATOM      9  C   UNL     1       1.971   5.143 -14.217  1.00  0.00     0.040 A 
ATOM     10  C   UNL     1       0.756   4.482 -14.409  1.00  0.00     0.014 A 
ATOM     11  C   UNL     1       0.229   3.707 -13.375  1.00  0.00     0.004 A 
ATOM     12  C   UNL     1       2.627   5.082 -12.983  1.00  0.00     0.014 A 
ATOM     13  C   UNL     1       0.905   3.597 -12.151  1.00  0.00    -0.051 A 
ATOM     14  C   UNL     1       2.099   4.301 -11.956  1.00  0.00     0.004 A 
ATOM     15  C   UNL     1       0.368   2.693 -11.080  1.00  0.00     0.044 C 
ENDBRANCH   1   9
BRANCH   6  16
ATOM     16  C   UNL     1       3.746   7.076 -17.936  1.00  0.00     0.153 C 
BRANCH  16  17
ATOM     17  C   UNL     1       5.215   7.263 -17.678  1.00  0.00    -0.029 A 
ATOM     18  C   UNL     1       5.754   8.441 -17.149  1.00  0.00     0.006 A 
ATOM     19  C   UNL     1       6.036   6.128 -17.781  1.00  0.00     0.006 A 
ATOM     20  C   UNL     1       7.081   8.467 -16.710  1.00  0.00     0.004 A 
ATOM     21  C   UNL     1       7.354   6.155 -17.339  1.00  0.00     0.004 A 
ATOM     22  C   UNL     1       7.886   7.322 -16.790  1.00  0.00    -0.051 A 
ATOM     23  C   UNL     1       9.261   7.302 -16.192  1.00  0.00     0.044 C 
ENDBRANCH  16  17
ENDBRANCH   6  16
TORSDOF 3
ENDMDL
MODEL 6
REMARK VINA RESULT:    -4.572      2.373      4.178
REMARK INTER + INTRA:          -5.750
REMARK INTER:                  -5.344
REMARK INTRA:                  -0.406
REMARK UNBOUND:                -0.376
REMARK SMILES Cc1ccc(CNC(=O)NC(=O)c2ccc(C)cc2)cc1
REMARK SMILES IDX 11 1 12 2 10 3 8 4 9 5 7 6 13 9 19 10 18 11 14 12 16 13
REMARK SMILES IDX 15 14 17 15 6 16 5 17 4 18 20 19 3 20 21 21 2 22 1 23
REMARK H PARENT 10 7 7 8
ROOT
ATOM      1  C   UNL     1       0.833   3.346 -11.911  1.00  0.00     0.259 C 
ATOM      2  O   UNL     1       1.656   4.108 -11.424  1.00  0.00    -0.269 OA
ATOM      3  N   UNL     1       0.282   3.357 -13.197  1.00  0.00    -0.274 N 
ATOM      4  C   UNL     1       0.539   3.955 -14.404  1.00  0.00     0.321 C 
ATOM      5  O   UNL     1      -0.128   3.590 -15.378  1.00  0.00    -0.248 OA
ATOM      6  N   UNL     1       1.493   4.888 -14.584  1.00  0.00    -0.334 N 
ATOM      7  H   UNL     1      -0.402   2.632 -13.364  1.00  0.00     0.175 HD
ATOM      8  H   UNL     1       1.613   5.165 -15.548  1.00  0.00     0.165 HD
ENDROOT
BRANCH   1   9
ATOM      9  C   UNL     1       0.347   2.256 -11.043  1.00  0.00     0.040 A 
ATOM     10  C   UNL     1       1.157   1.165 -10.722  1.00  0.00     0.014 A 
ATOM     11  C   UNL     1       0.672   0.186  -9.854  1.00  0.00     0.004 A 
ATOM     12  C   UNL     1      -0.959   2.341 -10.552  1.00  0.00     0.014 A 
ATOM     13  C   UNL     1      -0.620   0.288  -9.315  1.00  0.00    -0.051 A 
ATOM     14  C   UNL     1      -1.438   1.364  -9.681  1.00  0.00     0.004 A 
ATOM     15  C   UNL     1      -1.095  -0.728  -8.318  1.00  0.00     0.044 C 
ENDBRANCH   1   9
BRANCH   6  16
ATOM     16  C   UNL     1       2.438   5.372 -13.619  1.00  0.00     0.153 C 
BRANCH  16  17
ATOM     17  C   UNL     1       3.814   5.719 -14.115  1.00  0.00    -0.029 A 
ATOM     18  C   UNL     1       4.788   4.757 -14.401  1.00  0.00     0.006 A 
ATOM     19  C   UNL     1       4.043   7.051 -14.500  1.00  0.00     0.006 A 
ATOM     20  C   UNL     1       5.954   5.122 -15.082  1.00  0.00     0.004 A 
ATOM     21  C   UNL     1       5.201   7.411 -15.181  1.00  0.00     0.004 A 
ATOM     22  C   UNL     1       6.163   6.447 -15.488  1.00  0.00    -0.051 A 
ATOM     23  C   UNL     1       7.339   6.818 -16.340  1.00  0.00     0.044 C 
ENDBRANCH  16  17
ENDBRANCH   6  16
TORSDOF 3
ENDMDL
MODEL 7
REMARK VINA RESULT:    -4.360      3.854      7.824
REMARK INTER + INTRA:          -5.501
REMARK INTER:                  -5.083
REMARK INTRA:                  -0.418
REMARK UNBOUND:                -0.376
REMARK SMILES Cc1ccc(CNC(=O)NC(=O)c2ccc(C)cc2)cc1
REMARK SMILES IDX 11 1 12 2 10 3 8 4 9 5 7 6 13 9 19 10 18 11 14 12 16 13
REMARK SMILES IDX 15 14 17 15 6 16 5 17 4 18 20 19 3 20 21 21 2 22 1 23
REMARK H PARENT 10 7 7 8
ROOT
ATOM      1  C   UNL     1      -0.507  -0.452 -11.417  1.00  0.00     0.259 C 
ATOM      2  O   UNL     1      -1.371   0.134 -10.781  1.00  0.00    -0.269 OA
ATOM      3  N   UNL     1       0.848  -0.616 -11.109  1.00  0.00    -0.274 N 
ATOM      4  C   UNL     1       1.665  -0.459 -10.019  1.00  0.00     0.321 C 
ATOM      5  O   UNL     1       2.832  -0.854 -10.116  1.00  0.00    -0.248 OA
ATOM      6  N   UNL     1       1.255   0.070  -8.851  1.00  0.00    -0.334 N 
ATOM      7  H   UNL     1       1.375  -1.126 -11.806  1.00  0.00     0.175 HD
ATOM      8  H   UNL     1       1.953   0.036  -8.122  1.00  0.00     0.165 HD
ENDROOT
BRANCH   1   9
ATOM      9  C   UNL     1      -0.931  -1.082 -12.682  1.00  0.00     0.040 A 
ATOM     10  C   UNL     1      -2.072  -1.884 -12.749  1.00  0.00     0.014 A 
ATOM     11  C   UNL     1      -2.463  -2.416 -13.978  1.00  0.00     0.004 A 
ATOM     12  C   UNL     1      -0.151  -0.860 -13.821  1.00  0.00     0.014 A 
ATOM     13  C   UNL     1      -1.716  -2.156 -15.137  1.00  0.00    -0.051 A 
ATOM     14  C   UNL     1      -0.549  -1.387 -15.048  1.00  0.00     0.004 A 
ATOM     15  C   UNL     1      -2.196  -2.664 -16.464  1.00  0.00     0.044 C 
ENDBRANCH   1   9
BRANCH   6  16
ATOM     16  C   UNL     1      -0.071   0.490  -8.498  1.00  0.00     0.153 C 
BRANCH  16  17
ATOM     17  C   UNL     1      -0.527   0.225  -7.090  1.00  0.00    -0.029 A 
ATOM     18  C   UNL     1      -0.707  -1.063  -6.575  1.00  0.00     0.006 A 
ATOM     19  C   UNL     1      -0.564   1.319  -6.209  1.00  0.00     0.006 A 
ATOM     20  C   UNL     1      -0.895  -1.248  -5.201  1.00  0.00     0.004 A 
ATOM     21  C   UNL     1      -0.747   1.133  -4.843  1.00  0.00     0.004 A 
ATOM     22  C   UNL     1      -0.904  -0.154  -4.325  1.00  0.00    -0.051 A 
ATOM     23  C   UNL     1      -0.962  -0.355  -2.840  1.00  0.00     0.044 C 
ENDBRANCH  16  17
ENDBRANCH   6  16
TORSDOF 3
ENDMDL
MODEL 8
REMARK VINA RESULT:    -4.346      4.645      7.479
REMARK INTER + INTRA:          -5.485
REMARK INTER:                  -4.907
REMARK INTRA:                  -0.578
REMARK UNBOUND:                -0.376
REMARK SMILES Cc1ccc(CNC(=O)NC(=O)c2ccc(C)cc2)cc1
REMARK SMILES IDX 11 1 12 2 10 3 8 4 9 5 7 6 13 9 19 10 18 11 14 12 16 13
REMARK SMILES IDX 15 14 17 15 6 16 5 17 4 18 20 19 3 20 21 21 2 22 1 23
REMARK H PARENT 10 7 7 8
ROOT
ATOM      1  C   UNL     1       2.222   5.704 -14.837  1.00  0.00     0.259 C 
ATOM      2  O   UNL     1       2.680   6.784 -14.492  1.00  0.00    -0.269 OA
ATOM      3  N   UNL     1       2.124   5.166 -16.124  1.00  0.00    -0.274 N 
ATOM      4  C   UNL     1       2.636   5.420 -17.370  1.00  0.00     0.321 C 
ATOM      5  O   UNL     1       2.403   4.599 -18.264  1.00  0.00    -0.248 OA
ATOM      6  N   UNL     1       3.398   6.492 -17.658  1.00  0.00    -0.334 N 
ATOM      7  H   UNL     1       1.684   4.256 -16.163  1.00  0.00     0.175 HD
ATOM      8  H   UNL     1       3.767   6.489 -18.598  1.00  0.00     0.165 HD
ENDROOT
BRANCH   1   9
ATOM      9  C   UNL     1       1.702   4.834 -13.765  1.00  0.00     0.040 A 
ATOM     10  C   UNL     1       2.343   4.741 -12.528  1.00  0.00     0.014 A 
ATOM     11  C   UNL     1       1.784   3.945 -11.527  1.00  0.00     0.004 A 
ATOM     12  C   UNL     1       0.544   4.093 -14.023  1.00  0.00     0.014 A 
ATOM     13  C   UNL     1       0.595   3.239 -11.759  1.00  0.00    -0.051 A 
ATOM     14  C   UNL     1      -0.014   3.306 -13.018  1.00  0.00     0.004 A 
ATOM     15  C   UNL     1      -0.038   2.456 -10.646  1.00  0.00     0.044 C 
ENDBRANCH   1   9
BRANCH   6  16
ATOM     16  C   UNL     1       3.868   7.500 -16.751  1.00  0.00     0.153 C 
BRANCH  16  17
ATOM     17  C   UNL     1       5.334   7.500 -16.419  1.00  0.00    -0.029 A 
ATOM     18  C   UNL     1       5.965   6.446 -15.749  1.00  0.00     0.006 A 
ATOM     19  C   UNL     1       6.125   8.507 -16.996  1.00  0.00     0.006 A 
ATOM     20  C   UNL     1       7.362   6.394 -15.684  1.00  0.00     0.004 A 
ATOM     21  C   UNL     1       7.514   8.451 -16.934  1.00  0.00     0.004 A 
ATOM     22  C   UNL     1       8.145   7.388 -16.286  1.00  0.00    -0.051 A 
ATOM     23  C   UNL     1       9.638   7.265 -16.344  1.00  0.00     0.044 C 
ENDBRANCH  16  17
ENDBRANCH   6  16
TORSDOF 3
ENDMDL
MODEL 9
REMARK VINA RESULT:    -4.234      4.987      7.390
REMARK INTER + INTRA:          -5.353
REMARK INTER:                  -4.966
REMARK INTRA:                  -0.387
REMARK UNBOUND:                -0.376
REMARK SMILES Cc1ccc(CNC(=O)NC(=O)c2ccc(C)cc2)cc1
REMARK SMILES IDX 11 1 12 2 10 3 8 4 9 5 7 6 13 9 19 10 18 11 14 12 16 13
REMARK SMILES IDX 15 14 17 15 6 16 5 17 4 18 20 19 3 20 21 21 2 22 1 23
REMARK H PARENT 10 7 7 8
ROOT
ATOM      1  C   UNL     1      -0.858  -1.091 -13.011  1.00  0.00     0.259 C 
ATOM      2  O   UNL     1      -1.667  -2.008 -13.009  1.00  0.00    -0.269 OA
ATOM      3  N   UNL     1      -0.096  -0.599 -14.075  1.00  0.00    -0.274 N 
ATOM      4  C   UNL     1      -0.075  -0.706 -15.442  1.00  0.00     0.321 C 
ATOM      5  O   UNL     1       0.707   0.022 -16.063  1.00  0.00    -0.248 OA
ATOM      6  N   UNL     1      -0.879  -1.534 -16.135  1.00  0.00    -0.334 N 
ATOM      7  H   UNL     1       0.526   0.160 -13.827  1.00  0.00     0.175 HD
ATOM      8  H   UNL     1      -0.801  -1.431 -17.137  1.00  0.00     0.165 HD
ENDROOT
BRANCH   1   9
ATOM      9  C   UNL     1      -0.648  -0.393 -11.728  1.00  0.00     0.040 A 
ATOM     10  C   UNL     1      -1.557   0.557 -11.258  1.00  0.00     0.014 A 
ATOM     11  C   UNL     1      -1.343   1.152 -10.015  1.00  0.00     0.004 A 
ATOM     12  C   UNL     1       0.500  -0.703 -10.991  1.00  0.00     0.014 A 
ATOM     13  C   UNL     1      -0.222   0.809  -9.244  1.00  0.00    -0.051 A 
ATOM     14  C   UNL     1       0.706  -0.111  -9.747  1.00  0.00     0.004 A 
ATOM     15  C   UNL     1      -0.050   1.394  -7.873  1.00  0.00     0.044 C 
ENDBRANCH   1   9
BRANCH   6  16
ATOM     16  C   UNL     1      -1.919  -2.379 -15.621  1.00  0.00     0.153 C 
BRANCH  16  17
ATOM     17  C   UNL     1      -3.115  -2.614 -16.502  1.00  0.00    -0.029 A 
ATOM     18  C   UNL     1      -3.566  -3.890 -16.852  1.00  0.00     0.006 A 
ATOM     19  C   UNL     1      -3.922  -1.503 -16.800  1.00  0.00     0.006 A 
ATOM     20  C   UNL     1      -4.813  -4.048 -17.468  1.00  0.00     0.004 A 
ATOM     21  C   UNL     1      -5.163  -1.662 -17.408  1.00  0.00     0.004 A 
ATOM     22  C   UNL     1      -5.624  -2.938 -17.738  1.00  0.00    -0.051 A 
ATOM     23  C   UNL     1      -7.017  -3.110 -18.265  1.00  0.00     0.044 C 
ENDBRANCH  16  17
ENDBRANCH   6  16
TORSDOF 3
ENDMDL
