MODEL 1
REMARK VINA RESULT:    -3.775      0.000      0.000
REMARK INTER + INTRA:          -5.200
REMARK INTER:                  -4.988
REMARK INTRA:                  -0.211
REMARK UNBOUND:                -0.211
REMARK SMILES [H]/N=C\C[C@H]1C[C@@H]1O[C@H]1CO[C@H]2C[C@@H](C3CC3)CCN2C1
REMARK SMILES IDX 7 1 6 2 5 3 8 4 9 5 14 6 13 7 18 8 12 9 19 10 20 11 11 12
REMARK SMILES IDX 21 13 10 14 15 15 16 16 17 17 4 18 3 19 2 20 1 21
REMARK H PARENT
ROOT
ATOM      1  C   UNL     1      -6.068  -5.491   9.796  1.00  0.00     0.122 C 
ATOM      2  C   UNL     1      -4.772  -6.033  10.330  1.00  0.00     0.039 C 
ATOM      3  C   UNL     1      -5.310  -6.532   9.019  1.00  0.00     0.026 C 
ENDROOT
BRANCH   1   4
ATOM      4  O   UNL     1      -7.233  -5.942  10.513  1.00  0.00    -0.371 OA
BRANCH   4   5
ATOM      5  C   UNL     1      -8.256  -4.955  10.716  1.00  0.00     0.158 C 
ATOM      6  C   UNL     1     -12.192  -8.149  11.948  1.00  0.00    -0.003 C 
ATOM      7  C   UNL     1     -11.420  -7.799  10.669  1.00  0.00     0.052 C 
ATOM      8  C   UNL     1     -11.250  -8.041  13.155  1.00  0.00     0.019 C 
ATOM      9  C   UNL     1     -10.706  -6.445  10.787  1.00  0.00     0.189 C 
ATOM     10  C   UNL     1     -10.546  -6.685  13.195  1.00  0.00     0.087 C 
ATOM     11  N   UNL     1      -9.819  -6.436  11.950  1.00  0.00    -0.276 NA
ATOM     12  O   UNL     1      -9.991  -6.253   9.565  1.00  0.00    -0.360 OA
ATOM     13  C   UNL     1      -9.066  -5.178  12.006  1.00  0.00     0.121 C 
ATOM     14  C   UNL     1      -9.237  -5.037   9.542  1.00  0.00     0.195 C 
BRANCH   6  15
ATOM     15  C   UNL     1     -12.798  -9.531  11.869  1.00  0.00    -0.008 C 
ATOM     16  C   UNL     1     -14.161  -9.803  12.462  1.00  0.00     0.004 C 
ATOM     17  C   UNL     1     -13.980  -9.808  10.972  1.00  0.00     0.004 C 
ENDBRANCH   6  15
ENDBRANCH   4   5
ENDBRANCH   1   4
BRANCH   3  18
ATOM     18  C   UNL     1      -4.597  -6.161   7.753  1.00  0.00     0.053 C 
BRANCH  18  19
ATOM     19  C   UNL     1      -4.608  -7.193   6.656  1.00  0.00     0.074 C 
BRANCH  19  20
ATOM     20  N   UNL     1      -4.609  -8.474   6.821  1.00  0.00    -0.313 NA
ATOM     21  H   UNL     1      -3.737  -8.801   7.260  1.00  0.00     0.186 HD
ENDBRANCH  19  20
ENDBRANCH  18  19
ENDBRANCH   3  18
TORSDOF 6
ENDMDL
MODEL 2
REMARK VINA RESULT:    -3.694      3.866      7.759
REMARK INTER + INTRA:          -5.093
REMARK INTER:                  -4.732
REMARK INTRA:                  -0.361
REMARK UNBOUND:                -0.211
REMARK SMILES [H]/N=C\C[C@H]1C[C@@H]1O[C@H]1CO[C@H]2C[C@@H](C3CC3)CCN2C1
REMARK SMILES IDX 7 1 6 2 5 3 8 4 9 5 14 6 13 7 18 8 12 9 19 10 20 11 11 12
REMARK SMILES IDX 21 13 10 14 15 15 16 16 17 17 4 18 3 19 2 20 1 21
REMARK H PARENT
ROOT
ATOM      1  C   UNL     1     -12.734 -10.460  15.006  1.00  0.00     0.122 C 
ATOM      2  C   UNL     1     -11.357 -10.857  14.553  1.00  0.00     0.039 C 
ATOM      3  C   UNL     1     -11.905 -11.394  15.844  1.00  0.00     0.026 C 
ENDROOT
BRANCH   1   4
ATOM      4  O   UNL     1     -12.831  -9.097  15.463  1.00  0.00    -0.371 OA
BRANCH   4   5
ATOM      5  C   UNL     1     -13.837  -8.298  14.821  1.00  0.00     0.158 C 
ATOM      6  C   UNL     1     -11.023  -6.605  10.768  1.00  0.00    -0.003 C 
ATOM      7  C   UNL     1     -11.060  -6.322  12.275  1.00  0.00     0.052 C 
ATOM      8  C   UNL     1     -11.416  -8.068  10.518  1.00  0.00     0.019 C 
ATOM      9  C   UNL     1     -12.403  -6.724  12.898  1.00  0.00     0.189 C 
ATOM     10  C   UNL     1     -12.743  -8.413  11.192  1.00  0.00     0.087 C 
ATOM     11  N   UNL     1     -12.690  -8.133  12.627  1.00  0.00    -0.276 NA
ATOM     12  O   UNL     1     -12.300  -6.458  14.299  1.00  0.00    -0.360 OA
ATOM     13  C   UNL     1     -13.927  -8.540  13.303  1.00  0.00     0.121 C 
ATOM     14  C   UNL     1     -13.477  -6.823  15.026  1.00  0.00     0.195 C 
BRANCH   6  15
ATOM     15  C   UNL     1      -9.661  -6.313  10.182  1.00  0.00    -0.008 C 
ATOM     16  C   UNL     1      -9.375  -4.975   9.542  1.00  0.00     0.004 C 
ATOM     17  C   UNL     1      -8.726  -5.332  10.847  1.00  0.00     0.004 C 
ENDBRANCH   6  15
ENDBRANCH   4   5
ENDBRANCH   1   4
BRANCH   3  18
ATOM     18  C   UNL     1     -12.263 -12.848  15.933  1.00  0.00     0.053 C 
BRANCH  18  19
ATOM     19  C   UNL     1     -11.139 -13.790  16.277  1.00  0.00     0.074 C 
BRANCH  19  20
ATOM     20  N   UNL     1     -10.519 -14.564  15.450  1.00  0.00    -0.313 NA
ATOM     21  H   UNL     1     -10.040 -14.026  14.714  1.00  0.00     0.186 HD
ENDBRANCH  19  20
ENDBRANCH  18  19
ENDBRANCH   3  18
TORSDOF 6
ENDMDL
MODEL 3
REMARK VINA RESULT:    -3.568      5.212      8.448
REMARK INTER + INTRA:          -4.926
REMARK INTER:                  -4.681
REMARK INTRA:                  -0.245
REMARK UNBOUND:                -0.211
REMARK SMILES [H]/N=C\C[C@H]1C[C@@H]1O[C@H]1CO[C@H]2C[C@@H](C3CC3)CCN2C1
REMARK SMILES IDX 7 1 6 2 5 3 8 4 9 5 14 6 13 7 18 8 12 9 19 10 20 11 11 12
REMARK SMILES IDX 21 13 10 14 15 15 16 16 17 17 4 18 3 19 2 20 1 21
REMARK H PARENT
ROOT
ATOM      1  C   UNL     1      -3.706  -6.354  12.099  1.00  0.00     0.122 C 
ATOM      2  C   UNL     1      -3.733  -7.680  12.806  1.00  0.00     0.039 C 
ATOM      3  C   UNL     1      -2.487  -6.842  12.834  1.00  0.00     0.026 C 
ENDROOT
BRANCH   1   4
ATOM      4  O   UNL     1      -3.676  -6.456  10.663  1.00  0.00    -0.371 OA
BRANCH   4   5
ATOM      5  C   UNL     1      -4.925  -6.799  10.040  1.00  0.00     0.158 C 
ATOM      6  C   UNL     1      -4.665  -3.584   5.941  1.00  0.00    -0.003 C 
ATOM      7  C   UNL     1      -4.896  -3.424   7.449  1.00  0.00     0.052 C 
ATOM      8  C   UNL     1      -3.725  -4.772   5.695  1.00  0.00     0.019 C 
ATOM      9  C   UNL     1      -5.362  -4.736   8.096  1.00  0.00     0.189 C 
ATOM     10  C   UNL     1      -4.227  -6.036   6.392  1.00  0.00     0.087 C 
ATOM     11  N   UNL     1      -4.403  -5.807   7.826  1.00  0.00    -0.276 NA
ATOM     12  O   UNL     1      -5.498  -4.476   9.494  1.00  0.00    -0.360 OA
ATOM     13  C   UNL     1      -4.802  -7.035   8.524  1.00  0.00     0.121 C 
ATOM     14  C   UNL     1      -5.895  -5.630  10.242  1.00  0.00     0.195 C 
BRANCH   6  15
ATOM     15  C   UNL     1      -4.097  -2.322   5.331  1.00  0.00    -0.008 C 
ATOM     16  C   UNL     1      -4.735  -1.713   4.105  1.00  0.00     0.004 C 
ATOM     17  C   UNL     1      -4.842  -1.013   5.428  1.00  0.00     0.004 C 
ENDBRANCH   6  15
ENDBRANCH   4   5
ENDBRANCH   1   4
BRANCH   3  18
ATOM     18  C   UNL     1      -2.073  -6.197  14.123  1.00  0.00     0.053 C 
BRANCH  18  19
ATOM     19  C   UNL     1      -2.045  -7.091  15.336  1.00  0.00     0.074 C 
BRANCH  19  20
ATOM     20  N   UNL     1      -1.100  -7.915  15.647  1.00  0.00    -0.313 NA
ATOM     21  H   UNL     1      -1.324  -8.445  16.501  1.00  0.00     0.186 HD
ENDBRANCH  19  20
ENDBRANCH  18  19
ENDBRANCH   3  18
TORSDOF 6
ENDMDL
MODEL 4
REMARK VINA RESULT:    -3.562      3.977      7.703
REMARK INTER + INTRA:          -4.919
REMARK INTER:                  -4.493
REMARK INTRA:                  -0.425
REMARK UNBOUND:                -0.211
REMARK SMILES [H]/N=C\C[C@H]1C[C@@H]1O[C@H]1CO[C@H]2C[C@@H](C3CC3)CCN2C1
REMARK SMILES IDX 7 1 6 2 5 3 8 4 9 5 14 6 13 7 18 8 12 9 19 10 20 11 11 12
REMARK SMILES IDX 21 13 10 14 15 15 16 16 17 17 4 18 3 19 2 20 1 21
REMARK H PARENT
ROOT
ATOM      1  C   UNL     1     -11.429 -10.286  15.910  1.00  0.00     0.122 C 
ATOM      2  C   UNL     1     -11.395 -10.906  14.541  1.00  0.00     0.039 C 
ATOM      3  C   UNL     1     -11.034 -11.728  15.745  1.00  0.00     0.026 C 
ENDROOT
BRANCH   1   4
ATOM      4  O   UNL     1     -10.363  -9.350  16.157  1.00  0.00    -0.371 OA
BRANCH   4   5
ATOM      5  C   UNL     1     -10.776  -8.007  16.457  1.00  0.00     0.158 C 
ATOM      6  C   UNL     1      -9.950  -5.870  11.771  1.00  0.00    -0.003 C 
ATOM      7  C   UNL     1      -9.067  -6.379  12.917  1.00  0.00     0.052 C 
ATOM      8  C   UNL     1     -11.236  -6.707  11.710  1.00  0.00     0.019 C 
ATOM      9  C   UNL     1      -9.836  -6.442  14.244  1.00  0.00     0.189 C 
ATOM     10  C   UNL     1     -11.934  -6.758  13.069  1.00  0.00     0.087 C 
ATOM     11  N   UNL     1     -11.033  -7.271  14.101  1.00  0.00    -0.276 NA
ATOM     12  O   UNL     1      -8.931  -6.970  15.215  1.00  0.00    -0.360 OA
ATOM     13  C   UNL     1     -11.714  -7.409  15.394  1.00  0.00     0.121 C 
ATOM     14  C   UNL     1      -9.524  -7.124  16.508  1.00  0.00     0.195 C 
BRANCH   6  15
ATOM     15  C   UNL     1      -9.223  -5.917  10.446  1.00  0.00    -0.008 C 
ATOM     16  C   UNL     1      -9.075  -4.667   9.611  1.00  0.00     0.004 C 
ATOM     17  C   UNL     1      -7.872  -5.264  10.282  1.00  0.00     0.004 C 
ENDBRANCH   6  15
ENDBRANCH   4   5
ENDBRANCH   1   4
BRANCH   3  18
ATOM     18  C   UNL     1     -11.963 -12.821  16.184  1.00  0.00     0.053 C 
BRANCH  18  19
ATOM     19  C   UNL     1     -11.414 -14.223  16.132  1.00  0.00     0.074 C 
BRANCH  19  20
ATOM     20  N   UNL     1     -10.439 -14.627  15.387  1.00  0.00    -0.313 NA
ATOM     21  H   UNL     1     -10.523 -15.629  15.162  1.00  0.00     0.186 HD
ENDBRANCH  19  20
ENDBRANCH  18  19
ENDBRANCH   3  18
TORSDOF 6
ENDMDL
MODEL 5
REMARK VINA RESULT:    -3.544      2.611      8.531
REMARK INTER + INTRA:          -4.895
REMARK INTER:                  -4.623
REMARK INTRA:                  -0.272
REMARK UNBOUND:                -0.211
REMARK SMILES [H]/N=C\C[C@H]1C[C@@H]1O[C@H]1CO[C@H]2C[C@@H](C3CC3)CCN2C1
REMARK SMILES IDX 7 1 6 2 5 3 8 4 9 5 14 6 13 7 18 8 12 9 19 10 20 11 11 12
REMARK SMILES IDX 21 13 10 14 15 15 16 16 17 17 4 18 3 19 2 20 1 21
REMARK H PARENT
ROOT
ATOM      1  C   UNL     1      -8.508  -5.301  10.435  1.00  0.00     0.122 C 
ATOM      2  C   UNL     1      -9.577  -4.681   9.580  1.00  0.00     0.039 C 
ATOM      3  C   UNL     1      -9.667  -6.132   9.956  1.00  0.00     0.026 C 
ENDROOT
BRANCH   1   4
ATOM      4  O   UNL     1      -7.252  -5.494   9.757  1.00  0.00    -0.371 OA
BRANCH   4   5
ATOM      5  C   UNL     1      -6.086  -5.060  10.477  1.00  0.00     0.158 C 
ATOM      6  C   UNL     1      -2.914  -4.252   6.417  1.00  0.00    -0.003 C 
ATOM      7  C   UNL     1      -3.500  -5.480   7.125  1.00  0.00     0.052 C 
ATOM      8  C   UNL     1      -3.919  -3.094   6.494  1.00  0.00     0.019 C 
ATOM      9  C   UNL     1      -3.963  -5.147   8.550  1.00  0.00     0.189 C 
ATOM     10  C   UNL     1      -4.366  -2.837   7.933  1.00  0.00     0.087 C 
ATOM     11  N   UNL     1      -4.928  -4.048   8.530  1.00  0.00    -0.276 NA
ATOM     12  O   UNL     1      -4.527  -6.346   9.087  1.00  0.00    -0.360 OA
ATOM     13  C   UNL     1      -5.441  -3.796   9.881  1.00  0.00     0.121 C 
ATOM     14  C   UNL     1      -5.042  -6.179  10.411  1.00  0.00     0.195 C 
BRANCH   6  15
ATOM     15  C   UNL     1      -2.565  -4.557   4.977  1.00  0.00    -0.008 C 
ATOM     16  C   UNL     1      -1.146  -4.397   4.485  1.00  0.00     0.004 C 
ATOM     17  C   UNL     1      -1.739  -5.769   4.622  1.00  0.00     0.004 C 
ENDBRANCH   6  15
ENDBRANCH   4   5
ENDBRANCH   1   4
BRANCH   3  18
ATOM     18  C   UNL     1     -10.732  -6.569  10.916  1.00  0.00     0.053 C 
BRANCH  18  19
ATOM     19  C   UNL     1     -11.486  -7.821  10.551  1.00  0.00     0.074 C 
BRANCH  19  20
ATOM     20  N   UNL     1     -11.311  -8.990  11.072  1.00  0.00    -0.313 NA
ATOM     21  H   UNL     1     -11.003  -8.926  12.053  1.00  0.00     0.186 HD
ENDBRANCH  19  20
ENDBRANCH  18  19
ENDBRANCH   3  18
TORSDOF 6
ENDMDL
MODEL 6
REMARK VINA RESULT:    -3.445      3.613      6.736
REMARK INTER + INTRA:          -4.764
REMARK INTER:                  -4.113
REMARK INTRA:                  -0.650
REMARK UNBOUND:                -0.211
REMARK SMILES [H]/N=C\C[C@H]1C[C@@H]1O[C@H]1CO[C@H]2C[C@@H](C3CC3)CCN2C1
REMARK SMILES IDX 7 1 6 2 5 3 8 4 9 5 14 6 13 7 18 8 12 9 19 10 20 11 11 12
REMARK SMILES IDX 21 13 10 14 15 15 16 16 17 17 4 18 3 19 2 20 1 21
REMARK H PARENT
ROOT
ATOM      1  C   UNL     1     -10.584  -9.257  16.433  1.00  0.00     0.122 C 
ATOM      2  C   UNL     1      -9.846 -10.485  16.886  1.00  0.00     0.039 C 
ATOM      3  C   UNL     1      -9.172  -9.500  15.973  1.00  0.00     0.026 C 
ENDROOT
BRANCH   1   4
ATOM      4  O   UNL     1     -11.628  -9.519  15.476  1.00  0.00    -0.371 OA
BRANCH   4   5
ATOM      5  C   UNL     1     -12.594  -8.468  15.308  1.00  0.00     0.158 C 
ATOM      6  C   UNL     1     -10.667  -6.320  10.964  1.00  0.00    -0.003 C 
ATOM      7  C   UNL     1     -10.252  -6.374  12.439  1.00  0.00     0.052 C 
ATOM      8  C   UNL     1     -11.387  -7.623  10.590  1.00  0.00     0.019 C 
ATOM      9  C   UNL     1     -11.437  -6.718  13.352  1.00  0.00     0.189 C 
ATOM     10  C   UNL     1     -12.532  -7.925  11.556  1.00  0.00     0.087 C 
ATOM     11  N   UNL     1     -12.052  -7.979  12.937  1.00  0.00    -0.276 NA
ATOM     12  O   UNL     1     -10.921  -6.785  14.683  1.00  0.00    -0.360 OA
ATOM     13  C   UNL     1     -13.122  -8.354  13.867  1.00  0.00     0.121 C 
ATOM     14  C   UNL     1     -11.914  -7.138  15.651  1.00  0.00     0.195 C 
BRANCH   6  15
ATOM     15  C   UNL     1      -9.476  -6.093  10.060  1.00  0.00    -0.008 C 
ATOM     16  C   UNL     1      -9.209  -4.726   9.476  1.00  0.00     0.004 C 
ATOM     17  C   UNL     1      -8.293  -5.280  10.529  1.00  0.00     0.004 C 
ENDBRANCH   6  15
ENDBRANCH   4   5
ENDBRANCH   1   4
BRANCH   3  18
ATOM     18  C   UNL     1      -8.049  -8.664  16.509  1.00  0.00     0.053 C 
BRANCH  18  19
ATOM     19  C   UNL     1      -7.495  -7.617  15.578  1.00  0.00     0.074 C 
BRANCH  19  20
ATOM     20  N   UNL     1      -8.029  -6.468  15.327  1.00  0.00    -0.313 NA
ATOM     21  H   UNL     1      -8.438  -6.047  16.173  1.00  0.00     0.186 HD
ENDBRANCH  19  20
ENDBRANCH  18  19
ENDBRANCH   3  18
TORSDOF 6
ENDMDL
MODEL 7
REMARK VINA RESULT:    -3.141      4.121      4.591
REMARK INTER + INTRA:          -4.363
REMARK INTER:                  -4.114
REMARK INTRA:                  -0.249
REMARK UNBOUND:                -0.211
REMARK SMILES [H]/N=C\C[C@H]1C[C@@H]1O[C@H]1CO[C@H]2C[C@@H](C3CC3)CCN2C1
REMARK SMILES IDX 7 1 6 2 5 3 8 4 9 5 14 6 13 7 18 8 12 9 19 10 20 11 11 12
REMARK SMILES IDX 21 13 10 14 15 15 16 16 17 17 4 18 3 19 2 20 1 21
REMARK H PARENT
ROOT
ATOM      1  C   UNL     1      -6.102  -8.152  15.062  1.00  0.00     0.122 C 
ATOM      2  C   UNL     1      -5.621  -9.449  14.475  1.00  0.00     0.039 C 
ATOM      3  C   UNL     1      -4.843  -8.186  14.240  1.00  0.00     0.026 C 
ENDROOT
BRANCH   1   4
ATOM      4  O   UNL     1      -7.276  -7.617  14.422  1.00  0.00    -0.371 OA
BRANCH   4   5
ATOM      5  C   UNL     1      -8.314  -7.167  15.308  1.00  0.00     0.158 C 
ATOM      6  C   UNL     1     -12.388  -9.400  12.937  1.00  0.00    -0.003 C 
ATOM      7  C   UNL     1     -11.454  -8.221  12.638  1.00  0.00     0.052 C 
ATOM      8  C   UNL     1     -11.612 -10.480  13.703  1.00  0.00     0.019 C 
ATOM      9  C   UNL     1     -10.757  -7.710  13.906  1.00  0.00     0.189 C 
ATOM     10  C   UNL     1     -10.915  -9.901  14.934  1.00  0.00     0.087 C 
ATOM     11  N   UNL     1     -10.030  -8.797  14.562  1.00  0.00    -0.276 NA
ATOM     12  O   UNL     1      -9.887  -6.653  13.496  1.00  0.00    -0.360 OA
ATOM     13  C   UNL     1      -9.287  -8.287  15.720  1.00  0.00     0.121 C 
ATOM     14  C   UNL     1      -9.133  -6.098  14.578  1.00  0.00     0.195 C 
BRANCH   6  15
ATOM     15  C   UNL     1     -12.984  -9.971  11.670  1.00  0.00    -0.008 C 
ATOM     16  C   UNL     1     -14.443 -10.360  11.620  1.00  0.00     0.004 C 
ATOM     17  C   UNL     1     -13.959  -9.169  10.844  1.00  0.00     0.004 C 
ENDBRANCH   6  15
ENDBRANCH   4   5
ENDBRANCH   1   4
BRANCH   3  18
ATOM     18  C   UNL     1      -3.505  -8.024  14.898  1.00  0.00     0.053 C 
BRANCH  18  19
ATOM     19  C   UNL     1      -2.599  -6.972  14.313  1.00  0.00     0.074 C 
BRANCH  19  20
ATOM     20  N   UNL     1      -2.393  -6.763  13.056  1.00  0.00    -0.313 NA
ATOM     21  H   UNL     1      -3.273  -6.581  12.552  1.00  0.00     0.186 HD
ENDBRANCH  19  20
ENDBRANCH  18  19
ENDBRANCH   3  18
TORSDOF 6
ENDMDL
MODEL 8
REMARK VINA RESULT:    -3.046      4.559      5.256
REMARK INTER + INTRA:          -4.237
REMARK INTER:                  -3.889
REMARK INTRA:                  -0.348
REMARK UNBOUND:                -0.211
REMARK SMILES [H]/N=C\C[C@H]1C[C@@H]1O[C@H]1CO[C@H]2C[C@@H](C3CC3)CCN2C1
REMARK SMILES IDX 7 1 6 2 5 3 8 4 9 5 14 6 13 7 18 8 12 9 19 10 20 11 11 12
REMARK SMILES IDX 21 13 10 14 15 15 16 16 17 17 4 18 3 19 2 20 1 21
REMARK H PARENT
ROOT
ATOM      1  C   UNL     1      -6.507  -7.969  14.963  1.00  0.00     0.122 C 
ATOM      2  C   UNL     1      -6.067  -9.403  15.052  1.00  0.00     0.039 C 
ATOM      3  C   UNL     1      -5.178  -8.387  14.396  1.00  0.00     0.026 C 
ENDROOT
BRANCH   1   4
ATOM      4  O   UNL     1      -7.568  -7.738  14.017  1.00  0.00    -0.371 OA
BRANCH   4   5
ATOM      5  C   UNL     1      -8.561  -6.782  14.421  1.00  0.00     0.158 C 
ATOM      6  C   UNL     1     -12.251 -10.108  16.009  1.00  0.00    -0.003 C 
ATOM      7  C   UNL     1     -11.673  -9.674  14.657  1.00  0.00     0.052 C 
ATOM      8  C   UNL     1     -11.147 -10.053  17.074  1.00  0.00     0.019 C 
ATOM      9  C   UNL     1     -10.962  -8.317  14.751  1.00  0.00     0.189 C 
ATOM     10  C   UNL     1     -10.457  -8.689  17.093  1.00  0.00     0.087 C 
ATOM     11  N   UNL     1      -9.918  -8.358  15.775  1.00  0.00    -0.276 NA
ATOM     12  O   UNL     1     -10.430  -8.043  13.453  1.00  0.00    -0.360 OA
ATOM     13  C   UNL     1      -9.177  -7.091  15.797  1.00  0.00     0.121 C 
ATOM     14  C   UNL     1      -9.699  -6.814  13.395  1.00  0.00     0.195 C 
BRANCH   6  15
ATOM     15  C   UNL     1     -12.850 -11.495  15.936  1.00  0.00    -0.008 C 
ATOM     16  C   UNL     1     -14.223 -11.765  16.504  1.00  0.00     0.004 C 
ATOM     17  C   UNL     1     -14.011 -11.789  15.018  1.00  0.00     0.004 C 
ENDBRANCH   6  15
ENDBRANCH   4   5
ENDBRANCH   1   4
BRANCH   3  18
ATOM     18  C   UNL     1      -3.905  -7.985  15.080  1.00  0.00     0.053 C 
BRANCH  18  19
ATOM     19  C   UNL     1      -2.856  -7.342  14.211  1.00  0.00     0.074 C 
BRANCH  19  20
ATOM     20  N   UNL     1      -2.182  -6.279  14.499  1.00  0.00    -0.313 NA
ATOM     21  H   UNL     1      -1.759  -6.340  15.436  1.00  0.00     0.186 HD
ENDBRANCH  19  20
ENDBRANCH  18  19
ENDBRANCH   3  18
TORSDOF 6
ENDMDL
MODEL 9
REMARK VINA RESULT:    -2.940      3.025      4.751
REMARK INTER + INTRA:          -4.096
REMARK INTER:                  -3.901
REMARK INTRA:                  -0.195
REMARK UNBOUND:                -0.211
REMARK SMILES [H]/N=C\C[C@H]1C[C@@H]1O[C@H]1CO[C@H]2C[C@@H](C3CC3)CCN2C1
REMARK SMILES IDX 7 1 6 2 5 3 8 4 9 5 14 6 13 7 18 8 12 9 19 10 20 11 11 12
REMARK SMILES IDX 21 13 10 14 15 15 16 16 17 17 4 18 3 19 2 20 1 21
REMARK H PARENT
ROOT
ATOM      1  C   UNL     1     -10.351  -6.363  11.164  1.00  0.00     0.122 C 
ATOM      2  C   UNL     1      -9.700  -5.775  12.384  1.00  0.00     0.039 C 
ATOM      3  C   UNL     1      -8.877  -6.060  11.160  1.00  0.00     0.026 C 
ENDROOT
BRANCH   1   4
ATOM      4  O   UNL     1     -10.724  -7.747  11.307  1.00  0.00    -0.371 OA
BRANCH   4   5
ATOM      5  C   UNL     1     -12.062  -8.073  10.899  1.00  0.00     0.158 C 
ATOM      6  C   UNL     1     -14.017  -9.338  15.567  1.00  0.00    -0.003 C 
ATOM      7  C   UNL     1     -13.033  -9.976  14.578  1.00  0.00     0.052 C 
ATOM      8  C   UNL     1     -13.905  -7.809  15.478  1.00  0.00     0.019 C 
ATOM      9  C   UNL     1     -13.208  -9.418  13.159  1.00  0.00     0.189 C 
ATOM     10  C   UNL     1     -14.053  -7.321  14.037  1.00  0.00     0.087 C 
ATOM     11  N   UNL     1     -13.069  -7.961  13.164  1.00  0.00    -0.276 NA
ATOM     12  O   UNL     1     -12.216 -10.048  12.347  1.00  0.00    -0.360 OA
ATOM     13  C   UNL     1     -13.141  -7.439  11.795  1.00  0.00     0.121 C 
ATOM     14  C   UNL     1     -12.231  -9.594  10.990  1.00  0.00     0.195 C 
BRANCH   6  15
ATOM     15  C   UNL     1     -13.765  -9.807  16.981  1.00  0.00    -0.008 C 
ATOM     16  C   UNL     1     -14.196 -11.188  17.416  1.00  0.00     0.004 C 
ATOM     17  C   UNL     1     -12.735 -10.873  17.271  1.00  0.00     0.004 C 
ENDBRANCH   6  15
ENDBRANCH   4   5
ENDBRANCH   1   4
BRANCH   3  18
ATOM     18  C   UNL     1      -8.345  -4.909  10.359  1.00  0.00     0.053 C 
BRANCH  18  19
ATOM     19  C   UNL     1      -6.912  -5.019   9.907  1.00  0.00     0.074 C 
BRANCH  19  20
ATOM     20  N   UNL     1      -5.987  -5.711  10.484  1.00  0.00    -0.313 NA
ATOM     21  H   UNL     1      -5.137  -5.766   9.905  1.00  0.00     0.186 HD
ENDBRANCH  19  20
ENDBRANCH  18  19
ENDBRANCH   3  18
TORSDOF 6
ENDMDL
