MODEL 1
REMARK VINA RESULT:    -5.287      0.000      0.000
REMARK INTER + INTRA:          -6.584
REMARK INTER:                  -6.215
REMARK INTRA:                  -0.369
REMARK UNBOUND:                -0.369
REMARK SMILES Cc1ccc(CNC(=O)NC(=O)c2ccc(C)cc2)cc1
REMARK SMILES IDX 11 1 12 2 10 3 8 4 9 5 7 6 13 9 19 10 18 11 14 12 16 13
REMARK SMILES IDX 15 14 17 15 6 16 5 17 4 18 20 19 3 20 21 21 2 22 1 23
REMARK H PARENT 10 7 7 8
ROOT
ATOM      1  C   UNL     1      -5.051  -4.986   8.574  1.00  0.00     0.259 C 
ATOM      2  O   UNL     1      -6.136  -4.465   8.361  1.00  0.00    -0.269 OA
ATOM      3  N   UNL     1      -4.594  -5.612   9.738  1.00  0.00    -0.274 N 
ATOM      4  C   UNL     1      -5.128  -6.095  10.905  1.00  0.00     0.321 C 
ATOM      5  O   UNL     1      -4.381  -6.727  11.660  1.00  0.00    -0.248 OA
ATOM      6  N   UNL     1      -6.420  -5.943  11.251  1.00  0.00    -0.334 N 
ATOM      7  H   UNL     1      -3.643  -5.952   9.683  1.00  0.00     0.175 HD
ATOM      8  H   UNL     1      -6.674  -6.431  12.099  1.00  0.00     0.165 HD
ENDROOT
BRANCH   1   9
ATOM      9  C   UNL     1      -4.079  -4.966   7.464  1.00  0.00     0.040 A 
ATOM     10  C   UNL     1      -3.109  -3.968   7.364  1.00  0.00     0.014 A 
ATOM     11  C   UNL     1      -2.178  -4.020   6.325  1.00  0.00     0.004 A 
ATOM     12  C   UNL     1      -4.160  -5.978   6.503  1.00  0.00     0.014 A 
ATOM     13  C   UNL     1      -2.218  -5.061   5.385  1.00  0.00    -0.051 A 
ATOM     14  C   UNL     1      -3.224  -6.031   5.471  1.00  0.00     0.004 A 
ATOM     15  C   UNL     1      -1.160  -5.151   4.325  1.00  0.00     0.044 C 
ENDBRANCH   1   9
BRANCH   6  16
ATOM     16  C   UNL     1      -7.469  -5.340  10.479  1.00  0.00     0.153 C 
BRANCH  16  17
ATOM     17  C   UNL     1      -8.885  -5.662  10.868  1.00  0.00    -0.029 A 
ATOM     18  C   UNL     1      -9.848  -6.100   9.953  1.00  0.00     0.006 A 
ATOM     19  C   UNL     1      -9.177  -5.721  12.240  1.00  0.00     0.006 A 
ATOM     20  C   UNL     1     -11.067  -6.610  10.410  1.00  0.00     0.004 A 
ATOM     21  C   UNL     1     -10.389  -6.233  12.694  1.00  0.00     0.004 A 
ATOM     22  C   UNL     1     -11.341  -6.692  11.783  1.00  0.00    -0.051 A 
ATOM     23  C   UNL     1     -12.583  -7.367  12.283  1.00  0.00     0.044 C 
ENDBRANCH  16  17
ENDBRANCH   6  16
TORSDOF 3
ENDMDL
MODEL 2
REMARK VINA RESULT:    -5.250      3.217      5.491
REMARK INTER + INTRA:          -6.539
REMARK INTER:                  -6.169
REMARK INTRA:                  -0.370
REMARK UNBOUND:                -0.369
REMARK SMILES Cc1ccc(CNC(=O)NC(=O)c2ccc(C)cc2)cc1
REMARK SMILES IDX 11 1 12 2 10 3 8 4 9 5 7 6 13 9 19 10 18 11 14 12 16 13
REMARK SMILES IDX 15 14 17 15 6 16 5 17 4 18 20 19 3 20 21 21 2 22 1 23
REMARK H PARENT 10 7 7 8
ROOT
ATOM      1  C   UNL     1      -4.656  -5.037   8.738  1.00  0.00     0.259 C 
ATOM      2  O   UNL     1      -3.592  -5.583   8.992  1.00  0.00    -0.269 OA
ATOM      3  N   UNL     1      -5.892  -5.192   9.373  1.00  0.00    -0.274 N 
ATOM      4  C   UNL     1      -6.372  -5.730  10.540  1.00  0.00     0.321 C 
ATOM      5  O   UNL     1      -7.562  -5.541  10.811  1.00  0.00    -0.248 OA
ATOM      6  N   UNL     1      -5.611  -6.421  11.409  1.00  0.00    -0.334 N 
ATOM      7  H   UNL     1      -6.641  -4.646   8.968  1.00  0.00     0.175 HD
ATOM      8  H   UNL     1      -6.093  -6.675  12.259  1.00  0.00     0.165 HD
ENDROOT
BRANCH   1   9
ATOM      9  C   UNL     1      -4.656  -4.077   7.617  1.00  0.00     0.040 A 
ATOM     10  C   UNL     1      -5.029  -4.463   6.329  1.00  0.00     0.014 A 
ATOM     11  C   UNL     1      -5.063  -3.508   5.312  1.00  0.00     0.004 A 
ATOM     12  C   UNL     1      -4.262  -2.762   7.880  1.00  0.00     0.014 A 
ATOM     13  C   UNL     1      -4.720  -2.174   5.576  1.00  0.00    -0.051 A 
ATOM     14  C   UNL     1      -4.304  -1.810   6.863  1.00  0.00     0.004 A 
ATOM     15  C   UNL     1      -4.844  -1.142   4.494  1.00  0.00     0.044 C 
ENDBRANCH   1   9
BRANCH   6  16
ATOM     16  C   UNL     1      -4.197  -6.662  11.336  1.00  0.00     0.153 C 
BRANCH  16  17
ATOM     17  C   UNL     1      -3.499  -7.060  12.606  1.00  0.00    -0.029 A 
ATOM     18  C   UNL     1      -2.357  -6.410  13.086  1.00  0.00     0.006 A 
ATOM     19  C   UNL     1      -4.153  -7.984  13.438  1.00  0.00     0.006 A 
ATOM     20  C   UNL     1      -1.899  -6.665  14.383  1.00  0.00     0.004 A 
ATOM     21  C   UNL     1      -3.699  -8.234  14.729  1.00  0.00     0.004 A 
ATOM     22  C   UNL     1      -2.573  -7.568  15.217  1.00  0.00    -0.051 A 
ATOM     23  C   UNL     1      -2.174  -7.740  16.652  1.00  0.00     0.044 C 
ENDBRANCH  16  17
ENDBRANCH   6  16
TORSDOF 3
ENDMDL
MODEL 3
REMARK VINA RESULT:    -5.148      1.169      8.012
REMARK INTER + INTRA:          -6.420
REMARK INTER:                  -5.951
REMARK INTRA:                  -0.469
REMARK UNBOUND:                -0.369
REMARK SMILES Cc1ccc(CNC(=O)NC(=O)c2ccc(C)cc2)cc1
REMARK SMILES IDX 11 1 12 2 10 3 8 4 9 5 7 6 13 9 19 10 18 11 14 12 16 13
REMARK SMILES IDX 15 14 17 15 6 16 5 17 4 18 20 19 3 20 21 21 2 22 1 23
REMARK H PARENT 10 7 7 8
ROOT
ATOM      1  C   UNL     1      -7.547  -5.424  10.144  1.00  0.00     0.259 C 
ATOM      2  O   UNL     1      -7.598  -4.634   9.211  1.00  0.00    -0.269 OA
ATOM      3  N   UNL     1      -6.426  -6.046  10.704  1.00  0.00    -0.274 N 
ATOM      4  C   UNL     1      -5.063  -5.904  10.665  1.00  0.00     0.321 C 
ATOM      5  O   UNL     1      -4.392  -6.595  11.438  1.00  0.00    -0.248 OA
ATOM      6  N   UNL     1      -4.428  -5.035   9.857  1.00  0.00    -0.334 N 
ATOM      7  H   UNL     1      -6.638  -6.682  11.461  1.00  0.00     0.175 HD
ATOM      8  H   UNL     1      -3.431  -4.990  10.010  1.00  0.00     0.165 HD
ENDROOT
BRANCH   1   9
ATOM      9  C   UNL     1      -8.830  -5.777  10.781  1.00  0.00     0.040 A 
ATOM     10  C   UNL     1      -9.938  -6.160  10.023  1.00  0.00     0.014 A 
ATOM     11  C   UNL     1     -11.114  -6.535  10.674  1.00  0.00     0.004 A 
ATOM     12  C   UNL     1      -8.910  -5.711  12.176  1.00  0.00     0.014 A 
ATOM     13  C   UNL     1     -11.189  -6.522  12.074  1.00  0.00    -0.051 A 
ATOM     14  C   UNL     1     -10.085  -6.094  12.821  1.00  0.00     0.004 A 
ATOM     15  C   UNL     1     -12.431  -7.010  12.760  1.00  0.00     0.044 C 
ENDBRANCH   1   9
BRANCH   6  16
ATOM     16  C   UNL     1      -5.018  -4.075   8.966  1.00  0.00     0.153 C 
BRANCH  16  17
ATOM     17  C   UNL     1      -4.481  -4.015   7.563  1.00  0.00    -0.029 A 
ATOM     18  C   UNL     1      -5.293  -3.805   6.444  1.00  0.00     0.006 A 
ATOM     19  C   UNL     1      -3.086  -3.958   7.410  1.00  0.00     0.006 A 
ATOM     20  C   UNL     1      -4.714  -3.519   5.203  1.00  0.00     0.004 A 
ATOM     21  C   UNL     1      -2.512  -3.669   6.176  1.00  0.00     0.004 A 
ATOM     22  C   UNL     1      -3.321  -3.437   5.063  1.00  0.00    -0.051 A 
ATOM     23  C   UNL     1      -2.700  -2.992   3.773  1.00  0.00     0.044 C 
ENDBRANCH  16  17
ENDBRANCH   6  16
TORSDOF 3
ENDMDL
MODEL 4
REMARK VINA RESULT:    -5.097      3.037      7.752
REMARK INTER + INTRA:          -6.360
REMARK INTER:                  -5.889
REMARK INTRA:                  -0.471
REMARK UNBOUND:                -0.369
REMARK SMILES Cc1ccc(CNC(=O)NC(=O)c2ccc(C)cc2)cc1
REMARK SMILES IDX 11 1 12 2 10 3 8 4 9 5 7 6 13 9 19 10 18 11 14 12 16 13
REMARK SMILES IDX 15 14 17 15 6 16 5 17 4 18 20 19 3 20 21 21 2 22 1 23
REMARK H PARENT 10 7 7 8
ROOT
ATOM      1  C   UNL     1      -3.953  -6.399  11.266  1.00  0.00     0.259 C 
ATOM      2  O   UNL     1      -3.113  -6.395  10.378  1.00  0.00    -0.269 OA
ATOM      3  N   UNL     1      -5.291  -5.997  11.207  1.00  0.00    -0.274 N 
ATOM      4  C   UNL     1      -6.219  -5.703  10.241  1.00  0.00     0.321 C 
ATOM      5  O   UNL     1      -7.384  -5.508  10.605  1.00  0.00    -0.248 OA
ATOM      6  N   UNL     1      -5.934  -5.646   8.927  1.00  0.00    -0.334 N 
ATOM      7  H   UNL     1      -5.789  -6.074  12.084  1.00  0.00     0.175 HD
ATOM      8  H   UNL     1      -6.743  -5.503   8.341  1.00  0.00     0.165 HD
ENDROOT
BRANCH   1   9
ATOM      9  C   UNL     1      -3.518  -6.898  12.585  1.00  0.00     0.040 A 
ATOM     10  C   UNL     1      -2.335  -6.453  13.177  1.00  0.00     0.014 A 
ATOM     11  C   UNL     1      -1.992  -6.914  14.449  1.00  0.00     0.004 A 
ATOM     12  C   UNL     1      -4.324  -7.843  13.228  1.00  0.00     0.014 A 
ATOM     13  C   UNL     1      -2.820  -7.822  15.125  1.00  0.00    -0.051 A 
ATOM     14  C   UNL     1      -3.981  -8.295  14.501  1.00  0.00     0.004 A 
ATOM     15  C   UNL     1      -2.481  -8.242  16.525  1.00  0.00     0.044 C 
ENDBRANCH   1   9
BRANCH   6  16
ATOM     16  C   UNL     1      -4.681  -5.939   8.290  1.00  0.00     0.153 C 
BRANCH  16  17
ATOM     17  C   UNL     1      -4.165  -4.940   7.291  1.00  0.00    -0.029 A 
ATOM     18  C   UNL     1      -2.813  -4.601   7.179  1.00  0.00     0.006 A 
ATOM     19  C   UNL     1      -5.059  -4.500   6.302  1.00  0.00     0.006 A 
ATOM     20  C   UNL     1      -2.367  -3.856   6.083  1.00  0.00     0.004 A 
ATOM     21  C   UNL     1      -4.613  -3.763   5.209  1.00  0.00     0.004 A 
ATOM     22  C   UNL     1      -3.260  -3.443   5.085  1.00  0.00    -0.051 A 
ATOM     23  C   UNL     1      -2.768  -2.770   3.838  1.00  0.00     0.044 C 
ENDBRANCH  16  17
ENDBRANCH   6  16
TORSDOF 3
ENDMDL
MODEL 5
REMARK VINA RESULT:    -4.296      5.865      9.038
REMARK INTER + INTRA:          -5.418
REMARK INTER:                  -4.987
REMARK INTRA:                  -0.432
REMARK UNBOUND:                -0.369
REMARK SMILES Cc1ccc(CNC(=O)NC(=O)c2ccc(C)cc2)cc1
REMARK SMILES IDX 11 1 12 2 10 3 8 4 9 5 7 6 13 9 19 10 18 11 14 12 16 13
REMARK SMILES IDX 15 14 17 15 6 16 5 17 4 18 20 19 3 20 21 21 2 22 1 23
REMARK H PARENT 10 7 7 8
ROOT
ATOM      1  C   UNL     1     -12.611  -7.385  13.742  1.00  0.00     0.259 C 
ATOM      2  O   UNL     1     -13.277  -8.352  13.400  1.00  0.00    -0.269 OA
ATOM      3  N   UNL     1     -12.678  -6.652  14.931  1.00  0.00    -0.274 N 
ATOM      4  C   UNL     1     -13.236  -6.790  16.177  1.00  0.00     0.321 C 
ATOM      5  O   UNL     1     -12.944  -5.948  17.032  1.00  0.00    -0.248 OA
ATOM      6  N   UNL     1     -14.052  -7.805  16.518  1.00  0.00    -0.334 N 
ATOM      7  H   UNL     1     -12.035  -5.873  14.978  1.00  0.00     0.175 HD
ATOM      8  H   UNL     1     -14.308  -7.809  17.495  1.00  0.00     0.165 HD
ENDROOT
BRANCH   1   9
ATOM      9  C   UNL     1     -11.589  -6.916  12.787  1.00  0.00     0.040 A 
ATOM     10  C   UNL     1     -11.790  -6.997  11.408  1.00  0.00     0.014 A 
ATOM     11  C   UNL     1     -10.818  -6.492  10.544  1.00  0.00     0.004 A 
ATOM     12  C   UNL     1     -10.401  -6.389  13.302  1.00  0.00     0.014 A 
ATOM     13  C   UNL     1      -9.645  -5.914  11.052  1.00  0.00    -0.051 A 
ATOM     14  C   UNL     1      -9.435  -5.880  12.436  1.00  0.00     0.004 A 
ATOM     15  C   UNL     1      -8.648  -5.299  10.114  1.00  0.00     0.044 C 
ENDBRANCH   1   9
BRANCH   6  16
ATOM     16  C   UNL     1     -14.431  -8.933  15.715  1.00  0.00     0.153 C 
BRANCH  16  17
ATOM     17  C   UNL     1     -13.763 -10.246  16.012  1.00  0.00    -0.029 A 
ATOM     18  C   UNL     1     -14.309 -11.481  15.645  1.00  0.00     0.006 A 
ATOM     19  C   UNL     1     -12.443 -10.204  16.489  1.00  0.00     0.006 A 
ATOM     20  C   UNL     1     -13.534 -12.643  15.732  1.00  0.00     0.004 A 
ATOM     21  C   UNL     1     -11.672 -11.359  16.571  1.00  0.00     0.004 A 
ATOM     22  C   UNL     1     -12.208 -12.588  16.183  1.00  0.00    -0.051 A 
ATOM     23  C   UNL     1     -11.329 -13.802  16.144  1.00  0.00     0.044 C 
ENDBRANCH  16  17
ENDBRANCH   6  16
TORSDOF 3
ENDMDL
MODEL 6
REMARK VINA RESULT:    -4.283      5.352     10.164
REMARK INTER + INTRA:          -5.403
REMARK INTER:                  -4.825
REMARK INTRA:                  -0.578
REMARK UNBOUND:                -0.369
REMARK SMILES Cc1ccc(CNC(=O)NC(=O)c2ccc(C)cc2)cc1
REMARK SMILES IDX 11 1 12 2 10 3 8 4 9 5 7 6 13 9 19 10 18 11 14 12 16 13
REMARK SMILES IDX 15 14 17 15 6 16 5 17 4 18 20 19 3 20 21 21 2 22 1 23
REMARK H PARENT 10 7 7 8
ROOT
ATOM      1  C   UNL     1     -12.003  -9.683  14.335  1.00  0.00     0.259 C 
ATOM      2  O   UNL     1     -11.892  -8.516  14.681  1.00  0.00    -0.269 OA
ATOM      3  N   UNL     1     -12.586 -10.200  13.174  1.00  0.00    -0.274 N 
ATOM      4  C   UNL     1     -13.006  -9.731  11.955  1.00  0.00     0.321 C 
ATOM      5  O   UNL     1     -13.359 -10.562  11.112  1.00  0.00    -0.248 OA
ATOM      6  N   UNL     1     -13.022  -8.426  11.626  1.00  0.00    -0.334 N 
ATOM      7  H   UNL     1     -12.579 -11.210  13.117  1.00  0.00     0.175 HD
ATOM      8  H   UNL     1     -13.276  -8.253  10.664  1.00  0.00     0.165 HD
ENDROOT
BRANCH   1   9
ATOM      9  C   UNL     1     -11.448 -10.700  15.250  1.00  0.00     0.040 A 
ATOM     10  C   UNL     1     -12.021 -11.968  15.362  1.00  0.00     0.014 A 
ATOM     11  C   UNL     1     -11.430 -12.913  16.201  1.00  0.00     0.004 A 
ATOM     12  C   UNL     1     -10.329 -10.355  16.014  1.00  0.00     0.014 A 
ATOM     13  C   UNL     1     -10.276 -12.594  16.933  1.00  0.00    -0.051 A 
ATOM     14  C   UNL     1      -9.739 -11.304  16.846  1.00  0.00     0.004 A 
ATOM     15  C   UNL     1      -9.604 -13.646  17.765  1.00  0.00     0.044 C 
ENDBRANCH   1   9
BRANCH   6  16
ATOM     16  C   UNL     1     -12.560  -7.318  12.413  1.00  0.00     0.153 C 
BRANCH  16  17
ATOM     17  C   UNL     1     -11.351  -6.575  11.915  1.00  0.00    -0.029 A 
ATOM     18  C   UNL     1     -10.324  -6.136  12.757  1.00  0.00     0.006 A 
ATOM     19  C   UNL     1     -11.160  -6.515  10.525  1.00  0.00     0.006 A 
ATOM     20  C   UNL     1      -9.123  -5.670  12.213  1.00  0.00     0.004 A 
ATOM     21  C   UNL     1      -9.963  -6.055   9.985  1.00  0.00     0.004 A 
ATOM     22  C   UNL     1      -8.929  -5.639  10.825  1.00  0.00    -0.051 A 
ATOM     23  C   UNL     1      -7.598  -5.276  10.239  1.00  0.00     0.044 C 
ENDBRANCH  16  17
ENDBRANCH   6  16
TORSDOF 3
ENDMDL
MODEL 7
REMARK VINA RESULT:    -3.827      6.739      8.280
REMARK INTER + INTRA:          -4.867
REMARK INTER:                  -4.472
REMARK INTRA:                  -0.396
REMARK UNBOUND:                -0.369
REMARK SMILES Cc1ccc(CNC(=O)NC(=O)c2ccc(C)cc2)cc1
REMARK SMILES IDX 11 1 12 2 10 3 8 4 9 5 7 6 13 9 19 10 18 11 14 12 16 13
REMARK SMILES IDX 15 14 17 15 6 16 5 17 4 18 20 19 3 20 21 21 2 22 1 23
REMARK H PARENT 10 7 7 8
ROOT
ATOM      1  C   UNL     1      -4.946  -8.297  16.802  1.00  0.00     0.259 C 
ATOM      2  O   UNL     1      -5.433  -7.195  16.594  1.00  0.00    -0.269 OA
ATOM      3  N   UNL     1      -5.584  -9.541  16.851  1.00  0.00    -0.274 N 
ATOM      4  C   UNL     1      -6.797 -10.072  16.495  1.00  0.00     0.321 C 
ATOM      5  O   UNL     1      -6.935 -11.297  16.583  1.00  0.00    -0.248 OA
ATOM      6  N   UNL     1      -7.825  -9.336  16.032  1.00  0.00    -0.334 N 
ATOM      7  H   UNL     1      -4.970 -10.316  17.063  1.00  0.00     0.175 HD
ATOM      8  H   UNL     1      -8.617  -9.887  15.734  1.00  0.00     0.165 HD
ENDROOT
BRANCH   1   9
ATOM      9  C   UNL     1      -3.489  -8.344  17.030  1.00  0.00     0.040 A 
ATOM     10  C   UNL     1      -2.879  -9.453  17.618  1.00  0.00     0.014 A 
ATOM     11  C   UNL     1      -1.492  -9.473  17.765  1.00  0.00     0.004 A 
ATOM     12  C   UNL     1      -2.729  -7.235  16.645  1.00  0.00     0.014 A 
ATOM     13  C   UNL     1      -0.714  -8.387  17.334  1.00  0.00    -0.051 A 
ATOM     14  C   UNL     1      -1.343  -7.262  16.787  1.00  0.00     0.004 A 
ATOM     15  C   UNL     1       0.782  -8.459  17.421  1.00  0.00     0.044 C 
ENDBRANCH   1   9
BRANCH   6  16
ATOM     16  C   UNL     1      -7.840  -7.927  15.758  1.00  0.00     0.153 C 
BRANCH  16  17
ATOM     17  C   UNL     1      -8.894  -7.419  14.815  1.00  0.00    -0.029 A 
ATOM     18  C   UNL     1      -8.654  -6.414  13.871  1.00  0.00     0.006 A 
ATOM     19  C   UNL     1     -10.099  -8.137  14.749  1.00  0.00     0.006 A 
ATOM     20  C   UNL     1      -9.595  -6.156  12.869  1.00  0.00     0.004 A 
ATOM     21  C   UNL     1     -11.032  -7.882  13.749  1.00  0.00     0.004 A 
ATOM     22  C   UNL     1     -10.783  -6.896  12.793  1.00  0.00    -0.051 A 
ATOM     23  C   UNL     1     -11.728  -6.723  11.642  1.00  0.00     0.044 C 
ENDBRANCH  16  17
ENDBRANCH   6  16
TORSDOF 3
ENDMDL
MODEL 8
REMARK VINA RESULT:    -3.755      6.637      7.800
REMARK INTER + INTRA:          -4.782
REMARK INTER:                  -4.492
REMARK INTRA:                  -0.290
REMARK UNBOUND:                -0.369
REMARK SMILES Cc1ccc(CNC(=O)NC(=O)c2ccc(C)cc2)cc1
REMARK SMILES IDX 11 1 12 2 10 3 8 4 9 5 7 6 13 9 19 10 18 11 14 12 16 13
REMARK SMILES IDX 15 14 17 15 6 16 5 17 4 18 20 19 3 20 21 21 2 22 1 23
REMARK H PARENT 10 7 7 8
ROOT
ATOM      1  C   UNL     1      -8.328  -7.990  15.398  1.00  0.00     0.259 C 
ATOM      2  O   UNL     1      -8.816  -8.893  14.734  1.00  0.00    -0.269 OA
ATOM      3  N   UNL     1      -8.971  -6.918  16.025  1.00  0.00    -0.274 N 
ATOM      4  C   UNL     1     -10.252  -6.563  16.363  1.00  0.00     0.321 C 
ATOM      5  O   UNL     1     -10.402  -5.552  17.059  1.00  0.00    -0.248 OA
ATOM      6  N   UNL     1     -11.340  -7.269  16.004  1.00  0.00    -0.334 N 
ATOM      7  H   UNL     1      -8.349  -6.281  16.504  1.00  0.00     0.175 HD
ATOM      8  H   UNL     1     -12.200  -6.923  16.405  1.00  0.00     0.165 HD
ENDROOT
BRANCH   1   9
ATOM      9  C   UNL     1      -6.864  -8.020  15.580  1.00  0.00     0.040 A 
ATOM     10  C   UNL     1      -6.285  -7.910  16.845  1.00  0.00     0.014 A 
ATOM     11  C   UNL     1      -4.898  -7.997  16.972  1.00  0.00     0.004 A 
ATOM     12  C   UNL     1      -6.064  -8.156  14.441  1.00  0.00     0.014 A 
ATOM     13  C   UNL     1      -4.089  -8.185  15.841  1.00  0.00    -0.051 A 
ATOM     14  C   UNL     1      -4.680  -8.249  14.573  1.00  0.00     0.004 A 
ATOM     15  C   UNL     1      -2.608  -8.362  16.003  1.00  0.00     0.044 C 
ENDBRANCH   1   9
BRANCH   6  16
ATOM     16  C   UNL     1     -11.380  -8.515  15.293  1.00  0.00     0.153 C 
BRANCH  16  17
ATOM     17  C   UNL     1     -11.679  -8.459  13.820  1.00  0.00    -0.029 A 
ATOM     18  C   UNL     1     -11.445  -7.325  13.036  1.00  0.00     0.006 A 
ATOM     19  C   UNL     1     -12.008  -9.668  13.185  1.00  0.00     0.006 A 
ATOM     20  C   UNL     1     -11.516  -7.412  11.641  1.00  0.00     0.004 A 
ATOM     21  C   UNL     1     -12.073  -9.754  11.798  1.00  0.00     0.004 A 
ATOM     22  C   UNL     1     -11.817  -8.628  11.013  1.00  0.00    -0.051 A 
ATOM     23  C   UNL     1     -11.755  -8.762   9.521  1.00  0.00     0.044 C 
ENDBRANCH  16  17
ENDBRANCH   6  16
TORSDOF 3
ENDMDL
