MODEL 1
REMARK VINA RESULT:    -6.012      0.000      0.000
REMARK INTER + INTRA:          -7.445
REMARK INTER:                  -7.067
REMARK INTRA:                  -0.378
REMARK UNBOUND:                -0.378
REMARK SMILES Cc1ccc(CNC(=O)NC(=O)c2ccc(C)cc2)cc1
REMARK SMILES IDX 11 1 12 2 10 3 8 4 9 5 7 6 13 9 19 10 18 11 14 12 16 13
REMARK SMILES IDX 15 14 17 15 6 16 5 17 4 18 20 19 3 20 21 21 2 22 1 23
REMARK H PARENT 10 7 7 8
ROOT
ATOM      1  C   UNL     1       2.033  -8.166  -6.118  1.00  0.00     0.259 C 
ATOM      2  O   UNL     1       3.058  -8.240  -5.455  1.00  0.00    -0.269 OA
ATOM      3  N   UNL     1       1.716  -8.818  -7.314  1.00  0.00    -0.274 N 
ATOM      4  C   UNL     1       2.198  -9.867  -8.055  1.00  0.00     0.321 C 
ATOM      5  O   UNL     1       1.531 -10.236  -9.028  1.00  0.00    -0.248 OA
ATOM      6  N   UNL     1       3.334 -10.527  -7.761  1.00  0.00    -0.334 N 
ATOM      7  H   UNL     1       0.808  -8.580  -7.691  1.00  0.00     0.175 HD
ATOM      8  H   UNL     1       3.504 -11.327  -8.352  1.00  0.00     0.165 HD
ENDROOT
BRANCH   1   9
ATOM      9  C   UNL     1       0.974  -7.278  -5.602  1.00  0.00     0.040 A 
ATOM     10  C   UNL     1       0.825  -5.972  -6.073  1.00  0.00     0.014 A 
ATOM     11  C   UNL     1      -0.223  -5.188  -5.593  1.00  0.00     0.004 A 
ATOM     12  C   UNL     1       0.120  -7.780  -4.615  1.00  0.00     0.014 A 
ATOM     13  C   UNL     1      -1.118  -5.699  -4.640  1.00  0.00    -0.051 A 
ATOM     14  C   UNL     1      -0.930  -6.995  -4.143  1.00  0.00     0.004 A 
ATOM     15  C   UNL     1      -2.290  -4.873  -4.197  1.00  0.00     0.044 C 
ENDBRANCH   1   9
BRANCH   6  16
ATOM     16  C   UNL     1       4.193 -10.328  -6.628  1.00  0.00     0.153 C 
BRANCH  16  17
ATOM     17  C   UNL     1       5.071 -11.478  -6.218  1.00  0.00    -0.029 A 
ATOM     18  C   UNL     1       5.052 -12.034  -4.935  1.00  0.00     0.006 A 
ATOM     19  C   UNL     1       5.777 -12.142  -7.235  1.00  0.00     0.006 A 
ATOM     20  C   UNL     1       5.708 -13.244  -4.686  1.00  0.00     0.004 A 
ATOM     21  C   UNL     1       6.425 -13.349  -6.987  1.00  0.00     0.004 A 
ATOM     22  C   UNL     1       6.387 -13.916  -5.712  1.00  0.00    -0.051 A 
ATOM     23  C   UNL     1       6.969 -15.279  -5.489  1.00  0.00     0.044 C 
ENDBRANCH  16  17
ENDBRANCH   6  16
TORSDOF 3
ENDMDL
MODEL 2
REMARK VINA RESULT:    -5.969      3.229      5.526
REMARK INTER + INTRA:          -7.395
REMARK INTER:                  -7.015
REMARK INTRA:                  -0.379
REMARK UNBOUND:                -0.378
REMARK SMILES Cc1ccc(CNC(=O)NC(=O)c2ccc(C)cc2)cc1
REMARK SMILES IDX 11 1 12 2 10 3 8 4 9 5 7 6 13 9 19 10 18 11 14 12 16 13
REMARK SMILES IDX 15 14 17 15 6 16 5 17 4 18 20 19 3 20 21 21 2 22 1 23
REMARK H PARENT 10 7 7 8
ROOT
ATOM      1  C   UNL     1       1.900  -7.996  -6.432  1.00  0.00     0.259 C 
ATOM      2  O   UNL     1       0.882  -7.947  -7.108  1.00  0.00    -0.269 OA
ATOM      3  N   UNL     1       2.873  -9.000  -6.386  1.00  0.00    -0.274 N 
ATOM      4  C   UNL     1       3.235 -10.095  -7.129  1.00  0.00     0.321 C 
ATOM      5  O   UNL     1       4.280 -10.677  -6.820  1.00  0.00    -0.248 OA
ATOM      6  N   UNL     1       2.532 -10.543  -8.186  1.00  0.00    -0.334 N 
ATOM      7  H   UNL     1       3.621  -8.827  -5.728  1.00  0.00     0.175 HD
ATOM      8  H   UNL     1       2.977 -11.305  -8.677  1.00  0.00     0.165 HD
ENDROOT
BRANCH   1   9
ATOM      9  C   UNL     1       2.158  -6.848  -5.542  1.00  0.00     0.040 A 
ATOM     10  C   UNL     1       1.795  -6.877  -4.194  1.00  0.00     0.014 A 
ATOM     11  C   UNL     1       2.107  -5.788  -3.379  1.00  0.00     0.004 A 
ATOM     12  C   UNL     1       2.775  -5.719  -6.088  1.00  0.00     0.014 A 
ATOM     13  C   UNL     1       2.772  -4.671  -3.906  1.00  0.00    -0.051 A 
ATOM     14  C   UNL     1       3.090  -4.636  -5.269  1.00  0.00     0.004 A 
ATOM     15  C   UNL     1       3.176  -3.546  -2.999  1.00  0.00     0.044 C 
ENDBRANCH   1   9
BRANCH   6  16
ATOM     16  C   UNL     1       1.359  -9.956  -8.770  1.00  0.00     0.153 C 
BRANCH  16  17
ATOM     17  C   UNL     1       1.068 -10.281 -10.209  1.00  0.00    -0.029 A 
ATOM     18  C   UNL     1       0.933  -9.304 -11.201  1.00  0.00     0.006 A 
ATOM     19  C   UNL     1       1.148 -11.630 -10.592  1.00  0.00     0.006 A 
ATOM     20  C   UNL     1       0.905  -9.674 -12.549  1.00  0.00     0.004 A 
ATOM     21  C   UNL     1       1.124 -11.997 -11.934  1.00  0.00     0.004 A 
ATOM     22  C   UNL     1       1.013 -11.020 -12.926  1.00  0.00    -0.051 A 
ATOM     23  C   UNL     1       1.126 -11.412 -14.369  1.00  0.00     0.044 C 
ENDBRANCH  16  17
ENDBRANCH   6  16
TORSDOF 3
ENDMDL
MODEL 3
REMARK VINA RESULT:    -5.890      0.546      8.021
REMARK INTER + INTRA:          -7.302
REMARK INTER:                  -6.813
REMARK INTRA:                  -0.489
REMARK UNBOUND:                -0.378
REMARK SMILES Cc1ccc(CNC(=O)NC(=O)c2ccc(C)cc2)cc1
REMARK SMILES IDX 11 1 12 2 10 3 8 4 9 5 7 6 13 9 19 10 18 11 14 12 16 13
REMARK SMILES IDX 15 14 17 15 6 16 5 17 4 18 20 19 3 20 21 21 2 22 1 23
REMARK H PARENT 10 7 7 8
ROOT
ATOM      1  C   UNL     1       3.864 -10.407  -6.303  1.00  0.00     0.259 C 
ATOM      2  O   UNL     1       3.869  -9.547  -5.434  1.00  0.00    -0.269 OA
ATOM      3  N   UNL     1       3.066 -10.491  -7.448  1.00  0.00    -0.274 N 
ATOM      4  C   UNL     1       2.234  -9.670  -8.165  1.00  0.00     0.321 C 
ATOM      5  O   UNL     1       1.799 -10.094  -9.241  1.00  0.00    -0.248 OA
ATOM      6  N   UNL     1       1.898  -8.426  -7.775  1.00  0.00    -0.334 N 
ATOM      7  H   UNL     1       3.230 -11.314  -8.012  1.00  0.00     0.175 HD
ATOM      8  H   UNL     1       1.349  -7.921  -8.455  1.00  0.00     0.165 HD
ENDROOT
BRANCH   1   9
ATOM      9  C   UNL     1       4.828 -11.513  -6.143  1.00  0.00     0.040 A 
ATOM     10  C   UNL     1       5.080 -12.084  -4.894  1.00  0.00     0.014 A 
ATOM     11  C   UNL     1       5.961 -13.162  -4.800  1.00  0.00     0.004 A 
ATOM     12  C   UNL     1       5.494 -11.974  -7.282  1.00  0.00     0.014 A 
ATOM     13  C   UNL     1       6.594 -13.666  -5.945  1.00  0.00    -0.051 A 
ATOM     14  C   UNL     1       6.367 -13.056  -7.185  1.00  0.00     0.004 A 
ATOM     15  C   UNL     1       7.472 -14.879  -5.841  1.00  0.00     0.044 C 
ENDBRANCH   1   9
BRANCH   6  16
ATOM     16  C   UNL     1       2.372  -7.711  -6.624  1.00  0.00     0.153 C 
BRANCH  16  17
ATOM     17  C   UNL     1       1.358  -6.941  -5.825  1.00  0.00    -0.029 A 
ATOM     18  C   UNL     1       1.053  -5.598  -6.070  1.00  0.00     0.006 A 
ATOM     19  C   UNL     1       0.546  -7.670  -4.942  1.00  0.00     0.006 A 
ATOM     20  C   UNL     1      -0.060  -5.010  -5.460  1.00  0.00     0.004 A 
ATOM     21  C   UNL     1      -0.564  -7.086  -4.339  1.00  0.00     0.004 A 
ATOM     22  C   UNL     1      -0.882  -5.752  -4.601  1.00  0.00    -0.051 A 
ATOM     23  C   UNL     1      -2.154  -5.173  -4.057  1.00  0.00     0.044 C 
ENDBRANCH  16  17
ENDBRANCH   6  16
TORSDOF 3
ENDMDL
MODEL 4
REMARK VINA RESULT:    -5.866      3.126      7.305
REMARK INTER + INTRA:          -7.273
REMARK INTER:                  -6.788
REMARK INTRA:                  -0.485
REMARK UNBOUND:                -0.378
REMARK SMILES Cc1ccc(CNC(=O)NC(=O)c2ccc(C)cc2)cc1
REMARK SMILES IDX 11 1 12 2 10 3 8 4 9 5 7 6 13 9 19 10 18 11 14 12 16 13
REMARK SMILES IDX 15 14 17 15 6 16 5 17 4 18 20 19 3 20 21 21 2 22 1 23
REMARK H PARENT 10 7 7 8
ROOT
ATOM      1  C   UNL     1       1.552  -9.544  -8.885  1.00  0.00     0.259 C 
ATOM      2  O   UNL     1       0.845  -8.615  -8.521  1.00  0.00    -0.269 OA
ATOM      3  N   UNL     1       2.621 -10.145  -8.215  1.00  0.00    -0.274 N 
ATOM      4  C   UNL     1       3.140 -10.162  -6.945  1.00  0.00     0.321 C 
ATOM      5  O   UNL     1       4.056 -10.958  -6.711  1.00  0.00    -0.248 OA
ATOM      6  N   UNL     1       2.685  -9.386  -5.945  1.00  0.00    -0.334 N 
ATOM      7  H   UNL     1       3.072 -10.889  -8.730  1.00  0.00     0.175 HD
ATOM      8  H   UNL     1       3.115  -9.580  -5.051  1.00  0.00     0.165 HD
ENDROOT
BRANCH   1   9
ATOM      9  C   UNL     1       1.248 -10.127 -10.207  1.00  0.00     0.040 A 
ATOM     10  C   UNL     1       0.897  -9.324 -11.293  1.00  0.00     0.014 A 
ATOM     11  C   UNL     1       0.670  -9.916 -12.536  1.00  0.00     0.004 A 
ATOM     12  C   UNL     1       1.315 -11.517 -10.342  1.00  0.00     0.014 A 
ATOM     13  C   UNL     1       0.785 -11.305 -12.695  1.00  0.00    -0.051 A 
ATOM     14  C   UNL     1       1.094 -12.104 -11.587  1.00  0.00     0.004 A 
ATOM     15  C   UNL     1       0.622 -11.917 -14.055  1.00  0.00     0.044 C 
ENDBRANCH   1   9
BRANCH   6  16
ATOM     16  C   UNL     1       1.573  -8.478  -5.976  1.00  0.00     0.153 C 
BRANCH  16  17
ATOM     17  C   UNL     1       1.755  -7.141  -5.313  1.00  0.00    -0.029 A 
ATOM     18  C   UNL     1       1.406  -6.897  -3.980  1.00  0.00     0.006 A 
ATOM     19  C   UNL     1       2.497  -6.173  -6.008  1.00  0.00     0.006 A 
ATOM     20  C   UNL     1       1.818  -5.716  -3.354  1.00  0.00     0.004 A 
ATOM     21  C   UNL     1       2.911  -5.001  -5.383  1.00  0.00     0.004 A 
ATOM     22  C   UNL     1       2.583  -4.767  -4.047  1.00  0.00    -0.051 A 
ATOM     23  C   UNL     1       3.148  -3.569  -3.343  1.00  0.00     0.044 C 
ENDBRANCH  16  17
ENDBRANCH   6  16
TORSDOF 3
ENDMDL
MODEL 5
REMARK VINA RESULT:    -5.674      3.061      7.740
REMARK INTER + INTRA:          -7.048
REMARK INTER:                  -6.586
REMARK INTRA:                  -0.461
REMARK UNBOUND:                -0.378
REMARK SMILES Cc1ccc(CNC(=O)NC(=O)c2ccc(C)cc2)cc1
REMARK SMILES IDX 11 1 12 2 10 3 8 4 9 5 7 6 13 9 19 10 18 11 14 12 16 13
REMARK SMILES IDX 15 14 17 15 6 16 5 17 4 18 20 19 3 20 21 21 2 22 1 23
REMARK H PARENT 10 7 7 8
ROOT
ATOM      1  C   UNL     1       1.321  -9.536  -8.945  1.00  0.00     0.259 C 
ATOM      2  O   UNL     1       0.442  -8.769  -8.578  1.00  0.00    -0.269 OA
ATOM      3  N   UNL     1       2.489  -9.914  -8.275  1.00  0.00    -0.274 N 
ATOM      4  C   UNL     1       3.000  -9.832  -7.005  1.00  0.00     0.321 C 
ATOM      5  O   UNL     1       4.057 -10.430  -6.774  1.00  0.00    -0.248 OA
ATOM      6  N   UNL     1       2.399  -9.166  -6.002  1.00  0.00    -0.334 N 
ATOM      7  H   UNL     1       3.079 -10.551  -8.793  1.00  0.00     0.175 HD
ATOM      8  H   UNL     1       2.859  -9.275  -5.109  1.00  0.00     0.165 HD
ENDROOT
BRANCH   1   9
ATOM      9  C   UNL     1       1.140 -10.162 -10.268  1.00  0.00     0.040 A 
ATOM     10  C   UNL     1       0.836  -9.401 -11.399  1.00  0.00     0.014 A 
ATOM     11  C   UNL     1       0.727 -10.032 -12.638  1.00  0.00     0.004 A 
ATOM     12  C   UNL     1       1.274 -11.551 -10.362  1.00  0.00     0.014 A 
ATOM     13  C   UNL     1       0.911 -11.418 -12.751  1.00  0.00    -0.051 A 
ATOM     14  C   UNL     1       1.170 -12.176 -11.603  1.00  0.00     0.004 A 
ATOM     15  C   UNL     1       0.874 -12.068 -14.103  1.00  0.00     0.044 C 
ENDBRANCH   1   9
BRANCH   6  16
ATOM     16  C   UNL     1       1.128  -8.499  -6.031  1.00  0.00     0.153 C 
BRANCH  16  17
ATOM     17  C   UNL     1       1.060  -7.119  -5.439  1.00  0.00    -0.029 A 
ATOM     18  C   UNL     1       0.308  -6.083  -6.003  1.00  0.00     0.006 A 
ATOM     19  C   UNL     1       1.608  -6.941  -4.158  1.00  0.00     0.006 A 
ATOM     20  C   UNL     1       0.091  -4.903  -5.282  1.00  0.00     0.004 A 
ATOM     21  C   UNL     1       1.388  -5.769  -3.441  1.00  0.00     0.004 A 
ATOM     22  C   UNL     1       0.618  -4.743  -3.993  1.00  0.00    -0.051 A 
ATOM     23  C   UNL     1       0.273  -3.545  -3.161  1.00  0.00     0.044 C 
ENDBRANCH  16  17
ENDBRANCH   6  16
TORSDOF 3
ENDMDL
MODEL 6
REMARK VINA RESULT:    -4.334      6.081     10.553
REMARK INTER + INTRA:          -5.472
REMARK INTER:                  -4.926
REMARK INTRA:                  -0.546
REMARK UNBOUND:                -0.378
REMARK SMILES Cc1ccc(CNC(=O)NC(=O)c2ccc(C)cc2)cc1
REMARK SMILES IDX 11 1 12 2 10 3 8 4 9 5 7 6 13 9 19 10 18 11 14 12 16 13
REMARK SMILES IDX 15 14 17 15 6 16 5 17 4 18 20 19 3 20 21 21 2 22 1 23
REMARK H PARENT 10 7 7 8
ROOT
ATOM      1  C   UNL     1       3.670 -13.007 -14.272  1.00  0.00     0.259 C 
ATOM      2  O   UNL     1       2.681 -13.478 -13.727  1.00  0.00    -0.269 OA
ATOM      3  N   UNL     1       3.803 -11.786 -14.940  1.00  0.00    -0.274 N 
ATOM      4  C   UNL     1       3.099 -10.616 -15.063  1.00  0.00     0.321 C 
ATOM      5  O   UNL     1       3.639  -9.682 -15.665  1.00  0.00    -0.248 OA
ATOM      6  N   UNL     1       1.873 -10.426 -14.539  1.00  0.00    -0.334 N 
ATOM      7  H   UNL     1       4.721 -11.623 -15.331  1.00  0.00     0.175 HD
ATOM      8  H   UNL     1       1.528  -9.483 -14.643  1.00  0.00     0.165 HD
ENDROOT
BRANCH   1   9
ATOM      9  C   UNL     1       4.900 -13.820 -14.224  1.00  0.00     0.040 A 
ATOM     10  C   UNL     1       5.825 -13.803 -15.270  1.00  0.00     0.014 A 
ATOM     11  C   UNL     1       6.999 -14.548 -15.156  1.00  0.00     0.004 A 
ATOM     12  C   UNL     1       5.114 -14.622 -13.099  1.00  0.00     0.014 A 
ATOM     13  C   UNL     1       7.248 -15.315 -14.008  1.00  0.00    -0.051 A 
ATOM     14  C   UNL     1       6.291 -15.360 -12.987  1.00  0.00     0.004 A 
ATOM     15  C   UNL     1       8.552 -16.043 -13.865  1.00  0.00     0.044 C 
ENDBRANCH   1   9
BRANCH   6  16
ATOM     16  C   UNL     1       1.119 -11.336 -13.723  1.00  0.00     0.153 C 
BRANCH  16  17
ATOM     17  C   UNL     1       0.949 -10.982 -12.272  1.00  0.00    -0.029 A 
ATOM     18  C   UNL     1       1.184 -11.889 -11.233  1.00  0.00     0.006 A 
ATOM     19  C   UNL     1       0.752  -9.628 -11.959  1.00  0.00     0.006 A 
ATOM     20  C   UNL     1       1.244 -11.438  -9.910  1.00  0.00     0.004 A 
ATOM     21  C   UNL     1       0.816  -9.180 -10.643  1.00  0.00     0.004 A 
ATOM     22  C   UNL     1       1.073 -10.080  -9.608  1.00  0.00    -0.051 A 
ATOM     23  C   UNL     1       1.277  -9.568  -8.213  1.00  0.00     0.044 C 
ENDBRANCH  16  17
ENDBRANCH   6  16
TORSDOF 3
ENDMDL
MODEL 7
REMARK VINA RESULT:    -4.303      6.512     10.977
REMARK INTER + INTRA:          -5.436
REMARK INTER:                  -4.963
REMARK INTRA:                  -0.474
REMARK UNBOUND:                -0.378
REMARK SMILES Cc1ccc(CNC(=O)NC(=O)c2ccc(C)cc2)cc1
REMARK SMILES IDX 11 1 12 2 10 3 8 4 9 5 7 6 13 9 19 10 18 11 14 12 16 13
REMARK SMILES IDX 15 14 17 15 6 16 5 17 4 18 20 19 3 20 21 21 2 22 1 23
REMARK H PARENT 10 7 7 8
ROOT
ATOM      1  C   UNL     1       4.025 -13.597 -14.067  1.00  0.00     0.259 C 
ATOM      2  O   UNL     1       3.986 -12.441 -13.671  1.00  0.00    -0.269 OA
ATOM      3  N   UNL     1       2.965 -14.481 -14.294  1.00  0.00    -0.274 N 
ATOM      4  C   UNL     1       1.600 -14.416 -14.415  1.00  0.00     0.321 C 
ATOM      5  O   UNL     1       1.006 -15.443 -14.762  1.00  0.00    -0.248 OA
ATOM      6  N   UNL     1       0.887 -13.294 -14.208  1.00  0.00    -0.334 N 
ATOM      7  H   UNL     1       3.248 -15.401 -14.603  1.00  0.00     0.175 HD
ATOM      8  H   UNL     1      -0.095 -13.391 -14.422  1.00  0.00     0.165 HD
ENDROOT
BRANCH   1   9
ATOM      9  C   UNL     1       5.361 -14.153 -14.354  1.00  0.00     0.040 A 
ATOM     10  C   UNL     1       6.100 -13.735 -15.463  1.00  0.00     0.014 A 
ATOM     11  C   UNL     1       7.381 -14.250 -15.665  1.00  0.00     0.004 A 
ATOM     12  C   UNL     1       5.871 -15.121 -13.484  1.00  0.00     0.014 A 
ATOM     13  C   UNL     1       7.922 -15.184 -14.768  1.00  0.00    -0.051 A 
ATOM     14  C   UNL     1       7.153 -15.628 -13.685  1.00  0.00     0.004 A 
ATOM     15  C   UNL     1       9.332 -15.664 -14.951  1.00  0.00     0.044 C 
ENDBRANCH   1   9
BRANCH   6  16
ATOM     16  C   UNL     1       1.385 -11.983 -13.903  1.00  0.00     0.153 C 
BRANCH  16  17
ATOM     17  C   UNL     1       1.090 -11.433 -12.535  1.00  0.00    -0.029 A 
ATOM     18  C   UNL     1       1.245 -12.179 -11.362  1.00  0.00     0.006 A 
ATOM     19  C   UNL     1       0.852 -10.053 -12.434  1.00  0.00     0.006 A 
ATOM     20  C   UNL     1       1.188 -11.546 -10.117  1.00  0.00     0.004 A 
ATOM     21  C   UNL     1       0.801  -9.423 -11.195  1.00  0.00     0.004 A 
ATOM     22  C   UNL     1       0.978 -10.163 -10.025  1.00  0.00    -0.051 A 
ATOM     23  C   UNL     1       1.058  -9.456  -8.705  1.00  0.00     0.044 C 
ENDBRANCH  16  17
ENDBRANCH   6  16
TORSDOF 3
ENDMDL
MODEL 8
REMARK VINA RESULT:    -4.184      4.861      7.912
REMARK INTER + INTRA:          -5.296
REMARK INTER:                  -4.804
REMARK INTRA:                  -0.492
REMARK UNBOUND:                -0.378
REMARK SMILES Cc1ccc(CNC(=O)NC(=O)c2ccc(C)cc2)cc1
REMARK SMILES IDX 11 1 12 2 10 3 8 4 9 5 7 6 13 9 19 10 18 11 14 12 16 13
REMARK SMILES IDX 15 14 17 15 6 16 5 17 4 18 20 19 3 20 21 21 2 22 1 23
REMARK H PARENT 10 7 7 8
ROOT
ATOM      1  C   UNL     1       6.809 -14.398  -6.084  1.00  0.00     0.259 C 
ATOM      2  O   UNL     1       6.585 -15.198  -6.982  1.00  0.00    -0.269 OA
ATOM      3  N   UNL     1       7.676 -14.525  -4.995  1.00  0.00    -0.274 N 
ATOM      4  C   UNL     1       8.707 -15.344  -4.611  1.00  0.00     0.321 C 
ATOM      5  O   UNL     1       9.336 -15.035  -3.593  1.00  0.00    -0.248 OA
ATOM      6  N   UNL     1       9.084 -16.438  -5.298  1.00  0.00    -0.334 N 
ATOM      7  H   UNL     1       7.676 -13.733  -4.367  1.00  0.00     0.175 HD
ATOM      8  H   UNL     1       9.913 -16.883  -4.931  1.00  0.00     0.165 HD
ENDROOT
BRANCH   1   9
ATOM      9  C   UNL     1       6.077 -13.118  -6.143  1.00  0.00     0.040 A 
ATOM     10  C   UNL     1       5.768 -12.511  -7.362  1.00  0.00     0.014 A 
ATOM     11  C   UNL     1       5.030 -11.328  -7.369  1.00  0.00     0.004 A 
ATOM     12  C   UNL     1       5.705 -12.518  -4.936  1.00  0.00     0.014 A 
ATOM     13  C   UNL     1       4.606 -10.745  -6.165  1.00  0.00    -0.051 A 
ATOM     14  C   UNL     1       4.962 -11.340  -4.948  1.00  0.00     0.004 A 
ATOM     15  C   UNL     1       3.741  -9.520  -6.192  1.00  0.00     0.044 C 
ENDBRANCH   1   9
BRANCH   6  16
ATOM     16  C   UNL     1       8.561 -16.911  -6.548  1.00  0.00     0.153 C 
BRANCH  16  17
ATOM     17  C   UNL     1       9.428 -16.748  -7.765  1.00  0.00    -0.029 A 
ATOM     18  C   UNL     1      10.825 -16.822  -7.723  1.00  0.00     0.006 A 
ATOM     19  C   UNL     1       8.787 -16.731  -9.015  1.00  0.00     0.006 A 
ATOM     20  C   UNL     1      11.558 -16.904  -8.912  1.00  0.00     0.004 A 
ATOM     21  C   UNL     1       9.517 -16.817 -10.196  1.00  0.00     0.004 A 
ATOM     22  C   UNL     1      10.909 -16.915 -10.154  1.00  0.00    -0.051 A 
ATOM     23  C   UNL     1      11.675 -17.145 -11.423  1.00  0.00     0.044 C 
ENDBRANCH  16  17
ENDBRANCH   6  16
TORSDOF 3
ENDMDL
MODEL 9
REMARK VINA RESULT:    -4.045      5.738     10.389
REMARK INTER + INTRA:          -5.132
REMARK INTER:                  -4.567
REMARK INTRA:                  -0.565
REMARK UNBOUND:                -0.378
REMARK SMILES Cc1ccc(CNC(=O)NC(=O)c2ccc(C)cc2)cc1
REMARK SMILES IDX 11 1 12 2 10 3 8 4 9 5 7 6 13 9 19 10 18 11 14 12 16 13
REMARK SMILES IDX 15 14 17 15 6 16 5 17 4 18 20 19 3 20 21 21 2 22 1 23
REMARK H PARENT 10 7 7 8
ROOT
ATOM      1  C   UNL     1       4.902 -14.476 -12.432  1.00  0.00     0.259 C 
ATOM      2  O   UNL     1       3.831 -14.804 -11.941  1.00  0.00    -0.269 OA
ATOM      3  N   UNL     1       5.141 -13.742 -13.598  1.00  0.00    -0.274 N 
ATOM      4  C   UNL     1       4.428 -12.949 -14.461  1.00  0.00     0.321 C 
ATOM      5  O   UNL     1       5.056 -12.345 -15.337  1.00  0.00    -0.248 OA
ATOM      6  N   UNL     1       3.096 -12.775 -14.383  1.00  0.00    -0.334 N 
ATOM      7  H   UNL     1       6.120 -13.613 -13.816  1.00  0.00     0.175 HD
ATOM      8  H   UNL     1       2.735 -12.094 -15.036  1.00  0.00     0.165 HD
ENDROOT
BRANCH   1   9
ATOM      9  C   UNL     1       6.117 -14.898 -11.710  1.00  0.00     0.040 A 
ATOM     10  C   UNL     1       6.235 -14.741 -10.328  1.00  0.00     0.014 A 
ATOM     11  C   UNL     1       7.381 -15.203  -9.682  1.00  0.00     0.004 A 
ATOM     12  C   UNL     1       7.161 -15.459 -12.453  1.00  0.00     0.014 A 
ATOM     13  C   UNL     1       8.413 -15.814 -10.412  1.00  0.00    -0.051 A 
ATOM     14  C   UNL     1       8.302 -15.925 -11.803  1.00  0.00     0.004 A 
ATOM     15  C   UNL     1       9.601 -16.382  -9.693  1.00  0.00     0.044 C 
ENDBRANCH   1   9
BRANCH   6  16
ATOM     16  C   UNL     1       2.201 -13.296 -13.388  1.00  0.00     0.153 C 
BRANCH  16  17
ATOM     17  C   UNL     1       1.559 -12.309 -12.453  1.00  0.00    -0.029 A 
ATOM     18  C   UNL     1       1.486 -12.503 -11.070  1.00  0.00     0.006 A 
ATOM     19  C   UNL     1       1.212 -11.054 -12.981  1.00  0.00     0.006 A 
ATOM     20  C   UNL     1       1.098 -11.450 -10.234  1.00  0.00     0.004 A 
ATOM     21  C   UNL     1       0.831 -10.007 -12.149  1.00  0.00     0.004 A 
ATOM     22  C   UNL     1       0.780 -10.193 -10.766  1.00  0.00    -0.051 A 
ATOM     23  C   UNL     1       0.503  -9.024  -9.870  1.00  0.00     0.044 C 
ENDBRANCH  16  17
ENDBRANCH   6  16
TORSDOF 3
ENDMDL
