MODEL 1
REMARK VINA RESULT:    -4.371      0.000      0.000
REMARK INTER + INTRA:          -6.018
REMARK INTER:                  -5.777
REMARK INTRA:                  -0.241
REMARK UNBOUND:                -0.241
REMARK SMILES [H]/N=C\C[C@H]1C[C@@H]1O[C@H]1CO[C@H]2C[C@@H](C3CC3)CCN2C1
REMARK SMILES IDX 7 1 6 2 5 3 8 4 9 5 14 6 13 7 18 8 12 9 19 10 20 11 11 12
REMARK SMILES IDX 21 13 10 14 15 15 16 16 17 17 4 18 3 19 2 20 1 21
REMARK H PARENT
ROOT
ATOM      1  C   UNL     1      10.204 -17.055  -6.259  1.00  0.00     0.122 C 
ATOM      2  C   UNL     1      11.674 -16.751  -6.327  1.00  0.00     0.039 C 
ATOM      3  C   UNL     1      10.801 -16.012  -5.354  1.00  0.00     0.026 C 
ENDROOT
BRANCH   1   4
ATOM      4  O   UNL     1       9.452 -16.575  -7.389  1.00  0.00    -0.371 OA
BRANCH   4   5
ATOM      5  C   UNL     1       8.111 -17.080  -7.500  1.00  0.00     0.158 C 
ATOM      6  C   UNL     1       5.536 -12.566  -7.056  1.00  0.00    -0.003 C 
ATOM      7  C   UNL     1       6.326 -13.477  -6.109  1.00  0.00     0.052 C 
ATOM      8  C   UNL     1       6.142 -12.650  -8.464  1.00  0.00     0.019 C 
ATOM      9  C   UNL     1       6.440 -14.907  -6.657  1.00  0.00     0.189 C 
ATOM     10  C   UNL     1       6.259 -14.099  -8.936  1.00  0.00     0.087 C 
ATOM     11  N   UNL     1       7.041 -14.896  -7.990  1.00  0.00    -0.276 NA
ATOM     12  O   UNL     1       7.229 -15.642  -5.719  1.00  0.00    -0.360 OA
ATOM     13  C   UNL     1       7.236 -16.268  -8.472  1.00  0.00     0.121 C 
ATOM     14  C   UNL     1       7.455 -16.997  -6.118  1.00  0.00     0.195 C 
BRANCH   6  15
ATOM     15  C   UNL     1       5.524 -11.135  -6.568  1.00  0.00    -0.008 C 
ATOM     16  C   UNL     1       4.215 -10.426  -6.310  1.00  0.00     0.004 C 
ATOM     17  C   UNL     1       5.101 -10.802  -5.158  1.00  0.00     0.004 C 
ENDBRANCH   6  15
ENDBRANCH   4   5
ENDBRANCH   1   4
BRANCH   3  18
ATOM     18  C   UNL     1      10.957 -16.282  -3.888  1.00  0.00     0.053 C 
BRANCH  18  19
ATOM     19  C   UNL     1      10.603 -15.149  -2.960  1.00  0.00     0.074 C 
BRANCH  19  20
ATOM     20  N   UNL     1      10.666 -15.178  -1.671  1.00  0.00    -0.313 NA
ATOM     21  H   UNL     1       9.774 -15.478  -1.253  1.00  0.00     0.186 HD
ENDBRANCH  19  20
ENDBRANCH  18  19
ENDBRANCH   3  18
TORSDOF 6
ENDMDL
MODEL 2
REMARK VINA RESULT:    -4.170      5.449      8.441
REMARK INTER + INTRA:          -5.752
REMARK INTER:                  -5.506
REMARK INTRA:                  -0.246
REMARK UNBOUND:                -0.241
REMARK SMILES [H]/N=C\C[C@H]1C[C@@H]1O[C@H]1CO[C@H]2C[C@@H](C3CC3)CCN2C1
REMARK SMILES IDX 7 1 6 2 5 3 8 4 9 5 14 6 13 7 18 8 12 9 19 10 20 11 11 12
REMARK SMILES IDX 21 13 10 14 15 15 16 16 17 17 4 18 3 19 2 20 1 21
REMARK H PARENT
ROOT
ATOM      1  C   UNL     1       4.214 -11.161  -5.977  1.00  0.00     0.122 C 
ATOM      2  C   UNL     1       5.433 -11.595  -6.742  1.00  0.00     0.039 C 
ATOM      3  C   UNL     1       5.403 -11.722  -5.246  1.00  0.00     0.026 C 
ENDROOT
BRANCH   1   4
ATOM      4  O   UNL     1       4.036  -9.733  -5.918  1.00  0.00    -0.371 OA
BRANCH   4   5
ATOM      5  C   UNL     1       3.647  -9.106  -7.151  1.00  0.00     0.158 C 
ATOM      6  C   UNL     1       0.297  -5.602  -5.224  1.00  0.00    -0.003 C 
ATOM      7  C   UNL     1       0.301  -7.122  -5.428  1.00  0.00     0.052 C 
ATOM      8  C   UNL     1       1.728  -5.126  -4.935  1.00  0.00     0.019 C 
ATOM      9  C   UNL     1       1.329  -7.554  -6.482  1.00  0.00     0.189 C 
ATOM     10  C   UNL     1       2.706  -5.617  -6.002  1.00  0.00     0.087 C 
ATOM     11  N   UNL     1       2.663  -7.074  -6.121  1.00  0.00    -0.276 NA
ATOM     12  O   UNL     1       1.272  -8.980  -6.549  1.00  0.00    -0.360 OA
ATOM     13  C   UNL     1       3.659  -7.568  -7.078  1.00  0.00     0.121 C 
ATOM     14  C   UNL     1       2.212  -9.536  -7.473  1.00  0.00     0.195 C 
BRANCH   6  15
ATOM     15  C   UNL     1      -0.634  -5.194  -4.106  1.00  0.00    -0.008 C 
ATOM     16  C   UNL     1      -1.731  -4.186  -4.355  1.00  0.00     0.004 C 
ATOM     17  C   UNL     1      -2.081  -5.625  -4.108  1.00  0.00     0.004 C 
ENDBRANCH   6  15
ENDBRANCH   4   5
ENDBRANCH   1   4
BRANCH   3  18
ATOM     18  C   UNL     1       5.338 -13.090  -4.634  1.00  0.00     0.053 C 
BRANCH  18  19
ATOM     19  C   UNL     1       6.409 -14.061  -5.058  1.00  0.00     0.074 C 
BRANCH  19  20
ATOM     20  N   UNL     1       7.544 -14.241  -4.468  1.00  0.00    -0.313 NA
ATOM     21  H   UNL     1       7.474 -14.942  -3.717  1.00  0.00     0.186 HD
ENDBRANCH  19  20
ENDBRANCH  18  19
ENDBRANCH   3  18
TORSDOF 6
ENDMDL
MODEL 3
REMARK VINA RESULT:    -4.148      8.402     10.839
REMARK INTER + INTRA:          -5.722
REMARK INTER:                  -5.480
REMARK INTRA:                  -0.243
REMARK UNBOUND:                -0.241
REMARK SMILES [H]/N=C\C[C@H]1C[C@@H]1O[C@H]1CO[C@H]2C[C@@H](C3CC3)CCN2C1
REMARK SMILES IDX 7 1 6 2 5 3 8 4 9 5 14 6 13 7 18 8 12 9 19 10 20 11 11 12
REMARK SMILES IDX 21 13 10 14 15 15 16 16 17 17 4 18 3 19 2 20 1 21
REMARK H PARENT
ROOT
ATOM      1  C   UNL     1       1.496  -9.633  -9.736  1.00  0.00     0.122 C 
ATOM      2  C   UNL     1       0.935 -10.925 -10.260  1.00  0.00     0.039 C 
ATOM      3  C   UNL     1       0.603  -9.631 -10.946  1.00  0.00     0.026 C 
ENDROOT
BRANCH   1   4
ATOM      4  O   UNL     1       0.905  -9.195  -8.498  1.00  0.00    -0.371 OA
BRANCH   4   5
ATOM      5  C   UNL     1       1.338  -9.898  -7.322  1.00  0.00     0.158 C 
ATOM      6  C   UNL     1       1.827  -5.818  -4.108  1.00  0.00    -0.003 C 
ATOM      7  C   UNL     1       2.598  -6.363  -5.317  1.00  0.00     0.052 C 
ATOM      8  C   UNL     1       0.335  -6.140  -4.272  1.00  0.00     0.019 C 
ATOM      9  C   UNL     1       2.301  -7.849  -5.560  1.00  0.00     0.189 C 
ATOM     10  C   UNL     1       0.111  -7.627  -4.544  1.00  0.00     0.087 C 
ATOM     11  N   UNL     1       0.863  -8.063  -5.721  1.00  0.00    -0.276 NA
ATOM     12  O   UNL     1       3.033  -8.226  -6.728  1.00  0.00    -0.360 OA
ATOM     13  C   UNL     1       0.590  -9.467  -6.048  1.00  0.00     0.121 C 
ATOM     14  C   UNL     1       2.824  -9.591  -7.104  1.00  0.00     0.195 C 
BRANCH   6  15
ATOM     15  C   UNL     1       2.035  -4.330  -3.943  1.00  0.00    -0.008 C 
ATOM     16  C   UNL     1       2.359  -3.750  -2.586  1.00  0.00     0.004 C 
ATOM     17  C   UNL     1       3.407  -3.766  -3.662  1.00  0.00     0.004 C 
ENDBRANCH   6  15
ENDBRANCH   4   5
ENDBRANCH   1   4
BRANCH   3  18
ATOM     18  C   UNL     1       1.175  -9.363 -12.307  1.00  0.00     0.053 C 
BRANCH  18  19
ATOM     19  C   UNL     1       0.939 -10.425 -13.349  1.00  0.00     0.074 C 
BRANCH  19  20
ATOM     20  N   UNL     1      -0.184 -10.674 -13.936  1.00  0.00    -0.313 NA
ATOM     21  H   UNL     1      -0.980 -10.278 -13.416  1.00  0.00     0.186 HD
ENDBRANCH  19  20
ENDBRANCH  18  19
ENDBRANCH   3  18
TORSDOF 6
ENDMDL
MODEL 4
REMARK VINA RESULT:    -3.629      8.525     10.951
REMARK INTER + INTRA:          -5.037
REMARK INTER:                  -4.981
REMARK INTRA:                  -0.056
REMARK UNBOUND:                -0.241
REMARK SMILES [H]/N=C\C[C@H]1C[C@@H]1O[C@H]1CO[C@H]2C[C@@H](C3CC3)CCN2C1
REMARK SMILES IDX 7 1 6 2 5 3 8 4 9 5 14 6 13 7 18 8 12 9 19 10 20 11 11 12
REMARK SMILES IDX 21 13 10 14 15 15 16 16 17 17 4 18 3 19 2 20 1 21
REMARK H PARENT
ROOT
ATOM      1  C   UNL     1       1.135  -9.901  -9.496  1.00  0.00     0.122 C 
ATOM      2  C   UNL     1      -0.134  -9.315 -10.045  1.00  0.00     0.039 C 
ATOM      3  C   UNL     1       1.005  -9.636 -10.971  1.00  0.00     0.026 C 
ENDROOT
BRANCH   1   4
ATOM      4  O   UNL     1       1.934  -8.970  -8.741  1.00  0.00    -0.371 OA
BRANCH   4   5
ATOM      5  C   UNL     1       2.572  -9.506  -7.571  1.00  0.00     0.158 C 
ATOM      6  C   UNL     1       0.405  -6.387  -3.996  1.00  0.00    -0.003 C 
ATOM      7  C   UNL     1       1.458  -6.227  -5.100  1.00  0.00     0.052 C 
ATOM      8  C   UNL     1      -0.633  -7.431  -4.433  1.00  0.00     0.019 C 
ATOM      9  C   UNL     1       2.062  -7.577  -5.511  1.00  0.00     0.189 C 
ATOM     10  C   UNL     1       0.035  -8.737  -4.861  1.00  0.00     0.087 C 
ATOM     11  N   UNL     1       1.009  -8.503  -5.927  1.00  0.00    -0.276 NA
ATOM     12  O   UNL     1       2.986  -7.306  -6.567  1.00  0.00    -0.360 OA
ATOM     13  C   UNL     1       1.595  -9.758  -6.409  1.00  0.00     0.121 C 
ATOM     14  C   UNL     1       3.607  -8.487  -7.084  1.00  0.00     0.195 C 
BRANCH   6  15
ATOM     15  C   UNL     1      -0.268  -5.071  -3.677  1.00  0.00    -0.008 C 
ATOM     16  C   UNL     1       0.499  -3.970  -2.982  1.00  0.00     0.004 C 
ATOM     17  C   UNL     1       0.103  -3.812  -4.422  1.00  0.00     0.004 C 
ENDBRANCH   6  15
ENDBRANCH   4   5
ENDBRANCH   1   4
BRANCH   3  18
ATOM     18  C   UNL     1       0.859 -10.776 -11.934  1.00  0.00     0.053 C 
BRANCH  18  19
ATOM     19  C   UNL     1       0.565 -10.407 -13.364  1.00  0.00     0.074 C 
BRANCH  19  20
ATOM     20  N   UNL     1      -0.143 -11.097 -14.194  1.00  0.00    -0.313 NA
ATOM     21  H   UNL     1       0.449 -11.604 -14.868  1.00  0.00     0.186 HD
ENDBRANCH  19  20
ENDBRANCH  18  19
ENDBRANCH   3  18
TORSDOF 6
ENDMDL
MODEL 5
REMARK VINA RESULT:    -3.576      6.897      8.840
REMARK INTER + INTRA:          -4.967
REMARK INTER:                  -4.327
REMARK INTRA:                  -0.640
REMARK UNBOUND:                -0.241
REMARK SMILES [H]/N=C\C[C@H]1C[C@@H]1O[C@H]1CO[C@H]2C[C@@H](C3CC3)CCN2C1
REMARK SMILES IDX 7 1 6 2 5 3 8 4 9 5 14 6 13 7 18 8 12 9 19 10 20 11 11 12
REMARK SMILES IDX 21 13 10 14 15 15 16 16 17 17 4 18 3 19 2 20 1 21
REMARK H PARENT
ROOT
ATOM      1  C   UNL     1       4.468 -14.993 -14.007  1.00  0.00     0.122 C 
ATOM      2  C   UNL     1       5.960 -15.163 -13.944  1.00  0.00     0.039 C 
ATOM      3  C   UNL     1       5.216 -14.621 -12.757  1.00  0.00     0.026 C 
ENDROOT
BRANCH   1   4
ATOM      4  O   UNL     1       4.037 -13.906 -14.848  1.00  0.00    -0.371 OA
BRANCH   4   5
ATOM      5  C   UNL     1       2.654 -13.936 -15.238  1.00  0.00     0.158 C 
ATOM      6  C   UNL     1       0.872 -10.181 -12.087  1.00  0.00    -0.003 C 
ATOM      7  C   UNL     1       1.363 -11.623 -11.909  1.00  0.00     0.052 C 
ATOM      8  C   UNL     1       1.629  -9.527 -13.251  1.00  0.00     0.019 C 
ATOM      9  C   UNL     1       1.294 -12.414 -13.222  1.00  0.00     0.189 C 
ATOM     10  C   UNL     1       1.551 -10.380 -14.517  1.00  0.00     0.087 C 
ATOM     11  N   UNL     1       2.054 -11.732 -14.269  1.00  0.00    -0.276 NA
ATOM     12  O   UNL     1       1.815 -13.715 -12.943  1.00  0.00    -0.360 OA
ATOM     13  C   UNL     1       2.067 -12.537 -15.496  1.00  0.00     0.121 C 
ATOM     14  C   UNL     1       1.850 -14.563 -14.094  1.00  0.00     0.195 C 
BRANCH   6  15
ATOM     15  C   UNL     1       1.048  -9.374 -10.820  1.00  0.00    -0.008 C 
ATOM     16  C   UNL     1      -0.113  -9.172  -9.875  1.00  0.00     0.004 C 
ATOM     17  C   UNL     1       1.038 -10.045  -9.468  1.00  0.00     0.004 C 
ENDBRANCH   6  15
ENDBRANCH   4   5
ENDBRANCH   1   4
BRANCH   3  18
ATOM     18  C   UNL     1       5.098 -15.467 -11.525  1.00  0.00     0.053 C 
BRANCH  18  19
ATOM     19  C   UNL     1       4.317 -14.874 -10.381  1.00  0.00     0.074 C 
BRANCH  19  20
ATOM     20  N   UNL     1       3.048 -14.637 -10.373  1.00  0.00    -0.313 NA
ATOM     21  H   UNL     1       2.846 -13.640 -10.532  1.00  0.00     0.186 HD
ENDBRANCH  19  20
ENDBRANCH  18  19
ENDBRANCH   3  18
TORSDOF 6
ENDMDL
MODEL 6
REMARK VINA RESULT:    -3.542      7.877      8.737
REMARK INTER + INTRA:          -4.922
REMARK INTER:                  -4.774
REMARK INTRA:                  -0.148
REMARK UNBOUND:                -0.241
REMARK SMILES [H]/N=C\C[C@H]1C[C@@H]1O[C@H]1CO[C@H]2C[C@@H](C3CC3)CCN2C1
REMARK SMILES IDX 7 1 6 2 5 3 8 4 9 5 14 6 13 7 18 8 12 9 19 10 20 11 11 12
REMARK SMILES IDX 21 13 10 14 15 15 16 16 17 17 4 18 3 19 2 20 1 21
REMARK H PARENT
ROOT
ATOM      1  C   UNL     1       4.480 -14.116 -13.738  1.00  0.00     0.122 C 
ATOM      2  C   UNL     1       4.281 -14.588 -15.151  1.00  0.00     0.039 C 
ATOM      3  C   UNL     1       5.516 -13.814 -14.787  1.00  0.00     0.026 C 
ENDROOT
BRANCH   1   4
ATOM      4  O   UNL     1       3.616 -13.030 -13.354  1.00  0.00    -0.371 OA
BRANCH   4   5
ATOM      5  C   UNL     1       2.240 -13.382 -13.135  1.00  0.00     0.158 C 
ATOM      6  C   UNL     1       1.148  -9.952  -9.360  1.00  0.00    -0.003 C 
ATOM      7  C   UNL     1       1.972 -11.241  -9.468  1.00  0.00     0.052 C 
ATOM      8  C   UNL     1       1.190  -9.209 -10.702  1.00  0.00     0.019 C 
ATOM      9  C   UNL     1       1.541 -12.094 -10.669  1.00  0.00     0.189 C 
ATOM     10  C   UNL     1       0.783 -10.122 -11.859  1.00  0.00     0.087 C 
ATOM     11  N   UNL     1       1.627 -11.316 -11.905  1.00  0.00    -0.276 NA
ATOM     12  O   UNL     1       2.403 -13.233 -10.691  1.00  0.00    -0.360 OA
ATOM     13  C   UNL     1       1.307 -12.160 -13.061  1.00  0.00     0.121 C 
ATOM     14  C   UNL     1       2.143 -14.111 -11.791  1.00  0.00     0.195 C 
BRANCH   6  15
ATOM     15  C   UNL     1       1.652  -9.063  -8.245  1.00  0.00    -0.008 C 
ATOM     16  C   UNL     1       1.163  -9.262  -6.830  1.00  0.00     0.004 C 
ATOM     17  C   UNL     1       2.581  -9.603  -7.185  1.00  0.00     0.004 C 
ENDBRANCH   6  15
ENDBRANCH   4   5
ENDBRANCH   1   4
BRANCH   3  18
ATOM     18  C   UNL     1       6.838 -14.522 -14.770  1.00  0.00     0.053 C 
BRANCH  18  19
ATOM     19  C   UNL     1       7.910 -13.952 -15.662  1.00  0.00     0.074 C 
BRANCH  19  20
ATOM     20  N   UNL     1       9.161 -13.837 -15.363  1.00  0.00    -0.313 NA
ATOM     21  H   UNL     1       9.403 -14.383 -14.525  1.00  0.00     0.186 HD
ENDBRANCH  19  20
ENDBRANCH  18  19
ENDBRANCH   3  18
TORSDOF 6
ENDMDL
MODEL 7
REMARK VINA RESULT:    -3.469      6.408      9.790
REMARK INTER + INTRA:          -4.826
REMARK INTER:                  -4.615
REMARK INTRA:                  -0.211
REMARK UNBOUND:                -0.241
REMARK SMILES [H]/N=C\C[C@H]1C[C@@H]1O[C@H]1CO[C@H]2C[C@@H](C3CC3)CCN2C1
REMARK SMILES IDX 7 1 6 2 5 3 8 4 9 5 14 6 13 7 18 8 12 9 19 10 20 11 11 12
REMARK SMILES IDX 21 13 10 14 15 15 16 16 17 17 4 18 3 19 2 20 1 21
REMARK H PARENT
ROOT
ATOM      1  C   UNL     1       1.551  -9.783 -13.448  1.00  0.00     0.122 C 
ATOM      2  C   UNL     1       2.158  -8.776 -14.384  1.00  0.00     0.039 C 
ATOM      3  C   UNL     1       2.890 -10.052 -14.079  1.00  0.00     0.026 C 
ENDROOT
BRANCH   1   4
ATOM      4  O   UNL     1       1.558  -9.379 -12.066  1.00  0.00    -0.371 OA
BRANCH   4   5
ATOM      5  C   UNL     1       0.553  -9.985 -11.238  1.00  0.00     0.158 C 
ATOM      6  C   UNL     1       3.200 -10.095  -6.745  1.00  0.00    -0.003 C 
ATOM      7  C   UNL     1       3.263 -10.854  -8.076  1.00  0.00     0.052 C 
ATOM      8  C   UNL     1       2.730  -8.657  -7.004  1.00  0.00     0.019 C 
ATOM      9  C   UNL     1       1.941 -10.758  -8.850  1.00  0.00     0.189 C 
ATOM     10  C   UNL     1       1.429  -8.630  -7.807  1.00  0.00     0.087 C 
ATOM     11  N   UNL     1       1.578  -9.358  -9.067  1.00  0.00    -0.276 NA
ATOM     12  O   UNL     1       2.137 -11.458 -10.080  1.00  0.00    -0.360 OA
ATOM     13  C   UNL     1       0.365  -9.268  -9.889  1.00  0.00     0.121 C 
ATOM     14  C   UNL     1       0.989 -11.422 -10.934  1.00  0.00     0.195 C 
BRANCH   6  15
ATOM     15  C   UNL     1       4.538 -10.097  -6.041  1.00  0.00    -0.008 C 
ATOM     16  C   UNL     1       4.900 -11.215  -5.092  1.00  0.00     0.004 C 
ATOM     17  C   UNL     1       5.606 -11.098  -6.412  1.00  0.00     0.004 C 
ENDBRANCH   6  15
ENDBRANCH   4   5
ENDBRANCH   1   4
BRANCH   3  18
ATOM     18  C   UNL     1       3.025 -11.088 -15.154  1.00  0.00     0.053 C 
BRANCH  18  19
ATOM     19  C   UNL     1       4.072 -12.147 -14.931  1.00  0.00     0.074 C 
BRANCH  19  20
ATOM     20  N   UNL     1       4.744 -12.331 -13.844  1.00  0.00    -0.313 NA
ATOM     21  H   UNL     1       5.342 -13.167 -13.904  1.00  0.00     0.186 HD
ENDBRANCH  19  20
ENDBRANCH  18  19
ENDBRANCH   3  18
TORSDOF 6
ENDMDL
MODEL 8
REMARK VINA RESULT:    -3.403      3.323      6.166
REMARK INTER + INTRA:          -4.738
REMARK INTER:                  -4.167
REMARK INTRA:                  -0.571
REMARK UNBOUND:                -0.241
REMARK SMILES [H]/N=C\C[C@H]1C[C@@H]1O[C@H]1CO[C@H]2C[C@@H](C3CC3)CCN2C1
REMARK SMILES IDX 7 1 6 2 5 3 8 4 9 5 14 6 13 7 18 8 12 9 19 10 20 11 11 12
REMARK SMILES IDX 21 13 10 14 15 15 16 16 17 17 4 18 3 19 2 20 1 21
REMARK H PARENT
ROOT
ATOM      1  C   UNL     1       4.752 -16.122 -11.337  1.00  0.00     0.122 C 
ATOM      2  C   UNL     1       3.811 -17.141 -11.914  1.00  0.00     0.039 C 
ATOM      3  C   UNL     1       3.270 -15.986 -11.122  1.00  0.00     0.026 C 
ENDROOT
BRANCH   1   4
ATOM      4  O   UNL     1       5.524 -16.602 -10.220  1.00  0.00    -0.371 OA
BRANCH   4   5
ATOM      5  C   UNL     1       6.849 -16.058 -10.102  1.00  0.00     0.158 C 
ATOM      6  C   UNL     1       5.959 -12.664  -6.242  1.00  0.00    -0.003 C 
ATOM      7  C   UNL     1       5.597 -12.755  -7.730  1.00  0.00     0.052 C 
ATOM      8  C   UNL     1       6.025 -14.078  -5.648  1.00  0.00     0.019 C 
ATOM      9  C   UNL     1       6.532 -13.709  -8.486  1.00  0.00     0.189 C 
ATOM     10  C   UNL     1       6.944 -14.985  -6.466  1.00  0.00     0.087 C 
ATOM     11  N   UNL     1       6.521 -15.033  -7.866  1.00  0.00    -0.276 NA
ATOM     12  O   UNL     1       6.070 -13.746  -9.838  1.00  0.00    -0.360 OA
ATOM     13  C   UNL     1       7.340 -15.968  -8.646  1.00  0.00     0.121 C 
ATOM     14  C   UNL     1       6.830 -14.633 -10.665  1.00  0.00     0.195 C 
BRANCH   6  15
ATOM     15  C   UNL     1       4.967 -11.814  -5.481  1.00  0.00    -0.008 C 
ATOM     16  C   UNL     1       5.372 -10.460  -4.948  1.00  0.00     0.004 C 
ATOM     17  C   UNL     1       4.401 -10.553  -6.089  1.00  0.00     0.004 C 
ENDBRANCH   6  15
ENDBRANCH   4   5
ENDBRANCH   1   4
BRANCH   3  18
ATOM     18  C   UNL     1       2.498 -14.915 -11.834  1.00  0.00     0.053 C 
BRANCH  18  19
ATOM     19  C   UNL     1       2.381 -13.593 -11.121  1.00  0.00     0.074 C 
BRANCH  19  20
ATOM     20  N   UNL     1       3.075 -13.220 -10.098  1.00  0.00    -0.313 NA
ATOM     21  H   UNL     1       3.560 -12.328 -10.274  1.00  0.00     0.186 HD
ENDBRANCH  19  20
ENDBRANCH  18  19
ENDBRANCH   3  18
TORSDOF 6
ENDMDL
MODEL 9
REMARK VINA RESULT:    -3.131      5.385      7.335
REMARK INTER + INTRA:          -4.379
REMARK INTER:                  -4.203
REMARK INTRA:                  -0.176
REMARK UNBOUND:                -0.241
REMARK SMILES [H]/N=C\C[C@H]1C[C@@H]1O[C@H]1CO[C@H]2C[C@@H](C3CC3)CCN2C1
REMARK SMILES IDX 7 1 6 2 5 3 8 4 9 5 14 6 13 7 18 8 12 9 19 10 20 11 11 12
REMARK SMILES IDX 21 13 10 14 15 15 16 16 17 17 4 18 3 19 2 20 1 21
REMARK H PARENT
ROOT
ATOM      1  C   UNL     1       5.436 -15.541 -12.247  1.00  0.00     0.122 C 
ATOM      2  C   UNL     1       6.915 -15.279 -12.206  1.00  0.00     0.039 C 
ATOM      3  C   UNL     1       6.113 -15.246 -10.937  1.00  0.00     0.026 C 
ENDROOT
BRANCH   1   4
ATOM      4  O   UNL     1       4.666 -14.472 -12.830  1.00  0.00    -0.371 OA
BRANCH   4   5
ATOM      5  C   UNL     1       3.329 -14.816 -13.228  1.00  0.00     0.158 C 
ATOM      6  C   UNL     1       0.887 -10.514 -11.575  1.00  0.00    -0.003 C 
ATOM      7  C   UNL     1       1.531 -11.736 -10.908  1.00  0.00     0.052 C 
ATOM      8  C   UNL     1       1.645 -10.183 -12.868  1.00  0.00     0.019 C 
ATOM      9  C   UNL     1       1.654 -12.917 -11.881  1.00  0.00     0.189 C 
ATOM     10  C   UNL     1       1.762 -11.408 -13.776  1.00  0.00     0.087 C 
ATOM     11  N   UNL     1       2.402 -12.520 -13.074  1.00  0.00    -0.276 NA
ATOM     12  O   UNL     1       2.304 -13.969 -11.166  1.00  0.00    -0.360 OA
ATOM     13  C   UNL     1       2.600 -13.674 -13.958  1.00  0.00     0.121 C 
ATOM     14  C   UNL     1       2.524 -15.136 -11.964  1.00  0.00     0.195 C 
BRANCH   6  15
ATOM     15  C   UNL     1       0.873  -9.320 -10.647  1.00  0.00    -0.008 C 
ATOM     16  C   UNL     1      -0.279  -9.108  -9.693  1.00  0.00     0.004 C 
ATOM     17  C   UNL     1       1.071  -9.492  -9.161  1.00  0.00     0.004 C 
ENDBRANCH   6  15
ENDBRANCH   4   5
ENDBRANCH   1   4
BRANCH   3  18
ATOM     18  C   UNL     1       6.309 -16.336  -9.926  1.00  0.00     0.053 C 
BRANCH  18  19
ATOM     19  C   UNL     1       5.638 -16.136  -8.592  1.00  0.00     0.074 C 
BRANCH  19  20
ATOM     20  N   UNL     1       4.456 -16.546  -8.269  1.00  0.00    -0.313 NA
ATOM     21  H   UNL     1       3.792 -15.763  -8.186  1.00  0.00     0.186 HD
ENDBRANCH  19  20
ENDBRANCH  18  19
ENDBRANCH   3  18
TORSDOF 6
ENDMDL
