MODEL 1
REMARK VINA RESULT:    -4.100      0.000      0.000
REMARK INTER + INTRA:          -5.593
REMARK INTER:                  -5.418
REMARK INTRA:                  -0.175
REMARK UNBOUND:                -0.175
REMARK SMILES [H]/N=C\C[C@H]1C[C@@H]1O[C@H]1CO[C@H]2C[C@@H](C3CC3)CCN2C1
REMARK SMILES IDX 7 1 6 2 5 3 8 4 9 5 14 6 13 7 18 8 12 9 19 10 20 11 11 12
REMARK SMILES IDX 21 13 10 14 15 15 16 16 17 17 4 18 3 19 2 20 1 21
REMARK H PARENT
ROOT
ATOM      1  C   UNL     1       1.739   9.554  -4.219  1.00  0.00     0.122 C 
ATOM      2  C   UNL     1       0.359   9.591  -4.812  1.00  0.00     0.039 C 
ATOM      3  C   UNL     1       1.297   8.474  -5.169  1.00  0.00     0.026 C 
ENDROOT
BRANCH   1   4
ATOM      4  O   UNL     1       2.633  10.552  -4.749  1.00  0.00    -0.371 OA
BRANCH   4   5
ATOM      5  C   UNL     1       3.629  11.040  -3.836  1.00  0.00     0.158 C 
ATOM      6  C   UNL     1       6.956  13.059  -7.308  1.00  0.00    -0.003 C 
ATOM      7  C   UNL     1       6.542  11.647  -6.876  1.00  0.00     0.052 C 
ATOM      8  C   UNL     1       5.753  14.003  -7.173  1.00  0.00     0.019 C 
ATOM      9  C   UNL     1       5.898  11.643  -5.483  1.00  0.00     0.189 C 
ATOM     10  C   UNL     1       5.138  13.927  -5.775  1.00  0.00     0.087 C 
ATOM     11  N   UNL     1       4.754  12.554  -5.447  1.00  0.00    -0.276 NA
ATOM     12  O   UNL     1       5.517  10.293  -5.212  1.00  0.00    -0.360 OA
ATOM     13  C   UNL     1       4.083  12.477  -4.144  1.00  0.00     0.121 C 
ATOM     14  C   UNL     1       4.862  10.138  -3.950  1.00  0.00     0.195 C 
BRANCH   6  15
ATOM     15  C   UNL     1       7.484  13.073  -8.725  1.00  0.00    -0.008 C 
ATOM     16  C   UNL     1       8.538  14.073  -9.137  1.00  0.00     0.004 C 
ATOM     17  C   UNL     1       8.891  12.617  -9.031  1.00  0.00     0.004 C 
ENDBRANCH   6  15
ENDBRANCH   4   5
ENDBRANCH   1   4
BRANCH   3  18
ATOM     18  C   UNL     1       1.009   7.093  -4.660  1.00  0.00     0.053 C 
BRANCH  18  19
ATOM     19  C   UNL     1       1.068   5.983  -5.677  1.00  0.00     0.074 C 
BRANCH  19  20
ATOM     20  N   UNL     1       1.052   6.130  -6.960  1.00  0.00    -0.313 NA
ATOM     21  H   UNL     1       0.626   7.026  -7.235  1.00  0.00     0.186 HD
ENDBRANCH  19  20
ENDBRANCH  18  19
ENDBRANCH   3  18
TORSDOF 6
ENDMDL
MODEL 2
REMARK VINA RESULT:    -4.040      2.682      8.568
REMARK INTER + INTRA:          -5.514
REMARK INTER:                  -5.269
REMARK INTRA:                  -0.245
REMARK UNBOUND:                -0.175
REMARK SMILES [H]/N=C\C[C@H]1C[C@@H]1O[C@H]1CO[C@H]2C[C@@H](C3CC3)CCN2C1
REMARK SMILES IDX 7 1 6 2 5 3 8 4 9 5 14 6 13 7 18 8 12 9 19 10 20 11 11 12
REMARK SMILES IDX 21 13 10 14 15 15 16 16 17 17 4 18 3 19 2 20 1 21
REMARK H PARENT
ROOT
ATOM      1  C   UNL     1       3.764  10.656  -4.803  1.00  0.00     0.122 C 
ATOM      2  C   UNL     1       4.219  12.035  -4.419  1.00  0.00     0.039 C 
ATOM      3  C   UNL     1       5.233  10.967  -4.715  1.00  0.00     0.026 C 
ENDROOT
BRANCH   1   4
ATOM      4  O   UNL     1       3.199   9.900  -3.715  1.00  0.00    -0.371 OA
BRANCH   4   5
ATOM      5  C   UNL     1       1.871  10.281  -3.319  1.00  0.00     0.158 C 
ATOM      6  C   UNL     1      -0.101   5.522  -2.504  1.00  0.00    -0.003 C 
ATOM      7  C   UNL     1       0.302   6.349  -3.732  1.00  0.00     0.052 C 
ATOM      8  C   UNL     1       0.815   5.883  -1.327  1.00  0.00     0.019 C 
ATOM      9  C   UNL     1       0.353   7.850  -3.416  1.00  0.00     0.189 C 
ATOM     10  C   UNL     1       0.848   7.392  -1.087  1.00  0.00     0.087 C 
ATOM     11  N   UNL     1       1.259   8.105  -2.296  1.00  0.00    -0.276 NA
ATOM     12  O   UNL     1       0.780   8.504  -4.612  1.00  0.00    -0.360 OA
ATOM     13  C   UNL     1       1.380   9.548  -2.058  1.00  0.00     0.121 C 
ATOM     14  C   UNL     1       0.912   9.921  -4.459  1.00  0.00     0.195 C 
BRANCH   6  15
ATOM     15  C   UNL     1      -0.039   4.039  -2.790  1.00  0.00    -0.008 C 
ATOM     16  C   UNL     1      -1.222   3.151  -2.482  1.00  0.00     0.004 C 
ATOM     17  C   UNL     1      -0.850   3.432  -3.909  1.00  0.00     0.004 C 
ENDBRANCH   6  15
ENDBRANCH   4   5
ENDBRANCH   1   4
BRANCH   3  18
ATOM     18  C   UNL     1       6.058  11.074  -5.963  1.00  0.00     0.053 C 
BRANCH  18  19
ATOM     19  C   UNL     1       6.694  12.414  -6.228  1.00  0.00     0.074 C 
BRANCH  19  20
ATOM     20  N   UNL     1       7.754  12.876  -5.653  1.00  0.00    -0.313 NA
ATOM     21  H   UNL     1       8.579  12.292  -5.851  1.00  0.00     0.186 HD
ENDBRANCH  19  20
ENDBRANCH  18  19
ENDBRANCH   3  18
TORSDOF 6
ENDMDL
MODEL 3
REMARK VINA RESULT:    -4.036      5.182      8.406
REMARK INTER + INTRA:          -5.508
REMARK INTER:                  -5.262
REMARK INTRA:                  -0.246
REMARK UNBOUND:                -0.175
REMARK SMILES [H]/N=C\C[C@H]1C[C@@H]1O[C@H]1CO[C@H]2C[C@@H](C3CC3)CCN2C1
REMARK SMILES IDX 7 1 6 2 5 3 8 4 9 5 14 6 13 7 18 8 12 9 19 10 20 11 11 12
REMARK SMILES IDX 21 13 10 14 15 15 16 16 17 17 4 18 3 19 2 20 1 21
REMARK H PARENT
ROOT
ATOM      1  C   UNL     1      -1.047  11.112  -4.618  1.00  0.00     0.122 C 
ATOM      2  C   UNL     1      -1.273  11.776  -5.947  1.00  0.00     0.039 C 
ATOM      3  C   UNL     1      -2.440  11.484  -5.048  1.00  0.00     0.026 C 
ENDROOT
BRANCH   1   4
ATOM      4  O   UNL     1      -0.694   9.718  -4.711  1.00  0.00    -0.371 OA
BRANCH   4   5
ATOM      5  C   UNL     1       0.640   9.446  -5.169  1.00  0.00     0.158 C 
ATOM      6  C   UNL     1       1.799   5.532  -1.922  1.00  0.00    -0.003 C 
ATOM      7  C   UNL     1       1.624   7.050  -1.794  1.00  0.00     0.052 C 
ATOM      8  C   UNL     1       0.858   5.003  -3.014  1.00  0.00     0.019 C 
ATOM      9  C   UNL     1       1.776   7.758  -3.148  1.00  0.00     0.189 C 
ATOM     10  C   UNL     1       1.034   5.771  -4.324  1.00  0.00     0.087 C 
ATOM     11  N   UNL     1       0.833   7.206  -4.121  1.00  0.00    -0.276 NA
ATOM     12  O   UNL     1       1.548   9.148  -2.910  1.00  0.00    -0.360 OA
ATOM     13  C   UNL     1       0.914   7.947  -5.384  1.00  0.00     0.121 C 
ATOM     14  C   UNL     1       1.620   9.939  -4.100  1.00  0.00     0.195 C 
BRANCH   6  15
ATOM     15  C   UNL     1       1.536   4.830  -0.609  1.00  0.00    -0.008 C 
ATOM     16  C   UNL     1       2.561   3.883  -0.030  1.00  0.00     0.004 C 
ATOM     17  C   UNL     1       2.305   5.204   0.635  1.00  0.00     0.004 C 
ENDBRANCH   6  15
ENDBRANCH   4   5
ENDBRANCH   1   4
BRANCH   3  18
ATOM     18  C   UNL     1      -3.154  12.626  -4.389  1.00  0.00     0.053 C 
BRANCH  18  19
ATOM     19  C   UNL     1      -3.606  13.741  -5.296  1.00  0.00     0.074 C 
BRANCH  19  20
ATOM     20  N   UNL     1      -4.723  13.785  -5.942  1.00  0.00    -0.313 NA
ATOM     21  H   UNL     1      -5.212  14.679  -5.795  1.00  0.00     0.186 HD
ENDBRANCH  19  20
ENDBRANCH  18  19
ENDBRANCH   3  18
TORSDOF 6
ENDMDL
MODEL 4
REMARK VINA RESULT:    -4.010      8.039     10.274
REMARK INTER + INTRA:          -5.475
REMARK INTER:                  -5.240
REMARK INTRA:                  -0.235
REMARK UNBOUND:                -0.175
REMARK SMILES [H]/N=C\C[C@H]1C[C@@H]1O[C@H]1CO[C@H]2C[C@@H](C3CC3)CCN2C1
REMARK SMILES IDX 7 1 6 2 5 3 8 4 9 5 14 6 13 7 18 8 12 9 19 10 20 11 11 12
REMARK SMILES IDX 21 13 10 14 15 15 16 16 17 17 4 18 3 19 2 20 1 21
REMARK H PARENT
ROOT
ATOM      1  C   UNL     1      -5.838  16.591  -8.813  1.00  0.00     0.122 C 
ATOM      2  C   UNL     1      -6.488  16.399 -10.154  1.00  0.00     0.039 C 
ATOM      3  C   UNL     1      -6.659  15.360  -9.083  1.00  0.00     0.026 C 
ENDROOT
BRANCH   1   4
ATOM      4  O   UNL     1      -4.407  16.426  -8.825  1.00  0.00    -0.371 OA
BRANCH   4   5
ATOM      5  C   UNL     1      -3.708  16.998  -7.707  1.00  0.00     0.158 C 
ATOM      6  C   UNL     1      -1.349  12.684  -5.969  1.00  0.00    -0.003 C 
ATOM      7  C   UNL     1      -2.784  13.223  -5.978  1.00  0.00     0.052 C 
ATOM      8  C   UNL     1      -0.615  13.173  -7.226  1.00  0.00     0.019 C 
ATOM      9  C   UNL     1      -2.821  14.745  -6.170  1.00  0.00     0.189 C 
ATOM     10  C   UNL     1      -0.718  14.690  -7.377  1.00  0.00     0.087 C 
ATOM     11  N   UNL     1      -2.116  15.121  -7.396  1.00  0.00    -0.276 NA
ATOM     12  O   UNL     1      -4.199  15.119  -6.208  1.00  0.00    -0.360 OA
ATOM     13  C   UNL     1      -2.233  16.565  -7.628  1.00  0.00     0.121 C 
ATOM     14  C   UNL     1      -4.393  16.521  -6.423  1.00  0.00     0.195 C 
BRANCH   6  15
ATOM     15  C   UNL     1      -1.323  11.174  -5.893  1.00  0.00    -0.008 C 
ATOM     16  C   UNL     1      -0.574  10.477  -4.782  1.00  0.00     0.004 C 
ATOM     17  C   UNL     1      -2.075  10.441  -4.809  1.00  0.00     0.004 C 
ENDBRANCH   6  15
ENDBRANCH   4   5
ENDBRANCH   1   4
BRANCH   3  18
ATOM     18  C   UNL     1      -8.005  15.194  -8.442  1.00  0.00     0.053 C 
BRANCH  18  19
ATOM     19  C   UNL     1      -8.072  14.246  -7.273  1.00  0.00     0.074 C 
BRANCH  19  20
ATOM     20  N   UNL     1      -9.145  13.889  -6.648  1.00  0.00    -0.313 NA
ATOM     21  H   UNL     1      -9.157  14.243  -5.681  1.00  0.00     0.186 HD
ENDBRANCH  19  20
ENDBRANCH  18  19
ENDBRANCH   3  18
TORSDOF 6
ENDMDL
MODEL 5
REMARK VINA RESULT:    -3.880      3.053      8.593
REMARK INTER + INTRA:          -5.302
REMARK INTER:                  -5.362
REMARK INTRA:                   0.060
REMARK UNBOUND:                -0.175
REMARK SMILES [H]/N=C\C[C@H]1C[C@@H]1O[C@H]1CO[C@H]2C[C@@H](C3CC3)CCN2C1
REMARK SMILES IDX 7 1 6 2 5 3 8 4 9 5 14 6 13 7 18 8 12 9 19 10 20 11 11 12
REMARK SMILES IDX 21 13 10 14 15 15 16 16 17 17 4 18 3 19 2 20 1 21
REMARK H PARENT
ROOT
ATOM      1  C   UNL     1       4.062  10.885  -3.691  1.00  0.00     0.122 C 
ATOM      2  C   UNL     1       5.173  10.718  -4.689  1.00  0.00     0.039 C 
ATOM      3  C   UNL     1       4.136  11.785  -4.894  1.00  0.00     0.026 C 
ENDROOT
BRANCH   1   4
ATOM      4  O   UNL     1       3.075   9.837  -3.730  1.00  0.00    -0.371 OA
BRANCH   4   5
ATOM      5  C   UNL     1       1.758  10.209  -3.293  1.00  0.00     0.158 C 
ATOM      6  C   UNL     1      -0.166   5.436  -2.444  1.00  0.00    -0.003 C 
ATOM      7  C   UNL     1       0.196   6.271  -3.679  1.00  0.00     0.052 C 
ATOM      8  C   UNL     1       0.783   5.796  -1.292  1.00  0.00     0.019 C 
ATOM      9  C   UNL     1       0.249   7.770  -3.357  1.00  0.00     0.189 C 
ATOM     10  C   UNL     1       0.816   7.304  -1.046  1.00  0.00     0.087 C 
ATOM     11  N   UNL     1       1.187   8.025  -2.264  1.00  0.00    -0.276 NA
ATOM     12  O   UNL     1       0.638   8.433  -4.562  1.00  0.00    -0.360 OA
ATOM     13  C   UNL     1       1.308   9.467  -2.022  1.00  0.00     0.121 C 
ATOM     14  C   UNL     1       0.767   9.850  -4.405  1.00  0.00     0.195 C 
BRANCH   6  15
ATOM     15  C   UNL     1      -0.105   3.954  -2.739  1.00  0.00    -0.008 C 
ATOM     16  C   UNL     1      -1.312   3.078  -2.503  1.00  0.00     0.004 C 
ATOM     17  C   UNL     1      -0.861   3.366  -3.905  1.00  0.00     0.004 C 
ENDBRANCH   6  15
ENDBRANCH   4   5
ENDBRANCH   1   4
BRANCH   3  18
ATOM     18  C   UNL     1       4.533  13.223  -4.738  1.00  0.00     0.053 C 
BRANCH  18  19
ATOM     19  C   UNL     1       3.514  14.245  -5.168  1.00  0.00     0.074 C 
BRANCH  19  20
ATOM     20  N   UNL     1       2.323  13.993  -5.599  1.00  0.00    -0.313 NA
ATOM     21  H   UNL     1       2.027  13.036  -5.359  1.00  0.00     0.186 HD
ENDBRANCH  19  20
ENDBRANCH  18  19
ENDBRANCH   3  18
TORSDOF 6
ENDMDL
MODEL 6
REMARK VINA RESULT:    -3.727      3.673      6.847
REMARK INTER + INTRA:          -5.100
REMARK INTER:                  -4.498
REMARK INTRA:                  -0.603
REMARK UNBOUND:                -0.175
REMARK SMILES [H]/N=C\C[C@H]1C[C@@H]1O[C@H]1CO[C@H]2C[C@@H](C3CC3)CCN2C1
REMARK SMILES IDX 7 1 6 2 5 3 8 4 9 5 14 6 13 7 18 8 12 9 19 10 20 11 11 12
REMARK SMILES IDX 21 13 10 14 15 15 16 16 17 17 4 18 3 19 2 20 1 21
REMARK H PARENT
ROOT
ATOM      1  C   UNL     1       4.570  16.983  -8.473  1.00  0.00     0.122 C 
ATOM      2  C   UNL     1       3.618  17.175  -9.620  1.00  0.00     0.039 C 
ATOM      3  C   UNL     1       3.267  16.233  -8.505  1.00  0.00     0.026 C 
ENDROOT
BRANCH   1   4
ATOM      4  O   UNL     1       5.753  16.234  -8.812  1.00  0.00    -0.371 OA
BRANCH   4   5
ATOM      5  C   UNL     1       6.817  16.287  -7.848  1.00  0.00     0.158 C 
ATOM      6  C   UNL     1       5.884  11.776  -5.402  1.00  0.00    -0.003 C 
ATOM      7  C   UNL     1       5.209  13.152  -5.464  1.00  0.00     0.052 C 
ATOM      8  C   UNL     1       6.547  11.475  -6.753  1.00  0.00     0.019 C 
ATOM      9  C   UNL     1       6.179  14.242  -5.942  1.00  0.00     0.189 C 
ATOM     10  C   UNL     1       7.472  12.612  -7.187  1.00  0.00     0.087 C 
ATOM     11  N   UNL     1       6.750  13.883  -7.240  1.00  0.00    -0.276 NA
ATOM     12  O   UNL     1       5.430  15.457  -6.003  1.00  0.00    -0.360 OA
ATOM     13  C   UNL     1       7.602  14.968  -7.738  1.00  0.00     0.121 C 
ATOM     14  C   UNL     1       6.201  16.567  -6.473  1.00  0.00     0.195 C 
BRANCH   6  15
ATOM     15  C   UNL     1       4.896  10.690  -5.041  1.00  0.00    -0.008 C 
ATOM     16  C   UNL     1       4.901  10.081  -3.659  1.00  0.00     0.004 C 
ATOM     17  C   UNL     1       3.762  10.962  -4.083  1.00  0.00     0.004 C 
ENDBRANCH   6  15
ENDBRANCH   4   5
ENDBRANCH   1   4
BRANCH   3  18
ATOM     18  C   UNL     1       2.160  16.602  -7.563  1.00  0.00     0.053 C 
BRANCH  18  19
ATOM     19  C   UNL     1       1.842  15.600  -6.483  1.00  0.00     0.074 C 
BRANCH  19  20
ATOM     20  N   UNL     1       2.461  15.480  -5.356  1.00  0.00    -0.313 NA
ATOM     21  H   UNL     1       2.886  16.370  -5.059  1.00  0.00     0.186 HD
ENDBRANCH  19  20
ENDBRANCH  18  19
ENDBRANCH   3  18
TORSDOF 6
ENDMDL
MODEL 7
REMARK VINA RESULT:    -3.444      3.050      7.985
REMARK INTER + INTRA:          -4.727
REMARK INTER:                  -4.788
REMARK INTRA:                   0.062
REMARK UNBOUND:                -0.175
REMARK SMILES [H]/N=C\C[C@H]1C[C@@H]1O[C@H]1CO[C@H]2C[C@@H](C3CC3)CCN2C1
REMARK SMILES IDX 7 1 6 2 5 3 8 4 9 5 14 6 13 7 18 8 12 9 19 10 20 11 11 12
REMARK SMILES IDX 21 13 10 14 15 15 16 16 17 17 4 18 3 19 2 20 1 21
REMARK H PARENT
ROOT
ATOM      1  C   UNL     1       4.987  15.747  -8.641  1.00  0.00     0.122 C 
ATOM      2  C   UNL     1       6.034  16.762  -8.279  1.00  0.00     0.039 C 
ATOM      3  C   UNL     1       6.249  15.852  -9.454  1.00  0.00     0.026 C 
ENDROOT
BRANCH   1   4
ATOM      4  O   UNL     1       4.901  14.640  -7.724  1.00  0.00    -0.371 OA
BRANCH   4   5
ATOM      5  C   UNL     1       5.234  14.939  -6.359  1.00  0.00     0.158 C 
ATOM      6  C   UNL     1       3.194  10.699  -4.108  1.00  0.00    -0.003 C 
ATOM      7  C   UNL     1       2.639  11.967  -4.767  1.00  0.00     0.052 C 
ATOM      8  C   UNL     1       4.512  10.307  -4.792  1.00  0.00     0.019 C 
ATOM      9  C   UNL     1       3.682  13.092  -4.807  1.00  0.00     0.189 C 
ATOM     10  C   UNL     1       5.492  11.479  -4.829  1.00  0.00     0.087 C 
ATOM     11  N   UNL     1       4.895  12.640  -5.489  1.00  0.00    -0.276 NA
ATOM     12  O   UNL     1       3.069  14.195  -5.478  1.00  0.00    -0.360 OA
ATOM     13  C   UNL     1       5.853  13.745  -5.610  1.00  0.00     0.121 C 
ATOM     14  C   UNL     1       3.943  15.318  -5.626  1.00  0.00     0.195 C 
BRANCH   6  15
ATOM     15  C   UNL     1       2.203   9.559  -4.174  1.00  0.00    -0.008 C 
ATOM     16  C   UNL     1       1.383   9.189  -2.961  1.00  0.00     0.004 C 
ATOM     17  C   UNL     1       0.717   9.825  -4.147  1.00  0.00     0.004 C 
ENDBRANCH   6  15
ENDBRANCH   4   5
ENDBRANCH   1   4
BRANCH   3  18
ATOM     18  C   UNL     1       6.211  16.429 -10.838  1.00  0.00     0.053 C 
BRANCH  18  19
ATOM     19  C   UNL     1       7.544  16.712 -11.478  1.00  0.00     0.074 C 
BRANCH  19  20
ATOM     20  N   UNL     1       7.729  17.185 -12.666  1.00  0.00    -0.313 NA
ATOM     21  H   UNL     1       7.198  18.055 -12.815  1.00  0.00     0.186 HD
ENDBRANCH  19  20
ENDBRANCH  18  19
ENDBRANCH   3  18
TORSDOF 6
ENDMDL
MODEL 8
REMARK VINA RESULT:    -2.009      2.983      7.358
REMARK INTER + INTRA:          -2.830
REMARK INTER:                  -2.553
REMARK INTRA:                  -0.277
REMARK UNBOUND:                -0.175
REMARK SMILES [H]/N=C\C[C@H]1C[C@@H]1O[C@H]1CO[C@H]2C[C@@H](C3CC3)CCN2C1
REMARK SMILES IDX 7 1 6 2 5 3 8 4 9 5 14 6 13 7 18 8 12 9 19 10 20 11 11 12
REMARK SMILES IDX 21 13 10 14 15 15 16 16 17 17 4 18 3 19 2 20 1 21
REMARK H PARENT
ROOT
ATOM      1  C   UNL     1       5.180  15.604  -8.527  1.00  0.00     0.122 C 
ATOM      2  C   UNL     1       5.239  15.303  -9.998  1.00  0.00     0.039 C 
ATOM      3  C   UNL     1       3.945  15.741  -9.375  1.00  0.00     0.026 C 
ENDROOT
BRANCH   1   4
ATOM      4  O   UNL     1       5.259  14.438  -7.685  1.00  0.00    -0.371 OA
BRANCH   4   5
ATOM      5  C   UNL     1       5.649  14.682  -6.324  1.00  0.00     0.158 C 
ATOM      6  C   UNL     1       3.237  10.637  -4.082  1.00  0.00    -0.003 C 
ATOM      7  C   UNL     1       2.799  11.965  -4.712  1.00  0.00     0.052 C 
ATOM      8  C   UNL     1       4.493  10.124  -4.800  1.00  0.00     0.019 C 
ATOM      9  C   UNL     1       3.950  12.979  -4.761  1.00  0.00     0.189 C 
ATOM     10  C   UNL     1       5.586  11.191  -4.844  1.00  0.00     0.087 C 
ATOM     11  N   UNL     1       5.096  12.417  -5.475  1.00  0.00    -0.276 NA
ATOM     12  O   UNL     1       3.438  14.147  -5.404  1.00  0.00    -0.360 OA
ATOM     13  C   UNL     1       6.158  13.421  -5.604  1.00  0.00     0.121 C 
ATOM     14  C   UNL     1       4.418  15.178  -5.557  1.00  0.00     0.195 C 
BRANCH   6  15
ATOM     15  C   UNL     1       2.134   9.605  -4.140  1.00  0.00    -0.008 C 
ATOM     16  C   UNL     1       1.296   9.312  -2.917  1.00  0.00     0.004 C 
ATOM     17  C   UNL     1       0.683  10.019  -4.091  1.00  0.00     0.004 C 
ENDBRANCH   6  15
ENDBRANCH   4   5
ENDBRANCH   1   4
BRANCH   3  18
ATOM     18  C   UNL     1       3.402  17.099  -9.706  1.00  0.00     0.053 C 
BRANCH  18  19
ATOM     19  C   UNL     1       1.915  17.185  -9.931  1.00  0.00     0.074 C 
BRANCH  19  20
ATOM     20  N   UNL     1       1.110  16.184 -10.063  1.00  0.00    -0.313 NA
ATOM     21  H   UNL     1       0.138  16.494 -10.200  1.00  0.00     0.186 HD
ENDBRANCH  19  20
ENDBRANCH  18  19
ENDBRANCH   3  18
TORSDOF 6
ENDMDL
