MODEL 1
REMARK VINA RESULT:    -6.043      0.000      0.000
REMARK INTER + INTRA:          -7.480
REMARK INTER:                  -7.103
REMARK INTRA:                  -0.377
REMARK UNBOUND:                -0.377
REMARK SMILES Cc1ccc(CNC(=O)NC(=O)c2ccc(C)cc2)cc1
REMARK SMILES IDX 11 1 12 2 10 3 8 4 9 5 7 6 13 9 19 10 18 11 14 12 16 13
REMARK SMILES IDX 15 14 17 15 6 16 5 17 4 18 20 19 3 20 21 21 2 22 1 23
REMARK H PARENT 10 7 7 8
ROOT
ATOM      1  C   UNL     1       1.312   8.241  -3.550  1.00  0.00     0.259 C 
ATOM      2  O   UNL     1       2.451   8.348  -3.117  1.00  0.00    -0.269 OA
ATOM      3  N   UNL     1       0.501   9.220  -4.133  1.00  0.00    -0.274 N 
ATOM      4  C   UNL     1       0.650  10.481  -4.652  1.00  0.00     0.321 C 
ATOM      5  O   UNL     1      -0.325  10.986  -5.219  1.00  0.00    -0.248 OA
ATOM      6  N   UNL     1       1.802  11.176  -4.601  1.00  0.00    -0.334 N 
ATOM      7  H   UNL     1      -0.420   8.897  -4.396  1.00  0.00     0.175 HD
ATOM      8  H   UNL     1       1.771  12.051  -5.103  1.00  0.00     0.165 HD
ENDROOT
BRANCH   1   9
ATOM      9  C   UNL     1       0.693   6.905  -3.458  1.00  0.00     0.040 A 
ATOM     10  C   UNL     1      -0.214   6.591  -2.444  1.00  0.00     0.014 A 
ATOM     11  C   UNL     1      -0.814   5.331  -2.429  1.00  0.00     0.004 A 
ATOM     12  C   UNL     1       1.047   5.950  -4.416  1.00  0.00     0.014 A 
ATOM     13  C   UNL     1      -0.505   4.383  -3.416  1.00  0.00    -0.051 A 
ATOM     14  C   UNL     1       0.441   4.695  -4.401  1.00  0.00     0.004 A 
ATOM     15  C   UNL     1      -1.220   3.064  -3.436  1.00  0.00     0.044 C 
ENDBRANCH   1   9
BRANCH   6  16
ATOM     16  C   UNL     1       3.068  10.737  -4.086  1.00  0.00     0.153 C 
BRANCH  16  17
ATOM     17  C   UNL     1       4.298  11.444  -4.584  1.00  0.00    -0.029 A 
ATOM     18  C   UNL     1       5.382  10.775  -5.162  1.00  0.00     0.006 A 
ATOM     19  C   UNL     1       4.249  12.845  -4.656  1.00  0.00     0.006 A 
ATOM     20  C   UNL     1       6.382  11.499  -5.819  1.00  0.00     0.004 A 
ATOM     21  C   UNL     1       5.241  13.564  -5.315  1.00  0.00     0.004 A 
ATOM     22  C   UNL     1       6.312  12.896  -5.911  1.00  0.00    -0.051 A 
ATOM     23  C   UNL     1       7.301  13.666  -6.734  1.00  0.00     0.044 C 
ENDBRANCH  16  17
ENDBRANCH   6  16
TORSDOF 3
ENDMDL
MODEL 2
REMARK VINA RESULT:    -5.984      3.258      5.561
REMARK INTER + INTRA:          -7.411
REMARK INTER:                  -7.030
REMARK INTRA:                  -0.382
REMARK UNBOUND:                -0.377
REMARK SMILES Cc1ccc(CNC(=O)NC(=O)c2ccc(C)cc2)cc1
REMARK SMILES IDX 11 1 12 2 10 3 8 4 9 5 7 6 13 9 19 10 18 11 14 12 16 13
REMARK SMILES IDX 15 14 17 15 6 16 5 17 4 18 20 19 3 20 21 21 2 22 1 23
REMARK H PARENT 10 7 7 8
ROOT
ATOM      1  C   UNL     1       0.907   8.326  -3.434  1.00  0.00     0.259 C 
ATOM      2  O   UNL     1      -0.221   8.228  -3.897  1.00  0.00    -0.269 OA
ATOM      3  N   UNL     1       1.892   9.276  -3.722  1.00  0.00    -0.274 N 
ATOM      4  C   UNL     1       1.974  10.492  -4.351  1.00  0.00     0.321 C 
ATOM      5  O   UNL     1       3.045  11.104  -4.277  1.00  0.00    -0.248 OA
ATOM      6  N   UNL     1       0.948  11.059  -5.011  1.00  0.00    -0.334 N 
ATOM      7  H   UNL     1       2.762   9.139  -3.225  1.00  0.00     0.175 HD
ATOM      8  H   UNL     1       1.144  11.992  -5.344  1.00  0.00     0.165 HD
ENDROOT
BRANCH   1   9
ATOM      9  C   UNL     1       1.298   7.319  -2.429  1.00  0.00     0.040 A 
ATOM     10  C   UNL     1       2.065   6.205  -2.775  1.00  0.00     0.014 A 
ATOM     11  C   UNL     1       2.454   5.308  -1.781  1.00  0.00     0.004 A 
ATOM     12  C   UNL     1       0.871   7.507  -1.110  1.00  0.00     0.014 A 
ATOM     13  C   UNL     1       2.075   5.515  -0.446  1.00  0.00    -0.051 A 
ATOM     14  C   UNL     1       1.268   6.611  -0.119  1.00  0.00     0.004 A 
ATOM     15  C   UNL     1       2.573   4.588   0.624  1.00  0.00     0.044 C 
ENDBRANCH   1   9
BRANCH   6  16
ATOM     16  C   UNL     1      -0.397  10.570  -5.127  1.00  0.00     0.153 C 
BRANCH  16  17
ATOM     17  C   UNL     1      -1.476  11.578  -5.408  1.00  0.00    -0.029 A 
ATOM     18  C   UNL     1      -2.600  11.741  -4.591  1.00  0.00     0.006 A 
ATOM     19  C   UNL     1      -1.225  12.526  -6.413  1.00  0.00     0.006 A 
ATOM     20  C   UNL     1      -3.439  12.847  -4.766  1.00  0.00     0.004 A 
ATOM     21  C   UNL     1      -2.057  13.628  -6.583  1.00  0.00     0.004 A 
ATOM     22  C   UNL     1      -3.166  13.803  -5.754  1.00  0.00    -0.051 A 
ATOM     23  C   UNL     1      -3.976  15.061  -5.854  1.00  0.00     0.044 C 
ENDBRANCH  16  17
ENDBRANCH   6  16
TORSDOF 3
ENDMDL
MODEL 3
REMARK VINA RESULT:    -5.919      0.546      8.012
REMARK INTER + INTRA:          -7.335
REMARK INTER:                  -6.839
REMARK INTRA:                  -0.495
REMARK UNBOUND:                -0.377
REMARK SMILES Cc1ccc(CNC(=O)NC(=O)c2ccc(C)cc2)cc1
REMARK SMILES IDX 11 1 12 2 10 3 8 4 9 5 7 6 13 9 19 10 18 11 14 12 16 13
REMARK SMILES IDX 15 14 17 15 6 16 5 17 4 18 20 19 3 20 21 21 2 22 1 23
REMARK H PARENT 10 7 7 8
ROOT
ATOM      1  C   UNL     1       3.082  10.339  -4.349  1.00  0.00     0.259 C 
ATOM      2  O   UNL     1       3.392   9.339  -3.718  1.00  0.00    -0.269 OA
ATOM      3  N   UNL     1       1.810  10.766  -4.743  1.00  0.00    -0.274 N 
ATOM      4  C   UNL     1       0.504  10.471  -4.443  1.00  0.00     0.321 C 
ATOM      5  O   UNL     1      -0.373  11.194  -4.928  1.00  0.00    -0.248 OA
ATOM      6  N   UNL     1       0.137   9.461  -3.633  1.00  0.00    -0.334 N 
ATOM      7  H   UNL     1       1.805  11.622  -5.281  1.00  0.00     0.175 HD
ATOM      8  H   UNL     1      -0.855   9.430  -3.446  1.00  0.00     0.165 HD
ENDROOT
BRANCH   1   9
ATOM      9  C   UNL     1       4.184  11.231  -4.757  1.00  0.00     0.040 A 
ATOM     10  C   UNL     1       5.392  10.723  -5.239  1.00  0.00     0.014 A 
ATOM     11  C   UNL     1       6.385  11.606  -5.662  1.00  0.00     0.004 A 
ATOM     12  C   UNL     1       3.989  12.611  -4.641  1.00  0.00     0.014 A 
ATOM     13  C   UNL     1       6.180  12.993  -5.598  1.00  0.00    -0.051 A 
ATOM     14  C   UNL     1       4.982  13.490  -5.071  1.00  0.00     0.004 A 
ATOM     15  C   UNL     1       7.223  13.928  -6.135  1.00  0.00     0.044 C 
ENDBRANCH   1   9
BRANCH   6  16
ATOM     16  C   UNL     1       0.991   8.576  -2.893  1.00  0.00     0.153 C 
BRANCH  16  17
ATOM     17  C   UNL     1       0.647   7.112  -2.908  1.00  0.00    -0.029 A 
ATOM     18  C   UNL     1      -0.191   6.516  -1.960  1.00  0.00     0.006 A 
ATOM     19  C   UNL     1       1.020   6.375  -4.043  1.00  0.00     0.006 A 
ATOM     20  C   UNL     1      -0.664   5.215  -2.164  1.00  0.00     0.004 A 
ATOM     21  C   UNL     1       0.545   5.083  -4.247  1.00  0.00     0.004 A 
ATOM     22  C   UNL     1      -0.310   4.495  -3.313  1.00  0.00    -0.051 A 
ATOM     23  C   UNL     1      -0.924   3.160  -3.608  1.00  0.00     0.044 C 
ENDBRANCH  16  17
ENDBRANCH   6  16
TORSDOF 3
ENDMDL
MODEL 4
REMARK VINA RESULT:    -5.703      3.088      7.735
REMARK INTER + INTRA:          -7.080
REMARK INTER:                  -6.613
REMARK INTRA:                  -0.467
REMARK UNBOUND:                -0.377
REMARK SMILES Cc1ccc(CNC(=O)NC(=O)c2ccc(C)cc2)cc1
REMARK SMILES IDX 11 1 12 2 10 3 8 4 9 5 7 6 13 9 19 10 18 11 14 12 16 13
REMARK SMILES IDX 15 14 17 15 6 16 5 17 4 18 20 19 3 20 21 21 2 22 1 23
REMARK H PARENT 10 7 7 8
ROOT
ATOM      1  C   UNL     1      -0.664  10.438  -4.736  1.00  0.00     0.259 C 
ATOM      2  O   UNL     1      -1.219   9.354  -4.625  1.00  0.00    -0.269 OA
ATOM      3  N   UNL     1       0.673  10.767  -4.489  1.00  0.00    -0.274 N 
ATOM      4  C   UNL     1       1.858  10.107  -4.290  1.00  0.00     0.321 C 
ATOM      5  O   UNL     1       2.890  10.785  -4.234  1.00  0.00    -0.248 OA
ATOM      6  N   UNL     1       1.957   8.768  -4.186  1.00  0.00    -0.334 N 
ATOM      7  H   UNL     1       0.896  11.743  -4.632  1.00  0.00     0.175 HD
ATOM      8  H   UNL     1       2.908   8.434  -4.129  1.00  0.00     0.165 HD
ENDROOT
BRANCH   1   9
ATOM      9  C   UNL     1      -1.499  11.564  -5.199  1.00  0.00     0.040 A 
ATOM     10  C   UNL     1      -2.715  11.869  -4.584  1.00  0.00     0.014 A 
ATOM     11  C   UNL     1      -3.444  12.974  -5.022  1.00  0.00     0.004 A 
ATOM     12  C   UNL     1      -1.040  12.320  -6.282  1.00  0.00     0.014 A 
ATOM     13  C   UNL     1      -2.967  13.771  -6.074  1.00  0.00    -0.051 A 
ATOM     14  C   UNL     1      -1.769  13.428  -6.712  1.00  0.00     0.004 A 
ATOM     15  C   UNL     1      -3.720  15.005  -6.477  1.00  0.00     0.044 C 
ENDBRANCH   1   9
BRANCH   6  16
ATOM     16  C   UNL     1       0.907   7.799  -4.326  1.00  0.00     0.153 C 
BRANCH  16  17
ATOM     17  C   UNL     1       0.812   6.728  -3.275  1.00  0.00    -0.029 A 
ATOM     18  C   UNL     1      -0.401   6.311  -2.717  1.00  0.00     0.006 A 
ATOM     19  C   UNL     1       1.972   5.983  -3.009  1.00  0.00     0.006 A 
ATOM     20  C   UNL     1      -0.449   5.156  -1.929  1.00  0.00     0.004 A 
ATOM     21  C   UNL     1       1.922   4.832  -2.230  1.00  0.00     0.004 A 
ATOM     22  C   UNL     1       0.708   4.402  -1.691  1.00  0.00    -0.051 A 
ATOM     23  C   UNL     1       0.640   3.090  -0.970  1.00  0.00     0.044 C 
ENDBRANCH  16  17
ENDBRANCH   6  16
TORSDOF 3
ENDMDL
MODEL 5
REMARK VINA RESULT:    -4.936      5.196      8.515
REMARK INTER + INTRA:          -6.179
REMARK INTER:                  -5.672
REMARK INTRA:                  -0.506
REMARK UNBOUND:                -0.377
REMARK SMILES Cc1ccc(CNC(=O)NC(=O)c2ccc(C)cc2)cc1
REMARK SMILES IDX 11 1 12 2 10 3 8 4 9 5 7 6 13 9 19 10 18 11 14 12 16 13
REMARK SMILES IDX 15 14 17 15 6 16 5 17 4 18 20 19 3 20 21 21 2 22 1 23
REMARK H PARENT 10 7 7 8
ROOT
ATOM      1  C   UNL     1       7.015  13.896  -6.295  1.00  0.00     0.259 C 
ATOM      2  O   UNL     1       6.557  14.765  -7.025  1.00  0.00    -0.269 OA
ATOM      3  N   UNL     1       8.345  13.674  -5.926  1.00  0.00    -0.274 N 
ATOM      4  C   UNL     1       9.537  14.350  -5.978  1.00  0.00     0.321 C 
ATOM      5  O   UNL     1      10.507  13.846  -5.402  1.00  0.00    -0.248 OA
ATOM      6  N   UNL     1       9.694  15.538  -6.591  1.00  0.00    -0.334 N 
ATOM      7  H   UNL     1       8.483  12.873  -5.324  1.00  0.00     0.175 HD
ATOM      8  H   UNL     1      10.610  15.943  -6.465  1.00  0.00     0.165 HD
ENDROOT
BRANCH   1   9
ATOM      9  C   UNL     1       6.047  12.948  -5.710  1.00  0.00     0.040 A 
ATOM     10  C   UNL     1       6.281  11.571  -5.719  1.00  0.00     0.014 A 
ATOM     11  C   UNL     1       5.363  10.718  -5.108  1.00  0.00     0.004 A 
ATOM     12  C   UNL     1       4.876  13.466  -5.149  1.00  0.00     0.014 A 
ATOM     13  C   UNL     1       4.210  11.232  -4.495  1.00  0.00    -0.051 A 
ATOM     14  C   UNL     1       3.965  12.611  -4.533  1.00  0.00     0.004 A 
ATOM     15  C   UNL     1       3.275  10.311  -3.769  1.00  0.00     0.044 C 
ENDBRANCH   1   9
BRANCH   6  16
ATOM     16  C   UNL     1       8.682  16.337  -7.224  1.00  0.00     0.153 C 
BRANCH  16  17
ATOM     17  C   UNL     1       8.853  16.634  -8.688  1.00  0.00    -0.029 A 
ATOM     18  C   UNL     1       9.993  16.272  -9.412  1.00  0.00     0.006 A 
ATOM     19  C   UNL     1       7.728  17.104  -9.384  1.00  0.00     0.006 A 
ATOM     20  C   UNL     1       9.992  16.358 -10.809  1.00  0.00     0.004 A 
ATOM     21  C   UNL     1       7.726  17.184 -10.773  1.00  0.00     0.004 A 
ATOM     22  C   UNL     1       8.856  16.802 -11.499  1.00  0.00    -0.051 A 
ATOM     23  C   UNL     1       8.797  16.761 -12.996  1.00  0.00     0.044 C 
ENDBRANCH  16  17
ENDBRANCH   6  16
TORSDOF 3
ENDMDL
MODEL 6
REMARK VINA RESULT:    -4.601      2.182      3.852
REMARK INTER + INTRA:          -5.785
REMARK INTER:                  -5.356
REMARK INTRA:                  -0.429
REMARK UNBOUND:                -0.377
REMARK SMILES Cc1ccc(CNC(=O)NC(=O)c2ccc(C)cc2)cc1
REMARK SMILES IDX 11 1 12 2 10 3 8 4 9 5 7 6 13 9 19 10 18 11 14 12 16 13
REMARK SMILES IDX 15 14 17 15 6 16 5 17 4 18 20 19 3 20 21 21 2 22 1 23
REMARK H PARENT 10 7 7 8
ROOT
ATOM      1  C   UNL     1       3.608  10.744  -4.252  1.00  0.00     0.259 C 
ATOM      2  O   UNL     1       4.752  10.314  -4.287  1.00  0.00    -0.269 OA
ATOM      3  N   UNL     1       3.157  12.051  -4.463  1.00  0.00    -0.274 N 
ATOM      4  C   UNL     1       3.651  13.222  -4.978  1.00  0.00     0.321 C 
ATOM      5  O   UNL     1       2.864  14.164  -5.119  1.00  0.00    -0.248 OA
ATOM      6  N   UNL     1       4.931  13.386  -5.361  1.00  0.00    -0.334 N 
ATOM      7  H   UNL     1       2.159  12.170  -4.359  1.00  0.00     0.175 HD
ATOM      8  H   UNL     1       5.114  14.277  -5.798  1.00  0.00     0.165 HD
ENDROOT
BRANCH   1   9
ATOM      9  C   UNL     1       2.544   9.767  -3.952  1.00  0.00     0.040 A 
ATOM     10  C   UNL     1       1.994   8.961  -4.951  1.00  0.00     0.014 A 
ATOM     11  C   UNL     1       1.027   8.014  -4.610  1.00  0.00     0.004 A 
ATOM     12  C   UNL     1       2.091   9.673  -2.633  1.00  0.00     0.014 A 
ATOM     13  C   UNL     1       0.603   7.876  -3.280  1.00  0.00    -0.051 A 
ATOM     14  C   UNL     1       1.129   8.722  -2.296  1.00  0.00     0.004 A 
ATOM     15  C   UNL     1      -0.375   6.798  -2.916  1.00  0.00     0.044 C 
ENDBRANCH   1   9
BRANCH   6  16
ATOM     16  C   UNL     1       5.973  12.398  -5.378  1.00  0.00     0.153 C 
BRANCH  16  17
ATOM     17  C   UNL     1       6.907  12.401  -6.556  1.00  0.00    -0.029 A 
ATOM     18  C   UNL     1       6.546  11.919  -7.818  1.00  0.00     0.006 A 
ATOM     19  C   UNL     1       8.111  13.112  -6.420  1.00  0.00     0.006 A 
ATOM     20  C   UNL     1       7.366  12.168  -8.924  1.00  0.00     0.004 A 
ATOM     21  C   UNL     1       8.923  13.363  -7.522  1.00  0.00     0.004 A 
ATOM     22  C   UNL     1       8.552  12.902  -8.786  1.00  0.00    -0.051 A 
ATOM     23  C   UNL     1       9.361  13.294  -9.986  1.00  0.00     0.044 C 
ENDBRANCH  16  17
ENDBRANCH   6  16
TORSDOF 3
ENDMDL
MODEL 7
REMARK VINA RESULT:    -4.525      4.634      7.077
REMARK INTER + INTRA:          -5.696
REMARK INTER:                  -5.233
REMARK INTRA:                  -0.462
REMARK UNBOUND:                -0.377
REMARK SMILES Cc1ccc(CNC(=O)NC(=O)c2ccc(C)cc2)cc1
REMARK SMILES IDX 11 1 12 2 10 3 8 4 9 5 7 6 13 9 19 10 18 11 14 12 16 13
REMARK SMILES IDX 15 14 17 15 6 16 5 17 4 18 20 19 3 20 21 21 2 22 1 23
REMARK H PARENT 10 7 7 8
ROOT
ATOM      1  C   UNL     1      -0.726  10.689  -5.099  1.00  0.00     0.259 C 
ATOM      2  O   UNL     1      -1.939  10.555  -5.035  1.00  0.00    -0.269 OA
ATOM      3  N   UNL     1       0.012  11.686  -5.745  1.00  0.00    -0.274 N 
ATOM      4  C   UNL     1      -0.218  12.919  -6.298  1.00  0.00     0.321 C 
ATOM      5  O   UNL     1       0.762  13.574  -6.668  1.00  0.00    -0.248 OA
ATOM      6  N   UNL     1      -1.444  13.459  -6.428  1.00  0.00    -0.334 N 
ATOM      7  H   UNL     1       1.015  11.573  -5.677  1.00  0.00     0.175 HD
ATOM      8  H   UNL     1      -1.436  14.408  -6.775  1.00  0.00     0.165 HD
ENDROOT
BRANCH   1   9
ATOM      9  C   UNL     1       0.089   9.674  -4.402  1.00  0.00     0.040 A 
ATOM     10  C   UNL     1       0.526   9.867  -3.091  1.00  0.00     0.014 A 
ATOM     11  C   UNL     1       1.249   8.857  -2.456  1.00  0.00     0.004 A 
ATOM     12  C   UNL     1       0.420   8.507  -5.098  1.00  0.00     0.014 A 
ATOM     13  C   UNL     1       1.542   7.660  -3.127  1.00  0.00    -0.051 A 
ATOM     14  C   UNL     1       1.136   7.498  -4.457  1.00  0.00     0.004 A 
ATOM     15  C   UNL     1       2.246   6.551  -2.403  1.00  0.00     0.044 C 
ENDBRANCH   1   9
BRANCH   6  16
ATOM     16  C   UNL     1      -2.693  12.917  -5.973  1.00  0.00     0.153 C 
BRANCH  16  17
ATOM     17  C   UNL     1      -3.635  13.852  -5.267  1.00  0.00    -0.029 A 
ATOM     18  C   UNL     1      -3.532  14.154  -3.905  1.00  0.00     0.006 A 
ATOM     19  C   UNL     1      -4.514  14.603  -6.064  1.00  0.00     0.006 A 
ATOM     20  C   UNL     1      -4.279  15.206  -3.363  1.00  0.00     0.004 A 
ATOM     21  C   UNL     1      -5.253  15.651  -5.525  1.00  0.00     0.004 A 
ATOM     22  C   UNL     1      -5.133  15.969  -4.171  1.00  0.00    -0.051 A 
ATOM     23  C   UNL     1      -5.826  17.184  -3.630  1.00  0.00     0.044 C 
ENDBRANCH  16  17
ENDBRANCH   6  16
TORSDOF 3
ENDMDL
MODEL 8
REMARK VINA RESULT:    -4.250      5.409     10.539
REMARK INTER + INTRA:          -5.372
REMARK INTER:                  -4.830
REMARK INTRA:                  -0.543
REMARK UNBOUND:                -0.377
REMARK SMILES Cc1ccc(CNC(=O)NC(=O)c2ccc(C)cc2)cc1
REMARK SMILES IDX 11 1 12 2 10 3 8 4 9 5 7 6 13 9 19 10 18 11 14 12 16 13
REMARK SMILES IDX 15 14 17 15 6 16 5 17 4 18 20 19 3 20 21 21 2 22 1 23
REMARK H PARENT 10 7 7 8
ROOT
ATOM      1  C   UNL     1       8.058  14.887  -8.308  1.00  0.00     0.259 C 
ATOM      2  O   UNL     1       6.838  14.906  -8.378  1.00  0.00    -0.269 OA
ATOM      3  N   UNL     1       8.874  15.113  -7.194  1.00  0.00    -0.274 N 
ATOM      4  C   UNL     1       8.732  15.189  -5.833  1.00  0.00     0.321 C 
ATOM      5  O   UNL     1       9.760  15.274  -5.153  1.00  0.00    -0.248 OA
ATOM      6  N   UNL     1       7.542  15.145  -5.205  1.00  0.00    -0.334 N 
ATOM      7  H   UNL     1       9.866  15.065  -7.388  1.00  0.00     0.175 HD
ATOM      8  H   UNL     1       7.614  15.126  -4.198  1.00  0.00     0.165 HD
ENDROOT
BRANCH   1   9
ATOM      9  C   UNL     1       8.788  14.584  -9.554  1.00  0.00     0.040 A 
ATOM     10  C   UNL     1       9.226  15.599 -10.407  1.00  0.00     0.014 A 
ATOM     11  C   UNL     1       9.957  15.265 -11.547  1.00  0.00     0.004 A 
ATOM     12  C   UNL     1       9.025  13.241  -9.866  1.00  0.00     0.014 A 
ATOM     13  C   UNL     1      10.245  13.924 -11.842  1.00  0.00    -0.051 A 
ATOM     14  C   UNL     1       9.761  12.914 -11.002  1.00  0.00     0.004 A 
ATOM     15  C   UNL     1      11.104  13.588 -13.025  1.00  0.00     0.044 C 
ENDBRANCH   1   9
BRANCH   6  16
ATOM     16  C   UNL     1       6.248  14.947  -5.794  1.00  0.00     0.153 C 
BRANCH  16  17
ATOM     17  C   UNL     1       5.581  13.620  -5.563  1.00  0.00    -0.029 A 
ATOM     18  C   UNL     1       6.216  12.395  -5.796  1.00  0.00     0.006 A 
ATOM     19  C   UNL     1       4.350  13.628  -4.887  1.00  0.00     0.006 A 
ATOM     20  C   UNL     1       5.636  11.208  -5.337  1.00  0.00     0.004 A 
ATOM     21  C   UNL     1       3.776  12.446  -4.428  1.00  0.00     0.004 A 
ATOM     22  C   UNL     1       4.420  11.226  -4.640  1.00  0.00    -0.051 A 
ATOM     23  C   UNL     1       3.865   9.977  -4.022  1.00  0.00     0.044 C 
ENDBRANCH  16  17
ENDBRANCH   6  16
TORSDOF 3
ENDMDL
