MODEL 1
REMARK VINA RESULT:    -6.122      0.000      0.000
REMARK INTER + INTRA:          -7.570
REMARK INTER:                  -7.195
REMARK INTRA:                  -0.374
REMARK UNBOUND:                -0.374
REMARK SMILES Cc1ccc(CNC(=O)NC(=O)c2ccc(C)cc2)cc1
REMARK SMILES IDX 11 1 12 2 10 3 8 4 9 5 7 6 13 9 19 10 18 11 14 12 16 13
REMARK SMILES IDX 15 14 17 15 6 16 5 17 4 18 20 19 3 20 21 21 2 22 1 23
REMARK H PARENT 10 7 7 8
ROOT
ATOM      1  C   UNL     1       2.130  -8.391   5.161  1.00  0.00     0.259 C 
ATOM      2  O   UNL     1       2.749  -8.862   4.217  1.00  0.00    -0.269 OA
ATOM      3  N   UNL     1       1.619  -9.045   6.287  1.00  0.00    -0.274 N 
ATOM      4  C   UNL     1       1.761 -10.262   6.903  1.00  0.00     0.321 C 
ATOM      5  O   UNL     1       1.215 -10.416   8.001  1.00  0.00    -0.248 OA
ATOM      6  N   UNL     1       2.484 -11.276   6.391  1.00  0.00    -0.334 N 
ATOM      7  H   UNL     1       1.120  -8.444   6.928  1.00  0.00     0.175 HD
ATOM      8  H   UNL     1       2.560 -12.073   7.006  1.00  0.00     0.165 HD
ENDROOT
BRANCH   1   9
ATOM      9  C   UNL     1       1.883  -6.937   5.130  1.00  0.00     0.040 A 
ATOM     10  C   UNL     1       0.660  -6.415   4.705  1.00  0.00     0.014 A 
ATOM     11  C   UNL     1       0.455  -5.036   4.743  1.00  0.00     0.004 A 
ATOM     12  C   UNL     1       2.917  -6.086   5.533  1.00  0.00     0.014 A 
ATOM     13  C   UNL     1       1.468  -4.177   5.195  1.00  0.00    -0.051 A 
ATOM     14  C   UNL     1       2.706  -4.709   5.575  1.00  0.00     0.004 A 
ATOM     15  C   UNL     1       1.203  -2.704   5.310  1.00  0.00     0.044 C 
ENDBRANCH   1   9
BRANCH   6  16
ATOM     16  C   UNL     1       3.274 -11.270   5.192  1.00  0.00     0.153 C 
BRANCH  16  17
ATOM     17  C   UNL     1       4.359 -12.305   5.076  1.00  0.00    -0.029 A 
ATOM     18  C   UNL     1       5.699 -11.982   4.839  1.00  0.00     0.006 A 
ATOM     19  C   UNL     1       4.032 -13.623   5.433  1.00  0.00     0.006 A 
ATOM     20  C   UNL     1       6.691 -12.959   4.981  1.00  0.00     0.004 A 
ATOM     21  C   UNL     1       5.019 -14.592   5.579  1.00  0.00     0.004 A 
ATOM     22  C   UNL     1       6.359 -14.266   5.364  1.00  0.00    -0.051 A 
ATOM     23  C   UNL     1       7.425 -15.278   5.657  1.00  0.00     0.044 C 
ENDBRANCH  16  17
ENDBRANCH   6  16
TORSDOF 3
ENDMDL
MODEL 2
REMARK VINA RESULT:    -6.100      3.263      5.555
REMARK INTER + INTRA:          -7.544
REMARK INTER:                  -7.170
REMARK INTRA:                  -0.374
REMARK UNBOUND:                -0.374
REMARK SMILES Cc1ccc(CNC(=O)NC(=O)c2ccc(C)cc2)cc1
REMARK SMILES IDX 11 1 12 2 10 3 8 4 9 5 7 6 13 9 19 10 18 11 14 12 16 13
REMARK SMILES IDX 15 14 17 15 6 16 5 17 4 18 20 19 3 20 21 21 2 22 1 23
REMARK H PARENT 10 7 7 8
ROOT
ATOM      1  C   UNL     1       1.698  -8.342   5.308  1.00  0.00     0.259 C 
ATOM      2  O   UNL     1       1.071  -7.897   6.259  1.00  0.00    -0.269 OA
ATOM      3  N   UNL     1       2.453  -9.517   5.230  1.00  0.00    -0.274 N 
ATOM      4  C   UNL     1       2.617 -10.666   5.959  1.00  0.00     0.321 C 
ATOM      5  O   UNL     1       3.309 -11.564   5.467  1.00  0.00    -0.248 OA
ATOM      6  N   UNL     1       2.043 -10.875   7.158  1.00  0.00    -0.334 N 
ATOM      7  H   UNL     1       2.903  -9.665   4.336  1.00  0.00     0.175 HD
ATOM      8  H   UNL     1       2.192 -11.805   7.524  1.00  0.00     0.165 HD
ENDROOT
BRANCH   1   9
ATOM      9  C   UNL     1       1.662  -7.550   4.063  1.00  0.00     0.040 A 
ATOM     10  C   UNL     1       2.707  -6.692   3.716  1.00  0.00     0.014 A 
ATOM     11  C   UNL     1       2.651  -6.004   2.503  1.00  0.00     0.004 A 
ATOM     12  C   UNL     1       0.540  -7.676   3.237  1.00  0.00     0.014 A 
ATOM     13  C   UNL     1       1.555  -6.163   1.643  1.00  0.00    -0.051 A 
ATOM     14  C   UNL     1       0.493  -6.992   2.024  1.00  0.00     0.004 A 
ATOM     15  C   UNL     1       1.550  -5.482   0.306  1.00  0.00     0.044 C 
ENDBRANCH   1   9
BRANCH   6  16
ATOM     16  C   UNL     1       1.128 -10.014   7.853  1.00  0.00     0.153 C 
BRANCH  16  17
ATOM     17  C   UNL     1       0.256 -10.640   8.906  1.00  0.00    -0.029 A 
ATOM     18  C   UNL     1      -1.138 -10.522   8.910  1.00  0.00     0.006 A 
ATOM     19  C   UNL     1       0.863 -11.547   9.789  1.00  0.00     0.006 A 
ATOM     20  C   UNL     1      -1.905 -11.319   9.767  1.00  0.00     0.004 A 
ATOM     21  C   UNL     1       0.099 -12.343  10.637  1.00  0.00     0.004 A 
ATOM     22  C   UNL     1      -1.293 -12.243  10.626  1.00  0.00    -0.051 A 
ATOM     23  C   UNL     1      -2.112 -13.198  11.441  1.00  0.00     0.044 C 
ENDBRANCH  16  17
ENDBRANCH   6  16
TORSDOF 3
ENDMDL
MODEL 3
REMARK VINA RESULT:    -6.099      0.538      8.032
REMARK INTER + INTRA:          -7.543
REMARK INTER:                  -7.055
REMARK INTRA:                  -0.488
REMARK UNBOUND:                -0.374
REMARK SMILES Cc1ccc(CNC(=O)NC(=O)c2ccc(C)cc2)cc1
REMARK SMILES IDX 11 1 12 2 10 3 8 4 9 5 7 6 13 9 19 10 18 11 14 12 16 13
REMARK SMILES IDX 15 14 17 15 6 16 5 17 4 18 20 19 3 20 21 21 2 22 1 23
REMARK H PARENT 10 7 7 8
ROOT
ATOM      1  C   UNL     1       3.541 -10.896   5.297  1.00  0.00     0.259 C 
ATOM      2  O   UNL     1       3.649 -10.065   4.406  1.00  0.00    -0.269 OA
ATOM      3  N   UNL     1       2.669 -10.898   6.390  1.00  0.00    -0.274 N 
ATOM      4  C   UNL     1       1.536 -10.233   6.784  1.00  0.00     0.321 C 
ATOM      5  O   UNL     1       0.960 -10.634   7.802  1.00  0.00    -0.248 OA
ATOM      6  N   UNL     1       1.010  -9.195   6.109  1.00  0.00    -0.334 N 
ATOM      7  H   UNL     1       2.781 -11.689   7.011  1.00  0.00     0.175 HD
ATOM      8  H   UNL     1       0.129  -8.872   6.481  1.00  0.00     0.165 HD
ENDROOT
BRANCH   1   9
ATOM      9  C   UNL     1       4.441 -12.063   5.225  1.00  0.00     0.040 A 
ATOM     10  C   UNL     1       5.794 -11.920   4.911  1.00  0.00     0.014 A 
ATOM     11  C   UNL     1       6.617 -13.047   4.907  1.00  0.00     0.004 A 
ATOM     12  C   UNL     1       3.899 -13.327   5.475  1.00  0.00     0.014 A 
ATOM     13  C   UNL     1       6.093 -14.313   5.207  1.00  0.00    -0.051 A 
ATOM     14  C   UNL     1       4.726 -14.449   5.476  1.00  0.00     0.004 A 
ATOM     15  C   UNL     1       7.007 -15.501   5.281  1.00  0.00     0.044 C 
ENDBRANCH   1   9
BRANCH   6  16
ATOM     16  C   UNL     1       1.458  -8.644   4.861  1.00  0.00     0.153 C 
BRANCH  16  17
ATOM     17  C   UNL     1       1.504  -7.146   4.745  1.00  0.00    -0.029 A 
ATOM     18  C   UNL     1       0.426  -6.382   4.286  1.00  0.00     0.006 A 
ATOM     19  C   UNL     1       2.603  -6.490   5.323  1.00  0.00     0.006 A 
ATOM     20  C   UNL     1       0.444  -4.990   4.428  1.00  0.00     0.004 A 
ATOM     21  C   UNL     1       2.617  -5.106   5.468  1.00  0.00     0.004 A 
ATOM     22  C   UNL     1       1.532  -4.345   5.031  1.00  0.00    -0.051 A 
ATOM     23  C   UNL     1       1.495  -2.873   5.316  1.00  0.00     0.044 C 
ENDBRANCH  16  17
ENDBRANCH   6  16
TORSDOF 3
ENDMDL
MODEL 4
REMARK VINA RESULT:    -6.057      3.151      7.307
REMARK INTER + INTRA:          -7.493
REMARK INTER:                  -7.000
REMARK INTRA:                  -0.493
REMARK UNBOUND:                -0.374
REMARK SMILES Cc1ccc(CNC(=O)NC(=O)c2ccc(C)cc2)cc1
REMARK SMILES IDX 11 1 12 2 10 3 8 4 9 5 7 6 13 9 19 10 18 11 14 12 16 13
REMARK SMILES IDX 15 14 17 15 6 16 5 17 4 18 20 19 3 20 21 21 2 22 1 23
REMARK H PARENT 10 7 7 8
ROOT
ATOM      1  C   UNL     1       0.832  -9.975   7.512  1.00  0.00     0.259 C 
ATOM      2  O   UNL     1       0.476  -8.828   7.284  1.00  0.00    -0.269 OA
ATOM      3  N   UNL     1       1.802 -10.738   6.854  1.00  0.00    -0.274 N 
ATOM      4  C   UNL     1       2.826 -10.528   5.967  1.00  0.00     0.321 C 
ATOM      5  O   UNL     1       3.572 -11.481   5.717  1.00  0.00    -0.248 OA
ATOM      6  N   UNL     1       3.075  -9.340   5.386  1.00  0.00    -0.334 N 
ATOM      7  H   UNL     1       1.906 -11.679   7.211  1.00  0.00     0.175 HD
ATOM      8  H   UNL     1       3.916  -9.329   4.826  1.00  0.00     0.165 HD
ENDROOT
BRANCH   1   9
ATOM      9  C   UNL     1       0.162 -10.665   8.631  1.00  0.00     0.040 A 
ATOM     10  C   UNL     1      -1.217 -10.561   8.830  1.00  0.00     0.014 A 
ATOM     11  C   UNL     1      -1.813 -11.274   9.871  1.00  0.00     0.004 A 
ATOM     12  C   UNL     1       0.950 -11.425   9.501  1.00  0.00     0.014 A 
ATOM     13  C   UNL     1      -1.038 -12.081  10.717  1.00  0.00    -0.051 A 
ATOM     14  C   UNL     1       0.349 -12.140  10.535  1.00  0.00     0.004 A 
ATOM     15  C   UNL     1      -1.704 -12.906  11.778  1.00  0.00     0.044 C 
ENDBRANCH   1   9
BRANCH   6  16
ATOM     16  C   UNL     1       2.401  -8.093   5.616  1.00  0.00     0.153 C 
BRANCH  16  17
ATOM     17  C   UNL     1       2.049  -7.266   4.411  1.00  0.00    -0.029 A 
ATOM     18  C   UNL     1       2.895  -6.283   3.887  1.00  0.00     0.006 A 
ATOM     19  C   UNL     1       0.920  -7.654   3.672  1.00  0.00     0.006 A 
ATOM     20  C   UNL     1       2.623  -5.721   2.635  1.00  0.00     0.004 A 
ATOM     21  C   UNL     1       0.653  -7.098   2.425  1.00  0.00     0.004 A 
ATOM     22  C   UNL     1       1.509  -6.133   1.891  1.00  0.00    -0.051 A 
ATOM     23  C   UNL     1       1.290  -5.641   0.491  1.00  0.00     0.044 C 
ENDBRANCH  16  17
ENDBRANCH   6  16
TORSDOF 3
ENDMDL
MODEL 5
REMARK VINA RESULT:    -5.828      3.085      7.741
REMARK INTER + INTRA:          -7.224
REMARK INTER:                  -6.761
REMARK INTRA:                  -0.463
REMARK UNBOUND:                -0.374
REMARK SMILES Cc1ccc(CNC(=O)NC(=O)c2ccc(C)cc2)cc1
REMARK SMILES IDX 11 1 12 2 10 3 8 4 9 5 7 6 13 9 19 10 18 11 14 12 16 13
REMARK SMILES IDX 15 14 17 15 6 16 5 17 4 18 20 19 3 20 21 21 2 22 1 23
REMARK H PARENT 10 7 7 8
ROOT
ATOM      1  C   UNL     1       0.762  -9.857   7.700  1.00  0.00     0.259 C 
ATOM      2  O   UNL     1       0.486  -8.666   7.665  1.00  0.00    -0.269 OA
ATOM      3  N   UNL     1       1.611 -10.583   6.859  1.00  0.00    -0.274 N 
ATOM      4  C   UNL     1       2.578 -10.320   5.922  1.00  0.00     0.321 C 
ATOM      5  O   UNL     1       3.221 -11.277   5.478  1.00  0.00    -0.248 OA
ATOM      6  N   UNL     1       2.878  -9.081   5.491  1.00  0.00    -0.334 N 
ATOM      7  H   UNL     1       1.665 -11.570   7.073  1.00  0.00     0.175 HD
ATOM      8  H   UNL     1       3.670  -9.049   4.866  1.00  0.00     0.165 HD
ENDROOT
BRANCH   1   9
ATOM      9  C   UNL     1       0.126 -10.651   8.768  1.00  0.00     0.040 A 
ATOM     10  C   UNL     1      -1.254 -10.624   8.973  1.00  0.00     0.014 A 
ATOM     11  C   UNL     1      -1.815 -11.432   9.962  1.00  0.00     0.004 A 
ATOM     12  C   UNL     1       0.950 -11.435   9.583  1.00  0.00     0.014 A 
ATOM     13  C   UNL     1      -1.003 -12.261  10.750  1.00  0.00    -0.051 A 
ATOM     14  C   UNL     1       0.385 -12.246  10.565  1.00  0.00     0.004 A 
ATOM     15  C   UNL     1      -1.629 -13.187  11.751  1.00  0.00     0.044 C 
ENDBRANCH   1   9
BRANCH   6  16
ATOM     16  C   UNL     1       2.329  -7.836   5.950  1.00  0.00     0.153 C 
BRANCH  16  17
ATOM     17  C   UNL     1       1.894  -6.847   4.905  1.00  0.00    -0.029 A 
ATOM     18  C   UNL     1       0.740  -6.066   5.025  1.00  0.00     0.006 A 
ATOM     19  C   UNL     1       2.805  -6.556   3.876  1.00  0.00     0.006 A 
ATOM     20  C   UNL     1       0.520  -5.001   4.145  1.00  0.00     0.004 A 
ATOM     21  C   UNL     1       2.587  -5.494   3.004  1.00  0.00     0.004 A 
ATOM     22  C   UNL     1       1.447  -4.700   3.138  1.00  0.00    -0.051 A 
ATOM     23  C   UNL     1       1.290  -3.478   2.284  1.00  0.00     0.044 C 
ENDBRANCH  16  17
ENDBRANCH   6  16
TORSDOF 3
ENDMDL
MODEL 6
REMARK VINA RESULT:    -5.385      3.218      5.608
REMARK INTER + INTRA:          -6.703
REMARK INTER:                  -6.313
REMARK INTRA:                  -0.391
REMARK UNBOUND:                -0.374
REMARK SMILES Cc1ccc(CNC(=O)NC(=O)c2ccc(C)cc2)cc1
REMARK SMILES IDX 11 1 12 2 10 3 8 4 9 5 7 6 13 9 19 10 18 11 14 12 16 13
REMARK SMILES IDX 15 14 17 15 6 16 5 17 4 18 20 19 3 20 21 21 2 22 1 23
REMARK H PARENT 10 7 7 8
ROOT
ATOM      1  C   UNL     1       1.761  -8.395   5.331  1.00  0.00     0.259 C 
ATOM      2  O   UNL     1       1.094  -8.025   6.287  1.00  0.00    -0.269 OA
ATOM      3  N   UNL     1       2.597  -9.511   5.226  1.00  0.00    -0.274 N 
ATOM      4  C   UNL     1       2.833 -10.669   5.921  1.00  0.00     0.321 C 
ATOM      5  O   UNL     1       3.591 -11.500   5.410  1.00  0.00    -0.248 OA
ATOM      6  N   UNL     1       2.262 -10.955   7.106  1.00  0.00    -0.334 N 
ATOM      7  H   UNL     1       3.066  -9.599   4.334  1.00  0.00     0.175 HD
ATOM      8  H   UNL     1       2.472 -11.883   7.445  1.00  0.00     0.165 HD
ENDROOT
BRANCH   1   9
ATOM      9  C   UNL     1       1.683  -7.568   4.111  1.00  0.00     0.040 A 
ATOM     10  C   UNL     1       2.662  -6.619   3.810  1.00  0.00     0.014 A 
ATOM     11  C   UNL     1       2.573  -5.898   2.619  1.00  0.00     0.004 A 
ATOM     12  C   UNL     1       0.589  -7.755   3.260  1.00  0.00     0.014 A 
ATOM     13  C   UNL     1       1.506  -6.115   1.733  1.00  0.00    -0.051 A 
ATOM     14  C   UNL     1       0.507  -7.037   2.068  1.00  0.00     0.004 A 
ATOM     15  C   UNL     1       1.470  -5.394   0.418  1.00  0.00     0.044 C 
ENDBRANCH   1   9
BRANCH   6  16
ATOM     16  C   UNL     1       1.283 -10.182   7.816  1.00  0.00     0.153 C 
BRANCH  16  17
ATOM     17  C   UNL     1       0.307 -10.931   8.681  1.00  0.00    -0.029 A 
ATOM     18  C   UNL     1       0.700 -11.725   9.763  1.00  0.00     0.006 A 
ATOM     19  C   UNL     1      -1.057 -10.642   8.511  1.00  0.00     0.006 A 
ATOM     20  C   UNL     1      -0.256 -12.197  10.669  1.00  0.00     0.004 A 
ATOM     21  C   UNL     1      -2.006 -11.108   9.415  1.00  0.00     0.004 A 
ATOM     22  C   UNL     1      -1.612 -11.881  10.509  1.00  0.00    -0.051 A 
ATOM     23  C   UNL     1      -2.622 -12.262  11.550  1.00  0.00     0.044 C 
ENDBRANCH  16  17
ENDBRANCH   6  16
TORSDOF 3
ENDMDL
MODEL 7
REMARK VINA RESULT:    -4.958      1.281      1.466
REMARK INTER + INTRA:          -6.202
REMARK INTER:                  -5.766
REMARK INTRA:                  -0.436
REMARK UNBOUND:                -0.374
REMARK SMILES Cc1ccc(CNC(=O)NC(=O)c2ccc(C)cc2)cc1
REMARK SMILES IDX 11 1 12 2 10 3 8 4 9 5 7 6 13 9 19 10 18 11 14 12 16 13
REMARK SMILES IDX 15 14 17 15 6 16 5 17 4 18 20 19 3 20 21 21 2 22 1 23
REMARK H PARENT 10 7 7 8
ROOT
ATOM      1  C   UNL     1       1.882  -8.278   4.410  1.00  0.00     0.259 C 
ATOM      2  O   UNL     1       2.151  -9.106   3.551  1.00  0.00    -0.269 OA
ATOM      3  N   UNL     1       1.705  -8.468   5.784  1.00  0.00    -0.274 N 
ATOM      4  C   UNL     1       1.959  -9.445   6.713  1.00  0.00     0.321 C 
ATOM      5  O   UNL     1       1.770  -9.168   7.902  1.00  0.00    -0.248 OA
ATOM      6  N   UNL     1       2.427 -10.667   6.399  1.00  0.00    -0.334 N 
ATOM      7  H   UNL     1       1.465  -7.629   6.293  1.00  0.00     0.175 HD
ATOM      8  H   UNL     1       2.642 -11.239   7.203  1.00  0.00     0.165 HD
ENDROOT
BRANCH   1   9
ATOM      9  C   UNL     1       1.723  -6.883   3.956  1.00  0.00     0.040 A 
ATOM     10  C   UNL     1       2.351  -6.419   2.798  1.00  0.00     0.014 A 
ATOM     11  C   UNL     1       2.129  -5.106   2.380  1.00  0.00     0.004 A 
ATOM     12  C   UNL     1       0.927  -6.029   4.725  1.00  0.00     0.014 A 
ATOM     13  C   UNL     1       1.290  -4.256   3.117  1.00  0.00    -0.051 A 
ATOM     14  C   UNL     1       0.703  -4.721   4.300  1.00  0.00     0.004 A 
ATOM     15  C   UNL     1       0.994  -2.876   2.609  1.00  0.00     0.044 C 
ENDBRANCH   1   9
BRANCH   6  16
ATOM     16  C   UNL     1       2.808 -11.153   5.102  1.00  0.00     0.153 C 
BRANCH  16  17
ATOM     17  C   UNL     1       3.986 -12.085   5.034  1.00  0.00    -0.029 A 
ATOM     18  C   UNL     1       5.295 -11.645   4.813  1.00  0.00     0.006 A 
ATOM     19  C   UNL     1       3.773 -13.419   5.418  1.00  0.00     0.006 A 
ATOM     20  C   UNL     1       6.369 -12.523   4.999  1.00  0.00     0.004 A 
ATOM     21  C   UNL     1       4.842 -14.289   5.607  1.00  0.00     0.004 A 
ATOM     22  C   UNL     1       6.151 -13.845   5.409  1.00  0.00    -0.051 A 
ATOM     23  C   UNL     1       7.300 -14.748   5.748  1.00  0.00     0.044 C 
ENDBRANCH  16  17
ENDBRANCH   6  16
TORSDOF 3
ENDMDL
MODEL 8
REMARK VINA RESULT:    -4.679      8.068     10.565
REMARK INTER + INTRA:          -5.874
REMARK INTER:                  -5.272
REMARK INTRA:                  -0.602
REMARK UNBOUND:                -0.374
REMARK SMILES Cc1ccc(CNC(=O)NC(=O)c2ccc(C)cc2)cc1
REMARK SMILES IDX 11 1 12 2 10 3 8 4 9 5 7 6 13 9 19 10 18 11 14 12 16 13
REMARK SMILES IDX 15 14 17 15 6 16 5 17 4 18 20 19 3 20 21 21 2 22 1 23
REMARK H PARENT 10 7 7 8
ROOT
ATOM      1  C   UNL     1      -1.663 -12.791  11.577  1.00  0.00     0.259 C 
ATOM      2  O   UNL     1      -2.701 -12.335  12.035  1.00  0.00    -0.269 OA
ATOM      3  N   UNL     1      -1.011 -13.983  11.906  1.00  0.00    -0.274 N 
ATOM      4  C   UNL     1      -1.296 -15.140  12.587  1.00  0.00     0.321 C 
ATOM      5  O   UNL     1      -0.464 -16.052  12.540  1.00  0.00    -0.248 OA
ATOM      6  N   UNL     1      -2.438 -15.339  13.270  1.00  0.00    -0.334 N 
ATOM      7  H   UNL     1      -0.147 -14.139  11.404  1.00  0.00     0.175 HD
ATOM      8  H   UNL     1      -2.532 -16.273  13.642  1.00  0.00     0.165 HD
ENDROOT
BRANCH   1   9
ATOM      9  C   UNL     1      -0.995 -11.994  10.530  1.00  0.00     0.040 A 
ATOM     10  C   UNL     1      -1.723 -11.177   9.662  1.00  0.00     0.014 A 
ATOM     11  C   UNL     1      -1.043 -10.401   8.722  1.00  0.00     0.004 A 
ATOM     12  C   UNL     1       0.396 -12.082  10.424  1.00  0.00     0.014 A 
ATOM     13  C   UNL     1       0.357 -10.444   8.642  1.00  0.00    -0.051 A 
ATOM     14  C   UNL     1       1.071 -11.300   9.489  1.00  0.00     0.004 A 
ATOM     15  C   UNL     1       1.078  -9.540   7.685  1.00  0.00     0.044 C 
ENDBRANCH   1   9
BRANCH   6  16
ATOM     16  C   UNL     1      -3.568 -14.458  13.363  1.00  0.00     0.153 C 
BRANCH  16  17
ATOM     17  C   UNL     1      -4.841 -14.896  12.694  1.00  0.00    -0.029 A 
ATOM     18  C   UNL     1      -5.035 -14.837  11.310  1.00  0.00     0.006 A 
ATOM     19  C   UNL     1      -5.779 -15.583  13.482  1.00  0.00     0.006 A 
ATOM     20  C   UNL     1      -6.136 -15.477  10.730  1.00  0.00     0.004 A 
ATOM     21  C   UNL     1      -6.870 -16.223  12.903  1.00  0.00     0.004 A 
ATOM     22  C   UNL     1      -7.052 -16.184  11.520  1.00  0.00    -0.051 A 
ATOM     23  C   UNL     1      -8.151 -16.989  10.894  1.00  0.00     0.044 C 
ENDBRANCH  16  17
ENDBRANCH   6  16
TORSDOF 3
ENDMDL
MODEL 9
REMARK VINA RESULT:    -4.509      2.246      3.922
REMARK INTER + INTRA:          -5.675
REMARK INTER:                  -5.242
REMARK INTRA:                  -0.432
REMARK UNBOUND:                -0.374
REMARK SMILES Cc1ccc(CNC(=O)NC(=O)c2ccc(C)cc2)cc1
REMARK SMILES IDX 11 1 12 2 10 3 8 4 9 5 7 6 13 9 19 10 18 11 14 12 16 13
REMARK SMILES IDX 15 14 17 15 6 16 5 17 4 18 20 19 3 20 21 21 2 22 1 23
REMARK H PARENT 10 7 7 8
ROOT
ATOM      1  C   UNL     1       3.837 -11.474   5.046  1.00  0.00     0.259 C 
ATOM      2  O   UNL     1       4.861 -11.394   4.383  1.00  0.00    -0.269 OA
ATOM      3  N   UNL     1       3.313 -12.581   5.720  1.00  0.00    -0.274 N 
ATOM      4  C   UNL     1       3.743 -13.822   6.117  1.00  0.00     0.321 C 
ATOM      5  O   UNL     1       2.990 -14.485   6.839  1.00  0.00    -0.248 OA
ATOM      6  N   UNL     1       4.943 -14.334   5.788  1.00  0.00    -0.334 N 
ATOM      7  H   UNL     1       2.433 -12.408   6.186  1.00  0.00     0.175 HD
ATOM      8  H   UNL     1       5.142 -15.220   6.230  1.00  0.00     0.165 HD
ENDROOT
BRANCH   1   9
ATOM      9  C   UNL     1       3.032 -10.243   5.167  1.00  0.00     0.040 A 
ATOM     10  C   UNL     1       3.322  -9.275   6.130  1.00  0.00     0.014 A 
ATOM     11  C   UNL     1       2.565  -8.103   6.172  1.00  0.00     0.004 A 
ATOM     12  C   UNL     1       1.957 -10.072   4.289  1.00  0.00     0.014 A 
ATOM     13  C   UNL     1       1.517  -7.899   5.261  1.00  0.00    -0.051 A 
ATOM     14  C   UNL     1       1.208  -8.898   4.329  1.00  0.00     0.004 A 
ATOM     15  C   UNL     1       0.769  -6.599   5.264  1.00  0.00     0.044 C 
ENDBRANCH   1   9
BRANCH   6  16
ATOM     16  C   UNL     1       5.998 -13.694   5.054  1.00  0.00     0.153 C 
BRANCH  16  17
ATOM     17  C   UNL     1       7.404 -13.903   5.542  1.00  0.00    -0.029 A 
ATOM     18  C   UNL     1       7.912 -13.292   6.693  1.00  0.00     0.006 A 
ATOM     19  C   UNL     1       8.154 -14.918   4.925  1.00  0.00     0.006 A 
ATOM     20  C   UNL     1       9.136 -13.710   7.225  1.00  0.00     0.004 A 
ATOM     21  C   UNL     1       9.369 -15.336   5.459  1.00  0.00     0.004 A 
ATOM     22  C   UNL     1       9.866 -14.742   6.620  1.00  0.00    -0.051 A 
ATOM     23  C   UNL     1      11.105 -15.291   7.263  1.00  0.00     0.044 C 
ENDBRANCH  16  17
ENDBRANCH   6  16
TORSDOF 3
ENDMDL
