MODEL 1
REMARK VINA RESULT:    -4.355      0.000      0.000
REMARK INTER + INTRA:          -5.963
REMARK INTER:                  -5.755
REMARK INTRA:                  -0.208
REMARK UNBOUND:                -0.208
REMARK SMILES [H]/N=C\C[C@H]1C[C@@H]1O[C@H]1CO[C@H]2C[C@@H](C3CC3)CCN2C1
REMARK SMILES IDX 7 1 6 2 5 3 8 4 9 5 14 6 13 7 18 8 12 9 19 10 20 11 11 12
REMARK SMILES IDX 21 13 10 14 15 15 16 16 17 17 4 18 3 19 2 20 1 21
REMARK H PARENT
ROOT
ATOM      1  C   UNL     1      -6.380 -11.683   0.284  1.00  0.00     0.122 C 
ATOM      2  C   UNL     1      -6.567 -12.967  -0.475  1.00  0.00     0.039 C 
ATOM      3  C   UNL     1      -5.667 -12.931   0.727  1.00  0.00     0.026 C 
ENDROOT
BRANCH   1   4
ATOM      4  O   UNL     1      -5.589 -10.700  -0.411  1.00  0.00    -0.371 OA
BRANCH   4   5
ATOM      5  C   UNL     1      -6.241 -10.043  -1.509  1.00  0.00     0.158 C 
ATOM      6  C   UNL     1      -4.648  -5.168  -0.564  1.00  0.00    -0.003 C 
ATOM      7  C   UNL     1      -5.639  -6.144   0.082  1.00  0.00     0.052 C 
ATOM      8  C   UNL     1      -3.480  -5.957  -1.172  1.00  0.00     0.019 C 
ATOM      9  C   UNL     1      -6.070  -7.247  -0.894  1.00  0.00     0.189 C 
ATOM     10  C   UNL     1      -3.978  -7.060  -2.106  1.00  0.00     0.087 C 
ATOM     11  N   UNL     1      -4.901  -7.958  -1.411  1.00  0.00    -0.276 NA
ATOM     12  O   UNL     1      -6.948  -8.112  -0.171  1.00  0.00    -0.360 OA
ATOM     13  C   UNL     1      -5.320  -9.072  -2.268  1.00  0.00     0.121 C 
ATOM     14  C   UNL     1      -7.407  -9.222  -0.949  1.00  0.00     0.195 C 
BRANCH   6  15
ATOM     15  C   UNL     1      -4.139  -4.152   0.434  1.00  0.00    -0.008 C 
ATOM     16  C   UNL     1      -4.028  -2.695   0.052  1.00  0.00     0.004 C 
ATOM     17  C   UNL     1      -5.070  -3.130   1.040  1.00  0.00     0.004 C 
ENDBRANCH   6  15
ENDBRANCH   4   5
ENDBRANCH   1   4
BRANCH   3  18
ATOM     18  C   UNL     1      -6.094 -13.643   1.976  1.00  0.00     0.053 C 
BRANCH  18  19
ATOM     19  C   UNL     1      -6.449 -15.099   1.825  1.00  0.00     0.074 C 
BRANCH  19  20
ATOM     20  N   UNL     1      -5.642 -16.095   1.979  1.00  0.00    -0.313 NA
ATOM     21  H   UNL     1      -5.041 -16.229   1.154  1.00  0.00     0.186 HD
ENDBRANCH  19  20
ENDBRANCH  18  19
ENDBRANCH   3  18
TORSDOF 6
ENDMDL
MODEL 2
REMARK VINA RESULT:    -4.346      3.329      5.607
REMARK INTER + INTRA:          -5.952
REMARK INTER:                  -5.749
REMARK INTRA:                  -0.202
REMARK UNBOUND:                -0.208
REMARK SMILES [H]/N=C\C[C@H]1C[C@@H]1O[C@H]1CO[C@H]2C[C@@H](C3CC3)CCN2C1
REMARK SMILES IDX 7 1 6 2 5 3 8 4 9 5 14 6 13 7 18 8 12 9 19 10 20 11 11 12
REMARK SMILES IDX 21 13 10 14 15 15 16 16 17 17 4 18 3 19 2 20 1 21
REMARK H PARENT
ROOT
ATOM      1  C   UNL     1      -9.321  -8.699  -2.384  1.00  0.00     0.122 C 
ATOM      2  C   UNL     1     -10.653  -9.175  -1.875  1.00  0.00     0.039 C 
ATOM      3  C   UNL     1     -10.590  -8.062  -2.881  1.00  0.00     0.026 C 
ENDROOT
BRANCH   1   4
ATOM      4  O   UNL     1      -8.558  -7.950  -1.420  1.00  0.00    -0.371 OA
BRANCH   4   5
ATOM      5  C   UNL     1      -7.998  -8.717  -0.341  1.00  0.00     0.158 C 
ATOM      6  C   UNL     1      -3.285  -6.490  -0.159  1.00  0.00    -0.003 C 
ATOM      7  C   UNL     1      -4.013  -7.444  -1.114  1.00  0.00     0.052 C 
ATOM      8  C   UNL     1      -4.305  -5.537   0.479  1.00  0.00     0.019 C 
ATOM      9  C   UNL     1      -5.187  -8.154  -0.426  1.00  0.00     0.189 C 
ATOM     10  C   UNL     1      -5.463  -6.303   1.116  1.00  0.00     0.087 C 
ATOM     11  N   UNL     1      -6.115  -7.174   0.138  1.00  0.00    -0.276 NA
ATOM     12  O   UNL     1      -5.809  -8.972  -1.419  1.00  0.00    -0.360 OA
ATOM     13  C   UNL     1      -7.284  -7.851   0.712  1.00  0.00     0.121 C 
ATOM     14  C   UNL     1      -6.955  -9.674  -0.928  1.00  0.00     0.195 C 
BRANCH   6  15
ATOM     15  C   UNL     1      -2.203  -5.711  -0.872  1.00  0.00    -0.008 C 
ATOM     16  C   UNL     1      -0.848  -5.525  -0.232  1.00  0.00     0.004 C 
ATOM     17  C   UNL     1      -0.990  -6.410  -1.436  1.00  0.00     0.004 C 
ENDBRANCH   6  15
ENDBRANCH   4   5
ENDBRANCH   1   4
BRANCH   3  18
ATOM     18  C   UNL     1     -11.067  -8.318  -4.280  1.00  0.00     0.053 C 
BRANCH  18  19
ATOM     19  C   UNL     1     -12.474  -8.839  -4.419  1.00  0.00     0.074 C 
BRANCH  19  20
ATOM     20  N   UNL     1     -13.529  -8.123  -4.623  1.00  0.00    -0.313 NA
ATOM     21  H   UNL     1     -14.330  -8.461  -4.072  1.00  0.00     0.186 HD
ENDBRANCH  19  20
ENDBRANCH  18  19
ENDBRANCH   3  18
TORSDOF 6
ENDMDL
MODEL 3
REMARK VINA RESULT:    -4.208      5.238      8.405
REMARK INTER + INTRA:          -5.769
REMARK INTER:                  -5.617
REMARK INTRA:                  -0.152
REMARK UNBOUND:                -0.208
REMARK SMILES [H]/N=C\C[C@H]1C[C@@H]1O[C@H]1CO[C@H]2C[C@@H](C3CC3)CCN2C1
REMARK SMILES IDX 7 1 6 2 5 3 8 4 9 5 14 6 13 7 18 8 12 9 19 10 20 11 11 12
REMARK SMILES IDX 21 13 10 14 15 15 16 16 17 17 4 18 3 19 2 20 1 21
REMARK H PARENT
ROOT
ATOM      1  C   UNL     1      -7.253  -8.902  -1.258  1.00  0.00     0.122 C 
ATOM      2  C   UNL     1      -6.341 -10.056  -0.951  1.00  0.00     0.039 C 
ATOM      3  C   UNL     1      -6.007  -9.115  -2.073  1.00  0.00     0.026 C 
ENDROOT
BRANCH   1   4
ATOM      4  O   UNL     1      -8.499  -9.285  -1.871  1.00  0.00    -0.371 OA
BRANCH   4   5
ATOM      5  C   UNL     1      -9.653  -8.541  -1.448  1.00  0.00     0.158 C 
ATOM      6  C   UNL     1     -12.849  -9.745  -5.390  1.00  0.00    -0.003 C 
ATOM      7  C   UNL     1     -11.606  -8.864  -5.214  1.00  0.00     0.052 C 
ATOM      8  C   UNL     1     -12.752 -10.954  -4.448  1.00  0.00     0.019 C 
ATOM      9  C   UNL     1     -11.373  -8.494  -3.742  1.00  0.00     0.189 C 
ATOM     10  C   UNL     1     -12.487 -10.519  -3.007  1.00  0.00     0.087 C 
ATOM     11  N   UNL     1     -11.277  -9.701  -2.922  1.00  0.00    -0.276 NA
ATOM     12  O   UNL     1     -10.173  -7.720  -3.701  1.00  0.00    -0.360 OA
ATOM     13  C   UNL     1     -10.960  -9.349  -1.533  1.00  0.00     0.121 C 
ATOM     14  C   UNL     1      -9.804  -7.330  -2.374  1.00  0.00     0.195 C 
BRANCH   6  15
ATOM     15  C   UNL     1     -13.008 -10.200  -6.823  1.00  0.00    -0.008 C 
ATOM     16  C   UNL     1     -14.382 -10.465  -7.392  1.00  0.00     0.004 C 
ATOM     17  C   UNL     1     -13.593  -9.279  -7.866  1.00  0.00     0.004 C 
ENDBRANCH   6  15
ENDBRANCH   4   5
ENDBRANCH   1   4
BRANCH   3  18
ATOM     18  C   UNL     1      -4.837  -8.189  -1.922  1.00  0.00     0.053 C 
BRANCH  18  19
ATOM     19  C   UNL     1      -4.053  -7.897  -3.174  1.00  0.00     0.074 C 
BRANCH  19  20
ATOM     20  N   UNL     1      -3.777  -8.743  -4.110  1.00  0.00    -0.313 NA
ATOM     21  H   UNL     1      -4.145  -9.680  -3.895  1.00  0.00     0.186 HD
ENDBRANCH  19  20
ENDBRANCH  18  19
ENDBRANCH   3  18
TORSDOF 6
ENDMDL
MODEL 4
REMARK VINA RESULT:    -3.919      3.631      5.085
REMARK INTER + INTRA:          -5.387
REMARK INTER:                  -5.181
REMARK INTRA:                  -0.206
REMARK UNBOUND:                -0.208
REMARK SMILES [H]/N=C\C[C@H]1C[C@@H]1O[C@H]1CO[C@H]2C[C@@H](C3CC3)CCN2C1
REMARK SMILES IDX 7 1 6 2 5 3 8 4 9 5 14 6 13 7 18 8 12 9 19 10 20 11 11 12
REMARK SMILES IDX 21 13 10 14 15 15 16 16 17 17 4 18 3 19 2 20 1 21
REMARK H PARENT
ROOT
ATOM      1  C   UNL     1      -6.910 -14.590   2.654  1.00  0.00     0.122 C 
ATOM      2  C   UNL     1      -6.952 -14.539   4.155  1.00  0.00     0.039 C 
ATOM      3  C   UNL     1      -8.217 -14.769   3.378  1.00  0.00     0.026 C 
ENDROOT
BRANCH   1   4
ATOM      4  O   UNL     1      -6.689 -13.311   2.029  1.00  0.00    -0.371 OA
BRANCH   4   5
ATOM      5  C   UNL     1      -5.955 -13.343   0.794  1.00  0.00     0.158 C 
ATOM      6  C   UNL     1      -8.040  -9.131  -1.468  1.00  0.00    -0.003 C 
ATOM      7  C   UNL     1      -8.516 -10.553  -1.143  1.00  0.00     0.052 C 
ATOM      8  C   UNL     1      -7.046  -8.671  -0.392  1.00  0.00     0.019 C 
ATOM      9  C   UNL     1      -7.339 -11.513  -0.927  1.00  0.00     0.189 C 
ATOM     10  C   UNL     1      -5.919  -9.685  -0.203  1.00  0.00     0.087 C 
ATOM     11  N   UNL     1      -6.454 -11.007   0.123  1.00  0.00    -0.276 NA
ATOM     12  O   UNL     1      -7.902 -12.781  -0.589  1.00  0.00    -0.360 OA
ATOM     13  C   UNL     1      -5.382 -11.972   0.393  1.00  0.00     0.121 C 
ATOM     14  C   UNL     1      -6.913 -13.780  -0.319  1.00  0.00     0.195 C 
BRANCH   6  15
ATOM     15  C   UNL     1      -9.200  -8.167  -1.567  1.00  0.00    -0.008 C 
ATOM     16  C   UNL     1      -9.852  -7.890  -2.901  1.00  0.00     0.004 C 
ATOM     17  C   UNL     1     -10.597  -8.663  -1.852  1.00  0.00     0.004 C 
ENDBRANCH   6  15
ENDBRANCH   4   5
ENDBRANCH   1   4
BRANCH   3  18
ATOM     18  C   UNL     1      -8.870 -16.117   3.436  1.00  0.00     0.053 C 
BRANCH  18  19
ATOM     19  C   UNL     1     -10.208 -16.238   2.754  1.00  0.00     0.074 C 
BRANCH  19  20
ATOM     20  N   UNL     1     -10.907 -15.262   2.278  1.00  0.00    -0.313 NA
ATOM     21  H   UNL     1     -10.327 -14.429   2.105  1.00  0.00     0.186 HD
ENDBRANCH  19  20
ENDBRANCH  18  19
ENDBRANCH   3  18
TORSDOF 6
ENDMDL
MODEL 5
REMARK VINA RESULT:    -3.914      6.470      7.870
REMARK INTER + INTRA:          -5.380
REMARK INTER:                  -5.139
REMARK INTRA:                  -0.241
REMARK UNBOUND:                -0.208
REMARK SMILES [H]/N=C\C[C@H]1C[C@@H]1O[C@H]1CO[C@H]2C[C@@H](C3CC3)CCN2C1
REMARK SMILES IDX 7 1 6 2 5 3 8 4 9 5 14 6 13 7 18 8 12 9 19 10 20 11 11 12
REMARK SMILES IDX 21 13 10 14 15 15 16 16 17 17 4 18 3 19 2 20 1 21
REMARK H PARENT
ROOT
ATOM      1  C   UNL     1     -13.304 -12.713  -5.169  1.00  0.00     0.122 C 
ATOM      2  C   UNL     1     -12.707 -12.547  -6.538  1.00  0.00     0.039 C 
ATOM      3  C   UNL     1     -12.817 -13.916  -5.929  1.00  0.00     0.026 C 
ENDROOT
BRANCH   1   4
ATOM      4  O   UNL     1     -12.462 -12.241  -4.100  1.00  0.00    -0.371 OA
BRANCH   4   5
ATOM      5  C   UNL     1     -13.117 -11.439  -3.104  1.00  0.00     0.158 C 
ATOM      6  C   UNL     1      -9.017  -8.609  -1.559  1.00  0.00    -0.003 C 
ATOM      7  C   UNL     1      -9.472 -10.064  -1.394  1.00  0.00     0.052 C 
ATOM      8  C   UNL     1      -9.497  -8.078  -2.917  1.00  0.00     0.019 C 
ATOM      9  C   UNL     1     -10.981 -10.219  -1.628  1.00  0.00     0.189 C 
ATOM     10  C   UNL     1     -10.999  -8.294  -3.102  1.00  0.00     0.087 C 
ATOM     11  N   UNL     1     -11.348  -9.706  -2.948  1.00  0.00    -0.276 NA
ATOM     12  O   UNL     1     -11.274 -11.612  -1.494  1.00  0.00    -0.360 OA
ATOM     13  C   UNL     1     -12.773  -9.942  -3.208  1.00  0.00     0.121 C 
ATOM     14  C   UNL     1     -12.652 -11.919  -1.725  1.00  0.00     0.195 C 
BRANCH   6  15
ATOM     15  C   UNL     1      -7.515  -8.480  -1.440  1.00  0.00    -0.008 C 
ATOM     16  C   UNL     1      -6.882  -8.118  -0.117  1.00  0.00     0.004 C 
ATOM     17  C   UNL     1      -6.710  -9.501  -0.674  1.00  0.00     0.004 C 
ENDBRANCH   6  15
ENDBRANCH   4   5
ENDBRANCH   1   4
BRANCH   3  18
ATOM     18  C   UNL     1     -13.797 -14.892  -6.509  1.00  0.00     0.053 C 
BRANCH  18  19
ATOM     19  C   UNL     1     -13.244 -16.235  -6.907  1.00  0.00     0.074 C 
BRANCH  19  20
ATOM     20  N   UNL     1     -12.171 -16.437  -7.597  1.00  0.00    -0.313 NA
ATOM     21  H   UNL     1     -12.381 -16.865  -8.510  1.00  0.00     0.186 HD
ENDBRANCH  19  20
ENDBRANCH  18  19
ENDBRANCH   3  18
TORSDOF 6
ENDMDL
MODEL 6
REMARK VINA RESULT:    -3.881      4.236      7.179
REMARK INTER + INTRA:          -5.337
REMARK INTER:                  -4.800
REMARK INTRA:                  -0.537
REMARK UNBOUND:                -0.208
REMARK SMILES [H]/N=C\C[C@H]1C[C@@H]1O[C@H]1CO[C@H]2C[C@@H](C3CC3)CCN2C1
REMARK SMILES IDX 7 1 6 2 5 3 8 4 9 5 14 6 13 7 18 8 12 9 19 10 20 11 11 12
REMARK SMILES IDX 21 13 10 14 15 15 16 16 17 17 4 18 3 19 2 20 1 21
REMARK H PARENT
ROOT
ATOM      1  C   UNL     1     -10.668 -16.653  -0.080  1.00  0.00     0.122 C 
ATOM      2  C   UNL     1     -11.941 -16.683   0.717  1.00  0.00     0.039 C 
ATOM      3  C   UNL     1     -11.598 -15.472  -0.102  1.00  0.00     0.026 C 
ENDROOT
BRANCH   1   4
ATOM      4  O   UNL     1      -9.477 -16.521   0.720  1.00  0.00    -0.371 OA
BRANCH   4   5
ATOM      5  C   UNL     1      -8.245 -16.849   0.057  1.00  0.00     0.158 C 
ATOM      6  C   UNL     1      -6.152 -12.074  -0.104  1.00  0.00    -0.003 C 
ATOM      7  C   UNL     1      -7.301 -12.794  -0.820  1.00  0.00     0.052 C 
ATOM      8  C   UNL     1      -6.024 -12.619   1.326  1.00  0.00     0.019 C 
ATOM      9  C   UNL     1      -7.153 -14.320  -0.743  1.00  0.00     0.189 C 
ATOM     10  C   UNL     1      -5.916 -14.144   1.335  1.00  0.00     0.087 C 
ATOM     11  N   UNL     1      -7.056 -14.754   0.651  1.00  0.00    -0.276 NA
ATOM     12  O   UNL     1      -8.295 -14.874  -1.399  1.00  0.00    -0.360 OA
ATOM     13  C   UNL     1      -7.011 -16.218   0.726  1.00  0.00     0.121 C 
ATOM     14  C   UNL     1      -8.316 -16.305  -1.374  1.00  0.00     0.195 C 
BRANCH   6  15
ATOM     15  C   UNL     1      -6.362 -10.577  -0.084  1.00  0.00    -0.008 C 
ATOM     16  C   UNL     1      -5.920  -9.728  -1.253  1.00  0.00     0.004 C 
ATOM     17  C   UNL     1      -7.384  -9.927  -0.986  1.00  0.00     0.004 C 
ENDBRANCH   6  15
ENDBRANCH   4   5
ENDBRANCH   1   4
BRANCH   3  18
ATOM     18  C   UNL     1     -12.408 -15.170  -1.328  1.00  0.00     0.053 C 
BRANCH  18  19
ATOM     19  C   UNL     1     -11.841 -14.133  -2.262  1.00  0.00     0.074 C 
BRANCH  19  20
ATOM     20  N   UNL     1     -10.640 -14.114  -2.735  1.00  0.00    -0.313 NA
ATOM     21  H   UNL     1     -10.636 -14.156  -3.764  1.00  0.00     0.186 HD
ENDBRANCH  19  20
ENDBRANCH  18  19
ENDBRANCH   3  18
TORSDOF 6
ENDMDL
MODEL 7
REMARK VINA RESULT:    -3.861      2.778      8.553
REMARK INTER + INTRA:          -5.310
REMARK INTER:                  -5.347
REMARK INTRA:                   0.037
REMARK UNBOUND:                -0.208
REMARK SMILES [H]/N=C\C[C@H]1C[C@@H]1O[C@H]1CO[C@H]2C[C@@H](C3CC3)CCN2C1
REMARK SMILES IDX 7 1 6 2 5 3 8 4 9 5 14 6 13 7 18 8 12 9 19 10 20 11 11 12
REMARK SMILES IDX 21 13 10 14 15 15 16 16 17 17 4 18 3 19 2 20 1 21
REMARK H PARENT
ROOT
ATOM      1  C   UNL     1      -6.601  -9.578  -0.415  1.00  0.00     0.122 C 
ATOM      2  C   UNL     1      -7.796  -8.808  -0.902  1.00  0.00     0.039 C 
ATOM      3  C   UNL     1      -7.202  -8.497   0.442  1.00  0.00     0.026 C 
ENDROOT
BRANCH   1   4
ATOM      4  O   UNL     1      -6.892 -10.937  -0.038  1.00  0.00    -0.371 OA
BRANCH   4   5
ATOM      5  C   UNL     1      -5.975 -11.927  -0.533  1.00  0.00     0.158 C 
ATOM      6  C   UNL     1      -7.749 -16.040   2.139  1.00  0.00    -0.003 C 
ATOM      7  C   UNL     1      -6.962 -14.768   2.477  1.00  0.00     0.052 C 
ATOM      8  C   UNL     1      -8.721 -15.746   0.988  1.00  0.00     0.019 C 
ATOM      9  C   UNL     1      -6.294 -14.165   1.233  1.00  0.00     0.189 C 
ATOM     10  C   UNL     1      -8.000 -15.116  -0.204  1.00  0.00     0.087 C 
ATOM     11  N   UNL     1      -7.291 -13.900   0.196  1.00  0.00    -0.276 NA
ATOM     12  O   UNL     1      -5.636 -12.971   1.662  1.00  0.00    -0.360 OA
ATOM     13  C   UNL     1      -6.666 -13.236  -0.953  1.00  0.00     0.121 C 
ATOM     14  C   UNL     1      -4.993 -12.271   0.592  1.00  0.00     0.195 C 
BRANCH   6  15
ATOM     15  C   UNL     1      -8.497 -16.566   3.344  1.00  0.00    -0.008 C 
ATOM     16  C   UNL     1      -7.743 -17.125   4.527  1.00  0.00     0.004 C 
ATOM     17  C   UNL     1      -8.473 -15.819   4.656  1.00  0.00     0.004 C 
ENDBRANCH   6  15
ENDBRANCH   4   5
ENDBRANCH   1   4
BRANCH   3  18
ATOM     18  C   UNL     1      -6.482  -7.197   0.635  1.00  0.00     0.053 C 
BRANCH  18  19
ATOM     19  C   UNL     1      -6.461  -6.649   2.039  1.00  0.00     0.074 C 
BRANCH  19  20
ATOM     20  N   UNL     1      -7.459  -6.627   2.858  1.00  0.00    -0.313 NA
ATOM     21  H   UNL     1      -7.678  -5.669   3.164  1.00  0.00     0.186 HD
ENDBRANCH  19  20
ENDBRANCH  18  19
ENDBRANCH   3  18
TORSDOF 6
ENDMDL
MODEL 8
REMARK VINA RESULT:    -3.849      5.767      7.230
REMARK INTER + INTRA:          -5.294
REMARK INTER:                  -4.823
REMARK INTRA:                  -0.471
REMARK UNBOUND:                -0.208
REMARK SMILES [H]/N=C\C[C@H]1C[C@@H]1O[C@H]1CO[C@H]2C[C@@H](C3CC3)CCN2C1
REMARK SMILES IDX 7 1 6 2 5 3 8 4 9 5 14 6 13 7 18 8 12 9 19 10 20 11 11 12
REMARK SMILES IDX 21 13 10 14 15 15 16 16 17 17 4 18 3 19 2 20 1 21
REMARK H PARENT
ROOT
ATOM      1  C   UNL     1     -13.606 -13.411  -3.564  1.00  0.00     0.122 C 
ATOM      2  C   UNL     1     -13.188 -14.486  -4.527  1.00  0.00     0.039 C 
ATOM      3  C   UNL     1     -12.385 -14.244  -3.281  1.00  0.00     0.026 C 
ENDROOT
BRANCH   1   4
ATOM      4  O   UNL     1     -13.376 -12.072  -4.042  1.00  0.00    -0.371 OA
BRANCH   4   5
ATOM      5  C   UNL     1     -13.965 -11.023  -3.256  1.00  0.00     0.158 C 
ATOM      6  C   UNL     1      -9.597  -8.534  -1.870  1.00  0.00    -0.003 C 
ATOM      7  C   UNL     1     -10.269  -9.861  -1.499  1.00  0.00     0.052 C 
ATOM      8  C   UNL     1      -9.911  -8.197  -3.334  1.00  0.00     0.019 C 
ATOM      9  C   UNL     1     -11.767  -9.854  -1.832  1.00  0.00     0.189 C 
ATOM     10  C   UNL     1     -11.414  -8.240  -3.607  1.00  0.00     0.087 C 
ATOM     11  N   UNL     1     -11.975  -9.542  -3.246  1.00  0.00    -0.276 NA
ATOM     12  O   UNL     1     -12.268 -11.148  -1.488  1.00  0.00    -0.360 OA
ATOM     13  C   UNL     1     -13.400  -9.630  -3.582  1.00  0.00     0.121 C 
ATOM     14  C   UNL     1     -13.660 -11.305  -1.781  1.00  0.00     0.195 C 
BRANCH   6  15
ATOM     15  C   UNL     1      -8.102  -8.587  -1.646  1.00  0.00    -0.008 C 
ATOM     16  C   UNL     1      -7.527  -8.361  -0.268  1.00  0.00     0.004 C 
ATOM     17  C   UNL     1      -7.474  -9.729  -0.885  1.00  0.00     0.004 C 
ENDBRANCH   6  15
ENDBRANCH   4   5
ENDBRANCH   1   4
BRANCH   3  18
ATOM     18  C   UNL     1     -12.409 -15.273  -2.191  1.00  0.00     0.053 C 
BRANCH  18  19
ATOM     19  C   UNL     1     -11.753 -14.882  -0.892  1.00  0.00     0.074 C 
BRANCH  19  20
ATOM     20  N   UNL     1     -11.454 -13.680  -0.526  1.00  0.00    -0.313 NA
ATOM     21  H   UNL     1     -10.941 -13.672   0.367  1.00  0.00     0.186 HD
ENDBRANCH  19  20
ENDBRANCH  18  19
ENDBRANCH   3  18
TORSDOF 6
ENDMDL
MODEL 9
REMARK VINA RESULT:    -3.748      3.176      4.294
REMARK INTER + INTRA:          -5.162
REMARK INTER:                  -5.547
REMARK INTRA:                   0.385
REMARK UNBOUND:                -0.208
REMARK SMILES [H]/N=C\C[C@H]1C[C@@H]1O[C@H]1CO[C@H]2C[C@@H](C3CC3)CCN2C1
REMARK SMILES IDX 7 1 6 2 5 3 8 4 9 5 14 6 13 7 18 8 12 9 19 10 20 11 11 12
REMARK SMILES IDX 21 13 10 14 15 15 16 16 17 17 4 18 3 19 2 20 1 21
REMARK H PARENT
ROOT
ATOM      1  C   UNL     1      -9.505  -8.350  -1.632  1.00  0.00     0.122 C 
ATOM      2  C   UNL     1     -10.408  -7.756  -2.677  1.00  0.00     0.039 C 
ATOM      3  C   UNL     1     -10.485  -9.224  -2.366  1.00  0.00     0.026 C 
ENDROOT
BRANCH   1   4
ATOM      4  O   UNL     1      -8.126  -8.448  -2.036  1.00  0.00    -0.371 OA
BRANCH   4   5
ATOM      5  C   UNL     1      -7.301  -9.295  -1.219  1.00  0.00     0.158 C 
ATOM      6  C   UNL     1      -4.186  -5.635   0.807  1.00  0.00    -0.003 C 
ATOM      7  C   UNL     1      -4.357  -6.294  -0.567  1.00  0.00     0.052 C 
ATOM      8  C   UNL     1      -5.549  -5.564   1.509  1.00  0.00     0.019 C 
ATOM      9  C   UNL     1      -5.079  -7.644  -0.466  1.00  0.00     0.189 C 
ATOM     10  C   UNL     1      -6.230  -6.932   1.546  1.00  0.00     0.087 C 
ATOM     11  N   UNL     1      -6.373  -7.483   0.198  1.00  0.00    -0.276 NA
ATOM     12  O   UNL     1      -5.219  -8.134  -1.801  1.00  0.00    -0.360 OA
ATOM     13  C   UNL     1      -7.102  -8.755   0.208  1.00  0.00     0.121 C 
ATOM     14  C   UNL     1      -5.916  -9.382  -1.870  1.00  0.00     0.195 C 
BRANCH   6  15
ATOM     15  C   UNL     1      -3.577  -4.256   0.690  1.00  0.00    -0.008 C 
ATOM     16  C   UNL     1      -2.258  -4.062  -0.020  1.00  0.00     0.004 C 
ATOM     17  C   UNL     1      -3.524  -3.545  -0.640  1.00  0.00     0.004 C 
ENDBRANCH   6  15
ENDBRANCH   4   5
ENDBRANCH   1   4
BRANCH   3  18
ATOM     18  C   UNL     1     -11.699  -9.755  -1.663  1.00  0.00     0.053 C 
BRANCH  18  19
ATOM     19  C   UNL     1     -11.688 -11.225  -1.336  1.00  0.00     0.074 C 
BRANCH  19  20
ATOM     20  N   UNL     1     -10.657 -12.001  -1.368  1.00  0.00    -0.313 NA
ATOM     21  H   UNL     1      -9.953 -11.670  -2.043  1.00  0.00     0.186 HD
ENDBRANCH  19  20
ENDBRANCH  18  19
ENDBRANCH   3  18
TORSDOF 6
ENDMDL
