MODEL 1
REMARK VINA RESULT:    -4.007      0.000      0.000
REMARK INTER + INTRA:          -5.504
REMARK INTER:                  -5.295
REMARK INTRA:                  -0.209
REMARK UNBOUND:                -0.209
REMARK SMILES [H]/N=C\C[C@H]1C[C@@H]1O[C@H]1CO[C@H]2C[C@@H](C3CC3)CCN2C1
REMARK SMILES IDX 7 1 6 2 5 3 8 4 9 5 14 6 13 7 18 8 12 9 19 10 20 11 11 12
REMARK SMILES IDX 21 13 10 14 15 15 16 16 17 17 4 18 3 19 2 20 1 21
REMARK H PARENT
ROOT
ATOM      1  C   UNL     1      -7.423 -10.177  -5.834  1.00  0.00     0.122 C 
ATOM      2  C   UNL     1      -7.610 -11.668  -5.838  1.00  0.00     0.039 C 
ATOM      3  C   UNL     1      -8.388 -10.818  -4.875  1.00  0.00     0.026 C 
ENDROOT
BRANCH   1   4
ATOM      4  O   UNL     1      -6.162  -9.746  -5.288  1.00  0.00    -0.371 OA
BRANCH   4   5
ATOM      5  C   UNL     1      -5.001 -10.085  -6.064  1.00  0.00     0.158 C 
ATOM      6  C   UNL     1      -2.309  -5.664  -5.421  1.00  0.00    -0.003 C 
ATOM      7  C   UNL     1      -3.561  -6.084  -6.201  1.00  0.00     0.052 C 
ATOM      8  C   UNL     1      -2.215  -6.489  -4.130  1.00  0.00     0.019 C 
ATOM      9  C   UNL     1      -3.611  -7.602  -6.424  1.00  0.00     0.189 C 
ATOM     10  C   UNL     1      -2.306  -7.988  -4.417  1.00  0.00     0.087 C 
ATOM     11  N   UNL     1      -3.533  -8.308  -5.145  1.00  0.00    -0.276 NA
ATOM     12  O   UNL     1      -4.833  -7.874  -7.113  1.00  0.00    -0.360 OA
ATOM     13  C   UNL     1      -3.678  -9.753  -5.352  1.00  0.00     0.121 C 
ATOM     14  C   UNL     1      -5.039  -9.268  -7.359  1.00  0.00     0.195 C 
BRANCH   6  15
ATOM     15  C   UNL     1      -2.322  -4.185  -5.106  1.00  0.00    -0.008 C 
ATOM     16  C   UNL     1      -1.126  -3.324  -5.437  1.00  0.00     0.004 C 
ATOM     17  C   UNL     1      -2.402  -3.160  -6.211  1.00  0.00     0.004 C 
ENDBRANCH   6  15
ENDBRANCH   4   5
ENDBRANCH   1   4
BRANCH   3  18
ATOM     18  C   UNL     1      -9.866 -10.662  -5.074  1.00  0.00     0.053 C 
BRANCH  18  19
ATOM     19  C   UNL     1     -10.670 -11.935  -5.120  1.00  0.00     0.074 C 
BRANCH  19  20
ATOM     20  N   UNL     1     -11.470 -12.359  -4.199  1.00  0.00    -0.313 NA
ATOM     21  H   UNL     1     -12.372 -11.863  -4.221  1.00  0.00     0.186 HD
ENDBRANCH  19  20
ENDBRANCH  18  19
ENDBRANCH   3  18
TORSDOF 6
ENDMDL
MODEL 2
REMARK VINA RESULT:    -4.007      3.310      5.521
REMARK INTER + INTRA:          -5.504
REMARK INTER:                  -5.254
REMARK INTRA:                  -0.249
REMARK UNBOUND:                -0.209
REMARK SMILES [H]/N=C\C[C@H]1C[C@@H]1O[C@H]1CO[C@H]2C[C@@H](C3CC3)CCN2C1
REMARK SMILES IDX 7 1 6 2 5 3 8 4 9 5 14 6 13 7 18 8 12 9 19 10 20 11 11 12
REMARK SMILES IDX 21 13 10 14 15 15 16 16 17 17 4 18 3 19 2 20 1 21
REMARK H PARENT
ROOT
ATOM      1  C   UNL     1      -4.072 -10.022  -9.242  1.00  0.00     0.122 C 
ATOM      2  C   UNL     1      -4.976 -10.157 -10.435  1.00  0.00     0.039 C 
ATOM      3  C   UNL     1      -3.489 -10.068 -10.628  1.00  0.00     0.026 C 
ENDROOT
BRANCH   1   4
ATOM      4  O   UNL     1      -4.125  -8.730  -8.607  1.00  0.00    -0.371 OA
BRANCH   4   5
ATOM      5  C   UNL     1      -5.335  -8.444  -7.887  1.00  0.00     0.158 C 
ATOM      6  C   UNL     1      -3.235  -6.092  -3.733  1.00  0.00    -0.003 C 
ATOM      7  C   UNL     1      -3.308  -7.530  -4.261  1.00  0.00     0.052 C 
ATOM      8  C   UNL     1      -3.203  -5.117  -4.918  1.00  0.00     0.019 C 
ATOM      9  C   UNL     1      -4.463  -7.714  -5.254  1.00  0.00     0.189 C 
ATOM     10  C   UNL     1      -4.358  -5.376  -5.885  1.00  0.00     0.087 C 
ATOM     11  N   UNL     1      -4.345  -6.760  -6.357  1.00  0.00    -0.276 NA
ATOM     12  O   UNL     1      -4.400  -9.068  -5.707  1.00  0.00    -0.360 OA
ATOM     13  C   UNL     1      -5.395  -7.002  -7.353  1.00  0.00     0.121 C 
ATOM     14  C   UNL     1      -5.403  -9.381  -6.678  1.00  0.00     0.195 C 
BRANCH   6  15
ATOM     15  C   UNL     1      -2.029  -5.887  -2.844  1.00  0.00    -0.008 C 
ATOM     16  C   UNL     1      -2.201  -5.432  -1.414  1.00  0.00     0.004 C 
ATOM     17  C   UNL     1      -1.740  -6.831  -1.702  1.00  0.00     0.004 C 
ENDBRANCH   6  15
ENDBRANCH   4   5
ENDBRANCH   1   4
BRANCH   3  18
ATOM     18  C   UNL     1      -2.743 -11.282 -11.095  1.00  0.00     0.053 C 
BRANCH  18  19
ATOM     19  C   UNL     1      -3.217 -11.901 -12.384  1.00  0.00     0.074 C 
BRANCH  19  20
ATOM     20  N   UNL     1      -2.701 -11.707 -13.552  1.00  0.00    -0.313 NA
ATOM     21  H   UNL     1      -1.852 -11.126 -13.500  1.00  0.00     0.186 HD
ENDBRANCH  19  20
ENDBRANCH  18  19
ENDBRANCH   3  18
TORSDOF 6
ENDMDL
MODEL 3
REMARK VINA RESULT:    -3.875      5.151      8.400
REMARK INTER + INTRA:          -5.330
REMARK INTER:                  -5.055
REMARK INTRA:                  -0.276
REMARK UNBOUND:                -0.209
REMARK SMILES [H]/N=C\C[C@H]1C[C@@H]1O[C@H]1CO[C@H]2C[C@@H](C3CC3)CCN2C1
REMARK SMILES IDX 7 1 6 2 5 3 8 4 9 5 14 6 13 7 18 8 12 9 19 10 20 11 11 12
REMARK SMILES IDX 21 13 10 14 15 15 16 16 17 17 4 18 3 19 2 20 1 21
REMARK H PARENT
ROOT
ATOM      1  C   UNL     1      -4.650  -9.229  -7.174  1.00  0.00     0.122 C 
ATOM      2  C   UNL     1      -5.405  -9.807  -6.011  1.00  0.00     0.039 C 
ATOM      3  C   UNL     1      -3.904  -9.757  -5.979  1.00  0.00     0.026 C 
ENDROOT
BRANCH   1   4
ATOM      4  O   UNL     1      -4.656 -10.062  -8.350  1.00  0.00    -0.371 OA
BRANCH   4   5
ATOM      5  C   UNL     1      -4.675  -9.362  -9.605  1.00  0.00     0.158 C 
ATOM      6  C   UNL     1      -3.314 -13.314 -12.724  1.00  0.00    -0.003 C 
ATOM      7  C   UNL     1      -2.601 -12.440 -11.685  1.00  0.00     0.052 C 
ATOM      8  C   UNL     1      -4.782 -13.494 -12.315  1.00  0.00     0.019 C 
ATOM      9  C   UNL     1      -3.349 -11.122 -11.441  1.00  0.00     0.189 C 
ATOM     10  C   UNL     1      -5.458 -12.148 -12.054  1.00  0.00     0.087 C 
ATOM     11  N   UNL     1      -4.731 -11.385 -11.040  1.00  0.00    -0.276 NA
ATOM     12  O   UNL     1      -2.621 -10.421 -10.431  1.00  0.00    -0.360 OA
ATOM     13  C   UNL     1      -5.415 -10.128 -10.715  1.00  0.00     0.121 C 
ATOM     14  C   UNL     1      -3.226  -9.176 -10.067  1.00  0.00     0.195 C 
BRANCH   6  15
ATOM     15  C   UNL     1      -2.637 -14.658 -12.877  1.00  0.00    -0.008 C 
ATOM     16  C   UNL     1      -2.319 -15.202 -14.249  1.00  0.00     0.004 C 
ATOM     17  C   UNL     1      -1.206 -14.754 -13.347  1.00  0.00     0.004 C 
ENDBRANCH   6  15
ENDBRANCH   4   5
ENDBRANCH   1   4
BRANCH   3  18
ATOM     18  C   UNL     1      -3.228  -8.811  -5.032  1.00  0.00     0.053 C 
BRANCH  18  19
ATOM     19  C   UNL     1      -2.003  -9.335  -4.329  1.00  0.00     0.074 C 
BRANCH  19  20
ATOM     20  N   UNL     1      -1.774 -10.568  -4.025  1.00  0.00    -0.313 NA
ATOM     21  H   UNL     1      -2.418 -11.206  -4.514  1.00  0.00     0.186 HD
ENDBRANCH  19  20
ENDBRANCH  18  19
ENDBRANCH   3  18
TORSDOF 6
ENDMDL
MODEL 4
REMARK VINA RESULT:    -3.796      5.660      7.129
REMARK INTER + INTRA:          -5.226
REMARK INTER:                  -4.818
REMARK INTRA:                  -0.408
REMARK UNBOUND:                -0.209
REMARK SMILES [H]/N=C\C[C@H]1C[C@@H]1O[C@H]1CO[C@H]2C[C@@H](C3CC3)CCN2C1
REMARK SMILES IDX 7 1 6 2 5 3 8 4 9 5 14 6 13 7 18 8 12 9 19 10 20 11 11 12
REMARK SMILES IDX 21 13 10 14 15 15 16 16 17 17 4 18 3 19 2 20 1 21
REMARK H PARENT
ROOT
ATOM      1  C   UNL     1      -6.992 -15.029 -12.430  1.00  0.00     0.122 C 
ATOM      2  C   UNL     1      -6.885 -16.409 -11.845  1.00  0.00     0.039 C 
ATOM      3  C   UNL     1      -7.562 -15.317 -11.068  1.00  0.00     0.026 C 
ENDROOT
BRANCH   1   4
ATOM      4  O   UNL     1      -5.745 -14.309 -12.468  1.00  0.00    -0.371 OA
BRANCH   4   5
ATOM      5  C   UNL     1      -5.744 -13.115 -13.268  1.00  0.00     0.158 C 
ATOM      6  C   UNL     1      -4.358  -9.702  -9.575  1.00  0.00    -0.003 C 
ATOM      7  C   UNL     1      -5.618 -10.511  -9.905  1.00  0.00     0.052 C 
ATOM      8  C   UNL     1      -3.116 -10.500  -9.998  1.00  0.00     0.019 C 
ATOM      9  C   UNL     1      -5.636 -10.966 -11.371  1.00  0.00     0.189 C 
ATOM     10  C   UNL     1      -3.212 -10.951 -11.456  1.00  0.00     0.087 C 
ATOM     11  N   UNL     1      -4.429 -11.731 -11.683  1.00  0.00    -0.276 NA
ATOM     12  O   UNL     1      -6.823 -11.742 -11.544  1.00  0.00    -0.360 OA
ATOM     13  C   UNL     1      -4.492 -12.245 -13.056  1.00  0.00     0.121 C 
ATOM     14  C   UNL     1      -6.958 -12.271 -12.866  1.00  0.00     0.195 C 
BRANCH   6  15
ATOM     15  C   UNL     1      -4.290  -9.355  -8.105  1.00  0.00    -0.008 C 
ATOM     16  C   UNL     1      -5.076  -8.187  -7.559  1.00  0.00     0.004 C 
ATOM     17  C   UNL     1      -5.475  -9.588  -7.200  1.00  0.00     0.004 C 
ENDBRANCH   6  15
ENDBRANCH   4   5
ENDBRANCH   1   4
BRANCH   3  18
ATOM     18  C   UNL     1      -9.047 -15.381 -10.868  1.00  0.00     0.053 C 
BRANCH  18  19
ATOM     19  C   UNL     1      -9.699 -14.138 -10.321  1.00  0.00     0.074 C 
BRANCH  19  20
ATOM     20  N   UNL     1      -9.207 -12.944 -10.360  1.00  0.00    -0.313 NA
ATOM     21  H   UNL     1      -9.518 -12.379  -9.558  1.00  0.00     0.186 HD
ENDBRANCH  19  20
ENDBRANCH  18  19
ENDBRANCH   3  18
TORSDOF 6
ENDMDL
MODEL 5
REMARK VINA RESULT:    -3.790      4.181      7.137
REMARK INTER + INTRA:          -5.217
REMARK INTER:                  -4.812
REMARK INTRA:                  -0.405
REMARK UNBOUND:                -0.209
REMARK SMILES [H]/N=C\C[C@H]1C[C@@H]1O[C@H]1CO[C@H]2C[C@@H](C3CC3)CCN2C1
REMARK SMILES IDX 7 1 6 2 5 3 8 4 9 5 14 6 13 7 18 8 12 9 19 10 20 11 11 12
REMARK SMILES IDX 21 13 10 14 15 15 16 16 17 17 4 18 3 19 2 20 1 21
REMARK H PARENT
ROOT
ATOM      1  C   UNL     1     -10.853 -14.565  -9.339  1.00  0.00     0.122 C 
ATOM      2  C   UNL     1     -11.666 -14.163 -10.537  1.00  0.00     0.039 C 
ATOM      3  C   UNL     1     -10.188 -13.901 -10.513  1.00  0.00     0.026 C 
ENDROOT
BRANCH   1   4
ATOM      4  O   UNL     1     -11.076 -13.745  -8.176  1.00  0.00    -0.371 OA
BRANCH   4   5
ATOM      5  C   UNL     1     -10.643 -14.309  -6.927  1.00  0.00     0.158 C 
ATOM      6  C   UNL     1      -7.187 -10.647  -5.567  1.00  0.00    -0.003 C 
ATOM      7  C   UNL     1      -7.248 -11.765  -6.616  1.00  0.00     0.052 C 
ATOM      8  C   UNL     1      -8.602 -10.104  -5.322  1.00  0.00     0.019 C 
ATOM      9  C   UNL     1      -8.276 -12.841  -6.243  1.00  0.00     0.189 C 
ATOM     10  C   UNL     1      -9.582 -11.228  -4.989  1.00  0.00     0.087 C 
ATOM     11  N   UNL     1      -9.595 -12.241  -6.044  1.00  0.00    -0.276 NA
ATOM     12  O   UNL     1      -8.275 -13.794  -7.308  1.00  0.00    -0.360 OA
ATOM     13  C   UNL     1     -10.594 -13.283  -5.782  1.00  0.00     0.121 C 
ATOM     14  C   UNL     1      -9.222 -14.850  -7.116  1.00  0.00     0.195 C 
BRANCH   6  15
ATOM     15  C   UNL     1      -6.258  -9.534  -5.995  1.00  0.00    -0.008 C 
ATOM     16  C   UNL     1      -4.764  -9.678  -5.824  1.00  0.00     0.004 C 
ATOM     17  C   UNL     1      -5.363  -9.694  -7.201  1.00  0.00     0.004 C 
ENDBRANCH   6  15
ENDBRANCH   4   5
ENDBRANCH   1   4
BRANCH   3  18
ATOM     18  C   UNL     1      -9.295 -14.692 -11.422  1.00  0.00     0.053 C 
BRANCH  18  19
ATOM     19  C   UNL     1      -7.820 -14.638 -11.120  1.00  0.00     0.074 C 
BRANCH  19  20
ATOM     20  N   UNL     1      -7.287 -14.661  -9.944  1.00  0.00    -0.313 NA
ATOM     21  H   UNL     1      -7.651 -15.439  -9.377  1.00  0.00     0.186 HD
ENDBRANCH  19  20
ENDBRANCH  18  19
ENDBRANCH   3  18
TORSDOF 6
ENDMDL
MODEL 6
REMARK VINA RESULT:    -3.676      6.858      8.395
REMARK INTER + INTRA:          -5.067
REMARK INTER:                  -4.355
REMARK INTRA:                  -0.712
REMARK UNBOUND:                -0.209
REMARK SMILES [H]/N=C\C[C@H]1C[C@@H]1O[C@H]1CO[C@H]2C[C@@H](C3CC3)CCN2C1
REMARK SMILES IDX 7 1 6 2 5 3 8 4 9 5 14 6 13 7 18 8 12 9 19 10 20 11 11 12
REMARK SMILES IDX 21 13 10 14 15 15 16 16 17 17 4 18 3 19 2 20 1 21
REMARK H PARENT
ROOT
ATOM      1  C   UNL     1      -7.665 -15.606 -12.753  1.00  0.00     0.122 C 
ATOM      2  C   UNL     1      -7.904 -16.911 -12.048  1.00  0.00     0.039 C 
ATOM      3  C   UNL     1      -7.677 -15.660 -11.250  1.00  0.00     0.026 C 
ENDROOT
BRANCH   1   4
ATOM      4  O   UNL     1      -6.374 -15.508 -13.385  1.00  0.00    -0.371 OA
BRANCH   4   5
ATOM      5  C   UNL     1      -6.253 -14.490 -14.391  1.00  0.00     0.158 C 
ATOM      6  C   UNL     1      -3.759 -10.887 -11.561  1.00  0.00    -0.003 C 
ATOM      7  C   UNL     1      -5.182 -11.455 -11.608  1.00  0.00     0.052 C 
ATOM      8  C   UNL     1      -2.760 -11.988 -11.946  1.00  0.00     0.019 C 
ATOM      9  C   UNL     1      -5.483 -12.130 -12.953  1.00  0.00     0.189 C 
ATOM     10  C   UNL     1      -3.135 -12.642 -13.276  1.00  0.00     0.087 C 
ATOM     11  N   UNL     1      -4.497 -13.174 -13.232  1.00  0.00    -0.276 NA
ATOM     12  O   UNL     1      -6.809 -12.656 -12.859  1.00  0.00    -0.360 OA
ATOM     13  C   UNL     1      -4.841 -13.881 -14.471  1.00  0.00     0.121 C 
ATOM     14  C   UNL     1      -7.219 -13.354 -14.039  1.00  0.00     0.195 C 
BRANCH   6  15
ATOM     15  C   UNL     1      -3.429 -10.326 -10.197  1.00  0.00    -0.008 C 
ATOM     16  C   UNL     1      -3.373  -8.832  -9.979  1.00  0.00     0.004 C 
ATOM     17  C   UNL     1      -4.486  -9.634  -9.369  1.00  0.00     0.004 C 
ENDBRANCH   6  15
ENDBRANCH   4   5
ENDBRANCH   1   4
BRANCH   3  18
ATOM     18  C   UNL     1      -8.821 -15.069 -10.482  1.00  0.00     0.053 C 
BRANCH  18  19
ATOM     19  C   UNL     1      -8.618 -13.674  -9.952  1.00  0.00     0.074 C 
BRANCH  19  20
ATOM     20  N   UNL     1      -8.555 -12.596 -10.661  1.00  0.00    -0.313 NA
ATOM     21  H   UNL     1      -7.811 -11.966 -10.329  1.00  0.00     0.186 HD
ENDBRANCH  19  20
ENDBRANCH  18  19
ENDBRANCH   3  18
TORSDOF 6
ENDMDL
MODEL 7
REMARK VINA RESULT:    -3.672      5.454      8.467
REMARK INTER + INTRA:          -5.062
REMARK INTER:                  -4.407
REMARK INTRA:                  -0.656
REMARK UNBOUND:                -0.209
REMARK SMILES [H]/N=C\C[C@H]1C[C@@H]1O[C@H]1CO[C@H]2C[C@@H](C3CC3)CCN2C1
REMARK SMILES IDX 7 1 6 2 5 3 8 4 9 5 14 6 13 7 18 8 12 9 19 10 20 11 11 12
REMARK SMILES IDX 21 13 10 14 15 15 16 16 17 17 4 18 3 19 2 20 1 21
REMARK H PARENT
ROOT
ATOM      1  C   UNL     1     -11.186 -15.155  -9.769  1.00  0.00     0.122 C 
ATOM      2  C   UNL     1     -11.635 -14.893 -11.179  1.00  0.00     0.039 C 
ATOM      3  C   UNL     1     -10.531 -14.070 -10.580  1.00  0.00     0.026 C 
ENDROOT
BRANCH   1   4
ATOM      4  O   UNL     1     -12.126 -14.730  -8.764  1.00  0.00    -0.371 OA
BRANCH   4   5
ATOM      5  C   UNL     1     -11.976 -15.346  -7.475  1.00  0.00     0.158 C 
ATOM      6  C   UNL     1      -9.255 -11.570  -5.118  1.00  0.00    -0.003 C 
ATOM      7  C   UNL     1      -8.968 -12.620  -6.199  1.00  0.00     0.052 C 
ATOM      8  C   UNL     1     -10.724 -11.133  -5.213  1.00  0.00     0.019 C 
ATOM      9  C   UNL     1      -9.972 -13.780  -6.148  1.00  0.00     0.189 C 
ATOM     10  C   UNL     1     -11.667 -12.335  -5.191  1.00  0.00     0.087 C 
ATOM     11  N   UNL     1     -11.341 -13.277  -6.261  1.00  0.00    -0.276 NA
ATOM     12  O   UNL     1      -9.633 -14.661  -7.221  1.00  0.00    -0.360 OA
ATOM     13  C   UNL     1     -12.291 -14.393  -6.307  1.00  0.00     0.121 C 
ATOM     14  C   UNL     1     -10.515 -15.783  -7.323  1.00  0.00     0.195 C 
BRANCH   6  15
ATOM     15  C   UNL     1      -8.336 -10.377  -5.246  1.00  0.00    -0.008 C 
ATOM     16  C   UNL     1      -7.187 -10.191  -4.284  1.00  0.00     0.004 C 
ATOM     17  C   UNL     1      -6.912 -10.544  -5.716  1.00  0.00     0.004 C 
ENDBRANCH   6  15
ENDBRANCH   4   5
ENDBRANCH   1   4
BRANCH   3  18
ATOM     18  C   UNL     1      -9.132 -14.248 -11.091  1.00  0.00     0.053 C 
BRANCH  18  19
ATOM     19  C   UNL     1      -8.027 -13.759 -10.192  1.00  0.00     0.074 C 
BRANCH  19  20
ATOM     20  N   UNL     1      -7.556 -14.381  -9.163  1.00  0.00    -0.313 NA
ATOM     21  H   UNL     1      -6.528 -14.339  -9.131  1.00  0.00     0.186 HD
ENDBRANCH  19  20
ENDBRANCH  18  19
ENDBRANCH   3  18
TORSDOF 6
ENDMDL
MODEL 8
REMARK VINA RESULT:    -3.571      4.045      6.726
REMARK INTER + INTRA:          -4.928
REMARK INTER:                  -4.698
REMARK INTRA:                  -0.230
REMARK UNBOUND:                -0.209
REMARK SMILES [H]/N=C\C[C@H]1C[C@@H]1O[C@H]1CO[C@H]2C[C@@H](C3CC3)CCN2C1
REMARK SMILES IDX 7 1 6 2 5 3 8 4 9 5 14 6 13 7 18 8 12 9 19 10 20 11 11 12
REMARK SMILES IDX 21 13 10 14 15 15 16 16 17 17 4 18 3 19 2 20 1 21
REMARK H PARENT
ROOT
ATOM      1  C   UNL     1     -12.309 -13.336  -8.465  1.00  0.00     0.122 C 
ATOM      2  C   UNL     1     -13.431 -12.336  -8.445  1.00  0.00     0.039 C 
ATOM      3  C   UNL     1     -12.822 -12.753  -9.753  1.00  0.00     0.026 C 
ENDROOT
BRANCH   1   4
ATOM      4  O   UNL     1     -11.055 -12.821  -7.979  1.00  0.00    -0.371 OA
BRANCH   4   5
ATOM      5  C   UNL     1     -10.421 -13.601  -6.952  1.00  0.00     0.158 C 
ATOM      6  C   UNL     1      -6.531 -10.332  -5.773  1.00  0.00    -0.003 C 
ATOM      7  C   UNL     1      -6.872 -11.254  -6.950  1.00  0.00     0.052 C 
ATOM      8  C   UNL     1      -7.830  -9.792  -5.159  1.00  0.00     0.019 C 
ATOM      9  C   UNL     1      -7.874 -12.345  -6.548  1.00  0.00     0.189 C 
ATOM     10  C   UNL     1      -8.796 -10.925  -4.812  1.00  0.00     0.087 C 
ATOM     11  N   UNL     1      -9.085 -11.745  -5.989  1.00  0.00    -0.276 NA
ATOM     12  O   UNL     1      -8.146 -13.105  -7.727  1.00  0.00    -0.360 OA
ATOM     13  C   UNL     1     -10.079 -12.783  -5.693  1.00  0.00     0.121 C 
ATOM     14  C   UNL     1      -9.104 -14.147  -7.513  1.00  0.00     0.195 C 
BRANCH   6  15
ATOM     15  C   UNL     1      -5.634  -9.193  -6.203  1.00  0.00    -0.008 C 
ATOM     16  C   UNL     1      -4.166  -9.201  -5.847  1.00  0.00     0.004 C 
ATOM     17  C   UNL     1      -4.590  -9.393  -7.275  1.00  0.00     0.004 C 
ENDBRANCH   6  15
ENDBRANCH   4   5
ENDBRANCH   1   4
BRANCH   3  18
ATOM     18  C   UNL     1     -13.630 -13.595 -10.695  1.00  0.00     0.053 C 
BRANCH  18  19
ATOM     19  C   UNL     1     -13.025 -13.844 -12.052  1.00  0.00     0.074 C 
BRANCH  19  20
ATOM     20  N   UNL     1     -11.844 -13.486 -12.432  1.00  0.00    -0.313 NA
ATOM     21  H   UNL     1     -11.181 -13.466 -11.644  1.00  0.00     0.186 HD
ENDBRANCH  19  20
ENDBRANCH  18  19
ENDBRANCH   3  18
TORSDOF 6
ENDMDL
MODEL 9
REMARK VINA RESULT:    -3.525      6.766      8.908
REMARK INTER + INTRA:          -4.868
REMARK INTER:                  -4.616
REMARK INTRA:                  -0.252
REMARK UNBOUND:                -0.209
REMARK SMILES [H]/N=C\C[C@H]1C[C@@H]1O[C@H]1CO[C@H]2C[C@@H](C3CC3)CCN2C1
REMARK SMILES IDX 7 1 6 2 5 3 8 4 9 5 14 6 13 7 18 8 12 9 19 10 20 11 11 12
REMARK SMILES IDX 21 13 10 14 15 15 16 16 17 17 4 18 3 19 2 20 1 21
REMARK H PARENT
ROOT
ATOM      1  C   UNL     1      -8.511 -13.817  -8.111  1.00  0.00     0.122 C 
ATOM      2  C   UNL     1      -7.947 -14.599  -6.958  1.00  0.00     0.039 C 
ATOM      3  C   UNL     1      -8.313 -13.154  -6.774  1.00  0.00     0.026 C 
ENDROOT
BRANCH   1   4
ATOM      4  O   UNL     1      -7.547 -13.503  -9.134  1.00  0.00    -0.371 OA
BRANCH   4   5
ATOM      5  C   UNL     1      -8.051 -13.503 -10.480  1.00  0.00     0.158 C 
ATOM      6  C   UNL     1      -3.753 -15.161 -12.926  1.00  0.00    -0.003 C 
ATOM      7  C   UNL     1      -4.193 -13.863 -12.237  1.00  0.00     0.052 C 
ATOM      8  C   UNL     1      -4.412 -16.357 -12.224  1.00  0.00     0.019 C 
ATOM      9  C   UNL     1      -5.721 -13.763 -12.133  1.00  0.00     0.189 C 
ATOM     10  C   UNL     1      -5.927 -16.179 -12.123  1.00  0.00     0.087 C 
ATOM     11  N   UNL     1      -6.263 -14.931 -11.438  1.00  0.00    -0.276 NA
ATOM     12  O   UNL     1      -6.005 -12.547 -11.438  1.00  0.00    -0.360 OA
ATOM     13  C   UNL     1      -7.712 -14.788 -11.255  1.00  0.00     0.121 C 
ATOM     14  C   UNL     1      -7.404 -12.334 -11.230  1.00  0.00     0.195 C 
BRANCH   6  15
ATOM     15  C   UNL     1      -2.248 -15.307 -12.924  1.00  0.00    -0.008 C 
ATOM     16  C   UNL     1      -1.506 -15.582 -14.210  1.00  0.00     0.004 C 
ATOM     17  C   UNL     1      -1.367 -14.247 -13.538  1.00  0.00     0.004 C 
ENDBRANCH   6  15
ENDBRANCH   4   5
ENDBRANCH   1   4
BRANCH   3  18
ATOM     18  C   UNL     1      -9.496 -12.807  -5.921  1.00  0.00     0.053 C 
BRANCH  18  19
ATOM     19  C   UNL     1      -9.528 -11.408  -5.364  1.00  0.00     0.074 C 
BRANCH  19  20
ATOM     20  N   UNL     1      -8.500 -10.662  -5.131  1.00  0.00    -0.313 NA
ATOM     21  H   UNL     1      -8.760  -9.805  -4.622  1.00  0.00     0.186 HD
ENDBRANCH  19  20
ENDBRANCH  18  19
ENDBRANCH   3  18
TORSDOF 6
ENDMDL
