MODEL 1
REMARK VINA RESULT:    -5.982      0.000      0.000
REMARK INTER + INTRA:          -7.399
REMARK INTER:                  -7.031
REMARK INTRA:                  -0.368
REMARK UNBOUND:                -0.368
REMARK SMILES Cc1ccc(CNC(=O)NC(=O)c2ccc(C)cc2)cc1
REMARK SMILES IDX 11 1 12 2 10 3 8 4 9 5 7 6 13 9 19 10 18 11 14 12 16 13
REMARK SMILES IDX 15 14 17 15 6 16 5 17 4 18 20 19 3 20 21 21 2 22 1 23
REMARK H PARENT 10 7 7 8
ROOT
ATOM      1  C   UNL     1      -4.115  -8.191  -6.266  1.00  0.00     0.259 C 
ATOM      2  O   UNL     1      -3.605  -7.827  -7.317  1.00  0.00    -0.269 OA
ATOM      3  N   UNL     1      -5.186  -9.070  -6.071  1.00  0.00    -0.274 N 
ATOM      4  C   UNL     1      -5.888  -9.990  -6.806  1.00  0.00     0.321 C 
ATOM      5  O   UNL     1      -6.714 -10.690  -6.210  1.00  0.00    -0.248 OA
ATOM      6  N   UNL     1      -5.703 -10.187  -8.125  1.00  0.00    -0.334 N 
ATOM      7  H   UNL     1      -5.446  -9.201  -5.103  1.00  0.00     0.175 HD
ATOM      8  H   UNL     1      -6.236 -10.959  -8.499  1.00  0.00     0.165 HD
ENDROOT
BRANCH   1   9
ATOM      9  C   UNL     1      -3.534  -7.643  -5.025  1.00  0.00     0.040 A 
ATOM     10  C   UNL     1      -4.126  -6.570  -4.356  1.00  0.00     0.014 A 
ATOM     11  C   UNL     1      -3.569  -6.121  -3.158  1.00  0.00     0.004 A 
ATOM     12  C   UNL     1      -2.362  -8.227  -4.536  1.00  0.00     0.014 A 
ATOM     13  C   UNL     1      -2.422  -6.734  -2.632  1.00  0.00    -0.051 A 
ATOM     14  C   UNL     1      -1.813  -7.780  -3.335  1.00  0.00     0.004 A 
ATOM     15  C   UNL     1      -1.886  -6.295  -1.301  1.00  0.00     0.044 C 
ENDBRANCH   1   9
BRANCH   6  16
ATOM     16  C   UNL     1      -4.733  -9.560  -8.976  1.00  0.00     0.153 C 
BRANCH  16  17
ATOM     17  C   UNL     1      -4.433 -10.228 -10.289  1.00  0.00    -0.029 A 
ATOM     18  C   UNL     1      -3.136 -10.546 -10.706  1.00  0.00     0.006 A 
ATOM     19  C   UNL     1      -5.522 -10.736 -11.016  1.00  0.00     0.006 A 
ATOM     20  C   UNL     1      -2.940 -11.376 -11.814  1.00  0.00     0.004 A 
ATOM     21  C   UNL     1      -5.326 -11.565 -12.116  1.00  0.00     0.004 A 
ATOM     22  C   UNL     1      -4.032 -11.901 -12.519  1.00  0.00    -0.051 A 
ATOM     23  C   UNL     1      -3.833 -12.903 -13.616  1.00  0.00     0.044 C 
ENDBRANCH  16  17
ENDBRANCH   6  16
TORSDOF 3
ENDMDL
MODEL 2
REMARK VINA RESULT:    -5.966      3.272      5.527
REMARK INTER + INTRA:          -7.381
REMARK INTER:                  -7.016
REMARK INTRA:                  -0.364
REMARK UNBOUND:                -0.368
REMARK SMILES Cc1ccc(CNC(=O)NC(=O)c2ccc(C)cc2)cc1
REMARK SMILES IDX 11 1 12 2 10 3 8 4 9 5 7 6 13 9 19 10 18 11 14 12 16 13
REMARK SMILES IDX 15 14 17 15 6 16 5 17 4 18 20 19 3 20 21 21 2 22 1 23
REMARK H PARENT 10 7 7 8
ROOT
ATOM      1  C   UNL     1      -4.526  -8.064  -6.039  1.00  0.00     0.259 C 
ATOM      2  O   UNL     1      -5.069  -8.436  -5.008  1.00  0.00    -0.269 OA
ATOM      3  N   UNL     1      -4.495  -8.694  -7.288  1.00  0.00    -0.274 N 
ATOM      4  C   UNL     1      -5.153  -9.714  -7.925  1.00  0.00     0.321 C 
ATOM      5  O   UNL     1      -4.917  -9.888  -9.125  1.00  0.00    -0.248 OA
ATOM      6  N   UNL     1      -6.057 -10.508  -7.321  1.00  0.00    -0.334 N 
ATOM      7  H   UNL     1      -3.959  -8.201  -7.990  1.00  0.00     0.175 HD
ATOM      8  H   UNL     1      -6.515 -11.154  -7.948  1.00  0.00     0.165 HD
ENDROOT
BRANCH   1   9
ATOM      9  C   UNL     1      -3.806  -6.778  -5.981  1.00  0.00     0.040 A 
ATOM     10  C   UNL     1      -2.415  -6.726  -5.882  1.00  0.00     0.014 A 
ATOM     11  C   UNL     1      -1.775  -5.486  -5.883  1.00  0.00     0.004 A 
ATOM     12  C   UNL     1      -4.560  -5.601  -6.020  1.00  0.00     0.014 A 
ATOM     13  C   UNL     1      -2.519  -4.300  -5.974  1.00  0.00    -0.051 A 
ATOM     14  C   UNL     1      -3.917  -4.365  -6.027  1.00  0.00     0.004 A 
ATOM     15  C   UNL     1      -1.812  -2.979  -6.059  1.00  0.00     0.044 C 
ENDBRANCH   1   9
BRANCH   6  16
ATOM     16  C   UNL     1      -6.549 -10.410  -5.976  1.00  0.00     0.153 C 
BRANCH  16  17
ATOM     17  C   UNL     1      -7.809 -11.161  -5.646  1.00  0.00    -0.029 A 
ATOM     18  C   UNL     1      -8.903 -10.571  -5.003  1.00  0.00     0.006 A 
ATOM     19  C   UNL     1      -7.958 -12.443  -6.199  1.00  0.00     0.006 A 
ATOM     20  C   UNL     1     -10.126 -11.247  -4.941  1.00  0.00     0.004 A 
ATOM     21  C   UNL     1      -9.177 -13.112  -6.141  1.00  0.00     0.004 A 
ATOM     22  C   UNL     1     -10.275 -12.515  -5.520  1.00  0.00    -0.051 A 
ATOM     23  C   UNL     1     -11.616 -13.182  -5.582  1.00  0.00     0.044 C 
ENDBRANCH  16  17
ENDBRANCH   6  16
TORSDOF 3
ENDMDL
MODEL 3
REMARK VINA RESULT:    -5.928      3.159      7.336
REMARK INTER + INTRA:          -7.336
REMARK INTER:                  -6.859
REMARK INTRA:                  -0.477
REMARK UNBOUND:                -0.368
REMARK SMILES Cc1ccc(CNC(=O)NC(=O)c2ccc(C)cc2)cc1
REMARK SMILES IDX 11 1 12 2 10 3 8 4 9 5 7 6 13 9 19 10 18 11 14 12 16 13
REMARK SMILES IDX 15 14 17 15 6 16 5 17 4 18 20 19 3 20 21 21 2 22 1 23
REMARK H PARENT 10 7 7 8
ROOT
ATOM      1  C   UNL     1      -6.635 -10.020  -5.988  1.00  0.00     0.259 C 
ATOM      2  O   UNL     1      -6.282  -9.322  -5.048  1.00  0.00    -0.269 OA
ATOM      3  N   UNL     1      -6.072 -10.119  -7.264  1.00  0.00    -0.274 N 
ATOM      4  C   UNL     1      -4.909  -9.751  -7.890  1.00  0.00     0.321 C 
ATOM      5  O   UNL     1      -4.726 -10.156  -9.043  1.00  0.00    -0.248 OA
ATOM      6  N   UNL     1      -3.954  -9.004  -7.306  1.00  0.00    -0.334 N 
ATOM      7  H   UNL     1      -6.556 -10.755  -7.885  1.00  0.00     0.175 HD
ATOM      8  H   UNL     1      -3.123  -8.893  -7.869  1.00  0.00     0.165 HD
ENDROOT
BRANCH   1   9
ATOM      9  C   UNL     1      -7.808 -10.887  -5.763  1.00  0.00     0.040 A 
ATOM     10  C   UNL     1      -8.927 -10.430  -5.064  1.00  0.00     0.014 A 
ATOM     11  C   UNL     1     -10.033 -11.268  -4.922  1.00  0.00     0.004 A 
ATOM     12  C   UNL     1      -7.767 -12.191  -6.266  1.00  0.00     0.014 A 
ATOM     13  C   UNL     1     -10.023 -12.561  -5.468  1.00  0.00    -0.051 A 
ATOM     14  C   UNL     1      -8.877 -13.022  -6.128  1.00  0.00     0.004 A 
ATOM     15  C   UNL     1     -11.251 -13.418  -5.381  1.00  0.00     0.044 C 
ENDBRANCH   1   9
BRANCH   6  16
ATOM     16  C   UNL     1      -3.922  -8.524  -5.954  1.00  0.00     0.153 C 
BRANCH  16  17
ATOM     17  C   UNL     1      -3.433  -7.120  -5.731  1.00  0.00    -0.029 A 
ATOM     18  C   UNL     1      -2.084  -6.803  -5.535  1.00  0.00     0.006 A 
ATOM     19  C   UNL     1      -4.350  -6.078  -5.942  1.00  0.00     0.006 A 
ATOM     20  C   UNL     1      -1.665  -5.469  -5.575  1.00  0.00     0.004 A 
ATOM     21  C   UNL     1      -3.931  -4.752  -5.987  1.00  0.00     0.004 A 
ATOM     22  C   UNL     1      -2.583  -4.436  -5.814  1.00  0.00    -0.051 A 
ATOM     23  C   UNL     1      -2.121  -3.022  -6.000  1.00  0.00     0.044 C 
ENDBRANCH  16  17
ENDBRANCH   6  16
TORSDOF 3
ENDMDL
MODEL 4
REMARK VINA RESULT:    -5.923      0.518      8.068
REMARK INTER + INTRA:          -7.329
REMARK INTER:                  -6.850
REMARK INTRA:                  -0.479
REMARK UNBOUND:                -0.368
REMARK SMILES Cc1ccc(CNC(=O)NC(=O)c2ccc(C)cc2)cc1
REMARK SMILES IDX 11 1 12 2 10 3 8 4 9 5 7 6 13 9 19 10 18 11 14 12 16 13
REMARK SMILES IDX 15 14 17 15 6 16 5 17 4 18 20 19 3 20 21 21 2 22 1 23
REMARK H PARENT 10 7 7 8
ROOT
ATOM      1  C   UNL     1      -4.383  -9.659  -8.733  1.00  0.00     0.259 C 
ATOM      2  O   UNL     1      -3.602  -8.741  -8.528  1.00  0.00    -0.269 OA
ATOM      3  N   UNL     1      -5.376 -10.168  -7.890  1.00  0.00    -0.274 N 
ATOM      4  C   UNL     1      -6.021  -9.791  -6.740  1.00  0.00     0.321 C 
ATOM      5  O   UNL     1      -6.974 -10.481  -6.364  1.00  0.00    -0.248 OA
ATOM      6  N   UNL     1      -5.689  -8.700  -6.025  1.00  0.00    -0.334 N 
ATOM      7  H   UNL     1      -5.887 -10.952  -8.274  1.00  0.00     0.175 HD
ATOM      8  H   UNL     1      -6.314  -8.513  -5.254  1.00  0.00     0.165 HD
ENDROOT
BRANCH   1   9
ATOM      9  C   UNL     1      -4.284 -10.331 -10.043  1.00  0.00     0.040 A 
ATOM     10  C   UNL     1      -3.047 -10.621 -10.621  1.00  0.00     0.014 A 
ATOM     11  C   UNL     1      -3.003 -11.304 -11.837  1.00  0.00     0.004 A 
ATOM     12  C   UNL     1      -5.472 -10.665 -10.701  1.00  0.00     0.014 A 
ATOM     13  C   UNL     1      -4.189 -11.690 -12.480  1.00  0.00    -0.051 A 
ATOM     14  C   UNL     1      -5.423 -11.353 -11.912  1.00  0.00     0.004 A 
ATOM     15  C   UNL     1      -4.124 -12.498 -13.743  1.00  0.00     0.044 C 
ENDBRANCH   1   9
BRANCH   6  16
ATOM     16  C   UNL     1      -4.691  -7.716  -6.339  1.00  0.00     0.153 C 
BRANCH  16  17
ATOM     17  C   UNL     1      -3.837  -7.214  -5.209  1.00  0.00    -0.029 A 
ATOM     18  C   UNL     1      -4.194  -6.123  -4.409  1.00  0.00     0.006 A 
ATOM     19  C   UNL     1      -2.748  -8.011  -4.822  1.00  0.00     0.006 A 
ATOM     20  C   UNL     1      -3.485  -5.856  -3.233  1.00  0.00     0.004 A 
ATOM     21  C   UNL     1      -2.047  -7.748  -3.649  1.00  0.00     0.004 A 
ATOM     22  C   UNL     1      -2.417  -6.673  -2.839  1.00  0.00    -0.051 A 
ATOM     23  C   UNL     1      -1.746  -6.479  -1.512  1.00  0.00     0.044 C 
ENDBRANCH  16  17
ENDBRANCH   6  16
TORSDOF 3
ENDMDL
MODEL 5
REMARK VINA RESULT:    -5.683      3.010      7.660
REMARK INTER + INTRA:          -7.047
REMARK INTER:                  -6.559
REMARK INTRA:                  -0.488
REMARK UNBOUND:                -0.368
REMARK SMILES Cc1ccc(CNC(=O)NC(=O)c2ccc(C)cc2)cc1
REMARK SMILES IDX 11 1 12 2 10 3 8 4 9 5 7 6 13 9 19 10 18 11 14 12 16 13
REMARK SMILES IDX 15 14 17 15 6 16 5 17 4 18 20 19 3 20 21 21 2 22 1 23
REMARK H PARENT 10 7 7 8
ROOT
ATOM      1  C   UNL     1      -6.702 -10.479  -5.835  1.00  0.00     0.259 C 
ATOM      2  O   UNL     1      -6.185 -10.163  -4.773  1.00  0.00    -0.269 OA
ATOM      3  N   UNL     1      -6.256 -10.223  -7.136  1.00  0.00    -0.274 N 
ATOM      4  C   UNL     1      -5.102  -9.803  -7.747  1.00  0.00     0.321 C 
ATOM      5  O   UNL     1      -5.064  -9.832  -8.982  1.00  0.00    -0.248 OA
ATOM      6  N   UNL     1      -4.010  -9.394  -7.074  1.00  0.00    -0.334 N 
ATOM      7  H   UNL     1      -6.869 -10.567  -7.863  1.00  0.00     0.175 HD
ATOM      8  H   UNL     1      -3.216  -9.200  -7.668  1.00  0.00     0.165 HD
ENDROOT
BRANCH   1   9
ATOM      9  C   UNL     1      -7.965 -11.237  -5.756  1.00  0.00     0.040 A 
ATOM     10  C   UNL     1      -8.075 -12.526  -6.281  1.00  0.00     0.014 A 
ATOM     11  C   UNL     1      -9.275 -13.224  -6.136  1.00  0.00     0.004 A 
ATOM     12  C   UNL     1      -9.062 -10.623  -5.143  1.00  0.00     0.014 A 
ATOM     13  C   UNL     1     -10.365 -12.637  -5.476  1.00  0.00    -0.051 A 
ATOM     14  C   UNL     1     -10.256 -11.326  -4.994  1.00  0.00     0.004 A 
ATOM     15  C   UNL     1     -11.618 -13.430  -5.254  1.00  0.00     0.044 C 
ENDBRANCH   1   9
BRANCH   6  16
ATOM     16  C   UNL     1      -3.810  -9.381  -5.653  1.00  0.00     0.153 C 
BRANCH  16  17
ATOM     17  C   UNL     1      -3.350  -8.091  -5.032  1.00  0.00    -0.029 A 
ATOM     18  C   UNL     1      -2.180  -7.984  -4.274  1.00  0.00     0.006 A 
ATOM     19  C   UNL     1      -4.022  -6.918  -5.414  1.00  0.00     0.006 A 
ATOM     20  C   UNL     1      -1.682  -6.722  -3.930  1.00  0.00     0.004 A 
ATOM     21  C   UNL     1      -3.523  -5.665  -5.075  1.00  0.00     0.004 A 
ATOM     22  C   UNL     1      -2.342  -5.555  -4.339  1.00  0.00    -0.051 A 
ATOM     23  C   UNL     1      -1.741  -4.203  -4.097  1.00  0.00     0.044 C 
ENDBRANCH  16  17
ENDBRANCH   6  16
TORSDOF 3
ENDMDL
MODEL 6
REMARK VINA RESULT:    -4.555      2.511      3.912
REMARK INTER + INTRA:          -5.722
REMARK INTER:                  -5.372
REMARK INTRA:                  -0.350
REMARK UNBOUND:                -0.368
REMARK SMILES Cc1ccc(CNC(=O)NC(=O)c2ccc(C)cc2)cc1
REMARK SMILES IDX 11 1 12 2 10 3 8 4 9 5 7 6 13 9 19 10 18 11 14 12 16 13
REMARK SMILES IDX 15 14 17 15 6 16 5 17 4 18 20 19 3 20 21 21 2 22 1 23
REMARK H PARENT 10 7 7 8
ROOT
ATOM      1  C   UNL     1      -4.825  -9.698  -8.170  1.00  0.00     0.259 C 
ATOM      2  O   UNL     1      -5.883 -10.307  -8.099  1.00  0.00    -0.269 OA
ATOM      3  N   UNL     1      -3.862  -9.731  -9.184  1.00  0.00    -0.274 N 
ATOM      4  C   UNL     1      -3.768 -10.174 -10.478  1.00  0.00     0.321 C 
ATOM      5  O   UNL     1      -2.746  -9.886 -11.110  1.00  0.00    -0.248 OA
ATOM      6  N   UNL     1      -4.736 -10.875 -11.097  1.00  0.00    -0.334 N 
ATOM      7  H   UNL     1      -3.052  -9.152  -9.008  1.00  0.00     0.175 HD
ATOM      8  H   UNL     1      -4.550 -11.051 -12.074  1.00  0.00     0.165 HD
ENDROOT
BRANCH   1   9
ATOM      9  C   UNL     1      -4.505  -8.798  -7.046  1.00  0.00     0.040 A 
ATOM     10  C   UNL     1      -3.783  -9.245  -5.937  1.00  0.00     0.014 A 
ATOM     11  C   UNL     1      -3.459  -8.344  -4.923  1.00  0.00     0.004 A 
ATOM     12  C   UNL     1      -4.953  -7.475  -7.116  1.00  0.00     0.014 A 
ATOM     13  C   UNL     1      -3.859  -7.002  -5.008  1.00  0.00    -0.051 A 
ATOM     14  C   UNL     1      -4.621  -6.577  -6.103  1.00  0.00     0.004 A 
ATOM     15  C   UNL     1      -3.431  -6.026  -3.952  1.00  0.00     0.044 C 
ENDBRANCH   1   9
BRANCH   6  16
ATOM     16  C   UNL     1      -6.031 -11.222 -10.583  1.00  0.00     0.153 C 
BRANCH  16  17
ATOM     17  C   UNL     1      -7.075 -11.650 -11.576  1.00  0.00    -0.029 A 
ATOM     18  C   UNL     1      -7.250 -11.028 -12.817  1.00  0.00     0.006 A 
ATOM     19  C   UNL     1      -7.750 -12.855 -11.321  1.00  0.00     0.006 A 
ATOM     20  C   UNL     1      -8.066 -11.618 -13.787  1.00  0.00     0.004 A 
ATOM     21  C   UNL     1      -8.558 -13.444 -12.289  1.00  0.00     0.004 A 
ATOM     22  C   UNL     1      -8.715 -12.835 -13.535  1.00  0.00    -0.051 A 
ATOM     23  C   UNL     1      -9.474 -13.544 -14.617  1.00  0.00     0.044 C 
ENDBRANCH  16  17
ENDBRANCH   6  16
TORSDOF 3
ENDMDL
MODEL 7
REMARK VINA RESULT:    -4.554      2.248      3.850
REMARK INTER + INTRA:          -5.720
REMARK INTER:                  -5.284
REMARK INTRA:                  -0.436
REMARK UNBOUND:                -0.368
REMARK SMILES Cc1ccc(CNC(=O)NC(=O)c2ccc(C)cc2)cc1
REMARK SMILES IDX 11 1 12 2 10 3 8 4 9 5 7 6 13 9 19 10 18 11 14 12 16 13
REMARK SMILES IDX 15 14 17 15 6 16 5 17 4 18 20 19 3 20 21 21 2 22 1 23
REMARK H PARENT 10 7 7 8
ROOT
ATOM      1  C   UNL     1      -4.358  -9.677  -9.346  1.00  0.00     0.259 C 
ATOM      2  O   UNL     1      -3.335  -9.548 -10.003  1.00  0.00    -0.269 OA
ATOM      3  N   UNL     1      -5.539 -10.344  -9.687  1.00  0.00    -0.274 N 
ATOM      4  C   UNL     1      -5.958 -11.239 -10.638  1.00  0.00     0.321 C 
ATOM      5  O   UNL     1      -7.093 -11.713 -10.518  1.00  0.00    -0.248 OA
ATOM      6  N   UNL     1      -5.192 -11.647 -11.666  1.00  0.00    -0.334 N 
ATOM      7  H   UNL     1      -6.263 -10.296  -8.984  1.00  0.00     0.175 HD
ATOM      8  H   UNL     1      -5.616 -12.372 -12.227  1.00  0.00     0.165 HD
ENDROOT
BRANCH   1   9
ATOM      9  C   UNL     1      -4.367  -9.055  -8.008  1.00  0.00     0.040 A 
ATOM     10  C   UNL     1      -3.871  -9.728  -6.890  1.00  0.00     0.014 A 
ATOM     11  C   UNL     1      -3.852  -9.080  -5.655  1.00  0.00     0.004 A 
ATOM     12  C   UNL     1      -4.895  -7.767  -7.886  1.00  0.00     0.014 A 
ATOM     13  C   UNL     1      -4.332  -7.768  -5.531  1.00  0.00    -0.051 A 
ATOM     14  C   UNL     1      -4.868  -7.120  -6.651  1.00  0.00     0.004 A 
ATOM     15  C   UNL     1      -4.227  -7.054  -4.215  1.00  0.00     0.044 C 
ENDBRANCH   1   9
BRANCH   6  16
ATOM     16  C   UNL     1      -3.823 -11.303 -11.929  1.00  0.00     0.153 C 
BRANCH  16  17
ATOM     17  C   UNL     1      -2.913 -12.404 -12.399  1.00  0.00    -0.029 A 
ATOM     18  C   UNL     1      -2.391 -13.380 -11.543  1.00  0.00     0.006 A 
ATOM     19  C   UNL     1      -2.763 -12.566 -13.785  1.00  0.00     0.006 A 
ATOM     20  C   UNL     1      -1.754 -14.507 -12.074  1.00  0.00     0.004 A 
ATOM     21  C   UNL     1      -2.134 -13.690 -14.312  1.00  0.00     0.004 A 
ATOM     22  C   UNL     1      -1.632 -14.676 -13.460  1.00  0.00    -0.051 A 
ATOM     23  C   UNL     1      -1.080 -15.944 -14.037  1.00  0.00     0.044 C 
ENDBRANCH  16  17
ENDBRANCH   6  16
TORSDOF 3
ENDMDL
MODEL 8
REMARK VINA RESULT:    -4.361      5.958      9.776
REMARK INTER + INTRA:          -5.494
REMARK INTER:                  -5.190
REMARK INTRA:                  -0.304
REMARK UNBOUND:                -0.368
REMARK SMILES Cc1ccc(CNC(=O)NC(=O)c2ccc(C)cc2)cc1
REMARK SMILES IDX 11 1 12 2 10 3 8 4 9 5 7 6 13 9 19 10 18 11 14 12 16 13
REMARK SMILES IDX 15 14 17 15 6 16 5 17 4 18 20 19 3 20 21 21 2 22 1 23
REMARK H PARENT 10 7 7 8
ROOT
ATOM      1  C   UNL     1      -8.082 -13.833  -9.197  1.00  0.00     0.259 C 
ATOM      2  O   UNL     1      -7.608 -12.907  -8.556  1.00  0.00    -0.269 OA
ATOM      3  N   UNL     1      -8.456 -15.106  -8.752  1.00  0.00    -0.274 N 
ATOM      4  C   UNL     1      -8.680 -15.734  -7.555  1.00  0.00     0.321 C 
ATOM      5  O   UNL     1      -9.146 -16.878  -7.586  1.00  0.00    -0.248 OA
ATOM      6  N   UNL     1      -8.448 -15.162  -6.359  1.00  0.00    -0.334 N 
ATOM      7  H   UNL     1      -8.807 -15.715  -9.479  1.00  0.00     0.175 HD
ATOM      8  H   UNL     1      -8.746 -15.724  -5.574  1.00  0.00     0.165 HD
ENDROOT
BRANCH   1   9
ATOM      9  C   UNL     1      -8.303 -13.596 -10.637  1.00  0.00     0.040 A 
ATOM     10  C   UNL     1      -7.603 -12.604 -11.327  1.00  0.00     0.014 A 
ATOM     11  C   UNL     1      -7.807 -12.451 -12.698  1.00  0.00     0.004 A 
ATOM     12  C   UNL     1      -9.244 -14.392 -11.298  1.00  0.00     0.014 A 
ATOM     13  C   UNL     1      -8.711 -13.279 -13.381  1.00  0.00    -0.051 A 
ATOM     14  C   UNL     1      -9.439 -14.240 -12.669  1.00  0.00     0.004 A 
ATOM     15  C   UNL     1      -8.856 -13.160 -14.869  1.00  0.00     0.044 C 
ENDBRANCH   1   9
BRANCH   6  16
ATOM     16  C   UNL     1      -8.011 -13.819  -6.100  1.00  0.00     0.153 C 
BRANCH  16  17
ATOM     17  C   UNL     1      -9.069 -12.796  -5.797  1.00  0.00    -0.029 A 
ATOM     18  C   UNL     1      -8.774 -11.487  -5.400  1.00  0.00     0.006 A 
ATOM     19  C   UNL     1     -10.394 -13.120  -6.133  1.00  0.00     0.006 A 
ATOM     20  C   UNL     1      -9.786 -10.521  -5.367  1.00  0.00     0.004 A 
ATOM     21  C   UNL     1     -11.397 -12.157  -6.105  1.00  0.00     0.004 A 
ATOM     22  C   UNL     1     -11.100 -10.846  -5.731  1.00  0.00    -0.051 A 
ATOM     23  C   UNL     1     -12.156  -9.786  -5.835  1.00  0.00     0.044 C 
ENDBRANCH  16  17
ENDBRANCH   6  16
TORSDOF 3
ENDMDL
MODEL 9
REMARK VINA RESULT:    -4.355      6.136     10.662
REMARK INTER + INTRA:          -5.487
REMARK INTER:                  -4.913
REMARK INTRA:                  -0.573
REMARK UNBOUND:                -0.368
REMARK SMILES Cc1ccc(CNC(=O)NC(=O)c2ccc(C)cc2)cc1
REMARK SMILES IDX 11 1 12 2 10 3 8 4 9 5 7 6 13 9 19 10 18 11 14 12 16 13
REMARK SMILES IDX 15 14 17 15 6 16 5 17 4 18 20 19 3 20 21 21 2 22 1 23
REMARK H PARENT 10 7 7 8
ROOT
ATOM      1  C   UNL     1     -12.017 -13.368  -8.666  1.00  0.00     0.259 C 
ATOM      2  O   UNL     1     -11.277 -14.061  -7.982  1.00  0.00    -0.269 OA
ATOM      3  N   UNL     1     -12.821 -12.293  -8.273  1.00  0.00    -0.274 N 
ATOM      4  C   UNL     1     -12.951 -11.471  -7.183  1.00  0.00     0.321 C 
ATOM      5  O   UNL     1     -13.725 -10.512  -7.277  1.00  0.00    -0.248 OA
ATOM      6  N   UNL     1     -12.263 -11.638  -6.038  1.00  0.00    -0.334 N 
ATOM      7  H   UNL     1     -13.367 -11.886  -9.020  1.00  0.00     0.175 HD
ATOM      8  H   UNL     1     -12.409 -10.899  -5.365  1.00  0.00     0.165 HD
ENDROOT
BRANCH   1   9
ATOM      9  C   UNL     1     -12.080 -13.690 -10.105  1.00  0.00     0.040 A 
ATOM     10  C   UNL     1     -13.268 -13.567 -10.826  1.00  0.00     0.014 A 
ATOM     11  C   UNL     1     -13.267 -13.832 -12.196  1.00  0.00     0.004 A 
ATOM     12  C   UNL     1     -10.910 -14.131 -10.731  1.00  0.00     0.014 A 
ATOM     13  C   UNL     1     -12.086 -14.226 -12.844  1.00  0.00    -0.051 A 
ATOM     14  C   UNL     1     -10.912 -14.389 -12.100  1.00  0.00     0.004 A 
ATOM     15  C   UNL     1     -12.082 -14.425 -14.331  1.00  0.00     0.044 C 
ENDBRANCH   1   9
BRANCH   6  16
ATOM     16  C   UNL     1     -11.249 -12.615  -5.760  1.00  0.00     0.153 C 
BRANCH  16  17
ATOM     17  C   UNL     1      -9.843 -12.116  -5.572  1.00  0.00    -0.029 A 
ATOM     18  C   UNL     1      -8.727 -12.750  -6.129  1.00  0.00     0.006 A 
ATOM     19  C   UNL     1      -9.683 -10.848  -4.990  1.00  0.00     0.006 A 
ATOM     20  C   UNL     1      -7.483 -12.110  -6.122  1.00  0.00     0.004 A 
ATOM     21  C   UNL     1      -8.446 -10.211  -4.989  1.00  0.00     0.004 A 
ATOM     22  C   UNL     1      -7.337 -10.832  -5.564  1.00  0.00    -0.051 A 
ATOM     23  C   UNL     1      -6.044 -10.083  -5.680  1.00  0.00     0.044 C 
ENDBRANCH  16  17
ENDBRANCH   6  16
TORSDOF 3
ENDMDL
