MODEL 1
REMARK VINA RESULT:    -6.175      0.000      0.000
REMARK INTER + INTRA:          -7.636
REMARK INTER:                  -7.257
REMARK INTRA:                  -0.378
REMARK UNBOUND:                -0.378
REMARK SMILES Cc1ccc(CNC(=O)NC(=O)c2ccc(C)cc2)cc1
REMARK SMILES IDX 11 1 12 2 10 3 8 4 9 5 7 6 13 9 19 10 18 11 14 12 16 13
REMARK SMILES IDX 15 14 17 15 6 16 5 17 4 18 20 19 3 20 21 21 2 22 1 23
REMARK H PARENT 10 7 7 8
ROOT
ATOM      1  C   UNL     1       6.273   5.458  -8.002  1.00  0.00     0.259 C 
ATOM      2  O   UNL     1       5.283   5.992  -8.481  1.00  0.00    -0.269 OA
ATOM      3  N   UNL     1       7.494   5.165  -8.617  1.00  0.00    -0.274 N 
ATOM      4  C   UNL     1       8.156   5.507  -9.769  1.00  0.00     0.321 C 
ATOM      5  O   UNL     1       9.325   5.127  -9.893  1.00  0.00    -0.248 OA
ATOM      6  N   UNL     1       7.611   6.254 -10.747  1.00  0.00    -0.334 N 
ATOM      7  H   UNL     1       8.161   4.697  -8.019  1.00  0.00     0.175 HD
ATOM      8  H   UNL     1       8.256   6.489 -11.487  1.00  0.00     0.165 HD
ENDROOT
BRANCH   1   9
ATOM      9  C   UNL     1       6.190   5.065  -6.582  1.00  0.00     0.040 A 
ATOM     10  C   UNL     1       5.884   3.756  -6.205  1.00  0.00     0.014 A 
ATOM     11  C   UNL     1       5.868   3.420  -4.852  1.00  0.00     0.004 A 
ATOM     12  C   UNL     1       6.420   6.047  -5.614  1.00  0.00     0.014 A 
ATOM     13  C   UNL     1       6.149   4.386  -3.874  1.00  0.00    -0.051 A 
ATOM     14  C   UNL     1       6.410   5.706  -4.263  1.00  0.00     0.004 A 
ATOM     15  C   UNL     1       6.212   3.990  -2.428  1.00  0.00     0.044 C 
ENDBRANCH   1   9
BRANCH   6  16
ATOM     16  C   UNL     1       6.317   6.877 -10.756  1.00  0.00     0.153 C 
BRANCH  16  17
ATOM     17  C   UNL     1       6.126   8.057 -11.667  1.00  0.00    -0.029 A 
ATOM     18  C   UNL     1       5.673   9.303 -11.218  1.00  0.00     0.006 A 
ATOM     19  C   UNL     1       6.627   7.949 -12.974  1.00  0.00     0.006 A 
ATOM     20  C   UNL     1       5.745  10.418 -12.059  1.00  0.00     0.004 A 
ATOM     21  C   UNL     1       6.703   9.060 -13.808  1.00  0.00     0.004 A 
ATOM     22  C   UNL     1       6.272  10.307 -13.353  1.00  0.00    -0.051 A 
ATOM     23  C   UNL     1       6.485  11.522 -14.207  1.00  0.00     0.044 C 
ENDBRANCH  16  17
ENDBRANCH   6  16
TORSDOF 3
ENDMDL
MODEL 2
REMARK VINA RESULT:    -6.146      3.258      5.569
REMARK INTER + INTRA:          -7.602
REMARK INTER:                  -7.225
REMARK INTRA:                  -0.377
REMARK UNBOUND:                -0.378
REMARK SMILES Cc1ccc(CNC(=O)NC(=O)c2ccc(C)cc2)cc1
REMARK SMILES IDX 11 1 12 2 10 3 8 4 9 5 7 6 13 9 19 10 18 11 14 12 16 13
REMARK SMILES IDX 15 14 17 15 6 16 5 17 4 18 20 19 3 20 21 21 2 22 1 23
REMARK H PARENT 10 7 7 8
ROOT
ATOM      1  C   UNL     1       6.490   5.110  -7.998  1.00  0.00     0.259 C 
ATOM      2  O   UNL     1       7.488   4.574  -7.536  1.00  0.00    -0.269 OA
ATOM      3  N   UNL     1       6.381   5.940  -9.118  1.00  0.00    -0.274 N 
ATOM      4  C   UNL     1       7.147   6.286 -10.201  1.00  0.00     0.321 C 
ATOM      5  O   UNL     1       6.621   6.979 -11.078  1.00  0.00    -0.248 OA
ATOM      6  N   UNL     1       8.422   5.886 -10.369  1.00  0.00    -0.334 N 
ATOM      7  H   UNL     1       5.446   6.284  -9.293  1.00  0.00     0.175 HD
ATOM      8  H   UNL     1       8.818   6.154 -11.259  1.00  0.00     0.165 HD
ENDROOT
BRANCH   1   9
ATOM      9  C   UNL     1       5.218   4.853  -7.296  1.00  0.00     0.040 A 
ATOM     10  C   UNL     1       4.693   5.768  -6.382  1.00  0.00     0.014 A 
ATOM     11  C   UNL     1       3.461   5.506  -5.782  1.00  0.00     0.004 A 
ATOM     12  C   UNL     1       4.548   3.655  -7.567  1.00  0.00     0.014 A 
ATOM     13  C   UNL     1       2.756   4.332  -6.086  1.00  0.00    -0.051 A 
ATOM     14  C   UNL     1       3.315   3.401  -6.970  1.00  0.00     0.004 A 
ATOM     15  C   UNL     1       1.394   4.105  -5.499  1.00  0.00     0.044 C 
ENDBRANCH   1   9
BRANCH   6  16
ATOM     16  C   UNL     1       9.180   5.002  -9.531  1.00  0.00     0.153 C 
BRANCH  16  17
ATOM     17  C   UNL     1      10.354   4.298 -10.154  1.00  0.00    -0.029 A 
ATOM     18  C   UNL     1      10.506   2.908 -10.140  1.00  0.00     0.006 A 
ATOM     19  C   UNL     1      11.212   5.067 -10.958  1.00  0.00     0.006 A 
ATOM     20  C   UNL     1      11.483   2.303 -10.937  1.00  0.00     0.004 A 
ATOM     21  C   UNL     1      12.180   4.463 -11.754  1.00  0.00     0.004 A 
ATOM     22  C   UNL     1      12.317   3.074 -11.759  1.00  0.00    -0.051 A 
ATOM     23  C   UNL     1      13.268   2.426 -12.720  1.00  0.00     0.044 C 
ENDBRANCH  16  17
ENDBRANCH   6  16
TORSDOF 3
ENDMDL
MODEL 3
REMARK VINA RESULT:    -6.033      0.557      8.017
REMARK INTER + INTRA:          -7.469
REMARK INTER:                  -6.979
REMARK INTRA:                  -0.490
REMARK UNBOUND:                -0.378
REMARK SMILES Cc1ccc(CNC(=O)NC(=O)c2ccc(C)cc2)cc1
REMARK SMILES IDX 11 1 12 2 10 3 8 4 9 5 7 6 13 9 19 10 18 11 14 12 16 13
REMARK SMILES IDX 15 14 17 15 6 16 5 17 4 18 20 19 3 20 21 21 2 22 1 23
REMARK H PARENT 10 7 7 8
ROOT
ATOM      1  C   UNL     1       6.372   7.159 -10.385  1.00  0.00     0.259 C 
ATOM      2  O   UNL     1       5.420   7.062  -9.624  1.00  0.00    -0.269 OA
ATOM      3  N   UNL     1       7.573   6.442 -10.381  1.00  0.00    -0.274 N 
ATOM      4  C   UNL     1       8.074   5.308  -9.795  1.00  0.00     0.321 C 
ATOM      5  O   UNL     1       9.186   4.915 -10.164  1.00  0.00    -0.248 OA
ATOM      6  N   UNL     1       7.408   4.592  -8.870  1.00  0.00    -0.334 N 
ATOM      7  H   UNL     1       8.225   6.716 -11.103  1.00  0.00     0.175 HD
ATOM      8  H   UNL     1       7.877   3.738  -8.602  1.00  0.00     0.165 HD
ENDROOT
BRANCH   1   9
ATOM      9  C   UNL     1       6.256   8.158 -11.464  1.00  0.00     0.040 A 
ATOM     10  C   UNL     1       5.719   9.425 -11.228  1.00  0.00     0.014 A 
ATOM     11  C   UNL     1       5.679  10.355 -12.267  1.00  0.00     0.004 A 
ATOM     12  C   UNL     1       6.695   7.799 -12.742  1.00  0.00     0.014 A 
ATOM     13  C   UNL     1       6.164  10.022 -13.541  1.00  0.00    -0.051 A 
ATOM     14  C   UNL     1       6.658   8.733 -13.776  1.00  0.00     0.004 A 
ATOM     15  C   UNL     1       6.191  11.059 -14.625  1.00  0.00     0.044 C 
ENDBRANCH   1   9
BRANCH   6  16
ATOM     16  C   UNL     1       6.076   4.813  -8.383  1.00  0.00     0.153 C 
BRANCH  16  17
ATOM     17  C   UNL     1       5.855   4.696  -6.900  1.00  0.00    -0.029 A 
ATOM     18  C   UNL     1       5.443   3.511  -6.281  1.00  0.00     0.006 A 
ATOM     19  C   UNL     1       6.285   5.766  -6.099  1.00  0.00     0.006 A 
ATOM     20  C   UNL     1       5.488   3.398  -4.887  1.00  0.00     0.004 A 
ATOM     21  C   UNL     1       6.334   5.650  -4.714  1.00  0.00     0.004 A 
ATOM     22  C   UNL     1       5.945   4.461  -4.096  1.00  0.00    -0.051 A 
ATOM     23  C   UNL     1       6.131   4.297  -2.617  1.00  0.00     0.044 C 
ENDBRANCH  16  17
ENDBRANCH   6  16
TORSDOF 3
ENDMDL
MODEL 4
REMARK VINA RESULT:    -6.006      3.140      7.297
REMARK INTER + INTRA:          -7.438
REMARK INTER:                  -6.947
REMARK INTRA:                  -0.491
REMARK UNBOUND:                -0.378
REMARK SMILES Cc1ccc(CNC(=O)NC(=O)c2ccc(C)cc2)cc1
REMARK SMILES IDX 11 1 12 2 10 3 8 4 9 5 7 6 13 9 19 10 18 11 14 12 16 13
REMARK SMILES IDX 15 14 17 15 6 16 5 17 4 18 20 19 3 20 21 21 2 22 1 23
REMARK H PARENT 10 7 7 8
ROOT
ATOM      1  C   UNL     1       8.907   4.633  -9.566  1.00  0.00     0.259 C 
ATOM      2  O   UNL     1       8.664   4.154  -8.467  1.00  0.00    -0.269 OA
ATOM      3  N   UNL     1       8.171   5.576 -10.291  1.00  0.00    -0.274 N 
ATOM      4  C   UNL     1       7.148   6.460 -10.059  1.00  0.00     0.321 C 
ATOM      5  O   UNL     1       6.856   7.249 -10.964  1.00  0.00    -0.248 OA
ATOM      6  N   UNL     1       6.475   6.530  -8.895  1.00  0.00    -0.334 N 
ATOM      7  H   UNL     1       8.563   5.806 -11.194  1.00  0.00     0.175 HD
ATOM      8  H   UNL     1       5.811   7.290  -8.855  1.00  0.00     0.165 HD
ENDROOT
BRANCH   1   9
ATOM      9  C   UNL     1      10.140   4.171 -10.231  1.00  0.00     0.040 A 
ATOM     10  C   UNL     1      10.521   2.828 -10.205  1.00  0.00     0.014 A 
ATOM     11  C   UNL     1      11.668   2.430 -10.893  1.00  0.00     0.004 A 
ATOM     12  C   UNL     1      10.928   5.122 -10.887  1.00  0.00     0.014 A 
ATOM     13  C   UNL     1      12.438   3.367 -11.598  1.00  0.00    -0.051 A 
ATOM     14  C   UNL     1      12.069   4.718 -11.578  1.00  0.00     0.004 A 
ATOM     15  C   UNL     1      13.619   2.910 -12.402  1.00  0.00     0.044 C 
ENDBRANCH   1   9
BRANCH   6  16
ATOM     16  C   UNL     1       6.722   5.784  -7.694  1.00  0.00     0.153 C 
BRANCH  16  17
ATOM     17  C   UNL     1       5.528   5.223  -6.972  1.00  0.00    -0.029 A 
ATOM     18  C   UNL     1       4.861   5.909  -5.952  1.00  0.00     0.006 A 
ATOM     19  C   UNL     1       4.947   4.059  -7.499  1.00  0.00     0.006 A 
ATOM     20  C   UNL     1       3.625   5.447  -5.489  1.00  0.00     0.004 A 
ATOM     21  C   UNL     1       3.714   3.603  -7.042  1.00  0.00     0.004 A 
ATOM     22  C   UNL     1       3.037   4.299  -6.039  1.00  0.00    -0.051 A 
ATOM     23  C   UNL     1       1.651   3.879  -5.651  1.00  0.00     0.044 C 
ENDBRANCH  16  17
ENDBRANCH   6  16
TORSDOF 3
ENDMDL
MODEL 5
REMARK VINA RESULT:    -5.708      3.014      7.632
REMARK INTER + INTRA:          -7.087
REMARK INTER:                  -6.665
REMARK INTRA:                  -0.423
REMARK UNBOUND:                -0.378
REMARK SMILES Cc1ccc(CNC(=O)NC(=O)c2ccc(C)cc2)cc1
REMARK SMILES IDX 11 1 12 2 10 3 8 4 9 5 7 6 13 9 19 10 18 11 14 12 16 13
REMARK SMILES IDX 15 14 17 15 6 16 5 17 4 18 20 19 3 20 21 21 2 22 1 23
REMARK H PARENT 10 7 7 8
ROOT
ATOM      1  C   UNL     1       9.212   4.672  -9.561  1.00  0.00     0.259 C 
ATOM      2  O   UNL     1       9.124   4.366  -8.381  1.00  0.00    -0.269 OA
ATOM      3  N   UNL     1       8.351   5.466 -10.326  1.00  0.00    -0.274 N 
ATOM      4  C   UNL     1       7.321   6.344 -10.108  1.00  0.00     0.321 C 
ATOM      5  O   UNL     1       6.886   6.971 -11.080  1.00  0.00    -0.248 OA
ATOM      6  N   UNL     1       6.786   6.578  -8.895  1.00  0.00    -0.334 N 
ATOM      7  H   UNL     1       8.622   5.561 -11.296  1.00  0.00     0.175 HD
ATOM      8  H   UNL     1       6.095   7.315  -8.890  1.00  0.00     0.165 HD
ENDROOT
BRANCH   1   9
ATOM      9  C   UNL     1      10.379   4.147 -10.295  1.00  0.00     0.040 A 
ATOM     10  C   UNL     1      10.686   2.785 -10.296  1.00  0.00     0.014 A 
ATOM     11  C   UNL     1      11.770   2.329 -11.047  1.00  0.00     0.004 A 
ATOM     12  C   UNL     1      11.183   5.057 -10.989  1.00  0.00     0.014 A 
ATOM     13  C   UNL     1      12.551   3.228 -11.789  1.00  0.00    -0.051 A 
ATOM     14  C   UNL     1      12.260   4.597 -11.743  1.00  0.00     0.004 A 
ATOM     15  C   UNL     1      13.660   2.712 -12.659  1.00  0.00     0.044 C 
ENDBRANCH   1   9
BRANCH   6  16
ATOM     16  C   UNL     1       7.209   6.039  -7.633  1.00  0.00     0.153 C 
BRANCH  16  17
ATOM     17  C   UNL     1       6.135   5.631  -6.663  1.00  0.00    -0.029 A 
ATOM     18  C   UNL     1       5.061   4.807  -7.016  1.00  0.00     0.006 A 
ATOM     19  C   UNL     1       6.349   5.922  -5.306  1.00  0.00     0.006 A 
ATOM     20  C   UNL     1       4.235   4.269  -6.023  1.00  0.00     0.004 A 
ATOM     21  C   UNL     1       5.530   5.383  -4.319  1.00  0.00     0.004 A 
ATOM     22  C   UNL     1       4.472   4.543  -4.668  1.00  0.00    -0.051 A 
ATOM     23  C   UNL     1       3.682   3.858  -3.593  1.00  0.00     0.044 C 
ENDBRANCH  16  17
ENDBRANCH   6  16
TORSDOF 3
ENDMDL
MODEL 6
REMARK VINA RESULT:    -4.520      2.118      3.749
REMARK INTER + INTRA:          -5.691
REMARK INTER:                  -5.221
REMARK INTRA:                  -0.470
REMARK UNBOUND:                -0.378
REMARK SMILES Cc1ccc(CNC(=O)NC(=O)c2ccc(C)cc2)cc1
REMARK SMILES IDX 11 1 12 2 10 3 8 4 9 5 7 6 13 9 19 10 18 11 14 12 16 13
REMARK SMILES IDX 15 14 17 15 6 16 5 17 4 18 20 19 3 20 21 21 2 22 1 23
REMARK H PARENT 10 7 7 8
ROOT
ATOM      1  C   UNL     1       6.209   7.235 -11.022  1.00  0.00     0.259 C 
ATOM      2  O   UNL     1       5.279   8.028 -11.074  1.00  0.00    -0.269 OA
ATOM      3  N   UNL     1       7.202   6.988 -11.975  1.00  0.00    -0.274 N 
ATOM      4  C   UNL     1       7.689   7.584 -13.110  1.00  0.00     0.321 C 
ATOM      5  O   UNL     1       8.708   7.104 -13.618  1.00  0.00    -0.248 OA
ATOM      6  N   UNL     1       7.136   8.674 -13.673  1.00  0.00    -0.334 N 
ATOM      7  H   UNL     1       7.858   6.263 -11.715  1.00  0.00     0.175 HD
ATOM      8  H   UNL     1       7.663   9.041 -14.453  1.00  0.00     0.165 HD
ENDROOT
BRANCH   1   9
ATOM      9  C   UNL     1       6.318   6.423  -9.795  1.00  0.00     0.040 A 
ATOM     10  C   UNL     1       7.152   6.803  -8.742  1.00  0.00     0.014 A 
ATOM     11  C   UNL     1       7.182   6.031  -7.580  1.00  0.00     0.004 A 
ATOM     12  C   UNL     1       5.562   5.249  -9.715  1.00  0.00     0.014 A 
ATOM     13  C   UNL     1       6.388   4.880  -7.470  1.00  0.00    -0.051 A 
ATOM     14  C   UNL     1       5.589   4.485  -8.550  1.00  0.00     0.004 A 
ATOM     15  C   UNL     1       6.366   4.109  -6.183  1.00  0.00     0.044 C 
ENDBRANCH   1   9
BRANCH   6  16
ATOM     16  C   UNL     1       6.024   9.442 -13.189  1.00  0.00     0.153 C 
BRANCH  16  17
ATOM     17  C   UNL     1       6.175  10.937 -13.166  1.00  0.00    -0.029 A 
ATOM     18  C   UNL     1       6.907  11.616 -12.187  1.00  0.00     0.006 A 
ATOM     19  C   UNL     1       5.735  11.646 -14.296  1.00  0.00     0.006 A 
ATOM     20  C   UNL     1       7.211  12.971 -12.353  1.00  0.00     0.004 A 
ATOM     21  C   UNL     1       6.042  12.992 -14.463  1.00  0.00     0.004 A 
ATOM     22  C   UNL     1       6.792  13.665 -13.497  1.00  0.00    -0.051 A 
ATOM     23  C   UNL     1       7.235  15.075 -13.749  1.00  0.00     0.044 C 
ENDBRANCH  16  17
ENDBRANCH   6  16
TORSDOF 3
ENDMDL
MODEL 7
REMARK VINA RESULT:    -4.488      5.213      9.917
REMARK INTER + INTRA:          -5.654
REMARK INTER:                  -5.073
REMARK INTRA:                  -0.581
REMARK UNBOUND:                -0.378
REMARK SMILES Cc1ccc(CNC(=O)NC(=O)c2ccc(C)cc2)cc1
REMARK SMILES IDX 11 1 12 2 10 3 8 4 9 5 7 6 13 9 19 10 18 11 14 12 16 13
REMARK SMILES IDX 15 14 17 15 6 16 5 17 4 18 20 19 3 20 21 21 2 22 1 23
REMARK H PARENT 10 7 7 8
ROOT
ATOM      1  C   UNL     1       9.594  11.391 -15.066  1.00  0.00     0.259 C 
ATOM      2  O   UNL     1       8.845  10.548 -15.541  1.00  0.00    -0.269 OA
ATOM      3  N   UNL     1       9.282  12.468 -14.231  1.00  0.00    -0.274 N 
ATOM      4  C   UNL     1       8.224  12.880 -13.462  1.00  0.00     0.321 C 
ATOM      5  O   UNL     1       8.393  13.864 -12.734  1.00  0.00    -0.248 OA
ATOM      6  N   UNL     1       7.032  12.254 -13.437  1.00  0.00    -0.334 N 
ATOM      7  H   UNL     1      10.073  13.046 -13.982  1.00  0.00     0.175 HD
ATOM      8  H   UNL     1       6.389  12.630 -12.756  1.00  0.00     0.165 HD
ENDROOT
BRANCH   1   9
ATOM      9  C   UNL     1      11.025  11.269 -15.404  1.00  0.00     0.040 A 
ATOM     10  C   UNL     1      11.867  12.382 -15.418  1.00  0.00     0.014 A 
ATOM     11  C   UNL     1      13.224  12.209 -15.692  1.00  0.00     0.004 A 
ATOM     12  C   UNL     1      11.519   9.999 -15.721  1.00  0.00     0.014 A 
ATOM     13  C   UNL     1      13.740  10.932 -15.960  1.00  0.00    -0.051 A 
ATOM     14  C   UNL     1      12.876   9.831 -15.988  1.00  0.00     0.004 A 
ATOM     15  C   UNL     1      15.215  10.752 -16.169  1.00  0.00     0.044 C 
ENDBRANCH   1   9
BRANCH   6  16
ATOM     16  C   UNL     1       6.664  11.046 -14.120  1.00  0.00     0.153 C 
BRANCH  16  17
ATOM     17  C   UNL     1       6.333   9.848 -13.273  1.00  0.00    -0.029 A 
ATOM     18  C   UNL     1       6.759   8.553 -13.583  1.00  0.00     0.006 A 
ATOM     19  C   UNL     1       5.754  10.090 -12.016  1.00  0.00     0.006 A 
ATOM     20  C   UNL     1       6.627   7.528 -12.640  1.00  0.00     0.004 A 
ATOM     21  C   UNL     1       5.628   9.071 -11.077  1.00  0.00     0.004 A 
ATOM     22  C   UNL     1       6.073   7.782 -11.377  1.00  0.00    -0.051 A 
ATOM     23  C   UNL     1       6.060   6.726 -10.313  1.00  0.00     0.044 C 
ENDBRANCH  16  17
ENDBRANCH   6  16
TORSDOF 3
ENDMDL
MODEL 8
REMARK VINA RESULT:    -4.466      4.845      7.265
REMARK INTER + INTRA:          -5.628
REMARK INTER:                  -5.178
REMARK INTRA:                  -0.450
REMARK UNBOUND:                -0.378
REMARK SMILES Cc1ccc(CNC(=O)NC(=O)c2ccc(C)cc2)cc1
REMARK SMILES IDX 11 1 12 2 10 3 8 4 9 5 7 6 13 9 19 10 18 11 14 12 16 13
REMARK SMILES IDX 15 14 17 15 6 16 5 17 4 18 20 19 3 20 21 21 2 22 1 23
REMARK H PARENT 10 7 7 8
ROOT
ATOM      1  C   UNL     1       9.626   4.627  -9.709  1.00  0.00     0.259 C 
ATOM      2  O   UNL     1      10.197   3.612  -9.335  1.00  0.00    -0.269 OA
ATOM      3  N   UNL     1      10.039   5.562 -10.663  1.00  0.00    -0.274 N 
ATOM      4  C   UNL     1      10.982   5.648 -11.655  1.00  0.00     0.321 C 
ATOM      5  O   UNL     1      10.940   6.632 -12.402  1.00  0.00    -0.248 OA
ATOM      6  N   UNL     1      11.921   4.709 -11.873  1.00  0.00    -0.334 N 
ATOM      7  H   UNL     1       9.404   6.338 -10.789  1.00  0.00     0.175 HD
ATOM      8  H   UNL     1      12.484   4.879 -12.694  1.00  0.00     0.165 HD
ENDROOT
BRANCH   1   9
ATOM      9  C   UNL     1       8.322   4.920  -9.084  1.00  0.00     0.040 A 
ATOM     10  C   UNL     1       7.135   4.394  -9.596  1.00  0.00     0.014 A 
ATOM     11  C   UNL     1       5.932   4.657  -8.939  1.00  0.00     0.004 A 
ATOM     12  C   UNL     1       8.305   5.752  -7.959  1.00  0.00     0.014 A 
ATOM     13  C   UNL     1       5.910   5.447  -7.781  1.00  0.00    -0.051 A 
ATOM     14  C   UNL     1       7.102   6.006  -7.304  1.00  0.00     0.004 A 
ATOM     15  C   UNL     1       4.622   5.650  -7.039  1.00  0.00     0.044 C 
ENDBRANCH   1   9
BRANCH   6  16
ATOM     16  C   UNL     1      12.079   3.453 -11.195  1.00  0.00     0.153 C 
BRANCH  16  17
ATOM     17  C   UNL     1      12.325   2.237 -12.043  1.00  0.00    -0.029 A 
ATOM     18  C   UNL     1      11.407   1.765 -12.986  1.00  0.00     0.006 A 
ATOM     19  C   UNL     1      13.619   1.691 -12.024  1.00  0.00     0.006 A 
ATOM     20  C   UNL     1      11.790   0.783 -13.906  1.00  0.00     0.004 A 
ATOM     21  C   UNL     1      14.000   0.718 -12.943  1.00  0.00     0.004 A 
ATOM     22  C   UNL     1      13.092   0.263 -13.899  1.00  0.00    -0.051 A 
ATOM     23  C   UNL     1      13.551  -0.682 -14.969  1.00  0.00     0.044 C 
ENDBRANCH  16  17
ENDBRANCH   6  16
TORSDOF 3
ENDMDL
MODEL 9
REMARK VINA RESULT:    -4.129      4.841     10.176
REMARK INTER + INTRA:          -5.232
REMARK INTER:                  -4.727
REMARK INTRA:                  -0.505
REMARK UNBOUND:                -0.378
REMARK SMILES Cc1ccc(CNC(=O)NC(=O)c2ccc(C)cc2)cc1
REMARK SMILES IDX 11 1 12 2 10 3 8 4 9 5 7 6 13 9 19 10 18 11 14 12 16 13
REMARK SMILES IDX 15 14 17 15 6 16 5 17 4 18 20 19 3 20 21 21 2 22 1 23
REMARK H PARENT 10 7 7 8
ROOT
ATOM      1  C   UNL     1       8.732  11.630 -14.823  1.00  0.00     0.259 C 
ATOM      2  O   UNL     1       8.682  11.359 -13.632  1.00  0.00    -0.269 OA
ATOM      3  N   UNL     1       7.750  11.453 -15.803  1.00  0.00    -0.274 N 
ATOM      4  C   UNL     1       6.406  11.184 -15.854  1.00  0.00     0.321 C 
ATOM      5  O   UNL     1       5.852  11.240 -16.957  1.00  0.00    -0.248 OA
ATOM      6  N   UNL     1       5.663  10.895 -14.770  1.00  0.00    -0.334 N 
ATOM      7  H   UNL     1       8.033  11.735 -16.732  1.00  0.00     0.175 HD
ATOM      8  H   UNL     1       4.676  10.808 -14.965  1.00  0.00     0.165 HD
ENDROOT
BRANCH   1   9
ATOM      9  C   UNL     1       9.988  12.231 -15.312  1.00  0.00     0.040 A 
ATOM     10  C   UNL     1      10.011  13.505 -15.883  1.00  0.00     0.014 A 
ATOM     11  C   UNL     1      11.231  14.053 -16.282  1.00  0.00     0.004 A 
ATOM     12  C   UNL     1      11.163  11.483 -15.194  1.00  0.00     0.014 A 
ATOM     13  C   UNL     1      12.423  13.331 -16.120  1.00  0.00    -0.051 A 
ATOM     14  C   UNL     1      12.380  12.037 -15.588  1.00  0.00     0.004 A 
ATOM     15  C   UNL     1      13.735  13.967 -16.476  1.00  0.00     0.044 C 
ENDBRANCH   1   9
BRANCH   6  16
ATOM     16  C   UNL     1       6.085  10.881 -13.398  1.00  0.00     0.153 C 
BRANCH  16  17
ATOM     17  C   UNL     1       6.017   9.568 -12.668  1.00  0.00    -0.029 A 
ATOM     18  C   UNL     1       6.639   8.404 -13.132  1.00  0.00     0.006 A 
ATOM     19  C   UNL     1       5.483   9.580 -11.369  1.00  0.00     0.006 A 
ATOM     20  C   UNL     1       6.743   7.286 -12.298  1.00  0.00     0.004 A 
ATOM     21  C   UNL     1       5.592   8.469 -10.539  1.00  0.00     0.004 A 
ATOM     22  C   UNL     1       6.232   7.315 -10.993  1.00  0.00    -0.051 A 
ATOM     23  C   UNL     1       6.466   6.175 -10.047  1.00  0.00     0.044 C 
ENDBRANCH  16  17
ENDBRANCH   6  16
TORSDOF 3
ENDMDL
