MODEL 1
REMARK VINA RESULT:    -4.217      0.000      0.000
REMARK INTER + INTRA:          -5.798
REMARK INTER:                  -5.572
REMARK INTRA:                  -0.226
REMARK UNBOUND:                -0.226
REMARK SMILES [H]/N=C\C[C@H]1C[C@@H]1O[C@H]1CO[C@H]2C[C@@H](C3CC3)CCN2C1
REMARK SMILES IDX 7 1 6 2 5 3 8 4 9 5 14 6 13 7 18 8 12 9 19 10 20 11 11 12
REMARK SMILES IDX 21 13 10 14 15 15 16 16 17 17 4 18 3 19 2 20 1 21
REMARK H PARENT
ROOT
ATOM      1  C   UNL     1       6.366   7.940 -10.759  1.00  0.00     0.122 C 
ATOM      2  C   UNL     1       6.315   7.900 -12.260  1.00  0.00     0.039 C 
ATOM      3  C   UNL     1       5.525   8.935 -11.511  1.00  0.00     0.026 C 
ENDROOT
BRANCH   1   4
ATOM      4  O   UNL     1       5.665   6.858 -10.118  1.00  0.00    -0.371 OA
BRANCH   4   5
ATOM      5  C   UNL     1       6.312   5.576 -10.183  1.00  0.00     0.158 C 
ATOM      6  C   UNL     1       5.561   4.069  -5.247  1.00  0.00    -0.003 C 
ATOM      7  C   UNL     1       6.445   5.101  -5.957  1.00  0.00     0.052 C 
ATOM      8  C   UNL     1       4.240   3.919  -6.013  1.00  0.00     0.019 C 
ATOM      9  C   UNL     1       6.619   4.773  -7.447  1.00  0.00     0.189 C 
ATOM     10  C   UNL     1       4.483   3.627  -7.494  1.00  0.00     0.087 C 
ATOM     11  N   UNL     1       5.316   4.665  -8.101  1.00  0.00    -0.276 NA
ATOM     12  O   UNL     1       7.415   5.821  -8.005  1.00  0.00    -0.360 OA
ATOM     13  C   UNL     1       5.486   4.447  -9.542  1.00  0.00     0.121 C 
ATOM     14  C   UNL     1       7.632   5.670  -9.411  1.00  0.00     0.195 C 
BRANCH   6  15
ATOM     15  C   UNL     1       5.300   4.458  -3.809  1.00  0.00    -0.008 C 
ATOM     16  C   UNL     1       5.438   3.437  -2.704  1.00  0.00     0.004 C 
ATOM     17  C   UNL     1       6.433   4.556  -2.816  1.00  0.00     0.004 C 
ENDBRANCH   6  15
ENDBRANCH   4   5
ENDBRANCH   1   4
BRANCH   3  18
ATOM     18  C   UNL     1       5.947  10.372 -11.595  1.00  0.00     0.053 C 
BRANCH  18  19
ATOM     19  C   UNL     1       6.124  10.935 -12.981  1.00  0.00     0.074 C 
BRANCH  19  20
ATOM     20  N   UNL     1       5.178  11.173 -13.828  1.00  0.00    -0.313 NA
ATOM     21  H   UNL     1       5.374  10.748 -14.745  1.00  0.00     0.186 HD
ENDBRANCH  19  20
ENDBRANCH  18  19
ENDBRANCH   3  18
TORSDOF 6
ENDMDL
MODEL 2
REMARK VINA RESULT:    -4.183      3.301      5.537
REMARK INTER + INTRA:          -5.754
REMARK INTER:                  -5.503
REMARK INTRA:                  -0.250
REMARK UNBOUND:                -0.226
REMARK SMILES [H]/N=C\C[C@H]1C[C@@H]1O[C@H]1CO[C@H]2C[C@@H](C3CC3)CCN2C1
REMARK SMILES IDX 7 1 6 2 5 3 8 4 9 5 14 6 13 7 18 8 12 9 19 10 20 11 11 12
REMARK SMILES IDX 21 13 10 14 15 15 16 16 17 17 4 18 3 19 2 20 1 21
REMARK H PARENT
ROOT
ATOM      1  C   UNL     1       9.431   4.178  -9.977  1.00  0.00     0.122 C 
ATOM      2  C   UNL     1      10.772   4.783 -10.279  1.00  0.00     0.039 C 
ATOM      3  C   UNL     1      10.677   3.343  -9.862  1.00  0.00     0.026 C 
ENDROOT
BRANCH   1   4
ATOM      4  O   UNL     1       8.845   4.635  -8.743  1.00  0.00    -0.371 OA
BRANCH   4   5
ATOM      5  C   UNL     1       8.279   5.955  -8.778  1.00  0.00     0.158 C 
ATOM      6  C   UNL     1       4.061   5.077  -5.839  1.00  0.00    -0.003 C 
ATOM      7  C   UNL     1       4.511   4.698  -7.255  1.00  0.00     0.052 C 
ATOM      8  C   UNL     1       5.289   5.163  -4.922  1.00  0.00     0.019 C 
ATOM      9  C   UNL     1       5.612   5.634  -7.772  1.00  0.00     0.189 C 
ATOM     10  C   UNL     1       6.361   6.082  -5.510  1.00  0.00     0.087 C 
ATOM     11  N   UNL     1       6.748   5.643  -6.850  1.00  0.00    -0.276 NA
ATOM     12  O   UNL     1       5.978   5.157  -9.069  1.00  0.00    -0.360 OA
ATOM     13  C   UNL     1       7.838   6.462  -7.393  1.00  0.00     0.121 C 
ATOM     14  C   UNL     1       7.033   5.916  -9.668  1.00  0.00     0.195 C 
BRANCH   6  15
ATOM     15  C   UNL     1       3.059   4.085  -5.291  1.00  0.00    -0.008 C 
ATOM     16  C   UNL     1       1.738   4.562  -4.736  1.00  0.00     0.004 C 
ATOM     17  C   UNL     1       1.773   3.798  -6.028  1.00  0.00     0.004 C 
ENDBRANCH   6  15
ENDBRANCH   4   5
ENDBRANCH   1   4
BRANCH   3  18
ATOM     18  C   UNL     1      10.966   2.273 -10.872  1.00  0.00     0.053 C 
BRANCH  18  19
ATOM     19  C   UNL     1      12.247   2.421 -11.651  1.00  0.00     0.074 C 
BRANCH  19  20
ATOM     20  N   UNL     1      13.406   1.975 -11.294  1.00  0.00    -0.313 NA
ATOM     21  H   UNL     1      13.418   1.701 -10.302  1.00  0.00     0.186 HD
ENDBRANCH  19  20
ENDBRANCH  18  19
ENDBRANCH   3  18
TORSDOF 6
ENDMDL
MODEL 3
REMARK VINA RESULT:    -4.157      5.253      8.413
REMARK INTER + INTRA:          -5.720
REMARK INTER:                  -5.708
REMARK INTRA:                  -0.012
REMARK UNBOUND:                -0.226
REMARK SMILES [H]/N=C\C[C@H]1C[C@@H]1O[C@H]1CO[C@H]2C[C@@H](C3CC3)CCN2C1
REMARK SMILES IDX 7 1 6 2 5 3 8 4 9 5 14 6 13 7 18 8 12 9 19 10 20 11 11 12
REMARK SMILES IDX 21 13 10 14 15 15 16 16 17 17 4 18 3 19 2 20 1 21
REMARK H PARENT
ROOT
ATOM      1  C   UNL     1       7.525   5.313  -9.328  1.00  0.00     0.122 C 
ATOM      2  C   UNL     1       6.430   6.056 -10.040  1.00  0.00     0.039 C 
ATOM      3  C   UNL     1       6.217   4.630  -9.619  1.00  0.00     0.026 C 
ENDROOT
BRANCH   1   4
ATOM      4  O   UNL     1       8.638   4.959 -10.171  1.00  0.00    -0.371 OA
BRANCH   4   5
ATOM      5  C   UNL     1       9.918   4.909  -9.519  1.00  0.00     0.158 C 
ATOM      6  C   UNL     1      12.431   1.899 -12.958  1.00  0.00    -0.003 C 
ATOM      7  C   UNL     1      11.335   1.685 -11.906  1.00  0.00     0.052 C 
ATOM      8  C   UNL     1      12.305   3.313 -13.542  1.00  0.00     0.019 C 
ATOM      9  C   UNL     1      11.334   2.800 -10.851  1.00  0.00     0.189 C 
ATOM     10  C   UNL     1      12.275   4.371 -12.439  1.00  0.00     0.087 C 
ATOM     11  N   UNL     1      11.194   4.108 -11.490  1.00  0.00    -0.276 NA
ATOM     12  O   UNL     1      10.251   2.519  -9.962  1.00  0.00    -0.360 OA
ATOM     13  C   UNL     1      11.096   5.163 -10.475  1.00  0.00     0.121 C 
ATOM     14  C   UNL     1      10.099   3.504  -8.935  1.00  0.00     0.195 C 
BRANCH   6  15
ATOM     15  C   UNL     1      12.355   0.863 -14.056  1.00  0.00    -0.008 C 
ATOM     16  C   UNL     1      13.519   0.660 -14.997  1.00  0.00     0.004 C 
ATOM     17  C   UNL     1      13.181  -0.399 -13.988  1.00  0.00     0.004 C 
ENDBRANCH   6  15
ENDBRANCH   4   5
ENDBRANCH   1   4
BRANCH   3  18
ATOM     18  C   UNL     1       5.254   4.337  -8.507  1.00  0.00     0.053 C 
BRANCH  18  19
ATOM     19  C   UNL     1       4.428   3.085  -8.654  1.00  0.00     0.074 C 
BRANCH  19  20
ATOM     20  N   UNL     1       3.907   2.646  -9.751  1.00  0.00    -0.313 NA
ATOM     21  H   UNL     1       4.630   2.382 -10.435  1.00  0.00     0.186 HD
ENDBRANCH  19  20
ENDBRANCH  18  19
ENDBRANCH   3  18
TORSDOF 6
ENDMDL
MODEL 4
REMARK VINA RESULT:    -4.153      2.686      8.583
REMARK INTER + INTRA:          -5.714
REMARK INTER:                  -5.594
REMARK INTRA:                  -0.119
REMARK UNBOUND:                -0.226
REMARK SMILES [H]/N=C\C[C@H]1C[C@@H]1O[C@H]1CO[C@H]2C[C@@H](C3CC3)CCN2C1
REMARK SMILES IDX 7 1 6 2 5 3 8 4 9 5 14 6 13 7 18 8 12 9 19 10 20 11 11 12
REMARK SMILES IDX 21 13 10 14 15 15 16 16 17 17 4 18 3 19 2 20 1 21
REMARK H PARENT
ROOT
ATOM      1  C   UNL     1       6.929   6.141  -9.367  1.00  0.00     0.122 C 
ATOM      2  C   UNL     1       8.225   5.488  -8.976  1.00  0.00     0.039 C 
ATOM      3  C   UNL     1       7.597   6.507  -8.070  1.00  0.00     0.026 C 
ENDROOT
BRANCH   1   4
ATOM      4  O   UNL     1       7.051   7.089 -10.445  1.00  0.00    -0.371 OA
BRANCH   4   5
ATOM      5  C   UNL     1       5.912   7.186 -11.316  1.00  0.00     0.158 C 
ATOM      6  C   UNL     1       6.975  11.812 -13.479  1.00  0.00    -0.003 C 
ATOM      7  C   UNL     1       6.501  11.325 -12.104  1.00  0.00     0.052 C 
ATOM      8  C   UNL     1       7.898  10.754 -14.101  1.00  0.00     0.019 C 
ATOM      9  C   UNL     1       5.884   9.922 -12.178  1.00  0.00     0.189 C 
ATOM     10  C   UNL     1       7.239   9.375 -14.113  1.00  0.00     0.087 C 
ATOM     11  N   UNL     1       6.834   8.977 -12.765  1.00  0.00    -0.276 NA
ATOM     12  O   UNL     1       5.526   9.563 -10.842  1.00  0.00    -0.360 OA
ATOM     13  C   UNL     1       6.278   7.619 -12.746  1.00  0.00     0.121 C 
ATOM     14  C   UNL     1       4.967   8.249 -10.746  1.00  0.00     0.195 C 
BRANCH   6  15
ATOM     15  C   UNL     1       7.684  13.144 -13.382  1.00  0.00    -0.008 C 
ATOM     16  C   UNL     1       7.731  14.072 -14.573  1.00  0.00     0.004 C 
ATOM     17  C   UNL     1       6.904  14.436 -13.373  1.00  0.00     0.004 C 
ENDBRANCH   6  15
ENDBRANCH   4   5
ENDBRANCH   1   4
BRANCH   3  18
ATOM     18  C   UNL     1       7.011   6.057  -6.765  1.00  0.00     0.053 C 
BRANCH  18  19
ATOM     19  C   UNL     1       7.301   6.926  -5.569  1.00  0.00     0.074 C 
BRANCH  19  20
ATOM     20  N   UNL     1       8.321   7.706  -5.429  1.00  0.00    -0.313 NA
ATOM     21  H   UNL     1       8.198   8.353  -4.637  1.00  0.00     0.186 HD
ENDBRANCH  19  20
ENDBRANCH  18  19
ENDBRANCH   3  18
TORSDOF 6
ENDMDL
MODEL 5
REMARK VINA RESULT:    -3.946      4.421      7.127
REMARK INTER + INTRA:          -5.441
REMARK INTER:                  -5.290
REMARK INTRA:                  -0.150
REMARK UNBOUND:                -0.226
REMARK SMILES [H]/N=C\C[C@H]1C[C@@H]1O[C@H]1CO[C@H]2C[C@@H](C3CC3)CCN2C1
REMARK SMILES IDX 7 1 6 2 5 3 8 4 9 5 14 6 13 7 18 8 12 9 19 10 20 11 11 12
REMARK SMILES IDX 21 13 10 14 15 15 16 16 17 17 4 18 3 19 2 20 1 21
REMARK H PARENT
ROOT
ATOM      1  C   UNL     1      10.262  10.670 -15.470  1.00  0.00     0.122 C 
ATOM      2  C   UNL     1      10.183  11.965 -16.228  1.00  0.00     0.039 C 
ATOM      3  C   UNL     1      11.211  11.791 -15.148  1.00  0.00     0.026 C 
ENDROOT
BRANCH   1   4
ATOM      4  O   UNL     1       9.174  10.461 -14.550  1.00  0.00    -0.371 OA
BRANCH   4   5
ATOM      5  C   UNL     1       7.961   9.952 -15.129  1.00  0.00     0.158 C 
ATOM      6  C   UNL     1       6.166   7.319 -11.000  1.00  0.00    -0.003 C 
ATOM      7  C   UNL     1       7.307   7.135 -12.009  1.00  0.00     0.052 C 
ATOM      8  C   UNL     1       5.931   8.818 -10.768  1.00  0.00     0.019 C 
ATOM      9  C   UNL     1       7.065   7.937 -13.295  1.00  0.00     0.189 C 
ATOM     10  C   UNL     1       5.732   9.563 -12.087  1.00  0.00     0.087 C 
ATOM     11  N   UNL     1       6.868   9.353 -12.984  1.00  0.00    -0.276 NA
ATOM     12  O   UNL     1       8.205   7.725 -14.130  1.00  0.00    -0.360 OA
ATOM     13  C   UNL     1       6.733  10.132 -14.220  1.00  0.00     0.121 C 
ATOM     14  C   UNL     1       8.139   8.448 -15.362  1.00  0.00     0.195 C 
BRANCH   6  15
ATOM     15  C   UNL     1       6.463   6.619  -9.693  1.00  0.00    -0.008 C 
ATOM     16  C   UNL     1       6.159   5.149  -9.528  1.00  0.00     0.004 C 
ATOM     17  C   UNL     1       7.585   5.614  -9.592  1.00  0.00     0.004 C 
ENDBRANCH   6  15
ENDBRANCH   4   5
ENDBRANCH   1   4
BRANCH   3  18
ATOM     18  C   UNL     1      12.657  11.690 -15.530  1.00  0.00     0.053 C 
BRANCH  18  19
ATOM     19  C   UNL     1      13.493  12.924 -15.307  1.00  0.00     0.074 C 
BRANCH  19  20
ATOM     20  N   UNL     1      14.311  13.117 -14.327  1.00  0.00    -0.313 NA
ATOM     21  H   UNL     1      13.818  13.410 -13.472  1.00  0.00     0.186 HD
ENDBRANCH  19  20
ENDBRANCH  18  19
ENDBRANCH   3  18
TORSDOF 6
ENDMDL
MODEL 6
REMARK VINA RESULT:    -3.517      5.533      8.471
REMARK INTER + INTRA:          -4.874
REMARK INTER:                  -4.288
REMARK INTRA:                  -0.585
REMARK UNBOUND:                -0.226
REMARK SMILES [H]/N=C\C[C@H]1C[C@@H]1O[C@H]1CO[C@H]2C[C@@H](C3CC3)CCN2C1
REMARK SMILES IDX 7 1 6 2 5 3 8 4 9 5 14 6 13 7 18 8 12 9 19 10 20 11 11 12
REMARK SMILES IDX 21 13 10 14 15 15 16 16 17 17 4 18 3 19 2 20 1 21
REMARK H PARENT
ROOT
ATOM      1  C   UNL     1      10.476  10.339 -16.396  1.00  0.00     0.122 C 
ATOM      2  C   UNL     1      11.958  10.331 -16.150  1.00  0.00     0.039 C 
ATOM      3  C   UNL     1      11.064   9.414 -15.366  1.00  0.00     0.026 C 
ENDROOT
BRANCH   1   4
ATOM      4  O   UNL     1       9.805  11.513 -15.901  1.00  0.00    -0.371 OA
BRANCH   4   5
ATOM      5  C   UNL     1       8.466  11.713 -16.384  1.00  0.00     0.158 C 
ATOM      6  C   UNL     1       5.861   9.842 -12.271  1.00  0.00    -0.003 C 
ATOM      7  C   UNL     1       6.707   9.242 -13.401  1.00  0.00     0.052 C 
ATOM      8  C   UNL     1       6.400  11.236 -11.919  1.00  0.00     0.019 C 
ATOM      9  C   UNL     1       6.811  10.193 -14.601  1.00  0.00     0.189 C 
ATOM     10  C   UNL     1       6.512  12.121 -13.161  1.00  0.00     0.087 C 
ATOM     11  N   UNL     1       7.348  11.488 -14.181  1.00  0.00    -0.276 NA
ATOM     12  O   UNL     1       7.653   9.550 -15.560  1.00  0.00    -0.360 OA
ATOM     13  C   UNL     1       7.537  12.362 -15.344  1.00  0.00     0.121 C 
ATOM     14  C   UNL     1       7.876  10.342 -16.730  1.00  0.00     0.195 C 
BRANCH   6  15
ATOM     15  C   UNL     1       5.856   8.951 -11.049  1.00  0.00    -0.008 C 
ATOM     16  C   UNL     1       4.683   8.040 -10.773  1.00  0.00     0.004 C 
ATOM     17  C   UNL     1       6.004   7.455 -11.182  1.00  0.00     0.004 C 
ENDBRANCH   6  15
ENDBRANCH   4   5
ENDBRANCH   1   4
BRANCH   3  18
ATOM     18  C   UNL     1      11.129   7.939 -15.625  1.00  0.00     0.053 C 
BRANCH  18  19
ATOM     19  C   UNL     1      10.195   7.078 -14.815  1.00  0.00     0.074 C 
BRANCH  19  20
ATOM     20  N   UNL     1       8.957   6.835 -15.092  1.00  0.00    -0.313 NA
ATOM     21  H   UNL     1       8.447   6.478 -14.272  1.00  0.00     0.186 HD
ENDBRANCH  19  20
ENDBRANCH  18  19
ENDBRANCH   3  18
TORSDOF 6
ENDMDL
MODEL 7
REMARK VINA RESULT:    -3.455      5.867      9.088
REMARK INTER + INTRA:          -4.792
REMARK INTER:                  -4.529
REMARK INTRA:                  -0.263
REMARK UNBOUND:                -0.226
REMARK SMILES [H]/N=C\C[C@H]1C[C@@H]1O[C@H]1CO[C@H]2C[C@@H](C3CC3)CCN2C1
REMARK SMILES IDX 7 1 6 2 5 3 8 4 9 5 14 6 13 7 18 8 12 9 19 10 20 11 11 12
REMARK SMILES IDX 21 13 10 14 15 15 16 16 17 17 4 18 3 19 2 20 1 21
REMARK H PARENT
ROOT
ATOM      1  C   UNL     1       9.862  12.702 -15.792  1.00  0.00     0.122 C 
ATOM      2  C   UNL     1      10.561  11.887 -14.740  1.00  0.00     0.039 C 
ATOM      3  C   UNL     1      11.302  12.308 -15.977  1.00  0.00     0.026 C 
ENDROOT
BRANCH   1   4
ATOM      4  O   UNL     1       8.889  11.965 -16.556  1.00  0.00    -0.371 OA
BRANCH   4   5
ATOM      5  C   UNL     1       7.557  12.505 -16.547  1.00  0.00     0.158 C 
ATOM      6  C   UNL     1       5.846  10.293 -12.144  1.00  0.00    -0.003 C 
ATOM      7  C   UNL     1       6.170   9.808 -13.563  1.00  0.00     0.052 C 
ATOM      8  C   UNL     1       6.780  11.456 -11.780  1.00  0.00     0.019 C 
ATOM      9  C   UNL     1       6.157  10.961 -14.576  1.00  0.00     0.189 C 
ATOM     10  C   UNL     1       6.746  12.553 -12.843  1.00  0.00     0.087 C 
ATOM     11  N   UNL     1       7.084  12.015 -14.161  1.00  0.00    -0.276 NA
ATOM     12  O   UNL     1       6.515  10.399 -15.840  1.00  0.00    -0.360 OA
ATOM     13  C   UNL     1       7.141  13.071 -15.178  1.00  0.00     0.121 C 
ATOM     14  C   UNL     1       6.582  11.372 -16.887  1.00  0.00     0.195 C 
BRANCH   6  15
ATOM     15  C   UNL     1       5.972   9.175 -11.134  1.00  0.00    -0.008 C 
ATOM     16  C   UNL     1       4.811   8.242 -10.878  1.00  0.00     0.004 C 
ATOM     17  C   UNL     1       6.037   7.734 -11.579  1.00  0.00     0.004 C 
ENDBRANCH   6  15
ENDBRANCH   4   5
ENDBRANCH   1   4
BRANCH   3  18
ATOM     18  C   UNL     1      12.389  13.334 -15.858  1.00  0.00     0.053 C 
BRANCH  18  19
ATOM     19  C   UNL     1      13.736  12.830 -15.412  1.00  0.00     0.074 C 
BRANCH  19  20
ATOM     20  N   UNL     1      14.337  13.146 -14.313  1.00  0.00    -0.313 NA
ATOM     21  H   UNL     1      13.762  13.772 -13.732  1.00  0.00     0.186 HD
ENDBRANCH  19  20
ENDBRANCH  18  19
ENDBRANCH   3  18
TORSDOF 6
ENDMDL
MODEL 8
REMARK VINA RESULT:    -3.349      4.369      7.280
REMARK INTER + INTRA:          -4.651
REMARK INTER:                  -4.426
REMARK INTRA:                  -0.226
REMARK UNBOUND:                -0.226
REMARK SMILES [H]/N=C\C[C@H]1C[C@@H]1O[C@H]1CO[C@H]2C[C@@H](C3CC3)CCN2C1
REMARK SMILES IDX 7 1 6 2 5 3 8 4 9 5 14 6 13 7 18 8 12 9 19 10 20 11 11 12
REMARK SMILES IDX 21 13 10 14 15 15 16 16 17 17 4 18 3 19 2 20 1 21
REMARK H PARENT
ROOT
ATOM      1  C   UNL     1      10.564   9.453 -15.898  1.00  0.00     0.122 C 
ATOM      2  C   UNL     1      11.883  10.125 -15.637  1.00  0.00     0.039 C 
ATOM      3  C   UNL     1      11.636   8.735 -15.123  1.00  0.00     0.026 C 
ENDROOT
BRANCH   1   4
ATOM      4  O   UNL     1       9.468   9.993 -15.135  1.00  0.00    -0.371 OA
BRANCH   4   5
ATOM      5  C   UNL     1       8.156   9.700 -15.642  1.00  0.00     0.158 C 
ATOM      6  C   UNL     1       6.084   7.648 -11.318  1.00  0.00    -0.003 C 
ATOM      7  C   UNL     1       7.122   7.204 -12.356  1.00  0.00     0.052 C 
ATOM      8  C   UNL     1       6.149   9.173 -11.156  1.00  0.00     0.019 C 
ATOM      9  C   UNL     1       6.979   7.979 -13.673  1.00  0.00     0.189 C 
ATOM     10  C   UNL     1       6.035   9.883 -12.505  1.00  0.00     0.087 C 
ATOM     11  N   UNL     1       7.069   9.419 -13.430  1.00  0.00    -0.276 NA
ATOM     12  O   UNL     1       8.019   7.515 -14.536  1.00  0.00    -0.360 OA
ATOM     13  C   UNL     1       7.027  10.153 -14.700  1.00  0.00     0.121 C 
ATOM     14  C   UNL     1       8.035   8.181 -15.802  1.00  0.00     0.195 C 
BRANCH   6  15
ATOM     15  C   UNL     1       6.303   6.964  -9.987  1.00  0.00    -0.008 C 
ATOM     16  C   UNL     1       5.970   5.500  -9.818  1.00  0.00     0.004 C 
ATOM     17  C   UNL     1       7.403   5.946  -9.813  1.00  0.00     0.004 C 
ENDBRANCH   6  15
ENDBRANCH   4   5
ENDBRANCH   1   4
BRANCH   3  18
ATOM     18  C   UNL     1      12.377   7.589 -15.743  1.00  0.00     0.053 C 
BRANCH  18  19
ATOM     19  C   UNL     1      11.811   6.216 -15.493  1.00  0.00     0.074 C 
BRANCH  19  20
ATOM     20  N   UNL     1      10.575   5.941 -15.240  1.00  0.00    -0.313 NA
ATOM     21  H   UNL     1      10.450   5.603 -14.276  1.00  0.00     0.186 HD
ENDBRANCH  19  20
ENDBRANCH  18  19
ENDBRANCH   3  18
TORSDOF 6
ENDMDL
MODEL 9
REMARK VINA RESULT:    -3.194      3.721      9.953
REMARK INTER + INTRA:          -4.446
REMARK INTER:                  -4.167
REMARK INTRA:                  -0.280
REMARK UNBOUND:                -0.226
REMARK SMILES [H]/N=C\C[C@H]1C[C@@H]1O[C@H]1CO[C@H]2C[C@@H](C3CC3)CCN2C1
REMARK SMILES IDX 7 1 6 2 5 3 8 4 9 5 14 6 13 7 18 8 12 9 19 10 20 11 11 12
REMARK SMILES IDX 21 13 10 14 15 15 16 16 17 17 4 18 3 19 2 20 1 21
REMARK H PARENT
ROOT
ATOM      1  C   UNL     1       5.941   8.463 -11.102  1.00  0.00     0.122 C 
ATOM      2  C   UNL     1       5.223   7.272 -11.671  1.00  0.00     0.039 C 
ATOM      3  C   UNL     1       6.431   7.073 -10.801  1.00  0.00     0.026 C 
ENDROOT
BRANCH   1   4
ATOM      4  O   UNL     1       6.692   9.216 -12.073  1.00  0.00    -0.371 OA
BRANCH   4   5
ATOM      5  C   UNL     1       6.070  10.427 -12.534  1.00  0.00     0.158 C 
ATOM      6  C   UNL     1       9.780  12.002 -15.844  1.00  0.00    -0.003 C 
ATOM      7  C   UNL     1       9.630  11.922 -14.320  1.00  0.00     0.052 C 
ATOM      8  C   UNL     1       9.001  10.849 -16.492  1.00  0.00     0.019 C 
ATOM      9  C   UNL     1       8.157  11.847 -13.896  1.00  0.00     0.189 C 
ATOM     10  C   UNL     1       7.553  10.809 -16.002  1.00  0.00     0.087 C 
ATOM     11  N   UNL     1       7.496  10.714 -14.544  1.00  0.00    -0.276 NA
ATOM     12  O   UNL     1       8.147  11.731 -12.472  1.00  0.00    -0.360 OA
ATOM     13  C   UNL     1       6.115  10.588 -14.064  1.00  0.00     0.121 C 
ATOM     14  C   UNL     1       6.829  11.612 -11.928  1.00  0.00     0.195 C 
BRANCH   6  15
ATOM     15  C   UNL     1      11.233  11.960 -16.261  1.00  0.00    -0.008 C 
ATOM     16  C   UNL     1      11.969  13.236 -16.595  1.00  0.00     0.004 C 
ATOM     17  C   UNL     1      12.316  12.479 -15.346  1.00  0.00     0.004 C 
ENDBRANCH   6  15
ENDBRANCH   4   5
ENDBRANCH   1   4
BRANCH   3  18
ATOM     18  C   UNL     1       6.253   6.488  -9.432  1.00  0.00     0.053 C 
BRANCH  18  19
ATOM     19  C   UNL     1       6.424   4.996  -9.318  1.00  0.00     0.074 C 
BRANCH  19  20
ATOM     20  N   UNL     1       5.614   4.103  -9.780  1.00  0.00    -0.313 NA
ATOM     21  H   UNL     1       5.107   4.443 -10.609  1.00  0.00     0.186 HD
ENDBRANCH  19  20
ENDBRANCH  18  19
ENDBRANCH   3  18
TORSDOF 6
ENDMDL
