MODEL 1
REMARK VINA RESULT:    -4.170      0.000      0.000
REMARK INTER + INTRA:          -5.729
REMARK INTER:                  -5.511
REMARK INTRA:                  -0.218
REMARK UNBOUND:                -0.218
REMARK SMILES [H]/N=C\C[C@H]1C[C@@H]1O[C@H]1CO[C@H]2C[C@@H](C3CC3)CCN2C1
REMARK SMILES IDX 7 1 6 2 5 3 8 4 9 5 14 6 13 7 18 8 12 9 19 10 20 11 11 12
REMARK SMILES IDX 21 13 10 14 15 15 16 16 17 17 4 18 3 19 2 20 1 21
REMARK H PARENT
ROOT
ATOM      1  C   UNL     1      -4.601   7.165  12.578  1.00  0.00     0.122 C 
ATOM      2  C   UNL     1      -4.333   7.119  14.056  1.00  0.00     0.039 C 
ATOM      3  C   UNL     1      -3.589   8.094  13.189  1.00  0.00     0.026 C 
ENDROOT
BRANCH   1   4
ATOM      4  O   UNL     1      -4.082   6.034  11.851  1.00  0.00    -0.371 OA
BRANCH   4   5
ATOM      5  C   UNL     1      -4.771   4.791  12.065  1.00  0.00     0.158 C 
ATOM      6  C   UNL     1      -4.499   2.902   7.211  1.00  0.00    -0.003 C 
ATOM      7  C   UNL     1      -5.278   4.022   7.911  1.00  0.00     0.052 C 
ATOM      8  C   UNL     1      -3.124   2.748   7.876  1.00  0.00     0.019 C 
ATOM      9  C   UNL     1      -5.339   3.810   9.430  1.00  0.00     0.189 C 
ATOM     10  C   UNL     1      -3.253   2.574   9.389  1.00  0.00     0.087 C 
ATOM     11  N   UNL     1      -3.990   3.690   9.983  1.00  0.00    -0.276 NA
ATOM     12  O   UNL     1      -6.043   4.929   9.971  1.00  0.00    -0.360 OA
ATOM     13  C   UNL     1      -4.047   3.583  11.445  1.00  0.00     0.121 C 
ATOM     14  C   UNL     1      -6.147   4.889  11.398  1.00  0.00     0.195 C 
BRANCH   6  15
ATOM     15  C   UNL     1      -4.345   3.175   5.731  1.00  0.00    -0.008 C 
ATOM     16  C   UNL     1      -4.640   2.093   4.720  1.00  0.00     0.004 C 
ATOM     17  C   UNL     1      -5.554   3.279   4.834  1.00  0.00     0.004 C 
ENDBRANCH   6  15
ENDBRANCH   4   5
ENDBRANCH   1   4
BRANCH   3  18
ATOM     18  C   UNL     1      -3.889   9.558  13.320  1.00  0.00     0.053 C 
BRANCH  18  19
ATOM     19  C   UNL     1      -3.774  10.140  14.705  1.00  0.00     0.074 C 
BRANCH  19  20
ATOM     20  N   UNL     1      -2.812  10.888  15.134  1.00  0.00    -0.313 NA
ATOM     21  H   UNL     1      -2.261  11.280  14.358  1.00  0.00     0.186 HD
ENDBRANCH  19  20
ENDBRANCH  18  19
ENDBRANCH   3  18
TORSDOF 6
ENDMDL
MODEL 2
REMARK VINA RESULT:    -4.102      3.321      5.557
REMARK INTER + INTRA:          -5.639
REMARK INTER:                  -5.391
REMARK INTRA:                  -0.248
REMARK UNBOUND:                -0.218
REMARK SMILES [H]/N=C\C[C@H]1C[C@@H]1O[C@H]1CO[C@H]2C[C@@H](C3CC3)CCN2C1
REMARK SMILES IDX 7 1 6 2 5 3 8 4 9 5 14 6 13 7 18 8 12 9 19 10 20 11 11 12
REMARK SMILES IDX 21 13 10 14 15 15 16 16 17 17 4 18 3 19 2 20 1 21
REMARK H PARENT
ROOT
ATOM      1  C   UNL     1      -7.834   3.575  12.228  1.00  0.00     0.122 C 
ATOM      2  C   UNL     1      -9.140   4.265  12.503  1.00  0.00     0.039 C 
ATOM      3  C   UNL     1      -9.112   2.783  12.258  1.00  0.00     0.026 C 
ENDROOT
BRANCH   1   4
ATOM      4  O   UNL     1      -7.282   3.859  10.928  1.00  0.00    -0.371 OA
BRANCH   4   5
ATOM      5  C   UNL     1      -6.674   5.153  10.783  1.00  0.00     0.158 C 
ATOM      6  C   UNL     1      -2.834   3.850   7.502  1.00  0.00    -0.003 C 
ATOM      7  C   UNL     1      -3.138   3.615   8.987  1.00  0.00     0.052 C 
ATOM      8  C   UNL     1      -4.153   3.908   6.718  1.00  0.00     0.019 C 
ATOM      9  C   UNL     1      -4.145   4.636   9.531  1.00  0.00     0.189 C 
ATOM     10  C   UNL     1      -5.124   4.917   7.331  1.00  0.00     0.087 C 
ATOM     11  N   UNL     1      -5.375   4.612   8.739  1.00  0.00    -0.276 NA
ATOM     12  O   UNL     1      -4.381   4.289  10.897  1.00  0.00    -0.360 OA
ATOM     13  C   UNL     1      -6.372   5.520   9.319  1.00  0.00     0.121 C 
ATOM     14  C   UNL     1      -5.339   5.140  11.534  1.00  0.00     0.195 C 
BRANCH   6  15
ATOM     15  C   UNL     1      -1.931   2.775   6.943  1.00  0.00    -0.008 C 
ATOM     16  C   UNL     1      -0.581   3.134   6.368  1.00  0.00     0.004 C 
ATOM     17  C   UNL     1      -0.664   2.378   7.662  1.00  0.00     0.004 C 
ENDBRANCH   6  15
ENDBRANCH   4   5
ENDBRANCH   1   4
BRANCH   3  18
ATOM     18  C   UNL     1      -9.398   1.853  13.399  1.00  0.00     0.053 C 
BRANCH  18  19
ATOM     19  C   UNL     1     -10.611   2.174  14.233  1.00  0.00     0.074 C 
BRANCH  19  20
ATOM     20  N   UNL     1     -11.759   1.588  14.158  1.00  0.00    -0.313 NA
ATOM     21  H   UNL     1     -11.684   0.579  14.351  1.00  0.00     0.186 HD
ENDBRANCH  19  20
ENDBRANCH  18  19
ENDBRANCH   3  18
TORSDOF 6
ENDMDL
MODEL 3
REMARK VINA RESULT:    -3.999      5.207      8.426
REMARK INTER + INTRA:          -5.502
REMARK INTER:                  -5.316
REMARK INTRA:                  -0.186
REMARK UNBOUND:                -0.218
REMARK SMILES [H]/N=C\C[C@H]1C[C@@H]1O[C@H]1CO[C@H]2C[C@@H](C3CC3)CCN2C1
REMARK SMILES IDX 7 1 6 2 5 3 8 4 9 5 14 6 13 7 18 8 12 9 19 10 20 11 11 12
REMARK SMILES IDX 21 13 10 14 15 15 16 16 17 17 4 18 3 19 2 20 1 21
REMARK H PARENT
ROOT
ATOM      1  C   UNL     1      -5.944   4.387  11.273  1.00  0.00     0.122 C 
ATOM      2  C   UNL     1      -4.758   5.132  11.816  1.00  0.00     0.039 C 
ATOM      3  C   UNL     1      -4.641   3.670  11.495  1.00  0.00     0.026 C 
ENDROOT
BRANCH   1   4
ATOM      4  O   UNL     1      -6.983   4.150  12.242  1.00  0.00    -0.371 OA
BRANCH   4   5
ATOM      5  C   UNL     1      -8.326   4.184  11.732  1.00  0.00     0.158 C 
ATOM      6  C   UNL     1     -10.730   1.789  15.693  1.00  0.00    -0.003 C 
ATOM      7  C   UNL     1      -9.786   1.362  14.562  1.00  0.00     0.052 C 
ATOM      8  C   UNL     1     -10.398   3.226  16.116  1.00  0.00     0.019 C 
ATOM      9  C   UNL     1      -9.790   2.372  13.405  1.00  0.00     0.189 C 
ATOM     10  C   UNL     1     -10.384   4.173  14.916  1.00  0.00     0.087 C 
ATOM     11  N   UNL     1      -9.448   3.708  13.893  1.00  0.00    -0.276 NA
ATOM     12  O   UNL     1      -8.847   1.895  12.443  1.00  0.00    -0.360 OA
ATOM     13  C   UNL     1      -9.359   4.651  12.773  1.00  0.00     0.121 C 
ATOM     14  C   UNL     1      -8.712   2.762  11.313  1.00  0.00     0.195 C 
BRANCH   6  15
ATOM     15  C   UNL     1     -10.636   0.852  16.876  1.00  0.00    -0.008 C 
ATOM     16  C   UNL     1     -11.854   0.567  17.723  1.00  0.00     0.004 C 
ATOM     17  C   UNL     1     -11.291  -0.508  16.840  1.00  0.00     0.004 C 
ENDBRANCH   6  15
ENDBRANCH   4   5
ENDBRANCH   1   4
BRANCH   3  18
ATOM     18  C   UNL     1      -3.802   3.248  10.325  1.00  0.00     0.053 C 
BRANCH  18  19
ATOM     19  C   UNL     1      -2.912   2.051  10.541  1.00  0.00     0.074 C 
BRANCH  19  20
ATOM     20  N   UNL     1      -2.460   1.639  11.678  1.00  0.00    -0.313 NA
ATOM     21  H   UNL     1      -1.830   2.329  12.110  1.00  0.00     0.186 HD
ENDBRANCH  19  20
ENDBRANCH  18  19
ENDBRANCH   3  18
TORSDOF 6
ENDMDL
MODEL 4
REMARK VINA RESULT:    -3.983      2.684      8.579
REMARK INTER + INTRA:          -5.482
REMARK INTER:                  -5.249
REMARK INTRA:                  -0.233
REMARK UNBOUND:                -0.218
REMARK SMILES [H]/N=C\C[C@H]1C[C@@H]1O[C@H]1CO[C@H]2C[C@@H](C3CC3)CCN2C1
REMARK SMILES IDX 7 1 6 2 5 3 8 4 9 5 14 6 13 7 18 8 12 9 19 10 20 11 11 12
REMARK SMILES IDX 21 13 10 14 15 15 16 16 17 17 4 18 3 19 2 20 1 21
REMARK H PARENT
ROOT
ATOM      1  C   UNL     1      -5.381   5.273  11.232  1.00  0.00     0.122 C 
ATOM      2  C   UNL     1      -6.752   4.706  10.992  1.00  0.00     0.039 C 
ATOM      3  C   UNL     1      -6.128   5.614   9.972  1.00  0.00     0.026 C 
ENDROOT
BRANCH   1   4
ATOM      4  O   UNL     1      -5.335   6.290  12.250  1.00  0.00    -0.371 OA
BRANCH   4   5
ATOM      5  C   UNL     1      -4.119   6.350  13.012  1.00  0.00     0.158 C 
ATOM      6  C   UNL     1      -4.714  11.107  15.066  1.00  0.00    -0.003 C 
ATOM      7  C   UNL     1      -4.396  10.543  13.676  1.00  0.00     0.052 C 
ATOM      8  C   UNL     1      -5.636  10.131  15.810  1.00  0.00     0.019 C 
ATOM      9  C   UNL     1      -3.856   9.109  13.753  1.00  0.00     0.189 C 
ATOM     10  C   UNL     1      -5.059   8.716  15.822  1.00  0.00     0.087 C 
ATOM     11  N   UNL     1      -4.801   8.245  14.461  1.00  0.00    -0.276 NA
ATOM     12  O   UNL     1      -3.642   8.679  12.407  1.00  0.00    -0.360 OA
ATOM     13  C   UNL     1      -4.328   6.856  14.450  1.00  0.00     0.121 C 
ATOM     14  C   UNL     1      -3.169   7.332  12.317  1.00  0.00     0.195 C 
BRANCH   6  15
ATOM     15  C   UNL     1      -5.351  12.476  14.976  1.00  0.00    -0.008 C 
ATOM     16  C   UNL     1      -4.982  13.556  15.965  1.00  0.00     0.004 C 
ATOM     17  C   UNL     1      -4.549  13.675  14.532  1.00  0.00     0.004 C 
ENDBRANCH   6  15
ENDBRANCH   4   5
ENDBRANCH   1   4
BRANCH   3  18
ATOM     18  C   UNL     1      -5.694   5.039   8.656  1.00  0.00     0.053 C 
BRANCH  18  19
ATOM     19  C   UNL     1      -6.055   5.836   7.430  1.00  0.00     0.074 C 
BRANCH  19  20
ATOM     20  N   UNL     1      -7.042   6.662   7.326  1.00  0.00    -0.313 NA
ATOM     21  H   UNL     1      -7.359   6.754   6.351  1.00  0.00     0.186 HD
ENDBRANCH  19  20
ENDBRANCH  18  19
ENDBRANCH   3  18
TORSDOF 6
ENDMDL
MODEL 5
REMARK VINA RESULT:    -3.883      4.419      7.105
REMARK INTER + INTRA:          -5.350
REMARK INTER:                  -5.154
REMARK INTRA:                  -0.196
REMARK UNBOUND:                -0.218
REMARK SMILES [H]/N=C\C[C@H]1C[C@@H]1O[C@H]1CO[C@H]2C[C@@H](C3CC3)CCN2C1
REMARK SMILES IDX 7 1 6 2 5 3 8 4 9 5 14 6 13 7 18 8 12 9 19 10 20 11 11 12
REMARK SMILES IDX 21 13 10 14 15 15 16 16 17 17 4 18 3 19 2 20 1 21
REMARK H PARENT
ROOT
ATOM      1  C   UNL     1      -7.702  10.678  17.315  1.00  0.00     0.122 C 
ATOM      2  C   UNL     1      -7.625  12.179  17.339  1.00  0.00     0.039 C 
ATOM      3  C   UNL     1      -8.852  11.500  16.800  1.00  0.00     0.026 C 
ENDROOT
BRANCH   1   4
ATOM      4  O   UNL     1      -6.855  10.062  16.327  1.00  0.00    -0.371 OA
BRANCH   4   5
ATOM      5  C   UNL     1      -5.614   9.531  16.818  1.00  0.00     0.158 C 
ATOM      6  C   UNL     1      -4.376   6.528  12.737  1.00  0.00    -0.003 C 
ATOM      7  C   UNL     1      -5.413   6.475  13.866  1.00  0.00     0.052 C 
ATOM      8  C   UNL     1      -4.099   7.993  12.372  1.00  0.00     0.019 C 
ATOM      9  C   UNL     1      -5.004   7.350  15.058  1.00  0.00     0.189 C 
ATOM     10  C   UNL     1      -3.731   8.816  13.606  1.00  0.00     0.087 C 
ATOM     11  N   UNL     1      -4.777   8.729  14.625  1.00  0.00    -0.276 NA
ATOM     12  O   UNL     1      -6.060   7.256  16.016  1.00  0.00    -0.360 OA
ATOM     13  C   UNL     1      -4.479   9.583  15.780  1.00  0.00     0.121 C 
ATOM     14  C   UNL     1      -5.835   8.059  17.179  1.00  0.00     0.195 C 
BRANCH   6  15
ATOM     15  C   UNL     1      -4.838   5.756  11.522  1.00  0.00    -0.008 C 
ATOM     16  C   UNL     1      -4.514   4.287  11.382  1.00  0.00     0.004 C 
ATOM     17  C   UNL     1      -5.929   4.719  11.633  1.00  0.00     0.004 C 
ENDBRANCH   6  15
ENDBRANCH   4   5
ENDBRANCH   1   4
BRANCH   3  18
ATOM     18  C   UNL     1     -10.130  11.584  17.579  1.00  0.00     0.053 C 
BRANCH  18  19
ATOM     19  C   UNL     1     -10.985  12.799  17.327  1.00  0.00     0.074 C 
BRANCH  19  20
ATOM     20  N   UNL     1     -11.860  12.927  16.386  1.00  0.00    -0.313 NA
ATOM     21  H   UNL     1     -12.265  12.018  16.118  1.00  0.00     0.186 HD
ENDBRANCH  19  20
ENDBRANCH  18  19
ENDBRANCH   3  18
TORSDOF 6
ENDMDL
MODEL 6
REMARK VINA RESULT:    -3.795      4.134      7.094
REMARK INTER + INTRA:          -5.233
REMARK INTER:                  -4.789
REMARK INTRA:                  -0.444
REMARK UNBOUND:                -0.218
REMARK SMILES [H]/N=C\C[C@H]1C[C@@H]1O[C@H]1CO[C@H]2C[C@@H](C3CC3)CCN2C1
REMARK SMILES IDX 7 1 6 2 5 3 8 4 9 5 14 6 13 7 18 8 12 9 19 10 20 11 11 12
REMARK SMILES IDX 21 13 10 14 15 15 16 16 17 17 4 18 3 19 2 20 1 21
REMARK H PARENT
ROOT
ATOM      1  C   UNL     1      -7.478   9.564  17.903  1.00  0.00     0.122 C 
ATOM      2  C   UNL     1      -8.762  10.333  17.772  1.00  0.00     0.039 C 
ATOM      3  C   UNL     1      -8.694   8.907  17.309  1.00  0.00     0.026 C 
ENDROOT
BRANCH   1   4
ATOM      4  O   UNL     1      -6.451   9.974  16.981  1.00  0.00    -0.371 OA
BRANCH   4   5
ATOM      5  C   UNL     1      -5.125   9.510  17.282  1.00  0.00     0.158 C 
ATOM      6  C   UNL     1      -4.226   6.816  12.907  1.00  0.00    -0.003 C 
ATOM      7  C   UNL     1      -5.105   6.630  14.150  1.00  0.00     0.052 C 
ATOM      8  C   UNL     1      -4.092   8.313  12.599  1.00  0.00     0.019 C 
ATOM      9  C   UNL     1      -4.605   7.471  15.333  1.00  0.00     0.189 C 
ATOM     10  C   UNL     1      -3.624   9.097  13.825  1.00  0.00     0.087 C 
ATOM     11  N   UNL     1      -4.524   8.882  14.958  1.00  0.00    -0.276 NA
ATOM     12  O   UNL     1      -5.522   7.252  16.406  1.00  0.00    -0.360 OA
ATOM     13  C   UNL     1      -4.138   9.696  16.117  1.00  0.00     0.121 C 
ATOM     14  C   UNL     1      -5.203   8.008  17.579  1.00  0.00     0.195 C 
BRANCH   6  15
ATOM     15  C   UNL     1      -4.788   6.076  11.715  1.00  0.00    -0.008 C 
ATOM     16  C   UNL     1      -4.481   4.611  11.510  1.00  0.00     0.004 C 
ATOM     17  C   UNL     1      -5.870   5.037  11.888  1.00  0.00     0.004 C 
ENDBRANCH   6  15
ENDBRANCH   4   5
ENDBRANCH   1   4
BRANCH   3  18
ATOM     18  C   UNL     1      -9.437   7.856  18.078  1.00  0.00     0.053 C 
BRANCH  18  19
ATOM     19  C   UNL     1      -9.102   6.425  17.747  1.00  0.00     0.074 C 
BRANCH  19  20
ATOM     20  N   UNL     1      -7.927   5.968  17.467  1.00  0.00    -0.313 NA
ATOM     21  H   UNL     1      -7.721   6.041  16.461  1.00  0.00     0.186 HD
ENDBRANCH  19  20
ENDBRANCH  18  19
ENDBRANCH   3  18
TORSDOF 6
ENDMDL
MODEL 7
REMARK VINA RESULT:    -3.638      5.518      7.040
REMARK INTER + INTRA:          -5.026
REMARK INTER:                  -4.745
REMARK INTRA:                  -0.280
REMARK UNBOUND:                -0.218
REMARK SMILES [H]/N=C\C[C@H]1C[C@@H]1O[C@H]1CO[C@H]2C[C@@H](C3CC3)CCN2C1
REMARK SMILES IDX 7 1 6 2 5 3 8 4 9 5 14 6 13 7 18 8 12 9 19 10 20 11 11 12
REMARK SMILES IDX 21 13 10 14 15 15 16 16 17 17 4 18 3 19 2 20 1 21
REMARK H PARENT
ROOT
ATOM      1  C   UNL     1     -10.388   5.952  17.497  1.00  0.00     0.122 C 
ATOM      2  C   UNL     1      -9.863   5.947  18.905  1.00  0.00     0.039 C 
ATOM      3  C   UNL     1      -8.909   6.065  17.751  1.00  0.00     0.026 C 
ENDROOT
BRANCH   1   4
ATOM      4  O   UNL     1     -10.868   4.672  17.045  1.00  0.00    -0.371 OA
BRANCH   4   5
ATOM      5  C   UNL     1     -11.783   4.709  15.937  1.00  0.00     0.158 C 
ATOM      6  C   UNL     1      -8.394   3.744  12.092  1.00  0.00    -0.003 C 
ATOM      7  C   UNL     1      -8.696   4.928  13.018  1.00  0.00     0.052 C 
ATOM      8  C   UNL     1      -8.680   2.432  12.837  1.00  0.00     0.019 C 
ATOM      9  C   UNL     1     -10.108   4.841  13.612  1.00  0.00     0.189 C 
ATOM     10  C   UNL     1     -10.087   2.423  13.432  1.00  0.00     0.087 C 
ATOM     11  N   UNL     1     -10.289   3.572  14.316  1.00  0.00    -0.276 NA
ATOM     12  O   UNL     1     -10.254   5.964  14.484  1.00  0.00    -0.360 OA
ATOM     13  C   UNL     1     -11.604   3.531  14.964  1.00  0.00     0.121 C 
ATOM     14  C   UNL     1     -11.522   5.996  15.148  1.00  0.00     0.195 C 
BRANCH   6  15
ATOM     15  C   UNL     1      -6.964   3.774  11.600  1.00  0.00    -0.008 C 
ATOM     16  C   UNL     1      -6.574   4.662  10.442  1.00  0.00     0.004 C 
ATOM     17  C   UNL     1      -6.094   4.987  11.827  1.00  0.00     0.004 C 
ENDBRANCH   6  15
ENDBRANCH   4   5
ENDBRANCH   1   4
BRANCH   3  18
ATOM     18  C   UNL     1      -8.201   7.367  17.523  1.00  0.00     0.053 C 
BRANCH  18  19
ATOM     19  C   UNL     1      -6.973   7.314  16.651  1.00  0.00     0.074 C 
BRANCH  19  20
ATOM     20  N   UNL     1      -6.807   6.550  15.624  1.00  0.00    -0.313 NA
ATOM     21  H   UNL     1      -7.058   7.031  14.748  1.00  0.00     0.186 HD
ENDBRANCH  19  20
ENDBRANCH  18  19
ENDBRANCH   3  18
TORSDOF 6
ENDMDL
MODEL 8
REMARK VINA RESULT:    -3.636      4.857      7.275
REMARK INTER + INTRA:          -5.023
REMARK INTER:                  -4.746
REMARK INTRA:                  -0.277
REMARK UNBOUND:                -0.218
REMARK SMILES [H]/N=C\C[C@H]1C[C@@H]1O[C@H]1CO[C@H]2C[C@@H](C3CC3)CCN2C1
REMARK SMILES IDX 7 1 6 2 5 3 8 4 9 5 14 6 13 7 18 8 12 9 19 10 20 11 11 12
REMARK SMILES IDX 21 13 10 14 15 15 16 16 17 17 4 18 3 19 2 20 1 21
REMARK H PARENT
ROOT
ATOM      1  C   UNL     1      -9.911   1.454  14.677  1.00  0.00     0.122 C 
ATOM      2  C   UNL     1      -9.716   0.041  15.151  1.00  0.00     0.039 C 
ATOM      3  C   UNL     1      -9.341   1.189  16.044  1.00  0.00     0.026 C 
ENDROOT
BRANCH   1   4
ATOM      4  O   UNL     1      -8.980   1.866  13.659  1.00  0.00    -0.371 OA
BRANCH   4   5
ATOM      5  C   UNL     1      -9.509   2.748  12.655  1.00  0.00     0.158 C 
ATOM      6  C   UNL     1      -5.302   5.750  11.954  1.00  0.00    -0.003 C 
ATOM      7  C   UNL     1      -6.353   5.574  13.056  1.00  0.00     0.052 C 
ATOM      8  C   UNL     1      -5.066   4.403  11.257  1.00  0.00     0.019 C 
ATOM      9  C   UNL     1      -7.632   4.913  12.523  1.00  0.00     0.189 C 
ATOM     10  C   UNL     1      -6.380   3.783  10.781  1.00  0.00     0.087 C 
ATOM     11  N   UNL     1      -7.320   3.631  11.891  1.00  0.00    -0.276 NA
ATOM     12  O   UNL     1      -8.510   4.761  13.640  1.00  0.00    -0.360 OA
ATOM     13  C   UNL     1      -8.553   2.958  11.468  1.00  0.00     0.121 C 
ATOM     14  C   UNL     1      -9.742   4.118  13.301  1.00  0.00     0.195 C 
BRANCH   6  15
ATOM     15  C   UNL     1      -4.004   6.295  12.507  1.00  0.00    -0.008 C 
ATOM     16  C   UNL     1      -3.701   7.773  12.428  1.00  0.00     0.004 C 
ATOM     17  C   UNL     1      -3.991   7.141  13.758  1.00  0.00     0.004 C 
ENDBRANCH   6  15
ENDBRANCH   4   5
ENDBRANCH   1   4
BRANCH   3  18
ATOM     18  C   UNL     1     -10.163   1.454  17.270  1.00  0.00     0.053 C 
BRANCH  18  19
ATOM     19  C   UNL     1      -9.612   2.472  18.234  1.00  0.00     0.074 C 
BRANCH  19  20
ATOM     20  N   UNL     1      -9.159   3.641  17.925  1.00  0.00    -0.313 NA
ATOM     21  H   UNL     1      -8.190   3.593  17.578  1.00  0.00     0.186 HD
ENDBRANCH  19  20
ENDBRANCH  18  19
ENDBRANCH   3  18
TORSDOF 6
ENDMDL
MODEL 9
REMARK VINA RESULT:    -3.619      5.617      8.848
REMARK INTER + INTRA:          -5.001
REMARK INTER:                  -4.613
REMARK INTRA:                  -0.388
REMARK UNBOUND:                -0.218
REMARK SMILES [H]/N=C\C[C@H]1C[C@@H]1O[C@H]1CO[C@H]2C[C@@H](C3CC3)CCN2C1
REMARK SMILES IDX 7 1 6 2 5 3 8 4 9 5 14 6 13 7 18 8 12 9 19 10 20 11 11 12
REMARK SMILES IDX 21 13 10 14 15 15 16 16 17 17 4 18 3 19 2 20 1 21
REMARK H PARENT
ROOT
ATOM      1  C   UNL     1      -7.746  11.804  17.719  1.00  0.00     0.122 C 
ATOM      2  C   UNL     1      -8.435  11.571  16.405  1.00  0.00     0.039 C 
ATOM      3  C   UNL     1      -9.248  11.757  17.654  1.00  0.00     0.026 C 
ENDROOT
BRANCH   1   4
ATOM      4  O   UNL     1      -7.087  10.639  18.251  1.00  0.00    -0.371 OA
BRANCH   4   5
ATOM      5  C   UNL     1      -5.685  10.792  18.529  1.00  0.00     0.158 C 
ATOM      6  C   UNL     1      -3.792   9.008  14.008  1.00  0.00    -0.003 C 
ATOM      7  C   UNL     1      -4.471   8.388  15.236  1.00  0.00     0.052 C 
ATOM      8  C   UNL     1      -4.341  10.425  13.787  1.00  0.00     0.019 C 
ATOM      9  C   UNL     1      -4.365   9.299  16.466  1.00  0.00     0.189 C 
ATOM     10  C   UNL     1      -4.237  11.268  15.057  1.00  0.00     0.087 C 
ATOM     11  N   UNL     1      -4.924  10.619  16.174  1.00  0.00    -0.276 NA
ATOM     12  O   UNL     1      -5.066   8.642  17.523  1.00  0.00    -0.360 OA
ATOM     13  C   UNL     1      -4.909  11.457  17.378  1.00  0.00     0.121 C 
ATOM     14  C   UNL     1      -5.086   9.398  18.738  1.00  0.00     0.195 C 
BRANCH   6  15
ATOM     15  C   UNL     1      -3.998   8.160  12.773  1.00  0.00    -0.008 C 
ATOM     16  C   UNL     1      -2.936   7.180  12.334  1.00  0.00     0.004 C 
ATOM     17  C   UNL     1      -4.237   6.674  12.886  1.00  0.00     0.004 C 
ENDBRANCH   6  15
ENDBRANCH   4   5
ENDBRANCH   1   4
BRANCH   3  18
ATOM     18  C   UNL     1     -10.051  13.013  17.818  1.00  0.00     0.053 C 
BRANCH  18  19
ATOM     19  C   UNL     1     -11.520  12.910  17.500  1.00  0.00     0.074 C 
BRANCH  19  20
ATOM     20  N   UNL     1     -12.049  13.008  16.326  1.00  0.00    -0.313 NA
ATOM     21  H   UNL     1     -11.651  12.320  15.671  1.00  0.00     0.186 HD
ENDBRANCH  19  20
ENDBRANCH  18  19
ENDBRANCH   3  18
TORSDOF 6
ENDMDL
