MODEL 1
REMARK VINA RESULT:    -6.025      0.000      0.000
REMARK INTER + INTRA:          -7.556
REMARK INTER:                  -7.081
REMARK INTRA:                  -0.475
REMARK UNBOUND:                -0.475
REMARK SMILES Cc1ccc(CNC(=O)NC(=O)c2ccc(C)cc2)cc1
REMARK SMILES IDX 11 1 12 2 10 3 8 4 9 5 7 6 13 9 19 10 18 11 14 12 16 13
REMARK SMILES IDX 15 14 17 15 6 16 5 17 4 18 20 19 3 20 21 21 2 22 1 23
REMARK H PARENT 10 7 7 8
ROOT
ATOM      1  C   UNL     1      -4.683   6.367  12.221  1.00  0.00     0.259 C 
ATOM      2  O   UNL     1      -3.828   6.200  11.361  1.00  0.00    -0.269 OA
ATOM      3  N   UNL     1      -5.902   5.701  12.384  1.00  0.00    -0.274 N 
ATOM      4  C   UNL     1      -6.508   4.567  11.908  1.00  0.00     0.321 C 
ATOM      5  O   UNL     1      -7.584   4.236  12.417  1.00  0.00    -0.248 OA
ATOM      6  N   UNL     1      -5.980   3.788  10.945  1.00  0.00    -0.334 N 
ATOM      7  H   UNL     1      -6.456   6.030  13.163  1.00  0.00     0.175 HD
ATOM      8  H   UNL     1      -6.508   2.945  10.769  1.00  0.00     0.165 HD
ENDROOT
BRANCH   1   9
ATOM      9  C   UNL     1      -4.406   7.402  13.235  1.00  0.00     0.040 A 
ATOM     10  C   UNL     1      -3.861   8.638  12.884  1.00  0.00     0.014 A 
ATOM     11  C   UNL     1      -3.666   9.605  13.871  1.00  0.00     0.004 A 
ATOM     12  C   UNL     1      -4.700   7.108  14.570  1.00  0.00     0.014 A 
ATOM     13  C   UNL     1      -4.006   9.339  15.206  1.00  0.00    -0.051 A 
ATOM     14  C   UNL     1      -4.509   8.079  15.552  1.00  0.00     0.004 A 
ATOM     15  C   UNL     1      -3.870  10.417  16.240  1.00  0.00     0.044 C 
ENDBRANCH   1   9
BRANCH   6  16
ATOM     16  C   UNL     1      -4.705   3.934  10.302  1.00  0.00     0.153 C 
BRANCH  16  17
ATOM     17  C   UNL     1      -4.648   3.686   8.820  1.00  0.00    -0.029 A 
ATOM     18  C   UNL     1      -4.429   2.420   8.266  1.00  0.00     0.006 A 
ATOM     19  C   UNL     1      -5.041   4.737   7.976  1.00  0.00     0.006 A 
ATOM     20  C   UNL     1      -4.626   2.212   6.897  1.00  0.00     0.004 A 
ATOM     21  C   UNL     1      -5.241   4.527   6.615  1.00  0.00     0.004 A 
ATOM     22  C   UNL     1      -5.045   3.260   6.065  1.00  0.00    -0.051 A 
ATOM     23  C   UNL     1      -5.395   3.012   4.628  1.00  0.00     0.044 C 
ENDBRANCH  16  17
ENDBRANCH   6  16
TORSDOF 3
ENDMDL
MODEL 2
REMARK VINA RESULT:    -6.020      3.039      5.472
REMARK INTER + INTRA:          -7.551
REMARK INTER:                  -7.070
REMARK INTRA:                  -0.480
REMARK UNBOUND:                -0.475
REMARK SMILES Cc1ccc(CNC(=O)NC(=O)c2ccc(C)cc2)cc1
REMARK SMILES IDX 11 1 12 2 10 3 8 4 9 5 7 6 13 9 19 10 18 11 14 12 16 13
REMARK SMILES IDX 15 14 17 15 6 16 5 17 4 18 20 19 3 20 21 21 2 22 1 23
REMARK H PARENT 10 7 7 8
ROOT
ATOM      1  C   UNL     1      -7.390   3.931  11.804  1.00  0.00     0.259 C 
ATOM      2  O   UNL     1      -7.269   3.352  10.734  1.00  0.00    -0.269 OA
ATOM      3  N   UNL     1      -6.542   4.877  12.388  1.00  0.00    -0.274 N 
ATOM      4  C   UNL     1      -5.490   5.669  12.004  1.00  0.00     0.321 C 
ATOM      5  O   UNL     1      -5.077   6.506  12.814  1.00  0.00    -0.248 OA
ATOM      6  N   UNL     1      -4.913   5.602  10.790  1.00  0.00    -0.334 N 
ATOM      7  H   UNL     1      -6.843   5.203  13.297  1.00  0.00     0.175 HD
ATOM      8  H   UNL     1      -4.210   6.310  10.634  1.00  0.00     0.165 HD
ENDROOT
BRANCH   1   9
ATOM      9  C   UNL     1      -8.590   3.606  12.599  1.00  0.00     0.040 A 
ATOM     10  C   UNL     1      -9.030   2.290  12.749  1.00  0.00     0.014 A 
ATOM     11  C   UNL     1     -10.139   2.027  13.553  1.00  0.00     0.004 A 
ATOM     12  C   UNL     1      -9.285   4.661  13.200  1.00  0.00     0.014 A 
ATOM     13  C   UNL     1     -10.813   3.072  14.202  1.00  0.00    -0.051 A 
ATOM     14  C   UNL     1     -10.388   4.393  14.008  1.00  0.00     0.004 A 
ATOM     15  C   UNL     1     -11.950   2.765  15.131  1.00  0.00     0.044 C 
ENDBRANCH   1   9
BRANCH   6  16
ATOM     16  C   UNL     1      -5.303   4.782   9.678  1.00  0.00     0.153 C 
BRANCH  16  17
ATOM     17  C   UNL     1      -4.207   4.118   8.892  1.00  0.00    -0.029 A 
ATOM     18  C   UNL     1      -3.598   4.711   7.781  1.00  0.00     0.006 A 
ATOM     19  C   UNL     1      -3.641   2.953   9.434  1.00  0.00     0.006 A 
ATOM     20  C   UNL     1      -2.432   4.157   7.243  1.00  0.00     0.004 A 
ATOM     21  C   UNL     1      -2.478   2.406   8.901  1.00  0.00     0.004 A 
ATOM     22  C   UNL     1      -1.857   3.009   7.807  1.00  0.00    -0.051 A 
ATOM     23  C   UNL     1      -0.534   2.493   7.327  1.00  0.00     0.044 C 
ENDBRANCH  16  17
ENDBRANCH   6  16
TORSDOF 3
ENDMDL
MODEL 3
REMARK VINA RESULT:    -6.013      3.171      7.327
REMARK INTER + INTRA:          -7.543
REMARK INTER:                  -7.173
REMARK INTRA:                  -0.370
REMARK UNBOUND:                -0.475
REMARK SMILES Cc1ccc(CNC(=O)NC(=O)c2ccc(C)cc2)cc1
REMARK SMILES IDX 11 1 12 2 10 3 8 4 9 5 7 6 13 9 19 10 18 11 14 12 16 13
REMARK SMILES IDX 15 14 17 15 6 16 5 17 4 18 20 19 3 20 21 21 2 22 1 23
REMARK H PARENT 10 7 7 8
ROOT
ATOM      1  C   UNL     1      -5.106   4.135  10.001  1.00  0.00     0.259 C 
ATOM      2  O   UNL     1      -6.165   3.618   9.677  1.00  0.00    -0.269 OA
ATOM      3  N   UNL     1      -4.855   5.041  11.036  1.00  0.00    -0.274 N 
ATOM      4  C   UNL     1      -5.499   5.507  12.153  1.00  0.00     0.321 C 
ATOM      5  O   UNL     1      -4.861   6.237  12.920  1.00  0.00    -0.248 OA
ATOM      6  N   UNL     1      -6.767   5.187  12.469  1.00  0.00    -0.334 N 
ATOM      7  H   UNL     1      -3.893   5.349  11.096  1.00  0.00     0.175 HD
ATOM      8  H   UNL     1      -7.065   5.542  13.366  1.00  0.00     0.165 HD
ENDROOT
BRANCH   1   9
ATOM      9  C   UNL     1      -3.919   3.761   9.208  1.00  0.00     0.040 A 
ATOM     10  C   UNL     1      -3.441   4.578   8.182  1.00  0.00     0.014 A 
ATOM     11  C   UNL     1      -2.284   4.208   7.495  1.00  0.00     0.004 A 
ATOM     12  C   UNL     1      -3.282   2.553   9.509  1.00  0.00     0.014 A 
ATOM     13  C   UNL     1      -1.609   3.024   7.825  1.00  0.00    -0.051 A 
ATOM     14  C   UNL     1      -2.123   2.191   8.825  1.00  0.00     0.004 A 
ATOM     15  C   UNL     1      -0.320   2.683   7.135  1.00  0.00     0.044 C 
ENDBRANCH   1   9
BRANCH   6  16
ATOM     16  C   UNL     1      -7.640   4.281  11.777  1.00  0.00     0.153 C 
BRANCH  16  17
ATOM     17  C   UNL     1      -8.815   3.737  12.541  1.00  0.00    -0.029 A 
ATOM     18  C   UNL     1      -9.063   2.368  12.686  1.00  0.00     0.006 A 
ATOM     19  C   UNL     1      -9.561   4.647  13.308  1.00  0.00     0.006 A 
ATOM     20  C   UNL     1     -10.024   1.924  13.601  1.00  0.00     0.004 A 
ATOM     21  C   UNL     1     -10.513   4.203  14.221  1.00  0.00     0.004 A 
ATOM     22  C   UNL     1     -10.745   2.836  14.383  1.00  0.00    -0.051 A 
ATOM     23  C   UNL     1     -11.671   2.364  15.463  1.00  0.00     0.044 C 
ENDBRANCH  16  17
ENDBRANCH   6  16
TORSDOF 3
ENDMDL
MODEL 4
REMARK VINA RESULT:    -5.999      0.540      8.050
REMARK INTER + INTRA:          -7.526
REMARK INTER:                  -7.150
REMARK INTRA:                  -0.376
REMARK UNBOUND:                -0.475
REMARK SMILES Cc1ccc(CNC(=O)NC(=O)c2ccc(C)cc2)cc1
REMARK SMILES IDX 11 1 12 2 10 3 8 4 9 5 7 6 13 9 19 10 18 11 14 12 16 13
REMARK SMILES IDX 15 14 17 15 6 16 5 17 4 18 20 19 3 20 21 21 2 22 1 23
REMARK H PARENT 10 7 7 8
ROOT
ATOM      1  C   UNL     1      -4.893   4.516   9.955  1.00  0.00     0.259 C 
ATOM      2  O   UNL     1      -3.838   5.026  10.305  1.00  0.00    -0.269 OA
ATOM      3  N   UNL     1      -6.062   4.325  10.699  1.00  0.00    -0.274 N 
ATOM      4  C   UNL     1      -6.594   4.770  11.882  1.00  0.00     0.321 C 
ATOM      5  O   UNL     1      -7.762   4.459  12.138  1.00  0.00    -0.248 OA
ATOM      6  N   UNL     1      -5.924   5.545  12.755  1.00  0.00    -0.334 N 
ATOM      7  H   UNL     1      -6.804   3.857  10.196  1.00  0.00     0.175 HD
ATOM      8  H   UNL     1      -6.484   5.857  13.535  1.00  0.00     0.165 HD
ENDROOT
BRANCH   1   9
ATOM      9  C   UNL     1      -4.964   4.035   8.562  1.00  0.00     0.040 A 
ATOM     10  C   UNL     1      -4.767   2.689   8.246  1.00  0.00     0.014 A 
ATOM     11  C   UNL     1      -4.897   2.272   6.920  1.00  0.00     0.004 A 
ATOM     12  C   UNL     1      -5.229   4.970   7.557  1.00  0.00     0.014 A 
ATOM     13  C   UNL     1      -5.214   3.194   5.911  1.00  0.00    -0.051 A 
ATOM     14  C   UNL     1      -5.364   4.548   6.235  1.00  0.00     0.004 A 
ATOM     15  C   UNL     1      -5.433   2.717   4.506  1.00  0.00     0.044 C 
ENDBRANCH   1   9
BRANCH   6  16
ATOM     16  C   UNL     1      -4.608   6.099  12.603  1.00  0.00     0.153 C 
BRANCH  16  17
ATOM     17  C   UNL     1      -4.273   7.316  13.420  1.00  0.00    -0.029 A 
ATOM     18  C   UNL     1      -3.884   8.534  12.852  1.00  0.00     0.006 A 
ATOM     19  C   UNL     1      -4.572   7.272  14.792  1.00  0.00     0.006 A 
ATOM     20  C   UNL     1      -3.822   9.686  13.642  1.00  0.00     0.004 A 
ATOM     21  C   UNL     1      -4.514   8.420  15.575  1.00  0.00     0.004 A 
ATOM     22  C   UNL     1      -4.148   9.640  15.005  1.00  0.00    -0.051 A 
ATOM     23  C   UNL     1      -4.222  10.894  15.824  1.00  0.00     0.044 C 
ENDBRANCH  16  17
ENDBRANCH   6  16
TORSDOF 3
ENDMDL
MODEL 5
REMARK VINA RESULT:    -5.712      3.005      5.200
REMARK INTER + INTRA:          -7.189
REMARK INTER:                  -6.736
REMARK INTRA:                  -0.453
REMARK UNBOUND:                -0.475
REMARK SMILES Cc1ccc(CNC(=O)NC(=O)c2ccc(C)cc2)cc1
REMARK SMILES IDX 11 1 12 2 10 3 8 4 9 5 7 6 13 9 19 10 18 11 14 12 16 13
REMARK SMILES IDX 15 14 17 15 6 16 5 17 4 18 20 19 3 20 21 21 2 22 1 23
REMARK H PARENT 10 7 7 8
ROOT
ATOM      1  C   UNL     1      -7.584   3.879  11.688  1.00  0.00     0.259 C 
ATOM      2  O   UNL     1      -7.638   3.398  10.565  1.00  0.00    -0.269 OA
ATOM      3  N   UNL     1      -6.581   4.674  12.251  1.00  0.00    -0.274 N 
ATOM      4  C   UNL     1      -5.495   5.392  11.820  1.00  0.00     0.321 C 
ATOM      5  O   UNL     1      -4.911   6.101  12.647  1.00  0.00    -0.248 OA
ATOM      6  N   UNL     1      -5.057   5.387  10.547  1.00  0.00    -0.334 N 
ATOM      7  H   UNL     1      -6.749   4.938  13.213  1.00  0.00     0.175 HD
ATOM      8  H   UNL     1      -4.301   6.034  10.375  1.00  0.00     0.165 HD
ENDROOT
BRANCH   1   9
ATOM      9  C   UNL     1      -8.722   3.598  12.583  1.00  0.00     0.040 A 
ATOM     10  C   UNL     1      -9.165   2.294  12.811  1.00  0.00     0.014 A 
ATOM     11  C   UNL     1     -10.212   2.074  13.707  1.00  0.00     0.004 A 
ATOM     12  C   UNL     1      -9.357   4.682  13.198  1.00  0.00     0.014 A 
ATOM     13  C   UNL     1     -10.822   3.150  14.368  1.00  0.00    -0.051 A 
ATOM     14  C   UNL     1     -10.398   4.457  14.097  1.00  0.00     0.004 A 
ATOM     15  C   UNL     1     -11.888   2.890  15.391  1.00  0.00     0.044 C 
ENDBRANCH   1   9
BRANCH   6  16
ATOM     16  C   UNL     1      -5.648   4.723   9.420  1.00  0.00     0.153 C 
BRANCH  16  17
ATOM     17  C   UNL     1      -4.724   3.984   8.493  1.00  0.00    -0.029 A 
ATOM     18  C   UNL     1      -5.020   2.723   7.965  1.00  0.00     0.006 A 
ATOM     19  C   UNL     1      -3.624   4.692   7.982  1.00  0.00     0.006 A 
ATOM     20  C   UNL     1      -4.242   2.197   6.928  1.00  0.00     0.004 A 
ATOM     21  C   UNL     1      -2.854   4.170   6.947  1.00  0.00     0.004 A 
ATOM     22  C   UNL     1      -3.162   2.922   6.404  1.00  0.00    -0.051 A 
ATOM     23  C   UNL     1      -2.414   2.430   5.202  1.00  0.00     0.044 C 
ENDBRANCH  16  17
ENDBRANCH   6  16
TORSDOF 3
ENDMDL
MODEL 6
REMARK VINA RESULT:    -5.623      1.029      1.856
REMARK INTER + INTRA:          -7.084
REMARK INTER:                  -6.665
REMARK INTRA:                  -0.419
REMARK UNBOUND:                -0.475
REMARK SMILES Cc1ccc(CNC(=O)NC(=O)c2ccc(C)cc2)cc1
REMARK SMILES IDX 11 1 12 2 10 3 8 4 9 5 7 6 13 9 19 10 18 11 14 12 16 13
REMARK SMILES IDX 15 14 17 15 6 16 5 17 4 18 20 19 3 20 21 21 2 22 1 23
REMARK H PARENT 10 7 7 8
ROOT
ATOM      1  C   UNL     1      -4.546   6.447  12.527  1.00  0.00     0.259 C 
ATOM      2  O   UNL     1      -3.560   6.165  11.861  1.00  0.00    -0.269 OA
ATOM      3  N   UNL     1      -5.818   5.864  12.499  1.00  0.00    -0.274 N 
ATOM      4  C   UNL     1      -6.402   4.731  11.995  1.00  0.00     0.321 C 
ATOM      5  O   UNL     1      -7.574   4.501  12.310  1.00  0.00    -0.248 OA
ATOM      6  N   UNL     1      -5.758   3.849  11.207  1.00  0.00    -0.334 N 
ATOM      7  H   UNL     1      -6.483   6.285  13.133  1.00  0.00     0.175 HD
ATOM      8  H   UNL     1      -6.300   3.025  10.991  1.00  0.00     0.165 HD
ENDROOT
BRANCH   1   9
ATOM      9  C   UNL     1      -4.393   7.543  13.503  1.00  0.00     0.040 A 
ATOM     10  C   UNL     1      -4.666   7.355  14.859  1.00  0.00     0.014 A 
ATOM     11  C   UNL     1      -4.457   8.406  15.751  1.00  0.00     0.004 A 
ATOM     12  C   UNL     1      -3.971   8.789  13.029  1.00  0.00     0.014 A 
ATOM     13  C   UNL     1      -3.983   9.645  15.293  1.00  0.00    -0.051 A 
ATOM     14  C   UNL     1      -3.757   9.835  13.925  1.00  0.00     0.004 A 
ATOM     15  C   UNL     1      -3.682  10.739  16.276  1.00  0.00     0.044 C 
ENDBRANCH   1   9
BRANCH   6  16
ATOM     16  C   UNL     1      -4.378   3.873  10.810  1.00  0.00     0.153 C 
BRANCH  16  17
ATOM     17  C   UNL     1      -4.061   3.488   9.392  1.00  0.00    -0.029 A 
ATOM     18  C   UNL     1      -4.485   4.233   8.286  1.00  0.00     0.006 A 
ATOM     19  C   UNL     1      -3.127   2.458   9.199  1.00  0.00     0.006 A 
ATOM     20  C   UNL     1      -3.960   3.963   7.018  1.00  0.00     0.004 A 
ATOM     21  C   UNL     1      -2.602   2.193   7.938  1.00  0.00     0.004 A 
ATOM     22  C   UNL     1      -3.007   2.951   6.837  1.00  0.00    -0.051 A 
ATOM     23  C   UNL     1      -2.336   2.750   5.511  1.00  0.00     0.044 C 
ENDBRANCH  16  17
ENDBRANCH   6  16
TORSDOF 3
ENDMDL
MODEL 7
REMARK VINA RESULT:    -4.807      1.234      7.919
REMARK INTER + INTRA:          -6.125
REMARK INTER:                  -5.725
REMARK INTRA:                  -0.400
REMARK UNBOUND:                -0.475
REMARK SMILES Cc1ccc(CNC(=O)NC(=O)c2ccc(C)cc2)cc1
REMARK SMILES IDX 11 1 12 2 10 3 8 4 9 5 7 6 13 9 19 10 18 11 14 12 16 13
REMARK SMILES IDX 15 14 17 15 6 16 5 17 4 18 20 19 3 20 21 21 2 22 1 23
REMARK H PARENT 10 7 7 8
ROOT
ATOM      1  C   UNL     1      -4.309   4.110   9.991  1.00  0.00     0.259 C 
ATOM      2  O   UNL     1      -3.401   4.570  10.669  1.00  0.00    -0.269 OA
ATOM      3  N   UNL     1      -5.671   4.022  10.296  1.00  0.00    -0.274 N 
ATOM      4  C   UNL     1      -6.538   4.546  11.220  1.00  0.00     0.321 C 
ATOM      5  O   UNL     1      -7.743   4.317  11.069  1.00  0.00    -0.248 OA
ATOM      6  N   UNL     1      -6.150   5.315  12.254  1.00  0.00    -0.334 N 
ATOM      7  H   UNL     1      -6.231   3.578   9.580  1.00  0.00     0.175 HD
ATOM      8  H   UNL     1      -6.917   5.692  12.791  1.00  0.00     0.165 HD
ENDROOT
BRANCH   1   9
ATOM      9  C   UNL     1      -3.939   3.577   8.666  1.00  0.00     0.040 A 
ATOM     10  C   UNL     1      -4.764   2.678   7.987  1.00  0.00     0.014 A 
ATOM     11  C   UNL     1      -4.397   2.242   6.713  1.00  0.00     0.004 A 
ATOM     12  C   UNL     1      -2.727   3.993   8.105  1.00  0.00     0.014 A 
ATOM     13  C   UNL     1      -3.209   2.693   6.120  1.00  0.00    -0.051 A 
ATOM     14  C   UNL     1      -2.369   3.560   6.830  1.00  0.00     0.004 A 
ATOM     15  C   UNL     1      -2.871   2.282   4.717  1.00  0.00     0.044 C 
ENDBRANCH   1   9
BRANCH   6  16
ATOM     16  C   UNL     1      -4.824   5.782  12.548  1.00  0.00     0.153 C 
BRANCH  16  17
ATOM     17  C   UNL     1      -4.700   7.091  13.276  1.00  0.00    -0.029 A 
ATOM     18  C   UNL     1      -4.872   7.215  14.659  1.00  0.00     0.006 A 
ATOM     19  C   UNL     1      -4.185   8.181  12.556  1.00  0.00     0.006 A 
ATOM     20  C   UNL     1      -4.510   8.402  15.306  1.00  0.00     0.004 A 
ATOM     21  C   UNL     1      -3.820   9.359  13.201  1.00  0.00     0.004 A 
ATOM     22  C   UNL     1      -3.970   9.476  14.584  1.00  0.00    -0.051 A 
ATOM     23  C   UNL     1      -3.448  10.693  15.287  1.00  0.00     0.044 C 
ENDBRANCH  16  17
ENDBRANCH   6  16
TORSDOF 3
ENDMDL
MODEL 8
REMARK VINA RESULT:    -4.356      4.255      8.234
REMARK INTER + INTRA:          -5.595
REMARK INTER:                  -5.247
REMARK INTRA:                  -0.347
REMARK UNBOUND:                -0.475
REMARK SMILES Cc1ccc(CNC(=O)NC(=O)c2ccc(C)cc2)cc1
REMARK SMILES IDX 11 1 12 2 10 3 8 4 9 5 7 6 13 9 19 10 18 11 14 12 16 13
REMARK SMILES IDX 15 14 17 15 6 16 5 17 4 18 20 19 3 20 21 21 2 22 1 23
REMARK H PARENT 10 7 7 8
ROOT
ATOM      1  C   UNL     1      -6.974   4.442  12.022  1.00  0.00     0.259 C 
ATOM      2  O   UNL     1      -6.887   5.413  12.761  1.00  0.00    -0.269 OA
ATOM      3  N   UNL     1      -7.911   3.404  12.048  1.00  0.00    -0.274 N 
ATOM      4  C   UNL     1      -9.124   3.149  12.635  1.00  0.00     0.321 C 
ATOM      5  O   UNL     1      -9.724   2.126  12.288  1.00  0.00    -0.248 OA
ATOM      6  N   UNL     1      -9.700   3.963  13.538  1.00  0.00    -0.334 N 
ATOM      7  H   UNL     1      -7.766   2.694  11.343  1.00  0.00     0.175 HD
ATOM      8  H   UNL     1     -10.630   3.677  13.809  1.00  0.00     0.165 HD
ENDROOT
BRANCH   1   9
ATOM      9  C   UNL     1      -5.966   4.335  10.950  1.00  0.00     0.040 A 
ATOM     10  C   UNL     1      -6.170   4.918   9.698  1.00  0.00     0.014 A 
ATOM     11  C   UNL     1      -5.166   4.836   8.733  1.00  0.00     0.004 A 
ATOM     12  C   UNL     1      -4.793   3.622  11.219  1.00  0.00     0.014 A 
ATOM     13  C   UNL     1      -3.964   4.167   9.011  1.00  0.00    -0.051 A 
ATOM     14  C   UNL     1      -3.790   3.547  10.255  1.00  0.00     0.004 A 
ATOM     15  C   UNL     1      -2.861   4.159   7.994  1.00  0.00     0.044 C 
ENDBRANCH   1   9
BRANCH   6  16
ATOM     16  C   UNL     1      -9.226   5.239  13.996  1.00  0.00     0.153 C 
BRANCH  16  17
ATOM     17  C   UNL     1     -10.207   6.122  14.715  1.00  0.00    -0.029 A 
ATOM     18  C   UNL     1     -11.551   6.231  14.343  1.00  0.00     0.006 A 
ATOM     19  C   UNL     1      -9.791   6.689  15.931  1.00  0.00     0.006 A 
ATOM     20  C   UNL     1     -12.461   6.874  15.189  1.00  0.00     0.004 A 
ATOM     21  C   UNL     1     -10.698   7.324  16.773  1.00  0.00     0.004 A 
ATOM     22  C   UNL     1     -12.044   7.413  16.414  1.00  0.00    -0.051 A 
ATOM     23  C   UNL     1     -13.036   7.976  17.388  1.00  0.00     0.044 C 
ENDBRANCH  16  17
ENDBRANCH   6  16
TORSDOF 3
ENDMDL
MODEL 9
REMARK VINA RESULT:    -4.311      5.254      8.051
REMARK INTER + INTRA:          -5.542
REMARK INTER:                  -4.962
REMARK INTRA:                  -0.580
REMARK UNBOUND:                -0.475
REMARK SMILES Cc1ccc(CNC(=O)NC(=O)c2ccc(C)cc2)cc1
REMARK SMILES IDX 11 1 12 2 10 3 8 4 9 5 7 6 13 9 19 10 18 11 14 12 16 13
REMARK SMILES IDX 15 14 17 15 6 16 5 17 4 18 20 19 3 20 21 21 2 22 1 23
REMARK H PARENT 10 7 7 8
ROOT
ATOM      1  C   UNL     1      -7.299  11.090  16.803  1.00  0.00     0.259 C 
ATOM      2  O   UNL     1      -6.545  10.252  17.276  1.00  0.00    -0.269 OA
ATOM      3  N   UNL     1      -7.017  12.095  15.872  1.00  0.00    -0.274 N 
ATOM      4  C   UNL     1      -6.012  12.410  14.994  1.00  0.00     0.321 C 
ATOM      5  O   UNL     1      -6.205  13.349  14.215  1.00  0.00    -0.248 OA
ATOM      6  N   UNL     1      -4.849  11.736  14.921  1.00  0.00    -0.334 N 
ATOM      7  H   UNL     1      -7.806  12.687  15.646  1.00  0.00     0.175 HD
ATOM      8  H   UNL     1      -4.251  12.038  14.166  1.00  0.00     0.165 HD
ENDROOT
BRANCH   1   9
ATOM      9  C   UNL     1      -8.701  11.050  17.260  1.00  0.00     0.040 A 
ATOM     10  C   UNL     1      -9.481  12.206  17.318  1.00  0.00     0.014 A 
ATOM     11  C   UNL     1     -10.818  12.111  17.707  1.00  0.00     0.004 A 
ATOM     12  C   UNL     1      -9.231   9.815  17.645  1.00  0.00     0.014 A 
ATOM     13  C   UNL     1     -11.374  10.868  18.045  1.00  0.00    -0.051 A 
ATOM     14  C   UNL     1     -10.569   9.723  18.027  1.00  0.00     0.004 A 
ATOM     15  C   UNL     1     -12.834  10.769  18.379  1.00  0.00     0.044 C 
ENDBRANCH   1   9
BRANCH   6  16
ATOM     16  C   UNL     1      -4.470  10.562  15.656  1.00  0.00     0.153 C 
BRANCH  16  17
ATOM     17  C   UNL     1      -4.241   9.301  14.870  1.00  0.00    -0.029 A 
ATOM     18  C   UNL     1      -4.600   8.033  15.340  1.00  0.00     0.006 A 
ATOM     19  C   UNL     1      -3.844   9.440  13.530  1.00  0.00     0.006 A 
ATOM     20  C   UNL     1      -4.585   6.935  14.474  1.00  0.00     0.004 A 
ATOM     21  C   UNL     1      -3.834   8.348  12.669  1.00  0.00     0.004 A 
ATOM     22  C   UNL     1      -4.214   7.087  13.131  1.00  0.00    -0.051 A 
ATOM     23  C   UNL     1      -4.332   5.947  12.164  1.00  0.00     0.044 C 
ENDBRANCH  16  17
ENDBRANCH   6  16
TORSDOF 3
ENDMDL
