MODEL 1
REMARK VINA RESULT:    -4.646      0.000      0.000
REMARK INTER + INTRA:          -6.199
REMARK INTER:                  -6.140
REMARK INTRA:                  -0.059
REMARK UNBOUND:                -0.059
REMARK SMILES [H]/N=C\C[C@H]1C[C@@H]1O[C@H]1CO[C@H]2C[C@@H](C3CC3)CCN2C1
REMARK SMILES IDX 7 1 6 2 5 3 8 4 9 5 14 6 13 7 18 8 12 9 19 10 20 11 11 12
REMARK SMILES IDX 21 13 10 14 15 15 16 16 17 17 4 18 3 19 2 20 1 21
REMARK H PARENT
ROOT
ATOM      1  C   UNL     1      -4.361   4.441  -8.196  1.00  0.00     0.122 C 
ATOM      2  C   UNL     1      -4.380   5.887  -7.785  1.00  0.00     0.039 C 
ATOM      3  C   UNL     1      -5.017   4.850  -6.905  1.00  0.00     0.026 C 
ENDROOT
BRANCH   1   4
ATOM      4  O   UNL     1      -5.239   4.133  -9.295  1.00  0.00    -0.371 OA
BRANCH   4   5
ATOM      5  C   UNL     1      -4.749   3.149 -10.222  1.00  0.00     0.158 C 
ATOM      6  C   UNL     1      -9.234   2.059 -12.651  1.00  0.00    -0.003 C 
ATOM      7  C   UNL     1      -8.636   1.772 -11.268  1.00  0.00     0.052 C 
ATOM      8  C   UNL     1      -8.718   3.414 -13.155  1.00  0.00     0.019 C 
ATOM      9  C   UNL     1      -7.106   1.897 -11.272  1.00  0.00     0.189 C 
ATOM     10  C   UNL     1      -7.193   3.486 -13.101  1.00  0.00     0.087 C 
ATOM     11  N   UNL     1      -6.704   3.220 -11.748  1.00  0.00    -0.276 NA
ATOM     12  O   UNL     1      -6.673   1.655  -9.932  1.00  0.00    -0.360 OA
ATOM     13  C   UNL     1      -5.247   3.371 -11.661  1.00  0.00     0.121 C 
ATOM     14  C   UNL     1      -5.256   1.776  -9.771  1.00  0.00     0.195 C 
BRANCH   6  15
ATOM     15  C   UNL     1     -10.746   2.046 -12.615  1.00  0.00    -0.008 C 
ATOM     16  C   UNL     1     -11.538   1.839 -13.884  1.00  0.00     0.004 C 
ATOM     17  C   UNL     1     -11.514   0.766 -12.834  1.00  0.00     0.004 C 
ENDBRANCH   6  15
ENDBRANCH   4   5
ENDBRANCH   1   4
BRANCH   3  18
ATOM     18  C   UNL     1      -4.375   4.516  -5.592  1.00  0.00     0.053 C 
BRANCH  18  19
ATOM     19  C   UNL     1      -5.310   4.206  -4.452  1.00  0.00     0.074 C 
BRANCH  19  20
ATOM     20  N   UNL     1      -6.477   4.726  -4.267  1.00  0.00    -0.313 NA
ATOM     21  H   UNL     1      -6.478   5.386  -3.476  1.00  0.00     0.186 HD
ENDBRANCH  19  20
ENDBRANCH  18  19
ENDBRANCH   3  18
TORSDOF 6
ENDMDL
MODEL 2
REMARK VINA RESULT:    -4.607      5.511      8.439
REMARK INTER + INTRA:          -6.147
REMARK INTER:                  -6.091
REMARK INTRA:                  -0.055
REMARK UNBOUND:                -0.059
REMARK SMILES [H]/N=C\C[C@H]1C[C@@H]1O[C@H]1CO[C@H]2C[C@@H](C3CC3)CCN2C1
REMARK SMILES IDX 7 1 6 2 5 3 8 4 9 5 14 6 13 7 18 8 12 9 19 10 20 11 11 12
REMARK SMILES IDX 21 13 10 14 15 15 16 16 17 17 4 18 3 19 2 20 1 21
REMARK H PARENT
ROOT
ATOM      1  C   UNL     1      -3.859   5.528  -8.005  1.00  0.00     0.122 C 
ATOM      2  C   UNL     1      -4.006   4.231  -8.750  1.00  0.00     0.039 C 
ATOM      3  C   UNL     1      -2.642   4.710  -8.341  1.00  0.00     0.026 C 
ENDROOT
BRANCH   1   4
ATOM      4  O   UNL     1      -4.092   6.698  -8.811  1.00  0.00    -0.371 OA
BRANCH   4   5
ATOM      5  C   UNL     1      -4.744   7.791  -8.144  1.00  0.00     0.158 C 
ATOM      6  C   UNL     1      -3.590  11.582 -11.535  1.00  0.00    -0.003 C 
ATOM      7  C   UNL     1      -2.814  10.765 -10.495  1.00  0.00     0.052 C 
ATOM      8  C   UNL     1      -4.710  10.715 -12.128  1.00  0.00     0.019 C 
ATOM      9  C   UNL     1      -3.747  10.143  -9.446  1.00  0.00     0.189 C 
ATOM     10  C   UNL     1      -5.580  10.100 -11.033  1.00  0.00     0.087 C 
ATOM     11  N   UNL     1      -4.769   9.323 -10.095  1.00  0.00    -0.276 NA
ATOM     12  O   UNL     1      -2.921   9.376  -8.568  1.00  0.00    -0.360 OA
ATOM     13  C   UNL     1      -5.600   8.654  -9.088  1.00  0.00     0.121 C 
ATOM     14  C   UNL     1      -3.663   8.699  -7.549  1.00  0.00     0.195 C 
BRANCH   6  15
ATOM     15  C   UNL     1      -2.681  12.096 -12.628  1.00  0.00    -0.008 C 
ATOM     16  C   UNL     1      -3.108  13.259 -13.493  1.00  0.00     0.004 C 
ATOM     17  C   UNL     1      -1.996  13.435 -12.499  1.00  0.00     0.004 C 
ENDBRANCH   6  15
ENDBRANCH   4   5
ENDBRANCH   1   4
BRANCH   3  18
ATOM     18  C   UNL     1      -1.906   3.972  -7.263  1.00  0.00     0.053 C 
BRANCH  18  19
ATOM     19  C   UNL     1      -0.419   3.824  -7.453  1.00  0.00     0.074 C 
BRANCH  19  20
ATOM     20  N   UNL     1       0.197   3.760  -8.586  1.00  0.00    -0.313 NA
ATOM     21  H   UNL     1       0.714   2.875  -8.688  1.00  0.00     0.186 HD
ENDBRANCH  19  20
ENDBRANCH  18  19
ENDBRANCH   3  18
TORSDOF 6
ENDMDL
MODEL 3
REMARK VINA RESULT:    -4.397      2.631      8.596
REMARK INTER + INTRA:          -5.869
REMARK INTER:                  -5.663
REMARK INTRA:                  -0.206
REMARK UNBOUND:                -0.059
REMARK SMILES [H]/N=C\C[C@H]1C[C@@H]1O[C@H]1CO[C@H]2C[C@@H](C3CC3)CCN2C1
REMARK SMILES IDX 7 1 6 2 5 3 8 4 9 5 14 6 13 7 18 8 12 9 19 10 20 11 11 12
REMARK SMILES IDX 21 13 10 14 15 15 16 16 17 17 4 18 3 19 2 20 1 21
REMARK H PARENT
ROOT
ATOM      1  C   UNL     1      -5.595   3.199  -9.738  1.00  0.00     0.122 C 
ATOM      2  C   UNL     1      -5.531   3.209 -11.240  1.00  0.00     0.039 C 
ATOM      3  C   UNL     1      -6.036   1.991 -10.520  1.00  0.00     0.026 C 
ENDROOT
BRANCH   1   4
ATOM      4  O   UNL     1      -4.309   3.117  -9.096  1.00  0.00    -0.371 OA
BRANCH   4   5
ATOM      5  C   UNL     1      -3.554   4.339  -9.063  1.00  0.00     0.158 C 
ATOM      6  C   UNL     1      -2.092   4.221  -4.058  1.00  0.00    -0.003 C 
ATOM      7  C   UNL     1      -3.402   4.474  -4.813  1.00  0.00     0.052 C 
ATOM      8  C   UNL     1      -1.239   3.214  -4.843  1.00  0.00     0.019 C 
ATOM      9  C   UNL     1      -3.150   4.873  -6.274  1.00  0.00     0.189 C 
ATOM     10  C   UNL     1      -1.055   3.652  -6.295  1.00  0.00     0.087 C 
ATOM     11  N   UNL     1      -2.347   3.853  -6.950  1.00  0.00    -0.276 NA
ATOM     12  O   UNL     1      -4.433   5.035  -6.881  1.00  0.00    -0.360 OA
ATOM     13  C   UNL     1      -2.188   4.190  -8.369  1.00  0.00     0.121 C 
ATOM     14  C   UNL     1      -4.358   5.374  -8.269  1.00  0.00     0.195 C 
BRANCH   6  15
ATOM     15  C   UNL     1      -2.349   3.719  -2.655  1.00  0.00    -0.008 C 
ATOM     16  C   UNL     1      -1.497   4.200  -1.503  1.00  0.00     0.004 C 
ATOM     17  C   UNL     1      -2.932   4.629  -1.602  1.00  0.00     0.004 C 
ENDBRANCH   6  15
ENDBRANCH   4   5
ENDBRANCH   1   4
BRANCH   3  18
ATOM     18  C   UNL     1      -7.491   1.642 -10.615  1.00  0.00     0.053 C 
BRANCH  18  19
ATOM     19  C   UNL     1      -8.063   1.545 -12.005  1.00  0.00     0.074 C 
BRANCH  19  20
ATOM     20  N   UNL     1      -7.651   0.754 -12.940  1.00  0.00    -0.313 NA
ATOM     21  H   UNL     1      -7.781   1.170 -13.873  1.00  0.00     0.186 HD
ENDBRANCH  19  20
ENDBRANCH  18  19
ENDBRANCH   3  18
TORSDOF 6
ENDMDL
MODEL 4
REMARK VINA RESULT:    -4.204      5.081      8.454
REMARK INTER + INTRA:          -5.615
REMARK INTER:                  -5.291
REMARK INTRA:                  -0.324
REMARK UNBOUND:                -0.059
REMARK SMILES [H]/N=C\C[C@H]1C[C@@H]1O[C@H]1CO[C@H]2C[C@@H](C3CC3)CCN2C1
REMARK SMILES IDX 7 1 6 2 5 3 8 4 9 5 14 6 13 7 18 8 12 9 19 10 20 11 11 12
REMARK SMILES IDX 21 13 10 14 15 15 16 16 17 17 4 18 3 19 2 20 1 21
REMARK H PARENT
ROOT
ATOM      1  C   UNL     1      -4.316   8.020  -8.317  1.00  0.00     0.122 C 
ATOM      2  C   UNL     1      -3.808   9.016  -7.313  1.00  0.00     0.039 C 
ATOM      3  C   UNL     1      -3.399   9.130  -8.754  1.00  0.00     0.026 C 
ENDROOT
BRANCH   1   4
ATOM      4  O   UNL     1      -3.729   6.710  -8.194  1.00  0.00    -0.371 OA
BRANCH   4   5
ATOM      5  C   UNL     1      -4.660   5.618  -8.118  1.00  0.00     0.158 C 
ATOM      6  C   UNL     1      -1.997   2.543  -4.854  1.00  0.00    -0.003 C 
ATOM      7  C   UNL     1      -1.858   2.969  -6.321  1.00  0.00     0.052 C 
ATOM      8  C   UNL     1      -2.621   3.691  -4.049  1.00  0.00     0.019 C 
ATOM      9  C   UNL     1      -3.186   3.485  -6.892  1.00  0.00     0.189 C 
ATOM     10  C   UNL     1      -3.920   4.181  -4.689  1.00  0.00     0.087 C 
ATOM     11  N   UNL     1      -3.699   4.586  -6.077  1.00  0.00    -0.276 NA
ATOM     12  O   UNL     1      -2.922   3.891  -8.237  1.00  0.00    -0.360 OA
ATOM     13  C   UNL     1      -4.917   5.140  -6.678  1.00  0.00     0.121 C 
ATOM     14  C   UNL     1      -4.070   4.435  -8.893  1.00  0.00     0.195 C 
BRANCH   6  15
ATOM     15  C   UNL     1      -0.664   2.144  -4.264  1.00  0.00    -0.008 C 
ATOM     16  C   UNL     1      -0.488   0.788  -3.621  1.00  0.00     0.004 C 
ATOM     17  C   UNL     1       0.191   1.089  -4.925  1.00  0.00     0.004 C 
ENDBRANCH   6  15
ENDBRANCH   4   5
ENDBRANCH   1   4
BRANCH   3  18
ATOM     18  C   UNL     1      -3.929  10.270  -9.571  1.00  0.00     0.053 C 
BRANCH  18  19
ATOM     19  C   UNL     1      -2.936  10.969 -10.462  1.00  0.00     0.074 C 
BRANCH  19  20
ATOM     20  N   UNL     1      -1.729  10.578 -10.704  1.00  0.00    -0.313 NA
ATOM     21  H   UNL     1      -1.034  11.182 -10.243  1.00  0.00     0.186 HD
ENDBRANCH  19  20
ENDBRANCH  18  19
ENDBRANCH   3  18
TORSDOF 6
ENDMDL
MODEL 5
REMARK VINA RESULT:    -4.067      2.057      2.458
REMARK INTER + INTRA:          -5.434
REMARK INTER:                  -5.940
REMARK INTRA:                   0.506
REMARK UNBOUND:                -0.059
REMARK SMILES [H]/N=C\C[C@H]1C[C@@H]1O[C@H]1CO[C@H]2C[C@@H](C3CC3)CCN2C1
REMARK SMILES IDX 7 1 6 2 5 3 8 4 9 5 14 6 13 7 18 8 12 9 19 10 20 11 11 12
REMARK SMILES IDX 21 13 10 14 15 15 16 16 17 17 4 18 3 19 2 20 1 21
REMARK H PARENT
ROOT
ATOM      1  C   UNL     1      -4.415   4.878  -9.140  1.00  0.00     0.122 C 
ATOM      2  C   UNL     1      -4.450   5.162  -7.665  1.00  0.00     0.039 C 
ATOM      3  C   UNL     1      -3.371   4.287  -8.234  1.00  0.00     0.026 C 
ENDROOT
BRANCH   1   4
ATOM      4  O   UNL     1      -5.455   3.990  -9.592  1.00  0.00    -0.371 OA
BRANCH   4   5
ATOM      5  C   UNL     1      -5.050   2.997 -10.549  1.00  0.00     0.158 C 
ATOM      6  C   UNL     1      -9.674   2.150 -12.807  1.00  0.00    -0.003 C 
ATOM      7  C   UNL     1      -9.036   1.817 -11.453  1.00  0.00     0.052 C 
ATOM      8  C   UNL     1      -9.115   3.486 -13.317  1.00  0.00     0.019 C 
ATOM      9  C   UNL     1      -7.503   1.870 -11.517  1.00  0.00     0.189 C 
ATOM     10  C   UNL     1      -7.587   3.486 -13.323  1.00  0.00     0.087 C 
ATOM     11  N   UNL     1      -7.058   3.179 -11.995  1.00  0.00    -0.276 NA
ATOM     12  O   UNL     1      -7.029   1.591 -10.198  1.00  0.00    -0.360 OA
ATOM     13  C   UNL     1      -5.593   3.261 -11.964  1.00  0.00     0.121 C 
ATOM     14  C   UNL     1      -5.603   1.643 -10.093  1.00  0.00     0.195 C 
BRANCH   6  15
ATOM     15  C   UNL     1     -11.182   2.208 -12.711  1.00  0.00    -0.008 C 
ATOM     16  C   UNL     1     -12.032   2.085 -13.953  1.00  0.00     0.004 C 
ATOM     17  C   UNL     1     -12.020   0.974 -12.943  1.00  0.00     0.004 C 
ENDBRANCH   6  15
ENDBRANCH   4   5
ENDBRANCH   1   4
BRANCH   3  18
ATOM     18  C   UNL     1      -1.962   4.799  -8.268  1.00  0.00     0.053 C 
BRANCH  18  19
ATOM     19  C   UNL     1      -0.876   3.778  -8.049  1.00  0.00     0.074 C 
BRANCH  19  20
ATOM     20  N   UNL     1       0.299   3.796  -8.585  1.00  0.00    -0.313 NA
ATOM     21  H   UNL     1       0.574   2.865  -8.929  1.00  0.00     0.186 HD
ENDBRANCH  19  20
ENDBRANCH  18  19
ENDBRANCH   3  18
TORSDOF 6
ENDMDL
MODEL 6
REMARK VINA RESULT:    -3.980      4.390      6.827
REMARK INTER + INTRA:          -5.318
REMARK INTER:                  -4.695
REMARK INTRA:                  -0.623
REMARK UNBOUND:                -0.059
REMARK SMILES [H]/N=C\C[C@H]1C[C@@H]1O[C@H]1CO[C@H]2C[C@@H](C3CC3)CCN2C1
REMARK SMILES IDX 7 1 6 2 5 3 8 4 9 5 14 6 13 7 18 8 12 9 19 10 20 11 11 12
REMARK SMILES IDX 21 13 10 14 15 15 16 16 17 17 4 18 3 19 2 20 1 21
REMARK H PARENT
ROOT
ATOM      1  C   UNL     1      -8.641   1.924 -12.007  1.00  0.00     0.122 C 
ATOM      2  C   UNL     1      -9.235   1.593 -10.667  1.00  0.00     0.039 C 
ATOM      3  C   UNL     1     -10.086   2.235 -11.725  1.00  0.00     0.026 C 
ENDROOT
BRANCH   1   4
ATOM      4  O   UNL     1      -7.727   3.037 -11.984  1.00  0.00    -0.371 OA
BRANCH   4   5
ATOM      5  C   UNL     1      -7.000   3.266 -13.203  1.00  0.00     0.158 C 
ATOM      6  C   UNL     1      -8.928   7.963 -14.394  1.00  0.00    -0.003 C 
ATOM      7  C   UNL     1      -9.458   6.524 -14.402  1.00  0.00     0.052 C 
ATOM      8  C   UNL     1      -7.912   8.123 -13.254  1.00  0.00     0.019 C 
ATOM      9  C   UNL     1      -8.318   5.497 -14.432  1.00  0.00     0.189 C 
ATOM     10  C   UNL     1      -6.824   7.051 -13.321  1.00  0.00     0.087 C 
ATOM     11  N   UNL     1      -7.409   5.711 -13.305  1.00  0.00    -0.276 NA
ATOM     12  O   UNL     1      -8.930   4.207 -14.390  1.00  0.00    -0.360 OA
ATOM     13  C   UNL     1      -6.375   4.670 -13.281  1.00  0.00     0.121 C 
ATOM     14  C   UNL     1      -7.980   3.137 -14.373  1.00  0.00     0.195 C 
BRANCH   6  15
ATOM     15  C   UNL     1     -10.050   8.967 -14.249  1.00  0.00    -0.008 C 
ATOM     16  C   UNL     1     -10.249  10.044 -15.290  1.00  0.00     0.004 C 
ATOM     17  C   UNL     1     -11.246   8.928 -15.169  1.00  0.00     0.004 C 
ENDBRANCH   6  15
ENDBRANCH   4   5
ENDBRANCH   1   4
BRANCH   3  18
ATOM     18  C   UNL     1     -11.172   1.428 -12.372  1.00  0.00     0.053 C 
BRANCH  18  19
ATOM     19  C   UNL     1     -11.817   2.035 -13.591  1.00  0.00     0.074 C 
BRANCH  19  20
ATOM     20  N   UNL     1     -11.621   3.233 -14.034  1.00  0.00    -0.313 NA
ATOM     21  H   UNL     1     -10.906   3.729 -13.484  1.00  0.00     0.186 HD
ENDBRANCH  19  20
ENDBRANCH  18  19
ENDBRANCH   3  18
TORSDOF 6
ENDMDL
MODEL 7
REMARK VINA RESULT:    -3.960      4.576      5.652
REMARK INTER + INTRA:          -5.292
REMARK INTER:                  -5.404
REMARK INTRA:                   0.112
REMARK UNBOUND:                -0.059
REMARK SMILES [H]/N=C\C[C@H]1C[C@@H]1O[C@H]1CO[C@H]2C[C@@H](C3CC3)CCN2C1
REMARK SMILES IDX 7 1 6 2 5 3 8 4 9 5 14 6 13 7 18 8 12 9 19 10 20 11 11 12
REMARK SMILES IDX 21 13 10 14 15 15 16 16 17 17 4 18 3 19 2 20 1 21
REMARK H PARENT
ROOT
ATOM      1  C   UNL     1      -7.270   8.266 -11.864  1.00  0.00     0.122 C 
ATOM      2  C   UNL     1      -6.548   8.886 -10.701  1.00  0.00     0.039 C 
ATOM      3  C   UNL     1      -6.445   9.508 -12.064  1.00  0.00     0.026 C 
ENDROOT
BRANCH   1   4
ATOM      4  O   UNL     1      -6.694   7.028 -12.321  1.00  0.00    -0.371 OA
BRANCH   4   5
ATOM      5  C   UNL     1      -6.855   6.750 -13.722  1.00  0.00     0.158 C 
ATOM      6  C   UNL     1     -10.359   2.904 -13.359  1.00  0.00    -0.003 C 
ATOM      7  C   UNL     1      -8.863   3.059 -13.058  1.00  0.00     0.052 C 
ATOM      8  C   UNL     1     -11.069   4.241 -13.105  1.00  0.00     0.019 C 
ATOM      9  C   UNL     1      -8.250   4.245 -13.814  1.00  0.00     0.189 C 
ATOM     10  C   UNL     1     -10.390   5.385 -13.858  1.00  0.00     0.087 C 
ATOM     11  N   UNL     1      -8.974   5.478 -13.502  1.00  0.00    -0.276 NA
ATOM     12  O   UNL     1      -6.878   4.315 -13.420  1.00  0.00    -0.360 OA
ATOM     13  C   UNL     1      -8.328   6.625 -14.150  1.00  0.00     0.121 C 
ATOM     14  C   UNL     1      -6.178   5.409 -14.022  1.00  0.00     0.195 C 
BRANCH   6  15
ATOM     15  C   UNL     1     -10.982   1.806 -12.526  1.00  0.00    -0.008 C 
ATOM     16  C   UNL     1     -11.975   0.850 -13.142  1.00  0.00     0.004 C 
ATOM     17  C   UNL     1     -10.611   0.360 -12.750  1.00  0.00     0.004 C 
ENDBRANCH   6  15
ENDBRANCH   4   5
ENDBRANCH   1   4
BRANCH   3  18
ATOM     18  C   UNL     1      -7.113  10.827 -12.312  1.00  0.00     0.053 C 
BRANCH  18  19
ATOM     19  C   UNL     1      -6.364  12.050 -11.852  1.00  0.00     0.074 C 
BRANCH  19  20
ATOM     20  N   UNL     1      -6.635  13.271 -12.175  1.00  0.00    -0.313 NA
ATOM     21  H   UNL     1      -6.507  13.912 -11.379  1.00  0.00     0.186 HD
ENDBRANCH  19  20
ENDBRANCH  18  19
ENDBRANCH   3  18
TORSDOF 6
ENDMDL
MODEL 8
REMARK VINA RESULT:    -3.858      4.848      8.676
REMARK INTER + INTRA:          -5.158
REMARK INTER:                  -5.046
REMARK INTRA:                  -0.112
REMARK UNBOUND:                -0.059
REMARK SMILES [H]/N=C\C[C@H]1C[C@@H]1O[C@H]1CO[C@H]2C[C@@H](C3CC3)CCN2C1
REMARK SMILES IDX 7 1 6 2 5 3 8 4 9 5 14 6 13 7 18 8 12 9 19 10 20 11 11 12
REMARK SMILES IDX 21 13 10 14 15 15 16 16 17 17 4 18 3 19 2 20 1 21
REMARK H PARENT
ROOT
ATOM      1  C   UNL     1      -6.895   9.505 -14.540  1.00  0.00     0.122 C 
ATOM      2  C   UNL     1      -6.183   9.058 -15.786  1.00  0.00     0.039 C 
ATOM      3  C   UNL     1      -6.871   8.048 -14.913  1.00  0.00     0.026 C 
ENDROOT
BRANCH   1   4
ATOM      4  O   UNL     1      -6.015   9.913 -13.476  1.00  0.00    -0.371 OA
BRANCH   4   5
ATOM      5  C   UNL     1      -6.643  10.604 -12.383  1.00  0.00     0.158 C 
ATOM      6  C   UNL     1      -4.479   7.964  -8.440  1.00  0.00    -0.003 C 
ATOM      7  C   UNL     1      -5.539   7.669  -9.508  1.00  0.00     0.052 C 
ATOM      8  C   UNL     1      -3.435   8.932  -9.014  1.00  0.00     0.019 C 
ATOM      9  C   UNL     1      -6.135   8.958 -10.090  1.00  0.00     0.189 C 
ATOM     10  C   UNL     1      -4.096  10.177  -9.607  1.00  0.00     0.087 C 
ATOM     11  N   UNL     1      -5.077   9.812 -10.629  1.00  0.00    -0.276 NA
ATOM     12  O   UNL     1      -7.067   8.558 -11.097  1.00  0.00    -0.360 OA
ATOM     13  C   UNL     1      -5.657  10.998 -11.269  1.00  0.00     0.121 C 
ATOM     14  C   UNL     1      -7.682   9.666 -11.761  1.00  0.00     0.195 C 
BRANCH   6  15
ATOM     15  C   UNL     1      -3.814   6.696  -7.953  1.00  0.00    -0.008 C 
ATOM     16  C   UNL     1      -4.554   5.747  -7.040  1.00  0.00     0.004 C 
ATOM     17  C   UNL     1      -4.262   5.345  -8.456  1.00  0.00     0.004 C 
ENDBRANCH   6  15
ENDBRANCH   4   5
ENDBRANCH   1   4
BRANCH   3  18
ATOM     18  C   UNL     1      -8.113   7.377 -15.418  1.00  0.00     0.053 C 
BRANCH  18  19
ATOM     19  C   UNL     1      -8.772   6.400 -14.479  1.00  0.00     0.074 C 
BRANCH  19  20
ATOM     20  N   UNL     1      -8.744   6.454 -13.189  1.00  0.00    -0.313 NA
ATOM     21  H   UNL     1      -8.414   7.370 -12.854  1.00  0.00     0.186 HD
ENDBRANCH  19  20
ENDBRANCH  18  19
ENDBRANCH   3  18
TORSDOF 6
ENDMDL
MODEL 9
REMARK VINA RESULT:    -3.831      3.394      7.119
REMARK INTER + INTRA:          -5.122
REMARK INTER:                  -5.059
REMARK INTRA:                  -0.063
REMARK UNBOUND:                -0.059
REMARK SMILES [H]/N=C\C[C@H]1C[C@@H]1O[C@H]1CO[C@H]2C[C@@H](C3CC3)CCN2C1
REMARK SMILES IDX 7 1 6 2 5 3 8 4 9 5 14 6 13 7 18 8 12 9 19 10 20 11 11 12
REMARK SMILES IDX 21 13 10 14 15 15 16 16 17 17 4 18 3 19 2 20 1 21
REMARK H PARENT
ROOT
ATOM      1  C   UNL     1      -8.888   6.521 -14.820  1.00  0.00     0.122 C 
ATOM      2  C   UNL     1     -10.041   7.364 -14.351  1.00  0.00     0.039 C 
ATOM      3  C   UNL     1      -8.632   7.786 -14.047  1.00  0.00     0.026 C 
ENDROOT
BRANCH   1   4
ATOM      4  O   UNL     1      -8.735   5.283 -14.100  1.00  0.00    -0.371 OA
BRANCH   4   5
ATOM      5  C   UNL     1      -7.802   4.349 -14.666  1.00  0.00     0.158 C 
ATOM      6  C   UNL     1      -5.230   3.073 -10.312  1.00  0.00    -0.003 C 
ATOM      7  C   UNL     1      -5.305   4.304 -11.222  1.00  0.00     0.052 C 
ATOM      8  C   UNL     1      -6.592   2.364 -10.304  1.00  0.00     0.019 C 
ATOM      9  C   UNL     1      -5.833   3.950 -12.619  1.00  0.00     0.189 C 
ATOM     10  C   UNL     1      -7.077   2.070 -11.723  1.00  0.00     0.087 C 
ATOM     11  N   UNL     1      -7.138   3.296 -12.520  1.00  0.00    -0.276 NA
ATOM     12  O   UNL     1      -5.901   5.174 -13.353  1.00  0.00    -0.360 OA
ATOM     13  C   UNL     1      -7.684   3.044 -13.858  1.00  0.00     0.121 C 
ATOM     14  C   UNL     1      -6.417   5.005 -14.677  1.00  0.00     0.195 C 
BRANCH   6  15
ATOM     15  C   UNL     1      -4.818   3.446  -8.905  1.00  0.00    -0.008 C 
ATOM     16  C   UNL     1      -3.401   3.881  -8.615  1.00  0.00     0.004 C 
ATOM     17  C   UNL     1      -4.519   4.881  -8.542  1.00  0.00     0.004 C 
ENDBRANCH   6  15
ENDBRANCH   4   5
ENDBRANCH   1   4
BRANCH   3  18
ATOM     18  C   UNL     1      -8.070   8.993 -14.738  1.00  0.00     0.053 C 
BRANCH  18  19
ATOM     19  C   UNL     1      -6.713   9.454 -14.275  1.00  0.00     0.074 C 
BRANCH  19  20
ATOM     20  N   UNL     1      -5.672   8.705 -14.116  1.00  0.00    -0.313 NA
ATOM     21  H   UNL     1      -5.855   7.937 -13.454  1.00  0.00     0.186 HD
ENDBRANCH  19  20
ENDBRANCH  18  19
ENDBRANCH   3  18
TORSDOF 6
ENDMDL
