MODEL 1
REMARK VINA RESULT:    -6.245      0.000      0.000
REMARK INTER + INTRA:          -7.722
REMARK INTER:                  -7.340
REMARK INTRA:                  -0.382
REMARK UNBOUND:                -0.382
REMARK SMILES Cc1ccc(CNC(=O)NC(=O)c2ccc(C)cc2)cc1
REMARK SMILES IDX 11 1 12 2 10 3 8 4 9 5 7 6 13 9 19 10 18 11 14 12 16 13
REMARK SMILES IDX 15 14 17 15 6 16 5 17 4 18 20 19 3 20 21 21 2 22 1 23
REMARK H PARENT 10 7 7 8
ROOT
ATOM      1  C   UNL     1      -3.488   4.238  -6.831  1.00  0.00     0.259 C 
ATOM      2  O   UNL     1      -3.428   3.140  -7.365  1.00  0.00    -0.269 OA
ATOM      3  N   UNL     1      -3.843   5.468  -7.395  1.00  0.00    -0.274 N 
ATOM      4  C   UNL     1      -4.440   5.921  -8.543  1.00  0.00     0.321 C 
ATOM      5  O   UNL     1      -4.707   7.125  -8.614  1.00  0.00    -0.248 OA
ATOM      6  N   UNL     1      -4.775   5.122  -9.574  1.00  0.00    -0.334 N 
ATOM      7  H   UNL     1      -3.798   6.249  -6.755  1.00  0.00     0.175 HD
ATOM      8  H   UNL     1      -5.285   5.595 -10.306  1.00  0.00     0.165 HD
ENDROOT
BRANCH   1   9
ATOM      9  C   UNL     1      -3.150   4.294  -5.396  1.00  0.00     0.040 A 
ATOM     10  C   UNL     1      -1.888   4.703  -4.961  1.00  0.00     0.014 A 
ATOM     11  C   UNL     1      -1.632   4.790  -3.592  1.00  0.00     0.004 A 
ATOM     12  C   UNL     1      -4.132   3.917  -4.475  1.00  0.00     0.014 A 
ATOM     13  C   UNL     1      -2.627   4.464  -2.659  1.00  0.00    -0.051 A 
ATOM     14  C   UNL     1      -3.873   4.011  -3.108  1.00  0.00     0.004 A 
ATOM     15  C   UNL     1      -2.363   4.644  -1.193  1.00  0.00     0.044 C 
ENDBRANCH   1   9
BRANCH   6  16
ATOM     16  C   UNL     1      -4.650   3.694  -9.651  1.00  0.00     0.153 C 
BRANCH  16  17
ATOM     17  C   UNL     1      -5.557   2.973 -10.609  1.00  0.00    -0.029 A 
ATOM     18  C   UNL     1      -6.421   1.946 -10.216  1.00  0.00     0.006 A 
ATOM     19  C   UNL     1      -5.682   3.507 -11.903  1.00  0.00     0.006 A 
ATOM     20  C   UNL     1      -7.406   1.484 -11.096  1.00  0.00     0.004 A 
ATOM     21  C   UNL     1      -6.664   3.049 -12.775  1.00  0.00     0.004 A 
ATOM     22  C   UNL     1      -7.542   2.040 -12.376  1.00  0.00    -0.051 A 
ATOM     23  C   UNL     1      -8.681   1.651 -13.270  1.00  0.00     0.044 C 
ENDBRANCH  16  17
ENDBRANCH   6  16
TORSDOF 3
ENDMDL
MODEL 2
REMARK VINA RESULT:    -6.232      3.262      5.590
REMARK INTER + INTRA:          -7.707
REMARK INTER:                  -7.327
REMARK INTRA:                  -0.380
REMARK UNBOUND:                -0.382
REMARK SMILES Cc1ccc(CNC(=O)NC(=O)c2ccc(C)cc2)cc1
REMARK SMILES IDX 11 1 12 2 10 3 8 4 9 5 7 6 13 9 19 10 18 11 14 12 16 13
REMARK SMILES IDX 15 14 17 15 6 16 5 17 4 18 20 19 3 20 21 21 2 22 1 23
REMARK H PARENT 10 7 7 8
ROOT
ATOM      1  C   UNL     1      -3.275   4.589  -6.788  1.00  0.00     0.259 C 
ATOM      2  O   UNL     1      -3.343   5.689  -6.259  1.00  0.00    -0.269 OA
ATOM      3  N   UNL     1      -3.905   4.136  -7.951  1.00  0.00    -0.274 N 
ATOM      4  C   UNL     1      -4.573   4.680  -9.019  1.00  0.00     0.321 C 
ATOM      5  O   UNL     1      -4.875   3.926  -9.950  1.00  0.00    -0.248 OA
ATOM      6  N   UNL     1      -4.886   5.985  -9.114  1.00  0.00    -0.334 N 
ATOM      7  H   UNL     1      -3.712   3.171  -8.182  1.00  0.00     0.175 HD
ATOM      8  H   UNL     1      -5.300   6.241  -9.999  1.00  0.00     0.165 HD
ENDROOT
BRANCH   1   9
ATOM      9  C   UNL     1      -2.413   3.590  -6.126  1.00  0.00     0.040 A 
ATOM     10  C   UNL     1      -2.944   2.624  -5.269  1.00  0.00     0.014 A 
ATOM     11  C   UNL     1      -2.096   1.668  -4.708  1.00  0.00     0.004 A 
ATOM     12  C   UNL     1      -1.038   3.640  -6.377  1.00  0.00     0.014 A 
ATOM     13  C   UNL     1      -0.723   1.678  -4.994  1.00  0.00    -0.051 A 
ATOM     14  C   UNL     1      -0.197   2.680  -5.819  1.00  0.00     0.004 A 
ATOM     15  C   UNL     1       0.161   0.594  -4.452  1.00  0.00     0.044 C 
ENDBRANCH   1   9
BRANCH   6  16
ATOM     16  C   UNL     1      -4.539   7.038  -8.202  1.00  0.00     0.153 C 
BRANCH  16  17
ATOM     17  C   UNL     1      -4.499   8.439  -8.748  1.00  0.00    -0.029 A 
ATOM     18  C   UNL     1      -3.364   9.254  -8.677  1.00  0.00     0.006 A 
ATOM     19  C   UNL     1      -5.582   8.851  -9.542  1.00  0.00     0.006 A 
ATOM     20  C   UNL     1      -3.311  10.444  -9.409  1.00  0.00     0.004 A 
ATOM     21  C   UNL     1      -5.526  10.033 -10.273  1.00  0.00     0.004 A 
ATOM     22  C   UNL     1      -4.385  10.836 -10.221  1.00  0.00    -0.051 A 
ATOM     23  C   UNL     1      -4.279  12.033 -11.117  1.00  0.00     0.044 C 
ENDBRANCH  16  17
ENDBRANCH   6  16
TORSDOF 3
ENDMDL
MODEL 3
REMARK VINA RESULT:    -6.109      3.159      7.280
REMARK INTER + INTRA:          -7.562
REMARK INTER:                  -7.071
REMARK INTRA:                  -0.491
REMARK UNBOUND:                -0.382
REMARK SMILES Cc1ccc(CNC(=O)NC(=O)c2ccc(C)cc2)cc1
REMARK SMILES IDX 11 1 12 2 10 3 8 4 9 5 7 6 13 9 19 10 18 11 14 12 16 13
REMARK SMILES IDX 15 14 17 15 6 16 5 17 4 18 20 19 3 20 21 21 2 22 1 23
REMARK H PARENT 10 7 7 8
ROOT
ATOM      1  C   UNL     1      -4.049   6.987  -8.244  1.00  0.00     0.259 C 
ATOM      2  O   UNL     1      -3.521   6.959  -7.141  1.00  0.00    -0.269 OA
ATOM      3  N   UNL     1      -4.486   5.918  -9.032  1.00  0.00    -0.274 N 
ATOM      4  C   UNL     1      -4.734   4.578  -8.876  1.00  0.00     0.321 C 
ATOM      5  O   UNL     1      -5.261   3.978  -9.819  1.00  0.00    -0.248 OA
ATOM      6  N   UNL     1      -4.463   3.898  -7.746  1.00  0.00    -0.334 N 
ATOM      7  H   UNL     1      -4.875   6.190  -9.925  1.00  0.00     0.175 HD
ATOM      8  H   UNL     1      -4.784   2.940  -7.761  1.00  0.00     0.165 HD
ENDROOT
BRANCH   1   9
ATOM      9  C   UNL     1      -4.268   8.320  -8.837  1.00  0.00     0.040 A 
ATOM     10  C   UNL     1      -3.310   9.329  -8.733  1.00  0.00     0.014 A 
ATOM     11  C   UNL     1      -3.539  10.556  -9.356  1.00  0.00     0.004 A 
ATOM     12  C   UNL     1      -5.474   8.550  -9.507  1.00  0.00     0.014 A 
ATOM     13  C   UNL     1      -4.723  10.781 -10.075  1.00  0.00    -0.051 A 
ATOM     14  C   UNL     1      -5.696   9.775 -10.133  1.00  0.00     0.004 A 
ATOM     15  C   UNL     1      -4.917  12.074 -10.810  1.00  0.00     0.044 C 
ENDBRANCH   1   9
BRANCH   6  16
ATOM     16  C   UNL     1      -3.953   4.420  -6.510  1.00  0.00     0.153 C 
BRANCH  16  17
ATOM     17  C   UNL     1      -2.876   3.631  -5.820  1.00  0.00    -0.029 A 
ATOM     18  C   UNL     1      -3.146   2.621  -4.891  1.00  0.00     0.006 A 
ATOM     19  C   UNL     1      -1.563   3.782  -6.295  1.00  0.00     0.006 A 
ATOM     20  C   UNL     1      -2.122   1.766  -4.468  1.00  0.00     0.004 A 
ATOM     21  C   UNL     1      -0.547   2.929  -5.877  1.00  0.00     0.004 A 
ATOM     22  C   UNL     1      -0.820   1.906  -4.967  1.00  0.00    -0.051 A 
ATOM     23  C   UNL     1       0.248   0.909  -4.630  1.00  0.00     0.044 C 
ENDBRANCH  16  17
ENDBRANCH   6  16
TORSDOF 3
ENDMDL
MODEL 4
REMARK VINA RESULT:    -6.105      0.556      8.004
REMARK INTER + INTRA:          -7.558
REMARK INTER:                  -7.064
REMARK INTRA:                  -0.494
REMARK UNBOUND:                -0.382
REMARK SMILES Cc1ccc(CNC(=O)NC(=O)c2ccc(C)cc2)cc1
REMARK SMILES IDX 11 1 12 2 10 3 8 4 9 5 7 6 13 9 19 10 18 11 14 12 16 13
REMARK SMILES IDX 15 14 17 15 6 16 5 17 4 18 20 19 3 20 21 21 2 22 1 23
REMARK H PARENT 10 7 7 8
ROOT
ATOM      1  C   UNL     1      -4.933   3.583  -9.255  1.00  0.00     0.259 C 
ATOM      2  O   UNL     1      -4.389   2.776  -8.514  1.00  0.00    -0.269 OA
ATOM      3  N   UNL     1      -4.918   4.979  -9.191  1.00  0.00    -0.274 N 
ATOM      4  C   UNL     1      -4.204   5.956  -8.544  1.00  0.00     0.321 C 
ATOM      5  O   UNL     1      -4.415   7.130  -8.868  1.00  0.00    -0.248 OA
ATOM      6  N   UNL     1      -3.274   5.700  -7.605  1.00  0.00    -0.334 N 
ATOM      7  H   UNL     1      -5.464   5.436  -9.908  1.00  0.00     0.175 HD
ATOM      8  H   UNL     1      -2.779   6.522  -7.289  1.00  0.00     0.165 HD
ENDROOT
BRANCH   1   9
ATOM      9  C   UNL     1      -5.710   3.027 -10.380  1.00  0.00     0.040 A 
ATOM     10  C   UNL     1      -6.530   1.909 -10.215  1.00  0.00     0.014 A 
ATOM     11  C   UNL     1      -7.287   1.451 -11.294  1.00  0.00     0.004 A 
ATOM     12  C   UNL     1      -5.600   3.650 -11.626  1.00  0.00     0.014 A 
ATOM     13  C   UNL     1      -7.223   2.101 -12.536  1.00  0.00    -0.051 A 
ATOM     14  C   UNL     1      -6.363   3.194 -12.700  1.00  0.00     0.004 A 
ATOM     15  C   UNL     1      -8.106   1.650 -13.662  1.00  0.00     0.044 C 
ENDBRANCH   1   9
BRANCH   6  16
ATOM     16  C   UNL     1      -2.807   4.417  -7.161  1.00  0.00     0.153 C 
BRANCH  16  17
ATOM     17  C   UNL     1      -2.644   4.218  -5.680  1.00  0.00    -0.029 A 
ATOM     18  C   UNL     1      -1.441   4.454  -5.006  1.00  0.00     0.006 A 
ATOM     19  C   UNL     1      -3.808   3.988  -4.929  1.00  0.00     0.006 A 
ATOM     20  C   UNL     1      -1.416   4.484  -3.608  1.00  0.00     0.004 A 
ATOM     21  C   UNL     1      -3.783   4.022  -3.539  1.00  0.00     0.004 A 
ATOM     22  C   UNL     1      -2.588   4.281  -2.865  1.00  0.00    -0.051 A 
ATOM     23  C   UNL     1      -2.597   4.452  -1.376  1.00  0.00     0.044 C 
ENDBRANCH  16  17
ENDBRANCH   6  16
TORSDOF 3
ENDMDL
MODEL 5
REMARK VINA RESULT:    -5.834      3.046      7.551
REMARK INTER + INTRA:          -7.239
REMARK INTER:                  -6.748
REMARK INTRA:                  -0.491
REMARK UNBOUND:                -0.382
REMARK SMILES Cc1ccc(CNC(=O)NC(=O)c2ccc(C)cc2)cc1
REMARK SMILES IDX 11 1 12 2 10 3 8 4 9 5 7 6 13 9 19 10 18 11 14 12 16 13
REMARK SMILES IDX 15 14 17 15 6 16 5 17 4 18 20 19 3 20 21 21 2 22 1 23
REMARK H PARENT 10 7 7 8
ROOT
ATOM      1  C   UNL     1      -4.383   7.273  -8.255  1.00  0.00     0.259 C 
ATOM      2  O   UNL     1      -4.236   7.334  -7.042  1.00  0.00    -0.269 OA
ATOM      3  N   UNL     1      -4.495   6.139  -9.067  1.00  0.00    -0.274 N 
ATOM      4  C   UNL     1      -4.719   4.796  -8.906  1.00  0.00     0.321 C 
ATOM      5  O   UNL     1      -4.887   4.117  -9.925  1.00  0.00    -0.248 OA
ATOM      6  N   UNL     1      -4.795   4.192  -7.706  1.00  0.00    -0.334 N 
ATOM      7  H   UNL     1      -4.588   6.341 -10.053  1.00  0.00     0.175 HD
ATOM      8  H   UNL     1      -5.051   3.217  -7.757  1.00  0.00     0.165 HD
ENDROOT
BRANCH   1   9
ATOM      9  C   UNL     1      -4.459   8.557  -8.977  1.00  0.00     0.040 A 
ATOM     10  C   UNL     1      -5.586   8.907  -9.724  1.00  0.00     0.014 A 
ATOM     11  C   UNL     1      -5.634  10.154 -10.346  1.00  0.00     0.004 A 
ATOM     12  C   UNL     1      -3.362   9.421  -8.899  1.00  0.00     0.014 A 
ATOM     13  C   UNL     1      -4.559  11.049 -10.231  1.00  0.00    -0.051 A 
ATOM     14  C   UNL     1      -3.417  10.669  -9.517  1.00  0.00     0.004 A 
ATOM     15  C   UNL     1      -4.661  12.419 -10.835  1.00  0.00     0.044 C 
ENDBRANCH   1   9
BRANCH   6  16
ATOM     16  C   UNL     1      -4.733   4.808  -6.410  1.00  0.00     0.153 C 
BRANCH  16  17
ATOM     17  C   UNL     1      -3.700   4.290  -5.449  1.00  0.00    -0.029 A 
ATOM     18  C   UNL     1      -4.016   3.811  -4.173  1.00  0.00     0.006 A 
ATOM     19  C   UNL     1      -2.401   4.089  -5.946  1.00  0.00     0.006 A 
ATOM     20  C   UNL     1      -3.054   3.125  -3.425  1.00  0.00     0.004 A 
ATOM     21  C   UNL     1      -1.447   3.402  -5.203  1.00  0.00     0.004 A 
ATOM     22  C   UNL     1      -1.768   2.904  -3.939  1.00  0.00    -0.051 A 
ATOM     23  C   UNL     1      -0.780   2.048  -3.205  1.00  0.00     0.044 C 
ENDBRANCH  16  17
ENDBRANCH   6  16
TORSDOF 3
ENDMDL
MODEL 6
REMARK VINA RESULT:    -4.874      2.178      3.862
REMARK INTER + INTRA:          -6.111
REMARK INTER:                  -5.670
REMARK INTRA:                  -0.441
REMARK UNBOUND:                -0.382
REMARK SMILES Cc1ccc(CNC(=O)NC(=O)c2ccc(C)cc2)cc1
REMARK SMILES IDX 11 1 12 2 10 3 8 4 9 5 7 6 13 9 19 10 18 11 14 12 16 13
REMARK SMILES IDX 15 14 17 15 6 16 5 17 4 18 20 19 3 20 21 21 2 22 1 23
REMARK H PARENT 10 7 7 8
ROOT
ATOM      1  C   UNL     1      -5.023   3.336  -9.894  1.00  0.00     0.259 C 
ATOM      2  O   UNL     1      -5.319   2.150  -9.928  1.00  0.00    -0.269 OA
ATOM      3  N   UNL     1      -5.216   4.314 -10.874  1.00  0.00    -0.274 N 
ATOM      4  C   UNL     1      -5.937   4.460 -12.032  1.00  0.00     0.321 C 
ATOM      5  O   UNL     1      -5.945   5.575 -12.565  1.00  0.00    -0.248 OA
ATOM      6  N   UNL     1      -6.653   3.469 -12.593  1.00  0.00    -0.334 N 
ATOM      7  H   UNL     1      -4.865   5.229 -10.625  1.00  0.00     0.175 HD
ATOM      8  H   UNL     1      -7.195   3.761 -13.393  1.00  0.00     0.165 HD
ENDROOT
BRANCH   1   9
ATOM      9  C   UNL     1      -4.376   3.820  -8.660  1.00  0.00     0.040 A 
ATOM     10  C   UNL     1      -5.125   4.327  -7.596  1.00  0.00     0.014 A 
ATOM     11  C   UNL     1      -4.472   4.725  -6.429  1.00  0.00     0.004 A 
ATOM     12  C   UNL     1      -2.980   3.765  -8.584  1.00  0.00     0.014 A 
ATOM     13  C   UNL     1      -3.077   4.625  -6.323  1.00  0.00    -0.051 A 
ATOM     14  C   UNL     1      -2.334   4.157  -7.414  1.00  0.00     0.004 A 
ATOM     15  C   UNL     1      -2.399   4.976  -5.032  1.00  0.00     0.044 C 
ENDBRANCH   1   9
BRANCH   6  16
ATOM     16  C   UNL     1      -6.860   2.142 -12.085  1.00  0.00     0.153 C 
BRANCH  16  17
ATOM     17  C   UNL     1      -8.254   1.584 -12.160  1.00  0.00    -0.029 A 
ATOM     18  C   UNL     1      -9.323   2.096 -11.417  1.00  0.00     0.006 A 
ATOM     19  C   UNL     1      -8.520   0.652 -13.177  1.00  0.00     0.006 A 
ATOM     20  C   UNL     1     -10.632   1.698 -11.707  1.00  0.00     0.004 A 
ATOM     21  C   UNL     1      -9.823   0.260 -13.467  1.00  0.00     0.004 A 
ATOM     22  C   UNL     1     -10.892   0.788 -12.742  1.00  0.00    -0.051 A 
ATOM     23  C   UNL     1     -12.298   0.466 -13.152  1.00  0.00     0.044 C 
ENDBRANCH  16  17
ENDBRANCH   6  16
TORSDOF 3
ENDMDL
MODEL 7
REMARK VINA RESULT:    -4.836      4.871      7.286
REMARK INTER + INTRA:          -6.066
REMARK INTER:                  -5.616
REMARK INTRA:                  -0.450
REMARK UNBOUND:                -0.382
REMARK SMILES Cc1ccc(CNC(=O)NC(=O)c2ccc(C)cc2)cc1
REMARK SMILES IDX 11 1 12 2 10 3 8 4 9 5 7 6 13 9 19 10 18 11 14 12 16 13
REMARK SMILES IDX 15 14 17 15 6 16 5 17 4 18 20 19 3 20 21 21 2 22 1 23
REMARK H PARENT 10 7 7 8
ROOT
ATOM      1  C   UNL     1      -4.412   7.676  -8.366  1.00  0.00     0.259 C 
ATOM      2  O   UNL     1      -3.796   8.644  -7.944  1.00  0.00    -0.269 OA
ATOM      3  N   UNL     1      -5.436   7.636  -9.317  1.00  0.00    -0.274 N 
ATOM      4  C   UNL     1      -5.973   8.471 -10.264  1.00  0.00     0.321 C 
ATOM      5  O   UNL     1      -6.819   7.999 -11.031  1.00  0.00    -0.248 OA
ATOM      6  N   UNL     1      -5.605   9.757 -10.416  1.00  0.00    -0.334 N 
ATOM      7  H   UNL     1      -5.810   6.712  -9.489  1.00  0.00     0.175 HD
ATOM      8  H   UNL     1      -6.031  10.210 -11.212  1.00  0.00     0.165 HD
ENDROOT
BRANCH   1   9
ATOM      9  C   UNL     1      -4.035   6.361  -7.812  1.00  0.00     0.040 A 
ATOM     10  C   UNL     1      -2.997   5.608  -8.364  1.00  0.00     0.014 A 
ATOM     11  C   UNL     1      -2.643   4.395  -7.773  1.00  0.00     0.004 A 
ATOM     12  C   UNL     1      -4.756   5.881  -6.713  1.00  0.00     0.014 A 
ATOM     13  C   UNL     1      -3.326   3.929  -6.639  1.00  0.00    -0.051 A 
ATOM     14  C   UNL     1      -4.394   4.671  -6.122  1.00  0.00     0.004 A 
ATOM     15  C   UNL     1      -2.878   2.665  -5.965  1.00  0.00     0.044 C 
ENDBRANCH   1   9
BRANCH   6  16
ATOM     16  C   UNL     1      -4.577  10.464  -9.706  1.00  0.00     0.153 C 
BRANCH  16  17
ATOM     17  C   UNL     1      -3.657  11.337 -10.513  1.00  0.00    -0.029 A 
ATOM     18  C   UNL     1      -2.655  10.827 -11.346  1.00  0.00     0.006 A 
ATOM     19  C   UNL     1      -3.966  12.705 -10.585  1.00  0.00     0.006 A 
ATOM     20  C   UNL     1      -1.998  11.670 -12.248  1.00  0.00     0.004 A 
ATOM     21  C   UNL     1      -3.315  13.541 -11.486  1.00  0.00     0.004 A 
ATOM     22  C   UNL     1      -2.331  13.029 -12.333  1.00  0.00    -0.051 A 
ATOM     23  C   UNL     1      -1.734  13.905 -13.392  1.00  0.00     0.044 C 
ENDBRANCH  16  17
ENDBRANCH   6  16
TORSDOF 3
ENDMDL
MODEL 8
REMARK VINA RESULT:    -4.728      7.751      8.765
REMARK INTER + INTRA:          -5.939
REMARK INTER:                  -5.467
REMARK INTRA:                  -0.471
REMARK UNBOUND:                -0.382
REMARK SMILES Cc1ccc(CNC(=O)NC(=O)c2ccc(C)cc2)cc1
REMARK SMILES IDX 11 1 12 2 10 3 8 4 9 5 7 6 13 9 19 10 18 11 14 12 16 13
REMARK SMILES IDX 15 14 17 15 6 16 5 17 4 18 20 19 3 20 21 21 2 22 1 23
REMARK H PARENT 10 7 7 8
ROOT
ATOM      1  C   UNL     1      -8.415   6.291 -13.720  1.00  0.00     0.259 C 
ATOM      2  O   UNL     1      -7.790   5.245 -13.611  1.00  0.00    -0.269 OA
ATOM      3  N   UNL     1      -9.786   6.474 -13.924  1.00  0.00    -0.274 N 
ATOM      4  C   UNL     1     -10.931   5.722 -13.851  1.00  0.00     0.321 C 
ATOM      5  O   UNL     1     -12.011   6.308 -13.982  1.00  0.00    -0.248 OA
ATOM      6  N   UNL     1     -10.937   4.397 -13.617  1.00  0.00    -0.334 N 
ATOM      7  H   UNL     1     -10.070   7.441 -14.004  1.00  0.00     0.175 HD
ATOM      8  H   UNL     1     -11.863   4.008 -13.507  1.00  0.00     0.165 HD
ENDROOT
BRANCH   1   9
ATOM      9  C   UNL     1      -7.635   7.539 -13.621  1.00  0.00     0.040 A 
ATOM     10  C   UNL     1      -7.438   8.180 -12.397  1.00  0.00     0.014 A 
ATOM     11  C   UNL     1      -6.649   9.329 -12.345  1.00  0.00     0.004 A 
ATOM     12  C   UNL     1      -7.099   8.074 -14.797  1.00  0.00     0.014 A 
ATOM     13  C   UNL     1      -6.064   9.844 -13.511  1.00  0.00    -0.051 A 
ATOM     14  C   UNL     1      -6.306   9.218 -14.740  1.00  0.00     0.004 A 
ATOM     15  C   UNL     1      -5.150  11.031 -13.427  1.00  0.00     0.044 C 
ENDBRANCH   1   9
BRANCH   6  16
ATOM     16  C   UNL     1      -9.811   3.552 -13.336  1.00  0.00     0.153 C 
BRANCH  16  17
ATOM     17  C   UNL     1      -9.657   2.309 -14.168  1.00  0.00    -0.029 A 
ATOM     18  C   UNL     1      -8.579   2.099 -15.034  1.00  0.00     0.006 A 
ATOM     19  C   UNL     1     -10.526   1.240 -13.895  1.00  0.00     0.006 A 
ATOM     20  C   UNL     1      -8.366   0.834 -15.592  1.00  0.00     0.004 A 
ATOM     21  C   UNL     1     -10.311  -0.018 -14.447  1.00  0.00     0.004 A 
ATOM     22  C   UNL     1      -9.222  -0.235 -15.293  1.00  0.00    -0.051 A 
ATOM     23  C   UNL     1      -8.919  -1.623 -15.772  1.00  0.00     0.044 C 
ENDBRANCH  16  17
ENDBRANCH   6  16
TORSDOF 3
ENDMDL
MODEL 9
REMARK VINA RESULT:    -4.697      7.717     10.058
REMARK INTER + INTRA:          -5.902
REMARK INTER:                  -5.575
REMARK INTRA:                  -0.327
REMARK UNBOUND:                -0.382
REMARK SMILES Cc1ccc(CNC(=O)NC(=O)c2ccc(C)cc2)cc1
REMARK SMILES IDX 11 1 12 2 10 3 8 4 9 5 7 6 13 9 19 10 18 11 14 12 16 13
REMARK SMILES IDX 15 14 17 15 6 16 5 17 4 18 20 19 3 20 21 21 2 22 1 23
REMARK H PARENT 10 7 7 8
ROOT
ATOM      1  C   UNL     1      -8.751   3.559 -14.019  1.00  0.00     0.259 C 
ATOM      2  O   UNL     1      -7.635   4.042 -13.892  1.00  0.00    -0.269 OA
ATOM      3  N   UNL     1      -9.996   4.187 -13.902  1.00  0.00    -0.274 N 
ATOM      4  C   UNL     1     -10.484   5.468 -13.856  1.00  0.00     0.321 C 
ATOM      5  O   UNL     1     -11.711   5.615 -13.884  1.00  0.00    -0.248 OA
ATOM      6  N   UNL     1      -9.701   6.562 -13.814  1.00  0.00    -0.334 N 
ATOM      7  H   UNL     1     -10.787   3.571 -14.031  1.00  0.00     0.175 HD
ATOM      8  H   UNL     1     -10.213   7.430 -13.871  1.00  0.00     0.165 HD
ENDROOT
BRANCH   1   9
ATOM      9  C   UNL     1      -8.816   2.122 -14.347  1.00  0.00     0.040 A 
ATOM     10  C   UNL     1      -8.355   1.633 -15.571  1.00  0.00     0.014 A 
ATOM     11  C   UNL     1      -8.387   0.259 -15.814  1.00  0.00     0.004 A 
ATOM     12  C   UNL     1      -9.361   1.255 -13.395  1.00  0.00     0.014 A 
ATOM     13  C   UNL     1      -8.885  -0.624 -14.844  1.00  0.00    -0.051 A 
ATOM     14  C   UNL     1      -9.386  -0.116 -13.639  1.00  0.00     0.004 A 
ATOM     15  C   UNL     1      -8.835  -2.104 -15.087  1.00  0.00     0.044 C 
ENDBRANCH   1   9
BRANCH   6  16
ATOM     16  C   UNL     1      -8.268   6.617 -13.879  1.00  0.00     0.153 C 
BRANCH  16  17
ATOM     17  C   UNL     1      -7.616   7.945 -13.614  1.00  0.00    -0.029 A 
ATOM     18  C   UNL     1      -7.531   8.512 -12.338  1.00  0.00     0.006 A 
ATOM     19  C   UNL     1      -6.884   8.524 -14.663  1.00  0.00     0.006 A 
ATOM     20  C   UNL     1      -6.709   9.622 -12.118  1.00  0.00     0.004 A 
ATOM     21  C   UNL     1      -6.063   9.624 -14.443  1.00  0.00     0.004 A 
ATOM     22  C   UNL     1      -5.960  10.178 -13.165  1.00  0.00    -0.051 A 
ATOM     23  C   UNL     1      -4.970  11.274 -12.909  1.00  0.00     0.044 C 
ENDBRANCH  16  17
ENDBRANCH   6  16
TORSDOF 3
ENDMDL
