MODEL 1
REMARK VINA RESULT:    -5.176      0.000      0.000
REMARK INTER + INTRA:          -6.538
REMARK INTER:                  -6.084
REMARK INTRA:                  -0.454
REMARK UNBOUND:                -0.454
REMARK SMILES Cc1ccc(CNC(=O)NC(=O)c2ccc(C)cc2)cc1
REMARK SMILES IDX 11 1 12 2 10 3 8 4 9 5 7 6 13 9 19 10 18 11 14 12 16 13
REMARK SMILES IDX 15 14 17 15 6 16 5 17 4 18 20 19 3 20 21 21 2 22 1 23
REMARK H PARENT 10 7 7 8
ROOT
ATOM      1  C   UNL     1       6.621  -5.596  11.718  1.00  0.00     0.259 C 
ATOM      2  O   UNL     1       5.625  -5.884  11.069  1.00  0.00    -0.269 OA
ATOM      3  N   UNL     1       7.360  -4.409  11.705  1.00  0.00    -0.274 N 
ATOM      4  C   UNL     1       7.209  -3.126  11.245  1.00  0.00     0.321 C 
ATOM      5  O   UNL     1       8.070  -2.298  11.562  1.00  0.00    -0.248 OA
ATOM      6  N   UNL     1       6.165  -2.722  10.497  1.00  0.00    -0.334 N 
ATOM      7  H   UNL     1       8.165  -4.413  12.318  1.00  0.00     0.175 HD
ATOM      8  H   UNL     1       6.158  -1.729  10.313  1.00  0.00     0.165 HD
ENDROOT
BRANCH   1   9
ATOM      9  C   UNL     1       7.124  -6.625  12.648  1.00  0.00     0.040 A 
ATOM     10  C   UNL     1       7.312  -7.947  12.240  1.00  0.00     0.014 A 
ATOM     11  C   UNL     1       7.840  -8.872  13.140  1.00  0.00     0.004 A 
ATOM     12  C   UNL     1       7.404  -6.241  13.963  1.00  0.00     0.014 A 
ATOM     13  C   UNL     1       8.172  -8.485  14.447  1.00  0.00    -0.051 A 
ATOM     14  C   UNL     1       7.937  -7.167  14.857  1.00  0.00     0.004 A 
ATOM     15  C   UNL     1       8.817  -9.470  15.377  1.00  0.00     0.044 C 
ENDBRANCH   1   9
BRANCH   6  16
ATOM     16  C   UNL     1       5.016  -3.490  10.109  1.00  0.00     0.153 C 
BRANCH  16  17
ATOM     17  C   UNL     1       4.561  -3.376   8.681  1.00  0.00    -0.029 A 
ATOM     18  C   UNL     1       4.066  -4.460   7.949  1.00  0.00     0.006 A 
ATOM     19  C   UNL     1       4.438  -2.083   8.146  1.00  0.00     0.006 A 
ATOM     20  C   UNL     1       3.438  -4.245   6.717  1.00  0.00     0.004 A 
ATOM     21  C   UNL     1       3.809  -1.870   6.923  1.00  0.00     0.004 A 
ATOM     22  C   UNL     1       3.294  -2.949   6.202  1.00  0.00    -0.051 A 
ATOM     23  C   UNL     1       2.499  -2.697   4.956  1.00  0.00     0.044 C 
ENDBRANCH  16  17
ENDBRANCH   6  16
TORSDOF 3
ENDMDL
MODEL 2
REMARK VINA RESULT:    -5.174      2.923      5.138
REMARK INTER + INTRA:          -6.535
REMARK INTER:                  -6.082
REMARK INTRA:                  -0.453
REMARK UNBOUND:                -0.454
REMARK SMILES Cc1ccc(CNC(=O)NC(=O)c2ccc(C)cc2)cc1
REMARK SMILES IDX 11 1 12 2 10 3 8 4 9 5 7 6 13 9 19 10 18 11 14 12 16 13
REMARK SMILES IDX 15 14 17 15 6 16 5 17 4 18 20 19 3 20 21 21 2 22 1 23
REMARK H PARENT 10 7 7 8
ROOT
ATOM      1  C   UNL     1       7.909  -1.850  11.309  1.00  0.00     0.259 C 
ATOM      2  O   UNL     1       7.630  -1.303  10.251  1.00  0.00    -0.269 OA
ATOM      3  N   UNL     1       7.510  -3.106  11.777  1.00  0.00    -0.274 N 
ATOM      4  C   UNL     1       6.934  -4.241  11.267  1.00  0.00     0.321 C 
ATOM      5  O   UNL     1       6.863  -5.229  12.005  1.00  0.00    -0.248 OA
ATOM      6  N   UNL     1       6.476  -4.341  10.005  1.00  0.00    -0.334 N 
ATOM      7  H   UNL     1       7.853  -3.335  12.700  1.00  0.00     0.175 HD
ATOM      8  H   UNL     1       6.161  -5.268   9.759  1.00  0.00     0.165 HD
ENDROOT
BRANCH   1   9
ATOM      9  C   UNL     1       8.788  -1.102  12.227  1.00  0.00     0.040 A 
ATOM     10  C   UNL     1       8.539   0.234  12.548  1.00  0.00     0.014 A 
ATOM     11  C   UNL     1       9.368   0.884  13.462  1.00  0.00     0.004 A 
ATOM     12  C   UNL     1       9.892  -1.768  12.769  1.00  0.00     0.014 A 
ATOM     13  C   UNL     1      10.448   0.209  14.050  1.00  0.00    -0.051 A 
ATOM     14  C   UNL     1      10.714  -1.117  13.686  1.00  0.00     0.004 A 
ATOM     15  C   UNL     1      11.279   0.895  15.094  1.00  0.00     0.044 C 
ENDBRANCH   1   9
BRANCH   6  16
ATOM     16  C   UNL     1       6.556  -3.356   8.963  1.00  0.00     0.153 C 
BRANCH  16  17
ATOM     17  C   UNL     1       5.324  -3.128   8.133  1.00  0.00    -0.029 A 
ATOM     18  C   UNL     1       4.939  -1.867   7.668  1.00  0.00     0.006 A 
ATOM     19  C   UNL     1       4.663  -4.264   7.638  1.00  0.00     0.006 A 
ATOM     20  C   UNL     1       3.928  -1.753   6.707  1.00  0.00     0.004 A 
ATOM     21  C   UNL     1       3.661  -4.150   6.680  1.00  0.00     0.004 A 
ATOM     22  C   UNL     1       3.292  -2.893   6.198  1.00  0.00    -0.051 A 
ATOM     23  C   UNL     1       2.310  -2.790   5.069  1.00  0.00     0.044 C 
ENDBRANCH  16  17
ENDBRANCH   6  16
TORSDOF 3
ENDMDL
MODEL 3
REMARK VINA RESULT:    -5.168      1.184      8.061
REMARK INTER + INTRA:          -6.529
REMARK INTER:                  -6.165
REMARK INTRA:                  -0.363
REMARK UNBOUND:                -0.454
REMARK SMILES Cc1ccc(CNC(=O)NC(=O)c2ccc(C)cc2)cc1
REMARK SMILES IDX 11 1 12 2 10 3 8 4 9 5 7 6 13 9 19 10 18 11 14 12 16 13
REMARK SMILES IDX 15 14 17 15 6 16 5 17 4 18 20 19 3 20 21 21 2 22 1 23
REMARK H PARENT 10 7 7 8
ROOT
ATOM      1  C   UNL     1       5.777  -3.637   9.526  1.00  0.00     0.259 C 
ATOM      2  O   UNL     1       5.229  -4.693   9.811  1.00  0.00    -0.269 OA
ATOM      3  N   UNL     1       6.685  -2.890  10.284  1.00  0.00    -0.274 N 
ATOM      4  C   UNL     1       7.466  -3.070  11.396  1.00  0.00     0.321 C 
ATOM      5  O   UNL     1       8.267  -2.175  11.685  1.00  0.00    -0.248 OA
ATOM      6  N   UNL     1       7.425  -4.176  12.163  1.00  0.00    -0.334 N 
ATOM      7  H   UNL     1       6.987  -2.031   9.843  1.00  0.00     0.175 HD
ATOM      8  H   UNL     1       8.123  -4.190  12.893  1.00  0.00     0.165 HD
ENDROOT
BRANCH   1   9
ATOM      9  C   UNL     1       5.453  -3.060   8.208  1.00  0.00     0.040 A 
ATOM     10  C   UNL     1       4.505  -2.043   8.071  1.00  0.00     0.014 A 
ATOM     11  C   UNL     1       4.271  -1.492   6.811  1.00  0.00     0.004 A 
ATOM     12  C   UNL     1       6.119  -3.565   7.087  1.00  0.00     0.014 A 
ATOM     13  C   UNL     1       4.972  -1.957   5.689  1.00  0.00    -0.051 A 
ATOM     14  C   UNL     1       5.886  -3.007   5.832  1.00  0.00     0.004 A 
ATOM     15  C   UNL     1       4.770  -1.297   4.356  1.00  0.00     0.044 C 
ENDBRANCH   1   9
BRANCH   6  16
ATOM     16  C   UNL     1       6.650  -5.364  11.946  1.00  0.00     0.153 C 
BRANCH  16  17
ATOM     17  C   UNL     1       7.036  -6.591  12.724  1.00  0.00    -0.029 A 
ATOM     18  C   UNL     1       7.224  -7.844  12.130  1.00  0.00     0.006 A 
ATOM     19  C   UNL     1       7.424  -6.409  14.062  1.00  0.00     0.006 A 
ATOM     20  C   UNL     1       7.813  -8.883  12.859  1.00  0.00     0.004 A 
ATOM     21  C   UNL     1       8.014  -7.442  14.784  1.00  0.00     0.004 A 
ATOM     22  C   UNL     1       8.223  -8.686  14.185  1.00  0.00    -0.051 A 
ATOM     23  C   UNL     1       8.982  -9.747  14.924  1.00  0.00     0.044 C 
ENDBRANCH  16  17
ENDBRANCH   6  16
TORSDOF 3
ENDMDL
MODEL 4
REMARK VINA RESULT:    -5.168      3.067      7.810
REMARK INTER + INTRA:          -6.528
REMARK INTER:                  -6.166
REMARK INTRA:                  -0.362
REMARK UNBOUND:                -0.454
REMARK SMILES Cc1ccc(CNC(=O)NC(=O)c2ccc(C)cc2)cc1
REMARK SMILES IDX 11 1 12 2 10 3 8 4 9 5 7 6 13 9 19 10 18 11 14 12 16 13
REMARK SMILES IDX 15 14 17 15 6 16 5 17 4 18 20 19 3 20 21 21 2 22 1 23
REMARK H PARENT 10 7 7 8
ROOT
ATOM      1  C   UNL     1       5.812  -3.187   9.568  1.00  0.00     0.259 C 
ATOM      2  O   UNL     1       6.380  -2.129   9.338  1.00  0.00    -0.269 OA
ATOM      3  N   UNL     1       6.169  -4.194  10.471  1.00  0.00    -0.274 N 
ATOM      4  C   UNL     1       7.022  -4.346  11.534  1.00  0.00     0.321 C 
ATOM      5  O   UNL     1       6.946  -5.394  12.184  1.00  0.00    -0.248 OA
ATOM      6  N   UNL     1       7.907  -3.408  11.918  1.00  0.00    -0.334 N 
ATOM      7  H   UNL     1       5.551  -4.994  10.468  1.00  0.00     0.175 HD
ATOM      8  H   UNL     1       8.399  -3.637  12.769  1.00  0.00     0.165 HD
ENDROOT
BRANCH   1   9
ATOM      9  C   UNL     1       4.580  -3.455   8.802  1.00  0.00     0.040 A 
ATOM     10  C   UNL     1       4.589  -4.274   7.671  1.00  0.00     0.014 A 
ATOM     11  C   UNL     1       3.389  -4.540   7.011  1.00  0.00     0.004 A 
ATOM     12  C   UNL     1       3.393  -2.858   9.238  1.00  0.00     0.014 A 
ATOM     13  C   UNL     1       2.184  -3.988   7.471  1.00  0.00    -0.051 A 
ATOM     14  C   UNL     1       2.196  -3.132   8.579  1.00  0.00     0.004 A 
ATOM     15  C   UNL     1       0.892  -4.352   6.801  1.00  0.00     0.044 C 
ENDBRANCH   1   9
BRANCH   6  16
ATOM     16  C   UNL     1       8.082  -2.092  11.370  1.00  0.00     0.153 C 
BRANCH  16  17
ATOM     17  C   UNL     1       8.886  -1.111  12.176  1.00  0.00    -0.029 A 
ATOM     18  C   UNL     1       8.453   0.192  12.445  1.00  0.00     0.006 A 
ATOM     19  C   UNL     1      10.012  -1.605  12.854  1.00  0.00     0.006 A 
ATOM     20  C   UNL     1       9.125   0.971  13.393  1.00  0.00     0.004 A 
ATOM     21  C   UNL     1      10.676  -0.830  13.801  1.00  0.00     0.004 A 
ATOM     22  C   UNL     1      10.232   0.462  14.086  1.00  0.00    -0.051 A 
ATOM     23  C   UNL     1      10.867   1.235  15.202  1.00  0.00     0.044 C 
ENDBRANCH  16  17
ENDBRANCH   6  16
TORSDOF 3
ENDMDL
MODEL 5
REMARK VINA RESULT:    -4.766      7.792      8.960
REMARK INTER + INTRA:          -6.056
REMARK INTER:                  -5.557
REMARK INTRA:                  -0.498
REMARK UNBOUND:                -0.454
REMARK SMILES Cc1ccc(CNC(=O)NC(=O)c2ccc(C)cc2)cc1
REMARK SMILES IDX 11 1 12 2 10 3 8 4 9 5 7 6 13 9 19 10 18 11 14 12 16 13
REMARK SMILES IDX 15 14 17 15 6 16 5 17 4 18 20 19 3 20 21 21 2 22 1 23
REMARK H PARENT 10 7 7 8
ROOT
ATOM      1  C   UNL     1      11.446  -7.815  15.566  1.00  0.00     0.259 C 
ATOM      2  O   UNL     1      10.990  -6.809  15.040  1.00  0.00    -0.269 OA
ATOM      3  N   UNL     1      12.624  -7.958  16.306  1.00  0.00    -0.274 N 
ATOM      4  C   UNL     1      13.542  -7.142  16.918  1.00  0.00     0.321 C 
ATOM      5  O   UNL     1      14.410  -7.678  17.615  1.00  0.00    -0.248 OA
ATOM      6  N   UNL     1      13.526  -5.800  16.821  1.00  0.00    -0.334 N 
ATOM      7  H   UNL     1      12.804  -8.900  16.625  1.00  0.00     0.175 HD
ATOM      8  H   UNL     1      14.217  -5.343  17.399  1.00  0.00     0.165 HD
ENDROOT
BRANCH   1   9
ATOM      9  C   UNL     1      10.659  -9.054  15.416  1.00  0.00     0.040 A 
ATOM     10  C   UNL     1      10.466  -9.928  16.487  1.00  0.00     0.014 A 
ATOM     11  C   UNL     1       9.671 -11.061  16.311  1.00  0.00     0.004 A 
ATOM     12  C   UNL     1      10.114  -9.337  14.160  1.00  0.00     0.014 A 
ATOM     13  C   UNL     1       9.076 -11.327  15.068  1.00  0.00    -0.051 A 
ATOM     14  C   UNL     1       9.315 -10.466  13.990  1.00  0.00     0.004 A 
ATOM     15  C   UNL     1       8.155 -12.502  14.917  1.00  0.00     0.044 C 
ENDBRANCH   1   9
BRANCH   6  16
ATOM     16  C   UNL     1      12.554  -4.981  16.153  1.00  0.00     0.153 C 
BRANCH  16  17
ATOM     17  C   UNL     1      13.065  -3.968  15.167  1.00  0.00    -0.029 A 
ATOM     18  C   UNL     1      14.426  -3.707  14.978  1.00  0.00     0.006 A 
ATOM     19  C   UNL     1      12.138  -3.427  14.262  1.00  0.00     0.006 A 
ATOM     20  C   UNL     1      14.846  -2.938  13.887  1.00  0.00     0.004 A 
ATOM     21  C   UNL     1      12.558  -2.666  13.175  1.00  0.00     0.004 A 
ATOM     22  C   UNL     1      13.917  -2.424  12.972  1.00  0.00    -0.051 A 
ATOM     23  C   UNL     1      14.368  -1.722  11.726  1.00  0.00     0.044 C 
ENDBRANCH  16  17
ENDBRANCH   6  16
TORSDOF 3
ENDMDL
MODEL 6
REMARK VINA RESULT:    -4.672      8.229     10.414
REMARK INTER + INTRA:          -5.945
REMARK INTER:                  -5.456
REMARK INTRA:                  -0.490
REMARK UNBOUND:                -0.454
REMARK SMILES Cc1ccc(CNC(=O)NC(=O)c2ccc(C)cc2)cc1
REMARK SMILES IDX 11 1 12 2 10 3 8 4 9 5 7 6 13 9 19 10 18 11 14 12 16 13
REMARK SMILES IDX 15 14 17 15 6 16 5 17 4 18 20 19 3 20 21 21 2 22 1 23
REMARK H PARENT 10 7 7 8
ROOT
ATOM      1  C   UNL     1      12.171  -5.668  15.520  1.00  0.00     0.259 C 
ATOM      2  O   UNL     1      11.596  -6.452  14.778  1.00  0.00    -0.269 OA
ATOM      3  N   UNL     1      12.996  -5.943  16.615  1.00  0.00    -0.274 N 
ATOM      4  C   UNL     1      13.657  -7.025  17.139  1.00  0.00     0.321 C 
ATOM      5  O   UNL     1      14.424  -6.823  18.087  1.00  0.00    -0.248 OA
ATOM      6  N   UNL     1      13.536  -8.276  16.658  1.00  0.00    -0.334 N 
ATOM      7  H   UNL     1      13.343  -5.122  17.092  1.00  0.00     0.175 HD
ATOM      8  H   UNL     1      14.153  -8.942  17.098  1.00  0.00     0.165 HD
ENDROOT
BRANCH   1   9
ATOM      9  C   UNL     1      11.986  -4.232  15.234  1.00  0.00     0.040 A 
ATOM     10  C   UNL     1      11.059  -3.463  15.940  1.00  0.00     0.014 A 
ATOM     11  C   UNL     1      10.957  -2.098  15.671  1.00  0.00     0.004 A 
ATOM     12  C   UNL     1      12.765  -3.658  14.225  1.00  0.00     0.014 A 
ATOM     13  C   UNL     1      11.771  -1.501  14.696  1.00  0.00    -0.051 A 
ATOM     14  C   UNL     1      12.664  -2.292  13.964  1.00  0.00     0.004 A 
ATOM     15  C   UNL     1      11.709  -0.018  14.477  1.00  0.00     0.044 C 
ENDBRANCH   1   9
BRANCH   6  16
ATOM     16  C   UNL     1      12.786  -8.704  15.511  1.00  0.00     0.153 C 
BRANCH  16  17
ATOM     17  C   UNL     1      11.770  -9.793  15.718  1.00  0.00    -0.029 A 
ATOM     18  C   UNL     1      10.753  -9.716  16.675  1.00  0.00     0.006 A 
ATOM     19  C   UNL     1      11.729 -10.824  14.765  1.00  0.00     0.006 A 
ATOM     20  C   UNL     1       9.703 -10.640  16.656  1.00  0.00     0.004 A 
ATOM     21  C   UNL     1      10.682 -11.740  14.745  1.00  0.00     0.004 A 
ATOM     22  C   UNL     1       9.654 -11.650  15.685  1.00  0.00    -0.051 A 
ATOM     23  C   UNL     1       8.463 -12.554  15.571  1.00  0.00     0.044 C 
ENDBRANCH  16  17
ENDBRANCH   6  16
TORSDOF 3
ENDMDL
MODEL 7
REMARK VINA RESULT:    -4.671      6.953      8.388
REMARK INTER + INTRA:          -5.944
REMARK INTER:                  -5.388
REMARK INTRA:                  -0.557
REMARK UNBOUND:                -0.454
REMARK SMILES Cc1ccc(CNC(=O)NC(=O)c2ccc(C)cc2)cc1
REMARK SMILES IDX 11 1 12 2 10 3 8 4 9 5 7 6 13 9 19 10 18 11 14 12 16 13
REMARK SMILES IDX 15 14 17 15 6 16 5 17 4 18 20 19 3 20 21 21 2 22 1 23
REMARK H PARENT 10 7 7 8
ROOT
ATOM      1  C   UNL     1      12.197  -7.961  15.674  1.00  0.00     0.259 C 
ATOM      2  O   UNL     1      12.418  -7.474  14.574  1.00  0.00    -0.269 OA
ATOM      3  N   UNL     1      12.584  -7.490  16.933  1.00  0.00    -0.274 N 
ATOM      4  C   UNL     1      13.080  -6.331  17.473  1.00  0.00     0.321 C 
ATOM      5  O   UNL     1      13.169  -6.265  18.704  1.00  0.00    -0.248 OA
ATOM      6  N   UNL     1      13.441  -5.263  16.739  1.00  0.00    -0.334 N 
ATOM      7  H   UNL     1      12.300  -8.080  17.704  1.00  0.00     0.175 HD
ATOM      8  H   UNL     1      13.704  -4.460  17.291  1.00  0.00     0.165 HD
ENDROOT
BRANCH   1   9
ATOM      9  C   UNL     1      11.414  -9.211  15.698  1.00  0.00     0.040 A 
ATOM     10  C   UNL     1      11.555 -10.178  14.701  1.00  0.00     0.014 A 
ATOM     11  C   UNL     1      10.832 -11.367  14.794  1.00  0.00     0.004 A 
ATOM     12  C   UNL     1      10.514  -9.402  16.751  1.00  0.00     0.014 A 
ATOM     13  C   UNL     1       9.964 -11.591  15.874  1.00  0.00    -0.051 A 
ATOM     14  C   UNL     1       9.798 -10.594  16.844  1.00  0.00     0.004 A 
ATOM     15  C   UNL     1       9.259 -12.908  16.005  1.00  0.00     0.044 C 
ENDBRANCH   1   9
BRANCH   6  16
ATOM     16  C   UNL     1      13.321  -5.096  15.318  1.00  0.00     0.153 C 
BRANCH  16  17
ATOM     17  C   UNL     1      12.512  -3.927  14.827  1.00  0.00    -0.029 A 
ATOM     18  C   UNL     1      13.025  -2.953  13.964  1.00  0.00     0.006 A 
ATOM     19  C   UNL     1      11.132  -3.945  15.086  1.00  0.00     0.006 A 
ATOM     20  C   UNL     1      12.163  -2.034  13.355  1.00  0.00     0.004 A 
ATOM     21  C   UNL     1      10.276  -3.034  14.477  1.00  0.00     0.004 A 
ATOM     22  C   UNL     1      10.783  -2.076  13.597  1.00  0.00    -0.051 A 
ATOM     23  C   UNL     1       9.840  -1.189  12.842  1.00  0.00     0.044 C 
ENDBRANCH  16  17
ENDBRANCH   6  16
TORSDOF 3
ENDMDL
MODEL 8
REMARK VINA RESULT:    -4.640      7.695     10.850
REMARK INTER + INTRA:          -5.907
REMARK INTER:                  -5.339
REMARK INTRA:                  -0.569
REMARK UNBOUND:                -0.454
REMARK SMILES Cc1ccc(CNC(=O)NC(=O)c2ccc(C)cc2)cc1
REMARK SMILES IDX 11 1 12 2 10 3 8 4 9 5 7 6 13 9 19 10 18 11 14 12 16 13
REMARK SMILES IDX 15 14 17 15 6 16 5 17 4 18 20 19 3 20 21 21 2 22 1 23
REMARK H PARENT 10 7 7 8
ROOT
ATOM      1  C   UNL     1      12.447  -1.079  14.977  1.00  0.00     0.259 C 
ATOM      2  O   UNL     1      12.913  -1.447  16.046  1.00  0.00    -0.269 OA
ATOM      3  N   UNL     1      12.928  -1.314  13.685  1.00  0.00    -0.274 N 
ATOM      4  C   UNL     1      13.840  -2.140  13.078  1.00  0.00     0.321 C 
ATOM      5  O   UNL     1      13.883  -2.137  11.843  1.00  0.00    -0.248 OA
ATOM      6  N   UNL     1      14.661  -2.966  13.753  1.00  0.00    -0.334 N 
ATOM      7  H   UNL     1      12.380  -0.887  12.951  1.00  0.00     0.175 HD
ATOM      8  H   UNL     1      15.210  -3.569  13.157  1.00  0.00     0.165 HD
ENDROOT
BRANCH   1   9
ATOM      9  C   UNL     1      11.206  -0.283  15.035  1.00  0.00     0.040 A 
ATOM     10  C   UNL     1      10.476   0.014  13.883  1.00  0.00     0.014 A 
ATOM     11  C   UNL     1       9.281   0.725  13.995  1.00  0.00     0.004 A 
ATOM     12  C   UNL     1      10.780   0.178  16.285  1.00  0.00     0.014 A 
ATOM     13  C   UNL     1       8.818   1.147  15.250  1.00  0.00    -0.051 A 
ATOM     14  C   UNL     1       9.583   0.883  16.393  1.00  0.00     0.004 A 
ATOM     15  C   UNL     1       7.490   1.837  15.363  1.00  0.00     0.044 C 
ENDBRANCH   1   9
BRANCH   6  16
ATOM     16  C   UNL     1      14.700  -3.198  15.169  1.00  0.00     0.153 C 
BRANCH  16  17
ATOM     17  C   UNL     1      14.246  -4.544  15.661  1.00  0.00    -0.029 A 
ATOM     18  C   UNL     1      12.985  -5.077  15.374  1.00  0.00     0.006 A 
ATOM     19  C   UNL     1      15.214  -5.373  16.251  1.00  0.00     0.006 A 
ATOM     20  C   UNL     1      12.713  -6.420  15.651  1.00  0.00     0.004 A 
ATOM     21  C   UNL     1      14.944  -6.710  16.522  1.00  0.00     0.004 A 
ATOM     22  C   UNL     1      13.693  -7.249  16.215  1.00  0.00    -0.051 A 
ATOM     23  C   UNL     1      13.457  -8.720  16.383  1.00  0.00     0.044 C 
ENDBRANCH  16  17
ENDBRANCH   6  16
TORSDOF 3
ENDMDL
MODEL 9
REMARK VINA RESULT:    -4.638      6.723     10.130
REMARK INTER + INTRA:          -5.906
REMARK INTER:                  -5.343
REMARK INTRA:                  -0.563
REMARK UNBOUND:                -0.454
REMARK SMILES Cc1ccc(CNC(=O)NC(=O)c2ccc(C)cc2)cc1
REMARK SMILES IDX 11 1 12 2 10 3 8 4 9 5 7 6 13 9 19 10 18 11 14 12 16 13
REMARK SMILES IDX 15 14 17 15 6 16 5 17 4 18 20 19 3 20 21 21 2 22 1 23
REMARK H PARENT 10 7 7 8
ROOT
ATOM      1  C   UNL     1      10.431  -1.209  17.895  1.00  0.00     0.259 C 
ATOM      2  O   UNL     1       9.237  -1.473  17.924  1.00  0.00    -0.269 OA
ATOM      3  N   UNL     1      11.514  -2.009  18.272  1.00  0.00    -0.274 N 
ATOM      4  C   UNL     1      11.747  -3.330  18.556  1.00  0.00     0.321 C 
ATOM      5  O   UNL     1      12.920  -3.682  18.725  1.00  0.00    -0.248 OA
ATOM      6  N   UNL     1      10.776  -4.258  18.630  1.00  0.00    -0.334 N 
ATOM      7  H   UNL     1      12.416  -1.561  18.178  1.00  0.00     0.175 HD
ATOM      8  H   UNL     1      11.120  -5.198  18.762  1.00  0.00     0.165 HD
ENDROOT
BRANCH   1   9
ATOM      9  C   UNL     1      10.799   0.129  17.393  1.00  0.00     0.040 A 
ATOM     10  C   UNL     1       9.881   1.181  17.383  1.00  0.00     0.014 A 
ATOM     11  C   UNL     1      10.290   2.442  16.948  1.00  0.00     0.004 A 
ATOM     12  C   UNL     1      12.100   0.317  16.917  1.00  0.00     0.014 A 
ATOM     13  C   UNL     1      11.608   2.653  16.517  1.00  0.00    -0.051 A 
ATOM     14  C   UNL     1      12.507   1.579  16.489  1.00  0.00     0.004 A 
ATOM     15  C   UNL     1      12.056   4.033  16.133  1.00  0.00     0.044 C 
ENDBRANCH   1   9
BRANCH   6  16
ATOM     16  C   UNL     1       9.375  -4.083  18.367  1.00  0.00     0.153 C 
BRANCH  16  17
ATOM     17  C   UNL     1       8.812  -4.759  17.148  1.00  0.00    -0.029 A 
ATOM     18  C   UNL     1       9.363  -4.612  15.871  1.00  0.00     0.006 A 
ATOM     19  C   UNL     1       7.824  -5.736  17.353  1.00  0.00     0.006 A 
ATOM     20  C   UNL     1       8.947  -5.448  14.829  1.00  0.00     0.004 A 
ATOM     21  C   UNL     1       7.415  -6.570  16.317  1.00  0.00     0.004 A 
ATOM     22  C   UNL     1       7.980  -6.440  15.048  1.00  0.00    -0.051 A 
ATOM     23  C   UNL     1       7.634  -7.430  13.976  1.00  0.00     0.044 C 
ENDBRANCH  16  17
ENDBRANCH   6  16
TORSDOF 3
ENDMDL
