MODEL 1
REMARK VINA RESULT:    -4.110      0.000      0.000
REMARK INTER + INTRA:          -5.653
REMARK INTER:                  -5.431
REMARK INTRA:                  -0.222
REMARK UNBOUND:                -0.222
REMARK SMILES [H]/N=C\C[C@H]1C[C@@H]1O[C@H]1CO[C@H]2C[C@@H](C3CC3)CCN2C1
REMARK SMILES IDX 7 1 6 2 5 3 8 4 9 5 14 6 13 7 18 8 12 9 19 10 20 11 11 12
REMARK SMILES IDX 21 13 10 14 15 15 16 16 17 17 4 18 3 19 2 20 1 21
REMARK H PARENT
ROOT
ATOM      1  C   UNL     1      11.622   1.373  15.747  1.00  0.00     0.122 C 
ATOM      2  C   UNL     1      10.552   2.000  14.898  1.00  0.00     0.039 C 
ATOM      3  C   UNL     1      11.326   2.843  15.870  1.00  0.00     0.026 C 
ENDROOT
BRANCH   1   4
ATOM      4  O   UNL     1      11.118   0.524  16.795  1.00  0.00    -0.371 OA
BRANCH   4   5
ATOM      5  C   UNL     1      12.077  -0.368  17.385  1.00  0.00     0.158 C 
ATOM      6  C   UNL     1       9.513  -4.855  16.680  1.00  0.00    -0.003 C 
ATOM      7  C   UNL     1       9.356  -3.632  17.591  1.00  0.00     0.052 C 
ATOM      8  C   UNL     1      10.111  -4.414  15.336  1.00  0.00     0.019 C 
ATOM      9  C   UNL     1      10.666  -2.843  17.718  1.00  0.00     0.189 C 
ATOM     10  C   UNL     1      11.394  -3.606  15.534  1.00  0.00     0.087 C 
ATOM     11  N   UNL     1      11.155  -2.449  16.397  1.00  0.00    -0.276 NA
ATOM     12  O   UNL     1      10.384  -1.713  18.545  1.00  0.00    -0.360 OA
ATOM     13  C   UNL     1      12.355  -1.615  16.526  1.00  0.00     0.121 C 
ATOM     14  C   UNL     1      11.515  -0.854  18.725  1.00  0.00     0.195 C 
BRANCH   6  15
ATOM     15  C   UNL     1       8.194  -5.562  16.467  1.00  0.00    -0.008 C 
ATOM     16  C   UNL     1       8.029  -7.009  16.870  1.00  0.00     0.004 C 
ATOM     17  C   UNL     1       7.317  -5.933  17.638  1.00  0.00     0.004 C 
ENDBRANCH   6  15
ENDBRANCH   4   5
ENDBRANCH   1   4
BRANCH   3  18
ATOM     18  C   UNL     1      12.297   3.856  15.341  1.00  0.00     0.053 C 
BRANCH  18  19
ATOM     19  C   UNL     1      11.772   4.793  14.285  1.00  0.00     0.074 C 
BRANCH  19  20
ATOM     20  N   UNL     1      12.365   5.096  13.178  1.00  0.00    -0.313 NA
ATOM     21  H   UNL     1      11.766   5.675  12.573  1.00  0.00     0.186 HD
ENDBRANCH  19  20
ENDBRANCH  18  19
ENDBRANCH   3  18
TORSDOF 6
ENDMDL
MODEL 2
REMARK VINA RESULT:    -4.073      5.576      7.665
REMARK INTER + INTRA:          -5.604
REMARK INTER:                  -5.252
REMARK INTRA:                  -0.352
REMARK UNBOUND:                -0.222
REMARK SMILES [H]/N=C\C[C@H]1C[C@@H]1O[C@H]1CO[C@H]2C[C@@H](C3CC3)CCN2C1
REMARK SMILES IDX 7 1 6 2 5 3 8 4 9 5 14 6 13 7 18 8 12 9 19 10 20 11 11 12
REMARK SMILES IDX 21 13 10 14 15 15 16 16 17 17 4 18 3 19 2 20 1 21
REMARK H PARENT
ROOT
ATOM      1  C   UNL     1      12.838  -7.526  17.091  1.00  0.00     0.122 C 
ATOM      2  C   UNL     1      14.322  -7.534  16.853  1.00  0.00     0.039 C 
ATOM      3  C   UNL     1      13.438  -6.636  16.037  1.00  0.00     0.026 C 
ENDROOT
BRANCH   1   4
ATOM      4  O   UNL     1      12.162  -8.710  16.628  1.00  0.00    -0.371 OA
BRANCH   4   5
ATOM      5  C   UNL     1      10.956  -9.050  17.331  1.00  0.00     0.158 C 
ATOM      6  C   UNL     1       7.536  -8.150  13.497  1.00  0.00    -0.003 C 
ATOM      7  C   UNL     1       8.411  -7.286  14.414  1.00  0.00     0.052 C 
ATOM      8  C   UNL     1       8.253  -9.477  13.215  1.00  0.00     0.019 C 
ATOM      9  C   UNL     1       8.839  -8.047  15.676  1.00  0.00     0.189 C 
ATOM     10  C   UNL     1       8.682 -10.167  14.510  1.00  0.00     0.087 C 
ATOM     11  N   UNL     1       9.527  -9.286  15.316  1.00  0.00    -0.276 NA
ATOM     12  O   UNL     1       9.679  -7.163  16.420  1.00  0.00    -0.360 OA
ATOM     13  C   UNL     1      10.019  -9.964  16.521  1.00  0.00     0.121 C 
ATOM     14  C   UNL     1      10.191  -7.754  17.619  1.00  0.00     0.195 C 
BRANCH   6  15
ATOM     15  C   UNL     1       7.212  -7.436  12.204  1.00  0.00    -0.008 C 
ATOM     16  C   UNL     1       5.780  -7.112  11.848  1.00  0.00     0.004 C 
ATOM     17  C   UNL     1       6.728  -6.006  12.211  1.00  0.00     0.004 C 
ENDBRANCH   6  15
ENDBRANCH   4   5
ENDBRANCH   1   4
BRANCH   3  18
ATOM     18  C   UNL     1      13.512  -5.154  16.251  1.00  0.00     0.053 C 
BRANCH  18  19
ATOM     19  C   UNL     1      12.960  -4.292  15.145  1.00  0.00     0.074 C 
BRANCH  19  20
ATOM     20  N   UNL     1      12.812  -4.646  13.912  1.00  0.00    -0.313 NA
ATOM     21  H   UNL     1      13.551  -5.299  13.613  1.00  0.00     0.186 HD
ENDBRANCH  19  20
ENDBRANCH  18  19
ENDBRANCH   3  18
TORSDOF 6
ENDMDL
MODEL 3
REMARK VINA RESULT:    -3.947      4.894     10.103
REMARK INTER + INTRA:          -5.439
REMARK INTER:                  -5.149
REMARK INTRA:                  -0.289
REMARK UNBOUND:                -0.222
REMARK SMILES [H]/N=C\C[C@H]1C[C@@H]1O[C@H]1CO[C@H]2C[C@@H](C3CC3)CCN2C1
REMARK SMILES IDX 7 1 6 2 5 3 8 4 9 5 14 6 13 7 18 8 12 9 19 10 20 11 11 12
REMARK SMILES IDX 21 13 10 14 15 15 16 16 17 17 4 18 3 19 2 20 1 21
REMARK H PARENT
ROOT
ATOM      1  C   UNL     1       9.350 -10.160  16.032  1.00  0.00     0.122 C 
ATOM      2  C   UNL     1       8.609 -10.218  14.726  1.00  0.00     0.039 C 
ATOM      3  C   UNL     1       9.208 -11.468  15.304  1.00  0.00     0.026 C 
ENDROOT
BRANCH   1   4
ATOM      4  O   UNL     1      10.634  -9.513  15.951  1.00  0.00    -0.371 OA
BRANCH   4   5
ATOM      5  C   UNL     1      11.079  -8.866  17.155  1.00  0.00     0.158 C 
ATOM      6  C   UNL     1      11.686  -4.040  15.270  1.00  0.00    -0.003 C 
ATOM      7  C   UNL     1      12.426  -5.376  15.129  1.00  0.00     0.052 C 
ATOM      8  C   UNL     1      10.186  -4.309  15.460  1.00  0.00     0.019 C 
ATOM      9  C   UNL     1      12.104  -6.332  16.285  1.00  0.00     0.189 C 
ATOM     10  C   UNL     1       9.935  -5.293  16.602  1.00  0.00     0.087 C 
ATOM     11  N   UNL     1      10.660  -6.545  16.383  1.00  0.00    -0.276 NA
ATOM     12  O   UNL     1      12.809  -7.546  16.020  1.00  0.00    -0.360 OA
ATOM     13  C   UNL     1      10.361  -7.532  17.427  1.00  0.00     0.121 C 
ATOM     14  C   UNL     1      12.572  -8.557  17.005  1.00  0.00     0.195 C 
BRANCH   6  15
ATOM     15  C   UNL     1      11.918  -3.148  14.072  1.00  0.00    -0.008 C 
ATOM     16  C   UNL     1      12.404  -1.730  14.258  1.00  0.00     0.004 C 
ATOM     17  C   UNL     1      13.316  -2.759  13.656  1.00  0.00     0.004 C 
ENDBRANCH   6  15
ENDBRANCH   4   5
ENDBRANCH   1   4
BRANCH   3  18
ATOM     18  C   UNL     1       8.295 -12.533  15.833  1.00  0.00     0.053 C 
BRANCH  18  19
ATOM     19  C   UNL     1       7.320 -13.125  14.849  1.00  0.00     0.074 C 
BRANCH  19  20
ATOM     20  N   UNL     1       6.068 -13.353  15.067  1.00  0.00    -0.313 NA
ATOM     21  H   UNL     1       5.925 -14.242  15.567  1.00  0.00     0.186 HD
ENDBRANCH  19  20
ENDBRANCH  18  19
ENDBRANCH   3  18
TORSDOF 6
ENDMDL
MODEL 4
REMARK VINA RESULT:    -3.930      4.653      5.980
REMARK INTER + INTRA:          -5.415
REMARK INTER:                  -5.060
REMARK INTRA:                  -0.355
REMARK UNBOUND:                -0.222
REMARK SMILES [H]/N=C\C[C@H]1C[C@@H]1O[C@H]1CO[C@H]2C[C@@H](C3CC3)CCN2C1
REMARK SMILES IDX 7 1 6 2 5 3 8 4 9 5 14 6 13 7 18 8 12 9 19 10 20 11 11 12
REMARK SMILES IDX 21 13 10 14 15 15 16 16 17 17 4 18 3 19 2 20 1 21
REMARK H PARENT
ROOT
ATOM      1  C   UNL     1      13.140  -3.309  14.941  1.00  0.00     0.122 C 
ATOM      2  C   UNL     1      13.942  -2.055  15.147  1.00  0.00     0.039 C 
ATOM      3  C   UNL     1      14.006  -2.777  13.832  1.00  0.00     0.026 C 
ENDROOT
BRANCH   1   4
ATOM      4  O   UNL     1      13.643  -4.452  15.659  1.00  0.00    -0.371 OA
BRANCH   4   5
ATOM      5  C   UNL     1      12.882  -4.842  16.814  1.00  0.00     0.158 C 
ATOM      6  C   UNL     1      11.870  -9.775  15.455  1.00  0.00    -0.003 C 
ATOM      7  C   UNL     1      11.394  -8.391  14.998  1.00  0.00     0.052 C 
ATOM      8  C   UNL     1      13.331  -9.682  15.918  1.00  0.00     0.019 C 
ATOM      9  C   UNL     1      11.644  -7.320  16.070  1.00  0.00     0.189 C 
ATOM     10  C   UNL     1      13.518  -8.577  16.957  1.00  0.00     0.087 C 
ATOM     11  N   UNL     1      13.059  -7.289  16.439  1.00  0.00    -0.276 NA
ATOM     12  O   UNL     1      11.206  -6.078  15.516  1.00  0.00    -0.360 OA
ATOM     13  C   UNL     1      13.312  -6.202  17.392  1.00  0.00     0.121 C 
ATOM     14  C   UNL     1      11.414  -4.969  16.396  1.00  0.00     0.195 C 
BRANCH   6  15
ATOM     15  C   UNL     1      11.727 -10.802  14.354  1.00  0.00    -0.008 C 
ATOM     16  C   UNL     1      10.701 -11.904  14.467  1.00  0.00     0.004 C 
ATOM     17  C   UNL     1      10.512 -10.810  13.457  1.00  0.00     0.004 C 
ENDBRANCH   6  15
ENDBRANCH   4   5
ENDBRANCH   1   4
BRANCH   3  18
ATOM     18  C   UNL     1      13.382  -2.143  12.624  1.00  0.00     0.053 C 
BRANCH  18  19
ATOM     19  C   UNL     1      14.318  -1.794  11.497  1.00  0.00     0.074 C 
BRANCH  19  20
ATOM     20  N   UNL     1      15.214  -2.573  10.988  1.00  0.00    -0.313 NA
ATOM     21  H   UNL     1      15.031  -2.764   9.993  1.00  0.00     0.186 HD
ENDBRANCH  19  20
ENDBRANCH  18  19
ENDBRANCH   3  18
TORSDOF 6
ENDMDL
MODEL 5
REMARK VINA RESULT:    -3.877      2.696      3.707
REMARK INTER + INTRA:          -5.346
REMARK INTER:                  -5.122
REMARK INTRA:                  -0.224
REMARK UNBOUND:                -0.222
REMARK SMILES [H]/N=C\C[C@H]1C[C@@H]1O[C@H]1CO[C@H]2C[C@@H](C3CC3)CCN2C1
REMARK SMILES IDX 7 1 6 2 5 3 8 4 9 5 14 6 13 7 18 8 12 9 19 10 20 11 11 12
REMARK SMILES IDX 21 13 10 14 15 15 16 16 17 17 4 18 3 19 2 20 1 21
REMARK H PARENT
ROOT
ATOM      1  C   UNL     1      11.232   0.769  15.152  1.00  0.00     0.122 C 
ATOM      2  C   UNL     1      11.182   1.221  16.585  1.00  0.00     0.039 C 
ATOM      3  C   UNL     1      11.829   2.092  15.547  1.00  0.00     0.026 C 
ENDROOT
BRANCH   1   4
ATOM      4  O   UNL     1      12.157  -0.308  14.908  1.00  0.00    -0.371 OA
BRANCH   4   5
ATOM      5  C   UNL     1      11.893  -1.097  13.736  1.00  0.00     0.158 C 
ATOM      6  C   UNL     1      12.631  -5.831  15.798  1.00  0.00    -0.003 C 
ATOM      7  C   UNL     1      13.530  -4.652  15.404  1.00  0.00     0.052 C 
ATOM      8  C   UNL     1      11.271  -5.297  16.267  1.00  0.00     0.019 C 
ATOM      9  C   UNL     1      12.841  -3.723  14.395  1.00  0.00     0.189 C 
ATOM     10  C   UNL     1      10.655  -4.353  15.235  1.00  0.00     0.087 C 
ATOM     11  N   UNL     1      11.564  -3.248  14.928  1.00  0.00    -0.276 NA
ATOM     12  O   UNL     1      13.750  -2.649  14.143  1.00  0.00    -0.360 OA
ATOM     13  C   UNL     1      10.953  -2.286  14.004  1.00  0.00     0.121 C 
ATOM     14  C   UNL     1      13.224  -1.671  13.240  1.00  0.00     0.195 C 
BRANCH   6  15
ATOM     15  C   UNL     1      13.269  -6.679  16.875  1.00  0.00    -0.008 C 
ATOM     16  C   UNL     1      13.530  -8.148  16.637  1.00  0.00     0.004 C 
ATOM     17  C   UNL     1      14.682  -7.189  16.724  1.00  0.00     0.004 C 
ENDBRANCH   6  15
ENDBRANCH   4   5
ENDBRANCH   1   4
BRANCH   3  18
ATOM     18  C   UNL     1      11.157   3.373  15.152  1.00  0.00     0.053 C 
BRANCH  18  19
ATOM     19  C   UNL     1      12.053   4.454  14.605  1.00  0.00     0.074 C 
BRANCH  19  20
ATOM     20  N   UNL     1      11.933   5.026  13.454  1.00  0.00    -0.313 NA
ATOM     21  H   UNL     1      11.545   4.384  12.749  1.00  0.00     0.186 HD
ENDBRANCH  19  20
ENDBRANCH  18  19
ENDBRANCH   3  18
TORSDOF 6
ENDMDL
MODEL 6
REMARK VINA RESULT:    -3.855      4.184      7.326
REMARK INTER + INTRA:          -5.317
REMARK INTER:                  -5.025
REMARK INTRA:                  -0.292
REMARK UNBOUND:                -0.222
REMARK SMILES [H]/N=C\C[C@H]1C[C@@H]1O[C@H]1CO[C@H]2C[C@@H](C3CC3)CCN2C1
REMARK SMILES IDX 7 1 6 2 5 3 8 4 9 5 14 6 13 7 18 8 12 9 19 10 20 11 11 12
REMARK SMILES IDX 21 13 10 14 15 15 16 16 17 17 4 18 3 19 2 20 1 21
REMARK H PARENT
ROOT
ATOM      1  C   UNL     1      14.705  -4.873  16.930  1.00  0.00     0.122 C 
ATOM      2  C   UNL     1      14.720  -5.409  18.334  1.00  0.00     0.039 C 
ATOM      3  C   UNL     1      13.874  -6.075  17.287  1.00  0.00     0.026 C 
ENDROOT
BRANCH   1   4
ATOM      4  O   UNL     1      14.003  -3.624  16.785  1.00  0.00    -0.371 OA
BRANCH   4   5
ATOM      5  C   UNL     1      14.684  -2.615  16.022  1.00  0.00     0.158 C 
ATOM      6  C   UNL     1      10.571  -0.632  13.500  1.00  0.00    -0.003 C 
ATOM      7  C   UNL     1      11.381  -1.933  13.428  1.00  0.00     0.052 C 
ATOM      8  C   UNL     1      10.549  -0.128  14.950  1.00  0.00     0.019 C 
ATOM      9  C   UNL     1      12.772  -1.773  14.056  1.00  0.00     0.189 C 
ATOM     10  C   UNL     1      11.961  -0.023  15.526  1.00  0.00     0.087 C 
ATOM     11  N   UNL     1      12.658  -1.306  15.438  1.00  0.00    -0.276 NA
ATOM     12  O   UNL     1      13.408  -3.050  13.971  1.00  0.00    -0.360 OA
ATOM     13  C   UNL     1      13.983  -1.246  16.065  1.00  0.00     0.121 C 
ATOM     14  C   UNL     1      14.713  -3.066  14.557  1.00  0.00     0.195 C 
BRANCH   6  15
ATOM     15  C   UNL     1       9.163  -0.827  12.985  1.00  0.00    -0.008 C 
ATOM     16  C   UNL     1       8.606   0.089  11.920  1.00  0.00     0.004 C 
ATOM     17  C   UNL     1       8.915  -1.342  11.588  1.00  0.00     0.004 C 
ENDBRANCH   6  15
ENDBRANCH   4   5
ENDBRANCH   1   4
BRANCH   3  18
ATOM     18  C   UNL     1      14.265  -7.437  16.796  1.00  0.00     0.053 C 
BRANCH  18  19
ATOM     19  C   UNL     1      13.351  -8.066  15.777  1.00  0.00     0.074 C 
BRANCH  19  20
ATOM     20  N   UNL     1      12.949  -7.517  14.679  1.00  0.00    -0.313 NA
ATOM     21  H   UNL     1      11.942  -7.304  14.707  1.00  0.00     0.186 HD
ENDBRANCH  19  20
ENDBRANCH  18  19
ENDBRANCH   3  18
TORSDOF 6
ENDMDL
MODEL 7
REMARK VINA RESULT:    -3.814      3.663      7.612
REMARK INTER + INTRA:          -5.262
REMARK INTER:                  -4.791
REMARK INTRA:                  -0.471
REMARK UNBOUND:                -0.222
REMARK SMILES [H]/N=C\C[C@H]1C[C@@H]1O[C@H]1CO[C@H]2C[C@@H](C3CC3)CCN2C1
REMARK SMILES IDX 7 1 6 2 5 3 8 4 9 5 14 6 13 7 18 8 12 9 19 10 20 11 11 12
REMARK SMILES IDX 21 13 10 14 15 15 16 16 17 17 4 18 3 19 2 20 1 21
REMARK H PARENT
ROOT
ATOM      1  C   UNL     1      13.766  -4.829  15.700  1.00  0.00     0.122 C 
ATOM      2  C   UNL     1      12.679  -5.181  16.676  1.00  0.00     0.039 C 
ATOM      3  C   UNL     1      13.319  -6.258  15.847  1.00  0.00     0.026 C 
ENDROOT
BRANCH   1   4
ATOM      4  O   UNL     1      13.302  -4.125  14.533  1.00  0.00    -0.371 OA
BRANCH   4   5
ATOM      5  C   UNL     1      14.061  -2.960  14.169  1.00  0.00     0.158 C 
ATOM      6  C   UNL     1      10.792   0.692  15.951  1.00  0.00    -0.003 C 
ATOM      7  C   UNL     1      10.805  -0.289  14.773  1.00  0.00     0.052 C 
ATOM      8  C   UNL     1      11.523   0.063  17.144  1.00  0.00     0.019 C 
ATOM      9  C   UNL     1      12.225  -0.775  14.451  1.00  0.00     0.189 C 
ATOM     10  C   UNL     1      12.915  -0.430  16.749  1.00  0.00     0.087 C 
ATOM     11  N   UNL     1      12.840  -1.374  15.635  1.00  0.00    -0.276 NA
ATOM     12  O   UNL     1      12.103  -1.710  13.377  1.00  0.00    -0.360 OA
ATOM     13  C   UNL     1      14.159  -1.923  15.301  1.00  0.00     0.121 C 
ATOM     14  C   UNL     1      13.356  -2.283  12.989  1.00  0.00     0.195 C 
BRANCH   6  15
ATOM     15  C   UNL     1       9.381   1.078  16.336  1.00  0.00    -0.008 C 
ATOM     16  C   UNL     1       8.941   2.522  16.277  1.00  0.00     0.004 C 
ATOM     17  C   UNL     1       8.391   1.533  15.291  1.00  0.00     0.004 C 
ENDBRANCH   6  15
ENDBRANCH   4   5
ENDBRANCH   1   4
BRANCH   3  18
ATOM     18  C   UNL     1      14.207  -7.262  16.521  1.00  0.00     0.053 C 
BRANCH  18  19
ATOM     19  C   UNL     1      13.575  -8.586  16.861  1.00  0.00     0.074 C 
BRANCH  19  20
ATOM     20  N   UNL     1      12.528  -8.759  17.596  1.00  0.00    -0.313 NA
ATOM     21  H   UNL     1      11.719  -9.066  17.038  1.00  0.00     0.186 HD
ENDBRANCH  19  20
ENDBRANCH  18  19
ENDBRANCH   3  18
TORSDOF 6
ENDMDL
MODEL 8
REMARK VINA RESULT:    -3.779      4.372      5.934
REMARK INTER + INTRA:          -5.217
REMARK INTER:                  -4.968
REMARK INTRA:                  -0.249
REMARK UNBOUND:                -0.222
REMARK SMILES [H]/N=C\C[C@H]1C[C@@H]1O[C@H]1CO[C@H]2C[C@@H](C3CC3)CCN2C1
REMARK SMILES IDX 7 1 6 2 5 3 8 4 9 5 14 6 13 7 18 8 12 9 19 10 20 11 11 12
REMARK SMILES IDX 21 13 10 14 15 15 16 16 17 17 4 18 3 19 2 20 1 21
REMARK H PARENT
ROOT
ATOM      1  C   UNL     1      11.615  -3.333  14.214  1.00  0.00     0.122 C 
ATOM      2  C   UNL     1      12.597  -2.636  15.113  1.00  0.00     0.039 C 
ATOM      3  C   UNL     1      13.026  -3.097  13.750  1.00  0.00     0.026 C 
ENDROOT
BRANCH   1   4
ATOM      4  O   UNL     1      11.289  -4.674  14.628  1.00  0.00    -0.371 OA
BRANCH   4   5
ATOM      5  C   UNL     1      10.391  -4.776  15.746  1.00  0.00     0.158 C 
ATOM      6  C   UNL     1      10.056  -9.974  16.008  1.00  0.00    -0.003 C 
ATOM      7  C   UNL     1       9.537  -8.887  15.059  1.00  0.00     0.052 C 
ATOM      8  C   UNL     1      11.409  -9.539  16.587  1.00  0.00     0.019 C 
ATOM      9  C   UNL     1       9.515  -7.507  15.732  1.00  0.00     0.189 C 
ATOM     10  C   UNL     1      11.328  -8.145  17.210  1.00  0.00     0.087 C 
ATOM     11  N   UNL     1      10.844  -7.165  16.238  1.00  0.00    -0.276 NA
ATOM     12  O   UNL     1       9.062  -6.579  14.744  1.00  0.00    -0.360 OA
ATOM     13  C   UNL     1      10.843  -5.807  16.794  1.00  0.00     0.121 C 
ATOM     14  C   UNL     1       9.025  -5.229  15.219  1.00  0.00     0.195 C 
BRANCH   6  15
ATOM     15  C   UNL     1      10.182 -11.308  15.307  1.00  0.00    -0.008 C 
ATOM     16  C   UNL     1       9.540 -12.543  15.893  1.00  0.00     0.004 C 
ATOM     17  C   UNL     1       8.991 -11.943  14.631  1.00  0.00     0.004 C 
ENDBRANCH   6  15
ENDBRANCH   4   5
ENDBRANCH   1   4
BRANCH   3  18
ATOM     18  C   UNL     1      13.312  -2.072  12.693  1.00  0.00     0.053 C 
BRANCH  18  19
ATOM     19  C   UNL     1      14.697  -2.095  12.100  1.00  0.00     0.074 C 
BRANCH  19  20
ATOM     20  N   UNL     1      15.005  -2.501  10.914  1.00  0.00    -0.313 NA
ATOM     21  H   UNL     1      14.664  -1.853  10.190  1.00  0.00     0.186 HD
ENDBRANCH  19  20
ENDBRANCH  18  19
ENDBRANCH   3  18
TORSDOF 6
ENDMDL
MODEL 9
REMARK VINA RESULT:    -3.630      3.689      6.259
REMARK INTER + INTRA:          -5.019
REMARK INTER:                  -4.599
REMARK INTRA:                  -0.420
REMARK UNBOUND:                -0.222
REMARK SMILES [H]/N=C\C[C@H]1C[C@@H]1O[C@H]1CO[C@H]2C[C@@H](C3CC3)CCN2C1
REMARK SMILES IDX 7 1 6 2 5 3 8 4 9 5 14 6 13 7 18 8 12 9 19 10 20 11 11 12
REMARK SMILES IDX 21 13 10 14 15 15 16 16 17 17 4 18 3 19 2 20 1 21
REMARK H PARENT
ROOT
ATOM      1  C   UNL     1       9.460  -4.209  17.965  1.00  0.00     0.122 C 
ATOM      2  C   UNL     1      10.472  -3.917  16.892  1.00  0.00     0.039 C 
ATOM      3  C   UNL     1       9.928  -2.798  17.733  1.00  0.00     0.026 C 
ENDROOT
BRANCH   1   4
ATOM      4  O   UNL     1       8.153  -4.545  17.463  1.00  0.00    -0.371 OA
BRANCH   4   5
ATOM      5  C   UNL     1       7.537  -5.697  18.062  1.00  0.00     0.158 C 
ATOM      6  C   UNL     1       9.924  -9.400  15.270  1.00  0.00    -0.003 C 
ATOM      7  C   UNL     1       8.841  -8.349  15.001  1.00  0.00     0.052 C 
ATOM      8  C   UNL     1      10.912  -8.856  16.311  1.00  0.00     0.019 C 
ATOM      9  C   UNL     1       8.179  -7.868  16.299  1.00  0.00     0.189 C 
ATOM     10  C   UNL     1      10.189  -8.362  17.563  1.00  0.00     0.087 C 
ATOM     11  N   UNL     1       9.187  -7.350  17.224  1.00  0.00    -0.276 NA
ATOM     12  O   UNL     1       7.229  -6.867  15.927  1.00  0.00    -0.360 OA
ATOM     13  C   UNL     1       8.544  -6.803  18.424  1.00  0.00     0.121 C 
ATOM     14  C   UNL     1       6.553  -6.292  17.049  1.00  0.00     0.195 C 
BRANCH   6  15
ATOM     15  C   UNL     1      10.650  -9.787  14.001  1.00  0.00    -0.008 C 
ATOM     16  C   UNL     1      10.443 -11.152  13.388  1.00  0.00     0.004 C 
ATOM     17  C   UNL     1       9.903  -9.934  12.697  1.00  0.00     0.004 C 
ENDBRANCH   6  15
ENDBRANCH   4   5
ENDBRANCH   1   4
BRANCH   3  18
ATOM     18  C   UNL     1      10.832  -2.128  18.725  1.00  0.00     0.053 C 
BRANCH  18  19
ATOM     19  C   UNL     1      11.786  -1.103  18.170  1.00  0.00     0.074 C 
BRANCH  19  20
ATOM     20  N   UNL     1      12.932  -1.349  17.629  1.00  0.00    -0.313 NA
ATOM     21  H   UNL     1      13.413  -0.483  17.347  1.00  0.00     0.186 HD
ENDBRANCH  19  20
ENDBRANCH  18  19
ENDBRANCH   3  18
TORSDOF 6
ENDMDL
