MODEL 1
REMARK VINA RESULT:    -3.967      0.000      0.000
REMARK INTER + INTRA:          -5.502
REMARK INTER:                  -5.243
REMARK INTRA:                  -0.259
REMARK UNBOUND:                -0.259
REMARK SMILES [H]/N=C\C[C@H]1C[C@@H]1O[C@H]1CO[C@H]2C[C@@H](C3CC3)CCN2C1
REMARK SMILES IDX 7 1 6 2 5 3 8 4 9 5 14 6 13 7 18 8 12 9 19 10 20 11 11 12
REMARK SMILES IDX 21 13 10 14 15 15 16 16 17 17 4 18 3 19 2 20 1 21
REMARK H PARENT
ROOT
ATOM      1  C   UNL     1       5.249  -1.264  10.869  1.00  0.00     0.122 C 
ATOM      2  C   UNL     1       3.965  -1.437  11.630  1.00  0.00     0.039 C 
ATOM      3  C   UNL     1       4.092  -0.336  10.616  1.00  0.00     0.026 C 
ENDROOT
BRANCH   1   4
ATOM      4  O   UNL     1       6.334  -0.741  11.659  1.00  0.00    -0.371 OA
BRANCH   4   5
ATOM      5  C   UNL     1       7.653  -1.024  11.163  1.00  0.00     0.158 C 
ATOM      6  C   UNL     1      10.325   2.397  14.056  1.00  0.00    -0.003 C 
ATOM      7  C   UNL     1       9.361   2.481  12.866  1.00  0.00     0.052 C 
ATOM      8  C   UNL     1       9.937   1.203  14.939  1.00  0.00     0.019 C 
ATOM      9  C   UNL     1       9.270   1.148  12.111  1.00  0.00     0.189 C 
ATOM     10  C   UNL     1       9.830  -0.085  14.123  1.00  0.00     0.087 C 
ATOM     11  N   UNL     1       8.879   0.072  13.021  1.00  0.00    -0.276 NA
ATOM     12  O   UNL     1       8.317   1.336  11.063  1.00  0.00    -0.360 OA
ATOM     13  C   UNL     1       8.700  -1.182  12.280  1.00  0.00     0.121 C 
ATOM     14  C   UNL     1       8.095   0.154  10.288  1.00  0.00     0.195 C 
BRANCH   6  15
ATOM     15  C   UNL     1      10.324   3.676  14.862  1.00  0.00    -0.008 C 
ATOM     16  C   UNL     1      11.627   4.342  15.238  1.00  0.00     0.004 C 
ATOM     17  C   UNL     1      10.721   4.989  14.231  1.00  0.00     0.004 C 
ENDBRANCH   6  15
ENDBRANCH   4   5
ENDBRANCH   1   4
BRANCH   3  18
ATOM     18  C   UNL     1       3.312  -0.431   9.339  1.00  0.00     0.053 C 
BRANCH  18  19
ATOM     19  C   UNL     1       2.660   0.840   8.861  1.00  0.00     0.074 C 
BRANCH  19  20
ATOM     20  N   UNL     1       2.020   1.686   9.597  1.00  0.00    -0.313 NA
ATOM     21  H   UNL     1       2.330   1.647  10.579  1.00  0.00     0.186 HD
ENDBRANCH  19  20
ENDBRANCH  18  19
ENDBRANCH   3  18
TORSDOF 6
ENDMDL
MODEL 2
REMARK VINA RESULT:    -3.890      5.351      8.495
REMARK INTER + INTRA:          -5.400
REMARK INTER:                  -5.169
REMARK INTRA:                  -0.232
REMARK UNBOUND:                -0.259
REMARK SMILES [H]/N=C\C[C@H]1C[C@@H]1O[C@H]1CO[C@H]2C[C@@H](C3CC3)CCN2C1
REMARK SMILES IDX 7 1 6 2 5 3 8 4 9 5 14 6 13 7 18 8 12 9 19 10 20 11 11 12
REMARK SMILES IDX 21 13 10 14 15 15 16 16 17 17 4 18 3 19 2 20 1 21
REMARK H PARENT
ROOT
ATOM      1  C   UNL     1       4.705  -1.908  10.986  1.00  0.00     0.122 C 
ATOM      2  C   UNL     1       6.183  -1.702  10.809  1.00  0.00     0.039 C 
ATOM      3  C   UNL     1       5.485  -2.804  10.064  1.00  0.00     0.026 C 
ENDROOT
BRANCH   1   4
ATOM      4  O   UNL     1       4.338  -2.460  12.264  1.00  0.00    -0.371 OA
BRANCH   4   5
ATOM      5  C   UNL     1       3.013  -2.142  12.720  1.00  0.00     0.158 C 
ATOM      6  C   UNL     1       2.803  -5.351  16.826  1.00  0.00    -0.003 C 
ATOM      7  C   UNL     1       2.772  -5.515  15.301  1.00  0.00     0.052 C 
ATOM      8  C   UNL     1       3.680  -4.145  17.189  1.00  0.00     0.019 C 
ATOM      9  C   UNL     1       2.368  -4.213  14.597  1.00  0.00     0.189 C 
ATOM     10  C   UNL     1       3.248  -2.891  16.429  1.00  0.00     0.087 C 
ATOM     11  N   UNL     1       3.263  -3.123  14.985  1.00  0.00    -0.276 NA
ATOM     12  O   UNL     1       2.420  -4.475  13.193  1.00  0.00    -0.360 OA
ATOM     13  C   UNL     1       2.934  -1.904  14.238  1.00  0.00     0.121 C 
ATOM     14  C   UNL     1       2.100  -3.330  12.397  1.00  0.00     0.195 C 
BRANCH   6  15
ATOM     15  C   UNL     1       3.312  -6.601  17.508  1.00  0.00    -0.008 C 
ATOM     16  C   UNL     1       2.342  -7.595  18.103  1.00  0.00     0.004 C 
ATOM     17  C   UNL     1       3.125  -7.959  16.874  1.00  0.00     0.004 C 
ENDBRANCH   6  15
ENDBRANCH   4   5
ENDBRANCH   1   4
BRANCH   3  18
ATOM     18  C   UNL     1       5.322  -2.687   8.578  1.00  0.00     0.053 C 
BRANCH  18  19
ATOM     19  C   UNL     1       5.537  -3.948   7.782  1.00  0.00     0.074 C 
BRANCH  19  20
ATOM     20  N   UNL     1       6.467  -4.821   7.983  1.00  0.00    -0.313 NA
ATOM     21  H   UNL     1       7.296  -4.632   7.403  1.00  0.00     0.186 HD
ENDBRANCH  19  20
ENDBRANCH  18  19
ENDBRANCH   3  18
TORSDOF 6
ENDMDL
MODEL 3
REMARK VINA RESULT:    -3.867      1.979      2.212
REMARK INTER + INTRA:          -5.369
REMARK INTER:                  -5.238
REMARK INTRA:                  -0.131
REMARK UNBOUND:                -0.259
REMARK SMILES [H]/N=C\C[C@H]1C[C@@H]1O[C@H]1CO[C@H]2C[C@@H](C3CC3)CCN2C1
REMARK SMILES IDX 7 1 6 2 5 3 8 4 9 5 14 6 13 7 18 8 12 9 19 10 20 11 11 12
REMARK SMILES IDX 21 13 10 14 15 15 16 16 17 17 4 18 3 19 2 20 1 21
REMARK H PARENT
ROOT
ATOM      1  C   UNL     1       5.293  -1.036  11.347  1.00  0.00     0.122 C 
ATOM      2  C   UNL     1       5.393  -2.302  10.544  1.00  0.00     0.039 C 
ATOM      3  C   UNL     1       4.524  -2.259  11.768  1.00  0.00     0.026 C 
ENDROOT
BRANCH   1   4
ATOM      4  O   UNL     1       6.477  -0.727  12.106  1.00  0.00    -0.371 OA
BRANCH   4   5
ATOM      5  C   UNL     1       7.721  -0.888  11.405  1.00  0.00     0.158 C 
ATOM      6  C   UNL     1      10.619   2.445  14.179  1.00  0.00    -0.003 C 
ATOM      7  C   UNL     1       9.489   2.566  13.150  1.00  0.00     0.052 C 
ATOM      8  C   UNL     1      10.423   1.163  15.000  1.00  0.00     0.019 C 
ATOM      9  C   UNL     1       9.352   1.295  12.301  1.00  0.00     0.189 C 
ATOM     10  C   UNL     1      10.260  -0.059  14.097  1.00  0.00     0.087 C 
ATOM     11  N   UNL     1       9.152   0.127  13.160  1.00  0.00    -0.276 NA
ATOM     12  O   UNL     1       8.248   1.509  11.420  1.00  0.00    -0.360 OA
ATOM     13  C   UNL     1       8.927  -1.071  12.344  1.00  0.00     0.121 C 
ATOM     14  C   UNL     1       7.973   0.381  10.583  1.00  0.00     0.195 C 
BRANCH   6  15
ATOM     15  C   UNL     1      10.675   3.653  15.087  1.00  0.00    -0.008 C 
ATOM     16  C   UNL     1      11.917   4.512  15.140  1.00  0.00     0.004 C 
ATOM     17  C   UNL     1      10.663   5.051  14.516  1.00  0.00     0.004 C 
ENDBRANCH   6  15
ENDBRANCH   4   5
ENDBRANCH   1   4
BRANCH   3  18
ATOM     18  C   UNL     1       3.035  -2.310  11.603  1.00  0.00     0.053 C 
BRANCH  18  19
ATOM     19  C   UNL     1       2.284  -3.163  12.592  1.00  0.00     0.074 C 
BRANCH  19  20
ATOM     20  N   UNL     1       2.805  -4.037  13.388  1.00  0.00    -0.313 NA
ATOM     21  H   UNL     1       2.417  -3.964  14.339  1.00  0.00     0.186 HD
ENDBRANCH  19  20
ENDBRANCH  18  19
ENDBRANCH   3  18
TORSDOF 6
ENDMDL
MODEL 4
REMARK VINA RESULT:    -3.840      4.643      7.996
REMARK INTER + INTRA:          -5.334
REMARK INTER:                  -5.153
REMARK INTRA:                  -0.181
REMARK UNBOUND:                -0.259
REMARK SMILES [H]/N=C\C[C@H]1C[C@@H]1O[C@H]1CO[C@H]2C[C@@H](C3CC3)CCN2C1
REMARK SMILES IDX 7 1 6 2 5 3 8 4 9 5 14 6 13 7 18 8 12 9 19 10 20 11 11 12
REMARK SMILES IDX 21 13 10 14 15 15 16 16 17 17 4 18 3 19 2 20 1 21
REMARK H PARENT
ROOT
ATOM      1  C   UNL     1      10.144   1.786  14.704  1.00  0.00     0.122 C 
ATOM      2  C   UNL     1       9.963   2.217  13.276  1.00  0.00     0.039 C 
ATOM      3  C   UNL     1      10.899   2.975  14.174  1.00  0.00     0.026 C 
ENDROOT
BRANCH   1   4
ATOM      4  O   UNL     1       9.013   2.066  15.550  1.00  0.00    -0.371 OA
BRANCH   4   5
ATOM      5  C   UNL     1       9.108   1.571  16.896  1.00  0.00     0.158 C 
ATOM      6  C   UNL     1       4.310  -0.428  17.335  1.00  0.00    -0.003 C 
ATOM      7  C   UNL     1       4.913   0.981  17.287  1.00  0.00     0.052 C 
ATOM      8  C   UNL     1       5.160  -1.373  16.473  1.00  0.00     0.019 C 
ATOM      9  C   UNL     1       6.404   0.976  17.648  1.00  0.00     0.189 C 
ATOM     10  C   UNL     1       6.637  -1.305  16.859  1.00  0.00     0.087 C 
ATOM     11  N   UNL     1       7.139   0.066  16.769  1.00  0.00    -0.276 NA
ATOM     12  O   UNL     1       6.859   2.325  17.524  1.00  0.00    -0.360 OA
ATOM     13  C   UNL     1       8.577   0.135  17.053  1.00  0.00     0.121 C 
ATOM     14  C   UNL     1       8.256   2.473  17.796  1.00  0.00     0.195 C 
BRANCH   6  15
ATOM     15  C   UNL     1       2.872  -0.433  16.869  1.00  0.00    -0.008 C 
ATOM     16  C   UNL     1       1.756  -0.744  17.839  1.00  0.00     0.004 C 
ATOM     17  C   UNL     1       1.914   0.650  17.304  1.00  0.00     0.004 C 
ENDBRANCH   6  15
ENDBRANCH   4   5
ENDBRANCH   1   4
BRANCH   3  18
ATOM     18  C   UNL     1      12.375   2.884  13.927  1.00  0.00     0.053 C 
BRANCH  18  19
ATOM     19  C   UNL     1      12.912   3.709  12.786  1.00  0.00     0.074 C 
BRANCH  19  20
ATOM     20  N   UNL     1      13.808   3.334  11.936  1.00  0.00    -0.313 NA
ATOM     21  H   UNL     1      14.006   4.069  11.243  1.00  0.00     0.186 HD
ENDBRANCH  19  20
ENDBRANCH  18  19
ENDBRANCH   3  18
TORSDOF 6
ENDMDL
MODEL 5
REMARK VINA RESULT:    -3.828      2.590      8.383
REMARK INTER + INTRA:          -5.318
REMARK INTER:                  -4.990
REMARK INTRA:                  -0.328
REMARK UNBOUND:                -0.259
REMARK SMILES [H]/N=C\C[C@H]1C[C@@H]1O[C@H]1CO[C@H]2C[C@@H](C3CC3)CCN2C1
REMARK SMILES IDX 7 1 6 2 5 3 8 4 9 5 14 6 13 7 18 8 12 9 19 10 20 11 11 12
REMARK SMILES IDX 21 13 10 14 15 15 16 16 17 17 4 18 3 19 2 20 1 21
REMARK H PARENT
ROOT
ATOM      1  C   UNL     1       7.752  -0.354  11.265  1.00  0.00     0.122 C 
ATOM      2  C   UNL     1       8.599   0.151  10.131  1.00  0.00     0.039 C 
ATOM      3  C   UNL     1       8.351   1.025  11.327  1.00  0.00     0.026 C 
ENDROOT
BRANCH   1   4
ATOM      4  O   UNL     1       6.347  -0.433  10.959  1.00  0.00    -0.371 OA
BRANCH   4   5
ATOM      5  C   UNL     1       5.747  -1.727  11.134  1.00  0.00     0.158 C 
ATOM      6  C   UNL     1       2.686  -1.746   6.911  1.00  0.00    -0.003 C 
ATOM      7  C   UNL     1       2.688  -1.020   8.262  1.00  0.00     0.052 C 
ATOM      8  C   UNL     1       4.133  -2.003   6.470  1.00  0.00     0.019 C 
ATOM      9  C   UNL     1       3.538  -1.760   9.304  1.00  0.00     0.189 C 
ATOM     10  C   UNL     1       4.933  -2.711   7.563  1.00  0.00     0.087 C 
ATOM     11  N   UNL     1       4.902  -1.947   8.811  1.00  0.00    -0.276 NA
ATOM     12  O   UNL     1       3.501  -0.972  10.495  1.00  0.00    -0.360 OA
ATOM     13  C   UNL     1       5.737  -2.569   9.846  1.00  0.00     0.121 C 
ATOM     14  C   UNL     1       4.288  -1.522  11.556  1.00  0.00     0.195 C 
BRANCH   6  15
ATOM     15  C   UNL     1       1.943  -0.955   5.858  1.00  0.00    -0.008 C 
ATOM     16  C   UNL     1       0.822  -1.594   5.071  1.00  0.00     0.004 C 
ATOM     17  C   UNL     1       0.512  -0.525   6.079  1.00  0.00     0.004 C 
ENDBRANCH   6  15
ENDBRANCH   4   5
ENDBRANCH   1   4
BRANCH   3  18
ATOM     18  C   UNL     1       9.486   1.315  12.262  1.00  0.00     0.053 C 
BRANCH  18  19
ATOM     19  C   UNL     1       9.459   2.655  12.949  1.00  0.00     0.074 C 
BRANCH  19  20
ATOM     20  N   UNL     1       8.413   3.392  13.130  1.00  0.00    -0.313 NA
ATOM     21  H   UNL     1       7.560   2.823  13.228  1.00  0.00     0.186 HD
ENDBRANCH  19  20
ENDBRANCH  18  19
ENDBRANCH   3  18
TORSDOF 6
ENDMDL
MODEL 6
REMARK VINA RESULT:    -3.791      6.457      7.990
REMARK INTER + INTRA:          -5.269
REMARK INTER:                  -5.180
REMARK INTRA:                  -0.088
REMARK UNBOUND:                -0.259
REMARK SMILES [H]/N=C\C[C@H]1C[C@@H]1O[C@H]1CO[C@H]2C[C@@H](C3CC3)CCN2C1
REMARK SMILES IDX 7 1 6 2 5 3 8 4 9 5 14 6 13 7 18 8 12 9 19 10 20 11 11 12
REMARK SMILES IDX 21 13 10 14 15 15 16 16 17 17 4 18 3 19 2 20 1 21
REMARK H PARENT
ROOT
ATOM      1  C   UNL     1       3.254  -5.008  16.992  1.00  0.00     0.122 C 
ATOM      2  C   UNL     1       2.422  -5.619  15.899  1.00  0.00     0.039 C 
ATOM      3  C   UNL     1       2.337  -6.161  17.297  1.00  0.00     0.026 C 
ENDROOT
BRANCH   1   4
ATOM      4  O   UNL     1       4.659  -5.309  16.898  1.00  0.00    -0.371 OA
BRANCH   4   5
ATOM      5  C   UNL     1       5.444  -4.970  18.053  1.00  0.00     0.158 C 
ATOM      6  C   UNL     1       9.499  -2.764  15.625  1.00  0.00    -0.003 C 
ATOM      7  C   UNL     1       8.965  -4.192  15.796  1.00  0.00     0.052 C 
ATOM      8  C   UNL     1       8.320  -1.781  15.606  1.00  0.00     0.019 C 
ATOM      9  C   UNL     1       8.033  -4.310  17.009  1.00  0.00     0.189 C 
ATOM     10  C   UNL     1       7.413  -1.973  16.821  1.00  0.00     0.087 C 
ATOM     11  N   UNL     1       6.932  -3.352  16.902  1.00  0.00    -0.276 NA
ATOM     12  O   UNL     1       7.568  -5.661  17.037  1.00  0.00    -0.360 OA
ATOM     13  C   UNL     1       5.991  -3.532  18.013  1.00  0.00     0.121 C 
ATOM     14  C   UNL     1       6.649  -5.915  18.104  1.00  0.00     0.195 C 
BRANCH   6  15
ATOM     15  C   UNL     1      10.324  -2.627  14.365  1.00  0.00    -0.008 C 
ATOM     16  C   UNL     1      11.816  -2.405  14.449  1.00  0.00     0.004 C 
ATOM     17  C   UNL     1      11.283  -3.715  13.947  1.00  0.00     0.004 C 
ENDBRANCH   6  15
ENDBRANCH   4   5
ENDBRANCH   1   4
BRANCH   3  18
ATOM     18  C   UNL     1       1.082  -5.940  18.087  1.00  0.00     0.053 C 
BRANCH  18  19
ATOM     19  C   UNL     1      -0.089  -6.822  17.738  1.00  0.00     0.074 C 
BRANCH  19  20
ATOM     20  N   UNL     1      -1.216  -6.425  17.248  1.00  0.00    -0.313 NA
ATOM     21  H   UNL     1      -1.406  -5.441  17.482  1.00  0.00     0.186 HD
ENDBRANCH  19  20
ENDBRANCH  18  19
ENDBRANCH   3  18
TORSDOF 6
ENDMDL
MODEL 7
REMARK VINA RESULT:    -3.789      5.002      8.290
REMARK INTER + INTRA:          -5.267
REMARK INTER:                  -4.939
REMARK INTRA:                  -0.328
REMARK UNBOUND:                -0.259
REMARK SMILES [H]/N=C\C[C@H]1C[C@@H]1O[C@H]1CO[C@H]2C[C@@H](C3CC3)CCN2C1
REMARK SMILES IDX 7 1 6 2 5 3 8 4 9 5 14 6 13 7 18 8 12 9 19 10 20 11 11 12
REMARK SMILES IDX 21 13 10 14 15 15 16 16 17 17 4 18 3 19 2 20 1 21
REMARK H PARENT
ROOT
ATOM      1  C   UNL     1       2.977  -2.799  12.881  1.00  0.00     0.122 C 
ATOM      2  C   UNL     1       1.624  -3.332  12.502  1.00  0.00     0.039 C 
ATOM      3  C   UNL     1       2.561  -4.178  13.316  1.00  0.00     0.026 C 
ENDROOT
BRANCH   1   4
ATOM      4  O   UNL     1       3.906  -2.723  11.782  1.00  0.00    -0.371 OA
BRANCH   4   5
ATOM      5  C   UNL     1       4.501  -1.433  11.563  1.00  0.00     0.158 C 
ATOM      6  C   UNL     1       4.265  -1.339   6.353  1.00  0.00    -0.003 C 
ATOM      7  C   UNL     1       5.095  -2.090   7.401  1.00  0.00     0.052 C 
ATOM      8  C   UNL     1       2.861  -1.071   6.914  1.00  0.00     0.019 C 
ATOM      9  C   UNL     1       5.090  -1.369   8.756  1.00  0.00     0.189 C 
ATOM     10  C   UNL     1       2.926  -0.383   8.277  1.00  0.00     0.087 C 
ATOM     11  N   UNL     1       3.718  -1.170   9.223  1.00  0.00    -0.276 NA
ATOM     12  O   UNL     1       5.850  -2.180   9.654  1.00  0.00    -0.360 OA
ATOM     13  C   UNL     1       3.718  -0.567  10.561  1.00  0.00     0.121 C 
ATOM     14  C   UNL     1       5.902  -1.648  10.981  1.00  0.00     0.195 C 
BRANCH   6  15
ATOM     15  C   UNL     1       4.179  -2.111   5.056  1.00  0.00    -0.008 C 
ATOM     16  C   UNL     1       4.650  -1.487   3.763  1.00  0.00     0.004 C 
ATOM     17  C   UNL     1       5.427  -2.617   4.373  1.00  0.00     0.004 C 
ENDBRANCH   6  15
ENDBRANCH   4   5
ENDBRANCH   1   4
BRANCH   3  18
ATOM     18  C   UNL     1       2.232  -4.450  14.753  1.00  0.00     0.053 C 
BRANCH  18  19
ATOM     19  C   UNL     1       2.845  -5.688  15.354  1.00  0.00     0.074 C 
BRANCH  19  20
ATOM     20  N   UNL     1       3.494  -6.600  14.710  1.00  0.00    -0.313 NA
ATOM     21  H   UNL     1       2.941  -6.980  13.929  1.00  0.00     0.186 HD
ENDBRANCH  19  20
ENDBRANCH  18  19
ENDBRANCH   3  18
TORSDOF 6
ENDMDL
MODEL 8
REMARK VINA RESULT:    -3.718      5.078      8.537
REMARK INTER + INTRA:          -5.173
REMARK INTER:                  -5.225
REMARK INTRA:                   0.052
REMARK UNBOUND:                -0.259
REMARK SMILES [H]/N=C\C[C@H]1C[C@@H]1O[C@H]1CO[C@H]2C[C@@H](C3CC3)CCN2C1
REMARK SMILES IDX 7 1 6 2 5 3 8 4 9 5 14 6 13 7 18 8 12 9 19 10 20 11 11 12
REMARK SMILES IDX 21 13 10 14 15 15 16 16 17 17 4 18 3 19 2 20 1 21
REMARK H PARENT
ROOT
ATOM      1  C   UNL     1       4.991  -2.081  11.470  1.00  0.00     0.122 C 
ATOM      2  C   UNL     1       4.436  -0.794  10.928  1.00  0.00     0.039 C 
ATOM      3  C   UNL     1       5.879  -0.874  11.337  1.00  0.00     0.026 C 
ENDROOT
BRANCH   1   4
ATOM      4  O   UNL     1       4.536  -2.403  12.798  1.00  0.00    -0.371 OA
BRANCH   4   5
ATOM      5  C   UNL     1       3.119  -2.291  13.012  1.00  0.00     0.158 C 
ATOM      6  C   UNL     1       2.668  -5.598  17.020  1.00  0.00    -0.003 C 
ATOM      7  C   UNL     1       2.928  -5.726  15.514  1.00  0.00     0.052 C 
ATOM      8  C   UNL     1       3.282  -4.286  17.531  1.00  0.00     0.019 C 
ATOM      9  C   UNL     1       2.467  -4.479  14.748  1.00  0.00     0.189 C 
ATOM     10  C   UNL     1       2.809  -3.090  16.705  1.00  0.00     0.087 C 
ATOM     11  N   UNL     1       3.111  -3.281  15.287  1.00  0.00    -0.276 NA
ATOM     12  O   UNL     1       2.801  -4.697  13.376  1.00  0.00    -0.360 OA
ATOM     13  C   UNL     1       2.742  -2.104  14.492  1.00  0.00     0.121 C 
ATOM     14  C   UNL     1       2.461  -3.590  12.534  1.00  0.00     0.195 C 
BRANCH   6  15
ATOM     15  C   UNL     1       3.227  -6.777  17.783  1.00  0.00    -0.008 C 
ATOM     16  C   UNL     1       2.520  -8.112  17.751  1.00  0.00     0.004 C 
ATOM     17  C   UNL     1       3.840  -7.949  17.054  1.00  0.00     0.004 C 
ENDBRANCH   6  15
ENDBRANCH   4   5
ENDBRANCH   1   4
BRANCH   3  18
ATOM     18  C   UNL     1       6.938  -0.829  10.276  1.00  0.00     0.053 C 
BRANCH  18  19
ATOM     19  C   UNL     1       8.099   0.096  10.534  1.00  0.00     0.074 C 
BRANCH  19  20
ATOM     20  N   UNL     1       8.287   0.796  11.603  1.00  0.00    -0.313 NA
ATOM     21  H   UNL     1       9.059   1.467  11.486  1.00  0.00     0.186 HD
ENDBRANCH  19  20
ENDBRANCH  18  19
ENDBRANCH   3  18
TORSDOF 6
ENDMDL
MODEL 9
REMARK VINA RESULT:    -3.546      4.870      8.251
REMARK INTER + INTRA:          -4.946
REMARK INTER:                  -4.863
REMARK INTRA:                  -0.083
REMARK UNBOUND:                -0.259
REMARK SMILES [H]/N=C\C[C@H]1C[C@@H]1O[C@H]1CO[C@H]2C[C@@H](C3CC3)CCN2C1
REMARK SMILES IDX 7 1 6 2 5 3 8 4 9 5 14 6 13 7 18 8 12 9 19 10 20 11 11 12
REMARK SMILES IDX 21 13 10 14 15 15 16 16 17 17 4 18 3 19 2 20 1 21
REMARK H PARENT
ROOT
ATOM      1  C   UNL     1       9.724   3.220  15.013  1.00  0.00     0.122 C 
ATOM      2  C   UNL     1       9.413   3.954  13.739  1.00  0.00     0.039 C 
ATOM      3  C   UNL     1       9.669   4.724  15.003  1.00  0.00     0.026 C 
ENDROOT
BRANCH   1   4
ATOM      4  O   UNL     1       8.593   2.538  15.589  1.00  0.00    -0.371 OA
BRANCH   4   5
ATOM      5  C   UNL     1       8.819   1.943  16.877  1.00  0.00     0.158 C 
ATOM      6  C   UNL     1       4.330  -0.674  17.327  1.00  0.00    -0.003 C 
ATOM      7  C   UNL     1       4.753   0.798  17.386  1.00  0.00     0.052 C 
ATOM      8  C   UNL     1       5.241  -1.425  16.346  1.00  0.00     0.019 C 
ATOM      9  C   UNL     1       6.251   0.950  17.682  1.00  0.00     0.189 C 
ATOM     10  C   UNL     1       6.717  -1.206  16.675  1.00  0.00     0.087 C 
ATOM     11  N   UNL     1       7.044   0.220  16.692  1.00  0.00    -0.276 NA
ATOM     12  O   UNL     1       6.532   2.351  17.666  1.00  0.00    -0.360 OA
ATOM     13  C   UNL     1       8.475   0.444  16.921  1.00  0.00     0.121 C 
ATOM     14  C   UNL     1       7.913   2.648  17.892  1.00  0.00     0.195 C 
BRANCH   6  15
ATOM     15  C   UNL     1       2.880  -0.820  16.923  1.00  0.00    -0.008 C 
ATOM     16  C   UNL     1       1.839  -1.216  17.943  1.00  0.00     0.004 C 
ATOM     17  C   UNL     1       1.845   0.177  17.385  1.00  0.00     0.004 C 
ENDBRANCH   6  15
ENDBRANCH   4   5
ENDBRANCH   1   4
BRANCH   3  18
ATOM     18  C   UNL     1      10.930   5.526  15.121  1.00  0.00     0.053 C 
BRANCH  18  19
ATOM     19  C   UNL     1      10.869   6.733  16.021  1.00  0.00     0.074 C 
BRANCH  19  20
ATOM     20  N   UNL     1      10.194   7.811  15.798  1.00  0.00    -0.313 NA
ATOM     21  H   UNL     1       9.707   8.136  16.645  1.00  0.00     0.186 HD
ENDBRANCH  19  20
ENDBRANCH  18  19
ENDBRANCH   3  18
TORSDOF 6
ENDMDL
