MODEL 1
REMARK VINA RESULT:    -5.658      0.000      0.000
REMARK INTER + INTRA:          -7.025
REMARK INTER:                  -6.651
REMARK INTRA:                  -0.375
REMARK UNBOUND:                -0.375
REMARK SMILES Cc1ccc(CNC(=O)NC(=O)c2ccc(C)cc2)cc1
REMARK SMILES IDX 11 1 12 2 10 3 8 4 9 5 7 6 13 9 19 10 18 11 14 12 16 13
REMARK SMILES IDX 15 14 17 15 6 16 5 17 4 18 20 19 3 20 21 21 2 22 1 23
REMARK H PARENT 10 7 7 8
ROOT
ATOM      1  C   UNL     1       4.611  -1.430   9.285  1.00  0.00     0.259 C 
ATOM      2  O   UNL     1       5.735  -1.158   8.886  1.00  0.00    -0.269 OA
ATOM      3  N   UNL     1       4.213  -1.855  10.556  1.00  0.00    -0.274 N 
ATOM      4  C   UNL     1       4.745  -1.910  11.819  1.00  0.00     0.321 C 
ATOM      5  O   UNL     1       3.995  -2.244  12.743  1.00  0.00    -0.248 OA
ATOM      6  N   UNL     1       6.021  -1.593  12.103  1.00  0.00    -0.334 N 
ATOM      7  H   UNL     1       3.223  -2.041  10.642  1.00  0.00     0.175 HD
ATOM      8  H   UNL     1       6.233  -1.602  13.091  1.00  0.00     0.165 HD
ENDROOT
BRANCH   1   9
ATOM      9  C   UNL     1       3.513  -1.294   8.309  1.00  0.00     0.040 A 
ATOM     10  C   UNL     1       3.028  -2.396   7.600  1.00  0.00     0.014 A 
ATOM     11  C   UNL     1       1.953  -2.228   6.727  1.00  0.00     0.004 A 
ATOM     12  C   UNL     1       2.970  -0.022   8.104  1.00  0.00     0.014 A 
ATOM     13  C   UNL     1       1.367  -0.965   6.553  1.00  0.00    -0.051 A 
ATOM     14  C   UNL     1       1.892   0.140   7.236  1.00  0.00     0.004 A 
ATOM     15  C   UNL     1       0.159  -0.817   5.676  1.00  0.00     0.044 C 
ENDBRANCH   1   9
BRANCH   6  16
ATOM     16  C   UNL     1       7.019  -1.087  11.204  1.00  0.00     0.153 C 
BRANCH  16  17
ATOM     17  C   UNL     1       8.181  -0.346  11.807  1.00  0.00    -0.029 A 
ATOM     18  C   UNL     1       8.522   0.962  11.448  1.00  0.00     0.006 A 
ATOM     19  C   UNL     1       8.805  -0.929  12.923  1.00  0.00     0.006 A 
ATOM     20  C   UNL     1       9.453   1.676  12.210  1.00  0.00     0.004 A 
ATOM     21  C   UNL     1       9.727  -0.215  13.682  1.00  0.00     0.004 A 
ATOM     22  C   UNL     1      10.051   1.098  13.338  1.00  0.00    -0.051 A 
ATOM     23  C   UNL     1      10.939   1.903  14.239  1.00  0.00     0.044 C 
ENDBRANCH  16  17
ENDBRANCH   6  16
TORSDOF 3
ENDMDL
MODEL 2
REMARK VINA RESULT:    -5.645      3.291      5.619
REMARK INTER + INTRA:          -7.009
REMARK INTER:                  -6.638
REMARK INTRA:                  -0.371
REMARK UNBOUND:                -0.375
REMARK SMILES Cc1ccc(CNC(=O)NC(=O)c2ccc(C)cc2)cc1
REMARK SMILES IDX 11 1 12 2 10 3 8 4 9 5 7 6 13 9 19 10 18 11 14 12 16 13
REMARK SMILES IDX 15 14 17 15 6 16 5 17 4 18 20 19 3 20 21 21 2 22 1 23
REMARK H PARENT 10 7 7 8
ROOT
ATOM      1  C   UNL     1       4.224  -1.721   9.412  1.00  0.00     0.259 C 
ATOM      2  O   UNL     1       3.104  -2.023   9.799  1.00  0.00    -0.269 OA
ATOM      3  N   UNL     1       5.317  -1.273  10.161  1.00  0.00    -0.274 N 
ATOM      4  C   UNL     1       5.686  -1.215  11.480  1.00  0.00     0.321 C 
ATOM      5  O   UNL     1       6.839  -0.853  11.737  1.00  0.00    -0.248 OA
ATOM      6  N   UNL     1       4.873  -1.558  12.496  1.00  0.00    -0.334 N 
ATOM      7  H   UNL     1       6.140  -1.062   9.612  1.00  0.00     0.175 HD
ATOM      8  H   UNL     1       5.323  -1.542  13.400  1.00  0.00     0.165 HD
ENDROOT
BRANCH   1   9
ATOM      9  C   UNL     1       4.478  -1.842   7.964  1.00  0.00     0.040 A 
ATOM     10  C   UNL     1       4.432  -0.730   7.121  1.00  0.00     0.014 A 
ATOM     11  C   UNL     1       4.732  -0.886   5.767  1.00  0.00     0.004 A 
ATOM     12  C   UNL     1       4.760  -3.112   7.451  1.00  0.00     0.014 A 
ATOM     13  C   UNL     1       5.067  -2.147   5.252  1.00  0.00    -0.051 A 
ATOM     14  C   UNL     1       5.065  -3.262   6.099  1.00  0.00     0.004 A 
ATOM     15  C   UNL     1       5.469  -2.283   3.813  1.00  0.00     0.044 C 
ENDBRANCH   1   9
BRANCH   6  16
ATOM     16  C   UNL     1       3.545  -2.097  12.412  1.00  0.00     0.153 C 
BRANCH  16  17
ATOM     17  C   UNL     1       3.017  -2.822  13.618  1.00  0.00    -0.029 A 
ATOM     18  C   UNL     1       2.518  -4.128  13.567  1.00  0.00     0.006 A 
ATOM     19  C   UNL     1       3.235  -2.228  14.872  1.00  0.00     0.006 A 
ATOM     20  C   UNL     1       2.268  -4.829  14.751  1.00  0.00     0.004 A 
ATOM     21  C   UNL     1       2.991  -2.928  16.049  1.00  0.00     0.004 A 
ATOM     22  C   UNL     1       2.515  -4.239  15.999  1.00  0.00    -0.051 A 
ATOM     23  C   UNL     1       2.386  -5.031  17.266  1.00  0.00     0.044 C 
ENDBRANCH  16  17
ENDBRANCH   6  16
TORSDOF 3
ENDMDL
MODEL 3
REMARK VINA RESULT:    -5.322      3.187      7.324
REMARK INTER + INTRA:          -6.630
REMARK INTER:                  -6.160
REMARK INTRA:                  -0.471
REMARK UNBOUND:                -0.375
REMARK SMILES Cc1ccc(CNC(=O)NC(=O)c2ccc(C)cc2)cc1
REMARK SMILES IDX 11 1 12 2 10 3 8 4 9 5 7 6 13 9 19 10 18 11 14 12 16 13
REMARK SMILES IDX 15 14 17 15 6 16 5 17 4 18 20 19 3 20 21 21 2 22 1 23
REMARK H PARENT 10 7 7 8
ROOT
ATOM      1  C   UNL     1       3.638  -2.483  12.148  1.00  0.00     0.259 C 
ATOM      2  O   UNL     1       2.874  -2.634  11.206  1.00  0.00    -0.269 OA
ATOM      3  N   UNL     1       4.893  -1.867  12.167  1.00  0.00    -0.274 N 
ATOM      4  C   UNL     1       5.632  -1.047  11.352  1.00  0.00     0.321 C 
ATOM      5  O   UNL     1       6.688  -0.591  11.803  1.00  0.00    -0.248 OA
ATOM      6  N   UNL     1       5.252  -0.694  10.110  1.00  0.00    -0.334 N 
ATOM      7  H   UNL     1       5.353  -1.883  13.068  1.00  0.00     0.175 HD
ATOM      8  H   UNL     1       5.862  -0.018   9.675  1.00  0.00     0.165 HD
ENDROOT
BRANCH   1   9
ATOM      9  C   UNL     1       3.193  -3.012  13.452  1.00  0.00     0.040 A 
ATOM     10  C   UNL     1       2.595  -4.269  13.561  1.00  0.00     0.014 A 
ATOM     11  C   UNL     1       2.239  -4.749  14.822  1.00  0.00     0.004 A 
ATOM     12  C   UNL     1       3.380  -2.213  14.584  1.00  0.00     0.014 A 
ATOM     13  C   UNL     1       2.470  -3.976  15.970  1.00  0.00    -0.051 A 
ATOM     14  C   UNL     1       3.029  -2.699  15.841  1.00  0.00     0.004 A 
ATOM     15  C   UNL     1       2.159  -4.541  17.325  1.00  0.00     0.044 C 
ENDBRANCH   1   9
BRANCH   6  16
ATOM     16  C   UNL     1       4.025  -1.025   9.442  1.00  0.00     0.153 C 
BRANCH  16  17
ATOM     17  C   UNL     1       4.107  -1.377   7.983  1.00  0.00    -0.029 A 
ATOM     18  C   UNL     1       3.976  -0.431   6.961  1.00  0.00     0.006 A 
ATOM     19  C   UNL     1       4.542  -2.672   7.657  1.00  0.00     0.006 A 
ATOM     20  C   UNL     1       4.300  -0.775   5.644  1.00  0.00     0.004 A 
ATOM     21  C   UNL     1       4.868  -3.011   6.348  1.00  0.00     0.004 A 
ATOM     22  C   UNL     1       4.760  -2.061   5.331  1.00  0.00    -0.051 A 
ATOM     23  C   UNL     1       5.244  -2.394   3.951  1.00  0.00     0.044 C 
ENDBRANCH  16  17
ENDBRANCH   6  16
TORSDOF 3
ENDMDL
MODEL 4
REMARK VINA RESULT:    -5.236      0.990      8.008
REMARK INTER + INTRA:          -6.529
REMARK INTER:                  -6.047
REMARK INTRA:                  -0.482
REMARK UNBOUND:                -0.375
REMARK SMILES Cc1ccc(CNC(=O)NC(=O)c2ccc(C)cc2)cc1
REMARK SMILES IDX 11 1 12 2 10 3 8 4 9 5 7 6 13 9 19 10 18 11 14 12 16 13
REMARK SMILES IDX 15 14 17 15 6 16 5 17 4 18 20 19 3 20 21 21 2 22 1 23
REMARK H PARENT 10 7 7 8
ROOT
ATOM      1  C   UNL     1       7.166  -0.767  11.198  1.00  0.00     0.259 C 
ATOM      2  O   UNL     1       7.347  -0.882   9.994  1.00  0.00    -0.269 OA
ATOM      3  N   UNL     1       6.060  -1.161  11.959  1.00  0.00    -0.274 N 
ATOM      4  C   UNL     1       4.956  -1.959  11.803  1.00  0.00     0.321 C 
ATOM      5  O   UNL     1       4.254  -2.166  12.799  1.00  0.00    -0.248 OA
ATOM      6  N   UNL     1       4.621  -2.547  10.640  1.00  0.00    -0.334 N 
ATOM      7  H   UNL     1       6.131  -0.939  12.943  1.00  0.00     0.175 HD
ATOM      8  H   UNL     1       3.830  -3.171  10.713  1.00  0.00     0.165 HD
ENDROOT
BRANCH   1   9
ATOM      9  C   UNL     1       8.251  -0.133  11.971  1.00  0.00     0.040 A 
ATOM     10  C   UNL     1       8.702   1.154  11.672  1.00  0.00     0.014 A 
ATOM     11  C   UNL     1       9.694   1.732  12.464  1.00  0.00     0.004 A 
ATOM     12  C   UNL     1       8.825  -0.862  13.017  1.00  0.00     0.014 A 
ATOM     13  C   UNL     1      10.241   1.028  13.548  1.00  0.00    -0.051 A 
ATOM     14  C   UNL     1       9.811  -0.278  13.810  1.00  0.00     0.004 A 
ATOM     15  C   UNL     1      11.245   1.695  14.441  1.00  0.00     0.044 C 
ENDBRANCH   1   9
BRANCH   6  16
ATOM     16  C   UNL     1       5.350  -2.522   9.404  1.00  0.00     0.153 C 
BRANCH  16  17
ATOM     17  C   UNL     1       4.587  -2.155   8.161  1.00  0.00    -0.029 A 
ATOM     18  C   UNL     1       4.552  -2.964   7.020  1.00  0.00     0.006 A 
ATOM     19  C   UNL     1       3.714  -1.058   8.242  1.00  0.00     0.006 A 
ATOM     20  C   UNL     1       3.640  -2.689   5.996  1.00  0.00     0.004 A 
ATOM     21  C   UNL     1       2.804  -0.789   7.225  1.00  0.00     0.004 A 
ATOM     22  C   UNL     1       2.752  -1.609   6.096  1.00  0.00    -0.051 A 
ATOM     23  C   UNL     1       1.678  -1.394   5.072  1.00  0.00     0.044 C 
ENDBRANCH  16  17
ENDBRANCH   6  16
TORSDOF 3
ENDMDL
MODEL 5
REMARK VINA RESULT:    -5.165      1.319      7.930
REMARK INTER + INTRA:          -6.446
REMARK INTER:                  -5.993
REMARK INTRA:                  -0.453
REMARK UNBOUND:                -0.375
REMARK SMILES Cc1ccc(CNC(=O)NC(=O)c2ccc(C)cc2)cc1
REMARK SMILES IDX 11 1 12 2 10 3 8 4 9 5 7 6 13 9 19 10 18 11 14 12 16 13
REMARK SMILES IDX 15 14 17 15 6 16 5 17 4 18 20 19 3 20 21 21 2 22 1 23
REMARK H PARENT 10 7 7 8
ROOT
ATOM      1  C   UNL     1       7.200  -0.784  11.211  1.00  0.00     0.259 C 
ATOM      2  O   UNL     1       7.399  -0.935  10.014  1.00  0.00    -0.269 OA
ATOM      3  N   UNL     1       6.081  -1.150  11.965  1.00  0.00    -0.274 N 
ATOM      4  C   UNL     1       4.974  -1.946  11.816  1.00  0.00     0.321 C 
ATOM      5  O   UNL     1       4.255  -2.120  12.805  1.00  0.00    -0.248 OA
ATOM      6  N   UNL     1       4.653  -2.565  10.664  1.00  0.00    -0.334 N 
ATOM      7  H   UNL     1       6.138  -0.901  12.944  1.00  0.00     0.175 HD
ATOM      8  H   UNL     1       3.857  -3.182  10.743  1.00  0.00     0.165 HD
ENDROOT
BRANCH   1   9
ATOM      9  C   UNL     1       8.278  -0.135  11.983  1.00  0.00     0.040 A 
ATOM     10  C   UNL     1       8.718   1.153  11.676  1.00  0.00     0.014 A 
ATOM     11  C   UNL     1       9.703   1.746  12.467  1.00  0.00     0.004 A 
ATOM     12  C   UNL     1       8.856  -0.853  13.034  1.00  0.00     0.014 A 
ATOM     13  C   UNL     1      10.253   1.054  13.556  1.00  0.00    -0.051 A 
ATOM     14  C   UNL     1       9.835  -0.254  13.826  1.00  0.00     0.004 A 
ATOM     15  C   UNL     1      11.249   1.736  14.448  1.00  0.00     0.044 C 
ENDBRANCH   1   9
BRANCH   6  16
ATOM     16  C   UNL     1       5.401  -2.579   9.439  1.00  0.00     0.153 C 
BRANCH  16  17
ATOM     17  C   UNL     1       4.642  -2.332   8.165  1.00  0.00    -0.029 A 
ATOM     18  C   UNL     1       3.911  -1.163   7.926  1.00  0.00     0.006 A 
ATOM     19  C   UNL     1       4.860  -3.224   7.103  1.00  0.00     0.006 A 
ATOM     20  C   UNL     1       3.431  -0.888   6.641  1.00  0.00     0.004 A 
ATOM     21  C   UNL     1       4.386  -2.947   5.824  1.00  0.00     0.004 A 
ATOM     22  C   UNL     1       3.676  -1.770   5.580  1.00  0.00    -0.051 A 
ATOM     23  C   UNL     1       3.290  -1.414   4.176  1.00  0.00     0.044 C 
ENDBRANCH  16  17
ENDBRANCH   6  16
TORSDOF 3
ENDMDL
MODEL 6
REMARK VINA RESULT:    -4.520      7.082      8.883
REMARK INTER + INTRA:          -5.687
REMARK INTER:                  -5.231
REMARK INTRA:                  -0.456
REMARK UNBOUND:                -0.375
REMARK SMILES Cc1ccc(CNC(=O)NC(=O)c2ccc(C)cc2)cc1
REMARK SMILES IDX 11 1 12 2 10 3 8 4 9 5 7 6 13 9 19 10 18 11 14 12 16 13
REMARK SMILES IDX 15 14 17 15 6 16 5 17 4 18 20 19 3 20 21 21 2 22 1 23
REMARK H PARENT 10 7 7 8
ROOT
ATOM      1  C   UNL     1      10.821  -0.002  14.664  1.00  0.00     0.259 C 
ATOM      2  O   UNL     1      11.877   0.370  15.155  1.00  0.00    -0.269 OA
ATOM      3  N   UNL     1       9.894   0.734  13.919  1.00  0.00    -0.274 N 
ATOM      4  C   UNL     1       9.847   1.939  13.266  1.00  0.00     0.321 C 
ATOM      5  O   UNL     1       8.847   2.181  12.582  1.00  0.00    -0.248 OA
ATOM      6  N   UNL     1      10.838   2.848  13.310  1.00  0.00    -0.334 N 
ATOM      7  H   UNL     1       9.077   0.210  13.636  1.00  0.00     0.175 HD
ATOM      8  H   UNL     1      10.686   3.644  12.707  1.00  0.00     0.165 HD
ENDROOT
BRANCH   1   9
ATOM      9  C   UNL     1      10.459  -1.418  14.872  1.00  0.00     0.040 A 
ATOM     10  C   UNL     1      11.185  -2.450  14.274  1.00  0.00     0.014 A 
ATOM     11  C   UNL     1      10.838  -3.774  14.542  1.00  0.00     0.004 A 
ATOM     12  C   UNL     1       9.357  -1.701  15.684  1.00  0.00     0.014 A 
ATOM     13  C   UNL     1       9.765  -4.070  15.397  1.00  0.00    -0.051 A 
ATOM     14  C   UNL     1       9.017  -3.026  15.954  1.00  0.00     0.004 A 
ATOM     15  C   UNL     1       9.458  -5.498  15.742  1.00  0.00     0.044 C 
ENDBRANCH   1   9
BRANCH   6  16
ATOM     16  C   UNL     1      12.115   2.722  13.954  1.00  0.00     0.153 C 
BRANCH  16  17
ATOM     17  C   UNL     1      12.471   3.753  14.989  1.00  0.00    -0.029 A 
ATOM     18  C   UNL     1      13.730   3.826  15.592  1.00  0.00     0.006 A 
ATOM     19  C   UNL     1      11.560   4.803  15.190  1.00  0.00     0.006 A 
ATOM     20  C   UNL     1      14.075   4.944  16.360  1.00  0.00     0.004 A 
ATOM     21  C   UNL     1      11.905   5.915  15.951  1.00  0.00     0.004 A 
ATOM     22  C   UNL     1      13.170   6.000  16.534  1.00  0.00    -0.051 A 
ATOM     23  C   UNL     1      13.581   7.261  17.235  1.00  0.00     0.044 C 
ENDBRANCH  16  17
ENDBRANCH   6  16
TORSDOF 3
ENDMDL
MODEL 7
REMARK VINA RESULT:    -4.277      5.184      8.253
REMARK INTER + INTRA:          -5.402
REMARK INTER:                  -4.816
REMARK INTRA:                  -0.586
REMARK UNBOUND:                -0.375
REMARK SMILES Cc1ccc(CNC(=O)NC(=O)c2ccc(C)cc2)cc1
REMARK SMILES IDX 11 1 12 2 10 3 8 4 9 5 7 6 13 9 19 10 18 11 14 12 16 13
REMARK SMILES IDX 15 14 17 15 6 16 5 17 4 18 20 19 3 20 21 21 2 22 1 23
REMARK H PARENT 10 7 7 8
ROOT
ATOM      1  C   UNL     1      11.021   1.424  14.052  1.00  0.00     0.259 C 
ATOM      2  O   UNL     1      11.736   2.259  13.515  1.00  0.00    -0.269 OA
ATOM      3  N   UNL     1      11.060   0.954  15.368  1.00  0.00    -0.274 N 
ATOM      4  C   UNL     1      11.638   1.319  16.557  1.00  0.00     0.321 C 
ATOM      5  O   UNL     1      11.309   0.692  17.571  1.00  0.00    -0.248 OA
ATOM      6  N   UNL     1      12.513   2.334  16.679  1.00  0.00    -0.334 N 
ATOM      7  H   UNL     1      10.374   0.241  15.577  1.00  0.00     0.175 HD
ATOM      8  H   UNL     1      12.779   2.529  17.634  1.00  0.00     0.165 HD
ENDROOT
BRANCH   1   9
ATOM      9  C   UNL     1       9.964   0.824  13.215  1.00  0.00     0.040 A 
ATOM     10  C   UNL     1       9.387   1.526  12.156  1.00  0.00     0.014 A 
ATOM     11  C   UNL     1       8.428   0.898  11.360  1.00  0.00     0.004 A 
ATOM     12  C   UNL     1       9.547  -0.476  13.517  1.00  0.00     0.014 A 
ATOM     13  C   UNL     1       8.040  -0.424  11.623  1.00  0.00    -0.051 A 
ATOM     14  C   UNL     1       8.594  -1.102  12.716  1.00  0.00     0.004 A 
ATOM     15  C   UNL     1       7.072  -1.114  10.707  1.00  0.00     0.044 C 
ENDBRANCH   1   9
BRANCH   6  16
ATOM     16  C   UNL     1      12.945   3.245  15.658  1.00  0.00     0.153 C 
BRANCH  16  17
ATOM     17  C   UNL     1      12.470   4.668  15.756  1.00  0.00    -0.029 A 
ATOM     18  C   UNL     1      11.165   5.060  15.441  1.00  0.00     0.006 A 
ATOM     19  C   UNL     1      13.320   5.588  16.391  1.00  0.00     0.006 A 
ATOM     20  C   UNL     1      10.718   6.342  15.780  1.00  0.00     0.004 A 
ATOM     21  C   UNL     1      12.873   6.860  16.732  1.00  0.00     0.004 A 
ATOM     22  C   UNL     1      11.564   7.245  16.438  1.00  0.00    -0.051 A 
ATOM     23  C   UNL     1      11.050   8.565  16.931  1.00  0.00     0.044 C 
ENDBRANCH  16  17
ENDBRANCH   6  16
TORSDOF 3
ENDMDL
MODEL 8
REMARK VINA RESULT:    -4.150      7.155     10.572
REMARK INTER + INTRA:          -5.252
REMARK INTER:                  -4.907
REMARK INTRA:                  -0.345
REMARK UNBOUND:                -0.375
REMARK SMILES Cc1ccc(CNC(=O)NC(=O)c2ccc(C)cc2)cc1
REMARK SMILES IDX 11 1 12 2 10 3 8 4 9 5 7 6 13 9 19 10 18 11 14 12 16 13
REMARK SMILES IDX 15 14 17 15 6 16 5 17 4 18 20 19 3 20 21 21 2 22 1 23
REMARK H PARENT 10 7 7 8
ROOT
ATOM      1  C   UNL     1      11.847   2.762  14.873  1.00  0.00     0.259 C 
ATOM      2  O   UNL     1      12.352   1.755  15.349  1.00  0.00    -0.269 OA
ATOM      3  N   UNL     1      10.880   2.865  13.868  1.00  0.00    -0.274 N 
ATOM      4  C   UNL     1       9.994   2.039  13.225  1.00  0.00     0.321 C 
ATOM      5  O   UNL     1       9.180   2.559  12.455  1.00  0.00    -0.248 OA
ATOM      6  N   UNL     1       9.948   0.707  13.413  1.00  0.00    -0.334 N 
ATOM      7  H   UNL     1      10.631   3.815  13.625  1.00  0.00     0.175 HD
ATOM      8  H   UNL     1       9.184   0.254  12.932  1.00  0.00     0.165 HD
ENDROOT
BRANCH   1   9
ATOM      9  C   UNL     1      12.302   4.052  15.424  1.00  0.00     0.040 A 
ATOM     10  C   UNL     1      11.451   5.157  15.490  1.00  0.00     0.014 A 
ATOM     11  C   UNL     1      11.911   6.341  16.068  1.00  0.00     0.004 A 
ATOM     12  C   UNL     1      13.622   4.144  15.877  1.00  0.00     0.014 A 
ATOM     13  C   UNL     1      13.217   6.427  16.572  1.00  0.00    -0.051 A 
ATOM     14  C   UNL     1      14.075   5.326  16.460  1.00  0.00     0.004 A 
ATOM     15  C   UNL     1      13.668   7.679  17.267  1.00  0.00     0.044 C 
ENDBRANCH   1   9
BRANCH   6  16
ATOM     16  C   UNL     1      10.727  -0.076  14.331  1.00  0.00     0.153 C 
BRANCH  16  17
ATOM     17  C   UNL     1      10.293  -1.496  14.567  1.00  0.00    -0.029 A 
ATOM     18  C   UNL     1      11.048  -2.602  14.163  1.00  0.00     0.006 A 
ATOM     19  C   UNL     1       9.190  -1.700  15.412  1.00  0.00     0.006 A 
ATOM     20  C   UNL     1      10.716  -3.881  14.619  1.00  0.00     0.004 A 
ATOM     21  C   UNL     1       8.863  -2.973  15.869  1.00  0.00     0.004 A 
ATOM     22  C   UNL     1       9.630  -4.074  15.485  1.00  0.00    -0.051 A 
ATOM     23  C   UNL     1       9.355  -5.418  16.090  1.00  0.00     0.044 C 
ENDBRANCH  16  17
ENDBRANCH   6  16
TORSDOF 3
ENDMDL
MODEL 9
REMARK VINA RESULT:    -3.931      7.437      8.031
REMARK INTER + INTRA:          -4.995
REMARK INTER:                  -4.462
REMARK INTRA:                  -0.533
REMARK UNBOUND:                -0.375
REMARK SMILES Cc1ccc(CNC(=O)NC(=O)c2ccc(C)cc2)cc1
REMARK SMILES IDX 11 1 12 2 10 3 8 4 9 5 7 6 13 9 19 10 18 11 14 12 16 13
REMARK SMILES IDX 15 14 17 15 6 16 5 17 4 18 20 19 3 20 21 21 2 22 1 23
REMARK H PARENT 10 7 7 8
ROOT
ATOM      1  C   UNL     1       6.698   0.283  17.563  1.00  0.00     0.259 C 
ATOM      2  O   UNL     1       7.168  -0.807  17.855  1.00  0.00    -0.269 OA
ATOM      3  N   UNL     1       7.365   1.491  17.332  1.00  0.00    -0.274 N 
ATOM      4  C   UNL     1       8.650   1.911  17.103  1.00  0.00     0.321 C 
ATOM      5  O   UNL     1       8.820   3.097  16.801  1.00  0.00    -0.248 OA
ATOM      6  N   UNL     1       9.720   1.097  17.161  1.00  0.00    -0.334 N 
ATOM      7  H   UNL     1       6.755   2.271  17.125  1.00  0.00     0.175 HD
ATOM      8  H   UNL     1      10.584   1.540  16.882  1.00  0.00     0.165 HD
ENDROOT
BRANCH   1   9
ATOM      9  C   UNL     1       5.230   0.354  17.425  1.00  0.00     0.040 A 
ATOM     10  C   UNL     1       4.462  -0.792  17.215  1.00  0.00     0.014 A 
ATOM     11  C   UNL     1       3.074  -0.682  17.143  1.00  0.00     0.004 A 
ATOM     12  C   UNL     1       4.624   1.612  17.503  1.00  0.00     0.014 A 
ATOM     13  C   UNL     1       2.451   0.569  17.272  1.00  0.00    -0.051 A 
ATOM     14  C   UNL     1       3.236   1.717  17.437  1.00  0.00     0.004 A 
ATOM     15  C   UNL     1       0.953   0.661  17.278  1.00  0.00     0.044 C 
ENDBRANCH   1   9
BRANCH   6  16
ATOM     16  C   UNL     1       9.732  -0.320  17.390  1.00  0.00     0.153 C 
BRANCH  16  17
ATOM     17  C   UNL     1      10.122  -1.202  16.236  1.00  0.00    -0.029 A 
ATOM     18  C   UNL     1      11.004  -0.796  15.229  1.00  0.00     0.006 A 
ATOM     19  C   UNL     1       9.743  -2.553  16.303  1.00  0.00     0.006 A 
ATOM     20  C   UNL     1      11.512  -1.734  14.324  1.00  0.00     0.004 A 
ATOM     21  C   UNL     1      10.254  -3.485  15.405  1.00  0.00     0.004 A 
ATOM     22  C   UNL     1      11.151  -3.086  14.414  1.00  0.00    -0.051 A 
ATOM     23  C   UNL     1      11.800  -4.117  13.540  1.00  0.00     0.044 C 
ENDBRANCH  16  17
ENDBRANCH   6  16
TORSDOF 3
ENDMDL
