MODEL 1
REMARK VINA RESULT:    -3.691      0.000      0.000
REMARK INTER + INTRA:          -5.168
REMARK INTER:                  -4.878
REMARK INTRA:                  -0.290
REMARK UNBOUND:                -0.290
REMARK SMILES [H]/N=C\C[C@H]1C[C@@H]1O[C@H]1CO[C@H]2C[C@@H](C3CC3)CCN2C1
REMARK SMILES IDX 7 1 6 2 5 3 8 4 9 5 14 6 13 7 18 8 12 9 19 10 20 11 11 12
REMARK SMILES IDX 21 13 10 14 15 15 16 16 17 17 4 18 3 19 2 20 1 21
REMARK H PARENT
ROOT
ATOM      1  C   UNL     1     -10.693   3.778  -2.045  1.00  0.00     0.122 C 
ATOM      2  C   UNL     1     -11.061   2.764  -3.092  1.00  0.00     0.039 C 
ATOM      3  C   UNL     1      -9.892   3.681  -3.315  1.00  0.00     0.026 C 
ENDROOT
BRANCH   1   4
ATOM      4  O   UNL     1     -11.614   4.881  -1.947  1.00  0.00    -0.371 OA
BRANCH   4   5
ATOM      5  C   UNL     1     -11.690   5.511  -0.658  1.00  0.00     0.158 C 
ATOM      6  C   UNL     1     -14.038   9.943  -2.092  1.00  0.00    -0.003 C 
ATOM      7  C   UNL     1     -12.639   9.337  -2.259  1.00  0.00     0.052 C 
ATOM      8  C   UNL     1     -15.080   8.816  -2.078  1.00  0.00     0.019 C 
ATOM      9  C   UNL     1     -12.364   8.243  -1.219  1.00  0.00     0.189 C 
ATOM     10  C   UNL     1     -14.730   7.744  -1.047  1.00  0.00     0.087 C 
ATOM     11  N   UNL     1     -13.392   7.204  -1.286  1.00  0.00    -0.276 NA
ATOM     12  O   UNL     1     -11.062   7.727  -1.503  1.00  0.00    -0.360 OA
ATOM     13  C   UNL     1     -13.075   6.113  -0.359  1.00  0.00     0.121 C 
ATOM     14  C   UNL     1     -10.678   6.661  -0.629  1.00  0.00     0.195 C 
BRANCH   6  15
ATOM     15  C   UNL     1     -14.346  10.938  -3.187  1.00  0.00    -0.008 C 
ATOM     16  C   UNL     1     -14.822  12.330  -2.843  1.00  0.00     0.004 C 
ATOM     17  C   UNL     1     -13.452  12.131  -3.423  1.00  0.00     0.004 C 
ENDBRANCH   6  15
ENDBRANCH   4   5
ENDBRANCH   1   4
BRANCH   3  18
ATOM     18  C   UNL     1      -8.506   3.109  -3.292  1.00  0.00     0.053 C 
BRANCH  18  19
ATOM     19  C   UNL     1      -7.595   3.525  -4.418  1.00  0.00     0.074 C 
BRANCH  19  20
ATOM     20  N   UNL     1      -7.963   3.818  -5.620  1.00  0.00    -0.313 NA
ATOM     21  H   UNL     1      -7.519   4.686  -5.953  1.00  0.00     0.186 HD
ENDBRANCH  19  20
ENDBRANCH  18  19
ENDBRANCH   3  18
TORSDOF 6
ENDMDL
MODEL 2
REMARK VINA RESULT:    -3.513      5.302      8.295
REMARK INTER + INTRA:          -4.933
REMARK INTER:                  -4.964
REMARK INTRA:                   0.031
REMARK UNBOUND:                -0.290
REMARK SMILES [H]/N=C\C[C@H]1C[C@@H]1O[C@H]1CO[C@H]2C[C@@H](C3CC3)CCN2C1
REMARK SMILES IDX 7 1 6 2 5 3 8 4 9 5 14 6 13 7 18 8 12 9 19 10 20 11 11 12
REMARK SMILES IDX 21 13 10 14 15 15 16 16 17 17 4 18 3 19 2 20 1 21
REMARK H PARENT
ROOT
ATOM      1  C   UNL     1     -10.831   2.962  -2.350  1.00  0.00     0.122 C 
ATOM      2  C   UNL     1     -10.932   4.082  -1.353  1.00  0.00     0.039 C 
ATOM      3  C   UNL     1     -10.561   2.701  -0.894  1.00  0.00     0.026 C 
ENDROOT
BRANCH   1   4
ATOM      4  O   UNL     1     -12.102   2.515  -2.861  1.00  0.00    -0.371 OA
BRANCH   4   5
ATOM      5  C   UNL     1     -12.058   1.849  -4.133  1.00  0.00     0.158 C 
ATOM      6  C   UNL     1     -16.737  -0.451  -3.972  1.00  0.00    -0.003 C 
ATOM      7  C   UNL     1     -15.389  -0.652  -3.267  1.00  0.00     0.052 C 
ATOM      8  C   UNL     1     -16.932   1.040  -4.278  1.00  0.00     0.019 C 
ATOM      9  C   UNL     1     -14.235  -0.018  -4.055  1.00  0.00     0.189 C 
ATOM     10  C   UNL     1     -15.735   1.618  -5.032  1.00  0.00     0.087 C 
ATOM     11  N   UNL     1     -14.494   1.403  -4.287  1.00  0.00    -0.276 NA
ATOM     12  O   UNL     1     -13.050  -0.228  -3.283  1.00  0.00    -0.360 OA
ATOM     13  C   UNL     1     -13.347   2.028  -4.955  1.00  0.00     0.121 C 
ATOM     14  C   UNL     1     -11.884   0.348  -3.879  1.00  0.00     0.195 C 
BRANCH   6  15
ATOM     15  C   UNL     1     -17.883  -0.977  -3.138  1.00  0.00    -0.008 C 
ATOM     16  C   UNL     1     -18.008  -2.456  -2.858  1.00  0.00     0.004 C 
ATOM     17  C   UNL     1     -17.645  -1.514  -1.747  1.00  0.00     0.004 C 
ENDBRANCH   6  15
ENDBRANCH   4   5
ENDBRANCH   1   4
BRANCH   3  18
ATOM     18  C   UNL     1      -9.162   2.444  -0.419  1.00  0.00     0.053 C 
BRANCH  18  19
ATOM     19  C   UNL     1      -9.025   1.855   0.961  1.00  0.00     0.074 C 
BRANCH  19  20
ATOM     20  N   UNL     1      -9.946   1.820   1.865  1.00  0.00    -0.313 NA
ATOM     21  H   UNL     1     -10.421   2.729   1.958  1.00  0.00     0.186 HD
ENDBRANCH  19  20
ENDBRANCH  18  19
ENDBRANCH   3  18
TORSDOF 6
ENDMDL
MODEL 3
REMARK VINA RESULT:    -3.080      2.566      8.373
REMARK INTER + INTRA:          -4.361
REMARK INTER:                  -4.033
REMARK INTRA:                  -0.328
REMARK UNBOUND:                -0.290
REMARK SMILES [H]/N=C\C[C@H]1C[C@@H]1O[C@H]1CO[C@H]2C[C@@H](C3CC3)CCN2C1
REMARK SMILES IDX 7 1 6 2 5 3 8 4 9 5 14 6 13 7 18 8 12 9 19 10 20 11 11 12
REMARK SMILES IDX 21 13 10 14 15 15 16 16 17 17 4 18 3 19 2 20 1 21
REMARK H PARENT
ROOT
ATOM      1  C   UNL     1     -11.507   6.181  -0.963  1.00  0.00     0.122 C 
ATOM      2  C   UNL     1     -10.537   7.125  -0.310  1.00  0.00     0.039 C 
ATOM      3  C   UNL     1     -11.412   7.608  -1.431  1.00  0.00     0.026 C 
ENDROOT
BRANCH   1   4
ATOM      4  O   UNL     1     -10.886   5.186  -1.799  1.00  0.00    -0.371 OA
BRANCH   4   5
ATOM      5  C   UNL     1     -11.326   3.835  -1.584  1.00  0.00     0.158 C 
ATOM      6  C   UNL     1      -6.717   1.433  -2.019  1.00  0.00    -0.003 C 
ATOM      7  C   UNL     1      -7.693   2.119  -2.982  1.00  0.00     0.052 C 
ATOM      8  C   UNL     1      -6.783   2.125  -0.651  1.00  0.00     0.019 C 
ATOM      9  C   UNL     1      -9.108   2.207  -2.394  1.00  0.00     0.189 C 
ATOM     10  C   UNL     1      -8.221   2.211  -0.137  1.00  0.00     0.087 C 
ATOM     11  N   UNL     1      -9.081   2.894  -1.103  1.00  0.00    -0.276 NA
ATOM     12  O   UNL     1      -9.907   2.900  -3.354  1.00  0.00    -0.360 OA
ATOM     13  C   UNL     1     -10.445   3.061  -0.587  1.00  0.00     0.121 C 
ATOM     14  C   UNL     1     -11.258   3.093  -2.923  1.00  0.00     0.195 C 
BRANCH   6  15
ATOM     15  C   UNL     1      -5.303   1.451  -2.555  1.00  0.00    -0.008 C 
ATOM     16  C   UNL     1      -4.551   0.159  -2.770  1.00  0.00     0.004 C 
ATOM     17  C   UNL     1      -4.999   0.968  -3.952  1.00  0.00     0.004 C 
ENDBRANCH   6  15
ENDBRANCH   4   5
ENDBRANCH   1   4
BRANCH   3  18
ATOM     18  C   UNL     1     -12.514   8.578  -1.126  1.00  0.00     0.053 C 
BRANCH  18  19
ATOM     19  C   UNL     1     -12.757   9.654  -2.152  1.00  0.00     0.074 C 
BRANCH  19  20
ATOM     20  N   UNL     1     -12.544   9.551  -3.422  1.00  0.00    -0.313 NA
ATOM     21  H   UNL     1     -12.449  10.475  -3.867  1.00  0.00     0.186 HD
ENDBRANCH  19  20
ENDBRANCH  18  19
ENDBRANCH   3  18
TORSDOF 6
ENDMDL
MODEL 4
REMARK VINA RESULT:    -3.079      4.993      8.270
REMARK INTER + INTRA:          -4.359
REMARK INTER:                  -4.053
REMARK INTRA:                  -0.306
REMARK UNBOUND:                -0.290
REMARK SMILES [H]/N=C\C[C@H]1C[C@@H]1O[C@H]1CO[C@H]2C[C@@H](C3CC3)CCN2C1
REMARK SMILES IDX 7 1 6 2 5 3 8 4 9 5 14 6 13 7 18 8 12 9 19 10 20 11 11 12
REMARK SMILES IDX 21 13 10 14 15 15 16 16 17 17 4 18 3 19 2 20 1 21
REMARK H PARENT
ROOT
ATOM      1  C   UNL     1     -12.346   1.224  -3.951  1.00  0.00     0.122 C 
ATOM      2  C   UNL     1     -11.982  -0.195  -4.288  1.00  0.00     0.039 C 
ATOM      3  C   UNL     1     -13.274   0.100  -3.580  1.00  0.00     0.026 C 
ENDROOT
BRANCH   1   4
ATOM      4  O   UNL     1     -11.563   1.793  -2.884  1.00  0.00    -0.371 OA
BRANCH   4   5
ATOM      5  C   UNL     1     -11.163   3.160  -3.070  1.00  0.00     0.158 C 
ATOM      6  C   UNL     1      -6.447   2.903  -0.857  1.00  0.00    -0.003 C 
ATOM      7  C   UNL     1      -7.897   2.880  -0.358  1.00  0.00     0.052 C 
ATOM      8  C   UNL     1      -6.376   2.246  -2.242  1.00  0.00     0.019 C 
ATOM      9  C   UNL     1      -8.863   3.484  -1.387  1.00  0.00     0.189 C 
ATOM     10  C   UNL     1      -7.385   2.868  -3.208  1.00  0.00     0.087 C 
ATOM     11  N   UNL     1      -8.743   2.789  -2.669  1.00  0.00    -0.276 NA
ATOM     12  O   UNL     1     -10.175   3.365  -0.833  1.00  0.00    -0.360 OA
ATOM     13  C   UNL     1      -9.733   3.304  -3.621  1.00  0.00     0.121 C 
ATOM     14  C   UNL     1     -11.197   3.856  -1.706  1.00  0.00     0.195 C 
BRANCH   6  15
ATOM     15  C   UNL     1      -5.517   2.205   0.110  1.00  0.00    -0.008 C 
ATOM     16  C   UNL     1      -4.330   2.937   0.691  1.00  0.00     0.004 C 
ATOM     17  C   UNL     1      -5.494   2.584   1.571  1.00  0.00     0.004 C 
ENDBRANCH   6  15
ENDBRANCH   4   5
ENDBRANCH   1   4
BRANCH   3  18
ATOM     18  C   UNL     1     -14.566  -0.088  -4.318  1.00  0.00     0.053 C 
BRANCH  18  19
ATOM     19  C   UNL     1     -15.650  -0.832  -3.583  1.00  0.00     0.074 C 
BRANCH  19  20
ATOM     20  N   UNL     1     -15.788  -0.899  -2.301  1.00  0.00    -0.313 NA
ATOM     21  H   UNL     1     -16.565  -1.520  -2.034  1.00  0.00     0.186 HD
ENDBRANCH  19  20
ENDBRANCH  18  19
ENDBRANCH   3  18
TORSDOF 6
ENDMDL
MODEL 5
REMARK VINA RESULT:    -2.692      2.018      2.499
REMARK INTER + INTRA:          -3.848
REMARK INTER:                  -4.567
REMARK INTRA:                   0.719
REMARK UNBOUND:                -0.290
REMARK SMILES [H]/N=C\C[C@H]1C[C@@H]1O[C@H]1CO[C@H]2C[C@@H](C3CC3)CCN2C1
REMARK SMILES IDX 7 1 6 2 5 3 8 4 9 5 14 6 13 7 18 8 12 9 19 10 20 11 11 12
REMARK SMILES IDX 21 13 10 14 15 15 16 16 17 17 4 18 3 19 2 20 1 21
REMARK H PARENT
ROOT
ATOM      1  C   UNL     1     -11.348   3.799  -1.767  1.00  0.00     0.122 C 
ATOM      2  C   UNL     1     -10.198   3.421  -2.657  1.00  0.00     0.039 C 
ATOM      3  C   UNL     1      -9.992   3.526  -1.173  1.00  0.00     0.026 C 
ENDROOT
BRANCH   1   4
ATOM      4  O   UNL     1     -11.740   5.181  -1.870  1.00  0.00    -0.371 OA
BRANCH   4   5
ATOM      5  C   UNL     1     -11.876   5.881  -0.622  1.00  0.00     0.158 C 
ATOM      6  C   UNL     1     -14.321  10.141  -2.377  1.00  0.00    -0.003 C 
ATOM      7  C   UNL     1     -12.899   9.574  -2.469  1.00  0.00     0.052 C 
ATOM      8  C   UNL     1     -15.326   8.982  -2.328  1.00  0.00     0.019 C 
ATOM      9  C   UNL     1     -12.620   8.551  -1.360  1.00  0.00     0.189 C 
ATOM     10  C   UNL     1     -14.973   7.983  -1.226  1.00  0.00     0.087 C 
ATOM     11  N   UNL     1     -13.612   7.476  -1.396  1.00  0.00    -0.276 NA
ATOM     12  O   UNL     1     -11.294   8.065  -1.576  1.00  0.00    -0.360 OA
ATOM     13  C   UNL     1     -13.288   6.451  -0.398  1.00  0.00     0.121 C 
ATOM     14  C   UNL     1     -10.903   7.064  -0.631  1.00  0.00     0.195 C 
BRANCH   6  15
ATOM     15  C   UNL     1     -14.628  11.061  -3.537  1.00  0.00    -0.008 C 
ATOM     16  C   UNL     1     -15.074  12.482  -3.287  1.00  0.00     0.004 C 
ATOM     17  C   UNL     1     -13.716  12.217  -3.870  1.00  0.00     0.004 C 
ENDBRANCH   6  15
ENDBRANCH   4   5
ENDBRANCH   1   4
BRANCH   3  18
ATOM     18  C   UNL     1      -9.752   2.275  -0.383  1.00  0.00     0.053 C 
BRANCH  18  19
ATOM     19  C   UNL     1     -10.325   2.247   1.010  1.00  0.00     0.074 C 
BRANCH  19  20
ATOM     20  N   UNL     1      -9.781   1.692   2.042  1.00  0.00    -0.313 NA
ATOM     21  H   UNL     1     -10.461   1.561   2.805  1.00  0.00     0.186 HD
ENDBRANCH  19  20
ENDBRANCH  18  19
ENDBRANCH   3  18
TORSDOF 6
ENDMDL
MODEL 6
REMARK VINA RESULT:    -2.293      1.841      2.134
REMARK INTER + INTRA:          -3.321
REMARK INTER:                  -3.350
REMARK INTRA:                   0.030
REMARK UNBOUND:                -0.290
REMARK SMILES [H]/N=C\C[C@H]1C[C@@H]1O[C@H]1CO[C@H]2C[C@@H](C3CC3)CCN2C1
REMARK SMILES IDX 7 1 6 2 5 3 8 4 9 5 14 6 13 7 18 8 12 9 19 10 20 11 11 12
REMARK SMILES IDX 21 13 10 14 15 15 16 16 17 17 4 18 3 19 2 20 1 21
REMARK H PARENT
ROOT
ATOM      1  C   UNL     1     -10.521   3.948  -2.282  1.00  0.00     0.122 C 
ATOM      2  C   UNL     1     -10.820   3.005  -1.151  1.00  0.00     0.039 C 
ATOM      3  C   UNL     1     -11.461   2.793  -2.493  1.00  0.00     0.026 C 
ENDROOT
BRANCH   1   4
ATOM      4  O   UNL     1     -11.121   5.249  -2.136  1.00  0.00    -0.371 OA
BRANCH   4   5
ATOM      5  C   UNL     1     -11.337   5.684  -0.783  1.00  0.00     0.158 C 
ATOM      6  C   UNL     1     -14.253   9.894  -1.770  1.00  0.00    -0.003 C 
ATOM      7  C   UNL     1     -12.776   9.519  -1.934  1.00  0.00     0.052 C 
ATOM      8  C   UNL     1     -15.119   8.641  -1.959  1.00  0.00     0.019 C 
ATOM      9  C   UNL     1     -12.382   8.344  -1.028  1.00  0.00     0.189 C 
ATOM     10  C   UNL     1     -14.655   7.499  -1.055  1.00  0.00     0.087 C 
ATOM     11  N   UNL     1     -13.244   7.190  -1.285  1.00  0.00    -0.276 NA
ATOM     12  O   UNL     1     -11.009   8.059  -1.302  1.00  0.00    -0.360 OA
ATOM     13  C   UNL     1     -12.805   6.039  -0.488  1.00  0.00     0.121 C 
ATOM     14  C   UNL     1     -10.506   6.950  -0.551  1.00  0.00     0.195 C 
BRANCH   6  15
ATOM     15  C   UNL     1     -14.663  10.975  -2.745  1.00  0.00    -0.008 C 
ATOM     16  C   UNL     1     -15.035  12.351  -2.247  1.00  0.00     0.004 C 
ATOM     17  C   UNL     1     -13.761  12.154  -3.016  1.00  0.00     0.004 C 
ENDBRANCH   6  15
ENDBRANCH   4   5
ENDBRANCH   1   4
BRANCH   3  18
ATOM     18  C   UNL     1     -11.038   1.617  -3.322  1.00  0.00     0.053 C 
BRANCH  18  19
ATOM     19  C   UNL     1     -12.142   0.858  -4.012  1.00  0.00     0.074 C 
BRANCH  19  20
ATOM     20  N   UNL     1     -13.035   0.126  -3.433  1.00  0.00    -0.313 NA
ATOM     21  H   UNL     1     -12.725  -0.853  -3.346  1.00  0.00     0.186 HD
ENDBRANCH  19  20
ENDBRANCH  18  19
ENDBRANCH   3  18
TORSDOF 6
ENDMDL
MODEL 7
REMARK VINA RESULT:    -2.172      3.078      8.324
REMARK INTER + INTRA:          -3.161
REMARK INTER:                  -3.352
REMARK INTRA:                   0.191
REMARK UNBOUND:                -0.290
REMARK SMILES [H]/N=C\C[C@H]1C[C@@H]1O[C@H]1CO[C@H]2C[C@@H](C3CC3)CCN2C1
REMARK SMILES IDX 7 1 6 2 5 3 8 4 9 5 14 6 13 7 18 8 12 9 19 10 20 11 11 12
REMARK SMILES IDX 21 13 10 14 15 15 16 16 17 17 4 18 3 19 2 20 1 21
REMARK H PARENT
ROOT
ATOM      1  C   UNL     1     -11.588   5.578  -0.835  1.00  0.00     0.122 C 
ATOM      2  C   UNL     1     -11.377   7.033  -0.526  1.00  0.00     0.039 C 
ATOM      3  C   UNL     1     -12.636   6.588  -1.214  1.00  0.00     0.026 C 
ENDROOT
BRANCH   1   4
ATOM      4  O   UNL     1     -10.759   5.078  -1.902  1.00  0.00    -0.371 OA
BRANCH   4   5
ATOM      5  C   UNL     1     -11.008   3.719  -2.296  1.00  0.00     0.158 C 
ATOM      6  C   UNL     1      -6.643   1.553  -0.435  1.00  0.00    -0.003 C 
ATOM      7  C   UNL     1      -6.997   2.476  -1.607  1.00  0.00     0.052 C 
ATOM      8  C   UNL     1      -7.590   1.838   0.739  1.00  0.00     0.019 C 
ATOM      9  C   UNL     1      -8.486   2.390  -1.970  1.00  0.00     0.189 C 
ATOM     10  C   UNL     1      -9.054   1.770   0.305  1.00  0.00     0.087 C 
ATOM     11  N   UNL     1      -9.314   2.691  -0.802  1.00  0.00    -0.276 NA
ATOM     12  O   UNL     1      -8.702   3.320  -3.034  1.00  0.00    -0.360 OA
ATOM     13  C   UNL     1     -10.734   2.702  -1.173  1.00  0.00     0.121 C 
ATOM     14  C   UNL     1     -10.068   3.379  -3.457  1.00  0.00     0.195 C 
BRANCH   6  15
ATOM     15  C   UNL     1      -5.202   1.726  -0.009  1.00  0.00    -0.008 C 
ATOM     16  C   UNL     1      -4.078   1.342  -0.942  1.00  0.00     0.004 C 
ATOM     17  C   UNL     1      -4.332   2.789  -0.636  1.00  0.00     0.004 C 
ENDBRANCH   6  15
ENDBRANCH   4   5
ENDBRANCH   1   4
BRANCH   3  18
ATOM     18  C   UNL     1     -13.933   6.648  -0.464  1.00  0.00     0.053 C 
BRANCH  18  19
ATOM     19  C   UNL     1     -15.156   6.184  -1.212  1.00  0.00     0.074 C 
BRANCH  19  20
ATOM     20  N   UNL     1     -15.176   5.712  -2.414  1.00  0.00    -0.313 NA
ATOM     21  H   UNL     1     -14.238   5.720  -2.840  1.00  0.00     0.186 HD
ENDBRANCH  19  20
ENDBRANCH  18  19
ENDBRANCH   3  18
TORSDOF 6
ENDMDL
MODEL 8
REMARK VINA RESULT:    -2.028      3.426      4.320
REMARK INTER + INTRA:          -2.970
REMARK INTER:                  -3.212
REMARK INTRA:                   0.242
REMARK UNBOUND:                -0.290
REMARK SMILES [H]/N=C\C[C@H]1C[C@@H]1O[C@H]1CO[C@H]2C[C@@H](C3CC3)CCN2C1
REMARK SMILES IDX 7 1 6 2 5 3 8 4 9 5 14 6 13 7 18 8 12 9 19 10 20 11 11 12
REMARK SMILES IDX 21 13 10 14 15 15 16 16 17 17 4 18 3 19 2 20 1 21
REMARK H PARENT
ROOT
ATOM      1  C   UNL     1     -15.751   3.762  -3.787  1.00  0.00     0.122 C 
ATOM      2  C   UNL     1     -16.365   3.291  -5.075  1.00  0.00     0.039 C 
ATOM      3  C   UNL     1     -14.882   3.178  -4.867  1.00  0.00     0.026 C 
ENDROOT
BRANCH   1   4
ATOM      4  O   UNL     1     -15.722   5.194  -3.640  1.00  0.00    -0.371 OA
BRANCH   4   5
ATOM      5  C   UNL     1     -16.353   5.708  -2.455  1.00  0.00     0.158 C 
ATOM      6  C   UNL     1     -16.084  10.796  -3.571  1.00  0.00    -0.003 C 
ATOM      7  C   UNL     1     -15.085   9.708  -3.161  1.00  0.00     0.052 C 
ATOM      8  C   UNL     1     -17.204  10.167  -4.412  1.00  0.00     0.019 C 
ATOM      9  C   UNL     1     -15.783   8.519  -2.485  1.00  0.00     0.189 C 
ATOM     10  C   UNL     1     -17.833   8.970  -3.699  1.00  0.00     0.087 C 
ATOM     11  N   UNL     1     -16.819   7.971  -3.360  1.00  0.00    -0.276 NA
ATOM     12  O   UNL     1     -14.764   7.560  -2.194  1.00  0.00    -0.360 OA
ATOM     13  C   UNL     1     -17.419   6.778  -2.752  1.00  0.00     0.121 C 
ATOM     14  C   UNL     1     -15.275   6.368  -1.589  1.00  0.00     0.195 C 
BRANCH   6  15
ATOM     15  C   UNL     1     -15.408  11.911  -4.337  1.00  0.00    -0.008 C 
ATOM     16  C   UNL     1     -14.301  12.715  -3.697  1.00  0.00     0.004 C 
ATOM     17  C   UNL     1     -13.983  11.766  -4.816  1.00  0.00     0.004 C 
ENDBRANCH   6  15
ENDBRANCH   4   5
ENDBRANCH   1   4
BRANCH   3  18
ATOM     18  C   UNL     1     -14.273   1.818  -4.696  1.00  0.00     0.053 C 
BRANCH  18  19
ATOM     19  C   UNL     1     -12.801   1.783  -4.376  1.00  0.00     0.074 C 
BRANCH  19  20
ATOM     20  N   UNL     1     -12.223   0.966  -3.560  1.00  0.00    -0.313 NA
ATOM     21  H   UNL     1     -11.205   1.119  -3.527  1.00  0.00     0.186 HD
ENDBRANCH  19  20
ENDBRANCH  18  19
ENDBRANCH   3  18
TORSDOF 6
ENDMDL
