MODEL 1
REMARK VINA RESULT:    -4.799      0.000      0.000
REMARK INTER + INTRA:          -6.007
REMARK INTER:                  -5.641
REMARK INTRA:                  -0.366
REMARK UNBOUND:                -0.366
REMARK SMILES Cc1ccc(CNC(=O)NC(=O)c2ccc(C)cc2)cc1
REMARK SMILES IDX 11 1 12 2 10 3 8 4 9 5 7 6 13 9 19 10 18 11 14 12 16 13
REMARK SMILES IDX 15 14 17 15 6 16 5 17 4 18 20 19 3 20 21 21 2 22 1 23
REMARK H PARENT 10 7 7 8
ROOT
ATOM      1  C   UNL     1      -6.482  -6.700   6.307  1.00  0.00     0.259 C 
ATOM      2  O   UNL     1      -6.075  -7.700   5.733  1.00  0.00    -0.269 OA
ATOM      3  N   UNL     1      -7.513  -6.587   7.244  1.00  0.00    -0.274 N 
ATOM      4  C   UNL     1      -8.261  -7.423   8.034  1.00  0.00     0.321 C 
ATOM      5  O   UNL     1      -9.016  -6.905   8.863  1.00  0.00    -0.248 OA
ATOM      6  N   UNL     1      -8.191  -8.766   7.972  1.00  0.00    -0.334 N 
ATOM      7  H   UNL     1      -7.683  -5.643   7.566  1.00  0.00     0.175 HD
ATOM      8  H   UNL     1      -8.740  -9.235   8.677  1.00  0.00     0.165 HD
ENDROOT
BRANCH   1   9
ATOM      9  C   UNL     1      -5.803  -5.430   5.983  1.00  0.00     0.040 A 
ATOM     10  C   UNL     1      -6.257  -4.604   4.953  1.00  0.00     0.014 A 
ATOM     11  C   UNL     1      -5.614  -3.388   4.718  1.00  0.00     0.004 A 
ATOM     12  C   UNL     1      -4.679  -5.076   6.736  1.00  0.00     0.014 A 
ATOM     13  C   UNL     1      -4.517  -2.999   5.502  1.00  0.00    -0.051 A 
ATOM     14  C   UNL     1      -4.044  -3.858   6.502  1.00  0.00     0.004 A 
ATOM     15  C   UNL     1      -3.890  -1.652   5.293  1.00  0.00     0.044 C 
ENDBRANCH   1   9
BRANCH   6  16
ATOM     16  C   UNL     1      -7.312  -9.560   7.161  1.00  0.00     0.153 C 
BRANCH  16  17
ATOM     17  C   UNL     1      -7.123 -10.999   7.554  1.00  0.00    -0.029 A 
ATOM     18  C   UNL     1      -5.866 -11.567   7.790  1.00  0.00     0.006 A 
ATOM     19  C   UNL     1      -8.272 -11.728   7.898  1.00  0.00     0.006 A 
ATOM     20  C   UNL     1      -5.770 -12.830   8.383  1.00  0.00     0.004 A 
ATOM     21  C   UNL     1      -8.175 -12.983   8.491  1.00  0.00     0.004 A 
ATOM     22  C   UNL     1      -6.921 -13.541   8.748  1.00  0.00    -0.051 A 
ATOM     23  C   UNL     1      -6.825 -14.828   9.511  1.00  0.00     0.044 C 
ENDBRANCH  16  17
ENDBRANCH   6  16
TORSDOF 3
ENDMDL
MODEL 2
REMARK VINA RESULT:    -4.759      3.261      5.557
REMARK INTER + INTRA:          -5.960
REMARK INTER:                  -5.594
REMARK INTRA:                  -0.367
REMARK UNBOUND:                -0.366
REMARK SMILES Cc1ccc(CNC(=O)NC(=O)c2ccc(C)cc2)cc1
REMARK SMILES IDX 11 1 12 2 10 3 8 4 9 5 7 6 13 9 19 10 18 11 14 12 16 13
REMARK SMILES IDX 15 14 17 15 6 16 5 17 4 18 20 19 3 20 21 21 2 22 1 23
REMARK H PARENT 10 7 7 8
ROOT
ATOM      1  C   UNL     1      -6.796  -6.393   6.447  1.00  0.00     0.259 C 
ATOM      2  O   UNL     1      -7.209  -5.400   7.028  1.00  0.00    -0.269 OA
ATOM      3  N   UNL     1      -6.895  -7.735   6.829  1.00  0.00    -0.274 N 
ATOM      4  C   UNL     1      -7.602  -8.480   7.737  1.00  0.00     0.321 C 
ATOM      5  O   UNL     1      -7.501  -9.710   7.672  1.00  0.00    -0.248 OA
ATOM      6  N   UNL     1      -8.414  -7.946   8.667  1.00  0.00    -0.334 N 
ATOM      7  H   UNL     1      -6.454  -8.384   6.190  1.00  0.00     0.175 HD
ATOM      8  H   UNL     1      -8.927  -8.632   9.202  1.00  0.00     0.165 HD
ENDROOT
BRANCH   1   9
ATOM      9  C   UNL     1      -6.100  -6.167   5.166  1.00  0.00     0.040 A 
ATOM     10  C   UNL     1      -4.707  -6.110   5.094  1.00  0.00     0.014 A 
ATOM     11  C   UNL     1      -4.093  -5.947   3.852  1.00  0.00     0.004 A 
ATOM     12  C   UNL     1      -6.879  -6.004   4.016  1.00  0.00     0.014 A 
ATOM     13  C   UNL     1      -4.864  -5.834   2.685  1.00  0.00    -0.051 A 
ATOM     14  C   UNL     1      -6.261  -5.848   2.776  1.00  0.00     0.004 A 
ATOM     15  C   UNL     1      -4.187  -5.745   1.349  1.00  0.00     0.044 C 
ENDBRANCH   1   9
BRANCH   6  16
ATOM     16  C   UNL     1      -8.750  -6.561   8.846  1.00  0.00     0.153 C 
BRANCH  16  17
ATOM     17  C   UNL     1      -9.975  -6.248   9.659  1.00  0.00    -0.029 A 
ATOM     18  C   UNL     1     -11.016  -5.439   9.190  1.00  0.00     0.006 A 
ATOM     19  C   UNL     1     -10.161  -6.973  10.847  1.00  0.00     0.006 A 
ATOM     20  C   UNL     1     -12.227  -5.382   9.889  1.00  0.00     0.004 A 
ATOM     21  C   UNL     1     -11.367  -6.918  11.539  1.00  0.00     0.004 A 
ATOM     22  C   UNL     1     -12.415  -6.130  11.060  1.00  0.00    -0.051 A 
ATOM     23  C   UNL     1     -13.753  -6.184  11.734  1.00  0.00     0.044 C 
ENDBRANCH  16  17
ENDBRANCH   6  16
TORSDOF 3
ENDMDL
MODEL 3
REMARK VINA RESULT:    -4.697      1.245      8.073
REMARK INTER + INTRA:          -5.886
REMARK INTER:                  -5.446
REMARK INTRA:                  -0.441
REMARK UNBOUND:                -0.366
REMARK SMILES Cc1ccc(CNC(=O)NC(=O)c2ccc(C)cc2)cc1
REMARK SMILES IDX 11 1 12 2 10 3 8 4 9 5 7 6 13 9 19 10 18 11 14 12 16 13
REMARK SMILES IDX 15 14 17 15 6 16 5 17 4 18 20 19 3 20 21 21 2 22 1 23
REMARK H PARENT 10 7 7 8
ROOT
ATOM      1  C   UNL     1      -6.957  -9.636   7.147  1.00  0.00     0.259 C 
ATOM      2  O   UNL     1      -6.261  -9.476   6.155  1.00  0.00    -0.269 OA
ATOM      3  N   UNL     1      -7.675  -8.683   7.877  1.00  0.00    -0.274 N 
ATOM      4  C   UNL     1      -8.090  -7.386   7.716  1.00  0.00     0.321 C 
ATOM      5  O   UNL     1      -8.851  -6.918   8.569  1.00  0.00    -0.248 OA
ATOM      6  N   UNL     1      -7.737  -6.616   6.670  1.00  0.00    -0.334 N 
ATOM      7  H   UNL     1      -8.164  -9.055   8.680  1.00  0.00     0.175 HD
ATOM      8  H   UNL     1      -8.195  -5.716   6.655  1.00  0.00     0.165 HD
ENDROOT
BRANCH   1   9
ATOM      9  C   UNL     1      -7.072 -11.016   7.657  1.00  0.00     0.040 A 
ATOM     10  C   UNL     1      -5.941 -11.791   7.922  1.00  0.00     0.014 A 
ATOM     11  C   UNL     1      -6.099 -13.071   8.453  1.00  0.00     0.004 A 
ATOM     12  C   UNL     1      -8.354 -11.536   7.863  1.00  0.00     0.014 A 
ATOM     13  C   UNL     1      -7.379 -13.583   8.712  1.00  0.00    -0.051 A 
ATOM     14  C   UNL     1      -8.506 -12.813   8.399  1.00  0.00     0.004 A 
ATOM     15  C   UNL     1      -7.529 -14.927   9.362  1.00  0.00     0.044 C 
ENDBRANCH   1   9
BRANCH   6  16
ATOM     16  C   UNL     1      -6.954  -6.995   5.528  1.00  0.00     0.153 C 
BRANCH  16  17
ATOM     17  C   UNL     1      -5.928  -6.011   5.038  1.00  0.00    -0.029 A 
ATOM     18  C   UNL     1      -4.676  -6.394   4.547  1.00  0.00     0.006 A 
ATOM     19  C   UNL     1      -6.342  -4.678   4.876  1.00  0.00     0.006 A 
ATOM     20  C   UNL     1      -3.868  -5.462   3.887  1.00  0.00     0.004 A 
ATOM     21  C   UNL     1      -5.539  -3.754   4.215  1.00  0.00     0.004 A 
ATOM     22  C   UNL     1      -4.299  -4.141   3.705  1.00  0.00    -0.051 A 
ATOM     23  C   UNL     1      -3.504  -3.177   2.876  1.00  0.00     0.044 C 
ENDBRANCH  16  17
ENDBRANCH   6  16
TORSDOF 3
ENDMDL
MODEL 4
REMARK VINA RESULT:    -4.653      3.116      7.834
REMARK INTER + INTRA:          -5.835
REMARK INTER:                  -5.398
REMARK INTRA:                  -0.438
REMARK UNBOUND:                -0.366
REMARK SMILES Cc1ccc(CNC(=O)NC(=O)c2ccc(C)cc2)cc1
REMARK SMILES IDX 11 1 12 2 10 3 8 4 9 5 7 6 13 9 19 10 18 11 14 12 16 13
REMARK SMILES IDX 15 14 17 15 6 16 5 17 4 18 20 19 3 20 21 21 2 22 1 23
REMARK H PARENT 10 7 7 8
ROOT
ATOM      1  C   UNL     1      -8.930  -6.266   8.644  1.00  0.00     0.259 C 
ATOM      2  O   UNL     1      -8.484  -5.178   8.308  1.00  0.00    -0.269 OA
ATOM      3  N   UNL     1      -8.503  -7.542   8.263  1.00  0.00    -0.274 N 
ATOM      4  C   UNL     1      -7.413  -8.105   7.650  1.00  0.00     0.321 C 
ATOM      5  O   UNL     1      -7.349  -9.339   7.614  1.00  0.00    -0.248 OA
ATOM      6  N   UNL     1      -6.406  -7.389   7.118  1.00  0.00    -0.334 N 
ATOM      7  H   UNL     1      -9.046  -8.299   8.658  1.00  0.00     0.175 HD
ATOM      8  H   UNL     1      -5.639  -7.953   6.782  1.00  0.00     0.165 HD
ENDROOT
BRANCH   1   9
ATOM      9  C   UNL     1     -10.069  -6.252   9.582  1.00  0.00     0.040 A 
ATOM     10  C   UNL     1     -11.213  -5.494   9.327  1.00  0.00     0.014 A 
ATOM     11  C   UNL     1     -12.285  -5.554  10.217  1.00  0.00     0.004 A 
ATOM     12  C   UNL     1      -9.970  -7.020  10.747  1.00  0.00     0.014 A 
ATOM     13  C   UNL     1     -12.217  -6.361  11.362  1.00  0.00    -0.051 A 
ATOM     14  C   UNL     1     -11.046  -7.082  11.629  1.00  0.00     0.004 A 
ATOM     15  C   UNL     1     -13.410  -6.481  12.264  1.00  0.00     0.044 C 
ENDBRANCH   1   9
BRANCH   6  16
ATOM     16  C   UNL     1      -6.235  -5.963   7.145  1.00  0.00     0.153 C 
BRANCH  16  17
ATOM     17  C   UNL     1      -5.734  -5.305   5.890  1.00  0.00    -0.029 A 
ATOM     18  C   UNL     1      -6.169  -4.046   5.463  1.00  0.00     0.006 A 
ATOM     19  C   UNL     1      -4.635  -5.896   5.247  1.00  0.00     0.006 A 
ATOM     20  C   UNL     1      -5.496  -3.386   4.429  1.00  0.00     0.004 A 
ATOM     21  C   UNL     1      -3.963  -5.237   4.223  1.00  0.00     0.004 A 
ATOM     22  C   UNL     1      -4.382  -3.971   3.811  1.00  0.00    -0.051 A 
ATOM     23  C   UNL     1      -3.571  -3.212   2.803  1.00  0.00     0.044 C 
ENDBRANCH  16  17
ENDBRANCH   6  16
TORSDOF 3
ENDMDL
MODEL 5
REMARK VINA RESULT:    -3.805      2.468      3.902
REMARK INTER + INTRA:          -4.838
REMARK INTER:                  -4.480
REMARK INTRA:                  -0.358
REMARK UNBOUND:                -0.366
REMARK SMILES Cc1ccc(CNC(=O)NC(=O)c2ccc(C)cc2)cc1
REMARK SMILES IDX 11 1 12 2 10 3 8 4 9 5 7 6 13 9 19 10 18 11 14 12 16 13
REMARK SMILES IDX 15 14 17 15 6 16 5 17 4 18 20 19 3 20 21 21 2 22 1 23
REMARK H PARENT 10 7 7 8
ROOT
ATOM      1  C   UNL     1      -7.350  -8.691   7.419  1.00  0.00     0.259 C 
ATOM      2  O   UNL     1      -8.339  -8.642   8.136  1.00  0.00    -0.269 OA
ATOM      3  N   UNL     1      -6.557  -9.797   7.094  1.00  0.00    -0.274 N 
ATOM      4  C   UNL     1      -6.637 -11.163   7.188  1.00  0.00     0.321 C 
ATOM      5  O   UNL     1      -5.749 -11.828   6.644  1.00  0.00    -0.248 OA
ATOM      6  N   UNL     1      -7.640 -11.809   7.812  1.00  0.00    -0.334 N 
ATOM      7  H   UNL     1      -5.771  -9.586   6.494  1.00  0.00     0.175 HD
ATOM      8  H   UNL     1      -7.597 -12.813   7.718  1.00  0.00     0.165 HD
ENDROOT
BRANCH   1   9
ATOM      9  C   UNL     1      -6.920  -7.423   6.798  1.00  0.00     0.040 A 
ATOM     10  C   UNL     1      -6.153  -6.492   7.501  1.00  0.00     0.014 A 
ATOM     11  C   UNL     1      -5.727  -5.331   6.855  1.00  0.00     0.004 A 
ATOM     12  C   UNL     1      -7.309  -7.173   5.479  1.00  0.00     0.014 A 
ATOM     13  C   UNL     1      -6.068  -5.094   5.515  1.00  0.00    -0.051 A 
ATOM     14  C   UNL     1      -6.875  -6.015   4.836  1.00  0.00     0.004 A 
ATOM     15  C   UNL     1      -5.531  -3.884   4.810  1.00  0.00     0.044 C 
ENDBRANCH   1   9
BRANCH   6  16
ATOM     16  C   UNL     1      -8.811 -11.236   8.412  1.00  0.00     0.153 C 
BRANCH  16  17
ATOM     17  C   UNL     1      -9.727 -12.164   9.161  1.00  0.00    -0.029 A 
ATOM     18  C   UNL     1     -11.070 -11.869   9.417  1.00  0.00     0.006 A 
ATOM     19  C   UNL     1      -9.256 -13.462   9.420  1.00  0.00     0.006 A 
ATOM     20  C   UNL     1     -11.926 -12.865   9.899  1.00  0.00     0.004 A 
ATOM     21  C   UNL     1     -10.110 -14.452   9.895  1.00  0.00     0.004 A 
ATOM     22  C   UNL     1     -11.455 -14.165  10.129  1.00  0.00    -0.051 A 
ATOM     23  C   UNL     1     -12.395 -15.270  10.509  1.00  0.00     0.044 C 
ENDBRANCH  16  17
ENDBRANCH   6  16
TORSDOF 3
ENDMDL
MODEL 6
REMARK VINA RESULT:    -3.787      7.394     10.341
REMARK INTER + INTRA:          -4.817
REMARK INTER:                  -4.319
REMARK INTRA:                  -0.498
REMARK UNBOUND:                -0.366
REMARK SMILES Cc1ccc(CNC(=O)NC(=O)c2ccc(C)cc2)cc1
REMARK SMILES IDX 11 1 12 2 10 3 8 4 9 5 7 6 13 9 19 10 18 11 14 12 16 13
REMARK SMILES IDX 15 14 17 15 6 16 5 17 4 18 20 19 3 20 21 21 2 22 1 23
REMARK H PARENT 10 7 7 8
ROOT
ATOM      1  C   UNL     1     -12.257 -11.824   9.975  1.00  0.00     0.259 C 
ATOM      2  O   UNL     1     -12.307 -10.853   9.233  1.00  0.00    -0.269 OA
ATOM      3  N   UNL     1     -13.128 -12.181  11.009  1.00  0.00    -0.274 N 
ATOM      4  C   UNL     1     -14.379 -11.828  11.448  1.00  0.00     0.321 C 
ATOM      5  O   UNL     1     -14.877 -12.498  12.358  1.00  0.00    -0.248 OA
ATOM      6  N   UNL     1     -15.095 -10.818  10.920  1.00  0.00    -0.334 N 
ATOM      7  H   UNL     1     -12.868 -13.025  11.501  1.00  0.00     0.175 HD
ATOM      8  H   UNL     1     -16.029 -10.742  11.296  1.00  0.00     0.165 HD
ENDROOT
BRANCH   1   9
ATOM      9  C   UNL     1     -11.138 -12.761   9.762  1.00  0.00     0.040 A 
ATOM     10  C   UNL     1     -10.099 -12.466   8.877  1.00  0.00     0.014 A 
ATOM     11  C   UNL     1      -9.035 -13.359   8.749  1.00  0.00     0.004 A 
ATOM     12  C   UNL     1     -11.146 -13.967  10.471  1.00  0.00     0.014 A 
ATOM     13  C   UNL     1      -9.009 -14.548   9.494  1.00  0.00    -0.051 A 
ATOM     14  C   UNL     1     -10.078 -14.853  10.345  1.00  0.00     0.004 A 
ATOM     15  C   UNL     1      -7.818 -15.456   9.409  1.00  0.00     0.044 C 
ENDBRANCH   1   9
BRANCH   6  16
ATOM     16  C   UNL     1     -14.748  -9.990   9.800  1.00  0.00     0.153 C 
BRANCH  16  17
ATOM     17  C   UNL     1     -14.619  -8.512  10.047  1.00  0.00    -0.029 A 
ATOM     18  C   UNL     1     -15.355  -7.553   9.344  1.00  0.00     0.006 A 
ATOM     19  C   UNL     1     -13.885  -8.111  11.175  1.00  0.00     0.006 A 
ATOM     20  C   UNL     1     -15.371  -6.224   9.780  1.00  0.00     0.004 A 
ATOM     21  C   UNL     1     -13.905  -6.790  11.611  1.00  0.00     0.004 A 
ATOM     22  C   UNL     1     -14.657  -5.836  10.923  1.00  0.00    -0.051 A 
ATOM     23  C   UNL     1     -14.784  -4.449  11.478  1.00  0.00     0.044 C 
ENDBRANCH  16  17
ENDBRANCH   6  16
TORSDOF 3
ENDMDL
MODEL 7
REMARK VINA RESULT:    -3.734      4.062      4.977
REMARK INTER + INTRA:          -4.755
REMARK INTER:                  -4.397
REMARK INTRA:                  -0.358
REMARK UNBOUND:                -0.366
REMARK SMILES Cc1ccc(CNC(=O)NC(=O)c2ccc(C)cc2)cc1
REMARK SMILES IDX 11 1 12 2 10 3 8 4 9 5 7 6 13 9 19 10 18 11 14 12 16 13
REMARK SMILES IDX 15 14 17 15 6 16 5 17 4 18 20 19 3 20 21 21 2 22 1 23
REMARK H PARENT 10 7 7 8
ROOT
ATOM      1  C   UNL     1      -8.201  -6.941   8.141  1.00  0.00     0.259 C 
ATOM      2  O   UNL     1      -8.195  -8.075   8.601  1.00  0.00    -0.269 OA
ATOM      3  N   UNL     1      -9.055  -5.877   8.447  1.00  0.00    -0.274 N 
ATOM      4  C   UNL     1      -9.966  -5.557   9.420  1.00  0.00     0.321 C 
ATOM      5  O   UNL     1     -10.437  -4.414   9.412  1.00  0.00    -0.248 OA
ATOM      6  N   UNL     1     -10.347  -6.407  10.392  1.00  0.00    -0.334 N 
ATOM      7  H   UNL     1      -8.878  -5.035   7.916  1.00  0.00     0.175 HD
ATOM      8  H   UNL     1     -10.958  -5.991  11.080  1.00  0.00     0.165 HD
ENDROOT
BRANCH   1   9
ATOM      9  C   UNL     1      -7.172  -6.634   7.129  1.00  0.00     0.040 A 
ATOM     10  C   UNL     1      -7.360  -6.947   5.781  1.00  0.00     0.014 A 
ATOM     11  C   UNL     1      -6.382  -6.589   4.853  1.00  0.00     0.004 A 
ATOM     12  C   UNL     1      -5.991  -6.021   7.558  1.00  0.00     0.014 A 
ATOM     13  C   UNL     1      -5.216  -5.928   5.266  1.00  0.00    -0.051 A 
ATOM     14  C   UNL     1      -5.019  -5.660   6.626  1.00  0.00     0.004 A 
ATOM     15  C   UNL     1      -4.213  -5.474   4.246  1.00  0.00     0.044 C 
ENDBRANCH   1   9
BRANCH   6  16
ATOM     16  C   UNL     1      -9.850  -7.730  10.643  1.00  0.00     0.153 C 
BRANCH  16  17
ATOM     17  C   UNL     1     -10.543  -8.538  11.704  1.00  0.00    -0.029 A 
ATOM     18  C   UNL     1      -9.972  -9.668  12.299  1.00  0.00     0.006 A 
ATOM     19  C   UNL     1     -11.718  -8.001  12.257  1.00  0.00     0.006 A 
ATOM     20  C   UNL     1     -10.556 -10.230  13.439  1.00  0.00     0.004 A 
ATOM     21  C   UNL     1     -12.294  -8.558  13.393  1.00  0.00     0.004 A 
ATOM     22  C   UNL     1     -11.712  -9.672  14.001  1.00  0.00    -0.051 A 
ATOM     23  C   UNL     1     -12.261 -10.180  15.301  1.00  0.00     0.044 C 
ENDBRANCH  16  17
ENDBRANCH   6  16
TORSDOF 3
ENDMDL
MODEL 8
REMARK VINA RESULT:    -3.583      7.228      8.342
REMARK INTER + INTRA:          -4.578
REMARK INTER:                  -4.076
REMARK INTRA:                  -0.501
REMARK UNBOUND:                -0.366
REMARK SMILES Cc1ccc(CNC(=O)NC(=O)c2ccc(C)cc2)cc1
REMARK SMILES IDX 11 1 12 2 10 3 8 4 9 5 7 6 13 9 19 10 18 11 14 12 16 13
REMARK SMILES IDX 15 14 17 15 6 16 5 17 4 18 20 19 3 20 21 21 2 22 1 23
REMARK H PARENT 10 7 7 8
ROOT
ATOM      1  C   UNL     1     -10.091 -10.874  12.883  1.00  0.00     0.259 C 
ATOM      2  O   UNL     1      -8.972 -10.686  12.425  1.00  0.00    -0.269 OA
ATOM      3  N   UNL     1     -10.642 -12.055  13.391  1.00  0.00    -0.274 N 
ATOM      4  C   UNL     1     -10.198 -13.287  13.796  1.00  0.00     0.321 C 
ATOM      5  O   UNL     1     -11.016 -14.043  14.331  1.00  0.00    -0.248 OA
ATOM      6  N   UNL     1      -8.923 -13.699  13.668  1.00  0.00    -0.334 N 
ATOM      7  H   UNL     1     -11.603 -11.969  13.695  1.00  0.00     0.175 HD
ATOM      8  H   UNL     1      -8.741 -14.596  14.093  1.00  0.00     0.165 HD
ENDROOT
BRANCH   1   9
ATOM      9  C   UNL     1     -10.995  -9.708  12.916  1.00  0.00     0.040 A 
ATOM     10  C   UNL     1     -10.689  -8.530  12.234  1.00  0.00     0.014 A 
ATOM     11  C   UNL     1     -11.600  -7.473  12.251  1.00  0.00     0.004 A 
ATOM     12  C   UNL     1     -12.173  -9.813  13.662  1.00  0.00     0.014 A 
ATOM     13  C   UNL     1     -12.809  -7.586  12.954  1.00  0.00    -0.051 A 
ATOM     14  C   UNL     1     -13.083  -8.757  13.671  1.00  0.00     0.004 A 
ATOM     15  C   UNL     1     -13.815  -6.475  12.894  1.00  0.00     0.044 C 
ENDBRANCH   1   9
BRANCH   6  16
ATOM     16  C   UNL     1      -7.805 -12.945  13.174  1.00  0.00     0.153 C 
BRANCH  16  17
ATOM     17  C   UNL     1      -7.062 -13.507  11.994  1.00  0.00    -0.029 A 
ATOM     18  C   UNL     1      -5.681 -13.729  11.997  1.00  0.00     0.006 A 
ATOM     19  C   UNL     1      -7.829 -14.018  10.935  1.00  0.00     0.006 A 
ATOM     20  C   UNL     1      -5.089 -14.471  10.969  1.00  0.00     0.004 A 
ATOM     21  C   UNL     1      -7.240 -14.760   9.916  1.00  0.00     0.004 A 
ATOM     22  C   UNL     1      -5.865 -15.002   9.930  1.00  0.00    -0.051 A 
ATOM     23  C   UNL     1      -5.262 -15.915   8.905  1.00  0.00     0.044 C 
ENDBRANCH  16  17
ENDBRANCH   6  16
TORSDOF 3
ENDMDL
MODEL 9
REMARK VINA RESULT:    -3.475      6.883      8.114
REMARK INTER + INTRA:          -4.450
REMARK INTER:                  -3.928
REMARK INTRA:                  -0.523
REMARK UNBOUND:                -0.366
REMARK SMILES Cc1ccc(CNC(=O)NC(=O)c2ccc(C)cc2)cc1
REMARK SMILES IDX 11 1 12 2 10 3 8 4 9 5 7 6 13 9 19 10 18 11 14 12 16 13
REMARK SMILES IDX 15 14 17 15 6 16 5 17 4 18 20 19 3 20 21 21 2 22 1 23
REMARK H PARENT 10 7 7 8
ROOT
ATOM      1  C   UNL     1     -13.305 -10.290  10.556  1.00  0.00     0.259 C 
ATOM      2  O   UNL     1     -13.056 -10.636   9.409  1.00  0.00    -0.269 OA
ATOM      3  N   UNL     1     -13.271 -11.053  11.727  1.00  0.00    -0.274 N 
ATOM      4  C   UNL     1     -12.778 -12.268  12.132  1.00  0.00     0.321 C 
ATOM      5  O   UNL     1     -12.837 -12.538  13.336  1.00  0.00    -0.248 OA
ATOM      6  N   UNL     1     -12.212 -13.157  11.295  1.00  0.00    -0.334 N 
ATOM      7  H   UNL     1     -13.540 -10.549  12.561  1.00  0.00     0.175 HD
ATOM      8  H   UNL     1     -11.822 -13.964  11.762  1.00  0.00     0.165 HD
ENDROOT
BRANCH   1   9
ATOM      9  C   UNL     1     -13.691  -8.880  10.751  1.00  0.00     0.040 A 
ATOM     10  C   UNL     1     -14.731  -8.302  10.021  1.00  0.00     0.014 A 
ATOM     11  C   UNL     1     -15.095  -6.980  10.278  1.00  0.00     0.004 A 
ATOM     12  C   UNL     1     -12.978  -8.127  11.689  1.00  0.00     0.014 A 
ATOM     13  C   UNL     1     -14.419  -6.232  11.254  1.00  0.00    -0.051 A 
ATOM     14  C   UNL     1     -13.348  -6.809  11.947  1.00  0.00     0.004 A 
ATOM     15  C   UNL     1     -14.877  -4.840  11.578  1.00  0.00     0.044 C 
ENDBRANCH   1   9
BRANCH   6  16
ATOM     16  C   UNL     1     -11.953 -12.998   9.892  1.00  0.00     0.153 C 
BRANCH  16  17
ATOM     17  C   UNL     1     -10.545 -13.233   9.419  1.00  0.00    -0.029 A 
ATOM     18  C   UNL     1      -9.890 -12.385   8.520  1.00  0.00     0.006 A 
ATOM     19  C   UNL     1      -9.803 -14.227  10.077  1.00  0.00     0.006 A 
ATOM     20  C   UNL     1      -8.513 -12.519   8.307  1.00  0.00     0.004 A 
ATOM     21  C   UNL     1      -8.434 -14.356   9.869  1.00  0.00     0.004 A 
ATOM     22  C   UNL     1      -7.775 -13.496   8.989  1.00  0.00    -0.051 A 
ATOM     23  C   UNL     1      -6.281 -13.553   8.875  1.00  0.00     0.044 C 
ENDBRANCH  16  17
ENDBRANCH   6  16
TORSDOF 3
ENDMDL
