MODEL 1
REMARK VINA RESULT:    -6.251      0.000      0.000
REMARK INTER + INTRA:          -7.729
REMARK INTER:                  -7.347
REMARK INTRA:                  -0.382
REMARK UNBOUND:                -0.382
REMARK SMILES Cc1ccc(CNC(=O)NC(=O)c2ccc(C)cc2)cc1
REMARK SMILES IDX 11 1 12 2 10 3 8 4 9 5 7 6 13 9 19 10 18 11 14 12 16 13
REMARK SMILES IDX 15 14 17 15 6 16 5 17 4 18 20 19 3 20 21 21 2 22 1 23
REMARK H PARENT 10 7 7 8
ROOT
ATOM      1  C   UNL     1      -7.836  -7.379  -3.720  1.00  0.00     0.259 C 
ATOM      2  O   UNL     1      -7.151  -7.378  -4.732  1.00  0.00    -0.269 OA
ATOM      3  N   UNL     1      -9.115  -7.912  -3.529  1.00  0.00    -0.274 N 
ATOM      4  C   UNL     1      -9.963  -8.769  -4.182  1.00  0.00     0.321 C 
ATOM      5  O   UNL     1     -10.997  -9.109  -3.597  1.00  0.00    -0.248 OA
ATOM      6  N   UNL     1      -9.712  -9.278  -5.403  1.00  0.00    -0.334 N 
ATOM      7  H   UNL     1      -9.491  -7.771  -2.601  1.00  0.00     0.175 HD
ATOM      8  H   UNL     1     -10.393  -9.959  -5.707  1.00  0.00     0.165 HD
ENDROOT
BRANCH   1   9
ATOM      9  C   UNL     1      -7.251  -6.739  -2.526  1.00  0.00     0.040 A 
ATOM     10  C   UNL     1      -7.553  -5.419  -2.186  1.00  0.00     0.014 A 
ATOM     11  C   UNL     1      -7.017  -4.874  -1.018  1.00  0.00     0.004 A 
ATOM     12  C   UNL     1      -6.374  -7.493  -1.740  1.00  0.00     0.014 A 
ATOM     13  C   UNL     1      -6.177  -5.639  -0.195  1.00  0.00    -0.051 A 
ATOM     14  C   UNL     1      -5.847  -6.947  -0.571  1.00  0.00     0.004 A 
ATOM     15  C   UNL     1      -5.678  -5.068   1.099  1.00  0.00     0.044 C 
ENDBRANCH   1   9
BRANCH   6  16
ATOM     16  C   UNL     1      -8.534  -9.096  -6.202  1.00  0.00     0.153 C 
BRANCH  16  17
ATOM     17  C   UNL     1      -8.224 -10.155  -7.224  1.00  0.00    -0.029 A 
ATOM     18  C   UNL     1      -7.010 -10.849  -7.260  1.00  0.00     0.006 A 
ATOM     19  C   UNL     1      -9.283 -10.598  -8.033  1.00  0.00     0.006 A 
ATOM     20  C   UNL     1      -6.873 -11.979  -8.073  1.00  0.00     0.004 A 
ATOM     21  C   UNL     1      -9.147 -11.725  -8.837  1.00  0.00     0.004 A 
ATOM     22  C   UNL     1      -7.944 -12.432  -8.856  1.00  0.00    -0.051 A 
ATOM     23  C   UNL     1      -7.852 -13.720  -9.619  1.00  0.00     0.044 C 
ENDBRANCH  16  17
ENDBRANCH   6  16
TORSDOF 3
ENDMDL
MODEL 2
REMARK VINA RESULT:    -6.244      3.231      5.546
REMARK INTER + INTRA:          -7.722
REMARK INTER:                  -7.337
REMARK INTRA:                  -0.385
REMARK UNBOUND:                -0.382
REMARK SMILES Cc1ccc(CNC(=O)NC(=O)c2ccc(C)cc2)cc1
REMARK SMILES IDX 11 1 12 2 10 3 8 4 9 5 7 6 13 9 19 10 18 11 14 12 16 13
REMARK SMILES IDX 15 14 17 15 6 16 5 17 4 18 20 19 3 20 21 21 2 22 1 23
REMARK H PARENT 10 7 7 8
ROOT
ATOM      1  C   UNL     1      -8.109  -7.225  -3.583  1.00  0.00     0.259 C 
ATOM      2  O   UNL     1      -8.806  -7.241  -2.579  1.00  0.00    -0.269 OA
ATOM      3  N   UNL     1      -8.171  -8.058  -4.705  1.00  0.00    -0.274 N 
ATOM      4  C   UNL     1      -9.047  -8.963  -5.248  1.00  0.00     0.321 C 
ATOM      5  O   UNL     1      -8.787  -9.411  -6.369  1.00  0.00    -0.248 OA
ATOM      6  N   UNL     1     -10.180  -9.359  -4.639  1.00  0.00    -0.334 N 
ATOM      7  H   UNL     1      -7.470  -7.865  -5.407  1.00  0.00     0.175 HD
ATOM      8  H   UNL     1     -10.758  -9.962  -5.207  1.00  0.00     0.165 HD
ENDROOT
BRANCH   1   9
ATOM      9  C   UNL     1      -7.058  -6.191  -3.642  1.00  0.00     0.040 A 
ATOM     10  C   UNL     1      -5.733  -6.480  -3.309  1.00  0.00     0.014 A 
ATOM     11  C   UNL     1      -4.765  -5.484  -3.430  1.00  0.00     0.004 A 
ATOM     12  C   UNL     1      -7.427  -4.901  -4.037  1.00  0.00     0.014 A 
ATOM     13  C   UNL     1      -5.115  -4.200  -3.875  1.00  0.00    -0.051 A 
ATOM     14  C   UNL     1      -6.455  -3.911  -4.163  1.00  0.00     0.004 A 
ATOM     15  C   UNL     1      -4.049  -3.164  -4.081  1.00  0.00     0.044 C 
ENDBRANCH   1   9
BRANCH   6  16
ATOM     16  C   UNL     1     -10.717  -8.888  -3.394  1.00  0.00     0.153 C 
BRANCH  16  17
ATOM     17  C   UNL     1     -12.201  -9.011  -3.191  1.00  0.00    -0.029 A 
ATOM     18  C   UNL     1     -13.026  -7.918  -2.905  1.00  0.00     0.006 A 
ATOM     19  C   UNL     1     -12.795 -10.242  -3.513  1.00  0.00     0.006 A 
ATOM     20  C   UNL     1     -14.417  -8.055  -2.966  1.00  0.00     0.004 A 
ATOM     21  C   UNL     1     -14.178 -10.377  -3.579  1.00  0.00     0.004 A 
ATOM     22  C   UNL     1     -15.001  -9.281  -3.316  1.00  0.00    -0.051 A 
ATOM     23  C   UNL     1     -16.482  -9.399  -3.523  1.00  0.00     0.044 C 
ENDBRANCH  16  17
ENDBRANCH   6  16
TORSDOF 3
ENDMDL
MODEL 3
REMARK VINA RESULT:    -6.125      0.553      8.012
REMARK INTER + INTRA:          -7.581
REMARK INTER:                  -7.094
REMARK INTRA:                  -0.487
REMARK UNBOUND:                -0.382
REMARK SMILES Cc1ccc(CNC(=O)NC(=O)c2ccc(C)cc2)cc1
REMARK SMILES IDX 11 1 12 2 10 3 8 4 9 5 7 6 13 9 19 10 18 11 14 12 16 13
REMARK SMILES IDX 15 14 17 15 6 16 5 17 4 18 20 19 3 20 21 21 2 22 1 23
REMARK H PARENT 10 7 7 8
ROOT
ATOM      1  C   UNL     1      -8.183  -9.326  -5.891  1.00  0.00     0.259 C 
ATOM      2  O   UNL     1      -7.204  -8.609  -5.740  1.00  0.00    -0.269 OA
ATOM      3  N   UNL     1      -9.372  -9.351  -5.154  1.00  0.00    -0.274 N 
ATOM      4  C   UNL     1     -10.013  -8.556  -4.238  1.00  0.00     0.321 C 
ATOM      5  O   UNL     1     -11.160  -8.874  -3.907  1.00  0.00    -0.248 OA
ATOM      6  N   UNL     1      -9.472  -7.442  -3.711  1.00  0.00    -0.334 N 
ATOM      7  H   UNL     1     -10.035 -10.052  -5.456  1.00  0.00     0.175 HD
ATOM      8  H   UNL     1     -10.105  -6.924  -3.119  1.00  0.00     0.165 HD
ENDROOT
BRANCH   1   9
ATOM      9  C   UNL     1      -8.126 -10.299  -6.999  1.00  0.00     0.040 A 
ATOM     10  C   UNL     1      -6.954 -10.998  -7.293  1.00  0.00     0.014 A 
ATOM     11  C   UNL     1      -6.962 -11.946  -8.316  1.00  0.00     0.004 A 
ATOM     12  C   UNL     1      -9.283 -10.500  -7.757  1.00  0.00     0.014 A 
ATOM     13  C   UNL     1      -8.133 -12.193  -9.049  1.00  0.00    -0.051 A 
ATOM     14  C   UNL     1      -9.289 -11.453  -8.774  1.00  0.00     0.004 A 
ATOM     15  C   UNL     1      -8.149 -13.275 -10.089  1.00  0.00     0.044 C 
ENDBRANCH   1   9
BRANCH   6  16
ATOM     16  C   UNL     1      -8.207  -6.844  -4.036  1.00  0.00     0.153 C 
BRANCH  16  17
ATOM     17  C   UNL     1      -7.368  -6.343  -2.893  1.00  0.00    -0.029 A 
ATOM     18  C   UNL     1      -7.428  -5.028  -2.422  1.00  0.00     0.006 A 
ATOM     19  C   UNL     1      -6.659  -7.299  -2.148  1.00  0.00     0.006 A 
ATOM     20  C   UNL     1      -6.809  -4.688  -1.214  1.00  0.00     0.004 A 
ATOM     21  C   UNL     1      -6.048  -6.961  -0.945  1.00  0.00     0.004 A 
ATOM     22  C   UNL     1      -6.126  -5.654  -0.462  1.00  0.00    -0.051 A 
ATOM     23  C   UNL     1      -5.584  -5.331   0.898  1.00  0.00     0.044 C 
ENDBRANCH  16  17
ENDBRANCH   6  16
TORSDOF 3
ENDMDL
MODEL 4
REMARK VINA RESULT:    -6.118      3.134      7.285
REMARK INTER + INTRA:          -7.573
REMARK INTER:                  -7.085
REMARK INTRA:                  -0.487
REMARK UNBOUND:                -0.382
REMARK SMILES Cc1ccc(CNC(=O)NC(=O)c2ccc(C)cc2)cc1
REMARK SMILES IDX 11 1 12 2 10 3 8 4 9 5 7 6 13 9 19 10 18 11 14 12 16 13
REMARK SMILES IDX 15 14 17 15 6 16 5 17 4 18 20 19 3 20 21 21 2 22 1 23
REMARK H PARENT 10 7 7 8
ROOT
ATOM      1  C   UNL     1     -10.803  -8.385  -3.532  1.00  0.00     0.259 C 
ATOM      2  O   UNL     1     -10.343  -7.629  -2.688  1.00  0.00    -0.269 OA
ATOM      3  N   UNL     1     -10.173  -8.930  -4.655  1.00  0.00    -0.274 N 
ATOM      4  C   UNL     1      -8.894  -9.073  -5.130  1.00  0.00     0.321 C 
ATOM      5  O   UNL     1      -8.732  -9.762  -6.142  1.00  0.00    -0.248 OA
ATOM      6  N   UNL     1      -7.815  -8.532  -4.535  1.00  0.00    -0.334 N 
ATOM      7  H   UNL     1     -10.769  -9.516  -5.225  1.00  0.00     0.175 HD
ATOM      8  H   UNL     1      -6.939  -8.802  -4.959  1.00  0.00     0.165 HD
ENDROOT
BRANCH   1   9
ATOM      9  C   UNL     1     -12.211  -8.791  -3.359  1.00  0.00     0.040 A 
ATOM     10  C   UNL     1     -13.180  -7.888  -2.917  1.00  0.00     0.014 A 
ATOM     11  C   UNL     1     -14.508  -8.305  -2.818  1.00  0.00     0.004 A 
ATOM     12  C   UNL     1     -12.552 -10.117  -3.644  1.00  0.00     0.014 A 
ATOM     13  C   UNL     1     -14.869  -9.619  -3.152  1.00  0.00    -0.051 A 
ATOM     14  C   UNL     1     -13.880 -10.526  -3.551  1.00  0.00     0.004 A 
ATOM     15  C   UNL     1     -16.313 -10.027  -3.123  1.00  0.00     0.044 C 
ENDBRANCH   1   9
BRANCH   6  16
ATOM     16  C   UNL     1      -7.770  -7.791  -3.306  1.00  0.00     0.153 C 
BRANCH  16  17
ATOM     17  C   UNL     1      -6.908  -6.560  -3.273  1.00  0.00    -0.029 A 
ATOM     18  C   UNL     1      -5.562  -6.581  -2.895  1.00  0.00     0.006 A 
ATOM     19  C   UNL     1      -7.434  -5.391  -3.847  1.00  0.00     0.006 A 
ATOM     20  C   UNL     1      -4.756  -5.459  -3.114  1.00  0.00     0.004 A 
ATOM     21  C   UNL     1      -6.630  -4.278  -4.069  1.00  0.00     0.004 A 
ATOM     22  C   UNL     1      -5.280  -4.305  -3.713  1.00  0.00    -0.051 A 
ATOM     23  C   UNL     1      -4.392  -3.154  -4.080  1.00  0.00     0.044 C 
ENDBRANCH  16  17
ENDBRANCH   6  16
TORSDOF 3
ENDMDL
MODEL 5
REMARK VINA RESULT:    -5.814      2.953      7.738
REMARK INTER + INTRA:          -7.215
REMARK INTER:                  -6.710
REMARK INTRA:                  -0.505
REMARK UNBOUND:                -0.382
REMARK SMILES Cc1ccc(CNC(=O)NC(=O)c2ccc(C)cc2)cc1
REMARK SMILES IDX 11 1 12 2 10 3 8 4 9 5 7 6 13 9 19 10 18 11 14 12 16 13
REMARK SMILES IDX 15 14 17 15 6 16 5 17 4 18 20 19 3 20 21 21 2 22 1 23
REMARK H PARENT 10 7 7 8
ROOT
ATOM      1  C   UNL     1     -11.002  -8.856  -3.343  1.00  0.00     0.259 C 
ATOM      2  O   UNL     1     -10.487  -8.567  -2.272  1.00  0.00    -0.269 OA
ATOM      3  N   UNL     1     -10.396  -8.998  -4.595  1.00  0.00    -0.274 N 
ATOM      4  C   UNL     1      -9.126  -9.121  -5.098  1.00  0.00     0.321 C 
ATOM      5  O   UNL     1      -9.008  -9.371  -6.303  1.00  0.00    -0.248 OA
ATOM      6  N   UNL     1      -8.014  -9.013  -4.347  1.00  0.00    -0.334 N 
ATOM      7  H   UNL     1     -11.036  -9.223  -5.345  1.00  0.00     0.175 HD
ATOM      8  H   UNL     1      -7.162  -9.214  -4.851  1.00  0.00     0.165 HD
ENDROOT
BRANCH   1   9
ATOM      9  C   UNL     1     -12.457  -9.097  -3.333  1.00  0.00     0.040 A 
ATOM     10  C   UNL     1     -12.993 -10.339  -3.679  1.00  0.00     0.014 A 
ATOM     11  C   UNL     1     -14.372 -10.534  -3.604  1.00  0.00     0.004 A 
ATOM     12  C   UNL     1     -13.296  -8.037  -2.971  1.00  0.00     0.014 A 
ATOM     13  C   UNL     1     -15.217  -9.493  -3.192  1.00  0.00    -0.051 A 
ATOM     14  C   UNL     1     -14.672  -8.239  -2.891  1.00  0.00     0.004 A 
ATOM     15  C   UNL     1     -16.688  -9.744  -3.034  1.00  0.00     0.044 C 
ENDBRANCH   1   9
BRANCH   6  16
ATOM     16  C   UNL     1      -7.932  -8.830  -2.926  1.00  0.00     0.153 C 
BRANCH  16  17
ATOM     17  C   UNL     1      -7.191  -7.620  -2.428  1.00  0.00    -0.029 A 
ATOM     18  C   UNL     1      -7.547  -6.312  -2.773  1.00  0.00     0.006 A 
ATOM     19  C   UNL     1      -6.243  -7.820  -1.412  1.00  0.00     0.006 A 
ATOM     20  C   UNL     1      -6.978  -5.230  -2.093  1.00  0.00     0.004 A 
ATOM     21  C   UNL     1      -5.682  -6.743  -0.733  1.00  0.00     0.004 A 
ATOM     22  C   UNL     1      -6.052  -5.438  -1.061  1.00  0.00    -0.051 A 
ATOM     23  C   UNL     1      -5.548  -4.293  -0.235  1.00  0.00     0.044 C 
ENDBRANCH  16  17
ENDBRANCH   6  16
TORSDOF 3
ENDMDL
MODEL 6
REMARK VINA RESULT:    -5.791      1.211      7.968
REMARK INTER + INTRA:          -7.188
REMARK INTER:                  -6.767
REMARK INTRA:                  -0.421
REMARK UNBOUND:                -0.382
REMARK SMILES Cc1ccc(CNC(=O)NC(=O)c2ccc(C)cc2)cc1
REMARK SMILES IDX 11 1 12 2 10 3 8 4 9 5 7 6 13 9 19 10 18 11 14 12 16 13
REMARK SMILES IDX 15 14 17 15 6 16 5 17 4 18 20 19 3 20 21 21 2 22 1 23
REMARK H PARENT 10 7 7 8
ROOT
ATOM      1  C   UNL     1      -8.213  -9.376  -6.226  1.00  0.00     0.259 C 
ATOM      2  O   UNL     1      -7.337  -8.523  -6.251  1.00  0.00    -0.269 OA
ATOM      3  N   UNL     1      -9.293  -9.495  -5.344  1.00  0.00    -0.274 N 
ATOM      4  C   UNL     1      -9.932  -8.716  -4.415  1.00  0.00     0.321 C 
ATOM      5  O   UNL     1     -10.976  -9.156  -3.919  1.00  0.00    -0.248 OA
ATOM      6  N   UNL     1      -9.501  -7.497  -4.042  1.00  0.00    -0.334 N 
ATOM      7  H   UNL     1      -9.878 -10.303  -5.509  1.00  0.00     0.175 HD
ATOM      8  H   UNL     1     -10.130  -7.018  -3.413  1.00  0.00     0.165 HD
ENDROOT
BRANCH   1   9
ATOM      9  C   UNL     1      -8.143 -10.427  -7.259  1.00  0.00     0.040 A 
ATOM     10  C   UNL     1      -6.971 -11.151  -7.482  1.00  0.00     0.014 A 
ATOM     11  C   UNL     1      -6.968 -12.172  -8.434  1.00  0.00     0.004 A 
ATOM     12  C   UNL     1      -9.289 -10.676  -8.021  1.00  0.00     0.014 A 
ATOM     13  C   UNL     1      -8.128 -12.465  -9.167  1.00  0.00    -0.051 A 
ATOM     14  C   UNL     1      -9.283 -11.701  -8.966  1.00  0.00     0.004 A 
ATOM     15  C   UNL     1      -8.133 -13.619 -10.126  1.00  0.00     0.044 C 
ENDBRANCH   1   9
BRANCH   6  16
ATOM     16  C   UNL     1      -8.383  -6.765  -4.565  1.00  0.00     0.153 C 
BRANCH  16  17
ATOM     17  C   UNL     1      -7.540  -5.998  -3.584  1.00  0.00    -0.029 A 
ATOM     18  C   UNL     1      -6.942  -6.589  -2.466  1.00  0.00     0.006 A 
ATOM     19  C   UNL     1      -7.177  -4.688  -3.935  1.00  0.00     0.006 A 
ATOM     20  C   UNL     1      -5.982  -5.884  -1.732  1.00  0.00     0.004 A 
ATOM     21  C   UNL     1      -6.218  -3.991  -3.208  1.00  0.00     0.004 A 
ATOM     22  C   UNL     1      -5.604  -4.587  -2.105  1.00  0.00    -0.051 A 
ATOM     23  C   UNL     1      -4.477  -3.882  -1.412  1.00  0.00     0.044 C 
ENDBRANCH  16  17
ENDBRANCH   6  16
TORSDOF 3
ENDMDL
MODEL 7
REMARK VINA RESULT:    -4.577      3.877      7.787
REMARK INTER + INTRA:          -5.761
REMARK INTER:                  -5.345
REMARK INTRA:                  -0.416
REMARK UNBOUND:                -0.382
REMARK SMILES Cc1ccc(CNC(=O)NC(=O)c2ccc(C)cc2)cc1
REMARK SMILES IDX 11 1 12 2 10 3 8 4 9 5 7 6 13 9 19 10 18 11 14 12 16 13
REMARK SMILES IDX 15 14 17 15 6 16 5 17 4 18 20 19 3 20 21 21 2 22 1 23
REMARK H PARENT 10 7 7 8
ROOT
ATOM      1  C   UNL     1     -10.042  -8.334  -3.364  1.00  0.00     0.259 C 
ATOM      2  O   UNL     1      -9.784  -7.283  -3.932  1.00  0.00    -0.269 OA
ATOM      3  N   UNL     1      -9.166  -9.237  -2.753  1.00  0.00    -0.274 N 
ATOM      4  C   UNL     1      -7.860  -9.258  -2.337  1.00  0.00     0.321 C 
ATOM      5  O   UNL     1      -7.479 -10.242  -1.693  1.00  0.00    -0.248 OA
ATOM      6  N   UNL     1      -6.990  -8.257  -2.565  1.00  0.00    -0.334 N 
ATOM      7  H   UNL     1      -9.616 -10.056  -2.364  1.00  0.00     0.175 HD
ATOM      8  H   UNL     1      -6.093  -8.388  -2.120  1.00  0.00     0.165 HD
ENDROOT
BRANCH   1   9
ATOM      9  C   UNL     1     -11.466  -8.716  -3.298  1.00  0.00     0.040 A 
ATOM     10  C   UNL     1     -12.438  -7.826  -2.839  1.00  0.00     0.014 A 
ATOM     11  C   UNL     1     -13.778  -8.215  -2.845  1.00  0.00     0.004 A 
ATOM     12  C   UNL     1     -11.818 -10.008  -3.703  1.00  0.00     0.014 A 
ATOM     13  C   UNL     1     -14.148  -9.490  -3.298  1.00  0.00    -0.051 A 
ATOM     14  C   UNL     1     -13.159 -10.389  -3.712  1.00  0.00     0.004 A 
ATOM     15  C   UNL     1     -15.600  -9.862  -3.377  1.00  0.00     0.044 C 
ENDBRANCH   1   9
BRANCH   6  16
ATOM     16  C   UNL     1      -7.254  -6.994  -3.196  1.00  0.00     0.153 C 
BRANCH  16  17
ATOM     17  C   UNL     1      -6.536  -5.789  -2.653  1.00  0.00    -0.029 A 
ATOM     18  C   UNL     1      -6.855  -5.199  -1.426  1.00  0.00     0.006 A 
ATOM     19  C   UNL     1      -5.367  -5.384  -3.318  1.00  0.00     0.006 A 
ATOM     20  C   UNL     1      -6.002  -4.240  -0.868  1.00  0.00     0.004 A 
ATOM     21  C   UNL     1      -4.518  -4.434  -2.760  1.00  0.00     0.004 A 
ATOM     22  C   UNL     1      -4.823  -3.861  -1.524  1.00  0.00    -0.051 A 
ATOM     23  C   UNL     1      -3.836  -2.942  -0.868  1.00  0.00     0.044 C 
ENDBRANCH  16  17
ENDBRANCH   6  16
TORSDOF 3
ENDMDL
MODEL 8
REMARK VINA RESULT:    -4.511      5.162      8.131
REMARK INTER + INTRA:          -5.684
REMARK INTER:                  -5.205
REMARK INTRA:                  -0.479
REMARK UNBOUND:                -0.382
REMARK SMILES Cc1ccc(CNC(=O)NC(=O)c2ccc(C)cc2)cc1
REMARK SMILES IDX 11 1 12 2 10 3 8 4 9 5 7 6 13 9 19 10 18 11 14 12 16 13
REMARK SMILES IDX 15 14 17 15 6 16 5 17 4 18 20 19 3 20 21 21 2 22 1 23
REMARK H PARENT 10 7 7 8
ROOT
ATOM      1  C   UNL     1      -7.325 -13.402  -9.177  1.00  0.00     0.259 C 
ATOM      2  O   UNL     1      -7.777 -14.444  -8.724  1.00  0.00    -0.269 OA
ATOM      3  N   UNL     1      -6.518 -13.215 -10.304  1.00  0.00    -0.274 N 
ATOM      4  C   UNL     1      -6.126 -13.939 -11.401  1.00  0.00     0.321 C 
ATOM      5  O   UNL     1      -5.485 -13.349 -12.277  1.00  0.00    -0.248 OA
ATOM      6  N   UNL     1      -6.429 -15.238 -11.583  1.00  0.00    -0.334 N 
ATOM      7  H   UNL     1      -6.249 -12.254 -10.470  1.00  0.00     0.175 HD
ATOM      8  H   UNL     1      -6.141 -15.600 -12.480  1.00  0.00     0.165 HD
ENDROOT
BRANCH   1   9
ATOM      9  C   UNL     1      -7.671 -12.162  -8.456  1.00  0.00     0.040 A 
ATOM     10  C   UNL     1      -8.909 -11.540  -8.629  1.00  0.00     0.014 A 
ATOM     11  C   UNL     1      -9.211 -10.399  -7.885  1.00  0.00     0.004 A 
ATOM     12  C   UNL     1      -6.717 -11.618  -7.591  1.00  0.00     0.014 A 
ATOM     13  C   UNL     1      -8.280  -9.874  -6.976  1.00  0.00    -0.051 A 
ATOM     14  C   UNL     1      -7.025 -10.482  -6.845  1.00  0.00     0.004 A 
ATOM     15  C   UNL     1      -8.651  -8.698  -6.123  1.00  0.00     0.044 C 
ENDBRANCH   1   9
BRANCH   6  16
ATOM     16  C   UNL     1      -7.243 -16.073 -10.746  1.00  0.00     0.153 C 
BRANCH  16  17
ATOM     17  C   UNL     1      -8.630 -16.393 -11.231  1.00  0.00    -0.029 A 
ATOM     18  C   UNL     1      -9.741 -16.453 -10.383  1.00  0.00     0.006 A 
ATOM     19  C   UNL     1      -8.835 -16.421 -12.620  1.00  0.00     0.006 A 
ATOM     20  C   UNL     1     -11.030 -16.515 -10.922  1.00  0.00     0.004 A 
ATOM     21  C   UNL     1     -10.118 -16.478 -13.155  1.00  0.00     0.004 A 
ATOM     22  C   UNL     1     -11.228 -16.515 -12.310  1.00  0.00    -0.051 A 
ATOM     23  C   UNL     1     -12.607 -16.437 -12.893  1.00  0.00     0.044 C 
ENDBRANCH  16  17
ENDBRANCH   6  16
TORSDOF 3
ENDMDL
MODEL 9
REMARK VINA RESULT:    -4.324      5.314      8.338
REMARK INTER + INTRA:          -5.465
REMARK INTER:                  -5.237
REMARK INTRA:                  -0.228
REMARK UNBOUND:                -0.382
REMARK SMILES Cc1ccc(CNC(=O)NC(=O)c2ccc(C)cc2)cc1
REMARK SMILES IDX 11 1 12 2 10 3 8 4 9 5 7 6 13 9 19 10 18 11 14 12 16 13
REMARK SMILES IDX 15 14 17 15 6 16 5 17 4 18 20 19 3 20 21 21 2 22 1 23
REMARK H PARENT 10 7 7 8
ROOT
ATOM      1  C   UNL     1      -7.531 -13.467  -9.656  1.00  0.00     0.259 C 
ATOM      2  O   UNL     1      -8.251 -14.438  -9.476  1.00  0.00    -0.269 OA
ATOM      3  N   UNL     1      -6.537 -13.282 -10.622  1.00  0.00    -0.274 N 
ATOM      4  C   UNL     1      -6.134 -13.879 -11.789  1.00  0.00     0.321 C 
ATOM      5  O   UNL     1      -5.257 -13.312 -12.450  1.00  0.00    -0.248 OA
ATOM      6  N   UNL     1      -6.663 -15.023 -12.260  1.00  0.00    -0.334 N 
ATOM      7  H   UNL     1      -6.055 -12.395 -10.560  1.00  0.00     0.175 HD
ATOM      8  H   UNL     1      -6.318 -15.285 -13.173  1.00  0.00     0.165 HD
ENDROOT
BRANCH   1   9
ATOM      9  C   UNL     1      -7.726 -12.322  -8.746  1.00  0.00     0.040 A 
ATOM     10  C   UNL     1      -6.712 -11.895  -7.887  1.00  0.00     0.014 A 
ATOM     11  C   UNL     1      -6.925 -10.775  -7.082  1.00  0.00     0.004 A 
ATOM     12  C   UNL     1      -8.965 -11.674  -8.761  1.00  0.00     0.014 A 
ATOM     13  C   UNL     1      -8.146 -10.086  -7.128  1.00  0.00    -0.051 A 
ATOM     14  C   UNL     1      -9.171 -10.552  -7.961  1.00  0.00     0.004 A 
ATOM     15  C   UNL     1      -8.329  -8.835  -6.320  1.00  0.00     0.044 C 
ENDBRANCH   1   9
BRANCH   6  16
ATOM     16  C   UNL     1      -7.751 -15.779 -11.707  1.00  0.00     0.153 C 
BRANCH  16  17
ATOM     17  C   UNL     1      -9.119 -15.542 -12.285  1.00  0.00    -0.029 A 
ATOM     18  C   UNL     1     -10.126 -16.513 -12.284  1.00  0.00     0.006 A 
ATOM     19  C   UNL     1      -9.447 -14.224 -12.642  1.00  0.00     0.006 A 
ATOM     20  C   UNL     1     -11.439 -16.159 -12.612  1.00  0.00     0.004 A 
ATOM     21  C   UNL     1     -10.754 -13.873 -12.964  1.00  0.00     0.004 A 
ATOM     22  C   UNL     1     -11.764 -14.836 -12.942  1.00  0.00    -0.051 A 
ATOM     23  C   UNL     1     -13.189 -14.421 -13.155  1.00  0.00     0.044 C 
ENDBRANCH  16  17
ENDBRANCH   6  16
TORSDOF 3
ENDMDL
