MODEL 1
REMARK VINA RESULT:    -4.316      0.000      0.000
REMARK INTER + INTRA:          -5.940
REMARK INTER:                  -5.704
REMARK INTRA:                  -0.236
REMARK UNBOUND:                -0.236
REMARK SMILES [H]/N=C\C[C@H]1C[C@@H]1O[C@H]1CO[C@H]2C[C@@H](C3CC3)CCN2C1
REMARK SMILES IDX 7 1 6 2 5 3 8 4 9 5 14 6 13 7 18 8 12 9 19 10 20 11 11 12
REMARK SMILES IDX 21 13 10 14 15 15 16 16 17 17 4 18 3 19 2 20 1 21
REMARK H PARENT
ROOT
ATOM      1  C   UNL     1      -8.026 -10.052  -6.369  1.00  0.00     0.122 C 
ATOM      2  C   UNL     1      -8.682 -10.222  -7.711  1.00  0.00     0.039 C 
ATOM      3  C   UNL     1      -7.231 -10.570  -7.537  1.00  0.00     0.026 C 
ENDROOT
BRANCH   1   4
ATOM      4  O   UNL     1      -7.802  -8.679  -5.996  1.00  0.00    -0.371 OA
BRANCH   4   5
ATOM      5  C   UNL     1      -8.956  -7.971  -5.516  1.00  0.00     0.158 C 
ATOM      6  C   UNL     1      -6.701  -5.345  -1.615  1.00  0.00    -0.003 C 
ATOM      7  C   UNL     1      -7.093  -6.805  -1.874  1.00  0.00     0.052 C 
ATOM      8  C   UNL     1      -6.314  -4.680  -2.943  1.00  0.00     0.019 C 
ATOM      9  C   UNL     1      -8.164  -6.922  -2.967  1.00  0.00     0.189 C 
ATOM     10  C   UNL     1      -7.406  -4.862  -3.998  1.00  0.00     0.087 C 
ATOM     11  N   UNL     1      -7.708  -6.279  -4.199  1.00  0.00    -0.276 NA
ATOM     12  O   UNL     1      -8.410  -8.318  -3.149  1.00  0.00    -0.360 OA
ATOM     13  C   UNL     1      -8.691  -6.475  -5.270  1.00  0.00     0.121 C 
ATOM     14  C   UNL     1      -9.370  -8.588  -4.176  1.00  0.00     0.195 C 
BRANCH   6  15
ATOM     15  C   UNL     1      -5.566  -5.244  -0.621  1.00  0.00    -0.008 C 
ATOM     16  C   UNL     1      -5.622  -4.235   0.502  1.00  0.00     0.004 C 
ATOM     17  C   UNL     1      -5.746  -5.699   0.807  1.00  0.00     0.004 C 
ENDBRANCH   6  15
ENDBRANCH   4   5
ENDBRANCH   1   4
BRANCH   3  18
ATOM     18  C   UNL     1      -6.818 -12.011  -7.590  1.00  0.00     0.053 C 
BRANCH  18  19
ATOM     19  C   UNL     1      -7.310 -12.801  -8.775  1.00  0.00     0.074 C 
BRANCH  19  20
ATOM     20  N   UNL     1      -6.848 -12.727  -9.979  1.00  0.00    -0.313 NA
ATOM     21  H   UNL     1      -6.741 -13.660 -10.403  1.00  0.00     0.186 HD
ENDBRANCH  19  20
ENDBRANCH  18  19
ENDBRANCH   3  18
TORSDOF 6
ENDMDL
MODEL 2
REMARK VINA RESULT:    -4.302      3.316      5.563
REMARK INTER + INTRA:          -5.921
REMARK INTER:                  -5.701
REMARK INTRA:                  -0.220
REMARK UNBOUND:                -0.236
REMARK SMILES [H]/N=C\C[C@H]1C[C@@H]1O[C@H]1CO[C@H]2C[C@@H](C3CC3)CCN2C1
REMARK SMILES IDX 7 1 6 2 5 3 8 4 9 5 14 6 13 7 18 8 12 9 19 10 20 11 11 12
REMARK SMILES IDX 21 13 10 14 15 15 16 16 17 17 4 18 3 19 2 20 1 21
REMARK H PARENT
ROOT
ATOM      1  C   UNL     1     -11.707  -8.330  -3.529  1.00  0.00     0.122 C 
ATOM      2  C   UNL     1     -12.355  -9.656  -3.245  1.00  0.00     0.039 C 
ATOM      3  C   UNL     1     -12.906  -8.405  -2.624  1.00  0.00     0.026 C 
ENDROOT
BRANCH   1   4
ATOM      4  O   UNL     1     -10.428  -8.154  -2.890  1.00  0.00    -0.371 OA
BRANCH   4   5
ATOM      5  C   UNL     1      -9.360  -8.964  -3.408  1.00  0.00     0.158 C 
ATOM      6  C   UNL     1      -5.498  -5.474  -3.075  1.00  0.00    -0.003 C 
ATOM      7  C   UNL     1      -6.733  -5.663  -3.964  1.00  0.00     0.052 C 
ATOM      8  C   UNL     1      -5.798  -6.011  -1.669  1.00  0.00     0.019 C 
ATOM      9  C   UNL     1      -7.233  -7.114  -3.943  1.00  0.00     0.189 C 
ATOM     10  C   UNL     1      -6.323  -7.446  -1.720  1.00  0.00     0.087 C 
ATOM     11  N   UNL     1      -7.510  -7.538  -2.570  1.00  0.00    -0.276 NA
ATOM     12  O   UNL     1      -8.403  -7.155  -4.763  1.00  0.00    -0.360 OA
ATOM     13  C   UNL     1      -8.078  -8.891  -2.560  1.00  0.00     0.121 C 
ATOM     14  C   UNL     1      -9.009  -8.451  -4.809  1.00  0.00     0.195 C 
BRANCH   6  15
ATOM     15  C   UNL     1      -5.079  -4.022  -3.010  1.00  0.00    -0.008 C 
ATOM     16  C   UNL     1      -3.645  -3.629  -3.278  1.00  0.00     0.004 C 
ATOM     17  C   UNL     1      -4.716  -3.265  -4.265  1.00  0.00     0.004 C 
ENDBRANCH   6  15
ENDBRANCH   4   5
ENDBRANCH   1   4
BRANCH   3  18
ATOM     18  C   UNL     1     -14.236  -7.888  -3.087  1.00  0.00     0.053 C 
BRANCH  18  19
ATOM     19  C   UNL     1     -15.371  -8.878  -3.087  1.00  0.00     0.074 C 
BRANCH  19  20
ATOM     20  N   UNL     1     -16.240  -9.034  -2.144  1.00  0.00    -0.313 NA
ATOM     21  H   UNL     1     -16.201  -8.265  -1.461  1.00  0.00     0.186 HD
ENDBRANCH  19  20
ENDBRANCH  18  19
ENDBRANCH   3  18
TORSDOF 6
ENDMDL
MODEL 3
REMARK VINA RESULT:    -4.104      2.674      8.575
REMARK INTER + INTRA:          -5.659
REMARK INTER:                  -5.421
REMARK INTRA:                  -0.238
REMARK UNBOUND:                -0.236
REMARK SMILES [H]/N=C\C[C@H]1C[C@@H]1O[C@H]1CO[C@H]2C[C@@H](C3CC3)CCN2C1
REMARK SMILES IDX 7 1 6 2 5 3 8 4 9 5 14 6 13 7 18 8 12 9 19 10 20 11 11 12
REMARK SMILES IDX 21 13 10 14 15 15 16 16 17 17 4 18 3 19 2 20 1 21
REMARK H PARENT
ROOT
ATOM      1  C   UNL     1      -8.559  -8.562  -4.534  1.00  0.00     0.122 C 
ATOM      2  C   UNL     1      -9.551  -8.658  -3.409  1.00  0.00     0.039 C 
ATOM      3  C   UNL     1      -8.102  -8.965  -3.159  1.00  0.00     0.026 C 
ENDROOT
BRANCH   1   4
ATOM      4  O   UNL     1      -8.675  -9.615  -5.509  1.00  0.00    -0.371 OA
BRANCH   4   5
ATOM      5  C   UNL     1      -8.365  -9.243  -6.862  1.00  0.00     0.158 C 
ATOM      6  C   UNL     1      -7.859 -14.022  -8.891  1.00  0.00    -0.003 C 
ATOM      7  C   UNL     1      -7.040 -13.140  -7.940  1.00  0.00     0.052 C 
ATOM      8  C   UNL     1      -9.353 -13.725  -8.699  1.00  0.00     0.019 C 
ATOM      9  C   UNL     1      -7.406 -11.656  -8.081  1.00  0.00     0.189 C 
ATOM     10  C   UNL     1      -9.644 -12.229  -8.818  1.00  0.00     0.087 C 
ATOM     11  N   UNL     1      -8.840 -11.462  -7.867  1.00  0.00    -0.276 NA
ATOM     12  O   UNL     1      -6.619 -10.948  -7.122  1.00  0.00    -0.360 OA
ATOM     13  C   UNL     1      -9.171 -10.033  -7.908  1.00  0.00     0.121 C 
ATOM     14  C   UNL     1      -6.882  -9.542  -7.110  1.00  0.00     0.195 C 
BRANCH   6  15
ATOM     15  C   UNL     1      -7.577 -15.490  -8.667  1.00  0.00    -0.008 C 
ATOM     16  C   UNL     1      -7.442 -16.430  -9.842  1.00  0.00     0.004 C 
ATOM     17  C   UNL     1      -6.234 -16.083  -9.021  1.00  0.00     0.004 C 
ENDBRANCH   6  15
ENDBRANCH   4   5
ENDBRANCH   1   4
BRANCH   3  18
ATOM     18  C   UNL     1      -7.292  -8.018  -2.324  1.00  0.00     0.053 C 
BRANCH  18  19
ATOM     19  C   UNL     1      -6.388  -8.644  -1.294  1.00  0.00     0.074 C 
BRANCH  19  20
ATOM     20  N   UNL     1      -6.562  -9.794  -0.733  1.00  0.00    -0.313 NA
ATOM     21  H   UNL     1      -5.774 -10.431  -0.921  1.00  0.00     0.186 HD
ENDBRANCH  19  20
ENDBRANCH  18  19
ENDBRANCH   3  18
TORSDOF 6
ENDMDL
MODEL 4
REMARK VINA RESULT:    -4.028      3.021      4.560
REMARK INTER + INTRA:          -5.559
REMARK INTER:                  -5.609
REMARK INTRA:                   0.051
REMARK UNBOUND:                -0.236
REMARK SMILES [H]/N=C\C[C@H]1C[C@@H]1O[C@H]1CO[C@H]2C[C@@H](C3CC3)CCN2C1
REMARK SMILES IDX 7 1 6 2 5 3 8 4 9 5 14 6 13 7 18 8 12 9 19 10 20 11 11 12
REMARK SMILES IDX 21 13 10 14 15 15 16 16 17 17 4 18 3 19 2 20 1 21
REMARK H PARENT
ROOT
ATOM      1  C   UNL     1     -11.414  -8.887  -2.500  1.00  0.00     0.122 C 
ATOM      2  C   UNL     1     -12.684  -8.087  -2.569  1.00  0.00     0.039 C 
ATOM      3  C   UNL     1     -12.432  -9.179  -3.568  1.00  0.00     0.026 C 
ENDROOT
BRANCH   1   4
ATOM      4  O   UNL     1     -10.239  -8.162  -2.909  1.00  0.00    -0.371 OA
BRANCH   4   5
ATOM      5  C   UNL     1      -9.149  -8.967  -3.387  1.00  0.00     0.158 C 
ATOM      6  C   UNL     1      -5.343  -5.417  -3.036  1.00  0.00    -0.003 C 
ATOM      7  C   UNL     1      -6.555  -5.642  -3.949  1.00  0.00     0.052 C 
ATOM      8  C   UNL     1      -5.668  -5.931  -1.626  1.00  0.00     0.019 C 
ATOM      9  C   UNL     1      -7.036  -7.099  -3.910  1.00  0.00     0.189 C 
ATOM     10  C   UNL     1      -6.173  -7.374  -1.660  1.00  0.00     0.087 C 
ATOM     11  N   UNL     1      -7.338  -7.500  -2.535  1.00  0.00    -0.276 NA
ATOM     12  O   UNL     1      -8.186  -7.172  -4.755  1.00  0.00    -0.360 OA
ATOM     13  C   UNL     1      -7.888  -8.860  -2.511  1.00  0.00     0.121 C 
ATOM     14  C   UNL     1      -8.773  -8.476  -4.789  1.00  0.00     0.195 C 
BRANCH   6  15
ATOM     15  C   UNL     1      -4.945  -3.959  -2.990  1.00  0.00    -0.008 C 
ATOM     16  C   UNL     1      -3.542  -3.539  -3.357  1.00  0.00     0.004 C 
ATOM     17  C   UNL     1      -4.687  -3.188  -4.262  1.00  0.00     0.004 C 
ENDBRANCH   6  15
ENDBRANCH   4   5
ENDBRANCH   1   4
BRANCH   3  18
ATOM     18  C   UNL     1     -13.259 -10.428  -3.503  1.00  0.00     0.053 C 
BRANCH  18  19
ATOM     19  C   UNL     1     -12.996 -11.458  -4.570  1.00  0.00     0.074 C 
BRANCH  19  20
ATOM     20  N   UNL     1     -12.204 -11.316  -5.581  1.00  0.00    -0.313 NA
ATOM     21  H   UNL     1     -11.251 -11.643  -5.365  1.00  0.00     0.186 HD
ENDBRANCH  19  20
ENDBRANCH  18  19
ENDBRANCH   3  18
TORSDOF 6
ENDMDL
MODEL 5
REMARK VINA RESULT:    -3.825      3.675      5.129
REMARK INTER + INTRA:          -5.290
REMARK INTER:                  -5.061
REMARK INTRA:                  -0.229
REMARK UNBOUND:                -0.236
REMARK SMILES [H]/N=C\C[C@H]1C[C@@H]1O[C@H]1CO[C@H]2C[C@@H](C3CC3)CCN2C1
REMARK SMILES IDX 7 1 6 2 5 3 8 4 9 5 14 6 13 7 18 8 12 9 19 10 20 11 11 12
REMARK SMILES IDX 21 13 10 14 15 15 16 16 17 17 4 18 3 19 2 20 1 21
REMARK H PARENT
ROOT
ATOM      1  C   UNL     1      -7.222 -13.388  -8.117  1.00  0.00     0.122 C 
ATOM      2  C   UNL     1      -6.216 -14.419  -7.689  1.00  0.00     0.039 C 
ATOM      3  C   UNL     1      -7.684 -14.689  -7.518  1.00  0.00     0.026 C 
ENDROOT
BRANCH   1   4
ATOM      4  O   UNL     1      -7.275 -12.230  -7.261  1.00  0.00    -0.371 OA
BRANCH   4   5
ATOM      5  C   UNL     1      -7.526 -10.981  -7.925  1.00  0.00     0.158 C 
ATOM      6  C   UNL     1     -10.156  -8.582  -4.113  1.00  0.00    -0.003 C 
ATOM      7  C   UNL     1     -10.443  -9.725  -5.094  1.00  0.00     0.052 C 
ATOM      8  C   UNL     1      -8.663  -8.583  -3.755  1.00  0.00     0.019 C 
ATOM      9  C   UNL     1      -9.508  -9.680  -6.311  1.00  0.00     0.189 C 
ATOM     10  C   UNL     1      -7.788  -8.572  -5.009  1.00  0.00     0.087 C 
ATOM     11  N   UNL     1      -8.110  -9.701  -5.881  1.00  0.00    -0.276 NA
ATOM     12  O   UNL     1      -9.838 -10.810  -7.121  1.00  0.00    -0.360 OA
ATOM     13  C   UNL     1      -7.220  -9.755  -7.046  1.00  0.00     0.121 C 
ATOM     14  C   UNL     1      -9.014 -10.923  -8.286  1.00  0.00     0.195 C 
BRANCH   6  15
ATOM     15  C   UNL     1     -11.001  -8.697  -2.864  1.00  0.00    -0.008 C 
ATOM     16  C   UNL     1     -12.317  -7.964  -2.763  1.00  0.00     0.004 C 
ATOM     17  C   UNL     1     -12.303  -9.460  -2.879  1.00  0.00     0.004 C 
ENDBRANCH   6  15
ENDBRANCH   4   5
ENDBRANCH   1   4
BRANCH   3  18
ATOM     18  C   UNL     1      -8.337 -15.727  -8.381  1.00  0.00     0.053 C 
BRANCH  18  19
ATOM     19  C   UNL     1      -9.808 -15.956  -8.149  1.00  0.00     0.074 C 
BRANCH  19  20
ATOM     20  N   UNL     1     -10.611 -15.156  -7.531  1.00  0.00    -0.313 NA
ATOM     21  H   UNL     1     -11.461 -14.970  -8.082  1.00  0.00     0.186 HD
ENDBRANCH  19  20
ENDBRANCH  18  19
ENDBRANCH   3  18
TORSDOF 6
ENDMDL
MODEL 6
REMARK VINA RESULT:    -3.757      4.832      7.320
REMARK INTER + INTRA:          -5.201
REMARK INTER:                  -5.031
REMARK INTRA:                  -0.169
REMARK UNBOUND:                -0.236
REMARK SMILES [H]/N=C\C[C@H]1C[C@@H]1O[C@H]1CO[C@H]2C[C@@H](C3CC3)CCN2C1
REMARK SMILES IDX 7 1 6 2 5 3 8 4 9 5 14 6 13 7 18 8 12 9 19 10 20 11 11 12
REMARK SMILES IDX 21 13 10 14 15 15 16 16 17 17 4 18 3 19 2 20 1 21
REMARK H PARENT
ROOT
ATOM      1  C   UNL     1     -15.294  -7.888  -3.751  1.00  0.00     0.122 C 
ATOM      2  C   UNL     1     -16.011  -6.624  -4.134  1.00  0.00     0.039 C 
ATOM      3  C   UNL     1     -15.951  -7.772  -5.100  1.00  0.00     0.026 C 
ENDROOT
BRANCH   1   4
ATOM      4  O   UNL     1     -13.860  -7.763  -3.719  1.00  0.00    -0.371 OA
BRANCH   4   5
ATOM      5  C   UNL     1     -13.184  -8.613  -2.779  1.00  0.00     0.158 C 
ATOM      6  C   UNL     1      -8.661  -9.154  -5.319  1.00  0.00    -0.003 C 
ATOM      7  C   UNL     1     -10.094  -9.668  -5.506  1.00  0.00     0.052 C 
ATOM      8  C   UNL     1      -8.702  -7.759  -4.679  1.00  0.00     0.019 C 
ATOM      9  C   UNL     1     -10.897  -9.603  -4.200  1.00  0.00     0.189 C 
ATOM     10  C   UNL     1      -9.545  -7.754  -3.404  1.00  0.00     0.087 C 
ATOM     11  N   UNL     1     -10.899  -8.239  -3.669  1.00  0.00    -0.276 NA
ATOM     12  O   UNL     1     -12.216 -10.060  -4.508  1.00  0.00    -0.360 OA
ATOM     13  C   UNL     1     -11.746  -8.159  -2.474  1.00  0.00     0.121 C 
ATOM     14  C   UNL     1     -13.100 -10.019  -3.383  1.00  0.00     0.195 C 
BRANCH   6  15
ATOM     15  C   UNL     1      -7.911  -9.114  -6.631  1.00  0.00    -0.008 C 
ATOM     16  C   UNL     1      -7.092 -10.301  -7.079  1.00  0.00     0.004 C 
ATOM     17  C   UNL     1      -8.359  -9.952  -7.804  1.00  0.00     0.004 C 
ENDBRANCH   6  15
ENDBRANCH   4   5
ENDBRANCH   1   4
BRANCH   3  18
ATOM     18  C   UNL     1     -17.205  -8.538  -5.398  1.00  0.00     0.053 C 
BRANCH  18  19
ATOM     19  C   UNL     1     -17.065  -9.703  -6.342  1.00  0.00     0.074 C 
BRANCH  19  20
ATOM     20  N   UNL     1     -16.112  -9.876  -7.197  1.00  0.00    -0.313 NA
ATOM     21  H   UNL     1     -15.246 -10.195  -6.740  1.00  0.00     0.186 HD
ENDBRANCH  19  20
ENDBRANCH  18  19
ENDBRANCH   3  18
TORSDOF 6
ENDMDL
MODEL 7
REMARK VINA RESULT:    -3.565      5.486      8.409
REMARK INTER + INTRA:          -4.947
REMARK INTER:                  -4.413
REMARK INTRA:                  -0.534
REMARK UNBOUND:                -0.236
REMARK SMILES [H]/N=C\C[C@H]1C[C@@H]1O[C@H]1CO[C@H]2C[C@@H](C3CC3)CCN2C1
REMARK SMILES IDX 7 1 6 2 5 3 8 4 9 5 14 6 13 7 18 8 12 9 19 10 20 11 11 12
REMARK SMILES IDX 21 13 10 14 15 15 16 16 17 17 4 18 3 19 2 20 1 21
REMARK H PARENT
ROOT
ATOM      1  C   UNL     1     -12.304 -15.020  -9.252  1.00  0.00     0.122 C 
ATOM      2  C   UNL     1     -13.280 -15.776  -8.395  1.00  0.00     0.039 C 
ATOM      3  C   UNL     1     -12.651 -14.513  -7.879  1.00  0.00     0.026 C 
ENDROOT
BRANCH   1   4
ATOM      4  O   UNL     1     -11.025 -15.668  -9.396  1.00  0.00    -0.371 OA
BRANCH   4   5
ATOM      5  C   UNL     1     -10.236 -15.240 -10.518  1.00  0.00     0.158 C 
ATOM      6  C   UNL     1      -7.362 -11.611  -8.114  1.00  0.00    -0.003 C 
ATOM      7  C   UNL     1      -8.824 -11.736  -8.561  1.00  0.00     0.052 C 
ATOM      8  C   UNL     1      -6.831 -12.998  -7.724  1.00  0.00     0.019 C 
ATOM      9  C   UNL     1      -8.997 -12.802  -9.651  1.00  0.00     0.189 C 
ATOM     10  C   UNL     1      -7.065 -14.019  -8.836  1.00  0.00     0.087 C 
ATOM     11  N   UNL     1      -8.482 -14.092  -9.191  1.00  0.00    -0.276 NA
ATOM     12  O   UNL     1     -10.394 -12.858  -9.950  1.00  0.00    -0.360 OA
ATOM     13  C   UNL     1      -8.735 -15.130 -10.197  1.00  0.00     0.121 C 
ATOM     14  C   UNL     1     -10.717 -13.846 -10.933  1.00  0.00     0.195 C 
BRANCH   6  15
ATOM     15  C   UNL     1      -7.215 -10.643  -6.962  1.00  0.00    -0.008 C 
ATOM     16  C   UNL     1      -6.871  -9.195  -7.221  1.00  0.00     0.004 C 
ATOM     17  C   UNL     1      -8.240  -9.560  -6.726  1.00  0.00     0.004 C 
ENDBRANCH   6  15
ENDBRANCH   4   5
ENDBRANCH   1   4
BRANCH   3  18
ATOM     18  C   UNL     1     -13.503 -13.290  -7.719  1.00  0.00     0.053 C 
BRANCH  18  19
ATOM     19  C   UNL     1     -12.771 -11.992  -7.501  1.00  0.00     0.074 C 
BRANCH  19  20
ATOM     20  N   UNL     1     -12.403 -11.165  -8.422  1.00  0.00    -0.313 NA
ATOM     21  H   UNL     1     -12.859 -11.373  -9.322  1.00  0.00     0.186 HD
ENDBRANCH  19  20
ENDBRANCH  18  19
ENDBRANCH   3  18
TORSDOF 6
ENDMDL
MODEL 8
REMARK VINA RESULT:    -3.418      5.686      7.150
REMARK INTER + INTRA:          -4.754
REMARK INTER:                  -4.322
REMARK INTRA:                  -0.431
REMARK UNBOUND:                -0.236
REMARK SMILES [H]/N=C\C[C@H]1C[C@@H]1O[C@H]1CO[C@H]2C[C@@H](C3CC3)CCN2C1
REMARK SMILES IDX 7 1 6 2 5 3 8 4 9 5 14 6 13 7 18 8 12 9 19 10 20 11 11 12
REMARK SMILES IDX 21 13 10 14 15 15 16 16 17 17 4 18 3 19 2 20 1 21
REMARK H PARENT
ROOT
ATOM      1  C   UNL     1     -15.784 -12.387  -6.980  1.00  0.00     0.122 C 
ATOM      2  C   UNL     1     -16.167 -11.980  -8.375  1.00  0.00     0.039 C 
ATOM      3  C   UNL     1     -14.728 -12.252  -8.042  1.00  0.00     0.026 C 
ENDROOT
BRANCH   1   4
ATOM      4  O   UNL     1     -15.867 -11.322  -6.014  1.00  0.00    -0.371 OA
BRANCH   4   5
ATOM      5  C   UNL     1     -15.790 -11.727  -4.637  1.00  0.00     0.158 C 
ATOM      6  C   UNL     1     -11.649  -8.890  -3.219  1.00  0.00    -0.003 C 
ATOM      7  C   UNL     1     -11.884 -10.135  -4.084  1.00  0.00     0.052 C 
ATOM      8  C   UNL     1     -12.868  -7.963  -3.323  1.00  0.00     0.019 C 
ATOM      9  C   UNL     1     -13.218 -10.816  -3.751  1.00  0.00     0.189 C 
ATOM     10  C   UNL     1     -14.165  -8.710  -3.014  1.00  0.00     0.087 C 
ATOM     11  N   UNL     1     -14.324  -9.869  -3.892  1.00  0.00    -0.276 NA
ATOM     12  O   UNL     1     -13.344 -11.924  -4.645  1.00  0.00    -0.360 OA
ATOM     13  C   UNL     1     -15.606 -10.546  -3.667  1.00  0.00     0.121 C 
ATOM     14  C   UNL     1     -14.571 -12.642  -4.478  1.00  0.00     0.195 C 
BRANCH   6  15
ATOM     15  C   UNL     1     -10.390  -8.160  -3.628  1.00  0.00    -0.008 C 
ATOM     16  C   UNL     1      -9.044  -8.606  -3.107  1.00  0.00     0.004 C 
ATOM     17  C   UNL     1      -9.388  -8.804  -4.555  1.00  0.00     0.004 C 
ENDBRANCH   6  15
ENDBRANCH   4   5
ENDBRANCH   1   4
BRANCH   3  18
ATOM     18  C   UNL     1     -14.068 -13.472  -8.612  1.00  0.00     0.053 C 
BRANCH  18  19
ATOM     19  C   UNL     1     -12.696 -13.797  -8.081  1.00  0.00     0.074 C 
BRANCH  19  20
ATOM     20  N   UNL     1     -12.255 -13.517  -6.900  1.00  0.00    -0.313 NA
ATOM     21  H   UNL     1     -12.604 -12.606  -6.570  1.00  0.00     0.186 HD
ENDBRANCH  19  20
ENDBRANCH  18  19
ENDBRANCH   3  18
TORSDOF 6
ENDMDL
MODEL 9
REMARK VINA RESULT:    -3.374      4.861      7.520
REMARK INTER + INTRA:          -4.695
REMARK INTER:                  -4.521
REMARK INTRA:                  -0.174
REMARK UNBOUND:                -0.236
REMARK SMILES [H]/N=C\C[C@H]1C[C@@H]1O[C@H]1CO[C@H]2C[C@@H](C3CC3)CCN2C1
REMARK SMILES IDX 7 1 6 2 5 3 8 4 9 5 14 6 13 7 18 8 12 9 19 10 20 11 11 12
REMARK SMILES IDX 21 13 10 14 15 15 16 16 17 17 4 18 3 19 2 20 1 21
REMARK H PARENT
ROOT
ATOM      1  C   UNL     1     -12.237 -15.138  -8.740  1.00  0.00     0.122 C 
ATOM      2  C   UNL     1     -12.190 -16.466  -8.038  1.00  0.00     0.039 C 
ATOM      3  C   UNL     1     -13.086 -15.377  -7.521  1.00  0.00     0.026 C 
ENDROOT
BRANCH   1   4
ATOM      4  O   UNL     1     -11.057 -14.334  -8.556  1.00  0.00    -0.371 OA
BRANCH   4   5
ATOM      5  C   UNL     1     -10.748 -13.431  -9.631  1.00  0.00     0.158 C 
ATOM      6  C   UNL     1      -8.310  -9.736  -6.873  1.00  0.00    -0.003 C 
ATOM      7  C   UNL     1      -9.759 -10.211  -7.032  1.00  0.00     0.052 C 
ATOM      8  C   UNL     1      -7.363 -10.933  -7.037  1.00  0.00     0.019 C 
ATOM      9  C   UNL     1      -9.962 -10.995  -8.335  1.00  0.00     0.189 C 
ATOM     10  C   UNL     1      -7.639 -11.690  -8.336  1.00  0.00     0.087 C 
ATOM     11  N   UNL     1      -9.034 -12.124  -8.401  1.00  0.00    -0.276 NA
ATOM     12  O   UNL     1     -11.326 -11.421  -8.348  1.00  0.00    -0.360 OA
ATOM     13  C   UNL     1      -9.294 -12.927  -9.602  1.00  0.00     0.121 C 
ATOM     14  C   UNL     1     -11.658 -12.205  -9.498  1.00  0.00     0.195 C 
BRANCH   6  15
ATOM     15  C   UNL     1      -8.089  -9.064  -5.536  1.00  0.00    -0.008 C 
ATOM     16  C   UNL     1      -8.489  -7.622  -5.331  1.00  0.00     0.004 C 
ATOM     17  C   UNL     1      -9.256  -8.714  -4.645  1.00  0.00     0.004 C 
ENDBRANCH   6  15
ENDBRANCH   4   5
ENDBRANCH   1   4
BRANCH   3  18
ATOM     18  C   UNL     1     -14.571 -15.534  -7.652  1.00  0.00     0.053 C 
BRANCH  18  19
ATOM     19  C   UNL     1     -15.327 -15.813  -6.379  1.00  0.00     0.074 C 
BRANCH  19  20
ATOM     20  N   UNL     1     -14.898 -16.513  -5.382  1.00  0.00    -0.313 NA
ATOM     21  H   UNL     1     -14.275 -17.273  -5.691  1.00  0.00     0.186 HD
ENDBRANCH  19  20
ENDBRANCH  18  19
ENDBRANCH   3  18
TORSDOF 6
ENDMDL
