MODEL 1
REMARK VINA RESULT:    -5.985      0.000      0.000
REMARK INTER + INTRA:          -7.401
REMARK INTER:                  -7.035
REMARK INTRA:                  -0.366
REMARK UNBOUND:                -0.366
REMARK SMILES Cc1ccc(CNC(=O)NC(=O)c2ccc(C)cc2)cc1
REMARK SMILES IDX 11 1 12 2 10 3 8 4 9 5 7 6 13 9 19 10 18 11 14 12 16 13
REMARK SMILES IDX 15 14 17 15 6 16 5 17 4 18 20 19 3 20 21 21 2 22 1 23
REMARK H PARENT 10 7 7 8
ROOT
ATOM      1  C   UNL     1       3.783  -2.409  -8.916  1.00  0.00     0.259 C 
ATOM      2  O   UNL     1       3.182  -3.462  -9.075  1.00  0.00    -0.269 OA
ATOM      3  N   UNL     1       4.832  -1.876  -9.671  1.00  0.00    -0.274 N 
ATOM      4  C   UNL     1       5.419  -2.102 -10.890  1.00  0.00     0.321 C 
ATOM      5  O   UNL     1       6.274  -1.295 -11.273  1.00  0.00    -0.248 OA
ATOM      6  N   UNL     1       5.093  -3.130 -11.695  1.00  0.00    -0.334 N 
ATOM      7  H   UNL     1       5.185  -0.992  -9.330  1.00  0.00     0.175 HD
ATOM      8  H   UNL     1       5.554  -3.106 -12.593  1.00  0.00     0.165 HD
ENDROOT
BRANCH   1   9
ATOM      9  C   UNL     1       3.353  -1.569  -7.781  1.00  0.00     0.040 A 
ATOM     10  C   UNL     1       4.047  -1.572  -6.569  1.00  0.00     0.014 A 
ATOM     11  C   UNL     1       3.635  -0.722  -5.543  1.00  0.00     0.004 A 
ATOM     12  C   UNL     1       2.219  -0.768  -7.949  1.00  0.00     0.014 A 
ATOM     13  C   UNL     1       2.529   0.124  -5.719  1.00  0.00    -0.051 A 
ATOM     14  C   UNL     1       1.815   0.084  -6.923  1.00  0.00     0.004 A 
ATOM     15  C   UNL     1       2.150   1.092  -4.638  1.00  0.00     0.044 C 
ENDBRANCH   1   9
BRANCH   6  16
ATOM     16  C   UNL     1       4.065  -4.111 -11.489  1.00  0.00     0.153 C 
BRANCH  16  17
ATOM     17  C   UNL     1       3.615  -4.901 -12.687  1.00  0.00    -0.029 A 
ATOM     18  C   UNL     1       2.275  -5.009 -13.070  1.00  0.00     0.006 A 
ATOM     19  C   UNL     1       4.611  -5.365 -13.562  1.00  0.00     0.006 A 
ATOM     20  C   UNL     1       1.945  -5.549 -14.318  1.00  0.00     0.004 A 
ATOM     21  C   UNL     1       4.282  -5.898 -14.804  1.00  0.00     0.004 A 
ATOM     22  C   UNL     1       2.945  -5.985 -15.197  1.00  0.00    -0.051 A 
ATOM     23  C   UNL     1       2.609  -6.432 -16.589  1.00  0.00     0.044 C 
ENDBRANCH  16  17
ENDBRANCH   6  16
TORSDOF 3
ENDMDL
MODEL 2
REMARK VINA RESULT:    -5.979      3.264      5.543
REMARK INTER + INTRA:          -7.393
REMARK INTER:                  -7.024
REMARK INTRA:                  -0.369
REMARK UNBOUND:                -0.366
REMARK SMILES Cc1ccc(CNC(=O)NC(=O)c2ccc(C)cc2)cc1
REMARK SMILES IDX 11 1 12 2 10 3 8 4 9 5 7 6 13 9 19 10 18 11 14 12 16 13
REMARK SMILES IDX 15 14 17 15 6 16 5 17 4 18 20 19 3 20 21 21 2 22 1 23
REMARK H PARENT 10 7 7 8
ROOT
ATOM      1  C   UNL     1       4.147  -2.212  -8.750  1.00  0.00     0.259 C 
ATOM      2  O   UNL     1       4.738  -1.149  -8.625  1.00  0.00    -0.269 OA
ATOM      3  N   UNL     1       4.022  -3.015  -9.888  1.00  0.00    -0.274 N 
ATOM      4  C   UNL     1       4.610  -3.122 -11.122  1.00  0.00     0.321 C 
ATOM      5  O   UNL     1       4.297  -4.090 -11.824  1.00  0.00    -0.248 OA
ATOM      6  N   UNL     1       5.524  -2.252 -11.589  1.00  0.00    -0.334 N 
ATOM      7  H   UNL     1       3.461  -3.846  -9.753  1.00  0.00     0.175 HD
ATOM      8  H   UNL     1       5.923  -2.518 -12.478  1.00  0.00     0.165 HD
ENDROOT
BRANCH   1   9
ATOM      9  C   UNL     1       3.472  -2.738  -7.548  1.00  0.00     0.040 A 
ATOM     10  C   UNL     1       2.108  -2.533  -7.331  1.00  0.00     0.014 A 
ATOM     11  C   UNL     1       1.503  -3.094  -6.206  1.00  0.00     0.004 A 
ATOM     12  C   UNL     1       4.240  -3.447  -6.620  1.00  0.00     0.014 A 
ATOM     13  C   UNL     1       2.255  -3.852  -5.296  1.00  0.00    -0.051 A 
ATOM     14  C   UNL     1       3.630  -4.012  -5.502  1.00  0.00     0.004 A 
ATOM     15  C   UNL     1       1.573  -4.519  -4.138  1.00  0.00     0.044 C 
ENDBRANCH   1   9
BRANCH   6  16
ATOM     16  C   UNL     1       6.097  -1.130 -10.901  1.00  0.00     0.153 C 
BRANCH  16  17
ATOM     17  C   UNL     1       7.392  -0.583 -11.433  1.00  0.00    -0.029 A 
ATOM     18  C   UNL     1       8.544  -0.452 -10.650  1.00  0.00     0.006 A 
ATOM     19  C   UNL     1       7.491  -0.399 -12.822  1.00  0.00     0.006 A 
ATOM     20  C   UNL     1       9.773  -0.167 -11.256  1.00  0.00     0.004 A 
ATOM     21  C   UNL     1       8.714  -0.120 -13.423  1.00  0.00     0.004 A 
ATOM     22  C   UNL     1       9.869  -0.012 -12.646  1.00  0.00    -0.051 A 
ATOM     23  C   UNL     1      11.201   0.151 -13.315  1.00  0.00     0.044 C 
ENDBRANCH  16  17
ENDBRANCH   6  16
TORSDOF 3
ENDMDL
MODEL 3
REMARK VINA RESULT:    -5.870      0.531      8.069
REMARK INTER + INTRA:          -7.266
REMARK INTER:                  -6.785
REMARK INTRA:                  -0.481
REMARK UNBOUND:                -0.366
REMARK SMILES Cc1ccc(CNC(=O)NC(=O)c2ccc(C)cc2)cc1
REMARK SMILES IDX 11 1 12 2 10 3 8 4 9 5 7 6 13 9 19 10 18 11 14 12 16 13
REMARK SMILES IDX 15 14 17 15 6 16 5 17 4 18 20 19 3 20 21 21 2 22 1 23
REMARK H PARENT 10 7 7 8
ROOT
ATOM      1  C   UNL     1       3.768  -3.867 -11.445  1.00  0.00     0.259 C 
ATOM      2  O   UNL     1       3.066  -4.116 -10.475  1.00  0.00    -0.269 OA
ATOM      3  N   UNL     1       4.795  -2.926 -11.565  1.00  0.00    -0.274 N 
ATOM      4  C   UNL     1       5.557  -2.146 -10.733  1.00  0.00     0.321 C 
ATOM      5  O   UNL     1       6.493  -1.516 -11.236  1.00  0.00    -0.248 OA
ATOM      6  N   UNL     1       5.356  -2.058  -9.405  1.00  0.00    -0.334 N 
ATOM      7  H   UNL     1       5.221  -2.888 -12.481  1.00  0.00     0.175 HD
ATOM      8  H   UNL     1       6.054  -1.510  -8.923  1.00  0.00     0.165 HD
ENDROOT
BRANCH   1   9
ATOM      9  C   UNL     1       3.517  -4.662 -12.663  1.00  0.00     0.040 A 
ATOM     10  C   UNL     1       2.219  -4.920 -13.109  1.00  0.00     0.014 A 
ATOM     11  C   UNL     1       2.032  -5.631 -14.295  1.00  0.00     0.004 A 
ATOM     12  C   UNL     1       4.621  -5.160 -13.362  1.00  0.00     0.014 A 
ATOM     13  C   UNL     1       3.135  -6.091 -15.031  1.00  0.00    -0.051 A 
ATOM     14  C   UNL     1       4.430  -5.864 -14.549  1.00  0.00     0.004 A 
ATOM     15  C   UNL     1       2.919  -6.780 -16.346  1.00  0.00     0.044 C 
ENDBRANCH   1   9
BRANCH   6  16
ATOM     16  C   UNL     1       4.399  -2.780  -8.614  1.00  0.00     0.153 C 
BRANCH  16  17
ATOM     17  C   UNL     1       3.662  -2.012  -7.552  1.00  0.00    -0.029 A 
ATOM     18  C   UNL     1       4.096  -1.935  -6.225  1.00  0.00     0.006 A 
ATOM     19  C   UNL     1       2.617  -1.173  -7.974  1.00  0.00     0.006 A 
ATOM     20  C   UNL     1       3.508  -1.018  -5.348  1.00  0.00     0.004 A 
ATOM     21  C   UNL     1       2.037  -0.257  -7.102  1.00  0.00     0.004 A 
ATOM     22  C   UNL     1       2.484  -0.165  -5.783  1.00  0.00    -0.051 A 
ATOM     23  C   UNL     1       1.949   0.916  -4.892  1.00  0.00     0.044 C 
ENDBRANCH  16  17
ENDBRANCH   6  16
TORSDOF 3
ENDMDL
MODEL 4
REMARK VINA RESULT:    -5.848      3.159      7.348
REMARK INTER + INTRA:          -7.240
REMARK INTER:                  -6.761
REMARK INTRA:                  -0.478
REMARK UNBOUND:                -0.366
REMARK SMILES Cc1ccc(CNC(=O)NC(=O)c2ccc(C)cc2)cc1
REMARK SMILES IDX 11 1 12 2 10 3 8 4 9 5 7 6 13 9 19 10 18 11 14 12 16 13
REMARK SMILES IDX 15 14 17 15 6 16 5 17 4 18 20 19 3 20 21 21 2 22 1 23
REMARK H PARENT 10 7 7 8
ROOT
ATOM      1  C   UNL     1       6.288  -1.331 -10.591  1.00  0.00     0.259 C 
ATOM      2  O   UNL     1       6.025  -0.815  -9.513  1.00  0.00    -0.269 OA
ATOM      3  N   UNL     1       5.625  -2.371 -11.249  1.00  0.00    -0.274 N 
ATOM      4  C   UNL     1       4.423  -3.025 -11.156  1.00  0.00     0.321 C 
ATOM      5  O   UNL     1       4.141  -3.835 -12.046  1.00  0.00    -0.248 OA
ATOM      6  N   UNL     1       3.532  -2.809 -10.171  1.00  0.00    -0.334 N 
ATOM      7  H   UNL     1       6.045  -2.643 -12.128  1.00  0.00     0.175 HD
ATOM      8  H   UNL     1       2.662  -3.306 -10.293  1.00  0.00     0.165 HD
ENDROOT
BRANCH   1   9
ATOM      9  C   UNL     1       7.458  -0.793 -11.312  1.00  0.00     0.040 A 
ATOM     10  C   UNL     1       8.658  -0.520 -10.652  1.00  0.00     0.014 A 
ATOM     11  C   UNL     1       9.753  -0.062 -11.386  1.00  0.00     0.004 A 
ATOM     12  C   UNL     1       7.331  -0.554 -12.684  1.00  0.00     0.014 A 
ATOM     13  C   UNL     1       9.651   0.131 -12.771  1.00  0.00    -0.051 A 
ATOM     14  C   UNL     1       8.429  -0.103 -13.413  1.00  0.00     0.004 A 
ATOM     15  C   UNL     1      10.860   0.542 -13.559  1.00  0.00     0.044 C 
ENDBRANCH   1   9
BRANCH   6  16
ATOM     16  C   UNL     1       3.617  -1.847  -9.108  1.00  0.00     0.153 C 
BRANCH  16  17
ATOM     17  C   UNL     1       3.190  -2.294  -7.738  1.00  0.00    -0.029 A 
ATOM     18  C   UNL     1       1.885  -2.141  -7.257  1.00  0.00     0.006 A 
ATOM     19  C   UNL     1       4.095  -3.081  -7.007  1.00  0.00     0.006 A 
ATOM     20  C   UNL     1       1.493  -2.788  -6.080  1.00  0.00     0.004 A 
ATOM     21  C   UNL     1       3.701  -3.727  -5.839  1.00  0.00     0.004 A 
ATOM     22  C   UNL     1       2.393  -3.594  -5.371  1.00  0.00    -0.051 A 
ATOM     23  C   UNL     1       1.942  -4.402  -4.191  1.00  0.00     0.044 C 
ENDBRANCH  16  17
ENDBRANCH   6  16
TORSDOF 3
ENDMDL
MODEL 5
REMARK VINA RESULT:    -5.712      1.226      8.062
REMARK INTER + INTRA:          -7.080
REMARK INTER:                  -6.632
REMARK INTRA:                  -0.448
REMARK UNBOUND:                -0.366
REMARK SMILES Cc1ccc(CNC(=O)NC(=O)c2ccc(C)cc2)cc1
REMARK SMILES IDX 11 1 12 2 10 3 8 4 9 5 7 6 13 9 19 10 18 11 14 12 16 13
REMARK SMILES IDX 15 14 17 15 6 16 5 17 4 18 20 19 3 20 21 21 2 22 1 23
REMARK H PARENT 10 7 7 8
ROOT
ATOM      1  C   UNL     1       3.701  -4.112 -11.440  1.00  0.00     0.259 C 
ATOM      2  O   UNL     1       3.056  -4.528 -10.488  1.00  0.00    -0.269 OA
ATOM      3  N   UNL     1       4.599  -3.041 -11.488  1.00  0.00    -0.274 N 
ATOM      4  C   UNL     1       5.275  -2.245 -10.599  1.00  0.00     0.321 C 
ATOM      5  O   UNL     1       6.114  -1.461 -11.055  1.00  0.00    -0.248 OA
ATOM      6  N   UNL     1       5.092  -2.296  -9.267  1.00  0.00    -0.334 N 
ATOM      7  H   UNL     1       4.998  -2.872 -12.402  1.00  0.00     0.175 HD
ATOM      8  H   UNL     1       5.727  -1.708  -8.746  1.00  0.00     0.165 HD
ENDROOT
BRANCH   1   9
ATOM      9  C   UNL     1       3.525  -4.825 -12.720  1.00  0.00     0.040 A 
ATOM     10  C   UNL     1       2.256  -5.071 -13.248  1.00  0.00     0.014 A 
ATOM     11  C   UNL     1       2.141  -5.703 -14.487  1.00  0.00     0.004 A 
ATOM     12  C   UNL     1       4.671  -5.259 -13.393  1.00  0.00     0.014 A 
ATOM     13  C   UNL     1       3.287  -6.096 -15.195  1.00  0.00    -0.051 A 
ATOM     14  C   UNL     1       4.552  -5.884 -14.633  1.00  0.00     0.004 A 
ATOM     15  C   UNL     1       3.150  -6.697 -16.563  1.00  0.00     0.044 C 
ENDBRANCH   1   9
BRANCH   6  16
ATOM     16  C   UNL     1       4.251  -3.197  -8.532  1.00  0.00     0.153 C 
BRANCH  16  17
ATOM     17  C   UNL     1       3.425  -2.616  -7.418  1.00  0.00    -0.029 A 
ATOM     18  C   UNL     1       2.117  -3.029  -7.141  1.00  0.00     0.006 A 
ATOM     19  C   UNL     1       4.080  -1.780  -6.500  1.00  0.00     0.006 A 
ATOM     20  C   UNL     1       1.493  -2.630  -5.955  1.00  0.00     0.004 A 
ATOM     21  C   UNL     1       3.460  -1.388  -5.318  1.00  0.00     0.004 A 
ATOM     22  C   UNL     1       2.164  -1.818  -5.030  1.00  0.00    -0.051 A 
ATOM     23  C   UNL     1       1.557  -1.504  -3.695  1.00  0.00     0.044 C 
ENDBRANCH  16  17
ENDBRANCH   6  16
TORSDOF 3
ENDMDL
MODEL 6
REMARK VINA RESULT:    -5.688      3.111      7.787
REMARK INTER + INTRA:          -7.052
REMARK INTER:                  -6.600
REMARK INTRA:                  -0.451
REMARK UNBOUND:                -0.366
REMARK SMILES Cc1ccc(CNC(=O)NC(=O)c2ccc(C)cc2)cc1
REMARK SMILES IDX 11 1 12 2 10 3 8 4 9 5 7 6 13 9 19 10 18 11 14 12 16 13
REMARK SMILES IDX 15 14 17 15 6 16 5 17 4 18 20 19 3 20 21 21 2 22 1 23
REMARK H PARENT 10 7 7 8
ROOT
ATOM      1  C   UNL     1       6.350  -1.086 -10.570  1.00  0.00     0.259 C 
ATOM      2  O   UNL     1       6.068  -0.410  -9.591  1.00  0.00    -0.269 OA
ATOM      3  N   UNL     1       5.710  -2.230 -11.058  1.00  0.00    -0.274 N 
ATOM      4  C   UNL     1       4.520  -2.884 -10.869  1.00  0.00     0.321 C 
ATOM      5  O   UNL     1       4.260  -3.830 -11.619  1.00  0.00    -0.248 OA
ATOM      6  N   UNL     1       3.616  -2.530  -9.936  1.00  0.00    -0.334 N 
ATOM      7  H   UNL     1       6.143  -2.632 -11.879  1.00  0.00     0.175 HD
ATOM      8  H   UNL     1       2.756  -3.056  -9.982  1.00  0.00     0.165 HD
ENDROOT
BRANCH   1   9
ATOM      9  C   UNL     1       7.516  -0.648 -11.361  1.00  0.00     0.040 A 
ATOM     10  C   UNL     1       8.747  -0.385 -10.758  1.00  0.00     0.014 A 
ATOM     11  C   UNL     1       9.835  -0.025 -11.554  1.00  0.00     0.004 A 
ATOM     12  C   UNL     1       7.354  -0.496 -12.742  1.00  0.00     0.014 A 
ATOM     13  C   UNL     1       9.696   0.080 -12.946  1.00  0.00    -0.051 A 
ATOM     14  C   UNL     1       8.445  -0.142 -13.533  1.00  0.00     0.004 A 
ATOM     15  C   UNL     1      10.895   0.385 -13.795  1.00  0.00     0.044 C 
ENDBRANCH   1   9
BRANCH   6  16
ATOM     16  C   UNL     1       3.675  -1.409  -9.040  1.00  0.00     0.153 C 
BRANCH  16  17
ATOM     17  C   UNL     1       3.299  -1.652  -7.605  1.00  0.00    -0.029 A 
ATOM     18  C   UNL     1       3.935  -1.020  -6.532  1.00  0.00     0.006 A 
ATOM     19  C   UNL     1       2.124  -2.382  -7.363  1.00  0.00     0.006 A 
ATOM     20  C   UNL     1       3.386  -1.101  -5.247  1.00  0.00     0.004 A 
ATOM     21  C   UNL     1       1.577  -2.458  -6.086  1.00  0.00     0.004 A 
ATOM     22  C   UNL     1       2.198  -1.809  -5.018  1.00  0.00    -0.051 A 
ATOM     23  C   UNL     1       1.530  -1.781  -3.676  1.00  0.00     0.044 C 
ENDBRANCH  16  17
ENDBRANCH   6  16
TORSDOF 3
ENDMDL
MODEL 7
REMARK VINA RESULT:    -4.330      1.875      8.223
REMARK INTER + INTRA:          -5.455
REMARK INTER:                  -5.043
REMARK INTRA:                  -0.412
REMARK UNBOUND:                -0.366
REMARK SMILES Cc1ccc(CNC(=O)NC(=O)c2ccc(C)cc2)cc1
REMARK SMILES IDX 11 1 12 2 10 3 8 4 9 5 7 6 13 9 19 10 18 11 14 12 16 13
REMARK SMILES IDX 15 14 17 15 6 16 5 17 4 18 20 19 3 20 21 21 2 22 1 23
REMARK H PARENT 10 7 7 8
ROOT
ATOM      1  C   UNL     1       3.936  -3.715 -10.608  1.00  0.00     0.259 C 
ATOM      2  O   UNL     1       3.275  -2.709 -10.390  1.00  0.00    -0.269 OA
ATOM      3  N   UNL     1       4.913  -4.312  -9.805  1.00  0.00    -0.274 N 
ATOM      4  C   UNL     1       5.344  -4.231  -8.506  1.00  0.00     0.321 C 
ATOM      5  O   UNL     1       6.183  -5.057  -8.128  1.00  0.00    -0.248 OA
ATOM      6  N   UNL     1       4.882  -3.327  -7.622  1.00  0.00    -0.334 N 
ATOM      7  H   UNL     1       5.341  -5.133 -10.211  1.00  0.00     0.175 HD
ATOM      8  H   UNL     1       5.236  -3.456  -6.686  1.00  0.00     0.165 HD
ENDROOT
BRANCH   1   9
ATOM      9  C   UNL     1       3.679  -4.410 -11.884  1.00  0.00     0.040 A 
ATOM     10  C   UNL     1       2.380  -4.703 -12.304  1.00  0.00     0.014 A 
ATOM     11  C   UNL     1       2.184  -5.315 -13.543  1.00  0.00     0.004 A 
ATOM     12  C   UNL     1       4.779  -4.777 -12.665  1.00  0.00     0.014 A 
ATOM     13  C   UNL     1       3.279  -5.640 -14.358  1.00  0.00    -0.051 A 
ATOM     14  C   UNL     1       4.578  -5.382 -13.904  1.00  0.00     0.004 A 
ATOM     15  C   UNL     1       3.047  -6.220 -15.722  1.00  0.00     0.044 C 
ENDBRANCH   1   9
BRANCH   6  16
ATOM     16  C   UNL     1       3.843  -2.357  -7.824  1.00  0.00     0.153 C 
BRANCH  16  17
ATOM     17  C   UNL     1       2.947  -2.053  -6.656  1.00  0.00    -0.029 A 
ATOM     18  C   UNL     1       1.975  -2.943  -6.187  1.00  0.00     0.006 A 
ATOM     19  C   UNL     1       3.253  -0.917  -5.889  1.00  0.00     0.006 A 
ATOM     20  C   UNL     1       1.345  -2.708  -4.960  1.00  0.00     0.004 A 
ATOM     21  C   UNL     1       2.628  -0.687  -4.668  1.00  0.00     0.004 A 
ATOM     22  C   UNL     1       1.676  -1.587  -4.187  1.00  0.00    -0.051 A 
ATOM     23  C   UNL     1       1.110  -1.404  -2.811  1.00  0.00     0.044 C 
ENDBRANCH  16  17
ENDBRANCH   6  16
TORSDOF 3
ENDMDL
MODEL 8
REMARK VINA RESULT:    -4.212      2.338      3.712
REMARK INTER + INTRA:          -5.317
REMARK INTER:                  -4.962
REMARK INTRA:                  -0.355
REMARK UNBOUND:                -0.366
REMARK SMILES Cc1ccc(CNC(=O)NC(=O)c2ccc(C)cc2)cc1
REMARK SMILES IDX 11 1 12 2 10 3 8 4 9 5 7 6 13 9 19 10 18 11 14 12 16 13
REMARK SMILES IDX 15 14 17 15 6 16 5 17 4 18 20 19 3 20 21 21 2 22 1 23
REMARK H PARENT 10 7 7 8
ROOT
ATOM      1  C   UNL     1       4.172  -3.398 -10.816  1.00  0.00     0.259 C 
ATOM      2  O   UNL     1       5.152  -3.061 -11.465  1.00  0.00    -0.269 OA
ATOM      3  N   UNL     1       3.119  -4.238 -11.192  1.00  0.00    -0.274 N 
ATOM      4  C   UNL     1       2.849  -5.140 -12.189  1.00  0.00     0.321 C 
ATOM      5  O   UNL     1       1.813  -5.807 -12.094  1.00  0.00    -0.248 OA
ATOM      6  N   UNL     1       3.664  -5.355 -13.239  1.00  0.00    -0.334 N 
ATOM      7  H   UNL     1       2.404  -4.352 -10.486  1.00  0.00     0.175 HD
ATOM      8  H   UNL     1       3.365  -6.111 -13.837  1.00  0.00     0.165 HD
ENDROOT
BRANCH   1   9
ATOM      9  C   UNL     1       4.070  -2.860  -9.445  1.00  0.00     0.040 A 
ATOM     10  C   UNL     1       3.458  -1.631  -9.189  1.00  0.00     0.014 A 
ATOM     11  C   UNL     1       3.339  -1.188  -7.872  1.00  0.00     0.004 A 
ATOM     12  C   UNL     1       4.614  -3.614  -8.401  1.00  0.00     0.014 A 
ATOM     13  C   UNL     1       3.835  -1.962  -6.812  1.00  0.00    -0.051 A 
ATOM     14  C   UNL     1       4.487  -3.171  -7.086  1.00  0.00     0.004 A 
ATOM     15  C   UNL     1       3.624  -1.513  -5.396  1.00  0.00     0.044 C 
ENDBRANCH   1   9
BRANCH   6  16
ATOM     16  C   UNL     1       4.951  -4.768 -13.483  1.00  0.00     0.153 C 
BRANCH  16  17
ATOM     17  C   UNL     1       5.870  -5.490 -14.429  1.00  0.00    -0.029 A 
ATOM     18  C   UNL     1       6.019  -6.881 -14.436  1.00  0.00     0.006 A 
ATOM     19  C   UNL     1       6.430  -4.742 -15.477  1.00  0.00     0.006 A 
ATOM     20  C   UNL     1       6.696  -7.507 -15.489  1.00  0.00     0.004 A 
ATOM     21  C   UNL     1       7.099  -5.366 -16.526  1.00  0.00     0.004 A 
ATOM     22  C   UNL     1       7.229  -6.756 -16.546  1.00  0.00    -0.051 A 
ATOM     23  C   UNL     1       7.829  -7.428 -17.744  1.00  0.00     0.044 C 
ENDBRANCH  16  17
ENDBRANCH   6  16
TORSDOF 3
ENDMDL
MODEL 9
REMARK VINA RESULT:    -4.179      6.094      9.877
REMARK INTER + INTRA:          -5.278
REMARK INTER:                  -4.927
REMARK INTRA:                  -0.351
REMARK UNBOUND:                -0.366
REMARK SMILES Cc1ccc(CNC(=O)NC(=O)c2ccc(C)cc2)cc1
REMARK SMILES IDX 11 1 12 2 10 3 8 4 9 5 7 6 13 9 19 10 18 11 14 12 16 13
REMARK SMILES IDX 15 14 17 15 6 16 5 17 4 18 20 19 3 20 21 21 2 22 1 23
REMARK H PARENT 10 7 7 8
ROOT
ATOM      1  C   UNL     1       7.372  -2.283 -15.715  1.00  0.00     0.259 C 
ATOM      2  O   UNL     1       6.984  -2.160 -14.562  1.00  0.00    -0.269 OA
ATOM      3  N   UNL     1       7.798  -1.292 -16.605  1.00  0.00    -0.274 N 
ATOM      4  C   UNL     1       8.173   0.025 -16.551  1.00  0.00     0.321 C 
ATOM      5  O   UNL     1       8.631   0.534 -17.580  1.00  0.00    -0.248 OA
ATOM      6  N   UNL     1       8.098   0.775 -15.436  1.00  0.00    -0.334 N 
ATOM      7  H   UNL     1       8.053  -1.637 -17.522  1.00  0.00     0.175 HD
ATOM      8  H   UNL     1       8.493   1.699 -15.539  1.00  0.00     0.165 HD
ENDROOT
BRANCH   1   9
ATOM      9  C   UNL     1       7.406  -3.655 -16.258  1.00  0.00     0.040 A 
ATOM     10  C   UNL     1       8.269  -4.005 -17.298  1.00  0.00     0.014 A 
ATOM     11  C   UNL     1       8.303  -5.327 -17.743  1.00  0.00     0.004 A 
ATOM     12  C   UNL     1       6.539  -4.602 -15.705  1.00  0.00     0.014 A 
ATOM     13  C   UNL     1       7.474  -6.296 -17.159  1.00  0.00    -0.051 A 
ATOM     14  C   UNL     1       6.581  -5.923 -16.147  1.00  0.00     0.004 A 
ATOM     15  C   UNL     1       7.584  -7.729 -17.589  1.00  0.00     0.044 C 
ENDBRANCH   1   9
BRANCH   6  16
ATOM     16  C   UNL     1       7.698   0.354 -14.122  1.00  0.00     0.153 C 
BRANCH  16  17
ATOM     17  C   UNL     1       8.789   0.033 -13.139  1.00  0.00    -0.029 A 
ATOM     18  C   UNL     1       8.549  -0.200 -11.781  1.00  0.00     0.006 A 
ATOM     19  C   UNL     1      10.063  -0.249 -13.661  1.00  0.00     0.006 A 
ATOM     20  C   UNL     1       9.561  -0.727 -10.972  1.00  0.00     0.004 A 
ATOM     21  C   UNL     1      11.066  -0.778 -12.856  1.00  0.00     0.004 A 
ATOM     22  C   UNL     1      10.821  -1.032 -11.505  1.00  0.00    -0.051 A 
ATOM     23  C   UNL     1      11.861  -1.728 -10.680  1.00  0.00     0.044 C 
ENDBRANCH  16  17
ENDBRANCH   6  16
TORSDOF 3
ENDMDL
