MODEL 1
REMARK VINA RESULT:    -4.135      0.000      0.000
REMARK INTER + INTRA:          -5.697
REMARK INTER:                  -5.464
REMARK INTRA:                  -0.233
REMARK UNBOUND:                -0.233
REMARK SMILES [H]/N=C\C[C@H]1C[C@@H]1O[C@H]1CO[C@H]2C[C@@H](C3CC3)CCN2C1
REMARK SMILES IDX 7 1 6 2 5 3 8 4 9 5 14 6 13 7 18 8 12 9 19 10 20 11 11 12
REMARK SMILES IDX 21 13 10 14 15 15 16 16 17 17 4 18 3 19 2 20 1 21
REMARK H PARENT
ROOT
ATOM      1  C   UNL     1       3.386  -4.107 -12.114  1.00  0.00     0.122 C 
ATOM      2  C   UNL     1       4.131  -5.172 -12.868  1.00  0.00     0.039 C 
ATOM      3  C   UNL     1       2.637  -5.251 -12.742  1.00  0.00     0.026 C 
ENDROOT
BRANCH   1   4
ATOM      4  O   UNL     1       3.567  -4.163 -10.686  1.00  0.00    -0.371 OA
BRANCH   4   5
ATOM      5  C   UNL     1       4.847  -3.718 -10.206  1.00  0.00     0.158 C 
ATOM      6  C   UNL     1       3.241  -1.143  -5.964  1.00  0.00    -0.003 C 
ATOM      7  C   UNL     1       3.177  -0.912  -7.479  1.00  0.00     0.052 C 
ATOM      8  C   UNL     1       3.178  -2.650  -5.678  1.00  0.00     0.019 C 
ATOM      9  C   UNL     1       4.236  -1.735  -8.226  1.00  0.00     0.189 C 
ATOM     10  C   UNL     1       4.233  -3.414  -6.477  1.00  0.00     0.087 C 
ATOM     11  N   UNL     1       4.093  -3.156  -7.910  1.00  0.00    -0.276 NA
ATOM     12  O   UNL     1       4.049  -1.474  -9.618  1.00  0.00    -0.360 OA
ATOM     13  C   UNL     1       5.043  -3.951  -8.698  1.00  0.00     0.121 C 
ATOM     14  C   UNL     1       4.949  -2.209 -10.452  1.00  0.00     0.195 C 
BRANCH   6  15
ATOM     15  C   UNL     1       2.125  -0.419  -5.246  1.00  0.00    -0.008 C 
ATOM     16  C   UNL     1       2.423   0.436  -4.036  1.00  0.00     0.004 C 
ATOM     17  C   UNL     1       2.002   1.084  -5.323  1.00  0.00     0.004 C 
ENDBRANCH   6  15
ENDBRANCH   4   5
ENDBRANCH   1   4
BRANCH   3  18
ATOM     18  C   UNL     1       1.792  -5.022 -13.960  1.00  0.00     0.053 C 
BRANCH  18  19
ATOM     19  C   UNL     1       2.130  -5.854 -15.170  1.00  0.00     0.074 C 
BRANCH  19  20
ATOM     20  N   UNL     1       1.564  -6.964 -15.509  1.00  0.00    -0.313 NA
ATOM     21  H   UNL     1       0.919  -7.299 -14.779  1.00  0.00     0.186 HD
ENDBRANCH  19  20
ENDBRANCH  18  19
ENDBRANCH   3  18
TORSDOF 6
ENDMDL
MODEL 2
REMARK VINA RESULT:    -4.011      3.183      5.446
REMARK INTER + INTRA:          -5.533
REMARK INTER:                  -5.250
REMARK INTRA:                  -0.284
REMARK UNBOUND:                -0.233
REMARK SMILES [H]/N=C\C[C@H]1C[C@@H]1O[C@H]1CO[C@H]2C[C@@H](C3CC3)CCN2C1
REMARK SMILES IDX 7 1 6 2 5 3 8 4 9 5 14 6 13 7 18 8 12 9 19 10 20 11 11 12
REMARK SMILES IDX 21 13 10 14 15 15 16 16 17 17 4 18 3 19 2 20 1 21
REMARK H PARENT
ROOT
ATOM      1  C   UNL     1       6.996  -0.664 -10.938  1.00  0.00     0.122 C 
ATOM      2  C   UNL     1       7.474   0.502 -10.120  1.00  0.00     0.039 C 
ATOM      3  C   UNL     1       8.443  -0.567 -10.536  1.00  0.00     0.026 C 
ENDROOT
BRANCH   1   4
ATOM      4  O   UNL     1       6.185  -1.602 -10.206  1.00  0.00    -0.371 OA
BRANCH   4   5
ATOM      5  C   UNL     1       4.887  -1.867 -10.765  1.00  0.00     0.158 C 
ATOM      6  C   UNL     1       2.290  -2.746  -6.328  1.00  0.00    -0.003 C 
ATOM      7  C   UNL     1       3.342  -3.499  -7.152  1.00  0.00     0.052 C 
ATOM      8  C   UNL     1       2.517  -1.235  -6.474  1.00  0.00     0.019 C 
ATOM      9  C   UNL     1       3.383  -3.009  -8.607  1.00  0.00     0.189 C 
ATOM     10  C   UNL     1       2.582  -0.819  -7.943  1.00  0.00     0.087 C 
ATOM     11  N   UNL     1       3.619  -1.567  -8.653  1.00  0.00    -0.276 NA
ATOM     12  O   UNL     1       4.422  -3.745  -9.256  1.00  0.00    -0.360 OA
ATOM     13  C   UNL     1       3.753  -1.117 -10.044  1.00  0.00     0.121 C 
ATOM     14  C   UNL     1       4.605  -3.366 -10.624  1.00  0.00     0.195 C 
BRANCH   6  15
ATOM     15  C   UNL     1       2.333  -3.151  -4.872  1.00  0.00    -0.008 C 
ATOM     16  C   UNL     1       1.089  -3.662  -4.184  1.00  0.00     0.004 C 
ATOM     17  C   UNL     1       2.224  -4.602  -4.469  1.00  0.00     0.004 C 
ENDBRANCH   6  15
ENDBRANCH   4   5
ENDBRANCH   1   4
BRANCH   3  18
ATOM     18  C   UNL     1       9.491  -0.241 -11.557  1.00  0.00     0.053 C 
BRANCH  18  19
ATOM     19  C   UNL     1      10.806  -0.963 -11.417  1.00  0.00     0.074 C 
BRANCH  19  20
ATOM     20  N   UNL     1      11.154  -2.032 -12.053  1.00  0.00    -0.313 NA
ATOM     21  H   UNL     1      11.096  -1.903 -13.073  1.00  0.00     0.186 HD
ENDBRANCH  19  20
ENDBRANCH  18  19
ENDBRANCH   3  18
TORSDOF 6
ENDMDL
MODEL 3
REMARK VINA RESULT:    -3.968      1.454      1.774
REMARK INTER + INTRA:          -5.477
REMARK INTER:                  -5.771
REMARK INTRA:                   0.294
REMARK UNBOUND:                -0.233
REMARK SMILES [H]/N=C\C[C@H]1C[C@@H]1O[C@H]1CO[C@H]2C[C@@H](C3CC3)CCN2C1
REMARK SMILES IDX 7 1 6 2 5 3 8 4 9 5 14 6 13 7 18 8 12 9 19 10 20 11 11 12
REMARK SMILES IDX 21 13 10 14 15 15 16 16 17 17 4 18 3 19 2 20 1 21
REMARK H PARENT
ROOT
ATOM      1  C   UNL     1       3.533  -5.254 -11.695  1.00  0.00     0.122 C 
ATOM      2  C   UNL     1       2.521  -5.095 -12.794  1.00  0.00     0.039 C 
ATOM      3  C   UNL     1       3.977  -4.859 -13.077  1.00  0.00     0.026 C 
ENDROOT
BRANCH   1   4
ATOM      4  O   UNL     1       3.495  -4.207 -10.706  1.00  0.00    -0.371 OA
BRANCH   4   5
ATOM      5  C   UNL     1       4.774  -3.705 -10.286  1.00  0.00     0.158 C 
ATOM      6  C   UNL     1       3.240  -1.127  -6.019  1.00  0.00    -0.003 C 
ATOM      7  C   UNL     1       3.106  -0.923  -7.533  1.00  0.00     0.052 C 
ATOM      8  C   UNL     1       3.248  -2.630  -5.709  1.00  0.00     0.019 C 
ATOM      9  C   UNL     1       4.165  -1.716  -8.311  1.00  0.00     0.189 C 
ATOM     10  C   UNL     1       4.299  -3.366  -6.539  1.00  0.00     0.087 C 
ATOM     11  N   UNL     1       4.092  -3.136  -7.969  1.00  0.00    -0.276 NA
ATOM     12  O   UNL     1       3.912  -1.484  -9.698  1.00  0.00    -0.360 OA
ATOM     13  C   UNL     1       5.040  -3.906  -8.783  1.00  0.00     0.121 C 
ATOM     14  C   UNL     1       4.807  -2.198 -10.557  1.00  0.00     0.195 C 
BRANCH   6  15
ATOM     15  C   UNL     1       2.126  -0.436  -5.266  1.00  0.00    -0.008 C 
ATOM     16  C   UNL     1       2.432   0.397  -4.043  1.00  0.00     0.004 C 
ATOM     17  C   UNL     1       1.979   1.066  -5.308  1.00  0.00     0.004 C 
ENDBRANCH   6  15
ENDBRANCH   4   5
ENDBRANCH   1   4
BRANCH   3  18
ATOM     18  C   UNL     1       4.717  -5.837 -13.940  1.00  0.00     0.053 C 
BRANCH  18  19
ATOM     19  C   UNL     1       5.967  -5.324 -14.606  1.00  0.00     0.074 C 
BRANCH  19  20
ATOM     20  N   UNL     1       6.370  -4.097 -14.619  1.00  0.00    -0.313 NA
ATOM     21  H   UNL     1       5.975  -3.576 -15.415  1.00  0.00     0.186 HD
ENDBRANCH  19  20
ENDBRANCH  18  19
ENDBRANCH   3  18
TORSDOF 6
ENDMDL
MODEL 4
REMARK VINA RESULT:    -3.761      6.575      7.958
REMARK INTER + INTRA:          -5.204
REMARK INTER:                  -5.036
REMARK INTRA:                  -0.168
REMARK UNBOUND:                -0.233
REMARK SMILES [H]/N=C\C[C@H]1C[C@@H]1O[C@H]1CO[C@H]2C[C@@H](C3CC3)CCN2C1
REMARK SMILES IDX 7 1 6 2 5 3 8 4 9 5 14 6 13 7 18 8 12 9 19 10 20 11 11 12
REMARK SMILES IDX 21 13 10 14 15 15 16 16 17 17 4 18 3 19 2 20 1 21
REMARK H PARENT
ROOT
ATOM      1  C   UNL     1      10.979  -2.497 -15.935  1.00  0.00     0.122 C 
ATOM      2  C   UNL     1      12.478  -2.384 -15.949  1.00  0.00     0.039 C 
ATOM      3  C   UNL     1      11.829  -3.732 -15.815  1.00  0.00     0.026 C 
ENDROOT
BRANCH   1   4
ATOM      4  O   UNL     1      10.365  -2.016 -14.724  1.00  0.00    -0.371 OA
BRANCH   4   5
ATOM      5  C   UNL     1       9.934  -0.646 -14.749  1.00  0.00     0.158 C 
ATOM      6  C   UNL     1       6.482  -0.840 -10.844  1.00  0.00    -0.003 C 
ATOM      7  C   UNL     1       6.541  -1.363 -12.285  1.00  0.00     0.052 C 
ATOM      8  C   UNL     1       7.897  -0.831 -10.249  1.00  0.00     0.019 C 
ATOM      9  C   UNL     1       7.568  -0.595 -13.127  1.00  0.00     0.189 C 
ATOM     10  C   UNL     1       8.877  -0.082 -11.152  1.00  0.00     0.087 C 
ATOM     11  N   UNL     1       8.888  -0.651 -12.499  1.00  0.00    -0.276 NA
ATOM     12  O   UNL     1       7.565  -1.197 -14.423  1.00  0.00    -0.360 OA
ATOM     13  C   UNL     1       9.887   0.001 -13.354  1.00  0.00     0.121 C 
ATOM     14  C   UNL     1       8.512  -0.605 -15.318  1.00  0.00     0.195 C 
BRANCH   6  15
ATOM     15  C   UNL     1       5.553  -1.673  -9.989  1.00  0.00    -0.008 C 
ATOM     16  C   UNL     1       4.075  -1.364  -9.944  1.00  0.00     0.004 C 
ATOM     17  C   UNL     1       4.556  -2.614 -10.621  1.00  0.00     0.004 C 
ENDBRANCH   6  15
ENDBRANCH   4   5
ENDBRANCH   1   4
BRANCH   3  18
ATOM     18  C   UNL     1      11.922  -4.699 -16.957  1.00  0.00     0.053 C 
BRANCH  18  19
ATOM     19  C   UNL     1      13.091  -5.649 -16.932  1.00  0.00     0.074 C 
BRANCH  19  20
ATOM     20  N   UNL     1      13.068  -6.867 -16.503  1.00  0.00    -0.313 NA
ATOM     21  H   UNL     1      12.818  -7.529 -17.251  1.00  0.00     0.186 HD
ENDBRANCH  19  20
ENDBRANCH  18  19
ENDBRANCH   3  18
TORSDOF 6
ENDMDL
MODEL 5
REMARK VINA RESULT:    -3.631      7.114      8.605
REMARK INTER + INTRA:          -5.032
REMARK INTER:                  -4.406
REMARK INTRA:                  -0.626
REMARK UNBOUND:                -0.233
REMARK SMILES [H]/N=C\C[C@H]1C[C@@H]1O[C@H]1CO[C@H]2C[C@@H](C3CC3)CCN2C1
REMARK SMILES IDX 7 1 6 2 5 3 8 4 9 5 14 6 13 7 18 8 12 9 19 10 20 11 11 12
REMARK SMILES IDX 21 13 10 14 15 15 16 16 17 17 4 18 3 19 2 20 1 21
REMARK H PARENT
ROOT
ATOM      1  C   UNL     1      10.697  -2.273 -17.244  1.00  0.00     0.122 C 
ATOM      2  C   UNL     1      10.896  -3.709 -17.639  1.00  0.00     0.039 C 
ATOM      3  C   UNL     1       9.797  -3.341 -16.684  1.00  0.00     0.026 C 
ENDROOT
BRANCH   1   4
ATOM      4  O   UNL     1      11.714  -1.760 -16.363  1.00  0.00    -0.371 OA
BRANCH   4   5
ATOM      5  C   UNL     1      11.735  -0.331 -16.207  1.00  0.00     0.158 C 
ATOM      6  C   UNL     1       9.151  -0.002 -11.688  1.00  0.00    -0.003 C 
ATOM      7  C   UNL     1       8.786  -0.331 -13.140  1.00  0.00     0.052 C 
ATOM      8  C   UNL     1      10.581  -0.483 -11.403  1.00  0.00     0.019 C 
ATOM      9  C   UNL     1       9.833   0.203 -14.127  1.00  0.00     0.189 C 
ATOM     10  C   UNL     1      11.568   0.055 -12.439  1.00  0.00     0.087 C 
ATOM     11  N   UNL     1      11.160  -0.317 -13.793  1.00  0.00    -0.276 NA
ATOM     12  O   UNL     1       9.411  -0.202 -15.430  1.00  0.00    -0.360 OA
ATOM     13  C   UNL     1      12.142   0.118 -14.792  1.00  0.00     0.121 C 
ATOM     14  C   UNL     1      10.319   0.196 -16.462  1.00  0.00     0.195 C 
BRANCH   6  15
ATOM     15  C   UNL     1       8.177  -0.628 -10.715  1.00  0.00    -0.008 C 
ATOM     16  C   UNL     1       7.170   0.229  -9.986  1.00  0.00     0.004 C 
ATOM     17  C   UNL     1       6.708  -0.726 -11.047  1.00  0.00     0.004 C 
ENDBRANCH   6  15
ENDBRANCH   4   5
ENDBRANCH   1   4
BRANCH   3  18
ATOM     18  C   UNL     1       8.373  -3.445 -17.141  1.00  0.00     0.053 C 
BRANCH  18  19
ATOM     19  C   UNL     1       7.320  -3.078 -16.128  1.00  0.00     0.074 C 
BRANCH  19  20
ATOM     20  N   UNL     1       6.953  -1.880 -15.816  1.00  0.00    -0.313 NA
ATOM     21  H   UNL     1       7.764  -1.269 -15.638  1.00  0.00     0.186 HD
ENDBRANCH  19  20
ENDBRANCH  18  19
ENDBRANCH   3  18
TORSDOF 6
ENDMDL
MODEL 6
REMARK VINA RESULT:    -3.626      5.796      7.256
REMARK INTER + INTRA:          -5.025
REMARK INTER:                  -4.571
REMARK INTRA:                  -0.454
REMARK UNBOUND:                -0.233
REMARK SMILES [H]/N=C\C[C@H]1C[C@@H]1O[C@H]1CO[C@H]2C[C@@H](C3CC3)CCN2C1
REMARK SMILES IDX 7 1 6 2 5 3 8 4 9 5 14 6 13 7 18 8 12 9 19 10 20 11 11 12
REMARK SMILES IDX 21 13 10 14 15 15 16 16 17 17 4 18 3 19 2 20 1 21
REMARK H PARENT
ROOT
ATOM      1  C   UNL     1      10.021  -2.119 -16.621  1.00  0.00     0.122 C 
ATOM      2  C   UNL     1      10.857  -3.305 -17.012  1.00  0.00     0.039 C 
ATOM      3  C   UNL     1       9.426  -3.500 -16.600  1.00  0.00     0.026 C 
ENDROOT
BRANCH   1   4
ATOM      4  O   UNL     1      10.371  -1.548 -15.346  1.00  0.00    -0.371 OA
BRANCH   4   5
ATOM      5  C   UNL     1      10.010  -0.169 -15.164  1.00  0.00     0.158 C 
ATOM      6  C   UNL     1       6.879  -0.718 -11.029  1.00  0.00    -0.003 C 
ATOM      7  C   UNL     1       6.795  -1.055 -12.522  1.00  0.00     0.052 C 
ATOM      8  C   UNL     1       8.337  -0.842 -10.562  1.00  0.00     0.019 C 
ATOM      9  C   UNL     1       7.789  -0.229 -13.350  1.00  0.00     0.189 C 
ATOM     10  C   UNL     1       9.278  -0.025 -11.447  1.00  0.00     0.087 C 
ATOM     11  N   UNL     1       9.151  -0.418 -12.850  1.00  0.00    -0.276 NA
ATOM     12  O   UNL     1       7.650  -0.660 -14.705  1.00  0.00    -0.360 OA
ATOM     13  C   UNL     1      10.109   0.296 -13.701  1.00  0.00     0.121 C 
ATOM     14  C   UNL     1       8.551   0.002 -15.599  1.00  0.00     0.195 C 
BRANCH   6  15
ATOM     15  C   UNL     1       5.981  -1.614 -10.206  1.00  0.00    -0.008 C 
ATOM     16  C   UNL     1       4.519  -1.276 -10.031  1.00  0.00     0.004 C 
ATOM     17  C   UNL     1       4.917  -2.458 -10.866  1.00  0.00     0.004 C 
ENDBRANCH   6  15
ENDBRANCH   4   5
ENDBRANCH   1   4
BRANCH   3  18
ATOM     18  C   UNL     1       8.421  -3.906 -17.635  1.00  0.00     0.053 C 
BRANCH  18  19
ATOM     19  C   UNL     1       6.980  -3.595 -17.324  1.00  0.00     0.074 C 
BRANCH  19  20
ATOM     20  N   UNL     1       6.562  -2.725 -16.465  1.00  0.00    -0.313 NA
ATOM     21  H   UNL     1       6.893  -1.777 -16.693  1.00  0.00     0.186 HD
ENDBRANCH  19  20
ENDBRANCH  18  19
ENDBRANCH   3  18
TORSDOF 6
ENDMDL
MODEL 7
REMARK VINA RESULT:    -3.563      4.983      8.300
REMARK INTER + INTRA:          -4.942
REMARK INTER:                  -5.004
REMARK INTRA:                   0.062
REMARK UNBOUND:                -0.233
REMARK SMILES [H]/N=C\C[C@H]1C[C@@H]1O[C@H]1CO[C@H]2C[C@@H](C3CC3)CCN2C1
REMARK SMILES IDX 7 1 6 2 5 3 8 4 9 5 14 6 13 7 18 8 12 9 19 10 20 11 11 12
REMARK SMILES IDX 21 13 10 14 15 15 16 16 17 17 4 18 3 19 2 20 1 21
REMARK H PARENT
ROOT
ATOM      1  C   UNL     1       4.913  -2.220 -10.114  1.00  0.00     0.122 C 
ATOM      2  C   UNL     1       4.440  -3.622 -10.379  1.00  0.00     0.039 C 
ATOM      3  C   UNL     1       5.141  -3.299  -9.091  1.00  0.00     0.026 C 
ENDROOT
BRANCH   1   4
ATOM      4  O   UNL     1       6.053  -1.827 -10.902  1.00  0.00    -0.371 OA
BRANCH   4   5
ATOM      5  C   UNL     1       6.259  -0.410 -11.028  1.00  0.00     0.158 C 
ATOM      6  C   UNL     1      11.024  -0.500 -13.147  1.00  0.00    -0.003 C 
ATOM      7  C   UNL     1      10.433  -0.788 -11.762  1.00  0.00     0.052 C 
ATOM      8  C   UNL     1       9.999  -0.879 -14.225  1.00  0.00     0.019 C 
ATOM      9  C   UNL     1       9.060  -0.127 -11.580  1.00  0.00     0.189 C 
ATOM     10  C   UNL     1       8.646  -0.217 -13.968  1.00  0.00     0.087 C 
ATOM     11  N   UNL     1       8.143  -0.555 -12.637  1.00  0.00    -0.276 NA
ATOM     12  O   UNL     1       8.594  -0.502 -10.282  1.00  0.00    -0.360 OA
ATOM     13  C   UNL     1       6.805   0.002 -12.407  1.00  0.00     0.121 C 
ATOM     14  C   UNL     1       7.294   0.015  -9.982  1.00  0.00     0.195 C 
BRANCH   6  15
ATOM     15  C   UNL     1      12.322  -1.246 -13.362  1.00  0.00    -0.008 C 
ATOM     16  C   UNL     1      13.534  -0.928 -12.520  1.00  0.00     0.004 C 
ATOM     17  C   UNL     1      12.823  -2.237 -12.340  1.00  0.00     0.004 C 
ENDBRANCH   6  15
ENDBRANCH   4   5
ENDBRANCH   1   4
BRANCH   3  18
ATOM     18  C   UNL     1       4.356  -3.307  -7.814  1.00  0.00     0.053 C 
BRANCH  18  19
ATOM     19  C   UNL     1       4.909  -4.154  -6.697  1.00  0.00     0.074 C 
BRANCH  19  20
ATOM     20  N   UNL     1       5.704  -5.162  -6.834  1.00  0.00    -0.313 NA
ATOM     21  H   UNL     1       5.817  -5.425  -7.823  1.00  0.00     0.186 HD
ENDBRANCH  19  20
ENDBRANCH  18  19
ENDBRANCH   3  18
TORSDOF 6
ENDMDL
MODEL 8
REMARK VINA RESULT:    -3.163      6.885     10.376
REMARK INTER + INTRA:          -4.414
REMARK INTER:                  -4.105
REMARK INTRA:                  -0.309
REMARK UNBOUND:                -0.233
REMARK SMILES [H]/N=C\C[C@H]1C[C@@H]1O[C@H]1CO[C@H]2C[C@@H](C3CC3)CCN2C1
REMARK SMILES IDX 7 1 6 2 5 3 8 4 9 5 14 6 13 7 18 8 12 9 19 10 20 11 11 12
REMARK SMILES IDX 21 13 10 14 15 15 16 16 17 17 4 18 3 19 2 20 1 21
REMARK H PARENT
ROOT
ATOM      1  C   UNL     1       7.833  -0.674 -10.625  1.00  0.00     0.122 C 
ATOM      2  C   UNL     1       6.772   0.321 -11.004  1.00  0.00     0.039 C 
ATOM      3  C   UNL     1       6.410  -1.124 -10.817  1.00  0.00     0.026 C 
ENDROOT
BRANCH   1   4
ATOM      4  O   UNL     1       8.755  -0.982 -11.688  1.00  0.00    -0.371 OA
BRANCH   4   5
ATOM      5  C   UNL     1      10.045  -0.357 -11.589  1.00  0.00     0.158 C 
ATOM      6  C   UNL     1      12.202  -2.323 -15.912  1.00  0.00    -0.003 C 
ATOM      7  C   UNL     1      11.814  -2.869 -14.532  1.00  0.00     0.052 C 
ATOM      8  C   UNL     1      11.220  -1.214 -16.313  1.00  0.00     0.019 C 
ATOM      9  C   UNL     1      11.679  -1.747 -13.493  1.00  0.00     0.189 C 
ATOM     10  C   UNL     1      11.105  -0.148 -15.223  1.00  0.00     0.087 C 
ATOM     11  N   UNL     1      10.714  -0.745 -13.946  1.00  0.00    -0.276 NA
ATOM     12  O   UNL     1      11.273  -2.368 -12.272  1.00  0.00    -0.360 OA
ATOM     13  C   UNL     1      10.516   0.275 -12.911  1.00  0.00     0.121 C 
ATOM     14  C   UNL     1      11.068  -1.432 -11.209  1.00  0.00     0.195 C 
BRANCH   6  15
ATOM     15  C   UNL     1      12.222  -3.417 -16.955  1.00  0.00    -0.008 C 
ATOM     16  C   UNL     1      13.535  -3.965 -17.463  1.00  0.00     0.004 C 
ATOM     17  C   UNL     1      12.654  -4.819 -16.598  1.00  0.00     0.004 C 
ENDBRANCH   6  15
ENDBRANCH   4   5
ENDBRANCH   1   4
BRANCH   3  18
ATOM     18  C   UNL     1       5.576  -1.517  -9.634  1.00  0.00     0.053 C 
BRANCH  18  19
ATOM     19  C   UNL     1       4.105  -1.712  -9.892  1.00  0.00     0.074 C 
BRANCH  19  20
ATOM     20  N   UNL     1       3.274  -0.798 -10.269  1.00  0.00    -0.313 NA
ATOM     21  H   UNL     1       3.165  -0.782 -11.293  1.00  0.00     0.186 HD
ENDBRANCH  19  20
ENDBRANCH  18  19
ENDBRANCH   3  18
TORSDOF 6
ENDMDL
MODEL 9
REMARK VINA RESULT:    -3.131      6.774      8.631
REMARK INTER + INTRA:          -4.371
REMARK INTER:                  -4.124
REMARK INTRA:                  -0.247
REMARK UNBOUND:                -0.233
REMARK SMILES [H]/N=C\C[C@H]1C[C@@H]1O[C@H]1CO[C@H]2C[C@@H](C3CC3)CCN2C1
REMARK SMILES IDX 7 1 6 2 5 3 8 4 9 5 14 6 13 7 18 8 12 9 19 10 20 11 11 12
REMARK SMILES IDX 21 13 10 14 15 15 16 16 17 17 4 18 3 19 2 20 1 21
REMARK H PARENT
ROOT
ATOM      1  C   UNL     1       6.306  -5.156 -15.592  1.00  0.00     0.122 C 
ATOM      2  C   UNL     1       6.390  -6.393 -14.743  1.00  0.00     0.039 C 
ATOM      3  C   UNL     1       5.273  -5.413 -14.528  1.00  0.00     0.026 C 
ENDROOT
BRANCH   1   4
ATOM      4  O   UNL     1       7.310  -4.168 -15.291  1.00  0.00    -0.371 OA
BRANCH   4   5
ATOM      5  C   UNL     1       7.875  -3.493 -16.426  1.00  0.00     0.158 C 
ATOM      6  C   UNL     1      11.764  -1.003 -14.002  1.00  0.00    -0.003 C 
ATOM      7  C   UNL     1      10.238  -0.864 -14.058  1.00  0.00     0.052 C 
ATOM      8  C   UNL     1      12.145  -2.482 -14.152  1.00  0.00     0.019 C 
ATOM      9  C   UNL     1       9.650  -1.538 -15.306  1.00  0.00     0.189 C 
ATOM     10  C   UNL     1      11.501  -3.101 -15.392  1.00  0.00     0.087 C 
ATOM     11  N   UNL     1      10.047  -2.945 -15.361  1.00  0.00    -0.276 NA
ATOM     12  O   UNL     1       8.232  -1.384 -15.223  1.00  0.00    -0.360 OA
ATOM     13  C   UNL     1       9.407  -3.610 -16.501  1.00  0.00     0.121 C 
ATOM     14  C   UNL     1       7.537  -2.003 -16.311  1.00  0.00     0.195 C 
BRANCH   6  15
ATOM     15  C   UNL     1      12.325  -0.438 -12.717  1.00  0.00    -0.008 C 
ATOM     16  C   UNL     1      13.215   0.783 -12.743  1.00  0.00     0.004 C 
ATOM     17  C   UNL     1      11.831   0.880 -12.170  1.00  0.00     0.004 C 
ENDBRANCH   6  15
ENDBRANCH   4   5
ENDBRANCH   1   4
BRANCH   3  18
ATOM     18  C   UNL     1       3.878  -5.806 -14.909  1.00  0.00     0.053 C 
BRANCH  18  19
ATOM     19  C   UNL     1       2.784  -5.381 -13.964  1.00  0.00     0.074 C 
BRANCH  19  20
ATOM     20  N   UNL     1       1.604  -4.979 -14.303  1.00  0.00    -0.313 NA
ATOM     21  H   UNL     1       1.646  -4.150 -14.913  1.00  0.00     0.186 HD
ENDBRANCH  19  20
ENDBRANCH  18  19
ENDBRANCH   3  18
TORSDOF 6
ENDMDL
