MODEL 1
REMARK VINA RESULT:    -4.288      0.000      0.000
REMARK INTER + INTRA:          -5.961
REMARK INTER:                  -5.666
REMARK INTRA:                  -0.294
REMARK UNBOUND:                -0.294
REMARK SMILES [H]/N=C\C[C@H]1C[C@@H]1O[C@H]1CO[C@H]2C[C@@H](C3CC3)CCN2C1
REMARK SMILES IDX 7 1 6 2 5 3 8 4 9 5 14 6 13 7 18 8 12 9 19 10 20 11 11 12
REMARK SMILES IDX 21 13 10 14 15 15 16 16 17 17 4 18 3 19 2 20 1 21
REMARK H PARENT
ROOT
ATOM      1  C   UNL     1       8.124 -15.442 -11.982  1.00  0.00     0.122 C 
ATOM      2  C   UNL     1       8.449 -15.296 -13.442  1.00  0.00     0.039 C 
ATOM      3  C   UNL     1       8.736 -14.167 -12.494  1.00  0.00     0.026 C 
ENDROOT
BRANCH   1   4
ATOM      4  O   UNL     1       6.715 -15.408 -11.688  1.00  0.00    -0.371 OA
BRANCH   4   5
ATOM      5  C   UNL     1       6.297 -16.201 -10.564  1.00  0.00     0.158 C 
ATOM      6  C   UNL     1       3.962 -12.454  -7.787  1.00  0.00    -0.003 C 
ATOM      7  C   UNL     1       5.409 -12.822  -8.136  1.00  0.00     0.052 C 
ATOM      8  C   UNL     1       3.043 -12.848  -8.952  1.00  0.00     0.019 C 
ATOM      9  C   UNL     1       5.536 -14.290  -8.565  1.00  0.00     0.189 C 
ATOM     10  C   UNL     1       3.243 -14.309  -9.352  1.00  0.00     0.087 C 
ATOM     11  N   UNL     1       4.642 -14.574  -9.687  1.00  0.00    -0.276 NA
ATOM     12  O   UNL     1       6.908 -14.499  -8.906  1.00  0.00    -0.360 OA
ATOM     13  C   UNL     1       4.834 -15.951 -10.156  1.00  0.00     0.121 C 
ATOM     14  C   UNL     1       7.175 -15.827  -9.365  1.00  0.00     0.195 C 
BRANCH   6  15
ATOM     15  C   UNL     1       3.823 -10.980  -7.477  1.00  0.00    -0.008 C 
ATOM     16  C   UNL     1       2.939 -10.518  -6.343  1.00  0.00     0.004 C 
ATOM     17  C   UNL     1       4.430 -10.393  -6.225  1.00  0.00     0.004 C 
ENDBRANCH   6  15
ENDBRANCH   4   5
ENDBRANCH   1   4
BRANCH   3  18
ATOM     18  C   UNL     1      10.162 -13.831 -12.174  1.00  0.00     0.053 C 
BRANCH  18  19
ATOM     19  C   UNL     1      10.459 -12.379 -11.901  1.00  0.00     0.074 C 
BRANCH  19  20
ATOM     20  N   UNL     1      10.725 -11.480 -12.789  1.00  0.00    -0.313 NA
ATOM     21  H   UNL     1       9.990 -11.428 -13.508  1.00  0.00     0.186 HD
ENDBRANCH  19  20
ENDBRANCH  18  19
ENDBRANCH   3  18
TORSDOF 6
ENDMDL
MODEL 2
REMARK VINA RESULT:    -4.130      5.627      8.822
REMARK INTER + INTRA:          -5.753
REMARK INTER:                  -5.582
REMARK INTRA:                  -0.171
REMARK UNBOUND:                -0.294
REMARK SMILES [H]/N=C\C[C@H]1C[C@@H]1O[C@H]1CO[C@H]2C[C@@H](C3CC3)CCN2C1
REMARK SMILES IDX 7 1 6 2 5 3 8 4 9 5 14 6 13 7 18 8 12 9 19 10 20 11 11 12
REMARK SMILES IDX 21 13 10 14 15 15 16 16 17 17 4 18 3 19 2 20 1 21
REMARK H PARENT
ROOT
ATOM      1  C   UNL     1       3.433 -10.782  -6.078  1.00  0.00     0.122 C 
ATOM      2  C   UNL     1       3.789 -11.324  -7.434  1.00  0.00     0.039 C 
ATOM      3  C   UNL     1       4.876 -10.924  -6.478  1.00  0.00     0.026 C 
ENDROOT
BRANCH   1   4
ATOM      4  O   UNL     1       2.885  -9.450  -6.103  1.00  0.00    -0.371 OA
BRANCH   4   5
ATOM      5  C   UNL     1       1.542  -9.343  -6.602  1.00  0.00     0.158 C 
ATOM      6  C   UNL     1      -0.394  -6.152  -2.958  1.00  0.00    -0.003 C 
ATOM      7  C   UNL     1       0.034  -7.624  -3.014  1.00  0.00     0.052 C 
ATOM      8  C   UNL     1       0.483  -5.332  -3.914  1.00  0.00     0.019 C 
ATOM      9  C   UNL     1       0.057  -8.156  -4.454  1.00  0.00     0.189 C 
ATOM     10  C   UNL     1       0.491  -5.933  -5.320  1.00  0.00     0.087 C 
ATOM     11  N   UNL     1       0.927  -7.329  -5.290  1.00  0.00    -0.276 NA
ATOM     12  O   UNL     1       0.511  -9.509  -4.382  1.00  0.00    -0.360 OA
ATOM     13  C   UNL     1       1.023  -7.894  -6.640  1.00  0.00     0.121 C 
ATOM     14  C   UNL     1       0.621 -10.132  -5.665  1.00  0.00     0.195 C 
BRANCH   6  15
ATOM     15  C   UNL     1      -0.305  -5.602  -1.553  1.00  0.00    -0.008 C 
ATOM     16  C   UNL     1      -1.339  -4.622  -1.049  1.00  0.00     0.004 C 
ATOM     17  C   UNL     1      -1.300  -6.017  -0.495  1.00  0.00     0.004 C 
ENDBRANCH   6  15
ENDBRANCH   4   5
ENDBRANCH   1   4
BRANCH   3  18
ATOM     18  C   UNL     1       5.730 -11.991  -5.861  1.00  0.00     0.053 C 
BRANCH  18  19
ATOM     19  C   UNL     1       6.489 -12.873  -6.818  1.00  0.00     0.074 C 
BRANCH  19  20
ATOM     20  N   UNL     1       7.639 -12.608  -7.343  1.00  0.00    -0.313 NA
ATOM     21  H   UNL     1       8.412 -12.855  -6.709  1.00  0.00     0.186 HD
ENDBRANCH  19  20
ENDBRANCH  18  19
ENDBRANCH   3  18
TORSDOF 6
ENDMDL
MODEL 3
REMARK VINA RESULT:    -4.128      8.812     10.966
REMARK INTER + INTRA:          -5.750
REMARK INTER:                  -5.508
REMARK INTRA:                  -0.242
REMARK UNBOUND:                -0.294
REMARK SMILES [H]/N=C\C[C@H]1C[C@@H]1O[C@H]1CO[C@H]2C[C@@H](C3CC3)CCN2C1
REMARK SMILES IDX 7 1 6 2 5 3 8 4 9 5 14 6 13 7 18 8 12 9 19 10 20 11 11 12
REMARK SMILES IDX 21 13 10 14 15 15 16 16 17 17 4 18 3 19 2 20 1 21
REMARK H PARENT
ROOT
ATOM      1  C   UNL     1      -1.513 -10.971  -6.472  1.00  0.00     0.122 C 
ATOM      2  C   UNL     1      -1.775 -12.437  -6.270  1.00  0.00     0.039 C 
ATOM      3  C   UNL     1      -2.920 -11.500  -6.532  1.00  0.00     0.026 C 
ENDROOT
BRANCH   1   4
ATOM      4  O   UNL     1      -1.138 -10.270  -5.271  1.00  0.00    -0.371 OA
BRANCH   4   5
ATOM      5  C   UNL     1       0.211 -10.485  -4.824  1.00  0.00     0.158 C 
ATOM      6  C   UNL     1       1.372  -5.589  -3.452  1.00  0.00    -0.003 C 
ATOM      7  C   UNL     1       1.167  -6.340  -4.774  1.00  0.00     0.052 C 
ATOM      8  C   UNL     1       0.463  -6.199  -2.376  1.00  0.00     0.019 C 
ATOM      9  C   UNL     1       1.334  -7.856  -4.599  1.00  0.00     0.189 C 
ATOM     10  C   UNL     1       0.653  -7.712  -2.276  1.00  0.00     0.087 C 
ATOM     11  N   UNL     1       0.422  -8.355  -3.570  1.00  0.00    -0.276 NA
ATOM     12  O   UNL     1       1.077  -8.445  -5.875  1.00  0.00    -0.360 OA
ATOM     13  C   UNL     1       0.515  -9.816  -3.472  1.00  0.00     0.121 C 
ATOM     14  C   UNL     1       1.159  -9.873  -5.860  1.00  0.00     0.195 C 
BRANCH   6  15
ATOM     15  C   UNL     1       1.094  -4.111  -3.606  1.00  0.00    -0.008 C 
ATOM     16  C   UNL     1       2.078  -3.090  -3.085  1.00  0.00     0.004 C 
ATOM     17  C   UNL     1       1.900  -3.268  -4.565  1.00  0.00     0.004 C 
ENDBRANCH   6  15
ENDBRANCH   4   5
ENDBRANCH   1   4
BRANCH   3  18
ATOM     18  C   UNL     1      -3.642 -11.583  -7.843  1.00  0.00     0.053 C 
BRANCH  18  19
ATOM     19  C   UNL     1      -4.099 -12.955  -8.266  1.00  0.00     0.074 C 
BRANCH  19  20
ATOM     20  N   UNL     1      -5.081 -13.618  -7.751  1.00  0.00    -0.313 NA
ATOM     21  H   UNL     1      -4.886 -14.629  -7.730  1.00  0.00     0.186 HD
ENDBRANCH  19  20
ENDBRANCH  18  19
ENDBRANCH   3  18
TORSDOF 6
ENDMDL
MODEL 4
REMARK VINA RESULT:    -4.062      4.512      8.728
REMARK INTER + INTRA:          -5.662
REMARK INTER:                  -5.496
REMARK INTRA:                  -0.167
REMARK UNBOUND:                -0.294
REMARK SMILES [H]/N=C\C[C@H]1C[C@@H]1O[C@H]1CO[C@H]2C[C@@H](C3CC3)CCN2C1
REMARK SMILES IDX 7 1 6 2 5 3 8 4 9 5 14 6 13 7 18 8 12 9 19 10 20 11 11 12
REMARK SMILES IDX 21 13 10 14 15 15 16 16 17 17 4 18 3 19 2 20 1 21
REMARK H PARENT
ROOT
ATOM      1  C   UNL     1       1.299  -9.730  -5.444  1.00  0.00     0.122 C 
ATOM      2  C   UNL     1      -0.076 -10.268  -5.164  1.00  0.00     0.039 C 
ATOM      3  C   UNL     1       0.841  -9.927  -4.025  1.00  0.00     0.026 C 
ENDROOT
BRANCH   1   4
ATOM      4  O   UNL     1       2.218 -10.709  -5.966  1.00  0.00    -0.371 OA
BRANCH   4   5
ATOM      5  C   UNL     1       3.178 -10.215  -6.913  1.00  0.00     0.158 C 
ATOM      6  C   UNL     1       6.592 -14.152  -6.695  1.00  0.00    -0.003 C 
ATOM      7  C   UNL     1       6.181 -13.002  -5.768  1.00  0.00     0.052 C 
ATOM      8  C   UNL     1       5.375 -14.601  -7.517  1.00  0.00     0.019 C 
ATOM      9  C   UNL     1       5.493 -11.867  -6.538  1.00  0.00     0.189 C 
ATOM     10  C   UNL     1       4.716 -13.420  -8.230  1.00  0.00     0.087 C 
ATOM     11  N   UNL     1       4.338 -12.378  -7.276  1.00  0.00    -0.276 NA
ATOM     12  O   UNL     1       5.118 -10.885  -5.569  1.00  0.00    -0.360 OA
ATOM     13  C   UNL     1       3.626 -11.276  -7.934  1.00  0.00     0.121 C 
ATOM     14  C   UNL     1       4.424  -9.771  -6.140  1.00  0.00     0.195 C 
BRANCH   6  15
ATOM     15  C   UNL     1       7.166 -15.315  -5.917  1.00  0.00    -0.008 C 
ATOM     16  C   UNL     1       8.224 -16.198  -6.534  1.00  0.00     0.004 C 
ATOM     17  C   UNL     1       8.585 -15.277  -5.404  1.00  0.00     0.004 C 
ENDBRANCH   6  15
ENDBRANCH   4   5
ENDBRANCH   1   4
BRANCH   3  18
ATOM     18  C   UNL     1       0.520  -8.742  -3.163  1.00  0.00     0.053 C 
BRANCH  18  19
ATOM     19  C   UNL     1       0.793  -8.896  -1.690  1.00  0.00     0.074 C 
BRANCH  19  20
ATOM     20  N   UNL     1       0.678  -9.988  -1.008  1.00  0.00    -0.313 NA
ATOM     21  H   UNL     1       0.716  -9.808   0.005  1.00  0.00     0.186 HD
ENDBRANCH  19  20
ENDBRANCH  18  19
ENDBRANCH   3  18
TORSDOF 6
ENDMDL
MODEL 5
REMARK VINA RESULT:    -4.048      8.235     10.336
REMARK INTER + INTRA:          -5.645
REMARK INTER:                  -5.470
REMARK INTRA:                  -0.174
REMARK UNBOUND:                -0.294
REMARK SMILES [H]/N=C\C[C@H]1C[C@@H]1O[C@H]1CO[C@H]2C[C@@H](C3CC3)CCN2C1
REMARK SMILES IDX 7 1 6 2 5 3 8 4 9 5 14 6 13 7 18 8 12 9 19 10 20 11 11 12
REMARK SMILES IDX 21 13 10 14 15 15 16 16 17 17 4 18 3 19 2 20 1 21
REMARK H PARENT
ROOT
ATOM      1  C   UNL     1       0.407  -9.665  -5.716  1.00  0.00     0.122 C 
ATOM      2  C   UNL     1       1.774  -9.413  -6.287  1.00  0.00     0.039 C 
ATOM      3  C   UNL     1       0.675  -8.414  -6.508  1.00  0.00     0.026 C 
ENDROOT
BRANCH   1   4
ATOM      4  O   UNL     1      -0.326 -10.707  -6.386  1.00  0.00    -0.371 OA
BRANCH   4   5
ATOM      5  C   UNL     1      -1.261 -11.431  -5.569  1.00  0.00     0.158 C 
ATOM      6  C   UNL     1      -4.182 -13.497  -9.365  1.00  0.00    -0.003 C 
ATOM      7  C   UNL     1      -3.987 -12.098  -8.767  1.00  0.00     0.052 C 
ATOM      8  C   UNL     1      -2.859 -14.271  -9.285  1.00  0.00     0.019 C 
ATOM      9  C   UNL     1      -3.382 -12.160  -7.358  1.00  0.00     0.189 C 
ATOM     10  C   UNL     1      -2.292 -14.266  -7.866  1.00  0.00     0.087 C 
ATOM     11  N   UNL     1      -2.119 -12.898  -7.376  1.00  0.00    -0.276 NA
ATOM     12  O   UNL     1      -3.207 -10.808  -6.929  1.00  0.00    -0.360 OA
ATOM     13  C   UNL     1      -1.495 -12.874  -6.049  1.00  0.00     0.121 C 
ATOM     14  C   UNL     1      -2.609 -10.705  -5.632  1.00  0.00     0.195 C 
BRANCH   6  15
ATOM     15  C   UNL     1      -4.671 -13.426 -10.794  1.00  0.00    -0.008 C 
ATOM     16  C   UNL     1      -5.569 -14.507 -11.348  1.00  0.00     0.004 C 
ATOM     17  C   UNL     1      -6.119 -13.132 -11.102  1.00  0.00     0.004 C 
ENDBRANCH   6  15
ENDBRANCH   4   5
ENDBRANCH   1   4
BRANCH   3  18
ATOM     18  C   UNL     1       0.752  -7.085  -5.817  1.00  0.00     0.053 C 
BRANCH  18  19
ATOM     19  C   UNL     1       0.505  -5.873  -6.677  1.00  0.00     0.074 C 
BRANCH  19  20
ATOM     20  N   UNL     1       0.637  -5.815  -7.961  1.00  0.00    -0.313 NA
ATOM     21  H   UNL     1       1.608  -5.994  -8.251  1.00  0.00     0.186 HD
ENDBRANCH  19  20
ENDBRANCH  18  19
ENDBRANCH   3  18
TORSDOF 6
ENDMDL
MODEL 6
REMARK VINA RESULT:    -4.012      2.025      6.927
REMARK INTER + INTRA:          -5.597
REMARK INTER:                  -5.597
REMARK INTRA:                   0.001
REMARK UNBOUND:                -0.294
REMARK SMILES [H]/N=C\C[C@H]1C[C@@H]1O[C@H]1CO[C@H]2C[C@@H](C3CC3)CCN2C1
REMARK SMILES IDX 7 1 6 2 5 3 8 4 9 5 14 6 13 7 18 8 12 9 19 10 20 11 11 12
REMARK SMILES IDX 21 13 10 14 15 15 16 16 17 17 4 18 3 19 2 20 1 21
REMARK H PARENT
ROOT
ATOM      1  C   UNL     1       5.598 -12.579  -6.805  1.00  0.00     0.122 C 
ATOM      2  C   UNL     1       4.984 -11.272  -6.389  1.00  0.00     0.039 C 
ATOM      3  C   UNL     1       4.671 -11.851  -7.739  1.00  0.00     0.026 C 
ENDROOT
BRANCH   1   4
ATOM      4  O   UNL     1       7.006 -12.498  -7.101  1.00  0.00    -0.371 OA
BRANCH   4   5
ATOM      5  C   UNL     1       7.758 -13.700  -6.867  1.00  0.00     0.158 C 
ATOM      6  C   UNL     1       9.566 -14.446 -11.702  1.00  0.00    -0.003 C 
ATOM      7  C   UNL     1       8.206 -14.576 -11.006  1.00  0.00     0.052 C 
ATOM      8  C   UNL     1      10.364 -13.309 -11.048  1.00  0.00     0.019 C 
ATOM      9  C   UNL     1       8.355 -14.710  -9.484  1.00  0.00     0.189 C 
ATOM     10  C   UNL     1      10.446 -13.484  -9.532  1.00  0.00     0.087 C 
ATOM     11  N   UNL     1       9.110 -13.580  -8.943  1.00  0.00    -0.276 NA
ATOM     12  O   UNL     1       7.032 -14.776  -8.948  1.00  0.00    -0.360 OA
ATOM     13  C   UNL     1       9.169 -13.661  -7.480  1.00  0.00     0.121 C 
ATOM     14  C   UNL     1       7.009 -14.866  -7.520  1.00  0.00     0.195 C 
BRANCH   6  15
ATOM     15  C   UNL     1       9.409 -14.200 -13.185  1.00  0.00    -0.008 C 
ATOM     16  C   UNL     1       9.029 -15.331 -14.111  1.00  0.00     0.004 C 
ATOM     17  C   UNL     1       8.047 -14.230 -13.834  1.00  0.00     0.004 C 
ENDBRANCH   6  15
ENDBRANCH   4   5
ENDBRANCH   1   4
BRANCH   3  18
ATOM     18  C   UNL     1       3.293 -12.381  -8.001  1.00  0.00     0.053 C 
BRANCH  18  19
ATOM     19  C   UNL     1       3.139 -13.271  -9.207  1.00  0.00     0.074 C 
BRANCH  19  20
ATOM     20  N   UNL     1       2.033 -13.533  -9.818  1.00  0.00    -0.313 NA
ATOM     21  H   UNL     1       1.239 -13.581  -9.164  1.00  0.00     0.186 HD
ENDBRANCH  19  20
ENDBRANCH  18  19
ENDBRANCH   3  18
TORSDOF 6
ENDMDL
MODEL 7
REMARK VINA RESULT:    -3.713      7.447      8.346
REMARK INTER + INTRA:          -5.201
REMARK INTER:                  -4.938
REMARK INTRA:                  -0.263
REMARK UNBOUND:                -0.294
REMARK SMILES [H]/N=C\C[C@H]1C[C@@H]1O[C@H]1CO[C@H]2C[C@@H](C3CC3)CCN2C1
REMARK SMILES IDX 7 1 6 2 5 3 8 4 9 5 14 6 13 7 18 8 12 9 19 10 20 11 11 12
REMARK SMILES IDX 21 13 10 14 15 15 16 16 17 17 4 18 3 19 2 20 1 21
REMARK H PARENT
ROOT
ATOM      1  C   UNL     1      -2.251 -15.313 -10.818  1.00  0.00     0.122 C 
ATOM      2  C   UNL     1      -2.927 -14.320 -11.721  1.00  0.00     0.039 C 
ATOM      3  C   UNL     1      -1.726 -15.078 -12.208  1.00  0.00     0.026 C 
ENDROOT
BRANCH   1   4
ATOM      4  O   UNL     1      -1.509 -14.715  -9.738  1.00  0.00    -0.371 OA
BRANCH   4   5
ATOM      5  C   UNL     1      -1.829 -15.199  -8.424  1.00  0.00     0.158 C 
ATOM      6  C   UNL     1      -0.882 -10.833  -5.732  1.00  0.00    -0.003 C 
ATOM      7  C   UNL     1      -0.030 -11.888  -6.448  1.00  0.00     0.052 C 
ATOM      8  C   UNL     1      -2.220 -10.677  -6.467  1.00  0.00     0.019 C 
ATOM      9  C   UNL     1      -0.796 -13.204  -6.640  1.00  0.00     0.189 C 
ATOM     10  C   UNL     1      -2.915 -12.025  -6.655  1.00  0.00     0.087 C 
ATOM     11  N   UNL     1      -2.046 -12.967  -7.361  1.00  0.00    -0.276 NA
ATOM     12  O   UNL     1       0.076 -14.084  -7.353  1.00  0.00    -0.360 OA
ATOM     13  C   UNL     1      -2.730 -14.238  -7.627  1.00  0.00     0.121 C 
ATOM     14  C   UNL     1      -0.521 -15.352  -7.641  1.00  0.00     0.195 C 
BRANCH   6  15
ATOM     15  C   UNL     1      -0.164  -9.505  -5.647  1.00  0.00    -0.008 C 
ATOM     16  C   UNL     1       0.556  -9.105  -4.382  1.00  0.00     0.004 C 
ATOM     17  C   UNL     1       1.344  -9.440  -5.615  1.00  0.00     0.004 C 
ENDBRANCH   6  15
ENDBRANCH   4   5
ENDBRANCH   1   4
BRANCH   3  18
ATOM     18  C   UNL     1      -1.906 -16.121 -13.271  1.00  0.00     0.053 C 
BRANCH  18  19
ATOM     19  C   UNL     1      -0.715 -16.384 -14.154  1.00  0.00     0.074 C 
BRANCH  19  20
ATOM     20  N   UNL     1       0.510 -16.073 -13.887  1.00  0.00    -0.313 NA
ATOM     21  H   UNL     1       1.174 -16.697 -14.368  1.00  0.00     0.186 HD
ENDBRANCH  19  20
ENDBRANCH  18  19
ENDBRANCH   3  18
TORSDOF 6
ENDMDL
MODEL 8
REMARK VINA RESULT:    -3.596      2.654      7.498
REMARK INTER + INTRA:          -5.047
REMARK INTER:                  -4.952
REMARK INTRA:                  -0.095
REMARK UNBOUND:                -0.294
REMARK SMILES [H]/N=C\C[C@H]1C[C@@H]1O[C@H]1CO[C@H]2C[C@@H](C3CC3)CCN2C1
REMARK SMILES IDX 7 1 6 2 5 3 8 4 9 5 14 6 13 7 18 8 12 9 19 10 20 11 11 12
REMARK SMILES IDX 21 13 10 14 15 15 16 16 17 17 4 18 3 19 2 20 1 21
REMARK H PARENT
ROOT
ATOM      1  C   UNL     1       4.741 -11.181  -6.172  1.00  0.00     0.122 C 
ATOM      2  C   UNL     1       4.715  -9.685  -6.308  1.00  0.00     0.039 C 
ATOM      3  C   UNL     1       3.613 -10.510  -6.907  1.00  0.00     0.026 C 
ENDROOT
BRANCH   1   4
ATOM      4  O   UNL     1       5.744 -11.826  -6.980  1.00  0.00    -0.371 OA
BRANCH   4   5
ATOM      5  C   UNL     1       5.998 -13.205  -6.668  1.00  0.00     0.158 C 
ATOM      6  C   UNL     1       9.495 -14.223 -10.402  1.00  0.00    -0.003 C 
ATOM      7  C   UNL     1       7.982 -13.979 -10.351  1.00  0.00     0.052 C 
ATOM      8  C   UNL     1      10.178 -13.402  -9.299  1.00  0.00     0.019 C 
ATOM      9  C   UNL     1       7.412 -14.223  -8.947  1.00  0.00     0.189 C 
ATOM     10  C   UNL     1       9.543 -13.664  -7.933  1.00  0.00     0.087 C 
ATOM     11  N   UNL     1       8.106 -13.391  -7.963  1.00  0.00    -0.276 NA
ATOM     12  O   UNL     1       6.017 -13.922  -9.014  1.00  0.00    -0.360 OA
ATOM     13  C   UNL     1       7.497 -13.554  -6.639  1.00  0.00     0.121 C 
ATOM     14  C   UNL     1       5.351 -14.068  -7.756  1.00  0.00     0.195 C 
BRANCH   6  15
ATOM     15  C   UNL     1      10.068 -13.872 -11.756  1.00  0.00    -0.008 C 
ATOM     16  C   UNL     1      10.254 -14.941 -12.807  1.00  0.00     0.004 C 
ATOM     17  C   UNL     1       9.200 -13.888 -12.991  1.00  0.00     0.004 C 
ENDBRANCH   6  15
ENDBRANCH   4   5
ENDBRANCH   1   4
BRANCH   3  18
ATOM     18  C   UNL     1       2.245 -10.448  -6.296  1.00  0.00     0.053 C 
BRANCH  18  19
ATOM     19  C   UNL     1       1.726  -9.074  -5.963  1.00  0.00     0.074 C 
BRANCH  19  20
ATOM     20  N   UNL     1       1.104  -8.282  -6.773  1.00  0.00    -0.313 NA
ATOM     21  H   UNL     1       0.099  -8.229  -6.555  1.00  0.00     0.186 HD
ENDBRANCH  19  20
ENDBRANCH  18  19
ENDBRANCH   3  18
TORSDOF 6
ENDMDL
MODEL 9
REMARK VINA RESULT:    -3.429      6.156      8.010
REMARK INTER + INTRA:          -4.826
REMARK INTER:                  -4.361
REMARK INTRA:                  -0.465
REMARK UNBOUND:                -0.294
REMARK SMILES [H]/N=C\C[C@H]1C[C@@H]1O[C@H]1CO[C@H]2C[C@@H](C3CC3)CCN2C1
REMARK SMILES IDX 7 1 6 2 5 3 8 4 9 5 14 6 13 7 18 8 12 9 19 10 20 11 11 12
REMARK SMILES IDX 21 13 10 14 15 15 16 16 17 17 4 18 3 19 2 20 1 21
REMARK H PARENT
ROOT
ATOM      1  C   UNL     1      -0.950 -16.409 -10.445  1.00  0.00     0.122 C 
ATOM      2  C   UNL     1      -0.378 -16.176 -11.815  1.00  0.00     0.039 C 
ATOM      3  C   UNL     1       0.375 -15.713 -10.600  1.00  0.00     0.026 C 
ENDROOT
BRANCH   1   4
ATOM      4  O   UNL     1      -2.083 -15.576 -10.133  1.00  0.00    -0.371 OA
BRANCH   4   5
ATOM      5  C   UNL     1      -2.800 -15.927  -8.938  1.00  0.00     0.158 C 
ATOM      6  C   UNL     1      -1.885 -11.601  -6.173  1.00  0.00    -0.003 C 
ATOM      7  C   UNL     1      -1.058 -12.812  -6.623  1.00  0.00     0.052 C 
ATOM      8  C   UNL     1      -2.950 -11.290  -7.234  1.00  0.00     0.019 C 
ATOM      9  C   UNL     1      -1.950 -14.008  -6.984  1.00  0.00     0.189 C 
ATOM     10  C   UNL     1      -3.779 -12.529  -7.572  1.00  0.00     0.087 C 
ATOM     11  N   UNL     1      -2.921 -13.630  -8.010  1.00  0.00    -0.276 NA
ATOM     12  O   UNL     1      -1.077 -15.048  -7.429  1.00  0.00    -0.360 OA
ATOM     13  C   UNL     1      -3.708 -14.798  -8.421  1.00  0.00     0.121 C 
ATOM     14  C   UNL     1      -1.776 -16.228  -7.839  1.00  0.00     0.195 C 
BRANCH   6  15
ATOM     15  C   UNL     1      -1.010 -10.392  -5.929  1.00  0.00    -0.008 C 
ATOM     16  C   UNL     1      -0.250 -10.248  -4.631  1.00  0.00     0.004 C 
ATOM     17  C   UNL     1       0.494 -10.517  -5.907  1.00  0.00     0.004 C 
ENDBRANCH   6  15
ENDBRANCH   4   5
ENDBRANCH   1   4
BRANCH   3  18
ATOM     18  C   UNL     1       1.645 -16.414 -10.222  1.00  0.00     0.053 C 
BRANCH  18  19
ATOM     19  C   UNL     1       2.293 -15.970  -8.936  1.00  0.00     0.074 C 
BRANCH  19  20
ATOM     20  N   UNL     1       1.680 -15.718  -7.827  1.00  0.00    -0.313 NA
ATOM     21  H   UNL     1       1.108 -16.517  -7.519  1.00  0.00     0.186 HD
ENDBRANCH  19  20
ENDBRANCH  18  19
ENDBRANCH   3  18
TORSDOF 6
ENDMDL
