MODEL 1
REMARK VINA RESULT:    -6.173      0.000      0.000
REMARK INTER + INTRA:          -7.641
REMARK INTER:                  -7.255
REMARK INTRA:                  -0.386
REMARK UNBOUND:                -0.386
REMARK SMILES Cc1ccc(CNC(=O)NC(=O)c2ccc(C)cc2)cc1
REMARK SMILES IDX 11 1 12 2 10 3 8 4 9 5 7 6 13 9 19 10 18 11 14 12 16 13
REMARK SMILES IDX 15 14 17 15 6 16 5 17 4 18 20 19 3 20 21 21 2 22 1 23
REMARK H PARENT 10 7 7 8
ROOT
ATOM      1  C   UNL     1       0.520  -8.376  -4.846  1.00  0.00     0.259 C 
ATOM      2  O   UNL     1      -0.591  -8.718  -4.465  1.00  0.00    -0.269 OA
ATOM      3  N   UNL     1       1.491  -9.135  -5.505  1.00  0.00    -0.274 N 
ATOM      4  C   UNL     1       1.565 -10.337  -6.162  1.00  0.00     0.321 C 
ATOM      5  O   UNL     1       2.619 -10.607  -6.748  1.00  0.00    -0.248 OA
ATOM      6  N   UNL     1       0.547 -11.215  -6.224  1.00  0.00    -0.334 N 
ATOM      7  H   UNL     1       2.348  -8.636  -5.702  1.00  0.00     0.175 HD
ATOM      8  H   UNL     1       0.732 -12.012  -6.816  1.00  0.00     0.165 HD
ENDROOT
BRANCH   1   9
ATOM      9  C   UNL     1       0.903  -6.974  -4.591  1.00  0.00     0.040 A 
ATOM     10  C   UNL     1       1.676  -6.621  -3.484  1.00  0.00     0.014 A 
ATOM     11  C   UNL     1       2.058  -5.290  -3.312  1.00  0.00     0.004 A 
ATOM     12  C   UNL     1       0.462  -5.998  -5.491  1.00  0.00     0.014 A 
ATOM     13  C   UNL     1       1.664  -4.311  -4.238  1.00  0.00    -0.051 A 
ATOM     14  C   UNL     1       0.851  -4.671  -5.319  1.00  0.00     0.004 A 
ATOM     15  C   UNL     1       2.153  -2.901  -4.086  1.00  0.00     0.044 C 
ENDBRANCH   1   9
BRANCH   6  16
ATOM     16  C   UNL     1      -0.782 -11.053  -5.705  1.00  0.00     0.153 C 
BRANCH  16  17
ATOM     17  C   UNL     1      -1.882 -11.835  -6.368  1.00  0.00    -0.029 A 
ATOM     18  C   UNL     1      -2.979 -11.233  -6.992  1.00  0.00     0.006 A 
ATOM     19  C   UNL     1      -1.675 -13.214  -6.542  1.00  0.00     0.006 A 
ATOM     20  C   UNL     1      -3.835 -11.996  -7.793  1.00  0.00     0.004 A 
ATOM     21  C   UNL     1      -2.524 -13.970  -7.343  1.00  0.00     0.004 A 
ATOM     22  C   UNL     1      -3.607 -13.366  -7.984  1.00  0.00    -0.051 A 
ATOM     23  C   UNL     1      -4.433 -14.158  -8.953  1.00  0.00     0.044 C 
ENDBRANCH  16  17
ENDBRANCH   6  16
TORSDOF 3
ENDMDL
MODEL 2
REMARK VINA RESULT:    -6.165      3.243      5.574
REMARK INTER + INTRA:          -7.632
REMARK INTER:                  -7.244
REMARK INTRA:                  -0.388
REMARK UNBOUND:                -0.386
REMARK SMILES Cc1ccc(CNC(=O)NC(=O)c2ccc(C)cc2)cc1
REMARK SMILES IDX 11 1 12 2 10 3 8 4 9 5 7 6 13 9 19 10 18 11 14 12 16 13
REMARK SMILES IDX 15 14 17 15 6 16 5 17 4 18 20 19 3 20 21 21 2 22 1 23
REMARK H PARENT 10 7 7 8
ROOT
ATOM      1  C   UNL     1       0.893  -8.426  -4.728  1.00  0.00     0.259 C 
ATOM      2  O   UNL     1       1.999  -8.091  -5.129  1.00  0.00    -0.269 OA
ATOM      3  N   UNL     1       0.094  -9.492  -5.153  1.00  0.00    -0.274 N 
ATOM      4  C   UNL     1       0.238 -10.631  -5.902  1.00  0.00     0.321 C 
ATOM      5  O   UNL     1      -0.713 -11.419  -5.937  1.00  0.00    -0.248 OA
ATOM      6  N   UNL     1       1.364 -10.945  -6.570  1.00  0.00    -0.334 N 
ATOM      7  H   UNL     1      -0.800  -9.556  -4.683  1.00  0.00     0.175 HD
ATOM      8  H   UNL     1       1.340 -11.857  -7.002  1.00  0.00     0.165 HD
ENDROOT
BRANCH   1   9
ATOM      9  C   UNL     1       0.308  -7.610  -3.646  1.00  0.00     0.040 A 
ATOM     10  C   UNL     1      -0.584  -6.571  -3.919  1.00  0.00     0.014 A 
ATOM     11  C   UNL     1      -1.152  -5.862  -2.860  1.00  0.00     0.004 A 
ATOM     12  C   UNL     1       0.679  -7.902  -2.330  1.00  0.00     0.014 A 
ATOM     13  C   UNL     1      -0.826  -6.182  -1.533  1.00  0.00    -0.051 A 
ATOM     14  C   UNL     1       0.104  -7.196  -1.275  1.00  0.00     0.004 A 
ATOM     15  C   UNL     1      -1.509  -5.467  -0.404  1.00  0.00     0.044 C 
ENDBRANCH   1   9
BRANCH   6  16
ATOM     16  C   UNL     1       2.607 -10.227  -6.577  1.00  0.00     0.153 C 
BRANCH  16  17
ATOM     17  C   UNL     1       3.857 -11.015  -6.856  1.00  0.00    -0.029 A 
ATOM     18  C   UNL     1       4.914 -11.118  -5.946  1.00  0.00     0.006 A 
ATOM     19  C   UNL     1       3.855 -11.842  -7.991  1.00  0.00     0.006 A 
ATOM     20  C   UNL     1       5.933 -12.052  -6.161  1.00  0.00     0.004 A 
ATOM     21  C   UNL     1       4.867 -12.774  -8.201  1.00  0.00     0.004 A 
ATOM     22  C   UNL     1       5.910 -12.894  -7.281  1.00  0.00    -0.051 A 
ATOM     23  C   UNL     1       6.919 -13.991  -7.443  1.00  0.00     0.044 C 
ENDBRANCH  16  17
ENDBRANCH   6  16
TORSDOF 3
ENDMDL
MODEL 3
REMARK VINA RESULT:    -6.086      0.563      8.003
REMARK INTER + INTRA:          -7.540
REMARK INTER:                  -7.051
REMARK INTRA:                  -0.489
REMARK UNBOUND:                -0.386
REMARK SMILES Cc1ccc(CNC(=O)NC(=O)c2ccc(C)cc2)cc1
REMARK SMILES IDX 11 1 12 2 10 3 8 4 9 5 7 6 13 9 19 10 18 11 14 12 16 13
REMARK SMILES IDX 15 14 17 15 6 16 5 17 4 18 20 19 3 20 21 21 2 22 1 23
REMARK H PARENT 10 7 7 8
ROOT
ATOM      1  C   UNL     1      -0.894 -10.640  -5.972  1.00  0.00     0.259 C 
ATOM      2  O   UNL     1      -1.385  -9.773  -5.263  1.00  0.00    -0.269 OA
ATOM      3  N   UNL     1       0.443 -10.815  -6.340  1.00  0.00    -0.274 N 
ATOM      4  C   UNL     1       1.672 -10.348  -5.950  1.00  0.00     0.321 C 
ATOM      5  O   UNL     1       2.671 -10.868  -6.457  1.00  0.00    -0.248 OA
ATOM      6  N   UNL     1       1.842  -9.382  -5.028  1.00  0.00    -0.334 N 
ATOM      7  H   UNL     1       0.606 -11.599  -6.958  1.00  0.00     0.175 HD
ATOM      8  H   UNL     1       2.809  -9.213  -4.790  1.00  0.00     0.165 HD
ENDROOT
BRANCH   1   9
ATOM      9  C   UNL     1      -1.821 -11.649  -6.518  1.00  0.00     0.040 A 
ATOM     10  C   UNL     1      -3.076 -11.292  -7.015  1.00  0.00     0.014 A 
ATOM     11  C   UNL     1      -3.897 -12.275  -7.569  1.00  0.00     0.004 A 
ATOM     12  C   UNL     1      -1.410 -12.986  -6.519  1.00  0.00     0.014 A 
ATOM     13  C   UNL     1      -3.472 -13.611  -7.622  1.00  0.00    -0.051 A 
ATOM     14  C   UNL     1      -2.230 -13.963  -7.080  1.00  0.00     0.004 A 
ATOM     15  C   UNL     1      -4.329 -14.641  -8.298  1.00  0.00     0.044 C 
ENDBRANCH   1   9
BRANCH   6  16
ATOM     16  C   UNL     1       0.829  -8.726  -4.250  1.00  0.00     0.153 C 
BRANCH  16  17
ATOM     17  C   UNL     1       0.942  -7.235  -4.088  1.00  0.00    -0.029 A 
ATOM     18  C   UNL     1       1.618  -6.631  -3.023  1.00  0.00     0.006 A 
ATOM     19  C   UNL     1       0.527  -6.438  -5.168  1.00  0.00     0.006 A 
ATOM     20  C   UNL     1       1.894  -5.260  -3.056  1.00  0.00     0.004 A 
ATOM     21  C   UNL     1       0.806  -5.075  -5.201  1.00  0.00     0.004 A 
ATOM     22  C   UNL     1       1.501  -4.476  -4.150  1.00  0.00    -0.051 A 
ATOM     23  C   UNL     1       1.917  -3.039  -4.258  1.00  0.00     0.044 C 
ENDBRANCH  16  17
ENDBRANCH   6  16
TORSDOF 3
ENDMDL
MODEL 4
REMARK VINA RESULT:    -6.070      3.142      7.281
REMARK INTER + INTRA:          -7.520
REMARK INTER:                  -7.030
REMARK INTRA:                  -0.490
REMARK UNBOUND:                -0.386
REMARK SMILES Cc1ccc(CNC(=O)NC(=O)c2ccc(C)cc2)cc1
REMARK SMILES IDX 11 1 12 2 10 3 8 4 9 5 7 6 13 9 19 10 18 11 14 12 16 13
REMARK SMILES IDX 15 14 17 15 6 16 5 17 4 18 20 19 3 20 21 21 2 22 1 23
REMARK H PARENT 10 7 7 8
ROOT
ATOM      1  C   UNL     1       2.700 -10.244  -6.048  1.00  0.00     0.259 C 
ATOM      2  O   UNL     1       3.010  -9.160  -5.574  1.00  0.00    -0.269 OA
ATOM      3  N   UNL     1       1.432 -10.825  -6.148  1.00  0.00    -0.274 N 
ATOM      4  C   UNL     1       0.125 -10.430  -6.029  1.00  0.00     0.321 C 
ATOM      5  O   UNL     1      -0.751 -11.246  -6.336  1.00  0.00    -0.248 OA
ATOM      6  N   UNL     1      -0.248  -9.201  -5.626  1.00  0.00    -0.334 N 
ATOM      7  H   UNL     1       1.428 -11.748  -6.562  1.00  0.00     0.175 HD
ATOM      8  H   UNL     1      -1.244  -9.042  -5.674  1.00  0.00     0.165 HD
ENDROOT
BRANCH   1   9
ATOM      9  C   UNL     1       3.798 -11.063  -6.597  1.00  0.00     0.040 A 
ATOM     10  C   UNL     1       5.028 -11.164  -5.945  1.00  0.00     0.014 A 
ATOM     11  C   UNL     1       6.017 -11.992  -6.475  1.00  0.00     0.004 A 
ATOM     12  C   UNL     1       3.575 -11.735  -7.803  1.00  0.00     0.014 A 
ATOM     13  C   UNL     1       5.786 -12.712  -7.657  1.00  0.00    -0.051 A 
ATOM     14  C   UNL     1       4.564 -12.566  -8.326  1.00  0.00     0.004 A 
ATOM     15  C   UNL     1       6.827 -13.663  -8.169  1.00  0.00     0.044 C 
ENDBRANCH   1   9
BRANCH   6  16
ATOM     16  C   UNL     1       0.601  -8.083  -5.324  1.00  0.00     0.153 C 
BRANCH  16  17
ATOM     17  C   UNL     1       0.271  -7.278  -4.098  1.00  0.00    -0.029 A 
ATOM     18  C   UNL     1      -0.560  -6.153  -4.124  1.00  0.00     0.006 A 
ATOM     19  C   UNL     1       0.650  -7.813  -2.856  1.00  0.00     0.006 A 
ATOM     20  C   UNL     1      -1.020  -5.595  -2.927  1.00  0.00     0.004 A 
ATOM     21  C   UNL     1       0.188  -7.259  -1.666  1.00  0.00     0.004 A 
ATOM     22  C   UNL     1      -0.660  -6.151  -1.692  1.00  0.00    -0.051 A 
ATOM     23  C   UNL     1      -1.261  -5.648  -0.414  1.00  0.00     0.044 C 
ENDBRANCH  16  17
ENDBRANCH   6  16
TORSDOF 3
ENDMDL
MODEL 5
REMARK VINA RESULT:    -5.910      8.296     10.473
REMARK INTER + INTRA:          -7.332
REMARK INTER:                  -6.862
REMARK INTRA:                  -0.470
REMARK UNBOUND:                -0.386
REMARK SMILES Cc1ccc(CNC(=O)NC(=O)c2ccc(C)cc2)cc1
REMARK SMILES IDX 11 1 12 2 10 3 8 4 9 5 7 6 13 9 19 10 18 11 14 12 16 13
REMARK SMILES IDX 15 14 17 15 6 16 5 17 4 18 20 19 3 20 21 21 2 22 1 23
REMARK H PARENT 10 7 7 8
ROOT
ATOM      1  C   UNL     1       7.482 -13.572  -7.542  1.00  0.00     0.259 C 
ATOM      2  O   UNL     1       7.334 -14.770  -7.734  1.00  0.00    -0.269 OA
ATOM      3  N   UNL     1       8.665 -12.825  -7.542  1.00  0.00    -0.274 N 
ATOM      4  C   UNL     1       9.966 -12.987  -7.942  1.00  0.00     0.321 C 
ATOM      5  O   UNL     1      10.709 -12.001  -7.890  1.00  0.00    -0.248 OA
ATOM      6  N   UNL     1      10.461 -14.147  -8.412  1.00  0.00    -0.334 N 
ATOM      7  H   UNL     1       8.537 -11.843  -7.335  1.00  0.00     0.175 HD
ATOM      8  H   UNL     1      11.412 -14.079  -8.745  1.00  0.00     0.165 HD
ENDROOT
BRANCH   1   9
ATOM      9  C   UNL     1       6.259 -12.789  -7.278  1.00  0.00     0.040 A 
ATOM     10  C   UNL     1       6.113 -12.039  -6.110  1.00  0.00     0.014 A 
ATOM     11  C   UNL     1       4.961 -11.273  -5.929  1.00  0.00     0.004 A 
ATOM     12  C   UNL     1       5.239 -12.824  -8.234  1.00  0.00     0.014 A 
ATOM     13  C   UNL     1       3.953 -11.260  -6.906  1.00  0.00    -0.051 A 
ATOM     14  C   UNL     1       4.093 -12.052  -8.052  1.00  0.00     0.004 A 
ATOM     15  C   UNL     1       2.760 -10.366  -6.736  1.00  0.00     0.044 C 
ENDBRANCH   1   9
BRANCH   6  16
ATOM     16  C   UNL     1       9.748 -15.371  -8.650  1.00  0.00     0.153 C 
BRANCH  16  17
ATOM     17  C   UNL     1       9.386 -15.693 -10.073  1.00  0.00    -0.029 A 
ATOM     18  C   UNL     1       8.278 -16.474 -10.420  1.00  0.00     0.006 A 
ATOM     19  C   UNL     1      10.073 -15.003 -11.084  1.00  0.00     0.006 A 
ATOM     20  C   UNL     1       7.857 -16.537 -11.753  1.00  0.00     0.004 A 
ATOM     21  C   UNL     1       9.650 -15.063 -12.408  1.00  0.00     0.004 A 
ATOM     22  C   UNL     1       8.531 -15.823 -12.753  1.00  0.00    -0.051 A 
ATOM     23  C   UNL     1       8.003 -15.771 -14.155  1.00  0.00     0.044 C 
ENDBRANCH  16  17
ENDBRANCH   6  16
TORSDOF 3
ENDMDL
MODEL 6
REMARK VINA RESULT:    -4.770      5.133      8.467
REMARK INTER + INTRA:          -5.993
REMARK INTER:                  -5.495
REMARK INTRA:                  -0.498
REMARK UNBOUND:                -0.386
REMARK SMILES Cc1ccc(CNC(=O)NC(=O)c2ccc(C)cc2)cc1
REMARK SMILES IDX 11 1 12 2 10 3 8 4 9 5 7 6 13 9 19 10 18 11 14 12 16 13
REMARK SMILES IDX 15 14 17 15 6 16 5 17 4 18 20 19 3 20 21 21 2 22 1 23
REMARK H PARENT 10 7 7 8
ROOT
ATOM      1  C   UNL     1      -4.067 -14.461  -8.454  1.00  0.00     0.259 C 
ATOM      2  O   UNL     1      -4.095 -14.375  -9.674  1.00  0.00    -0.269 OA
ATOM      3  N   UNL     1      -4.676 -15.412  -7.629  1.00  0.00    -0.274 N 
ATOM      4  C   UNL     1      -5.274 -16.639  -7.767  1.00  0.00     0.321 C 
ATOM      5  O   UNL     1      -5.581 -17.246  -6.735  1.00  0.00    -0.248 OA
ATOM      6  N   UNL     1      -5.512 -17.222  -8.956  1.00  0.00    -0.334 N 
ATOM      7  H   UNL     1      -4.527 -15.263  -6.640  1.00  0.00     0.175 HD
ATOM      8  H   UNL     1      -5.878 -18.160  -8.883  1.00  0.00     0.165 HD
ENDROOT
BRANCH   1   9
ATOM      9  C   UNL     1      -3.285 -13.435  -7.737  1.00  0.00     0.040 A 
ATOM     10  C   UNL     1      -3.653 -12.089  -7.766  1.00  0.00     0.014 A 
ATOM     11  C   UNL     1      -2.914 -11.162  -7.029  1.00  0.00     0.004 A 
ATOM     12  C   UNL     1      -2.153 -13.848  -7.029  1.00  0.00     0.014 A 
ATOM     13  C   UNL     1      -1.806 -11.574  -6.273  1.00  0.00    -0.051 A 
ATOM     14  C   UNL     1      -1.421 -12.920  -6.290  1.00  0.00     0.004 A 
ATOM     15  C   UNL     1      -1.073 -10.581  -5.420  1.00  0.00     0.044 C 
ENDBRANCH   1   9
BRANCH   6  16
ATOM     16  C   UNL     1      -5.144 -16.739 -10.257  1.00  0.00     0.153 C 
BRANCH  16  17
ATOM     17  C   UNL     1      -6.236 -16.618 -11.283  1.00  0.00    -0.029 A 
ATOM     18  C   UNL     1      -7.470 -17.265 -11.164  1.00  0.00     0.006 A 
ATOM     19  C   UNL     1      -6.073 -15.648 -12.286  1.00  0.00     0.006 A 
ATOM     20  C   UNL     1      -8.525 -16.925 -12.018  1.00  0.00     0.004 A 
ATOM     21  C   UNL     1      -7.123 -15.308 -13.132  1.00  0.00     0.004 A 
ATOM     22  C   UNL     1      -8.362 -15.937 -12.998  1.00  0.00    -0.051 A 
ATOM     23  C   UNL     1      -9.525 -15.467 -13.821  1.00  0.00     0.044 C 
ENDBRANCH  16  17
ENDBRANCH   6  16
TORSDOF 3
ENDMDL
MODEL 7
REMARK VINA RESULT:    -4.695      2.070      3.657
REMARK INTER + INTRA:          -5.904
REMARK INTER:                  -5.431
REMARK INTRA:                  -0.473
REMARK UNBOUND:                -0.386
REMARK SMILES Cc1ccc(CNC(=O)NC(=O)c2ccc(C)cc2)cc1
REMARK SMILES IDX 11 1 12 2 10 3 8 4 9 5 7 6 13 9 19 10 18 11 14 12 16 13
REMARK SMILES IDX 15 14 17 15 6 16 5 17 4 18 20 19 3 20 21 21 2 22 1 23
REMARK H PARENT 10 7 7 8
ROOT
ATOM      1  C   UNL     1      -1.131 -11.177  -5.852  1.00  0.00     0.259 C 
ATOM      2  O   UNL     1      -2.344 -11.085  -5.723  1.00  0.00    -0.269 OA
ATOM      3  N   UNL     1      -0.384 -12.244  -6.360  1.00  0.00    -0.274 N 
ATOM      4  C   UNL     1      -0.613 -13.391  -7.076  1.00  0.00     0.321 C 
ATOM      5  O   UNL     1       0.371 -14.032  -7.461  1.00  0.00    -0.248 OA
ATOM      6  N   UNL     1      -1.842 -13.832  -7.402  1.00  0.00    -0.334 N 
ATOM      7  H   UNL     1       0.617 -12.096  -6.347  1.00  0.00     0.175 HD
ATOM      8  H   UNL     1      -1.836 -14.643  -8.004  1.00  0.00     0.165 HD
ENDROOT
BRANCH   1   9
ATOM      9  C   UNL     1      -0.331 -10.014  -5.423  1.00  0.00     0.040 A 
ATOM     10  C   UNL     1       0.145  -9.078  -6.343  1.00  0.00     0.014 A 
ATOM     11  C   UNL     1       0.852  -7.967  -5.884  1.00  0.00     0.004 A 
ATOM     12  C   UNL     1      -0.052  -9.876  -4.059  1.00  0.00     0.014 A 
ATOM     13  C   UNL     1       1.093  -7.791  -4.513  1.00  0.00    -0.051 A 
ATOM     14  C   UNL     1       0.649  -8.761  -3.605  1.00  0.00     0.004 A 
ATOM     15  C   UNL     1       1.781  -6.549  -4.029  1.00  0.00     0.044 C 
ENDBRANCH   1   9
BRANCH   6  16
ATOM     16  C   UNL     1      -3.100 -13.190  -7.146  1.00  0.00     0.153 C 
BRANCH  16  17
ATOM     17  C   UNL     1      -4.071 -13.093  -8.290  1.00  0.00    -0.029 A 
ATOM     18  C   UNL     1      -3.937 -12.165  -9.328  1.00  0.00     0.006 A 
ATOM     19  C   UNL     1      -5.022 -14.118  -8.414  1.00  0.00     0.006 A 
ATOM     20  C   UNL     1      -4.727 -12.282 -10.477  1.00  0.00     0.004 A 
ATOM     21  C   UNL     1      -5.803 -14.237  -9.559  1.00  0.00     0.004 A 
ATOM     22  C   UNL     1      -5.655 -13.325 -10.606  1.00  0.00    -0.051 A 
ATOM     23  C   UNL     1      -6.400 -13.540 -11.889  1.00  0.00     0.044 C 
ENDBRANCH  16  17
ENDBRANCH   6  16
TORSDOF 3
ENDMDL
MODEL 8
REMARK VINA RESULT:    -4.645      4.779      7.206
REMARK INTER + INTRA:          -5.845
REMARK INTER:                  -5.399
REMARK INTRA:                  -0.446
REMARK UNBOUND:                -0.386
REMARK SMILES Cc1ccc(CNC(=O)NC(=O)c2ccc(C)cc2)cc1
REMARK SMILES IDX 11 1 12 2 10 3 8 4 9 5 7 6 13 9 19 10 18 11 14 12 16 13
REMARK SMILES IDX 15 14 17 15 6 16 5 17 4 18 20 19 3 20 21 21 2 22 1 23
REMARK H PARENT 10 7 7 8
ROOT
ATOM      1  C   UNL     1       3.154 -10.390  -6.502  1.00  0.00     0.259 C 
ATOM      2  O   UNL     1       4.315 -10.138  -6.213  1.00  0.00    -0.269 OA
ATOM      3  N   UNL     1       2.663 -11.337  -7.408  1.00  0.00    -0.274 N 
ATOM      4  C   UNL     1       3.138 -12.425  -8.093  1.00  0.00     0.321 C 
ATOM      5  O   UNL     1       2.322 -13.110  -8.719  1.00  0.00    -0.248 OA
ATOM      6  N   UNL     1       4.431 -12.798  -8.093  1.00  0.00    -0.334 N 
ATOM      7  H   UNL     1       1.655 -11.347  -7.494  1.00  0.00     0.175 HD
ATOM      8  H   UNL     1       4.603 -13.669  -8.575  1.00  0.00     0.165 HD
ENDROOT
BRANCH   1   9
ATOM      9  C   UNL     1       2.115  -9.604  -5.809  1.00  0.00     0.040 A 
ATOM     10  C   UNL     1       1.559 -10.036  -4.604  1.00  0.00     0.014 A 
ATOM     11  C   UNL     1       0.618  -9.233  -3.959  1.00  0.00     0.004 A 
ATOM     12  C   UNL     1       1.694  -8.409  -6.399  1.00  0.00     0.014 A 
ATOM     13  C   UNL     1       0.226  -8.007  -4.517  1.00  0.00    -0.051 A 
ATOM     14  C   UNL     1       0.758  -7.607  -5.748  1.00  0.00     0.004 A 
ATOM     15  C   UNL     1      -0.723  -7.116  -3.770  1.00  0.00     0.044 C 
ENDBRANCH   1   9
BRANCH   6  16
ATOM     16  C   UNL     1       5.513 -12.209  -7.355  1.00  0.00     0.153 C 
BRANCH  16  17
ATOM     17  C   UNL     1       6.470 -13.144  -6.669  1.00  0.00    -0.029 A 
ATOM     18  C   UNL     1       6.122 -13.904  -5.548  1.00  0.00     0.006 A 
ATOM     19  C   UNL     1       7.687 -13.409  -7.318  1.00  0.00     0.006 A 
ATOM     20  C   UNL     1       6.969 -14.926  -5.105  1.00  0.00     0.004 A 
ATOM     21  C   UNL     1       8.526 -14.428  -6.879  1.00  0.00     0.004 A 
ATOM     22  C   UNL     1       8.169 -15.203  -5.774  1.00  0.00    -0.051 A 
ATOM     23  C   UNL     1       9.010 -16.384  -5.393  1.00  0.00     0.044 C 
ENDBRANCH  16  17
ENDBRANCH   6  16
TORSDOF 3
ENDMDL
MODEL 9
REMARK VINA RESULT:    -4.452      5.099      9.719
REMARK INTER + INTRA:          -5.618
REMARK INTER:                  -5.051
REMARK INTRA:                  -0.567
REMARK UNBOUND:                -0.386
REMARK SMILES Cc1ccc(CNC(=O)NC(=O)c2ccc(C)cc2)cc1
REMARK SMILES IDX 11 1 12 2 10 3 8 4 9 5 7 6 13 9 19 10 18 11 14 12 16 13
REMARK SMILES IDX 15 14 17 15 6 16 5 17 4 18 20 19 3 20 21 21 2 22 1 23
REMARK H PARENT 10 7 7 8
ROOT
ATOM      1  C   UNL     1      -2.231 -15.292 -10.841  1.00  0.00     0.259 C 
ATOM      2  O   UNL     1      -2.272 -15.720  -9.696  1.00  0.00    -0.269 OA
ATOM      3  N   UNL     1      -3.065 -14.352 -11.454  1.00  0.00    -0.274 N 
ATOM      4  C   UNL     1      -3.999 -13.424 -11.071  1.00  0.00     0.321 C 
ATOM      5  O   UNL     1      -4.437 -12.660 -11.938  1.00  0.00    -0.248 OA
ATOM      6  N   UNL     1      -4.436 -13.285  -9.805  1.00  0.00    -0.334 N 
ATOM      7  H   UNL     1      -2.847 -14.171 -12.425  1.00  0.00     0.175 HD
ATOM      8  H   UNL     1      -5.058 -12.501  -9.673  1.00  0.00     0.165 HD
ENDROOT
BRANCH   1   9
ATOM      9  C   UNL     1      -1.161 -15.823 -11.707  1.00  0.00     0.040 A 
ATOM     10  C   UNL     1      -1.348 -15.980 -13.082  1.00  0.00     0.014 A 
ATOM     11  C   UNL     1      -0.290 -16.437 -13.868  1.00  0.00     0.004 A 
ATOM     12  C   UNL     1       0.053 -16.176 -11.110  1.00  0.00     0.014 A 
ATOM     13  C   UNL     1       0.949 -16.744 -13.286  1.00  0.00    -0.051 A 
ATOM     14  C   UNL     1       1.110 -16.625 -11.900  1.00  0.00     0.004 A 
ATOM     15  C   UNL     1       2.102 -17.152 -14.155  1.00  0.00     0.044 C 
ENDBRANCH   1   9
BRANCH   6  16
ATOM     16  C   UNL     1      -3.984 -13.994  -8.641  1.00  0.00     0.153 C 
BRANCH  16  17
ATOM     17  C   UNL     1      -3.222 -13.210  -7.609  1.00  0.00    -0.029 A 
ATOM     18  C   UNL     1      -2.052 -13.680  -7.003  1.00  0.00     0.006 A 
ATOM     19  C   UNL     1      -3.595 -11.870  -7.414  1.00  0.00     0.006 A 
ATOM     20  C   UNL     1      -1.262 -12.815  -6.238  1.00  0.00     0.004 A 
ATOM     21  C   UNL     1      -2.806 -11.009  -6.657  1.00  0.00     0.004 A 
ATOM     22  C   UNL     1      -1.627 -11.472  -6.071  1.00  0.00    -0.051 A 
ATOM     23  C   UNL     1      -0.715 -10.506  -5.375  1.00  0.00     0.044 C 
ENDBRANCH  16  17
ENDBRANCH   6  16
TORSDOF 3
ENDMDL
