MODEL 1
REMARK VINA RESULT:    -6.087      0.000      0.000
REMARK INTER + INTRA:          -7.534
REMARK INTER:                  -7.155
REMARK INTRA:                  -0.379
REMARK UNBOUND:                -0.379
REMARK SMILES Cc1ccc(CNC(=O)NC(=O)c2ccc(C)cc2)cc1
REMARK SMILES IDX 11 1 12 2 10 3 8 4 9 5 7 6 13 9 19 10 18 11 14 12 16 13
REMARK SMILES IDX 15 14 17 15 6 16 5 17 4 18 20 19 3 20 21 21 2 22 1 23
REMARK H PARENT 10 7 7 8
ROOT
ATOM      1  C   UNL     1       8.284  -7.730  -1.864  1.00  0.00     0.259 C 
ATOM      2  O   UNL     1       8.874  -7.368  -0.856  1.00  0.00    -0.269 OA
ATOM      3  N   UNL     1       8.723  -8.593  -2.873  1.00  0.00    -0.274 N 
ATOM      4  C   UNL     1       9.735  -9.499  -3.062  1.00  0.00     0.321 C 
ATOM      5  O   UNL     1       9.703 -10.190  -4.086  1.00  0.00    -0.248 OA
ATOM      6  N   UNL     1      10.736  -9.692  -2.183  1.00  0.00    -0.334 N 
ATOM      7  H   UNL     1       8.061  -8.726  -3.626  1.00  0.00     0.175 HD
ATOM      8  H   UNL     1      11.352 -10.453  -2.428  1.00  0.00     0.165 HD
ENDROOT
BRANCH   1   9
ATOM      9  C   UNL     1       6.922  -7.198  -2.059  1.00  0.00     0.040 A 
ATOM     10  C   UNL     1       6.685  -6.078  -2.859  1.00  0.00     0.014 A 
ATOM     11  C   UNL     1       5.374  -5.643  -3.055  1.00  0.00     0.004 A 
ATOM     12  C   UNL     1       5.865  -7.845  -1.411  1.00  0.00     0.014 A 
ATOM     13  C   UNL     1       4.302  -6.317  -2.452  1.00  0.00    -0.051 A 
ATOM     14  C   UNL     1       4.557  -7.411  -1.616  1.00  0.00     0.004 A 
ATOM     15  C   UNL     1       2.893  -5.890  -2.741  1.00  0.00     0.044 C 
ENDBRANCH   1   9
BRANCH   6  16
ATOM     16  C   UNL     1      10.902  -9.075  -0.897  1.00  0.00     0.153 C 
BRANCH  16  17
ATOM     17  C   UNL     1      11.745  -9.803   0.114  1.00  0.00    -0.029 A 
ATOM     18  C   UNL     1      11.275 -10.163   1.381  1.00  0.00     0.006 A 
ATOM     19  C   UNL     1      12.975 -10.317  -0.326  1.00  0.00     0.006 A 
ATOM     20  C   UNL     1      12.016 -11.043   2.178  1.00  0.00     0.004 A 
ATOM     21  C   UNL     1      13.709 -11.195   0.465  1.00  0.00     0.004 A 
ATOM     22  C   UNL     1      13.231 -11.574   1.721  1.00  0.00    -0.051 A 
ATOM     23  C   UNL     1      13.958 -12.624   2.506  1.00  0.00     0.044 C 
ENDBRANCH  16  17
ENDBRANCH   6  16
TORSDOF 3
ENDMDL
MODEL 2
REMARK VINA RESULT:    -6.085      3.213      5.497
REMARK INTER + INTRA:          -7.532
REMARK INTER:                  -7.143
REMARK INTRA:                  -0.389
REMARK UNBOUND:                -0.379
REMARK SMILES Cc1ccc(CNC(=O)NC(=O)c2ccc(C)cc2)cc1
REMARK SMILES IDX 11 1 12 2 10 3 8 4 9 5 7 6 13 9 19 10 18 11 14 12 16 13
REMARK SMILES IDX 15 14 17 15 6 16 5 17 4 18 20 19 3 20 21 21 2 22 1 23
REMARK H PARENT 10 7 7 8
ROOT
ATOM      1  C   UNL     1       8.270  -7.641  -2.220  1.00  0.00     0.259 C 
ATOM      2  O   UNL     1       7.699  -8.045  -3.224  1.00  0.00    -0.269 OA
ATOM      3  N   UNL     1       9.340  -8.219  -1.529  1.00  0.00    -0.274 N 
ATOM      4  C   UNL     1      10.274  -9.200  -1.745  1.00  0.00     0.321 C 
ATOM      5  O   UNL     1      11.174  -9.327  -0.908  1.00  0.00    -0.248 OA
ATOM      6  N   UNL     1      10.276 -10.001  -2.826  1.00  0.00    -0.334 N 
ATOM      7  H   UNL     1       9.630  -7.707  -0.706  1.00  0.00     0.175 HD
ATOM      8  H   UNL     1      11.079 -10.612  -2.878  1.00  0.00     0.165 HD
ENDROOT
BRANCH   1   9
ATOM      9  C   UNL     1       7.782  -6.372  -1.649  1.00  0.00     0.040 A 
ATOM     10  C   UNL     1       6.847  -6.352  -0.612  1.00  0.00     0.014 A 
ATOM     11  C   UNL     1       6.455  -5.128  -0.068  1.00  0.00     0.004 A 
ATOM     12  C   UNL     1       8.278  -5.178  -2.181  1.00  0.00     0.014 A 
ATOM     13  C   UNL     1       6.986  -3.927  -0.560  1.00  0.00    -0.051 A 
ATOM     14  C   UNL     1       7.888  -3.958  -1.631  1.00  0.00     0.004 A 
ATOM     15  C   UNL     1       6.619  -2.626   0.091  1.00  0.00     0.044 C 
ENDBRANCH   1   9
BRANCH   6  16
ATOM     16  C   UNL     1       9.391  -9.950  -3.955  1.00  0.00     0.153 C 
BRANCH  16  17
ATOM     17  C   UNL     1       9.912 -10.476  -5.264  1.00  0.00    -0.029 A 
ATOM     18  C   UNL     1      10.051  -9.680  -6.406  1.00  0.00     0.006 A 
ATOM     19  C   UNL     1      10.473 -11.764  -5.262  1.00  0.00     0.006 A 
ATOM     20  C   UNL     1      10.760 -10.160  -7.512  1.00  0.00     0.004 A 
ATOM     21  C   UNL     1      11.182 -12.238  -6.361  1.00  0.00     0.004 A 
ATOM     22  C   UNL     1      11.341 -11.436  -7.492  1.00  0.00    -0.051 A 
ATOM     23  C   UNL     1      12.221 -11.901  -8.614  1.00  0.00     0.044 C 
ENDBRANCH  16  17
ENDBRANCH   6  16
TORSDOF 3
ENDMDL
MODEL 3
REMARK VINA RESULT:    -6.060      0.546      8.029
REMARK INTER + INTRA:          -7.502
REMARK INTER:                  -7.020
REMARK INTRA:                  -0.482
REMARK UNBOUND:                -0.379
REMARK SMILES Cc1ccc(CNC(=O)NC(=O)c2ccc(C)cc2)cc1
REMARK SMILES IDX 11 1 12 2 10 3 8 4 9 5 7 6 13 9 19 10 18 11 14 12 16 13
REMARK SMILES IDX 15 14 17 15 6 16 5 17 4 18 20 19 3 20 21 21 2 22 1 23
REMARK H PARENT 10 7 7 8
ROOT
ATOM      1  C   UNL     1      10.470  -9.220  -0.672  1.00  0.00     0.259 C 
ATOM      2  O   UNL     1       9.843  -8.331  -0.113  1.00  0.00    -0.269 OA
ATOM      3  N   UNL     1      10.356  -9.677  -1.989  1.00  0.00    -0.274 N 
ATOM      4  C   UNL     1       9.780  -9.258  -3.161  1.00  0.00     0.321 C 
ATOM      5  O   UNL     1      10.028  -9.904  -4.185  1.00  0.00    -0.248 OA
ATOM      6  N   UNL     1       8.991  -8.171  -3.255  1.00  0.00    -0.334 N 
ATOM      7  H   UNL     1      10.973 -10.445  -2.219  1.00  0.00     0.175 HD
ATOM      8  H   UNL     1       8.717  -7.949  -4.201  1.00  0.00     0.165 HD
ENDROOT
BRANCH   1   9
ATOM      9  C   UNL     1      11.494  -9.912   0.133  1.00  0.00     0.040 A 
ATOM     10  C   UNL     1      11.273 -10.229   1.475  1.00  0.00     0.014 A 
ATOM     11  C   UNL     1      12.250 -10.931   2.182  1.00  0.00     0.004 A 
ATOM     12  C   UNL     1      12.705 -10.240  -0.484  1.00  0.00     0.014 A 
ATOM     13  C   UNL     1      13.447 -11.311   1.556  1.00  0.00    -0.051 A 
ATOM     14  C   UNL     1      13.675 -10.948   0.223  1.00  0.00     0.004 A 
ATOM     15  C   UNL     1      14.450 -12.139   2.304  1.00  0.00     0.044 C 
ENDBRANCH   1   9
BRANCH   6  16
ATOM     16  C   UNL     1       8.665  -7.233  -2.219  1.00  0.00     0.153 C 
BRANCH  16  17
ATOM     17  C   UNL     1       7.240  -6.760  -2.140  1.00  0.00    -0.029 A 
ATOM     18  C   UNL     1       6.776  -5.620  -2.805  1.00  0.00     0.006 A 
ATOM     19  C   UNL     1       6.307  -7.624  -1.545  1.00  0.00     0.006 A 
ATOM     20  C   UNL     1       5.402  -5.369  -2.890  1.00  0.00     0.004 A 
ATOM     21  C   UNL     1       4.941  -7.376  -1.634  1.00  0.00     0.004 A 
ATOM     22  C   UNL     1       4.476  -6.251  -2.317  1.00  0.00    -0.051 A 
ATOM     23  C   UNL     1       3.003  -6.066  -2.525  1.00  0.00     0.044 C 
ENDBRANCH  16  17
ENDBRANCH   6  16
TORSDOF 3
ENDMDL
MODEL 4
REMARK VINA RESULT:    -6.035      3.124      7.329
REMARK INTER + INTRA:          -7.473
REMARK INTER:                  -6.989
REMARK INTRA:                  -0.484
REMARK UNBOUND:                -0.379
REMARK SMILES Cc1ccc(CNC(=O)NC(=O)c2ccc(C)cc2)cc1
REMARK SMILES IDX 11 1 12 2 10 3 8 4 9 5 7 6 13 9 19 10 18 11 14 12 16 13
REMARK SMILES IDX 15 14 17 15 6 16 5 17 4 18 20 19 3 20 21 21 2 22 1 23
REMARK H PARENT 10 7 7 8
ROOT
ATOM      1  C   UNL     1       9.518  -9.448  -4.141  1.00  0.00     0.259 C 
ATOM      2  O   UNL     1       8.526  -8.767  -4.363  1.00  0.00    -0.269 OA
ATOM      3  N   UNL     1      10.241  -9.582  -2.952  1.00  0.00    -0.274 N 
ATOM      4  C   UNL     1      10.073  -9.279  -1.625  1.00  0.00     0.321 C 
ATOM      5  O   UNL     1      10.922  -9.696  -0.830  1.00  0.00    -0.248 OA
ATOM      6  N   UNL     1       9.025  -8.583  -1.147  1.00  0.00    -0.334 N 
ATOM      7  H   UNL     1      11.044 -10.192  -3.019  1.00  0.00     0.175 HD
ATOM      8  H   UNL     1       9.004  -8.519  -0.139  1.00  0.00     0.165 HD
ENDROOT
BRANCH   1   9
ATOM      9  C   UNL     1      10.033 -10.249  -5.268  1.00  0.00     0.040 A 
ATOM     10  C   UNL     1      10.079  -9.736  -6.566  1.00  0.00     0.014 A 
ATOM     11  C   UNL     1      10.624 -10.511  -7.589  1.00  0.00     0.004 A 
ATOM     12  C   UNL     1      10.473 -11.550  -5.003  1.00  0.00     0.014 A 
ATOM     13  C   UNL     1      11.115 -11.798  -7.324  1.00  0.00    -0.051 A 
ATOM     14  C   UNL     1      11.022 -12.319  -6.027  1.00  0.00     0.004 A 
ATOM     15  C   UNL     1      11.775 -12.586  -8.417  1.00  0.00     0.044 C 
ENDBRANCH   1   9
BRANCH   6  16
ATOM     16  C   UNL     1       7.887  -8.101  -1.878  1.00  0.00     0.153 C 
BRANCH  16  17
ATOM     17  C   UNL     1       7.403  -6.712  -1.564  1.00  0.00    -0.029 A 
ATOM     18  C   UNL     1       6.414  -6.445  -0.611  1.00  0.00     0.006 A 
ATOM     19  C   UNL     1       8.130  -5.640  -2.105  1.00  0.00     0.006 A 
ATOM     20  C   UNL     1       6.180  -5.131  -0.194  1.00  0.00     0.004 A 
ATOM     21  C   UNL     1       7.900  -4.334  -1.686  1.00  0.00     0.004 A 
ATOM     22  C   UNL     1       6.930  -4.068  -0.719  1.00  0.00    -0.051 A 
ATOM     23  C   UNL     1       6.784  -2.679  -0.175  1.00  0.00     0.044 C 
ENDBRANCH  16  17
ENDBRANCH   6  16
TORSDOF 3
ENDMDL
MODEL 5
REMARK VINA RESULT:    -5.778      1.206      7.997
REMARK INTER + INTRA:          -7.170
REMARK INTER:                  -6.761
REMARK INTRA:                  -0.410
REMARK UNBOUND:                -0.379
REMARK SMILES Cc1ccc(CNC(=O)NC(=O)c2ccc(C)cc2)cc1
REMARK SMILES IDX 11 1 12 2 10 3 8 4 9 5 7 6 13 9 19 10 18 11 14 12 16 13
REMARK SMILES IDX 15 14 17 15 6 16 5 17 4 18 20 19 3 20 21 21 2 22 1 23
REMARK H PARENT 10 7 7 8
ROOT
ATOM      1  C   UNL     1      10.766  -9.209  -0.513  1.00  0.00     0.259 C 
ATOM      2  O   UNL     1      10.331  -8.186  -0.004  1.00  0.00    -0.269 OA
ATOM      3  N   UNL     1      10.477  -9.754  -1.769  1.00  0.00    -0.274 N 
ATOM      4  C   UNL     1       9.880  -9.349  -2.935  1.00  0.00     0.321 C 
ATOM      5  O   UNL     1       9.942 -10.112  -3.905  1.00  0.00    -0.248 OA
ATOM      6  N   UNL     1       9.264  -8.162  -3.083  1.00  0.00    -0.334 N 
ATOM      7  H   UNL     1      10.947 -10.628  -1.962  1.00  0.00     0.175 HD
ATOM      8  H   UNL     1       8.953  -7.980  -4.027  1.00  0.00     0.165 HD
ENDROOT
BRANCH   1   9
ATOM      9  C   UNL     1      11.732  -9.987   0.287  1.00  0.00     0.040 A 
ATOM     10  C   UNL     1      11.458 -10.349   1.608  1.00  0.00     0.014 A 
ATOM     11  C   UNL     1      12.379 -11.129   2.307  1.00  0.00     0.004 A 
ATOM     12  C   UNL     1      12.941 -10.349  -0.313  1.00  0.00     0.014 A 
ATOM     13  C   UNL     1      13.573 -11.542   1.697  1.00  0.00    -0.051 A 
ATOM     14  C   UNL     1      13.855 -11.134   0.387  1.00  0.00     0.004 A 
ATOM     15  C   UNL     1      14.513 -12.451   2.433  1.00  0.00     0.044 C 
ENDBRANCH   1   9
BRANCH   6  16
ATOM     16  C   UNL     1       9.172  -7.097  -2.124  1.00  0.00     0.153 C 
BRANCH  16  17
ATOM     17  C   UNL     1       7.882  -6.327  -2.071  1.00  0.00    -0.029 A 
ATOM     18  C   UNL     1       6.641  -6.931  -1.845  1.00  0.00     0.006 A 
ATOM     19  C   UNL     1       7.970  -4.926  -2.039  1.00  0.00     0.006 A 
ATOM     20  C   UNL     1       5.519  -6.142  -1.568  1.00  0.00     0.004 A 
ATOM     21  C   UNL     1       6.855  -4.143  -1.758  1.00  0.00     0.004 A 
ATOM     22  C   UNL     1       5.621  -4.745  -1.510  1.00  0.00    -0.051 A 
ATOM     23  C   UNL     1       4.459  -3.904  -1.074  1.00  0.00     0.044 C 
ENDBRANCH  16  17
ENDBRANCH   6  16
TORSDOF 3
ENDMDL
MODEL 6
REMARK VINA RESULT:    -5.757      3.032      7.599
REMARK INTER + INTRA:          -7.147
REMARK INTER:                  -6.663
REMARK INTRA:                  -0.484
REMARK UNBOUND:                -0.379
REMARK SMILES Cc1ccc(CNC(=O)NC(=O)c2ccc(C)cc2)cc1
REMARK SMILES IDX 11 1 12 2 10 3 8 4 9 5 7 6 13 9 19 10 18 11 14 12 16 13
REMARK SMILES IDX 15 14 17 15 6 16 5 17 4 18 20 19 3 20 21 21 2 22 1 23
REMARK H PARENT 10 7 7 8
ROOT
ATOM      1  C   UNL     1       9.503  -9.884  -4.302  1.00  0.00     0.259 C 
ATOM      2  O   UNL     1       8.347  -9.527  -4.482  1.00  0.00    -0.269 OA
ATOM      3  N   UNL     1      10.301  -9.723  -3.165  1.00  0.00    -0.274 N 
ATOM      4  C   UNL     1      10.131  -9.385  -1.847  1.00  0.00     0.321 C 
ATOM      5  O   UNL     1      11.109  -9.488  -1.098  1.00  0.00    -0.248 OA
ATOM      6  N   UNL     1       8.957  -8.980  -1.328  1.00  0.00    -0.334 N 
ATOM      7  H   UNL     1      11.241 -10.085  -3.261  1.00  0.00     0.175 HD
ATOM      8  H   UNL     1       8.978  -8.853  -0.326  1.00  0.00     0.165 HD
ENDROOT
BRANCH   1   9
ATOM      9  C   UNL     1      10.160 -10.585  -5.421  1.00  0.00     0.040 A 
ATOM     10  C   UNL     1      10.708 -11.859  -5.261  1.00  0.00     0.014 A 
ATOM     11  C   UNL     1      11.272 -12.505  -6.361  1.00  0.00     0.004 A 
ATOM     12  C   UNL     1      10.226  -9.933  -6.657  1.00  0.00     0.014 A 
ATOM     13  C   UNL     1      11.298 -11.880  -7.618  1.00  0.00    -0.051 A 
ATOM     14  C   UNL     1      10.785 -10.584  -7.755  1.00  0.00     0.004 A 
ATOM     15  C   UNL     1      11.831 -12.620  -8.809  1.00  0.00     0.044 C 
ENDBRANCH   1   9
BRANCH   6  16
ATOM     16  C   UNL     1       7.689  -8.892  -1.994  1.00  0.00     0.153 C 
BRANCH  16  17
ATOM     17  C   UNL     1       6.941  -7.593  -1.884  1.00  0.00    -0.029 A 
ATOM     18  C   UNL     1       5.623  -7.507  -1.421  1.00  0.00     0.006 A 
ATOM     19  C   UNL     1       7.677  -6.410  -2.056  1.00  0.00     0.006 A 
ATOM     20  C   UNL     1       5.069  -6.260  -1.115  1.00  0.00     0.004 A 
ATOM     21  C   UNL     1       7.126  -5.170  -1.747  1.00  0.00     0.004 A 
ATOM     22  C   UNL     1       5.819  -5.085  -1.263  1.00  0.00    -0.051 A 
ATOM     23  C   UNL     1       5.283  -3.763  -0.803  1.00  0.00     0.044 C 
ENDBRANCH  16  17
ENDBRANCH   6  16
TORSDOF 3
ENDMDL
MODEL 7
REMARK VINA RESULT:    -5.108      7.765     10.424
REMARK INTER + INTRA:          -6.383
REMARK INTER:                  -6.021
REMARK INTRA:                  -0.362
REMARK UNBOUND:                -0.379
REMARK SMILES Cc1ccc(CNC(=O)NC(=O)c2ccc(C)cc2)cc1
REMARK SMILES IDX 11 1 12 2 10 3 8 4 9 5 7 6 13 9 19 10 18 11 14 12 16 13
REMARK SMILES IDX 15 14 17 15 6 16 5 17 4 18 20 19 3 20 21 21 2 22 1 23
REMARK H PARENT 10 7 7 8
ROOT
ATOM      1  C   UNL     1      12.173 -12.091  -8.123  1.00  0.00     0.259 C 
ATOM      2  O   UNL     1      12.432 -13.281  -8.013  1.00  0.00    -0.269 OA
ATOM      3  N   UNL     1      12.592 -11.191  -9.108  1.00  0.00    -0.274 N 
ATOM      4  C   UNL     1      13.174 -11.246 -10.349  1.00  0.00     0.321 C 
ATOM      5  O   UNL     1      13.267 -10.191 -10.985  1.00  0.00    -0.248 OA
ATOM      6  N   UNL     1      13.617 -12.384 -10.913  1.00  0.00    -0.334 N 
ATOM      7  H   UNL     1      12.263 -10.244  -8.975  1.00  0.00     0.175 HD
ATOM      8  H   UNL     1      13.940 -12.268 -11.863  1.00  0.00     0.165 HD
ENDROOT
BRANCH   1   9
ATOM      9  C   UNL     1      11.296 -11.507  -7.090  1.00  0.00     0.040 A 
ATOM     10  C   UNL     1      11.056 -12.166  -5.882  1.00  0.00     0.014 A 
ATOM     11  C   UNL     1      10.262 -11.550  -4.914  1.00  0.00     0.004 A 
ATOM     12  C   UNL     1      10.701 -10.270  -7.355  1.00  0.00     0.014 A 
ATOM     13  C   UNL     1       9.703 -10.285  -5.150  1.00  0.00    -0.051 A 
ATOM     14  C   UNL     1       9.915  -9.656  -6.382  1.00  0.00     0.004 A 
ATOM     15  C   UNL     1       8.922  -9.600  -4.067  1.00  0.00     0.044 C 
ENDBRANCH   1   9
BRANCH   6  16
ATOM     16  C   UNL     1      13.512 -13.718 -10.394  1.00  0.00     0.153 C 
BRANCH  16  17
ATOM     17  C   UNL     1      12.389 -14.574 -10.911  1.00  0.00    -0.029 A 
ATOM     18  C   UNL     1      12.266 -15.935 -10.612  1.00  0.00     0.006 A 
ATOM     19  C   UNL     1      11.319 -13.918 -11.541  1.00  0.00     0.006 A 
ATOM     20  C   UNL     1      11.082 -16.614 -10.919  1.00  0.00     0.004 A 
ATOM     21  C   UNL     1      10.141 -14.594 -11.841  1.00  0.00     0.004 A 
ATOM     22  C   UNL     1      10.008 -15.946 -11.523  1.00  0.00    -0.051 A 
ATOM     23  C   UNL     1       8.689 -16.630 -11.724  1.00  0.00     0.044 C 
ENDBRANCH  16  17
ENDBRANCH   6  16
TORSDOF 3
ENDMDL
MODEL 8
REMARK VINA RESULT:    -4.607      4.646      7.041
REMARK INTER + INTRA:          -5.794
REMARK INTER:                  -5.316
REMARK INTRA:                  -0.478
REMARK UNBOUND:                -0.379
REMARK SMILES Cc1ccc(CNC(=O)NC(=O)c2ccc(C)cc2)cc1
REMARK SMILES IDX 11 1 12 2 10 3 8 4 9 5 7 6 13 9 19 10 18 11 14 12 16 13
REMARK SMILES IDX 15 14 17 15 6 16 5 17 4 18 20 19 3 20 21 21 2 22 1 23
REMARK H PARENT 10 7 7 8
ROOT
ATOM      1  C   UNL     1       9.511 -10.043  -4.409  1.00  0.00     0.259 C 
ATOM      2  O   UNL     1       9.062  -9.940  -5.542  1.00  0.00    -0.269 OA
ATOM      3  N   UNL     1      10.429 -10.974  -3.912  1.00  0.00    -0.274 N 
ATOM      4  C   UNL     1      11.314 -11.893  -4.416  1.00  0.00     0.321 C 
ATOM      5  O   UNL     1      12.075 -12.453  -3.620  1.00  0.00    -0.248 OA
ATOM      6  N   UNL     1      11.414 -12.189  -5.726  1.00  0.00    -0.334 N 
ATOM      7  H   UNL     1      10.634 -10.873  -2.927  1.00  0.00     0.175 HD
ATOM      8  H   UNL     1      12.171 -12.821  -5.943  1.00  0.00     0.165 HD
ENDROOT
BRANCH   1   9
ATOM      9  C   UNL     1       9.036  -9.058  -3.418  1.00  0.00     0.040 A 
ATOM     10  C   UNL     1       9.790  -7.928  -3.096  1.00  0.00     0.014 A 
ATOM     11  C   UNL     1       9.275  -6.998  -2.192  1.00  0.00     0.004 A 
ATOM     12  C   UNL     1       7.804  -9.292  -2.799  1.00  0.00     0.014 A 
ATOM     13  C   UNL     1       8.017  -7.197  -1.604  1.00  0.00    -0.051 A 
ATOM     14  C   UNL     1       7.291  -8.357  -1.901  1.00  0.00     0.004 A 
ATOM     15  C   UNL     1       7.441  -6.147  -0.700  1.00  0.00     0.044 C 
ENDBRANCH   1   9
BRANCH   6  16
ATOM     16  C   UNL     1      10.704 -11.584  -6.817  1.00  0.00     0.153 C 
BRANCH  16  17
ATOM     17  C   UNL     1      11.510 -11.158  -8.012  1.00  0.00    -0.029 A 
ATOM     18  C   UNL     1      12.216  -9.952  -8.067  1.00  0.00     0.006 A 
ATOM     19  C   UNL     1      11.723 -12.114  -9.019  1.00  0.00     0.006 A 
ATOM     20  C   UNL     1      13.134  -9.723  -9.097  1.00  0.00     0.004 A 
ATOM     21  C   UNL     1      12.640 -11.888 -10.041  1.00  0.00     0.004 A 
ATOM     22  C   UNL     1      13.362 -10.694 -10.083  1.00  0.00    -0.051 A 
ATOM     23  C   UNL     1      14.444 -10.516 -11.106  1.00  0.00     0.044 C 
ENDBRANCH  16  17
ENDBRANCH   6  16
TORSDOF 3
ENDMDL
MODEL 9
REMARK VINA RESULT:    -4.597      2.171      3.853
REMARK INTER + INTRA:          -5.783
REMARK INTER:                  -5.326
REMARK INTRA:                  -0.457
REMARK UNBOUND:                -0.379
REMARK SMILES Cc1ccc(CNC(=O)NC(=O)c2ccc(C)cc2)cc1
REMARK SMILES IDX 11 1 12 2 10 3 8 4 9 5 7 6 13 9 19 10 18 11 14 12 16 13
REMARK SMILES IDX 15 14 17 15 6 16 5 17 4 18 20 19 3 20 21 21 2 22 1 23
REMARK H PARENT 10 7 7 8
ROOT
ATOM      1  C   UNL     1      11.097  -9.285  -0.384  1.00  0.00     0.259 C 
ATOM      2  O   UNL     1      11.112  -9.158   0.832  1.00  0.00    -0.269 OA
ATOM      3  N   UNL     1      12.019  -9.941  -1.206  1.00  0.00    -0.274 N 
ATOM      4  C   UNL     1      13.057 -10.825  -1.061  1.00  0.00     0.321 C 
ATOM      5  O   UNL     1      13.561 -11.292  -2.088  1.00  0.00    -0.248 OA
ATOM      6  N   UNL     1      13.530 -11.228   0.133  1.00  0.00    -0.334 N 
ATOM      7  H   UNL     1      11.804  -9.894  -2.193  1.00  0.00     0.175 HD
ATOM      8  H   UNL     1      14.238 -11.945   0.069  1.00  0.00     0.165 HD
ENDROOT
BRANCH   1   9
ATOM      9  C   UNL     1       9.959  -8.676  -1.098  1.00  0.00     0.040 A 
ATOM     10  C   UNL     1       8.807  -9.409  -1.391  1.00  0.00     0.014 A 
ATOM     11  C   UNL     1       7.736  -8.776  -2.022  1.00  0.00     0.004 A 
ATOM     12  C   UNL     1      10.066  -7.336  -1.484  1.00  0.00     0.014 A 
ATOM     13  C   UNL     1       7.813  -7.418  -2.366  1.00  0.00    -0.051 A 
ATOM     14  C   UNL     1       8.991  -6.706  -2.108  1.00  0.00     0.004 A 
ATOM     15  C   UNL     1       6.622  -6.730  -2.966  1.00  0.00     0.044 C 
ENDBRANCH   1   9
BRANCH   6  16
ATOM     16  C   UNL     1      13.025 -10.891   1.434  1.00  0.00     0.153 C 
BRANCH  16  17
ATOM     17  C   UNL     1      12.887 -12.008   2.431  1.00  0.00    -0.029 A 
ATOM     18  C   UNL     1      11.810 -12.901   2.433  1.00  0.00     0.006 A 
ATOM     19  C   UNL     1      13.995 -12.280   3.250  1.00  0.00     0.006 A 
ATOM     20  C   UNL     1      11.859 -14.055   3.223  1.00  0.00     0.004 A 
ATOM     21  C   UNL     1      14.045 -13.430   4.031  1.00  0.00     0.004 A 
ATOM     22  C   UNL     1      12.980 -14.333   4.017  1.00  0.00    -0.051 A 
ATOM     23  C   UNL     1      13.101 -15.633   4.754  1.00  0.00     0.044 C 
ENDBRANCH  16  17
ENDBRANCH   6  16
TORSDOF 3
ENDMDL
