MODEL 1
REMARK VINA RESULT:    -4.143      0.000      0.000
REMARK INTER + INTRA:          -5.656
REMARK INTER:                  -5.475
REMARK INTRA:                  -0.181
REMARK UNBOUND:                -0.181
REMARK SMILES [H]/N=C\C[C@H]1C[C@@H]1O[C@H]1CO[C@H]2C[C@@H](C3CC3)CCN2C1
REMARK SMILES IDX 7 1 6 2 5 3 8 4 9 5 14 6 13 7 18 8 12 9 19 10 20 11 11 12
REMARK SMILES IDX 21 13 10 14 15 15 16 16 17 17 4 18 3 19 2 20 1 21
REMARK H PARENT
ROOT
ATOM      1  C   UNL     1       9.970  -9.658  -4.934  1.00  0.00     0.122 C 
ATOM      2  C   UNL     1      10.113 -11.136  -5.166  1.00  0.00     0.039 C 
ATOM      3  C   UNL     1       9.760 -10.229  -6.310  1.00  0.00     0.026 C 
ENDROOT
BRANCH   1   4
ATOM      4  O   UNL     1       8.786  -9.290  -4.202  1.00  0.00    -0.371 OA
BRANCH   4   5
ATOM      5  C   UNL     1       8.773  -9.667  -2.815  1.00  0.00     0.158 C 
ATOM      6  C   UNL     1       6.622  -5.342  -0.847  1.00  0.00    -0.003 C 
ATOM      7  C   UNL     1       7.984  -5.718  -1.445  1.00  0.00     0.052 C 
ATOM      8  C   UNL     1       5.524  -6.173  -1.525  1.00  0.00     0.019 C 
ATOM      9  C   UNL     1       8.228  -7.232  -1.401  1.00  0.00     0.189 C 
ATOM     10  C   UNL     1       5.844  -7.667  -1.476  1.00  0.00     0.087 C 
ATOM     11  N   UNL     1       7.146  -7.944  -2.082  1.00  0.00    -0.276 NA
ATOM     12  O   UNL     1       9.494  -7.460  -2.022  1.00  0.00    -0.360 OA
ATOM     13  C   UNL     1       7.429  -9.383  -2.121  1.00  0.00     0.121 C 
ATOM     14  C   UNL     1       9.844  -8.846  -2.089  1.00  0.00     0.195 C 
BRANCH   6  15
ATOM     15  C   UNL     1       6.339  -3.865  -0.997  1.00  0.00    -0.008 C 
ATOM     16  C   UNL     1       5.698  -3.092   0.131  1.00  0.00     0.004 C 
ATOM     17  C   UNL     1       7.135  -2.842  -0.223  1.00  0.00     0.004 C 
ENDBRANCH   6  15
ENDBRANCH   4   5
ENDBRANCH   1   4
BRANCH   3  18
ATOM     18  C   UNL     1      10.774  -9.993  -7.389  1.00  0.00     0.053 C 
BRANCH  18  19
ATOM     19  C   UNL     1      11.265 -11.215  -8.122  1.00  0.00     0.074 C 
BRANCH  19  20
ATOM     20  N   UNL     1      10.814 -11.653  -9.250  1.00  0.00    -0.313 NA
ATOM     21  H   UNL     1      11.535 -11.621  -9.985  1.00  0.00     0.186 HD
ENDBRANCH  19  20
ENDBRANCH  18  19
ENDBRANCH   3  18
TORSDOF 6
ENDMDL
MODEL 2
REMARK VINA RESULT:    -4.094      3.322      5.509
REMARK INTER + INTRA:          -5.592
REMARK INTER:                  -5.325
REMARK INTRA:                  -0.266
REMARK UNBOUND:                -0.181
REMARK SMILES [H]/N=C\C[C@H]1C[C@@H]1O[C@H]1CO[C@H]2C[C@@H](C3CC3)CCN2C1
REMARK SMILES IDX 7 1 6 2 5 3 8 4 9 5 14 6 13 7 18 8 12 9 19 10 20 11 11 12
REMARK SMILES IDX 21 13 10 14 15 15 16 16 17 17 4 18 3 19 2 20 1 21
REMARK H PARENT
ROOT
ATOM      1  C   UNL     1      10.818  -9.707  -0.135  1.00  0.00     0.122 C 
ATOM      2  C   UNL     1      12.317  -9.795  -0.071  1.00  0.00     0.039 C 
ATOM      3  C   UNL     1      11.511  -9.807   1.196  1.00  0.00     0.026 C 
ENDROOT
BRANCH   1   4
ATOM      4  O   UNL     1      10.322  -8.408  -0.508  1.00  0.00    -0.371 OA
BRANCH   4   5
ATOM      5  C   UNL     1      10.395  -8.095  -1.909  1.00  0.00     0.158 C 
ATOM      6  C   UNL     1       5.759  -5.763  -2.433  1.00  0.00    -0.003 C 
ATOM      7  C   UNL     1       6.247  -7.202  -2.225  1.00  0.00     0.052 C 
ATOM      8  C   UNL     1       6.719  -4.795  -1.729  1.00  0.00     0.019 C 
ATOM      9  C   UNL     1       7.716  -7.370  -2.636  1.00  0.00     0.189 C 
ATOM     10  C   UNL     1       8.167  -5.036  -2.155  1.00  0.00     0.087 C 
ATOM     11  N   UNL     1       8.561  -6.423  -1.907  1.00  0.00    -0.276 NA
ATOM     12  O   UNL     1       8.067  -8.727  -2.356  1.00  0.00    -0.360 OA
ATOM     13  C   UNL     1       9.974  -6.650  -2.230  1.00  0.00     0.121 C 
ATOM     14  C   UNL     1       9.434  -9.026  -2.655  1.00  0.00     0.195 C 
BRANCH   6  15
ATOM     15  C   UNL     1       4.348  -5.577  -1.921  1.00  0.00    -0.008 C 
ATOM     16  C   UNL     1       3.283  -4.985  -2.814  1.00  0.00     0.004 C 
ATOM     17  C   UNL     1       3.218  -6.436  -2.436  1.00  0.00     0.004 C 
ENDBRANCH   6  15
ENDBRANCH   4   5
ENDBRANCH   1   4
BRANCH   3  18
ATOM     18  C   UNL     1      11.433 -11.073   1.996  1.00  0.00     0.053 C 
BRANCH  18  19
ATOM     19  C   UNL     1      12.743 -11.758   2.289  1.00  0.00     0.074 C 
BRANCH  19  20
ATOM     20  N   UNL     1      13.697 -11.286   3.020  1.00  0.00    -0.313 NA
ATOM     21  H   UNL     1      13.687 -11.693   3.966  1.00  0.00     0.186 HD
ENDBRANCH  19  20
ENDBRANCH  18  19
ENDBRANCH   3  18
TORSDOF 6
ENDMDL
MODEL 3
REMARK VINA RESULT:    -3.978      2.684      8.585
REMARK INTER + INTRA:          -5.438
REMARK INTER:                  -5.179
REMARK INTRA:                  -0.260
REMARK UNBOUND:                -0.181
REMARK SMILES [H]/N=C\C[C@H]1C[C@@H]1O[C@H]1CO[C@H]2C[C@@H](C3CC3)CCN2C1
REMARK SMILES IDX 7 1 6 2 5 3 8 4 9 5 14 6 13 7 18 8 12 9 19 10 20 11 11 12
REMARK SMILES IDX 21 13 10 14 15 15 16 16 17 17 4 18 3 19 2 20 1 21
REMARK H PARENT
ROOT
ATOM      1  C   UNL     1       9.384  -8.645  -2.765  1.00  0.00     0.122 C 
ATOM      2  C   UNL     1      10.188  -8.410  -1.517  1.00  0.00     0.039 C 
ATOM      3  C   UNL     1       9.933  -7.277  -2.469  1.00  0.00     0.026 C 
ENDROOT
BRANCH   1   4
ATOM      4  O   UNL     1      10.073  -9.413  -3.770  1.00  0.00    -0.371 OA
BRANCH   4   5
ATOM      5  C   UNL     1       9.252 -10.312  -4.534  1.00  0.00     0.158 C 
ATOM      6  C   UNL     1      12.625 -11.389  -8.364  1.00  0.00    -0.003 C 
ATOM      7  C   UNL     1      11.777 -10.178  -7.955  1.00  0.00     0.052 C 
ATOM      8  C   UNL     1      13.046 -12.161  -7.106  1.00  0.00     0.019 C 
ATOM      9  C   UNL     1      10.607 -10.582  -7.048  1.00  0.00     0.189 C 
ATOM     10  C   UNL     1      11.841 -12.502  -6.230  1.00  0.00     0.087 C 
ATOM     11  N   UNL     1      11.099 -11.295  -5.868  1.00  0.00    -0.276 NA
ATOM     12  O   UNL     1       9.926  -9.375  -6.699  1.00  0.00    -0.360 OA
ATOM     13  C   UNL     1       9.989 -11.595  -4.956  1.00  0.00     0.121 C 
ATOM     14  C   UNL     1       8.821  -9.591  -5.815  1.00  0.00     0.195 C 
BRANCH   6  15
ATOM     15  C   UNL     1      13.839 -10.973  -9.163  1.00  0.00    -0.008 C 
ATOM     16  C   UNL     1      14.210 -11.708 -10.429  1.00  0.00     0.004 C 
ATOM     17  C   UNL     1      13.688 -10.302 -10.507  1.00  0.00     0.004 C 
ENDBRANCH   6  15
ENDBRANCH   4   5
ENDBRANCH   1   4
BRANCH   3  18
ATOM     18  C   UNL     1       9.015  -6.168  -2.050  1.00  0.00     0.053 C 
BRANCH  18  19
ATOM     19  C   UNL     1       9.396  -4.781  -2.498  1.00  0.00     0.074 C 
BRANCH  19  20
ATOM     20  N   UNL     1      10.600  -4.333  -2.633  1.00  0.00    -0.313 NA
ATOM     21  H   UNL     1      10.653  -3.596  -3.350  1.00  0.00     0.186 HD
ENDBRANCH  19  20
ENDBRANCH  18  19
ENDBRANCH   3  18
TORSDOF 6
ENDMDL
MODEL 4
REMARK VINA RESULT:    -3.973      5.172      8.431
REMARK INTER + INTRA:          -5.432
REMARK INTER:                  -5.148
REMARK INTRA:                  -0.284
REMARK UNBOUND:                -0.181
REMARK SMILES [H]/N=C\C[C@H]1C[C@@H]1O[C@H]1CO[C@H]2C[C@@H](C3CC3)CCN2C1
REMARK SMILES IDX 7 1 6 2 5 3 8 4 9 5 14 6 13 7 18 8 12 9 19 10 20 11 11 12
REMARK SMILES IDX 21 13 10 14 15 15 16 16 17 17 4 18 3 19 2 20 1 21
REMARK H PARENT
ROOT
ATOM      1  C   UNL     1       9.383  -8.857  -1.797  1.00  0.00     0.122 C 
ATOM      2  C   UNL     1       8.833  -9.437  -3.069  1.00  0.00     0.039 C 
ATOM      3  C   UNL     1       7.971  -9.373  -1.841  1.00  0.00     0.026 C 
ENDROOT
BRANCH   1   4
ATOM      4  O   UNL     1      10.356  -9.694  -1.143  1.00  0.00    -0.371 OA
BRANCH   4   5
ATOM      5  C   UNL     1      11.389  -9.000  -0.426  1.00  0.00     0.158 C 
ATOM      6  C   UNL     1      13.269 -13.015   2.322  1.00  0.00    -0.003 C 
ATOM      7  C   UNL     1      11.994 -12.164   2.353  1.00  0.00     0.052 C 
ATOM      8  C   UNL     1      13.763 -13.136   0.873  1.00  0.00     0.019 C 
ATOM      9  C   UNL     1      12.190 -10.817   1.644  1.00  0.00     0.189 C 
ATOM     10  C   UNL     1      13.904 -11.764   0.215  1.00  0.00     0.087 C 
ATOM     11  N   UNL     1      12.643 -11.025   0.269  1.00  0.00    -0.276 NA
ATOM     12  O   UNL     1      10.932 -10.141   1.698  1.00  0.00    -0.360 OA
ATOM     13  C   UNL     1      12.738  -9.741  -0.435  1.00  0.00     0.121 C 
ATOM     14  C   UNL     1      10.950  -8.872   1.037  1.00  0.00     0.195 C 
BRANCH   6  15
ATOM     15  C   UNL     1      13.038 -14.384   2.919  1.00  0.00    -0.008 C 
ATOM     16  C   UNL     1      13.991 -14.938   3.953  1.00  0.00     0.004 C 
ATOM     17  C   UNL     1      12.602 -14.537   4.356  1.00  0.00     0.004 C 
ENDBRANCH   6  15
ENDBRANCH   4   5
ENDBRANCH   1   4
BRANCH   3  18
ATOM     18  C   UNL     1       6.816  -8.417  -1.812  1.00  0.00     0.053 C 
BRANCH  18  19
ATOM     19  C   UNL     1       5.498  -8.978  -1.346  1.00  0.00     0.074 C 
BRANCH  19  20
ATOM     20  N   UNL     1       5.190 -10.230  -1.278  1.00  0.00    -0.313 NA
ATOM     21  H   UNL     1       6.025 -10.830  -1.327  1.00  0.00     0.186 HD
ENDBRANCH  19  20
ENDBRANCH  18  19
ENDBRANCH   3  18
TORSDOF 6
ENDMDL
MODEL 5
REMARK VINA RESULT:    -3.968      5.361      8.529
REMARK INTER + INTRA:          -5.425
REMARK INTER:                  -5.300
REMARK INTRA:                  -0.125
REMARK UNBOUND:                -0.181
REMARK SMILES [H]/N=C\C[C@H]1C[C@@H]1O[C@H]1CO[C@H]2C[C@@H](C3CC3)CCN2C1
REMARK SMILES IDX 7 1 6 2 5 3 8 4 9 5 14 6 13 7 18 8 12 9 19 10 20 11 11 12
REMARK SMILES IDX 21 13 10 14 15 15 16 16 17 17 4 18 3 19 2 20 1 21
REMARK H PARENT
ROOT
ATOM      1  C   UNL     1      12.523 -15.299 -10.115  1.00  0.00     0.122 C 
ATOM      2  C   UNL     1      13.065 -16.347 -11.045  1.00  0.00     0.039 C 
ATOM      3  C   UNL     1      11.634 -16.414 -10.595  1.00  0.00     0.026 C 
ENDROOT
BRANCH   1   4
ATOM      4  O   UNL     1      13.015 -15.402  -8.765  1.00  0.00    -0.371 OA
BRANCH   4   5
ATOM      5  C   UNL     1      13.983 -14.412  -8.381  1.00  0.00     0.158 C 
ATOM      6  C   UNL     1      10.920 -11.442  -5.381  1.00  0.00    -0.003 C 
ATOM      7  C   UNL     1      11.059 -11.708  -6.885  1.00  0.00     0.052 C 
ATOM      8  C   UNL     1      11.281 -12.717  -4.605  1.00  0.00     0.019 C 
ATOM      9  C   UNL     1      12.438 -12.284  -7.236  1.00  0.00     0.189 C 
ATOM     10  C   UNL     1      12.648 -13.257  -5.025  1.00  0.00     0.087 C 
ATOM     11  N   UNL     1      12.693 -13.502  -6.467  1.00  0.00    -0.276 NA
ATOM     12  O   UNL     1      12.431 -12.530  -8.644  1.00  0.00    -0.360 OA
ATOM     13  C   UNL     1      13.969 -14.103  -6.873  1.00  0.00     0.121 C 
ATOM     14  C   UNL     1      13.651 -13.110  -9.117  1.00  0.00     0.195 C 
BRANCH   6  15
ATOM     15  C   UNL     1       9.523 -10.983  -5.026  1.00  0.00    -0.008 C 
ATOM     16  C   UNL     1       9.317  -9.760  -4.164  1.00  0.00     0.004 C 
ATOM     17  C   UNL     1       8.950  -9.719  -5.619  1.00  0.00     0.004 C 
ENDBRANCH   6  15
ENDBRANCH   4   5
ENDBRANCH   1   4
BRANCH   3  18
ATOM     18  C   UNL     1      10.546 -16.138 -11.588  1.00  0.00     0.053 C 
BRANCH  18  19
ATOM     19  C   UNL     1       9.165 -16.605 -11.210  1.00  0.00     0.074 C 
BRANCH  19  20
ATOM     20  N   UNL     1       8.109 -16.524 -11.949  1.00  0.00    -0.313 NA
ATOM     21  H   UNL     1       8.338 -16.609 -12.950  1.00  0.00     0.186 HD
ENDBRANCH  19  20
ENDBRANCH  18  19
ENDBRANCH   3  18
TORSDOF 6
ENDMDL
MODEL 6
REMARK VINA RESULT:    -3.628      5.836      7.246
REMARK INTER + INTRA:          -4.975
REMARK INTER:                  -4.737
REMARK INTRA:                  -0.238
REMARK UNBOUND:                -0.181
REMARK SMILES [H]/N=C\C[C@H]1C[C@@H]1O[C@H]1CO[C@H]2C[C@@H](C3CC3)CCN2C1
REMARK SMILES IDX 7 1 6 2 5 3 8 4 9 5 14 6 13 7 18 8 12 9 19 10 20 11 11 12
REMARK SMILES IDX 21 13 10 14 15 15 16 16 17 17 4 18 3 19 2 20 1 21
REMARK H PARENT
ROOT
ATOM      1  C   UNL     1      14.635 -15.058  -0.226  1.00  0.00     0.122 C 
ATOM      2  C   UNL     1      13.970 -16.357   0.132  1.00  0.00     0.039 C 
ATOM      3  C   UNL     1      14.062 -15.934  -1.306  1.00  0.00     0.026 C 
ENDROOT
BRANCH   1   4
ATOM      4  O   UNL     1      13.871 -13.890   0.129  1.00  0.00    -0.371 OA
BRANCH   4   5
ATOM      5  C   UNL     1      14.640 -12.713   0.426  1.00  0.00     0.158 C 
ATOM      6  C   UNL     1      10.984  -9.122  -0.544  1.00  0.00    -0.003 C 
ATOM      7  C   UNL     1      11.844 -10.070  -1.389  1.00  0.00     0.052 C 
ATOM      8  C   UNL     1      10.677  -9.783   0.807  1.00  0.00     0.019 C 
ATOM      9  C   UNL     1      13.090 -10.541  -0.626  1.00  0.00     0.189 C 
ATOM     10  C   UNL     1      11.955 -10.260   1.498  1.00  0.00     0.087 C 
ATOM     11  N   UNL     1      12.706 -11.173   0.636  1.00  0.00    -0.276 NA
ATOM     12  O   UNL     1      13.779 -11.446  -1.491  1.00  0.00    -0.360 OA
ATOM     13  C   UNL     1      13.890 -11.707   1.318  1.00  0.00     0.121 C 
ATOM     14  C   UNL     1      14.955 -12.004  -0.895  1.00  0.00     0.195 C 
BRANCH   6  15
ATOM     15  C   UNL     1       9.703  -8.751  -1.257  1.00  0.00    -0.008 C 
ATOM     16  C   UNL     1       9.627  -7.490  -2.085  1.00  0.00     0.004 C 
ATOM     17  C   UNL     1       9.604  -8.830  -2.761  1.00  0.00     0.004 C 
ENDBRANCH   6  15
ENDBRANCH   4   5
ENDBRANCH   1   4
BRANCH   3  18
ATOM     18  C   UNL     1      14.972 -16.689  -2.228  1.00  0.00     0.053 C 
BRANCH  18  19
ATOM     19  C   UNL     1      14.521 -16.805  -3.661  1.00  0.00     0.074 C 
BRANCH  19  20
ATOM     20  N   UNL     1      13.348 -16.507  -4.113  1.00  0.00    -0.313 NA
ATOM     21  H   UNL     1      12.631 -16.570  -3.377  1.00  0.00     0.186 HD
ENDBRANCH  19  20
ENDBRANCH  18  19
ENDBRANCH   3  18
TORSDOF 6
ENDMDL
MODEL 7
REMARK VINA RESULT:    -3.616      6.875      8.363
REMARK INTER + INTRA:          -4.960
REMARK INTER:                  -4.320
REMARK INTRA:                  -0.640
REMARK UNBOUND:                -0.181
REMARK SMILES [H]/N=C\C[C@H]1C[C@@H]1O[C@H]1CO[C@H]2C[C@@H](C3CC3)CCN2C1
REMARK SMILES IDX 7 1 6 2 5 3 8 4 9 5 14 6 13 7 18 8 12 9 19 10 20 11 11 12
REMARK SMILES IDX 21 13 10 14 15 15 16 16 17 17 4 18 3 19 2 20 1 21
REMARK H PARENT
ROOT
ATOM      1  C   UNL     1      15.541 -15.205  -1.036  1.00  0.00     0.122 C 
ATOM      2  C   UNL     1      15.153 -16.365  -1.909  1.00  0.00     0.039 C 
ATOM      3  C   UNL     1      14.454 -15.045  -2.064  1.00  0.00     0.026 C 
ENDROOT
BRANCH   1   4
ATOM      4  O   UNL     1      15.118 -15.334   0.335  1.00  0.00    -0.371 OA
BRANCH   4   5
ATOM      5  C   UNL     1      15.789 -14.478   1.274  1.00  0.00     0.158 C 
ATOM      6  C   UNL     1      12.199 -10.709   1.600  1.00  0.00    -0.003 C 
ATOM      7  C   UNL     1      13.213 -11.172   0.547  1.00  0.00     0.052 C 
ATOM      8  C   UNL     1      11.711 -11.923   2.403  1.00  0.00     0.019 C 
ATOM      9  C   UNL     1      14.342 -12.004   1.170  1.00  0.00     0.189 C 
ATOM     10  C   UNL     1      12.883 -12.727   2.966  1.00  0.00     0.087 C 
ATOM     11  N   UNL     1      13.791 -13.146   1.899  1.00  0.00    -0.276 NA
ATOM     12  O   UNL     1      15.189 -12.412   0.094  1.00  0.00    -0.360 OA
ATOM     13  C   UNL     1      14.874 -13.992   2.412  1.00  0.00     0.121 C 
ATOM     14  C   UNL     1      16.278 -13.237   0.521  1.00  0.00     0.195 C 
BRANCH   6  15
ATOM     15  C   UNL     1      11.030  -9.988   0.967  1.00  0.00    -0.008 C 
ATOM     16  C   UNL     1      11.003  -8.479   0.911  1.00  0.00     0.004 C 
ATOM     17  C   UNL     1      11.187  -9.269  -0.351  1.00  0.00     0.004 C 
ENDBRANCH   6  15
ENDBRANCH   4   5
ENDBRANCH   1   4
BRANCH   3  18
ATOM     18  C   UNL     1      14.699 -14.234  -3.302  1.00  0.00     0.053 C 
BRANCH  18  19
ATOM     19  C   UNL     1      14.122 -12.843  -3.311  1.00  0.00     0.074 C 
BRANCH  19  20
ATOM     20  N   UNL     1      14.620 -11.812  -2.713  1.00  0.00    -0.313 NA
ATOM     21  H   UNL     1      14.042 -11.522  -1.912  1.00  0.00     0.186 HD
ENDBRANCH  19  20
ENDBRANCH  18  19
ENDBRANCH   3  18
TORSDOF 6
ENDMDL
MODEL 8
REMARK VINA RESULT:    -3.576      4.458      7.063
REMARK INTER + INTRA:          -4.907
REMARK INTER:                  -4.667
REMARK INTRA:                  -0.241
REMARK UNBOUND:                -0.181
REMARK SMILES [H]/N=C\C[C@H]1C[C@@H]1O[C@H]1CO[C@H]2C[C@@H](C3CC3)CCN2C1
REMARK SMILES IDX 7 1 6 2 5 3 8 4 9 5 14 6 13 7 18 8 12 9 19 10 20 11 11 12
REMARK SMILES IDX 21 13 10 14 15 15 16 16 17 17 4 18 3 19 2 20 1 21
REMARK H PARENT
ROOT
ATOM      1  C   UNL     1      15.206 -13.346  -6.360  1.00  0.00     0.122 C 
ATOM      2  C   UNL     1      16.488 -12.633  -6.683  1.00  0.00     0.039 C 
ATOM      3  C   UNL     1      16.136 -12.930  -5.254  1.00  0.00     0.026 C 
ENDROOT
BRANCH   1   4
ATOM      4  O   UNL     1      14.024 -12.544  -6.545  1.00  0.00    -0.371 OA
BRANCH   4   5
ATOM      5  C   UNL     1      12.811 -13.274  -6.793  1.00  0.00     0.158 C 
ATOM      6  C   UNL     1       9.455 -10.024  -4.474  1.00  0.00    -0.003 C 
ATOM      7  C   UNL     1      10.533 -11.008  -4.004  1.00  0.00     0.052 C 
ATOM      8  C   UNL     1       9.872  -9.420  -5.822  1.00  0.00     0.019 C 
ATOM      9  C   UNL     1      10.861 -12.051  -5.081  1.00  0.00     0.189 C 
ATOM     10  C   UNL     1      10.217 -10.509  -6.838  1.00  0.00     0.087 C 
ATOM     11  N   UNL     1      11.264 -11.392  -6.324  1.00  0.00    -0.276 NA
ATOM     12  O   UNL     1      11.901 -12.874  -4.550  1.00  0.00    -0.360 OA
ATOM     13  C   UNL     1      11.668 -12.389  -7.321  1.00  0.00     0.121 C 
ATOM     14  C   UNL     1      12.342 -13.881  -5.466  1.00  0.00     0.195 C 
BRANCH   6  15
ATOM     15  C   UNL     1       9.218  -8.932  -3.455  1.00  0.00    -0.008 C 
ATOM     16  C   UNL     1       8.178  -9.110  -2.374  1.00  0.00     0.004 C 
ATOM     17  C   UNL     1       9.635  -9.114  -2.015  1.00  0.00     0.004 C 
ENDBRANCH   6  15
ENDBRANCH   4   5
ENDBRANCH   1   4
BRANCH   3  18
ATOM     18  C   UNL     1      16.932 -13.959  -4.508  1.00  0.00     0.053 C 
BRANCH  18  19
ATOM     19  C   UNL     1      17.385 -13.576  -3.123  1.00  0.00     0.074 C 
BRANCH  19  20
ATOM     20  N   UNL     1      17.340 -12.390  -2.613  1.00  0.00    -0.313 NA
ATOM     21  H   UNL     1      17.969 -11.741  -3.106  1.00  0.00     0.186 HD
ENDBRANCH  19  20
ENDBRANCH  18  19
ENDBRANCH   3  18
TORSDOF 6
ENDMDL
MODEL 9
REMARK VINA RESULT:    -3.561      5.412      8.388
REMARK INTER + INTRA:          -4.888
REMARK INTER:                  -4.197
REMARK INTRA:                  -0.691
REMARK UNBOUND:                -0.181
REMARK SMILES [H]/N=C\C[C@H]1C[C@@H]1O[C@H]1CO[C@H]2C[C@@H](C3CC3)CCN2C1
REMARK SMILES IDX 7 1 6 2 5 3 8 4 9 5 14 6 13 7 18 8 12 9 19 10 20 11 11 12
REMARK SMILES IDX 21 13 10 14 15 15 16 16 17 17 4 18 3 19 2 20 1 21
REMARK H PARENT
ROOT
ATOM      1  C   UNL     1      15.620 -14.220  -5.981  1.00  0.00     0.122 C 
ATOM      2  C   UNL     1      16.930 -13.873  -5.332  1.00  0.00     0.039 C 
ATOM      3  C   UNL     1      15.640 -13.452  -4.688  1.00  0.00     0.026 C 
ENDROOT
BRANCH   1   4
ATOM      4  O   UNL     1      15.338 -13.466  -7.175  1.00  0.00    -0.371 OA
BRANCH   4   5
ATOM      5  C   UNL     1      14.316 -14.010  -8.026  1.00  0.00     0.158 C 
ATOM      6  C   UNL     1      10.496 -10.636  -6.918  1.00  0.00    -0.003 C 
ATOM      7  C   UNL     1      11.190 -11.790  -6.184  1.00  0.00     0.052 C 
ATOM      8  C   UNL     1      11.505  -9.948  -7.850  1.00  0.00     0.019 C 
ATOM      9  C   UNL     1      11.893 -12.745  -7.158  1.00  0.00     0.189 C 
ATOM     10  C   UNL     1      12.194 -10.957  -8.768  1.00  0.00     0.087 C 
ATOM     11  N   UNL     1      12.845 -12.012  -7.992  1.00  0.00    -0.276 NA
ATOM     12  O   UNL     1      12.534 -13.742  -6.361  1.00  0.00    -0.360 OA
ATOM     13  C   UNL     1      13.584 -12.940  -8.856  1.00  0.00     0.121 C 
ATOM     14  C   UNL     1      13.271 -14.692  -7.137  1.00  0.00     0.195 C 
BRANCH   6  15
ATOM     15  C   UNL     1       9.903  -9.638  -5.949  1.00  0.00    -0.008 C 
ATOM     16  C   UNL     1       8.432  -9.682  -5.613  1.00  0.00     0.004 C 
ATOM     17  C   UNL     1       9.446 -10.070  -4.577  1.00  0.00     0.004 C 
ENDBRANCH   6  15
ENDBRANCH   4   5
ENDBRANCH   1   4
BRANCH   3  18
ATOM     18  C   UNL     1      15.216 -14.112  -3.410  1.00  0.00     0.053 C 
BRANCH  18  19
ATOM     19  C   UNL     1      13.892 -13.673  -2.841  1.00  0.00     0.074 C 
BRANCH  19  20
ATOM     20  N   UNL     1      12.751 -13.730  -3.444  1.00  0.00    -0.313 NA
ATOM     21  H   UNL     1      12.020 -14.125  -2.836  1.00  0.00     0.186 HD
ENDBRANCH  19  20
ENDBRANCH  18  19
ENDBRANCH   3  18
TORSDOF 6
ENDMDL
