MODEL 1
REMARK VINA RESULT:    -4.131      0.000      0.000
REMARK INTER + INTRA:          -5.725
REMARK INTER:                  -5.459
REMARK INTRA:                  -0.265
REMARK UNBOUND:                -0.265
REMARK SMILES [H]/N=C\C[C@H]1C[C@@H]1O[C@H]1CO[C@H]2C[C@@H](C3CC3)CCN2C1
REMARK SMILES IDX 7 1 6 2 5 3 8 4 9 5 14 6 13 7 18 8 12 9 19 10 20 11 11 12
REMARK SMILES IDX 21 13 10 14 15 15 16 16 17 17 4 18 3 19 2 20 1 21
REMARK H PARENT
ROOT
ATOM      1  C   UNL     1       9.404  -3.545 -18.473  1.00  0.00     0.122 C 
ATOM      2  C   UNL     1      10.890  -3.329 -18.409  1.00  0.00     0.039 C 
ATOM      3  C   UNL     1      10.142  -3.758 -17.180  1.00  0.00     0.026 C 
ENDROOT
BRANCH   1   4
ATOM      4  O   UNL     1       8.639  -2.330 -18.587  1.00  0.00    -0.371 OA
BRANCH   4   5
ATOM      5  C   UNL     1       7.272  -2.494 -19.000  1.00  0.00     0.158 C 
ATOM      6  C   UNL     1       4.937  -0.417 -14.824  1.00  0.00    -0.003 C 
ATOM      7  C   UNL     1       5.700  -1.713 -15.124  1.00  0.00     0.052 C 
ATOM      8  C   UNL     1       5.509   0.719 -15.684  1.00  0.00     0.019 C 
ATOM      9  C   UNL     1       5.730  -2.021 -16.628  1.00  0.00     0.189 C 
ATOM     10  C   UNL     1       5.543   0.336 -17.163  1.00  0.00     0.087 C 
ATOM     11  N   UNL     1       6.303  -0.897 -17.367  1.00  0.00    -0.276 NA
ATOM     12  O   UNL     1       6.500  -3.215 -16.785  1.00  0.00    -0.360 OA
ATOM     13  C   UNL     1       6.420  -1.230 -18.791  1.00  0.00     0.121 C 
ATOM     14  C   UNL     1       6.650  -3.609 -18.152  1.00  0.00     0.195 C 
BRANCH   6  15
ATOM     15  C   UNL     1       5.007  -0.060 -13.357  1.00  0.00    -0.008 C 
ATOM     16  C   UNL     1       3.743   0.067 -12.540  1.00  0.00     0.004 C 
ATOM     17  C   UNL     1       4.679  -1.081 -12.295  1.00  0.00     0.004 C 
ENDBRANCH   6  15
ENDBRANCH   4   5
ENDBRANCH   1   4
BRANCH   3  18
ATOM     18  C   UNL     1      10.350  -5.145 -16.649  1.00  0.00     0.053 C 
BRANCH  18  19
ATOM     19  C   UNL     1       9.820  -5.415 -15.265  1.00  0.00     0.074 C 
BRANCH  19  20
ATOM     20  N   UNL     1      10.091  -6.448 -14.538  1.00  0.00    -0.313 NA
ATOM     21  H   UNL     1      10.273  -6.185 -13.559  1.00  0.00     0.186 HD
ENDBRANCH  19  20
ENDBRANCH  18  19
ENDBRANCH   3  18
TORSDOF 6
ENDMDL
MODEL 2
REMARK VINA RESULT:    -4.031      3.690      8.081
REMARK INTER + INTRA:          -5.592
REMARK INTER:                  -5.452
REMARK INTRA:                  -0.140
REMARK UNBOUND:                -0.265
REMARK SMILES [H]/N=C\C[C@H]1C[C@@H]1O[C@H]1CO[C@H]2C[C@@H](C3CC3)CCN2C1
REMARK SMILES IDX 7 1 6 2 5 3 8 4 9 5 14 6 13 7 18 8 12 9 19 10 20 11 11 12
REMARK SMILES IDX 21 13 10 14 15 15 16 16 17 17 4 18 3 19 2 20 1 21
REMARK H PARENT
ROOT
ATOM      1  C   UNL     1       2.372   0.910 -11.956  1.00  0.00     0.122 C 
ATOM      2  C   UNL     1       1.192   1.725 -12.407  1.00  0.00     0.039 C 
ATOM      3  C   UNL     1       0.973   0.417 -11.703  1.00  0.00     0.026 C 
ENDROOT
BRANCH   1   4
ATOM      4  O   UNL     1       3.094   0.277 -13.030  1.00  0.00    -0.371 OA
BRANCH   4   5
ATOM      5  C   UNL     1       4.509   0.139 -12.828  1.00  0.00     0.158 C 
ATOM      6  C   UNL     1       5.454  -3.549 -16.392  1.00  0.00    -0.003 C 
ATOM      7  C   UNL     1       4.765  -3.496 -15.023  1.00  0.00     0.052 C 
ATOM      8  C   UNL     1       5.255  -2.209 -17.113  1.00  0.00     0.019 C 
ATOM      9  C   UNL     1       5.213  -2.275 -14.207  1.00  0.00     0.189 C 
ATOM     10  C   UNL     1       5.686  -1.034 -16.236  1.00  0.00     0.087 C 
ATOM     11  N   UNL     1       4.972  -1.043 -14.959  1.00  0.00    -0.276 NA
ATOM     12  O   UNL     1       4.476  -2.309 -12.984  1.00  0.00    -0.360 OA
ATOM     13  C   UNL     1       5.311   0.127 -14.141  1.00  0.00     0.121 C 
ATOM     14  C   UNL     1       4.762  -1.200 -12.126  1.00  0.00     0.195 C 
BRANCH   6  15
ATOM     15  C   UNL     1       4.925  -4.688 -17.235  1.00  0.00    -0.008 C 
ATOM     16  C   UNL     1       5.802  -5.335 -18.281  1.00  0.00     0.004 C 
ATOM     17  C   UNL     1       5.435  -6.096 -17.040  1.00  0.00     0.004 C 
ENDBRANCH   6  15
ENDBRANCH   4   5
ENDBRANCH   1   4
BRANCH   3  18
ATOM     18  C   UNL     1       0.409   0.425 -10.313  1.00  0.00     0.053 C 
BRANCH  18  19
ATOM     19  C   UNL     1      -0.545  -0.690  -9.975  1.00  0.00     0.074 C 
BRANCH  19  20
ATOM     20  N   UNL     1      -1.410  -1.217 -10.776  1.00  0.00    -0.313 NA
ATOM     21  H   UNL     1      -1.015  -1.367 -11.716  1.00  0.00     0.186 HD
ENDBRANCH  19  20
ENDBRANCH  18  19
ENDBRANCH   3  18
TORSDOF 6
ENDMDL
MODEL 3
REMARK VINA RESULT:    -4.006      8.007     10.213
REMARK INTER + INTRA:          -5.560
REMARK INTER:                  -5.390
REMARK INTRA:                  -0.169
REMARK UNBOUND:                -0.265
REMARK SMILES [H]/N=C\C[C@H]1C[C@@H]1O[C@H]1CO[C@H]2C[C@@H](C3CC3)CCN2C1
REMARK SMILES IDX 7 1 6 2 5 3 8 4 9 5 14 6 13 7 18 8 12 9 19 10 20 11 11 12
REMARK SMILES IDX 21 13 10 14 15 15 16 16 17 17 4 18 3 19 2 20 1 21
REMARK H PARENT
ROOT
ATOM      1  C   UNL     1       1.918   1.818 -12.001  1.00  0.00     0.122 C 
ATOM      2  C   UNL     1       3.240   1.114 -11.876  1.00  0.00     0.039 C 
ATOM      3  C   UNL     1       2.962   2.338 -11.051  1.00  0.00     0.026 C 
ENDROOT
BRANCH   1   4
ATOM      4  O   UNL     1       1.753   2.541 -13.236  1.00  0.00    -0.371 OA
BRANCH   4   5
ATOM      5  C   UNL     1       0.399   2.671 -13.701  1.00  0.00     0.158 C 
ATOM      6  C   UNL     1       1.091   6.632 -17.023  1.00  0.00    -0.003 C 
ATOM      7  C   UNL     1       1.072   6.468 -15.498  1.00  0.00     0.052 C 
ATOM      8  C   UNL     1       1.640   5.350 -17.664  1.00  0.00     0.019 C 
ATOM      9  C   UNL     1       0.337   5.190 -15.071  1.00  0.00     0.189 C 
ATOM     10  C   UNL     1       0.889   4.113 -17.173  1.00  0.00     0.087 C 
ATOM     11  N   UNL     1       0.934   4.019 -15.714  1.00  0.00    -0.276 NA
ATOM     12  O   UNL     1       0.426   5.124 -13.647  1.00  0.00    -0.360 OA
ATOM     13  C   UNL     1       0.293   2.791 -15.231  1.00  0.00     0.121 C 
ATOM     14  C   UNL     1      -0.189   3.953 -13.101  1.00  0.00     0.195 C 
BRANCH   6  15
ATOM     15  C   UNL     1       1.912   7.830 -17.442  1.00  0.00    -0.008 C 
ATOM     16  C   UNL     1       1.566   8.592 -18.700  1.00  0.00     0.004 C 
ATOM     17  C   UNL     1       1.344   9.226 -17.357  1.00  0.00     0.004 C 
ENDBRANCH   6  15
ENDBRANCH   4   5
ENDBRANCH   1   4
BRANCH   3  18
ATOM     18  C   UNL     1       2.778   2.190  -9.570  1.00  0.00     0.053 C 
BRANCH  18  19
ATOM     19  C   UNL     1       3.634   3.073  -8.701  1.00  0.00     0.074 C 
BRANCH  19  20
ATOM     20  N   UNL     1       4.652   3.765  -9.093  1.00  0.00    -0.313 NA
ATOM     21  H   UNL     1       5.411   3.161  -9.439  1.00  0.00     0.186 HD
ENDBRANCH  19  20
ENDBRANCH  18  19
ENDBRANCH   3  18
TORSDOF 6
ENDMDL
MODEL 4
REMARK VINA RESULT:    -3.990      5.335      8.319
REMARK INTER + INTRA:          -5.538
REMARK INTER:                  -5.324
REMARK INTRA:                  -0.214
REMARK UNBOUND:                -0.265
REMARK SMILES [H]/N=C\C[C@H]1C[C@@H]1O[C@H]1CO[C@H]2C[C@@H](C3CC3)CCN2C1
REMARK SMILES IDX 7 1 6 2 5 3 8 4 9 5 14 6 13 7 18 8 12 9 19 10 20 11 11 12
REMARK SMILES IDX 21 13 10 14 15 15 16 16 17 17 4 18 3 19 2 20 1 21
REMARK H PARENT
ROOT
ATOM      1  C   UNL     1       3.848  -0.564 -13.080  1.00  0.00     0.122 C 
ATOM      2  C   UNL     1       5.011  -0.200 -13.960  1.00  0.00     0.039 C 
ATOM      3  C   UNL     1       4.993  -1.525 -13.252  1.00  0.00     0.026 C 
ENDROOT
BRANCH   1   4
ATOM      4  O   UNL     1       3.800   0.166 -11.839  1.00  0.00    -0.371 OA
BRANCH   4   5
ATOM      5  C   UNL     1       3.369   1.533 -11.941  1.00  0.00     0.158 C 
ATOM      6  C   UNL     1       0.258   1.686  -7.758  1.00  0.00    -0.003 C 
ATOM      7  C   UNL     1       0.195   1.047  -9.150  1.00  0.00     0.052 C 
ATOM      8  C   UNL     1       1.718   1.733  -7.286  1.00  0.00     0.019 C 
ATOM      9  C   UNL     1       1.149   1.735 -10.136  1.00  0.00     0.189 C 
ATOM     10  C   UNL     1       2.619   2.399  -8.326  1.00  0.00     0.087 C 
ATOM     11  N   UNL     1       2.517   1.720  -9.618  1.00  0.00    -0.276 NA
ATOM     12  O   UNL     1       1.036   1.029 -11.374  1.00  0.00    -0.360 OA
ATOM     13  C   UNL     1       3.441   2.292 -10.604  1.00  0.00     0.121 C 
ATOM     14  C   UNL     1       1.905   1.538 -12.390  1.00  0.00     0.195 C 
BRANCH   6  15
ATOM     15  C   UNL     1      -0.597   0.934  -6.763  1.00  0.00    -0.008 C 
ATOM     16  C   UNL     1      -1.468   1.684  -5.783  1.00  0.00     0.004 C 
ATOM     17  C   UNL     1      -2.100   0.905  -6.900  1.00  0.00     0.004 C 
ENDBRANCH   6  15
ENDBRANCH   4   5
ENDBRANCH   1   4
BRANCH   3  18
ATOM     18  C   UNL     1       4.814  -2.777 -14.058  1.00  0.00     0.053 C 
BRANCH  18  19
ATOM     19  C   UNL     1       5.758  -2.964 -15.217  1.00  0.00     0.074 C 
BRANCH  19  20
ATOM     20  N   UNL     1       6.952  -3.449 -15.150  1.00  0.00    -0.313 NA
ATOM     21  H   UNL     1       7.618  -2.767 -14.760  1.00  0.00     0.186 HD
ENDBRANCH  19  20
ENDBRANCH  18  19
ENDBRANCH   3  18
TORSDOF 6
ENDMDL
MODEL 5
REMARK VINA RESULT:    -3.986      8.288     10.749
REMARK INTER + INTRA:          -5.533
REMARK INTER:                  -5.317
REMARK INTRA:                  -0.215
REMARK UNBOUND:                -0.265
REMARK SMILES [H]/N=C\C[C@H]1C[C@@H]1O[C@H]1CO[C@H]2C[C@@H](C3CC3)CCN2C1
REMARK SMILES IDX 7 1 6 2 5 3 8 4 9 5 14 6 13 7 18 8 12 9 19 10 20 11 11 12
REMARK SMILES IDX 21 13 10 14 15 15 16 16 17 17 4 18 3 19 2 20 1 21
REMARK H PARENT
ROOT
ATOM      1  C   UNL     1       1.096   3.445 -13.586  1.00  0.00     0.122 C 
ATOM      2  C   UNL     1       0.489   3.211 -14.940  1.00  0.00     0.039 C 
ATOM      3  C   UNL     1       0.157   4.461 -14.177  1.00  0.00     0.026 C 
ENDROOT
BRANCH   1   4
ATOM      4  O   UNL     1       0.562   2.600 -12.549  1.00  0.00    -0.371 OA
BRANCH   4   5
ATOM      5  C   UNL     1       1.025   1.240 -12.559  1.00  0.00     0.158 C 
ATOM      6  C   UNL     1       1.899   0.675  -7.448  1.00  0.00    -0.003 C 
ATOM      7  C   UNL     1       2.572   1.430  -8.600  1.00  0.00     0.052 C 
ATOM      8  C   UNL     1       0.386   0.611  -7.698  1.00  0.00     0.019 C 
ATOM      9  C   UNL     1       2.188   0.846  -9.966  1.00  0.00     0.189 C 
ATOM     10  C   UNL     1       0.072   0.054  -9.086  1.00  0.00     0.087 C 
ATOM     11  N   UNL     1       0.734   0.839 -10.128  1.00  0.00    -0.276 NA
ATOM     12  O   UNL     1       2.833   1.654 -10.952  1.00  0.00    -0.360 OA
ATOM     13  C   UNL     1       0.373   0.370 -11.470  1.00  0.00     0.121 C 
ATOM     14  C   UNL     1       2.534   1.249 -12.292  1.00  0.00     0.195 C 
BRANCH   6  15
ATOM     15  C   UNL     1       2.190   1.324  -6.114  1.00  0.00    -0.008 C 
ATOM     16  C   UNL     1       2.508   0.476  -4.905  1.00  0.00     0.004 C 
ATOM     17  C   UNL     1       3.584   1.311  -5.535  1.00  0.00     0.004 C 
ENDBRANCH   6  15
ENDBRANCH   4   5
ENDBRANCH   1   4
BRANCH   3  18
ATOM     18  C   UNL     1       0.681   5.776 -14.673  1.00  0.00     0.053 C 
BRANCH  18  19
ATOM     19  C   UNL     1       0.351   6.129 -16.100  1.00  0.00     0.074 C 
BRANCH  19  20
ATOM     20  N   UNL     1      -0.790   6.554 -16.530  1.00  0.00    -0.313 NA
ATOM     21  H   UNL     1      -1.009   7.491 -16.163  1.00  0.00     0.186 HD
ENDBRANCH  19  20
ENDBRANCH  18  19
ENDBRANCH   3  18
TORSDOF 6
ENDMDL
MODEL 6
REMARK VINA RESULT:    -3.454      6.276      9.822
REMARK INTER + INTRA:          -4.830
REMARK INTER:                  -4.602
REMARK INTRA:                  -0.227
REMARK UNBOUND:                -0.265
REMARK SMILES [H]/N=C\C[C@H]1C[C@@H]1O[C@H]1CO[C@H]2C[C@@H](C3CC3)CCN2C1
REMARK SMILES IDX 7 1 6 2 5 3 8 4 9 5 14 6 13 7 18 8 12 9 19 10 20 11 11 12
REMARK SMILES IDX 21 13 10 14 15 15 16 16 17 17 4 18 3 19 2 20 1 21
REMARK H PARENT
ROOT
ATOM      1  C   UNL     1       0.991   6.523 -15.560  1.00  0.00     0.122 C 
ATOM      2  C   UNL     1       1.595   7.860 -15.231  1.00  0.00     0.039 C 
ATOM      3  C   UNL     1       2.270   6.957 -16.224  1.00  0.00     0.026 C 
ENDROOT
BRANCH   1   4
ATOM      4  O   UNL     1       1.110   5.550 -14.505  1.00  0.00    -0.371 OA
BRANCH   4   5
ATOM      5  C   UNL     1       0.086   4.543 -14.473  1.00  0.00     0.158 C 
ATOM      6  C   UNL     1       2.921   0.602 -12.567  1.00  0.00    -0.003 C 
ATOM      7  C   UNL     1       2.835   1.346 -13.905  1.00  0.00     0.052 C 
ATOM      8  C   UNL     1       2.600   1.574 -11.423  1.00  0.00     0.019 C 
ATOM      9  C   UNL     1       1.496   2.079 -14.064  1.00  0.00     0.189 C 
ATOM     10  C   UNL     1       1.273   2.295 -11.659  1.00  0.00     0.087 C 
ATOM     11  N   UNL     1       1.278   2.994 -12.944  1.00  0.00    -0.276 NA
ATOM     12  O   UNL     1       1.553   2.766 -15.316  1.00  0.00    -0.360 OA
ATOM     13  C   UNL     1       0.045   3.762 -13.147  1.00  0.00     0.121 C 
ATOM     14  C   UNL     1       0.376   3.533 -15.588  1.00  0.00     0.195 C 
BRANCH   6  15
ATOM     15  C   UNL     1       4.284  -0.022 -12.366  1.00  0.00    -0.008 C 
ATOM     16  C   UNL     1       4.540  -1.449 -12.789  1.00  0.00     0.004 C 
ATOM     17  C   UNL     1       5.180  -0.320 -13.543  1.00  0.00     0.004 C 
ENDBRANCH   6  15
ENDBRANCH   4   5
ENDBRANCH   1   4
BRANCH   3  18
ATOM     18  C   UNL     1       2.275   7.345 -17.672  1.00  0.00     0.053 C 
BRANCH  18  19
ATOM     19  C   UNL     1       3.220   6.580 -18.563  1.00  0.00     0.074 C 
BRANCH  19  20
ATOM     20  N   UNL     1       4.155   5.782 -18.167  1.00  0.00    -0.313 NA
ATOM     21  H   UNL     1       3.789   4.841 -17.965  1.00  0.00     0.186 HD
ENDBRANCH  19  20
ENDBRANCH  18  19
ENDBRANCH   3  18
TORSDOF 6
ENDMDL
MODEL 7
REMARK VINA RESULT:    -3.208      8.025     10.583
REMARK INTER + INTRA:          -4.505
REMARK INTER:                  -4.179
REMARK INTRA:                  -0.326
REMARK UNBOUND:                -0.265
REMARK SMILES [H]/N=C\C[C@H]1C[C@@H]1O[C@H]1CO[C@H]2C[C@@H](C3CC3)CCN2C1
REMARK SMILES IDX 7 1 6 2 5 3 8 4 9 5 14 6 13 7 18 8 12 9 19 10 20 11 11 12
REMARK SMILES IDX 21 13 10 14 15 15 16 16 17 17 4 18 3 19 2 20 1 21
REMARK H PARENT
ROOT
ATOM      1  C   UNL     1       1.803   6.811 -17.176  1.00  0.00     0.122 C 
ATOM      2  C   UNL     1       3.046   7.490 -16.676  1.00  0.00     0.039 C 
ATOM      3  C   UNL     1       2.421   7.932 -17.967  1.00  0.00     0.026 C 
ENDROOT
BRANCH   1   4
ATOM      4  O   UNL     1       2.021   5.476 -17.671  1.00  0.00    -0.371 OA
BRANCH   4   5
ATOM      5  C   UNL     1       0.841   4.670 -17.819  1.00  0.00     0.158 C 
ATOM      6  C   UNL     1       0.883   2.354 -13.146  1.00  0.00    -0.003 C 
ATOM      7  C   UNL     1       1.713   2.249 -14.431  1.00  0.00     0.052 C 
ATOM      8  C   UNL     1       0.393   3.798 -12.975  1.00  0.00     0.019 C 
ATOM      9  C   UNL     1       0.955   2.801 -15.646  1.00  0.00     0.189 C 
ATOM     10  C   UNL     1      -0.322   4.299 -14.230  1.00  0.00     0.087 C 
ATOM     11  N   UNL     1       0.542   4.183 -15.405  1.00  0.00    -0.276 NA
ATOM     12  O   UNL     1       1.840   2.693 -16.763  1.00  0.00    -0.360 OA
ATOM     13  C   UNL     1      -0.098   4.740 -16.602  1.00  0.00     0.121 C 
ATOM     14  C   UNL     1       1.279   3.210 -17.974  1.00  0.00     0.195 C 
BRANCH   6  15
ATOM     15  C   UNL     1       1.675   1.915 -11.936  1.00  0.00    -0.008 C 
ATOM     16  C   UNL     1       1.264   0.687 -11.157  1.00  0.00     0.004 C 
ATOM     17  C   UNL     1       2.522   0.665 -11.977  1.00  0.00     0.004 C 
ENDBRANCH   6  15
ENDBRANCH   4   5
ENDBRANCH   1   4
BRANCH   3  18
ATOM     18  C   UNL     1       1.751   9.272 -18.029  1.00  0.00     0.053 C 
BRANCH  18  19
ATOM     19  C   UNL     1       2.536  10.380 -18.681  1.00  0.00     0.074 C 
BRANCH  19  20
ATOM     20  N   UNL     1       3.109  11.363 -18.071  1.00  0.00    -0.313 NA
ATOM     21  H   UNL     1       4.129  11.235 -18.017  1.00  0.00     0.186 HD
ENDBRANCH  19  20
ENDBRANCH  18  19
ENDBRANCH   3  18
TORSDOF 6
ENDMDL
MODEL 8
REMARK VINA RESULT:    -3.181      7.993     10.232
REMARK INTER + INTRA:          -4.469
REMARK INTER:                  -4.474
REMARK INTRA:                   0.004
REMARK UNBOUND:                -0.265
REMARK SMILES [H]/N=C\C[C@H]1C[C@@H]1O[C@H]1CO[C@H]2C[C@@H](C3CC3)CCN2C1
REMARK SMILES IDX 7 1 6 2 5 3 8 4 9 5 14 6 13 7 18 8 12 9 19 10 20 11 11 12
REMARK SMILES IDX 21 13 10 14 15 15 16 16 17 17 4 18 3 19 2 20 1 21
REMARK H PARENT
ROOT
ATOM      1  C   UNL     1       0.514   2.813 -13.481  1.00  0.00     0.122 C 
ATOM      2  C   UNL     1      -0.172   4.141 -13.642  1.00  0.00     0.039 C 
ATOM      3  C   UNL     1       0.806   3.672 -14.681  1.00  0.00     0.026 C 
ENDROOT
BRANCH   1   4
ATOM      4  O   UNL     1       1.515   2.791 -12.446  1.00  0.00    -0.371 OA
BRANCH   4   5
ATOM      5  C   UNL     1       2.210   1.544 -12.282  1.00  0.00     0.158 C 
ATOM      6  C   UNL     1       0.519   0.328  -7.500  1.00  0.00    -0.003 C 
ATOM      7  C   UNL     1       1.490   1.356  -8.093  1.00  0.00     0.052 C 
ATOM      8  C   UNL     1      -0.611   0.059  -8.504  1.00  0.00     0.019 C 
ATOM      9  C   UNL     1       1.978   0.940  -9.487  1.00  0.00     0.189 C 
ATOM     10  C   UNL     1      -0.058  -0.316  -9.879  1.00  0.00     0.087 C 
ATOM     11  N   UNL     1       0.842   0.721 -10.382  1.00  0.00    -0.276 NA
ATOM     12  O   UNL     1       2.832   1.989  -9.951  1.00  0.00    -0.360 OA
ATOM     13  C   UNL     1       1.313   0.418 -11.738  1.00  0.00     0.121 C 
ATOM     14  C   UNL     1       3.339   1.757 -11.269  1.00  0.00     0.195 C 
BRANCH   6  15
ATOM     15  C   UNL     1      -0.047   0.797  -6.179  1.00  0.00    -0.008 C 
ATOM     16  C   UNL     1       0.701   0.537  -4.892  1.00  0.00     0.004 C 
ATOM     17  C   UNL     1       0.594   1.937  -5.424  1.00  0.00     0.004 C 
ENDBRANCH   6  15
ENDBRANCH   4   5
ENDBRANCH   1   4
BRANCH   3  18
ATOM     18  C   UNL     1       0.294   3.278 -16.035  1.00  0.00     0.053 C 
BRANCH  18  19
ATOM     19  C   UNL     1       1.283   2.609 -16.952  1.00  0.00     0.074 C 
BRANCH  19  20
ATOM     20  N   UNL     1       2.277   1.870 -16.585  1.00  0.00    -0.313 NA
ATOM     21  H   UNL     1       1.957   0.993 -16.149  1.00  0.00     0.186 HD
ENDBRANCH  19  20
ENDBRANCH  18  19
ENDBRANCH   3  18
TORSDOF 6
ENDMDL
MODEL 9
REMARK VINA RESULT:    -3.091      3.320      4.428
REMARK INTER + INTRA:          -4.349
REMARK INTER:                  -4.119
REMARK INTRA:                  -0.230
REMARK UNBOUND:                -0.265
REMARK SMILES [H]/N=C\C[C@H]1C[C@@H]1O[C@H]1CO[C@H]2C[C@@H](C3CC3)CCN2C1
REMARK SMILES IDX 7 1 6 2 5 3 8 4 9 5 14 6 13 7 18 8 12 9 19 10 20 11 11 12
REMARK SMILES IDX 21 13 10 14 15 15 16 16 17 17 4 18 3 19 2 20 1 21
REMARK H PARENT
ROOT
ATOM      1  C   UNL     1       4.757  -3.583 -16.883  1.00  0.00     0.122 C 
ATOM      2  C   UNL     1       3.540  -4.330 -17.351  1.00  0.00     0.039 C 
ATOM      3  C   UNL     1       4.889  -4.668 -17.917  1.00  0.00     0.026 C 
ENDROOT
BRANCH   1   4
ATOM      4  O   UNL     1       4.833  -2.226 -17.359  1.00  0.00    -0.371 OA
BRANCH   4   5
ATOM      5  C   UNL     1       5.960  -1.467 -16.892  1.00  0.00     0.158 C 
ATOM      6  C   UNL     1       3.876   0.396 -12.488  1.00  0.00    -0.003 C 
ATOM      7  C   UNL     1       3.694   0.661 -13.987  1.00  0.00     0.052 C 
ATOM      8  C   UNL     1       4.238  -1.081 -12.275  1.00  0.00     0.019 C 
ATOM      9  C   UNL     1       4.907   0.191 -14.801  1.00  0.00     0.189 C 
ATOM     10  C   UNL     1       5.430  -1.494 -13.137  1.00  0.00     0.087 C 
ATOM     11  N   UNL     1       5.170  -1.226 -14.552  1.00  0.00    -0.276 NA
ATOM     12  O   UNL     1       4.602   0.446 -16.174  1.00  0.00    -0.360 OA
ATOM     13  C   UNL     1       6.270  -1.697 -15.402  1.00  0.00     0.121 C 
ATOM     14  C   UNL     1       5.637   0.021 -17.066  1.00  0.00     0.195 C 
BRANCH   6  15
ATOM     15  C   UNL     1       2.633   0.756 -11.706  1.00  0.00    -0.008 C 
ATOM     16  C   UNL     1       2.643   1.928 -10.753  1.00  0.00     0.004 C 
ATOM     17  C   UNL     1       1.852   2.007 -12.027  1.00  0.00     0.004 C 
ENDBRANCH   6  15
ENDBRANCH   4   5
ENDBRANCH   1   4
BRANCH   3  18
ATOM     18  C   UNL     1       5.519  -5.981 -17.559  1.00  0.00     0.053 C 
BRANCH  18  19
ATOM     19  C   UNL     1       5.428  -7.068 -18.598  1.00  0.00     0.074 C 
BRANCH  19  20
ATOM     20  N   UNL     1       4.523  -7.988 -18.654  1.00  0.00    -0.313 NA
ATOM     21  H   UNL     1       4.587  -8.633 -17.854  1.00  0.00     0.186 HD
ENDBRANCH  19  20
ENDBRANCH  18  19
ENDBRANCH   3  18
TORSDOF 6
ENDMDL
