MODEL 1
REMARK VINA RESULT:    -6.043      0.000      0.000
REMARK INTER + INTRA:          -7.481
REMARK INTER:                  -7.102
REMARK INTRA:                  -0.379
REMARK UNBOUND:                -0.379
REMARK SMILES Cc1ccc(CNC(=O)NC(=O)c2ccc(C)cc2)cc1
REMARK SMILES IDX 11 1 12 2 10 3 8 4 9 5 7 6 13 9 19 10 18 11 14 12 16 13
REMARK SMILES IDX 15 14 17 15 6 16 5 17 4 18 20 19 3 20 21 21 2 22 1 23
REMARK H PARENT 10 7 7 8
ROOT
ATOM      1  C   UNL     1       1.690   1.501 -10.506  1.00  0.00     0.259 C 
ATOM      2  O   UNL     1       0.654   2.103 -10.748  1.00  0.00    -0.269 OA
ATOM      3  N   UNL     1       2.599   0.929 -11.402  1.00  0.00    -0.274 N 
ATOM      4  C   UNL     1       2.866   0.980 -12.746  1.00  0.00     0.321 C 
ATOM      5  O   UNL     1       3.883   0.406 -13.151  1.00  0.00    -0.248 OA
ATOM      6  N   UNL     1       2.100   1.642 -13.632  1.00  0.00    -0.334 N 
ATOM      7  H   UNL     1       3.379   0.460 -10.961  1.00  0.00     0.175 HD
ATOM      8  H   UNL     1       2.479   1.655 -14.568  1.00  0.00     0.165 HD
ENDROOT
BRANCH   1   9
ATOM      9  C   UNL     1       2.051   1.351  -9.083  1.00  0.00     0.040 A 
ATOM     10  C   UNL     1       1.775   0.176  -8.382  1.00  0.00     0.014 A 
ATOM     11  C   UNL     1       2.182   0.061  -7.053  1.00  0.00     0.004 A 
ATOM     12  C   UNL     1       2.674   2.429  -8.447  1.00  0.00     0.014 A 
ATOM     13  C   UNL     1       2.855   1.117  -6.420  1.00  0.00    -0.051 A 
ATOM     14  C   UNL     1       3.085   2.308  -7.121  1.00  0.00     0.004 A 
ATOM     15  C   UNL     1       3.361   0.947  -5.018  1.00  0.00     0.044 C 
ENDBRANCH   1   9
BRANCH   6  16
ATOM     16  C   UNL     1       0.946   2.451 -13.360  1.00  0.00     0.153 C 
BRANCH  16  17
ATOM     17  C   UNL     1       0.578   3.494 -14.378  1.00  0.00    -0.029 A 
ATOM     18  C   UNL     1       0.457   4.853 -14.071  1.00  0.00     0.006 A 
ATOM     19  C   UNL     1       0.566   3.100 -15.726  1.00  0.00     0.006 A 
ATOM     20  C   UNL     1       0.352   5.797 -15.098  1.00  0.00     0.004 A 
ATOM     21  C   UNL     1       0.466   4.040 -16.747  1.00  0.00     0.004 A 
ATOM     22  C   UNL     1       0.369   5.398 -16.442  1.00  0.00    -0.051 A 
ATOM     23  C   UNL     1       0.400   6.411 -17.547  1.00  0.00     0.044 C 
ENDBRANCH  16  17
ENDBRANCH   6  16
TORSDOF 3
ENDMDL
MODEL 2
REMARK VINA RESULT:    -6.042      3.252      5.544
REMARK INTER + INTRA:          -7.481
REMARK INTER:                  -7.107
REMARK INTRA:                  -0.373
REMARK UNBOUND:                -0.379
REMARK SMILES Cc1ccc(CNC(=O)NC(=O)c2ccc(C)cc2)cc1
REMARK SMILES IDX 11 1 12 2 10 3 8 4 9 5 7 6 13 9 19 10 18 11 14 12 16 13
REMARK SMILES IDX 15 14 17 15 6 16 5 17 4 18 20 19 3 20 21 21 2 22 1 23
REMARK H PARENT 10 7 7 8
ROOT
ATOM      1  C   UNL     1       1.862   1.079 -10.466  1.00  0.00     0.259 C 
ATOM      2  O   UNL     1       2.894   0.455 -10.261  1.00  0.00    -0.269 OA
ATOM      3  N   UNL     1       1.466   1.758 -11.623  1.00  0.00    -0.274 N 
ATOM      4  C   UNL     1       1.846   1.825 -12.939  1.00  0.00     0.321 C 
ATOM      5  O   UNL     1       1.128   2.471 -13.710  1.00  0.00    -0.248 OA
ATOM      6  N   UNL     1       2.933   1.204 -13.432  1.00  0.00    -0.334 N 
ATOM      7  H   UNL     1       0.571   2.222 -11.547  1.00  0.00     0.175 HD
ATOM      8  H   UNL     1       3.026   1.281 -14.435  1.00  0.00     0.165 HD
ENDROOT
BRANCH   1   9
ATOM      9  C   UNL     1       0.889   1.129  -9.358  1.00  0.00     0.040 A 
ATOM     10  C   UNL     1       0.797   2.243  -8.521  1.00  0.00     0.014 A 
ATOM     11  C   UNL     1      -0.175   2.267  -7.520  1.00  0.00     0.004 A 
ATOM     12  C   UNL     1       0.060   0.021  -9.162  1.00  0.00     0.014 A 
ATOM     13  C   UNL     1      -1.047   1.181  -7.348  1.00  0.00    -0.051 A 
ATOM     14  C   UNL     1      -0.913   0.052  -8.165  1.00  0.00     0.004 A 
ATOM     15  C   UNL     1      -2.140   1.257  -6.323  1.00  0.00     0.044 C 
ENDBRANCH   1   9
BRANCH   6  16
ATOM     16  C   UNL     1       3.833   0.328 -12.736  1.00  0.00     0.153 C 
BRANCH  16  17
ATOM     17  C   UNL     1       4.666  -0.607 -13.568  1.00  0.00    -0.029 A 
ATOM     18  C   UNL     1       4.702  -1.989 -13.358  1.00  0.00     0.006 A 
ATOM     19  C   UNL     1       5.260  -0.081 -14.727  1.00  0.00     0.006 A 
ATOM     20  C   UNL     1       5.300  -2.826 -14.306  1.00  0.00     0.004 A 
ATOM     21  C   UNL     1       5.850  -0.915 -15.672  1.00  0.00     0.004 A 
ATOM     22  C   UNL     1       5.866  -2.297 -15.474  1.00  0.00    -0.051 A 
ATOM     23  C   UNL     1       6.380  -3.196 -16.559  1.00  0.00     0.044 C 
ENDBRANCH  16  17
ENDBRANCH   6  16
TORSDOF 3
ENDMDL
MODEL 3
REMARK VINA RESULT:    -5.991      0.552      8.006
REMARK INTER + INTRA:          -7.421
REMARK INTER:                  -6.924
REMARK INTRA:                  -0.496
REMARK UNBOUND:                -0.379
REMARK SMILES Cc1ccc(CNC(=O)NC(=O)c2ccc(C)cc2)cc1
REMARK SMILES IDX 11 1 12 2 10 3 8 4 9 5 7 6 13 9 19 10 18 11 14 12 16 13
REMARK SMILES IDX 15 14 17 15 6 16 5 17 4 18 20 19 3 20 21 21 2 22 1 23
REMARK H PARENT 10 7 7 8
ROOT
ATOM      1  C   UNL     1       1.148   2.745 -13.032  1.00  0.00     0.259 C 
ATOM      2  O   UNL     1       0.505   2.913 -12.005  1.00  0.00    -0.269 OA
ATOM      3  N   UNL     1       2.202   1.857 -13.270  1.00  0.00    -0.274 N 
ATOM      4  C   UNL     1       2.756   0.757 -12.666  1.00  0.00     0.321 C 
ATOM      5  O   UNL     1       3.632   0.144 -13.285  1.00  0.00    -0.248 OA
ATOM      6  N   UNL     1       2.375   0.299 -11.460  1.00  0.00    -0.334 N 
ATOM      7  H   UNL     1       2.595   1.916 -14.200  1.00  0.00     0.175 HD
ATOM      8  H   UNL     1       2.819  -0.568 -11.195  1.00  0.00     0.165 HD
ENDROOT
BRANCH   1   9
ATOM      9  C   UNL     1       0.774   3.580 -14.189  1.00  0.00     0.040 A 
ATOM     10  C   UNL     1       0.484   4.938 -14.044  1.00  0.00     0.014 A 
ATOM     11  C   UNL     1       0.186   5.699 -15.175  1.00  0.00     0.004 A 
ATOM     12  C   UNL     1       0.709   2.970 -15.446  1.00  0.00     0.014 A 
ATOM     13  C   UNL     1       0.169   5.107 -16.447  1.00  0.00    -0.051 A 
ATOM     14  C   UNL     1       0.417   3.735 -16.574  1.00  0.00     0.004 A 
ATOM     15  C   UNL     1      -0.069   5.955 -17.662  1.00  0.00     0.044 C 
ENDBRANCH   1   9
BRANCH   6  16
ATOM     16  C   UNL     1       1.315   0.797 -10.629  1.00  0.00     0.153 C 
BRANCH  16  17
ATOM     17  C   UNL     1       1.606   0.958  -9.162  1.00  0.00    -0.029 A 
ATOM     18  C   UNL     1       1.360  -0.047  -8.221  1.00  0.00     0.006 A 
ATOM     19  C   UNL     1       2.346   2.086  -8.773  1.00  0.00     0.006 A 
ATOM     20  C   UNL     1       1.870   0.070  -6.923  1.00  0.00     0.004 A 
ATOM     21  C   UNL     1       2.857   2.198  -7.484  1.00  0.00     0.004 A 
ATOM     22  C   UNL     1       2.632   1.186  -6.550  1.00  0.00    -0.051 A 
ATOM     23  C   UNL     1       3.301   1.251  -5.210  1.00  0.00     0.044 C 
ENDBRANCH  16  17
ENDBRANCH   6  16
TORSDOF 3
ENDMDL
MODEL 4
REMARK VINA RESULT:    -5.991      3.138      7.316
REMARK INTER + INTRA:          -7.420
REMARK INTER:                  -6.924
REMARK INTRA:                  -0.496
REMARK UNBOUND:                -0.379
REMARK SMILES Cc1ccc(CNC(=O)NC(=O)c2ccc(C)cc2)cc1
REMARK SMILES IDX 11 1 12 2 10 3 8 4 9 5 7 6 13 9 19 10 18 11 14 12 16 13
REMARK SMILES IDX 15 14 17 15 6 16 5 17 4 18 20 19 3 20 21 21 2 22 1 23
REMARK H PARENT 10 7 7 8
ROOT
ATOM      1  C   UNL     1       3.531   0.054 -12.574  1.00  0.00     0.259 C 
ATOM      2  O   UNL     1       3.635  -0.213 -11.385  1.00  0.00    -0.269 OA
ATOM      3  N   UNL     1       2.688   0.984 -13.191  1.00  0.00    -0.274 N 
ATOM      4  C   UNL     1       1.901   2.043 -12.817  1.00  0.00     0.321 C 
ATOM      5  O   UNL     1       1.395   2.726 -13.714  1.00  0.00    -0.248 OA
ATOM      6  N   UNL     1       1.680   2.390 -11.536  1.00  0.00    -0.334 N 
ATOM      7  H   UNL     1       2.766   1.013 -14.199  1.00  0.00     0.175 HD
ATOM      8  H   UNL     1       1.150   3.243 -11.431  1.00  0.00     0.165 HD
ENDROOT
BRANCH   1   9
ATOM      9  C   UNL     1       4.408  -0.690 -13.498  1.00  0.00     0.040 A 
ATOM     10  C   UNL     1       4.640  -2.058 -13.338  1.00  0.00     0.014 A 
ATOM     11  C   UNL     1       5.434  -2.730 -14.267  1.00  0.00     0.004 A 
ATOM     12  C   UNL     1       5.011   0.015 -14.544  1.00  0.00     0.014 A 
ATOM     13  C   UNL     1       6.002  -2.041 -15.350  1.00  0.00    -0.051 A 
ATOM     14  C   UNL     1       5.798  -0.661 -15.474  1.00  0.00     0.004 A 
ATOM     15  C   UNL     1       6.783  -2.793 -16.387  1.00  0.00     0.044 C 
ENDBRANCH   1   9
BRANCH   6  16
ATOM     16  C   UNL     1       2.250   1.800 -10.358  1.00  0.00     0.153 C 
BRANCH  16  17
ATOM     17  C   UNL     1       1.324   1.529  -9.205  1.00  0.00    -0.029 A 
ATOM     18  C   UNL     1       1.097   2.448  -8.175  1.00  0.00     0.006 A 
ATOM     19  C   UNL     1       0.505   0.391  -9.292  1.00  0.00     0.006 A 
ATOM     20  C   UNL     1       0.052   2.239  -7.269  1.00  0.00     0.004 A 
ATOM     21  C   UNL     1      -0.536   0.187  -8.392  1.00  0.00     0.004 A 
ATOM     22  C   UNL     1      -0.779   1.116  -7.379  1.00  0.00    -0.051 A 
ATOM     23  C   UNL     1      -1.985   0.959  -6.502  1.00  0.00     0.044 C 
ENDBRANCH  16  17
ENDBRANCH   6  16
TORSDOF 3
ENDMDL
MODEL 5
REMARK VINA RESULT:    -5.698      1.204      7.959
REMARK INTER + INTRA:          -7.076
REMARK INTER:                  -6.642
REMARK INTRA:                  -0.435
REMARK UNBOUND:                -0.379
REMARK SMILES Cc1ccc(CNC(=O)NC(=O)c2ccc(C)cc2)cc1
REMARK SMILES IDX 11 1 12 2 10 3 8 4 9 5 7 6 13 9 19 10 18 11 14 12 16 13
REMARK SMILES IDX 15 14 17 15 6 16 5 17 4 18 20 19 3 20 21 21 2 22 1 23
REMARK H PARENT 10 7 7 8
ROOT
ATOM      1  C   UNL     1       0.936   2.789 -13.282  1.00  0.00     0.259 C 
ATOM      2  O   UNL     1       0.133   2.825 -12.359  1.00  0.00    -0.269 OA
ATOM      3  N   UNL     1       2.098   2.022 -13.402  1.00  0.00    -0.274 N 
ATOM      4  C   UNL     1       2.666   0.939 -12.780  1.00  0.00     0.321 C 
ATOM      5  O   UNL     1       3.683   0.455 -13.288  1.00  0.00    -0.248 OA
ATOM      6  N   UNL     1       2.159   0.365 -11.674  1.00  0.00    -0.334 N 
ATOM      7  H   UNL     1       2.617   2.181 -14.255  1.00  0.00     0.175 HD
ATOM      8  H   UNL     1       2.645  -0.474 -11.391  1.00  0.00     0.165 HD
ENDROOT
BRANCH   1   9
ATOM      9  C   UNL     1       0.654   3.664 -14.436  1.00  0.00     0.040 A 
ATOM     10  C   UNL     1       0.405   5.028 -14.272  1.00  0.00     0.014 A 
ATOM     11  C   UNL     1       0.196   5.825 -15.398  1.00  0.00     0.004 A 
ATOM     12  C   UNL     1       0.635   3.086 -15.709  1.00  0.00     0.014 A 
ATOM     13  C   UNL     1       0.226   5.264 -16.684  1.00  0.00    -0.051 A 
ATOM     14  C   UNL     1       0.432   3.887 -16.831  1.00  0.00     0.004 A 
ATOM     15  C   UNL     1       0.084   6.148 -17.888  1.00  0.00     0.044 C 
ENDBRANCH   1   9
BRANCH   6  16
ATOM     16  C   UNL     1       0.942   0.703 -10.991  1.00  0.00     0.153 C 
BRANCH  16  17
ATOM     17  C   UNL     1       0.980   0.735  -9.488  1.00  0.00    -0.029 A 
ATOM     18  C   UNL     1       1.796   1.609  -8.764  1.00  0.00     0.006 A 
ATOM     19  C   UNL     1      -0.003   0.000  -8.804  1.00  0.00     0.006 A 
ATOM     20  C   UNL     1       1.612   1.759  -7.385  1.00  0.00     0.004 A 
ATOM     21  C   UNL     1      -0.188   0.154  -7.434  1.00  0.00     0.004 A 
ATOM     22  C   UNL     1       0.611   1.043  -6.714  1.00  0.00    -0.051 A 
ATOM     23  C   UNL     1       0.313   1.303  -5.267  1.00  0.00     0.044 C 
ENDBRANCH  16  17
ENDBRANCH   6  16
TORSDOF 3
ENDMDL
MODEL 6
REMARK VINA RESULT:    -4.594      2.199      3.878
REMARK INTER + INTRA:          -5.778
REMARK INTER:                  -5.342
REMARK INTRA:                  -0.436
REMARK UNBOUND:                -0.379
REMARK SMILES Cc1ccc(CNC(=O)NC(=O)c2ccc(C)cc2)cc1
REMARK SMILES IDX 11 1 12 2 10 3 8 4 9 5 7 6 13 9 19 10 18 11 14 12 16 13
REMARK SMILES IDX 15 14 17 15 6 16 5 17 4 18 20 19 3 20 21 21 2 22 1 23
REMARK H PARENT 10 7 7 8
ROOT
ATOM      1  C   UNL     1       0.750   2.978 -13.542  1.00  0.00     0.259 C 
ATOM      2  O   UNL     1       0.113   4.007 -13.365  1.00  0.00    -0.269 OA
ATOM      3  N   UNL     1       1.120   2.374 -14.748  1.00  0.00    -0.274 N 
ATOM      4  C   UNL     1       1.172   2.711 -16.076  1.00  0.00     0.321 C 
ATOM      5  O   UNL     1       1.708   1.912 -16.851  1.00  0.00    -0.248 OA
ATOM      6  N   UNL     1       0.699   3.872 -16.568  1.00  0.00    -0.334 N 
ATOM      7  H   UNL     1       1.631   1.508 -14.641  1.00  0.00     0.175 HD
ATOM      8  H   UNL     1       0.891   4.005 -17.551  1.00  0.00     0.165 HD
ENDROOT
BRANCH   1   9
ATOM      9  C   UNL     1       1.203   2.264 -12.332  1.00  0.00     0.040 A 
ATOM     10  C   UNL     1       2.382   2.621 -11.675  1.00  0.00     0.014 A 
ATOM     11  C   UNL     1       2.741   1.952 -10.505  1.00  0.00     0.004 A 
ATOM     12  C   UNL     1       0.418   1.208 -11.861  1.00  0.00     0.014 A 
ATOM     13  C   UNL     1       1.933   0.925  -9.995  1.00  0.00    -0.051 A 
ATOM     14  C   UNL     1       0.777   0.546 -10.688  1.00  0.00     0.004 A 
ATOM     15  C   UNL     1       2.289   0.273  -8.691  1.00  0.00     0.044 C 
ENDBRANCH   1   9
BRANCH   6  16
ATOM     16  C   UNL     1       0.139   4.971 -15.834  1.00  0.00     0.153 C 
BRANCH  16  17
ATOM     17  C   UNL     1       0.544   6.357 -16.252  1.00  0.00    -0.029 A 
ATOM     18  C   UNL     1       1.813   6.891 -16.001  1.00  0.00     0.006 A 
ATOM     19  C   UNL     1      -0.325   7.050 -17.110  1.00  0.00     0.006 A 
ATOM     20  C   UNL     1       2.207   8.082 -16.620  1.00  0.00     0.004 A 
ATOM     21  C   UNL     1       0.070   8.232 -17.729  1.00  0.00     0.004 A 
ATOM     22  C   UNL     1       1.344   8.753 -17.497  1.00  0.00    -0.051 A 
ATOM     23  C   UNL     1       1.809   9.949 -18.273  1.00  0.00     0.044 C 
ENDBRANCH  16  17
ENDBRANCH   6  16
TORSDOF 3
ENDMDL
MODEL 7
REMARK VINA RESULT:    -4.589      4.827      7.221
REMARK INTER + INTRA:          -5.772
REMARK INTER:                  -5.334
REMARK INTRA:                  -0.438
REMARK UNBOUND:                -0.379
REMARK SMILES Cc1ccc(CNC(=O)NC(=O)c2ccc(C)cc2)cc1
REMARK SMILES IDX 11 1 12 2 10 3 8 4 9 5 7 6 13 9 19 10 18 11 14 12 16 13
REMARK SMILES IDX 15 14 17 15 6 16 5 17 4 18 20 19 3 20 21 21 2 22 1 23
REMARK H PARENT 10 7 7 8
ROOT
ATOM      1  C   UNL     1       4.125  -0.143 -12.855  1.00  0.00     0.259 C 
ATOM      2  O   UNL     1       4.635  -1.193 -12.491  1.00  0.00    -0.269 OA
ATOM      3  N   UNL     1       4.330   0.563 -14.045  1.00  0.00    -0.274 N 
ATOM      4  C   UNL     1       4.896   0.335 -15.273  1.00  0.00     0.321 C 
ATOM      5  O   UNL     1       4.752   1.204 -16.140  1.00  0.00    -0.248 OA
ATOM      6  N   UNL     1       5.565  -0.789 -15.588  1.00  0.00    -0.334 N 
ATOM      7  H   UNL     1       3.808   1.426 -14.113  1.00  0.00     0.175 HD
ATOM      8  H   UNL     1       5.844  -0.839 -16.557  1.00  0.00     0.165 HD
ENDROOT
BRANCH   1   9
ATOM      9  C   UNL     1       3.157   0.477 -11.931  1.00  0.00     0.040 A 
ATOM     10  C   UNL     1       1.819   0.078 -11.902  1.00  0.00     0.014 A 
ATOM     11  C   UNL     1       0.953   0.657 -10.974  1.00  0.00     0.004 A 
ATOM     12  C   UNL     1       3.615   1.489 -11.081  1.00  0.00     0.014 A 
ATOM     13  C   UNL     1       1.415   1.636 -10.082  1.00  0.00    -0.051 A 
ATOM     14  C   UNL     1       2.748   2.060 -10.152  1.00  0.00     0.004 A 
ATOM     15  C   UNL     1       0.493   2.187  -9.034  1.00  0.00     0.044 C 
ENDBRANCH   1   9
BRANCH   6  16
ATOM     16  C   UNL     1       5.755  -1.954 -14.770  1.00  0.00     0.153 C 
BRANCH  16  17
ATOM     17  C   UNL     1       5.608  -3.294 -15.434  1.00  0.00    -0.029 A 
ATOM     18  C   UNL     1       4.371  -3.829 -15.809  1.00  0.00     0.006 A 
ATOM     19  C   UNL     1       6.782  -3.925 -15.877  1.00  0.00     0.006 A 
ATOM     20  C   UNL     1       4.318  -4.959 -16.633  1.00  0.00     0.004 A 
ATOM     21  C   UNL     1       6.728  -5.045 -16.700  1.00  0.00     0.004 A 
ATOM     22  C   UNL     1       5.495  -5.566 -17.094  1.00  0.00    -0.051 A 
ATOM     23  C   UNL     1       5.446  -6.687 -18.089  1.00  0.00     0.044 C 
ENDBRANCH  16  17
ENDBRANCH   6  16
TORSDOF 3
ENDMDL
MODEL 8
REMARK VINA RESULT:    -4.334      3.894      7.833
REMARK INTER + INTRA:          -5.473
REMARK INTER:                  -5.054
REMARK INTRA:                  -0.420
REMARK UNBOUND:                -0.379
REMARK SMILES Cc1ccc(CNC(=O)NC(=O)c2ccc(C)cc2)cc1
REMARK SMILES IDX 11 1 12 2 10 3 8 4 9 5 7 6 13 9 19 10 18 11 14 12 16 13
REMARK SMILES IDX 15 14 17 15 6 16 5 17 4 18 20 19 3 20 21 21 2 22 1 23
REMARK H PARENT 10 7 7 8
ROOT
ATOM      1  C   UNL     1       3.291   0.584 -11.887  1.00  0.00     0.259 C 
ATOM      2  O   UNL     1       2.223   0.094 -11.546  1.00  0.00    -0.269 OA
ATOM      3  N   UNL     1       3.882   1.777 -11.460  1.00  0.00    -0.274 N 
ATOM      4  C   UNL     1       3.715   2.685 -10.445  1.00  0.00     0.321 C 
ATOM      5  O   UNL     1       4.562   3.577 -10.329  1.00  0.00    -0.248 OA
ATOM      6  N   UNL     1       2.702   2.634  -9.560  1.00  0.00    -0.334 N 
ATOM      7  H   UNL     1       4.767   1.986 -11.903  1.00  0.00     0.175 HD
ATOM      8  H   UNL     1       2.770   3.322  -8.825  1.00  0.00     0.165 HD
ENDROOT
BRANCH   1   9
ATOM      9  C   UNL     1       4.079  -0.174 -12.877  1.00  0.00     0.040 A 
ATOM     10  C   UNL     1       4.314  -1.542 -12.729  1.00  0.00     0.014 A 
ATOM     11  C   UNL     1       5.020  -2.226 -13.718  1.00  0.00     0.004 A 
ATOM     12  C   UNL     1       4.597   0.521 -13.975  1.00  0.00     0.014 A 
ATOM     13  C   UNL     1       5.499  -1.548 -14.849  1.00  0.00    -0.051 A 
ATOM     14  C   UNL     1       5.297  -0.168 -14.964  1.00  0.00     0.004 A 
ATOM     15  C   UNL     1       6.183  -2.313 -15.944  1.00  0.00     0.044 C 
ENDBRANCH   1   9
BRANCH   6  16
ATOM     16  C   UNL     1       1.681   1.630  -9.455  1.00  0.00     0.153 C 
BRANCH  16  17
ATOM     17  C   UNL     1       1.254   1.222  -8.072  1.00  0.00    -0.029 A 
ATOM     18  C   UNL     1       2.127   0.647  -7.143  1.00  0.00     0.006 A 
ATOM     19  C   UNL     1      -0.018   1.635  -7.644  1.00  0.00     0.006 A 
ATOM     20  C   UNL     1       1.737   0.514  -5.806  1.00  0.00     0.004 A 
ATOM     21  C   UNL     1      -0.403   1.506  -6.313  1.00  0.00     0.004 A 
ATOM     22  C   UNL     1       0.476   0.953  -5.380  1.00  0.00    -0.051 A 
ATOM     23  C   UNL     1       0.106   0.945  -3.927  1.00  0.00     0.044 C 
ENDBRANCH  16  17
ENDBRANCH   6  16
TORSDOF 3
ENDMDL
MODEL 9
REMARK VINA RESULT:    -4.323      3.695      7.680
REMARK INTER + INTRA:          -5.460
REMARK INTER:                  -5.307
REMARK INTRA:                  -0.153
REMARK UNBOUND:                -0.379
REMARK SMILES Cc1ccc(CNC(=O)NC(=O)c2ccc(C)cc2)cc1
REMARK SMILES IDX 11 1 12 2 10 3 8 4 9 5 7 6 13 9 19 10 18 11 14 12 16 13
REMARK SMILES IDX 15 14 17 15 6 16 5 17 4 18 20 19 3 20 21 21 2 22 1 23
REMARK H PARENT 10 7 7 8
ROOT
ATOM      1  C   UNL     1       3.365   0.215 -12.149  1.00  0.00     0.259 C 
ATOM      2  O   UNL     1       3.937   0.958 -11.364  1.00  0.00    -0.269 OA
ATOM      3  N   UNL     1       2.009  -0.122 -12.207  1.00  0.00    -0.274 N 
ATOM      4  C   UNL     1       0.828   0.334 -11.678  1.00  0.00     0.321 C 
ATOM      5  O   UNL     1      -0.219  -0.172 -12.094  1.00  0.00    -0.248 OA
ATOM      6  N   UNL     1       0.754   1.316 -10.760  1.00  0.00    -0.334 N 
ATOM      7  H   UNL     1       1.773  -0.779 -12.938  1.00  0.00     0.175 HD
ATOM      8  H   UNL     1      -0.191   1.594 -10.538  1.00  0.00     0.165 HD
ENDROOT
BRANCH   1   9
ATOM      9  C   UNL     1       4.201  -0.419 -13.187  1.00  0.00     0.040 A 
ATOM     10  C   UNL     1       4.471  -1.789 -13.168  1.00  0.00     0.014 A 
ATOM     11  C   UNL     1       5.222  -2.352 -14.200  1.00  0.00     0.004 A 
ATOM     12  C   UNL     1       4.727   0.395 -14.194  1.00  0.00     0.014 A 
ATOM     13  C   UNL     1       5.711  -1.552 -15.244  1.00  0.00    -0.051 A 
ATOM     14  C   UNL     1       5.472  -0.172 -15.226  1.00  0.00     0.004 A 
ATOM     15  C   UNL     1       6.445  -2.185 -16.389  1.00  0.00     0.044 C 
ENDBRANCH   1   9
BRANCH   6  16
ATOM     16  C   UNL     1       1.832   2.100 -10.226  1.00  0.00     0.153 C 
BRANCH  16  17
ATOM     17  C   UNL     1       2.361   1.714  -8.873  1.00  0.00    -0.029 A 
ATOM     18  C   UNL     1       2.923   2.634  -7.982  1.00  0.00     0.006 A 
ATOM     19  C   UNL     1       2.078   0.415  -8.418  1.00  0.00     0.006 A 
ATOM     20  C   UNL     1       3.173   2.263  -6.657  1.00  0.00     0.004 A 
ATOM     21  C   UNL     1       2.322   0.049  -7.098  1.00  0.00     0.004 A 
ATOM     22  C   UNL     1       2.863   0.974  -6.203  1.00  0.00    -0.051 A 
ATOM     23  C   UNL     1       2.994   0.613  -4.753  1.00  0.00     0.044 C 
ENDBRANCH  16  17
ENDBRANCH   6  16
TORSDOF 3
ENDMDL
