MODEL 1
REMARK VINA RESULT:    -6.227      0.000      0.000
REMARK INTER + INTRA:          -7.705
REMARK INTER:                  -7.320
REMARK INTRA:                  -0.386
REMARK UNBOUND:                -0.386
REMARK SMILES Cc1ccc(CNC(=O)NC(=O)c2ccc(C)cc2)cc1
REMARK SMILES IDX 11 1 12 2 10 3 8 4 9 5 7 6 13 9 19 10 18 11 14 12 16 13
REMARK SMILES IDX 15 14 17 15 6 16 5 17 4 18 20 19 3 20 21 21 2 22 1 23
REMARK H PARENT 10 7 7 8
ROOT
ATOM      1  C   UNL     1       7.600   4.597   5.494  1.00  0.00     0.259 C 
ATOM      2  O   UNL     1       7.878   3.534   6.032  1.00  0.00    -0.269 OA
ATOM      3  N   UNL     1       7.876   5.897   5.930  1.00  0.00    -0.274 N 
ATOM      4  C   UNL     1       8.675   6.504   6.864  1.00  0.00     0.321 C 
ATOM      5  O   UNL     1       8.738   7.738   6.849  1.00  0.00    -0.248 OA
ATOM      6  N   UNL     1       9.409   5.829   7.767  1.00  0.00    -0.334 N 
ATOM      7  H   UNL     1       7.525   6.624   5.321  1.00  0.00     0.175 HD
ATOM      8  H   UNL     1      10.009   6.418   8.327  1.00  0.00     0.165 HD
ENDROOT
BRANCH   1   9
ATOM      9  C   UNL     1       6.881   4.518   4.208  1.00  0.00     0.040 A 
ATOM     10  C   UNL     1       5.498   4.691   4.136  1.00  0.00     0.014 A 
ATOM     11  C   UNL     1       4.869   4.660   2.891  1.00  0.00     0.004 A 
ATOM     12  C   UNL     1       7.626   4.256   3.054  1.00  0.00     0.014 A 
ATOM     13  C   UNL     1       5.615   4.450   1.721  1.00  0.00    -0.051 A 
ATOM     14  C   UNL     1       6.995   4.233   1.812  1.00  0.00     0.004 A 
ATOM     15  C   UNL     1       4.937   4.504   0.383  1.00  0.00     0.044 C 
ENDBRANCH   1   9
BRANCH   6  16
ATOM     16  C   UNL     1       9.559   4.406   7.887  1.00  0.00     0.153 C 
BRANCH  16  17
ATOM     17  C   UNL     1      10.816   3.896   8.534  1.00  0.00    -0.029 A 
ATOM     18  C   UNL     1      11.706   3.027   7.894  1.00  0.00     0.006 A 
ATOM     19  C   UNL     1      11.203   4.492   9.746  1.00  0.00     0.006 A 
ATOM     20  C   UNL     1      12.967   2.783   8.449  1.00  0.00     0.004 A 
ATOM     21  C   UNL     1      12.459   4.251  10.294  1.00  0.00     0.004 A 
ATOM     22  C   UNL     1      13.356   3.402   9.645  1.00  0.00    -0.051 A 
ATOM     23  C   UNL     1      14.754   3.258  10.169  1.00  0.00     0.044 C 
ENDBRANCH  16  17
ENDBRANCH   6  16
TORSDOF 3
ENDMDL
MODEL 2
REMARK VINA RESULT:    -6.215      0.556      8.004
REMARK INTER + INTRA:          -7.691
REMARK INTER:                  -7.202
REMARK INTRA:                  -0.488
REMARK UNBOUND:                -0.386
REMARK SMILES Cc1ccc(CNC(=O)NC(=O)c2ccc(C)cc2)cc1
REMARK SMILES IDX 11 1 12 2 10 3 8 4 9 5 7 6 13 9 19 10 18 11 14 12 16 13
REMARK SMILES IDX 15 14 17 15 6 16 5 17 4 18 20 19 3 20 21 21 2 22 1 23
REMARK H PARENT 10 7 7 8
ROOT
ATOM      1  C   UNL     1       9.754   4.312   7.408  1.00  0.00     0.259 C 
ATOM      2  O   UNL     1       9.192   3.391   6.832  1.00  0.00    -0.269 OA
ATOM      3  N   UNL     1       9.465   5.680   7.361  1.00  0.00    -0.274 N 
ATOM      4  C   UNL     1       8.440   6.485   6.936  1.00  0.00     0.321 C 
ATOM      5  O   UNL     1       8.509   7.690   7.202  1.00  0.00    -0.248 OA
ATOM      6  N   UNL     1       7.358   6.028   6.278  1.00  0.00    -0.334 N 
ATOM      7  H   UNL     1      10.089   6.257   7.910  1.00  0.00     0.175 HD
ATOM      8  H   UNL     1       6.654   6.733   6.113  1.00  0.00     0.165 HD
ENDROOT
BRANCH   1   9
ATOM      9  C   UNL     1      10.890   3.953   8.278  1.00  0.00     0.040 A 
ATOM     10  C   UNL     1      11.811   2.971   7.905  1.00  0.00     0.014 A 
ATOM     11  C   UNL     1      12.898   2.703   8.737  1.00  0.00     0.004 A 
ATOM     12  C   UNL     1      11.019   4.621   9.500  1.00  0.00     0.014 A 
ATOM     13  C   UNL     1      13.064   3.404   9.941  1.00  0.00    -0.051 A 
ATOM     14  C   UNL     1      12.110   4.354  10.324  1.00  0.00     0.004 A 
ATOM     15  C   UNL     1      14.283   3.164  10.783  1.00  0.00     0.044 C 
ENDBRANCH   1   9
BRANCH   6  16
ATOM     16  C   UNL     1       7.035   4.664   5.965  1.00  0.00     0.153 C 
BRANCH  16  17
ATOM     17  C   UNL     1       6.497   4.381   4.590  1.00  0.00    -0.029 A 
ATOM     18  C   UNL     1       5.135   4.430   4.278  1.00  0.00     0.006 A 
ATOM     19  C   UNL     1       7.429   4.273   3.545  1.00  0.00     0.006 A 
ATOM     20  C   UNL     1       4.721   4.396   2.942  1.00  0.00     0.004 A 
ATOM     21  C   UNL     1       7.016   4.244   2.216  1.00  0.00     0.004 A 
ATOM     22  C   UNL     1       5.658   4.316   1.903  1.00  0.00    -0.051 A 
ATOM     23  C   UNL     1       5.232   4.422   0.469  1.00  0.00     0.044 C 
ENDBRANCH  16  17
ENDBRANCH   6  16
TORSDOF 3
ENDMDL
MODEL 3
REMARK VINA RESULT:    -6.170      3.143      7.297
REMARK INTER + INTRA:          -7.638
REMARK INTER:                  -7.148
REMARK INTRA:                  -0.490
REMARK UNBOUND:                -0.386
REMARK SMILES Cc1ccc(CNC(=O)NC(=O)c2ccc(C)cc2)cc1
REMARK SMILES IDX 11 1 12 2 10 3 8 4 9 5 7 6 13 9 19 10 18 11 14 12 16 13
REMARK SMILES IDX 15 14 17 15 6 16 5 17 4 18 20 19 3 20 21 21 2 22 1 23
REMARK H PARENT 10 7 7 8
ROOT
ATOM      1  C   UNL     1       8.038   7.470   6.695  1.00  0.00     0.259 C 
ATOM      2  O   UNL     1       7.237   7.307   5.786  1.00  0.00    -0.269 OA
ATOM      3  N   UNL     1       8.852   6.524   7.325  1.00  0.00    -0.274 N 
ATOM      4  C   UNL     1       9.271   5.237   7.101  1.00  0.00     0.321 C 
ATOM      5  O   UNL     1      10.133   4.775   7.856  1.00  0.00    -0.248 OA
ATOM      6  N   UNL     1       8.816   4.472   6.092  1.00  0.00    -0.334 N 
ATOM      7  H   UNL     1       9.423   6.896   8.073  1.00  0.00     0.175 HD
ATOM      8  H   UNL     1       9.286   3.582   6.012  1.00  0.00     0.165 HD
ENDROOT
BRANCH   1   9
ATOM      9  C   UNL     1       8.184   8.847   7.207  1.00  0.00     0.040 A 
ATOM     10  C   UNL     1       7.077   9.677   7.389  1.00  0.00     0.014 A 
ATOM     11  C   UNL     1       7.259  10.952   7.926  1.00  0.00     0.004 A 
ATOM     12  C   UNL     1       9.472   9.304   7.503  1.00  0.00     0.014 A 
ATOM     13  C   UNL     1       8.541  11.402   8.274  1.00  0.00    -0.051 A 
ATOM     14  C   UNL     1       9.648  10.576   8.045  1.00  0.00     0.004 A 
ATOM     15  C   UNL     1       8.711  12.741   8.928  1.00  0.00     0.044 C 
ENDBRANCH   1   9
BRANCH   6  16
ATOM     16  C   UNL     1       7.900   4.848   5.051  1.00  0.00     0.153 C 
BRANCH  16  17
ATOM     17  C   UNL     1       6.824   3.863   4.690  1.00  0.00    -0.029 A 
ATOM     18  C   UNL     1       6.980   2.890   3.697  1.00  0.00     0.006 A 
ATOM     19  C   UNL     1       5.705   3.794   5.536  1.00  0.00     0.006 A 
ATOM     20  C   UNL     1       6.044   1.858   3.575  1.00  0.00     0.004 A 
ATOM     21  C   UNL     1       4.777   2.764   5.416  1.00  0.00     0.004 A 
ATOM     22  C   UNL     1       4.944   1.781   4.440  1.00  0.00    -0.051 A 
ATOM     23  C   UNL     1       4.018   0.602   4.408  1.00  0.00     0.044 C 
ENDBRANCH  16  17
ENDBRANCH   6  16
TORSDOF 3
ENDMDL
MODEL 4
REMARK VINA RESULT:    -6.165      3.267      5.570
REMARK INTER + INTRA:          -7.632
REMARK INTER:                  -7.256
REMARK INTRA:                  -0.376
REMARK UNBOUND:                -0.386
REMARK SMILES Cc1ccc(CNC(=O)NC(=O)c2ccc(C)cc2)cc1
REMARK SMILES IDX 11 1 12 2 10 3 8 4 9 5 7 6 13 9 19 10 18 11 14 12 16 13
REMARK SMILES IDX 15 14 17 15 6 16 5 17 4 18 20 19 3 20 21 21 2 22 1 23
REMARK H PARENT 10 7 7 8
ROOT
ATOM      1  C   UNL     1       7.306   4.928   5.543  1.00  0.00     0.259 C 
ATOM      2  O   UNL     1       7.023   6.003   5.033  1.00  0.00    -0.269 OA
ATOM      3  N   UNL     1       8.315   4.636   6.466  1.00  0.00    -0.274 N 
ATOM      4  C   UNL     1       9.156   5.327   7.300  1.00  0.00     0.321 C 
ATOM      5  O   UNL     1       9.842   4.672   8.093  1.00  0.00    -0.248 OA
ATOM      6  N   UNL     1       9.247   6.669   7.320  1.00  0.00    -0.334 N 
ATOM      7  H   UNL     1       8.370   3.661   6.729  1.00  0.00     0.175 HD
ATOM      8  H   UNL     1       9.848   7.026   8.049  1.00  0.00     0.165 HD
ENDROOT
BRANCH   1   9
ATOM      9  C   UNL     1       6.480   3.771   5.147  1.00  0.00     0.040 A 
ATOM     10  C   UNL     1       6.917   2.861   4.182  1.00  0.00     0.014 A 
ATOM     11  C   UNL     1       6.124   1.754   3.878  1.00  0.00     0.004 A 
ATOM     12  C   UNL     1       5.235   3.611   5.762  1.00  0.00     0.014 A 
ATOM     13  C   UNL     1       4.897   1.556   4.528  1.00  0.00    -0.051 A 
ATOM     14  C   UNL     1       4.450   2.500   5.461  1.00  0.00     0.004 A 
ATOM     15  C   UNL     1       4.097   0.317   4.253  1.00  0.00     0.044 C 
ENDBRANCH   1   9
BRANCH   6  16
ATOM     16  C   UNL     1       8.472   7.611   6.563  1.00  0.00     0.153 C 
BRANCH  16  17
ATOM     17  C   UNL     1       8.378   9.014   7.096  1.00  0.00    -0.029 A 
ATOM     18  C   UNL     1       7.161   9.660   7.336  1.00  0.00     0.006 A 
ATOM     19  C   UNL     1       9.564   9.605   7.562  1.00  0.00     0.006 A 
ATOM     20  C   UNL     1       7.136  10.862   8.052  1.00  0.00     0.004 A 
ATOM     21  C   UNL     1       9.537  10.797   8.278  1.00  0.00     0.004 A 
ATOM     22  C   UNL     1       8.321  11.431   8.539  1.00  0.00    -0.051 A 
ATOM     23  C   UNL     1       8.288  12.639   9.426  1.00  0.00     0.044 C 
ENDBRANCH  16  17
ENDBRANCH   6  16
TORSDOF 3
ENDMDL
MODEL 5
REMARK VINA RESULT:    -5.876      1.246      7.935
REMARK INTER + INTRA:          -7.293
REMARK INTER:                  -6.852
REMARK INTRA:                  -0.440
REMARK UNBOUND:                -0.386
REMARK SMILES Cc1ccc(CNC(=O)NC(=O)c2ccc(C)cc2)cc1
REMARK SMILES IDX 11 1 12 2 10 3 8 4 9 5 7 6 13 9 19 10 18 11 14 12 16 13
REMARK SMILES IDX 15 14 17 15 6 16 5 17 4 18 20 19 3 20 21 21 2 22 1 23
REMARK H PARENT 10 7 7 8
ROOT
ATOM      1  C   UNL     1       9.869   4.197   7.779  1.00  0.00     0.259 C 
ATOM      2  O   UNL     1       9.166   3.252   7.450  1.00  0.00    -0.269 OA
ATOM      3  N   UNL     1       9.682   5.559   7.522  1.00  0.00    -0.274 N 
ATOM      4  C   UNL     1       8.673   6.378   7.085  1.00  0.00     0.321 C 
ATOM      5  O   UNL     1       8.869   7.598   7.119  1.00  0.00    -0.248 OA
ATOM      6  N   UNL     1       7.481   5.926   6.654  1.00  0.00    -0.334 N 
ATOM      7  H   UNL     1      10.416   6.156   7.880  1.00  0.00     0.175 HD
ATOM      8  H   UNL     1       6.817   6.659   6.450  1.00  0.00     0.165 HD
ENDROOT
BRANCH   1   9
ATOM      9  C   UNL     1      11.082   3.879   8.558  1.00  0.00     0.040 A 
ATOM     10  C   UNL     1      12.003   2.928   8.115  1.00  0.00     0.014 A 
ATOM     11  C   UNL     1      13.161   2.699   8.859  1.00  0.00     0.004 A 
ATOM     12  C   UNL     1      11.283   4.555   9.765  1.00  0.00     0.014 A 
ATOM     13  C   UNL     1      13.397   3.410  10.045  1.00  0.00    -0.051 A 
ATOM     14  C   UNL     1      12.444   4.328  10.502  1.00  0.00     0.004 A 
ATOM     15  C   UNL     1      14.686   3.214  10.789  1.00  0.00     0.044 C 
ENDBRANCH   1   9
BRANCH   6  16
ATOM     16  C   UNL     1       7.015   4.568   6.632  1.00  0.00     0.153 C 
BRANCH  16  17
ATOM     17  C   UNL     1       6.289   4.108   5.399  1.00  0.00    -0.029 A 
ATOM     18  C   UNL     1       6.863   4.126   4.123  1.00  0.00     0.006 A 
ATOM     19  C   UNL     1       5.066   3.442   5.583  1.00  0.00     0.006 A 
ATOM     20  C   UNL     1       6.233   3.466   3.063  1.00  0.00     0.004 A 
ATOM     21  C   UNL     1       4.443   2.782   4.529  1.00  0.00     0.004 A 
ATOM     22  C   UNL     1       5.027   2.780   3.261  1.00  0.00    -0.051 A 
ATOM     23  C   UNL     1       4.420   1.953   2.166  1.00  0.00     0.044 C 
ENDBRANCH  16  17
ENDBRANCH   6  16
TORSDOF 3
ENDMDL
MODEL 6
REMARK VINA RESULT:    -5.357      9.057      9.899
REMARK INTER + INTRA:          -6.682
REMARK INTER:                  -6.254
REMARK INTRA:                  -0.428
REMARK UNBOUND:                -0.386
REMARK SMILES Cc1ccc(CNC(=O)NC(=O)c2ccc(C)cc2)cc1
REMARK SMILES IDX 11 1 12 2 10 3 8 4 9 5 7 6 13 9 19 10 18 11 14 12 16 13
REMARK SMILES IDX 15 14 17 15 6 16 5 17 4 18 20 19 3 20 21 21 2 22 1 23
REMARK H PARENT 10 7 7 8
ROOT
ATOM      1  C   UNL     1      12.964  10.871  12.336  1.00  0.00     0.259 C 
ATOM      2  O   UNL     1      13.071   9.873  13.036  1.00  0.00    -0.269 OA
ATOM      3  N   UNL     1      13.927  11.476  11.522  1.00  0.00    -0.274 N 
ATOM      4  C   UNL     1      15.155  11.161  10.999  1.00  0.00     0.321 C 
ATOM      5  O   UNL     1      15.648  11.946  10.181  1.00  0.00    -0.248 OA
ATOM      6  N   UNL     1      15.828  10.036  11.305  1.00  0.00    -0.334 N 
ATOM      7  H   UNL     1      13.608  12.312  11.051  1.00  0.00     0.175 HD
ATOM      8  H   UNL     1      16.675   9.911  10.770  1.00  0.00     0.165 HD
ENDROOT
BRANCH   1   9
ATOM      9  C   UNL     1      11.648  11.537  12.332  1.00  0.00     0.040 A 
ATOM     10  C   UNL     1      11.093  12.046  11.157  1.00  0.00     0.014 A 
ATOM     11  C   UNL     1       9.822  12.620  11.193  1.00  0.00     0.004 A 
ATOM     12  C   UNL     1      10.967  11.653  13.548  1.00  0.00     0.014 A 
ATOM     13  C   UNL     1       9.108  12.695  12.399  1.00  0.00    -0.051 A 
ATOM     14  C   UNL     1       9.695  12.222  13.579  1.00  0.00     0.004 A 
ATOM     15  C   UNL     1       7.710  13.238  12.407  1.00  0.00     0.044 C 
ENDBRANCH   1   9
BRANCH   6  16
ATOM     16  C   UNL     1      15.391   8.954  12.142  1.00  0.00     0.153 C 
BRANCH  16  17
ATOM     17  C   UNL     1      15.775   7.562  11.725  1.00  0.00    -0.029 A 
ATOM     18  C   UNL     1      15.254   6.413  12.330  1.00  0.00     0.006 A 
ATOM     19  C   UNL     1      16.524   7.427  10.545  1.00  0.00     0.006 A 
ATOM     20  C   UNL     1      15.461   5.159  11.746  1.00  0.00     0.004 A 
ATOM     21  C   UNL     1      16.725   6.179   9.962  1.00  0.00     0.004 A 
ATOM     22  C   UNL     1      16.186   5.035  10.552  1.00  0.00    -0.051 A 
ATOM     23  C   UNL     1      16.290   3.716   9.846  1.00  0.00     0.044 C 
ENDBRANCH  16  17
ENDBRANCH   6  16
TORSDOF 3
ENDMDL
MODEL 7
REMARK VINA RESULT:    -5.240      9.459     10.976
REMARK INTER + INTRA:          -6.545
REMARK INTER:                  -6.096
REMARK INTRA:                  -0.448
REMARK UNBOUND:                -0.386
REMARK SMILES Cc1ccc(CNC(=O)NC(=O)c2ccc(C)cc2)cc1
REMARK SMILES IDX 11 1 12 2 10 3 8 4 9 5 7 6 13 9 19 10 18 11 14 12 16 13
REMARK SMILES IDX 15 14 17 15 6 16 5 17 4 18 20 19 3 20 21 21 2 22 1 23
REMARK H PARENT 10 7 7 8
ROOT
ATOM      1  C   UNL     1      14.913   5.971  12.498  1.00  0.00     0.259 C 
ATOM      2  O   UNL     1      14.180   6.418  13.369  1.00  0.00    -0.269 OA
ATOM      3  N   UNL     1      15.555   6.652  11.460  1.00  0.00    -0.274 N 
ATOM      4  C   UNL     1      15.840   7.951  11.124  1.00  0.00     0.321 C 
ATOM      5  O   UNL     1      16.575   8.142  10.149  1.00  0.00    -0.248 OA
ATOM      6  N   UNL     1      15.389   9.014  11.814  1.00  0.00    -0.334 N 
ATOM      7  H   UNL     1      16.098   6.060  10.845  1.00  0.00     0.175 HD
ATOM      8  H   UNL     1      15.759   9.896  11.490  1.00  0.00     0.165 HD
ENDROOT
BRANCH   1   9
ATOM      9  C   UNL     1      15.171   4.518  12.534  1.00  0.00     0.040 A 
ATOM     10  C   UNL     1      15.873   3.878  11.511  1.00  0.00     0.014 A 
ATOM     11  C   UNL     1      16.138   2.512  11.615  1.00  0.00     0.004 A 
ATOM     12  C   UNL     1      14.685   3.791  13.626  1.00  0.00     0.014 A 
ATOM     13  C   UNL     1      15.700   1.784  12.731  1.00  0.00    -0.051 A 
ATOM     14  C   UNL     1      14.959   2.429  13.728  1.00  0.00     0.004 A 
ATOM     15  C   UNL     1      16.067   0.336  12.868  1.00  0.00     0.044 C 
ENDBRANCH   1   9
BRANCH   6  16
ATOM     16  C   UNL     1      14.617   9.009  13.024  1.00  0.00     0.153 C 
BRANCH  16  17
ATOM     17  C   UNL     1      13.499  10.009  13.133  1.00  0.00    -0.029 A 
ATOM     18  C   UNL     1      13.015  10.735  12.040  1.00  0.00     0.006 A 
ATOM     19  C   UNL     1      12.786  10.047  14.343  1.00  0.00     0.006 A 
ATOM     20  C   UNL     1      11.826  11.463  12.155  1.00  0.00     0.004 A 
ATOM     21  C   UNL     1      11.601  10.768  14.454  1.00  0.00     0.004 A 
ATOM     22  C   UNL     1      11.105  11.474  13.357  1.00  0.00    -0.051 A 
ATOM     23  C   UNL     1       9.761  12.133  13.445  1.00  0.00     0.044 C 
ENDBRANCH  16  17
ENDBRANCH   6  16
TORSDOF 3
ENDMDL
MODEL 8
REMARK VINA RESULT:    -5.200      8.989     11.243
REMARK INTER + INTRA:          -6.498
REMARK INTER:                  -5.995
REMARK INTRA:                  -0.503
REMARK UNBOUND:                -0.386
REMARK SMILES Cc1ccc(CNC(=O)NC(=O)c2ccc(C)cc2)cc1
REMARK SMILES IDX 11 1 12 2 10 3 8 4 9 5 7 6 13 9 19 10 18 11 14 12 16 13
REMARK SMILES IDX 15 14 17 15 6 16 5 17 4 18 20 19 3 20 21 21 2 22 1 23
REMARK H PARENT 10 7 7 8
ROOT
ATOM      1  C   UNL     1      13.745   7.624  13.034  1.00  0.00     0.259 C 
ATOM      2  O   UNL     1      12.559   7.724  13.312  1.00  0.00    -0.269 OA
ATOM      3  N   UNL     1      14.687   8.640  12.838  1.00  0.00    -0.274 N 
ATOM      4  C   UNL     1      14.789   9.987  13.075  1.00  0.00     0.321 C 
ATOM      5  O   UNL     1      15.883  10.524  12.871  1.00  0.00    -0.248 OA
ATOM      6  N   UNL     1      13.775  10.739  13.544  1.00  0.00    -0.334 N 
ATOM      7  H   UNL     1      15.611   8.310  12.593  1.00  0.00     0.175 HD
ATOM      8  H   UNL     1      14.037  11.693  13.746  1.00  0.00     0.165 HD
ENDROOT
BRANCH   1   9
ATOM      9  C   UNL     1      14.277   6.256  12.887  1.00  0.00     0.040 A 
ATOM     10  C   UNL     1      15.095   5.905  11.812  1.00  0.00     0.014 A 
ATOM     11  C   UNL     1      15.617   4.612  11.743  1.00  0.00     0.004 A 
ATOM     12  C   UNL     1      13.930   5.309  13.856  1.00  0.00     0.014 A 
ATOM     13  C   UNL     1      15.317   3.669  12.738  1.00  0.00    -0.051 A 
ATOM     14  C   UNL     1      14.459   4.021  13.786  1.00  0.00     0.004 A 
ATOM     15  C   UNL     1      15.953   2.311  12.695  1.00  0.00     0.044 C 
ENDBRANCH   1   9
BRANCH   6  16
ATOM     16  C   UNL     1      12.468  10.298  13.941  1.00  0.00     0.153 C 
BRANCH  16  17
ATOM     17  C   UNL     1      11.288  10.994  13.323  1.00  0.00    -0.029 A 
ATOM     18  C   UNL     1      10.368  11.742  14.065  1.00  0.00     0.006 A 
ATOM     19  C   UNL     1      11.241  11.059  11.921  1.00  0.00     0.006 A 
ATOM     20  C   UNL     1       9.439  12.558  13.410  1.00  0.00     0.004 A 
ATOM     21  C   UNL     1      10.320  11.875  11.271  1.00  0.00     0.004 A 
ATOM     22  C   UNL     1       9.417  12.640  12.011  1.00  0.00    -0.051 A 
ATOM     23  C   UNL     1       8.522  13.617  11.309  1.00  0.00     0.044 C 
ENDBRANCH  16  17
ENDBRANCH   6  16
TORSDOF 3
ENDMDL
MODEL 9
REMARK VINA RESULT:    -4.914      5.495      8.472
REMARK INTER + INTRA:          -6.161
REMARK INTER:                  -5.623
REMARK INTRA:                  -0.538
REMARK UNBOUND:                -0.386
REMARK SMILES Cc1ccc(CNC(=O)NC(=O)c2ccc(C)cc2)cc1
REMARK SMILES IDX 11 1 12 2 10 3 8 4 9 5 7 6 13 9 19 10 18 11 14 12 16 13
REMARK SMILES IDX 15 14 17 15 6 16 5 17 4 18 20 19 3 20 21 21 2 22 1 23
REMARK H PARENT 10 7 7 8
ROOT
ATOM      1  C   UNL     1      13.276   5.740  11.008  1.00  0.00     0.259 C 
ATOM      2  O   UNL     1      13.596   6.811  10.512  1.00  0.00    -0.269 OA
ATOM      3  N   UNL     1      13.555   5.250  12.288  1.00  0.00    -0.274 N 
ATOM      4  C   UNL     1      14.012   5.741  13.484  1.00  0.00     0.321 C 
ATOM      5  O   UNL     1      13.994   4.983  14.459  1.00  0.00    -0.248 OA
ATOM      6  N   UNL     1      14.447   7.004  13.652  1.00  0.00    -0.334 N 
ATOM      7  H   UNL     1      13.199   4.320  12.464  1.00  0.00     0.175 HD
ATOM      8  H   UNL     1      14.668   7.233  14.611  1.00  0.00     0.165 HD
ENDROOT
BRANCH   1   9
ATOM      9  C   UNL     1      12.482   4.831  10.160  1.00  0.00     0.040 A 
ATOM     10  C   UNL     1      11.114   5.028   9.962  1.00  0.00     0.014 A 
ATOM     11  C   UNL     1      10.416   4.173   9.110  1.00  0.00     0.004 A 
ATOM     12  C   UNL     1      13.138   3.753   9.559  1.00  0.00     0.014 A 
ATOM     13  C   UNL     1      11.076   3.118   8.461  1.00  0.00    -0.051 A 
ATOM     14  C   UNL     1      12.439   2.904   8.703  1.00  0.00     0.004 A 
ATOM     15  C   UNL     1      10.331   2.260   7.482  1.00  0.00     0.044 C 
ENDBRANCH   1   9
BRANCH   6  16
ATOM     16  C   UNL     1      14.453   8.064  12.685  1.00  0.00     0.153 C 
BRANCH  16  17
ATOM     17  C   UNL     1      13.603   9.270  12.978  1.00  0.00    -0.029 A 
ATOM     18  C   UNL     1      13.143  10.140  11.984  1.00  0.00     0.006 A 
ATOM     19  C   UNL     1      13.088   9.393  14.279  1.00  0.00     0.006 A 
ATOM     20  C   UNL     1      12.167  11.095  12.287  1.00  0.00     0.004 A 
ATOM     21  C   UNL     1      12.113  10.340  14.577  1.00  0.00     0.004 A 
ATOM     22  C   UNL     1      11.637  11.193  13.581  1.00  0.00    -0.051 A 
ATOM     23  C   UNL     1      10.492  12.115  13.878  1.00  0.00     0.044 C 
ENDBRANCH  16  17
ENDBRANCH   6  16
TORSDOF 3
ENDMDL
