MODEL 1
REMARK VINA RESULT:    -3.907      0.000      0.000
REMARK INTER + INTRA:          -5.387
REMARK INTER:                  -5.163
REMARK INTRA:                  -0.223
REMARK UNBOUND:                -0.223
REMARK SMILES [H]/N=C\C[C@H]1C[C@@H]1O[C@H]1CO[C@H]2C[C@@H](C3CC3)CCN2C1
REMARK SMILES IDX 7 1 6 2 5 3 8 4 9 5 14 6 13 7 18 8 12 9 19 10 20 11 11 12
REMARK SMILES IDX 21 13 10 14 15 15 16 16 17 17 4 18 3 19 2 20 1 21
REMARK H PARENT
ROOT
ATOM      1  C   UNL     1      11.998 -10.871  -0.117  1.00  0.00     0.122 C 
ATOM      2  C   UNL     1      13.409 -10.964  -0.626  1.00  0.00     0.039 C 
ATOM      3  C   UNL     1      13.149 -10.511   0.782  1.00  0.00     0.026 C 
ENDROOT
BRANCH   1   4
ATOM      4  O   UNL     1      11.245  -9.775  -0.671  1.00  0.00    -0.371 OA
BRANCH   4   5
ATOM      5  C   UNL     1      10.835  -9.933  -2.039  1.00  0.00     0.158 C 
ATOM      6  C   UNL     1       6.117  -7.735  -1.702  1.00  0.00    -0.003 C 
ATOM      7  C   UNL     1       6.755  -9.046  -1.226  1.00  0.00     0.052 C 
ATOM      8  C   UNL     1       7.178  -6.625  -1.700  1.00  0.00     0.019 C 
ATOM      9  C   UNL     1       8.019  -9.389  -2.025  1.00  0.00     0.189 C 
ATOM     10  C   UNL     1       8.423  -7.042  -2.483  1.00  0.00     0.087 C 
ATOM     11  N   UNL     1       8.980  -8.288  -1.956  1.00  0.00    -0.276 NA
ATOM     12  O   UNL     1       8.543 -10.594  -1.465  1.00  0.00    -0.360 OA
ATOM     13  C   UNL     1      10.225  -8.655  -2.640  1.00  0.00     0.121 C 
ATOM     14  C   UNL     1       9.757 -11.021  -2.090  1.00  0.00     0.195 C 
BRANCH   6  15
ATOM     15  C   UNL     1       4.940  -7.345  -0.837  1.00  0.00    -0.008 C 
ATOM     16  C   UNL     1       3.634  -6.926  -1.470  1.00  0.00     0.004 C 
ATOM     17  C   UNL     1       3.723  -8.234  -0.740  1.00  0.00     0.004 C 
ENDBRANCH   6  15
ENDBRANCH   4   5
ENDBRANCH   1   4
BRANCH   3  18
ATOM     18  C   UNL     1      13.532 -11.413   1.917  1.00  0.00     0.053 C 
BRANCH  18  19
ATOM     19  C   UNL     1      14.953 -11.913   1.921  1.00  0.00     0.074 C 
BRANCH  19  20
ATOM     20  N   UNL     1      15.916 -11.453   2.650  1.00  0.00    -0.313 NA
ATOM     21  H   UNL     1      16.232 -12.147   3.342  1.00  0.00     0.186 HD
ENDBRANCH  19  20
ENDBRANCH  18  19
ENDBRANCH   3  18
TORSDOF 6
ENDMDL
MODEL 2
REMARK VINA RESULT:    -3.902      2.703      8.590
REMARK INTER + INTRA:          -5.380
REMARK INTER:                  -5.256
REMARK INTRA:                  -0.124
REMARK UNBOUND:                -0.223
REMARK SMILES [H]/N=C\C[C@H]1C[C@@H]1O[C@H]1CO[C@H]2C[C@@H](C3CC3)CCN2C1
REMARK SMILES IDX 7 1 6 2 5 3 8 4 9 5 14 6 13 7 18 8 12 9 19 10 20 11 11 12
REMARK SMILES IDX 21 13 10 14 15 15 16 16 17 17 4 18 3 19 2 20 1 21
REMARK H PARENT
ROOT
ATOM      1  C   UNL     1      10.018 -10.524  -1.459  1.00  0.00     0.122 C 
ATOM      2  C   UNL     1       9.114 -11.447  -2.227  1.00  0.00     0.039 C 
ATOM      3  C   UNL     1       8.719 -10.981  -0.855  1.00  0.00     0.026 C 
ENDROOT
BRANCH   1   4
ATOM      4  O   UNL     1      11.216 -11.154  -0.964  1.00  0.00    -0.371 OA
BRANCH   4   5
ATOM      5  C   UNL     1      12.355 -10.290  -0.819  1.00  0.00     0.158 C 
ATOM      6  C   UNL     1      15.163 -13.239   2.439  1.00  0.00    -0.003 C 
ATOM      7  C   UNL     1      13.889 -12.393   2.546  1.00  0.00     0.052 C 
ATOM      8  C   UNL     1      15.259 -13.837   1.029  1.00  0.00     0.019 C 
ATOM      9  C   UNL     1      13.798 -11.355   1.419  1.00  0.00     0.189 C 
ATOM     10  C   UNL     1      15.127 -12.758  -0.045  1.00  0.00     0.087 C 
ATOM     11  N   UNL     1      13.880 -12.010   0.114  1.00  0.00    -0.276 NA
ATOM     12  O   UNL     1      12.559 -10.666   1.597  1.00  0.00    -0.360 OA
ATOM     13  C   UNL     1      13.698 -11.028  -0.961  1.00  0.00     0.121 C 
ATOM     14  C   UNL     1      12.315  -9.682   0.587  1.00  0.00     0.195 C 
BRANCH   6  15
ATOM     15  C   UNL     1      15.191 -14.333   3.483  1.00  0.00    -0.008 C 
ATOM     16  C   UNL     1      16.508 -14.892   3.969  1.00  0.00     0.004 C 
ATOM     17  C   UNL     1      15.669 -14.052   4.887  1.00  0.00     0.004 C 
ENDBRANCH   6  15
ENDBRANCH   4   5
ENDBRANCH   1   4
BRANCH   3  18
ATOM     18  C   UNL     1       7.573 -10.024  -0.715  1.00  0.00     0.053 C 
BRANCH  18  19
ATOM     19  C   UNL     1       6.619 -10.289   0.421  1.00  0.00     0.074 C 
BRANCH  19  20
ATOM     20  N   UNL     1       6.313 -11.450   0.898  1.00  0.00    -0.313 NA
ATOM     21  H   UNL     1       5.397 -11.437   1.369  1.00  0.00     0.186 HD
ENDBRANCH  19  20
ENDBRANCH  18  19
ENDBRANCH   3  18
TORSDOF 6
ENDMDL
MODEL 3
REMARK VINA RESULT:    -3.888      5.145      8.400
REMARK INTER + INTRA:          -5.361
REMARK INTER:                  -5.121
REMARK INTRA:                  -0.240
REMARK UNBOUND:                -0.223
REMARK SMILES [H]/N=C\C[C@H]1C[C@@H]1O[C@H]1CO[C@H]2C[C@@H](C3CC3)CCN2C1
REMARK SMILES IDX 7 1 6 2 5 3 8 4 9 5 14 6 13 7 18 8 12 9 19 10 20 11 11 12
REMARK SMILES IDX 21 13 10 14 15 15 16 16 17 17 4 18 3 19 2 20 1 21
REMARK H PARENT
ROOT
ATOM      1  C   UNL     1       9.628 -10.692  -2.271  1.00  0.00     0.122 C 
ATOM      2  C   UNL     1      10.796 -10.014  -1.610  1.00  0.00     0.039 C 
ATOM      3  C   UNL     1      10.063  -9.325  -2.726  1.00  0.00     0.026 C 
ENDROOT
BRANCH   1   4
ATOM      4  O   UNL     1       9.993 -11.799  -3.116  1.00  0.00    -0.371 OA
BRANCH   4   5
ATOM      5  C   UNL     1       8.997 -12.824  -3.260  1.00  0.00     0.158 C 
ATOM      6  C   UNL     1      10.909 -15.188  -7.497  1.00  0.00    -0.003 C 
ATOM      7  C   UNL     1      10.206 -13.857  -7.206  1.00  0.00     0.052 C 
ATOM      8  C   UNL     1      11.761 -15.588  -6.284  1.00  0.00     0.019 C 
ATOM      9  C   UNL     1       9.429 -13.901  -5.883  1.00  0.00     0.189 C 
ATOM     10  C   UNL     1      10.938 -15.579  -4.996  1.00  0.00     0.087 C 
ATOM     11  N   UNL     1      10.317 -14.273  -4.781  1.00  0.00    -0.276 NA
ATOM     12  O   UNL     1       8.861 -12.603  -5.699  1.00  0.00    -0.360 OA
ATOM     13  C   UNL     1       9.595 -14.221  -3.505  1.00  0.00     0.121 C 
ATOM     14  C   UNL     1       8.130 -12.479  -4.475  1.00  0.00     0.195 C 
BRANCH   6  15
ATOM     15  C   UNL     1      11.764 -15.103  -8.741  1.00  0.00    -0.008 C 
ATOM     16  C   UNL     1      11.800 -16.250  -9.724  1.00  0.00     0.004 C 
ATOM     17  C   UNL     1      11.134 -14.960 -10.105  1.00  0.00     0.004 C 
ENDBRANCH   6  15
ENDBRANCH   4   5
ENDBRANCH   1   4
BRANCH   3  18
ATOM     18  C   UNL     1       9.225  -8.122  -2.410  1.00  0.00     0.053 C 
BRANCH  18  19
ATOM     19  C   UNL     1       9.434  -6.916  -3.289  1.00  0.00     0.074 C 
BRANCH  19  20
ATOM     20  N   UNL     1      10.499  -6.651  -3.969  1.00  0.00    -0.313 NA
ATOM     21  H   UNL     1      10.766  -7.437  -4.579  1.00  0.00     0.186 HD
ENDBRANCH  19  20
ENDBRANCH  18  19
ENDBRANCH   3  18
TORSDOF 6
ENDMDL
MODEL 4
REMARK VINA RESULT:    -3.846      3.114      4.648
REMARK INTER + INTRA:          -5.307
REMARK INTER:                  -5.465
REMARK INTRA:                   0.159
REMARK UNBOUND:                -0.223
REMARK SMILES [H]/N=C\C[C@H]1C[C@@H]1O[C@H]1CO[C@H]2C[C@@H](C3CC3)CCN2C1
REMARK SMILES IDX 7 1 6 2 5 3 8 4 9 5 14 6 13 7 18 8 12 9 19 10 20 11 11 12
REMARK SMILES IDX 21 13 10 14 15 15 16 16 17 17 4 18 3 19 2 20 1 21
REMARK H PARENT
ROOT
ATOM      1  C   UNL     1       8.633 -12.918  -3.644  1.00  0.00     0.122 C 
ATOM      2  C   UNL     1       8.968 -13.053  -5.103  1.00  0.00     0.039 C 
ATOM      3  C   UNL     1       9.884 -13.638  -4.067  1.00  0.00     0.026 C 
ENDROOT
BRANCH   1   4
ATOM      4  O   UNL     1       8.801 -11.586  -3.124  1.00  0.00    -0.371 OA
BRANCH   4   5
ATOM      5  C   UNL     1       9.246 -11.505  -1.760  1.00  0.00     0.158 C 
ATOM      6  C   UNL     1       7.397  -6.765  -0.612  1.00  0.00    -0.003 C 
ATOM      7  C   UNL     1       8.541  -7.319  -1.470  1.00  0.00     0.052 C 
ATOM      8  C   UNL     1       6.228  -7.760  -0.620  1.00  0.00     0.019 C 
ATOM      9  C   UNL     1       8.929  -8.744  -1.050  1.00  0.00     0.189 C 
ATOM     10  C   UNL     1       6.687  -9.164  -0.228  1.00  0.00     0.087 C 
ATOM     11  N   UNL     1       7.764  -9.627  -1.103  1.00  0.00    -0.276 NA
ATOM     12  O   UNL     1       9.962  -9.165  -1.943  1.00  0.00    -0.360 OA
ATOM     13  C   UNL     1       8.156 -11.007  -0.794  1.00  0.00     0.121 C 
ATOM     14  C   UNL     1      10.404 -10.504  -1.696  1.00  0.00     0.195 C 
BRANCH   6  15
ATOM     15  C   UNL     1       6.943  -5.409  -1.102  1.00  0.00    -0.008 C 
ATOM     16  C   UNL     1       6.920  -4.225  -0.164  1.00  0.00     0.004 C 
ATOM     17  C   UNL     1       7.928  -4.279  -1.275  1.00  0.00     0.004 C 
ENDBRANCH   6  15
ENDBRANCH   4   5
ENDBRANCH   1   4
BRANCH   3  18
ATOM     18  C   UNL     1       9.978 -15.130  -3.940  1.00  0.00     0.053 C 
BRANCH  18  19
ATOM     19  C   UNL     1      11.343 -15.688  -3.634  1.00  0.00     0.074 C 
BRANCH  19  20
ATOM     20  N   UNL     1      11.755 -16.091  -2.479  1.00  0.00    -0.313 NA
ATOM     21  H   UNL     1      11.019 -16.008  -1.763  1.00  0.00     0.186 HD
ENDBRANCH  19  20
ENDBRANCH  18  19
ENDBRANCH   3  18
TORSDOF 6
ENDMDL
MODEL 5
REMARK VINA RESULT:    -3.796      3.199      5.432
REMARK INTER + INTRA:          -5.240
REMARK INTER:                  -4.971
REMARK INTRA:                  -0.268
REMARK UNBOUND:                -0.223
REMARK SMILES [H]/N=C\C[C@H]1C[C@@H]1O[C@H]1CO[C@H]2C[C@@H](C3CC3)CCN2C1
REMARK SMILES IDX 7 1 6 2 5 3 8 4 9 5 14 6 13 7 18 8 12 9 19 10 20 11 11 12
REMARK SMILES IDX 21 13 10 14 15 15 16 16 17 17 4 18 3 19 2 20 1 21
REMARK H PARENT
ROOT
ATOM      1  C   UNL     1       8.975 -12.767  -3.859  1.00  0.00     0.122 C 
ATOM      2  C   UNL     1       7.752 -12.897  -4.723  1.00  0.00     0.039 C 
ATOM      3  C   UNL     1       9.116 -12.878  -5.353  1.00  0.00     0.026 C 
ENDROOT
BRANCH   1   4
ATOM      4  O   UNL     1       9.156 -11.455  -3.291  1.00  0.00    -0.371 OA
BRANCH   4   5
ATOM      5  C   UNL     1       9.493 -11.426  -1.895  1.00  0.00     0.158 C 
ATOM      6  C   UNL     1       7.447  -6.783  -0.691  1.00  0.00    -0.003 C 
ATOM      7  C   UNL     1       8.666  -7.274  -1.480  1.00  0.00     0.052 C 
ATOM      8  C   UNL     1       6.306  -7.801  -0.833  1.00  0.00     0.019 C 
ATOM      9  C   UNL     1       9.055  -8.707  -1.093  1.00  0.00     0.189 C 
ATOM     10  C   UNL     1       6.768  -9.211  -0.466  1.00  0.00     0.087 C 
ATOM     11  N   UNL     1       7.920  -9.611  -1.275  1.00  0.00    -0.276 NA
ATOM     12  O   UNL     1      10.164  -9.067  -1.920  1.00  0.00    -0.360 OA
ATOM     13  C   UNL     1       8.321 -10.995  -0.996  1.00  0.00     0.121 C 
ATOM     14  C   UNL     1      10.618 -10.405  -1.698  1.00  0.00     0.195 C 
BRANCH   6  15
ATOM     15  C   UNL     1       6.998  -5.415  -1.156  1.00  0.00    -0.008 C 
ATOM     16  C   UNL     1       6.859  -4.281  -0.169  1.00  0.00     0.004 C 
ATOM     17  C   UNL     1       7.963  -4.254  -1.186  1.00  0.00     0.004 C 
ENDBRANCH   6  15
ENDBRANCH   4   5
ENDBRANCH   1   4
BRANCH   3  18
ATOM     18  C   UNL     1       9.648 -14.137  -5.970  1.00  0.00     0.053 C 
BRANCH  18  19
ATOM     19  C   UNL     1      10.330 -13.987  -7.305  1.00  0.00     0.074 C 
BRANCH  19  20
ATOM     20  N   UNL     1      11.604 -13.904  -7.500  1.00  0.00    -0.313 NA
ATOM     21  H   UNL     1      12.124 -14.557  -6.898  1.00  0.00     0.186 HD
ENDBRANCH  19  20
ENDBRANCH  18  19
ENDBRANCH   3  18
TORSDOF 6
ENDMDL
MODEL 6
REMARK VINA RESULT:    -3.774      6.552      7.963
REMARK INTER + INTRA:          -5.210
REMARK INTER:                  -5.083
REMARK INTRA:                  -0.127
REMARK UNBOUND:                -0.223
REMARK SMILES [H]/N=C\C[C@H]1C[C@@H]1O[C@H]1CO[C@H]2C[C@@H](C3CC3)CCN2C1
REMARK SMILES IDX 7 1 6 2 5 3 8 4 9 5 14 6 13 7 18 8 12 9 19 10 20 11 11 12
REMARK SMILES IDX 21 13 10 14 15 15 16 16 17 17 4 18 3 19 2 20 1 21
REMARK H PARENT
ROOT
ATOM      1  C   UNL     1      13.629 -16.315  -6.857  1.00  0.00     0.122 C 
ATOM      2  C   UNL     1      13.834 -15.186  -7.827  1.00  0.00     0.039 C 
ATOM      3  C   UNL     1      15.013 -15.788  -7.118  1.00  0.00     0.026 C 
ENDROOT
BRANCH   1   4
ATOM      4  O   UNL     1      13.011 -15.920  -5.617  1.00  0.00    -0.371 OA
BRANCH   4   5
ATOM      5  C   UNL     1      11.795 -16.609  -5.283  1.00  0.00     0.158 C 
ATOM      6  C   UNL     1       9.052 -12.541  -3.512  1.00  0.00    -0.003 C 
ATOM      7  C   UNL     1      10.240 -13.369  -3.006  1.00  0.00     0.052 C 
ATOM      8  C   UNL     1       9.097 -12.474  -5.045  1.00  0.00     0.019 C 
ATOM      9  C   UNL     1      10.312 -14.741  -3.690  1.00  0.00     0.189 C 
ATOM     10  C   UNL     1       9.202 -13.869  -5.662  1.00  0.00     0.087 C 
ATOM     11  N   UNL     1      10.368 -14.584  -5.144  1.00  0.00    -0.276 NA
ATOM     12  O   UNL     1      11.474 -15.394  -3.176  1.00  0.00    -0.360 OA
ATOM     13  C   UNL     1      10.533 -15.891  -5.790  1.00  0.00     0.121 C 
ATOM     14  C   UNL     1      11.695 -16.683  -3.756  1.00  0.00     0.195 C 
BRANCH   6  15
ATOM     15  C   UNL     1       9.053 -11.150  -2.920  1.00  0.00    -0.008 C 
ATOM     16  C   UNL     1       8.603 -10.926  -1.495  1.00  0.00     0.004 C 
ATOM     17  C   UNL     1      10.051 -10.763  -1.855  1.00  0.00     0.004 C 
ENDBRANCH   6  15
ENDBRANCH   4   5
ENDBRANCH   1   4
BRANCH   3  18
ATOM     18  C   UNL     1      15.996 -16.602  -7.905  1.00  0.00     0.053 C 
BRANCH  18  19
ATOM     19  C   UNL     1      17.446 -16.224  -7.754  1.00  0.00     0.074 C 
BRANCH  19  20
ATOM     20  N   UNL     1      17.985 -15.116  -8.142  1.00  0.00    -0.313 NA
ATOM     21  H   UNL     1      17.422 -14.656  -8.872  1.00  0.00     0.186 HD
ENDBRANCH  19  20
ENDBRANCH  18  19
ENDBRANCH   3  18
TORSDOF 6
ENDMDL
MODEL 7
REMARK VINA RESULT:    -3.710      5.263      8.401
REMARK INTER + INTRA:          -5.126
REMARK INTER:                  -4.507
REMARK INTRA:                  -0.619
REMARK UNBOUND:                -0.223
REMARK SMILES [H]/N=C\C[C@H]1C[C@@H]1O[C@H]1CO[C@H]2C[C@@H](C3CC3)CCN2C1
REMARK SMILES IDX 7 1 6 2 5 3 8 4 9 5 14 6 13 7 18 8 12 9 19 10 20 11 11 12
REMARK SMILES IDX 21 13 10 14 15 15 16 16 17 17 4 18 3 19 2 20 1 21
REMARK H PARENT
ROOT
ATOM      1  C   UNL     1      15.957 -16.658  -2.322  1.00  0.00     0.122 C 
ATOM      2  C   UNL     1      15.656 -18.129  -2.269  1.00  0.00     0.039 C 
ATOM      3  C   UNL     1      14.539 -17.132  -2.155  1.00  0.00     0.026 C 
ENDROOT
BRANCH   1   4
ATOM      4  O   UNL     1      16.609 -16.149  -1.143  1.00  0.00    -0.371 OA
BRANCH   4   5
ATOM      5  C   UNL     1      17.461 -15.011  -1.349  1.00  0.00     0.158 C 
ATOM      6  C   UNL     1      14.211 -11.287   0.317  1.00  0.00    -0.003 C 
ATOM      7  C   UNL     1      14.301 -12.196  -0.915  1.00  0.00     0.052 C 
ATOM      8  C   UNL     1      14.776 -12.028   1.537  1.00  0.00     0.019 C 
ATOM      9  C   UNL     1      15.720 -12.743  -1.117  1.00  0.00     0.189 C 
ATOM     10  C   UNL     1      16.176 -12.576   1.258  1.00  0.00     0.087 C 
ATOM     11  N   UNL     1      16.173 -13.447   0.083  1.00  0.00    -0.276 NA
ATOM     12  O   UNL     1      15.668 -13.604  -2.256  1.00  0.00    -0.360 OA
ATOM     13  C   UNL     1      17.490 -14.050  -0.147  1.00  0.00     0.121 C 
ATOM     14  C   UNL     1      16.924 -14.224  -2.548  1.00  0.00     0.195 C 
BRANCH   6  15
ATOM     15  C   UNL     1      12.789 -10.844   0.577  1.00  0.00    -0.008 C 
ATOM     16  C   UNL     1      12.410  -9.386   0.462  1.00  0.00     0.004 C 
ATOM     17  C   UNL     1      11.907 -10.371  -0.553  1.00  0.00     0.004 C 
ENDBRANCH   6  15
ENDBRANCH   4   5
ENDBRANCH   1   4
BRANCH   3  18
ATOM     18  C   UNL     1      13.561 -17.004  -3.285  1.00  0.00     0.053 C 
BRANCH  18  19
ATOM     19  C   UNL     1      12.615 -15.834  -3.218  1.00  0.00     0.074 C 
BRANCH  19  20
ATOM     20  N   UNL     1      12.906 -14.648  -2.798  1.00  0.00    -0.313 NA
ATOM     21  H   UNL     1      13.333 -14.076  -3.541  1.00  0.00     0.186 HD
ENDBRANCH  19  20
ENDBRANCH  18  19
ENDBRANCH   3  18
TORSDOF 6
ENDMDL
MODEL 8
REMARK VINA RESULT:    -3.686      6.363      8.000
REMARK INTER + INTRA:          -5.094
REMARK INTER:                  -4.477
REMARK INTRA:                  -0.617
REMARK UNBOUND:                -0.223
REMARK SMILES [H]/N=C\C[C@H]1C[C@@H]1O[C@H]1CO[C@H]2C[C@@H](C3CC3)CCN2C1
REMARK SMILES IDX 7 1 6 2 5 3 8 4 9 5 14 6 13 7 18 8 12 9 19 10 20 11 11 12
REMARK SMILES IDX 21 13 10 14 15 15 16 16 17 17 4 18 3 19 2 20 1 21
REMARK H PARENT
ROOT
ATOM      1  C   UNL     1      15.070 -17.050  -3.859  1.00  0.00     0.122 C 
ATOM      2  C   UNL     1      16.533 -16.878  -4.157  1.00  0.00     0.039 C 
ATOM      3  C   UNL     1      15.693 -15.682  -3.809  1.00  0.00     0.026 C 
ENDROOT
BRANCH   1   4
ATOM      4  O   UNL     1      14.267 -17.351  -5.017  1.00  0.00    -0.371 OA
BRANCH   4   5
ATOM      5  C   UNL     1      13.101 -18.155  -4.770  1.00  0.00     0.158 C 
ATOM      6  C   UNL     1       9.499 -14.387  -4.947  1.00  0.00    -0.003 C 
ATOM      7  C   UNL     1      10.601 -14.808  -3.967  1.00  0.00     0.052 C 
ATOM      8  C   UNL     1       9.944 -14.710  -6.380  1.00  0.00     0.019 C 
ATOM      9  C   UNL     1      11.024 -16.268  -4.177  1.00  0.00     0.189 C 
ATOM     10  C   UNL     1      10.384 -16.167  -6.514  1.00  0.00     0.087 C 
ATOM     11  N   UNL     1      11.448 -16.483  -5.561  1.00  0.00    -0.276 NA
ATOM     12  O   UNL     1      12.078 -16.526  -3.247  1.00  0.00    -0.360 OA
ATOM     13  C   UNL     1      11.941 -17.853  -5.735  1.00  0.00     0.121 C 
ATOM     14  C   UNL     1      12.605 -17.852  -3.353  1.00  0.00     0.195 C 
BRANCH   6  15
ATOM     15  C   UNL     1       9.167 -12.918  -4.812  1.00  0.00    -0.008 C 
ATOM     16  C   UNL     1       7.842 -12.485  -4.231  1.00  0.00     0.004 C 
ATOM     17  C   UNL     1       9.107 -12.260  -3.455  1.00  0.00     0.004 C 
ENDBRANCH   6  15
ENDBRANCH   4   5
ENDBRANCH   1   4
BRANCH   3  18
ATOM     18  C   UNL     1      15.912 -14.999  -2.493  1.00  0.00     0.053 C 
BRANCH  18  19
ATOM     19  C   UNL     1      14.855 -14.012  -2.071  1.00  0.00     0.074 C 
BRANCH  19  20
ATOM     20  N   UNL     1      13.613 -14.035  -2.423  1.00  0.00    -0.313 NA
ATOM     21  H   UNL     1      13.425 -13.383  -3.198  1.00  0.00     0.186 HD
ENDBRANCH  19  20
ENDBRANCH  18  19
ENDBRANCH   3  18
TORSDOF 6
ENDMDL
MODEL 9
REMARK VINA RESULT:    -3.672      5.723      7.176
REMARK INTER + INTRA:          -5.076
REMARK INTER:                  -4.681
REMARK INTRA:                  -0.396
REMARK UNBOUND:                -0.223
REMARK SMILES [H]/N=C\C[C@H]1C[C@@H]1O[C@H]1CO[C@H]2C[C@@H](C3CC3)CCN2C1
REMARK SMILES IDX 7 1 6 2 5 3 8 4 9 5 14 6 13 7 18 8 12 9 19 10 20 11 11 12
REMARK SMILES IDX 21 13 10 14 15 15 16 16 17 17 4 18 3 19 2 20 1 21
REMARK H PARENT
ROOT
ATOM      1  C   UNL     1      14.157 -16.889  -5.181  1.00  0.00     0.122 C 
ATOM      2  C   UNL     1      15.474 -16.455  -5.760  1.00  0.00     0.039 C 
ATOM      3  C   UNL     1      15.038 -15.937  -4.419  1.00  0.00     0.026 C 
ENDROOT
BRANCH   1   4
ATOM      4  O   UNL     1      13.009 -16.320  -5.840  1.00  0.00    -0.371 OA
BRANCH   4   5
ATOM      5  C   UNL     1      11.751 -16.948  -5.546  1.00  0.00     0.158 C 
ATOM      6  C   UNL     1       9.197 -12.774  -3.740  1.00  0.00    -0.003 C 
ATOM      7  C   UNL     1      10.327 -13.676  -3.228  1.00  0.00     0.052 C 
ATOM      8  C   UNL     1       9.278 -12.677  -5.269  1.00  0.00     0.019 C 
ATOM      9  C   UNL     1      10.338 -15.035  -3.942  1.00  0.00     0.189 C 
ATOM     10  C   UNL     1       9.320 -14.062  -5.915  1.00  0.00     0.087 C 
ATOM     11  N   UNL     1      10.434 -14.851  -5.390  1.00  0.00    -0.276 NA
ATOM     12  O   UNL     1      11.451 -15.762  -3.419  1.00  0.00    -0.360 OA
ATOM     13  C   UNL     1      10.540 -16.150  -6.062  1.00  0.00     0.121 C 
ATOM     14  C   UNL     1      11.614 -17.049  -4.023  1.00  0.00     0.195 C 
BRANCH   6  15
ATOM     15  C   UNL     1       9.261 -11.398  -3.116  1.00  0.00    -0.008 C 
ATOM     16  C   UNL     1       8.668 -11.150  -1.749  1.00  0.00     0.004 C 
ATOM     17  C   UNL     1      10.158 -11.126  -1.933  1.00  0.00     0.004 C 
ENDBRANCH   6  15
ENDBRANCH   4   5
ENDBRANCH   1   4
BRANCH   3  18
ATOM     18  C   UNL     1      15.764 -16.398  -3.191  1.00  0.00     0.053 C 
BRANCH  18  19
ATOM     19  C   UNL     1      15.039 -16.219  -1.882  1.00  0.00     0.074 C 
BRANCH  19  20
ATOM     20  N   UNL     1      13.821 -15.815  -1.740  1.00  0.00    -0.313 NA
ATOM     21  H   UNL     1      13.208 -16.570  -1.401  1.00  0.00     0.186 HD
ENDBRANCH  19  20
ENDBRANCH  18  19
ENDBRANCH   3  18
TORSDOF 6
ENDMDL
