MODEL 1
REMARK VINA RESULT:    -5.929      0.000      0.000
REMARK INTER + INTRA:          -7.334
REMARK INTER:                  -6.968
REMARK INTRA:                  -0.366
REMARK UNBOUND:                -0.366
REMARK SMILES Cc1ccc(CNC(=O)NC(=O)c2ccc(C)cc2)cc1
REMARK SMILES IDX 11 1 12 2 10 3 8 4 9 5 7 6 13 9 19 10 18 11 14 12 16 13
REMARK SMILES IDX 15 14 17 15 6 16 5 17 4 18 20 19 3 20 21 21 2 22 1 23
REMARK H PARENT 10 7 7 8
ROOT
ATOM      1  C   UNL     1       8.891  -9.460  -1.378  1.00  0.00     0.259 C 
ATOM      2  O   UNL     1       9.736  -8.841  -0.748  1.00  0.00    -0.269 OA
ATOM      3  N   UNL     1       9.052 -10.595  -2.180  1.00  0.00    -0.274 N 
ATOM      4  C   UNL     1      10.011 -11.550  -2.402  1.00  0.00     0.321 C 
ATOM      5  O   UNL     1       9.710 -12.508  -3.122  1.00  0.00    -0.248 OA
ATOM      6  N   UNL     1      11.240 -11.512  -1.855  1.00  0.00    -0.334 N 
ATOM      7  H   UNL     1       8.202 -10.918  -2.621  1.00  0.00     0.175 HD
ATOM      8  H   UNL     1      11.796 -12.333  -2.048  1.00  0.00     0.165 HD
ENDROOT
BRANCH   1   9
ATOM      9  C   UNL     1       7.505  -8.961  -1.290  1.00  0.00     0.040 A 
ATOM     10  C   UNL     1       6.945  -8.184  -2.305  1.00  0.00     0.014 A 
ATOM     11  C   UNL     1       5.613  -7.779  -2.201  1.00  0.00     0.004 A 
ATOM     12  C   UNL     1       6.762  -9.285  -0.150  1.00  0.00     0.014 A 
ATOM     13  C   UNL     1       4.844  -8.142  -1.086  1.00  0.00    -0.051 A 
ATOM     14  C   UNL     1       5.431  -8.884  -0.054  1.00  0.00     0.004 A 
ATOM     15  C   UNL     1       3.391  -7.772  -1.029  1.00  0.00     0.044 C 
ENDBRANCH   1   9
BRANCH   6  16
ATOM     16  C   UNL     1      11.753 -10.553  -0.917  1.00  0.00     0.153 C 
BRANCH  16  17
ATOM     17  C   UNL     1      12.992 -10.930  -0.154  1.00  0.00    -0.029 A 
ATOM     18  C   UNL     1      13.081 -10.858   1.240  1.00  0.00     0.006 A 
ATOM     19  C   UNL     1      14.016 -11.574  -0.867  1.00  0.00     0.006 A 
ATOM     20  C   UNL     1      14.165 -11.445   1.903  1.00  0.00     0.004 A 
ATOM     21  C   UNL     1      15.090 -12.162  -0.206  1.00  0.00     0.004 A 
ATOM     22  C   UNL     1      15.169 -12.111   1.187  1.00  0.00    -0.051 A 
ATOM     23  C   UNL     1      16.254 -12.863   1.897  1.00  0.00     0.044 C 
ENDBRANCH  16  17
ENDBRANCH   6  16
TORSDOF 3
ENDMDL
MODEL 2
REMARK VINA RESULT:    -5.919      3.277      5.545
REMARK INTER + INTRA:          -7.323
REMARK INTER:                  -6.957
REMARK INTRA:                  -0.366
REMARK UNBOUND:                -0.366
REMARK SMILES Cc1ccc(CNC(=O)NC(=O)c2ccc(C)cc2)cc1
REMARK SMILES IDX 11 1 12 2 10 3 8 4 9 5 7 6 13 9 19 10 18 11 14 12 16 13
REMARK SMILES IDX 15 14 17 15 6 16 5 17 4 18 20 19 3 20 21 21 2 22 1 23
REMARK H PARENT 10 7 7 8
ROOT
ATOM      1  C   UNL     1       8.708  -9.515  -1.860  1.00  0.00     0.259 C 
ATOM      2  O   UNL     1       7.877 -10.165  -2.479  1.00  0.00    -0.269 OA
ATOM      3  N   UNL     1       9.960  -9.919  -1.386  1.00  0.00    -0.274 N 
ATOM      4  C   UNL     1      10.825 -10.966  -1.575  1.00  0.00     0.321 C 
ATOM      5  O   UNL     1      11.941 -10.890  -1.050  1.00  0.00    -0.248 OA
ATOM      6  N   UNL     1      10.533 -12.048  -2.321  1.00  0.00    -0.334 N 
ATOM      7  H   UNL     1      10.464  -9.205  -0.878  1.00  0.00     0.175 HD
ATOM      8  H   UNL     1      11.307 -12.687  -2.430  1.00  0.00     0.165 HD
ENDROOT
BRANCH   1   9
ATOM      9  C   UNL     1       8.363  -8.110  -1.568  1.00  0.00     0.040 A 
ATOM     10  C   UNL     1       7.849  -7.730  -0.327  1.00  0.00     0.014 A 
ATOM     11  C   UNL     1       7.587  -6.382  -0.079  1.00  0.00     0.004 A 
ATOM     12  C   UNL     1       8.559  -7.162  -2.577  1.00  0.00     0.014 A 
ATOM     13  C   UNL     1       7.830  -5.416  -1.067  1.00  0.00    -0.051 A 
ATOM     14  C   UNL     1       8.303  -5.816  -2.323  1.00  0.00     0.004 A 
ATOM     15  C   UNL     1       7.624  -3.963  -0.757  1.00  0.00     0.044 C 
ENDBRANCH   1   9
BRANCH   6  16
ATOM     16  C   UNL     1       9.346 -12.285  -3.093  1.00  0.00     0.153 C 
BRANCH  16  17
ATOM     17  C   UNL     1       9.414 -13.347  -4.155  1.00  0.00    -0.029 A 
ATOM     18  C   UNL     1       9.079 -13.112  -5.492  1.00  0.00     0.006 A 
ATOM     19  C   UNL     1      10.041 -14.557  -3.815  1.00  0.00     0.006 A 
ATOM     20  C   UNL     1       9.391 -14.062  -6.470  1.00  0.00     0.004 A 
ATOM     21  C   UNL     1      10.355 -15.500  -4.789  1.00  0.00     0.004 A 
ATOM     22  C   UNL     1      10.042 -15.256  -6.127  1.00  0.00    -0.051 A 
ATOM     23  C   UNL     1      10.506 -16.213  -7.184  1.00  0.00     0.044 C 
ENDBRANCH  16  17
ENDBRANCH   6  16
TORSDOF 3
ENDMDL
MODEL 3
REMARK VINA RESULT:    -5.899      0.528      8.077
REMARK INTER + INTRA:          -7.299
REMARK INTER:                  -6.821
REMARK INTRA:                  -0.478
REMARK UNBOUND:                -0.366
REMARK SMILES Cc1ccc(CNC(=O)NC(=O)c2ccc(C)cc2)cc1
REMARK SMILES IDX 11 1 12 2 10 3 8 4 9 5 7 6 13 9 19 10 18 11 14 12 16 13
REMARK SMILES IDX 15 14 17 15 6 16 5 17 4 18 20 19 3 20 21 21 2 22 1 23
REMARK H PARENT 10 7 7 8
ROOT
ATOM      1  C   UNL     1      11.482 -10.577  -0.647  1.00  0.00     0.259 C 
ATOM      2  O   UNL     1      11.024  -9.518  -0.241  1.00  0.00    -0.269 OA
ATOM      3  N   UNL     1      10.956 -11.448  -1.606  1.00  0.00    -0.274 N 
ATOM      4  C   UNL     1       9.984 -11.423  -2.573  1.00  0.00     0.321 C 
ATOM      5  O   UNL     1       9.910 -12.392  -3.337  1.00  0.00    -0.248 OA
ATOM      6  N   UNL     1       9.137 -10.393  -2.750  1.00  0.00    -0.334 N 
ATOM      7  H   UNL     1      11.509 -12.281  -1.761  1.00  0.00     0.175 HD
ATOM      8  H   UNL     1       8.540 -10.491  -3.558  1.00  0.00     0.165 HD
ENDROOT
BRANCH   1   9
ATOM      9  C   UNL     1      12.767 -11.008  -0.062  1.00  0.00     0.040 A 
ATOM     10  C   UNL     1      13.008 -10.919   1.310  1.00  0.00     0.014 A 
ATOM     11  C   UNL     1      14.217 -11.389   1.823  1.00  0.00     0.004 A 
ATOM     12  C   UNL     1      13.747 -11.506  -0.926  1.00  0.00     0.014 A 
ATOM     13  C   UNL     1      15.187 -11.938   0.972  1.00  0.00    -0.051 A 
ATOM     14  C   UNL     1      14.951 -11.980  -0.408  1.00  0.00     0.004 A 
ATOM     15  C   UNL     1      16.446 -12.516   1.548  1.00  0.00     0.044 C 
ENDBRANCH   1   9
BRANCH   6  16
ATOM     16  C   UNL     1       9.121  -9.141  -2.047  1.00  0.00     0.153 C 
BRANCH  16  17
ATOM     17  C   UNL     1       7.779  -8.588  -1.652  1.00  0.00    -0.029 A 
ATOM     18  C   UNL     1       7.048  -7.710  -2.458  1.00  0.00     0.006 A 
ATOM     19  C   UNL     1       7.159  -9.151  -0.525  1.00  0.00     0.006 A 
ATOM     20  C   UNL     1       5.713  -7.424  -2.151  1.00  0.00     0.004 A 
ATOM     21  C   UNL     1       5.830  -8.870  -0.223  1.00  0.00     0.004 A 
ATOM     22  C   UNL     1       5.092  -8.011  -1.039  1.00  0.00    -0.051 A 
ATOM     23  C   UNL     1       3.627  -7.823  -0.785  1.00  0.00     0.044 C 
ENDBRANCH  16  17
ENDBRANCH   6  16
TORSDOF 3
ENDMDL
MODEL 4
REMARK VINA RESULT:    -5.877      3.167      7.356
REMARK INTER + INTRA:          -7.273
REMARK INTER:                  -6.794
REMARK INTRA:                  -0.479
REMARK UNBOUND:                -0.366
REMARK SMILES Cc1ccc(CNC(=O)NC(=O)c2ccc(C)cc2)cc1
REMARK SMILES IDX 11 1 12 2 10 3 8 4 9 5 7 6 13 9 19 10 18 11 14 12 16 13
REMARK SMILES IDX 15 14 17 15 6 16 5 17 4 18 20 19 3 20 21 21 2 22 1 23
REMARK H PARENT 10 7 7 8
ROOT
ATOM      1  C   UNL     1       9.354 -11.956  -3.323  1.00  0.00     0.259 C 
ATOM      2  O   UNL     1       8.299 -11.342  -3.391  1.00  0.00    -0.269 OA
ATOM      3  N   UNL     1      10.453 -11.719  -2.491  1.00  0.00    -0.274 N 
ATOM      4  C   UNL     1      10.734 -10.983  -1.368  1.00  0.00     0.321 C 
ATOM      5  O   UNL     1      11.835 -11.151  -0.833  1.00  0.00    -0.248 OA
ATOM      6  N   UNL     1       9.867 -10.120  -0.808  1.00  0.00    -0.334 N 
ATOM      7  H   UNL     1      11.228 -12.353  -2.632  1.00  0.00     0.175 HD
ATOM      8  H   UNL     1      10.192  -9.723   0.062  1.00  0.00     0.165 HD
ENDROOT
BRANCH   1   9
ATOM      9  C   UNL     1       9.507 -13.110  -4.229  1.00  0.00     0.040 A 
ATOM     10  C   UNL     1       9.129 -13.037  -5.571  1.00  0.00     0.014 A 
ATOM     11  C   UNL     1       9.340 -14.137  -6.403  1.00  0.00     0.004 A 
ATOM     12  C   UNL     1      10.038 -14.293  -3.704  1.00  0.00     0.014 A 
ATOM     13  C   UNL     1       9.920 -15.310  -5.897  1.00  0.00    -0.051 A 
ATOM     14  C   UNL     1      10.253 -15.387  -4.540  1.00  0.00     0.004 A 
ATOM     15  C   UNL     1      10.219 -16.453  -6.822  1.00  0.00     0.044 C 
ENDBRANCH   1   9
BRANCH   6  16
ATOM     16  C   UNL     1       8.513  -9.856  -1.206  1.00  0.00     0.153 C 
BRANCH  16  17
ATOM     17  C   UNL     1       8.059  -8.423  -1.203  1.00  0.00    -0.029 A 
ATOM     18  C   UNL     1       7.450  -7.817  -0.100  1.00  0.00     0.006 A 
ATOM     19  C   UNL     1       8.462  -7.619  -2.282  1.00  0.00     0.006 A 
ATOM     20  C   UNL     1       7.272  -6.429  -0.073  1.00  0.00     0.004 A 
ATOM     21  C   UNL     1       8.289  -6.239  -2.252  1.00  0.00     0.004 A 
ATOM     22  C   UNL     1       7.701  -5.630  -1.141  1.00  0.00    -0.051 A 
ATOM     23  C   UNL     1       7.645  -4.134  -1.058  1.00  0.00     0.044 C 
ENDBRANCH  16  17
ENDBRANCH   6  16
TORSDOF 3
ENDMDL
MODEL 5
REMARK VINA RESULT:    -5.781      1.226      8.067
REMARK INTER + INTRA:          -7.161
REMARK INTER:                  -6.714
REMARK INTRA:                  -0.447
REMARK UNBOUND:                -0.366
REMARK SMILES Cc1ccc(CNC(=O)NC(=O)c2ccc(C)cc2)cc1
REMARK SMILES IDX 11 1 12 2 10 3 8 4 9 5 7 6 13 9 19 10 18 11 14 12 16 13
REMARK SMILES IDX 15 14 17 15 6 16 5 17 4 18 20 19 3 20 21 21 2 22 1 23
REMARK H PARENT 10 7 7 8
ROOT
ATOM      1  C   UNL     1      11.637 -10.412  -0.584  1.00  0.00     0.259 C 
ATOM      2  O   UNL     1      11.343  -9.275  -0.244  1.00  0.00    -0.269 OA
ATOM      3  N   UNL     1      10.938 -11.283  -1.426  1.00  0.00    -0.274 N 
ATOM      4  C   UNL     1       9.906 -11.210  -2.327  1.00  0.00     0.321 C 
ATOM      5  O   UNL     1       9.657 -12.219  -2.996  1.00  0.00    -0.248 OA
ATOM      6  N   UNL     1       9.179 -10.097  -2.538  1.00  0.00    -0.334 N 
ATOM      7  H   UNL     1      11.372 -12.189  -1.543  1.00  0.00     0.175 HD
ATOM      8  H   UNL     1       8.515 -10.183  -3.294  1.00  0.00     0.165 HD
ENDROOT
BRANCH   1   9
ATOM      9  C   UNL     1      12.900 -10.956  -0.048  1.00  0.00     0.040 A 
ATOM     10  C   UNL     1      13.180 -10.933   1.319  1.00  0.00     0.014 A 
ATOM     11  C   UNL     1      14.364 -11.507   1.784  1.00  0.00     0.004 A 
ATOM     12  C   UNL     1      13.820 -11.495  -0.954  1.00  0.00     0.014 A 
ATOM     13  C   UNL     1      15.270 -12.096   0.889  1.00  0.00    -0.051 A 
ATOM     14  C   UNL     1      14.997 -12.073  -0.484  1.00  0.00     0.004 A 
ATOM     15  C   UNL     1      16.496 -12.784   1.413  1.00  0.00     0.044 C 
ENDBRANCH   1   9
BRANCH   6  16
ATOM     16  C   UNL     1       9.369  -8.802  -1.949  1.00  0.00     0.153 C 
BRANCH  16  17
ATOM     17  C   UNL     1       8.141  -8.069  -1.485  1.00  0.00    -0.029 A 
ATOM     18  C   UNL     1       8.112  -7.287  -0.325  1.00  0.00     0.006 A 
ATOM     19  C   UNL     1       7.055  -8.007  -2.373  1.00  0.00     0.006 A 
ATOM     20  C   UNL     1       7.024  -6.443  -0.078  1.00  0.00     0.004 A 
ATOM     21  C   UNL     1       5.976  -7.163  -2.128  1.00  0.00     0.004 A 
ATOM     22  C   UNL     1       5.956  -6.366  -0.982  1.00  0.00    -0.051 A 
ATOM     23  C   UNL     1       4.858  -5.361  -0.797  1.00  0.00     0.044 C 
ENDBRANCH  16  17
ENDBRANCH   6  16
TORSDOF 3
ENDMDL
MODEL 6
REMARK VINA RESULT:    -5.089      5.439     10.822
REMARK INTER + INTRA:          -6.348
REMARK INTER:                  -5.858
REMARK INTRA:                  -0.490
REMARK UNBOUND:                -0.366
REMARK SMILES Cc1ccc(CNC(=O)NC(=O)c2ccc(C)cc2)cc1
REMARK SMILES IDX 11 1 12 2 10 3 8 4 9 5 7 6 13 9 19 10 18 11 14 12 16 13
REMARK SMILES IDX 15 14 17 15 6 16 5 17 4 18 20 19 3 20 21 21 2 22 1 23
REMARK H PARENT 10 7 7 8
ROOT
ATOM      1  C   UNL     1      16.826 -14.613   3.937  1.00  0.00     0.259 C 
ATOM      2  O   UNL     1      16.372 -14.975   2.861  1.00  0.00    -0.269 OA
ATOM      3  N   UNL     1      17.399 -13.383   4.276  1.00  0.00    -0.274 N 
ATOM      4  C   UNL     1      17.480 -12.122   3.744  1.00  0.00     0.321 C 
ATOM      5  O   UNL     1      17.985 -11.236   4.442  1.00  0.00    -0.248 OA
ATOM      6  N   UNL     1      17.015 -11.798   2.523  1.00  0.00    -0.334 N 
ATOM      7  H   UNL     1      17.726 -13.325   5.232  1.00  0.00     0.175 HD
ATOM      8  H   UNL     1      17.073 -10.812   2.315  1.00  0.00     0.165 HD
ENDROOT
BRANCH   1   9
ATOM      9  C   UNL     1      16.765 -15.589   5.042  1.00  0.00     0.040 A 
ATOM     10  C   UNL     1      17.231 -16.896   4.885  1.00  0.00     0.014 A 
ATOM     11  C   UNL     1      17.202 -17.768   5.974  1.00  0.00     0.004 A 
ATOM     12  C   UNL     1      16.218 -15.171   6.259  1.00  0.00     0.014 A 
ATOM     13  C   UNL     1      16.702 -17.342   7.214  1.00  0.00    -0.051 A 
ATOM     14  C   UNL     1      16.197 -16.043   7.346  1.00  0.00     0.004 A 
ATOM     15  C   UNL     1      16.756 -18.264   8.397  1.00  0.00     0.044 C 
ENDBRANCH   1   9
BRANCH   6  16
ATOM     16  C   UNL     1      16.308 -12.643   1.603  1.00  0.00     0.153 C 
BRANCH  16  17
ATOM     17  C   UNL     1      14.991 -12.143   1.079  1.00  0.00    -0.029 A 
ATOM     18  C   UNL     1      14.018 -11.555   1.894  1.00  0.00     0.006 A 
ATOM     19  C   UNL     1      14.835 -12.080  -0.316  1.00  0.00     0.006 A 
ATOM     20  C   UNL     1      12.927 -10.896   1.318  1.00  0.00     0.004 A 
ATOM     21  C   UNL     1      13.752 -11.420  -0.887  1.00  0.00     0.004 A 
ATOM     22  C   UNL     1      12.793 -10.813  -0.074  1.00  0.00    -0.051 A 
ATOM     23  C   UNL     1      11.706  -9.989  -0.698  1.00  0.00     0.044 C 
ENDBRANCH  16  17
ENDBRANCH   6  16
TORSDOF 3
ENDMDL
MODEL 7
REMARK VINA RESULT:    -4.463      2.227      3.823
REMARK INTER + INTRA:          -5.611
REMARK INTER:                  -5.165
REMARK INTRA:                  -0.446
REMARK UNBOUND:                -0.366
REMARK SMILES Cc1ccc(CNC(=O)NC(=O)c2ccc(C)cc2)cc1
REMARK SMILES IDX 11 1 12 2 10 3 8 4 9 5 7 6 13 9 19 10 18 11 14 12 16 13
REMARK SMILES IDX 15 14 17 15 6 16 5 17 4 18 20 19 3 20 21 21 2 22 1 23
REMARK H PARENT 10 7 7 8
ROOT
ATOM      1  C   UNL     1      12.045 -10.544  -0.546  1.00  0.00     0.259 C 
ATOM      2  O   UNL     1      12.457 -10.018   0.478  1.00  0.00    -0.269 OA
ATOM      3  N   UNL     1      12.669 -11.502  -1.351  1.00  0.00    -0.274 N 
ATOM      4  C   UNL     1      13.737 -12.359  -1.263  1.00  0.00     0.321 C 
ATOM      5  O   UNL     1      13.891 -13.178  -2.175  1.00  0.00    -0.248 OA
ATOM      6  N   UNL     1      14.598 -12.371  -0.229  1.00  0.00    -0.334 N 
ATOM      7  H   UNL     1      12.136 -11.774  -2.166  1.00  0.00     0.175 HD
ATOM      8  H   UNL     1      15.277 -13.118  -0.274  1.00  0.00     0.165 HD
ENDROOT
BRANCH   1   9
ATOM      9  C   UNL     1      10.706 -10.129  -1.009  1.00  0.00     0.040 A 
ATOM     10  C   UNL     1       9.553 -10.797  -0.594  1.00  0.00     0.014 A 
ATOM     11  C   UNL     1       8.306 -10.335  -1.016  1.00  0.00     0.004 A 
ATOM     12  C   UNL     1      10.623  -9.045  -1.889  1.00  0.00     0.014 A 
ATOM     13  C   UNL     1       8.208  -9.216  -1.857  1.00  0.00    -0.051 A 
ATOM     14  C   UNL     1       9.375  -8.584  -2.303  1.00  0.00     0.004 A 
ATOM     15  C   UNL     1       6.858  -8.681  -2.234  1.00  0.00     0.044 C 
ENDBRANCH   1   9
BRANCH   6  16
ATOM     16  C   UNL     1      14.539 -11.583   0.969  1.00  0.00     0.153 C 
BRANCH  16  17
ATOM     17  C   UNL     1      14.803 -12.286   2.272  1.00  0.00    -0.029 A 
ATOM     18  C   UNL     1      13.924 -13.222   2.826  1.00  0.00     0.006 A 
ATOM     19  C   UNL     1      16.083 -12.143   2.832  1.00  0.00     0.006 A 
ATOM     20  C   UNL     1      14.333 -14.014   3.905  1.00  0.00     0.004 A 
ATOM     21  C   UNL     1      16.490 -12.934   3.902  1.00  0.00     0.004 A 
ATOM     22  C   UNL     1      15.622 -13.884   4.441  1.00  0.00    -0.051 A 
ATOM     23  C   UNL     1      16.115 -14.824   5.500  1.00  0.00     0.044 C 
ENDBRANCH  16  17
ENDBRANCH   6  16
TORSDOF 3
ENDMDL
MODEL 8
REMARK VINA RESULT:    -4.443      5.300     10.613
REMARK INTER + INTRA:          -5.588
REMARK INTER:                  -5.083
REMARK INTRA:                  -0.505
REMARK UNBOUND:                -0.366
REMARK SMILES Cc1ccc(CNC(=O)NC(=O)c2ccc(C)cc2)cc1
REMARK SMILES IDX 11 1 12 2 10 3 8 4 9 5 7 6 13 9 19 10 18 11 14 12 16 13
REMARK SMILES IDX 15 14 17 15 6 16 5 17 4 18 20 19 3 20 21 21 2 22 1 23
REMARK H PARENT 10 7 7 8
ROOT
ATOM      1  C   UNL     1      16.048 -15.290   3.725  1.00  0.00     0.259 C 
ATOM      2  O   UNL     1      16.150 -14.072   3.687  1.00  0.00    -0.269 OA
ATOM      3  N   UNL     1      15.693 -16.171   2.699  1.00  0.00    -0.274 N 
ATOM      4  C   UNL     1      15.566 -16.138   1.334  1.00  0.00     0.321 C 
ATOM      5  O   UNL     1      15.351 -17.206   0.752  1.00  0.00    -0.248 OA
ATOM      6  N   UNL     1      15.693 -15.016   0.601  1.00  0.00    -0.334 N 
ATOM      7  H   UNL     1      15.655 -17.142   2.978  1.00  0.00     0.175 HD
ATOM      8  H   UNL     1      15.657 -15.174  -0.395  1.00  0.00     0.165 HD
ENDROOT
BRANCH   1   9
ATOM      9  C   UNL     1      16.340 -15.937   5.019  1.00  0.00     0.040 A 
ATOM     10  C   UNL     1      15.989 -15.336   6.229  1.00  0.00     0.014 A 
ATOM     11  C   UNL     1      16.237 -16.011   7.425  1.00  0.00     0.004 A 
ATOM     12  C   UNL     1      16.988 -17.176   5.002  1.00  0.00     0.014 A 
ATOM     13  C   UNL     1      16.841 -17.277   7.416  1.00  0.00    -0.051 A 
ATOM     14  C   UNL     1      17.229 -17.849   6.198  1.00  0.00     0.004 A 
ATOM     15  C   UNL     1      17.024 -18.026   8.703  1.00  0.00     0.044 C 
ENDBRANCH   1   9
BRANCH   6  16
ATOM     16  C   UNL     1      16.042 -13.702   1.065  1.00  0.00     0.153 C 
BRANCH  16  17
ATOM     17  C   UNL     1      15.132 -12.570   0.676  1.00  0.00    -0.029 A 
ATOM     18  C   UNL     1      14.880 -12.214  -0.653  1.00  0.00     0.006 A 
ATOM     19  C   UNL     1      14.352 -11.994   1.692  1.00  0.00     0.006 A 
ATOM     20  C   UNL     1      13.848 -11.319  -0.955  1.00  0.00     0.004 A 
ATOM     21  C   UNL     1      13.323 -11.107   1.390  1.00  0.00     0.004 A 
ATOM     22  C   UNL     1      13.056 -10.770   0.062  1.00  0.00    -0.051 A 
ATOM     23  C   UNL     1      11.861  -9.924  -0.262  1.00  0.00     0.044 C 
ENDBRANCH  16  17
ENDBRANCH   6  16
TORSDOF 3
ENDMDL
MODEL 9
REMARK VINA RESULT:    -4.408      4.839      7.192
REMARK INTER + INTRA:          -5.547
REMARK INTER:                  -5.110
REMARK INTRA:                  -0.437
REMARK UNBOUND:                -0.366
REMARK SMILES Cc1ccc(CNC(=O)NC(=O)c2ccc(C)cc2)cc1
REMARK SMILES IDX 11 1 12 2 10 3 8 4 9 5 7 6 13 9 19 10 18 11 14 12 16 13
REMARK SMILES IDX 15 14 17 15 6 16 5 17 4 18 20 19 3 20 21 21 2 22 1 23
REMARK H PARENT 10 7 7 8
ROOT
ATOM      1  C   UNL     1       9.214 -12.504  -3.593  1.00  0.00     0.259 C 
ATOM      2  O   UNL     1       8.505 -12.566  -4.588  1.00  0.00    -0.269 OA
ATOM      3  N   UNL     1      10.146 -13.434  -3.124  1.00  0.00    -0.274 N 
ATOM      4  C   UNL     1      10.797 -14.544  -3.598  1.00  0.00     0.321 C 
ATOM      5  O   UNL     1      11.684 -15.034  -2.891  1.00  0.00    -0.248 OA
ATOM      6  N   UNL     1      10.540 -15.103  -4.795  1.00  0.00    -0.334 N 
ATOM      7  H   UNL     1      10.600 -13.170  -2.259  1.00  0.00     0.175 HD
ATOM      8  H   UNL     1      11.163 -15.861  -5.033  1.00  0.00     0.165 HD
ENDROOT
BRANCH   1   9
ATOM      9  C   UNL     1       9.086 -11.289  -2.766  1.00  0.00     0.040 A 
ATOM     10  C   UNL     1       9.805 -10.129  -3.060  1.00  0.00     0.014 A 
ATOM     11  C   UNL     1       9.612  -8.988  -2.280  1.00  0.00     0.004 A 
ATOM     12  C   UNL     1       8.224 -11.331  -1.665  1.00  0.00     0.014 A 
ATOM     13  C   UNL     1       8.711  -9.005  -1.205  1.00  0.00    -0.051 A 
ATOM     14  C   UNL     1       8.030 -10.188  -0.893  1.00  0.00     0.004 A 
ATOM     15  C   UNL     1       8.451  -7.747  -0.429  1.00  0.00     0.044 C 
ENDBRANCH   1   9
BRANCH   6  16
ATOM     16  C   UNL     1       9.631 -14.634  -5.804  1.00  0.00     0.153 C 
BRANCH  16  17
ATOM     17  C   UNL     1      10.098 -14.688  -7.232  1.00  0.00    -0.029 A 
ATOM     18  C   UNL     1      11.061 -13.817  -7.753  1.00  0.00     0.006 A 
ATOM     19  C   UNL     1       9.698 -15.794  -7.998  1.00  0.00     0.006 A 
ATOM     20  C   UNL     1      11.626 -14.069  -9.008  1.00  0.00     0.004 A 
ATOM     21  C   UNL     1      10.264 -16.046  -9.244  1.00  0.00     0.004 A 
ATOM     22  C   UNL     1      11.241 -15.190  -9.756  1.00  0.00    -0.051 A 
ATOM     23  C   UNL     1      11.942 -15.544 -11.033  1.00  0.00     0.044 C 
ENDBRANCH  16  17
ENDBRANCH   6  16
TORSDOF 3
ENDMDL
