MODEL 1
REMARK VINA RESULT:    -4.326      0.000      0.000
REMARK INTER + INTRA:          -5.956
REMARK INTER:                  -5.717
REMARK INTRA:                  -0.239
REMARK UNBOUND:                -0.239
REMARK SMILES [H]/N=C\C[C@H]1C[C@@H]1O[C@H]1CO[C@H]2C[C@@H](C3CC3)CCN2C1
REMARK SMILES IDX 7 1 6 2 5 3 8 4 9 5 14 6 13 7 18 8 12 9 19 10 20 11 11 12
REMARK SMILES IDX 21 13 10 14 15 15 16 16 17 17 4 18 3 19 2 20 1 21
REMARK H PARENT
ROOT
ATOM      1  C   UNL     1      12.673   5.383   5.321  1.00  0.00     0.122 C 
ATOM      2  C   UNL     1      13.966   5.863   4.724  1.00  0.00     0.039 C 
ATOM      3  C   UNL     1      12.774   6.777   4.764  1.00  0.00     0.026 C 
ENDROOT
BRANCH   1   4
ATOM      4  O   UNL     1      11.977   4.415   4.513  1.00  0.00    -0.371 OA
BRANCH   4   5
ATOM      5  C   UNL     1      12.528   3.088   4.524  1.00  0.00     0.158 C 
ATOM      6  C   UNL     1       8.072   0.390   4.779  1.00  0.00    -0.003 C 
ATOM      7  C   UNL     1       8.882   1.266   5.742  1.00  0.00     0.052 C 
ATOM      8  C   UNL     1       8.249   0.914   3.346  1.00  0.00     0.019 C 
ATOM      9  C   UNL     1      10.346   1.396   5.300  1.00  0.00     0.189 C 
ATOM     10  C   UNL     1       9.726   1.053   2.981  1.00  0.00     0.087 C 
ATOM     11  N   UNL     1      10.422   1.916   3.935  1.00  0.00    -0.276 NA
ATOM     12  O   UNL     1      10.981   2.264   6.241  1.00  0.00    -0.360 OA
ATOM     13  C   UNL     1      11.822   2.130   3.549  1.00  0.00     0.121 C 
ATOM     14  C   UNL     1      12.356   2.513   5.934  1.00  0.00     0.195 C 
BRANCH   6  15
ATOM     15  C   UNL     1       6.608   0.359   5.155  1.00  0.00    -0.008 C 
ATOM     16  C   UNL     1       5.866  -0.955   5.229  1.00  0.00     0.004 C 
ATOM     17  C   UNL     1       6.163  -0.193   6.488  1.00  0.00     0.004 C 
ENDBRANCH   6  15
ENDBRANCH   4   5
ENDBRANCH   1   4
BRANCH   3  18
ATOM     18  C   UNL     1      12.796   7.960   5.685  1.00  0.00     0.053 C 
BRANCH  18  19
ATOM     19  C   UNL     1      13.986   8.876   5.565  1.00  0.00     0.074 C 
BRANCH  19  20
ATOM     20  N   UNL     1      14.106   9.857   4.734  1.00  0.00    -0.313 NA
ATOM     21  H   UNL     1      14.335   9.525   3.786  1.00  0.00     0.186 HD
ENDBRANCH  19  20
ENDBRANCH  18  19
ENDBRANCH   3  18
TORSDOF 6
ENDMDL
MODEL 2
REMARK VINA RESULT:    -4.317      3.320      5.598
REMARK INTER + INTRA:          -5.944
REMARK INTER:                  -5.736
REMARK INTRA:                  -0.207
REMARK UNBOUND:                -0.239
REMARK SMILES [H]/N=C\C[C@H]1C[C@@H]1O[C@H]1CO[C@H]2C[C@@H](C3CC3)CCN2C1
REMARK SMILES IDX 7 1 6 2 5 3 8 4 9 5 14 6 13 7 18 8 12 9 19 10 20 11 11 12
REMARK SMILES IDX 21 13 10 14 15 15 16 16 17 17 4 18 3 19 2 20 1 21
REMARK H PARENT
ROOT
ATOM      1  C   UNL     1      13.869   0.825   6.803  1.00  0.00     0.122 C 
ATOM      2  C   UNL     1      14.587   1.148   8.083  1.00  0.00     0.039 C 
ATOM      3  C   UNL     1      14.438  -0.282   7.649  1.00  0.00     0.026 C 
ENDROOT
BRANCH   1   4
ATOM      4  O   UNL     1      12.443   1.015   6.865  1.00  0.00    -0.371 OA
BRANCH   4   5
ATOM      5  C   UNL     1      12.001   2.382   6.888  1.00  0.00     0.158 C 
ATOM      6  C   UNL     1       7.940   1.949   3.644  1.00  0.00    -0.003 C 
ATOM      7  C   UNL     1       9.467   1.929   3.501  1.00  0.00     0.052 C 
ATOM      8  C   UNL     1       7.550   1.351   5.003  1.00  0.00     0.019 C 
ATOM      9  C   UNL     1      10.160   2.593   4.699  1.00  0.00     0.189 C 
ATOM     10  C   UNL     1       8.299   2.031   6.148  1.00  0.00     0.087 C 
ATOM     11  N   UNL     1       9.746   1.953   5.947  1.00  0.00    -0.276 NA
ATOM     12  O   UNL     1      11.566   2.473   4.475  1.00  0.00    -0.360 OA
ATOM     13  C   UNL     1      10.481   2.525   7.081  1.00  0.00     0.121 C 
ATOM     14  C   UNL     1      12.351   3.019   5.540  1.00  0.00     0.195 C 
BRANCH   6  15
ATOM     15  C   UNL     1       7.268   1.194   2.519  1.00  0.00    -0.008 C 
ATOM     16  C   UNL     1       6.046   1.765   1.839  1.00  0.00     0.004 C 
ATOM     17  C   UNL     1       7.349   1.692   1.096  1.00  0.00     0.004 C 
ENDBRANCH   6  15
ENDBRANCH   4   5
ENDBRANCH   1   4
BRANCH   3  18
ATOM     18  C   UNL     1      15.653  -1.033   7.193  1.00  0.00     0.053 C 
BRANCH  18  19
ATOM     19  C   UNL     1      16.810  -1.076   8.157  1.00  0.00     0.074 C 
BRANCH  19  20
ATOM     20  N   UNL     1      17.003  -1.970   9.069  1.00  0.00    -0.313 NA
ATOM     21  H   UNL     1      17.517  -1.586   9.875  1.00  0.00     0.186 HD
ENDBRANCH  19  20
ENDBRANCH  18  19
ENDBRANCH   3  18
TORSDOF 6
ENDMDL
MODEL 3
REMARK VINA RESULT:    -4.084      2.700      8.622
REMARK INTER + INTRA:          -5.635
REMARK INTER:                  -5.401
REMARK INTRA:                  -0.234
REMARK UNBOUND:                -0.239
REMARK SMILES [H]/N=C\C[C@H]1C[C@@H]1O[C@H]1CO[C@H]2C[C@@H](C3CC3)CCN2C1
REMARK SMILES IDX 7 1 6 2 5 3 8 4 9 5 14 6 13 7 18 8 12 9 19 10 20 11 11 12
REMARK SMILES IDX 21 13 10 14 15 15 16 16 17 17 4 18 3 19 2 20 1 21
REMARK H PARENT
ROOT
ATOM      1  C   UNL     1      11.884   3.213   5.547  1.00  0.00     0.122 C 
ATOM      2  C   UNL     1      12.225   2.097   6.494  1.00  0.00     0.039 C 
ATOM      3  C   UNL     1      10.953   2.874   6.679  1.00  0.00     0.026 C 
ENDROOT
BRANCH   1   4
ATOM      4  O   UNL     1      12.696   4.391   5.711  1.00  0.00    -0.371 OA
BRANCH   4   5
ATOM      5  C   UNL     1      13.053   5.071   4.497  1.00  0.00     0.158 C 
ATOM      6  C   UNL     1      14.773   9.535   6.577  1.00  0.00    -0.003 C 
ATOM      7  C   UNL     1      13.405   8.869   6.383  1.00  0.00     0.052 C 
ATOM      8  C   UNL     1      15.839   8.451   6.788  1.00  0.00     0.019 C 
ATOM      9  C   UNL     1      13.442   7.804   5.278  1.00  0.00     0.189 C 
ATOM     10  C   UNL     1      15.800   7.405   5.675  1.00  0.00     0.087 C 
ATOM     11  N   UNL     1      14.471   6.805   5.566  1.00  0.00    -0.276 NA
ATOM     12  O   UNL     1      12.135   7.228   5.222  1.00  0.00    -0.360 OA
ATOM     13  C   UNL     1      14.439   5.737   4.560  1.00  0.00     0.121 C 
ATOM     14  C   UNL     1      12.025   6.181   4.253  1.00  0.00     0.195 C 
BRANCH   6  15
ATOM     15  C   UNL     1      14.760  10.500   7.741  1.00  0.00    -0.008 C 
ATOM     16  C   UNL     1      15.461  11.833   7.635  1.00  0.00     0.004 C 
ATOM     17  C   UNL     1      13.961  11.779   7.676  1.00  0.00     0.004 C 
ENDBRANCH   6  15
ENDBRANCH   4   5
ENDBRANCH   1   4
BRANCH   3  18
ATOM     18  C   UNL     1       9.643   2.199   6.403  1.00  0.00     0.053 C 
BRANCH  18  19
ATOM     19  C   UNL     1       8.496   2.575   7.306  1.00  0.00     0.074 C 
BRANCH  19  20
ATOM     20  N   UNL     1       8.584   2.861   8.562  1.00  0.00    -0.313 NA
ATOM     21  H   UNL     1       7.802   3.455   8.872  1.00  0.00     0.186 HD
ENDBRANCH  19  20
ENDBRANCH  18  19
ENDBRANCH   3  18
TORSDOF 6
ENDMDL
MODEL 4
REMARK VINA RESULT:    -3.886      4.410      7.150
REMARK INTER + INTRA:          -5.374
REMARK INTER:                  -5.219
REMARK INTRA:                  -0.155
REMARK UNBOUND:                -0.239
REMARK SMILES [H]/N=C\C[C@H]1C[C@@H]1O[C@H]1CO[C@H]2C[C@@H](C3CC3)CCN2C1
REMARK SMILES IDX 7 1 6 2 5 3 8 4 9 5 14 6 13 7 18 8 12 9 19 10 20 11 11 12
REMARK SMILES IDX 21 13 10 14 15 15 16 16 17 17 4 18 3 19 2 20 1 21
REMARK H PARENT
ROOT
ATOM      1  C   UNL     1      17.866   8.433   8.332  1.00  0.00     0.122 C 
ATOM      2  C   UNL     1      17.851   9.862   8.796  1.00  0.00     0.039 C 
ATOM      3  C   UNL     1      17.671   8.750   9.789  1.00  0.00     0.026 C 
ENDROOT
BRANCH   1   4
ATOM      4  O   UNL     1      16.692   8.044   7.594  1.00  0.00    -0.371 OA
BRANCH   4   5
ATOM      5  C   UNL     1      16.781   8.189   6.167  1.00  0.00     0.158 C 
ATOM      6  C   UNL     1      12.859   5.028   4.813  1.00  0.00    -0.003 C 
ATOM      7  C   UNL     1      14.274   4.844   5.377  1.00  0.00     0.052 C 
ATOM      8  C   UNL     1      12.270   6.344   5.340  1.00  0.00     0.019 C 
ATOM      9  C   UNL     1      15.155   6.073   5.115  1.00  0.00     0.189 C 
ATOM     10  C   UNL     1      13.211   7.521   5.079  1.00  0.00     0.087 C 
ATOM     11  N   UNL     1      14.529   7.276   5.663  1.00  0.00    -0.276 NA
ATOM     12  O   UNL     1      16.421   5.803   5.721  1.00  0.00    -0.360 OA
ATOM     13  C   UNL     1      15.417   8.432   5.496  1.00  0.00     0.121 C 
ATOM     14  C   UNL     1      17.346   6.887   5.590  1.00  0.00     0.195 C 
BRANCH   6  15
ATOM     15  C   UNL     1      11.963   3.864   5.173  1.00  0.00    -0.008 C 
ATOM     16  C   UNL     1      11.965   2.610   4.331  1.00  0.00     0.004 C 
ATOM     17  C   UNL     1      12.543   2.581   5.716  1.00  0.00     0.004 C 
ENDBRANCH   6  15
ENDBRANCH   4   5
ENDBRANCH   1   4
BRANCH   3  18
ATOM     18  C   UNL     1      18.765   8.473  10.776  1.00  0.00     0.053 C 
BRANCH  18  19
ATOM     19  C   UNL     1      18.700   9.233  12.075  1.00  0.00     0.074 C 
BRANCH  19  20
ATOM     20  N   UNL     1      18.011   8.898  13.115  1.00  0.00    -0.313 NA
ATOM     21  H   UNL     1      18.507   8.203  13.691  1.00  0.00     0.186 HD
ENDBRANCH  19  20
ENDBRANCH  18  19
ENDBRANCH   3  18
TORSDOF 6
ENDMDL
MODEL 5
REMARK VINA RESULT:    -3.828      4.219      7.155
REMARK INTER + INTRA:          -5.298
REMARK INTER:                  -4.775
REMARK INTRA:                  -0.523
REMARK UNBOUND:                -0.239
REMARK SMILES [H]/N=C\C[C@H]1C[C@@H]1O[C@H]1CO[C@H]2C[C@@H](C3CC3)CCN2C1
REMARK SMILES IDX 7 1 6 2 5 3 8 4 9 5 14 6 13 7 18 8 12 9 19 10 20 11 11 12
REMARK SMILES IDX 21 13 10 14 15 15 16 16 17 17 4 18 3 19 2 20 1 21
REMARK H PARENT
ROOT
ATOM      1  C   UNL     1      18.304   7.931   7.560  1.00  0.00     0.122 C 
ATOM      2  C   UNL     1      18.513   8.111   9.038  1.00  0.00     0.039 C 
ATOM      3  C   UNL     1      18.147   6.761   8.492  1.00  0.00     0.026 C 
ENDROOT
BRANCH   1   4
ATOM      4  O   UNL     1      17.091   8.526   7.062  1.00  0.00    -0.371 OA
BRANCH   4   5
ATOM      5  C   UNL     1      17.004   8.650   5.633  1.00  0.00     0.158 C 
ATOM      6  C   UNL     1      12.975   5.442   4.812  1.00  0.00    -0.003 C 
ATOM      7  C   UNL     1      14.449   5.276   5.201  1.00  0.00     0.052 C 
ATOM      8  C   UNL     1      12.443   6.761   5.388  1.00  0.00     0.019 C 
ATOM      9  C   UNL     1      15.281   6.507   4.817  1.00  0.00     0.189 C 
ATOM     10  C   UNL     1      13.334   7.940   4.998  1.00  0.00     0.087 C 
ATOM     11  N   UNL     1      14.716   7.714   5.420  1.00  0.00    -0.276 NA
ATOM     12  O   UNL     1      16.614   6.256   5.267  1.00  0.00    -0.360 OA
ATOM     13  C   UNL     1      15.567   8.874   5.130  1.00  0.00     0.121 C 
ATOM     14  C   UNL     1      17.507   7.344   5.010  1.00  0.00     0.195 C 
BRANCH   6  15
ATOM     15  C   UNL     1      12.140   4.277   5.294  1.00  0.00    -0.008 C 
ATOM     16  C   UNL     1      12.048   3.012   4.474  1.00  0.00     0.004 C 
ATOM     17  C   UNL     1      12.793   3.005   5.778  1.00  0.00     0.004 C 
ENDBRANCH   6  15
ENDBRANCH   4   5
ENDBRANCH   1   4
BRANCH   3  18
ATOM     18  C   UNL     1      19.173   5.667   8.512  1.00  0.00     0.053 C 
BRANCH  18  19
ATOM     19  C   UNL     1      18.816   4.405   7.771  1.00  0.00     0.074 C 
BRANCH  19  20
ATOM     20  N   UNL     1      18.210   4.342   6.631  1.00  0.00    -0.313 NA
ATOM     21  H   UNL     1      17.548   3.554   6.597  1.00  0.00     0.186 HD
ENDBRANCH  19  20
ENDBRANCH  18  19
ENDBRANCH   3  18
TORSDOF 6
ENDMDL
MODEL 6
REMARK VINA RESULT:    -3.778      3.356      5.393
REMARK INTER + INTRA:          -5.232
REMARK INTER:                  -5.347
REMARK INTRA:                   0.115
REMARK UNBOUND:                -0.239
REMARK SMILES [H]/N=C\C[C@H]1C[C@@H]1O[C@H]1CO[C@H]2C[C@@H](C3CC3)CCN2C1
REMARK SMILES IDX 7 1 6 2 5 3 8 4 9 5 14 6 13 7 18 8 12 9 19 10 20 11 11 12
REMARK SMILES IDX 21 13 10 14 15 15 16 16 17 17 4 18 3 19 2 20 1 21
REMARK H PARENT
ROOT
ATOM      1  C   UNL     1      13.701   0.950   7.243  1.00  0.00     0.122 C 
ATOM      2  C   UNL     1      13.385  -0.287   8.035  1.00  0.00     0.039 C 
ATOM      3  C   UNL     1      14.683  -0.188   7.286  1.00  0.00     0.026 C 
ENDROOT
BRANCH   1   4
ATOM      4  O   UNL     1      12.927   1.088   6.036  1.00  0.00    -0.371 OA
BRANCH   4   5
ATOM      5  C   UNL     1      12.560   2.432   5.685  1.00  0.00     0.158 C 
ATOM      6  C   UNL     1       7.420   1.725   5.145  1.00  0.00    -0.003 C 
ATOM      7  C   UNL     1       8.672   1.335   4.350  1.00  0.00     0.052 C 
ATOM      8  C   UNL     1       7.758   1.752   6.642  1.00  0.00     0.019 C 
ATOM      9  C   UNL     1       9.872   2.224   4.704  1.00  0.00     0.189 C 
ATOM     10  C   UNL     1       8.981   2.626   6.923  1.00  0.00     0.087 C 
ATOM     11  N   UNL     1      10.134   2.178   6.143  1.00  0.00    -0.276 NA
ATOM     12  O   UNL     1      10.979   1.738   3.942  1.00  0.00    -0.360 OA
ATOM     13  C   UNL     1      11.339   2.951   6.466  1.00  0.00     0.121 C 
ATOM     14  C   UNL     1      12.192   2.453   4.198  1.00  0.00     0.195 C 
BRANCH   6  15
ATOM     15  C   UNL     1       6.274   0.776   4.877  1.00  0.00    -0.008 C 
ATOM     16  C   UNL     1       5.778   0.557   3.467  1.00  0.00     0.004 C 
ATOM     17  C   UNL     1       6.509  -0.543   4.181  1.00  0.00     0.004 C 
ENDBRANCH   6  15
ENDBRANCH   4   5
ENDBRANCH   1   4
BRANCH   3  18
ATOM     18  C   UNL     1      15.961  -0.055   8.060  1.00  0.00     0.053 C 
BRANCH  18  19
ATOM     19  C   UNL     1      16.794  -1.303   8.191  1.00  0.00     0.074 C 
BRANCH  19  20
ATOM     20  N   UNL     1      17.404  -1.699   9.258  1.00  0.00    -0.313 NA
ATOM     21  H   UNL     1      18.418  -1.530   9.201  1.00  0.00     0.186 HD
ENDBRANCH  19  20
ENDBRANCH  18  19
ENDBRANCH   3  18
TORSDOF 6
ENDMDL
MODEL 7
REMARK VINA RESULT:    -3.648      4.900      8.159
REMARK INTER + INTRA:          -5.059
REMARK INTER:                  -4.932
REMARK INTRA:                  -0.128
REMARK UNBOUND:                -0.239
REMARK SMILES [H]/N=C\C[C@H]1C[C@@H]1O[C@H]1CO[C@H]2C[C@@H](C3CC3)CCN2C1
REMARK SMILES IDX 7 1 6 2 5 3 8 4 9 5 14 6 13 7 18 8 12 9 19 10 20 11 11 12
REMARK SMILES IDX 21 13 10 14 15 15 16 16 17 17 4 18 3 19 2 20 1 21
REMARK H PARENT
ROOT
ATOM      1  C   UNL     1      12.073   2.413   5.592  1.00  0.00     0.122 C 
ATOM      2  C   UNL     1      12.286   3.468   4.544  1.00  0.00     0.039 C 
ATOM      3  C   UNL     1      12.009   2.050   4.134  1.00  0.00     0.026 C 
ENDROOT
BRANCH   1   4
ATOM      4  O   UNL     1      13.271   2.036   6.298  1.00  0.00    -0.371 OA
BRANCH   4   5
ATOM      5  C   UNL     1      13.067   1.313   7.523  1.00  0.00     0.158 C 
ATOM      6  C   UNL     1      17.827  -0.763   8.008  1.00  0.00    -0.003 C 
ATOM      7  C   UNL     1      16.617  -0.993   7.095  1.00  0.00     0.052 C 
ATOM      8  C   UNL     1      17.896   0.721   8.396  1.00  0.00     0.019 C 
ATOM      9  C   UNL     1      15.323  -0.448   7.716  1.00  0.00     0.189 C 
ATOM     10  C   UNL     1      16.568   1.209   8.975  1.00  0.00     0.087 C 
ATOM     11  N   UNL     1      15.470   0.971   8.038  1.00  0.00    -0.276 NA
ATOM     12  O   UNL     1      14.284  -0.677   6.761  1.00  0.00    -0.360 OA
ATOM     13  C   UNL     1      14.203   1.513   8.542  1.00  0.00     0.121 C 
ATOM     14  C   UNL     1      13.012  -0.182   7.189  1.00  0.00     0.195 C 
BRANCH   6  15
ATOM     15  C   UNL     1      19.114  -1.198   7.344  1.00  0.00    -0.008 C 
ATOM     16  C   UNL     1      19.534  -2.649   7.370  1.00  0.00     0.004 C 
ATOM     17  C   UNL     1      19.091  -2.023   6.080  1.00  0.00     0.004 C 
ENDBRANCH   6  15
ENDBRANCH   4   5
ENDBRANCH   1   4
BRANCH   3  18
ATOM     18  C   UNL     1      10.693   1.723   3.494  1.00  0.00     0.053 C 
BRANCH  18  19
ATOM     19  C   UNL     1      10.756   1.049   2.148  1.00  0.00     0.074 C 
BRANCH  19  20
ATOM     20  N   UNL     1      11.781   1.020   1.363  1.00  0.00    -0.313 NA
ATOM     21  H   UNL     1      12.276   1.923   1.351  1.00  0.00     0.186 HD
ENDBRANCH  19  20
ENDBRANCH  18  19
ENDBRANCH   3  18
TORSDOF 6
ENDMDL
MODEL 8
REMARK VINA RESULT:    -3.611      1.584      2.112
REMARK INTER + INTRA:          -5.011
REMARK INTER:                  -5.620
REMARK INTRA:                   0.609
REMARK UNBOUND:                -0.239
REMARK SMILES [H]/N=C\C[C@H]1C[C@@H]1O[C@H]1CO[C@H]2C[C@@H](C3CC3)CCN2C1
REMARK SMILES IDX 7 1 6 2 5 3 8 4 9 5 14 6 13 7 18 8 12 9 19 10 20 11 11 12
REMARK SMILES IDX 21 13 10 14 15 15 16 16 17 17 4 18 3 19 2 20 1 21
REMARK H PARENT
ROOT
ATOM      1  C   UNL     1      12.902   5.185   5.163  1.00  0.00     0.122 C 
ATOM      2  C   UNL     1      12.561   5.891   3.880  1.00  0.00     0.039 C 
ATOM      3  C   UNL     1      12.777   6.684   5.137  1.00  0.00     0.026 C 
ENDROOT
BRANCH   1   4
ATOM      4  O   UNL     1      11.803   4.457   5.742  1.00  0.00    -0.371 OA
BRANCH   4   5
ATOM      5  C   UNL     1      12.089   3.100   6.119  1.00  0.00     0.158 C 
ATOM      6  C   UNL     1       8.686   0.683   2.991  1.00  0.00    -0.003 C 
ATOM      7  C   UNL     1       8.595   1.537   4.262  1.00  0.00     0.052 C 
ATOM      8  C   UNL     1       9.881   1.153   2.149  1.00  0.00     0.019 C 
ATOM      9  C   UNL     1       9.926   1.566   5.026  1.00  0.00     0.189 C 
ATOM     10  C   UNL     1      11.166   1.192   2.976  1.00  0.00     0.087 C 
ATOM     11  N   UNL     1      11.003   2.040   4.157  1.00  0.00    -0.276 NA
ATOM     12  O   UNL     1       9.731   2.422   6.153  1.00  0.00    -0.360 OA
ATOM     13  C   UNL     1      12.254   2.158   4.914  1.00  0.00     0.121 C 
ATOM     14  C   UNL     1      10.911   2.578   6.948  1.00  0.00     0.195 C 
BRANCH   6  15
ATOM     15  C   UNL     1       7.409   0.751   2.185  1.00  0.00    -0.008 C 
ATOM     16  C   UNL     1       6.446   1.899   2.373  1.00  0.00     0.004 C 
ATOM     17  C   UNL     1       7.233   1.786   1.100  1.00  0.00     0.004 C 
ENDBRANCH   6  15
ENDBRANCH   4   5
ENDBRANCH   1   4
BRANCH   3  18
ATOM     18  C   UNL     1      13.999   7.546   5.250  1.00  0.00     0.053 C 
BRANCH  18  19
ATOM     19  C   UNL     1      13.758   9.014   5.491  1.00  0.00     0.074 C 
BRANCH  19  20
ATOM     20  N   UNL     1      14.246   9.985   4.793  1.00  0.00    -0.313 NA
ATOM     21  H   UNL     1      13.844  10.892   5.071  1.00  0.00     0.186 HD
ENDBRANCH  19  20
ENDBRANCH  18  19
ENDBRANCH   3  18
TORSDOF 6
ENDMDL
MODEL 9
REMARK VINA RESULT:    -3.273      3.714      9.984
REMARK INTER + INTRA:          -4.564
REMARK INTER:                  -4.248
REMARK INTRA:                  -0.316
REMARK UNBOUND:                -0.239
REMARK SMILES [H]/N=C\C[C@H]1C[C@@H]1O[C@H]1CO[C@H]2C[C@@H](C3CC3)CCN2C1
REMARK SMILES IDX 7 1 6 2 5 3 8 4 9 5 14 6 13 7 18 8 12 9 19 10 20 11 11 12
REMARK SMILES IDX 21 13 10 14 15 15 16 16 17 17 4 18 3 19 2 20 1 21
REMARK H PARENT
ROOT
ATOM      1  C   UNL     1      12.558   6.163   5.109  1.00  0.00     0.122 C 
ATOM      2  C   UNL     1      13.109   5.540   3.857  1.00  0.00     0.039 C 
ATOM      3  C   UNL     1      12.797   4.679   5.047  1.00  0.00     0.026 C 
ENDROOT
BRANCH   1   4
ATOM      4  O   UNL     1      13.519   6.941   5.848  1.00  0.00    -0.371 OA
BRANCH   4   5
ATOM      5  C   UNL     1      13.412   8.366   5.695  1.00  0.00     0.158 C 
ATOM      6  C   UNL     1      17.663   9.762   8.375  1.00  0.00    -0.003 C 
ATOM      7  C   UNL     1      16.279   9.202   8.725  1.00  0.00     0.052 C 
ATOM      8  C   UNL     1      18.101   9.217   7.008  1.00  0.00     0.019 C 
ATOM      9  C   UNL     1      15.264   9.447   7.600  1.00  0.00     0.189 C 
ATOM     10  C   UNL     1      17.033   9.462   5.942  1.00  0.00     0.087 C 
ATOM     11  N   UNL     1      15.751   8.882   6.341  1.00  0.00    -0.276 NA
ATOM     12  O   UNL     1      14.038   8.845   8.019  1.00  0.00    -0.360 OA
ATOM     13  C   UNL     1      14.739   9.033   5.290  1.00  0.00     0.121 C 
ATOM     14  C   UNL     1      12.996   8.961   7.044  1.00  0.00     0.195 C 
BRANCH   6  15
ATOM     15  C   UNL     1      18.685   9.418   9.435  1.00  0.00    -0.008 C 
ATOM     16  C   UNL     1      19.236  10.493  10.342  1.00  0.00     0.004 C 
ATOM     17  C   UNL     1      18.320   9.443  10.899  1.00  0.00     0.004 C 
ENDBRANCH   6  15
ENDBRANCH   4   5
ENDBRANCH   1   4
BRANCH   3  18
ATOM     18  C   UNL     1      11.639   3.730   4.974  1.00  0.00     0.053 C 
BRANCH  18  19
ATOM     19  C   UNL     1      11.965   2.311   4.586  1.00  0.00     0.074 C 
BRANCH  19  20
ATOM     20  N   UNL     1      12.159   1.881   3.384  1.00  0.00    -0.313 NA
ATOM     21  H   UNL     1      12.919   1.186   3.348  1.00  0.00     0.186 HD
ENDBRANCH  19  20
ENDBRANCH  18  19
ENDBRANCH   3  18
TORSDOF 6
ENDMDL
