MODEL 1
REMARK VINA RESULT:    -6.164      0.000      0.000
REMARK INTER + INTRA:          -7.616
REMARK INTER:                  -7.245
REMARK INTRA:                  -0.371
REMARK UNBOUND:                -0.371
REMARK SMILES Cc1ccc(CNC(=O)NC(=O)c2ccc(C)cc2)cc1
REMARK SMILES IDX 11 1 12 2 10 3 8 4 9 5 7 6 13 9 19 10 18 11 14 12 16 13
REMARK SMILES IDX 15 14 17 15 6 16 5 17 4 18 20 19 3 20 21 21 2 22 1 23
REMARK H PARENT 10 7 7 8
ROOT
ATOM      1  C   UNL     1      10.601   2.358   5.155  1.00  0.00     0.259 C 
ATOM      2  O   UNL     1      10.543   3.290   4.366  1.00  0.00    -0.269 OA
ATOM      3  N   UNL     1      11.690   1.924   5.918  1.00  0.00    -0.274 N 
ATOM      4  C   UNL     1      12.923   2.400   6.287  1.00  0.00     0.321 C 
ATOM      5  O   UNL     1      13.565   1.745   7.115  1.00  0.00    -0.248 OA
ATOM      6  N   UNL     1      13.448   3.548   5.820  1.00  0.00    -0.334 N 
ATOM      7  H   UNL     1      11.502   1.111   6.488  1.00  0.00     0.175 HD
ATOM      8  H   UNL     1      14.324   3.800   6.254  1.00  0.00     0.165 HD
ENDROOT
BRANCH   1   9
ATOM      9  C   UNL     1       9.365   1.577   5.348  1.00  0.00     0.040 A 
ATOM     10  C   UNL     1       9.148   0.377   4.668  1.00  0.00     0.014 A 
ATOM     11  C   UNL     1       7.987  -0.354   4.923  1.00  0.00     0.004 A 
ATOM     12  C   UNL     1       8.403   2.077   6.231  1.00  0.00     0.014 A 
ATOM     13  C   UNL     1       7.040   0.113   5.846  1.00  0.00    -0.051 A 
ATOM     14  C   UNL     1       7.247   1.341   6.487  1.00  0.00     0.004 A 
ATOM     15  C   UNL     1       5.838  -0.724   6.171  1.00  0.00     0.044 C 
ENDBRANCH   1   9
BRANCH   6  16
ATOM     16  C   UNL     1      12.830   4.500   4.941  1.00  0.00     0.153 C 
BRANCH  16  17
ATOM     17  C   UNL     1      13.392   5.894   4.930  1.00  0.00    -0.029 A 
ATOM     18  C   UNL     1      12.618   7.032   5.183  1.00  0.00     0.006 A 
ATOM     19  C   UNL     1      14.789   6.024   4.870  1.00  0.00     0.006 A 
ATOM     20  C   UNL     1      13.239   8.267   5.396  1.00  0.00     0.004 A 
ATOM     21  C   UNL     1      15.405   7.252   5.087  1.00  0.00     0.004 A 
ATOM     22  C   UNL     1      14.635   8.384   5.362  1.00  0.00    -0.051 A 
ATOM     23  C   UNL     1      15.312   9.671   5.729  1.00  0.00     0.044 C 
ENDBRANCH  16  17
ENDBRANCH   6  16
TORSDOF 3
ENDMDL
MODEL 2
REMARK VINA RESULT:    -6.164      3.160      7.321
REMARK INTER + INTRA:          -7.616
REMARK INTER:                  -7.144
REMARK INTRA:                  -0.472
REMARK UNBOUND:                -0.371
REMARK SMILES Cc1ccc(CNC(=O)NC(=O)c2ccc(C)cc2)cc1
REMARK SMILES IDX 11 1 12 2 10 3 8 4 9 5 7 6 13 9 19 10 18 11 14 12 16 13
REMARK SMILES IDX 15 14 17 15 6 16 5 17 4 18 20 19 3 20 21 21 2 22 1 23
REMARK H PARENT 10 7 7 8
ROOT
ATOM      1  C   UNL     1      13.226   1.306   6.691  1.00  0.00     0.259 C 
ATOM      2  O   UNL     1      12.246   0.582   6.591  1.00  0.00    -0.269 OA
ATOM      3  N   UNL     1      13.409   2.605   6.206  1.00  0.00    -0.274 N 
ATOM      4  C   UNL     1      12.632   3.617   5.704  1.00  0.00     0.321 C 
ATOM      5  O   UNL     1      13.174   4.709   5.503  1.00  0.00    -0.248 OA
ATOM      6  N   UNL     1      11.316   3.490   5.451  1.00  0.00    -0.334 N 
ATOM      7  H   UNL     1      14.322   2.996   6.395  1.00  0.00     0.175 HD
ATOM      8  H   UNL     1      10.872   4.352   5.167  1.00  0.00     0.165 HD
ENDROOT
BRANCH   1   9
ATOM      9  C   UNL     1      14.383   0.754   7.423  1.00  0.00     0.040 A 
ATOM     10  C   UNL     1      14.808  -0.562   7.228  1.00  0.00     0.014 A 
ATOM     11  C   UNL     1      15.938  -1.023   7.904  1.00  0.00     0.004 A 
ATOM     12  C   UNL     1      15.043   1.587   8.331  1.00  0.00     0.014 A 
ATOM     13  C   UNL     1      16.639  -0.178   8.778  1.00  0.00    -0.051 A 
ATOM     14  C   UNL     1      16.176   1.124   8.999  1.00  0.00     0.004 A 
ATOM     15  C   UNL     1      17.900  -0.661   9.431  1.00  0.00     0.044 C 
ENDBRANCH   1   9
BRANCH   6  16
ATOM     16  C   UNL     1      10.481   2.352   5.709  1.00  0.00     0.153 C 
BRANCH  16  17
ATOM     17  C   UNL     1       9.458   1.996   4.665  1.00  0.00    -0.029 A 
ATOM     18  C   UNL     1       8.147   2.481   4.685  1.00  0.00     0.006 A 
ATOM     19  C   UNL     1       9.915   1.321   3.522  1.00  0.00     0.006 A 
ATOM     20  C   UNL     1       7.321   2.312   3.569  1.00  0.00     0.004 A 
ATOM     21  C   UNL     1       9.094   1.158   2.410  1.00  0.00     0.004 A 
ATOM     22  C   UNL     1       7.792   1.661   2.420  1.00  0.00    -0.051 A 
ATOM     23  C   UNL     1       6.964   1.602   1.171  1.00  0.00     0.044 C 
ENDBRANCH  16  17
ENDBRANCH   6  16
TORSDOF 3
ENDMDL
MODEL 3
REMARK VINA RESULT:    -6.158      3.278      5.566
REMARK INTER + INTRA:          -7.609
REMARK INTER:                  -7.243
REMARK INTRA:                  -0.366
REMARK UNBOUND:                -0.371
REMARK SMILES Cc1ccc(CNC(=O)NC(=O)c2ccc(C)cc2)cc1
REMARK SMILES IDX 11 1 12 2 10 3 8 4 9 5 7 6 13 9 19 10 18 11 14 12 16 13
REMARK SMILES IDX 15 14 17 15 6 16 5 17 4 18 20 19 3 20 21 21 2 22 1 23
REMARK H PARENT 10 7 7 8
ROOT
ATOM      1  C   UNL     1      10.774   1.955   5.172  1.00  0.00     0.259 C 
ATOM      2  O   UNL     1      10.858   1.013   5.947  1.00  0.00    -0.269 OA
ATOM      3  N   UNL     1      11.573   3.101   5.098  1.00  0.00    -0.274 N 
ATOM      4  C   UNL     1      12.779   3.529   5.591  1.00  0.00     0.321 C 
ATOM      5  O   UNL     1      13.222   4.603   5.169  1.00  0.00    -0.248 OA
ATOM      6  N   UNL     1      13.510   2.830   6.479  1.00  0.00    -0.334 N 
ATOM      7  H   UNL     1      11.295   3.757   4.381  1.00  0.00     0.175 HD
ATOM      8  H   UNL     1      14.412   3.241   6.675  1.00  0.00     0.165 HD
ENDROOT
BRANCH   1   9
ATOM      9  C   UNL     1       9.694   1.892   4.169  1.00  0.00     0.040 A 
ATOM     10  C   UNL     1       8.495   2.585   4.345  1.00  0.00     0.014 A 
ATOM     11  C   UNL     1       7.524   2.537   3.344  1.00  0.00     0.004 A 
ATOM     12  C   UNL     1       9.901   1.107   3.030  1.00  0.00     0.014 A 
ATOM     13  C   UNL     1       7.743   1.794   2.174  1.00  0.00    -0.051 A 
ATOM     14  C   UNL     1       8.931   1.066   2.030  1.00  0.00     0.004 A 
ATOM     15  C   UNL     1       6.726   1.821   1.071  1.00  0.00     0.044 C 
ENDBRANCH   1   9
BRANCH   6  16
ATOM     16  C   UNL     1      13.231   1.527   7.011  1.00  0.00     0.153 C 
BRANCH  16  17
ATOM     17  C   UNL     1      14.367   0.789   7.662  1.00  0.00    -0.029 A 
ATOM     18  C   UNL     1      14.738  -0.511   7.304  1.00  0.00     0.006 A 
ATOM     19  C   UNL     1      15.210   1.525   8.511  1.00  0.00     0.006 A 
ATOM     20  C   UNL     1      15.943  -1.049   7.770  1.00  0.00     0.004 A 
ATOM     21  C   UNL     1      16.410   0.991   8.970  1.00  0.00     0.004 A 
ATOM     22  C   UNL     1      16.792  -0.298   8.595  1.00  0.00    -0.051 A 
ATOM     23  C   UNL     1      18.146  -0.813   8.980  1.00  0.00     0.044 C 
ENDBRANCH  16  17
ENDBRANCH   6  16
TORSDOF 3
ENDMDL
MODEL 4
REMARK VINA RESULT:    -6.151      0.537      8.062
REMARK INTER + INTRA:          -7.600
REMARK INTER:                  -7.124
REMARK INTRA:                  -0.476
REMARK UNBOUND:                -0.371
REMARK SMILES Cc1ccc(CNC(=O)NC(=O)c2ccc(C)cc2)cc1
REMARK SMILES IDX 11 1 12 2 10 3 8 4 9 5 7 6 13 9 19 10 18 11 14 12 16 13
REMARK SMILES IDX 15 14 17 15 6 16 5 17 4 18 20 19 3 20 21 21 2 22 1 23
REMARK H PARENT 10 7 7 8
ROOT
ATOM      1  C   UNL     1      12.505   4.638   5.194  1.00  0.00     0.259 C 
ATOM      2  O   UNL     1      11.448   4.610   4.578  1.00  0.00    -0.269 OA
ATOM      3  N   UNL     1      13.106   3.625   5.947  1.00  0.00    -0.274 N 
ATOM      4  C   UNL     1      12.967   2.272   6.119  1.00  0.00     0.321 C 
ATOM      5  O   UNL     1      13.816   1.691   6.804  1.00  0.00    -0.248 OA
ATOM      6  N   UNL     1      11.981   1.548   5.558  1.00  0.00    -0.334 N 
ATOM      7  H   UNL     1      13.977   3.893   6.386  1.00  0.00     0.175 HD
ATOM      8  H   UNL     1      12.069   0.553   5.711  1.00  0.00     0.165 HD
ENDROOT
BRANCH   1   9
ATOM      9  C   UNL     1      13.265   5.902   5.143  1.00  0.00     0.040 A 
ATOM     10  C   UNL     1      12.630   7.139   5.266  1.00  0.00     0.014 A 
ATOM     11  C   UNL     1      13.397   8.304   5.265  1.00  0.00     0.004 A 
ATOM     12  C   UNL     1      14.649   5.828   4.959  1.00  0.00     0.014 A 
ATOM     13  C   UNL     1      14.792   8.239   5.134  1.00  0.00    -0.051 A 
ATOM     14  C   UNL     1      15.412   6.995   4.965  1.00  0.00     0.004 A 
ATOM     15  C   UNL     1      15.610   9.494   5.219  1.00  0.00     0.044 C 
ENDBRANCH   1   9
BRANCH   6  16
ATOM     16  C   UNL     1      10.965   2.005   4.653  1.00  0.00     0.153 C 
BRANCH  16  17
ATOM     17  C   UNL     1       9.572   1.477   4.856  1.00  0.00    -0.029 A 
ATOM     18  C   UNL     1       9.088   0.331   4.216  1.00  0.00     0.006 A 
ATOM     19  C   UNL     1       8.813   2.047   5.891  1.00  0.00     0.006 A 
ATOM     20  C   UNL     1       7.880  -0.243   4.625  1.00  0.00     0.004 A 
ATOM     21  C   UNL     1       7.613   1.473   6.301  1.00  0.00     0.004 A 
ATOM     22  C   UNL     1       7.141   0.316   5.678  1.00  0.00    -0.051 A 
ATOM     23  C   UNL     1       5.922  -0.372   6.215  1.00  0.00     0.044 C 
ENDBRANCH  16  17
ENDBRANCH   6  16
TORSDOF 3
ENDMDL
MODEL 5
REMARK VINA RESULT:    -5.867      1.101      7.938
REMARK INTER + INTRA:          -7.267
REMARK INTER:                  -6.781
REMARK INTRA:                  -0.486
REMARK UNBOUND:                -0.371
REMARK SMILES Cc1ccc(CNC(=O)NC(=O)c2ccc(C)cc2)cc1
REMARK SMILES IDX 11 1 12 2 10 3 8 4 9 5 7 6 13 9 19 10 18 11 14 12 16 13
REMARK SMILES IDX 15 14 17 15 6 16 5 17 4 18 20 19 3 20 21 21 2 22 1 23
REMARK H PARENT 10 7 7 8
ROOT
ATOM      1  C   UNL     1      12.864   4.796   4.938  1.00  0.00     0.259 C 
ATOM      2  O   UNL     1      12.063   4.710   4.019  1.00  0.00    -0.269 OA
ATOM      3  N   UNL     1      13.204   3.835   5.896  1.00  0.00    -0.274 N 
ATOM      4  C   UNL     1      13.036   2.487   6.083  1.00  0.00     0.321 C 
ATOM      5  O   UNL     1      13.626   1.961   7.033  1.00  0.00    -0.248 OA
ATOM      6  N   UNL     1      12.292   1.710   5.273  1.00  0.00    -0.334 N 
ATOM      7  H   UNL     1      13.884   4.147   6.577  1.00  0.00     0.175 HD
ATOM      8  H   UNL     1      12.339   0.727   5.497  1.00  0.00     0.165 HD
ENDROOT
BRANCH   1   9
ATOM      9  C   UNL     1      13.584   6.077   5.070  1.00  0.00     0.040 A 
ATOM     10  C   UNL     1      14.974   6.147   4.958  1.00  0.00     0.014 A 
ATOM     11  C   UNL     1      15.605   7.388   5.037  1.00  0.00     0.004 A 
ATOM     12  C   UNL     1      12.832   7.230   5.319  1.00  0.00     0.014 A 
ATOM     13  C   UNL     1      14.855   8.557   5.235  1.00  0.00    -0.051 A 
ATOM     14  C   UNL     1      13.466   8.469   5.391  1.00  0.00     0.004 A 
ATOM     15  C   UNL     1      15.539   9.893   5.233  1.00  0.00     0.044 C 
ENDBRANCH   1   9
BRANCH   6  16
ATOM     16  C   UNL     1      11.616   2.097   4.067  1.00  0.00     0.153 C 
BRANCH  16  17
ATOM     17  C   UNL     1      10.153   1.766   3.960  1.00  0.00    -0.029 A 
ATOM     18  C   UNL     1       9.613   1.033   2.898  1.00  0.00     0.006 A 
ATOM     19  C   UNL     1       9.350   2.028   5.082  1.00  0.00     0.006 A 
ATOM     20  C   UNL     1       8.301   0.553   2.975  1.00  0.00     0.004 A 
ATOM     21  C   UNL     1       8.047   1.546   5.159  1.00  0.00     0.004 A 
ATOM     22  C   UNL     1       7.514   0.795   4.110  1.00  0.00    -0.051 A 
ATOM     23  C   UNL     1       6.162   0.165   4.260  1.00  0.00     0.044 C 
ENDBRANCH  16  17
ENDBRANCH   6  16
TORSDOF 3
ENDMDL
MODEL 6
REMARK VINA RESULT:    -5.843      3.124      7.544
REMARK INTER + INTRA:          -7.238
REMARK INTER:                  -6.767
REMARK INTRA:                  -0.471
REMARK UNBOUND:                -0.371
REMARK SMILES Cc1ccc(CNC(=O)NC(=O)c2ccc(C)cc2)cc1
REMARK SMILES IDX 11 1 12 2 10 3 8 4 9 5 7 6 13 9 19 10 18 11 14 12 16 13
REMARK SMILES IDX 15 14 17 15 6 16 5 17 4 18 20 19 3 20 21 21 2 22 1 23
REMARK H PARENT 10 7 7 8
ROOT
ATOM      1  C   UNL     1      13.383   1.288   6.956  1.00  0.00     0.259 C 
ATOM      2  O   UNL     1      12.370   0.614   7.077  1.00  0.00    -0.269 OA
ATOM      3  N   UNL     1      13.546   2.514   6.304  1.00  0.00    -0.274 N 
ATOM      4  C   UNL     1      12.746   3.508   5.801  1.00  0.00     0.321 C 
ATOM      5  O   UNL     1      13.296   4.540   5.402  1.00  0.00    -0.248 OA
ATOM      6  N   UNL     1      11.403   3.429   5.750  1.00  0.00    -0.334 N 
ATOM      7  H   UNL     1      14.492   2.872   6.318  1.00  0.00     0.175 HD
ATOM      8  H   UNL     1      10.958   4.278   5.433  1.00  0.00     0.165 HD
ENDROOT
BRANCH   1   9
ATOM      9  C   UNL     1      14.610   0.754   7.579  1.00  0.00     0.040 A 
ATOM     10  C   UNL     1      15.355   1.512   8.484  1.00  0.00     0.014 A 
ATOM     11  C   UNL     1      16.479   0.946   9.087  1.00  0.00     0.004 A 
ATOM     12  C   UNL     1      15.014  -0.539   7.232  1.00  0.00     0.014 A 
ATOM     13  C   UNL     1      16.863  -0.369   8.785  1.00  0.00    -0.051 A 
ATOM     14  C   UNL     1      16.133  -1.102   7.842  1.00  0.00     0.004 A 
ATOM     15  C   UNL     1      18.023  -0.992   9.506  1.00  0.00     0.044 C 
ENDBRANCH   1   9
BRANCH   6  16
ATOM     16  C   UNL     1      10.568   2.374   6.251  1.00  0.00     0.153 C 
BRANCH  16  17
ATOM     17  C   UNL     1       9.460   1.889   5.359  1.00  0.00    -0.029 A 
ATOM     18  C   UNL     1       8.107   1.978   5.704  1.00  0.00     0.006 A 
ATOM     19  C   UNL     1       9.802   1.528   4.045  1.00  0.00     0.006 A 
ATOM     20  C   UNL     1       7.122   1.735   4.741  1.00  0.00     0.004 A 
ATOM     21  C   UNL     1       8.821   1.292   3.088  1.00  0.00     0.004 A 
ATOM     22  C   UNL     1       7.471   1.403   3.425  1.00  0.00    -0.051 A 
ATOM     23  C   UNL     1       6.427   1.282   2.356  1.00  0.00     0.044 C 
ENDBRANCH  16  17
ENDBRANCH   6  16
TORSDOF 3
ENDMDL
MODEL 7
REMARK VINA RESULT:    -5.789      1.226      8.042
REMARK INTER + INTRA:          -7.175
REMARK INTER:                  -6.723
REMARK INTRA:                  -0.452
REMARK UNBOUND:                -0.371
REMARK SMILES Cc1ccc(CNC(=O)NC(=O)c2ccc(C)cc2)cc1
REMARK SMILES IDX 11 1 12 2 10 3 8 4 9 5 7 6 13 9 19 10 18 11 14 12 16 13
REMARK SMILES IDX 15 14 17 15 6 16 5 17 4 18 20 19 3 20 21 21 2 22 1 23
REMARK H PARENT 10 7 7 8
ROOT
ATOM      1  C   UNL     1      12.493   4.767   4.990  1.00  0.00     0.259 C 
ATOM      2  O   UNL     1      11.556   4.767   4.204  1.00  0.00    -0.269 OA
ATOM      3  N   UNL     1      12.909   3.751   5.856  1.00  0.00    -0.274 N 
ATOM      4  C   UNL     1      12.679   2.411   6.031  1.00  0.00     0.321 C 
ATOM      5  O   UNL     1      13.370   1.814   6.863  1.00  0.00    -0.248 OA
ATOM      6  N   UNL     1      11.767   1.715   5.327  1.00  0.00    -0.334 N 
ATOM      7  H   UNL     1      13.706   3.994   6.430  1.00  0.00     0.175 HD
ATOM      8  H   UNL     1      11.780   0.722   5.514  1.00  0.00     0.165 HD
ENDROOT
BRANCH   1   9
ATOM      9  C   UNL     1      13.311   5.994   5.041  1.00  0.00     0.040 A 
ATOM     10  C   UNL     1      12.729   7.251   5.212  1.00  0.00     0.014 A 
ATOM     11  C   UNL     1      13.547   8.377   5.308  1.00  0.00     0.004 A 
ATOM     12  C   UNL     1      14.697   5.865   4.906  1.00  0.00     0.014 A 
ATOM     13  C   UNL     1      14.942   8.252   5.225  1.00  0.00    -0.051 A 
ATOM     14  C   UNL     1      15.511   6.992   5.009  1.00  0.00     0.004 A 
ATOM     15  C   UNL     1      15.812   9.460   5.415  1.00  0.00     0.044 C 
ENDBRANCH   1   9
BRANCH   6  16
ATOM     16  C   UNL     1      10.941   2.189   4.253  1.00  0.00     0.153 C 
BRANCH  16  17
ATOM     17  C   UNL     1       9.492   1.787   4.267  1.00  0.00    -0.029 A 
ATOM     18  C   UNL     1       8.458   2.644   3.877  1.00  0.00     0.006 A 
ATOM     19  C   UNL     1       9.204   0.429   4.481  1.00  0.00     0.006 A 
ATOM     20  C   UNL     1       7.167   2.141   3.683  1.00  0.00     0.004 A 
ATOM     21  C   UNL     1       7.921  -0.071   4.283  1.00  0.00     0.004 A 
ATOM     22  C   UNL     1       6.893   0.780   3.871  1.00  0.00    -0.051 A 
ATOM     23  C   UNL     1       5.550   0.208   3.528  1.00  0.00     0.044 C 
ENDBRANCH  16  17
ENDBRANCH   6  16
TORSDOF 3
ENDMDL
MODEL 8
REMARK VINA RESULT:    -4.527      1.925      8.185
REMARK INTER + INTRA:          -5.692
REMARK INTER:                  -5.298
REMARK INTRA:                  -0.394
REMARK UNBOUND:                -0.371
REMARK SMILES Cc1ccc(CNC(=O)NC(=O)c2ccc(C)cc2)cc1
REMARK SMILES IDX 11 1 12 2 10 3 8 4 9 5 7 6 13 9 19 10 18 11 14 12 16 13
REMARK SMILES IDX 15 14 17 15 6 16 5 17 4 18 20 19 3 20 21 21 2 22 1 23
REMARK H PARENT 10 7 7 8
ROOT
ATOM      1  C   UNL     1      12.077   3.841   4.874  1.00  0.00     0.259 C 
ATOM      2  O   UNL     1      11.154   3.699   5.664  1.00  0.00    -0.269 OA
ATOM      3  N   UNL     1      12.482   2.992   3.839  1.00  0.00    -0.274 N 
ATOM      4  C   UNL     1      11.980   1.914   3.158  1.00  0.00     0.321 C 
ATOM      5  O   UNL     1      12.614   1.509   2.177  1.00  0.00    -0.248 OA
ATOM      6  N   UNL     1      10.827   1.300   3.482  1.00  0.00    -0.334 N 
ATOM      7  H   UNL     1      13.294   3.315   3.329  1.00  0.00     0.175 HD
ATOM      8  H   UNL     1      10.553   0.578   2.831  1.00  0.00     0.165 HD
ENDROOT
BRANCH   1   9
ATOM      9  C   UNL     1      12.880   5.072   5.011  1.00  0.00     0.040 A 
ATOM     10  C   UNL     1      14.275   5.029   5.062  1.00  0.00     0.014 A 
ATOM     11  C   UNL     1      14.993   6.222   5.139  1.00  0.00     0.004 A 
ATOM     12  C   UNL     1      12.203   6.292   5.096  1.00  0.00     0.014 A 
ATOM     13  C   UNL     1      14.325   7.455   5.173  1.00  0.00    -0.051 A 
ATOM     14  C   UNL     1      12.925   7.482   5.166  1.00  0.00     0.004 A 
ATOM     15  C   UNL     1      15.112   8.732   5.170  1.00  0.00     0.044 C 
ENDBRANCH   1   9
BRANCH   6  16
ATOM     16  C   UNL     1       9.895   1.672   4.509  1.00  0.00     0.153 C 
BRANCH  16  17
ATOM     17  C   UNL     1       8.438   1.411   4.247  1.00  0.00    -0.029 A 
ATOM     18  C   UNL     1       7.739   1.987   3.181  1.00  0.00     0.006 A 
ATOM     19  C   UNL     1       7.826   0.384   4.983  1.00  0.00     0.006 A 
ATOM     20  C   UNL     1       6.462   1.523   2.849  1.00  0.00     0.004 A 
ATOM     21  C   UNL     1       6.558  -0.080   4.649  1.00  0.00     0.004 A 
ATOM     22  C   UNL     1       5.869   0.478   3.571  1.00  0.00    -0.051 A 
ATOM     23  C   UNL     1       4.565  -0.120   3.133  1.00  0.00     0.044 C 
ENDBRANCH  16  17
ENDBRANCH   6  16
TORSDOF 3
ENDMDL
MODEL 9
REMARK VINA RESULT:    -4.481      4.078      5.067
REMARK INTER + INTRA:          -5.638
REMARK INTER:                  -5.283
REMARK INTRA:                  -0.355
REMARK UNBOUND:                -0.371
REMARK SMILES Cc1ccc(CNC(=O)NC(=O)c2ccc(C)cc2)cc1
REMARK SMILES IDX 11 1 12 2 10 3 8 4 9 5 7 6 13 9 19 10 18 11 14 12 16 13
REMARK SMILES IDX 15 14 17 15 6 16 5 17 4 18 20 19 3 20 21 21 2 22 1 23
REMARK H PARENT 10 7 7 8
ROOT
ATOM      1  C   UNL     1      12.820   1.957   6.437  1.00  0.00     0.259 C 
ATOM      2  O   UNL     1      13.462   2.996   6.517  1.00  0.00    -0.269 OA
ATOM      3  N   UNL     1      13.184   0.671   6.848  1.00  0.00    -0.274 N 
ATOM      4  C   UNL     1      14.147   0.092   7.634  1.00  0.00     0.321 C 
ATOM      5  O   UNL     1      14.047  -1.117   7.867  1.00  0.00    -0.248 OA
ATOM      6  N   UNL     1      15.168   0.775   8.184  1.00  0.00    -0.334 N 
ATOM      7  H   UNL     1      12.489  -0.039   6.657  1.00  0.00     0.175 HD
ATOM      8  H   UNL     1      15.740   0.221   8.805  1.00  0.00     0.165 HD
ENDROOT
BRANCH   1   9
ATOM      9  C   UNL     1      11.477   2.055   5.834  1.00  0.00     0.040 A 
ATOM     10  C   UNL     1      11.290   1.959   4.454  1.00  0.00     0.014 A 
ATOM     11  C   UNL     1       9.996   2.004   3.935  1.00  0.00     0.004 A 
ATOM     12  C   UNL     1      10.387   2.255   6.687  1.00  0.00     0.014 A 
ATOM     13  C   UNL     1       8.891   2.152   4.787  1.00  0.00    -0.051 A 
ATOM     14  C   UNL     1       9.096   2.293   6.165  1.00  0.00     0.004 A 
ATOM     15  C   UNL     1       7.502   2.114   4.221  1.00  0.00     0.044 C 
ENDBRANCH   1   9
BRANCH   6  16
ATOM     16  C   UNL     1      15.408   2.190   8.125  1.00  0.00     0.153 C 
BRANCH  16  17
ATOM     17  C   UNL     1      16.311   2.780   9.172  1.00  0.00    -0.029 A 
ATOM     18  C   UNL     1      16.320   2.350  10.503  1.00  0.00     0.006 A 
ATOM     19  C   UNL     1      17.324   3.648   8.733  1.00  0.00     0.006 A 
ATOM     20  C   UNL     1      17.341   2.764  11.366  1.00  0.00     0.004 A 
ATOM     21  C   UNL     1      18.341   4.055   9.591  1.00  0.00     0.004 A 
ATOM     22  C   UNL     1      18.364   3.609  10.913  1.00  0.00    -0.051 A 
ATOM     23  C   UNL     1      19.535   3.941  11.788  1.00  0.00     0.044 C 
ENDBRANCH  16  17
ENDBRANCH   6  16
TORSDOF 3
ENDMDL
