MODEL 1
REMARK VINA RESULT:    -6.053      0.000      0.000
REMARK INTER + INTRA:          -7.586
REMARK INTER:                  -7.114
REMARK INTRA:                  -0.471
REMARK UNBOUND:                -0.471
REMARK SMILES Cc1ccc(CNC(=O)NC(=O)c2ccc(C)cc2)cc1
REMARK SMILES IDX 11 1 12 2 10 3 8 4 9 5 7 6 13 9 19 10 18 11 14 12 16 13
REMARK SMILES IDX 15 14 17 15 6 16 5 17 4 18 20 19 3 20 21 21 2 22 1 23
REMARK H PARENT 10 7 7 8
ROOT
ATOM      1  C   UNL     1      -4.889 -12.132  -0.242  1.00  0.00     0.259 C 
ATOM      2  O   UNL     1      -5.167 -10.979   0.057  1.00  0.00    -0.269 OA
ATOM      3  N   UNL     1      -3.630 -12.703  -0.452  1.00  0.00    -0.274 N 
ATOM      4  C   UNL     1      -2.318 -12.380  -0.213  1.00  0.00     0.321 C 
ATOM      5  O   UNL     1      -1.465 -13.246  -0.435  1.00  0.00    -0.248 OA
ATOM      6  N   UNL     1      -1.922 -11.190   0.275  1.00  0.00    -0.334 N 
ATOM      7  H   UNL     1      -3.653 -13.679  -0.714  1.00  0.00     0.175 HD
ATOM      8  H   UNL     1      -0.933 -11.141   0.476  1.00  0.00     0.165 HD
ENDROOT
BRANCH   1   9
ATOM      9  C   UNL     1      -6.022 -13.064  -0.403  1.00  0.00     0.040 A 
ATOM     10  C   UNL     1      -7.222 -12.657  -0.989  1.00  0.00     0.014 A 
ATOM     11  C   UNL     1      -8.246 -13.588  -1.167  1.00  0.00     0.004 A 
ATOM     12  C   UNL     1      -5.864 -14.375   0.057  1.00  0.00     0.014 A 
ATOM     13  C   UNL     1      -8.078 -14.919  -0.756  1.00  0.00    -0.051 A 
ATOM     14  C   UNL     1      -6.887 -15.303  -0.129  1.00  0.00     0.004 A 
ATOM     15  C   UNL     1      -9.155 -15.927  -1.032  1.00  0.00     0.044 C 
ENDBRANCH   1   9
BRANCH   6  16
ATOM     16  C   UNL     1      -2.751 -10.095   0.694  1.00  0.00     0.153 C 
BRANCH  16  17
ATOM     17  C   UNL     1      -2.286  -8.707   0.350  1.00  0.00    -0.029 A 
ATOM     18  C   UNL     1      -1.410  -7.973   1.156  1.00  0.00     0.006 A 
ATOM     19  C   UNL     1      -2.586  -8.229  -0.936  1.00  0.00     0.006 A 
ATOM     20  C   UNL     1      -0.829  -6.797   0.669  1.00  0.00     0.004 A 
ATOM     21  C   UNL     1      -2.004  -7.062  -1.421  1.00  0.00     0.004 A 
ATOM     22  C   UNL     1      -1.112  -6.341  -0.626  1.00  0.00    -0.051 A 
ATOM     23  C   UNL     1      -0.386  -5.164  -1.205  1.00  0.00     0.044 C 
ENDBRANCH  16  17
ENDBRANCH   6  16
TORSDOF 3
ENDMDL
MODEL 2
REMARK VINA RESULT:    -6.050      0.543      8.038
REMARK INTER + INTRA:          -7.583
REMARK INTER:                  -7.200
REMARK INTRA:                  -0.383
REMARK UNBOUND:                -0.471
REMARK SMILES Cc1ccc(CNC(=O)NC(=O)c2ccc(C)cc2)cc1
REMARK SMILES IDX 11 1 12 2 10 3 8 4 9 5 7 6 13 9 19 10 18 11 14 12 16 13
REMARK SMILES IDX 15 14 17 15 6 16 5 17 4 18 20 19 3 20 21 21 2 22 1 23
REMARK H PARENT 10 7 7 8
ROOT
ATOM      1  C   UNL     1      -2.949  -9.967   0.091  1.00  0.00     0.259 C 
ATOM      2  O   UNL     1      -4.084  -9.918   0.543  1.00  0.00    -0.269 OA
ATOM      3  N   UNL     1      -2.185 -11.091  -0.239  1.00  0.00    -0.274 N 
ATOM      4  C   UNL     1      -2.389 -12.433  -0.432  1.00  0.00     0.321 C 
ATOM      5  O   UNL     1      -1.443 -13.101  -0.863  1.00  0.00    -0.248 OA
ATOM      6  N   UNL     1      -3.565 -13.048  -0.205  1.00  0.00    -0.334 N 
ATOM      7  H   UNL     1      -1.257 -10.879  -0.580  1.00  0.00     0.175 HD
ATOM      8  H   UNL     1      -3.575 -14.020  -0.477  1.00  0.00     0.165 HD
ENDROOT
BRANCH   1   9
ATOM      9  C   UNL     1      -2.278  -8.675  -0.152  1.00  0.00     0.040 A 
ATOM     10  C   UNL     1      -1.385  -8.133   0.773  1.00  0.00     0.014 A 
ATOM     11  C   UNL     1      -0.735  -6.935   0.476  1.00  0.00     0.004 A 
ATOM     12  C   UNL     1      -2.569  -7.997  -1.340  1.00  0.00     0.014 A 
ATOM     13  C   UNL     1      -0.981  -6.273  -0.737  1.00  0.00    -0.051 A 
ATOM     14  C   UNL     1      -1.914  -6.804  -1.636  1.00  0.00     0.004 A 
ATOM     15  C   UNL     1      -0.212  -5.031  -1.078  1.00  0.00     0.044 C 
ENDBRANCH   1   9
BRANCH   6  16
ATOM     16  C   UNL     1      -4.806 -12.445   0.194  1.00  0.00     0.153 C 
BRANCH  16  17
ATOM     17  C   UNL     1      -6.072 -13.177  -0.153  1.00  0.00    -0.029 A 
ATOM     18  C   UNL     1      -7.097 -12.610  -0.916  1.00  0.00     0.006 A 
ATOM     19  C   UNL     1      -6.117 -14.552   0.129  1.00  0.00     0.006 A 
ATOM     20  C   UNL     1      -8.133 -13.414  -1.406  1.00  0.00     0.004 A 
ATOM     21  C   UNL     1      -7.145 -15.351  -0.362  1.00  0.00     0.004 A 
ATOM     22  C   UNL     1      -8.156 -14.790  -1.143  1.00  0.00    -0.051 A 
ATOM     23  C   UNL     1      -9.181 -15.680  -1.781  1.00  0.00     0.044 C 
ENDBRANCH  16  17
ENDBRANCH   6  16
TORSDOF 3
ENDMDL
MODEL 3
REMARK VINA RESULT:    -6.025      3.161      7.323
REMARK INTER + INTRA:          -7.553
REMARK INTER:                  -7.182
REMARK INTRA:                  -0.370
REMARK UNBOUND:                -0.471
REMARK SMILES Cc1ccc(CNC(=O)NC(=O)c2ccc(C)cc2)cc1
REMARK SMILES IDX 11 1 12 2 10 3 8 4 9 5 7 6 13 9 19 10 18 11 14 12 16 13
REMARK SMILES IDX 15 14 17 15 6 16 5 17 4 18 20 19 3 20 21 21 2 22 1 23
REMARK H PARENT 10 7 7 8
ROOT
ATOM      1  C   UNL     1      -2.626 -10.067   0.250  1.00  0.00     0.259 C 
ATOM      2  O   UNL     1      -1.491 -10.147  -0.200  1.00  0.00    -0.269 OA
ATOM      3  N   UNL     1      -3.660 -11.006   0.187  1.00  0.00    -0.274 N 
ATOM      4  C   UNL     1      -3.805 -12.335  -0.118  1.00  0.00     0.321 C 
ATOM      5  O   UNL     1      -4.909 -12.853   0.084  1.00  0.00    -0.248 OA
ATOM      6  N   UNL     1      -2.807 -13.102  -0.593  1.00  0.00    -0.334 N 
ATOM      7  H   UNL     1      -4.525 -10.703   0.616  1.00  0.00     0.175 HD
ATOM      8  H   UNL     1      -3.052 -14.078  -0.685  1.00  0.00     0.165 HD
ENDROOT
BRANCH   1   9
ATOM      9  C   UNL     1      -2.968  -8.820   0.962  1.00  0.00     0.040 A 
ATOM     10  C   UNL     1      -3.668  -7.790   0.331  1.00  0.00     0.014 A 
ATOM     11  C   UNL     1      -4.015  -6.653   1.060  1.00  0.00     0.004 A 
ATOM     12  C   UNL     1      -2.564  -8.693   2.294  1.00  0.00     0.014 A 
ATOM     13  C   UNL     1      -3.659  -6.537   2.412  1.00  0.00    -0.051 A 
ATOM     14  C   UNL     1      -2.918  -7.558   3.021  1.00  0.00     0.004 A 
ATOM     15  C   UNL     1      -4.113  -5.347   3.205  1.00  0.00     0.044 C 
ENDBRANCH   1   9
BRANCH   6  16
ATOM     16  C   UNL     1      -1.436 -12.728  -0.800  1.00  0.00     0.153 C 
BRANCH  16  17
ATOM     17  C   UNL     1      -0.426 -13.837  -0.896  1.00  0.00    -0.029 A 
ATOM     18  C   UNL     1       0.702 -13.916  -0.073  1.00  0.00     0.006 A 
ATOM     19  C   UNL     1      -0.753 -14.937  -1.705  1.00  0.00     0.006 A 
ATOM     20  C   UNL     1       1.469 -15.086  -0.045  1.00  0.00     0.004 A 
ATOM     21  C   UNL     1       0.007 -16.102  -1.673  1.00  0.00     0.004 A 
ATOM     22  C   UNL     1       1.120 -16.190  -0.835  1.00  0.00    -0.051 A 
ATOM     23  C   UNL     1       1.850 -17.493  -0.705  1.00  0.00     0.044 C 
ENDBRANCH  16  17
ENDBRANCH   6  16
TORSDOF 3
ENDMDL
MODEL 4
REMARK VINA RESULT:    -6.024      3.055      5.458
REMARK INTER + INTRA:          -7.552
REMARK INTER:                  -7.079
REMARK INTRA:                  -0.474
REMARK UNBOUND:                -0.471
REMARK SMILES Cc1ccc(CNC(=O)NC(=O)c2ccc(C)cc2)cc1
REMARK SMILES IDX 11 1 12 2 10 3 8 4 9 5 7 6 13 9 19 10 18 11 14 12 16 13
REMARK SMILES IDX 15 14 17 15 6 16 5 17 4 18 20 19 3 20 21 21 2 22 1 23
REMARK H PARENT 10 7 7 8
ROOT
ATOM      1  C   UNL     1      -1.265 -12.651  -0.380  1.00  0.00     0.259 C 
ATOM      2  O   UNL     1      -0.695 -11.573  -0.286  1.00  0.00    -0.269 OA
ATOM      3  N   UNL     1      -2.633 -12.929  -0.288  1.00  0.00    -0.274 N 
ATOM      4  C   UNL     1      -3.813 -12.230  -0.309  1.00  0.00     0.321 C 
ATOM      5  O   UNL     1      -4.863 -12.879  -0.335  1.00  0.00    -0.248 OA
ATOM      6  N   UNL     1      -3.881 -10.886  -0.331  1.00  0.00    -0.334 N 
ATOM      7  H   UNL     1      -2.866 -13.909  -0.378  1.00  0.00     0.175 HD
ATOM      8  H   UNL     1      -4.820 -10.528  -0.432  1.00  0.00     0.165 HD
ENDROOT
BRANCH   1   9
ATOM      9  C   UNL     1      -0.413 -13.829  -0.629  1.00  0.00     0.040 A 
ATOM     10  C   UNL     1       0.805 -13.999   0.031  1.00  0.00     0.014 A 
ATOM     11  C   UNL     1       1.551 -15.156  -0.197  1.00  0.00     0.004 A 
ATOM     12  C   UNL     1      -0.857 -14.777  -1.556  1.00  0.00     0.014 A 
ATOM     13  C   UNL     1       1.090 -16.137  -1.087  1.00  0.00    -0.051 A 
ATOM     14  C   UNL     1      -0.112 -15.934  -1.777  1.00  0.00     0.004 A 
ATOM     15  C   UNL     1       1.861 -17.413  -1.258  1.00  0.00     0.044 C 
ENDBRANCH   1   9
BRANCH   6  16
ATOM     16  C   UNL     1      -2.791  -9.954  -0.409  1.00  0.00     0.153 C 
BRANCH  16  17
ATOM     17  C   UNL     1      -2.876  -8.720   0.446  1.00  0.00    -0.029 A 
ATOM     18  C   UNL     1      -3.385  -7.503  -0.019  1.00  0.00     0.006 A 
ATOM     19  C   UNL     1      -2.627  -8.871   1.820  1.00  0.00     0.006 A 
ATOM     20  C   UNL     1      -3.661  -6.469   0.882  1.00  0.00     0.004 A 
ATOM     21  C   UNL     1      -2.906  -7.843   2.716  1.00  0.00     0.004 A 
ATOM     22  C   UNL     1      -3.436  -6.637   2.255  1.00  0.00    -0.051 A 
ATOM     23  C   UNL     1      -3.861  -5.589   3.240  1.00  0.00     0.044 C 
ENDBRANCH  16  17
ENDBRANCH   6  16
TORSDOF 3
ENDMDL
MODEL 5
REMARK VINA RESULT:    -5.834      3.070      5.389
REMARK INTER + INTRA:          -7.329
REMARK INTER:                  -6.856
REMARK INTRA:                  -0.473
REMARK UNBOUND:                -0.471
REMARK SMILES Cc1ccc(CNC(=O)NC(=O)c2ccc(C)cc2)cc1
REMARK SMILES IDX 11 1 12 2 10 3 8 4 9 5 7 6 13 9 19 10 18 11 14 12 16 13
REMARK SMILES IDX 15 14 17 15 6 16 5 17 4 18 20 19 3 20 21 21 2 22 1 23
REMARK H PARENT 10 7 7 8
ROOT
ATOM      1  C   UNL     1      -1.136 -12.938  -0.671  1.00  0.00     0.259 C 
ATOM      2  O   UNL     1      -0.553 -11.880  -0.864  1.00  0.00    -0.269 OA
ATOM      3  N   UNL     1      -2.482 -13.152  -0.361  1.00  0.00    -0.274 N 
ATOM      4  C   UNL     1      -3.652 -12.437  -0.378  1.00  0.00     0.321 C 
ATOM      5  O   UNL     1      -4.701 -13.048  -0.147  1.00  0.00    -0.248 OA
ATOM      6  N   UNL     1      -3.717 -11.123  -0.660  1.00  0.00    -0.334 N 
ATOM      7  H   UNL     1      -2.729 -14.123  -0.224  1.00  0.00     0.175 HD
ATOM      8  H   UNL     1      -4.660 -10.765  -0.716  1.00  0.00     0.165 HD
ENDROOT
BRANCH   1   9
ATOM      9  C   UNL     1      -0.326 -14.167  -0.780  1.00  0.00     0.040 A 
ATOM     10  C   UNL     1      -0.673 -15.192  -1.662  1.00  0.00     0.014 A 
ATOM     11  C   UNL     1       0.152 -16.311  -1.768  1.00  0.00     0.004 A 
ATOM     12  C   UNL     1       0.805 -14.282   0.034  1.00  0.00     0.014 A 
ATOM     13  C   UNL     1       1.317 -16.414  -0.993  1.00  0.00    -0.051 A 
ATOM     14  C   UNL     1       1.630 -15.400  -0.080  1.00  0.00     0.004 A 
ATOM     15  C   UNL     1       2.238 -17.583  -1.180  1.00  0.00     0.044 C 
ENDBRANCH   1   9
BRANCH   6  16
ATOM     16  C   UNL     1      -2.641 -10.257  -1.054  1.00  0.00     0.153 C 
BRANCH  16  17
ATOM     17  C   UNL     1      -2.523  -8.937  -0.345  1.00  0.00    -0.029 A 
ATOM     18  C   UNL     1      -2.499  -7.709  -1.015  1.00  0.00     0.006 A 
ATOM     19  C   UNL     1      -2.656  -8.943   1.053  1.00  0.00     0.006 A 
ATOM     20  C   UNL     1      -2.631  -6.516  -0.297  1.00  0.00     0.004 A 
ATOM     21  C   UNL     1      -2.792  -7.757   1.766  1.00  0.00     0.004 A 
ATOM     22  C   UNL     1      -2.791  -6.532   1.096  1.00  0.00    -0.051 A 
ATOM     23  C   UNL     1      -3.075  -5.271   1.855  1.00  0.00     0.044 C 
ENDBRANCH  16  17
ENDBRANCH   6  16
TORSDOF 3
ENDMDL
MODEL 6
REMARK VINA RESULT:    -5.816      2.997      5.251
REMARK INTER + INTRA:          -7.307
REMARK INTER:                  -6.911
REMARK INTRA:                  -0.396
REMARK UNBOUND:                -0.471
REMARK SMILES Cc1ccc(CNC(=O)NC(=O)c2ccc(C)cc2)cc1
REMARK SMILES IDX 11 1 12 2 10 3 8 4 9 5 7 6 13 9 19 10 18 11 14 12 16 13
REMARK SMILES IDX 15 14 17 15 6 16 5 17 4 18 20 19 3 20 21 21 2 22 1 23
REMARK H PARENT 10 7 7 8
ROOT
ATOM      1  C   UNL     1      -1.066 -12.830  -0.572  1.00  0.00     0.259 C 
ATOM      2  O   UNL     1      -0.484 -11.759  -0.671  1.00  0.00    -0.269 OA
ATOM      3  N   UNL     1      -2.420 -13.071  -0.315  1.00  0.00    -0.274 N 
ATOM      4  C   UNL     1      -3.592 -12.359  -0.309  1.00  0.00     0.321 C 
ATOM      5  O   UNL     1      -4.644 -12.989  -0.153  1.00  0.00    -0.248 OA
ATOM      6  N   UNL     1      -3.656 -11.028  -0.495  1.00  0.00    -0.334 N 
ATOM      7  H   UNL     1      -2.665 -14.050  -0.257  1.00  0.00     0.175 HD
ATOM      8  H   UNL     1      -4.598 -10.669  -0.549  1.00  0.00     0.165 HD
ENDROOT
BRANCH   1   9
ATOM      9  C   UNL     1      -0.248 -14.045  -0.751  1.00  0.00     0.040 A 
ATOM     10  C   UNL     1       0.934 -14.239  -0.033  1.00  0.00     0.014 A 
ATOM     11  C   UNL     1       1.646 -15.428  -0.197  1.00  0.00     0.004 A 
ATOM     12  C   UNL     1      -0.687 -15.003  -1.671  1.00  0.00     0.014 A 
ATOM     13  C   UNL     1       1.187 -16.417  -1.079  1.00  0.00    -0.051 A 
ATOM     14  C   UNL     1       0.024 -16.191  -1.826  1.00  0.00     0.004 A 
ATOM     15  C   UNL     1       1.917 -17.724  -1.181  1.00  0.00     0.044 C 
ENDBRANCH   1   9
BRANCH   6  16
ATOM     16  C   UNL     1      -2.574 -10.133  -0.794  1.00  0.00     0.153 C 
BRANCH  16  17
ATOM     17  C   UNL     1      -2.649  -8.744  -0.223  1.00  0.00    -0.029 A 
ATOM     18  C   UNL     1      -2.646  -8.483   1.151  1.00  0.00     0.006 A 
ATOM     19  C   UNL     1      -2.504  -7.671  -1.118  1.00  0.00     0.006 A 
ATOM     20  C   UNL     1      -2.475  -7.174   1.615  1.00  0.00     0.004 A 
ATOM     21  C   UNL     1      -2.329  -6.371  -0.655  1.00  0.00     0.004 A 
ATOM     22  C   UNL     1      -2.303  -6.112   0.716  1.00  0.00    -0.051 A 
ATOM     23  C   UNL     1      -1.977  -4.732   1.205  1.00  0.00     0.044 C 
ENDBRANCH  16  17
ENDBRANCH   6  16
TORSDOF 3
ENDMDL
MODEL 7
REMARK VINA RESULT:    -5.749      0.983      1.465
REMARK INTER + INTRA:          -7.229
REMARK INTER:                  -6.827
REMARK INTRA:                  -0.402
REMARK UNBOUND:                -0.471
REMARK SMILES Cc1ccc(CNC(=O)NC(=O)c2ccc(C)cc2)cc1
REMARK SMILES IDX 11 1 12 2 10 3 8 4 9 5 7 6 13 9 19 10 18 11 14 12 16 13
REMARK SMILES IDX 15 14 17 15 6 16 5 17 4 18 20 19 3 20 21 21 2 22 1 23
REMARK H PARENT 10 7 7 8
ROOT
ATOM      1  C   UNL     1      -5.148 -12.301  -0.091  1.00  0.00     0.259 C 
ATOM      2  O   UNL     1      -5.450 -11.235   0.427  1.00  0.00    -0.269 OA
ATOM      3  N   UNL     1      -3.885 -12.760  -0.478  1.00  0.00    -0.274 N 
ATOM      4  C   UNL     1      -2.574 -12.418  -0.266  1.00  0.00     0.321 C 
ATOM      5  O   UNL     1      -1.705 -13.186  -0.693  1.00  0.00    -0.248 OA
ATOM      6  N   UNL     1      -2.192 -11.315   0.404  1.00  0.00    -0.334 N 
ATOM      7  H   UNL     1      -3.888 -13.674  -0.910  1.00  0.00     0.175 HD
ATOM      8  H   UNL     1      -1.194 -11.252   0.548  1.00  0.00     0.165 HD
ENDROOT
BRANCH   1   9
ATOM      9  C   UNL     1      -6.252 -13.247  -0.347  1.00  0.00     0.040 A 
ATOM     10  C   UNL     1      -7.432 -12.837  -0.972  1.00  0.00     0.014 A 
ATOM     11  C   UNL     1      -8.426 -13.778  -1.240  1.00  0.00     0.004 A 
ATOM     12  C   UNL     1      -6.088 -14.574   0.061  1.00  0.00     0.014 A 
ATOM     13  C   UNL     1      -8.249 -15.123  -0.881  1.00  0.00    -0.051 A 
ATOM     14  C   UNL     1      -7.080 -15.512  -0.215  1.00  0.00     0.004 A 
ATOM     15  C   UNL     1      -9.290 -16.138  -1.253  1.00  0.00     0.044 C 
ENDBRANCH   1   9
BRANCH   6  16
ATOM     16  C   UNL     1      -3.032 -10.355   1.064  1.00  0.00     0.153 C 
BRANCH  16  17
ATOM     17  C   UNL     1      -2.593  -8.918   1.033  1.00  0.00    -0.029 A 
ATOM     18  C   UNL     1      -2.386  -8.208  -0.155  1.00  0.00     0.006 A 
ATOM     19  C   UNL     1      -2.600  -8.217   2.250  1.00  0.00     0.006 A 
ATOM     20  C   UNL     1      -2.216  -6.820  -0.120  1.00  0.00     0.004 A 
ATOM     21  C   UNL     1      -2.436  -6.836   2.283  1.00  0.00     0.004 A 
ATOM     22  C   UNL     1      -2.252  -6.123   1.096  1.00  0.00    -0.051 A 
ATOM     23  C   UNL     1      -2.213  -4.625   1.129  1.00  0.00     0.044 C 
ENDBRANCH  16  17
ENDBRANCH   6  16
TORSDOF 3
ENDMDL
MODEL 8
REMARK VINA RESULT:    -4.790      1.958      8.143
REMARK INTER + INTRA:          -6.101
REMARK INTER:                  -5.709
REMARK INTRA:                  -0.392
REMARK UNBOUND:                -0.471
REMARK SMILES Cc1ccc(CNC(=O)NC(=O)c2ccc(C)cc2)cc1
REMARK SMILES IDX 11 1 12 2 10 3 8 4 9 5 7 6 13 9 19 10 18 11 14 12 16 13
REMARK SMILES IDX 15 14 17 15 6 16 5 17 4 18 20 19 3 20 21 21 2 22 1 23
REMARK H PARENT 10 7 7 8
ROOT
ATOM      1  C   UNL     1      -2.867  -8.874   0.355  1.00  0.00     0.259 C 
ATOM      2  O   UNL     1      -3.354  -9.551   1.250  1.00  0.00    -0.269 OA
ATOM      3  N   UNL     1      -2.544  -9.252  -0.952  1.00  0.00    -0.274 N 
ATOM      4  C   UNL     1      -2.809 -10.298  -1.799  1.00  0.00     0.321 C 
ATOM      5  O   UNL     1      -2.434 -10.195  -2.972  1.00  0.00    -0.248 OA
ATOM      6  N   UNL     1      -3.476 -11.406  -1.427  1.00  0.00    -0.334 N 
ATOM      7  H   UNL     1      -2.128  -8.517  -1.508  1.00  0.00     0.175 HD
ATOM      8  H   UNL     1      -3.664 -12.043  -2.188  1.00  0.00     0.165 HD
ENDROOT
BRANCH   1   9
ATOM      9  C   UNL     1      -2.578  -7.463   0.677  1.00  0.00     0.040 A 
ATOM     10  C   UNL     1      -1.474  -6.804   0.133  1.00  0.00     0.014 A 
ATOM     11  C   UNL     1      -1.271  -5.455   0.425  1.00  0.00     0.004 A 
ATOM     12  C   UNL     1      -3.441  -6.800   1.555  1.00  0.00     0.014 A 
ATOM     13  C   UNL     1      -2.161  -4.766   1.263  1.00  0.00    -0.051 A 
ATOM     14  C   UNL     1      -3.238  -5.451   1.838  1.00  0.00     0.004 A 
ATOM     15  C   UNL     1      -1.977  -3.296   1.499  1.00  0.00     0.044 C 
ENDBRANCH   1   9
BRANCH   6  16
ATOM     16  C   UNL     1      -4.082 -11.678  -0.154  1.00  0.00     0.153 C 
BRANCH  16  17
ATOM     17  C   UNL     1      -5.294 -12.568  -0.143  1.00  0.00    -0.029 A 
ATOM     18  C   UNL     1      -6.545 -12.160  -0.618  1.00  0.00     0.006 A 
ATOM     19  C   UNL     1      -5.094 -13.924   0.164  1.00  0.00     0.006 A 
ATOM     20  C   UNL     1      -7.564 -13.100  -0.804  1.00  0.00     0.004 A 
ATOM     21  C   UNL     1      -6.107 -14.858  -0.026  1.00  0.00     0.004 A 
ATOM     22  C   UNL     1      -7.348 -14.456  -0.522  1.00  0.00    -0.051 A 
ATOM     23  C   UNL     1      -8.385 -15.488  -0.852  1.00  0.00     0.044 C 
ENDBRANCH  16  17
ENDBRANCH   6  16
TORSDOF 3
ENDMDL
MODEL 9
REMARK VINA RESULT:    -4.667      2.063      8.189
REMARK INTER + INTRA:          -5.957
REMARK INTER:                  -5.450
REMARK INTRA:                  -0.507
REMARK UNBOUND:                -0.471
REMARK SMILES Cc1ccc(CNC(=O)NC(=O)c2ccc(C)cc2)cc1
REMARK SMILES IDX 11 1 12 2 10 3 8 4 9 5 7 6 13 9 19 10 18 11 14 12 16 13
REMARK SMILES IDX 15 14 17 15 6 16 5 17 4 18 20 19 3 20 21 21 2 22 1 23
REMARK H PARENT 10 7 7 8
ROOT
ATOM      1  C   UNL     1      -5.077 -12.671   0.133  1.00  0.00     0.259 C 
ATOM      2  O   UNL     1      -6.246 -12.363   0.318  1.00  0.00    -0.269 OA
ATOM      3  N   UNL     1      -4.527 -13.941  -0.066  1.00  0.00    -0.274 N 
ATOM      4  C   UNL     1      -4.974 -15.204  -0.361  1.00  0.00     0.321 C 
ATOM      5  O   UNL     1      -4.126 -16.071  -0.597  1.00  0.00    -0.248 OA
ATOM      6  N   UNL     1      -6.277 -15.533  -0.437  1.00  0.00    -0.334 N 
ATOM      7  H   UNL     1      -3.522 -13.948  -0.176  1.00  0.00     0.175 HD
ATOM      8  H   UNL     1      -6.439 -16.480  -0.749  1.00  0.00     0.165 HD
ENDROOT
BRANCH   1   9
ATOM      9  C   UNL     1      -4.098 -11.566   0.110  1.00  0.00     0.040 A 
ATOM     10  C   UNL     1      -3.515 -11.137  -1.084  1.00  0.00     0.014 A 
ATOM     11  C   UNL     1      -2.635 -10.054  -1.063  1.00  0.00     0.004 A 
ATOM     12  C   UNL     1      -3.762 -10.960   1.324  1.00  0.00     0.014 A 
ATOM     13  C   UNL     1      -2.331  -9.406   0.143  1.00  0.00    -0.051 A 
ATOM     14  C   UNL     1      -2.888  -9.875   1.339  1.00  0.00     0.004 A 
ATOM     15  C   UNL     1      -1.451  -8.191   0.137  1.00  0.00     0.044 C 
ENDBRANCH   1   9
BRANCH   6  16
ATOM     16  C   UNL     1      -7.410 -14.662  -0.303  1.00  0.00     0.153 C 
BRANCH  16  17
ATOM     17  C   UNL     1      -8.441 -14.698  -1.397  1.00  0.00    -0.029 A 
ATOM     18  C   UNL     1      -8.305 -13.995  -2.598  1.00  0.00     0.006 A 
ATOM     19  C   UNL     1      -9.472 -15.645  -1.278  1.00  0.00     0.006 A 
ATOM     20  C   UNL     1      -9.171 -14.257  -3.665  1.00  0.00     0.004 A 
ATOM     21  C   UNL     1     -10.330 -15.908  -2.341  1.00  0.00     0.004 A 
ATOM     22  C   UNL     1     -10.181 -15.223  -3.548  1.00  0.00    -0.051 A 
ATOM     23  C   UNL     1     -11.019 -15.610  -4.729  1.00  0.00     0.044 C 
ENDBRANCH  16  17
ENDBRANCH   6  16
TORSDOF 3
ENDMDL
