MODEL 1
REMARK VINA RESULT:    -6.182      0.000      0.000
REMARK INTER + INTRA:          -7.642
REMARK INTER:                  -7.266
REMARK INTRA:                  -0.376
REMARK UNBOUND:                -0.376
REMARK SMILES Cc1ccc(CNC(=O)NC(=O)c2ccc(C)cc2)cc1
REMARK SMILES IDX 11 1 12 2 10 3 8 4 9 5 7 6 13 9 19 10 18 11 14 12 16 13
REMARK SMILES IDX 15 14 17 15 6 16 5 17 4 18 20 19 3 20 21 21 2 22 1 23
REMARK H PARENT 10 7 7 8
ROOT
ATOM      1  C   UNL     1      -1.583   7.266  -5.576  1.00  0.00     0.259 C 
ATOM      2  O   UNL     1      -1.052   6.700  -6.521  1.00  0.00    -0.269 OA
ATOM      3  N   UNL     1      -2.157   8.540  -5.529  1.00  0.00    -0.274 N 
ATOM      4  C   UNL     1      -2.568   9.500  -6.419  1.00  0.00     0.321 C 
ATOM      5  O   UNL     1      -3.174  10.478  -5.968  1.00  0.00    -0.248 OA
ATOM      6  N   UNL     1      -2.372   9.415  -7.748  1.00  0.00    -0.334 N 
ATOM      7  H   UNL     1      -2.518   8.802  -4.622  1.00  0.00     0.175 HD
ATOM      8  H   UNL     1      -2.810  10.160  -8.271  1.00  0.00     0.165 HD
ENDROOT
BRANCH   1   9
ATOM      9  C   UNL     1      -1.640   6.518  -4.306  1.00  0.00     0.040 A 
ATOM     10  C   UNL     1      -0.742   6.774  -3.269  1.00  0.00     0.014 A 
ATOM     11  C   UNL     1      -0.868   6.078  -2.066  1.00  0.00     0.004 A 
ATOM     12  C   UNL     1      -2.622   5.531  -4.168  1.00  0.00     0.014 A 
ATOM     13  C   UNL     1      -1.882   5.123  -1.899  1.00  0.00    -0.051 A 
ATOM     14  C   UNL     1      -2.749   4.843  -2.963  1.00  0.00     0.004 A 
ATOM     15  C   UNL     1      -2.058   4.445  -0.573  1.00  0.00     0.044 C 
ENDBRANCH   1   9
BRANCH   6  16
ATOM     16  C   UNL     1      -1.790   8.327  -8.480  1.00  0.00     0.153 C 
BRANCH  16  17
ATOM     17  C   UNL     1      -2.116   8.227  -9.944  1.00  0.00    -0.029 A 
ATOM     18  C   UNL     1      -2.627   7.067 -10.535  1.00  0.00     0.006 A 
ATOM     19  C   UNL     1      -2.099   9.417 -10.689  1.00  0.00     0.006 A 
ATOM     20  C   UNL     1      -3.133   7.110 -11.839  1.00  0.00     0.004 A 
ATOM     21  C   UNL     1      -2.608   9.460 -11.984  1.00  0.00     0.004 A 
ATOM     22  C   UNL     1      -3.139   8.308 -12.566  1.00  0.00    -0.051 A 
ATOM     23  C   UNL     1      -3.808   8.395 -13.905  1.00  0.00     0.044 C 
ENDBRANCH  16  17
ENDBRANCH   6  16
TORSDOF 3
ENDMDL
MODEL 2
REMARK VINA RESULT:    -6.168      3.266      5.588
REMARK INTER + INTRA:          -7.625
REMARK INTER:                  -7.236
REMARK INTRA:                  -0.390
REMARK UNBOUND:                -0.376
REMARK SMILES Cc1ccc(CNC(=O)NC(=O)c2ccc(C)cc2)cc1
REMARK SMILES IDX 11 1 12 2 10 3 8 4 9 5 7 6 13 9 19 10 18 11 14 12 16 13
REMARK SMILES IDX 15 14 17 15 6 16 5 17 4 18 20 19 3 20 21 21 2 22 1 23
REMARK H PARENT 10 7 7 8
ROOT
ATOM      1  C   UNL     1      -1.501   7.614  -5.289  1.00  0.00     0.259 C 
ATOM      2  O   UNL     1      -2.094   8.155  -4.366  1.00  0.00    -0.269 OA
ATOM      3  N   UNL     1      -1.609   7.858  -6.662  1.00  0.00    -0.274 N 
ATOM      4  C   UNL     1      -2.136   8.823  -7.481  1.00  0.00     0.321 C 
ATOM      5  O   UNL     1      -1.900   8.741  -8.691  1.00  0.00    -0.248 OA
ATOM      6  N   UNL     1      -2.865   9.862  -7.033  1.00  0.00    -0.334 N 
ATOM      7  H   UNL     1      -1.028   7.264  -7.238  1.00  0.00     0.175 HD
ATOM      8  H   UNL     1      -3.106  10.530  -7.751  1.00  0.00     0.165 HD
ENDROOT
BRANCH   1   9
ATOM      9  C   UNL     1      -0.533   6.561  -4.926  1.00  0.00     0.040 A 
ATOM     10  C   UNL     1      -0.879   5.209  -4.965  1.00  0.00     0.014 A 
ATOM     11  C   UNL     1       0.086   4.247  -4.663  1.00  0.00     0.004 A 
ATOM     12  C   UNL     1       0.749   6.956  -4.530  1.00  0.00     0.014 A 
ATOM     13  C   UNL     1       1.390   4.631  -4.316  1.00  0.00    -0.051 A 
ATOM     14  C   UNL     1       1.711   5.992  -4.236  1.00  0.00     0.004 A 
ATOM     15  C   UNL     1       2.438   3.584  -4.077  1.00  0.00     0.044 C 
ENDBRANCH   1   9
BRANCH   6  16
ATOM     16  C   UNL     1      -3.165  10.199  -5.670  1.00  0.00     0.153 C 
BRANCH  16  17
ATOM     17  C   UNL     1      -3.432  11.646  -5.359  1.00  0.00    -0.029 A 
ATOM     18  C   UNL     1      -2.666  12.385  -4.452  1.00  0.00     0.006 A 
ATOM     19  C   UNL     1      -4.354  12.320  -6.176  1.00  0.00     0.006 A 
ATOM     20  C   UNL     1      -2.808  13.776  -4.387  1.00  0.00     0.004 A 
ATOM     21  C   UNL     1      -4.491  13.703  -6.113  1.00  0.00     0.004 A 
ATOM     22  C   UNL     1      -3.711  14.444  -5.224  1.00  0.00    -0.051 A 
ATOM     23  C   UNL     1      -3.766  15.942  -5.261  1.00  0.00     0.044 C 
ENDBRANCH  16  17
ENDBRANCH   6  16
TORSDOF 3
ENDMDL
MODEL 3
REMARK VINA RESULT:    -6.106      3.169      7.310
REMARK INTER + INTRA:          -7.553
REMARK INTER:                  -7.058
REMARK INTRA:                  -0.495
REMARK UNBOUND:                -0.376
REMARK SMILES Cc1ccc(CNC(=O)NC(=O)c2ccc(C)cc2)cc1
REMARK SMILES IDX 11 1 12 2 10 3 8 4 9 5 7 6 13 9 19 10 18 11 14 12 16 13
REMARK SMILES IDX 15 14 17 15 6 16 5 17 4 18 20 19 3 20 21 21 2 22 1 23
REMARK H PARENT 10 7 7 8
ROOT
ATOM      1  C   UNL     1      -2.638  10.220  -5.474  1.00  0.00     0.259 C 
ATOM      2  O   UNL     1      -2.428   9.622  -4.429  1.00  0.00    -0.269 OA
ATOM      3  N   UNL     1      -2.478   9.769  -6.788  1.00  0.00    -0.274 N 
ATOM      4  C   UNL     1      -2.294   8.573  -7.434  1.00  0.00     0.321 C 
ATOM      5  O   UNL     1      -2.333   8.577  -8.669  1.00  0.00    -0.248 OA
ATOM      6  N   UNL     1      -2.105   7.404  -6.795  1.00  0.00    -0.334 N 
ATOM      7  H   UNL     1      -2.696  10.459  -7.495  1.00  0.00     0.175 HD
ATOM      8  H   UNL     1      -2.073   6.605  -7.411  1.00  0.00     0.165 HD
ENDROOT
BRANCH   1   9
ATOM      9  C   UNL     1      -3.133  11.605  -5.355  1.00  0.00     0.040 A 
ATOM     10  C   UNL     1      -2.616  12.483  -4.400  1.00  0.00     0.014 A 
ATOM     11  C   UNL     1      -3.078  13.799  -4.360  1.00  0.00     0.004 A 
ATOM     12  C   UNL     1      -4.146  12.018  -6.225  1.00  0.00     0.014 A 
ATOM     13  C   UNL     1      -4.058  14.238  -5.263  1.00  0.00    -0.051 A 
ATOM     14  C   UNL     1      -4.601  13.335  -6.186  1.00  0.00     0.004 A 
ATOM     15  C   UNL     1      -4.483  15.677  -5.263  1.00  0.00     0.044 C 
ENDBRANCH   1   9
BRANCH   6  16
ATOM     16  C   UNL     1      -2.130   7.166  -5.379  1.00  0.00     0.153 C 
BRANCH  16  17
ATOM     17  C   UNL     1      -1.050   6.288  -4.809  1.00  0.00    -0.029 A 
ATOM     18  C   UNL     1      -1.179   4.901  -4.687  1.00  0.00     0.006 A 
ATOM     19  C   UNL     1       0.208   6.874  -4.592  1.00  0.00     0.006 A 
ATOM     20  C   UNL     1      -0.061   4.118  -4.378  1.00  0.00     0.004 A 
ATOM     21  C   UNL     1       1.319   6.094  -4.289  1.00  0.00     0.004 A 
ATOM     22  C   UNL     1       1.196   4.707  -4.190  1.00  0.00    -0.051 A 
ATOM     23  C   UNL     1       2.423   3.866  -4.000  1.00  0.00     0.044 C 
ENDBRANCH  16  17
ENDBRANCH   6  16
TORSDOF 3
ENDMDL
MODEL 4
REMARK VINA RESULT:    -6.096      0.545      8.013
REMARK INTER + INTRA:          -7.541
REMARK INTER:                  -7.043
REMARK INTRA:                  -0.498
REMARK UNBOUND:                -0.376
REMARK SMILES Cc1ccc(CNC(=O)NC(=O)c2ccc(C)cc2)cc1
REMARK SMILES IDX 11 1 12 2 10 3 8 4 9 5 7 6 13 9 19 10 18 11 14 12 16 13
REMARK SMILES IDX 15 14 17 15 6 16 5 17 4 18 20 19 3 20 21 21 2 22 1 23
REMARK H PARENT 10 7 7 8
ROOT
ATOM      1  C   UNL     1      -2.057   7.995  -8.280  1.00  0.00     0.259 C 
ATOM      2  O   UNL     1      -1.467   6.996  -7.894  1.00  0.00    -0.269 OA
ATOM      3  N   UNL     1      -2.535   9.074  -7.529  1.00  0.00    -0.274 N 
ATOM      4  C   UNL     1      -2.377   9.577  -6.264  1.00  0.00     0.321 C 
ATOM      5  O   UNL     1      -2.891  10.672  -6.014  1.00  0.00    -0.248 OA
ATOM      6  N   UNL     1      -1.671   8.957  -5.299  1.00  0.00    -0.334 N 
ATOM      7  H   UNL     1      -3.015   9.780  -8.072  1.00  0.00     0.175 HD
ATOM      8  H   UNL     1      -1.578   9.498  -4.452  1.00  0.00     0.165 HD
ENDROOT
BRANCH   1   9
ATOM      9  C   UNL     1      -2.303   8.098  -9.731  1.00  0.00     0.040 A 
ATOM     10  C   UNL     1      -2.699   6.990 -10.483  1.00  0.00     0.014 A 
ATOM     11  C   UNL     1      -2.971   7.148 -11.842  1.00  0.00     0.004 A 
ATOM     12  C   UNL     1      -2.120   9.343 -10.342  1.00  0.00     0.014 A 
ATOM     13  C   UNL     1      -2.841   8.404 -12.454  1.00  0.00    -0.051 A 
ATOM     14  C   UNL     1      -2.399   9.497 -11.698  1.00  0.00     0.004 A 
ATOM     15  C   UNL     1      -3.218   8.575 -13.896  1.00  0.00     0.044 C 
ENDBRANCH   1   9
BRANCH   6  16
ATOM     16  C   UNL     1      -0.916   7.741  -5.411  1.00  0.00     0.153 C 
BRANCH  16  17
ATOM     17  C   UNL     1      -1.066   6.733  -4.305  1.00  0.00    -0.029 A 
ATOM     18  C   UNL     1      -0.248   6.717  -3.171  1.00  0.00     0.006 A 
ATOM     19  C   UNL     1      -2.208   5.916  -4.329  1.00  0.00     0.006 A 
ATOM     20  C   UNL     1      -0.586   5.916  -2.075  1.00  0.00     0.004 A 
ATOM     21  C   UNL     1      -2.546   5.124  -3.237  1.00  0.00     0.004 A 
ATOM     22  C   UNL     1      -1.743   5.125  -2.095  1.00  0.00    -0.051 A 
ATOM     23  C   UNL     1      -2.188   4.376  -0.875  1.00  0.00     0.044 C 
ENDBRANCH  16  17
ENDBRANCH   6  16
TORSDOF 3
ENDMDL
MODEL 5
REMARK VINA RESULT:    -5.785      1.604      7.731
REMARK INTER + INTRA:          -7.175
REMARK INTER:                  -6.668
REMARK INTRA:                  -0.507
REMARK UNBOUND:                -0.376
REMARK SMILES Cc1ccc(CNC(=O)NC(=O)c2ccc(C)cc2)cc1
REMARK SMILES IDX 11 1 12 2 10 3 8 4 9 5 7 6 13 9 19 10 18 11 14 12 16 13
REMARK SMILES IDX 15 14 17 15 6 16 5 17 4 18 20 19 3 20 21 21 2 22 1 23
REMARK H PARENT 10 7 7 8
ROOT
ATOM      1  C   UNL     1      -1.797   8.301  -8.653  1.00  0.00     0.259 C 
ATOM      2  O   UNL     1      -0.823   7.600  -8.415  1.00  0.00    -0.269 OA
ATOM      3  N   UNL     1      -2.546   9.088  -7.772  1.00  0.00    -0.274 N 
ATOM      4  C   UNL     1      -2.423   9.579  -6.498  1.00  0.00     0.321 C 
ATOM      5  O   UNL     1      -3.278  10.381  -6.107  1.00  0.00    -0.248 OA
ATOM      6  N   UNL     1      -1.411   9.257  -5.670  1.00  0.00    -0.334 N 
ATOM      7  H   UNL     1      -3.327   9.566  -8.201  1.00  0.00     0.175 HD
ATOM      8  H   UNL     1      -1.419   9.769  -4.800  1.00  0.00     0.165 HD
ENDROOT
BRANCH   1   9
ATOM      9  C   UNL     1      -2.256   8.339 -10.055  1.00  0.00     0.040 A 
ATOM     10  C   UNL     1      -2.219   9.518 -10.802  1.00  0.00     0.014 A 
ATOM     11  C   UNL     1      -2.615   9.493 -12.139  1.00  0.00     0.004 A 
ATOM     12  C   UNL     1      -2.741   7.155 -10.619  1.00  0.00     0.014 A 
ATOM     13  C   UNL     1      -3.054   8.298 -12.730  1.00  0.00    -0.051 A 
ATOM     14  C   UNL     1      -3.130   7.133 -11.957  1.00  0.00     0.004 A 
ATOM     15  C   UNL     1      -3.395   8.269 -14.191  1.00  0.00     0.044 C 
ENDBRANCH   1   9
BRANCH   6  16
ATOM     16  C   UNL     1      -0.271   8.434  -5.960  1.00  0.00     0.153 C 
BRANCH  16  17
ATOM     17  C   UNL     1      -0.065   7.214  -5.105  1.00  0.00    -0.029 A 
ATOM     18  C   UNL     1      -1.005   6.183  -5.009  1.00  0.00     0.006 A 
ATOM     19  C   UNL     1       1.213   7.022  -4.555  1.00  0.00     0.006 A 
ATOM     20  C   UNL     1      -0.657   4.974  -4.395  1.00  0.00     0.004 A 
ATOM     21  C   UNL     1       1.559   5.818  -3.950  1.00  0.00     0.004 A 
ATOM     22  C   UNL     1       0.629   4.779  -3.873  1.00  0.00    -0.051 A 
ATOM     23  C   UNL     1       1.053   3.442  -3.344  1.00  0.00     0.044 C 
ENDBRANCH  16  17
ENDBRANCH   6  16
TORSDOF 3
ENDMDL
MODEL 6
REMARK VINA RESULT:    -5.142      1.327      1.472
REMARK INTER + INTRA:          -6.419
REMARK INTER:                  -5.957
REMARK INTRA:                  -0.463
REMARK UNBOUND:                -0.376
REMARK SMILES Cc1ccc(CNC(=O)NC(=O)c2ccc(C)cc2)cc1
REMARK SMILES IDX 11 1 12 2 10 3 8 4 9 5 7 6 13 9 19 10 18 11 14 12 16 13
REMARK SMILES IDX 15 14 17 15 6 16 5 17 4 18 20 19 3 20 21 21 2 22 1 23
REMARK H PARENT 10 7 7 8
ROOT
ATOM      1  C   UNL     1      -0.798   7.239  -5.343  1.00  0.00     0.259 C 
ATOM      2  O   UNL     1      -0.056   7.250  -6.315  1.00  0.00    -0.269 OA
ATOM      3  N   UNL     1      -1.936   8.015  -5.101  1.00  0.00    -0.274 N 
ATOM      4  C   UNL     1      -2.776   8.830  -5.814  1.00  0.00     0.321 C 
ATOM      5  O   UNL     1      -3.792   9.246  -5.245  1.00  0.00    -0.248 OA
ATOM      6  N   UNL     1      -2.568   9.172  -7.099  1.00  0.00    -0.334 N 
ATOM      7  H   UNL     1      -2.377   7.841  -4.208  1.00  0.00     0.175 HD
ATOM      8  H   UNL     1      -3.322   9.707  -7.505  1.00  0.00     0.165 HD
ENDROOT
BRANCH   1   9
ATOM      9  C   UNL     1      -0.467   6.280  -4.271  1.00  0.00     0.040 A 
ATOM     10  C   UNL     1      -0.896   6.481  -2.957  1.00  0.00     0.014 A 
ATOM     11  C   UNL     1      -0.604   5.520  -1.988  1.00  0.00     0.004 A 
ATOM     12  C   UNL     1       0.299   5.159  -4.605  1.00  0.00     0.014 A 
ATOM     13  C   UNL     1       0.120   4.366  -2.325  1.00  0.00    -0.051 A 
ATOM     14  C   UNL     1       0.583   4.199  -3.636  1.00  0.00     0.004 A 
ATOM     15  C   UNL     1       0.353   3.303  -1.292  1.00  0.00     0.044 C 
ENDBRANCH   1   9
BRANCH   6  16
ATOM     16  C   UNL     1      -1.518   8.720  -7.967  1.00  0.00     0.153 C 
BRANCH  16  17
ATOM     17  C   UNL     1      -1.892   8.377  -9.382  1.00  0.00    -0.029 A 
ATOM     18  C   UNL     1      -2.354   7.113  -9.765  1.00  0.00     0.006 A 
ATOM     19  C   UNL     1      -1.975   9.436 -10.300  1.00  0.00     0.006 A 
ATOM     20  C   UNL     1      -2.910   6.926 -11.035  1.00  0.00     0.004 A 
ATOM     21  C   UNL     1      -2.533   9.250 -11.561  1.00  0.00     0.004 A 
ATOM     22  C   UNL     1      -3.015   7.995 -11.936  1.00  0.00    -0.051 A 
ATOM     23  C   UNL     1      -3.737   7.836 -13.240  1.00  0.00     0.044 C 
ENDBRANCH  16  17
ENDBRANCH   6  16
TORSDOF 3
ENDMDL
MODEL 7
REMARK VINA RESULT:    -4.643      3.912      7.849
REMARK INTER + INTRA:          -5.833
REMARK INTER:                  -5.418
REMARK INTRA:                  -0.415
REMARK UNBOUND:                -0.376
REMARK SMILES Cc1ccc(CNC(=O)NC(=O)c2ccc(C)cc2)cc1
REMARK SMILES IDX 11 1 12 2 10 3 8 4 9 5 7 6 13 9 19 10 18 11 14 12 16 13
REMARK SMILES IDX 15 14 17 15 6 16 5 17 4 18 20 19 3 20 21 21 2 22 1 23
REMARK H PARENT 10 7 7 8
ROOT
ATOM      1  C   UNL     1      -2.625   9.305  -5.367  1.00  0.00     0.259 C 
ATOM      2  O   UNL     1      -1.423   9.091  -5.304  1.00  0.00    -0.269 OA
ATOM      3  N   UNL     1      -3.675   8.386  -5.457  1.00  0.00    -0.274 N 
ATOM      4  C   UNL     1      -3.858   7.038  -5.283  1.00  0.00     0.321 C 
ATOM      5  O   UNL     1      -5.016   6.606  -5.327  1.00  0.00    -0.248 OA
ATOM      6  N   UNL     1      -2.854   6.175  -5.040  1.00  0.00    -0.334 N 
ATOM      7  H   UNL     1      -4.593   8.805  -5.520  1.00  0.00     0.175 HD
ATOM      8  H   UNL     1      -3.165   5.233  -4.851  1.00  0.00     0.165 HD
ENDROOT
BRANCH   1   9
ATOM      9  C   UNL     1      -3.046  10.719  -5.342  1.00  0.00     0.040 A 
ATOM     10  C   UNL     1      -2.550  11.610  -4.389  1.00  0.00     0.014 A 
ATOM     11  C   UNL     1      -2.937  12.950  -4.438  1.00  0.00     0.004 A 
ATOM     12  C   UNL     1      -3.969  11.147  -6.302  1.00  0.00     0.014 A 
ATOM     13  C   UNL     1      -3.822  13.400  -5.429  1.00  0.00    -0.051 A 
ATOM     14  C   UNL     1      -4.348  12.487  -6.351  1.00  0.00     0.004 A 
ATOM     15  C   UNL     1      -4.162  14.858  -5.520  1.00  0.00     0.044 C 
ENDBRANCH   1   9
BRANCH   6  16
ATOM     16  C   UNL     1      -1.465   6.480  -4.849  1.00  0.00     0.153 C 
BRANCH  16  17
ATOM     17  C   UNL     1      -0.719   5.682  -3.815  1.00  0.00    -0.029 A 
ATOM     18  C   UNL     1      -1.069   5.671  -2.461  1.00  0.00     0.006 A 
ATOM     19  C   UNL     1       0.229   4.755  -4.279  1.00  0.00     0.006 A 
ATOM     20  C   UNL     1      -0.496   4.731  -1.598  1.00  0.00     0.004 A 
ATOM     21  C   UNL     1       0.794   3.818  -3.420  1.00  0.00     0.004 A 
ATOM     22  C   UNL     1       0.429   3.791  -2.073  1.00  0.00    -0.051 A 
ATOM     23  C   UNL     1       0.938   2.693  -1.188  1.00  0.00     0.044 C 
ENDBRANCH  16  17
ENDBRANCH   6  16
TORSDOF 3
ENDMDL
MODEL 8
REMARK VINA RESULT:    -4.639      1.922      8.193
REMARK INTER + INTRA:          -5.828
REMARK INTER:                  -5.409
REMARK INTRA:                  -0.419
REMARK UNBOUND:                -0.376
REMARK SMILES Cc1ccc(CNC(=O)NC(=O)c2ccc(C)cc2)cc1
REMARK SMILES IDX 11 1 12 2 10 3 8 4 9 5 7 6 13 9 19 10 18 11 14 12 16 13
REMARK SMILES IDX 15 14 17 15 6 16 5 17 4 18 20 19 3 20 21 21 2 22 1 23
REMARK H PARENT 10 7 7 8
ROOT
ATOM      1  C   UNL     1      -1.565   7.908  -7.509  1.00  0.00     0.259 C 
ATOM      2  O   UNL     1      -2.347   7.283  -6.806  1.00  0.00    -0.269 OA
ATOM      3  N   UNL     1      -0.356   8.512  -7.151  1.00  0.00    -0.274 N 
ATOM      4  C   UNL     1       0.517   8.483  -6.094  1.00  0.00     0.321 C 
ATOM      5  O   UNL     1       1.589   9.086  -6.218  1.00  0.00    -0.248 OA
ATOM      6  N   UNL     1       0.280   7.812  -4.951  1.00  0.00    -0.334 N 
ATOM      7  H   UNL     1       0.109   8.996  -7.908  1.00  0.00     0.175 HD
ATOM      8  H   UNL     1       1.058   7.819  -4.307  1.00  0.00     0.165 HD
ENDROOT
BRANCH   1   9
ATOM      9  C   UNL     1      -1.926   8.051  -8.933  1.00  0.00     0.040 A 
ATOM     10  C   UNL     1      -2.319   6.951  -9.698  1.00  0.00     0.014 A 
ATOM     11  C   UNL     1      -2.702   7.144 -11.026  1.00  0.00     0.004 A 
ATOM     12  C   UNL     1      -1.858   9.326  -9.503  1.00  0.00     0.014 A 
ATOM     13  C   UNL     1      -2.687   8.427 -11.593  1.00  0.00    -0.051 A 
ATOM     14  C   UNL     1      -2.248   9.515 -10.828  1.00  0.00     0.004 A 
ATOM     15  C   UNL     1      -3.182   8.630 -12.994  1.00  0.00     0.044 C 
ENDBRANCH   1   9
BRANCH   6  16
ATOM     16  C   UNL     1      -0.843   6.971  -4.646  1.00  0.00     0.153 C 
BRANCH  16  17
ATOM     17  C   UNL     1      -0.572   5.713  -3.868  1.00  0.00    -0.029 A 
ATOM     18  C   UNL     1       0.318   4.725  -4.302  1.00  0.00     0.006 A 
ATOM     19  C   UNL     1      -1.079   5.644  -2.561  1.00  0.00     0.006 A 
ATOM     20  C   UNL     1       0.707   3.703  -3.430  1.00  0.00     0.004 A 
ATOM     21  C   UNL     1      -0.687   4.629  -1.693  1.00  0.00     0.004 A 
ATOM     22  C   UNL     1       0.218   3.655  -2.117  1.00  0.00    -0.051 A 
ATOM     23  C   UNL     1       0.740   2.649  -1.135  1.00  0.00     0.044 C 
ENDBRANCH  16  17
ENDBRANCH   6  16
TORSDOF 3
ENDMDL
MODEL 9
REMARK VINA RESULT:    -4.479      5.200      9.896
REMARK INTER + INTRA:          -5.641
REMARK INTER:                  -5.061
REMARK INTRA:                  -0.580
REMARK UNBOUND:                -0.376
REMARK SMILES Cc1ccc(CNC(=O)NC(=O)c2ccc(C)cc2)cc1
REMARK SMILES IDX 11 1 12 2 10 3 8 4 9 5 7 6 13 9 19 10 18 11 14 12 16 13
REMARK SMILES IDX 15 14 17 15 6 16 5 17 4 18 20 19 3 20 21 21 2 22 1 23
REMARK H PARENT 10 7 7 8
ROOT
ATOM      1  C   UNL     1      -5.950  10.745 -13.601  1.00  0.00     0.259 C 
ATOM      2  O   UNL     1      -4.759  11.023 -13.624  1.00  0.00    -0.269 OA
ATOM      3  N   UNL     1      -6.559   9.493 -13.728  1.00  0.00    -0.274 N 
ATOM      4  C   UNL     1      -6.184   8.175 -13.685  1.00  0.00     0.321 C 
ATOM      5  O   UNL     1      -7.078   7.323 -13.711  1.00  0.00    -0.248 OA
ATOM      6  N   UNL     1      -4.905   7.768 -13.586  1.00  0.00    -0.334 N 
ATOM      7  H   UNL     1      -7.569   9.516 -13.699  1.00  0.00     0.175 HD
ATOM      8  H   UNL     1      -4.803   6.769 -13.478  1.00  0.00     0.165 HD
ENDROOT
BRANCH   1   9
ATOM      9  C   UNL     1      -6.887  11.869 -13.408  1.00  0.00     0.040 A 
ATOM     10  C   UNL     1      -8.179  11.838 -13.936  1.00  0.00     0.014 A 
ATOM     11  C   UNL     1      -9.046  12.901 -13.683  1.00  0.00     0.004 A 
ATOM     12  C   UNL     1      -6.441  12.978 -12.683  1.00  0.00     0.014 A 
ATOM     13  C   UNL     1      -8.626  13.995 -12.913  1.00  0.00    -0.051 A 
ATOM     14  C   UNL     1      -7.313  14.035 -12.427  1.00  0.00     0.004 A 
ATOM     15  C   UNL     1      -9.597  15.090 -12.578  1.00  0.00     0.044 C 
ENDBRANCH   1   9
BRANCH   6  16
ATOM     16  C   UNL     1      -3.734   8.586 -13.438  1.00  0.00     0.153 C 
BRANCH  16  17
ATOM     17  C   UNL     1      -2.957   8.454 -12.158  1.00  0.00    -0.029 A 
ATOM     18  C   UNL     1      -2.426   9.551 -11.471  1.00  0.00     0.006 A 
ATOM     19  C   UNL     1      -2.957   7.197 -11.532  1.00  0.00     0.006 A 
ATOM     20  C   UNL     1      -1.928   9.391 -10.174  1.00  0.00     0.004 A 
ATOM     21  C   UNL     1      -2.465   7.040 -10.240  1.00  0.00     0.004 A 
ATOM     22  C   UNL     1      -1.956   8.138  -9.545  1.00  0.00    -0.051 A 
ATOM     23  C   UNL     1      -1.557   7.987  -8.108  1.00  0.00     0.044 C 
ENDBRANCH  16  17
ENDBRANCH   6  16
TORSDOF 3
ENDMDL
