MODEL 1
REMARK VINA RESULT:    -4.171      0.000      0.000
REMARK INTER + INTRA:          -5.758
REMARK INTER:                  -5.513
REMARK INTRA:                  -0.245
REMARK UNBOUND:                -0.245
REMARK SMILES [H]/N=C\C[C@H]1C[C@@H]1O[C@H]1CO[C@H]2C[C@@H](C3CC3)CCN2C1
REMARK SMILES IDX 7 1 6 2 5 3 8 4 9 5 14 6 13 7 18 8 12 9 19 10 20 11 11 12
REMARK SMILES IDX 21 13 10 14 15 15 16 16 17 17 4 18 3 19 2 20 1 21
REMARK H PARENT
ROOT
ATOM      1  C   UNL     1      -2.286   7.896  -8.988  1.00  0.00     0.122 C 
ATOM      2  C   UNL     1      -1.764   8.784 -10.082  1.00  0.00     0.039 C 
ATOM      3  C   UNL     1      -2.041   7.335 -10.362  1.00  0.00     0.026 C 
ENDROOT
BRANCH   1   4
ATOM      4  O   UNL     1      -1.312   7.575  -7.977  1.00  0.00    -0.371 OA
BRANCH   4   5
ATOM      5  C   UNL     1      -1.008   8.632  -7.052  1.00  0.00     0.158 C 
ATOM      6  C   UNL     1      -0.795   5.803  -2.675  1.00  0.00    -0.003 C 
ATOM      7  C   UNL     1      -1.903   6.282  -3.620  1.00  0.00     0.052 C 
ATOM      8  C   UNL     1       0.489   5.559  -3.481  1.00  0.00     0.019 C 
ATOM      9  C   UNL     1      -1.455   7.485  -4.461  1.00  0.00     0.189 C 
ATOM     10  C   UNL     1       0.861   6.781  -4.321  1.00  0.00     0.087 C 
ATOM     11  N   UNL     1      -0.239   7.161  -5.207  1.00  0.00    -0.276 NA
ATOM     12  O   UNL     1      -2.545   7.808  -5.327  1.00  0.00    -0.360 OA
ATOM     13  C   UNL     1       0.134   8.279  -6.082  1.00  0.00     0.121 C 
ATOM     14  C   UNL     1      -2.257   8.899  -6.207  1.00  0.00     0.195 C 
BRANCH   6  15
ATOM     15  C   UNL     1      -1.202   4.550  -1.933  1.00  0.00    -0.008 C 
ATOM     16  C   UNL     1      -1.098   4.486  -0.428  1.00  0.00     0.004 C 
ATOM     17  C   UNL     1      -2.448   4.525  -1.082  1.00  0.00     0.004 C 
ENDBRANCH   6  15
ENDBRANCH   4   5
ENDBRANCH   1   4
BRANCH   3  18
ATOM     18  C   UNL     1      -3.195   6.974 -11.248  1.00  0.00     0.053 C 
BRANCH  18  19
ATOM     19  C   UNL     1      -3.246   7.659 -12.589  1.00  0.00     0.074 C 
BRANCH  19  20
ATOM     20  N   UNL     1      -2.820   7.169 -13.706  1.00  0.00    -0.313 NA
ATOM     21  H   UNL     1      -2.132   6.418 -13.554  1.00  0.00     0.186 HD
ENDBRANCH  19  20
ENDBRANCH  18  19
ENDBRANCH   3  18
TORSDOF 6
ENDMDL
MODEL 2
REMARK VINA RESULT:    -4.168      3.271      5.529
REMARK INTER + INTRA:          -5.753
REMARK INTER:                  -5.476
REMARK INTRA:                  -0.278
REMARK UNBOUND:                -0.245
REMARK SMILES [H]/N=C\C[C@H]1C[C@@H]1O[C@H]1CO[C@H]2C[C@@H](C3CC3)CCN2C1
REMARK SMILES IDX 7 1 6 2 5 3 8 4 9 5 14 6 13 7 18 8 12 9 19 10 20 11 11 12
REMARK SMILES IDX 21 13 10 14 15 15 16 16 17 17 4 18 3 19 2 20 1 21
REMARK H PARENT
ROOT
ATOM      1  C   UNL     1      -2.704  10.921  -5.375  1.00  0.00     0.122 C 
ATOM      2  C   UNL     1      -3.992  11.642  -5.652  1.00  0.00     0.039 C 
ATOM      3  C   UNL     1      -3.157  12.029  -4.465  1.00  0.00     0.026 C 
ENDROOT
BRANCH   1   4
ATOM      4  O   UNL     1      -2.876   9.576  -4.888  1.00  0.00    -0.371 OA
BRANCH   4   5
ATOM      5  C   UNL     1      -3.212   8.595  -5.884  1.00  0.00     0.158 C 
ATOM      6  C   UNL     1      -0.137   4.719  -4.231  1.00  0.00    -0.003 C 
ATOM      7  C   UNL     1       0.075   6.070  -4.926  1.00  0.00     0.052 C 
ATOM      8  C   UNL     1      -1.353   4.814  -3.299  1.00  0.00     0.019 C 
ATOM      9  C   UNL     1      -1.204   6.565  -5.614  1.00  0.00     0.189 C 
ATOM     10  C   UNL     1      -2.583   5.344  -4.037  1.00  0.00     0.087 C 
ATOM     11  N   UNL     1      -2.304   6.641  -4.653  1.00  0.00    -0.276 NA
ATOM     12  O   UNL     1      -0.896   7.840  -6.180  1.00  0.00    -0.360 OA
ATOM     13  C   UNL     1      -3.499   7.204  -5.291  1.00  0.00     0.121 C 
ATOM     14  C   UNL     1      -2.016   8.449  -6.830  1.00  0.00     0.195 C 
BRANCH   6  15
ATOM     15  C   UNL     1       1.091   4.292  -3.460  1.00  0.00    -0.008 C 
ATOM     16  C   UNL     1       1.750   2.964  -3.748  1.00  0.00     0.004 C 
ATOM     17  C   UNL     1       2.444   4.240  -4.127  1.00  0.00     0.004 C 
ENDBRANCH   6  15
ENDBRANCH   4   5
ENDBRANCH   1   4
BRANCH   3  18
ATOM     18  C   UNL     1      -2.450  13.352  -4.474  1.00  0.00     0.053 C 
BRANCH  18  19
ATOM     19  C   UNL     1      -3.309  14.564  -4.726  1.00  0.00     0.074 C 
BRANCH  19  20
ATOM     20  N   UNL     1      -4.003  15.197  -3.840  1.00  0.00    -0.313 NA
ATOM     21  H   UNL     1      -4.733  15.779  -4.274  1.00  0.00     0.186 HD
ENDBRANCH  19  20
ENDBRANCH  18  19
ENDBRANCH   3  18
TORSDOF 6
ENDMDL
MODEL 3
REMARK VINA RESULT:    -3.972      4.556      7.247
REMARK INTER + INTRA:          -5.494
REMARK INTER:                  -5.426
REMARK INTRA:                  -0.067
REMARK UNBOUND:                -0.245
REMARK SMILES [H]/N=C\C[C@H]1C[C@@H]1O[C@H]1CO[C@H]2C[C@@H](C3CC3)CCN2C1
REMARK SMILES IDX 7 1 6 2 5 3 8 4 9 5 14 6 13 7 18 8 12 9 19 10 20 11 11 12
REMARK SMILES IDX 21 13 10 14 15 15 16 16 17 17 4 18 3 19 2 20 1 21
REMARK H PARENT
ROOT
ATOM      1  C   UNL     1      -5.904  12.036 -12.910  1.00  0.00     0.122 C 
ATOM      2  C   UNL     1      -6.045  12.264 -14.389  1.00  0.00     0.039 C 
ATOM      3  C   UNL     1      -7.242  11.866 -13.575  1.00  0.00     0.026 C 
ENDROOT
BRANCH   1   4
ATOM      4  O   UNL     1      -5.196  10.830 -12.567  1.00  0.00    -0.371 OA
BRANCH   4   5
ATOM      5  C   UNL     1      -3.832  10.763 -13.015  1.00  0.00     0.158 C 
ATOM      6  C   UNL     1      -1.805   8.173  -8.967  1.00  0.00    -0.003 C 
ATOM      7  C   UNL     1      -2.333   9.592  -9.209  1.00  0.00     0.052 C 
ATOM      8  C   UNL     1      -2.590   7.184  -9.840  1.00  0.00     0.019 C 
ATOM      9  C   UNL     1      -2.343   9.949 -10.702  1.00  0.00     0.189 C 
ATOM     10  C   UNL     1      -2.591   7.614 -11.307  1.00  0.00     0.087 C 
ATOM     11  N   UNL     1      -3.124   8.968 -11.456  1.00  0.00    -0.276 NA
ATOM     12  O   UNL     1      -2.892  11.264 -10.804  1.00  0.00    -0.360 OA
ATOM     13  C   UNL     1      -3.213   9.362 -12.866  1.00  0.00     0.121 C 
ATOM     14  C   UNL     1      -3.001  11.722 -12.156  1.00  0.00     0.195 C 
BRANCH   6  15
ATOM     15  C   UNL     1      -1.904   7.786  -7.508  1.00  0.00    -0.008 C 
ATOM     16  C   UNL     1      -0.836   8.216  -6.530  1.00  0.00     0.004 C 
ATOM     17  C   UNL     1      -2.207   8.822  -6.452  1.00  0.00     0.004 C 
ENDBRANCH   6  15
ENDBRANCH   4   5
ENDBRANCH   1   4
BRANCH   3  18
ATOM     18  C   UNL     1      -8.332  12.870 -13.347  1.00  0.00     0.053 C 
BRANCH  18  19
ATOM     19  C   UNL     1      -9.713  12.467 -13.795  1.00  0.00     0.074 C 
BRANCH  19  20
ATOM     20  N   UNL     1     -10.695  12.140 -13.023  1.00  0.00    -0.313 NA
ATOM     21  H   UNL     1     -11.304  12.945 -12.821  1.00  0.00     0.186 HD
ENDBRANCH  19  20
ENDBRANCH  18  19
ENDBRANCH   3  18
TORSDOF 6
ENDMDL
MODEL 4
REMARK VINA RESULT:    -3.950      3.028      4.547
REMARK INTER + INTRA:          -5.465
REMARK INTER:                  -5.631
REMARK INTRA:                   0.166
REMARK UNBOUND:                -0.245
REMARK SMILES [H]/N=C\C[C@H]1C[C@@H]1O[C@H]1CO[C@H]2C[C@@H](C3CC3)CCN2C1
REMARK SMILES IDX 7 1 6 2 5 3 8 4 9 5 14 6 13 7 18 8 12 9 19 10 20 11 11 12
REMARK SMILES IDX 21 13 10 14 15 15 16 16 17 17 4 18 3 19 2 20 1 21
REMARK H PARENT
ROOT
ATOM      1  C   UNL     1      -3.684  10.720  -4.765  1.00  0.00     0.122 C 
ATOM      2  C   UNL     1      -2.973  12.001  -4.430  1.00  0.00     0.039 C 
ATOM      3  C   UNL     1      -3.495  11.775  -5.820  1.00  0.00     0.026 C 
ENDROOT
BRANCH   1   4
ATOM      4  O   UNL     1      -2.818   9.571  -4.840  1.00  0.00    -0.371 OA
BRANCH   4   5
ATOM      5  C   UNL     1      -3.164   8.599  -5.840  1.00  0.00     0.158 C 
ATOM      6  C   UNL     1      -0.079   4.706  -4.247  1.00  0.00    -0.003 C 
ATOM      7  C   UNL     1       0.129   6.062  -4.932  1.00  0.00     0.052 C 
ATOM      8  C   UNL     1      -1.287   4.795  -3.303  1.00  0.00     0.019 C 
ATOM      9  C   UNL     1      -1.156   6.564  -5.606  1.00  0.00     0.189 C 
ATOM     10  C   UNL     1      -2.522   5.332  -4.026  1.00  0.00     0.087 C 
ATOM     11  N   UNL     1      -2.247   6.634  -4.634  1.00  0.00    -0.276 NA
ATOM     12  O   UNL     1      -0.852   7.844  -6.163  1.00  0.00    -0.360 OA
ATOM     13  C   UNL     1      -3.447   7.204  -5.257  1.00  0.00     0.121 C 
ATOM     14  C   UNL     1      -1.976   8.460  -6.799  1.00  0.00     0.195 C 
BRANCH   6  15
ATOM     15  C   UNL     1       1.155   4.271  -3.490  1.00  0.00    -0.008 C 
ATOM     16  C   UNL     1       1.758   2.908  -3.731  1.00  0.00     0.004 C 
ATOM     17  C   UNL     1       2.485   4.137  -4.192  1.00  0.00     0.004 C 
ENDBRANCH   6  15
ENDBRANCH   4   5
ENDBRANCH   1   4
BRANCH   3  18
ATOM     18  C   UNL     1      -4.664  12.584  -6.298  1.00  0.00     0.053 C 
BRANCH  18  19
ATOM     19  C   UNL     1      -4.789  12.758  -7.789  1.00  0.00     0.074 C 
BRANCH  19  20
ATOM     20  N   UNL     1      -4.221  12.024  -8.687  1.00  0.00    -0.313 NA
ATOM     21  H   UNL     1      -3.368  11.573  -8.326  1.00  0.00     0.186 HD
ENDBRANCH  19  20
ENDBRANCH  18  19
ENDBRANCH   3  18
TORSDOF 6
ENDMDL
MODEL 5
REMARK VINA RESULT:    -3.842      1.467      1.705
REMARK INTER + INTRA:          -5.322
REMARK INTER:                  -5.322
REMARK INTRA:                  -0.000
REMARK UNBOUND:                -0.245
REMARK SMILES [H]/N=C\C[C@H]1C[C@@H]1O[C@H]1CO[C@H]2C[C@@H](C3CC3)CCN2C1
REMARK SMILES IDX 7 1 6 2 5 3 8 4 9 5 14 6 13 7 18 8 12 9 19 10 20 11 11 12
REMARK SMILES IDX 21 13 10 14 15 15 16 16 17 17 4 18 3 19 2 20 1 21
REMARK H PARENT
ROOT
ATOM      1  C   UNL     1      -1.251   7.976  -9.226  1.00  0.00     0.122 C 
ATOM      2  C   UNL     1      -1.896   7.016 -10.185  1.00  0.00     0.039 C 
ATOM      3  C   UNL     1      -2.430   8.413 -10.051  1.00  0.00     0.026 C 
ENDROOT
BRANCH   1   4
ATOM      4  O   UNL     1      -1.508   7.682  -7.839  1.00  0.00    -0.371 OA
BRANCH   4   5
ATOM      5  C   UNL     1      -1.127   8.708  -6.908  1.00  0.00     0.158 C 
ATOM      6  C   UNL     1      -0.798   5.777  -2.606  1.00  0.00    -0.003 C 
ATOM      7  C   UNL     1      -1.934   6.311  -3.487  1.00  0.00     0.052 C 
ATOM      8  C   UNL     1       0.438   5.512  -3.477  1.00  0.00     0.019 C 
ATOM      9  C   UNL     1      -1.488   7.518  -4.323  1.00  0.00     0.189 C 
ATOM     10  C   UNL     1       0.808   6.740  -4.308  1.00  0.00     0.087 C 
ATOM     11  N   UNL     1      -0.319   7.174  -5.133  1.00  0.00    -0.276 NA
ATOM     12  O   UNL     1      -2.607   7.894  -5.128  1.00  0.00    -0.360 OA
ATOM     13  C   UNL     1       0.047   8.299  -6.001  1.00  0.00     0.121 C 
ATOM     14  C   UNL     1      -2.327   8.994  -5.998  1.00  0.00     0.195 C 
BRANCH   6  15
ATOM     15  C   UNL     1      -1.209   4.521  -1.872  1.00  0.00    -0.008 C 
ATOM     16  C   UNL     1      -1.062   4.430  -0.371  1.00  0.00     0.004 C 
ATOM     17  C   UNL     1      -2.430   4.508  -0.984  1.00  0.00     0.004 C 
ENDBRANCH   6  15
ENDBRANCH   4   5
ENDBRANCH   1   4
BRANCH   3  18
ATOM     18  C   UNL     1      -2.243   9.375 -11.186  1.00  0.00     0.053 C 
BRANCH  18  19
ATOM     19  C   UNL     1      -2.550  10.820 -10.893  1.00  0.00     0.074 C 
BRANCH  19  20
ATOM     20  N   UNL     1      -3.086  11.276  -9.810  1.00  0.00    -0.313 NA
ATOM     21  H   UNL     1      -2.887  10.669  -9.003  1.00  0.00     0.186 HD
ENDBRANCH  19  20
ENDBRANCH  18  19
ENDBRANCH   3  18
TORSDOF 6
ENDMDL
MODEL 6
REMARK VINA RESULT:    -3.742      3.661      5.142
REMARK INTER + INTRA:          -5.190
REMARK INTER:                  -4.961
REMARK INTRA:                  -0.229
REMARK UNBOUND:                -0.245
REMARK SMILES [H]/N=C\C[C@H]1C[C@@H]1O[C@H]1CO[C@H]2C[C@@H](C3CC3)CCN2C1
REMARK SMILES IDX 7 1 6 2 5 3 8 4 9 5 14 6 13 7 18 8 12 9 19 10 20 11 11 12
REMARK SMILES IDX 21 13 10 14 15 15 16 16 17 17 4 18 3 19 2 20 1 21
REMARK H PARENT
ROOT
ATOM      1  C   UNL     1      -4.235   7.211 -12.261  1.00  0.00     0.122 C 
ATOM      2  C   UNL     1      -5.335   6.214 -12.494  1.00  0.00     0.039 C 
ATOM      3  C   UNL     1      -5.657   7.678 -12.407  1.00  0.00     0.026 C 
ENDROOT
BRANCH   1   4
ATOM      4  O   UNL     1      -3.697   7.191 -10.926  1.00  0.00    -0.371 OA
BRANCH   4   5
ATOM      5  C   UNL     1      -2.306   7.536 -10.813  1.00  0.00     0.158 C 
ATOM      6  C   UNL     1      -2.413   9.676  -6.057  1.00  0.00    -0.003 C 
ATOM      7  C   UNL     1      -2.906  10.077  -7.453  1.00  0.00     0.052 C 
ATOM      8  C   UNL     1      -2.488   8.150  -5.911  1.00  0.00     0.019 C 
ATOM      9  C   UNL     1      -2.172   9.306  -8.559  1.00  0.00     0.189 C 
ATOM     10  C   UNL     1      -1.769   7.443  -7.060  1.00  0.00     0.087 C 
ATOM     11  N   UNL     1      -2.309   7.864  -8.353  1.00  0.00    -0.276 NA
ATOM     12  O   UNL     1      -2.745   9.727  -9.799  1.00  0.00    -0.360 OA
ATOM     13  C   UNL     1      -1.689   7.130  -9.462  1.00  0.00     0.121 C 
ATOM     14  C   UNL     1      -2.181   9.058 -10.932  1.00  0.00     0.195 C 
BRANCH   6  15
ATOM     15  C   UNL     1      -3.217  10.353  -4.970  1.00  0.00    -0.008 C 
ATOM     16  C   UNL     1      -2.765  11.677  -4.399  1.00  0.00     0.004 C 
ATOM     17  C   UNL     1      -3.996  11.614  -5.256  1.00  0.00     0.004 C 
ENDBRANCH   6  15
ENDBRANCH   4   5
ENDBRANCH   1   4
BRANCH   3  18
ATOM     18  C   UNL     1      -6.092   8.401 -13.648  1.00  0.00     0.053 C 
BRANCH  18  19
ATOM     19  C   UNL     1      -6.639   9.791 -13.452  1.00  0.00     0.074 C 
BRANCH  19  20
ATOM     20  N   UNL     1      -6.520  10.508 -12.384  1.00  0.00    -0.313 NA
ATOM     21  H   UNL     1      -5.775  11.212 -12.481  1.00  0.00     0.186 HD
ENDBRANCH  19  20
ENDBRANCH  18  19
ENDBRANCH   3  18
TORSDOF 6
ENDMDL
MODEL 7
REMARK VINA RESULT:    -3.703      3.309      5.360
REMARK INTER + INTRA:          -5.139
REMARK INTER:                  -5.305
REMARK INTRA:                   0.166
REMARK UNBOUND:                -0.245
REMARK SMILES [H]/N=C\C[C@H]1C[C@@H]1O[C@H]1CO[C@H]2C[C@@H](C3CC3)CCN2C1
REMARK SMILES IDX 7 1 6 2 5 3 8 4 9 5 14 6 13 7 18 8 12 9 19 10 20 11 11 12
REMARK SMILES IDX 21 13 10 14 15 15 16 16 17 17 4 18 3 19 2 20 1 21
REMARK H PARENT
ROOT
ATOM      1  C   UNL     1      -3.046  10.852  -5.215  1.00  0.00     0.122 C 
ATOM      2  C   UNL     1      -3.388  11.200  -3.793  1.00  0.00     0.039 C 
ATOM      3  C   UNL     1      -2.781  12.238  -4.693  1.00  0.00     0.026 C 
ENDROOT
BRANCH   1   4
ATOM      4  O   UNL     1      -1.905   9.984  -5.348  1.00  0.00    -0.371 OA
BRANCH   4   5
ATOM      5  C   UNL     1      -1.973   9.031  -6.422  1.00  0.00     0.158 C 
ATOM      6  C   UNL     1      -1.469   4.660  -3.622  1.00  0.00    -0.003 C 
ATOM      7  C   UNL     1      -0.542   5.807  -4.043  1.00  0.00     0.052 C 
ATOM      8  C   UNL     1      -2.894   5.199  -3.439  1.00  0.00     0.019 C 
ATOM      9  C   UNL     1      -1.088   6.561  -5.264  1.00  0.00     0.189 C 
ATOM     10  C   UNL     1      -3.364   5.967  -4.674  1.00  0.00     0.087 C 
ATOM     11  N   UNL     1      -2.439   7.054  -4.998  1.00  0.00    -0.276 NA
ATOM     12  O   UNL     1      -0.172   7.625  -5.530  1.00  0.00    -0.360 OA
ATOM     13  C   UNL     1      -2.921   7.855  -6.129  1.00  0.00     0.121 C 
ATOM     14  C   UNL     1      -0.572   8.447  -6.630  1.00  0.00     0.195 C 
BRANCH   6  15
ATOM     15  C   UNL     1      -0.986   3.994  -2.353  1.00  0.00    -0.008 C 
ATOM     16  C   UNL     1       0.441   3.510  -2.239  1.00  0.00     0.004 C 
ATOM     17  C   UNL     1      -0.013   4.694  -1.435  1.00  0.00     0.004 C 
ENDBRANCH   6  15
ENDBRANCH   4   5
ENDBRANCH   1   4
BRANCH   3  18
ATOM     18  C   UNL     1      -3.627  13.391  -5.146  1.00  0.00     0.053 C 
BRANCH  18  19
ATOM     19  C   UNL     1      -3.456  14.681  -4.387  1.00  0.00     0.074 C 
BRANCH  19  20
ATOM     20  N   UNL     1      -4.361  15.587  -4.221  1.00  0.00    -0.313 NA
ATOM     21  H   UNL     1      -4.847  15.805  -5.102  1.00  0.00     0.186 HD
ENDBRANCH  19  20
ENDBRANCH  18  19
ENDBRANCH   3  18
TORSDOF 6
ENDMDL
MODEL 8
REMARK VINA RESULT:    -3.689      2.779      8.407
REMARK INTER + INTRA:          -5.120
REMARK INTER:                  -5.164
REMARK INTRA:                   0.044
REMARK UNBOUND:                -0.245
REMARK SMILES [H]/N=C\C[C@H]1C[C@@H]1O[C@H]1CO[C@H]2C[C@@H](C3CC3)CCN2C1
REMARK SMILES IDX 7 1 6 2 5 3 8 4 9 5 14 6 13 7 18 8 12 9 19 10 20 11 11 12
REMARK SMILES IDX 21 13 10 14 15 15 16 16 17 17 4 18 3 19 2 20 1 21
REMARK H PARENT
ROOT
ATOM      1  C   UNL     1      -2.126   8.224  -6.580  1.00  0.00     0.122 C 
ATOM      2  C   UNL     1      -2.911   9.030  -5.584  1.00  0.00     0.039 C 
ATOM      3  C   UNL     1      -3.214   7.571  -5.772  1.00  0.00     0.026 C 
ENDROOT
BRANCH   1   4
ATOM      4  O   UNL     1      -2.435   8.526  -7.954  1.00  0.00    -0.371 OA
BRANCH   4   5
ATOM      5  C   UNL     1      -1.375   8.287  -8.894  1.00  0.00     0.158 C 
ATOM      6  C   UNL     1      -4.198   8.326 -13.280  1.00  0.00    -0.003 C 
ATOM      7  C   UNL     1      -4.025   7.370 -12.094  1.00  0.00     0.052 C 
ATOM      8  C   UNL     1      -4.021   9.772 -12.796  1.00  0.00     0.019 C 
ATOM      9  C   UNL     1      -2.709   7.623 -11.345  1.00  0.00     0.189 C 
ATOM     10  C   UNL     1      -2.710   9.949 -12.030  1.00  0.00     0.087 C 
ATOM     11  N   UNL     1      -2.632   9.016 -10.906  1.00  0.00    -0.276 NA
ATOM     12  O   UNL     1      -2.684   6.711 -10.245  1.00  0.00    -0.360 OA
ATOM     13  C   UNL     1      -1.419   9.231 -10.109  1.00  0.00     0.121 C 
ATOM     14  C   UNL     1      -1.521   6.857  -9.424  1.00  0.00     0.195 C 
BRANCH   6  15
ATOM     15  C   UNL     1      -5.545   8.149 -13.944  1.00  0.00    -0.008 C 
ATOM     16  C   UNL     1      -5.884   6.859 -14.653  1.00  0.00     0.004 C 
ATOM     17  C   UNL     1      -6.574   7.208 -13.366  1.00  0.00     0.004 C 
ENDBRANCH   6  15
ENDBRANCH   4   5
ENDBRANCH   1   4
BRANCH   3  18
ATOM     18  C   UNL     1      -2.867   6.609  -4.675  1.00  0.00     0.053 C 
BRANCH  18  19
ATOM     19  C   UNL     1      -3.851   5.495  -4.430  1.00  0.00     0.074 C 
BRANCH  19  20
ATOM     20  N   UNL     1      -5.135   5.620  -4.362  1.00  0.00    -0.313 NA
ATOM     21  H   UNL     1      -5.476   6.373  -4.976  1.00  0.00     0.186 HD
ENDBRANCH  19  20
ENDBRANCH  18  19
ENDBRANCH   3  18
TORSDOF 6
ENDMDL
MODEL 9
REMARK VINA RESULT:    -3.342      5.689      7.191
REMARK INTER + INTRA:          -4.662
REMARK INTER:                  -4.295
REMARK INTRA:                  -0.367
REMARK UNBOUND:                -0.245
REMARK SMILES [H]/N=C\C[C@H]1C[C@@H]1O[C@H]1CO[C@H]2C[C@@H](C3CC3)CCN2C1
REMARK SMILES IDX 7 1 6 2 5 3 8 4 9 5 14 6 13 7 18 8 12 9 19 10 20 11 11 12
REMARK SMILES IDX 21 13 10 14 15 15 16 16 17 17 4 18 3 19 2 20 1 21
REMARK H PARENT
ROOT
ATOM      1  C   UNL     1      -4.449  15.615  -9.999  1.00  0.00     0.122 C 
ATOM      2  C   UNL     1      -3.381  16.188 -10.887  1.00  0.00     0.039 C 
ATOM      3  C   UNL     1      -3.641  14.709 -10.888  1.00  0.00     0.026 C 
ENDROOT
BRANCH   1   4
ATOM      4  O   UNL     1      -4.110  15.614  -8.599  1.00  0.00    -0.371 OA
BRANCH   4   5
ATOM      5  C   UNL     1      -5.197  15.348  -7.698  1.00  0.00     0.158 C 
ATOM      6  C   UNL     1      -3.309  11.040  -5.443  1.00  0.00    -0.003 C 
ATOM      7  C   UNL     1      -3.886  11.397  -6.818  1.00  0.00     0.052 C 
ATOM      8  C   UNL     1      -2.570  12.259  -4.872  1.00  0.00     0.019 C 
ATOM      9  C   UNL     1      -4.735  12.675  -6.766  1.00  0.00     0.189 C 
ATOM     10  C   UNL     1      -3.458  13.504  -4.879  1.00  0.00     0.087 C 
ATOM     11  N   UNL     1      -3.952  13.786  -6.226  1.00  0.00    -0.276 NA
ATOM     12  O   UNL     1      -5.176  12.927  -8.101  1.00  0.00    -0.360 OA
ATOM     13  C   UNL     1      -4.734  15.027  -6.266  1.00  0.00     0.121 C 
ATOM     14  C   UNL     1      -5.956  14.122  -8.217  1.00  0.00     0.195 C 
BRANCH   6  15
ATOM     15  C   UNL     1      -2.382   9.848  -5.523  1.00  0.00    -0.008 C 
ATOM     16  C   UNL     1      -2.938   8.444  -5.469  1.00  0.00     0.004 C 
ATOM     17  C   UNL     1      -2.356   8.969  -6.750  1.00  0.00     0.004 C 
ENDBRANCH   6  15
ENDBRANCH   4   5
ENDBRANCH   1   4
BRANCH   3  18
ATOM     18  C   UNL     1      -4.268  14.082 -12.097  1.00  0.00     0.053 C 
BRANCH  18  19
ATOM     19  C   UNL     1      -4.743  12.661 -11.940  1.00  0.00     0.074 C 
BRANCH  19  20
ATOM     20  N   UNL     1      -5.521  12.221 -11.008  1.00  0.00    -0.313 NA
ATOM     21  H   UNL     1      -5.390  11.212 -10.849  1.00  0.00     0.186 HD
ENDBRANCH  19  20
ENDBRANCH  18  19
ENDBRANCH   3  18
TORSDOF 6
ENDMDL
