MODEL 1
REMARK VINA RESULT:    -5.947      0.000      0.000
REMARK INTER + INTRA:          -7.370
REMARK INTER:                  -6.990
REMARK INTRA:                  -0.380
REMARK UNBOUND:                -0.380
REMARK SMILES Cc1ccc(CNC(=O)NC(=O)c2ccc(C)cc2)cc1
REMARK SMILES IDX 11 1 12 2 10 3 8 4 9 5 7 6 13 9 19 10 18 11 14 12 16 13
REMARK SMILES IDX 15 14 17 15 6 16 5 17 4 18 20 19 3 20 21 21 2 22 1 23
REMARK H PARENT 10 7 7 8
ROOT
ATOM      1  C   UNL     1     -10.617   3.264   1.686  1.00  0.00     0.259 C 
ATOM      2  O   UNL     1     -10.382   3.376   2.881  1.00  0.00    -0.269 OA
ATOM      3  N   UNL     1     -11.841   3.034   1.052  1.00  0.00    -0.274 N 
ATOM      4  C   UNL     1     -13.174   3.077   1.375  1.00  0.00     0.321 C 
ATOM      5  O   UNL     1     -13.991   2.929   0.460  1.00  0.00    -0.248 OA
ATOM      6  N   UNL     1     -13.630   3.300   2.622  1.00  0.00    -0.334 N 
ATOM      7  H   UNL     1     -11.782   2.956   0.046  1.00  0.00     0.175 HD
ATOM      8  H   UNL     1     -14.635   3.387   2.677  1.00  0.00     0.165 HD
ENDROOT
BRANCH   1   9
ATOM      9  C   UNL     1      -9.464   3.389   0.773  1.00  0.00     0.040 A 
ATOM     10  C   UNL     1      -8.816   2.264   0.260  1.00  0.00     0.014 A 
ATOM     11  C   UNL     1      -7.765   2.433  -0.642  1.00  0.00     0.004 A 
ATOM     12  C   UNL     1      -9.030   4.675   0.437  1.00  0.00     0.014 A 
ATOM     13  C   UNL     1      -7.355   3.718  -1.026  1.00  0.00    -0.051 A 
ATOM     14  C   UNL     1      -7.984   4.839  -0.469  1.00  0.00     0.004 A 
ATOM     15  C   UNL     1      -6.280   3.882  -2.060  1.00  0.00     0.044 C 
ENDBRANCH   1   9
BRANCH   6  16
ATOM     16  C   UNL     1     -12.861   3.596   3.797  1.00  0.00     0.153 C 
BRANCH  16  17
ATOM     17  C   UNL     1     -13.557   4.324   4.912  1.00  0.00    -0.029 A 
ATOM     18  C   UNL     1     -13.091   5.531   5.445  1.00  0.00     0.006 A 
ATOM     19  C   UNL     1     -14.835   3.870   5.277  1.00  0.00     0.006 A 
ATOM     20  C   UNL     1     -13.904   6.277   6.305  1.00  0.00     0.004 A 
ATOM     21  C   UNL     1     -15.644   4.615   6.129  1.00  0.00     0.004 A 
ATOM     22  C   UNL     1     -15.189   5.831   6.643  1.00  0.00    -0.051 A 
ATOM     23  C   UNL     1     -16.118   6.690   7.448  1.00  0.00     0.044 C 
ENDBRANCH  16  17
ENDBRANCH   6  16
TORSDOF 3
ENDMDL
MODEL 2
REMARK VINA RESULT:    -5.937      3.223      5.502
REMARK INTER + INTRA:          -7.358
REMARK INTER:                  -6.978
REMARK INTRA:                  -0.380
REMARK UNBOUND:                -0.380
REMARK SMILES Cc1ccc(CNC(=O)NC(=O)c2ccc(C)cc2)cc1
REMARK SMILES IDX 11 1 12 2 10 3 8 4 9 5 7 6 13 9 19 10 18 11 14 12 16 13
REMARK SMILES IDX 15 14 17 15 6 16 5 17 4 18 20 19 3 20 21 21 2 22 1 23
REMARK H PARENT 10 7 7 8
ROOT
ATOM      1  C   UNL     1     -10.691   2.967   1.417  1.00  0.00     0.259 C 
ATOM      2  O   UNL     1     -10.967   2.862   0.230  1.00  0.00    -0.269 OA
ATOM      3  N   UNL     1     -11.526   3.323   2.481  1.00  0.00    -0.274 N 
ATOM      4  C   UNL     1     -12.871   3.447   2.716  1.00  0.00     0.321 C 
ATOM      5  O   UNL     1     -13.233   3.665   3.877  1.00  0.00    -0.248 OA
ATOM      6  N   UNL     1     -13.809   3.315   1.760  1.00  0.00    -0.334 N 
ATOM      7  H   UNL     1     -11.062   3.365   3.379  1.00  0.00     0.175 HD
ATOM      8  H   UNL     1     -14.755   3.349   2.110  1.00  0.00     0.165 HD
ENDROOT
BRANCH   1   9
ATOM      9  C   UNL     1      -9.295   2.681   1.799  1.00  0.00     0.040 A 
ATOM     10  C   UNL     1      -8.361   3.705   1.967  1.00  0.00     0.014 A 
ATOM     11  C   UNL     1      -7.066   3.389   2.380  1.00  0.00     0.004 A 
ATOM     12  C   UNL     1      -8.926   1.345   1.983  1.00  0.00     0.014 A 
ATOM     13  C   UNL     1      -6.700   2.055   2.618  1.00  0.00    -0.051 A 
ATOM     14  C   UNL     1      -7.633   1.034   2.402  1.00  0.00     0.004 A 
ATOM     15  C   UNL     1      -5.330   1.740   3.143  1.00  0.00     0.044 C 
ENDBRANCH   1   9
BRANCH   6  16
ATOM     16  C   UNL     1     -13.611   2.963   0.382  1.00  0.00     0.153 C 
BRANCH  16  17
ATOM     17  C   UNL     1     -14.774   2.349  -0.347  1.00  0.00    -0.029 A 
ATOM     18  C   UNL     1     -14.707   1.104  -0.981  1.00  0.00     0.006 A 
ATOM     19  C   UNL     1     -16.027   2.967  -0.195  1.00  0.00     0.006 A 
ATOM     20  C   UNL     1     -15.878   0.483  -1.429  1.00  0.00     0.004 A 
ATOM     21  C   UNL     1     -17.190   2.346  -0.637  1.00  0.00     0.004 A 
ATOM     22  C   UNL     1     -17.127   1.093  -1.249  1.00  0.00    -0.051 A 
ATOM     23  C   UNL     1     -18.395   0.372  -1.597  1.00  0.00     0.044 C 
ENDBRANCH  16  17
ENDBRANCH   6  16
TORSDOF 3
ENDMDL
MODEL 3
REMARK VINA RESULT:    -5.888      3.121      7.324
REMARK INTER + INTRA:          -7.300
REMARK INTER:                  -6.814
REMARK INTRA:                  -0.486
REMARK UNBOUND:                -0.380
REMARK SMILES Cc1ccc(CNC(=O)NC(=O)c2ccc(C)cc2)cc1
REMARK SMILES IDX 11 1 12 2 10 3 8 4 9 5 7 6 13 9 19 10 18 11 14 12 16 13
REMARK SMILES IDX 15 14 17 15 6 16 5 17 4 18 20 19 3 20 21 21 2 22 1 23
REMARK H PARENT 10 7 7 8
ROOT
ATOM      1  C   UNL     1     -13.385   2.542   0.471  1.00  0.00     0.259 C 
ATOM      2  O   UNL     1     -12.365   2.403  -0.189  1.00  0.00    -0.269 OA
ATOM      3  N   UNL     1     -13.524   3.009   1.782  1.00  0.00    -0.274 N 
ATOM      4  C   UNL     1     -12.757   3.667   2.709  1.00  0.00     0.321 C 
ATOM      5  O   UNL     1     -13.308   4.033   3.753  1.00  0.00    -0.248 OA
ATOM      6  N   UNL     1     -11.455   3.957   2.528  1.00  0.00    -0.334 N 
ATOM      7  H   UNL     1     -14.475   3.015   2.124  1.00  0.00     0.175 HD
ATOM      8  H   UNL     1     -11.057   4.520   3.266  1.00  0.00     0.165 HD
ENDROOT
BRANCH   1   9
ATOM      9  C   UNL     1     -14.654   2.179  -0.190  1.00  0.00     0.040 A 
ATOM     10  C   UNL     1     -14.751   1.053  -1.010  1.00  0.00     0.014 A 
ATOM     11  C   UNL     1     -15.984   0.720  -1.571  1.00  0.00     0.004 A 
ATOM     12  C   UNL     1     -15.764   3.001   0.022  1.00  0.00     0.014 A 
ATOM     13  C   UNL     1     -17.116   1.510  -1.322  1.00  0.00    -0.051 A 
ATOM     14  C   UNL     1     -16.995   2.661  -0.535  1.00  0.00     0.004 A 
ATOM     15  C   UNL     1     -18.452   1.091  -1.862  1.00  0.00     0.044 C 
ENDBRANCH   1   9
BRANCH   6  16
ATOM     16  C   UNL     1     -10.659   3.716   1.358  1.00  0.00     0.153 C 
BRANCH  16  17
ATOM     17  C   UNL     1      -9.267   3.186   1.568  1.00  0.00    -0.029 A 
ATOM     18  C   UNL     1      -8.153   4.014   1.736  1.00  0.00     0.006 A 
ATOM     19  C   UNL     1      -9.133   1.810   1.812  1.00  0.00     0.006 A 
ATOM     20  C   UNL     1      -6.936   3.472   2.164  1.00  0.00     0.004 A 
ATOM     21  C   UNL     1      -7.924   1.273   2.243  1.00  0.00     0.004 A 
ATOM     22  C   UNL     1      -6.817   2.101   2.433  1.00  0.00    -0.051 A 
ATOM     23  C   UNL     1      -5.562   1.538   3.028  1.00  0.00     0.044 C 
ENDBRANCH  16  17
ENDBRANCH   6  16
TORSDOF 3
ENDMDL
MODEL 4
REMARK VINA RESULT:    -5.696      3.048      7.827
REMARK INTER + INTRA:          -7.075
REMARK INTER:                  -6.625
REMARK INTRA:                  -0.451
REMARK UNBOUND:                -0.380
REMARK SMILES Cc1ccc(CNC(=O)NC(=O)c2ccc(C)cc2)cc1
REMARK SMILES IDX 11 1 12 2 10 3 8 4 9 5 7 6 13 9 19 10 18 11 14 12 16 13
REMARK SMILES IDX 15 14 17 15 6 16 5 17 4 18 20 19 3 20 21 21 2 22 1 23
REMARK H PARENT 10 7 7 8
ROOT
ATOM      1  C   UNL     1     -13.400   2.581   0.276  1.00  0.00     0.259 C 
ATOM      2  O   UNL     1     -12.483   2.555  -0.533  1.00  0.00    -0.269 OA
ATOM      3  N   UNL     1     -13.363   2.924   1.631  1.00  0.00    -0.274 N 
ATOM      4  C   UNL     1     -12.495   3.540   2.497  1.00  0.00     0.321 C 
ATOM      5  O   UNL     1     -12.901   3.785   3.638  1.00  0.00    -0.248 OA
ATOM      6  N   UNL     1     -11.247   3.914   2.159  1.00  0.00    -0.334 N 
ATOM      7  H   UNL     1     -14.253   2.850   2.105  1.00  0.00     0.175 HD
ATOM      8  H   UNL     1     -10.768   4.432   2.882  1.00  0.00     0.165 HD
ENDROOT
BRANCH   1   9
ATOM      9  C   UNL     1     -14.736   2.208  -0.228  1.00  0.00     0.040 A 
ATOM     10  C   UNL     1     -15.860   2.993   0.038  1.00  0.00     0.014 A 
ATOM     11  C   UNL     1     -17.093   2.628  -0.503  1.00  0.00     0.004 A 
ATOM     12  C   UNL     1     -14.851   1.034  -0.979  1.00  0.00     0.014 A 
ATOM     13  C   UNL     1     -17.208   1.480  -1.302  1.00  0.00    -0.051 A 
ATOM     14  C   UNL     1     -16.083   0.677  -1.524  1.00  0.00     0.004 A 
ATOM     15  C   UNL     1     -18.522   1.148  -1.947  1.00  0.00     0.044 C 
ENDBRANCH   1   9
BRANCH   6  16
ATOM     16  C   UNL     1     -10.623   3.819   0.870  1.00  0.00     0.153 C 
BRANCH  16  17
ATOM     17  C   UNL     1      -9.208   3.312   0.825  1.00  0.00    -0.029 A 
ATOM     18  C   UNL     1      -8.708   2.538  -0.228  1.00  0.00     0.006 A 
ATOM     19  C   UNL     1      -8.312   3.820   1.778  1.00  0.00     0.006 A 
ATOM     20  C   UNL     1      -7.332   2.302  -0.331  1.00  0.00     0.004 A 
ATOM     21  C   UNL     1      -6.944   3.590   1.672  1.00  0.00     0.004 A 
ATOM     22  C   UNL     1      -6.441   2.837   0.609  1.00  0.00    -0.051 A 
ATOM     23  C   UNL     1      -4.958   2.709   0.427  1.00  0.00     0.044 C 
ENDBRANCH  16  17
ENDBRANCH   6  16
TORSDOF 3
ENDMDL
MODEL 5
REMARK VINA RESULT:    -5.684      1.076      7.952
REMARK INTER + INTRA:          -7.061
REMARK INTER:                  -6.571
REMARK INTRA:                  -0.490
REMARK UNBOUND:                -0.380
REMARK SMILES Cc1ccc(CNC(=O)NC(=O)c2ccc(C)cc2)cc1
REMARK SMILES IDX 11 1 12 2 10 3 8 4 9 5 7 6 13 9 19 10 18 11 14 12 16 13
REMARK SMILES IDX 15 14 17 15 6 16 5 17 4 18 20 19 3 20 21 21 2 22 1 23
REMARK H PARENT 10 7 7 8
ROOT
ATOM      1  C   UNL     1     -12.801   3.815   3.974  1.00  0.00     0.259 C 
ATOM      2  O   UNL     1     -11.687   3.482   4.352  1.00  0.00    -0.269 OA
ATOM      3  N   UNL     1     -13.378   3.663   2.709  1.00  0.00    -0.274 N 
ATOM      4  C   UNL     1     -13.126   2.961   1.558  1.00  0.00     0.321 C 
ATOM      5  O   UNL     1     -13.982   2.994   0.667  1.00  0.00    -0.248 OA
ATOM      6  N   UNL     1     -12.018   2.221   1.365  1.00  0.00    -0.334 N 
ATOM      7  H   UNL     1     -14.313   4.040   2.629  1.00  0.00     0.175 HD
ATOM      8  H   UNL     1     -12.024   1.698   0.501  1.00  0.00     0.165 HD
ENDROOT
BRANCH   1   9
ATOM      9  C   UNL     1     -13.673   4.462   4.974  1.00  0.00     0.040 A 
ATOM     10  C   UNL     1     -13.268   5.610   5.658  1.00  0.00     0.014 A 
ATOM     11  C   UNL     1     -14.147   6.216   6.555  1.00  0.00     0.004 A 
ATOM     12  C   UNL     1     -14.922   3.887   5.226  1.00  0.00     0.014 A 
ATOM     13  C   UNL     1     -15.423   5.677   6.777  1.00  0.00    -0.051 A 
ATOM     14  C   UNL     1     -15.799   4.500   6.119  1.00  0.00     0.004 A 
ATOM     15  C   UNL     1     -16.387   6.388   7.681  1.00  0.00     0.044 C 
ENDBRANCH   1   9
BRANCH   6  16
ATOM     16  C   UNL     1     -10.960   1.967   2.302  1.00  0.00     0.153 C 
BRANCH  16  17
ATOM     17  C   UNL     1      -9.558   2.280   1.860  1.00  0.00    -0.029 A 
ATOM     18  C   UNL     1      -8.519   1.344   1.898  1.00  0.00     0.006 A 
ATOM     19  C   UNL     1      -9.351   3.497   1.190  1.00  0.00     0.006 A 
ATOM     20  C   UNL     1      -7.307   1.617   1.254  1.00  0.00     0.004 A 
ATOM     21  C   UNL     1      -8.147   3.764   0.546  1.00  0.00     0.004 A 
ATOM     22  C   UNL     1      -7.118   2.822   0.564  1.00  0.00    -0.051 A 
ATOM     23  C   UNL     1      -5.879   3.061  -0.247  1.00  0.00     0.044 C 
ENDBRANCH  16  17
ENDBRANCH   6  16
TORSDOF 3
ENDMDL
MODEL 6
REMARK VINA RESULT:    -5.068      1.279      1.499
REMARK INTER + INTRA:          -6.337
REMARK INTER:                  -5.877
REMARK INTRA:                  -0.460
REMARK UNBOUND:                -0.380
REMARK SMILES Cc1ccc(CNC(=O)NC(=O)c2ccc(C)cc2)cc1
REMARK SMILES IDX 11 1 12 2 10 3 8 4 9 5 7 6 13 9 19 10 18 11 14 12 16 13
REMARK SMILES IDX 15 14 17 15 6 16 5 17 4 18 20 19 3 20 21 21 2 22 1 23
REMARK H PARENT 10 7 7 8
ROOT
ATOM      1  C   UNL     1     -10.128   2.819   1.992  1.00  0.00     0.259 C 
ATOM      2  O   UNL     1     -10.258   2.510   3.168  1.00  0.00    -0.269 OA
ATOM      3  N   UNL     1     -11.116   3.143   1.057  1.00  0.00    -0.274 N 
ATOM      4  C   UNL     1     -12.448   3.473   1.064  1.00  0.00     0.321 C 
ATOM      5  O   UNL     1     -12.953   3.837  -0.004  1.00  0.00    -0.248 OA
ATOM      6  N   UNL     1     -13.215   3.450   2.169  1.00  0.00    -0.334 N 
ATOM      7  H   UNL     1     -10.764   3.345   0.131  1.00  0.00     0.175 HD
ATOM      8  H   UNL     1     -14.150   3.802   2.023  1.00  0.00     0.165 HD
ENDROOT
BRANCH   1   9
ATOM      9  C   UNL     1      -8.749   2.864   1.470  1.00  0.00     0.040 A 
ATOM     10  C   UNL     1      -7.689   3.325   2.254  1.00  0.00     0.014 A 
ATOM     11  C   UNL     1      -6.394   3.300   1.735  1.00  0.00     0.004 A 
ATOM     12  C   UNL     1      -8.529   2.438   0.157  1.00  0.00     0.014 A 
ATOM     13  C   UNL     1      -6.155   2.825   0.437  1.00  0.00    -0.051 A 
ATOM     14  C   UNL     1      -7.233   2.409  -0.355  1.00  0.00     0.004 A 
ATOM     15  C   UNL     1      -4.749   2.726  -0.075  1.00  0.00     0.044 C 
ENDBRANCH   1   9
BRANCH   6  16
ATOM     16  C   UNL     1     -12.805   3.161   3.514  1.00  0.00     0.153 C 
BRANCH  16  17
ATOM     17  C   UNL     1     -13.377   4.017   4.609  1.00  0.00    -0.029 A 
ATOM     18  C   UNL     1     -12.775   5.202   5.046  1.00  0.00     0.006 A 
ATOM     19  C   UNL     1     -14.675   3.713   5.053  1.00  0.00     0.006 A 
ATOM     20  C   UNL     1     -13.473   6.072   5.890  1.00  0.00     0.004 A 
ATOM     21  C   UNL     1     -15.369   4.582   5.888  1.00  0.00     0.004 A 
ATOM     22  C   UNL     1     -14.778   5.775   6.306  1.00  0.00    -0.051 A 
ATOM     23  C   UNL     1     -15.582   6.767   7.092  1.00  0.00     0.044 C 
ENDBRANCH  16  17
ENDBRANCH   6  16
TORSDOF 3
ENDMDL
MODEL 7
REMARK VINA RESULT:    -5.059      3.068      5.157
REMARK INTER + INTRA:          -6.326
REMARK INTER:                  -5.898
REMARK INTRA:                  -0.428
REMARK UNBOUND:                -0.380
REMARK SMILES Cc1ccc(CNC(=O)NC(=O)c2ccc(C)cc2)cc1
REMARK SMILES IDX 11 1 12 2 10 3 8 4 9 5 7 6 13 9 19 10 18 11 14 12 16 13
REMARK SMILES IDX 15 14 17 15 6 16 5 17 4 18 20 19 3 20 21 21 2 22 1 23
REMARK H PARENT 10 7 7 8
ROOT
ATOM      1  C   UNL     1     -10.485   3.306   0.925  1.00  0.00     0.259 C 
ATOM      2  O   UNL     1     -11.056   3.427  -0.150  1.00  0.00    -0.269 OA
ATOM      3  N   UNL     1     -11.028   3.346   2.213  1.00  0.00    -0.274 N 
ATOM      4  C   UNL     1     -12.270   3.286   2.791  1.00  0.00     0.321 C 
ATOM      5  O   UNL     1     -12.326   3.217   4.024  1.00  0.00    -0.248 OA
ATOM      6  N   UNL     1     -13.418   3.269   2.089  1.00  0.00    -0.334 N 
ATOM      7  H   UNL     1     -10.349   3.241   2.955  1.00  0.00     0.175 HD
ATOM      8  H   UNL     1     -14.241   3.137   2.659  1.00  0.00     0.165 HD
ENDROOT
BRANCH   1   9
ATOM      9  C   UNL     1      -9.028   3.082   0.877  1.00  0.00     0.040 A 
ATOM     10  C   UNL     1      -8.421   2.462  -0.217  1.00  0.00     0.014 A 
ATOM     11  C   UNL     1      -7.034   2.320  -0.240  1.00  0.00     0.004 A 
ATOM     12  C   UNL     1      -8.263   3.502   1.970  1.00  0.00     0.014 A 
ATOM     13  C   UNL     1      -6.252   2.785   0.828  1.00  0.00    -0.051 A 
ATOM     14  C   UNL     1      -6.877   3.363   1.940  1.00  0.00     0.004 A 
ATOM     15  C   UNL     1      -4.756   2.701   0.751  1.00  0.00     0.044 C 
ENDBRANCH   1   9
BRANCH   6  16
ATOM     16  C   UNL     1     -13.572   3.238   0.662  1.00  0.00     0.153 C 
BRANCH  16  17
ATOM     17  C   UNL     1     -14.727   2.450   0.110  1.00  0.00    -0.029 A 
ATOM     18  C   UNL     1     -16.032   2.950   0.047  1.00  0.00     0.006 A 
ATOM     19  C   UNL     1     -14.428   1.250  -0.557  1.00  0.00     0.006 A 
ATOM     20  C   UNL     1     -17.007   2.271  -0.691  1.00  0.00     0.004 A 
ATOM     21  C   UNL     1     -15.397   0.579  -1.294  1.00  0.00     0.004 A 
ATOM     22  C   UNL     1     -16.694   1.089  -1.376  1.00  0.00    -0.051 A 
ATOM     23  C   UNL     1     -17.693   0.434  -2.283  1.00  0.00     0.044 C 
ENDBRANCH  16  17
ENDBRANCH   6  16
TORSDOF 3
ENDMDL
MODEL 8
REMARK VINA RESULT:    -4.694      2.211      3.909
REMARK INTER + INTRA:          -5.897
REMARK INTER:                  -5.466
REMARK INTRA:                  -0.431
REMARK UNBOUND:                -0.380
REMARK SMILES Cc1ccc(CNC(=O)NC(=O)c2ccc(C)cc2)cc1
REMARK SMILES IDX 11 1 12 2 10 3 8 4 9 5 7 6 13 9 19 10 18 11 14 12 16 13
REMARK SMILES IDX 15 14 17 15 6 16 5 17 4 18 20 19 3 20 21 21 2 22 1 23
REMARK H PARENT 10 7 7 8
ROOT
ATOM      1  C   UNL     1     -12.918   4.023   4.263  1.00  0.00     0.259 C 
ATOM      2  O   UNL     1     -12.417   4.719   5.136  1.00  0.00    -0.269 OA
ATOM      3  N   UNL     1     -14.224   3.532   4.178  1.00  0.00    -0.274 N 
ATOM      4  C   UNL     1     -15.435   3.762   4.780  1.00  0.00     0.321 C 
ATOM      5  O   UNL     1     -16.426   3.191   4.312  1.00  0.00    -0.248 OA
ATOM      6  N   UNL     1     -15.600   4.594   5.825  1.00  0.00    -0.334 N 
ATOM      7  H   UNL     1     -14.401   2.955   3.366  1.00  0.00     0.175 HD
ATOM      8  H   UNL     1     -16.565   4.719   6.097  1.00  0.00     0.165 HD
ENDROOT
BRANCH   1   9
ATOM      9  C   UNL     1     -12.043   3.645   3.137  1.00  0.00     0.040 A 
ATOM     10  C   UNL     1     -11.884   4.477   2.027  1.00  0.00     0.014 A 
ATOM     11  C   UNL     1     -11.005   4.100   1.011  1.00  0.00     0.004 A 
ATOM     12  C   UNL     1     -11.376   2.418   3.207  1.00  0.00     0.014 A 
ATOM     13  C   UNL     1     -10.292   2.895   1.096  1.00  0.00    -0.051 A 
ATOM     14  C   UNL     1     -10.495   2.049   2.193  1.00  0.00     0.004 A 
ATOM     15  C   UNL     1      -9.288   2.545   0.037  1.00  0.00     0.044 C 
ENDBRANCH   1   9
BRANCH   6  16
ATOM     16  C   UNL     1     -14.609   5.426   6.448  1.00  0.00     0.153 C 
BRANCH  16  17
ATOM     17  C   UNL     1     -15.024   6.817   6.839  1.00  0.00    -0.029 A 
ATOM     18  C   UNL     1     -15.249   7.837   5.908  1.00  0.00     0.006 A 
ATOM     19  C   UNL     1     -15.398   7.024   8.177  1.00  0.00     0.006 A 
ATOM     20  C   UNL     1     -15.861   9.029   6.310  1.00  0.00     0.004 A 
ATOM     21  C   UNL     1     -16.011   8.208   8.574  1.00  0.00     0.004 A 
ATOM     22  C   UNL     1     -16.257   9.218   7.642  1.00  0.00    -0.051 A 
ATOM     23  C   UNL     1     -17.040  10.430   8.049  1.00  0.00     0.044 C 
ENDBRANCH  16  17
ENDBRANCH   6  16
TORSDOF 3
ENDMDL
MODEL 9
REMARK VINA RESULT:    -4.015      2.824      5.059
REMARK INTER + INTRA:          -5.099
REMARK INTER:                  -4.732
REMARK INTRA:                  -0.367
REMARK UNBOUND:                -0.380
REMARK SMILES Cc1ccc(CNC(=O)NC(=O)c2ccc(C)cc2)cc1
REMARK SMILES IDX 11 1 12 2 10 3 8 4 9 5 7 6 13 9 19 10 18 11 14 12 16 13
REMARK SMILES IDX 15 14 17 15 6 16 5 17 4 18 20 19 3 20 21 21 2 22 1 23
REMARK H PARENT 10 7 7 8
ROOT
ATOM      1  C   UNL     1     -14.237   4.017   4.835  1.00  0.00     0.259 C 
ATOM      2  O   UNL     1     -13.942   4.734   5.782  1.00  0.00    -0.269 OA
ATOM      3  N   UNL     1     -15.457   3.393   4.557  1.00  0.00    -0.274 N 
ATOM      4  C   UNL     1     -16.757   3.474   4.985  1.00  0.00     0.321 C 
ATOM      5  O   UNL     1     -17.605   2.816   4.372  1.00  0.00    -0.248 OA
ATOM      6  N   UNL     1     -17.157   4.250   6.010  1.00  0.00    -0.334 N 
ATOM      7  H   UNL     1     -15.454   2.827   3.719  1.00  0.00     0.175 HD
ATOM      8  H   UNL     1     -18.158   4.263   6.144  1.00  0.00     0.165 HD
ENDROOT
BRANCH   1   9
ATOM      9  C   UNL     1     -13.178   3.770   3.838  1.00  0.00     0.040 A 
ATOM     10  C   UNL     1     -11.826   3.855   4.176  1.00  0.00     0.014 A 
ATOM     11  C   UNL     1     -10.860   3.561   3.213  1.00  0.00     0.004 A 
ATOM     12  C   UNL     1     -13.565   3.452   2.533  1.00  0.00     0.014 A 
ATOM     13  C   UNL     1     -11.240   3.191   1.914  1.00  0.00    -0.051 A 
ATOM     14  C   UNL     1     -12.598   3.153   1.576  1.00  0.00     0.004 A 
ATOM     15  C   UNL     1     -10.193   2.795   0.914  1.00  0.00     0.044 C 
ENDBRANCH   1   9
BRANCH   6  16
ATOM     16  C   UNL     1     -16.359   5.161   6.781  1.00  0.00     0.153 C 
BRANCH  16  17
ATOM     17  C   UNL     1     -17.063   5.974   7.832  1.00  0.00    -0.029 A 
ATOM     18  C   UNL     1     -18.231   5.548   8.472  1.00  0.00     0.006 A 
ATOM     19  C   UNL     1     -16.392   7.104   8.327  1.00  0.00     0.006 A 
ATOM     20  C   UNL     1     -18.700   6.229   9.601  1.00  0.00     0.004 A 
ATOM     21  C   UNL     1     -16.856   7.777   9.453  1.00  0.00     0.004 A 
ATOM     22  C   UNL     1     -18.009   7.339  10.106  1.00  0.00    -0.051 A 
ATOM     23  C   UNL     1     -18.424   7.985  11.394  1.00  0.00     0.044 C 
ENDBRANCH  16  17
ENDBRANCH   6  16
TORSDOF 3
ENDMDL
