MODEL 1
REMARK VINA RESULT:    -6.119      0.000      0.000
REMARK INTER + INTRA:          -7.568
REMARK INTER:                  -7.192
REMARK INTRA:                  -0.376
REMARK UNBOUND:                -0.376
REMARK SMILES Cc1ccc(CNC(=O)NC(=O)c2ccc(C)cc2)cc1
REMARK SMILES IDX 11 1 12 2 10 3 8 4 9 5 7 6 13 9 19 10 18 11 14 12 16 13
REMARK SMILES IDX 15 14 17 15 6 16 5 17 4 18 20 19 3 20 21 21 2 22 1 23
REMARK H PARENT 10 7 7 8
ROOT
ATOM      1  C   UNL     1       5.958  -5.030   5.505  1.00  0.00     0.259 C 
ATOM      2  O   UNL     1       5.598  -4.243   6.369  1.00  0.00    -0.269 OA
ATOM      3  N   UNL     1       7.023  -5.936   5.535  1.00  0.00    -0.274 N 
ATOM      4  C   UNL     1       7.868  -6.476   6.470  1.00  0.00     0.321 C 
ATOM      5  O   UNL     1       8.623  -7.383   6.104  1.00  0.00    -0.248 OA
ATOM      6  N   UNL     1       7.895  -6.091   7.759  1.00  0.00    -0.334 N 
ATOM      7  H   UNL     1       7.138  -6.472   4.685  1.00  0.00     0.175 HD
ATOM      8  H   UNL     1       8.511  -6.645   8.336  1.00  0.00     0.165 HD
ENDROOT
BRANCH   1   9
ATOM      9  C   UNL     1       5.172  -5.044   4.257  1.00  0.00     0.040 A 
ATOM     10  C   UNL     1       5.615  -4.384   3.109  1.00  0.00     0.014 A 
ATOM     11  C   UNL     1       4.863  -4.471   1.937  1.00  0.00     0.004 A 
ATOM     12  C   UNL     1       3.956  -5.737   4.254  1.00  0.00     0.014 A 
ATOM     13  C   UNL     1       3.669  -5.206   1.909  1.00  0.00    -0.051 A 
ATOM     14  C   UNL     1       3.212  -5.825   3.079  1.00  0.00     0.004 A 
ATOM     15  C   UNL     1       2.916  -5.359   0.620  1.00  0.00     0.044 C 
ENDBRANCH   1   9
BRANCH   6  16
ATOM     16  C   UNL     1       7.039  -5.138   8.407  1.00  0.00     0.153 C 
BRANCH  16  17
ATOM     17  C   UNL     1       6.904  -5.234   9.901  1.00  0.00    -0.029 A 
ATOM     18  C   UNL     1       5.670  -5.337  10.552  1.00  0.00     0.006 A 
ATOM     19  C   UNL     1       8.080  -5.441  10.641  1.00  0.00     0.006 A 
ATOM     20  C   UNL     1       5.620  -5.665  11.911  1.00  0.00     0.004 A 
ATOM     21  C   UNL     1       8.028  -5.771  11.991  1.00  0.00     0.004 A 
ATOM     22  C   UNL     1       6.797  -5.896  12.636  1.00  0.00    -0.051 A 
ATOM     23  C   UNL     1       6.747  -6.386  14.052  1.00  0.00     0.044 C 
ENDBRANCH  16  17
ENDBRANCH   6  16
TORSDOF 3
ENDMDL
MODEL 2
REMARK VINA RESULT:    -6.083      3.254      5.555
REMARK INTER + INTRA:          -7.527
REMARK INTER:                  -7.143
REMARK INTRA:                  -0.383
REMARK UNBOUND:                -0.376
REMARK SMILES Cc1ccc(CNC(=O)NC(=O)c2ccc(C)cc2)cc1
REMARK SMILES IDX 11 1 12 2 10 3 8 4 9 5 7 6 13 9 19 10 18 11 14 12 16 13
REMARK SMILES IDX 15 14 17 15 6 16 5 17 4 18 20 19 3 20 21 21 2 22 1 23
REMARK H PARENT 10 7 7 8
ROOT
ATOM      1  C   UNL     1       6.286  -5.116   5.221  1.00  0.00     0.259 C 
ATOM      2  O   UNL     1       6.632  -5.943   4.389  1.00  0.00    -0.269 OA
ATOM      3  N   UNL     1       6.538  -5.098   6.596  1.00  0.00    -0.274 N 
ATOM      4  C   UNL     1       7.366  -5.739   7.482  1.00  0.00     0.321 C 
ATOM      5  O   UNL     1       7.383  -5.330   8.648  1.00  0.00    -0.248 OA
ATOM      6  N   UNL     1       8.174  -6.760   7.141  1.00  0.00    -0.334 N 
ATOM      7  H   UNL     1       6.127  -4.315   7.086  1.00  0.00     0.175 HD
ATOM      8  H   UNL     1       8.782  -7.064   7.888  1.00  0.00     0.165 HD
ENDROOT
BRANCH   1   9
ATOM      9  C   UNL     1       5.498  -3.970   4.725  1.00  0.00     0.040 A 
ATOM     10  C   UNL     1       4.109  -3.930   4.856  1.00  0.00     0.014 A 
ATOM     11  C   UNL     1       3.413  -2.803   4.420  1.00  0.00     0.004 A 
ATOM     12  C   UNL     1       6.185  -2.920   4.108  1.00  0.00     0.014 A 
ATOM     13  C   UNL     1       4.098  -1.720   3.847  1.00  0.00    -0.051 A 
ATOM     14  C   UNL     1       5.486  -1.792   3.679  1.00  0.00     0.004 A 
ATOM     15  C   UNL     1       3.346  -0.481   3.460  1.00  0.00     0.044 C 
ENDBRANCH   1   9
BRANCH   6  16
ATOM     16  C   UNL     1       8.382  -7.314   5.833  1.00  0.00     0.153 C 
BRANCH  16  17
ATOM     17  C   UNL     1       9.685  -8.021   5.582  1.00  0.00    -0.029 A 
ATOM     18  C   UNL     1      10.575  -7.645   4.570  1.00  0.00     0.006 A 
ATOM     19  C   UNL     1      10.104  -8.956   6.542  1.00  0.00     0.006 A 
ATOM     20  C   UNL     1      11.867  -8.180   4.541  1.00  0.00     0.004 A 
ATOM     21  C   UNL     1      11.391  -9.484   6.514  1.00  0.00     0.004 A 
ATOM     22  C   UNL     1      12.288  -9.092   5.518  1.00  0.00    -0.051 A 
ATOM     23  C   UNL     1      13.711  -9.559   5.576  1.00  0.00     0.044 C 
ENDBRANCH  16  17
ENDBRANCH   6  16
TORSDOF 3
ENDMDL
MODEL 3
REMARK VINA RESULT:    -6.050      0.550      8.010
REMARK INTER + INTRA:          -7.488
REMARK INTER:                  -6.990
REMARK INTRA:                  -0.498
REMARK UNBOUND:                -0.376
REMARK SMILES Cc1ccc(CNC(=O)NC(=O)c2ccc(C)cc2)cc1
REMARK SMILES IDX 11 1 12 2 10 3 8 4 9 5 7 6 13 9 19 10 18 11 14 12 16 13
REMARK SMILES IDX 15 14 17 15 6 16 5 17 4 18 20 19 3 20 21 21 2 22 1 23
REMARK H PARENT 10 7 7 8
ROOT
ATOM      1  C   UNL     1       6.656  -5.334   8.283  1.00  0.00     0.259 C 
ATOM      2  O   UNL     1       5.832  -4.553   7.828  1.00  0.00    -0.269 OA
ATOM      3  N   UNL     1       7.533  -6.179   7.596  1.00  0.00    -0.274 N 
ATOM      4  C   UNL     1       8.002  -6.327   6.316  1.00  0.00     0.321 C 
ATOM      5  O   UNL     1       8.910  -7.145   6.129  1.00  0.00    -0.248 OA
ATOM      6  N   UNL     1       7.549  -5.613   5.269  1.00  0.00    -0.334 N 
ATOM      7  H   UNL     1       8.111  -6.755   8.193  1.00  0.00     0.175 HD
ATOM      8  H   UNL     1       8.057  -5.780   4.412  1.00  0.00     0.165 HD
ENDROOT
BRANCH   1   9
ATOM      9  C   UNL     1       6.755  -5.408   9.753  1.00  0.00     0.040 A 
ATOM     10  C   UNL     1       5.617  -5.386  10.562  1.00  0.00     0.014 A 
ATOM     11  C   UNL     1       5.759  -5.511  11.944  1.00  0.00     0.004 A 
ATOM     12  C   UNL     1       8.030  -5.494  10.322  1.00  0.00     0.014 A 
ATOM     13  C   UNL     1       7.030  -5.650  12.521  1.00  0.00    -0.051 A 
ATOM     14  C   UNL     1       8.166  -5.625  11.702  1.00  0.00     0.004 A 
ATOM     15  C   UNL     1       7.160  -5.869  14.000  1.00  0.00     0.044 C 
ENDBRANCH   1   9
BRANCH   6  16
ATOM     16  C   UNL     1       6.583  -4.551   5.286  1.00  0.00     0.153 C 
BRANCH  16  17
ATOM     17  C   UNL     1       5.524  -4.564   4.219  1.00  0.00    -0.029 A 
ATOM     18  C   UNL     1       5.682  -3.936   2.979  1.00  0.00     0.006 A 
ATOM     19  C   UNL     1       4.429  -5.422   4.411  1.00  0.00     0.006 A 
ATOM     20  C   UNL     1       4.771  -4.186   1.947  1.00  0.00     0.004 A 
ATOM     21  C   UNL     1       3.526  -5.673   3.382  1.00  0.00     0.004 A 
ATOM     22  C   UNL     1       3.695  -5.065   2.137  1.00  0.00    -0.051 A 
ATOM     23  C   UNL     1       2.800  -5.446   0.997  1.00  0.00     0.044 C 
ENDBRANCH  16  17
ENDBRANCH   6  16
TORSDOF 3
ENDMDL
MODEL 4
REMARK VINA RESULT:    -6.011      3.152      7.317
REMARK INTER + INTRA:          -7.441
REMARK INTER:                  -6.946
REMARK INTRA:                  -0.495
REMARK UNBOUND:                -0.376
REMARK SMILES Cc1ccc(CNC(=O)NC(=O)c2ccc(C)cc2)cc1
REMARK SMILES IDX 11 1 12 2 10 3 8 4 9 5 7 6 13 9 19 10 18 11 14 12 16 13
REMARK SMILES IDX 15 14 17 15 6 16 5 17 4 18 20 19 3 20 21 21 2 22 1 23
REMARK H PARENT 10 7 7 8
ROOT
ATOM      1  C   UNL     1       8.498  -6.863   5.586  1.00  0.00     0.259 C 
ATOM      2  O   UNL     1       7.938  -6.651   4.520  1.00  0.00    -0.269 OA
ATOM      3  N   UNL     1       8.153  -6.407   6.862  1.00  0.00    -0.274 N 
ATOM      4  C   UNL     1       7.072  -5.824   7.473  1.00  0.00     0.321 C 
ATOM      5  O   UNL     1       7.111  -5.689   8.700  1.00  0.00    -0.248 OA
ATOM      6  N   UNL     1       5.970  -5.424   6.811  1.00  0.00    -0.334 N 
ATOM      7  H   UNL     1       8.787  -6.699   7.595  1.00  0.00     0.175 HD
ATOM      8  H   UNL     1       5.231  -5.095   7.415  1.00  0.00     0.165 HD
ENDROOT
BRANCH   1   9
ATOM      9  C   UNL     1       9.699  -7.719   5.542  1.00  0.00     0.040 A 
ATOM     10  C   UNL     1      10.646  -7.593   4.523  1.00  0.00     0.014 A 
ATOM     11  C   UNL     1      11.792  -8.388   4.553  1.00  0.00     0.004 A 
ATOM     12  C   UNL     1       9.864  -8.673   6.551  1.00  0.00     0.014 A 
ATOM     13  C   UNL     1      11.991  -9.312   5.590  1.00  0.00    -0.051 A 
ATOM     14  C   UNL     1      11.013  -9.460   6.580  1.00  0.00     0.004 A 
ATOM     15  C   UNL     1      13.267 -10.098   5.653  1.00  0.00     0.044 C 
ENDBRANCH   1   9
BRANCH   6  16
ATOM     16  C   UNL     1       5.682  -5.582   5.414  1.00  0.00     0.153 C 
BRANCH  16  17
ATOM     17  C   UNL     1       5.095  -4.400   4.692  1.00  0.00    -0.029 A 
ATOM     18  C   UNL     1       3.720  -4.152   4.626  1.00  0.00     0.006 A 
ATOM     19  C   UNL     1       5.986  -3.406   4.256  1.00  0.00     0.006 A 
ATOM     20  C   UNL     1       3.253  -2.921   4.154  1.00  0.00     0.004 A 
ATOM     21  C   UNL     1       5.520  -2.181   3.791  1.00  0.00     0.004 A 
ATOM     22  C   UNL     1       4.149  -1.923   3.745  1.00  0.00    -0.051 A 
ATOM     23  C   UNL     1       3.663  -0.554   3.374  1.00  0.00     0.044 C 
ENDBRANCH  16  17
ENDBRANCH   6  16
TORSDOF 3
ENDMDL
MODEL 5
REMARK VINA RESULT:    -5.873      8.806      9.450
REMARK INTER + INTRA:          -7.279
REMARK INTER:                  -6.825
REMARK INTRA:                  -0.455
REMARK UNBOUND:                -0.376
REMARK SMILES Cc1ccc(CNC(=O)NC(=O)c2ccc(C)cc2)cc1
REMARK SMILES IDX 11 1 12 2 10 3 8 4 9 5 7 6 13 9 19 10 18 11 14 12 16 13
REMARK SMILES IDX 15 14 17 15 6 16 5 17 4 18 20 19 3 20 21 21 2 22 1 23
REMARK H PARENT 10 7 7 8
ROOT
ATOM      1  C   UNL     1      13.308  -8.935  10.645  1.00  0.00     0.259 C 
ATOM      2  O   UNL     1      12.310  -8.250  10.471  1.00  0.00    -0.269 OA
ATOM      3  N   UNL     1      14.037  -9.137  11.821  1.00  0.00    -0.274 N 
ATOM      4  C   UNL     1      13.871  -8.922  13.165  1.00  0.00     0.321 C 
ATOM      5  O   UNL     1      14.727  -9.382  13.929  1.00  0.00    -0.248 OA
ATOM      6  N   UNL     1      12.818  -8.269  13.690  1.00  0.00    -0.334 N 
ATOM      7  H   UNL     1      14.846  -9.734  11.713  1.00  0.00     0.175 HD
ATOM      8  H   UNL     1      12.800  -8.271  14.700  1.00  0.00     0.165 HD
ENDROOT
BRANCH   1   9
ATOM      9  C   UNL     1      13.828  -9.656   9.467  1.00  0.00     0.040 A 
ATOM     10  C   UNL     1      13.256 -10.855   9.038  1.00  0.00     0.014 A 
ATOM     11  C   UNL     1      13.748 -11.474   7.888  1.00  0.00     0.004 A 
ATOM     12  C   UNL     1      14.921  -9.107   8.790  1.00  0.00     0.014 A 
ATOM     13  C   UNL     1      14.811 -10.903   7.171  1.00  0.00    -0.051 A 
ATOM     14  C   UNL     1      15.405  -9.724   7.638  1.00  0.00     0.004 A 
ATOM     15  C   UNL     1      15.273 -11.535   5.891  1.00  0.00     0.044 C 
ENDBRANCH   1   9
BRANCH   6  16
ATOM     16  C   UNL     1      11.672  -7.753  12.996  1.00  0.00     0.153 C 
BRANCH  16  17
ATOM     17  C   UNL     1      10.324  -7.988  13.618  1.00  0.00    -0.029 A 
ATOM     18  C   UNL     1       9.538  -6.960  14.148  1.00  0.00     0.006 A 
ATOM     19  C   UNL     1       9.758  -9.264  13.462  1.00  0.00     0.006 A 
ATOM     20  C   UNL     1       8.203  -7.204  14.490  1.00  0.00     0.004 A 
ATOM     21  C   UNL     1       8.430  -9.504  13.798  1.00  0.00     0.004 A 
ATOM     22  C   UNL     1       7.637  -8.473  14.306  1.00  0.00    -0.051 A 
ATOM     23  C   UNL     1       6.174  -8.706  14.535  1.00  0.00     0.044 C 
ENDBRANCH  16  17
ENDBRANCH   6  16
TORSDOF 3
ENDMDL
MODEL 6
REMARK VINA RESULT:    -5.755      1.370      7.858
REMARK INTER + INTRA:          -7.141
REMARK INTER:                  -6.649
REMARK INTRA:                  -0.492
REMARK UNBOUND:                -0.376
REMARK SMILES Cc1ccc(CNC(=O)NC(=O)c2ccc(C)cc2)cc1
REMARK SMILES IDX 11 1 12 2 10 3 8 4 9 5 7 6 13 9 19 10 18 11 14 12 16 13
REMARK SMILES IDX 15 14 17 15 6 16 5 17 4 18 20 19 3 20 21 21 2 22 1 23
REMARK H PARENT 10 7 7 8
ROOT
ATOM      1  C   UNL     1       6.880  -5.137   8.567  1.00  0.00     0.259 C 
ATOM      2  O   UNL     1       6.348  -4.114   8.160  1.00  0.00    -0.269 OA
ATOM      3  N   UNL     1       7.508  -6.149   7.833  1.00  0.00    -0.274 N 
ATOM      4  C   UNL     1       7.981  -6.332   6.559  1.00  0.00     0.321 C 
ATOM      5  O   UNL     1       8.618  -7.365   6.327  1.00  0.00    -0.248 OA
ATOM      6  N   UNL     1       7.814  -5.437   5.568  1.00  0.00    -0.334 N 
ATOM      7  H   UNL     1       7.857  -6.915   8.393  1.00  0.00     0.175 HD
ATOM      8  H   UNL     1       8.296  -5.681   4.714  1.00  0.00     0.165 HD
ENDROOT
BRANCH   1   9
ATOM      9  C   UNL     1       6.874  -5.350  10.027  1.00  0.00     0.040 A 
ATOM     10  C   UNL     1       5.681  -5.396  10.751  1.00  0.00     0.014 A 
ATOM     11  C   UNL     1       5.723  -5.652  12.122  1.00  0.00     0.004 A 
ATOM     12  C   UNL     1       8.105  -5.497  10.674  1.00  0.00     0.014 A 
ATOM     13  C   UNL     1       6.950  -5.853  12.772  1.00  0.00    -0.051 A 
ATOM     14  C   UNL     1       8.142  -5.758  12.043  1.00  0.00     0.004 A 
ATOM     15  C   UNL     1       6.974  -6.210  14.229  1.00  0.00     0.044 C 
ENDBRANCH   1   9
BRANCH   6  16
ATOM     16  C   UNL     1       7.203  -4.141   5.651  1.00  0.00     0.153 C 
BRANCH  16  17
ATOM     17  C   UNL     1       6.106  -3.831   4.670  1.00  0.00    -0.029 A 
ATOM     18  C   UNL     1       4.921  -4.570   4.591  1.00  0.00     0.006 A 
ATOM     19  C   UNL     1       6.202  -2.623   3.959  1.00  0.00     0.006 A 
ATOM     20  C   UNL     1       3.847  -4.091   3.833  1.00  0.00     0.004 A 
ATOM     21  C   UNL     1       5.131  -2.146   3.210  1.00  0.00     0.004 A 
ATOM     22  C   UNL     1       3.940  -2.871   3.148  1.00  0.00    -0.051 A 
ATOM     23  C   UNL     1       2.749  -2.284   2.453  1.00  0.00     0.044 C 
ENDBRANCH  16  17
ENDBRANCH   6  16
TORSDOF 3
ENDMDL
MODEL 7
REMARK VINA RESULT:    -5.492      8.748     10.493
REMARK INTER + INTRA:          -6.831
REMARK INTER:                  -6.308
REMARK INTRA:                  -0.522
REMARK UNBOUND:                -0.376
REMARK SMILES Cc1ccc(CNC(=O)NC(=O)c2ccc(C)cc2)cc1
REMARK SMILES IDX 11 1 12 2 10 3 8 4 9 5 7 6 13 9 19 10 18 11 14 12 16 13
REMARK SMILES IDX 15 14 17 15 6 16 5 17 4 18 20 19 3 20 21 21 2 22 1 23
REMARK H PARENT 10 7 7 8
ROOT
ATOM      1  C   UNL     1      10.786  -8.887  13.422  1.00  0.00     0.259 C 
ATOM      2  O   UNL     1      10.982 -10.017  12.998  1.00  0.00    -0.269 OA
ATOM      3  N   UNL     1      11.708  -7.855  13.621  1.00  0.00    -0.274 N 
ATOM      4  C   UNL     1      12.998  -7.565  13.260  1.00  0.00     0.321 C 
ATOM      5  O   UNL     1      13.432  -6.441  13.534  1.00  0.00    -0.248 OA
ATOM      6  N   UNL     1      13.797  -8.424  12.600  1.00  0.00    -0.334 N 
ATOM      7  H   UNL     1      11.309  -7.008  14.006  1.00  0.00     0.175 HD
ATOM      8  H   UNL     1      14.687  -8.029  12.332  1.00  0.00     0.165 HD
ENDROOT
BRANCH   1   9
ATOM      9  C   UNL     1       9.393  -8.545  13.772  1.00  0.00     0.040 A 
ATOM     10  C   UNL     1       9.033  -7.247  14.140  1.00  0.00     0.014 A 
ATOM     11  C   UNL     1       7.695  -6.961  14.411  1.00  0.00     0.004 A 
ATOM     12  C   UNL     1       8.437  -9.565  13.733  1.00  0.00     0.014 A 
ATOM     13  C   UNL     1       6.719  -7.965  14.324  1.00  0.00    -0.051 A 
ATOM     14  C   UNL     1       7.101  -9.272  13.998  1.00  0.00     0.004 A 
ATOM     15  C   UNL     1       5.274  -7.622  14.535  1.00  0.00     0.044 C 
ENDBRANCH   1   9
BRANCH   6  16
ATOM     16  C   UNL     1      13.459  -9.727  12.100  1.00  0.00     0.153 C 
BRANCH  16  17
ATOM     17  C   UNL     1      13.639  -9.968  10.627  1.00  0.00    -0.029 A 
ATOM     18  C   UNL     1      14.721  -9.465   9.897  1.00  0.00     0.006 A 
ATOM     19  C   UNL     1      12.792 -10.911  10.021  1.00  0.00     0.006 A 
ATOM     20  C   UNL     1      14.961  -9.920   8.596  1.00  0.00     0.004 A 
ATOM     21  C   UNL     1      13.034 -11.366   8.729  1.00  0.00     0.004 A 
ATOM     22  C   UNL     1      14.127 -10.882   8.009  1.00  0.00    -0.051 A 
ATOM     23  C   UNL     1      14.459 -11.478   6.673  1.00  0.00     0.044 C 
ENDBRANCH  16  17
ENDBRANCH   6  16
TORSDOF 3
ENDMDL
MODEL 8
REMARK VINA RESULT:    -5.011      7.302      8.811
REMARK INTER + INTRA:          -6.266
REMARK INTER:                  -5.766
REMARK INTRA:                  -0.500
REMARK UNBOUND:                -0.376
REMARK SMILES Cc1ccc(CNC(=O)NC(=O)c2ccc(C)cc2)cc1
REMARK SMILES IDX 11 1 12 2 10 3 8 4 9 5 7 6 13 9 19 10 18 11 14 12 16 13
REMARK SMILES IDX 15 14 17 15 6 16 5 17 4 18 20 19 3 20 21 21 2 22 1 23
REMARK H PARENT 10 7 7 8
ROOT
ATOM      1  C   UNL     1      11.669  -8.639  11.409  1.00  0.00     0.259 C 
ATOM      2  O   UNL     1      10.661  -9.292  11.643  1.00  0.00    -0.269 OA
ATOM      3  N   UNL     1      12.127  -7.479  12.042  1.00  0.00    -0.274 N 
ATOM      4  C   UNL     1      11.863  -6.781  13.193  1.00  0.00     0.321 C 
ATOM      5  O   UNL     1      12.608  -5.836  13.473  1.00  0.00    -0.248 OA
ATOM      6  N   UNL     1      10.863  -7.091  14.038  1.00  0.00    -0.334 N 
ATOM      7  H   UNL     1      12.983  -7.104  11.656  1.00  0.00     0.175 HD
ATOM      8  H   UNL     1      10.856  -6.535  14.881  1.00  0.00     0.165 HD
ENDROOT
BRANCH   1   9
ATOM      9  C   UNL     1      12.534  -9.128  10.318  1.00  0.00     0.040 A 
ATOM     10  C   UNL     1      11.996  -9.628   9.131  1.00  0.00     0.014 A 
ATOM     11  C   UNL     1      12.855 -10.030   8.107  1.00  0.00     0.004 A 
ATOM     12  C   UNL     1      13.919  -9.083  10.508  1.00  0.00     0.014 A 
ATOM     13  C   UNL     1      14.246  -9.940   8.268  1.00  0.00    -0.051 A 
ATOM     14  C   UNL     1      14.773  -9.479   9.481  1.00  0.00     0.004 A 
ATOM     15  C   UNL     1      15.154 -10.296   7.128  1.00  0.00     0.044 C 
ENDBRANCH   1   9
BRANCH   6  16
ATOM     16  C   UNL     1       9.957  -8.202  13.954  1.00  0.00     0.153 C 
BRANCH  16  17
ATOM     17  C   UNL     1       8.494  -7.889  13.808  1.00  0.00    -0.029 A 
ATOM     18  C   UNL     1       8.019  -6.663  13.330  1.00  0.00     0.006 A 
ATOM     19  C   UNL     1       7.590  -8.953  13.961  1.00  0.00     0.006 A 
ATOM     20  C   UNL     1       6.670  -6.519  12.990  1.00  0.00     0.004 A 
ATOM     21  C   UNL     1       6.250  -8.810  13.618  1.00  0.00     0.004 A 
ATOM     22  C   UNL     1       5.780  -7.594  13.119  1.00  0.00    -0.051 A 
ATOM     23  C   UNL     1       4.368  -7.490  12.625  1.00  0.00     0.044 C 
ENDBRANCH  16  17
ENDBRANCH   6  16
TORSDOF 3
ENDMDL
