MODEL 1
REMARK VINA RESULT:    -4.357      0.000      0.000
REMARK INTER + INTRA:          -5.873
REMARK INTER:                  -5.758
REMARK INTRA:                  -0.115
REMARK UNBOUND:                -0.115
REMARK SMILES [H]/N=C\C[C@H]1C[C@@H]1O[C@H]1CO[C@H]2C[C@@H](C3CC3)CCN2C1
REMARK SMILES IDX 7 1 6 2 5 3 8 4 9 5 14 6 13 7 18 8 12 9 19 10 20 11 11 12
REMARK SMILES IDX 21 13 10 14 15 15 16 16 17 17 4 18 3 19 2 20 1 21
REMARK H PARENT
ROOT
ATOM      1  C   UNL     1      13.696  -9.797  10.333  1.00  0.00     0.122 C 
ATOM      2  C   UNL     1      13.936  -9.208  11.695  1.00  0.00     0.039 C 
ATOM      3  C   UNL     1      12.870  -8.632  10.807  1.00  0.00     0.026 C 
ENDROOT
BRANCH   1   4
ATOM      4  O   UNL     1      14.732  -9.506   9.377  1.00  0.00    -0.371 OA
BRANCH   4   5
ATOM      5  C   UNL     1      14.886 -10.466   8.319  1.00  0.00     0.158 C 
ATOM      6  C   UNL     1      11.582  -8.368   4.871  1.00  0.00    -0.003 C 
ATOM      7  C   UNL     1      11.450  -9.121   6.201  1.00  0.00     0.052 C 
ATOM      8  C   UNL     1      12.872  -7.537   4.884  1.00  0.00     0.019 C 
ATOM      9  C   UNL     1      12.713  -9.931   6.525  1.00  0.00     0.189 C 
ATOM     10  C   UNL     1      14.085  -8.394   5.246  1.00  0.00     0.087 C 
ATOM     11  N   UNL     1      13.889  -9.061   6.533  1.00  0.00    -0.276 NA
ATOM     12  O   UNL     1      12.490 -10.544   7.796  1.00  0.00    -0.360 OA
ATOM     13  C   UNL     1      15.080  -9.818   6.936  1.00  0.00     0.121 C 
ATOM     14  C   UNL     1      13.609 -11.310   8.252  1.00  0.00     0.195 C 
BRANCH   6  15
ATOM     15  C   UNL     1      10.383  -7.483   4.614  1.00  0.00    -0.008 C 
ATOM     16  C   UNL     1       9.156  -8.040   3.931  1.00  0.00     0.004 C 
ATOM     17  C   UNL     1       9.100  -7.674   5.386  1.00  0.00     0.004 C 
ENDBRANCH   6  15
ENDBRANCH   4   5
ENDBRANCH   1   4
BRANCH   3  18
ATOM     18  C   UNL     1      11.431  -8.827  11.179  1.00  0.00     0.053 C 
BRANCH  18  19
ATOM     19  C   UNL     1      10.574  -7.588  11.200  1.00  0.00     0.074 C 
BRANCH  19  20
ATOM     20  N   UNL     1      10.917  -6.423  10.760  1.00  0.00    -0.313 NA
ATOM     21  H   UNL     1      11.518  -5.925  11.432  1.00  0.00     0.186 HD
ENDBRANCH  19  20
ENDBRANCH  18  19
ENDBRANCH   3  18
TORSDOF 6
ENDMDL
MODEL 2
REMARK VINA RESULT:    -4.343      2.794      4.145
REMARK INTER + INTRA:          -5.854
REMARK INTER:                  -5.569
REMARK INTRA:                  -0.285
REMARK UNBOUND:                -0.115
REMARK SMILES [H]/N=C\C[C@H]1C[C@@H]1O[C@H]1CO[C@H]2C[C@@H](C3CC3)CCN2C1
REMARK SMILES IDX 7 1 6 2 5 3 8 4 9 5 14 6 13 7 18 8 12 9 19 10 20 11 11 12
REMARK SMILES IDX 21 13 10 14 15 15 16 16 17 17 4 18 3 19 2 20 1 21
REMARK H PARENT
ROOT
ATOM      1  C   UNL     1      10.604  -9.719  13.097  1.00  0.00     0.122 C 
ATOM      2  C   UNL     1      10.652  -8.272  13.501  1.00  0.00     0.039 C 
ATOM      3  C   UNL     1       9.334  -8.916  13.176  1.00  0.00     0.026 C 
ENDROOT
BRANCH   1   4
ATOM      4  O   UNL     1      11.122  -9.978  11.779  1.00  0.00    -0.371 OA
BRANCH   4   5
ATOM      5  C   UNL     1      12.225 -10.896  11.716  1.00  0.00     0.158 C 
ATOM      6  C   UNL     1      14.249  -9.379   7.154  1.00  0.00    -0.003 C 
ATOM      7  C   UNL     1      12.997 -10.145   7.600  1.00  0.00     0.052 C 
ATOM      8  C   UNL     1      14.618  -8.343   8.225  1.00  0.00     0.019 C 
ATOM      9  C   UNL     1      13.160 -10.732   9.009  1.00  0.00     0.189 C 
ATOM     10  C   UNL     1      14.730  -8.984   9.608  1.00  0.00     0.087 C 
ATOM     11  N   UNL     1      13.493  -9.676   9.966  1.00  0.00    -0.276 NA
ATOM     12  O   UNL     1      11.925 -11.376   9.328  1.00  0.00    -0.360 OA
ATOM     13  C   UNL     1      13.554 -10.223  11.326  1.00  0.00     0.121 C 
ATOM     14  C   UNL     1      11.913 -11.943  10.642  1.00  0.00     0.195 C 
BRANCH   6  15
ATOM     15  C   UNL     1      14.041  -8.708   5.815  1.00  0.00    -0.008 C 
ATOM     16  C   UNL     1      14.740  -9.232   4.582  1.00  0.00     0.004 C 
ATOM     17  C   UNL     1      13.253  -9.390   4.722  1.00  0.00     0.004 C 
ENDBRANCH   6  15
ENDBRANCH   4   5
ENDBRANCH   1   4
BRANCH   3  18
ATOM     18  C   UNL     1       8.353  -9.161  14.283  1.00  0.00     0.053 C 
BRANCH  18  19
ATOM     19  C   UNL     1       6.913  -9.328  13.872  1.00  0.00     0.074 C 
BRANCH  19  20
ATOM     20  N   UNL     1       6.494  -9.914  12.800  1.00  0.00    -0.313 NA
ATOM     21  H   UNL     1       5.473  -9.829  12.694  1.00  0.00     0.186 HD
ENDBRANCH  19  20
ENDBRANCH  18  19
ENDBRANCH   3  18
TORSDOF 6
ENDMDL
MODEL 3
REMARK VINA RESULT:    -4.244      4.401      7.430
REMARK INTER + INTRA:          -5.724
REMARK INTER:                  -5.660
REMARK INTRA:                  -0.064
REMARK UNBOUND:                -0.115
REMARK SMILES [H]/N=C\C[C@H]1C[C@@H]1O[C@H]1CO[C@H]2C[C@@H](C3CC3)CCN2C1
REMARK SMILES IDX 7 1 6 2 5 3 8 4 9 5 14 6 13 7 18 8 12 9 19 10 20 11 11 12
REMARK SMILES IDX 21 13 10 14 15 15 16 16 17 17 4 18 3 19 2 20 1 21
REMARK H PARENT
ROOT
ATOM      1  C   UNL     1      10.963  -9.595  13.321  1.00  0.00     0.122 C 
ATOM      2  C   UNL     1      11.320 -10.846  12.568  1.00  0.00     0.039 C 
ATOM      3  C   UNL     1      11.499  -9.505  11.918  1.00  0.00     0.026 C 
ENDROOT
BRANCH   1   4
ATOM      4  O   UNL     1       9.547  -9.392  13.485  1.00  0.00    -0.371 OA
BRANCH   4   5
ATOM      5  C   UNL     1       9.171  -8.398  14.452  1.00  0.00     0.158 C 
ATOM      6  C   UNL     1       5.973  -5.564  11.461  1.00  0.00    -0.003 C 
ATOM      7  C   UNL     1       7.488  -5.785  11.547  1.00  0.00     0.052 C 
ATOM      8  C   UNL     1       5.249  -6.854  11.872  1.00  0.00     0.019 C 
ATOM      9  C   UNL     1       7.908  -6.328  12.920  1.00  0.00     0.189 C 
ATOM     10  C   UNL     1       5.736  -7.360  13.229  1.00  0.00     0.087 C 
ATOM     11  N   UNL     1       7.184  -7.563  13.223  1.00  0.00    -0.276 NA
ATOM     12  O   UNL     1       9.321  -6.535  12.863  1.00  0.00    -0.360 OA
ATOM     13  C   UNL     1       7.656  -8.132  14.490  1.00  0.00     0.121 C 
ATOM     14  C   UNL     1       9.856  -7.081  14.072  1.00  0.00     0.195 C 
BRANCH   6  15
ATOM     15  C   UNL     1       5.552  -5.138  10.073  1.00  0.00    -0.008 C 
ATOM     16  C   UNL     1       5.751  -3.711   9.619  1.00  0.00     0.004 C 
ATOM     17  C   UNL     1       6.582  -4.807   9.020  1.00  0.00     0.004 C 
ENDBRANCH   6  15
ENDBRANCH   4   5
ENDBRANCH   1   4
BRANCH   3  18
ATOM     18  C   UNL     1      12.888  -8.997  11.671  1.00  0.00     0.053 C 
BRANCH  18  19
ATOM     19  C   UNL     1      13.372  -9.046  10.245  1.00  0.00     0.074 C 
BRANCH  19  20
ATOM     20  N   UNL     1      13.546  -8.029   9.469  1.00  0.00    -0.313 NA
ATOM     21  H   UNL     1      13.110  -7.179   9.853  1.00  0.00     0.186 HD
ENDBRANCH  19  20
ENDBRANCH  18  19
ENDBRANCH   3  18
TORSDOF 6
ENDMDL
MODEL 4
REMARK VINA RESULT:    -4.183      6.814      8.293
REMARK INTER + INTRA:          -5.643
REMARK INTER:                  -5.421
REMARK INTRA:                  -0.222
REMARK UNBOUND:                -0.115
REMARK SMILES [H]/N=C\C[C@H]1C[C@@H]1O[C@H]1CO[C@H]2C[C@@H](C3CC3)CCN2C1
REMARK SMILES IDX 7 1 6 2 5 3 8 4 9 5 14 6 13 7 18 8 12 9 19 10 20 11 11 12
REMARK SMILES IDX 21 13 10 14 15 15 16 16 17 17 4 18 3 19 2 20 1 21
REMARK H PARENT
ROOT
ATOM      1  C   UNL     1       6.473  -5.532   9.117  1.00  0.00     0.122 C 
ATOM      2  C   UNL     1       7.546  -5.127  10.088  1.00  0.00     0.039 C 
ATOM      3  C   UNL     1       6.101  -4.913  10.436  1.00  0.00     0.026 C 
ENDROOT
BRANCH   1   4
ATOM      4  O   UNL     1       6.381  -4.683   7.957  1.00  0.00    -0.371 OA
BRANCH   4   5
ATOM      5  C   UNL     1       7.442  -4.825   6.998  1.00  0.00     0.158 C 
ATOM      6  C   UNL     1       4.630  -4.318   2.635  1.00  0.00    -0.003 C 
ATOM      7  C   UNL     1       4.796  -5.393   3.715  1.00  0.00     0.052 C 
ATOM      8  C   UNL     1       4.810  -2.931   3.268  1.00  0.00     0.019 C 
ATOM      9  C   UNL     1       6.111  -5.225   4.489  1.00  0.00     0.189 C 
ATOM     10  C   UNL     1       6.120  -2.840   4.051  1.00  0.00     0.087 C 
ATOM     11  N   UNL     1       6.193  -3.886   5.072  1.00  0.00    -0.276 NA
ATOM     12  O   UNL     1       6.131  -6.247   5.488  1.00  0.00    -0.360 OA
ATOM     13  C   UNL     1       7.404  -3.759   5.889  1.00  0.00     0.121 C 
ATOM     14  C   UNL     1       7.292  -6.192   6.322  1.00  0.00     0.195 C 
BRANCH   6  15
ATOM     15  C   UNL     1       3.283  -4.419   1.954  1.00  0.00    -0.008 C 
ATOM     16  C   UNL     1       3.189  -4.429   0.447  1.00  0.00     0.004 C 
ATOM     17  C   UNL     1       2.880  -5.676   1.222  1.00  0.00     0.004 C 
ENDBRANCH   6  15
ENDBRANCH   4   5
ENDBRANCH   1   4
BRANCH   3  18
ATOM     18  C   UNL     1       5.481  -5.749  11.515  1.00  0.00     0.053 C 
BRANCH  18  19
ATOM     19  C   UNL     1       6.244  -5.834  12.812  1.00  0.00     0.074 C 
BRANCH  19  20
ATOM     20  N   UNL     1       6.037  -5.109  13.861  1.00  0.00    -0.313 NA
ATOM     21  H   UNL     1       5.083  -4.720  13.871  1.00  0.00     0.186 HD
ENDBRANCH  19  20
ENDBRANCH  18  19
ENDBRANCH   3  18
TORSDOF 6
ENDMDL
MODEL 5
REMARK VINA RESULT:    -4.172      5.619      8.584
REMARK INTER + INTRA:          -5.628
REMARK INTER:                  -5.445
REMARK INTRA:                  -0.183
REMARK UNBOUND:                -0.115
REMARK SMILES [H]/N=C\C[C@H]1C[C@@H]1O[C@H]1CO[C@H]2C[C@@H](C3CC3)CCN2C1
REMARK SMILES IDX 7 1 6 2 5 3 8 4 9 5 14 6 13 7 18 8 12 9 19 10 20 11 11 12
REMARK SMILES IDX 21 13 10 14 15 15 16 16 17 17 4 18 3 19 2 20 1 21
REMARK H PARENT
ROOT
ATOM      1  C   UNL     1       9.305  -7.179   5.458  1.00  0.00     0.122 C 
ATOM      2  C   UNL     1       9.657  -8.512   6.056  1.00  0.00     0.039 C 
ATOM      3  C   UNL     1      10.168  -8.145   4.693  1.00  0.00     0.026 C 
ENDROOT
BRANCH   1   4
ATOM      4  O   UNL     1       7.932  -7.068   5.038  1.00  0.00    -0.371 OA
BRANCH   4   5
ATOM      5  C   UNL     1       6.968  -6.951   6.096  1.00  0.00     0.158 C 
ATOM      6  C   UNL     1       4.018  -3.166   4.052  1.00  0.00    -0.003 C 
ATOM      7  C   UNL     1       5.418  -3.254   4.672  1.00  0.00     0.052 C 
ATOM      8  C   UNL     1       3.700  -4.482   3.329  1.00  0.00     0.019 C 
ATOM      9  C   UNL     1       5.576  -4.503   5.549  1.00  0.00     0.189 C 
ATOM     10  C   UNL     1       3.910  -5.687   4.245  1.00  0.00     0.087 C 
ATOM     11  N   UNL     1       5.271  -5.709   4.779  1.00  0.00    -0.276 NA
ATOM     12  O   UNL     1       6.922  -4.499   6.028  1.00  0.00    -0.360 OA
ATOM     13  C   UNL     1       5.515  -6.907   5.590  1.00  0.00     0.121 C 
ATOM     14  C   UNL     1       7.232  -5.637   6.838  1.00  0.00     0.195 C 
BRANCH   6  15
ATOM     15  C   UNL     1       3.905  -1.997   3.100  1.00  0.00    -0.008 C 
ATOM     16  C   UNL     1       2.659  -1.143   3.083  1.00  0.00     0.004 C 
ATOM     17  C   UNL     1       3.945  -0.577   3.611  1.00  0.00     0.004 C 
ENDBRANCH   6  15
ENDBRANCH   4   5
ENDBRANCH   1   4
BRANCH   3  18
ATOM     18  C   UNL     1      11.632  -7.873   4.515  1.00  0.00     0.053 C 
BRANCH  18  19
ATOM     19  C   UNL     1      12.572  -8.954   4.981  1.00  0.00     0.074 C 
BRANCH  19  20
ATOM     20  N   UNL     1      13.135  -9.843   4.231  1.00  0.00    -0.313 NA
ATOM     21  H   UNL     1      13.558 -10.598   4.790  1.00  0.00     0.186 HD
ENDBRANCH  19  20
ENDBRANCH  18  19
ENDBRANCH   3  18
TORSDOF 6
ENDMDL
MODEL 6
REMARK VINA RESULT:    -3.956      5.074      7.231
REMARK INTER + INTRA:          -5.343
REMARK INTER:                  -5.079
REMARK INTRA:                  -0.264
REMARK UNBOUND:                -0.115
REMARK SMILES [H]/N=C\C[C@H]1C[C@@H]1O[C@H]1CO[C@H]2C[C@@H](C3CC3)CCN2C1
REMARK SMILES IDX 7 1 6 2 5 3 8 4 9 5 14 6 13 7 18 8 12 9 19 10 20 11 11 12
REMARK SMILES IDX 21 13 10 14 15 15 16 16 17 17 4 18 3 19 2 20 1 21
REMARK H PARENT
ROOT
ATOM      1  C   UNL     1       5.489  -6.606  12.600  1.00  0.00     0.122 C 
ATOM      2  C   UNL     1       4.323  -7.469  12.993  1.00  0.00     0.039 C 
ATOM      3  C   UNL     1       5.708  -8.050  12.962  1.00  0.00     0.026 C 
ENDROOT
BRANCH   1   4
ATOM      4  O   UNL     1       5.531  -6.280  11.197  1.00  0.00    -0.371 OA
BRANCH   4   5
ATOM      5  C   UNL     1       6.212  -5.059  10.866  1.00  0.00     0.158 C 
ATOM      6  C   UNL     1       8.029  -6.426   6.171  1.00  0.00    -0.003 C 
ATOM      7  C   UNL     1       8.356  -6.791   7.625  1.00  0.00     0.052 C 
ATOM      8  C   UNL     1       6.529  -6.124   6.049  1.00  0.00     0.019 C 
ATOM      9  C   UNL     1       7.850  -5.726   8.607  1.00  0.00     0.189 C 
ATOM     10  C   UNL     1       6.083  -5.084   7.076  1.00  0.00     0.087 C 
ATOM     11  N   UNL     1       6.413  -5.514   8.435  1.00  0.00    -0.276 NA
ATOM     12  O   UNL     1       8.169  -6.196   9.919  1.00  0.00    -0.360 OA
ATOM     13  C   UNL     1       5.914  -4.567   9.438  1.00  0.00     0.121 C 
ATOM     14  C   UNL     1       7.720  -5.315  10.954  1.00  0.00     0.195 C 
BRANCH   6  15
ATOM     15  C   UNL     1       8.428  -7.530   5.219  1.00  0.00    -0.008 C 
ATOM     16  C   UNL     1       9.765  -7.488   4.517  1.00  0.00     0.004 C 
ATOM     17  C   UNL     1       9.513  -8.513   5.585  1.00  0.00     0.004 C 
ENDBRANCH   6  15
ENDBRANCH   4   5
ENDBRANCH   1   4
BRANCH   3  18
ATOM     18  C   UNL     1       6.373  -8.411  14.256  1.00  0.00     0.053 C 
BRANCH  18  19
ATOM     19  C   UNL     1       7.467  -9.444  14.178  1.00  0.00     0.074 C 
BRANCH  19  20
ATOM     20  N   UNL     1       8.131  -9.764  13.117  1.00  0.00    -0.313 NA
ATOM     21  H   UNL     1       7.766 -10.626  12.687  1.00  0.00     0.186 HD
ENDBRANCH  19  20
ENDBRANCH  18  19
ENDBRANCH   3  18
TORSDOF 6
ENDMDL
MODEL 7
REMARK VINA RESULT:    -3.843      3.414      7.167
REMARK INTER + INTRA:          -5.194
REMARK INTER:                  -5.017
REMARK INTRA:                  -0.177
REMARK UNBOUND:                -0.115
REMARK SMILES [H]/N=C\C[C@H]1C[C@@H]1O[C@H]1CO[C@H]2C[C@@H](C3CC3)CCN2C1
REMARK SMILES IDX 7 1 6 2 5 3 8 4 9 5 14 6 13 7 18 8 12 9 19 10 20 11 11 12
REMARK SMILES IDX 21 13 10 14 15 15 16 16 17 17 4 18 3 19 2 20 1 21
REMARK H PARENT
ROOT
ATOM      1  C   UNL     1      13.451  -9.611  10.403  1.00  0.00     0.122 C 
ATOM      2  C   UNL     1      13.078 -10.538   9.281  1.00  0.00     0.039 C 
ATOM      3  C   UNL     1      13.581  -9.157   8.975  1.00  0.00     0.026 C 
ENDROOT
BRANCH   1   4
ATOM      4  O   UNL     1      12.324  -9.101  11.142  1.00  0.00    -0.371 OA
BRANCH   4   5
ATOM      5  C   UNL     1      12.549  -8.885  12.544  1.00  0.00     0.158 C 
ATOM      6  C   UNL     1       7.708  -7.510  13.912  1.00  0.00    -0.003 C 
ATOM      7  C   UNL     1       8.853  -6.861  13.125  1.00  0.00     0.052 C 
ATOM      8  C   UNL     1       7.747  -9.031  13.703  1.00  0.00     0.019 C 
ATOM      9  C   UNL     1      10.207  -7.503  13.456  1.00  0.00     0.189 C 
ATOM     10  C   UNL     1       9.130  -9.602  14.016  1.00  0.00     0.087 C 
ATOM     11  N   UNL     1      10.161  -8.945  13.213  1.00  0.00    -0.276 NA
ATOM     12  O   UNL     1      11.179  -6.852  12.635  1.00  0.00    -0.360 OA
ATOM     13  C   UNL     1      11.482  -9.542  13.438  1.00  0.00     0.121 C 
ATOM     14  C   UNL     1      12.499  -7.376  12.807  1.00  0.00     0.195 C 
BRANCH   6  15
ATOM     15  C   UNL     1       6.364  -6.952  13.499  1.00  0.00    -0.008 C 
ATOM     16  C   UNL     1       5.773  -5.768  14.226  1.00  0.00     0.004 C 
ATOM     17  C   UNL     1       6.261  -5.610  12.815  1.00  0.00     0.004 C 
ENDBRANCH   6  15
ENDBRANCH   4   5
ENDBRANCH   1   4
BRANCH   3  18
ATOM     18  C   UNL     1      14.936  -8.997   8.353  1.00  0.00     0.053 C 
BRANCH  18  19
ATOM     19  C   UNL     1      15.145  -7.761   7.518  1.00  0.00     0.074 C 
BRANCH  19  20
ATOM     20  N   UNL     1      14.602  -6.607   7.725  1.00  0.00    -0.313 NA
ATOM     21  H   UNL     1      14.707  -6.308   8.704  1.00  0.00     0.186 HD
ENDBRANCH  19  20
ENDBRANCH  18  19
ENDBRANCH   3  18
TORSDOF 6
ENDMDL
MODEL 8
REMARK VINA RESULT:    -3.663      5.562      8.213
REMARK INTER + INTRA:          -4.956
REMARK INTER:                  -4.838
REMARK INTRA:                  -0.118
REMARK UNBOUND:                -0.115
REMARK SMILES [H]/N=C\C[C@H]1C[C@@H]1O[C@H]1CO[C@H]2C[C@@H](C3CC3)CCN2C1
REMARK SMILES IDX 7 1 6 2 5 3 8 4 9 5 14 6 13 7 18 8 12 9 19 10 20 11 11 12
REMARK SMILES IDX 21 13 10 14 15 15 16 16 17 17 4 18 3 19 2 20 1 21
REMARK H PARENT
ROOT
ATOM      1  C   UNL     1       6.976  -5.549  11.340  1.00  0.00     0.122 C 
ATOM      2  C   UNL     1       8.254  -5.464  10.553  1.00  0.00     0.039 C 
ATOM      3  C   UNL     1       6.938  -5.563   9.836  1.00  0.00     0.026 C 
ENDROOT
BRANCH   1   4
ATOM      4  O   UNL     1       6.777  -6.813  12.001  1.00  0.00    -0.371 OA
BRANCH   4   5
ATOM      5  C   UNL     1       7.077  -6.831  13.406  1.00  0.00     0.158 C 
ATOM      6  C   UNL     1      11.590  -9.439  13.210  1.00  0.00    -0.003 C 
ATOM      7  C   UNL     1      10.109  -9.790  13.020  1.00  0.00     0.052 C 
ATOM      8  C   UNL     1      11.834  -7.998  12.740  1.00  0.00     0.019 C 
ATOM      9  C   UNL     1       9.189  -8.753  13.678  1.00  0.00     0.189 C 
ATOM     10  C   UNL     1      10.864  -7.022  13.405  1.00  0.00     0.087 C 
ATOM     11  N   UNL     1       9.476  -7.415  13.162  1.00  0.00    -0.276 NA
ATOM     12  O   UNL     1       7.848  -9.160  13.397  1.00  0.00    -0.360 OA
ATOM     13  C   UNL     1       8.533  -6.440  13.721  1.00  0.00     0.121 C 
ATOM     14  C   UNL     1       6.868  -8.259  13.920  1.00  0.00     0.195 C 
BRANCH   6  15
ATOM     15  C   UNL     1      12.488 -10.400  12.464  1.00  0.00    -0.008 C 
ATOM     16  C   UNL     1      13.094 -11.587  13.175  1.00  0.00     0.004 C 
ATOM     17  C   UNL     1      12.026 -11.800  12.143  1.00  0.00     0.004 C 
ENDBRANCH   6  15
ENDBRANCH   4   5
ENDBRANCH   1   4
BRANCH   3  18
ATOM     18  C   UNL     1       6.430  -4.371   9.082  1.00  0.00     0.053 C 
BRANCH  18  19
ATOM     19  C   UNL     1       6.593  -4.411   7.584  1.00  0.00     0.074 C 
BRANCH  19  20
ATOM     20  N   UNL     1       6.908  -5.450   6.884  1.00  0.00    -0.313 NA
ATOM     21  H   UNL     1       6.277  -6.241   7.075  1.00  0.00     0.186 HD
ENDBRANCH  19  20
ENDBRANCH  18  19
ENDBRANCH   3  18
TORSDOF 6
ENDMDL
MODEL 9
REMARK VINA RESULT:    -3.537      3.525      5.166
REMARK INTER + INTRA:          -4.790
REMARK INTER:                  -4.573
REMARK INTRA:                  -0.216
REMARK UNBOUND:                -0.115
REMARK SMILES [H]/N=C\C[C@H]1C[C@@H]1O[C@H]1CO[C@H]2C[C@@H](C3CC3)CCN2C1
REMARK SMILES IDX 7 1 6 2 5 3 8 4 9 5 14 6 13 7 18 8 12 9 19 10 20 11 11 12
REMARK SMILES IDX 21 13 10 14 15 15 16 16 17 17 4 18 3 19 2 20 1 21
REMARK H PARENT
ROOT
ATOM      1  C   UNL     1       9.896  -8.296  13.511  1.00  0.00     0.122 C 
ATOM      2  C   UNL     1      10.205  -6.887  13.932  1.00  0.00     0.039 C 
ATOM      3  C   UNL     1       8.992  -7.170  13.091  1.00  0.00     0.026 C 
ENDROOT
BRANCH   1   4
ATOM      4  O   UNL     1      10.786  -8.817  12.506  1.00  0.00    -0.371 OA
BRANCH   4   5
ATOM      5  C   UNL     1      11.896  -9.586  12.999  1.00  0.00     0.158 C 
ATOM      6  C   UNL     1      14.087 -10.819   8.430  1.00  0.00    -0.003 C 
ATOM      7  C   UNL     1      12.823 -11.238   9.190  1.00  0.00     0.052 C 
ATOM      8  C   UNL     1      14.409  -9.353   8.750  1.00  0.00     0.019 C 
ATOM      9  C   UNL     1      12.933 -10.935  10.690  1.00  0.00     0.189 C 
ATOM     10  C   UNL     1      14.471  -9.111  10.258  1.00  0.00     0.087 C 
ATOM     11  N   UNL     1      13.224  -9.518  10.905  1.00  0.00    -0.276 NA
ATOM     12  O   UNL     1      11.690 -11.323  11.278  1.00  0.00    -0.360 OA
ATOM     13  C   UNL     1      13.234  -9.211  12.340  1.00  0.00     0.121 C 
ATOM     14  C   UNL     1      11.630 -11.062  12.684  1.00  0.00     0.195 C 
BRANCH   6  15
ATOM     15  C   UNL     1      13.928 -11.015   6.939  1.00  0.00    -0.008 C 
ATOM     16  C   UNL     1      15.073 -11.550   6.112  1.00  0.00     0.004 C 
ATOM     17  C   UNL     1      13.858 -12.400   6.343  1.00  0.00     0.004 C 
ENDBRANCH   6  15
ENDBRANCH   4   5
ENDBRANCH   1   4
BRANCH   3  18
ATOM     18  C   UNL     1       7.632  -7.023  13.706  1.00  0.00     0.053 C 
BRANCH  18  19
ATOM     19  C   UNL     1       6.754  -5.942  13.131  1.00  0.00     0.074 C 
BRANCH  19  20
ATOM     20  N   UNL     1       6.071  -5.081  13.808  1.00  0.00    -0.313 NA
ATOM     21  H   UNL     1       6.471  -4.135  13.734  1.00  0.00     0.186 HD
ENDBRANCH  19  20
ENDBRANCH  18  19
ENDBRANCH   3  18
TORSDOF 6
ENDMDL
