MODEL 1
REMARK VINA RESULT:    -4.124      0.000      0.000
REMARK INTER + INTRA:          -5.734
REMARK INTER:                  -5.450
REMARK INTRA:                  -0.284
REMARK UNBOUND:                -0.284
REMARK SMILES [H]/N=C\C[C@H]1C[C@@H]1O[C@H]1CO[C@H]2C[C@@H](C3CC3)CCN2C1
REMARK SMILES IDX 7 1 6 2 5 3 8 4 9 5 14 6 13 7 18 8 12 9 19 10 20 11 11 12
REMARK SMILES IDX 21 13 10 14 15 15 16 16 17 17 4 18 3 19 2 20 1 21
REMARK H PARENT
ROOT
ATOM      1  C   UNL     1     -18.420  11.496   4.819  1.00  0.00     0.122 C 
ATOM      2  C   UNL     1     -19.144  11.203   6.103  1.00  0.00     0.039 C 
ATOM      3  C   UNL     1     -17.669  10.941   5.999  1.00  0.00     0.026 C 
ENDROOT
BRANCH   1   4
ATOM      4  O   UNL     1     -18.718  10.574   3.753  1.00  0.00    -0.371 OA
BRANCH   4   5
ATOM      5  C   UNL     1     -18.442  11.051   2.426  1.00  0.00     0.158 C 
ATOM      6  C   UNL     1     -15.083   7.346   0.945  1.00  0.00    -0.003 C 
ATOM      7  C   UNL     1     -15.049   8.536   1.912  1.00  0.00     0.052 C 
ATOM      8  C   UNL     1     -16.505   6.767   0.903  1.00  0.00     0.019 C 
ATOM      9  C   UNL     1     -16.136   9.569   1.582  1.00  0.00     0.189 C 
ATOM     10  C   UNL     1     -17.540   7.850   0.605  1.00  0.00     0.087 C 
ATOM     11  N   UNL     1     -17.456   8.938   1.580  1.00  0.00    -0.276 NA
ATOM     12  O   UNL     1     -16.035  10.597   2.569  1.00  0.00    -0.360 OA
ATOM     13  C   UNL     1     -18.501   9.944   1.359  1.00  0.00     0.121 C 
ATOM     14  C   UNL     1     -17.020  11.623   2.412  1.00  0.00     0.195 C 
BRANCH   6  15
ATOM     15  C   UNL     1     -14.088   6.279   1.343  1.00  0.00    -0.008 C 
ATOM     16  C   UNL     1     -13.043   5.806   0.361  1.00  0.00     0.004 C 
ATOM     17  C   UNL     1     -12.632   6.620   1.553  1.00  0.00     0.004 C 
ENDBRANCH   6  15
ENDBRANCH   4   5
ENDBRANCH   1   4
BRANCH   3  18
ATOM     18  C   UNL     1     -16.721  11.812   6.768  1.00  0.00     0.053 C 
BRANCH  18  19
ATOM     19  C   UNL     1     -15.290  11.344   6.833  1.00  0.00     0.074 C 
BRANCH  19  20
ATOM     20  N   UNL     1     -14.319  11.957   7.423  1.00  0.00    -0.313 NA
ATOM     21  H   UNL     1     -13.885  12.660   6.808  1.00  0.00     0.186 HD
ENDBRANCH  19  20
ENDBRANCH  18  19
ENDBRANCH   3  18
TORSDOF 6
ENDMDL
MODEL 2
REMARK VINA RESULT:    -3.981      5.418      8.466
REMARK INTER + INTRA:          -5.545
REMARK INTER:                  -5.289
REMARK INTRA:                  -0.256
REMARK UNBOUND:                -0.284
REMARK SMILES [H]/N=C\C[C@H]1C[C@@H]1O[C@H]1CO[C@H]2C[C@@H](C3CC3)CCN2C1
REMARK SMILES IDX 7 1 6 2 5 3 8 4 9 5 14 6 13 7 18 8 12 9 19 10 20 11 11 12
REMARK SMILES IDX 21 13 10 14 15 15 16 16 17 17 4 18 3 19 2 20 1 21
REMARK H PARENT
ROOT
ATOM      1  C   UNL     1     -13.083   6.654   0.429  1.00  0.00     0.122 C 
ATOM      2  C   UNL     1     -14.387   6.652   1.176  1.00  0.00     0.039 C 
ATOM      3  C   UNL     1     -13.238   7.481   1.677  1.00  0.00     0.026 C 
ENDROOT
BRANCH   1   4
ATOM      4  O   UNL     1     -12.332   5.432   0.556  1.00  0.00    -0.371 OA
BRANCH   4   5
ATOM      5  C   UNL     1     -12.827   4.319  -0.207  1.00  0.00     0.158 C 
ATOM      6  C   UNL     1      -8.262   2.385  -1.826  1.00  0.00    -0.003 C 
ATOM      7  C   UNL     1      -9.110   3.620  -2.153  1.00  0.00     0.052 C 
ATOM      8  C   UNL     1      -8.458   2.012  -0.350  1.00  0.00     0.019 C 
ATOM      9  C   UNL     1     -10.577   3.429  -1.747  1.00  0.00     0.189 C 
ATOM     10  C   UNL     1      -9.940   1.870  -0.002  1.00  0.00     0.087 C 
ATOM     11  N   UNL     1     -10.673   3.094  -0.326  1.00  0.00    -0.276 NA
ATOM     12  O   UNL     1     -11.250   4.651  -2.056  1.00  0.00    -0.360 OA
ATOM     13  C   UNL     1     -12.080   3.005   0.082  1.00  0.00     0.121 C 
ATOM     14  C   UNL     1     -12.634   4.636  -1.693  1.00  0.00     0.195 C 
BRANCH   6  15
ATOM     15  C   UNL     1      -6.798   2.621  -2.123  1.00  0.00    -0.008 C 
ATOM     16  C   UNL     1      -6.030   1.655  -2.993  1.00  0.00     0.004 C 
ATOM     17  C   UNL     1      -6.346   3.030  -3.504  1.00  0.00     0.004 C 
ENDBRANCH   6  15
ENDBRANCH   4   5
ENDBRANCH   1   4
BRANCH   3  18
ATOM     18  C   UNL     1     -13.327   8.975   1.587  1.00  0.00     0.053 C 
BRANCH  18  19
ATOM     19  C   UNL     1     -14.564   9.605   2.172  1.00  0.00     0.074 C 
BRANCH  19  20
ATOM     20  N   UNL     1     -14.761   9.869   3.421  1.00  0.00    -0.313 NA
ATOM     21  H   UNL     1     -14.347   9.149   4.031  1.00  0.00     0.186 HD
ENDBRANCH  19  20
ENDBRANCH  18  19
ENDBRANCH   3  18
TORSDOF 6
ENDMDL
MODEL 3
REMARK VINA RESULT:    -3.967      8.416     10.878
REMARK INTER + INTRA:          -5.527
REMARK INTER:                  -5.325
REMARK INTRA:                  -0.201
REMARK UNBOUND:                -0.284
REMARK SMILES [H]/N=C\C[C@H]1C[C@@H]1O[C@H]1CO[C@H]2C[C@@H](C3CC3)CCN2C1
REMARK SMILES IDX 7 1 6 2 5 3 8 4 9 5 14 6 13 7 18 8 12 9 19 10 20 11 11 12
REMARK SMILES IDX 21 13 10 14 15 15 16 16 17 17 4 18 3 19 2 20 1 21
REMARK H PARENT
ROOT
ATOM      1  C   UNL     1     -14.171   3.613  -3.274  1.00  0.00     0.122 C 
ATOM      2  C   UNL     1     -14.951   4.600  -4.096  1.00  0.00     0.039 C 
ATOM      3  C   UNL     1     -14.714   3.212  -4.619  1.00  0.00     0.026 C 
ENDROOT
BRANCH   1   4
ATOM      4  O   UNL     1     -12.759   3.891  -3.206  1.00  0.00    -0.371 OA
BRANCH   4   5
ATOM      5  C   UNL     1     -12.391   5.039  -2.424  1.00  0.00     0.158 C 
ATOM      6  C   UNL     1      -8.228   3.037  -0.003  1.00  0.00    -0.003 C 
ATOM      7  C   UNL     1      -9.747   2.848   0.087  1.00  0.00     0.052 C 
ATOM      8  C   UNL     1      -7.843   3.366  -1.452  1.00  0.00     0.019 C 
ATOM      9  C   UNL     1     -10.506   4.043  -0.505  1.00  0.00     0.189 C 
ATOM     10  C   UNL     1      -8.658   4.541  -1.993  1.00  0.00     0.087 C 
ATOM     11  N   UNL     1     -10.092   4.276  -1.889  1.00  0.00    -0.276 NA
ATOM     12  O   UNL     1     -11.898   3.733  -0.407  1.00  0.00    -0.360 OA
ATOM     13  C   UNL     1     -10.887   5.356  -2.483  1.00  0.00     0.121 C 
ATOM     14  C   UNL     1     -12.739   4.750  -0.960  1.00  0.00     0.195 C 
BRANCH   6  15
ATOM     15  C   UNL     1      -7.487   1.810   0.477  1.00  0.00    -0.008 C 
ATOM     16  C   UNL     1      -6.311   1.946   1.415  1.00  0.00     0.004 C 
ATOM     17  C   UNL     1      -7.596   1.351   1.911  1.00  0.00     0.004 C 
ENDBRANCH   6  15
ENDBRANCH   4   5
ENDBRANCH   1   4
BRANCH   3  18
ATOM     18  C   UNL     1     -15.872   2.264  -4.714  1.00  0.00     0.053 C 
BRANCH  18  19
ATOM     19  C   UNL     1     -17.059   2.740  -5.509  1.00  0.00     0.074 C 
BRANCH  19  20
ATOM     20  N   UNL     1     -17.337   2.412  -6.727  1.00  0.00    -0.313 NA
ATOM     21  H   UNL     1     -18.298   2.678  -6.982  1.00  0.00     0.186 HD
ENDBRANCH  19  20
ENDBRANCH  18  19
ENDBRANCH   3  18
TORSDOF 6
ENDMDL
MODEL 4
REMARK VINA RESULT:    -3.949      3.696      8.163
REMARK INTER + INTRA:          -5.504
REMARK INTER:                  -5.314
REMARK INTRA:                  -0.189
REMARK UNBOUND:                -0.284
REMARK SMILES [H]/N=C\C[C@H]1C[C@@H]1O[C@H]1CO[C@H]2C[C@@H](C3CC3)CCN2C1
REMARK SMILES IDX 7 1 6 2 5 3 8 4 9 5 14 6 13 7 18 8 12 9 19 10 20 11 11 12
REMARK SMILES IDX 21 13 10 14 15 15 16 16 17 17 4 18 3 19 2 20 1 21
REMARK H PARENT
ROOT
ATOM      1  C   UNL     1     -12.181   5.000  -0.914  1.00  0.00     0.122 C 
ATOM      2  C   UNL     1     -12.439   4.599  -2.339  1.00  0.00     0.039 C 
ATOM      3  C   UNL     1     -11.236   5.432  -2.002  1.00  0.00     0.026 C 
ENDROOT
BRANCH   1   4
ATOM      4  O   UNL     1     -13.087   6.001  -0.413  1.00  0.00    -0.371 OA
BRANCH   4   5
ATOM      5  C   UNL     1     -13.444   5.874   0.973  1.00  0.00     0.158 C 
ATOM      6  C   UNL     1     -15.336  10.674   1.736  1.00  0.00    -0.003 C 
ATOM      7  C   UNL     1     -13.946  10.062   1.530  1.00  0.00     0.052 C 
ATOM      8  C   UNL     1     -16.372   9.856   0.952  1.00  0.00     0.019 C 
ATOM      9  C   UNL     1     -13.930   8.561   1.851  1.00  0.00     0.189 C 
ATOM     10  C   UNL     1     -16.282   8.369   1.291  1.00  0.00     0.087 C 
ATOM     11  N   UNL     1     -14.933   7.858   1.050  1.00  0.00    -0.276 NA
ATOM     12  O   UNL     1     -12.606   8.099   1.579  1.00  0.00    -0.360 OA
ATOM     13  C   UNL     1     -14.851   6.412   1.288  1.00  0.00     0.121 C 
ATOM     14  C   UNL     1     -12.447   6.694   1.799  1.00  0.00     0.195 C 
BRANCH   6  15
ATOM     15  C   UNL     1     -15.373  12.125   1.310  1.00  0.00    -0.008 C 
ATOM     16  C   UNL     1     -16.262  13.110   2.030  1.00  0.00     0.004 C 
ATOM     17  C   UNL     1     -14.771  13.202   2.179  1.00  0.00     0.004 C 
ENDBRANCH   6  15
ENDBRANCH   4   5
ENDBRANCH   1   4
BRANCH   3  18
ATOM     18  C   UNL     1      -9.872   4.816  -2.107  1.00  0.00     0.053 C 
BRANCH  18  19
ATOM     19  C   UNL     1      -8.807   5.663  -2.754  1.00  0.00     0.074 C 
BRANCH  19  20
ATOM     20  N   UNL     1      -9.011   6.671  -3.534  1.00  0.00    -0.313 NA
ATOM     21  H   UNL     1      -8.949   6.402  -4.526  1.00  0.00     0.186 HD
ENDBRANCH  19  20
ENDBRANCH  18  19
ENDBRANCH   3  18
TORSDOF 6
ENDMDL
MODEL 5
REMARK VINA RESULT:    -3.705      1.918      2.439
REMARK INTER + INTRA:          -5.181
REMARK INTER:                  -5.459
REMARK INTRA:                   0.278
REMARK UNBOUND:                -0.284
REMARK SMILES [H]/N=C\C[C@H]1C[C@@H]1O[C@H]1CO[C@H]2C[C@@H](C3CC3)CCN2C1
REMARK SMILES IDX 7 1 6 2 5 3 8 4 9 5 14 6 13 7 18 8 12 9 19 10 20 11 11 12
REMARK SMILES IDX 21 13 10 14 15 15 16 16 17 17 4 18 3 19 2 20 1 21
REMARK H PARENT
ROOT
ATOM      1  C   UNL     1     -16.817  11.951   5.040  1.00  0.00     0.122 C 
ATOM      2  C   UNL     1     -15.929  11.391   6.116  1.00  0.00     0.039 C 
ATOM      3  C   UNL     1     -17.290  11.918   6.467  1.00  0.00     0.026 C 
ENDROOT
BRANCH   1   4
ATOM      4  O   UNL     1     -16.390  13.229   4.532  1.00  0.00    -0.371 OA
BRANCH   4   5
ATOM      5  C   UNL     1     -16.520  13.406   3.112  1.00  0.00     0.158 C 
ATOM      6  C   UNL     1     -14.833   8.714   1.579  1.00  0.00    -0.003 C 
ATOM      7  C   UNL     1     -14.189   9.973   2.173  1.00  0.00     0.052 C 
ATOM      8  C   UNL     1     -16.261   8.569   2.124  1.00  0.00     0.019 C 
ATOM      9  C   UNL     1     -15.067  11.215   1.965  1.00  0.00     0.189 C 
ATOM     10  C   UNL     1     -17.070   9.849   1.917  1.00  0.00     0.087 C 
ATOM     11  N   UNL     1     -16.400  10.997   2.528  1.00  0.00    -0.276 NA
ATOM     12  O   UNL     1     -14.390  12.304   2.596  1.00  0.00    -0.360 OA
ATOM     13  C   UNL     1     -17.206  12.218   2.413  1.00  0.00     0.121 C 
ATOM     14  C   UNL     1     -15.114  13.535   2.516  1.00  0.00     0.195 C 
BRANCH   6  15
ATOM     15  C   UNL     1     -14.019   7.477   1.886  1.00  0.00    -0.008 C 
ATOM     16  C   UNL     1     -13.865   6.388   0.851  1.00  0.00     0.004 C 
ATOM     17  C   UNL     1     -12.686   7.242   1.218  1.00  0.00     0.004 C 
ENDBRANCH   6  15
ENDBRANCH   4   5
ENDBRANCH   1   4
BRANCH   3  18
ATOM     18  C   UNL     1     -18.357  10.951   6.888  1.00  0.00     0.053 C 
BRANCH  18  19
ATOM     19  C   UNL     1     -17.900   9.768   7.701  1.00  0.00     0.074 C 
BRANCH  19  20
ATOM     20  N   UNL     1     -17.571   9.788   8.949  1.00  0.00    -0.313 NA
ATOM     21  H   UNL     1     -16.664  10.254   9.095  1.00  0.00     0.186 HD
ENDBRANCH  19  20
ENDBRANCH  18  19
ENDBRANCH   3  18
TORSDOF 6
ENDMDL
MODEL 6
REMARK VINA RESULT:    -3.652      3.562      5.612
REMARK INTER + INTRA:          -5.110
REMARK INTER:                  -5.016
REMARK INTRA:                  -0.094
REMARK UNBOUND:                -0.284
REMARK SMILES [H]/N=C\C[C@H]1C[C@@H]1O[C@H]1CO[C@H]2C[C@@H](C3CC3)CCN2C1
REMARK SMILES IDX 7 1 6 2 5 3 8 4 9 5 14 6 13 7 18 8 12 9 19 10 20 11 11 12
REMARK SMILES IDX 21 13 10 14 15 15 16 16 17 17 4 18 3 19 2 20 1 21
REMARK H PARENT
ROOT
ATOM      1  C   UNL     1     -17.699  11.018  -0.043  1.00  0.00     0.122 C 
ATOM      2  C   UNL     1     -16.713  12.014  -0.585  1.00  0.00     0.039 C 
ATOM      3  C   UNL     1     -17.974  11.719  -1.345  1.00  0.00     0.026 C 
ENDROOT
BRANCH   1   4
ATOM      4  O   UNL     1     -17.259   9.650  -0.128  1.00  0.00    -0.371 OA
BRANCH   4   5
ATOM      5  C   UNL     1     -17.418   8.872   1.070  1.00  0.00     0.158 C 
ATOM      6  C   UNL     1     -13.135   5.923   0.664  1.00  0.00    -0.003 C 
ATOM      7  C   UNL     1     -14.488   6.000  -0.055  1.00  0.00     0.052 C 
ATOM      8  C   UNL     1     -12.723   7.329   1.120  1.00  0.00     0.019 C 
ATOM      9  C   UNL     1     -15.545   6.717   0.796  1.00  0.00     0.189 C 
ATOM     10  C   UNL     1     -13.830   8.000   1.932  1.00  0.00     0.087 C 
ATOM     11  N   UNL     1     -15.079   8.051   1.172  1.00  0.00    -0.276 NA
ATOM     12  O   UNL     1     -16.737   6.767   0.009  1.00  0.00    -0.360 OA
ATOM     13  C   UNL     1     -16.128   8.770   1.903  1.00  0.00     0.121 C 
ATOM     14  C   UNL     1     -17.812   7.448   0.664  1.00  0.00     0.195 C 
BRANCH   6  15
ATOM     15  C   UNL     1     -12.070   5.319  -0.222  1.00  0.00    -0.008 C 
ATOM     16  C   UNL     1     -12.043   3.830  -0.478  1.00  0.00     0.004 C 
ATOM     17  C   UNL     1     -12.416   4.772  -1.586  1.00  0.00     0.004 C 
ENDBRANCH   6  15
ENDBRANCH   4   5
ENDBRANCH   1   4
BRANCH   3  18
ATOM     18  C   UNL     1     -19.037  12.774  -1.425  1.00  0.00     0.053 C 
BRANCH  18  19
ATOM     19  C   UNL     1     -19.503  13.146  -2.809  1.00  0.00     0.074 C 
BRANCH  19  20
ATOM     20  N   UNL     1     -18.750  13.535  -3.783  1.00  0.00    -0.313 NA
ATOM     21  H   UNL     1     -17.751  13.444  -3.550  1.00  0.00     0.186 HD
ENDBRANCH  19  20
ENDBRANCH  18  19
ENDBRANCH   3  18
TORSDOF 6
ENDMDL
MODEL 7
REMARK VINA RESULT:    -3.585      5.266      8.313
REMARK INTER + INTRA:          -5.022
REMARK INTER:                  -5.106
REMARK INTRA:                   0.084
REMARK UNBOUND:                -0.284
REMARK SMILES [H]/N=C\C[C@H]1C[C@@H]1O[C@H]1CO[C@H]2C[C@@H](C3CC3)CCN2C1
REMARK SMILES IDX 7 1 6 2 5 3 8 4 9 5 14 6 13 7 18 8 12 9 19 10 20 11 11 12
REMARK SMILES IDX 21 13 10 14 15 15 16 16 17 17 4 18 3 19 2 20 1 21
REMARK H PARENT
ROOT
ATOM      1  C   UNL     1     -13.191   6.271   0.761  1.00  0.00     0.122 C 
ATOM      2  C   UNL     1     -12.615   6.519   2.127  1.00  0.00     0.039 C 
ATOM      3  C   UNL     1     -13.216   7.655   1.351  1.00  0.00     0.026 C 
ENDROOT
BRANCH   1   4
ATOM      4  O   UNL     1     -12.202   6.022  -0.256  1.00  0.00    -0.371 OA
BRANCH   4   5
ATOM      5  C   UNL     1     -12.563   5.042  -1.244  1.00  0.00     0.158 C 
ATOM      6  C   UNL     1      -8.619   1.708  -0.515  1.00  0.00    -0.003 C 
ATOM      7  C   UNL     1      -8.777   3.104  -1.129  1.00  0.00     0.052 C 
ATOM      8  C   UNL     1      -9.621   1.543   0.636  1.00  0.00     0.019 C 
ATOM      9  C   UNL     1     -10.233   3.393  -1.521  1.00  0.00     0.189 C 
ATOM     10  C   UNL     1     -11.044   1.877   0.189  1.00  0.00     0.087 C 
ATOM     11  N   UNL     1     -11.115   3.229  -0.365  1.00  0.00    -0.276 NA
ATOM     12  O   UNL     1     -10.261   4.726  -2.033  1.00  0.00    -0.360 OA
ATOM     13  C   UNL     1     -12.490   3.597  -0.719  1.00  0.00     0.121 C 
ATOM     14  C   UNL     1     -11.574   5.154  -2.409  1.00  0.00     0.195 C 
BRANCH   6  15
ATOM     15  C   UNL     1      -7.207   1.473  -0.027  1.00  0.00    -0.008 C 
ATOM     16  C   UNL     1      -6.040   1.592  -0.978  1.00  0.00     0.004 C 
ATOM     17  C   UNL     1      -6.232   2.619   0.099  1.00  0.00     0.004 C 
ENDBRANCH   6  15
ENDBRANCH   4   5
ENDBRANCH   1   4
BRANCH   3  18
ATOM     18  C   UNL     1     -14.508   8.253   1.820  1.00  0.00     0.053 C 
BRANCH  18  19
ATOM     19  C   UNL     1     -14.429   9.645   2.392  1.00  0.00     0.074 C 
BRANCH  19  20
ATOM     20  N   UNL     1     -14.936  10.032   3.516  1.00  0.00    -0.313 NA
ATOM     21  H   UNL     1     -15.806   9.526   3.734  1.00  0.00     0.186 HD
ENDBRANCH  19  20
ENDBRANCH  18  19
ENDBRANCH   3  18
TORSDOF 6
ENDMDL
MODEL 8
REMARK VINA RESULT:    -3.470      2.755      5.046
REMARK INTER + INTRA:          -4.870
REMARK INTER:                  -4.391
REMARK INTRA:                  -0.479
REMARK UNBOUND:                -0.284
REMARK SMILES [H]/N=C\C[C@H]1C[C@@H]1O[C@H]1CO[C@H]2C[C@@H](C3CC3)CCN2C1
REMARK SMILES IDX 7 1 6 2 5 3 8 4 9 5 14 6 13 7 18 8 12 9 19 10 20 11 11 12
REMARK SMILES IDX 21 13 10 14 15 15 16 16 17 17 4 18 3 19 2 20 1 21
REMARK H PARENT
ROOT
ATOM      1  C   UNL     1     -19.402  10.273  -0.167  1.00  0.00     0.122 C 
ATOM      2  C   UNL     1     -19.825  10.544  -1.584  1.00  0.00     0.039 C 
ATOM      3  C   UNL     1     -18.808   9.477  -1.297  1.00  0.00     0.026 C 
ENDROOT
BRANCH   1   4
ATOM      4  O   UNL     1     -18.570  11.301   0.404  1.00  0.00    -0.371 OA
BRANCH   4   5
ATOM      5  C   UNL     1     -18.386  11.228   1.827  1.00  0.00     0.158 C 
ATOM      6  C   UNL     1     -13.938   8.505   1.902  1.00  0.00    -0.003 C 
ATOM      7  C   UNL     1     -15.406   8.201   1.582  1.00  0.00     0.052 C 
ATOM      8  C   UNL     1     -13.621   9.953   1.504  1.00  0.00     0.019 C 
ATOM      9  C   UNL     1     -16.352   9.240   2.200  1.00  0.00     0.189 C 
ATOM     10  C   UNL     1     -14.617  10.933   2.124  1.00  0.00     0.087 C 
ATOM     11  N   UNL     1     -15.990  10.587   1.756  1.00  0.00    -0.276 NA
ATOM     12  O   UNL     1     -17.674   8.880   1.797  1.00  0.00    -0.360 OA
ATOM     13  C   UNL     1     -16.952  11.568   2.271  1.00  0.00     0.121 C 
ATOM     14  C   UNL     1     -18.672   9.790   2.272  1.00  0.00     0.195 C 
BRANCH   6  15
ATOM     15  C   UNL     1     -13.006   7.545   1.197  1.00  0.00    -0.008 C 
ATOM     16  C   UNL     1     -12.431   6.359   1.934  1.00  0.00     0.004 C 
ATOM     17  C   UNL     1     -13.453   6.144   0.855  1.00  0.00     0.004 C 
ENDBRANCH   6  15
ENDBRANCH   4   5
ENDBRANCH   1   4
BRANCH   3  18
ATOM     18  C   UNL     1     -19.190   8.039  -1.490  1.00  0.00     0.053 C 
BRANCH  18  19
ATOM     19  C   UNL     1     -18.152   7.017  -1.106  1.00  0.00     0.074 C 
BRANCH  19  20
ATOM     20  N   UNL     1     -18.104   6.370   0.010  1.00  0.00    -0.313 NA
ATOM     21  H   UNL     1     -17.757   5.409  -0.122  1.00  0.00     0.186 HD
ENDBRANCH  19  20
ENDBRANCH  18  19
ENDBRANCH   3  18
TORSDOF 6
ENDMDL
MODEL 9
REMARK VINA RESULT:    -3.315      1.807      2.112
REMARK INTER + INTRA:          -4.665
REMARK INTER:                  -4.934
REMARK INTRA:                   0.269
REMARK UNBOUND:                -0.284
REMARK SMILES [H]/N=C\C[C@H]1C[C@@H]1O[C@H]1CO[C@H]2C[C@@H](C3CC3)CCN2C1
REMARK SMILES IDX 7 1 6 2 5 3 8 4 9 5 14 6 13 7 18 8 12 9 19 10 20 11 11 12
REMARK SMILES IDX 21 13 10 14 15 15 16 16 17 17 4 18 3 19 2 20 1 21
REMARK H PARENT
ROOT
ATOM      1  C   UNL     1     -17.082  11.183   5.347  1.00  0.00     0.122 C 
ATOM      2  C   UNL     1     -18.504  11.293   4.873  1.00  0.00     0.039 C 
ATOM      3  C   UNL     1     -18.158  10.354   5.994  1.00  0.00     0.026 C 
ENDROOT
BRANCH   1   4
ATOM      4  O   UNL     1     -16.208  10.501   4.427  1.00  0.00    -0.371 OA
BRANCH   4   5
ATOM      5  C   UNL     1     -16.262  10.959   3.066  1.00  0.00     0.158 C 
ATOM      6  C   UNL     1     -14.058   6.831   0.763  1.00  0.00    -0.003 C 
ATOM      7  C   UNL     1     -13.571   7.983   1.650  1.00  0.00     0.052 C 
ATOM      8  C   UNL     1     -15.499   6.468   1.148  1.00  0.00     0.019 C 
ATOM      9  C   UNL     1     -14.543   9.171   1.625  1.00  0.00     0.189 C 
ATOM     10  C   UNL     1     -16.406   7.699   1.137  1.00  0.00     0.087 C 
ATOM     11  N   UNL     1     -15.884   8.741   2.020  1.00  0.00    -0.276 NA
ATOM     12  O   UNL     1     -14.010  10.153   2.516  1.00  0.00    -0.360 OA
ATOM     13  C   UNL     1     -16.789   9.895   2.088  1.00  0.00     0.121 C 
ATOM     14  C   UNL     1     -14.837  11.316   2.628  1.00  0.00     0.195 C 
BRANCH   6  15
ATOM     15  C   UNL     1     -13.157   5.622   0.880  1.00  0.00    -0.008 C 
ATOM     16  C   UNL     1     -12.795   4.818  -0.346  1.00  0.00     0.004 C 
ATOM     17  C   UNL     1     -11.750   5.651   0.336  1.00  0.00     0.004 C 
ENDBRANCH   6  15
ENDBRANCH   4   5
ENDBRANCH   1   4
BRANCH   3  18
ATOM     18  C   UNL     1     -18.627  10.675   7.381  1.00  0.00     0.053 C 
BRANCH  18  19
ATOM     19  C   UNL     1     -17.852  10.044   8.509  1.00  0.00     0.074 C 
BRANCH  19  20
ATOM     20  N   UNL     1     -17.952   8.818   8.903  1.00  0.00    -0.313 NA
ATOM     21  H   UNL     1     -18.861   8.636   9.351  1.00  0.00     0.186 HD
ENDBRANCH  19  20
ENDBRANCH  18  19
ENDBRANCH   3  18
TORSDOF 6
ENDMDL
