MODEL 1
REMARK VINA RESULT:    -4.219      0.000      0.000
REMARK INTER + INTRA:          -5.806
REMARK INTER:                  -5.576
REMARK INTRA:                  -0.230
REMARK UNBOUND:                -0.230
REMARK SMILES [H]/N=C\C[C@H]1C[C@@H]1O[C@H]1CO[C@H]2C[C@@H](C3CC3)CCN2C1
REMARK SMILES IDX 7 1 6 2 5 3 8 4 9 5 14 6 13 7 18 8 12 9 19 10 20 11 11 12
REMARK SMILES IDX 21 13 10 14 15 15 16 16 17 17 4 18 3 19 2 20 1 21
REMARK H PARENT
ROOT
ATOM      1  C   UNL     1      -6.516   6.740  -9.467  1.00  0.00     0.122 C 
ATOM      2  C   UNL     1      -7.704   7.656  -9.555  1.00  0.00     0.039 C 
ATOM      3  C   UNL     1      -6.337   8.225  -9.301  1.00  0.00     0.026 C 
ENDROOT
BRANCH   1   4
ATOM      4  O   UNL     1      -6.473   5.948  -8.265  1.00  0.00    -0.371 OA
BRANCH   4   5
ATOM      5  C   UNL     1      -7.449   4.896  -8.181  1.00  0.00     0.158 C 
ATOM      6  C   UNL     1      -4.477   1.249  -5.929  1.00  0.00    -0.003 C 
ATOM      7  C   UNL     1      -4.565   1.890  -7.320  1.00  0.00     0.052 C 
ATOM      8  C   UNL     1      -4.875   2.284  -4.867  1.00  0.00     0.019 C 
ATOM      9  C   UNL     1      -5.933   2.541  -7.562  1.00  0.00     0.189 C 
ATOM     10  C   UNL     1      -6.228   2.919  -5.185  1.00  0.00     0.087 C 
ATOM     11  N   UNL     1      -6.223   3.523  -6.517  1.00  0.00    -0.276 NA
ATOM     12  O   UNL     1      -5.877   3.139  -8.859  1.00  0.00    -0.360 OA
ATOM     13  C   UNL     1      -7.487   4.212  -6.803  1.00  0.00     0.121 C 
ATOM     14  C   UNL     1      -7.082   3.824  -9.213  1.00  0.00     0.195 C 
BRANCH   6  15
ATOM     15  C   UNL     1      -3.092   0.710  -5.652  1.00  0.00    -0.008 C 
ATOM     16  C   UNL     1      -2.910  -0.695  -5.129  1.00  0.00     0.004 C 
ATOM     17  C   UNL     1      -2.489  -0.360  -6.530  1.00  0.00     0.004 C 
ENDBRANCH   6  15
ENDBRANCH   4   5
ENDBRANCH   1   4
BRANCH   3  18
ATOM     18  C   UNL     1      -5.674   9.031 -10.378  1.00  0.00     0.053 C 
BRANCH  18  19
ATOM     19  C   UNL     1      -6.464  10.193 -10.922  1.00  0.00     0.074 C 
BRANCH  19  20
ATOM     20  N   UNL     1      -6.408  11.411 -10.498  1.00  0.00    -0.313 NA
ATOM     21  H   UNL     1      -7.192  11.630  -9.867  1.00  0.00     0.186 HD
ENDBRANCH  19  20
ENDBRANCH  18  19
ENDBRANCH   3  18
TORSDOF 6
ENDMDL
MODEL 2
REMARK VINA RESULT:    -4.198      3.333      5.618
REMARK INTER + INTRA:          -5.778
REMARK INTER:                  -5.563
REMARK INTRA:                  -0.215
REMARK UNBOUND:                -0.230
REMARK SMILES [H]/N=C\C[C@H]1C[C@@H]1O[C@H]1CO[C@H]2C[C@@H](C3CC3)CCN2C1
REMARK SMILES IDX 7 1 6 2 5 3 8 4 9 5 14 6 13 7 18 8 12 9 19 10 20 11 11 12
REMARK SMILES IDX 21 13 10 14 15 15 16 16 17 17 4 18 3 19 2 20 1 21
REMARK H PARENT
ROOT
ATOM      1  C   UNL     1      -8.930   2.421 -10.047  1.00  0.00     0.122 C 
ATOM      2  C   UNL     1      -9.034   2.449 -11.546  1.00  0.00     0.039 C 
ATOM      3  C   UNL     1      -9.544   1.261 -10.782  1.00  0.00     0.026 C 
ENDROOT
BRANCH   1   4
ATOM      4  O   UNL     1      -7.589   2.235  -9.555  1.00  0.00    -0.371 OA
BRANCH   4   5
ATOM      5  C   UNL     1      -6.707   3.358  -9.720  1.00  0.00     0.158 C 
ATOM      6  C   UNL     1      -4.155   3.021  -5.183  1.00  0.00    -0.003 C 
ATOM      7  C   UNL     1      -5.565   3.435  -5.622  1.00  0.00     0.052 C 
ATOM      8  C   UNL     1      -3.632   1.926  -6.124  1.00  0.00     0.019 C 
ATOM      9  C   UNL     1      -5.611   3.814  -7.109  1.00  0.00     0.189 C 
ATOM     10  C   UNL     1      -3.737   2.352  -7.589  1.00  0.00     0.087 C 
ATOM     11  N   UNL     1      -5.113   2.712  -7.932  1.00  0.00    -0.276 NA
ATOM     12  O   UNL     1      -6.971   4.134  -7.407  1.00  0.00    -0.360 OA
ATOM     13  C   UNL     1      -5.246   3.040  -9.356  1.00  0.00     0.121 C 
ATOM     14  C   UNL     1      -7.178   4.474  -8.782  1.00  0.00     0.195 C 
BRANCH   6  15
ATOM     15  C   UNL     1      -4.140   2.540  -3.750  1.00  0.00    -0.008 C 
ATOM     16  C   UNL     1      -3.080   3.030  -2.792  1.00  0.00     0.004 C 
ATOM     17  C   UNL     1      -4.505   3.470  -2.618  1.00  0.00     0.004 C 
ENDBRANCH   6  15
ENDBRANCH   4   5
ENDBRANCH   1   4
BRANCH   3  18
ATOM     18  C   UNL     1     -11.023   1.021 -10.714  1.00  0.00     0.053 C 
BRANCH  18  19
ATOM     19  C   UNL     1     -11.743   0.918 -12.034  1.00  0.00     0.074 C 
BRANCH  19  20
ATOM     20  N   UNL     1     -12.187  -0.168 -12.571  1.00  0.00    -0.313 NA
ATOM     21  H   UNL     1     -11.770  -1.004 -12.138  1.00  0.00     0.186 HD
ENDBRANCH  19  20
ENDBRANCH  18  19
ENDBRANCH   3  18
TORSDOF 6
ENDMDL
MODEL 3
REMARK VINA RESULT:    -4.081      2.689      8.608
REMARK INTER + INTRA:          -5.623
REMARK INTER:                  -5.529
REMARK INTRA:                  -0.095
REMARK UNBOUND:                -0.230
REMARK SMILES [H]/N=C\C[C@H]1C[C@@H]1O[C@H]1CO[C@H]2C[C@@H](C3CC3)CCN2C1
REMARK SMILES IDX 7 1 6 2 5 3 8 4 9 5 14 6 13 7 18 8 12 9 19 10 20 11 11 12
REMARK SMILES IDX 21 13 10 14 15 15 16 16 17 17 4 18 3 19 2 20 1 21
REMARK H PARENT
ROOT
ATOM      1  C   UNL     1      -6.595   4.464  -8.753  1.00  0.00     0.122 C 
ATOM      2  C   UNL     1      -6.984   3.188  -9.445  1.00  0.00     0.039 C 
ATOM      3  C   UNL     1      -5.533   3.550  -9.301  1.00  0.00     0.026 C 
ENDROOT
BRANCH   1   4
ATOM      4  O   UNL     1      -6.876   5.654  -9.514  1.00  0.00    -0.371 OA
BRANCH   4   5
ATOM      5  C   UNL     1      -7.294   6.795  -8.748  1.00  0.00     0.158 C 
ATOM      6  C   UNL     1      -6.377  10.503 -12.299  1.00  0.00    -0.003 C 
ATOM      7  C   UNL     1      -5.517   9.601 -11.406  1.00  0.00     0.052 C 
ATOM      8  C   UNL     1      -7.661   9.757 -12.688  1.00  0.00     0.019 C 
ATOM      9  C   UNL     1      -6.311   9.058 -10.211  1.00  0.00     0.189 C 
ATOM     10  C   UNL     1      -8.386   9.213 -11.457  1.00  0.00     0.087 C 
ATOM     11  N   UNL     1      -7.505   8.349 -10.671  1.00  0.00    -0.276 NA
ATOM     12  O   UNL     1      -5.425   8.203  -9.486  1.00  0.00    -0.360 OA
ATOM     13  C   UNL     1      -8.212   7.750  -9.533  1.00  0.00     0.121 C 
ATOM     14  C   UNL     1      -6.044   7.587  -8.352  1.00  0.00     0.195 C 
BRANCH   6  15
ATOM     15  C   UNL     1      -5.624  10.942 -13.535  1.00  0.00    -0.008 C 
ATOM     16  C   UNL     1      -6.037  12.190 -14.278  1.00  0.00     0.004 C 
ATOM     17  C   UNL     1      -4.747  12.171 -13.510  1.00  0.00     0.004 C 
ENDBRANCH   6  15
ENDBRANCH   4   5
ENDBRANCH   1   4
BRANCH   3  18
ATOM     18  C   UNL     1      -4.673   2.747  -8.371  1.00  0.00     0.053 C 
BRANCH  18  19
ATOM     19  C   UNL     1      -3.296   2.398  -8.871  1.00  0.00     0.074 C 
BRANCH  19  20
ATOM     20  N   UNL     1      -2.934   2.331 -10.109  1.00  0.00    -0.313 NA
ATOM     21  H   UNL     1      -3.271   1.467 -10.557  1.00  0.00     0.186 HD
ENDBRANCH  19  20
ENDBRANCH  18  19
ENDBRANCH   3  18
TORSDOF 6
ENDMDL
MODEL 4
REMARK VINA RESULT:    -3.916      8.325     10.827
REMARK INTER + INTRA:          -5.405
REMARK INTER:                  -5.369
REMARK INTRA:                  -0.036
REMARK UNBOUND:                -0.230
REMARK SMILES [H]/N=C\C[C@H]1C[C@@H]1O[C@H]1CO[C@H]2C[C@@H](C3CC3)CCN2C1
REMARK SMILES IDX 7 1 6 2 5 3 8 4 9 5 14 6 13 7 18 8 12 9 19 10 20 11 11 12
REMARK SMILES IDX 21 13 10 14 15 15 16 16 17 17 4 18 3 19 2 20 1 21
REMARK H PARENT
ROOT
ATOM      1  C   UNL     1     -14.363   0.543 -15.749  1.00  0.00     0.122 C 
ATOM      2  C   UNL     1     -14.019  -0.498 -16.776  1.00  0.00     0.039 C 
ATOM      3  C   UNL     1     -13.453  -0.599 -15.388  1.00  0.00     0.026 C 
ENDROOT
BRANCH   1   4
ATOM      4  O   UNL     1     -13.736   1.821 -15.974  1.00  0.00    -0.371 OA
BRANCH   4   5
ATOM      5  C   UNL     1     -14.143   2.876 -15.088  1.00  0.00     0.158 C 
ATOM      6  C   UNL     1      -9.954   2.946 -11.981  1.00  0.00    -0.003 C 
ATOM      7  C   UNL     1     -11.144   2.003 -12.199  1.00  0.00     0.052 C 
ATOM      8  C   UNL     1      -9.592   3.622 -13.310  1.00  0.00     0.019 C 
ATOM      9  C   UNL     1     -12.320   2.717 -12.879  1.00  0.00     0.189 C 
ATOM     10  C   UNL     1     -10.811   4.284 -13.951  1.00  0.00     0.087 C 
ATOM     11  N   UNL     1     -11.892   3.317 -14.143  1.00  0.00    -0.276 NA
ATOM     12  O   UNL     1     -13.339   1.735 -13.069  1.00  0.00    -0.360 OA
ATOM     13  C   UNL     1     -13.037   3.916 -14.836  1.00  0.00     0.121 C 
ATOM     14  C   UNL     1     -14.497   2.250 -13.734  1.00  0.00     0.195 C 
BRANCH   6  15
ATOM     15  C   UNL     1      -8.760   2.211 -11.416  1.00  0.00    -0.008 C 
ATOM     16  C   UNL     1      -8.161   2.628 -10.093  1.00  0.00     0.004 C 
ATOM     17  C   UNL     1      -8.899   1.325 -10.202  1.00  0.00     0.004 C 
ENDBRANCH   6  15
ENDBRANCH   4   5
ENDBRANCH   1   4
BRANCH   3  18
ATOM     18  C   UNL     1     -13.937  -1.694 -14.485  1.00  0.00     0.053 C 
BRANCH  18  19
ATOM     19  C   UNL     1     -13.109  -2.952 -14.461  1.00  0.00     0.074 C 
BRANCH  19  20
ATOM     20  N   UNL     1     -13.377  -4.023 -13.790  1.00  0.00    -0.313 NA
ATOM     21  H   UNL     1     -12.549  -4.375 -13.290  1.00  0.00     0.186 HD
ENDBRANCH  19  20
ENDBRANCH  18  19
ENDBRANCH   3  18
TORSDOF 6
ENDMDL
MODEL 5
REMARK VINA RESULT:    -3.767      5.096      8.379
REMARK INTER + INTRA:          -5.208
REMARK INTER:                  -5.025
REMARK INTRA:                  -0.184
REMARK UNBOUND:                -0.230
REMARK SMILES [H]/N=C\C[C@H]1C[C@@H]1O[C@H]1CO[C@H]2C[C@@H](C3CC3)CCN2C1
REMARK SMILES IDX 7 1 6 2 5 3 8 4 9 5 14 6 13 7 18 8 12 9 19 10 20 11 11 12
REMARK SMILES IDX 21 13 10 14 15 15 16 16 17 17 4 18 3 19 2 20 1 21
REMARK H PARENT
ROOT
ATOM      1  C   UNL     1      -7.221   3.552  -8.657  1.00  0.00     0.122 C 
ATOM      2  C   UNL     1      -7.090   4.978  -8.201  1.00  0.00     0.039 C 
ATOM      3  C   UNL     1      -7.594   3.930  -7.249  1.00  0.00     0.026 C 
ENDROOT
BRANCH   1   4
ATOM      4  O   UNL     1      -8.310   3.327  -9.573  1.00  0.00    -0.371 OA
BRANCH   4   5
ATOM      5  C   UNL     1      -8.068   2.342 -10.591  1.00  0.00     0.158 C 
ATOM      6  C   UNL     1     -12.934   1.897 -12.418  1.00  0.00    -0.003 C 
ATOM      7  C   UNL     1     -12.197   1.473 -11.141  1.00  0.00     0.052 C 
ATOM      8  C   UNL     1     -12.330   3.208 -12.941  1.00  0.00     0.019 C 
ATOM      9  C   UNL     1     -10.677   1.422 -11.351  1.00  0.00     0.189 C 
ATOM     10  C   UNL     1     -10.813   3.102 -13.095  1.00  0.00     0.087 C 
ATOM     11  N   UNL     1     -10.185   2.713 -11.832  1.00  0.00    -0.276 NA
ATOM     12  O   UNL     1     -10.103   1.065 -10.092  1.00  0.00    -0.360 OA
ATOM     13  C   UNL     1      -8.722   2.691 -11.940  1.00  0.00     0.121 C 
ATOM     14  C   UNL     1      -8.674   1.014 -10.122  1.00  0.00     0.195 C 
BRANCH   6  15
ATOM     15  C   UNL     1     -14.418   2.056 -12.175  1.00  0.00    -0.008 C 
ATOM     16  C   UNL     1     -15.345   0.871 -12.312  1.00  0.00     0.004 C 
ATOM     17  C   UNL     1     -15.071   1.453 -10.955  1.00  0.00     0.004 C 
ENDBRANCH   6  15
ENDBRANCH   4   5
ENDBRANCH   1   4
BRANCH   3  18
ATOM     18  C   UNL     1      -6.725   3.515  -6.100  1.00  0.00     0.053 C 
BRANCH  18  19
ATOM     19  C   UNL     1      -7.405   3.389  -4.762  1.00  0.00     0.074 C 
BRANCH  19  20
ATOM     20  N   UNL     1      -8.512   3.960  -4.418  1.00  0.00    -0.313 NA
ATOM     21  H   UNL     1      -8.668   4.832  -4.943  1.00  0.00     0.186 HD
ENDBRANCH  19  20
ENDBRANCH  18  19
ENDBRANCH   3  18
TORSDOF 6
ENDMDL
MODEL 6
REMARK VINA RESULT:    -3.657      5.576      8.487
REMARK INTER + INTRA:          -5.064
REMARK INTER:                  -4.566
REMARK INTRA:                  -0.498
REMARK UNBOUND:                -0.230
REMARK SMILES [H]/N=C\C[C@H]1C[C@@H]1O[C@H]1CO[C@H]2C[C@@H](C3CC3)CCN2C1
REMARK SMILES IDX 7 1 6 2 5 3 8 4 9 5 14 6 13 7 18 8 12 9 19 10 20 11 11 12
REMARK SMILES IDX 21 13 10 14 15 15 16 16 17 17 4 18 3 19 2 20 1 21
REMARK H PARENT
ROOT
ATOM      1  C   UNL     1     -10.250   9.853 -14.853  1.00  0.00     0.122 C 
ATOM      2  C   UNL     1     -10.518   9.009 -16.067  1.00  0.00     0.039 C 
ATOM      3  C   UNL     1     -10.122   8.356 -14.774  1.00  0.00     0.026 C 
ENDROOT
BRANCH   1   4
ATOM      4  O   UNL     1      -9.022  10.603 -14.919  1.00  0.00    -0.371 OA
BRANCH   4   5
ATOM      5  C   UNL     1      -8.900  11.676 -13.971  1.00  0.00     0.158 C 
ATOM      6  C   UNL     1      -6.342   9.116 -10.215  1.00  0.00    -0.003 C 
ATOM      7  C   UNL     1      -7.772   9.111 -10.769  1.00  0.00     0.052 C 
ATOM      8  C   UNL     1      -5.359   9.435 -11.350  1.00  0.00     0.019 C 
ATOM      9  C   UNL     1      -8.093  10.405 -11.529  1.00  0.00     0.189 C 
ATOM     10  C   UNL     1      -5.753  10.715 -12.087  1.00  0.00     0.087 C 
ATOM     11  N   UNL     1      -7.120  10.623 -12.600  1.00  0.00    -0.276 NA
ATOM     12  O   UNL     1      -9.422  10.265 -12.033  1.00  0.00    -0.360 OA
ATOM     13  C   UNL     1      -7.483  11.809 -13.384  1.00  0.00     0.121 C 
ATOM     14  C   UNL     1      -9.851  11.391 -12.804  1.00  0.00     0.195 C 
BRANCH   6  15
ATOM     15  C   UNL     1      -5.994   7.794  -9.567  1.00  0.00    -0.008 C 
ATOM     16  C   UNL     1      -6.145   7.612  -8.075  1.00  0.00     0.004 C 
ATOM     17  C   UNL     1      -7.073   6.896  -9.013  1.00  0.00     0.004 C 
ENDBRANCH   6  15
ENDBRANCH   4   5
ENDBRANCH   1   4
BRANCH   3  18
ATOM     18  C   UNL     1     -11.140   7.549 -14.026  1.00  0.00     0.053 C 
BRANCH  18  19
ATOM     19  C   UNL     1     -10.731   7.062 -12.660  1.00  0.00     0.074 C 
BRANCH  19  20
ATOM     20  N   UNL     1     -11.001   7.641 -11.537  1.00  0.00    -0.313 NA
ATOM     21  H   UNL     1     -10.175   8.116 -11.146  1.00  0.00     0.186 HD
ENDBRANCH  19  20
ENDBRANCH  18  19
ENDBRANCH   3  18
TORSDOF 6
ENDMDL
MODEL 7
REMARK VINA RESULT:    -3.641      7.065      8.524
REMARK INTER + INTRA:          -5.042
REMARK INTER:                  -4.528
REMARK INTRA:                  -0.514
REMARK UNBOUND:                -0.230
REMARK SMILES [H]/N=C\C[C@H]1C[C@@H]1O[C@H]1CO[C@H]2C[C@@H](C3CC3)CCN2C1
REMARK SMILES IDX 7 1 6 2 5 3 8 4 9 5 14 6 13 7 18 8 12 9 19 10 20 11 11 12
REMARK SMILES IDX 21 13 10 14 15 15 16 16 17 17 4 18 3 19 2 20 1 21
REMARK H PARENT
ROOT
ATOM      1  C   UNL     1     -13.693   5.398 -14.682  1.00  0.00     0.122 C 
ATOM      2  C   UNL     1     -14.226   6.759 -14.334  1.00  0.00     0.039 C 
ATOM      3  C   UNL     1     -12.972   6.256 -13.678  1.00  0.00     0.026 C 
ENDROOT
BRANCH   1   4
ATOM      4  O   UNL     1     -14.476   4.309 -14.155  1.00  0.00    -0.371 OA
BRANCH   4   5
ATOM      5  C   UNL     1     -14.221   3.022 -14.742  1.00  0.00     0.158 C 
ATOM      6  C   UNL     1     -10.771   1.244 -11.257  1.00  0.00    -0.003 C 
ATOM      7  C   UNL     1     -10.764   2.300 -12.369  1.00  0.00     0.052 C 
ATOM      8  C   UNL     1     -12.176   1.162 -10.644  1.00  0.00     0.019 C 
ATOM      9  C   UNL     1     -11.880   2.056 -13.393  1.00  0.00     0.189 C 
ATOM     10  C   UNL     1     -13.243   0.953 -11.718  1.00  0.00     0.087 C 
ATOM     11  N   UNL     1     -13.182   2.010 -12.728  1.00  0.00    -0.276 NA
ATOM     12  O   UNL     1     -11.801   3.120 -14.344  1.00  0.00    -0.360 OA
ATOM     13  C   UNL     1     -14.256   1.872 -13.719  1.00  0.00     0.121 C 
ATOM     14  C   UNL     1     -12.815   3.047 -15.351  1.00  0.00     0.195 C 
BRANCH   6  15
ATOM     15  C   UNL     1      -9.745   1.554 -10.191  1.00  0.00    -0.008 C 
ATOM     16  C   UNL     1      -8.387   0.892 -10.223  1.00  0.00     0.004 C 
ATOM     17  C   UNL     1      -8.510   2.359 -10.517  1.00  0.00     0.004 C 
ENDBRANCH   6  15
ENDBRANCH   4   5
ENDBRANCH   1   4
BRANCH   3  18
ATOM     18  C   UNL     1     -11.662   6.892 -14.031  1.00  0.00     0.053 C 
BRANCH  18  19
ATOM     19  C   UNL     1     -10.428   6.230 -13.475  1.00  0.00     0.074 C 
BRANCH  19  20
ATOM     20  N   UNL     1      -9.696   5.359 -14.086  1.00  0.00    -0.313 NA
ATOM     21  H   UNL     1     -10.035   5.182 -15.043  1.00  0.00     0.186 HD
ENDBRANCH  19  20
ENDBRANCH  18  19
ENDBRANCH   3  18
TORSDOF 6
ENDMDL
MODEL 8
REMARK VINA RESULT:    -3.387      6.160      7.871
REMARK INTER + INTRA:          -4.706
REMARK INTER:                  -4.078
REMARK INTRA:                  -0.628
REMARK UNBOUND:                -0.230
REMARK SMILES [H]/N=C\C[C@H]1C[C@@H]1O[C@H]1CO[C@H]2C[C@@H](C3CC3)CCN2C1
REMARK SMILES IDX 7 1 6 2 5 3 8 4 9 5 14 6 13 7 18 8 12 9 19 10 20 11 11 12
REMARK SMILES IDX 21 13 10 14 15 15 16 16 17 17 4 18 3 19 2 20 1 21
REMARK H PARENT
ROOT
ATOM      1  C   UNL     1     -12.293   7.195 -14.468  1.00  0.00     0.122 C 
ATOM      2  C   UNL     1     -13.236   8.287 -14.049  1.00  0.00     0.039 C 
ATOM      3  C   UNL     1     -12.240   7.740 -13.067  1.00  0.00     0.026 C 
ENDROOT
BRANCH   1   4
ATOM      4  O   UNL     1     -12.922   5.910 -14.637  1.00  0.00    -0.371 OA
BRANCH   4   5
ATOM      5  C   UNL     1     -12.232   4.991 -15.500  1.00  0.00     0.158 C 
ATOM      6  C   UNL     1     -10.009   2.004 -11.847  1.00  0.00    -0.003 C 
ATOM      7  C   UNL     1      -9.800   3.427 -12.379  1.00  0.00     0.052 C 
ATOM      8  C   UNL     1     -11.498   1.641 -11.940  1.00  0.00     0.019 C 
ATOM      9  C   UNL     1     -10.401   3.607 -13.779  1.00  0.00     0.189 C 
ATOM     10  C   UNL     1     -12.042   1.874 -13.349  1.00  0.00     0.087 C 
ATOM     11  N   UNL     1     -11.821   3.256 -13.774  1.00  0.00    -0.276 NA
ATOM     12  O   UNL     1     -10.187   4.971 -14.144  1.00  0.00    -0.360 OA
ATOM     13  C   UNL     1     -12.416   3.519 -15.089  1.00  0.00     0.121 C 
ATOM     14  C   UNL     1     -10.733   5.301 -15.425  1.00  0.00     0.195 C 
BRANCH   6  15
ATOM     15  C   UNL     1      -9.517   1.865 -10.424  1.00  0.00    -0.008 C 
ATOM     16  C   UNL     1      -8.390   0.915 -10.095  1.00  0.00     0.004 C 
ATOM     17  C   UNL     1      -8.163   2.396 -10.019  1.00  0.00     0.004 C 
ENDBRANCH   6  15
ENDBRANCH   4   5
ENDBRANCH   1   4
BRANCH   3  18
ATOM     18  C   UNL     1     -11.093   8.605 -12.636  1.00  0.00     0.053 C 
BRANCH  18  19
ATOM     19  C   UNL     1     -10.063   7.953 -11.750  1.00  0.00     0.074 C 
BRANCH  19  20
ATOM     20  N   UNL     1      -9.722   6.708 -11.775  1.00  0.00    -0.313 NA
ATOM     21  H   UNL     1     -10.180   6.204 -12.548  1.00  0.00     0.186 HD
ENDBRANCH  19  20
ENDBRANCH  18  19
ENDBRANCH   3  18
TORSDOF 6
ENDMDL
MODEL 9
REMARK VINA RESULT:    -3.378      4.446      7.132
REMARK INTER + INTRA:          -4.694
REMARK INTER:                  -4.495
REMARK INTRA:                  -0.199
REMARK UNBOUND:                -0.230
REMARK SMILES [H]/N=C\C[C@H]1C[C@@H]1O[C@H]1CO[C@H]2C[C@@H](C3CC3)CCN2C1
REMARK SMILES IDX 7 1 6 2 5 3 8 4 9 5 14 6 13 7 18 8 12 9 19 10 20 11 11 12
REMARK SMILES IDX 21 13 10 14 15 15 16 16 17 17 4 18 3 19 2 20 1 21
REMARK H PARENT
ROOT
ATOM      1  C   UNL     1      -9.179   9.726 -14.804  1.00  0.00     0.122 C 
ATOM      2  C   UNL     1      -8.327   9.800 -16.040  1.00  0.00     0.039 C 
ATOM      3  C   UNL     1      -9.255   8.637 -15.839  1.00  0.00     0.026 C 
ENDROOT
BRANCH   1   4
ATOM      4  O   UNL     1      -8.445   9.423 -13.602  1.00  0.00    -0.371 OA
BRANCH   4   5
ATOM      5  C   UNL     1      -8.947  10.029 -12.400  1.00  0.00     0.158 C 
ATOM      6  C   UNL     1      -7.060   6.605  -8.949  1.00  0.00    -0.003 C 
ATOM      7  C   UNL     1      -8.176   6.602 -10.000  1.00  0.00     0.052 C 
ATOM      8  C   UNL     1      -5.911   7.501  -9.430  1.00  0.00     0.019 C 
ATOM      9  C   UNL     1      -8.609   8.026 -10.375  1.00  0.00     0.189 C 
ATOM     10  C   UNL     1      -6.413   8.891  -9.820  1.00  0.00     0.087 C 
ATOM     11  N   UNL     1      -7.459   8.804 -10.838  1.00  0.00    -0.276 NA
ATOM     12  O   UNL     1      -9.610   7.896 -11.386  1.00  0.00    -0.360 OA
ATOM     13  C   UNL     1      -7.891  10.132 -11.286  1.00  0.00     0.121 C 
ATOM     14  C   UNL     1     -10.088   9.156 -11.867  1.00  0.00     0.195 C 
BRANCH   6  15
ATOM     15  C   UNL     1      -6.560   5.206  -8.667  1.00  0.00    -0.008 C 
ATOM     16  C   UNL     1      -7.183   4.378  -7.568  1.00  0.00     0.004 C 
ATOM     17  C   UNL     1      -7.403   4.000  -9.004  1.00  0.00     0.004 C 
ENDBRANCH   6  15
ENDBRANCH   4   5
ENDBRANCH   1   4
BRANCH   3  18
ATOM     18  C   UNL     1     -10.464   8.512 -16.717  1.00  0.00     0.053 C 
BRANCH  18  19
ATOM     19  C   UNL     1     -11.092   7.145 -16.795  1.00  0.00     0.074 C 
BRANCH  19  20
ATOM     20  N   UNL     1     -10.459   6.019 -16.795  1.00  0.00    -0.313 NA
ATOM     21  H   UNL     1     -10.981   5.290 -17.302  1.00  0.00     0.186 HD
ENDBRANCH  19  20
ENDBRANCH  18  19
ENDBRANCH   3  18
TORSDOF 6
ENDMDL
