MODEL 1
REMARK VINA RESULT:    -6.066      0.000      0.000
REMARK INTER + INTRA:          -7.513
REMARK INTER:                  -7.130
REMARK INTRA:                  -0.383
REMARK UNBOUND:                -0.383
REMARK SMILES Cc1ccc(CNC(=O)NC(=O)c2ccc(C)cc2)cc1
REMARK SMILES IDX 11 1 12 2 10 3 8 4 9 5 7 6 13 9 19 10 18 11 14 12 16 13
REMARK SMILES IDX 15 14 17 15 6 16 5 17 4 18 20 19 3 20 21 21 2 22 1 23
REMARK H PARENT 10 7 7 8
ROOT
ATOM      1  C   UNL     1      -5.901   3.521  -7.680  1.00  0.00     0.259 C 
ATOM      2  O   UNL     1      -5.733   4.625  -7.182  1.00  0.00    -0.269 OA
ATOM      3  N   UNL     1      -6.814   3.137  -8.667  1.00  0.00    -0.274 N 
ATOM      4  C   UNL     1      -7.636   3.746  -9.581  1.00  0.00     0.321 C 
ATOM      5  O   UNL     1      -8.213   3.027 -10.403  1.00  0.00    -0.248 OA
ATOM      6  N   UNL     1      -7.818   5.078  -9.645  1.00  0.00    -0.334 N 
ATOM      7  H   UNL     1      -6.782   2.154  -8.905  1.00  0.00     0.175 HD
ATOM      8  H   UNL     1      -8.385   5.374 -10.427  1.00  0.00     0.165 HD
ENDROOT
BRANCH   1   9
ATOM      9  C   UNL     1      -5.030   2.435  -7.191  1.00  0.00     0.040 A 
ATOM     10  C   UNL     1      -5.484   1.503  -6.257  1.00  0.00     0.014 A 
ATOM     11  C   UNL     1      -4.641   0.463  -5.864  1.00  0.00     0.004 A 
ATOM     12  C   UNL     1      -3.724   2.368  -7.686  1.00  0.00     0.014 A 
ATOM     13  C   UNL     1      -3.346   0.356  -6.394  1.00  0.00    -0.051 A 
ATOM     14  C   UNL     1      -2.888   1.324  -7.296  1.00  0.00     0.004 A 
ATOM     15  C   UNL     1      -2.483  -0.815  -6.026  1.00  0.00     0.044 C 
ENDBRANCH   1   9
BRANCH   6  16
ATOM     16  C   UNL     1      -7.169   6.090  -8.860  1.00  0.00     0.153 C 
BRANCH  16  17
ATOM     17  C   UNL     1      -7.089   7.472  -9.446  1.00  0.00    -0.029 A 
ATOM     18  C   UNL     1      -5.887   8.175  -9.584  1.00  0.00     0.006 A 
ATOM     19  C   UNL     1      -8.244   7.976 -10.067  1.00  0.00     0.006 A 
ATOM     20  C   UNL     1      -5.844   9.345 -10.350  1.00  0.00     0.004 A 
ATOM     21  C   UNL     1      -8.198   9.136 -10.833  1.00  0.00     0.004 A 
ATOM     22  C   UNL     1      -6.995   9.826 -10.989  1.00  0.00    -0.051 A 
ATOM     23  C   UNL     1      -6.926  10.995 -11.925  1.00  0.00     0.044 C 
ENDBRANCH  16  17
ENDBRANCH   6  16
TORSDOF 3
ENDMDL
MODEL 2
REMARK VINA RESULT:    -6.056      3.248      5.565
REMARK INTER + INTRA:          -7.501
REMARK INTER:                  -7.108
REMARK INTRA:                  -0.393
REMARK UNBOUND:                -0.383
REMARK SMILES Cc1ccc(CNC(=O)NC(=O)c2ccc(C)cc2)cc1
REMARK SMILES IDX 11 1 12 2 10 3 8 4 9 5 7 6 13 9 19 10 18 11 14 12 16 13
REMARK SMILES IDX 15 14 17 15 6 16 5 17 4 18 20 19 3 20 21 21 2 22 1 23
REMARK H PARENT 10 7 7 8
ROOT
ATOM      1  C   UNL     1      -6.150   3.227  -7.633  1.00  0.00     0.259 C 
ATOM      2  O   UNL     1      -6.309   2.135  -8.160  1.00  0.00    -0.269 OA
ATOM      3  N   UNL     1      -6.485   4.493  -8.125  1.00  0.00    -0.274 N 
ATOM      4  C   UNL     1      -7.254   5.018  -9.132  1.00  0.00     0.321 C 
ATOM      5  O   UNL     1      -7.407   6.244  -9.157  1.00  0.00    -0.248 OA
ATOM      6  N   UNL     1      -7.869   4.269 -10.066  1.00  0.00    -0.334 N 
ATOM      7  H   UNL     1      -6.234   5.258  -7.513  1.00  0.00     0.175 HD
ATOM      8  H   UNL     1      -8.466   4.799 -10.684  1.00  0.00     0.165 HD
ENDROOT
BRANCH   1   9
ATOM      9  C   UNL     1      -5.524   3.232  -6.297  1.00  0.00     0.040 A 
ATOM     10  C   UNL     1      -4.164   3.495  -6.131  1.00  0.00     0.014 A 
ATOM     11  C   UNL     1      -3.628   3.541  -4.843  1.00  0.00     0.004 A 
ATOM     12  C   UNL     1      -6.335   2.955  -5.192  1.00  0.00     0.014 A 
ATOM     13  C   UNL     1      -4.444   3.316  -3.724  1.00  0.00    -0.051 A 
ATOM     14  C   UNL     1      -5.797   3.008  -3.907  1.00  0.00     0.004 A 
ATOM     15  C   UNL     1      -3.872   3.452  -2.344  1.00  0.00     0.044 C 
ENDBRANCH   1   9
BRANCH   6  16
ATOM     16  C   UNL     1      -7.906   2.837 -10.156  1.00  0.00     0.153 C 
BRANCH  16  17
ATOM     17  C   UNL     1      -9.095   2.219 -10.838  1.00  0.00    -0.029 A 
ATOM     18  C   UNL     1      -9.943   1.300 -10.210  1.00  0.00     0.006 A 
ATOM     19  C   UNL     1      -9.474   2.754 -12.079  1.00  0.00     0.006 A 
ATOM     20  C   UNL     1     -11.158   0.949 -10.808  1.00  0.00     0.004 A 
ATOM     21  C   UNL     1     -10.685   2.407 -12.670  1.00  0.00     0.004 A 
ATOM     22  C   UNL     1     -11.543   1.509 -12.034  1.00  0.00    -0.051 A 
ATOM     23  C   UNL     1     -12.903   1.247 -12.609  1.00  0.00     0.044 C 
ENDBRANCH  16  17
ENDBRANCH   6  16
TORSDOF 3
ENDMDL
MODEL 3
REMARK VINA RESULT:    -5.987      0.559      7.998
REMARK INTER + INTRA:          -7.420
REMARK INTER:                  -6.926
REMARK INTRA:                  -0.494
REMARK UNBOUND:                -0.383
REMARK SMILES Cc1ccc(CNC(=O)NC(=O)c2ccc(C)cc2)cc1
REMARK SMILES IDX 11 1 12 2 10 3 8 4 9 5 7 6 13 9 19 10 18 11 14 12 16 13
REMARK SMILES IDX 15 14 17 15 6 16 5 17 4 18 20 19 3 20 21 21 2 22 1 23
REMARK H PARENT 10 7 7 8
ROOT
ATOM      1  C   UNL     1      -6.712   5.971  -8.976  1.00  0.00     0.259 C 
ATOM      2  O   UNL     1      -5.978   5.886  -8.002  1.00  0.00    -0.269 OA
ATOM      3  N   UNL     1      -7.412   4.957  -9.637  1.00  0.00    -0.274 N 
ATOM      4  C   UNL     1      -7.765   3.652  -9.404  1.00  0.00     0.321 C 
ATOM      5  O   UNL     1      -8.533   3.114 -10.209  1.00  0.00    -0.248 OA
ATOM      6  N   UNL     1      -7.345   2.946  -8.338  1.00  0.00    -0.334 N 
ATOM      7  H   UNL     1      -7.942   5.270 -10.439  1.00  0.00     0.175 HD
ATOM      8  H   UNL     1      -7.763   2.030  -8.267  1.00  0.00     0.165 HD
ENDROOT
BRANCH   1   9
ATOM      9  C   UNL     1      -6.903   7.320  -9.543  1.00  0.00     0.040 A 
ATOM     10  C   UNL     1      -5.849   8.232  -9.624  1.00  0.00     0.014 A 
ATOM     11  C   UNL     1      -6.065   9.477 -10.216  1.00  0.00     0.004 A 
ATOM     12  C   UNL     1      -8.180   7.668  -9.995  1.00  0.00     0.014 A 
ATOM     13  C   UNL     1      -7.329   9.816 -10.719  1.00  0.00    -0.051 A 
ATOM     14  C   UNL     1      -8.389   8.910 -10.591  1.00  0.00     0.004 A 
ATOM     15  C   UNL     1      -7.524  11.124 -11.428  1.00  0.00     0.044 C 
ENDBRANCH   1   9
BRANCH   6  16
ATOM     16  C   UNL     1      -6.542   3.410  -7.242  1.00  0.00     0.153 C 
BRANCH  16  17
ATOM     17  C   UNL     1      -5.429   2.513  -6.774  1.00  0.00    -0.029 A 
ATOM     18  C   UNL     1      -5.603   1.528  -5.796  1.00  0.00     0.006 A 
ATOM     19  C   UNL     1      -4.232   2.537  -7.508  1.00  0.00     0.006 A 
ATOM     20  C   UNL     1      -4.603   0.573  -5.579  1.00  0.00     0.004 A 
ATOM     21  C   UNL     1      -3.241   1.584  -7.294  1.00  0.00     0.004 A 
ATOM     22  C   UNL     1      -3.423   0.587  -6.334  1.00  0.00    -0.051 A 
ATOM     23  C   UNL     1      -2.412  -0.514  -6.206  1.00  0.00     0.044 C 
ENDBRANCH  16  17
ENDBRANCH   6  16
TORSDOF 3
ENDMDL
MODEL 4
REMARK VINA RESULT:    -5.982      3.155      7.284
REMARK INTER + INTRA:          -7.414
REMARK INTER:                  -6.923
REMARK INTRA:                  -0.491
REMARK UNBOUND:                -0.383
REMARK SMILES Cc1ccc(CNC(=O)NC(=O)c2ccc(C)cc2)cc1
REMARK SMILES IDX 11 1 12 2 10 3 8 4 9 5 7 6 13 9 19 10 18 11 14 12 16 13
REMARK SMILES IDX 15 14 17 15 6 16 5 17 4 18 20 19 3 20 21 21 2 22 1 23
REMARK H PARENT 10 7 7 8
ROOT
ATOM      1  C   UNL     1      -8.137   2.742  -9.671  1.00  0.00     0.259 C 
ATOM      2  O   UNL     1      -7.556   1.880  -9.028  1.00  0.00    -0.269 OA
ATOM      3  N   UNL     1      -7.946   4.127  -9.651  1.00  0.00    -0.274 N 
ATOM      4  C   UNL     1      -7.010   5.014  -9.185  1.00  0.00     0.321 C 
ATOM      5  O   UNL     1      -7.142   6.203  -9.495  1.00  0.00    -0.248 OA
ATOM      6  N   UNL     1      -5.949   4.653  -8.440  1.00  0.00    -0.334 N 
ATOM      7  H   UNL     1      -8.567   4.643 -10.260  1.00  0.00     0.175 HD
ATOM      8  H   UNL     1      -5.308   5.411  -8.250  1.00  0.00     0.165 HD
ENDROOT
BRANCH   1   9
ATOM      9  C   UNL     1      -9.182   2.278 -10.604  1.00  0.00     0.040 A 
ATOM     10  C   UNL     1     -10.029   1.217 -10.280  1.00  0.00     0.014 A 
ATOM     11  C   UNL     1     -11.036   0.849 -11.172  1.00  0.00     0.004 A 
ATOM     12  C   UNL     1      -9.298   2.930 -11.836  1.00  0.00     0.014 A 
ATOM     13  C   UNL     1     -11.194   1.530 -12.388  1.00  0.00    -0.051 A 
ATOM     14  C   UNL     1     -10.310   2.562 -12.722  1.00  0.00     0.004 A 
ATOM     15  C   UNL     1     -12.334   1.178 -13.299  1.00  0.00     0.044 C 
ENDBRANCH   1   9
BRANCH   6  16
ATOM     16  C   UNL     1      -5.557   3.326  -8.059  1.00  0.00     0.153 C 
BRANCH  16  17
ATOM     17  C   UNL     1      -5.104   3.120  -6.640  1.00  0.00    -0.029 A 
ATOM     18  C   UNL     1      -3.778   3.295  -6.229  1.00  0.00     0.006 A 
ATOM     19  C   UNL     1      -6.100   2.953  -5.665  1.00  0.00     0.006 A 
ATOM     20  C   UNL     1      -3.467   3.326  -4.865  1.00  0.00     0.004 A 
ATOM     21  C   UNL     1      -5.790   2.989  -4.309  1.00  0.00     0.004 A 
ATOM     22  C   UNL     1      -4.471   3.186  -3.897  1.00  0.00    -0.051 A 
ATOM     23  C   UNL     1      -4.167   3.360  -2.439  1.00  0.00     0.044 C 
ENDBRANCH  16  17
ENDBRANCH   6  16
TORSDOF 3
ENDMDL
MODEL 5
REMARK VINA RESULT:    -5.680      1.121      7.888
REMARK INTER + INTRA:          -7.059
REMARK INTER:                  -6.563
REMARK INTRA:                  -0.496
REMARK UNBOUND:                -0.383
REMARK SMILES Cc1ccc(CNC(=O)NC(=O)c2ccc(C)cc2)cc1
REMARK SMILES IDX 11 1 12 2 10 3 8 4 9 5 7 6 13 9 19 10 18 11 14 12 16 13
REMARK SMILES IDX 15 14 17 15 6 16 5 17 4 18 20 19 3 20 21 21 2 22 1 23
REMARK H PARENT 10 7 7 8
ROOT
ATOM      1  C   UNL     1      -7.021   6.277  -8.937  1.00  0.00     0.259 C 
ATOM      2  O   UNL     1      -6.617   6.333  -7.784  1.00  0.00    -0.269 OA
ATOM      3  N   UNL     1      -7.407   5.155  -9.676  1.00  0.00    -0.274 N 
ATOM      4  C   UNL     1      -7.717   3.841  -9.435  1.00  0.00     0.321 C 
ATOM      5  O   UNL     1      -8.159   3.174 -10.377  1.00  0.00    -0.248 OA
ATOM      6  N   UNL     1      -7.594   3.256  -8.229  1.00  0.00    -0.334 N 
ATOM      7  H   UNL     1      -7.687   5.357 -10.626  1.00  0.00     0.175 HD
ATOM      8  H   UNL     1      -7.945   2.310  -8.198  1.00  0.00     0.165 HD
ENDROOT
BRANCH   1   9
ATOM      9  C   UNL     1      -7.127   7.558  -9.662  1.00  0.00     0.040 A 
ATOM     10  C   UNL     1      -8.320   7.954 -10.270  1.00  0.00     0.014 A 
ATOM     11  C   UNL     1      -8.388   9.197 -10.899  1.00  0.00     0.004 A 
ATOM     12  C   UNL     1      -5.991   8.370  -9.732  1.00  0.00     0.014 A 
ATOM     13  C   UNL     1      -7.268  10.042 -10.930  1.00  0.00    -0.051 A 
ATOM     14  C   UNL     1      -6.065   9.614 -10.355  1.00  0.00     0.004 A 
ATOM     15  C   UNL     1      -7.381  11.410 -11.535  1.00  0.00     0.044 C 
ENDBRANCH   1   9
BRANCH   6  16
ATOM     16  C   UNL     1      -7.203   3.872  -6.992  1.00  0.00     0.153 C 
BRANCH  16  17
ATOM     17  C   UNL     1      -6.057   3.250  -6.244  1.00  0.00    -0.029 A 
ATOM     18  C   UNL     1      -6.163   2.798  -4.925  1.00  0.00     0.006 A 
ATOM     19  C   UNL     1      -4.907   2.927  -6.982  1.00  0.00     0.006 A 
ATOM     20  C   UNL     1      -5.144   2.016  -4.369  1.00  0.00     0.004 A 
ATOM     21  C   UNL     1      -3.896   2.146  -6.429  1.00  0.00     0.004 A 
ATOM     22  C   UNL     1      -4.011   1.675  -5.120  1.00  0.00    -0.051 A 
ATOM     23  C   UNL     1      -2.986   0.723  -4.582  1.00  0.00     0.044 C 
ENDBRANCH  16  17
ENDBRANCH   6  16
TORSDOF 3
ENDMDL
MODEL 6
REMARK VINA RESULT:    -5.632      2.981      7.642
REMARK INTER + INTRA:          -7.002
REMARK INTER:                  -6.578
REMARK INTRA:                  -0.425
REMARK UNBOUND:                -0.383
REMARK SMILES Cc1ccc(CNC(=O)NC(=O)c2ccc(C)cc2)cc1
REMARK SMILES IDX 11 1 12 2 10 3 8 4 9 5 7 6 13 9 19 10 18 11 14 12 16 13
REMARK SMILES IDX 15 14 17 15 6 16 5 17 4 18 20 19 3 20 21 21 2 22 1 23
REMARK H PARENT 10 7 7 8
ROOT
ATOM      1  C   UNL     1      -8.182   2.621  -9.962  1.00  0.00     0.259 C 
ATOM      2  O   UNL     1      -7.460   1.729  -9.537  1.00  0.00    -0.269 OA
ATOM      3  N   UNL     1      -8.091   3.999  -9.744  1.00  0.00    -0.274 N 
ATOM      4  C   UNL     1      -7.169   4.889  -9.255  1.00  0.00     0.321 C 
ATOM      5  O   UNL     1      -7.426   6.094  -9.355  1.00  0.00    -0.248 OA
ATOM      6  N   UNL     1      -5.997   4.520  -8.706  1.00  0.00    -0.334 N 
ATOM      7  H   UNL     1      -8.821   4.541 -10.186  1.00  0.00     0.175 HD
ATOM      8  H   UNL     1      -5.394   5.297  -8.475  1.00  0.00     0.165 HD
ENDROOT
BRANCH   1   9
ATOM      9  C   UNL     1      -9.302   2.207 -10.828  1.00  0.00     0.040 A 
ATOM     10  C   UNL     1     -10.157   1.165 -10.465  1.00  0.00     0.014 A 
ATOM     11  C   UNL     1     -11.234   0.845 -11.292  1.00  0.00     0.004 A 
ATOM     12  C   UNL     1      -9.484   2.887 -12.037  1.00  0.00     0.014 A 
ATOM     13  C   UNL     1     -11.456   1.555 -12.481  1.00  0.00    -0.051 A 
ATOM     14  C   UNL     1     -10.565   2.568 -12.856  1.00  0.00     0.004 A 
ATOM     15  C   UNL     1     -12.666   1.256 -13.316  1.00  0.00     0.044 C 
ENDBRANCH   1   9
BRANCH   6  16
ATOM     16  C   UNL     1      -5.463   3.193  -8.590  1.00  0.00     0.153 C 
BRANCH  16  17
ATOM     17  C   UNL     1      -4.759   2.841  -7.309  1.00  0.00    -0.029 A 
ATOM     18  C   UNL     1      -5.359   2.963  -6.051  1.00  0.00     0.006 A 
ATOM     19  C   UNL     1      -3.531   2.168  -7.413  1.00  0.00     0.006 A 
ATOM     20  C   UNL     1      -4.747   2.398  -4.927  1.00  0.00     0.004 A 
ATOM     21  C   UNL     1      -2.927   1.603  -6.295  1.00  0.00     0.004 A 
ATOM     22  C   UNL     1      -3.535   1.704  -5.043  1.00  0.00    -0.051 A 
ATOM     23  C   UNL     1      -2.947   0.976  -3.871  1.00  0.00     0.044 C 
ENDBRANCH  16  17
ENDBRANCH   6  16
TORSDOF 3
ENDMDL
MODEL 7
REMARK VINA RESULT:    -4.622      3.871      7.814
REMARK INTER + INTRA:          -5.816
REMARK INTER:                  -5.404
REMARK INTRA:                  -0.411
REMARK UNBOUND:                -0.383
REMARK SMILES Cc1ccc(CNC(=O)NC(=O)c2ccc(C)cc2)cc1
REMARK SMILES IDX 11 1 12 2 10 3 8 4 9 5 7 6 13 9 19 10 18 11 14 12 16 13
REMARK SMILES IDX 15 14 17 15 6 16 5 17 4 18 20 19 3 20 21 21 2 22 1 23
REMARK H PARENT 10 7 7 8
ROOT
ATOM      1  C   UNL     1      -7.375   2.815  -9.366  1.00  0.00     0.259 C 
ATOM      2  O   UNL     1      -7.652   2.976  -8.186  1.00  0.00    -0.269 OA
ATOM      3  N   UNL     1      -6.132   2.927  -9.997  1.00  0.00    -0.274 N 
ATOM      4  C   UNL     1      -4.813   2.999  -9.631  1.00  0.00     0.321 C 
ATOM      5  O   UNL     1      -3.965   2.953 -10.529  1.00  0.00    -0.248 OA
ATOM      6  N   UNL     1      -4.399   3.085  -8.353  1.00  0.00    -0.334 N 
ATOM      7  H   UNL     1      -6.155   2.767 -10.995  1.00  0.00     0.175 HD
ATOM      8  H   UNL     1      -3.395   3.042  -8.247  1.00  0.00     0.165 HD
ENDROOT
BRANCH   1   9
ATOM      9  C   UNL     1      -8.489   2.447 -10.261  1.00  0.00     0.040 A 
ATOM     10  C   UNL     1      -9.336   1.377  -9.968  1.00  0.00     0.014 A 
ATOM     11  C   UNL     1     -10.408   1.100 -10.817  1.00  0.00     0.004 A 
ATOM     12  C   UNL     1      -8.672   3.201 -11.425  1.00  0.00     0.014 A 
ATOM     13  C   UNL     1     -10.631   1.882 -11.960  1.00  0.00    -0.051 A 
ATOM     14  C   UNL     1      -9.748   2.925 -12.267  1.00  0.00     0.004 A 
ATOM     15  C   UNL     1     -11.836   1.626 -12.817  1.00  0.00     0.044 C 
ENDBRANCH   1   9
BRANCH   6  16
ATOM     16  C   UNL     1      -5.206   3.047  -7.166  1.00  0.00     0.153 C 
BRANCH  16  17
ATOM     17  C   UNL     1      -4.632   2.352  -5.963  1.00  0.00    -0.029 A 
ATOM     18  C   UNL     1      -4.468   0.965  -5.888  1.00  0.00     0.006 A 
ATOM     19  C   UNL     1      -4.049   3.159  -4.972  1.00  0.00     0.006 A 
ATOM     20  C   UNL     1      -3.713   0.405  -4.852  1.00  0.00     0.004 A 
ATOM     21  C   UNL     1      -3.294   2.600  -3.945  1.00  0.00     0.004 A 
ATOM     22  C   UNL     1      -3.111   1.218  -3.882  1.00  0.00    -0.051 A 
ATOM     23  C   UNL     1      -2.185   0.638  -2.855  1.00  0.00     0.044 C 
ENDBRANCH  16  17
ENDBRANCH   6  16
TORSDOF 3
ENDMDL
MODEL 8
REMARK VINA RESULT:    -4.568      1.950      8.189
REMARK INTER + INTRA:          -5.752
REMARK INTER:                  -5.341
REMARK INTRA:                  -0.410
REMARK UNBOUND:                -0.383
REMARK SMILES Cc1ccc(CNC(=O)NC(=O)c2ccc(C)cc2)cc1
REMARK SMILES IDX 11 1 12 2 10 3 8 4 9 5 7 6 13 9 19 10 18 11 14 12 16 13
REMARK SMILES IDX 15 14 17 15 6 16 5 17 4 18 20 19 3 20 21 21 2 22 1 23
REMARK H PARENT 10 7 7 8
ROOT
ATOM      1  C   UNL     1      -6.718   5.295  -8.284  1.00  0.00     0.259 C 
ATOM      2  O   UNL     1      -5.748   4.625  -8.610  1.00  0.00    -0.269 OA
ATOM      3  N   UNL     1      -7.693   5.014  -7.323  1.00  0.00    -0.274 N 
ATOM      4  C   UNL     1      -7.866   4.139  -6.280  1.00  0.00     0.321 C 
ATOM      5  O   UNL     1      -8.852   4.302  -5.553  1.00  0.00    -0.248 OA
ATOM      6  N   UNL     1      -7.008   3.142  -5.995  1.00  0.00    -0.334 N 
ATOM      7  H   UNL     1      -8.418   5.715  -7.246  1.00  0.00     0.175 HD
ATOM      8  H   UNL     1      -7.232   2.643  -5.147  1.00  0.00     0.165 HD
ENDROOT
BRANCH   1   9
ATOM      9  C   UNL     1      -6.898   6.580  -8.987  1.00  0.00     0.040 A 
ATOM     10  C   UNL     1      -5.867   7.518  -9.067  1.00  0.00     0.014 A 
ATOM     11  C   UNL     1      -6.068   8.696  -9.786  1.00  0.00     0.004 A 
ATOM     12  C   UNL     1      -8.142   6.841  -9.569  1.00  0.00     0.014 A 
ATOM     13  C   UNL     1      -7.295   8.944 -10.419  1.00  0.00    -0.051 A 
ATOM     14  C   UNL     1      -8.337   8.016 -10.293  1.00  0.00     0.004 A 
ATOM     15  C   UNL     1      -7.467  10.175 -11.259  1.00  0.00     0.044 C 
ENDBRANCH   1   9
BRANCH   6  16
ATOM     16  C   UNL     1      -5.762   2.847  -6.644  1.00  0.00     0.153 C 
BRANCH  16  17
ATOM     17  C   UNL     1      -4.628   2.374  -5.777  1.00  0.00    -0.029 A 
ATOM     18  C   UNL     1      -4.138   3.110  -4.693  1.00  0.00     0.006 A 
ATOM     19  C   UNL     1      -4.199   1.048  -5.947  1.00  0.00     0.006 A 
ATOM     20  C   UNL     1      -3.254   2.515  -3.786  1.00  0.00     0.004 A 
ATOM     21  C   UNL     1      -3.323   0.456  -5.041  1.00  0.00     0.004 A 
ATOM     22  C   UNL     1      -2.851   1.182  -3.947  1.00  0.00    -0.051 A 
ATOM     23  C   UNL     1      -2.020   0.496  -2.904  1.00  0.00     0.044 C 
ENDBRANCH  16  17
ENDBRANCH   6  16
TORSDOF 3
ENDMDL
MODEL 9
REMARK VINA RESULT:    -4.075      5.217     10.884
REMARK INTER + INTRA:          -5.173
REMARK INTER:                  -4.574
REMARK INTRA:                  -0.599
REMARK UNBOUND:                -0.383
REMARK SMILES Cc1ccc(CNC(=O)NC(=O)c2ccc(C)cc2)cc1
REMARK SMILES IDX 11 1 12 2 10 3 8 4 9 5 7 6 13 9 19 10 18 11 14 12 16 13
REMARK SMILES IDX 15 14 17 15 6 16 5 17 4 18 20 19 3 20 21 21 2 22 1 23
REMARK H PARENT 10 7 7 8
ROOT
ATOM      1  C   UNL     1      -9.494  11.739 -13.298  1.00  0.00     0.259 C 
ATOM      2  O   UNL     1      -9.200  12.015 -12.144  1.00  0.00    -0.269 OA
ATOM      3  N   UNL     1      -8.710  11.123 -14.279  1.00  0.00    -0.274 N 
ATOM      4  C   UNL     1      -7.536  10.417 -14.341  1.00  0.00     0.321 C 
ATOM      5  O   UNL     1      -7.233   9.903 -15.423  1.00  0.00    -0.248 OA
ATOM      6  N   UNL     1      -6.721  10.232 -13.286  1.00  0.00    -0.334 N 
ATOM      7  H   UNL     1      -9.168  11.018 -15.174  1.00  0.00     0.175 HD
ATOM      8  H   UNL     1      -5.943   9.618 -13.476  1.00  0.00     0.165 HD
ENDROOT
BRANCH   1   9
ATOM      9  C   UNL     1     -10.859  12.091 -13.734  1.00  0.00     0.040 A 
ATOM     10  C   UNL     1     -11.242  12.001 -15.073  1.00  0.00     0.014 A 
ATOM     11  C   UNL     1     -12.559  12.294 -15.429  1.00  0.00     0.004 A 
ATOM     12  C   UNL     1     -11.766  12.529 -12.763  1.00  0.00     0.014 A 
ATOM     13  C   UNL     1     -13.490  12.685 -14.455  1.00  0.00    -0.051 A 
ATOM     14  C   UNL     1     -13.082  12.815 -13.122  1.00  0.00     0.004 A 
ATOM     15  C   UNL     1     -14.922  12.914 -14.840  1.00  0.00     0.044 C 
ENDBRANCH   1   9
BRANCH   6  16
ATOM     16  C   UNL     1      -6.936  10.651 -11.929  1.00  0.00     0.153 C 
BRANCH  16  17
ATOM     17  C   UNL     1      -7.101   9.575 -10.893  1.00  0.00    -0.029 A 
ATOM     18  C   UNL     1      -8.263   8.805 -10.770  1.00  0.00     0.006 A 
ATOM     19  C   UNL     1      -5.959   9.200 -10.168  1.00  0.00     0.006 A 
ATOM     20  C   UNL     1      -8.266   7.668  -9.954  1.00  0.00     0.004 A 
ATOM     21  C   UNL     1      -5.962   8.066  -9.361  1.00  0.00     0.004 A 
ATOM     22  C   UNL     1      -7.113   7.284  -9.255  1.00  0.00    -0.051 A 
ATOM     23  C   UNL     1      -7.066   5.993  -8.495  1.00  0.00     0.044 C 
ENDBRANCH  16  17
ENDBRANCH   6  16
TORSDOF 3
ENDMDL
