MODEL 1
REMARK VINA RESULT:    -6.250      0.000      0.000
REMARK INTER + INTRA:          -7.730
REMARK INTER:                  -7.346
REMARK INTRA:                  -0.383
REMARK UNBOUND:                -0.383
REMARK SMILES Cc1ccc(CNC(=O)NC(=O)c2ccc(C)cc2)cc1
REMARK SMILES IDX 11 1 12 2 10 3 8 4 9 5 7 6 13 9 19 10 18 11 14 12 16 13
REMARK SMILES IDX 15 14 17 15 6 16 5 17 4 18 20 19 3 20 21 21 2 22 1 23
REMARK H PARENT 10 7 7 8
ROOT
ATOM      1  C   UNL     1      -7.227  -3.617   3.404  1.00  0.00     0.259 C 
ATOM      2  O   UNL     1      -6.893  -4.698   3.869  1.00  0.00    -0.269 OA
ATOM      3  N   UNL     1      -8.511  -3.079   3.275  1.00  0.00    -0.274 N 
ATOM      4  C   UNL     1      -9.769  -3.334   3.756  1.00  0.00     0.321 C 
ATOM      5  O   UNL     1     -10.657  -2.513   3.502  1.00  0.00    -0.248 OA
ATOM      6  N   UNL     1     -10.075  -4.406   4.509  1.00  0.00    -0.334 N 
ATOM      7  H   UNL     1      -8.539  -2.168   2.835  1.00  0.00     0.175 HD
ATOM      8  H   UNL     1     -11.024  -4.403   4.855  1.00  0.00     0.165 HD
ENDROOT
BRANCH   1   9
ATOM      9  C   UNL     1      -6.142  -2.747   2.911  1.00  0.00     0.040 A 
ATOM     10  C   UNL     1      -5.802  -2.703   1.557  1.00  0.00     0.014 A 
ATOM     11  C   UNL     1      -4.805  -1.825   1.131  1.00  0.00     0.004 A 
ATOM     12  C   UNL     1      -5.452  -1.965   3.843  1.00  0.00     0.014 A 
ATOM     13  C   UNL     1      -4.142  -0.999   2.051  1.00  0.00    -0.051 A 
ATOM     14  C   UNL     1      -4.461  -1.086   3.412  1.00  0.00     0.004 A 
ATOM     15  C   UNL     1      -3.132  -0.001   1.566  1.00  0.00     0.044 C 
ENDBRANCH   1   9
BRANCH   6  16
ATOM     16  C   UNL     1      -9.180  -5.415   5.001  1.00  0.00     0.153 C 
BRANCH  16  17
ATOM     17  C   UNL     1      -9.592  -6.158   6.242  1.00  0.00    -0.029 A 
ATOM     18  C   UNL     1      -8.825  -6.176   7.411  1.00  0.00     0.006 A 
ATOM     19  C   UNL     1     -10.899  -6.672   6.279  1.00  0.00     0.006 A 
ATOM     20  C   UNL     1      -9.370  -6.677   8.598  1.00  0.00     0.004 A 
ATOM     21  C   UNL     1     -11.441  -7.166   7.461  1.00  0.00     0.004 A 
ATOM     22  C   UNL     1     -10.684  -7.163   8.634  1.00  0.00    -0.051 A 
ATOM     23  C   UNL     1     -11.322  -7.568   9.930  1.00  0.00     0.044 C 
ENDBRANCH  16  17
ENDBRANCH   6  16
TORSDOF 3
ENDMDL
MODEL 2
REMARK VINA RESULT:    -6.235      3.248      5.576
REMARK INTER + INTRA:          -7.712
REMARK INTER:                  -7.325
REMARK INTRA:                  -0.387
REMARK UNBOUND:                -0.383
REMARK SMILES Cc1ccc(CNC(=O)NC(=O)c2ccc(C)cc2)cc1
REMARK SMILES IDX 11 1 12 2 10 3 8 4 9 5 7 6 13 9 19 10 18 11 14 12 16 13
REMARK SMILES IDX 15 14 17 15 6 16 5 17 4 18 20 19 3 20 21 21 2 22 1 23
REMARK H PARENT 10 7 7 8
ROOT
ATOM      1  C   UNL     1      -7.404  -3.456   3.086  1.00  0.00     0.259 C 
ATOM      2  O   UNL     1      -7.749  -2.371   2.639  1.00  0.00    -0.269 OA
ATOM      3  N   UNL     1      -8.091  -4.298   3.966  1.00  0.00    -0.274 N 
ATOM      4  C   UNL     1      -9.363  -4.425   4.461  1.00  0.00     0.321 C 
ATOM      5  O   UNL     1      -9.616  -5.424   5.144  1.00  0.00    -0.248 OA
ATOM      6  N   UNL     1     -10.348  -3.541   4.218  1.00  0.00    -0.334 N 
ATOM      7  H   UNL     1      -7.590  -5.142   4.212  1.00  0.00     0.175 HD
ATOM      8  H   UNL     1     -11.247  -3.823   4.583  1.00  0.00     0.165 HD
ENDROOT
BRANCH   1   9
ATOM      9  C   UNL     1      -6.091  -3.965   2.645  1.00  0.00     0.040 A 
ATOM     10  C   UNL     1      -4.943  -3.782   3.417  1.00  0.00     0.014 A 
ATOM     11  C   UNL     1      -3.733  -4.327   2.985  1.00  0.00     0.004 A 
ATOM     12  C   UNL     1      -6.024  -4.636   1.420  1.00  0.00     0.014 A 
ATOM     13  C   UNL     1      -3.666  -5.047   1.782  1.00  0.00    -0.051 A 
ATOM     14  C   UNL     1      -4.816  -5.184   0.995  1.00  0.00     0.004 A 
ATOM     15  C   UNL     1      -2.378  -5.699   1.373  1.00  0.00     0.044 C 
ENDBRANCH   1   9
BRANCH   6  16
ATOM     16  C   UNL     1     -10.295  -2.380   3.375  1.00  0.00     0.153 C 
BRANCH  16  17
ATOM     17  C   UNL     1     -11.590  -1.899   2.782  1.00  0.00    -0.029 A 
ATOM     18  C   UNL     1     -11.813  -1.810   1.404  1.00  0.00     0.006 A 
ATOM     19  C   UNL     1     -12.677  -1.736   3.657  1.00  0.00     0.006 A 
ATOM     20  C   UNL     1     -13.105  -1.588   0.917  1.00  0.00     0.004 A 
ATOM     21  C   UNL     1     -13.962  -1.521   3.171  1.00  0.00     0.004 A 
ATOM     22  C   UNL     1     -14.190  -1.455   1.795  1.00  0.00    -0.051 A 
ATOM     23  C   UNL     1     -15.594  -1.360   1.278  1.00  0.00     0.044 C 
ENDBRANCH  16  17
ENDBRANCH   6  16
TORSDOF 3
ENDMDL
MODEL 3
REMARK VINA RESULT:    -6.229      3.147      7.283
REMARK INTER + INTRA:          -7.704
REMARK INTER:                  -7.216
REMARK INTRA:                  -0.488
REMARK UNBOUND:                -0.383
REMARK SMILES Cc1ccc(CNC(=O)NC(=O)c2ccc(C)cc2)cc1
REMARK SMILES IDX 11 1 12 2 10 3 8 4 9 5 7 6 13 9 19 10 18 11 14 12 16 13
REMARK SMILES IDX 15 14 17 15 6 16 5 17 4 18 20 19 3 20 21 21 2 22 1 23
REMARK H PARENT 10 7 7 8
ROOT
ATOM      1  C   UNL     1     -10.174  -2.633   2.922  1.00  0.00     0.259 C 
ATOM      2  O   UNL     1      -9.241  -2.107   2.331  1.00  0.00    -0.269 OA
ATOM      3  N   UNL     1     -10.143  -3.675   3.853  1.00  0.00    -0.274 N 
ATOM      4  C   UNL     1      -9.207  -4.323   4.619  1.00  0.00     0.321 C 
ATOM      5  O   UNL     1      -9.614  -5.139   5.452  1.00  0.00    -0.248 OA
ATOM      6  N   UNL     1      -7.884  -4.093   4.528  1.00  0.00    -0.334 N 
ATOM      7  H   UNL     1     -11.052  -3.958   4.193  1.00  0.00     0.175 HD
ATOM      8  H   UNL     1      -7.338  -4.587   5.220  1.00  0.00     0.165 HD
ENDROOT
BRANCH   1   9
ATOM      9  C   UNL     1     -11.522  -2.108   2.630  1.00  0.00     0.040 A 
ATOM     10  C   UNL     1     -11.904  -1.765   1.332  1.00  0.00     0.014 A 
ATOM     11  C   UNL     1     -13.207  -1.323   1.097  1.00  0.00     0.004 A 
ATOM     12  C   UNL     1     -12.411  -1.953   3.698  1.00  0.00     0.014 A 
ATOM     13  C   UNL     1     -14.123  -1.214   2.154  1.00  0.00    -0.051 A 
ATOM     14  C   UNL     1     -13.713  -1.517   3.458  1.00  0.00     0.004 A 
ATOM     15  C   UNL     1     -15.543  -0.818   1.873  1.00  0.00     0.044 C 
ENDBRANCH   1   9
BRANCH   6  16
ATOM     16  C   UNL     1      -7.217  -3.122   3.708  1.00  0.00     0.153 C 
BRANCH  16  17
ATOM     17  C   UNL     1      -5.970  -3.563   2.993  1.00  0.00    -0.029 A 
ATOM     18  C   UNL     1      -4.691  -3.445   3.547  1.00  0.00     0.006 A 
ATOM     19  C   UNL     1      -6.133  -4.310   1.816  1.00  0.00     0.006 A 
ATOM     20  C   UNL     1      -3.605  -4.087   2.942  1.00  0.00     0.004 A 
ATOM     21  C   UNL     1      -5.053  -4.952   1.218  1.00  0.00     0.004 A 
ATOM     22  C   UNL     1      -3.780  -4.854   1.783  1.00  0.00    -0.051 A 
ATOM     23  C   UNL     1      -2.651  -5.659   1.212  1.00  0.00     0.044 C 
ENDBRANCH  16  17
ENDBRANCH   6  16
TORSDOF 3
ENDMDL
MODEL 4
REMARK VINA RESULT:    -6.217      0.556      8.014
REMARK INTER + INTRA:          -7.691
REMARK INTER:                  -7.206
REMARK INTRA:                  -0.485
REMARK UNBOUND:                -0.383
REMARK SMILES Cc1ccc(CNC(=O)NC(=O)c2ccc(C)cc2)cc1
REMARK SMILES IDX 11 1 12 2 10 3 8 4 9 5 7 6 13 9 19 10 18 11 14 12 16 13
REMARK SMILES IDX 15 14 17 15 6 16 5 17 4 18 20 19 3 20 21 21 2 22 1 23
REMARK H PARENT 10 7 7 8
ROOT
ATOM      1  C   UNL     1      -8.887  -5.118   5.287  1.00  0.00     0.259 C 
ATOM      2  O   UNL     1      -7.703  -5.327   5.062  1.00  0.00    -0.269 OA
ATOM      3  N   UNL     1      -9.745  -4.199   4.674  1.00  0.00    -0.274 N 
ATOM      4  C   UNL     1      -9.752  -3.412   3.551  1.00  0.00     0.321 C 
ATOM      5  O   UNL     1     -10.798  -2.813   3.277  1.00  0.00    -0.248 OA
ATOM      6  N   UNL     1      -8.697  -3.285   2.725  1.00  0.00    -0.334 N 
ATOM      7  H   UNL     1     -10.685  -4.193   5.047  1.00  0.00     0.175 HD
ATOM      8  H   UNL     1      -8.892  -2.739   1.898  1.00  0.00     0.165 HD
ENDROOT
BRANCH   1   9
ATOM      9  C   UNL     1      -9.515  -5.939   6.340  1.00  0.00     0.040 A 
ATOM     10  C   UNL     1      -8.854  -6.216   7.538  1.00  0.00     0.014 A 
ATOM     11  C   UNL     1      -9.509  -6.953   8.525  1.00  0.00     0.004 A 
ATOM     12  C   UNL     1     -10.798  -6.443   6.102  1.00  0.00     0.014 A 
ATOM     13  C   UNL     1     -10.816  -7.420   8.317  1.00  0.00    -0.051 A 
ATOM     14  C   UNL     1     -11.450  -7.173   7.093  1.00  0.00     0.004 A 
ATOM     15  C   UNL     1     -11.537  -8.137   9.420  1.00  0.00     0.044 C 
ENDBRANCH   1   9
BRANCH   6  16
ATOM     16  C   UNL     1      -7.437  -3.968   2.802  1.00  0.00     0.153 C 
BRANCH  16  17
ATOM     17  C   UNL     1      -6.196  -3.156   2.552  1.00  0.00    -0.029 A 
ATOM     18  C   UNL     1      -5.615  -3.020   1.287  1.00  0.00     0.006 A 
ATOM     19  C   UNL     1      -5.740  -2.339   3.600  1.00  0.00     0.006 A 
ATOM     20  C   UNL     1      -4.613  -2.066   1.076  1.00  0.00     0.004 A 
ATOM     21  C   UNL     1      -4.747  -1.388   3.387  1.00  0.00     0.004 A 
ATOM     22  C   UNL     1      -4.182  -1.236   2.120  1.00  0.00    -0.051 A 
ATOM     23  C   UNL     1      -3.214  -0.119   1.868  1.00  0.00     0.044 C 
ENDBRANCH  16  17
ENDBRANCH   6  16
TORSDOF 3
ENDMDL
MODEL 5
REMARK VINA RESULT:    -5.862      3.020      7.742
REMARK INTER + INTRA:          -7.274
REMARK INTER:                  -6.796
REMARK INTRA:                  -0.477
REMARK UNBOUND:                -0.383
REMARK SMILES Cc1ccc(CNC(=O)NC(=O)c2ccc(C)cc2)cc1
REMARK SMILES IDX 11 1 12 2 10 3 8 4 9 5 7 6 13 9 19 10 18 11 14 12 16 13
REMARK SMILES IDX 15 14 17 15 6 16 5 17 4 18 20 19 3 20 21 21 2 22 1 23
REMARK H PARENT 10 7 7 8
ROOT
ATOM      1  C   UNL     1     -10.530  -2.313   3.115  1.00  0.00     0.259 C 
ATOM      2  O   UNL     1      -9.648  -1.520   2.816  1.00  0.00    -0.269 OA
ATOM      3  N   UNL     1     -10.421  -3.528   3.798  1.00  0.00    -0.274 N 
ATOM      4  C   UNL     1      -9.485  -4.182   4.559  1.00  0.00     0.321 C 
ATOM      5  O   UNL     1      -9.832  -5.227   5.121  1.00  0.00    -0.248 OA
ATOM      6  N   UNL     1      -8.231  -3.731   4.747  1.00  0.00    -0.334 N 
ATOM      7  H   UNL     1     -11.295  -4.024   3.911  1.00  0.00     0.175 HD
ATOM      8  H   UNL     1      -7.695  -4.282   5.401  1.00  0.00     0.165 HD
ENDROOT
BRANCH   1   9
ATOM      9  C   UNL     1     -11.904  -1.954   2.715  1.00  0.00     0.040 A 
ATOM     10  C   UNL     1     -12.918  -1.788   3.660  1.00  0.00     0.014 A 
ATOM     11  C   UNL     1     -14.189  -1.397   3.238  1.00  0.00     0.004 A 
ATOM     12  C   UNL     1     -12.169  -1.789   1.352  1.00  0.00     0.014 A 
ATOM     13  C   UNL     1     -14.452  -1.178   1.877  1.00  0.00    -0.051 A 
ATOM     14  C   UNL     1     -13.438  -1.391   0.935  1.00  0.00     0.004 A 
ATOM     15  C   UNL     1     -15.799  -0.676   1.448  1.00  0.00     0.044 C 
ENDBRANCH   1   9
BRANCH   6  16
ATOM     16  C   UNL     1      -7.663  -2.500   4.275  1.00  0.00     0.153 C 
BRANCH  16  17
ATOM     17  C   UNL     1      -6.347  -2.580   3.551  1.00  0.00    -0.029 A 
ATOM     18  C   UNL     1      -6.173  -3.290   2.359  1.00  0.00     0.006 A 
ATOM     19  C   UNL     1      -5.319  -1.730   3.991  1.00  0.00     0.006 A 
ATOM     20  C   UNL     1      -5.001  -3.130   1.613  1.00  0.00     0.004 A 
ATOM     21  C   UNL     1      -4.156  -1.568   3.246  1.00  0.00     0.004 A 
ATOM     22  C   UNL     1      -3.991  -2.259   2.044  1.00  0.00    -0.051 A 
ATOM     23  C   UNL     1      -2.798  -1.974   1.182  1.00  0.00     0.044 C 
ENDBRANCH  16  17
ENDBRANCH   6  16
TORSDOF 3
ENDMDL
MODEL 6
REMARK VINA RESULT:    -5.791      1.250      7.941
REMARK INTER + INTRA:          -7.189
REMARK INTER:                  -6.734
REMARK INTRA:                  -0.455
REMARK UNBOUND:                -0.383
REMARK SMILES Cc1ccc(CNC(=O)NC(=O)c2ccc(C)cc2)cc1
REMARK SMILES IDX 11 1 12 2 10 3 8 4 9 5 7 6 13 9 19 10 18 11 14 12 16 13
REMARK SMILES IDX 15 14 17 15 6 16 5 17 4 18 20 19 3 20 21 21 2 22 1 23
REMARK H PARENT 10 7 7 8
ROOT
ATOM      1  C   UNL     1      -8.862  -5.286   5.297  1.00  0.00     0.259 C 
ATOM      2  O   UNL     1      -7.739  -5.698   5.041  1.00  0.00    -0.269 OA
ATOM      3  N   UNL     1      -9.558  -4.224   4.712  1.00  0.00    -0.274 N 
ATOM      4  C   UNL     1      -9.454  -3.437   3.594  1.00  0.00     0.321 C 
ATOM      5  O   UNL     1     -10.384  -2.660   3.350  1.00  0.00    -0.248 OA
ATOM      6  N   UNL     1      -8.413  -3.490   2.741  1.00  0.00    -0.334 N 
ATOM      7  H   UNL     1     -10.473  -4.056   5.109  1.00  0.00     0.175 HD
ATOM      8  H   UNL     1      -8.528  -2.909   1.923  1.00  0.00     0.165 HD
ENDROOT
BRANCH   1   9
ATOM      9  C   UNL     1      -9.599  -5.994   6.361  1.00  0.00     0.040 A 
ATOM     10  C   UNL     1     -10.914  -6.424   6.173  1.00  0.00     0.014 A 
ATOM     11  C   UNL     1     -11.552  -7.136   7.189  1.00  0.00     0.004 A 
ATOM     12  C   UNL     1      -8.944  -6.219   7.576  1.00  0.00     0.014 A 
ATOM     13  C   UNL     1     -10.886  -7.412   8.393  1.00  0.00    -0.051 A 
ATOM     14  C   UNL     1      -9.583  -6.936   8.585  1.00  0.00     0.004 A 
ATOM     15  C   UNL     1     -11.555  -8.251   9.441  1.00  0.00     0.044 C 
ENDBRANCH   1   9
BRANCH   6  16
ATOM     16  C   UNL     1      -7.292  -4.385   2.783  1.00  0.00     0.153 C 
BRANCH  16  17
ATOM     17  C   UNL     1      -5.927  -3.791   2.566  1.00  0.00    -0.029 A 
ATOM     18  C   UNL     1      -4.790  -4.221   3.257  1.00  0.00     0.006 A 
ATOM     19  C   UNL     1      -5.770  -2.920   1.476  1.00  0.00     0.006 A 
ATOM     20  C   UNL     1      -3.520  -3.803   2.844  1.00  0.00     0.004 A 
ATOM     21  C   UNL     1      -4.507  -2.509   1.063  1.00  0.00     0.004 A 
ATOM     22  C   UNL     1      -3.369  -2.956   1.738  1.00  0.00    -0.051 A 
ATOM     23  C   UNL     1      -2.009  -2.619   1.203  1.00  0.00     0.044 C 
ENDBRANCH  16  17
ENDBRANCH   6  16
TORSDOF 3
ENDMDL
MODEL 7
REMARK VINA RESULT:    -5.206      1.323      1.482
REMARK INTER + INTRA:          -6.503
REMARK INTER:                  -6.042
REMARK INTRA:                  -0.461
REMARK UNBOUND:                -0.383
REMARK SMILES Cc1ccc(CNC(=O)NC(=O)c2ccc(C)cc2)cc1
REMARK SMILES IDX 11 1 12 2 10 3 8 4 9 5 7 6 13 9 19 10 18 11 14 12 16 13
REMARK SMILES IDX 15 14 17 15 6 16 5 17 4 18 20 19 3 20 21 21 2 22 1 23
REMARK H PARENT 10 7 7 8
ROOT
ATOM      1  C   UNL     1      -6.916  -4.021   2.808  1.00  0.00     0.259 C 
ATOM      2  O   UNL     1      -7.080  -5.224   2.949  1.00  0.00    -0.269 OA
ATOM      3  N   UNL     1      -7.800  -2.977   3.099  1.00  0.00    -0.274 N 
ATOM      4  C   UNL     1      -8.966  -2.801   3.799  1.00  0.00     0.321 C 
ATOM      5  O   UNL     1      -9.385  -1.647   3.935  1.00  0.00    -0.248 OA
ATOM      6  N   UNL     1      -9.653  -3.811   4.366  1.00  0.00    -0.334 N 
ATOM      7  H   UNL     1      -7.446  -2.056   2.875  1.00  0.00     0.175 HD
ATOM      8  H   UNL     1     -10.442  -3.506   4.918  1.00  0.00     0.165 HD
ENDROOT
BRANCH   1   9
ATOM      9  C   UNL     1      -5.614  -3.591   2.264  1.00  0.00     0.040 A 
ATOM     10  C   UNL     1      -5.459  -2.353   1.638  1.00  0.00     0.014 A 
ATOM     11  C   UNL     1      -4.196  -1.968   1.187  1.00  0.00     0.004 A 
ATOM     12  C   UNL     1      -4.530  -4.466   2.387  1.00  0.00     0.014 A 
ATOM     13  C   UNL     1      -3.091  -2.817   1.351  1.00  0.00    -0.051 A 
ATOM     14  C   UNL     1      -3.269  -4.075   1.940  1.00  0.00     0.004 A 
ATOM     15  C   UNL     1      -1.725  -2.354   0.937  1.00  0.00     0.044 C 
ENDBRANCH   1   9
BRANCH   6  16
ATOM     16  C   UNL     1      -9.289  -5.199   4.415  1.00  0.00     0.153 C 
BRANCH  16  17
ATOM     17  C   UNL     1      -9.516  -5.926   5.711  1.00  0.00    -0.029 A 
ATOM     18  C   UNL     1      -8.597  -5.910   6.766  1.00  0.00     0.006 A 
ATOM     19  C   UNL     1     -10.795  -6.461   5.933  1.00  0.00     0.006 A 
ATOM     20  C   UNL     1      -8.967  -6.399   8.023  1.00  0.00     0.004 A 
ATOM     21  C   UNL     1     -11.163  -6.942   7.186  1.00  0.00     0.004 A 
ATOM     22  C   UNL     1     -10.255  -6.906   8.245  1.00  0.00    -0.051 A 
ATOM     23  C   UNL     1     -10.704  -7.299   9.621  1.00  0.00     0.044 C 
ENDBRANCH  16  17
ENDBRANCH   6  16
TORSDOF 3
ENDMDL
MODEL 8
REMARK VINA RESULT:    -5.104      4.883      7.695
REMARK INTER + INTRA:          -6.382
REMARK INTER:                  -6.138
REMARK INTRA:                  -0.244
REMARK UNBOUND:                -0.383
REMARK SMILES Cc1ccc(CNC(=O)NC(=O)c2ccc(C)cc2)cc1
REMARK SMILES IDX 11 1 12 2 10 3 8 4 9 5 7 6 13 9 19 10 18 11 14 12 16 13
REMARK SMILES IDX 15 14 17 15 6 16 5 17 4 18 20 19 3 20 21 21 2 22 1 23
REMARK H PARENT 10 7 7 8
ROOT
ATOM      1  C   UNL     1     -10.746  -7.564   9.280  1.00  0.00     0.259 C 
ATOM      2  O   UNL     1     -10.536  -8.761   9.415  1.00  0.00    -0.269 OA
ATOM      3  N   UNL     1     -11.360  -6.676  10.169  1.00  0.00    -0.274 N 
ATOM      4  C   UNL     1     -11.726  -6.657  11.491  1.00  0.00     0.321 C 
ATOM      5  O   UNL     1     -12.142  -5.590  11.955  1.00  0.00    -0.248 OA
ATOM      6  N   UNL     1     -11.625  -7.723  12.307  1.00  0.00    -0.334 N 
ATOM      7  H   UNL     1     -11.440  -5.729   9.825  1.00  0.00     0.175 HD
ATOM      8  H   UNL     1     -11.854  -7.521  13.270  1.00  0.00     0.165 HD
ENDROOT
BRANCH   1   9
ATOM      9  C   UNL     1     -10.290  -6.952   8.017  1.00  0.00     0.040 A 
ATOM     10  C   UNL     1     -11.131  -6.866   6.906  1.00  0.00     0.014 A 
ATOM     11  C   UNL     1     -10.674  -6.232   5.750  1.00  0.00     0.004 A 
ATOM     12  C   UNL     1      -8.982  -6.464   7.957  1.00  0.00     0.014 A 
ATOM     13  C   UNL     1      -9.380  -5.692   5.698  1.00  0.00    -0.051 A 
ATOM     14  C   UNL     1      -8.531  -5.826   6.803  1.00  0.00     0.004 A 
ATOM     15  C   UNL     1      -8.934  -4.939   4.479  1.00  0.00     0.044 C 
ENDBRANCH   1   9
BRANCH   6  16
ATOM     16  C   UNL     1     -11.076  -9.013  11.999  1.00  0.00     0.153 C 
BRANCH  16  17
ATOM     17  C   UNL     1     -12.043 -10.108  11.644  1.00  0.00    -0.029 A 
ATOM     18  C   UNL     1     -13.364  -9.864  11.256  1.00  0.00     0.006 A 
ATOM     19  C   UNL     1     -11.522 -11.404  11.499  1.00  0.00     0.006 A 
ATOM     20  C   UNL     1     -14.136 -10.895  10.711  1.00  0.00     0.004 A 
ATOM     21  C   UNL     1     -12.289 -12.428  10.953  1.00  0.00     0.004 A 
ATOM     22  C   UNL     1     -13.600 -12.180  10.544  1.00  0.00    -0.051 A 
ATOM     23  C   UNL     1     -14.371 -13.251   9.831  1.00  0.00     0.044 C 
ENDBRANCH  16  17
ENDBRANCH   6  16
TORSDOF 3
ENDMDL
MODEL 9
REMARK VINA RESULT:    -5.058      5.535      8.776
REMARK INTER + INTRA:          -6.328
REMARK INTER:                  -5.807
REMARK INTRA:                  -0.521
REMARK UNBOUND:                -0.383
REMARK SMILES Cc1ccc(CNC(=O)NC(=O)c2ccc(C)cc2)cc1
REMARK SMILES IDX 11 1 12 2 10 3 8 4 9 5 7 6 13 9 19 10 18 11 14 12 16 13
REMARK SMILES IDX 15 14 17 15 6 16 5 17 4 18 20 19 3 20 21 21 2 22 1 23
REMARK H PARENT 10 7 7 8
ROOT
ATOM      1  C   UNL     1     -11.059  -8.216   9.912  1.00  0.00     0.259 C 
ATOM      2  O   UNL     1     -12.212  -8.026  10.275  1.00  0.00    -0.269 OA
ATOM      3  N   UNL     1     -10.095  -9.062  10.469  1.00  0.00    -0.274 N 
ATOM      4  C   UNL     1     -10.053 -10.100  11.364  1.00  0.00     0.321 C 
ATOM      5  O   UNL     1      -8.981 -10.700  11.496  1.00  0.00    -0.248 OA
ATOM      6  N   UNL     1     -11.118 -10.511  12.077  1.00  0.00    -0.334 N 
ATOM      7  H   UNL     1      -9.197  -9.034  10.004  1.00  0.00     0.175 HD
ATOM      8  H   UNL     1     -10.944 -11.340  12.627  1.00  0.00     0.165 HD
ENDROOT
BRANCH   1   9
ATOM      9  C   UNL     1     -10.607  -7.463   8.727  1.00  0.00     0.040 A 
ATOM     10  C   UNL     1      -9.354  -6.849   8.688  1.00  0.00     0.014 A 
ATOM     11  C   UNL     1      -8.949  -6.193   7.525  1.00  0.00     0.004 A 
ATOM     12  C   UNL     1     -11.477  -7.372   7.635  1.00  0.00     0.014 A 
ATOM     13  C   UNL     1      -9.793  -6.141   6.406  1.00  0.00    -0.051 A 
ATOM     14  C   UNL     1     -11.066  -6.721   6.474  1.00  0.00     0.004 A 
ATOM     15  C   UNL     1      -9.310  -5.506   5.136  1.00  0.00     0.044 C 
ENDBRANCH   1   9
BRANCH   6  16
ATOM     16  C   UNL     1     -12.466 -10.023  11.999  1.00  0.00     0.153 C 
BRANCH  16  17
ATOM     17  C   UNL     1     -13.476 -10.896  11.308  1.00  0.00    -0.029 A 
ATOM     18  C   UNL     1     -14.569 -10.385  10.601  1.00  0.00     0.006 A 
ATOM     19  C   UNL     1     -13.179 -12.264  11.202  1.00  0.00     0.006 A 
ATOM     20  C   UNL     1     -15.331 -11.229   9.784  1.00  0.00     0.004 A 
ATOM     21  C   UNL     1     -13.933 -13.101  10.386  1.00  0.00     0.004 A 
ATOM     22  C   UNL     1     -15.011 -12.588   9.662  1.00  0.00    -0.051 A 
ATOM     23  C   UNL     1     -15.731 -13.465   8.682  1.00  0.00     0.044 C 
ENDBRANCH  16  17
ENDBRANCH   6  16
TORSDOF 3
ENDMDL
