MODEL 1
REMARK VINA RESULT:    -6.260      0.000      0.000
REMARK INTER + INTRA:          -7.748
REMARK INTER:                  -7.358
REMARK INTRA:                  -0.390
REMARK UNBOUND:                -0.390
REMARK SMILES Cc1ccc(CNC(=O)NC(=O)c2ccc(C)cc2)cc1
REMARK SMILES IDX 11 1 12 2 10 3 8 4 9 5 7 6 13 9 19 10 18 11 14 12 16 13
REMARK SMILES IDX 15 14 17 15 6 16 5 17 4 18 20 19 3 20 21 21 2 22 1 23
REMARK H PARENT 10 7 7 8
ROOT
ATOM      1  C   UNL     1      -0.446  -1.468   9.750  1.00  0.00     0.259 C 
ATOM      2  O   UNL     1      -0.215  -2.665   9.651  1.00  0.00    -0.269 OA
ATOM      3  N   UNL     1      -0.901  -0.753  10.862  1.00  0.00    -0.274 N 
ATOM      4  C   UNL     1      -1.035  -0.957  12.212  1.00  0.00     0.321 C 
ATOM      5  O   UNL     1      -1.368   0.009  12.907  1.00  0.00    -0.248 OA
ATOM      6  N   UNL     1      -0.796  -2.136  12.814  1.00  0.00    -0.334 N 
ATOM      7  H   UNL     1      -1.040   0.234  10.695  1.00  0.00     0.175 HD
ATOM      8  H   UNL     1      -0.857  -2.098  13.821  1.00  0.00     0.165 HD
ENDROOT
BRANCH   1   9
ATOM      9  C   UNL     1      -0.214  -0.649   8.544  1.00  0.00     0.040 A 
ATOM     10  C   UNL     1      -1.262  -0.299   7.690  1.00  0.00     0.014 A 
ATOM     11  C   UNL     1      -1.002   0.521   6.591  1.00  0.00     0.004 A 
ATOM     12  C   UNL     1       1.093  -0.235   8.273  1.00  0.00     0.014 A 
ATOM     13  C   UNL     1       0.298   0.985   6.339  1.00  0.00    -0.051 A 
ATOM     14  C   UNL     1       1.347   0.589   7.178  1.00  0.00     0.004 A 
ATOM     15  C   UNL     1       0.545   1.934   5.204  1.00  0.00     0.044 C 
ENDBRANCH   1   9
BRANCH   6  16
ATOM     16  C   UNL     1      -0.305  -3.344  12.212  1.00  0.00     0.153 C 
BRANCH  16  17
ATOM     17  C   UNL     1       0.459  -4.293  13.093  1.00  0.00    -0.029 A 
ATOM     18  C   UNL     1       1.800  -4.626  12.873  1.00  0.00     0.006 A 
ATOM     19  C   UNL     1      -0.149  -4.685  14.296  1.00  0.00     0.006 A 
ATOM     20  C   UNL     1       2.519  -5.317  13.855  1.00  0.00     0.004 A 
ATOM     21  C   UNL     1       0.568  -5.367  15.273  1.00  0.00     0.004 A 
ATOM     22  C   UNL     1       1.912  -5.681  15.065  1.00  0.00    -0.051 A 
ATOM     23  C   UNL     1       2.712  -6.293  16.176  1.00  0.00     0.044 C 
ENDBRANCH  16  17
ENDBRANCH   6  16
TORSDOF 3
ENDMDL
MODEL 2
REMARK VINA RESULT:    -6.234      3.210      5.480
REMARK INTER + INTRA:          -7.718
REMARK INTER:                  -7.340
REMARK INTRA:                  -0.378
REMARK UNBOUND:                -0.390
REMARK SMILES Cc1ccc(CNC(=O)NC(=O)c2ccc(C)cc2)cc1
REMARK SMILES IDX 11 1 12 2 10 3 8 4 9 5 7 6 13 9 19 10 18 11 14 12 16 13
REMARK SMILES IDX 15 14 17 15 6 16 5 17 4 18 20 19 3 20 21 21 2 22 1 23
REMARK H PARENT 10 7 7 8
ROOT
ATOM      1  C   UNL     1      -0.685  -1.348   9.750  1.00  0.00     0.259 C 
ATOM      2  O   UNL     1      -0.948  -0.161   9.877  1.00  0.00    -0.269 OA
ATOM      3  N   UNL     1      -0.373  -2.286  10.739  1.00  0.00    -0.274 N 
ATOM      4  C   UNL     1      -0.451  -2.383  12.105  1.00  0.00     0.321 C 
ATOM      5  O   UNL     1      -0.186  -3.475  12.619  1.00  0.00    -0.248 OA
ATOM      6  N   UNL     1      -0.827  -1.366  12.903  1.00  0.00    -0.334 N 
ATOM      7  H   UNL     1      -0.169  -3.212  10.387  1.00  0.00     0.175 HD
ATOM      8  H   UNL     1      -0.917  -1.624  13.875  1.00  0.00     0.165 HD
ENDROOT
BRANCH   1   9
ATOM      9  C   UNL     1      -0.699  -1.885   8.376  1.00  0.00     0.040 A 
ATOM     10  C   UNL     1       0.480  -2.053   7.648  1.00  0.00     0.014 A 
ATOM     11  C   UNL     1       0.422  -2.613   6.371  1.00  0.00     0.004 A 
ATOM     12  C   UNL     1      -1.936  -2.218   7.813  1.00  0.00     0.014 A 
ATOM     13  C   UNL     1      -0.808  -2.998   5.818  1.00  0.00    -0.051 A 
ATOM     14  C   UNL     1      -1.988  -2.783   6.540  1.00  0.00     0.004 A 
ATOM     15  C   UNL     1      -0.846  -3.676   4.480  1.00  0.00     0.044 C 
ENDBRANCH   1   9
BRANCH   6  16
ATOM     16  C   UNL     1      -1.272  -0.060  12.506  1.00  0.00     0.153 C 
BRANCH  16  17
ATOM     17  C   UNL     1      -2.120   0.706  13.483  1.00  0.00    -0.029 A 
ATOM     18  C   UNL     1      -3.393   1.194  13.170  1.00  0.00     0.006 A 
ATOM     19  C   UNL     1      -1.689   0.741  14.819  1.00  0.00     0.006 A 
ATOM     20  C   UNL     1      -4.224   1.683  14.184  1.00  0.00     0.004 A 
ATOM     21  C   UNL     1      -2.518   1.223  15.827  1.00  0.00     0.004 A 
ATOM     22  C   UNL     1      -3.798   1.688  15.520  1.00  0.00    -0.051 A 
ATOM     23  C   UNL     1      -4.732   2.076  16.627  1.00  0.00     0.044 C 
ENDBRANCH  16  17
ENDBRANCH   6  16
TORSDOF 3
ENDMDL
MODEL 3
REMARK VINA RESULT:    -6.169      0.576      8.023
REMARK INTER + INTRA:          -7.641
REMARK INTER:                  -7.169
REMARK INTRA:                  -0.472
REMARK UNBOUND:                -0.390
REMARK SMILES Cc1ccc(CNC(=O)NC(=O)c2ccc(C)cc2)cc1
REMARK SMILES IDX 11 1 12 2 10 3 8 4 9 5 7 6 13 9 19 10 18 11 14 12 16 13
REMARK SMILES IDX 15 14 17 15 6 16 5 17 4 18 20 19 3 20 21 21 2 22 1 23
REMARK H PARENT 10 7 7 8
ROOT
ATOM      1  C   UNL     1       0.209  -3.187  12.086  1.00  0.00     0.259 C 
ATOM      2  O   UNL     1       0.457  -3.471  10.922  1.00  0.00    -0.269 OA
ATOM      3  N   UNL     1      -0.447  -2.059  12.591  1.00  0.00    -0.274 N 
ATOM      4  C   UNL     1      -1.223  -1.037  12.107  1.00  0.00     0.321 C 
ATOM      5  O   UNL     1      -1.746  -0.276  12.929  1.00  0.00    -0.248 OA
ATOM      6  N   UNL     1      -1.464  -0.841  10.798  1.00  0.00    -0.334 N 
ATOM      7  H   UNL     1      -0.517  -2.034  13.599  1.00  0.00     0.175 HD
ATOM      8  H   UNL     1      -2.123  -0.099  10.612  1.00  0.00     0.165 HD
ENDROOT
BRANCH   1   9
ATOM      9  C   UNL     1       0.647  -4.154  13.110  1.00  0.00     0.040 A 
ATOM     10  C   UNL     1       1.866  -4.826  13.002  1.00  0.00     0.014 A 
ATOM     11  C   UNL     1       2.262  -5.692  14.022  1.00  0.00     0.004 A 
ATOM     12  C   UNL     1      -0.200  -4.389  14.197  1.00  0.00     0.014 A 
ATOM     13  C   UNL     1       1.442  -5.895  15.143  1.00  0.00    -0.051 A 
ATOM     14  C   UNL     1       0.202  -5.249  15.217  1.00  0.00     0.004 A 
ATOM     15  C   UNL     1       1.919  -6.763  16.270  1.00  0.00     0.044 C 
ENDBRANCH   1   9
BRANCH   6  16
ATOM     16  C   UNL     1      -1.043  -1.661   9.697  1.00  0.00     0.153 C 
BRANCH  16  17
ATOM     17  C   UNL     1      -0.586  -0.959   8.449  1.00  0.00    -0.029 A 
ATOM     18  C   UNL     1      -1.457  -0.585   7.421  1.00  0.00     0.006 A 
ATOM     19  C   UNL     1       0.735  -0.481   8.427  1.00  0.00     0.006 A 
ATOM     20  C   UNL     1      -1.016   0.272   6.406  1.00  0.00     0.004 A 
ATOM     21  C   UNL     1       1.171   0.374   7.420  1.00  0.00     0.004 A 
ATOM     22  C   UNL     1       0.296   0.767   6.406  1.00  0.00    -0.051 A 
ATOM     23  C   UNL     1       0.732   1.795   5.405  1.00  0.00     0.044 C 
ENDBRANCH  16  17
ENDBRANCH   6  16
TORSDOF 3
ENDMDL
MODEL 4
REMARK VINA RESULT:    -6.165      3.121      7.285
REMARK INTER + INTRA:          -7.637
REMARK INTER:                  -7.161
REMARK INTRA:                  -0.476
REMARK UNBOUND:                -0.390
REMARK SMILES Cc1ccc(CNC(=O)NC(=O)c2ccc(C)cc2)cc1
REMARK SMILES IDX 11 1 12 2 10 3 8 4 9 5 7 6 13 9 19 10 18 11 14 12 16 13
REMARK SMILES IDX 15 14 17 15 6 16 5 17 4 18 20 19 3 20 21 21 2 22 1 23
REMARK H PARENT 10 7 7 8
ROOT
ATOM      1  C   UNL     1      -1.696  -0.167  12.272  1.00  0.00     0.259 C 
ATOM      2  O   UNL     1      -1.757   0.369  11.175  1.00  0.00    -0.269 OA
ATOM      3  N   UNL     1      -1.114  -1.391  12.617  1.00  0.00    -0.274 N 
ATOM      4  C   UNL     1      -0.255  -2.299  12.054  1.00  0.00     0.321 C 
ATOM      5  O   UNL     1       0.139  -3.232  12.762  1.00  0.00    -0.248 OA
ATOM      6  N   UNL     1       0.199  -2.209  10.790  1.00  0.00    -0.334 N 
ATOM      7  H   UNL     1      -1.209  -1.637  13.593  1.00  0.00     0.175 HD
ATOM      8  H   UNL     1       0.891  -2.907  10.555  1.00  0.00     0.165 HD
ENDROOT
BRANCH   1   9
ATOM      9  C   UNL     1      -2.309   0.562  13.399  1.00  0.00     0.040 A 
ATOM     10  C   UNL     1      -3.504   1.268  13.245  1.00  0.00     0.014 A 
ATOM     11  C   UNL     1      -4.073   1.898  14.352  1.00  0.00     0.004 A 
ATOM     12  C   UNL     1      -1.654   0.534  14.634  1.00  0.00     0.014 A 
ATOM     13  C   UNL     1      -3.450   1.833  15.607  1.00  0.00    -0.051 A 
ATOM     14  C   UNL     1      -2.230   1.159  15.738  1.00  0.00     0.004 A 
ATOM     15  C   UNL     1      -4.118   2.443  16.805  1.00  0.00     0.044 C 
ENDBRANCH   1   9
BRANCH   6  16
ATOM     16  C   UNL     1      -0.050  -1.160   9.842  1.00  0.00     0.153 C 
BRANCH  16  17
ATOM     17  C   UNL     1      -0.302  -1.564   8.416  1.00  0.00    -0.029 A 
ATOM     18  C   UNL     1       0.719  -1.707   7.471  1.00  0.00     0.006 A 
ATOM     19  C   UNL     1      -1.593  -2.014   8.094  1.00  0.00     0.006 A 
ATOM     20  C   UNL     1       0.453  -2.313   6.239  1.00  0.00     0.004 A 
ATOM     21  C   UNL     1      -1.855  -2.622   6.870  1.00  0.00     0.004 A 
ATOM     22  C   UNL     1      -0.831  -2.786   5.935  1.00  0.00    -0.051 A 
ATOM     23  C   UNL     1      -1.091  -3.562   4.679  1.00  0.00     0.044 C 
ENDBRANCH  16  17
ENDBRANCH   6  16
TORSDOF 3
ENDMDL
MODEL 5
REMARK VINA RESULT:    -5.854      1.084      7.939
REMARK INTER + INTRA:          -7.271
REMARK INTER:                  -6.792
REMARK INTRA:                  -0.478
REMARK UNBOUND:                -0.390
REMARK SMILES Cc1ccc(CNC(=O)NC(=O)c2ccc(C)cc2)cc1
REMARK SMILES IDX 11 1 12 2 10 3 8 4 9 5 7 6 13 9 19 10 18 11 14 12 16 13
REMARK SMILES IDX 15 14 17 15 6 16 5 17 4 18 20 19 3 20 21 21 2 22 1 23
REMARK H PARENT 10 7 7 8
ROOT
ATOM      1  C   UNL     1       0.073  -3.549  12.366  1.00  0.00     0.259 C 
ATOM      2  O   UNL     1       0.044  -4.039  11.246  1.00  0.00    -0.269 OA
ATOM      3  N   UNL     1      -0.348  -2.280  12.778  1.00  0.00    -0.274 N 
ATOM      4  C   UNL     1      -1.101  -1.250  12.275  1.00  0.00     0.321 C 
ATOM      5  O   UNL     1      -1.363  -0.309  13.033  1.00  0.00    -0.248 OA
ATOM      6  N   UNL     1      -1.589  -1.227  11.021  1.00  0.00    -0.334 N 
ATOM      7  H   UNL     1      -0.203  -2.092  13.760  1.00  0.00     0.175 HD
ATOM      8  H   UNL     1      -2.194  -0.441  10.835  1.00  0.00     0.165 HD
ENDROOT
BRANCH   1   9
ATOM      9  C   UNL     1       0.616  -4.397  13.444  1.00  0.00     0.040 A 
ATOM     10  C   UNL     1      -0.111  -4.646  14.611  1.00  0.00     0.014 A 
ATOM     11  C   UNL     1       0.422  -5.498  15.579  1.00  0.00     0.004 A 
ATOM     12  C   UNL     1       1.890  -4.945  13.271  1.00  0.00     0.014 A 
ATOM     13  C   UNL     1       1.678  -6.093  15.391  1.00  0.00    -0.051 A 
ATOM     14  C   UNL     1       2.416  -5.800  14.238  1.00  0.00     0.004 A 
ATOM     15  C   UNL     1       2.199  -7.072  16.402  1.00  0.00     0.044 C 
ENDBRANCH   1   9
BRANCH   6  16
ATOM     16  C   UNL     1      -1.490  -2.256  10.024  1.00  0.00     0.153 C 
BRANCH  16  17
ATOM     17  C   UNL     1      -1.028  -1.845   8.654  1.00  0.00    -0.029 A 
ATOM     18  C   UNL     1      -1.755  -2.116   7.490  1.00  0.00     0.006 A 
ATOM     19  C   UNL     1       0.072  -0.975   8.580  1.00  0.00     0.006 A 
ATOM     20  C   UNL     1      -1.398  -1.504   6.283  1.00  0.00     0.004 A 
ATOM     21  C   UNL     1       0.422  -0.363   7.380  1.00  0.00     0.004 A 
ATOM     22  C   UNL     1      -0.316  -0.615   6.223  1.00  0.00    -0.051 A 
ATOM     23  C   UNL     1      -0.017   0.152   4.970  1.00  0.00     0.044 C 
ENDBRANCH  16  17
ENDBRANCH   6  16
TORSDOF 3
ENDMDL
MODEL 6
REMARK VINA RESULT:    -5.814      3.013      7.798
REMARK INTER + INTRA:          -7.223
REMARK INTER:                  -6.785
REMARK INTRA:                  -0.439
REMARK UNBOUND:                -0.390
REMARK SMILES Cc1ccc(CNC(=O)NC(=O)c2ccc(C)cc2)cc1
REMARK SMILES IDX 11 1 12 2 10 3 8 4 9 5 7 6 13 9 19 10 18 11 14 12 16 13
REMARK SMILES IDX 15 14 17 15 6 16 5 17 4 18 20 19 3 20 21 21 2 22 1 23
REMARK H PARENT 10 7 7 8
ROOT
ATOM      1  C   UNL     1      -1.697   0.015  12.276  1.00  0.00     0.259 C 
ATOM      2  O   UNL     1      -1.655   0.740  11.292  1.00  0.00    -0.269 OA
ATOM      3  N   UNL     1      -1.251  -1.303  12.412  1.00  0.00    -0.274 N 
ATOM      4  C   UNL     1      -0.455  -2.180  11.721  1.00  0.00     0.321 C 
ATOM      5  O   UNL     1      -0.184  -3.258  12.261  1.00  0.00    -0.248 OA
ATOM      6  N   UNL     1       0.066  -1.915  10.508  1.00  0.00    -0.334 N 
ATOM      7  H   UNL     1      -1.415  -1.707  13.325  1.00  0.00     0.175 HD
ATOM      8  H   UNL     1       0.699  -2.627  10.173  1.00  0.00     0.165 HD
ENDROOT
BRANCH   1   9
ATOM      9  C   UNL     1      -2.293   0.593  13.496  1.00  0.00     0.040 A 
ATOM     10  C   UNL     1      -1.668   0.471  14.739  1.00  0.00     0.014 A 
ATOM     11  C   UNL     1      -2.242   1.079  15.856  1.00  0.00     0.004 A 
ATOM     12  C   UNL     1      -3.513   1.265  13.377  1.00  0.00     0.014 A 
ATOM     13  C   UNL     1      -3.440   1.800  15.737  1.00  0.00    -0.051 A 
ATOM     14  C   UNL     1      -4.080   1.876  14.494  1.00  0.00     0.004 A 
ATOM     15  C   UNL     1      -4.000   2.519  16.929  1.00  0.00     0.044 C 
ENDBRANCH   1   9
BRANCH   6  16
ATOM     16  C   UNL     1      -0.038  -0.695   9.758  1.00  0.00     0.153 C 
BRANCH  16  17
ATOM     17  C   UNL     1      -0.280  -0.813   8.279  1.00  0.00    -0.029 A 
ATOM     18  C   UNL     1      -0.973   0.150   7.539  1.00  0.00     0.006 A 
ATOM     19  C   UNL     1       0.405  -1.831   7.594  1.00  0.00     0.006 A 
ATOM     20  C   UNL     1      -0.957   0.105   6.141  1.00  0.00     0.004 A 
ATOM     21  C   UNL     1       0.425  -1.871   6.204  1.00  0.00     0.004 A 
ATOM     22  C   UNL     1      -0.248  -0.897   5.464  1.00  0.00    -0.051 A 
ATOM     23  C   UNL     1      -0.108  -0.870   3.972  1.00  0.00     0.044 C 
ENDBRANCH  16  17
ENDBRANCH   6  16
TORSDOF 3
ENDMDL
MODEL 7
REMARK VINA RESULT:    -5.418      1.316      1.531
REMARK INTER + INTRA:          -6.758
REMARK INTER:                  -6.264
REMARK INTRA:                  -0.494
REMARK UNBOUND:                -0.390
REMARK SMILES Cc1ccc(CNC(=O)NC(=O)c2ccc(C)cc2)cc1
REMARK SMILES IDX 11 1 12 2 10 3 8 4 9 5 7 6 13 9 19 10 18 11 14 12 16 13
REMARK SMILES IDX 15 14 17 15 6 16 5 17 4 18 20 19 3 20 21 21 2 22 1 23
REMARK H PARENT 10 7 7 8
ROOT
ATOM      1  C   UNL     1      -0.765  -1.849   9.316  1.00  0.00     0.259 C 
ATOM      2  O   UNL     1      -1.063  -3.013   9.546  1.00  0.00    -0.269 OA
ATOM      3  N   UNL     1      -0.613  -0.791  10.217  1.00  0.00    -0.274 N 
ATOM      4  C   UNL     1      -0.485  -0.623  11.572  1.00  0.00     0.321 C 
ATOM      5  O   UNL     1      -0.225   0.511  11.988  1.00  0.00    -0.248 OA
ATOM      6  N   UNL     1      -0.598  -1.629  12.460  1.00  0.00    -0.334 N 
ATOM      7  H   UNL     1      -0.382   0.094   9.785  1.00  0.00     0.175 HD
ATOM      8  H   UNL     1      -0.392  -1.357  13.410  1.00  0.00     0.165 HD
ENDROOT
BRANCH   1   9
ATOM      9  C   UNL     1      -0.526  -1.495   7.904  1.00  0.00     0.040 A 
ATOM     10  C   UNL     1       0.186  -2.342   7.052  1.00  0.00     0.014 A 
ATOM     11  C   UNL     1       0.341  -1.989   5.711  1.00  0.00     0.004 A 
ATOM     12  C   UNL     1      -1.028  -0.276   7.438  1.00  0.00     0.014 A 
ATOM     13  C   UNL     1      -0.204  -0.792   5.221  1.00  0.00    -0.051 A 
ATOM     14  C   UNL     1      -0.876   0.069   6.097  1.00  0.00     0.004 A 
ATOM     15  C   UNL     1      -0.101  -0.468   3.760  1.00  0.00     0.044 C 
ENDBRANCH   1   9
BRANCH   6  16
ATOM     16  C   UNL     1      -0.792  -3.024  12.183  1.00  0.00     0.153 C 
BRANCH  16  17
ATOM     17  C   UNL     1       0.102  -4.000  12.898  1.00  0.00    -0.029 A 
ATOM     18  C   UNL     1       1.398  -4.303  12.469  1.00  0.00     0.006 A 
ATOM     19  C   UNL     1      -0.320  -4.454  14.158  1.00  0.00     0.006 A 
ATOM     20  C   UNL     1       2.259  -5.026  13.302  1.00  0.00     0.004 A 
ATOM     21  C   UNL     1       0.539  -5.169  14.987  1.00  0.00     0.004 A 
ATOM     22  C   UNL     1       1.840  -5.453  14.570  1.00  0.00    -0.051 A 
ATOM     23  C   UNL     1       2.800  -6.101  15.522  1.00  0.00     0.044 C 
ENDBRANCH  16  17
ENDBRANCH   6  16
TORSDOF 3
ENDMDL
MODEL 8
REMARK VINA RESULT:    -4.404      2.811      7.347
REMARK INTER + INTRA:          -5.566
REMARK INTER:                  -5.093
REMARK INTRA:                  -0.473
REMARK UNBOUND:                -0.390
REMARK SMILES Cc1ccc(CNC(=O)NC(=O)c2ccc(C)cc2)cc1
REMARK SMILES IDX 11 1 12 2 10 3 8 4 9 5 7 6 13 9 19 10 18 11 14 12 16 13
REMARK SMILES IDX 15 14 17 15 6 16 5 17 4 18 20 19 3 20 21 21 2 22 1 23
REMARK H PARENT 10 7 7 8
ROOT
ATOM      1  C   UNL     1      -0.223  -2.722  12.467  1.00  0.00     0.259 C 
ATOM      2  O   UNL     1      -1.429  -2.668  12.660  1.00  0.00    -0.269 OA
ATOM      3  N   UNL     1       0.576  -1.882  11.685  1.00  0.00    -0.274 N 
ATOM      4  C   UNL     1       0.467  -0.658  11.076  1.00  0.00     0.321 C 
ATOM      5  O   UNL     1       1.486  -0.178  10.567  1.00  0.00    -0.248 OA
ATOM      6  N   UNL     1      -0.675   0.053  11.032  1.00  0.00    -0.334 N 
ATOM      7  H   UNL     1       1.554  -2.140  11.660  1.00  0.00     0.175 HD
ATOM      8  H   UNL     1      -0.568   0.970  10.624  1.00  0.00     0.165 HD
ENDROOT
BRANCH   1   9
ATOM      9  C   UNL     1       0.507  -3.810  13.145  1.00  0.00     0.040 A 
ATOM     10  C   UNL     1       1.742  -4.261  12.676  1.00  0.00     0.014 A 
ATOM     11  C   UNL     1       2.420  -5.256  13.381  1.00  0.00     0.004 A 
ATOM     12  C   UNL     1      -0.078  -4.387  14.276  1.00  0.00     0.014 A 
ATOM     13  C   UNL     1       1.865  -5.806  14.547  1.00  0.00    -0.051 A 
ATOM     14  C   UNL     1       0.605  -5.376  14.981  1.00  0.00     0.004 A 
ATOM     15  C   UNL     1       2.644  -6.813  15.340  1.00  0.00     0.044 C 
ENDBRANCH   1   9
BRANCH   6  16
ATOM     16  C   UNL     1      -1.932  -0.272  11.645  1.00  0.00     0.153 C 
BRANCH  16  17
ATOM     17  C   UNL     1      -2.339   0.529  12.851  1.00  0.00    -0.029 A 
ATOM     18  C   UNL     1      -3.572   1.181  12.954  1.00  0.00     0.006 A 
ATOM     19  C   UNL     1      -1.525   0.433  13.991  1.00  0.00     0.006 A 
ATOM     20  C   UNL     1      -3.988   1.703  14.184  1.00  0.00     0.004 A 
ATOM     21  C   UNL     1      -1.942   0.948  15.215  1.00  0.00     0.004 A 
ATOM     22  C   UNL     1      -3.182   1.578  15.324  1.00  0.00    -0.051 A 
ATOM     23  C   UNL     1      -3.681   2.006  16.672  1.00  0.00     0.044 C 
ENDBRANCH  16  17
ENDBRANCH   6  16
TORSDOF 3
ENDMDL
MODEL 9
REMARK VINA RESULT:    -4.270      5.438      7.874
REMARK INTER + INTRA:          -5.409
REMARK INTER:                  -4.903
REMARK INTRA:                  -0.506
REMARK UNBOUND:                -0.390
REMARK SMILES Cc1ccc(CNC(=O)NC(=O)c2ccc(C)cc2)cc1
REMARK SMILES IDX 11 1 12 2 10 3 8 4 9 5 7 6 13 9 19 10 18 11 14 12 16 13
REMARK SMILES IDX 15 14 17 15 6 16 5 17 4 18 20 19 3 20 21 21 2 22 1 23
REMARK H PARENT 10 7 7 8
ROOT
ATOM      1  C   UNL     1      -1.897   0.556  14.306  1.00  0.00     0.259 C 
ATOM      2  O   UNL     1      -2.749   1.422  14.171  1.00  0.00    -0.269 OA
ATOM      3  N   UNL     1      -1.288   0.103  15.481  1.00  0.00    -0.274 N 
ATOM      4  C   UNL     1      -1.497   0.200  16.833  1.00  0.00     0.321 C 
ATOM      5  O   UNL     1      -0.783  -0.483  17.574  1.00  0.00    -0.248 OA
ATOM      6  N   UNL     1      -2.452   0.972  17.385  1.00  0.00    -0.334 N 
ATOM      7  H   UNL     1      -0.589  -0.614  15.339  1.00  0.00     0.175 HD
ATOM      8  H   UNL     1      -2.531   0.866  18.386  1.00  0.00     0.165 HD
ENDROOT
BRANCH   1   9
ATOM      9  C   UNL     1      -1.438  -0.118  13.076  1.00  0.00     0.040 A 
ATOM     10  C   UNL     1      -0.973  -1.434  13.097  1.00  0.00     0.014 A 
ATOM     11  C   UNL     1      -0.600  -2.047  11.900  1.00  0.00     0.004 A 
ATOM     12  C   UNL     1      -1.475   0.604  11.879  1.00  0.00     0.014 A 
ATOM     13  C   UNL     1      -0.682  -1.348  10.687  1.00  0.00    -0.051 A 
ATOM     14  C   UNL     1      -1.107  -0.014  10.685  1.00  0.00     0.004 A 
ATOM     15  C   UNL     1      -0.358  -2.047   9.399  1.00  0.00     0.044 C 
ENDBRANCH   1   9
BRANCH   6  16
ATOM     16  C   UNL     1      -3.445   1.756  16.707  1.00  0.00     0.153 C 
BRANCH  16  17
ATOM     17  C   UNL     1      -4.872   1.595  17.151  1.00  0.00    -0.029 A 
ATOM     18  C   UNL     1      -5.502   2.481  18.031  1.00  0.00     0.006 A 
ATOM     19  C   UNL     1      -5.649   0.634  16.484  1.00  0.00     0.006 A 
ATOM     20  C   UNL     1      -6.887   2.418  18.216  1.00  0.00     0.004 A 
ATOM     21  C   UNL     1      -7.028   0.576  16.665  1.00  0.00     0.004 A 
ATOM     22  C   UNL     1      -7.660   1.474  17.525  1.00  0.00    -0.051 A 
ATOM     23  C   UNL     1      -9.157   1.493  17.608  1.00  0.00     0.044 C 
ENDBRANCH  16  17
ENDBRANCH   6  16
TORSDOF 3
ENDMDL
