MODEL 1
REMARK VINA RESULT:    -4.321      0.000      0.000
REMARK INTER + INTRA:          -5.931
REMARK INTER:                  -5.710
REMARK INTRA:                  -0.221
REMARK UNBOUND:                -0.221
REMARK SMILES [H]/N=C\C[C@H]1C[C@@H]1O[C@H]1CO[C@H]2C[C@@H](C3CC3)CCN2C1
REMARK SMILES IDX 7 1 6 2 5 3 8 4 9 5 14 6 13 7 18 8 12 9 19 10 20 11 11 12
REMARK SMILES IDX 21 13 10 14 15 15 16 16 17 17 4 18 3 19 2 20 1 21
REMARK H PARENT
ROOT
ATOM      1  C   UNL     1       0.739  -3.660  12.659  1.00  0.00     0.122 C 
ATOM      2  C   UNL     1       0.068  -4.612  13.608  1.00  0.00     0.039 C 
ATOM      3  C   UNL     1       1.351  -5.005  12.935  1.00  0.00     0.026 C 
ENDROOT
BRANCH   1   4
ATOM      4  O   UNL     1       0.056  -3.508  11.400  1.00  0.00    -0.371 OA
BRANCH   4   5
ATOM      5  C   UNL     1      -1.138  -2.709  11.434  1.00  0.00     0.158 C 
ATOM      6  C   UNL     1      -0.515  -0.174   6.919  1.00  0.00    -0.003 C 
ATOM      7  C   UNL     1       0.145  -0.131   8.302  1.00  0.00     0.052 C 
ATOM      8  C   UNL     1      -0.970  -1.609   6.618  1.00  0.00     0.019 C 
ATOM      9  C   UNL     1      -0.759  -0.740   9.384  1.00  0.00     0.189 C 
ATOM     10  C   UNL     1      -1.836  -2.168   7.747  1.00  0.00     0.087 C 
ATOM     11  N   UNL     1      -1.130  -2.109   9.027  1.00  0.00    -0.276 NA
ATOM     12  O   UNL     1      -0.024  -0.685  10.608  1.00  0.00    -0.360 OA
ATOM     13  C   UNL     1      -1.914  -2.721  10.105  1.00  0.00     0.121 C 
ATOM     14  C   UNL     1      -0.732  -1.258  11.712  1.00  0.00     0.195 C 
BRANCH   6  15
ATOM     15  C   UNL     1       0.423   0.322   5.841  1.00  0.00    -0.008 C 
ATOM     16  C   UNL     1      -0.081   1.239   4.752  1.00  0.00     0.004 C 
ATOM     17  C   UNL     1       0.857   1.767   5.798  1.00  0.00     0.004 C 
ENDBRANCH   6  15
ENDBRANCH   4   5
ENDBRANCH   1   4
BRANCH   3  18
ATOM     18  C   UNL     1       2.600  -5.113  13.758  1.00  0.00     0.053 C 
BRANCH  18  19
ATOM     19  C   UNL     1       2.530  -6.018  14.960  1.00  0.00     0.074 C 
BRANCH  19  20
ATOM     20  N   UNL     1       2.687  -7.300  14.952  1.00  0.00    -0.313 NA
ATOM     21  H   UNL     1       2.426  -7.720  15.856  1.00  0.00     0.186 HD
ENDBRANCH  19  20
ENDBRANCH  18  19
ENDBRANCH   3  18
TORSDOF 6
ENDMDL
MODEL 2
REMARK VINA RESULT:    -4.302      3.290      5.556
REMARK INTER + INTRA:          -5.907
REMARK INTER:                  -5.664
REMARK INTRA:                  -0.242
REMARK UNBOUND:                -0.221
REMARK SMILES [H]/N=C\C[C@H]1C[C@@H]1O[C@H]1CO[C@H]2C[C@@H](C3CC3)CCN2C1
REMARK SMILES IDX 7 1 6 2 5 3 8 4 9 5 14 6 13 7 18 8 12 9 19 10 20 11 11 12
REMARK SMILES IDX 21 13 10 14 15 15 16 16 17 17 4 18 3 19 2 20 1 21
REMARK H PARENT
ROOT
ATOM      1  C   UNL     1      -2.321   0.144  12.824  1.00  0.00     0.122 C 
ATOM      2  C   UNL     1      -1.821   0.853  14.050  1.00  0.00     0.039 C 
ATOM      3  C   UNL     1      -2.987   1.411  13.285  1.00  0.00     0.026 C 
ENDROOT
BRANCH   1   4
ATOM      4  O   UNL     1      -1.446   0.253  11.685  1.00  0.00    -0.371 OA
BRANCH   4   5
ATOM      5  C   UNL     1      -0.256  -0.550  11.739  1.00  0.00     0.158 C 
ATOM      6  C   UNL     1      -0.067  -2.008   6.734  1.00  0.00    -0.003 C 
ATOM      7  C   UNL     1      -0.944  -2.349   7.945  1.00  0.00     0.052 C 
ATOM      8  C   UNL     1       0.398  -0.548   6.839  1.00  0.00     0.019 C 
ATOM      9  C   UNL     1      -0.246  -2.008   9.269  1.00  0.00     0.189 C 
ATOM     10  C   UNL     1       1.053  -0.267   8.191  1.00  0.00     0.087 C 
ATOM     11  N   UNL     1       0.147  -0.599   9.291  1.00  0.00    -0.276 NA
ATOM     12  O   UNL     1      -1.170  -2.324  10.311  1.00  0.00    -0.360 OA
ATOM     13  C   UNL     1       0.728  -0.254  10.593  1.00  0.00     0.121 C 
ATOM     14  C   UNL     1      -0.667  -2.021  11.616  1.00  0.00     0.195 C 
BRANCH   6  15
ATOM     15  C   UNL     1      -0.803  -2.238   5.434  1.00  0.00    -0.008 C 
ATOM     16  C   UNL     1      -0.149  -3.011   4.313  1.00  0.00     0.004 C 
ATOM     17  C   UNL     1      -1.304  -3.612   5.061  1.00  0.00     0.004 C 
ENDBRANCH   6  15
ENDBRANCH   4   5
ENDBRANCH   1   4
BRANCH   3  18
ATOM     18  C   UNL     1      -4.351   1.365  13.905  1.00  0.00     0.053 C 
BRANCH  18  19
ATOM     19  C   UNL     1      -4.480   1.971  15.279  1.00  0.00     0.074 C 
BRANCH  19  20
ATOM     20  N   UNL     1      -4.646   3.224  15.542  1.00  0.00    -0.313 NA
ATOM     21  H   UNL     1      -3.753   3.738  15.522  1.00  0.00     0.186 HD
ENDBRANCH  19  20
ENDBRANCH  18  19
ENDBRANCH   3  18
TORSDOF 6
ENDMDL
MODEL 3
REMARK VINA RESULT:    -3.982      1.483      1.763
REMARK INTER + INTRA:          -5.483
REMARK INTER:                  -5.670
REMARK INTRA:                   0.186
REMARK UNBOUND:                -0.221
REMARK SMILES [H]/N=C\C[C@H]1C[C@@H]1O[C@H]1CO[C@H]2C[C@@H](C3CC3)CCN2C1
REMARK SMILES IDX 7 1 6 2 5 3 8 4 9 5 14 6 13 7 18 8 12 9 19 10 20 11 11 12
REMARK SMILES IDX 21 13 10 14 15 15 16 16 17 17 4 18 3 19 2 20 1 21
REMARK H PARENT
ROOT
ATOM      1  C   UNL     1       0.160  -4.595  12.299  1.00  0.00     0.122 C 
ATOM      2  C   UNL     1       1.519  -4.875  12.876  1.00  0.00     0.039 C 
ATOM      3  C   UNL     1       0.438  -4.303  13.748  1.00  0.00     0.026 C 
ENDROOT
BRANCH   1   4
ATOM      4  O   UNL     1       0.123  -3.464  11.409  1.00  0.00    -0.371 OA
BRANCH   4   5
ATOM      5  C   UNL     1      -1.077  -2.674  11.461  1.00  0.00     0.158 C 
ATOM      6  C   UNL     1      -0.589  -0.205   6.892  1.00  0.00    -0.003 C 
ATOM      7  C   UNL     1       0.105  -0.135   8.258  1.00  0.00     0.052 C 
ATOM      8  C   UNL     1      -1.039  -1.648   6.626  1.00  0.00     0.019 C 
ATOM      9  C   UNL     1      -0.766  -0.734   9.371  1.00  0.00     0.189 C 
ATOM     10  C   UNL     1      -1.872  -2.196   7.785  1.00  0.00     0.087 C 
ATOM     11  N   UNL     1      -1.135  -2.111   9.045  1.00  0.00    -0.276 NA
ATOM     12  O   UNL     1      -0.001  -0.654  10.576  1.00  0.00    -0.360 OA
ATOM     13  C   UNL     1      -1.886  -2.713  10.153  1.00  0.00     0.121 C 
ATOM     14  C   UNL     1      -0.676  -1.215  11.706  1.00  0.00     0.195 C 
BRANCH   6  15
ATOM     15  C   UNL     1       0.318   0.281   5.784  1.00  0.00    -0.008 C 
ATOM     16  C   UNL     1      -0.164   1.326   4.806  1.00  0.00     0.004 C 
ATOM     17  C   UNL     1       0.894   1.676   5.812  1.00  0.00     0.004 C 
ENDBRANCH   6  15
ENDBRANCH   4   5
ENDBRANCH   1   4
BRANCH   3  18
ATOM     18  C   UNL     1      -0.161  -5.163  14.821  1.00  0.00     0.053 C 
BRANCH  18  19
ATOM     19  C   UNL     1      -0.644  -4.447  16.056  1.00  0.00     0.074 C 
BRANCH  19  20
ATOM     20  N   UNL     1      -1.694  -3.700  16.136  1.00  0.00    -0.313 NA
ATOM     21  H   UNL     1      -1.965  -3.529  17.115  1.00  0.00     0.186 HD
ENDBRANCH  19  20
ENDBRANCH  18  19
ENDBRANCH   3  18
TORSDOF 6
ENDMDL
MODEL 4
REMARK VINA RESULT:    -3.954      5.135      8.446
REMARK INTER + INTRA:          -5.446
REMARK INTER:                  -5.150
REMARK INTRA:                  -0.296
REMARK UNBOUND:                -0.221
REMARK SMILES [H]/N=C\C[C@H]1C[C@@H]1O[C@H]1CO[C@H]2C[C@@H](C3CC3)CCN2C1
REMARK SMILES IDX 7 1 6 2 5 3 8 4 9 5 14 6 13 7 18 8 12 9 19 10 20 11 11 12
REMARK SMILES IDX 21 13 10 14 15 15 16 16 17 17 4 18 3 19 2 20 1 21
REMARK H PARENT
ROOT
ATOM      1  C   UNL     1      -1.059  -1.309  11.320  1.00  0.00     0.122 C 
ATOM      2  C   UNL     1      -0.741  -2.777  11.380  1.00  0.00     0.039 C 
ATOM      3  C   UNL     1      -1.856  -2.287  10.502  1.00  0.00     0.026 C 
ENDROOT
BRANCH   1   4
ATOM      4  O   UNL     1      -1.691  -0.796  12.508  1.00  0.00    -0.371 OA
BRANCH   4   5
ATOM      5  C   UNL     1      -1.423   0.583  12.807  1.00  0.00     0.158 C 
ATOM      6  C   UNL     1      -5.002   1.289  16.534  1.00  0.00    -0.003 C 
ATOM      7  C   UNL     1      -5.023   1.111  15.011  1.00  0.00     0.052 C 
ATOM      8  C   UNL     1      -3.831   0.490  17.122  1.00  0.00     0.019 C 
ATOM      9  C   UNL     1      -3.663   1.440  14.380  1.00  0.00     0.189 C 
ATOM     10  C   UNL     1      -2.514   0.838  16.429  1.00  0.00     0.087 C 
ATOM     11  N   UNL     1      -2.610   0.624  14.985  1.00  0.00    -0.276 NA
ATOM     12  O   UNL     1      -3.793   1.195  12.979  1.00  0.00    -0.360 OA
ATOM     13  C   UNL     1      -1.328   0.870  14.316  1.00  0.00     0.121 C 
ATOM     14  C   UNL     1      -2.580   1.423  12.255  1.00  0.00     0.195 C 
BRANCH   6  15
ATOM     15  C   UNL     1      -6.308   0.855  17.161  1.00  0.00    -0.008 C 
ATOM     16  C   UNL     1      -7.123   1.829  17.979  1.00  0.00     0.004 C 
ATOM     17  C   UNL     1      -7.627   1.374  16.640  1.00  0.00     0.004 C 
ENDBRANCH   6  15
ENDBRANCH   4   5
ENDBRANCH   1   4
BRANCH   3  18
ATOM     18  C   UNL     1      -1.686  -2.342   9.013  1.00  0.00     0.053 C 
BRANCH  18  19
ATOM     19  C   UNL     1      -2.845  -2.904   8.230  1.00  0.00     0.074 C 
BRANCH  19  20
ATOM     20  N   UNL     1      -3.783  -3.657   8.701  1.00  0.00    -0.313 NA
ATOM     21  H   UNL     1      -3.460  -4.203   9.512  1.00  0.00     0.186 HD
ENDBRANCH  19  20
ENDBRANCH  18  19
ENDBRANCH   3  18
TORSDOF 6
ENDMDL
MODEL 5
REMARK VINA RESULT:    -3.950      3.656      5.110
REMARK INTER + INTRA:          -5.442
REMARK INTER:                  -5.325
REMARK INTRA:                  -0.117
REMARK UNBOUND:                -0.221
REMARK SMILES [H]/N=C\C[C@H]1C[C@@H]1O[C@H]1CO[C@H]2C[C@@H](C3CC3)CCN2C1
REMARK SMILES IDX 7 1 6 2 5 3 8 4 9 5 14 6 13 7 18 8 12 9 19 10 20 11 11 12
REMARK SMILES IDX 21 13 10 14 15 15 16 16 17 17 4 18 3 19 2 20 1 21
REMARK H PARENT
ROOT
ATOM      1  C   UNL     1       3.281  -5.220  15.029  1.00  0.00     0.122 C 
ATOM      2  C   UNL     1       4.773  -5.051  14.985  1.00  0.00     0.039 C 
ATOM      3  C   UNL     1       3.973  -4.367  16.057  1.00  0.00     0.026 C 
ENDROOT
BRANCH   1   4
ATOM      4  O   UNL     1       2.580  -4.524  13.981  1.00  0.00    -0.371 OA
BRANCH   4   5
ATOM      5  C   UNL     1       1.395  -5.173  13.491  1.00  0.00     0.158 C 
ATOM      6  C   UNL     1      -1.309  -0.931  12.112  1.00  0.00    -0.003 C 
ATOM      7  C   UNL     1      -0.899  -1.591  13.435  1.00  0.00     0.052 C 
ATOM      8  C   UNL     1      -0.219  -1.183  11.061  1.00  0.00     0.019 C 
ATOM      9  C   UNL     1      -0.542  -3.072  13.246  1.00  0.00     0.189 C 
ATOM     10  C   UNL     1       0.115  -2.670  10.947  1.00  0.00     0.087 C 
ATOM     11  N   UNL     1       0.513  -3.218  12.243  1.00  0.00    -0.276 NA
ATOM     12  O   UNL     1      -0.136  -3.560  14.526  1.00  0.00    -0.360 OA
ATOM     13  C   UNL     1       0.920  -4.624  12.134  1.00  0.00     0.121 C 
ATOM     14  C   UNL     1       0.268  -4.932  14.500  1.00  0.00     0.195 C 
BRANCH   6  15
ATOM     15  C   UNL     1      -1.549   0.552  12.283  1.00  0.00    -0.008 C 
ATOM     16  C   UNL     1      -2.897   1.059  12.738  1.00  0.00     0.004 C 
ATOM     17  C   UNL     1      -1.714   1.156  13.656  1.00  0.00     0.004 C 
ENDBRANCH   6  15
ENDBRANCH   4   5
ENDBRANCH   1   4
BRANCH   3  18
ATOM     18  C   UNL     1       4.100  -4.844  17.473  1.00  0.00     0.053 C 
BRANCH  18  19
ATOM     19  C   UNL     1       3.164  -4.216  18.473  1.00  0.00     0.074 C 
BRANCH  19  20
ATOM     20  N   UNL     1       2.508  -3.115  18.310  1.00  0.00    -0.313 NA
ATOM     21  H   UNL     1       2.270  -2.959  17.320  1.00  0.00     0.186 HD
ENDBRANCH  19  20
ENDBRANCH  18  19
ENDBRANCH   3  18
TORSDOF 6
ENDMDL
MODEL 6
REMARK VINA RESULT:    -3.926      2.634      8.577
REMARK INTER + INTRA:          -5.410
REMARK INTER:                  -5.114
REMARK INTRA:                  -0.295
REMARK UNBOUND:                -0.221
REMARK SMILES [H]/N=C\C[C@H]1C[C@@H]1O[C@H]1CO[C@H]2C[C@@H](C3CC3)CCN2C1
REMARK SMILES IDX 7 1 6 2 5 3 8 4 9 5 14 6 13 7 18 8 12 9 19 10 20 11 11 12
REMARK SMILES IDX 21 13 10 14 15 15 16 16 17 17 4 18 3 19 2 20 1 21
REMARK H PARENT
ROOT
ATOM      1  C   UNL     1      -0.304  -1.873  11.283  1.00  0.00     0.122 C 
ATOM      2  C   UNL     1      -0.684  -0.458  11.617  1.00  0.00     0.039 C 
ATOM      3  C   UNL     1       0.573  -0.733  10.842  1.00  0.00     0.026 C 
ENDROOT
BRANCH   1   4
ATOM      4  O   UNL     1       0.155  -2.640  12.412  1.00  0.00    -0.371 OA
BRANCH   4   5
ATOM      5  C   UNL     1      -0.134  -4.047  12.364  1.00  0.00     0.158 C 
ATOM      6  C   UNL     1       2.820  -5.589  16.377  1.00  0.00    -0.003 C 
ATOM      7  C   UNL     1       3.079  -5.093  14.949  1.00  0.00     0.052 C 
ATOM      8  C   UNL     1       1.556  -4.914  16.927  1.00  0.00     0.019 C 
ATOM      9  C   UNL     1       1.842  -5.256  14.056  1.00  0.00     0.189 C 
ATOM     10  C   UNL     1       0.372  -5.084  15.976  1.00  0.00     0.087 C 
ATOM     11  N   UNL     1       0.693  -4.570  14.645  1.00  0.00    -0.276 NA
ATOM     12  O   UNL     1       2.189  -4.721  12.777  1.00  0.00    -0.360 OA
ATOM     13  C   UNL     1      -0.463  -4.646  13.743  1.00  0.00     0.121 C 
ATOM     14  C   UNL     1       1.110  -4.770  11.838  1.00  0.00     0.195 C 
BRANCH   6  15
ATOM     15  C   UNL     1       4.002  -5.322  17.281  1.00  0.00    -0.008 C 
ATOM     16  C   UNL     1       4.679  -6.458  18.010  1.00  0.00     0.004 C 
ATOM     17  C   UNL     1       5.392  -5.761  16.888  1.00  0.00     0.004 C 
ENDBRANCH   6  15
ENDBRANCH   4   5
ENDBRANCH   1   4
BRANCH   3  18
ATOM     18  C   UNL     1       0.636  -0.342   9.396  1.00  0.00     0.053 C 
BRANCH  18  19
ATOM     19  C   UNL     1       1.899   0.344   8.945  1.00  0.00     0.074 C 
BRANCH  19  20
ATOM     20  N   UNL     1       2.737   0.964   9.707  1.00  0.00    -0.313 NA
ATOM     21  H   UNL     1       3.609   0.428   9.827  1.00  0.00     0.186 HD
ENDBRANCH  19  20
ENDBRANCH  18  19
ENDBRANCH   3  18
TORSDOF 6
ENDMDL
MODEL 7
REMARK VINA RESULT:    -3.845      5.168      7.859
REMARK INTER + INTRA:          -5.303
REMARK INTER:                  -5.429
REMARK INTRA:                   0.126
REMARK UNBOUND:                -0.221
REMARK SMILES [H]/N=C\C[C@H]1C[C@@H]1O[C@H]1CO[C@H]2C[C@@H](C3CC3)CCN2C1
REMARK SMILES IDX 7 1 6 2 5 3 8 4 9 5 14 6 13 7 18 8 12 9 19 10 20 11 11 12
REMARK SMILES IDX 21 13 10 14 15 15 16 16 17 17 4 18 3 19 2 20 1 21
REMARK H PARENT
ROOT
ATOM      1  C   UNL     1      -5.396   1.494  14.726  1.00  0.00     0.122 C 
ATOM      2  C   UNL     1      -6.459   0.694  15.425  1.00  0.00     0.039 C 
ATOM      3  C   UNL     1      -5.553   1.591  16.219  1.00  0.00     0.026 C 
ENDROOT
BRANCH   1   4
ATOM      4  O   UNL     1      -4.291   0.708  14.243  1.00  0.00    -0.371 OA
BRANCH   4   5
ATOM      5  C   UNL     1      -3.075   1.433  13.998  1.00  0.00     0.158 C 
ATOM      6  C   UNL     1      -0.213  -2.472  12.056  1.00  0.00    -0.003 C 
ATOM      7  C   UNL     1      -0.745  -2.083  13.441  1.00  0.00     0.052 C 
ATOM      8  C   UNL     1      -1.209  -2.010  10.982  1.00  0.00     0.019 C 
ATOM      9  C   UNL     1      -1.101  -0.592  13.517  1.00  0.00     0.189 C 
ATOM     10  C   UNL     1      -1.547  -0.527  11.135  1.00  0.00     0.087 C 
ATOM     11  N   UNL     1      -2.064  -0.243  12.473  1.00  0.00    -0.276 NA
ATOM     12  O   UNL     1      -1.624  -0.364  14.827  1.00  0.00    -0.360 OA
ATOM     13  C   UNL     1      -2.475   1.159  12.608  1.00  0.00     0.121 C 
ATOM     14  C   UNL     1      -2.038   0.990  15.037  1.00  0.00     0.195 C 
BRANCH   6  15
ATOM     15  C   UNL     1       0.028  -3.961  11.951  1.00  0.00    -0.008 C 
ATOM     16  C   UNL     1       1.351  -4.552  12.375  1.00  0.00     0.004 C 
ATOM     17  C   UNL     1       0.119  -4.818  13.190  1.00  0.00     0.004 C 
ENDBRANCH   6  15
ENDBRANCH   4   5
ENDBRANCH   1   4
BRANCH   3  18
ATOM     18  C   UNL     1      -6.122   2.831  16.841  1.00  0.00     0.053 C 
BRANCH  18  19
ATOM     19  C   UNL     1      -5.175   3.650  17.679  1.00  0.00     0.074 C 
BRANCH  19  20
ATOM     20  N   UNL     1      -3.900   3.752  17.501  1.00  0.00    -0.313 NA
ATOM     21  H   UNL     1      -3.435   4.177  18.316  1.00  0.00     0.186 HD
ENDBRANCH  19  20
ENDBRANCH  18  19
ENDBRANCH   3  18
TORSDOF 6
ENDMDL
MODEL 8
REMARK VINA RESULT:    -3.652      3.619      6.039
REMARK INTER + INTRA:          -5.048
REMARK INTER:                  -4.753
REMARK INTRA:                  -0.295
REMARK UNBOUND:                -0.221
REMARK SMILES [H]/N=C\C[C@H]1C[C@@H]1O[C@H]1CO[C@H]2C[C@@H](C3CC3)CCN2C1
REMARK SMILES IDX 7 1 6 2 5 3 8 4 9 5 14 6 13 7 18 8 12 9 19 10 20 11 11 12
REMARK SMILES IDX 21 13 10 14 15 15 16 16 17 17 4 18 3 19 2 20 1 21
REMARK H PARENT
ROOT
ATOM      1  C   UNL     1       3.358  -5.058  16.648  1.00  0.00     0.122 C 
ATOM      2  C   UNL     1       4.442  -4.028  16.791  1.00  0.00     0.039 C 
ATOM      3  C   UNL     1       4.411  -5.214  17.712  1.00  0.00     0.026 C 
ENDROOT
BRANCH   1   4
ATOM      4  O   UNL     1       2.061  -4.611  17.086  1.00  0.00    -0.371 OA
BRANCH   4   5
ATOM      5  C   UNL     1       0.958  -5.458  16.723  1.00  0.00     0.158 C 
ATOM      6  C   UNL     1      -0.205  -3.297  12.120  1.00  0.00    -0.003 C 
ATOM      7  C   UNL     1      -0.359  -2.896  13.592  1.00  0.00     0.052 C 
ATOM      8  C   UNL     1       1.060  -4.151  11.957  1.00  0.00     0.019 C 
ATOM      9  C   UNL     1      -0.302  -4.114  14.524  1.00  0.00     0.189 C 
ATOM     10  C   UNL     1       1.071  -5.325  12.935  1.00  0.00     0.087 C 
ATOM     11  N   UNL     1       0.940  -4.858  14.315  1.00  0.00    -0.276 NA
ATOM     12  O   UNL     1      -0.409  -3.613  15.858  1.00  0.00    -0.360 OA
ATOM     13  C   UNL     1       1.036  -5.966  15.272  1.00  0.00     0.121 C 
ATOM     14  C   UNL     1      -0.332  -4.641  16.851  1.00  0.00     0.195 C 
BRANCH   6  15
ATOM     15  C   UNL     1      -0.148  -2.085  11.218  1.00  0.00    -0.008 C 
ATOM     16  C   UNL     1      -1.199  -1.876  10.153  1.00  0.00     0.004 C 
ATOM     17  C   UNL     1      -1.159  -0.973  11.351  1.00  0.00     0.004 C 
ENDBRANCH   6  15
ENDBRANCH   4   5
ENDBRANCH   1   4
BRANCH   3  18
ATOM     18  C   UNL     1       5.471  -6.266  17.577  1.00  0.00     0.053 C 
BRANCH  18  19
ATOM     19  C   UNL     1       6.674  -6.117  18.471  1.00  0.00     0.074 C 
BRANCH  19  20
ATOM     20  N   UNL     1       7.866  -5.796  18.090  1.00  0.00    -0.313 NA
ATOM     21  H   UNL     1       8.482  -6.619  18.035  1.00  0.00     0.186 HD
ENDBRANCH  19  20
ENDBRANCH  18  19
ENDBRANCH   3  18
TORSDOF 6
ENDMDL
MODEL 9
REMARK VINA RESULT:    -3.398      6.260      8.280
REMARK INTER + INTRA:          -4.711
REMARK INTER:                  -4.700
REMARK INTRA:                  -0.011
REMARK UNBOUND:                -0.221
REMARK SMILES [H]/N=C\C[C@H]1C[C@@H]1O[C@H]1CO[C@H]2C[C@@H](C3CC3)CCN2C1
REMARK SMILES IDX 7 1 6 2 5 3 8 4 9 5 14 6 13 7 18 8 12 9 19 10 20 11 11 12
REMARK SMILES IDX 21 13 10 14 15 15 16 16 17 17 4 18 3 19 2 20 1 21
REMARK H PARENT
ROOT
ATOM      1  C   UNL     1      -5.182   0.522  16.800  1.00  0.00     0.122 C 
ATOM      2  C   UNL     1      -6.375  -0.322  17.148  1.00  0.00     0.039 C 
ATOM      3  C   UNL     1      -6.065   0.905  17.956  1.00  0.00     0.026 C 
ENDROOT
BRANCH   1   4
ATOM      4  O   UNL     1      -3.917  -0.084  17.128  1.00  0.00    -0.371 OA
BRANCH   4   5
ATOM      5  C   UNL     1      -2.776   0.786  17.058  1.00  0.00     0.158 C 
ATOM      6  C   UNL     1      -1.258  -0.305  12.189  1.00  0.00    -0.003 C 
ATOM      7  C   UNL     1      -1.235  -1.036  13.536  1.00  0.00     0.052 C 
ATOM      8  C   UNL     1      -2.493   0.605  12.127  1.00  0.00     0.019 C 
ATOM      9  C   UNL     1      -1.354  -0.062  14.716  1.00  0.00     0.189 C 
ATOM     10  C   UNL     1      -2.570   1.525  13.345  1.00  0.00     0.087 C 
ATOM     11  N   UNL     1      -2.562   0.752  14.586  1.00  0.00    -0.276 NA
ATOM     12  O   UNL     1      -1.367  -0.857  15.903  1.00  0.00    -0.360 OA
ATOM     13  C   UNL     1      -2.724   1.614  15.762  1.00  0.00     0.121 C 
ATOM     14  C   UNL     1      -1.513  -0.081  17.096  1.00  0.00     0.195 C 
BRANCH   6  15
ATOM     15  C   UNL     1      -1.256  -1.276  11.030  1.00  0.00    -0.008 C 
ATOM     16  C   UNL     1      -0.104  -1.297  10.053  1.00  0.00     0.004 C 
ATOM     17  C   UNL     1      -0.300  -2.444  11.001  1.00  0.00     0.004 C 
ENDBRANCH   6  15
ENDBRANCH   4   5
ENDBRANCH   1   4
BRANCH   3  18
ATOM     18  C   UNL     1      -6.975   2.093  17.851  1.00  0.00     0.053 C 
BRANCH  18  19
ATOM     19  C   UNL     1      -6.477   3.370  18.475  1.00  0.00     0.074 C 
BRANCH  19  20
ATOM     20  N   UNL     1      -6.289   4.490  17.860  1.00  0.00    -0.313 NA
ATOM     21  H   UNL     1      -6.371   4.381  16.839  1.00  0.00     0.186 HD
ENDBRANCH  19  20
ENDBRANCH  18  19
ENDBRANCH   3  18
TORSDOF 6
ENDMDL
