MODEL 1
REMARK VINA RESULT:    -4.432      0.000      0.000
REMARK INTER + INTRA:          -6.006
REMARK INTER:                  -5.857
REMARK INTRA:                  -0.150
REMARK UNBOUND:                -0.150
REMARK SMILES [H]/N=C\C[C@H]1C[C@@H]1O[C@H]1CO[C@H]2C[C@@H](C3CC3)CCN2C1
REMARK SMILES IDX 7 1 6 2 5 3 8 4 9 5 14 6 13 7 18 8 12 9 19 10 20 11 11 12
REMARK SMILES IDX 21 13 10 14 15 15 16 16 17 17 4 18 3 19 2 20 1 21
REMARK H PARENT
ROOT
ATOM      1  C   UNL     1     -12.958  -0.568  16.479  1.00  0.00     0.122 C 
ATOM      2  C   UNL     1     -14.329  -0.901  15.960  1.00  0.00     0.039 C 
ATOM      3  C   UNL     1     -13.114  -1.488  15.299  1.00  0.00     0.026 C 
ENDROOT
BRANCH   1   4
ATOM      4  O   UNL     1     -12.534   0.779  16.195  1.00  0.00    -0.371 OA
BRANCH   4   5
ATOM      5  C   UNL     1     -11.326   1.199  16.851  1.00  0.00     0.158 C 
ATOM      6  C   UNL     1      -8.498   2.348  12.622  1.00  0.00    -0.003 C 
ATOM      7  C   UNL     1      -8.999   1.063  13.293  1.00  0.00     0.052 C 
ATOM      8  C   UNL     1      -9.520   3.470  12.850  1.00  0.00     0.019 C 
ATOM      9  C   UNL     1      -9.358   1.292  14.767  1.00  0.00     0.189 C 
ATOM     10  C   UNL     1      -9.859   3.624  14.332  1.00  0.00     0.087 C 
ATOM     11  N   UNL     1     -10.346   2.363  14.891  1.00  0.00    -0.276 NA
ATOM     12  O   UNL     1      -9.850   0.047  15.266  1.00  0.00    -0.360 OA
ATOM     13  C   UNL     1     -10.759   2.515  16.291  1.00  0.00     0.121 C 
ATOM     14  C   UNL     1     -10.265   0.116  16.634  1.00  0.00     0.195 C 
BRANCH   6  15
ATOM     15  C   UNL     1      -8.254   2.144  11.144  1.00  0.00    -0.008 C 
ATOM     16  C   UNL     1      -6.885   2.385  10.555  1.00  0.00     0.004 C 
ATOM     17  C   UNL     1      -7.421   0.986  10.649  1.00  0.00     0.004 C 
ENDBRANCH   6  15
ENDBRANCH   4   5
ENDBRANCH   1   4
BRANCH   3  18
ATOM     18  C   UNL     1     -12.846  -2.956  15.444  1.00  0.00     0.053 C 
BRANCH  18  19
ATOM     19  C   UNL     1     -11.499  -3.437  14.972  1.00  0.00     0.074 C 
BRANCH  19  20
ATOM     20  N   UNL     1     -11.274  -4.134  13.908  1.00  0.00    -0.313 NA
ATOM     21  H   UNL     1     -12.030  -4.810  13.731  1.00  0.00     0.186 HD
ENDBRANCH  19  20
ENDBRANCH  18  19
ENDBRANCH   3  18
TORSDOF 6
ENDMDL
MODEL 2
REMARK VINA RESULT:    -4.141      5.911      9.378
REMARK INTER + INTRA:          -5.622
REMARK INTER:                  -5.388
REMARK INTRA:                  -0.235
REMARK UNBOUND:                -0.150
REMARK SMILES [H]/N=C\C[C@H]1C[C@@H]1O[C@H]1CO[C@H]2C[C@@H](C3CC3)CCN2C1
REMARK SMILES IDX 7 1 6 2 5 3 8 4 9 5 14 6 13 7 18 8 12 9 19 10 20 11 11 12
REMARK SMILES IDX 21 13 10 14 15 15 16 16 17 17 4 18 3 19 2 20 1 21
REMARK H PARENT
ROOT
ATOM      1  C   UNL     1      -8.193  10.081  11.137  1.00  0.00     0.122 C 
ATOM      2  C   UNL     1      -8.984  10.938  10.189  1.00  0.00     0.039 C 
ATOM      3  C   UNL     1      -9.691  10.149  11.254  1.00  0.00     0.026 C 
ENDROOT
BRANCH   1   4
ATOM      4  O   UNL     1      -7.647   8.891  10.537  1.00  0.00    -0.371 OA
BRANCH   4   5
ATOM      5  C   UNL     1      -6.317   8.542  10.954  1.00  0.00     0.158 C 
ATOM      6  C   UNL     1      -6.735   3.352  10.637  1.00  0.00    -0.003 C 
ATOM      7  C   UNL     1      -7.272   4.442  11.573  1.00  0.00     0.052 C 
ATOM      8  C   UNL     1      -6.601   3.922   9.218  1.00  0.00     0.019 C 
ATOM      9  C   UNL     1      -6.436   5.726  11.491  1.00  0.00     0.189 C 
ATOM     10  C   UNL     1      -5.788   5.216   9.211  1.00  0.00     0.087 C 
ATOM     11  N   UNL     1      -6.374   6.209  10.112  1.00  0.00    -0.276 NA
ATOM     12  O   UNL     1      -7.055   6.674  12.364  1.00  0.00    -0.360 OA
ATOM     13  C   UNL     1      -5.655   7.486  10.050  1.00  0.00     0.121 C 
ATOM     14  C   UNL     1      -6.401   7.946  12.364  1.00  0.00     0.195 C 
BRANCH   6  15
ATOM     15  C   UNL     1      -7.628   2.132  10.637  1.00  0.00    -0.008 C 
ATOM     16  C   UNL     1      -7.236   0.898  11.415  1.00  0.00     0.004 C 
ATOM     17  C   UNL     1      -8.395   1.734  11.875  1.00  0.00     0.004 C 
ENDBRANCH   6  15
ENDBRANCH   4   5
ENDBRANCH   1   4
BRANCH   3  18
ATOM     18  C   UNL     1     -10.328  10.881  12.398  1.00  0.00     0.053 C 
BRANCH  18  19
ATOM     19  C   UNL     1     -10.840  10.030  13.530  1.00  0.00     0.074 C 
BRANCH  19  20
ATOM     20  N   UNL     1     -10.695   8.752  13.643  1.00  0.00    -0.313 NA
ATOM     21  H   UNL     1     -11.563   8.249  13.412  1.00  0.00     0.186 HD
ENDBRANCH  19  20
ENDBRANCH  18  19
ENDBRANCH   3  18
TORSDOF 6
ENDMDL
MODEL 3
REMARK VINA RESULT:    -3.936      3.180      5.311
REMARK INTER + INTRA:          -5.351
REMARK INTER:                  -5.324
REMARK INTRA:                  -0.027
REMARK UNBOUND:                -0.150
REMARK SMILES [H]/N=C\C[C@H]1C[C@@H]1O[C@H]1CO[C@H]2C[C@@H](C3CC3)CCN2C1
REMARK SMILES IDX 7 1 6 2 5 3 8 4 9 5 14 6 13 7 18 8 12 9 19 10 20 11 11 12
REMARK SMILES IDX 21 13 10 14 15 15 16 16 17 17 4 18 3 19 2 20 1 21
REMARK H PARENT
ROOT
ATOM      1  C   UNL     1      -7.279  -0.607  14.241  1.00  0.00     0.122 C 
ATOM      2  C   UNL     1      -6.447  -0.605  15.492  1.00  0.00     0.039 C 
ATOM      3  C   UNL     1      -7.936  -0.433  15.584  1.00  0.00     0.026 C 
ENDROOT
BRANCH   1   4
ATOM      4  O   UNL     1      -7.132   0.578  13.437  1.00  0.00    -0.371 OA
BRANCH   4   5
ATOM      5  C   UNL     1      -8.062   0.709  12.349  1.00  0.00     0.158 C 
ATOM      6  C   UNL     1      -6.209   5.111  10.255  1.00  0.00    -0.003 C 
ATOM      7  C   UNL     1      -6.986   4.741  11.525  1.00  0.00     0.052 C 
ATOM      8  C   UNL     1      -5.272   3.955   9.879  1.00  0.00     0.019 C 
ATOM      9  C   UNL     1      -7.691   3.385  11.386  1.00  0.00     0.189 C 
ATOM     10  C   UNL     1      -6.028   2.630   9.791  1.00  0.00     0.087 C 
ATOM     11  N   UNL     1      -6.725   2.341  11.044  1.00  0.00    -0.276 NA
ATOM     12  O   UNL     1      -8.336   3.130  12.635  1.00  0.00    -0.360 OA
ATOM     13  C   UNL     1      -7.384   1.030  11.006  1.00  0.00     0.121 C 
ATOM     14  C   UNL     1      -9.011   1.868  12.670  1.00  0.00     0.195 C 
BRANCH   6  15
ATOM     15  C   UNL     1      -5.426   6.392  10.438  1.00  0.00    -0.008 C 
ATOM     16  C   UNL     1      -5.963   7.699   9.905  1.00  0.00     0.004 C 
ATOM     17  C   UNL     1      -5.905   7.464  11.387  1.00  0.00     0.004 C 
ENDBRANCH   6  15
ENDBRANCH   4   5
ENDBRANCH   1   4
BRANCH   3  18
ATOM     18  C   UNL     1      -8.761  -1.538  16.171  1.00  0.00     0.053 C 
BRANCH  18  19
ATOM     19  C   UNL     1     -10.254  -1.406  16.023  1.00  0.00     0.074 C 
BRANCH  19  20
ATOM     20  N   UNL     1     -10.873  -0.892  15.012  1.00  0.00    -0.313 NA
ATOM     21  H   UNL     1     -10.215  -0.579  14.284  1.00  0.00     0.186 HD
ENDBRANCH  19  20
ENDBRANCH  18  19
ENDBRANCH   3  18
TORSDOF 6
ENDMDL
MODEL 4
REMARK VINA RESULT:    -3.932      5.274      8.196
REMARK INTER + INTRA:          -5.346
REMARK INTER:                  -5.116
REMARK INTRA:                  -0.230
REMARK UNBOUND:                -0.150
REMARK SMILES [H]/N=C\C[C@H]1C[C@@H]1O[C@H]1CO[C@H]2C[C@@H](C3CC3)CCN2C1
REMARK SMILES IDX 7 1 6 2 5 3 8 4 9 5 14 6 13 7 18 8 12 9 19 10 20 11 11 12
REMARK SMILES IDX 21 13 10 14 15 15 16 16 17 17 4 18 3 19 2 20 1 21
REMARK H PARENT
ROOT
ATOM      1  C   UNL     1      -7.128   1.983  11.231  1.00  0.00     0.122 C 
ATOM      2  C   UNL     1      -8.489   2.249  11.808  1.00  0.00     0.039 C 
ATOM      3  C   UNL     1      -7.989   0.838  11.688  1.00  0.00     0.026 C 
ENDROOT
BRANCH   1   4
ATOM      4  O   UNL     1      -7.041   2.197   9.809  1.00  0.00    -0.371 OA
BRANCH   4   5
ATOM      5  C   UNL     1      -7.088   3.569   9.385  1.00  0.00     0.158 C 
ATOM      6  C   UNL     1      -3.334   3.401   5.768  1.00  0.00    -0.003 C 
ATOM      7  C   UNL     1      -3.385   3.359   7.300  1.00  0.00     0.052 C 
ATOM      8  C   UNL     1      -4.595   2.734   5.199  1.00  0.00     0.019 C 
ATOM      9  C   UNL     1      -4.699   3.940   7.842  1.00  0.00     0.189 C 
ATOM     10  C   UNL     1      -5.864   3.334   5.804  1.00  0.00     0.087 C 
ATOM     11  N   UNL     1      -5.844   3.238   7.264  1.00  0.00    -0.276 NA
ATOM     12  O   UNL     1      -4.649   3.805   9.264  1.00  0.00    -0.360 OA
ATOM     13  C   UNL     1      -7.094   3.730   7.854  1.00  0.00     0.121 C 
ATOM     14  C   UNL     1      -5.835   4.274   9.913  1.00  0.00     0.195 C 
BRANCH   6  15
ATOM     15  C   UNL     1      -2.091   2.725   5.236  1.00  0.00    -0.008 C 
ATOM     16  C   UNL     1      -1.196   3.438   4.250  1.00  0.00     0.004 C 
ATOM     17  C   UNL     1      -0.717   3.194   5.651  1.00  0.00     0.004 C 
ENDBRANCH   6  15
ENDBRANCH   4   5
ENDBRANCH   1   4
BRANCH   3  18
ATOM     18  C   UNL     1      -7.641   0.082  12.936  1.00  0.00     0.053 C 
BRANCH  18  19
ATOM     19  C   UNL     1      -8.739  -0.058  13.957  1.00  0.00     0.074 C 
BRANCH  19  20
ATOM     20  N   UNL     1      -9.417  -1.131  14.199  1.00  0.00    -0.313 NA
ATOM     21  H   UNL     1      -8.841  -1.977  14.084  1.00  0.00     0.186 HD
ENDBRANCH  19  20
ENDBRANCH  18  19
ENDBRANCH   3  18
TORSDOF 6
ENDMDL
MODEL 5
REMARK VINA RESULT:    -3.928      8.082     10.473
REMARK INTER + INTRA:          -5.341
REMARK INTER:                  -5.105
REMARK INTRA:                  -0.236
REMARK UNBOUND:                -0.150
REMARK SMILES [H]/N=C\C[C@H]1C[C@@H]1O[C@H]1CO[C@H]2C[C@@H](C3CC3)CCN2C1
REMARK SMILES IDX 7 1 6 2 5 3 8 4 9 5 14 6 13 7 18 8 12 9 19 10 20 11 11 12
REMARK SMILES IDX 21 13 10 14 15 15 16 16 17 17 4 18 3 19 2 20 1 21
REMARK H PARENT
ROOT
ATOM      1  C   UNL     1      -6.188   6.482  10.254  1.00  0.00     0.122 C 
ATOM      2  C   UNL     1      -6.040   6.922  11.683  1.00  0.00     0.039 C 
ATOM      3  C   UNL     1      -5.826   7.907  10.570  1.00  0.00     0.026 C 
ENDROOT
BRANCH   1   4
ATOM      4  O   UNL     1      -5.121   5.634   9.788  1.00  0.00    -0.371 OA
BRANCH   4   5
ATOM      5  C   UNL     1      -5.129   4.290  10.298  1.00  0.00     0.158 C 
ATOM      6  C   UNL     1      -4.151   1.756   5.846  1.00  0.00    -0.003 C 
ATOM      7  C   UNL     1      -5.345   2.513   6.439  1.00  0.00     0.052 C 
ATOM      8  C   UNL     1      -2.847   2.394   6.345  1.00  0.00     0.019 C 
ATOM      9  C   UNL     1      -5.248   2.624   7.966  1.00  0.00     0.189 C 
ATOM     10  C   UNL     1      -2.828   2.507   7.869  1.00  0.00     0.087 C 
ATOM     11  N   UNL     1      -3.987   3.257   8.353  1.00  0.00    -0.276 NA
ATOM     12  O   UNL     1      -6.382   3.382   8.394  1.00  0.00    -0.360 OA
ATOM     13  C   UNL     1      -3.939   3.448   9.807  1.00  0.00     0.121 C 
ATOM     14  C   UNL     1      -6.408   3.602   9.807  1.00  0.00     0.195 C 
BRANCH   6  15
ATOM     15  C   UNL     1      -4.193   1.749   4.334  1.00  0.00    -0.008 C 
ATOM     16  C   UNL     1      -4.095   0.448   3.573  1.00  0.00     0.004 C 
ATOM     17  C   UNL     1      -5.392   1.204   3.596  1.00  0.00     0.004 C 
ENDBRANCH   6  15
ENDBRANCH   4   5
ENDBRANCH   1   4
BRANCH   3  18
ATOM     18  C   UNL     1      -6.829   9.004  10.368  1.00  0.00     0.053 C 
BRANCH  18  19
ATOM     19  C   UNL     1      -7.110   9.878  11.562  1.00  0.00     0.074 C 
BRANCH  19  20
ATOM     20  N   UNL     1      -6.555  11.016  11.816  1.00  0.00    -0.313 NA
ATOM     21  H   UNL     1      -7.245  11.779  11.836  1.00  0.00     0.186 HD
ENDBRANCH  19  20
ENDBRANCH  18  19
ENDBRANCH   3  18
TORSDOF 6
ENDMDL
MODEL 6
REMARK VINA RESULT:    -3.389      7.585      9.927
REMARK INTER + INTRA:          -4.628
REMARK INTER:                  -4.573
REMARK INTRA:                  -0.055
REMARK UNBOUND:                -0.150
REMARK SMILES [H]/N=C\C[C@H]1C[C@@H]1O[C@H]1CO[C@H]2C[C@@H](C3CC3)CCN2C1
REMARK SMILES IDX 7 1 6 2 5 3 8 4 9 5 14 6 13 7 18 8 12 9 19 10 20 11 11 12
REMARK SMILES IDX 21 13 10 14 15 15 16 16 17 17 4 18 3 19 2 20 1 21
REMARK H PARENT
ROOT
ATOM      1  C   UNL     1      -6.035   4.202  10.104  1.00  0.00     0.122 C 
ATOM      2  C   UNL     1      -7.133   3.226   9.786  1.00  0.00     0.039 C 
ATOM      3  C   UNL     1      -6.342   3.852   8.673  1.00  0.00     0.026 C 
ENDROOT
BRANCH   1   4
ATOM      4  O   UNL     1      -6.503   5.482  10.569  1.00  0.00    -0.371 OA
BRANCH   4   5
ATOM      5  C   UNL     1      -5.485   6.382  11.034  1.00  0.00     0.158 C 
ATOM      6  C   UNL     1      -8.489  10.541  11.978  1.00  0.00    -0.003 C 
ATOM      7  C   UNL     1      -7.972   9.820  10.727  1.00  0.00     0.052 C 
ATOM      8  C   UNL     1      -8.698   9.517  13.103  1.00  0.00     0.019 C 
ATOM      9  C   UNL     1      -6.736   8.964  11.032  1.00  0.00     0.189 C 
ATOM     10  C   UNL     1      -7.443   8.675  13.333  1.00  0.00     0.087 C 
ATOM     11  N   UNL     1      -7.028   8.007  12.099  1.00  0.00    -0.276 NA
ATOM     12  O   UNL     1      -6.379   8.312   9.811  1.00  0.00    -0.360 OA
ATOM     13  C   UNL     1      -5.876   7.127  12.323  1.00  0.00     0.121 C 
ATOM     14  C   UNL     1      -5.253   7.440   9.950  1.00  0.00     0.195 C 
BRANCH   6  15
ATOM     15  C   UNL     1      -9.771  11.291  11.697  1.00  0.00    -0.008 C 
ATOM     16  C   UNL     1     -10.099  12.554  12.458  1.00  0.00     0.004 C 
ATOM     17  C   UNL     1      -9.748  12.629  11.000  1.00  0.00     0.004 C 
ENDBRANCH   6  15
ENDBRANCH   4   5
ENDBRANCH   1   4
BRANCH   3  18
ATOM     18  C   UNL     1      -5.396   2.997   7.884  1.00  0.00     0.053 C 
BRANCH  18  19
ATOM     19  C   UNL     1      -5.244   3.342   6.426  1.00  0.00     0.074 C 
BRANCH  19  20
ATOM     20  N   UNL     1      -6.195   3.376   5.553  1.00  0.00    -0.313 NA
ATOM     21  H   UNL     1      -6.978   2.763   5.820  1.00  0.00     0.186 HD
ENDBRANCH  19  20
ENDBRANCH  18  19
ENDBRANCH   3  18
TORSDOF 6
ENDMDL
MODEL 7
REMARK VINA RESULT:    -3.356      8.433     10.435
REMARK INTER + INTRA:          -4.584
REMARK INTER:                  -4.258
REMARK INTRA:                  -0.327
REMARK UNBOUND:                -0.150
REMARK SMILES [H]/N=C\C[C@H]1C[C@@H]1O[C@H]1CO[C@H]2C[C@@H](C3CC3)CCN2C1
REMARK SMILES IDX 7 1 6 2 5 3 8 4 9 5 14 6 13 7 18 8 12 9 19 10 20 11 11 12
REMARK SMILES IDX 21 13 10 14 15 15 16 16 17 17 4 18 3 19 2 20 1 21
REMARK H PARENT
ROOT
ATOM      1  C   UNL     1      -6.095   7.548  10.579  1.00  0.00     0.122 C 
ATOM      2  C   UNL     1      -5.303   6.779  11.598  1.00  0.00     0.039 C 
ATOM      3  C   UNL     1      -6.097   6.044  10.556  1.00  0.00     0.026 C 
ENDROOT
BRANCH   1   4
ATOM      4  O   UNL     1      -7.272   8.187  11.110  1.00  0.00    -0.371 OA
BRANCH   4   5
ATOM      5  C   UNL     1      -7.210   9.620  11.203  1.00  0.00     0.158 C 
ATOM      6  C   UNL     1     -10.919  10.328  14.802  1.00  0.00    -0.003 C 
ATOM      7  C   UNL     1     -10.887   9.931  13.321  1.00  0.00     0.052 C 
ATOM      8  C   UNL     1      -9.655   9.801  15.496  1.00  0.00     0.019 C 
ATOM      9  C   UNL     1      -9.578  10.359  12.644  1.00  0.00     0.189 C 
ATOM     10  C   UNL     1      -8.390  10.233  14.754  1.00  0.00     0.087 C 
ATOM     11  N   UNL     1      -8.429   9.801  13.357  1.00  0.00    -0.276 NA
ATOM     12  O   UNL     1      -9.646   9.898  11.293  1.00  0.00    -0.360 OA
ATOM     13  C   UNL     1      -7.184  10.132  12.654  1.00  0.00     0.121 C 
ATOM     14  C   UNL     1      -8.466  10.194  10.540  1.00  0.00     0.195 C 
BRANCH   6  15
ATOM     15  C   UNL     1     -12.159   9.805  15.490  1.00  0.00    -0.008 C 
ATOM     16  C   UNL     1     -13.128  10.759  16.147  1.00  0.00     0.004 C 
ATOM     17  C   UNL     1     -13.528  10.032  14.896  1.00  0.00     0.004 C 
ENDBRANCH   6  15
ENDBRANCH   4   5
ENDBRANCH   1   4
BRANCH   3  18
ATOM     18  C   UNL     1      -5.368   5.304   9.475  1.00  0.00     0.053 C 
BRANCH  18  19
ATOM     19  C   UNL     1      -5.046   3.859   9.757  1.00  0.00     0.074 C 
BRANCH  19  20
ATOM     20  N   UNL     1      -3.914   3.404  10.179  1.00  0.00    -0.313 NA
ATOM     21  H   UNL     1      -3.892   2.374  10.172  1.00  0.00     0.186 HD
ENDBRANCH  19  20
ENDBRANCH  18  19
ENDBRANCH   3  18
TORSDOF 6
ENDMDL
MODEL 8
REMARK VINA RESULT:    -3.339      3.375      6.174
REMARK INTER + INTRA:          -4.562
REMARK INTER:                  -4.233
REMARK INTRA:                  -0.329
REMARK UNBOUND:                -0.150
REMARK SMILES [H]/N=C\C[C@H]1C[C@@H]1O[C@H]1CO[C@H]2C[C@@H](C3CC3)CCN2C1
REMARK SMILES IDX 7 1 6 2 5 3 8 4 9 5 14 6 13 7 18 8 12 9 19 10 20 11 11 12
REMARK SMILES IDX 21 13 10 14 15 15 16 16 17 17 4 18 3 19 2 20 1 21
REMARK H PARENT
ROOT
ATOM      1  C   UNL     1      -9.061   6.154  16.010  1.00  0.00     0.122 C 
ATOM      2  C   UNL     1      -8.064   6.944  16.811  1.00  0.00     0.039 C 
ATOM      3  C   UNL     1      -7.685   6.410  15.459  1.00  0.00     0.026 C 
ENDROOT
BRANCH   1   4
ATOM      4  O   UNL     1      -9.314   4.833  16.526  1.00  0.00    -0.371 OA
BRANCH   4   5
ATOM      5  C   UNL     1     -10.525   4.210  16.067  1.00  0.00     0.158 C 
ATOM      6  C   UNL     1      -8.476   1.139  12.383  1.00  0.00    -0.003 C 
ATOM      7  C   UNL     1      -8.729   2.643  12.543  1.00  0.00     0.052 C 
ATOM      8  C   UNL     1      -8.175   0.525  13.758  1.00  0.00     0.019 C 
ATOM      9  C   UNL     1      -9.799   2.931  13.604  1.00  0.00     0.189 C 
ATOM     10  C   UNL     1      -9.260   0.877  14.775  1.00  0.00     0.087 C 
ATOM     11  N   UNL     1      -9.426   2.326  14.883  1.00  0.00    -0.276 NA
ATOM     12  O   UNL     1      -9.912   4.352  13.695  1.00  0.00    -0.360 OA
ATOM     13  C   UNL     1     -10.402   2.683  15.919  1.00  0.00     0.121 C 
ATOM     14  C   UNL     1     -10.857   4.777  14.683  1.00  0.00     0.195 C 
BRANCH   6  15
ATOM     15  C   UNL     1      -7.342   0.866  11.421  1.00  0.00    -0.008 C 
ATOM     16  C   UNL     1      -7.609   0.750   9.938  1.00  0.00     0.004 C 
ATOM     17  C   UNL     1      -6.858   1.936  10.472  1.00  0.00     0.004 C 
ENDBRANCH   6  15
ENDBRANCH   4   5
ENDBRANCH   1   4
BRANCH   3  18
ATOM     18  C   UNL     1      -7.491   7.372  14.326  1.00  0.00     0.053 C 
BRANCH  18  19
ATOM     19  C   UNL     1      -6.748   6.847  13.126  1.00  0.00     0.074 C 
BRANCH  19  20
ATOM     20  N   UNL     1      -7.104   5.845  12.393  1.00  0.00    -0.313 NA
ATOM     21  H   UNL     1      -6.802   5.963  11.415  1.00  0.00     0.186 HD
ENDBRANCH  19  20
ENDBRANCH  18  19
ENDBRANCH   3  18
TORSDOF 6
ENDMDL
