MODEL 1
REMARK VINA RESULT:    -5.871      0.000      0.000
REMARK INTER + INTRA:          -7.406
REMARK INTER:                  -6.901
REMARK INTRA:                  -0.505
REMARK UNBOUND:                -0.505
REMARK SMILES Cc1ccc(CNC(=O)NC(=O)c2ccc(C)cc2)cc1
REMARK SMILES IDX 11 1 12 2 10 3 8 4 9 5 7 6 13 9 19 10 18 11 14 12 16 13
REMARK SMILES IDX 15 14 17 15 6 16 5 17 4 18 20 19 3 20 21 21 2 22 1 23
REMARK H PARENT 10 7 7 8
ROOT
ATOM      1  C   UNL     1      -6.886   2.429  10.544  1.00  0.00     0.259 C 
ATOM      2  O   UNL     1      -6.556   1.719   9.605  1.00  0.00    -0.269 OA
ATOM      3  N   UNL     1      -6.649   3.794  10.735  1.00  0.00    -0.274 N 
ATOM      4  C   UNL     1      -6.239   4.866   9.984  1.00  0.00     0.321 C 
ATOM      5  O   UNL     1      -6.287   5.984  10.508  1.00  0.00    -0.248 OA
ATOM      6  N   UNL     1      -5.821   4.765   8.709  1.00  0.00    -0.334 N 
ATOM      7  H   UNL     1      -7.004   4.160  11.608  1.00  0.00     0.175 HD
ATOM      8  H   UNL     1      -5.637   5.656   8.270  1.00  0.00     0.165 HD
ENDROOT
BRANCH   1   9
ATOM      9  C   UNL     1      -7.642   1.777  11.631  1.00  0.00     0.040 A 
ATOM     10  C   UNL     1      -7.331   0.486  12.061  1.00  0.00     0.014 A 
ATOM     11  C   UNL     1      -8.039  -0.069  13.127  1.00  0.00     0.004 A 
ATOM     12  C   UNL     1      -8.691   2.490  12.220  1.00  0.00     0.014 A 
ATOM     13  C   UNL     1      -9.059   0.658  13.760  1.00  0.00    -0.051 A 
ATOM     14  C   UNL     1      -9.391   1.935  13.290  1.00  0.00     0.004 A 
ATOM     15  C   UNL     1      -9.754   0.082  14.959  1.00  0.00     0.044 C 
ENDBRANCH   1   9
BRANCH   6  16
ATOM     16  C   UNL     1      -5.789   3.588   7.888  1.00  0.00     0.153 C 
BRANCH  16  17
ATOM     17  C   UNL     1      -4.543   3.343   7.083  1.00  0.00    -0.029 A 
ATOM     18  C   UNL     1      -4.325   3.911   5.823  1.00  0.00     0.006 A 
ATOM     19  C   UNL     1      -3.480   2.687   7.725  1.00  0.00     0.006 A 
ATOM     20  C   UNL     1      -3.057   3.842   5.235  1.00  0.00     0.004 A 
ATOM     21  C   UNL     1      -2.219   2.624   7.141  1.00  0.00     0.004 A 
ATOM     22  C   UNL     1      -1.994   3.210   5.894  1.00  0.00    -0.051 A 
ATOM     23  C   UNL     1      -0.603   3.257   5.336  1.00  0.00     0.044 C 
ENDBRANCH  16  17
ENDBRANCH   6  16
TORSDOF 3
ENDMDL
MODEL 2
REMARK VINA RESULT:    -5.857      2.966      5.343
REMARK INTER + INTRA:          -7.389
REMARK INTER:                  -6.889
REMARK INTRA:                  -0.500
REMARK UNBOUND:                -0.505
REMARK SMILES Cc1ccc(CNC(=O)NC(=O)c2ccc(C)cc2)cc1
REMARK SMILES IDX 11 1 12 2 10 3 8 4 9 5 7 6 13 9 19 10 18 11 14 12 16 13
REMARK SMILES IDX 15 14 17 15 6 16 5 17 4 18 20 19 3 20 21 21 2 22 1 23
REMARK H PARENT 10 7 7 8
ROOT
ATOM      1  C   UNL     1      -5.891   5.764  10.041  1.00  0.00     0.259 C 
ATOM      2  O   UNL     1      -5.125   5.853   9.091  1.00  0.00    -0.269 OA
ATOM      3  N   UNL     1      -6.526   4.627  10.550  1.00  0.00    -0.274 N 
ATOM      4  C   UNL     1      -6.418   3.265  10.426  1.00  0.00     0.321 C 
ATOM      5  O   UNL     1      -7.106   2.565  11.177  1.00  0.00    -0.248 OA
ATOM      6  N   UNL     1      -5.586   2.660   9.558  1.00  0.00    -0.334 N 
ATOM      7  H   UNL     1      -7.137   4.806  11.336  1.00  0.00     0.175 HD
ATOM      8  H   UNL     1      -5.562   1.655   9.651  1.00  0.00     0.165 HD
ENDROOT
BRANCH   1   9
ATOM      9  C   UNL     1      -6.196   7.014  10.763  1.00  0.00     0.040 A 
ATOM     10  C   UNL     1      -6.356   8.225  10.087  1.00  0.00     0.014 A 
ATOM     11  C   UNL     1      -6.695   9.371  10.807  1.00  0.00     0.004 A 
ATOM     12  C   UNL     1      -6.315   6.956  12.155  1.00  0.00     0.014 A 
ATOM     13  C   UNL     1      -6.868   9.313  12.198  1.00  0.00    -0.051 A 
ATOM     14  C   UNL     1      -6.661   8.102  12.869  1.00  0.00     0.004 A 
ATOM     15  C   UNL     1      -7.316  10.534  12.946  1.00  0.00     0.044 C 
ENDBRANCH   1   9
BRANCH   6  16
ATOM     16  C   UNL     1      -4.636   3.281   8.678  1.00  0.00     0.153 C 
BRANCH  16  17
ATOM     17  C   UNL     1      -4.569   2.771   7.265  1.00  0.00    -0.029 A 
ATOM     18  C   UNL     1      -3.830   1.642   6.895  1.00  0.00     0.006 A 
ATOM     19  C   UNL     1      -5.456   3.336   6.335  1.00  0.00     0.006 A 
ATOM     20  C   UNL     1      -3.998   1.081   5.625  1.00  0.00     0.004 A 
ATOM     21  C   UNL     1      -5.626   2.773   5.074  1.00  0.00     0.004 A 
ATOM     22  C   UNL     1      -4.906   1.634   4.711  1.00  0.00    -0.051 A 
ATOM     23  C   UNL     1      -5.197   0.956   3.406  1.00  0.00     0.044 C 
ENDBRANCH  16  17
ENDBRANCH   6  16
TORSDOF 3
ENDMDL
MODEL 3
REMARK VINA RESULT:    -5.671      0.591      7.943
REMARK INTER + INTRA:          -7.171
REMARK INTER:                  -6.773
REMARK INTRA:                  -0.399
REMARK UNBOUND:                -0.505
REMARK SMILES Cc1ccc(CNC(=O)NC(=O)c2ccc(C)cc2)cc1
REMARK SMILES IDX 11 1 12 2 10 3 8 4 9 5 7 6 13 9 19 10 18 11 14 12 16 13
REMARK SMILES IDX 15 14 17 15 6 16 5 17 4 18 20 19 3 20 21 21 2 22 1 23
REMARK H PARENT 10 7 7 8
ROOT
ATOM      1  C   UNL     1      -5.262   3.289   8.436  1.00  0.00     0.259 C 
ATOM      2  O   UNL     1      -6.006   2.321   8.376  1.00  0.00    -0.269 OA
ATOM      3  N   UNL     1      -5.356   4.417   9.257  1.00  0.00    -0.274 N 
ATOM      4  C   UNL     1      -6.050   4.800  10.377  1.00  0.00     0.321 C 
ATOM      5  O   UNL     1      -5.742   5.875  10.902  1.00  0.00    -0.248 OA
ATOM      6  N   UNL     1      -7.018   4.056  10.943  1.00  0.00    -0.334 N 
ATOM      7  H   UNL     1      -4.628   5.103   9.109  1.00  0.00     0.175 HD
ATOM      8  H   UNL     1      -7.369   4.438  11.810  1.00  0.00     0.165 HD
ENDROOT
BRANCH   1   9
ATOM      9  C   UNL     1      -4.098   3.284   7.529  1.00  0.00     0.040 A 
ATOM     10  C   UNL     1      -4.110   3.990   6.325  1.00  0.00     0.014 A 
ATOM     11  C   UNL     1      -2.967   3.998   5.525  1.00  0.00     0.004 A 
ATOM     12  C   UNL     1      -2.975   2.541   7.906  1.00  0.00     0.014 A 
ATOM     13  C   UNL     1      -1.816   3.298   5.920  1.00  0.00    -0.051 A 
ATOM     14  C   UNL     1      -1.833   2.557   7.107  1.00  0.00     0.004 A 
ATOM     15  C   UNL     1      -0.568   3.386   5.092  1.00  0.00     0.044 C 
ENDBRANCH   1   9
BRANCH   6  16
ATOM     16  C   UNL     1      -7.452   2.743  10.558  1.00  0.00     0.153 C 
BRANCH  16  17
ATOM     17  C   UNL     1      -8.010   1.856  11.636  1.00  0.00    -0.029 A 
ATOM     18  C   UNL     1      -7.455   0.615  11.967  1.00  0.00     0.006 A 
ATOM     19  C   UNL     1      -8.994   2.404  12.475  1.00  0.00     0.006 A 
ATOM     20  C   UNL     1      -7.865  -0.048  13.128  1.00  0.00     0.004 A 
ATOM     21  C   UNL     1      -9.398   1.746  13.632  1.00  0.00     0.004 A 
ATOM     22  C   UNL     1      -8.829   0.518  13.975  1.00  0.00    -0.051 A 
ATOM     23  C   UNL     1      -9.168  -0.115  15.291  1.00  0.00     0.044 C 
ENDBRANCH  16  17
ENDBRANCH   6  16
TORSDOF 3
ENDMDL
MODEL 4
REMARK VINA RESULT:    -5.669      3.113      7.386
REMARK INTER + INTRA:          -7.168
REMARK INTER:                  -6.787
REMARK INTRA:                  -0.381
REMARK UNBOUND:                -0.505
REMARK SMILES Cc1ccc(CNC(=O)NC(=O)c2ccc(C)cc2)cc1
REMARK SMILES IDX 11 1 12 2 10 3 8 4 9 5 7 6 13 9 19 10 18 11 14 12 16 13
REMARK SMILES IDX 15 14 17 15 6 16 5 17 4 18 20 19 3 20 21 21 2 22 1 23
REMARK H PARENT 10 7 7 8
ROOT
ATOM      1  C   UNL     1      -5.245   3.680   8.288  1.00  0.00     0.259 C 
ATOM      2  O   UNL     1      -4.615   4.726   8.364  1.00  0.00    -0.269 OA
ATOM      3  N   UNL     1      -6.077   3.088   9.243  1.00  0.00    -0.274 N 
ATOM      4  C   UNL     1      -6.693   3.450  10.414  1.00  0.00     0.321 C 
ATOM      5  O   UNL     1      -7.489   2.648  10.915  1.00  0.00    -0.248 OA
ATOM      6  N   UNL     1      -6.497   4.634  11.023  1.00  0.00    -0.334 N 
ATOM      7  H   UNL     1      -6.476   2.204   8.958  1.00  0.00     0.175 HD
ATOM      8  H   UNL     1      -7.089   4.780  11.828  1.00  0.00     0.165 HD
ENDROOT
BRANCH   1   9
ATOM      9  C   UNL     1      -5.128   2.930   7.023  1.00  0.00     0.040 A 
ATOM     10  C   UNL     1      -4.345   1.778   6.930  1.00  0.00     0.014 A 
ATOM     11  C   UNL     1      -4.307   1.072   5.727  1.00  0.00     0.004 A 
ATOM     12  C   UNL     1      -5.823   3.409   5.908  1.00  0.00     0.014 A 
ATOM     13  C   UNL     1      -5.042   1.516   4.617  1.00  0.00    -0.051 A 
ATOM     14  C   UNL     1      -5.788   2.697   4.711  1.00  0.00     0.004 A 
ATOM     15  C   UNL     1      -5.059   0.700   3.358  1.00  0.00     0.044 C 
ENDBRANCH   1   9
BRANCH   6  16
ATOM     16  C   UNL     1      -5.703   5.736  10.560  1.00  0.00     0.153 C 
BRANCH  16  17
ATOM     17  C   UNL     1      -6.040   7.101  11.093  1.00  0.00    -0.029 A 
ATOM     18  C   UNL     1      -6.251   8.212  10.269  1.00  0.00     0.006 A 
ATOM     19  C   UNL     1      -6.359   7.199  12.457  1.00  0.00     0.006 A 
ATOM     20  C   UNL     1      -6.794   9.386  10.801  1.00  0.00     0.004 A 
ATOM     21  C   UNL     1      -6.903   8.366  12.984  1.00  0.00     0.004 A 
ATOM     22  C   UNL     1      -7.135   9.467  12.158  1.00  0.00    -0.051 A 
ATOM     23  C   UNL     1      -7.847  10.668  12.705  1.00  0.00     0.044 C 
ENDBRANCH  16  17
ENDBRANCH   6  16
TORSDOF 3
ENDMDL
MODEL 5
REMARK VINA RESULT:    -5.599      1.041      1.367
REMARK INTER + INTRA:          -7.087
REMARK INTER:                  -6.623
REMARK INTRA:                  -0.464
REMARK UNBOUND:                -0.505
REMARK SMILES Cc1ccc(CNC(=O)NC(=O)c2ccc(C)cc2)cc1
REMARK SMILES IDX 11 1 12 2 10 3 8 4 9 5 7 6 13 9 19 10 18 11 14 12 16 13
REMARK SMILES IDX 15 14 17 15 6 16 5 17 4 18 20 19 3 20 21 21 2 22 1 23
REMARK H PARENT 10 7 7 8
ROOT
ATOM      1  C   UNL     1      -6.799   2.333  10.424  1.00  0.00     0.259 C 
ATOM      2  O   UNL     1      -6.751   1.668   9.399  1.00  0.00    -0.269 OA
ATOM      3  N   UNL     1      -6.217   3.577  10.689  1.00  0.00    -0.274 N 
ATOM      4  C   UNL     1      -5.636   4.595   9.978  1.00  0.00     0.321 C 
ATOM      5  O   UNL     1      -5.354   5.632  10.589  1.00  0.00    -0.248 OA
ATOM      6  N   UNL     1      -5.389   4.534   8.657  1.00  0.00    -0.334 N 
ATOM      7  H   UNL     1      -6.379   3.922  11.626  1.00  0.00     0.175 HD
ATOM      8  H   UNL     1      -5.039   5.398   8.268  1.00  0.00     0.165 HD
ENDROOT
BRANCH   1   9
ATOM      9  C   UNL     1      -7.575   1.766  11.544  1.00  0.00     0.040 A 
ATOM     10  C   UNL     1      -7.314   0.486  12.036  1.00  0.00     0.014 A 
ATOM     11  C   UNL     1      -8.039   0.013  13.130  1.00  0.00     0.004 A 
ATOM     12  C   UNL     1      -8.593   2.547  12.100  1.00  0.00     0.014 A 
ATOM     13  C   UNL     1      -9.027   0.809  13.728  1.00  0.00    -0.051 A 
ATOM     14  C   UNL     1      -9.310   2.073  13.197  1.00  0.00     0.004 A 
ATOM     15  C   UNL     1      -9.738   0.320  14.956  1.00  0.00     0.044 C 
ENDBRANCH   1   9
BRANCH   6  16
ATOM     16  C   UNL     1      -5.731   3.475   7.750  1.00  0.00     0.153 C 
BRANCH  16  17
ATOM     17  C   UNL     1      -4.662   3.007   6.802  1.00  0.00    -0.029 A 
ATOM     18  C   UNL     1      -4.351   1.658   6.607  1.00  0.00     0.006 A 
ATOM     19  C   UNL     1      -4.111   3.963   5.932  1.00  0.00     0.006 A 
ATOM     20  C   UNL     1      -3.524   1.276   5.545  1.00  0.00     0.004 A 
ATOM     21  C   UNL     1      -3.292   3.581   4.874  1.00  0.00     0.004 A 
ATOM     22  C   UNL     1      -3.000   2.232   4.665  1.00  0.00    -0.051 A 
ATOM     23  C   UNL     1      -2.232   1.820   3.445  1.00  0.00     0.044 C 
ENDBRANCH  16  17
ENDBRANCH   6  16
TORSDOF 3
ENDMDL
MODEL 6
REMARK VINA RESULT:    -5.244      3.048      7.434
REMARK INTER + INTRA:          -6.668
REMARK INTER:                  -6.141
REMARK INTRA:                  -0.527
REMARK UNBOUND:                -0.505
REMARK SMILES Cc1ccc(CNC(=O)NC(=O)c2ccc(C)cc2)cc1
REMARK SMILES IDX 11 1 12 2 10 3 8 4 9 5 7 6 13 9 19 10 18 11 14 12 16 13
REMARK SMILES IDX 15 14 17 15 6 16 5 17 4 18 20 19 3 20 21 21 2 22 1 23
REMARK H PARENT 10 7 7 8
ROOT
ATOM      1  C   UNL     1      -4.644   3.301   8.395  1.00  0.00     0.259 C 
ATOM      2  O   UNL     1      -3.923   3.971   9.120  1.00  0.00    -0.269 OA
ATOM      3  N   UNL     1      -5.968   2.900   8.605  1.00  0.00    -0.274 N 
ATOM      4  C   UNL     1      -7.002   3.221   9.446  1.00  0.00     0.321 C 
ATOM      5  O   UNL     1      -8.105   2.713   9.217  1.00  0.00    -0.248 OA
ATOM      6  N   UNL     1      -6.884   4.075  10.479  1.00  0.00    -0.334 N 
ATOM      7  H   UNL     1      -6.352   2.326   7.866  1.00  0.00     0.175 HD
ATOM      8  H   UNL     1      -7.757   4.270  10.947  1.00  0.00     0.165 HD
ENDROOT
BRANCH   1   9
ATOM      9  C   UNL     1      -4.059   2.848   7.118  1.00  0.00     0.040 A 
ATOM     10  C   UNL     1      -3.940   1.491   6.813  1.00  0.00     0.014 A 
ATOM     11  C   UNL     1      -3.429   1.113   5.571  1.00  0.00     0.004 A 
ATOM     12  C   UNL     1      -3.617   3.822   6.217  1.00  0.00     0.014 A 
ATOM     13  C   UNL     1      -3.030   2.082   4.639  1.00  0.00    -0.051 A 
ATOM     14  C   UNL     1      -3.113   3.439   4.975  1.00  0.00     0.004 A 
ATOM     15  C   UNL     1      -2.563   1.661   3.276  1.00  0.00     0.044 C 
ENDBRANCH   1   9
BRANCH   6  16
ATOM     16  C   UNL     1      -5.731   4.845  10.852  1.00  0.00     0.153 C 
BRANCH  16  17
ATOM     17  C   UNL     1      -5.911   6.330  11.003  1.00  0.00    -0.029 A 
ATOM     18  C   UNL     1      -5.939   7.210   9.916  1.00  0.00     0.006 A 
ATOM     19  C   UNL     1      -6.275   6.807  12.272  1.00  0.00     0.006 A 
ATOM     20  C   UNL     1      -6.349   8.535  10.099  1.00  0.00     0.004 A 
ATOM     21  C   UNL     1      -6.686   8.124  12.452  1.00  0.00     0.004 A 
ATOM     22  C   UNL     1      -6.737   8.997  11.364  1.00  0.00    -0.051 A 
ATOM     23  C   UNL     1      -7.311  10.371  11.541  1.00  0.00     0.044 C 
ENDBRANCH  16  17
ENDBRANCH   6  16
TORSDOF 3
ENDMDL
MODEL 7
REMARK VINA RESULT:    -4.708      1.736      1.993
REMARK INTER + INTRA:          -6.038
REMARK INTER:                  -5.603
REMARK INTRA:                  -0.435
REMARK UNBOUND:                -0.505
REMARK SMILES Cc1ccc(CNC(=O)NC(=O)c2ccc(C)cc2)cc1
REMARK SMILES IDX 11 1 12 2 10 3 8 4 9 5 7 6 13 9 19 10 18 11 14 12 16 13
REMARK SMILES IDX 15 14 17 15 6 16 5 17 4 18 20 19 3 20 21 21 2 22 1 23
REMARK H PARENT 10 7 7 8
ROOT
ATOM      1  C   UNL     1      -6.624   2.707   9.898  1.00  0.00     0.259 C 
ATOM      2  O   UNL     1      -5.404   2.631   9.917  1.00  0.00    -0.269 OA
ATOM      3  N   UNL     1      -7.448   3.326   8.953  1.00  0.00    -0.274 N 
ATOM      4  C   UNL     1      -7.332   3.830   7.683  1.00  0.00     0.321 C 
ATOM      5  O   UNL     1      -8.368   4.189   7.112  1.00  0.00    -0.248 OA
ATOM      6  N   UNL     1      -6.163   3.922   7.023  1.00  0.00    -0.334 N 
ATOM      7  H   UNL     1      -8.436   3.276   9.165  1.00  0.00     0.175 HD
ATOM      8  H   UNL     1      -6.259   4.234   6.067  1.00  0.00     0.165 HD
ENDROOT
BRANCH   1   9
ATOM      9  C   UNL     1      -7.343   2.060  11.012  1.00  0.00     0.040 A 
ATOM     10  C   UNL     1      -7.027   0.766  11.430  1.00  0.00     0.014 A 
ATOM     11  C   UNL     1      -7.699   0.216  12.522  1.00  0.00     0.004 A 
ATOM     12  C   UNL     1      -8.364   2.780  11.641  1.00  0.00     0.014 A 
ATOM     13  C   UNL     1      -8.689   0.950  13.192  1.00  0.00    -0.051 A 
ATOM     14  C   UNL     1      -9.028   2.229  12.735  1.00  0.00     0.004 A 
ATOM     15  C   UNL     1      -9.342   0.378  14.416  1.00  0.00     0.044 C 
ENDBRANCH   1   9
BRANCH   6  16
ATOM     16  C   UNL     1      -4.872   3.470   7.459  1.00  0.00     0.153 C 
BRANCH  16  17
ATOM     17  C   UNL     1      -3.983   2.827   6.432  1.00  0.00    -0.029 A 
ATOM     18  C   UNL     1      -4.199   1.538   5.935  1.00  0.00     0.006 A 
ATOM     19  C   UNL     1      -3.029   3.645   5.805  1.00  0.00     0.006 A 
ATOM     20  C   UNL     1      -3.488   1.091   4.815  1.00  0.00     0.004 A 
ATOM     21  C   UNL     1      -2.326   3.201   4.689  1.00  0.00     0.004 A 
ATOM     22  C   UNL     1      -2.557   1.923   4.178  1.00  0.00    -0.051 A 
ATOM     23  C   UNL     1      -1.898   1.505   2.898  1.00  0.00     0.044 C 
ENDBRANCH  16  17
ENDBRANCH   6  16
TORSDOF 3
ENDMDL
MODEL 8
REMARK VINA RESULT:    -4.476      6.323      8.191
REMARK INTER + INTRA:          -5.766
REMARK INTER:                  -5.188
REMARK INTRA:                  -0.578
REMARK UNBOUND:                -0.505
REMARK SMILES Cc1ccc(CNC(=O)NC(=O)c2ccc(C)cc2)cc1
REMARK SMILES IDX 11 1 12 2 10 3 8 4 9 5 7 6 13 9 19 10 18 11 14 12 16 13
REMARK SMILES IDX 15 14 17 15 6 16 5 17 4 18 20 19 3 20 21 21 2 22 1 23
REMARK H PARENT 10 7 7 8
ROOT
ATOM      1  C   UNL     1     -10.117   9.714  13.932  1.00  0.00     0.259 C 
ATOM      2  O   UNL     1      -9.010   9.502  14.406  1.00  0.00    -0.269 OA
ATOM      3  N   UNL     1     -10.449  10.345  12.729  1.00  0.00    -0.274 N 
ATOM      4  C   UNL     1      -9.811  10.729  11.577  1.00  0.00     0.321 C 
ATOM      5  O   UNL     1     -10.508  11.157  10.651  1.00  0.00    -0.248 OA
ATOM      6  N   UNL     1      -8.481  10.636  11.397  1.00  0.00    -0.334 N 
ATOM      7  H   UNL     1     -11.442  10.424  12.560  1.00  0.00     0.175 HD
ATOM      8  H   UNL     1      -8.179  10.879  10.464  1.00  0.00     0.165 HD
ENDROOT
BRANCH   1   9
ATOM      9  C   UNL     1     -11.274   9.244  14.719  1.00  0.00     0.040 A 
ATOM     10  C   UNL     1     -12.488   9.932  14.711  1.00  0.00     0.014 A 
ATOM     11  C   UNL     1     -13.569   9.420  15.430  1.00  0.00     0.004 A 
ATOM     12  C   UNL     1     -11.118   8.084  15.486  1.00  0.00     0.014 A 
ATOM     13  C   UNL     1     -13.439   8.229  16.160  1.00  0.00    -0.051 A 
ATOM     14  C   UNL     1     -12.203   7.573  16.196  1.00  0.00     0.004 A 
ATOM     15  C   UNL     1     -14.633   7.647  16.858  1.00  0.00     0.044 C 
ENDBRANCH   1   9
BRANCH   6  16
ATOM     16  C   UNL     1      -7.511  10.076  12.296  1.00  0.00     0.153 C 
BRANCH  16  17
ATOM     17  C   UNL     1      -6.773   8.849  11.838  1.00  0.00    -0.029 A 
ATOM     18  C   UNL     1      -6.596   7.720  12.645  1.00  0.00     0.006 A 
ATOM     19  C   UNL     1      -6.440   8.769  10.476  1.00  0.00     0.006 A 
ATOM     20  C   UNL     1      -6.117   6.530  12.087  1.00  0.00     0.004 A 
ATOM     21  C   UNL     1      -5.969   7.584   9.922  1.00  0.00     0.004 A 
ATOM     22  C   UNL     1      -5.813   6.450  10.721  1.00  0.00    -0.051 A 
ATOM     23  C   UNL     1      -5.437   5.143  10.089  1.00  0.00     0.044 C 
ENDBRANCH  16  17
ENDBRANCH   6  16
TORSDOF 3
ENDMDL
MODEL 9
REMARK VINA RESULT:    -4.459      7.288      9.070
REMARK INTER + INTRA:          -5.746
REMARK INTER:                  -5.267
REMARK INTRA:                  -0.479
REMARK UNBOUND:                -0.505
REMARK SMILES Cc1ccc(CNC(=O)NC(=O)c2ccc(C)cc2)cc1
REMARK SMILES IDX 11 1 12 2 10 3 8 4 9 5 7 6 13 9 19 10 18 11 14 12 16 13
REMARK SMILES IDX 15 14 17 15 6 16 5 17 4 18 20 19 3 20 21 21 2 22 1 23
REMARK H PARENT 10 7 7 8
ROOT
ATOM      1  C   UNL     1      -9.601  10.692  13.114  1.00  0.00     0.259 C 
ATOM      2  O   UNL     1      -9.654   9.819  12.260  1.00  0.00    -0.269 OA
ATOM      3  N   UNL     1      -8.474  11.314  13.661  1.00  0.00    -0.274 N 
ATOM      4  C   UNL     1      -7.137  11.421  13.375  1.00  0.00     0.321 C 
ATOM      5  O   UNL     1      -6.466  12.205  14.055  1.00  0.00    -0.248 OA
ATOM      6  N   UNL     1      -6.532  10.744  12.381  1.00  0.00    -0.334 N 
ATOM      7  H   UNL     1      -8.681  11.998  14.376  1.00  0.00     0.175 HD
ATOM      8  H   UNL     1      -5.564  10.999  12.246  1.00  0.00     0.165 HD
ENDROOT
BRANCH   1   9
ATOM      9  C   UNL     1     -10.889  11.172  13.650  1.00  0.00     0.040 A 
ATOM     10  C   UNL     1     -11.726  10.335  14.391  1.00  0.00     0.014 A 
ATOM     11  C   UNL     1     -12.910  10.849  14.922  1.00  0.00     0.004 A 
ATOM     12  C   UNL     1     -11.257  12.495  13.389  1.00  0.00     0.014 A 
ATOM     13  C   UNL     1     -13.263  12.190  14.709  1.00  0.00    -0.051 A 
ATOM     14  C   UNL     1     -12.437  13.006  13.927  1.00  0.00     0.004 A 
ATOM     15  C   UNL     1     -14.495  12.749  15.357  1.00  0.00     0.044 C 
ENDBRANCH   1   9
BRANCH   6  16
ATOM     16  C   UNL     1      -7.142   9.872  11.417  1.00  0.00     0.153 C 
BRANCH  16  17
ATOM     17  C   UNL     1      -6.526   8.513  11.230  1.00  0.00    -0.029 A 
ATOM     18  C   UNL     1      -6.524   7.532  12.227  1.00  0.00     0.006 A 
ATOM     19  C   UNL     1      -6.130   8.160   9.930  1.00  0.00     0.006 A 
ATOM     20  C   UNL     1      -6.157   6.219  11.916  1.00  0.00     0.004 A 
ATOM     21  C   UNL     1      -5.770   6.852   9.621  1.00  0.00     0.004 A 
ATOM     22  C   UNL     1      -5.789   5.867  10.610  1.00  0.00    -0.051 A 
ATOM     23  C   UNL     1      -5.533   4.438  10.238  1.00  0.00     0.044 C 
ENDBRANCH  16  17
ENDBRANCH   6  16
TORSDOF 3
ENDMDL
