MODEL 1
REMARK VINA RESULT:    -6.021      0.000      0.000
REMARK INTER + INTRA:          -7.557
REMARK INTER:                  -7.077
REMARK INTRA:                  -0.479
REMARK UNBOUND:                -0.479
REMARK SMILES Cc1ccc(CNC(=O)NC(=O)c2ccc(C)cc2)cc1
REMARK SMILES IDX 11 1 12 2 10 3 8 4 9 5 7 6 13 9 19 10 18 11 14 12 16 13
REMARK SMILES IDX 15 14 17 15 6 16 5 17 4 18 20 19 3 20 21 21 2 22 1 23
REMARK H PARENT 10 7 7 8
ROOT
ATOM      1  C   UNL     1       7.778  -6.086   9.388  1.00  0.00     0.259 C 
ATOM      2  O   UNL     1       7.386  -6.094   8.229  1.00  0.00    -0.269 OA
ATOM      3  N   UNL     1       7.567  -5.120  10.377  1.00  0.00    -0.274 N 
ATOM      4  C   UNL     1       6.750  -4.037  10.577  1.00  0.00     0.321 C 
ATOM      5  O   UNL     1       6.777  -3.496  11.688  1.00  0.00    -0.248 OA
ATOM      6  N   UNL     1       5.906  -3.558   9.644  1.00  0.00    -0.334 N 
ATOM      7  H   UNL     1       8.012  -5.324  11.262  1.00  0.00     0.175 HD
ATOM      8  H   UNL     1       5.313  -2.812   9.977  1.00  0.00     0.165 HD
ENDROOT
BRANCH   1   9
ATOM      9  C   UNL     1       8.579  -7.247   9.822  1.00  0.00     0.040 A 
ATOM     10  C   UNL     1       9.525  -7.834   8.980  1.00  0.00     0.014 A 
ATOM     11  C   UNL     1      10.295  -8.897   9.454  1.00  0.00     0.004 A 
ATOM     12  C   UNL     1       8.359  -7.752  11.108  1.00  0.00     0.014 A 
ATOM     13  C   UNL     1      10.119  -9.378  10.760  1.00  0.00    -0.051 A 
ATOM     14  C   UNL     1       9.136  -8.809  11.579  1.00  0.00     0.004 A 
ATOM     15  C   UNL     1      11.013 -10.463  11.283  1.00  0.00     0.044 C 
ENDBRANCH   1   9
BRANCH   6  16
ATOM     16  C   UNL     1       5.645  -4.098   8.339  1.00  0.00     0.153 C 
BRANCH  16  17
ATOM     17  C   UNL     1       5.495  -3.121   7.207  1.00  0.00    -0.029 A 
ATOM     18  C   UNL     1       4.308  -2.425   6.950  1.00  0.00     0.006 A 
ATOM     19  C   UNL     1       6.662  -2.747   6.520  1.00  0.00     0.006 A 
ATOM     20  C   UNL     1       4.303  -1.362   6.042  1.00  0.00     0.004 A 
ATOM     21  C   UNL     1       6.656  -1.686   5.620  1.00  0.00     0.004 A 
ATOM     22  C   UNL     1       5.477  -0.977   5.381  1.00  0.00    -0.051 A 
ATOM     23  C   UNL     1       5.511   0.248   4.517  1.00  0.00     0.044 C 
ENDBRANCH  16  17
ENDBRANCH   6  16
TORSDOF 3
ENDMDL
MODEL 2
REMARK VINA RESULT:    -6.015      3.004      5.376
REMARK INTER + INTRA:          -7.550
REMARK INTER:                  -7.066
REMARK INTRA:                  -0.483
REMARK UNBOUND:                -0.479
REMARK SMILES Cc1ccc(CNC(=O)NC(=O)c2ccc(C)cc2)cc1
REMARK SMILES IDX 11 1 12 2 10 3 8 4 9 5 7 6 13 9 19 10 18 11 14 12 16 13
REMARK SMILES IDX 15 14 17 15 6 16 5 17 4 18 20 19 3 20 21 21 2 22 1 23
REMARK H PARENT 10 7 7 8
ROOT
ATOM      1  C   UNL     1       6.572  -3.187  11.166  1.00  0.00     0.259 C 
ATOM      2  O   UNL     1       6.053  -2.385  10.402  1.00  0.00    -0.269 OA
ATOM      3  N   UNL     1       7.106  -4.448  10.882  1.00  0.00    -0.274 N 
ATOM      4  C   UNL     1       7.480  -5.163   9.773  1.00  0.00     0.321 C 
ATOM      5  O   UNL     1       8.059  -6.240   9.954  1.00  0.00    -0.248 OA
ATOM      6  N   UNL     1       7.279  -4.740   8.511  1.00  0.00    -0.334 N 
ATOM      7  H   UNL     1       7.465  -4.940  11.689  1.00  0.00     0.175 HD
ATOM      8  H   UNL     1       7.689  -5.341   7.811  1.00  0.00     0.165 HD
ENDROOT
BRANCH   1   9
ATOM      9  C   UNL     1       6.662  -2.785  12.583  1.00  0.00     0.040 A 
ATOM     10  C   UNL     1       5.613  -2.116  13.218  1.00  0.00     0.014 A 
ATOM     11  C   UNL     1       5.723  -1.804  14.573  1.00  0.00     0.004 A 
ATOM     12  C   UNL     1       7.836  -3.088  13.278  1.00  0.00     0.014 A 
ATOM     13  C   UNL     1       6.876  -2.150  15.293  1.00  0.00    -0.051 A 
ATOM     14  C   UNL     1       7.939  -2.780  14.633  1.00  0.00     0.004 A 
ATOM     15  C   UNL     1       6.944  -1.884  16.768  1.00  0.00     0.044 C 
ENDBRANCH   1   9
BRANCH   6  16
ATOM     16  C   UNL     1       6.725  -3.486   8.086  1.00  0.00     0.153 C 
BRANCH  16  17
ATOM     17  C   UNL     1       5.760  -3.513   6.933  1.00  0.00    -0.029 A 
ATOM     18  C   UNL     1       6.168  -3.544   5.596  1.00  0.00     0.006 A 
ATOM     19  C   UNL     1       4.405  -3.729   7.234  1.00  0.00     0.006 A 
ATOM     20  C   UNL     1       5.238  -3.811   4.586  1.00  0.00     0.004 A 
ATOM     21  C   UNL     1       3.482  -3.999   6.229  1.00  0.00     0.004 A 
ATOM     22  C   UNL     1       3.892  -4.053   4.896  1.00  0.00    -0.051 A 
ATOM     23  C   UNL     1       2.920  -4.479   3.837  1.00  0.00     0.044 C 
ENDBRANCH  16  17
ENDBRANCH   6  16
TORSDOF 3
ENDMDL
MODEL 3
REMARK VINA RESULT:    -5.870      0.543      8.029
REMARK INTER + INTRA:          -7.379
REMARK INTER:                  -6.997
REMARK INTRA:                  -0.382
REMARK UNBOUND:                -0.479
REMARK SMILES Cc1ccc(CNC(=O)NC(=O)c2ccc(C)cc2)cc1
REMARK SMILES IDX 11 1 12 2 10 3 8 4 9 5 7 6 13 9 19 10 18 11 14 12 16 13
REMARK SMILES IDX 15 14 17 15 6 16 5 17 4 18 20 19 3 20 21 21 2 22 1 23
REMARK H PARENT 10 7 7 8
ROOT
ATOM      1  C   UNL     1       6.316  -3.953   8.106  1.00  0.00     0.259 C 
ATOM      2  O   UNL     1       6.377  -5.089   7.656  1.00  0.00    -0.269 OA
ATOM      3  N   UNL     1       6.499  -3.524   9.424  1.00  0.00    -0.274 N 
ATOM      4  C   UNL     1       7.003  -4.031  10.595  1.00  0.00     0.321 C 
ATOM      5  O   UNL     1       7.117  -3.259  11.552  1.00  0.00    -0.248 OA
ATOM      6  N   UNL     1       7.405  -5.307  10.741  1.00  0.00    -0.334 N 
ATOM      7  H   UNL     1       6.376  -2.529   9.560  1.00  0.00     0.175 HD
ATOM      8  H   UNL     1       7.831  -5.500  11.636  1.00  0.00     0.165 HD
ENDROOT
BRANCH   1   9
ATOM      9  C   UNL     1       6.014  -2.876   7.144  1.00  0.00     0.040 A 
ATOM     10  C   UNL     1       4.756  -2.272   7.098  1.00  0.00     0.014 A 
ATOM     11  C   UNL     1       4.534  -1.222   6.208  1.00  0.00     0.004 A 
ATOM     12  C   UNL     1       7.027  -2.476   6.267  1.00  0.00     0.014 A 
ATOM     13  C   UNL     1       5.559  -0.778   5.359  1.00  0.00    -0.051 A 
ATOM     14  C   UNL     1       6.802  -1.423   5.383  1.00  0.00     0.004 A 
ATOM     15  C   UNL     1       5.331   0.407   4.467  1.00  0.00     0.044 C 
ENDBRANCH   1   9
BRANCH   6  16
ATOM     16  C   UNL     1       7.455  -6.330   9.734  1.00  0.00     0.153 C 
BRANCH  16  17
ATOM     17  C   UNL     1       8.411  -7.469   9.956  1.00  0.00    -0.029 A 
ATOM     18  C   UNL     1       9.384  -7.843   9.023  1.00  0.00     0.006 A 
ATOM     19  C   UNL     1       8.453  -8.033  11.242  1.00  0.00     0.006 A 
ATOM     20  C   UNL     1      10.391  -8.744   9.384  1.00  0.00     0.004 A 
ATOM     21  C   UNL     1       9.458  -8.925  11.601  1.00  0.00     0.004 A 
ATOM     22  C   UNL     1      10.443  -9.281  10.678  1.00  0.00    -0.051 A 
ATOM     23  C   UNL     1      11.596 -10.133  11.115  1.00  0.00     0.044 C 
ENDBRANCH  16  17
ENDBRANCH   6  16
TORSDOF 3
ENDMDL
MODEL 4
REMARK VINA RESULT:    -5.860      3.136      7.409
REMARK INTER + INTRA:          -7.367
REMARK INTER:                  -6.990
REMARK INTRA:                  -0.377
REMARK UNBOUND:                -0.479
REMARK SMILES Cc1ccc(CNC(=O)NC(=O)c2ccc(C)cc2)cc1
REMARK SMILES IDX 11 1 12 2 10 3 8 4 9 5 7 6 13 9 19 10 18 11 14 12 16 13
REMARK SMILES IDX 15 14 17 15 6 16 5 17 4 18 20 19 3 20 21 21 2 22 1 23
REMARK H PARENT 10 7 7 8
ROOT
ATOM      1  C   UNL     1       6.042  -3.649   8.382  1.00  0.00     0.259 C 
ATOM      2  O   UNL     1       6.017  -2.540   8.896  1.00  0.00    -0.269 OA
ATOM      3  N   UNL     1       6.695  -4.805   8.824  1.00  0.00    -0.274 N 
ATOM      4  C   UNL     1       7.296  -5.252   9.973  1.00  0.00     0.321 C 
ATOM      5  O   UNL     1       7.653  -6.434  10.011  1.00  0.00    -0.248 OA
ATOM      6  N   UNL     1       7.488  -4.482  11.061  1.00  0.00    -0.334 N 
ATOM      7  H   UNL     1       6.587  -5.604   8.214  1.00  0.00     0.175 HD
ATOM      8  H   UNL     1       7.865  -4.984  11.852  1.00  0.00     0.165 HD
ENDROOT
BRANCH   1   9
ATOM      9  C   UNL     1       5.284  -3.813   7.127  1.00  0.00     0.040 A 
ATOM     10  C   UNL     1       5.928  -3.870   5.889  1.00  0.00     0.014 A 
ATOM     11  C   UNL     1       5.173  -4.079   4.735  1.00  0.00     0.004 A 
ATOM     12  C   UNL     1       3.891  -3.905   7.208  1.00  0.00     0.014 A 
ATOM     13  C   UNL     1       3.779  -4.223   4.811  1.00  0.00    -0.051 A 
ATOM     14  C   UNL     1       3.142  -4.120   6.053  1.00  0.00     0.004 A 
ATOM     15  C   UNL     1       2.992  -4.532   3.572  1.00  0.00     0.044 C 
ENDBRANCH   1   9
BRANCH   6  16
ATOM     16  C   UNL     1       7.059  -3.127  11.261  1.00  0.00     0.153 C 
BRANCH  16  17
ATOM     17  C   UNL     1       6.920  -2.650  12.681  1.00  0.00    -0.029 A 
ATOM     18  C   UNL     1       5.744  -2.086  13.185  1.00  0.00     0.006 A 
ATOM     19  C   UNL     1       7.950  -2.985  13.575  1.00  0.00     0.006 A 
ATOM     20  C   UNL     1       5.598  -1.887  14.562  1.00  0.00     0.004 A 
ATOM     21  C   UNL     1       7.801  -2.791  14.945  1.00  0.00     0.004 A 
ATOM     22  C   UNL     1       6.619  -2.249  15.451  1.00  0.00    -0.051 A 
ATOM     23  C   UNL     1       6.414  -2.172  16.935  1.00  0.00     0.044 C 
ENDBRANCH  16  17
ENDBRANCH   6  16
TORSDOF 3
ENDMDL
MODEL 5
REMARK VINA RESULT:    -5.601      0.549      8.013
REMARK INTER + INTRA:          -7.062
REMARK INTER:                  -6.692
REMARK INTRA:                  -0.370
REMARK UNBOUND:                -0.479
REMARK SMILES Cc1ccc(CNC(=O)NC(=O)c2ccc(C)cc2)cc1
REMARK SMILES IDX 11 1 12 2 10 3 8 4 9 5 7 6 13 9 19 10 18 11 14 12 16 13
REMARK SMILES IDX 15 14 17 15 6 16 5 17 4 18 20 19 3 20 21 21 2 22 1 23
REMARK H PARENT 10 7 7 8
ROOT
ATOM      1  C   UNL     1       6.339  -3.896   8.083  1.00  0.00     0.259 C 
ATOM      2  O   UNL     1       6.440  -5.018   7.607  1.00  0.00    -0.269 OA
ATOM      3  N   UNL     1       6.486  -3.493   9.414  1.00  0.00    -0.274 N 
ATOM      4  C   UNL     1       6.982  -4.013  10.582  1.00  0.00     0.321 C 
ATOM      5  O   UNL     1       7.056  -3.261  11.559  1.00  0.00    -0.248 OA
ATOM      6  N   UNL     1       7.416  -5.281  10.706  1.00  0.00    -0.334 N 
ATOM      7  H   UNL     1       6.333  -2.505   9.570  1.00  0.00     0.175 HD
ATOM      8  H   UNL     1       7.830  -5.483  11.604  1.00  0.00     0.165 HD
ENDROOT
BRANCH   1   9
ATOM      9  C   UNL     1       6.026  -2.805   7.140  1.00  0.00     0.040 A 
ATOM     10  C   UNL     1       6.988  -2.301   6.263  1.00  0.00     0.014 A 
ATOM     11  C   UNL     1       6.631  -1.305   5.354  1.00  0.00     0.004 A 
ATOM     12  C   UNL     1       4.730  -2.278   7.153  1.00  0.00     0.014 A 
ATOM     13  C   UNL     1       5.320  -0.806   5.323  1.00  0.00    -0.051 A 
ATOM     14  C   UNL     1       4.376  -1.288   6.238  1.00  0.00     0.004 A 
ATOM     15  C   UNL     1       4.929   0.203   4.283  1.00  0.00     0.044 C 
ENDBRANCH   1   9
BRANCH   6  16
ATOM     16  C   UNL     1       7.513  -6.278   9.678  1.00  0.00     0.153 C 
BRANCH  16  17
ATOM     17  C   UNL     1       8.423  -7.448   9.934  1.00  0.00    -0.029 A 
ATOM     18  C   UNL     1       9.393  -7.875   9.022  1.00  0.00     0.006 A 
ATOM     19  C   UNL     1       8.427  -7.987  11.231  1.00  0.00     0.006 A 
ATOM     20  C   UNL     1      10.362  -8.805   9.414  1.00  0.00     0.004 A 
ATOM     21  C   UNL     1       9.394  -8.908  11.621  1.00  0.00     0.004 A 
ATOM     22  C   UNL     1      10.376  -9.318  10.718  1.00  0.00    -0.051 A 
ATOM     23  C   UNL     1      11.492 -10.203  11.187  1.00  0.00     0.044 C 
ENDBRANCH  16  17
ENDBRANCH   6  16
TORSDOF 3
ENDMDL
MODEL 6
REMARK VINA RESULT:    -4.741      3.241      4.967
REMARK INTER + INTRA:          -6.052
REMARK INTER:                  -5.570
REMARK INTRA:                  -0.482
REMARK UNBOUND:                -0.479
REMARK SMILES Cc1ccc(CNC(=O)NC(=O)c2ccc(C)cc2)cc1
REMARK SMILES IDX 11 1 12 2 10 3 8 4 9 5 7 6 13 9 19 10 18 11 14 12 16 13
REMARK SMILES IDX 15 14 17 15 6 16 5 17 4 18 20 19 3 20 21 21 2 22 1 23
REMARK H PARENT 10 7 7 8
ROOT
ATOM      1  C   UNL     1       8.801  -8.834  11.676  1.00  0.00     0.259 C 
ATOM      2  O   UNL     1       7.647  -8.431  11.690  1.00  0.00    -0.269 OA
ATOM      3  N   UNL     1       9.729  -8.796  10.631  1.00  0.00    -0.274 N 
ATOM      4  C   UNL     1       9.866  -8.169   9.419  1.00  0.00     0.321 C 
ATOM      5  O   UNL     1      10.940  -8.299   8.823  1.00  0.00    -0.248 OA
ATOM      6  N   UNL     1       8.908  -7.401   8.867  1.00  0.00    -0.334 N 
ATOM      7  H   UNL     1      10.623  -9.215  10.851  1.00  0.00     0.175 HD
ATOM      8  H   UNL     1       9.196  -6.941   8.015  1.00  0.00     0.165 HD
ENDROOT
BRANCH   1   9
ATOM      9  C   UNL     1       9.303  -9.442  12.923  1.00  0.00     0.040 A 
ATOM     10  C   UNL     1      10.308 -10.412  12.907  1.00  0.00     0.014 A 
ATOM     11  C   UNL     1      10.787 -10.920  14.115  1.00  0.00     0.004 A 
ATOM     12  C   UNL     1       8.737  -9.025  14.132  1.00  0.00     0.014 A 
ATOM     13  C   UNL     1      10.262 -10.469  15.336  1.00  0.00    -0.051 A 
ATOM     14  C   UNL     1       9.224  -9.530  15.336  1.00  0.00     0.004 A 
ATOM     15  C   UNL     1      10.846 -10.962  16.627  1.00  0.00     0.044 C 
ENDBRANCH   1   9
BRANCH   6  16
ATOM     16  C   UNL     1       7.640  -7.038   9.434  1.00  0.00     0.153 C 
BRANCH  16  17
ATOM     17  C   UNL     1       7.446  -5.600   9.826  1.00  0.00    -0.029 A 
ATOM     18  C   UNL     1       6.798  -4.667   9.009  1.00  0.00     0.006 A 
ATOM     19  C   UNL     1       7.743  -5.249  11.153  1.00  0.00     0.006 A 
ATOM     20  C   UNL     1       6.437  -3.417   9.524  1.00  0.00     0.004 A 
ATOM     21  C   UNL     1       7.379  -4.008  11.665  1.00  0.00     0.004 A 
ATOM     22  C   UNL     1       6.713  -3.084  10.858  1.00  0.00    -0.051 A 
ATOM     23  C   UNL     1       6.203  -1.807  11.456  1.00  0.00     0.044 C 
ENDBRANCH  16  17
ENDBRANCH   6  16
TORSDOF 3
ENDMDL
MODEL 7
REMARK VINA RESULT:    -4.522      1.714      2.339
REMARK INTER + INTRA:          -5.794
REMARK INTER:                  -5.343
REMARK INTRA:                  -0.451
REMARK UNBOUND:                -0.479
REMARK SMILES Cc1ccc(CNC(=O)NC(=O)c2ccc(C)cc2)cc1
REMARK SMILES IDX 11 1 12 2 10 3 8 4 9 5 7 6 13 9 19 10 18 11 14 12 16 13
REMARK SMILES IDX 15 14 17 15 6 16 5 17 4 18 20 19 3 20 21 21 2 22 1 23
REMARK H PARENT 10 7 7 8
ROOT
ATOM      1  C   UNL     1       7.842  -5.615  10.125  1.00  0.00     0.259 C 
ATOM      2  O   UNL     1       8.138  -5.600   8.939  1.00  0.00    -0.269 OA
ATOM      3  N   UNL     1       7.131  -4.662  10.862  1.00  0.00    -0.274 N 
ATOM      4  C   UNL     1       6.335  -3.574  10.610  1.00  0.00     0.321 C 
ATOM      5  O   UNL     1       5.758  -3.051  11.570  1.00  0.00    -0.248 OA
ATOM      6  N   UNL     1       6.129  -3.072   9.378  1.00  0.00    -0.334 N 
ATOM      7  H   UNL     1       7.027  -4.886  11.843  1.00  0.00     0.175 HD
ATOM      8  H   UNL     1       5.450  -2.325   9.352  1.00  0.00     0.165 HD
ENDROOT
BRANCH   1   9
ATOM      9  C   UNL     1       8.282  -6.790  10.901  1.00  0.00     0.040 A 
ATOM     10  C   UNL     1       8.777  -7.934  10.272  1.00  0.00     0.014 A 
ATOM     11  C   UNL     1       9.230  -9.000  11.049  1.00  0.00     0.004 A 
ATOM     12  C   UNL     1       8.181  -6.733  12.294  1.00  0.00     0.014 A 
ATOM     13  C   UNL     1       9.182  -8.931  12.450  1.00  0.00    -0.051 A 
ATOM     14  C   UNL     1       8.640  -7.797  13.067  1.00  0.00     0.004 A 
ATOM     15  C   UNL     1       9.750 -10.050  13.272  1.00  0.00     0.044 C 
ENDBRANCH   1   9
BRANCH   6  16
ATOM     16  C   UNL     1       6.614  -3.587   8.129  1.00  0.00     0.153 C 
BRANCH  16  17
ATOM     17  C   UNL     1       5.647  -3.633   6.979  1.00  0.00    -0.029 A 
ATOM     18  C   UNL     1       6.054  -3.702   5.642  1.00  0.00     0.006 A 
ATOM     19  C   UNL     1       4.290  -3.825   7.287  1.00  0.00     0.006 A 
ATOM     20  C   UNL     1       5.119  -3.984   4.640  1.00  0.00     0.004 A 
ATOM     21  C   UNL     1       3.363  -4.110   6.290  1.00  0.00     0.004 A 
ATOM     22  C   UNL     1       3.771  -4.202   4.958  1.00  0.00    -0.051 A 
ATOM     23  C   UNL     1       2.793  -4.644   3.911  1.00  0.00     0.044 C 
ENDBRANCH  16  17
ENDBRANCH   6  16
TORSDOF 3
ENDMDL
MODEL 8
REMARK VINA RESULT:    -4.406      2.569      3.865
REMARK INTER + INTRA:          -5.658
REMARK INTER:                  -5.263
REMARK INTRA:                  -0.395
REMARK UNBOUND:                -0.479
REMARK SMILES Cc1ccc(CNC(=O)NC(=O)c2ccc(C)cc2)cc1
REMARK SMILES IDX 11 1 12 2 10 3 8 4 9 5 7 6 13 9 19 10 18 11 14 12 16 13
REMARK SMILES IDX 15 14 17 15 6 16 5 17 4 18 20 19 3 20 21 21 2 22 1 23
REMARK H PARENT 10 7 7 8
ROOT
ATOM      1  C   UNL     1       7.238  -4.362  11.260  1.00  0.00     0.259 C 
ATOM      2  O   UNL     1       6.383  -3.508  11.074  1.00  0.00    -0.269 OA
ATOM      3  N   UNL     1       7.635  -5.402  10.413  1.00  0.00    -0.274 N 
ATOM      4  C   UNL     1       7.477  -5.754   9.097  1.00  0.00     0.321 C 
ATOM      5  O   UNL     1       8.123  -6.721   8.681  1.00  0.00    -0.248 OA
ATOM      6  N   UNL     1       6.685  -5.085   8.238  1.00  0.00    -0.334 N 
ATOM      7  H   UNL     1       8.354  -6.001  10.797  1.00  0.00     0.175 HD
ATOM      8  H   UNL     1       6.745  -5.418   7.287  1.00  0.00     0.165 HD
ENDROOT
BRANCH   1   9
ATOM      9  C   UNL     1       7.965  -4.301  12.542  1.00  0.00     0.040 A 
ATOM     10  C   UNL     1       8.496  -5.449  13.134  1.00  0.00     0.014 A 
ATOM     11  C   UNL     1       9.221  -5.335  14.320  1.00  0.00     0.004 A 
ATOM     12  C   UNL     1       8.105  -3.055  13.160  1.00  0.00     0.014 A 
ATOM     13  C   UNL     1       9.411  -4.081  14.921  1.00  0.00    -0.051 A 
ATOM     14  C   UNL     1       8.835  -2.944  14.341  1.00  0.00     0.004 A 
ATOM     15  C   UNL     1      10.264  -3.963  16.149  1.00  0.00     0.044 C 
ENDBRANCH   1   9
BRANCH   6  16
ATOM     16  C   UNL     1       5.937  -3.886   8.489  1.00  0.00     0.153 C 
BRANCH  16  17
ATOM     17  C   UNL     1       5.716  -2.955   7.328  1.00  0.00    -0.029 A 
ATOM     18  C   UNL     1       4.525  -2.251   7.131  1.00  0.00     0.006 A 
ATOM     19  C   UNL     1       6.834  -2.633   6.541  1.00  0.00     0.006 A 
ATOM     20  C   UNL     1       4.466  -1.227   6.179  1.00  0.00     0.004 A 
ATOM     21  C   UNL     1       6.776  -1.611   5.599  1.00  0.00     0.004 A 
ATOM     22  C   UNL     1       5.594  -0.892   5.416  1.00  0.00    -0.051 A 
ATOM     23  C   UNL     1       5.581   0.294   4.499  1.00  0.00     0.044 C 
ENDBRANCH  16  17
ENDBRANCH   6  16
TORSDOF 3
ENDMDL
MODEL 9
REMARK VINA RESULT:    -4.240      2.536      8.350
REMARK INTER + INTRA:          -5.462
REMARK INTER:                  -4.943
REMARK INTRA:                  -0.519
REMARK UNBOUND:                -0.479
REMARK SMILES Cc1ccc(CNC(=O)NC(=O)c2ccc(C)cc2)cc1
REMARK SMILES IDX 11 1 12 2 10 3 8 4 9 5 7 6 13 9 19 10 18 11 14 12 16 13
REMARK SMILES IDX 15 14 17 15 6 16 5 17 4 18 20 19 3 20 21 21 2 22 1 23
REMARK H PARENT 10 7 7 8
ROOT
ATOM      1  C   UNL     1       8.152  -7.199  10.746  1.00  0.00     0.259 C 
ATOM      2  O   UNL     1       8.634  -8.090  10.062  1.00  0.00    -0.269 OA
ATOM      3  N   UNL     1       8.069  -7.112  12.140  1.00  0.00    -0.274 N 
ATOM      4  C   UNL     1       8.620  -7.738  13.228  1.00  0.00     0.321 C 
ATOM      5  O   UNL     1       8.383  -7.263  14.344  1.00  0.00    -0.248 OA
ATOM      6  N   UNL     1       9.422  -8.816  13.141  1.00  0.00    -0.334 N 
ATOM      7  H   UNL     1       7.602  -6.282  12.479  1.00  0.00     0.175 HD
ATOM      8  H   UNL     1       9.814  -9.104  14.025  1.00  0.00     0.165 HD
ENDROOT
BRANCH   1   9
ATOM      9  C   UNL     1       7.578  -6.048  10.023  1.00  0.00     0.040 A 
ATOM     10  C   UNL     1       7.243  -6.132   8.670  1.00  0.00     0.014 A 
ATOM     11  C   UNL     1       6.654  -5.034   8.042  1.00  0.00     0.004 A 
ATOM     12  C   UNL     1       7.382  -4.859  10.731  1.00  0.00     0.014 A 
ATOM     13  C   UNL     1       6.406  -3.853   8.757  1.00  0.00    -0.051 A 
ATOM     14  C   UNL     1       6.788  -3.767  10.101  1.00  0.00     0.004 A 
ATOM     15  C   UNL     1       5.696  -2.712   8.090  1.00  0.00     0.044 C 
ENDBRANCH   1   9
BRANCH   6  16
ATOM     16  C   UNL     1       9.901  -9.456  11.948  1.00  0.00     0.153 C 
BRANCH  16  17
ATOM     17  C   UNL     1      11.367  -9.329  11.639  1.00  0.00    -0.029 A 
ATOM     18  C   UNL     1      12.356  -9.297  12.627  1.00  0.00     0.006 A 
ATOM     19  C   UNL     1      11.754  -9.461  10.295  1.00  0.00     0.006 A 
ATOM     20  C   UNL     1      13.704  -9.421  12.273  1.00  0.00     0.004 A 
ATOM     21  C   UNL     1      13.094  -9.589   9.945  1.00  0.00     0.004 A 
ATOM     22  C   UNL     1      14.081  -9.580  10.932  1.00  0.00    -0.051 A 
ATOM     23  C   UNL     1      15.507  -9.856  10.559  1.00  0.00     0.044 C 
ENDBRANCH  16  17
ENDBRANCH   6  16
TORSDOF 3
ENDMDL
