MODEL 1
REMARK VINA RESULT:    -6.019      0.000      0.000
REMARK INTER + INTRA:          -7.439
REMARK INTER:                  -7.074
REMARK INTRA:                  -0.365
REMARK UNBOUND:                -0.365
REMARK SMILES Cc1ccc(CNC(=O)NC(=O)c2ccc(C)cc2)cc1
REMARK SMILES IDX 11 1 12 2 10 3 8 4 9 5 7 6 13 9 19 10 18 11 14 12 16 13
REMARK SMILES IDX 15 14 17 15 6 16 5 17 4 18 20 19 3 20 21 21 2 22 1 23
REMARK H PARENT 10 7 7 8
ROOT
ATOM      1  C   UNL     1       8.372  -5.557   2.316  1.00  0.00     0.259 C 
ATOM      2  O   UNL     1       7.665  -6.358   2.911  1.00  0.00    -0.269 OA
ATOM      3  N   UNL     1       9.767  -5.461   2.302  1.00  0.00    -0.274 N 
ATOM      4  C   UNL     1      10.839  -6.233   2.668  1.00  0.00     0.321 C 
ATOM      5  O   UNL     1      11.967  -5.833   2.358  1.00  0.00    -0.248 OA
ATOM      6  N   UNL     1      10.724  -7.409   3.313  1.00  0.00    -0.334 N 
ATOM      7  H   UNL     1      10.127  -4.695   1.748  1.00  0.00     0.175 HD
ATOM      8  H   UNL     1      11.602  -7.894   3.433  1.00  0.00     0.165 HD
ENDROOT
BRANCH   1   9
ATOM      9  C   UNL     1       7.678  -4.550   1.490  1.00  0.00     0.040 A 
ATOM     10  C   UNL     1       7.498  -3.240   1.938  1.00  0.00     0.014 A 
ATOM     11  C   UNL     1       6.883  -2.309   1.101  1.00  0.00     0.004 A 
ATOM     12  C   UNL     1       7.193  -4.946   0.240  1.00  0.00     0.014 A 
ATOM     13  C   UNL     1       6.439  -2.684  -0.176  1.00  0.00    -0.051 A 
ATOM     14  C   UNL     1       6.584  -4.012  -0.595  1.00  0.00     0.004 A 
ATOM     15  C   UNL     1       5.856  -1.652  -1.097  1.00  0.00     0.044 C 
ENDBRANCH   1   9
BRANCH   6  16
ATOM     16  C   UNL     1       9.516  -8.097   3.670  1.00  0.00     0.153 C 
BRANCH  16  17
ATOM     17  C   UNL     1       9.632  -9.554   4.026  1.00  0.00    -0.029 A 
ATOM     18  C   UNL     1       8.845 -10.549   3.438  1.00  0.00     0.006 A 
ATOM     19  C   UNL     1      10.721  -9.935   4.827  1.00  0.00     0.006 A 
ATOM     20  C   UNL     1       9.161 -11.897   3.630  1.00  0.00     0.004 A 
ATOM     21  C   UNL     1      11.038 -11.277   5.014  1.00  0.00     0.004 A 
ATOM     22  C   UNL     1      10.266 -12.270   4.408  1.00  0.00    -0.051 A 
ATOM     23  C   UNL     1      10.696 -13.704   4.502  1.00  0.00     0.044 C 
ENDBRANCH  16  17
ENDBRANCH   6  16
TORSDOF 3
ENDMDL
MODEL 2
REMARK VINA RESULT:    -6.016      3.275      5.540
REMARK INTER + INTRA:          -7.437
REMARK INTER:                  -7.068
REMARK INTRA:                  -0.368
REMARK UNBOUND:                -0.365
REMARK SMILES Cc1ccc(CNC(=O)NC(=O)c2ccc(C)cc2)cc1
REMARK SMILES IDX 11 1 12 2 10 3 8 4 9 5 7 6 13 9 19 10 18 11 14 12 16 13
REMARK SMILES IDX 15 14 17 15 6 16 5 17 4 18 20 19 3 20 21 21 2 22 1 23
REMARK H PARENT 10 7 7 8
ROOT
ATOM      1  C   UNL     1       8.687  -5.129   2.353  1.00  0.00     0.259 C 
ATOM      2  O   UNL     1       9.420  -4.369   1.737  1.00  0.00    -0.269 OA
ATOM      3  N   UNL     1       8.976  -6.394   2.874  1.00  0.00    -0.274 N 
ATOM      4  C   UNL     1      10.089  -7.152   3.134  1.00  0.00     0.321 C 
ATOM      5  O   UNL     1       9.930  -8.213   3.747  1.00  0.00    -0.248 OA
ATOM      6  N   UNL     1      11.337  -6.788   2.784  1.00  0.00    -0.334 N 
ATOM      7  H   UNL     1       8.195  -6.847   3.329  1.00  0.00     0.175 HD
ATOM      8  H   UNL     1      12.053  -7.413   3.123  1.00  0.00     0.165 HD
ENDROOT
BRANCH   1   9
ATOM      9  C   UNL     1       7.307  -4.666   2.594  1.00  0.00     0.040 A 
ATOM     10  C   UNL     1       6.246  -5.090   1.792  1.00  0.00     0.014 A 
ATOM     11  C   UNL     1       4.950  -4.666   2.091  1.00  0.00     0.004 A 
ATOM     12  C   UNL     1       7.088  -3.777   3.651  1.00  0.00     0.014 A 
ATOM     13  C   UNL     1       4.713  -3.815   3.181  1.00  0.00    -0.051 A 
ATOM     14  C   UNL     1       5.792  -3.361   3.950  1.00  0.00     0.004 A 
ATOM     15  C   UNL     1       3.306  -3.437   3.541  1.00  0.00     0.044 C 
ENDBRANCH   1   9
BRANCH   6  16
ATOM     16  C   UNL     1      11.749  -5.560   2.164  1.00  0.00     0.153 C 
BRANCH  16  17
ATOM     17  C   UNL     1      13.203  -5.190   2.266  1.00  0.00    -0.029 A 
ATOM     18  C   UNL     1      13.645  -3.971   2.789  1.00  0.00     0.006 A 
ATOM     19  C   UNL     1      14.143  -6.203   2.017  1.00  0.00     0.006 A 
ATOM     20  C   UNL     1      15.001  -3.785   3.079  1.00  0.00     0.004 A 
ATOM     21  C   UNL     1      15.490  -6.018   2.311  1.00  0.00     0.004 A 
ATOM     22  C   UNL     1      15.930  -4.810   2.854  1.00  0.00    -0.051 A 
ATOM     23  C   UNL     1      17.357  -4.670   3.294  1.00  0.00     0.044 C 
ENDBRANCH  16  17
ENDBRANCH   6  16
TORSDOF 3
ENDMDL
MODEL 3
REMARK VINA RESULT:    -5.936      0.512      8.087
REMARK INTER + INTRA:          -7.342
REMARK INTER:                  -6.869
REMARK INTRA:                  -0.472
REMARK UNBOUND:                -0.365
REMARK SMILES Cc1ccc(CNC(=O)NC(=O)c2ccc(C)cc2)cc1
REMARK SMILES IDX 11 1 12 2 10 3 8 4 9 5 7 6 13 9 19 10 18 11 14 12 16 13
REMARK SMILES IDX 15 14 17 15 6 16 5 17 4 18 20 19 3 20 21 21 2 22 1 23
REMARK H PARENT 10 7 7 8
ROOT
ATOM      1  C   UNL     1       9.340  -8.097   3.291  1.00  0.00     0.259 C 
ATOM      2  O   UNL     1       8.167  -7.755   3.231  1.00  0.00    -0.269 OA
ATOM      3  N   UNL     1      10.485  -7.354   2.989  1.00  0.00    -0.274 N 
ATOM      4  C   UNL     1      10.813  -6.040   2.773  1.00  0.00     0.321 C 
ATOM      5  O   UNL     1      12.011  -5.759   2.662  1.00  0.00    -0.248 OA
ATOM      6  N   UNL     1       9.906  -5.048   2.708  1.00  0.00    -0.334 N 
ATOM      7  H   UNL     1      11.353  -7.864   3.095  1.00  0.00     0.175 HD
ATOM      8  H   UNL     1      10.314  -4.128   2.630  1.00  0.00     0.165 HD
ENDROOT
BRANCH   1   9
ATOM      9  C   UNL     1       9.603  -9.477   3.745  1.00  0.00     0.040 A 
ATOM     10  C   UNL     1       8.844 -10.553   3.280  1.00  0.00     0.014 A 
ATOM     11  C   UNL     1       9.164 -11.845   3.697  1.00  0.00     0.004 A 
ATOM     12  C   UNL     1      10.635  -9.680   4.666  1.00  0.00     0.014 A 
ATOM     13  C   UNL     1      10.231 -12.065   4.581  1.00  0.00    -0.051 A 
ATOM     14  C   UNL     1      10.955 -10.973   5.075  1.00  0.00     0.004 A 
ATOM     15  C   UNL     1      10.616 -13.467   4.953  1.00  0.00     0.044 C 
ENDBRANCH   1   9
BRANCH   6  16
ATOM     16  C   UNL     1       8.488  -5.143   2.912  1.00  0.00     0.153 C 
BRANCH  16  17
ATOM     17  C   UNL     1       7.604  -4.340   1.998  1.00  0.00    -0.029 A 
ATOM     18  C   UNL     1       7.244  -3.013   2.255  1.00  0.00     0.006 A 
ATOM     19  C   UNL     1       7.312  -4.891   0.739  1.00  0.00     0.006 A 
ATOM     20  C   UNL     1       6.626  -2.250   1.259  1.00  0.00     0.004 A 
ATOM     21  C   UNL     1       6.701  -4.129  -0.252  1.00  0.00     0.004 A 
ATOM     22  C   UNL     1       6.362  -2.798  -0.004  1.00  0.00    -0.051 A 
ATOM     23  C   UNL     1       5.832  -1.947  -1.119  1.00  0.00     0.044 C 
ENDBRANCH  16  17
ENDBRANCH   6  16
TORSDOF 3
ENDMDL
MODEL 4
REMARK VINA RESULT:    -5.926      3.163      7.371
REMARK INTER + INTRA:          -7.331
REMARK INTER:                  -6.853
REMARK INTRA:                  -0.478
REMARK UNBOUND:                -0.365
REMARK SMILES Cc1ccc(CNC(=O)NC(=O)c2ccc(C)cc2)cc1
REMARK SMILES IDX 11 1 12 2 10 3 8 4 9 5 7 6 13 9 19 10 18 11 14 12 16 13
REMARK SMILES IDX 15 14 17 15 6 16 5 17 4 18 20 19 3 20 21 21 2 22 1 23
REMARK H PARENT 10 7 7 8
ROOT
ATOM      1  C   UNL     1      11.543  -5.293   2.444  1.00  0.00     0.259 C 
ATOM      2  O   UNL     1      10.899  -4.364   1.976  1.00  0.00    -0.269 OA
ATOM      3  N   UNL     1      11.080  -6.512   2.948  1.00  0.00    -0.274 N 
ATOM      4  C   UNL     1       9.919  -7.242   2.927  1.00  0.00     0.321 C 
ATOM      5  O   UNL     1       9.952  -8.384   3.398  1.00  0.00    -0.248 OA
ATOM      6  N   UNL     1       8.766  -6.792   2.398  1.00  0.00    -0.334 N 
ATOM      7  H   UNL     1      11.807  -7.119   3.303  1.00  0.00     0.175 HD
ATOM      8  H   UNL     1       8.029  -7.482   2.384  1.00  0.00     0.165 HD
ENDROOT
BRANCH   1   9
ATOM      9  C   UNL     1      13.008  -5.125   2.486  1.00  0.00     0.040 A 
ATOM     10  C   UNL     1      13.592  -3.927   2.901  1.00  0.00     0.014 A 
ATOM     11  C   UNL     1      14.982  -3.833   2.975  1.00  0.00     0.004 A 
ATOM     12  C   UNL     1      13.805  -6.204   2.091  1.00  0.00     0.014 A 
ATOM     13  C   UNL     1      15.789  -4.928   2.630  1.00  0.00    -0.051 A 
ATOM     14  C   UNL     1      15.192  -6.109   2.173  1.00  0.00     0.004 A 
ATOM     15  C   UNL     1      17.278  -4.839   2.796  1.00  0.00     0.044 C 
ENDBRANCH   1   9
BRANCH   6  16
ATOM     16  C   UNL     1       8.542  -5.549   1.715  1.00  0.00     0.153 C 
BRANCH  16  17
ATOM     17  C   UNL     1       7.267  -4.814   2.022  1.00  0.00    -0.029 A 
ATOM     18  C   UNL     1       6.078  -5.020   1.314  1.00  0.00     0.006 A 
ATOM     19  C   UNL     1       7.231  -4.051   3.200  1.00  0.00     0.006 A 
ATOM     20  C   UNL     1       4.876  -4.492   1.796  1.00  0.00     0.004 A 
ATOM     21  C   UNL     1       6.034  -3.530   3.681  1.00  0.00     0.004 A 
ATOM     22  C   UNL     1       4.844  -3.754   2.988  1.00  0.00    -0.051 A 
ATOM     23  C   UNL     1       3.542  -3.307   3.584  1.00  0.00     0.044 C 
ENDBRANCH  16  17
ENDBRANCH   6  16
TORSDOF 3
ENDMDL
MODEL 5
REMARK VINA RESULT:    -5.685      3.123      7.800
REMARK INTER + INTRA:          -7.048
REMARK INTER:                  -6.601
REMARK INTRA:                  -0.447
REMARK UNBOUND:                -0.365
REMARK SMILES Cc1ccc(CNC(=O)NC(=O)c2ccc(C)cc2)cc1
REMARK SMILES IDX 11 1 12 2 10 3 8 4 9 5 7 6 13 9 19 10 18 11 14 12 16 13
REMARK SMILES IDX 15 14 17 15 6 16 5 17 4 18 20 19 3 20 21 21 2 22 1 23
REMARK H PARENT 10 7 7 8
ROOT
ATOM      1  C   UNL     1      11.653  -5.158   2.300  1.00  0.00     0.259 C 
ATOM      2  O   UNL     1      11.103  -4.251   1.690  1.00  0.00    -0.269 OA
ATOM      3  N   UNL     1      11.078  -6.276   2.912  1.00  0.00    -0.274 N 
ATOM      4  C   UNL     1       9.871  -6.926   2.906  1.00  0.00     0.321 C 
ATOM      5  O   UNL     1       9.796  -8.003   3.506  1.00  0.00    -0.248 OA
ATOM      6  N   UNL     1       8.782  -6.468   2.260  1.00  0.00    -0.334 N 
ATOM      7  H   UNL     1      11.740  -6.882   3.379  1.00  0.00     0.175 HD
ATOM      8  H   UNL     1       7.999  -7.105   2.281  1.00  0.00     0.165 HD
ENDROOT
BRANCH   1   9
ATOM      9  C   UNL     1      13.122  -5.082   2.412  1.00  0.00     0.040 A 
ATOM     10  C   UNL     1      13.760  -3.923   2.859  1.00  0.00     0.014 A 
ATOM     11  C   UNL     1      15.148  -3.916   2.998  1.00  0.00     0.004 A 
ATOM     12  C   UNL     1      13.868  -6.208   2.049  1.00  0.00     0.014 A 
ATOM     13  C   UNL     1      15.901  -5.059   2.686  1.00  0.00    -0.051 A 
ATOM     14  C   UNL     1      15.253  -6.199   2.196  1.00  0.00     0.004 A 
ATOM     15  C   UNL     1      17.383  -5.064   2.921  1.00  0.00     0.044 C 
ENDBRANCH   1   9
BRANCH   6  16
ATOM     16  C   UNL     1       8.684  -5.303   1.426  1.00  0.00     0.153 C 
BRANCH  16  17
ATOM     17  C   UNL     1       7.468  -4.436   1.593  1.00  0.00    -0.029 A 
ATOM     18  C   UNL     1       7.513  -3.039   1.540  1.00  0.00     0.006 A 
ATOM     19  C   UNL     1       6.217  -5.075   1.591  1.00  0.00     0.006 A 
ATOM     20  C   UNL     1       6.326  -2.302   1.461  1.00  0.00     0.004 A 
ATOM     21  C   UNL     1       5.038  -4.341   1.507  1.00  0.00     0.004 A 
ATOM     22  C   UNL     1       5.082  -2.948   1.431  1.00  0.00    -0.051 A 
ATOM     23  C   UNL     1       3.817  -2.177   1.203  1.00  0.00     0.044 C 
ENDBRANCH  16  17
ENDBRANCH   6  16
TORSDOF 3
ENDMDL
MODEL 6
REMARK VINA RESULT:    -4.380      2.487      3.871
REMARK INTER + INTRA:          -5.514
REMARK INTER:                  -5.166
REMARK INTRA:                  -0.348
REMARK UNBOUND:                -0.365
REMARK SMILES Cc1ccc(CNC(=O)NC(=O)c2ccc(C)cc2)cc1
REMARK SMILES IDX 11 1 12 2 10 3 8 4 9 5 7 6 13 9 19 10 18 11 14 12 16 13
REMARK SMILES IDX 15 14 17 15 6 16 5 17 4 18 20 19 3 20 21 21 2 22 1 23
REMARK H PARENT 10 7 7 8
ROOT
ATOM      1  C   UNL     1       9.738  -7.448   3.134  1.00  0.00     0.259 C 
ATOM      2  O   UNL     1      10.930  -7.302   3.361  1.00  0.00    -0.269 OA
ATOM      3  N   UNL     1       8.958  -8.603   3.259  1.00  0.00    -0.274 N 
ATOM      4  C   UNL     1       9.065  -9.840   3.841  1.00  0.00     0.321 C 
ATOM      5  O   UNL     1       8.062 -10.561   3.844  1.00  0.00    -0.248 OA
ATOM      6  N   UNL     1      10.189 -10.290   4.431  1.00  0.00    -0.334 N 
ATOM      7  H   UNL     1       7.991  -8.484   2.989  1.00  0.00     0.175 HD
ATOM      8  H   UNL     1      10.078 -11.184   4.886  1.00  0.00     0.165 HD
ENDROOT
BRANCH   1   9
ATOM      9  C   UNL     1       9.003  -6.257   2.668  1.00  0.00     0.040 A 
ATOM     10  C   UNL     1       8.794  -6.015   1.309  1.00  0.00     0.014 A 
ATOM     11  C   UNL     1       8.048  -4.903   0.918  1.00  0.00     0.004 A 
ATOM     12  C   UNL     1       8.522  -5.363   3.630  1.00  0.00     0.014 A 
ATOM     13  C   UNL     1       7.517  -4.029   1.879  1.00  0.00    -0.051 A 
ATOM     14  C   UNL     1       7.772  -4.257   3.236  1.00  0.00     0.004 A 
ATOM     15  C   UNL     1       6.646  -2.885   1.447  1.00  0.00     0.044 C 
ENDBRANCH   1   9
BRANCH   6  16
ATOM     16  C   UNL     1      11.420  -9.579   4.627  1.00  0.00     0.153 C 
BRANCH  16  17
ATOM     17  C   UNL     1      12.402 -10.158   5.607  1.00  0.00    -0.029 A 
ATOM     18  C   UNL     1      12.021 -10.705   6.837  1.00  0.00     0.006 A 
ATOM     19  C   UNL     1      13.723 -10.339   5.164  1.00  0.00     0.006 A 
ATOM     20  C   UNL     1      12.942 -11.440   7.592  1.00  0.00     0.004 A 
ATOM     21  C   UNL     1      14.636 -11.073   5.914  1.00  0.00     0.004 A 
ATOM     22  C   UNL     1      14.250 -11.639   7.130  1.00  0.00    -0.051 A 
ATOM     23  C   UNL     1      15.198 -12.542   7.862  1.00  0.00     0.044 C 
ENDBRANCH  16  17
ENDBRANCH   6  16
TORSDOF 3
ENDMDL
MODEL 7
REMARK VINA RESULT:    -4.154      6.371      7.521
REMARK INTER + INTRA:          -5.247
REMARK INTER:                  -4.772
REMARK INTRA:                  -0.475
REMARK UNBOUND:                -0.365
REMARK SMILES Cc1ccc(CNC(=O)NC(=O)c2ccc(C)cc2)cc1
REMARK SMILES IDX 11 1 12 2 10 3 8 4 9 5 7 6 13 9 19 10 18 11 14 12 16 13
REMARK SMILES IDX 15 14 17 15 6 16 5 17 4 18 20 19 3 20 21 21 2 22 1 23
REMARK H PARENT 10 7 7 8
ROOT
ATOM      1  C   UNL     1      14.676  -9.422   4.299  1.00  0.00     0.259 C 
ATOM      2  O   UNL     1      13.529  -9.070   4.531  1.00  0.00    -0.269 OA
ATOM      3  N   UNL     1      15.510 -10.248   5.061  1.00  0.00    -0.274 N 
ATOM      4  C   UNL     1      15.386 -11.120   6.112  1.00  0.00     0.321 C 
ATOM      5  O   UNL     1      16.379 -11.785   6.425  1.00  0.00    -0.248 OA
ATOM      6  N   UNL     1      14.240 -11.307   6.793  1.00  0.00    -0.334 N 
ATOM      7  H   UNL     1      16.434 -10.380   4.672  1.00  0.00     0.175 HD
ATOM      8  H   UNL     1      14.291 -12.044   7.480  1.00  0.00     0.165 HD
ENDROOT
BRANCH   1   9
ATOM      9  C   UNL     1      15.280  -8.923   3.049  1.00  0.00     0.040 A 
ATOM     10  C   UNL     1      16.472  -9.455   2.553  1.00  0.00     0.014 A 
ATOM     11  C   UNL     1      16.977  -8.987   1.339  1.00  0.00     0.004 A 
ATOM     12  C   UNL     1      14.626  -7.890   2.370  1.00  0.00     0.014 A 
ATOM     13  C   UNL     1      16.301  -7.987   0.625  1.00  0.00    -0.051 A 
ATOM     14  C   UNL     1      15.131  -7.431   1.155  1.00  0.00     0.004 A 
ATOM     15  C   UNL     1      16.811  -7.556  -0.719  1.00  0.00     0.044 C 
ENDBRANCH   1   9
BRANCH   6  16
ATOM     16  C   UNL     1      12.958 -10.718   6.528  1.00  0.00     0.153 C 
BRANCH  16  17
ATOM     17  C   UNL     1      11.925 -11.583   5.861  1.00  0.00    -0.029 A 
ATOM     18  C   UNL     1      10.944 -11.077   5.002  1.00  0.00     0.006 A 
ATOM     19  C   UNL     1      12.099 -12.974   5.947  1.00  0.00     0.006 A 
ATOM     20  C   UNL     1      10.171 -11.951   4.229  1.00  0.00     0.004 A 
ATOM     21  C   UNL     1      11.333 -13.842   5.175  1.00  0.00     0.004 A 
ATOM     22  C   UNL     1      10.369 -13.337   4.301  1.00  0.00    -0.051 A 
ATOM     23  C   UNL     1       9.647 -14.269   3.374  1.00  0.00     0.044 C 
ENDBRANCH  16  17
ENDBRANCH   6  16
TORSDOF 3
ENDMDL
MODEL 8
REMARK VINA RESULT:    -4.082      5.934      9.710
REMARK INTER + INTRA:          -5.163
REMARK INTER:                  -4.861
REMARK INTRA:                  -0.302
REMARK UNBOUND:                -0.365
REMARK SMILES Cc1ccc(CNC(=O)NC(=O)c2ccc(C)cc2)cc1
REMARK SMILES IDX 11 1 12 2 10 3 8 4 9 5 7 6 13 9 19 10 18 11 14 12 16 13
REMARK SMILES IDX 15 14 17 15 6 16 5 17 4 18 20 19 3 20 21 21 2 22 1 23
REMARK H PARENT 10 7 7 8
ROOT
ATOM      1  C   UNL     1      14.686  -9.108   3.296  1.00  0.00     0.259 C 
ATOM      2  O   UNL     1      13.819  -8.258   3.151  1.00  0.00    -0.269 OA
ATOM      3  N   UNL     1      15.792  -9.377   2.483  1.00  0.00    -0.274 N 
ATOM      4  C   UNL     1      16.470  -8.765   1.460  1.00  0.00     0.321 C 
ATOM      5  O   UNL     1      17.524  -9.286   1.079  1.00  0.00    -0.248 OA
ATOM      6  N   UNL     1      16.065  -7.622   0.877  1.00  0.00    -0.334 N 
ATOM      7  H   UNL     1      16.363 -10.150   2.798  1.00  0.00     0.175 HD
ATOM      8  H   UNL     1      16.719  -7.257   0.199  1.00  0.00     0.165 HD
ENDROOT
BRANCH   1   9
ATOM      9  C   UNL     1      14.571  -9.973   4.485  1.00  0.00     0.040 A 
ATOM     10  C   UNL     1      13.337 -10.224   5.087  1.00  0.00     0.014 A 
ATOM     11  C   UNL     1      13.271 -11.091   6.178  1.00  0.00     0.004 A 
ATOM     12  C   UNL     1      15.742 -10.536   5.003  1.00  0.00     0.014 A 
ATOM     13  C   UNL     1      14.433 -11.702   6.673  1.00  0.00    -0.051 A 
ATOM     14  C   UNL     1      15.671 -11.407   6.089  1.00  0.00     0.004 A 
ATOM     15  C   UNL     1      14.334 -12.697   7.792  1.00  0.00     0.044 C 
ENDBRANCH   1   9
BRANCH   6  16
ATOM     16  C   UNL     1      14.937  -6.808   1.234  1.00  0.00     0.153 C 
BRANCH  16  17
ATOM     17  C   UNL     1      15.190  -5.642   2.149  1.00  0.00    -0.029 A 
ATOM     18  C   UNL     1      14.203  -4.712   2.491  1.00  0.00     0.006 A 
ATOM     19  C   UNL     1      16.411  -5.622   2.842  1.00  0.00     0.006 A 
ATOM     20  C   UNL     1      14.431  -3.798   3.525  1.00  0.00     0.004 A 
ATOM     21  C   UNL     1      16.635  -4.715   3.874  1.00  0.00     0.004 A 
ATOM     22  C   UNL     1      15.642  -3.802   4.231  1.00  0.00    -0.051 A 
ATOM     23  C   UNL     1      15.839  -2.924   5.431  1.00  0.00     0.044 C 
ENDBRANCH  16  17
ENDBRANCH   6  16
TORSDOF 3
ENDMDL
MODEL 9
REMARK VINA RESULT:    -3.981      3.259      8.818
REMARK INTER + INTRA:          -5.044
REMARK INTER:                  -4.506
REMARK INTRA:                  -0.538
REMARK UNBOUND:                -0.365
REMARK SMILES Cc1ccc(CNC(=O)NC(=O)c2ccc(C)cc2)cc1
REMARK SMILES IDX 11 1 12 2 10 3 8 4 9 5 7 6 13 9 19 10 18 11 14 12 16 13
REMARK SMILES IDX 15 14 17 15 6 16 5 17 4 18 20 19 3 20 21 21 2 22 1 23
REMARK H PARENT 10 7 7 8
ROOT
ATOM      1  C   UNL     1      10.737 -10.611   5.374  1.00  0.00     0.259 C 
ATOM      2  O   UNL     1      10.572  -9.469   5.781  1.00  0.00    -0.269 OA
ATOM      3  N   UNL     1      10.036 -11.295   4.376  1.00  0.00    -0.274 N 
ATOM      4  C   UNL     1       9.156 -10.993   3.367  1.00  0.00     0.321 C 
ATOM      5  O   UNL     1       8.853 -11.898   2.582  1.00  0.00    -0.248 OA
ATOM      6  N   UNL     1       8.637  -9.767   3.175  1.00  0.00    -0.334 N 
ATOM      7  H   UNL     1      10.342 -12.247   4.228  1.00  0.00     0.175 HD
ATOM      8  H   UNL     1       8.075  -9.690   2.339  1.00  0.00     0.165 HD
ENDROOT
BRANCH   1   9
ATOM      9  C   UNL     1      11.822 -11.386   6.005  1.00  0.00     0.040 A 
ATOM     10  C   UNL     1      12.550 -10.877   7.082  1.00  0.00     0.014 A 
ATOM     11  C   UNL     1      13.531 -11.668   7.680  1.00  0.00     0.004 A 
ATOM     12  C   UNL     1      12.110 -12.653   5.489  1.00  0.00     0.014 A 
ATOM     13  C   UNL     1      13.792 -12.961   7.202  1.00  0.00    -0.051 A 
ATOM     14  C   UNL     1      13.087 -13.443   6.093  1.00  0.00     0.004 A 
ATOM     15  C   UNL     1      14.790 -13.831   7.909  1.00  0.00     0.044 C 
ENDBRANCH   1   9
BRANCH   6  16
ATOM     16  C   UNL     1       8.936  -8.565   3.901  1.00  0.00     0.153 C 
BRANCH  16  17
ATOM     17  C   UNL     1       9.645  -7.468   3.158  1.00  0.00    -0.029 A 
ATOM     18  C   UNL     1       8.997  -6.322   2.685  1.00  0.00     0.006 A 
ATOM     19  C   UNL     1      11.049  -7.513   3.131  1.00  0.00     0.006 A 
ATOM     20  C   UNL     1       9.745  -5.236   2.220  1.00  0.00     0.004 A 
ATOM     21  C   UNL     1      11.792  -6.430   2.672  1.00  0.00     0.004 A 
ATOM     22  C   UNL     1      11.146  -5.277   2.222  1.00  0.00    -0.051 A 
ATOM     23  C   UNL     1      11.955  -4.067   1.859  1.00  0.00     0.044 C 
ENDBRANCH  16  17
ENDBRANCH   6  16
TORSDOF 3
ENDMDL
