MODEL 1
REMARK VINA RESULT:    -3.972      0.000      0.000
REMARK INTER + INTRA:          -5.471
REMARK INTER:                  -5.249
REMARK INTRA:                  -0.222
REMARK UNBOUND:                -0.222
REMARK SMILES [H]/N=C\C[C@H]1C[C@@H]1O[C@H]1CO[C@H]2C[C@@H](C3CC3)CCN2C1
REMARK SMILES IDX 7 1 6 2 5 3 8 4 9 5 14 6 13 7 18 8 12 9 19 10 20 11 11 12
REMARK SMILES IDX 21 13 10 14 15 15 16 16 17 17 4 18 3 19 2 20 1 21
REMARK H PARENT
ROOT
ATOM      1  C   UNL     1      12.224  -4.999   2.675  1.00  0.00     0.122 C 
ATOM      2  C   UNL     1      13.379  -5.676   1.991  1.00  0.00     0.039 C 
ATOM      3  C   UNL     1      13.425  -4.198   2.251  1.00  0.00     0.026 C 
ENDROOT
BRANCH   1   4
ATOM      4  O   UNL     1      11.046  -4.877   1.855  1.00  0.00    -0.371 OA
BRANCH   4   5
ATOM      5  C   UNL     1      10.331  -6.100   1.613  1.00  0.00     0.158 C 
ATOM      6  C   UNL     1       5.469  -4.263   2.043  1.00  0.00    -0.003 C 
ATOM      7  C   UNL     1       6.623  -4.553   3.011  1.00  0.00     0.052 C 
ATOM      8  C   UNL     1       6.041  -3.827   0.687  1.00  0.00     0.019 C 
ATOM      9  C   UNL     1       7.634  -5.540   2.412  1.00  0.00     0.189 C 
ATOM     10  C   UNL     1       7.064  -4.834   0.163  1.00  0.00     0.087 C 
ATOM     11  N   UNL     1       8.139  -5.040   1.133  1.00  0.00    -0.276 NA
ATOM     12  O   UNL     1       8.676  -5.694   3.378  1.00  0.00    -0.360 OA
ATOM     13  C   UNL     1       9.175  -5.938   0.610  1.00  0.00     0.121 C 
ATOM     14  C   UNL     1       9.721  -6.566   2.939  1.00  0.00     0.195 C 
BRANCH   6  15
ATOM     15  C   UNL     1       4.538  -3.205   2.591  1.00  0.00    -0.008 C 
ATOM     16  C   UNL     1       3.045  -3.432   2.602  1.00  0.00     0.004 C 
ATOM     17  C   UNL     1       3.807  -3.417   3.895  1.00  0.00     0.004 C 
ENDBRANCH   6  15
ENDBRANCH   4   5
ENDBRANCH   1   4
BRANCH   3  18
ATOM     18  C   UNL     1      14.382  -3.670   3.278  1.00  0.00     0.053 C 
BRANCH  18  19
ATOM     19  C   UNL     1      15.825  -4.068   3.109  1.00  0.00     0.074 C 
BRANCH  19  20
ATOM     20  N   UNL     1      16.781  -3.298   2.708  1.00  0.00    -0.313 NA
ATOM     21  H   UNL     1      17.117  -3.567   1.772  1.00  0.00     0.186 HD
ENDBRANCH  19  20
ENDBRANCH  18  19
ENDBRANCH   3  18
TORSDOF 6
ENDMDL
MODEL 2
REMARK VINA RESULT:    -3.921      3.305      5.502
REMARK INTER + INTRA:          -5.404
REMARK INTER:                  -5.175
REMARK INTRA:                  -0.229
REMARK UNBOUND:                -0.222
REMARK SMILES [H]/N=C\C[C@H]1C[C@@H]1O[C@H]1CO[C@H]2C[C@@H](C3CC3)CCN2C1
REMARK SMILES IDX 7 1 6 2 5 3 8 4 9 5 14 6 13 7 18 8 12 9 19 10 20 11 11 12
REMARK SMILES IDX 21 13 10 14 15 15 16 16 17 17 4 18 3 19 2 20 1 21
REMARK H PARENT
ROOT
ATOM      1  C   UNL     1       9.329  -8.819   3.248  1.00  0.00     0.122 C 
ATOM      2  C   UNL     1       9.989  -9.452   4.441  1.00  0.00     0.039 C 
ATOM      3  C   UNL     1       8.778 -10.093   3.827  1.00  0.00     0.026 C 
ENDROOT
BRANCH   1   4
ATOM      4  O   UNL     1       8.609  -7.609   3.549  1.00  0.00    -0.371 OA
BRANCH   4   5
ATOM      5  C   UNL     1       9.421  -6.457   3.828  1.00  0.00     0.158 C 
ATOM      6  C   UNL     1       6.616  -2.883   1.267  1.00  0.00    -0.003 C 
ATOM      7  C   UNL     1       7.533  -4.047   0.874  1.00  0.00     0.052 C 
ATOM      8  C   UNL     1       5.896  -3.225   2.579  1.00  0.00     0.019 C 
ATOM      9  C   UNL     1       8.476  -4.442   2.019  1.00  0.00     0.189 C 
ATOM     10  C   UNL     1       6.886  -3.642   3.667  1.00  0.00     0.087 C 
ATOM     11  N   UNL     1       7.709  -4.767   3.222  1.00  0.00    -0.276 NA
ATOM     12  O   UNL     1       9.240  -5.555   1.553  1.00  0.00    -0.360 OA
ATOM     13  C   UNL     1       8.604  -5.236   4.285  1.00  0.00     0.121 C 
ATOM     14  C   UNL     1      10.147  -6.063   2.537  1.00  0.00     0.195 C 
BRANCH   6  15
ATOM     15  C   UNL     1       5.614  -2.574   0.178  1.00  0.00    -0.008 C 
ATOM     16  C   UNL     1       5.512  -1.179  -0.394  1.00  0.00     0.004 C 
ATOM     17  C   UNL     1       6.068  -2.292  -1.234  1.00  0.00     0.004 C 
ENDBRANCH   6  15
ENDBRANCH   4   5
ENDBRANCH   1   4
BRANCH   3  18
ATOM     18  C   UNL     1       8.937 -11.389   3.090  1.00  0.00     0.053 C 
BRANCH  18  19
ATOM     19  C   UNL     1       9.777 -12.442   3.766  1.00  0.00     0.074 C 
BRANCH  19  20
ATOM     20  N   UNL     1       9.340 -13.373   4.547  1.00  0.00    -0.313 NA
ATOM     21  H   UNL     1       8.331 -13.534   4.419  1.00  0.00     0.186 HD
ENDBRANCH  19  20
ENDBRANCH  18  19
ENDBRANCH   3  18
TORSDOF 6
ENDMDL
MODEL 3
REMARK VINA RESULT:    -3.761      5.650      7.114
REMARK INTER + INTRA:          -5.192
REMARK INTER:                  -4.745
REMARK INTRA:                  -0.448
REMARK UNBOUND:                -0.222
REMARK SMILES [H]/N=C\C[C@H]1C[C@@H]1O[C@H]1CO[C@H]2C[C@@H](C3CC3)CCN2C1
REMARK SMILES IDX 7 1 6 2 5 3 8 4 9 5 14 6 13 7 18 8 12 9 19 10 20 11 11 12
REMARK SMILES IDX 21 13 10 14 15 15 16 16 17 17 4 18 3 19 2 20 1 21
REMARK H PARENT
ROOT
ATOM      1  C   UNL     1      14.550 -12.609   4.453  1.00  0.00     0.122 C 
ATOM      2  C   UNL     1      15.448 -13.049   3.332  1.00  0.00     0.039 C 
ATOM      3  C   UNL     1      15.270 -11.586   3.618  1.00  0.00     0.026 C 
ENDROOT
BRANCH   1   4
ATOM      4  O   UNL     1      13.146 -12.787   4.185  1.00  0.00    -0.371 OA
BRANCH   4   5
ATOM      5  C   UNL     1      12.281 -12.707   5.330  1.00  0.00     0.158 C 
ATOM      6  C   UNL     1       9.332  -8.685   3.804  1.00  0.00    -0.003 C 
ATOM      7  C   UNL     1      10.775  -8.866   4.290  1.00  0.00     0.052 C 
ATOM      8  C   UNL     1       8.897  -9.936   3.028  1.00  0.00     0.019 C 
ATOM      9  C   UNL     1      10.954 -10.178   5.067  1.00  0.00     0.189 C 
ATOM     10  C   UNL     1       9.132 -11.208   3.842  1.00  0.00     0.087 C 
ATOM     11  N   UNL     1      10.533 -11.316   4.251  1.00  0.00    -0.276 NA
ATOM     12  O   UNL     1      12.335 -10.255   5.425  1.00  0.00    -0.360 OA
ATOM     13  C   UNL     1      10.794 -12.575   4.959  1.00  0.00     0.121 C 
ATOM     14  C   UNL     1      12.664 -11.457   6.129  1.00  0.00     0.195 C 
BRANCH   6  15
ATOM     15  C   UNL     1       9.187  -7.450   2.943  1.00  0.00    -0.008 C 
ATOM     16  C   UNL     1       8.996  -6.094   3.580  1.00  0.00     0.004 C 
ATOM     17  C   UNL     1      10.286  -6.416   2.883  1.00  0.00     0.004 C 
ENDBRANCH   6  15
ENDBRANCH   4   5
ENDBRANCH   1   4
BRANCH   3  18
ATOM     18  C   UNL     1      16.419 -10.813   4.194  1.00  0.00     0.053 C 
BRANCH  18  19
ATOM     19  C   UNL     1      16.099  -9.440   4.726  1.00  0.00     0.074 C 
BRANCH  19  20
ATOM     20  N   UNL     1      15.000  -9.091   5.308  1.00  0.00    -0.313 NA
ATOM     21  H   UNL     1      15.160  -8.353   6.009  1.00  0.00     0.186 HD
ENDBRANCH  19  20
ENDBRANCH  18  19
ENDBRANCH   3  18
TORSDOF 6
ENDMDL
MODEL 4
REMARK VINA RESULT:    -3.605      3.352      5.395
REMARK INTER + INTRA:          -4.985
REMARK INTER:                  -5.188
REMARK INTRA:                   0.203
REMARK UNBOUND:                -0.222
REMARK SMILES [H]/N=C\C[C@H]1C[C@@H]1O[C@H]1CO[C@H]2C[C@@H](C3CC3)CCN2C1
REMARK SMILES IDX 7 1 6 2 5 3 8 4 9 5 14 6 13 7 18 8 12 9 19 10 20 11 11 12
REMARK SMILES IDX 21 13 10 14 15 15 16 16 17 17 4 18 3 19 2 20 1 21
REMARK H PARENT
ROOT
ATOM      1  C   UNL     1       9.196  -8.766   3.692  1.00  0.00     0.122 C 
ATOM      2  C   UNL     1       7.939  -9.442   4.163  1.00  0.00     0.039 C 
ATOM      3  C   UNL     1       8.958 -10.219   3.380  1.00  0.00     0.026 C 
ENDROOT
BRANCH   1   4
ATOM      4  O   UNL     1       8.992  -7.833   2.613  1.00  0.00    -0.371 OA
BRANCH   4   5
ATOM      5  C   UNL     1       9.855  -6.685   2.616  1.00  0.00     0.158 C 
ATOM      6  C   UNL     1       6.202  -2.961   2.625  1.00  0.00    -0.003 C 
ATOM      7  C   UNL     1       6.736  -3.974   1.604  1.00  0.00     0.052 C 
ATOM      8  C   UNL     1       6.292  -3.566   4.033  1.00  0.00     0.019 C 
ATOM      9  C   UNL     1       8.136  -4.478   1.980  1.00  0.00     0.189 C 
ATOM     10  C   UNL     1       7.700  -4.079   4.332  1.00  0.00     0.087 C 
ATOM     11  N   UNL     1       8.127  -5.051   3.326  1.00  0.00    -0.276 NA
ATOM     12  O   UNL     1       8.503  -5.440   0.990  1.00  0.00    -0.360 OA
ATOM     13  C   UNL     1       9.442  -5.619   3.646  1.00  0.00     0.121 C 
ATOM     14  C   UNL     1       9.783  -6.032   1.232  1.00  0.00     0.195 C 
BRANCH   6  15
ATOM     15  C   UNL     1       4.780  -2.555   2.312  1.00  0.00    -0.008 C 
ATOM     16  C   UNL     1       4.399  -2.120   0.916  1.00  0.00     0.004 C 
ATOM     17  C   UNL     1       3.897  -3.429   1.454  1.00  0.00     0.004 C 
ENDBRANCH   6  15
ENDBRANCH   4   5
ENDBRANCH   1   4
BRANCH   3  18
ATOM     18  C   UNL     1       9.755 -11.281   4.077  1.00  0.00     0.053 C 
BRANCH  18  19
ATOM     19  C   UNL     1       9.394 -12.706   3.750  1.00  0.00     0.074 C 
BRANCH  19  20
ATOM     20  N   UNL     1       9.237 -13.663   4.604  1.00  0.00    -0.313 NA
ATOM     21  H   UNL     1       9.160 -13.304   5.566  1.00  0.00     0.186 HD
ENDBRANCH  19  20
ENDBRANCH  18  19
ENDBRANCH   3  18
TORSDOF 6
ENDMDL
MODEL 5
REMARK VINA RESULT:    -3.599      4.278      7.224
REMARK INTER + INTRA:          -4.978
REMARK INTER:                  -4.742
REMARK INTRA:                  -0.235
REMARK UNBOUND:                -0.222
REMARK SMILES [H]/N=C\C[C@H]1C[C@@H]1O[C@H]1CO[C@H]2C[C@@H](C3CC3)CCN2C1
REMARK SMILES IDX 7 1 6 2 5 3 8 4 9 5 14 6 13 7 18 8 12 9 19 10 20 11 11 12
REMARK SMILES IDX 21 13 10 14 15 15 16 16 17 17 4 18 3 19 2 20 1 21
REMARK H PARENT
ROOT
ATOM      1  C   UNL     1      17.255  -8.956   4.540  1.00  0.00     0.122 C 
ATOM      2  C   UNL     1      17.525  -9.303   5.977  1.00  0.00     0.039 C 
ATOM      3  C   UNL     1      16.225  -9.704   5.341  1.00  0.00     0.026 C 
ENDROOT
BRANCH   1   4
ATOM      4  O   UNL     1      17.003  -7.557   4.311  1.00  0.00    -0.371 OA
BRANCH   4   5
ATOM      5  C   UNL     1      17.205  -7.103   2.963  1.00  0.00     0.158 C 
ATOM      6  C   UNL     1      12.463  -5.117   2.087  1.00  0.00    -0.003 C 
ATOM      7  C   UNL     1      13.055  -6.524   2.225  1.00  0.00     0.052 C 
ATOM      8  C   UNL     1      13.244  -4.147   2.984  1.00  0.00     0.019 C 
ATOM      9  C   UNL     1      14.571  -6.531   1.982  1.00  0.00     0.189 C 
ATOM     10  C   UNL     1      14.747  -4.227   2.718  1.00  0.00     0.087 C 
ATOM     11  N   UNL     1      15.237  -5.595   2.888  1.00  0.00    -0.276 NA
ATOM     12  O   UNL     1      15.011  -7.876   2.183  1.00  0.00    -0.360 OA
ATOM     13  C   UNL     1      16.692  -5.673   2.721  1.00  0.00     0.121 C 
ATOM     14  C   UNL     1      16.424  -8.032   2.026  1.00  0.00     0.195 C 
BRANCH   6  15
ATOM     15  C   UNL     1      10.992  -5.097   2.438  1.00  0.00    -0.008 C 
ATOM     16  C   UNL     1       9.976  -5.716   1.507  1.00  0.00     0.004 C 
ATOM     17  C   UNL     1      10.273  -6.365   2.828  1.00  0.00     0.004 C 
ENDBRANCH   6  15
ENDBRANCH   4   5
ENDBRANCH   1   4
BRANCH   3  18
ATOM     18  C   UNL     1      15.965 -11.156   5.072  1.00  0.00     0.053 C 
BRANCH  18  19
ATOM     19  C   UNL     1      14.917 -11.464   4.034  1.00  0.00     0.074 C 
BRANCH  19  20
ATOM     20  N   UNL     1      14.643 -10.744   2.998  1.00  0.00    -0.313 NA
ATOM     21  H   UNL     1      15.495 -10.483   2.481  1.00  0.00     0.186 HD
ENDBRANCH  19  20
ENDBRANCH  18  19
ENDBRANCH   3  18
TORSDOF 6
ENDMDL
MODEL 6
REMARK VINA RESULT:    -3.518      6.996      8.510
REMARK INTER + INTRA:          -4.872
REMARK INTER:                  -4.191
REMARK INTRA:                  -0.680
REMARK UNBOUND:                -0.222
REMARK SMILES [H]/N=C\C[C@H]1C[C@@H]1O[C@H]1CO[C@H]2C[C@@H](C3CC3)CCN2C1
REMARK SMILES IDX 7 1 6 2 5 3 8 4 9 5 14 6 13 7 18 8 12 9 19 10 20 11 11 12
REMARK SMILES IDX 21 13 10 14 15 15 16 16 17 17 4 18 3 19 2 20 1 21
REMARK H PARENT
ROOT
ATOM      1  C   UNL     1      15.352 -13.133   4.663  1.00  0.00     0.122 C 
ATOM      2  C   UNL     1      16.468 -13.130   3.657  1.00  0.00     0.039 C 
ATOM      3  C   UNL     1      15.520 -11.967   3.728  1.00  0.00     0.026 C 
ENDROOT
BRANCH   1   4
ATOM      4  O   UNL     1      14.289 -14.057   4.357  1.00  0.00    -0.371 OA
BRANCH   4   5
ATOM      5  C   UNL     1      13.402 -14.362   5.446  1.00  0.00     0.158 C 
ATOM      6  C   UNL     1       9.430 -11.255   4.110  1.00  0.00    -0.003 C 
ATOM      7  C   UNL     1      10.842 -11.052   4.672  1.00  0.00     0.052 C 
ATOM      8  C   UNL     1       9.421 -12.487   3.194  1.00  0.00     0.019 C 
ATOM      9  C   UNL     1      11.382 -12.328   5.333  1.00  0.00     0.189 C 
ATOM     10  C   UNL     1      10.001 -13.713   3.900  1.00  0.00     0.087 C 
ATOM     11  N   UNL     1      11.353 -13.444   4.388  1.00  0.00    -0.276 NA
ATOM     12  O   UNL     1      12.709 -12.030   5.772  1.00  0.00    -0.360 OA
ATOM     13  C   UNL     1      11.957 -14.637   4.991  1.00  0.00     0.121 C 
ATOM     14  C   UNL     1      13.361 -13.149   6.381  1.00  0.00     0.195 C 
BRANCH   6  15
ATOM     15  C   UNL     1       8.949 -10.033   3.361  1.00  0.00    -0.008 C 
ATOM     16  C   UNL     1       7.937  -9.103   3.987  1.00  0.00     0.004 C 
ATOM     17  C   UNL     1       9.355  -8.647   3.801  1.00  0.00     0.004 C 
ENDBRANCH   6  15
ENDBRANCH   4   5
ENDBRANCH   1   4
BRANCH   3  18
ATOM     18  C   UNL     1      16.021 -10.651   4.243  1.00  0.00     0.053 C 
BRANCH  18  19
ATOM     19  C   UNL     1      14.985  -9.577   4.446  1.00  0.00     0.074 C 
BRANCH  19  20
ATOM     20  N   UNL     1      14.137  -9.517   5.418  1.00  0.00    -0.313 NA
ATOM     21  H   UNL     1      14.373  -8.767   6.083  1.00  0.00     0.186 HD
ENDBRANCH  19  20
ENDBRANCH  18  19
ENDBRANCH   3  18
TORSDOF 6
ENDMDL
MODEL 7
REMARK VINA RESULT:    -3.270      1.943      2.254
REMARK INTER + INTRA:          -4.543
REMARK INTER:                  -4.618
REMARK INTRA:                   0.075
REMARK UNBOUND:                -0.222
REMARK SMILES [H]/N=C\C[C@H]1C[C@@H]1O[C@H]1CO[C@H]2C[C@@H](C3CC3)CCN2C1
REMARK SMILES IDX 7 1 6 2 5 3 8 4 9 5 14 6 13 7 18 8 12 9 19 10 20 11 11 12
REMARK SMILES IDX 21 13 10 14 15 15 16 16 17 17 4 18 3 19 2 20 1 21
REMARK H PARENT
ROOT
ATOM      1  C   UNL     1      12.055  -5.253   1.852  1.00  0.00     0.122 C 
ATOM      2  C   UNL     1      13.014  -4.102   1.730  1.00  0.00     0.039 C 
ATOM      3  C   UNL     1      13.455  -5.377   2.390  1.00  0.00     0.026 C 
ENDROOT
BRANCH   1   4
ATOM      4  O   UNL     1      11.009  -5.046   2.820  1.00  0.00    -0.371 OA
BRANCH   4   5
ATOM      5  C   UNL     1      10.091  -6.139   2.984  1.00  0.00     0.158 C 
ATOM      6  C   UNL     1       5.933  -4.025   0.650  1.00  0.00    -0.003 C 
ATOM      7  C   UNL     1       6.678  -3.808   1.972  1.00  0.00     0.052 C 
ATOM      8  C   UNL     1       6.932  -4.465  -0.429  1.00  0.00     0.019 C 
ATOM      9  C   UNL     1       7.519  -5.032   2.360  1.00  0.00     0.189 C 
ATOM     10  C   UNL     1       7.759  -5.665   0.032  1.00  0.00     0.087 C 
ATOM     11  N   UNL     1       8.453  -5.371   1.286  1.00  0.00    -0.276 NA
ATOM     12  O   UNL     1       8.196  -4.695   3.573  1.00  0.00    -0.360 OA
ATOM     13  C   UNL     1       9.320  -6.481   1.697  1.00  0.00     0.121 C 
ATOM     14  C   UNL     1       9.057  -5.738   4.041  1.00  0.00     0.195 C 
BRANCH   6  15
ATOM     15  C   UNL     1       5.198  -2.776   0.216  1.00  0.00    -0.008 C 
ATOM     16  C   UNL     1       3.925  -2.358   0.912  1.00  0.00     0.004 C 
ATOM     17  C   UNL     1       5.175  -1.548   1.093  1.00  0.00     0.004 C 
ENDBRANCH   6  15
ENDBRANCH   4   5
ENDBRANCH   1   4
BRANCH   3  18
ATOM     18  C   UNL     1      14.458  -6.247   1.693  1.00  0.00     0.053 C 
BRANCH  18  19
ATOM     19  C   UNL     1      14.788  -7.554   2.365  1.00  0.00     0.074 C 
BRANCH  19  20
ATOM     20  N   UNL     1      13.944  -8.346   2.937  1.00  0.00    -0.313 NA
ATOM     21  H   UNL     1      13.124  -7.834   3.293  1.00  0.00     0.186 HD
ENDBRANCH  19  20
ENDBRANCH  18  19
ENDBRANCH   3  18
TORSDOF 6
ENDMDL
MODEL 8
REMARK VINA RESULT:    -3.172      6.799     10.178
REMARK INTER + INTRA:          -4.414
REMARK INTER:                  -4.157
REMARK INTRA:                  -0.257
REMARK UNBOUND:                -0.222
REMARK SMILES [H]/N=C\C[C@H]1C[C@@H]1O[C@H]1CO[C@H]2C[C@@H](C3CC3)CCN2C1
REMARK SMILES IDX 7 1 6 2 5 3 8 4 9 5 14 6 13 7 18 8 12 9 19 10 20 11 11 12
REMARK SMILES IDX 21 13 10 14 15 15 16 16 17 17 4 18 3 19 2 20 1 21
REMARK H PARENT
ROOT
ATOM      1  C   UNL     1      13.051 -11.523   7.133  1.00  0.00     0.122 C 
ATOM      2  C   UNL     1      11.936 -11.020   8.006  1.00  0.00     0.039 C 
ATOM      3  C   UNL     1      12.193 -10.376   6.673  1.00  0.00     0.026 C 
ENDROOT
BRANCH   1   4
ATOM      4  O   UNL     1      14.368 -11.190   7.613  1.00  0.00    -0.371 OA
BRANCH   4   5
ATOM      5  C   UNL     1      15.450 -11.914   7.004  1.00  0.00     0.158 C 
ATOM      6  C   UNL     1      16.450  -8.653   3.058  1.00  0.00    -0.003 C 
ATOM      7  C   UNL     1      15.333  -9.643   3.408  1.00  0.00     0.052 C 
ATOM      8  C   UNL     1      17.015  -8.048   4.351  1.00  0.00     0.019 C 
ATOM      9  C   UNL     1      15.796 -10.685   4.435  1.00  0.00     0.189 C 
ATOM     10  C   UNL     1      17.425  -9.136   5.343  1.00  0.00     0.087 C 
ATOM     11  N   UNL     1      16.302 -10.025   5.639  1.00  0.00    -0.276 NA
ATOM     12  O   UNL     1      14.667 -11.515   4.713  1.00  0.00    -0.360 OA
ATOM     13  C   UNL     1      16.655 -11.022   6.656  1.00  0.00     0.121 C 
ATOM     14  C   UNL     1      14.939 -12.521   5.694  1.00  0.00     0.195 C 
BRANCH   6  15
ATOM     15  C   UNL     1      15.955  -7.563   2.134  1.00  0.00    -0.008 C 
ATOM     16  C   UNL     1      16.788  -7.127   0.951  1.00  0.00     0.004 C 
ATOM     17  C   UNL     1      15.511  -7.883   0.728  1.00  0.00     0.004 C 
ENDBRANCH   6  15
ENDBRANCH   4   5
ENDBRANCH   1   4
BRANCH   3  18
ATOM     18  C   UNL     1      11.198 -10.573   5.568  1.00  0.00     0.053 C 
BRANCH  18  19
ATOM     19  C   UNL     1      11.063  -9.439   4.585  1.00  0.00     0.074 C 
BRANCH  19  20
ATOM     20  N   UNL     1      12.036  -8.809   4.017  1.00  0.00    -0.313 NA
ATOM     21  H   UNL     1      12.511  -8.174   4.673  1.00  0.00     0.186 HD
ENDBRANCH  19  20
ENDBRANCH  18  19
ENDBRANCH   3  18
TORSDOF 6
ENDMDL
MODEL 9
REMARK VINA RESULT:    -2.947      6.339      8.939
REMARK INTER + INTRA:          -4.116
REMARK INTER:                  -3.915
REMARK INTRA:                  -0.201
REMARK UNBOUND:                -0.222
REMARK SMILES [H]/N=C\C[C@H]1C[C@@H]1O[C@H]1CO[C@H]2C[C@@H](C3CC3)CCN2C1
REMARK SMILES IDX 7 1 6 2 5 3 8 4 9 5 14 6 13 7 18 8 12 9 19 10 20 11 11 12
REMARK SMILES IDX 21 13 10 14 15 15 16 16 17 17 4 18 3 19 2 20 1 21
REMARK H PARENT
ROOT
ATOM      1  C   UNL     1      16.666  -8.076   1.505  1.00  0.00     0.122 C 
ATOM      2  C   UNL     1      16.205  -7.474   0.207  1.00  0.00     0.039 C 
ATOM      3  C   UNL     1      15.292  -7.472   1.400  1.00  0.00     0.026 C 
ENDROOT
BRANCH   1   4
ATOM      4  O   UNL     1      16.742  -9.514   1.491  1.00  0.00    -0.371 OA
BRANCH   4   5
ATOM      5  C   UNL     1      17.524 -10.103   2.542  1.00  0.00     0.158 C 
ATOM      6  C   UNL     1      13.630 -11.600   5.673  1.00  0.00    -0.003 C 
ATOM      7  C   UNL     1      14.268 -10.263   5.276  1.00  0.00     0.052 C 
ATOM      8  C   UNL     1      13.709 -12.571   4.487  1.00  0.00     0.019 C 
ATOM      9  C   UNL     1      15.684 -10.452   4.715  1.00  0.00     0.189 C 
ATOM     10  C   UNL     1      15.136 -12.688   3.954  1.00  0.00     0.087 C 
ATOM     11  N   UNL     1      15.665 -11.376   3.581  1.00  0.00    -0.276 NA
ATOM     12  O   UNL     1      16.152  -9.155   4.342  1.00  0.00    -0.360 OA
ATOM     13  C   UNL     1      17.002 -11.481   2.987  1.00  0.00     0.121 C 
ATOM     14  C   UNL     1      17.460  -9.177   3.761  1.00  0.00     0.195 C 
BRANCH   6  15
ATOM     15  C   UNL     1      12.196 -11.420   6.117  1.00  0.00    -0.008 C 
ATOM     16  C   UNL     1      11.851 -11.384   7.587  1.00  0.00     0.004 C 
ATOM     17  C   UNL     1      11.742 -10.133   6.764  1.00  0.00     0.004 C 
ENDBRANCH   6  15
ENDBRANCH   4   5
ENDBRANCH   1   4
BRANCH   3  18
ATOM     18  C   UNL     1      14.985  -6.171   2.078  1.00  0.00     0.053 C 
BRANCH  18  19
ATOM     19  C   UNL     1      13.556  -5.700   2.000  1.00  0.00     0.074 C 
BRANCH  19  20
ATOM     20  N   UNL     1      12.557  -6.199   2.649  1.00  0.00    -0.313 NA
ATOM     21  H   UNL     1      12.870  -6.819   3.410  1.00  0.00     0.186 HD
ENDBRANCH  19  20
ENDBRANCH  18  19
ENDBRANCH   3  18
TORSDOF 6
ENDMDL
