MODEL 1
REMARK VINA RESULT:    -3.854      0.000      0.000
REMARK INTER + INTRA:          -5.343
REMARK INTER:                  -5.093
REMARK INTRA:                  -0.250
REMARK UNBOUND:                -0.250
REMARK SMILES [H]/N=C\C[C@H]1C[C@@H]1O[C@H]1CO[C@H]2C[C@@H](C3CC3)CCN2C1
REMARK SMILES IDX 7 1 6 2 5 3 8 4 9 5 14 6 13 7 18 8 12 9 19 10 20 11 11 12
REMARK SMILES IDX 21 13 10 14 15 15 16 16 17 17 4 18 3 19 2 20 1 21
REMARK H PARENT
ROOT
ATOM      1  C   UNL     1       9.147   4.961   6.401  1.00  0.00     0.122 C 
ATOM      2  C   UNL     1       8.239   5.177   7.580  1.00  0.00     0.039 C 
ATOM      3  C   UNL     1       7.847   5.699   6.227  1.00  0.00     0.026 C 
ENDROOT
BRANCH   1   4
ATOM      4  O   UNL     1      10.344   5.762   6.428  1.00  0.00    -0.371 OA
BRANCH   4   5
ATOM      5  C   UNL     1      11.490   5.183   5.783  1.00  0.00     0.158 C 
ATOM      6  C   UNL     1      14.385   9.497   5.315  1.00  0.00    -0.003 C 
ATOM      7  C   UNL     1      13.118   8.947   4.649  1.00  0.00     0.052 C 
ATOM      8  C   UNL     1      14.434   9.028   6.776  1.00  0.00     0.019 C 
ATOM      9  C   UNL     1      12.997   7.427   4.822  1.00  0.00     0.189 C 
ATOM     10  C   UNL     1      14.275   7.511   6.881  1.00  0.00     0.087 C 
ATOM     11  N   UNL     1      13.036   7.070   6.240  1.00  0.00    -0.276 NA
ATOM     12  O   UNL     1      11.767   7.042   4.206  1.00  0.00    -0.360 OA
ATOM     13  C   UNL     1      12.825   5.627   6.408  1.00  0.00     0.121 C 
ATOM     14  C   UNL     1      11.496   5.641   4.321  1.00  0.00     0.195 C 
BRANCH   6  15
ATOM     15  C   UNL     1      14.440  11.006   5.241  1.00  0.00    -0.008 C 
ATOM     16  C   UNL     1      15.732  11.707   4.893  1.00  0.00     0.004 C 
ATOM     17  C   UNL     1      14.594  11.710   3.914  1.00  0.00     0.004 C 
ENDBRANCH   6  15
ENDBRANCH   4   5
ENDBRANCH   1   4
BRANCH   3  18
ATOM     18  C   UNL     1       6.703   5.053   5.503  1.00  0.00     0.053 C 
BRANCH  18  19
ATOM     19  C   UNL     1       5.737   5.985   4.820  1.00  0.00     0.074 C 
BRANCH  19  20
ATOM     20  N   UNL     1       5.405   7.165   5.228  1.00  0.00    -0.313 NA
ATOM     21  H   UNL     1       5.359   7.837   4.449  1.00  0.00     0.186 HD
ENDBRANCH  19  20
ENDBRANCH  18  19
ENDBRANCH   3  18
TORSDOF 6
ENDMDL
MODEL 2
REMARK VINA RESULT:    -3.820      5.212      8.403
REMARK INTER + INTRA:          -5.298
REMARK INTER:                  -5.044
REMARK INTRA:                  -0.255
REMARK UNBOUND:                -0.250
REMARK SMILES [H]/N=C\C[C@H]1C[C@@H]1O[C@H]1CO[C@H]2C[C@@H](C3CC3)CCN2C1
REMARK SMILES IDX 7 1 6 2 5 3 8 4 9 5 14 6 13 7 18 8 12 9 19 10 20 11 11 12
REMARK SMILES IDX 21 13 10 14 15 15 16 16 17 17 4 18 3 19 2 20 1 21
REMARK H PARENT
ROOT
ATOM      1  C   UNL     1       8.520   4.525   9.506  1.00  0.00     0.122 C 
ATOM      2  C   UNL     1       8.659   5.710  10.418  1.00  0.00     0.039 C 
ATOM      3  C   UNL     1       7.885   4.505  10.869  1.00  0.00     0.026 C 
ENDROOT
BRANCH   1   4
ATOM      4  O   UNL     1       7.640   4.745   8.387  1.00  0.00    -0.371 OA
BRANCH   4   5
ATOM      5  C   UNL     1       8.179   5.546   7.323  1.00  0.00     0.158 C 
ATOM      6  C   UNL     1       6.500   2.711   3.280  1.00  0.00    -0.003 C 
ATOM      7  C   UNL     1       7.573   2.550   4.364  1.00  0.00     0.052 C 
ATOM      8  C   UNL     1       5.315   3.502   3.851  1.00  0.00     0.019 C 
ATOM      9  C   UNL     1       7.962   3.898   4.985  1.00  0.00     0.189 C 
ATOM     10  C   UNL     1       5.774   4.815   4.484  1.00  0.00     0.087 C 
ATOM     11  N   UNL     1       6.780   4.575   5.519  1.00  0.00    -0.276 NA
ATOM     12  O   UNL     1       8.924   3.617   6.004  1.00  0.00    -0.360 OA
ATOM     13  C   UNL     1       7.166   5.818   6.196  1.00  0.00     0.121 C 
ATOM     14  C   UNL     1       9.357   4.787   6.704  1.00  0.00     0.195 C 
BRANCH   6  15
ATOM     15  C   UNL     1       6.039   1.371   2.752  1.00  0.00    -0.008 C 
ATOM     16  C   UNL     1       6.084   1.076   1.272  1.00  0.00     0.004 C 
ATOM     17  C   UNL     1       7.030   0.374   2.202  1.00  0.00     0.004 C 
ENDBRANCH   6  15
ENDBRANCH   4   5
ENDBRANCH   1   4
BRANCH   3  18
ATOM     18  C   UNL     1       8.453   3.640  11.955  1.00  0.00     0.053 C 
BRANCH  18  19
ATOM     19  C   UNL     1       8.879   4.348  13.215  1.00  0.00     0.074 C 
BRANCH  19  20
ATOM     20  N   UNL     1       8.150   4.530  14.265  1.00  0.00    -0.313 NA
ATOM     21  H   UNL     1       7.335   5.127  14.063  1.00  0.00     0.186 HD
ENDBRANCH  19  20
ENDBRANCH  18  19
ENDBRANCH   3  18
TORSDOF 6
ENDMDL
MODEL 3
REMARK VINA RESULT:    -3.779      2.739      8.561
REMARK INTER + INTRA:          -5.244
REMARK INTER:                  -4.991
REMARK INTRA:                  -0.253
REMARK UNBOUND:                -0.250
REMARK SMILES [H]/N=C\C[C@H]1C[C@@H]1O[C@H]1CO[C@H]2C[C@@H](C3CC3)CCN2C1
REMARK SMILES IDX 7 1 6 2 5 3 8 4 9 5 14 6 13 7 18 8 12 9 19 10 20 11 11 12
REMARK SMILES IDX 21 13 10 14 15 15 16 16 17 17 4 18 3 19 2 20 1 21
REMARK H PARENT
ROOT
ATOM      1  C   UNL     1      11.010   6.024   5.669  1.00  0.00     0.122 C 
ATOM      2  C   UNL     1      12.425   5.974   6.173  1.00  0.00     0.039 C 
ATOM      3  C   UNL     1      12.144   6.442   4.773  1.00  0.00     0.026 C 
ENDROOT
BRANCH   1   4
ATOM      4  O   UNL     1      10.431   4.730   5.416  1.00  0.00    -0.371 OA
BRANCH   4   5
ATOM      5  C   UNL     1       9.963   4.023   6.576  1.00  0.00     0.158 C 
ATOM      6  C   UNL     1       5.313   2.519   4.751  1.00  0.00    -0.003 C 
ATOM      7  C   UNL     1       5.939   3.844   5.204  1.00  0.00     0.052 C 
ATOM      8  C   UNL     1       6.398   1.634   4.122  1.00  0.00     0.019 C 
ATOM      9  C   UNL     1       7.162   3.619   6.103  1.00  0.00     0.189 C 
ATOM     10  C   UNL     1       7.601   1.478   5.052  1.00  0.00     0.087 C 
ATOM     11  N   UNL     1       8.150   2.782   5.421  1.00  0.00    -0.276 NA
ATOM     12  O   UNL     1       7.681   4.912   6.419  1.00  0.00    -0.360 OA
ATOM     13  C   UNL     1       9.357   2.647   6.244  1.00  0.00     0.121 C 
ATOM     14  C   UNL     1       8.859   4.860   7.230  1.00  0.00     0.195 C 
BRANCH   6  15
ATOM     15  C   UNL     1       4.181   2.746   3.775  1.00  0.00    -0.008 C 
ATOM     16  C   UNL     1       2.839   2.088   3.996  1.00  0.00     0.004 C 
ATOM     17  C   UNL     1       2.979   3.573   4.163  1.00  0.00     0.004 C 
ENDBRANCH   6  15
ENDBRANCH   4   5
ENDBRANCH   1   4
BRANCH   3  18
ATOM     18  C   UNL     1      12.347   7.889   4.436  1.00  0.00     0.053 C 
BRANCH  18  19
ATOM     19  C   UNL     1      13.662   8.492   4.855  1.00  0.00     0.074 C 
BRANCH  19  20
ATOM     20  N   UNL     1      14.794   8.331   4.255  1.00  0.00    -0.313 NA
ATOM     21  H   UNL     1      14.823   7.446   3.729  1.00  0.00     0.186 HD
ENDBRANCH  19  20
ENDBRANCH  18  19
ENDBRANCH   3  18
TORSDOF 6
ENDMDL
MODEL 4
REMARK VINA RESULT:    -3.760      4.978      8.604
REMARK INTER + INTRA:          -5.218
REMARK INTER:                  -4.745
REMARK INTRA:                  -0.473
REMARK UNBOUND:                -0.250
REMARK SMILES [H]/N=C\C[C@H]1C[C@@H]1O[C@H]1CO[C@H]2C[C@@H](C3CC3)CCN2C1
REMARK SMILES IDX 7 1 6 2 5 3 8 4 9 5 14 6 13 7 18 8 12 9 19 10 20 11 11 12
REMARK SMILES IDX 21 13 10 14 15 15 16 16 17 17 4 18 3 19 2 20 1 21
REMARK H PARENT
ROOT
ATOM      1  C   UNL     1      12.797   7.059  13.591  1.00  0.00     0.122 C 
ATOM      2  C   UNL     1      14.147   6.424  13.770  1.00  0.00     0.039 C 
ATOM      3  C   UNL     1      13.731   6.930  12.419  1.00  0.00     0.026 C 
ENDROOT
BRANCH   1   4
ATOM      4  O   UNL     1      11.699   6.128  13.646  1.00  0.00    -0.371 OA
BRANCH   4   5
ATOM      5  C   UNL     1      10.395   6.716  13.784  1.00  0.00     0.158 C 
ATOM      6  C   UNL     1       8.271   4.958   9.357  1.00  0.00    -0.003 C 
ATOM      7  C   UNL     1       9.325   6.008   9.728  1.00  0.00     0.052 C 
ATOM      8  C   UNL     1       8.328   3.804  10.367  1.00  0.00     0.019 C 
ATOM      9  C   UNL     1       9.196   6.452  11.191  1.00  0.00     0.189 C 
ATOM     10  C   UNL     1       8.229   4.315  11.805  1.00  0.00     0.087 C 
ATOM     11  N   UNL     1       9.278   5.296  12.084  1.00  0.00    -0.276 NA
ATOM     12  O   UNL     1      10.250   7.388  11.428  1.00  0.00    -0.360 OA
ATOM     13  C   UNL     1       9.251   5.731  13.485  1.00  0.00     0.121 C 
ATOM     14  C   UNL     1      10.282   7.866  12.777  1.00  0.00     0.195 C 
BRANCH   6  15
ATOM     15  C   UNL     1       8.473   4.442   7.950  1.00  0.00    -0.008 C 
ATOM     16  C   UNL     1       7.953   5.224   6.767  1.00  0.00     0.004 C 
ATOM     17  C   UNL     1       9.432   5.125   7.005  1.00  0.00     0.004 C 
ENDBRANCH   6  15
ENDBRANCH   4   5
ENDBRANCH   1   4
BRANCH   3  18
ATOM     18  C   UNL     1      14.409   8.143  11.856  1.00  0.00     0.053 C 
BRANCH  18  19
ATOM     19  C   UNL     1      13.798   8.731  10.611  1.00  0.00     0.074 C 
BRANCH  19  20
ATOM     20  N   UNL     1      12.549   8.688  10.288  1.00  0.00    -0.313 NA
ATOM     21  H   UNL     1      12.133   9.629  10.251  1.00  0.00     0.186 HD
ENDBRANCH  19  20
ENDBRANCH  18  19
ENDBRANCH   3  18
TORSDOF 6
ENDMDL
MODEL 5
REMARK VINA RESULT:    -3.739      3.027      7.575
REMARK INTER + INTRA:          -5.191
REMARK INTER:                  -4.973
REMARK INTRA:                  -0.218
REMARK UNBOUND:                -0.250
REMARK SMILES [H]/N=C\C[C@H]1C[C@@H]1O[C@H]1CO[C@H]2C[C@@H](C3CC3)CCN2C1
REMARK SMILES IDX 7 1 6 2 5 3 8 4 9 5 14 6 13 7 18 8 12 9 19 10 20 11 11 12
REMARK SMILES IDX 21 13 10 14 15 15 16 16 17 17 4 18 3 19 2 20 1 21
REMARK H PARENT
ROOT
ATOM      1  C   UNL     1      14.883  10.517   7.821  1.00  0.00     0.122 C 
ATOM      2  C   UNL     1      13.979  11.550   7.210  1.00  0.00     0.039 C 
ATOM      3  C   UNL     1      14.329  11.630   8.668  1.00  0.00     0.026 C 
ENDROOT
BRANCH   1   4
ATOM      4  O   UNL     1      14.273   9.222   7.979  1.00  0.00    -0.371 OA
BRANCH   4   5
ATOM      5  C   UNL     1      14.989   8.124   7.391  1.00  0.00     0.158 C 
ATOM      6  C   UNL     1      10.909   5.276   5.827  1.00  0.00    -0.003 C 
ATOM      7  C   UNL     1      11.557   5.619   7.174  1.00  0.00     0.052 C 
ATOM      8  C   UNL     1      11.079   6.460   4.866  1.00  0.00     0.019 C 
ATOM      9  C   UNL     1      13.010   6.083   7.006  1.00  0.00     0.189 C 
ATOM     10  C   UNL     1      12.542   6.894   4.769  1.00  0.00     0.087 C 
ATOM     11  N   UNL     1      13.079   7.222   6.090  1.00  0.00    -0.276 NA
ATOM     12  O   UNL     1      13.486   6.416   8.311  1.00  0.00    -0.360 OA
ATOM     13  C   UNL     1      14.455   7.724   6.004  1.00  0.00     0.121 C 
ATOM     14  C   UNL     1      14.831   6.906   8.308  1.00  0.00     0.195 C 
BRANCH   6  15
ATOM     15  C   UNL     1       9.446   4.929   5.988  1.00  0.00    -0.008 C 
ATOM     16  C   UNL     1       9.025   3.507   6.278  1.00  0.00     0.004 C 
ATOM     17  C   UNL     1       8.882   4.560   7.339  1.00  0.00     0.004 C 
ENDBRANCH   6  15
ENDBRANCH   4   5
ENDBRANCH   1   4
BRANCH   3  18
ATOM     18  C   UNL     1      15.223  12.737   9.141  1.00  0.00     0.053 C 
BRANCH  18  19
ATOM     19  C   UNL     1      14.759  13.495  10.357  1.00  0.00     0.074 C 
BRANCH  19  20
ATOM     20  N   UNL     1      13.964  13.047  11.271  1.00  0.00    -0.313 NA
ATOM     21  H   UNL     1      13.451  12.212  10.952  1.00  0.00     0.186 HD
ENDBRANCH  19  20
ENDBRANCH  18  19
ENDBRANCH   3  18
TORSDOF 6
ENDMDL
MODEL 6
REMARK VINA RESULT:    -3.711      3.129      7.029
REMARK INTER + INTRA:          -5.154
REMARK INTER:                  -4.795
REMARK INTRA:                  -0.358
REMARK UNBOUND:                -0.250
REMARK SMILES [H]/N=C\C[C@H]1C[C@@H]1O[C@H]1CO[C@H]2C[C@@H](C3CC3)CCN2C1
REMARK SMILES IDX 7 1 6 2 5 3 8 4 9 5 14 6 13 7 18 8 12 9 19 10 20 11 11 12
REMARK SMILES IDX 21 13 10 14 15 15 16 16 17 17 4 18 3 19 2 20 1 21
REMARK H PARENT
ROOT
ATOM      1  C   UNL     1      15.067   9.263   9.697  1.00  0.00     0.122 C 
ATOM      2  C   UNL     1      14.666  10.560  10.340  1.00  0.00     0.039 C 
ATOM      3  C   UNL     1      13.929   9.297  10.680  1.00  0.00     0.026 C 
ENDROOT
BRANCH   1   4
ATOM      4  O   UNL     1      14.713   9.164   8.304  1.00  0.00    -0.371 OA
BRANCH   4   5
ATOM      5  C   UNL     1      15.406   8.150   7.559  1.00  0.00     0.158 C 
ATOM      6  C   UNL     1      11.267   5.552   5.735  1.00  0.00    -0.003 C 
ATOM      7  C   UNL     1      11.950   5.712   7.099  1.00  0.00     0.052 C 
ATOM      8  C   UNL     1      11.424   6.852   4.934  1.00  0.00     0.019 C 
ATOM      9  C   UNL     1      13.402   6.188   6.957  1.00  0.00     0.189 C 
ATOM     10  C   UNL     1      12.887   7.289   4.859  1.00  0.00     0.087 C 
ATOM     11  N   UNL     1      13.458   7.437   6.198  1.00  0.00    -0.276 NA
ATOM     12  O   UNL     1      13.913   6.343   8.283  1.00  0.00    -0.360 OA
ATOM     13  C   UNL     1      14.835   7.940   6.145  1.00  0.00     0.121 C 
ATOM     14  C   UNL     1      15.260   6.823   8.311  1.00  0.00     0.195 C 
BRANCH   6  15
ATOM     15  C   UNL     1       9.806   5.194   5.885  1.00  0.00    -0.008 C 
ATOM     16  C   UNL     1       9.396   3.778   6.216  1.00  0.00     0.004 C 
ATOM     17  C   UNL     1       9.225   4.863   7.239  1.00  0.00     0.004 C 
ENDBRANCH   6  15
ENDBRANCH   4   5
ENDBRANCH   1   4
BRANCH   3  18
ATOM     18  C   UNL     1      14.094   8.705  12.048  1.00  0.00     0.053 C 
BRANCH  18  19
ATOM     19  C   UNL     1      13.710   7.256  12.197  1.00  0.00     0.074 C 
BRANCH  19  20
ATOM     20  N   UNL     1      13.439   6.441  11.232  1.00  0.00    -0.313 NA
ATOM     21  H   UNL     1      12.476   6.564  10.890  1.00  0.00     0.186 HD
ENDBRANCH  19  20
ENDBRANCH  18  19
ENDBRANCH   3  18
TORSDOF 6
ENDMDL
MODEL 7
REMARK VINA RESULT:    -3.373      4.474      5.067
REMARK INTER + INTRA:          -4.707
REMARK INTER:                  -4.460
REMARK INTRA:                  -0.247
REMARK UNBOUND:                -0.250
REMARK SMILES [H]/N=C\C[C@H]1C[C@@H]1O[C@H]1CO[C@H]2C[C@@H](C3CC3)CCN2C1
REMARK SMILES IDX 7 1 6 2 5 3 8 4 9 5 14 6 13 7 18 8 12 9 19 10 20 11 11 12
REMARK SMILES IDX 21 13 10 14 15 15 16 16 17 17 4 18 3 19 2 20 1 21
REMARK H PARENT
ROOT
ATOM      1  C   UNL     1      11.083   7.817  10.985  1.00  0.00     0.122 C 
ATOM      2  C   UNL     1      11.261   7.773  12.476  1.00  0.00     0.039 C 
ATOM      3  C   UNL     1      10.393   8.831  11.856  1.00  0.00     0.026 C 
ENDROOT
BRANCH   1   4
ATOM      4  O   UNL     1      12.248   8.269  10.268  1.00  0.00    -0.371 OA
BRANCH   4   5
ATOM      5  C   UNL     1      13.385   7.391  10.316  1.00  0.00     0.158 C 
ATOM      6  C   UNL     1      16.134   9.455   6.393  1.00  0.00    -0.003 C 
ATOM      7  C   UNL     1      14.858   8.614   6.516  1.00  0.00     0.052 C 
ATOM      8  C   UNL     1      16.255  10.375   7.616  1.00  0.00     0.019 C 
ATOM      9  C   UNL     1      14.788   7.878   7.862  1.00  0.00     0.189 C 
ATOM     10  C   UNL     1      16.143   9.587   8.921  1.00  0.00     0.087 C 
ATOM     11  N   UNL     1      14.893   8.829   8.969  1.00  0.00    -0.276 NA
ATOM     12  O   UNL     1      13.545   7.173   7.877  1.00  0.00    -0.360 OA
ATOM     13  C   UNL     1      14.730   8.136  10.252  1.00  0.00     0.121 C 
ATOM     14  C   UNL     1      13.320   6.462   9.098  1.00  0.00     0.195 C 
BRANCH   6  15
ATOM     15  C   UNL     1      16.143  10.265   5.117  1.00  0.00    -0.008 C 
ATOM     16  C   UNL     1      17.125   9.943   4.014  1.00  0.00     0.004 C 
ATOM     17  C   UNL     1      15.662   9.667   3.817  1.00  0.00     0.004 C 
ENDBRANCH   6  15
ENDBRANCH   4   5
ENDBRANCH   1   4
BRANCH   3  18
ATOM     18  C   UNL     1       8.909   8.766  12.061  1.00  0.00     0.053 C 
BRANCH  18  19
ATOM     19  C   UNL     1       8.232  10.057  12.440  1.00  0.00     0.074 C 
BRANCH  19  20
ATOM     20  N   UNL     1       7.274  10.629  11.790  1.00  0.00    -0.313 NA
ATOM     21  H   UNL     1       6.900  11.441  12.301  1.00  0.00     0.186 HD
ENDBRANCH  19  20
ENDBRANCH  18  19
ENDBRANCH   3  18
TORSDOF 6
ENDMDL
MODEL 8
REMARK VINA RESULT:    -3.261      4.458      4.941
REMARK INTER + INTRA:          -4.560
REMARK INTER:                  -4.333
REMARK INTRA:                  -0.227
REMARK UNBOUND:                -0.250
REMARK SMILES [H]/N=C\C[C@H]1C[C@@H]1O[C@H]1CO[C@H]2C[C@@H](C3CC3)CCN2C1
REMARK SMILES IDX 7 1 6 2 5 3 8 4 9 5 14 6 13 7 18 8 12 9 19 10 20 11 11 12
REMARK SMILES IDX 21 13 10 14 15 15 16 16 17 17 4 18 3 19 2 20 1 21
REMARK H PARENT
ROOT
ATOM      1  C   UNL     1      11.427   7.485  11.316  1.00  0.00     0.122 C 
ATOM      2  C   UNL     1      10.247   8.414  11.375  1.00  0.00     0.039 C 
ATOM      3  C   UNL     1      10.031   6.928  11.385  1.00  0.00     0.026 C 
ENDROOT
BRANCH   1   4
ATOM      4  O   UNL     1      12.075   7.441  10.030  1.00  0.00    -0.371 OA
BRANCH   4   5
ATOM      5  C   UNL     1      13.502   7.277  10.061  1.00  0.00     0.158 C 
ATOM      6  C   UNL     1      14.788  10.922   6.560  1.00  0.00    -0.003 C 
ATOM      7  C   UNL     1      14.135   9.536   6.512  1.00  0.00     0.052 C 
ATOM      8  C   UNL     1      14.410  11.616   7.876  1.00  0.00     0.019 C 
ATOM      9  C   UNL     1      14.454   8.712   7.768  1.00  0.00     0.189 C 
ATOM     10  C   UNL     1      14.720  10.731   9.083  1.00  0.00     0.087 C 
ATOM     11  N   UNL     1      14.047   9.438   8.971  1.00  0.00    -0.276 NA
ATOM     12  O   UNL     1      13.759   7.471   7.629  1.00  0.00    -0.360 OA
ATOM     13  C   UNL     1      14.264   8.610  10.163  1.00  0.00     0.121 C 
ATOM     14  C   UNL     1      13.933   6.604   8.754  1.00  0.00     0.195 C 
BRANCH   6  15
ATOM     15  C   UNL     1      14.378  11.770   5.377  1.00  0.00    -0.008 C 
ATOM     16  C   UNL     1      15.416  12.532   4.587  1.00  0.00     0.004 C 
ATOM     17  C   UNL     1      14.726  11.351   3.969  1.00  0.00     0.004 C 
ENDBRANCH   6  15
ENDBRANCH   4   5
ENDBRANCH   1   4
BRANCH   3  18
ATOM     18  C   UNL     1       9.540   6.273  12.641  1.00  0.00     0.053 C 
BRANCH  18  19
ATOM     19  C   UNL     1       8.983   4.881  12.493  1.00  0.00     0.074 C 
BRANCH  19  20
ATOM     20  N   UNL     1       9.584   3.786  12.822  1.00  0.00    -0.313 NA
ATOM     21  H   UNL     1       9.203   3.391  13.693  1.00  0.00     0.186 HD
ENDBRANCH  19  20
ENDBRANCH  18  19
ENDBRANCH   3  18
TORSDOF 6
ENDMDL
