MODEL 1
REMARK VINA RESULT:    -5.945      0.000      0.000
REMARK INTER + INTRA:          -7.355
REMARK INTER:                  -6.988
REMARK INTRA:                  -0.367
REMARK UNBOUND:                -0.367
REMARK SMILES Cc1ccc(CNC(=O)NC(=O)c2ccc(C)cc2)cc1
REMARK SMILES IDX 11 1 12 2 10 3 8 4 9 5 7 6 13 9 19 10 18 11 14 12 16 13
REMARK SMILES IDX 15 14 17 15 6 16 5 17 4 18 20 19 3 20 21 21 2 22 1 23
REMARK H PARENT 10 7 7 8
ROOT
ATOM      1  C   UNL     1       7.796   3.863   6.121  1.00  0.00     0.259 C 
ATOM      2  O   UNL     1       6.975   3.895   7.026  1.00  0.00    -0.269 OA
ATOM      3  N   UNL     1       9.031   4.514   6.037  1.00  0.00    -0.274 N 
ATOM      4  C   UNL     1       9.889   5.173   6.880  1.00  0.00     0.321 C 
ATOM      5  O   UNL     1      10.992   5.503   6.432  1.00  0.00    -0.248 OA
ATOM      6  N   UNL     1       9.604   5.447   8.167  1.00  0.00    -0.334 N 
ATOM      7  H   UNL     1       9.531   4.351   5.173  1.00  0.00     0.175 HD
ATOM      8  H   UNL     1      10.373   5.859   8.675  1.00  0.00     0.165 HD
ENDROOT
BRANCH   1   9
ATOM      9  C   UNL     1       7.460   3.027   4.952  1.00  0.00     0.040 A 
ATOM     10  C   UNL     1       7.036   3.595   3.749  1.00  0.00     0.014 A 
ATOM     11  C   UNL     1       6.780   2.767   2.656  1.00  0.00     0.004 A 
ATOM     12  C   UNL     1       7.572   1.640   5.084  1.00  0.00     0.014 A 
ATOM     13  C   UNL     1       6.939   1.377   2.762  1.00  0.00    -0.051 A 
ATOM     14  C   UNL     1       7.322   0.817   3.987  1.00  0.00     0.004 A 
ATOM     15  C   UNL     1       6.743   0.509   1.554  1.00  0.00     0.044 C 
ENDBRANCH   1   9
BRANCH   6  16
ATOM     16  C   UNL     1       8.434   5.063   8.905  1.00  0.00     0.153 C 
BRANCH  16  17
ATOM     17  C   UNL     1       8.512   5.132  10.405  1.00  0.00    -0.029 A 
ATOM     18  C   UNL     1       8.151   4.068  11.238  1.00  0.00     0.006 A 
ATOM     19  C   UNL     1       9.174   6.237  10.965  1.00  0.00     0.006 A 
ATOM     20  C   UNL     1       8.471   4.104  12.599  1.00  0.00     0.004 A 
ATOM     21  C   UNL     1       9.496   6.270  12.318  1.00  0.00     0.004 A 
ATOM     22  C   UNL     1       9.156   5.199  13.146  1.00  0.00    -0.051 A 
ATOM     23  C   UNL     1       9.627   5.182  14.569  1.00  0.00     0.044 C 
ENDBRANCH  16  17
ENDBRANCH   6  16
TORSDOF 3
ENDMDL
MODEL 2
REMARK VINA RESULT:    -5.930      0.533      8.061
REMARK INTER + INTRA:          -7.337
REMARK INTER:                  -6.851
REMARK INTRA:                  -0.486
REMARK UNBOUND:                -0.367
REMARK SMILES Cc1ccc(CNC(=O)NC(=O)c2ccc(C)cc2)cc1
REMARK SMILES IDX 11 1 12 2 10 3 8 4 9 5 7 6 13 9 19 10 18 11 14 12 16 13
REMARK SMILES IDX 15 14 17 15 6 16 5 17 4 18 20 19 3 20 21 21 2 22 1 23
REMARK H PARENT 10 7 7 8
ROOT
ATOM      1  C   UNL     1       8.451   4.687   8.758  1.00  0.00     0.259 C 
ATOM      2  O   UNL     1       7.394   4.192   8.391  1.00  0.00    -0.269 OA
ATOM      3  N   UNL     1       9.547   5.083   7.986  1.00  0.00    -0.274 N 
ATOM      4  C   UNL     1       9.824   5.313   6.662  1.00  0.00     0.321 C 
ATOM      5  O   UNL     1      10.924   5.802   6.383  1.00  0.00    -0.248 OA
ATOM      6  N   UNL     1       8.954   5.065   5.666  1.00  0.00    -0.334 N 
ATOM      7  H   UNL     1      10.323   5.449   8.520  1.00  0.00     0.175 HD
ATOM      8  H   UNL     1       9.277   5.369   4.759  1.00  0.00     0.165 HD
ENDROOT
BRANCH   1   9
ATOM      9  C   UNL     1       8.607   4.910  10.209  1.00  0.00     0.040 A 
ATOM     10  C   UNL     1       8.211   3.948  11.140  1.00  0.00     0.014 A 
ATOM     11  C   UNL     1       8.428   4.182  12.498  1.00  0.00     0.004 A 
ATOM     12  C   UNL     1       9.160   6.123  10.631  1.00  0.00     0.014 A 
ATOM     13  C   UNL     1       9.029   5.374  12.929  1.00  0.00    -0.051 A 
ATOM     14  C   UNL     1       9.380   6.350  11.988  1.00  0.00     0.004 A 
ATOM     15  C   UNL     1       9.332   5.574  14.385  1.00  0.00     0.044 C 
ENDBRANCH   1   9
BRANCH   6  16
ATOM     16  C   UNL     1       7.600   4.600   5.780  1.00  0.00     0.153 C 
BRANCH  16  17
ATOM     17  C   UNL     1       7.149   3.543   4.811  1.00  0.00    -0.029 A 
ATOM     18  C   UNL     1       6.634   3.838   3.545  1.00  0.00     0.006 A 
ATOM     19  C   UNL     1       7.462   2.210   5.123  1.00  0.00     0.006 A 
ATOM     20  C   UNL     1       6.460   2.816   2.605  1.00  0.00     0.004 A 
ATOM     21  C   UNL     1       7.293   1.196   4.186  1.00  0.00     0.004 A 
ATOM     22  C   UNL     1       6.800   1.492   2.914  1.00  0.00    -0.051 A 
ATOM     23  C   UNL     1       6.751   0.419   1.868  1.00  0.00     0.044 C 
ENDBRANCH  16  17
ENDBRANCH   6  16
TORSDOF 3
ENDMDL
MODEL 3
REMARK VINA RESULT:    -5.913      3.287      5.544
REMARK INTER + INTRA:          -7.317
REMARK INTER:                  -6.949
REMARK INTRA:                  -0.368
REMARK UNBOUND:                -0.367
REMARK SMILES Cc1ccc(CNC(=O)NC(=O)c2ccc(C)cc2)cc1
REMARK SMILES IDX 11 1 12 2 10 3 8 4 9 5 7 6 13 9 19 10 18 11 14 12 16 13
REMARK SMILES IDX 15 14 17 15 6 16 5 17 4 18 20 19 3 20 21 21 2 22 1 23
REMARK H PARENT 10 7 7 8
ROOT
ATOM      1  C   UNL     1       8.042   4.124   5.664  1.00  0.00     0.259 C 
ATOM      2  O   UNL     1       8.899   4.102   4.792  1.00  0.00    -0.269 OA
ATOM      3  N   UNL     1       8.180   4.442   7.019  1.00  0.00    -0.274 N 
ATOM      4  C   UNL     1       9.115   5.030   7.832  1.00  0.00     0.321 C 
ATOM      5  O   UNL     1       8.795   5.258   9.003  1.00  0.00    -0.248 OA
ATOM      6  N   UNL     1      10.341   5.396   7.413  1.00  0.00    -0.334 N 
ATOM      7  H   UNL     1       7.325   4.368   7.554  1.00  0.00     0.175 HD
ATOM      8  H   UNL     1      10.877   5.894   8.109  1.00  0.00     0.165 HD
ENDROOT
BRANCH   1   9
ATOM      9  C   UNL     1       6.669   3.777   5.251  1.00  0.00     0.040 A 
ATOM     10  C   UNL     1       6.118   2.525   5.533  1.00  0.00     0.014 A 
ATOM     11  C   UNL     1       4.798   2.261   5.168  1.00  0.00     0.004 A 
ATOM     12  C   UNL     1       5.929   4.739   4.557  1.00  0.00     0.014 A 
ATOM     13  C   UNL     1       4.029   3.239   4.517  1.00  0.00    -0.051 A 
ATOM     14  C   UNL     1       4.608   4.474   4.200  1.00  0.00     0.004 A 
ATOM     15  C   UNL     1       2.586   2.970   4.208  1.00  0.00     0.044 C 
ENDBRANCH   1   9
BRANCH   6  16
ATOM     16  C   UNL     1      10.871   5.318   6.081  1.00  0.00     0.153 C 
BRANCH  16  17
ATOM     17  C   UNL     1      12.083   6.151   5.770  1.00  0.00    -0.029 A 
ATOM     18  C   UNL     1      12.151   7.021   4.676  1.00  0.00     0.006 A 
ATOM     19  C   UNL     1      13.093   6.205   6.743  1.00  0.00     0.006 A 
ATOM     20  C   UNL     1      13.201   7.940   4.578  1.00  0.00     0.004 A 
ATOM     21  C   UNL     1      14.134   7.123   6.647  1.00  0.00     0.004 A 
ATOM     22  C   UNL     1      14.191   8.007   5.568  1.00  0.00    -0.051 A 
ATOM     23  C   UNL     1      15.236   9.082   5.543  1.00  0.00     0.044 C 
ENDBRANCH  16  17
ENDBRANCH   6  16
TORSDOF 3
ENDMDL
MODEL 4
REMARK VINA RESULT:    -5.899      3.163      7.371
REMARK INTER + INTRA:          -7.300
REMARK INTER:                  -6.809
REMARK INTRA:                  -0.491
REMARK UNBOUND:                -0.367
REMARK SMILES Cc1ccc(CNC(=O)NC(=O)c2ccc(C)cc2)cc1
REMARK SMILES IDX 11 1 12 2 10 3 8 4 9 5 7 6 13 9 19 10 18 11 14 12 16 13
REMARK SMILES IDX 15 14 17 15 6 16 5 17 4 18 20 19 3 20 21 21 2 22 1 23
REMARK H PARENT 10 7 7 8
ROOT
ATOM      1  C   UNL     1      10.515   5.472   5.915  1.00  0.00     0.259 C 
ATOM      2  O   UNL     1      10.082   4.930   4.908  1.00  0.00    -0.269 OA
ATOM      3  N   UNL     1       9.984   5.468   7.208  1.00  0.00    -0.274 N 
ATOM      4  C   UNL     1       9.037   4.769   7.912  1.00  0.00     0.321 C 
ATOM      5  O   UNL     1       8.950   4.985   9.126  1.00  0.00    -0.248 OA
ATOM      6  N   UNL     1       8.227   3.847   7.359  1.00  0.00    -0.334 N 
ATOM      7  H   UNL     1      10.513   6.010   7.878  1.00  0.00     0.175 HD
ATOM      8  H   UNL     1       7.647   3.362   8.027  1.00  0.00     0.165 HD
ENDROOT
BRANCH   1   9
ATOM      9  C   UNL     1      11.771   6.233   5.768  1.00  0.00     0.040 A 
ATOM     10  C   UNL     1      11.992   7.068   4.671  1.00  0.00     0.014 A 
ATOM     11  C   UNL     1      13.172   7.808   4.602  1.00  0.00     0.004 A 
ATOM     12  C   UNL     1      12.745   6.091   6.761  1.00  0.00     0.014 A 
ATOM     13  C   UNL     1      14.134   7.713   5.619  1.00  0.00    -0.051 A 
ATOM     14  C   UNL     1      13.920   6.838   6.691  1.00  0.00     0.004 A 
ATOM     15  C   UNL     1      15.358   8.579   5.572  1.00  0.00     0.044 C 
ENDBRANCH   1   9
BRANCH   6  16
ATOM     16  C   UNL     1       8.235   3.376   6.003  1.00  0.00     0.153 C 
BRANCH  16  17
ATOM     17  C   UNL     1       6.905   3.210   5.322  1.00  0.00    -0.029 A 
ATOM     18  C   UNL     1       6.147   2.037   5.404  1.00  0.00     0.006 A 
ATOM     19  C   UNL     1       6.321   4.358   4.763  1.00  0.00     0.006 A 
ATOM     20  C   UNL     1       4.822   2.028   4.956  1.00  0.00     0.004 A 
ATOM     21  C   UNL     1       5.001   4.348   4.322  1.00  0.00     0.004 A 
ATOM     22  C   UNL     1       4.236   3.185   4.425  1.00  0.00    -0.051 A 
ATOM     23  C   UNL     1       2.779   3.223   4.076  1.00  0.00     0.044 C 
ENDBRANCH  16  17
ENDBRANCH   6  16
TORSDOF 3
ENDMDL
MODEL 5
REMARK VINA RESULT:    -5.654      3.291      5.436
REMARK INTER + INTRA:          -7.012
REMARK INTER:                  -6.644
REMARK INTRA:                  -0.368
REMARK UNBOUND:                -0.367
REMARK SMILES Cc1ccc(CNC(=O)NC(=O)c2ccc(C)cc2)cc1
REMARK SMILES IDX 11 1 12 2 10 3 8 4 9 5 7 6 13 9 19 10 18 11 14 12 16 13
REMARK SMILES IDX 15 14 17 15 6 16 5 17 4 18 20 19 3 20 21 21 2 22 1 23
REMARK H PARENT 10 7 7 8
ROOT
ATOM      1  C   UNL     1       8.018   4.170   5.707  1.00  0.00     0.259 C 
ATOM      2  O   UNL     1       8.862   4.143   4.823  1.00  0.00    -0.269 OA
ATOM      3  N   UNL     1       8.180   4.475   7.062  1.00  0.00    -0.274 N 
ATOM      4  C   UNL     1       9.133   5.046   7.866  1.00  0.00     0.321 C 
ATOM      5  O   UNL     1       8.832   5.269   9.043  1.00  0.00    -0.248 OA
ATOM      6  N   UNL     1      10.357   5.399   7.432  1.00  0.00    -0.334 N 
ATOM      7  H   UNL     1       7.331   4.409   7.609  1.00  0.00     0.175 HD
ATOM      8  H   UNL     1      10.909   5.885   8.124  1.00  0.00     0.165 HD
ENDROOT
BRANCH   1   9
ATOM      9  C   UNL     1       6.635   3.843   5.310  1.00  0.00     0.040 A 
ATOM     10  C   UNL     1       5.850   4.748   4.594  1.00  0.00     0.014 A 
ATOM     11  C   UNL     1       4.567   4.374   4.195  1.00  0.00     0.004 A 
ATOM     12  C   UNL     1       6.124   2.595   5.680  1.00  0.00     0.014 A 
ATOM     13  C   UNL     1       4.063   3.104   4.516  1.00  0.00    -0.051 A 
ATOM     14  C   UNL     1       4.843   2.223   5.274  1.00  0.00     0.004 A 
ATOM     15  C   UNL     1       2.715   2.686   4.007  1.00  0.00     0.044 C 
ENDBRANCH   1   9
BRANCH   6  16
ATOM     16  C   UNL     1      10.868   5.324   6.093  1.00  0.00     0.153 C 
BRANCH  16  17
ATOM     17  C   UNL     1      12.075   6.158   5.766  1.00  0.00    -0.029 A 
ATOM     18  C   UNL     1      12.130   7.026   4.670  1.00  0.00     0.006 A 
ATOM     19  C   UNL     1      13.097   6.214   6.727  1.00  0.00     0.006 A 
ATOM     20  C   UNL     1      13.177   7.946   4.558  1.00  0.00     0.004 A 
ATOM     21  C   UNL     1      14.136   7.133   6.617  1.00  0.00     0.004 A 
ATOM     22  C   UNL     1      14.179   8.015   5.536  1.00  0.00    -0.051 A 
ATOM     23  C   UNL     1      15.223   9.090   5.497  1.00  0.00     0.044 C 
ENDBRANCH  16  17
ENDBRANCH   6  16
TORSDOF 3
ENDMDL
MODEL 6
REMARK VINA RESULT:    -5.611      1.153      8.040
REMARK INTER + INTRA:          -6.962
REMARK INTER:                  -6.506
REMARK INTRA:                  -0.456
REMARK UNBOUND:                -0.367
REMARK SMILES Cc1ccc(CNC(=O)NC(=O)c2ccc(C)cc2)cc1
REMARK SMILES IDX 11 1 12 2 10 3 8 4 9 5 7 6 13 9 19 10 18 11 14 12 16 13
REMARK SMILES IDX 15 14 17 15 6 16 5 17 4 18 20 19 3 20 21 21 2 22 1 23
REMARK H PARENT 10 7 7 8
ROOT
ATOM      1  C   UNL     1       8.303   4.726   8.848  1.00  0.00     0.259 C 
ATOM      2  O   UNL     1       7.173   4.372   8.544  1.00  0.00    -0.269 OA
ATOM      3  N   UNL     1       9.406   4.942   8.016  1.00  0.00    -0.274 N 
ATOM      4  C   UNL     1       9.650   5.091   6.675  1.00  0.00     0.321 C 
ATOM      5  O   UNL     1      10.793   5.412   6.332  1.00  0.00    -0.248 OA
ATOM      6  N   UNL     1       8.709   4.936   5.725  1.00  0.00    -0.334 N 
ATOM      7  H   UNL     1      10.250   5.213   8.504  1.00  0.00     0.175 HD
ATOM      8  H   UNL     1       9.028   5.165   4.795  1.00  0.00     0.165 HD
ENDROOT
BRANCH   1   9
ATOM      9  C   UNL     1       8.557   4.970  10.281  1.00  0.00     0.040 A 
ATOM     10  C   UNL     1       8.207   4.029  11.252  1.00  0.00     0.014 A 
ATOM     11  C   UNL     1       8.515   4.280  12.590  1.00  0.00     0.004 A 
ATOM     12  C   UNL     1       9.154   6.180  10.647  1.00  0.00     0.014 A 
ATOM     13  C   UNL     1       9.161   5.469  12.961  1.00  0.00    -0.051 A 
ATOM     14  C   UNL     1       9.465   6.424  11.983  1.00  0.00     0.004 A 
ATOM     15  C   UNL     1       9.561   5.687  14.390  1.00  0.00     0.044 C 
ENDBRANCH   1   9
BRANCH   6  16
ATOM     16  C   UNL     1       7.311   4.668   5.914  1.00  0.00     0.153 C 
BRANCH  16  17
ATOM     17  C   UNL     1       6.685   3.618   5.039  1.00  0.00    -0.029 A 
ATOM     18  C   UNL     1       5.853   2.608   5.533  1.00  0.00     0.006 A 
ATOM     19  C   UNL     1       6.781   3.798   3.649  1.00  0.00     0.006 A 
ATOM     20  C   UNL     1       5.114   1.814   4.650  1.00  0.00     0.004 A 
ATOM     21  C   UNL     1       6.042   3.011   2.772  1.00  0.00     0.004 A 
ATOM     22  C   UNL     1       5.194   2.018   3.265  1.00  0.00    -0.051 A 
ATOM     23  C   UNL     1       4.300   1.269   2.322  1.00  0.00     0.044 C 
ENDBRANCH  16  17
ENDBRANCH   6  16
TORSDOF 3
ENDMDL
MODEL 7
REMARK VINA RESULT:    -4.494      6.520      9.631
REMARK INTER + INTRA:          -5.649
REMARK INTER:                  -5.095
REMARK INTRA:                  -0.555
REMARK UNBOUND:                -0.367
REMARK SMILES Cc1ccc(CNC(=O)NC(=O)c2ccc(C)cc2)cc1
REMARK SMILES IDX 11 1 12 2 10 3 8 4 9 5 7 6 13 9 19 10 18 11 14 12 16 13
REMARK SMILES IDX 15 14 17 15 6 16 5 17 4 18 20 19 3 20 21 21 2 22 1 23
REMARK H PARENT 10 7 7 8
ROOT
ATOM      1  C   UNL     1      12.914   7.138  10.356  1.00  0.00     0.259 C 
ATOM      2  O   UNL     1      12.612   6.572   9.314  1.00  0.00    -0.269 OA
ATOM      3  N   UNL     1      14.176   7.278  10.942  1.00  0.00    -0.274 N 
ATOM      4  C   UNL     1      15.488   7.111  10.576  1.00  0.00     0.321 C 
ATOM      5  O   UNL     1      16.357   7.483  11.372  1.00  0.00    -0.248 OA
ATOM      6  N   UNL     1      15.871   6.597   9.392  1.00  0.00    -0.334 N 
ATOM      7  H   UNL     1      14.174   7.773  11.824  1.00  0.00     0.175 HD
ATOM      8  H   UNL     1      16.869   6.622   9.242  1.00  0.00     0.165 HD
ENDROOT
BRANCH   1   9
ATOM      9  C   UNL     1      11.813   7.769  11.108  1.00  0.00     0.040 A 
ATOM     10  C   UNL     1      12.056   8.760  12.061  1.00  0.00     0.014 A 
ATOM     11  C   UNL     1      10.979   9.365  12.709  1.00  0.00     0.004 A 
ATOM     12  C   UNL     1      10.508   7.341  10.845  1.00  0.00     0.014 A 
ATOM     13  C   UNL     1       9.663   8.978  12.415  1.00  0.00    -0.051 A 
ATOM     14  C   UNL     1       9.435   7.952  11.490  1.00  0.00     0.004 A 
ATOM     15  C   UNL     1       8.512   9.696  13.057  1.00  0.00     0.044 C 
ENDBRANCH   1   9
BRANCH   6  16
ATOM     16  C   UNL     1      15.032   6.205   8.295  1.00  0.00     0.153 C 
BRANCH  16  17
ATOM     17  C   UNL     1      15.064   7.063   7.061  1.00  0.00    -0.029 A 
ATOM     18  C   UNL     1      13.945   7.276   6.250  1.00  0.00     0.006 A 
ATOM     19  C   UNL     1      16.214   7.840   6.848  1.00  0.00     0.006 A 
ATOM     20  C   UNL     1      13.974   8.266   5.263  1.00  0.00     0.004 A 
ATOM     21  C   UNL     1      16.240   8.828   5.869  1.00  0.00     0.004 A 
ATOM     22  C   UNL     1      15.116   9.057   5.074  1.00  0.00    -0.051 A 
ATOM     23  C   UNL     1      15.105  10.212   4.118  1.00  0.00     0.044 C 
ENDBRANCH  16  17
ENDBRANCH   6  16
TORSDOF 3
ENDMDL
MODEL 8
REMARK VINA RESULT:    -4.413      2.490      3.869
REMARK INTER + INTRA:          -5.554
REMARK INTER:                  -5.204
REMARK INTRA:                  -0.350
REMARK UNBOUND:                -0.367
REMARK SMILES Cc1ccc(CNC(=O)NC(=O)c2ccc(C)cc2)cc1
REMARK SMILES IDX 11 1 12 2 10 3 8 4 9 5 7 6 13 9 19 10 18 11 14 12 16 13
REMARK SMILES IDX 15 14 17 15 6 16 5 17 4 18 20 19 3 20 21 21 2 22 1 23
REMARK H PARENT 10 7 7 8
ROOT
ATOM      1  C   UNL     1       8.798   4.849   8.096  1.00  0.00     0.259 C 
ATOM      2  O   UNL     1       9.742   5.620   8.007  1.00  0.00    -0.269 OA
ATOM      3  N   UNL     1       8.162   4.371   9.246  1.00  0.00    -0.274 N 
ATOM      4  C   UNL     1       8.119   4.679  10.582  1.00  0.00     0.321 C 
ATOM      5  O   UNL     1       7.297   4.079  11.283  1.00  0.00    -0.248 OA
ATOM      6  N   UNL     1       8.899   5.614  11.155  1.00  0.00    -0.334 N 
ATOM      7  H   UNL     1       7.411   3.719   9.067  1.00  0.00     0.175 HD
ATOM      8  H   UNL     1       8.686   5.781  12.128  1.00  0.00     0.165 HD
ENDROOT
BRANCH   1   9
ATOM      9  C   UNL     1       8.235   4.345   6.828  1.00  0.00     0.040 A 
ATOM     10  C   UNL     1       8.532   3.065   6.357  1.00  0.00     0.014 A 
ATOM     11  C   UNL     1       7.934   2.614   5.180  1.00  0.00     0.004 A 
ATOM     12  C   UNL     1       7.394   5.193   6.100  1.00  0.00     0.014 A 
ATOM     13  C   UNL     1       7.049   3.438   4.469  1.00  0.00    -0.051 A 
ATOM     14  C   UNL     1       6.795   4.736   4.928  1.00  0.00     0.004 A 
ATOM     15  C   UNL     1       6.349   2.908   3.252  1.00  0.00     0.044 C 
ENDBRANCH   1   9
BRANCH   6  16
ATOM     16  C   UNL     1       9.837   6.489  10.510  1.00  0.00     0.153 C 
BRANCH  16  17
ATOM     17  C   UNL     1      10.314   7.684  11.287  1.00  0.00    -0.029 A 
ATOM     18  C   UNL     1       9.474   8.447  12.105  1.00  0.00     0.006 A 
ATOM     19  C   UNL     1      11.700   7.900  11.349  1.00  0.00     0.006 A 
ATOM     20  C   UNL     1      10.020   9.390  12.984  1.00  0.00     0.004 A 
ATOM     21  C   UNL     1      12.242   8.834  12.226  1.00  0.00     0.004 A 
ATOM     22  C   UNL     1      11.407   9.580  13.059  1.00  0.00    -0.051 A 
ATOM     23  C   UNL     1      12.007  10.482  14.096  1.00  0.00     0.044 C 
ENDBRANCH  16  17
ENDBRANCH   6  16
TORSDOF 3
ENDMDL
