MODEL 1
REMARK VINA RESULT:    -4.184      0.000      0.000
REMARK INTER + INTRA:          -5.786
REMARK INTER:                  -5.529
REMARK INTRA:                  -0.257
REMARK UNBOUND:                -0.257
REMARK SMILES [H]/N=C\C[C@H]1C[C@@H]1O[C@H]1CO[C@H]2C[C@@H](C3CC3)CCN2C1
REMARK SMILES IDX 7 1 6 2 5 3 8 4 9 5 14 6 13 7 18 8 12 9 19 10 20 11 11 12
REMARK SMILES IDX 21 13 10 14 15 15 16 16 17 17 4 18 3 19 2 20 1 21
REMARK H PARENT
ROOT
ATOM      1  C   UNL     1      -3.719  12.254  -7.182  1.00  0.00     0.122 C 
ATOM      2  C   UNL     1      -3.182  13.049  -8.339  1.00  0.00     0.039 C 
ATOM      3  C   UNL     1      -4.328  12.101  -8.549  1.00  0.00     0.026 C 
ENDROOT
BRANCH   1   4
ATOM      4  O   UNL     1      -2.848  11.195  -6.742  1.00  0.00    -0.371 OA
BRANCH   4   5
ATOM      5  C   UNL     1      -1.720  11.608  -5.953  1.00  0.00     0.158 C 
ATOM      6  C   UNL     1      -1.898   7.873  -2.317  1.00  0.00    -0.003 C 
ATOM      7  C   UNL     1      -2.735   9.111  -2.662  1.00  0.00     0.052 C 
ATOM      8  C   UNL     1      -1.320   7.275  -3.608  1.00  0.00     0.019 C 
ATOM      9  C   UNL     1      -1.946  10.112  -3.516  1.00  0.00     0.189 C 
ATOM     10  C   UNL     1      -0.578   8.330  -4.428  1.00  0.00     0.087 C 
ATOM     11  N   UNL     1      -1.448   9.466  -4.730  1.00  0.00    -0.276 NA
ATOM     12  O   UNL     1      -2.837  11.190  -3.809  1.00  0.00    -0.360 OA
ATOM     13  C   UNL     1      -0.777  10.447  -5.590  1.00  0.00     0.121 C 
ATOM     14  C   UNL     1      -2.247  12.195  -4.640  1.00  0.00     0.195 C 
BRANCH   6  15
ATOM     15  C   UNL     1      -2.715   6.840  -1.574  1.00  0.00    -0.008 C 
ATOM     16  C   UNL     1      -2.178   6.204  -0.313  1.00  0.00     0.004 C 
ATOM     17  C   UNL     1      -3.332   7.160  -0.234  1.00  0.00     0.004 C 
ENDBRANCH   6  15
ENDBRANCH   4   5
ENDBRANCH   1   4
BRANCH   3  18
ATOM     18  C   UNL     1      -5.689  12.660  -8.837  1.00  0.00     0.053 C 
BRANCH  18  19
ATOM     19  C   UNL     1      -5.784  13.620  -9.994  1.00  0.00     0.074 C 
BRANCH  19  20
ATOM     20  N   UNL     1      -5.670  13.314 -11.244  1.00  0.00    -0.313 NA
ATOM     21  H   UNL     1      -6.584  13.315 -11.720  1.00  0.00     0.186 HD
ENDBRANCH  19  20
ENDBRANCH  18  19
ENDBRANCH   3  18
TORSDOF 6
ENDMDL
MODEL 2
REMARK VINA RESULT:    -4.182      3.284      5.523
REMARK INTER + INTRA:          -5.783
REMARK INTER:                  -5.544
REMARK INTRA:                  -0.240
REMARK UNBOUND:                -0.257
REMARK SMILES [H]/N=C\C[C@H]1C[C@@H]1O[C@H]1CO[C@H]2C[C@@H](C3CC3)CCN2C1
REMARK SMILES IDX 7 1 6 2 5 3 8 4 9 5 14 6 13 7 18 8 12 9 19 10 20 11 11 12
REMARK SMILES IDX 21 13 10 14 15 15 16 16 17 17 4 18 3 19 2 20 1 21
REMARK H PARENT
ROOT
ATOM      1  C   UNL     1      -0.855  13.800  -3.546  1.00  0.00     0.122 C 
ATOM      2  C   UNL     1      -1.466  15.142  -3.257  1.00  0.00     0.039 C 
ATOM      3  C   UNL     1      -0.283  14.671  -2.460  1.00  0.00     0.026 C 
ENDROOT
BRANCH   1   4
ATOM      4  O   UNL     1      -1.660  12.684  -3.120  1.00  0.00    -0.371 OA
BRANCH   4   5
ATOM      5  C   UNL     1      -2.791  12.383  -3.954  1.00  0.00     0.158 C 
ATOM      6  C   UNL     1      -2.390   7.182  -3.966  1.00  0.00    -0.003 C 
ATOM      7  C   UNL     1      -1.613   8.345  -4.595  1.00  0.00     0.052 C 
ATOM      8  C   UNL     1      -2.964   7.628  -2.614  1.00  0.00     0.019 C 
ATOM      9  C   UNL     1      -2.459   9.624  -4.666  1.00  0.00     0.189 C 
ATOM     10  C   UNL     1      -3.765   8.923  -2.747  1.00  0.00     0.087 C 
ATOM     11  N   UNL     1      -2.950   9.985  -3.336  1.00  0.00    -0.276 NA
ATOM     12  O   UNL     1      -1.620  10.639  -5.221  1.00  0.00    -0.360 OA
ATOM     13  C   UNL     1      -3.677  11.258  -3.390  1.00  0.00     0.121 C 
ATOM     14  C   UNL     1      -2.267  11.911  -5.314  1.00  0.00     0.195 C 
BRANCH   6  15
ATOM     15  C   UNL     1      -1.517   5.960  -3.795  1.00  0.00    -0.008 C 
ATOM     16  C   UNL     1      -2.023   4.597  -4.204  1.00  0.00     0.004 C 
ATOM     17  C   UNL     1      -0.929   5.255  -4.994  1.00  0.00     0.004 C 
ENDBRANCH   6  15
ENDBRANCH   4   5
ENDBRANCH   1   4
BRANCH   3  18
ATOM     18  C   UNL     1       1.041  15.349  -2.654  1.00  0.00     0.053 C 
BRANCH  18  19
ATOM     19  C   UNL     1       1.048  16.848  -2.508  1.00  0.00     0.074 C 
BRANCH  19  20
ATOM     20  N   UNL     1       1.000  17.501  -1.394  1.00  0.00    -0.313 NA
ATOM     21  H   UNL     1       1.919  17.533  -0.932  1.00  0.00     0.186 HD
ENDBRANCH  19  20
ENDBRANCH  18  19
ENDBRANCH   3  18
TORSDOF 6
ENDMDL
MODEL 3
REMARK VINA RESULT:    -3.967      2.686      8.611
REMARK INTER + INTRA:          -5.500
REMARK INTER:                  -5.282
REMARK INTRA:                  -0.218
REMARK UNBOUND:                -0.257
REMARK SMILES [H]/N=C\C[C@H]1C[C@@H]1O[C@H]1CO[C@H]2C[C@@H](C3CC3)CCN2C1
REMARK SMILES IDX 7 1 6 2 5 3 8 4 9 5 14 6 13 7 18 8 12 9 19 10 20 11 11 12
REMARK SMILES IDX 21 13 10 14 15 15 16 16 17 17 4 18 3 19 2 20 1 21
REMARK H PARENT
ROOT
ATOM      1  C   UNL     1      -2.644  11.618  -5.254  1.00  0.00     0.122 C 
ATOM      2  C   UNL     1      -2.299  12.343  -3.984  1.00  0.00     0.039 C 
ATOM      3  C   UNL     1      -3.489  11.428  -4.024  1.00  0.00     0.026 C 
ENDROOT
BRANCH   1   4
ATOM      4  O   UNL     1      -3.187  12.465  -6.284  1.00  0.00    -0.371 OA
BRANCH   4   5
ATOM      5  C   UNL     1      -2.848  12.097  -7.631  1.00  0.00     0.158 C 
ATOM      6  C   UNL     1      -6.408  14.964 -10.145  1.00  0.00    -0.003 C 
ATOM      7  C   UNL     1      -6.429  13.697  -9.281  1.00  0.00     0.052 C 
ATOM      8  C   UNL     1      -5.283  15.890  -9.660  1.00  0.00     0.019 C 
ATOM      9  C   UNL     1      -5.050  13.027  -9.218  1.00  0.00     0.189 C 
ATOM     10  C   UNL     1      -3.946  15.154  -9.588  1.00  0.00     0.087 C 
ATOM     11  N   UNL     1      -4.044  13.972  -8.732  1.00  0.00    -0.276 NA
ATOM     12  O   UNL     1      -5.184  11.895  -8.356  1.00  0.00    -0.360 OA
ATOM     13  C   UNL     1      -2.747  13.303  -8.582  1.00  0.00     0.121 C 
ATOM     14  C   UNL     1      -3.956  11.185  -8.169  1.00  0.00     0.195 C 
BRANCH   6  15
ATOM     15  C   UNL     1      -7.738  15.681 -10.111  1.00  0.00    -0.008 C 
ATOM     16  C   UNL     1      -8.286  16.335 -11.357  1.00  0.00     0.004 C 
ATOM     17  C   UNL     1      -8.946  15.104 -10.808  1.00  0.00     0.004 C 
ENDBRANCH   6  15
ENDBRANCH   4   5
ENDBRANCH   1   4
BRANCH   3  18
ATOM     18  C   UNL     1      -3.438  10.136  -3.265  1.00  0.00     0.053 C 
BRANCH  18  19
ATOM     19  C   UNL     1      -4.688   9.752  -2.517  1.00  0.00     0.074 C 
BRANCH  19  20
ATOM     20  N   UNL     1      -5.600  10.566  -2.099  1.00  0.00    -0.313 NA
ATOM     21  H   UNL     1      -6.178  10.142  -1.360  1.00  0.00     0.186 HD
ENDBRANCH  19  20
ENDBRANCH  18  19
ENDBRANCH   3  18
TORSDOF 6
ENDMDL
MODEL 4
REMARK VINA RESULT:    -3.772      3.555      5.011
REMARK INTER + INTRA:          -5.242
REMARK INTER:                  -5.009
REMARK INTRA:                  -0.234
REMARK UNBOUND:                -0.257
REMARK SMILES [H]/N=C\C[C@H]1C[C@@H]1O[C@H]1CO[C@H]2C[C@@H](C3CC3)CCN2C1
REMARK SMILES IDX 7 1 6 2 5 3 8 4 9 5 14 6 13 7 18 8 12 9 19 10 20 11 11 12
REMARK SMILES IDX 21 13 10 14 15 15 16 16 17 17 4 18 3 19 2 20 1 21
REMARK H PARENT
ROOT
ATOM      1  C   UNL     1      -6.388  13.467  -9.356  1.00  0.00     0.122 C 
ATOM      2  C   UNL     1      -7.861  13.471  -9.063  1.00  0.00     0.039 C 
ATOM      3  C   UNL     1      -7.059  14.728  -8.885  1.00  0.00     0.026 C 
ENDROOT
BRANCH   1   4
ATOM      4  O   UNL     1      -5.598  12.755  -8.385  1.00  0.00    -0.371 OA
BRANCH   4   5
ATOM      5  C   UNL     1      -4.310  12.309  -8.840  1.00  0.00     0.158 C 
ATOM      6  C   UNL     1      -1.691  12.766  -4.352  1.00  0.00    -0.003 C 
ATOM      7  C   UNL     1      -2.269  13.736  -5.390  1.00  0.00     0.052 C 
ATOM      8  C   UNL     1      -2.575  11.513  -4.280  1.00  0.00     0.019 C 
ATOM      9  C   UNL     1      -2.497  13.052  -6.745  1.00  0.00     0.189 C 
ATOM     10  C   UNL     1      -2.790  10.901  -5.664  1.00  0.00     0.087 C 
ATOM     11  N   UNL     1      -3.361  11.882  -6.588  1.00  0.00    -0.276 NA
ATOM     12  O   UNL     1      -3.075  14.034  -7.607  1.00  0.00    -0.360 OA
ATOM     13  C   UNL     1      -3.654  11.286  -7.896  1.00  0.00     0.121 C 
ATOM     14  C   UNL     1      -3.381  13.526  -8.909  1.00  0.00     0.195 C 
BRANCH   6  15
ATOM     15  C   UNL     1      -1.576  13.414  -2.991  1.00  0.00    -0.008 C 
ATOM     16  C   UNL     1      -0.299  14.107  -2.580  1.00  0.00     0.004 C 
ATOM     17  C   UNL     1      -1.534  14.916  -2.850  1.00  0.00     0.004 C 
ENDBRANCH   6  15
ENDBRANCH   4   5
ENDBRANCH   1   4
BRANCH   3  18
ATOM     18  C   UNL     1      -7.275  15.868  -9.834  1.00  0.00     0.053 C 
BRANCH  18  19
ATOM     19  C   UNL     1      -6.842  17.228  -9.352  1.00  0.00     0.074 C 
BRANCH  19  20
ATOM     20  N   UNL     1      -6.228  17.478  -8.244  1.00  0.00    -0.313 NA
ATOM     21  H   UNL     1      -6.383  16.735  -7.547  1.00  0.00     0.186 HD
ENDBRANCH  19  20
ENDBRANCH  18  19
ENDBRANCH   3  18
TORSDOF 6
ENDMDL
MODEL 5
REMARK VINA RESULT:    -3.492      5.076      8.335
REMARK INTER + INTRA:          -4.872
REMARK INTER:                  -4.723
REMARK INTRA:                  -0.149
REMARK UNBOUND:                -0.257
REMARK SMILES [H]/N=C\C[C@H]1C[C@@H]1O[C@H]1CO[C@H]2C[C@@H](C3CC3)CCN2C1
REMARK SMILES IDX 7 1 6 2 5 3 8 4 9 5 14 6 13 7 18 8 12 9 19 10 20 11 11 12
REMARK SMILES IDX 21 13 10 14 15 15 16 16 17 17 4 18 3 19 2 20 1 21
REMARK H PARENT
ROOT
ATOM      1  C   UNL     1      -1.996  11.847  -4.353  1.00  0.00     0.122 C 
ATOM      2  C   UNL     1      -2.506  11.580  -5.741  1.00  0.00     0.039 C 
ATOM      3  C   UNL     1      -1.241  10.923  -5.268  1.00  0.00     0.026 C 
ENDROOT
BRANCH   1   4
ATOM      4  O   UNL     1      -1.448  13.167  -4.173  1.00  0.00    -0.371 OA
BRANCH   4   5
ATOM      5  C   UNL     1      -1.824  13.834  -2.957  1.00  0.00     0.158 C 
ATOM      6  C   UNL     1       1.321  17.978  -3.332  1.00  0.00    -0.003 C 
ATOM      7  C   UNL     1       1.503  16.484  -3.036  1.00  0.00     0.052 C 
ATOM      8  C   UNL     1       0.145  18.164  -4.301  1.00  0.00     0.019 C 
ATOM      9  C   UNL     1       0.196  15.833  -2.566  1.00  0.00     0.189 C 
ATOM     10  C   UNL     1      -1.114  17.464  -3.792  1.00  0.00     0.087 C 
ATOM     11  N   UNL     1      -0.863  16.043  -3.553  1.00  0.00    -0.276 NA
ATOM     12  O   UNL     1       0.478  14.446  -2.368  1.00  0.00    -0.360 OA
ATOM     13  C   UNL     1      -2.085  15.339  -3.146  1.00  0.00     0.121 C 
ATOM     14  C   UNL     1      -0.669  13.693  -1.960  1.00  0.00     0.195 C 
BRANCH   6  15
ATOM     15  C   UNL     1       2.581  18.588  -3.903  1.00  0.00    -0.008 C 
ATOM     16  C   UNL     1       3.649  19.135  -2.985  1.00  0.00     0.004 C 
ATOM     17  C   UNL     1       3.910  17.883  -3.773  1.00  0.00     0.004 C 
ENDBRANCH   6  15
ENDBRANCH   4   5
ENDBRANCH   1   4
BRANCH   3  18
ATOM     18  C   UNL     1      -1.239   9.445  -5.016  1.00  0.00     0.053 C 
BRANCH  18  19
ATOM     19  C   UNL     1       0.104   8.764  -5.052  1.00  0.00     0.074 C 
BRANCH  19  20
ATOM     20  N   UNL     1       1.037   8.975  -5.919  1.00  0.00    -0.313 NA
ATOM     21  H   UNL     1       0.910   8.396  -6.762  1.00  0.00     0.186 HD
ENDBRANCH  19  20
ENDBRANCH  18  19
ENDBRANCH   3  18
TORSDOF 6
ENDMDL
MODEL 6
REMARK VINA RESULT:    -3.368      5.783      8.745
REMARK INTER + INTRA:          -4.707
REMARK INTER:                  -4.703
REMARK INTRA:                  -0.005
REMARK UNBOUND:                -0.257
REMARK SMILES [H]/N=C\C[C@H]1C[C@@H]1O[C@H]1CO[C@H]2C[C@@H](C3CC3)CCN2C1
REMARK SMILES IDX 7 1 6 2 5 3 8 4 9 5 14 6 13 7 18 8 12 9 19 10 20 11 11 12
REMARK SMILES IDX 21 13 10 14 15 15 16 16 17 17 4 18 3 19 2 20 1 21
REMARK H PARENT
ROOT
ATOM      1  C   UNL     1      -4.674  17.737 -12.107  1.00  0.00     0.122 C 
ATOM      2  C   UNL     1      -4.171  19.098 -11.717  1.00  0.00     0.039 C 
ATOM      3  C   UNL     1      -3.992  17.936 -10.782  1.00  0.00     0.026 C 
ENDROOT
BRANCH   1   4
ATOM      4  O   UNL     1      -6.109  17.612 -12.082  1.00  0.00    -0.371 OA
BRANCH   4   5
ATOM      5  C   UNL     1      -6.645  16.478 -12.783  1.00  0.00     0.158 C 
ATOM      6  C   UNL     1      -5.611  12.801  -9.231  1.00  0.00    -0.003 C 
ATOM      7  C   UNL     1      -4.786  13.641 -10.214  1.00  0.00     0.052 C 
ATOM      8  C   UNL     1      -6.820  13.619  -8.755  1.00  0.00     0.019 C 
ATOM      9  C   UNL     1      -5.652  14.199 -11.353  1.00  0.00     0.189 C 
ATOM     10  C   UNL     1      -7.619  14.173  -9.935  1.00  0.00     0.087 C 
ATOM     11  N   UNL     1      -6.767  14.976 -10.812  1.00  0.00    -0.276 NA
ATOM     12  O   UNL     1      -4.790  14.994 -12.169  1.00  0.00    -0.360 OA
ATOM     13  C   UNL     1      -7.537  15.587 -11.901  1.00  0.00     0.121 C 
ATOM     14  C   UNL     1      -5.472  15.617 -13.262  1.00  0.00     0.195 C 
BRANCH   6  15
ATOM     15  C   UNL     1      -4.778  12.350  -8.053  1.00  0.00    -0.008 C 
ATOM     16  C   UNL     1      -3.795  11.213  -8.203  1.00  0.00     0.004 C 
ATOM     17  C   UNL     1      -3.292  12.614  -8.009  1.00  0.00     0.004 C 
ENDBRANCH   6  15
ENDBRANCH   4   5
ENDBRANCH   1   4
BRANCH   3  18
ATOM     18  C   UNL     1      -2.613  17.394 -10.553  1.00  0.00     0.053 C 
BRANCH  18  19
ATOM     19  C   UNL     1      -2.430  16.535  -9.328  1.00  0.00     0.074 C 
BRANCH  19  20
ATOM     20  N   UNL     1      -1.657  16.797  -8.328  1.00  0.00    -0.313 NA
ATOM     21  H   UNL     1      -0.817  17.314  -8.623  1.00  0.00     0.186 HD
ENDBRANCH  19  20
ENDBRANCH  18  19
ENDBRANCH   3  18
TORSDOF 6
ENDMDL
MODEL 7
REMARK VINA RESULT:    -3.337      1.652      2.092
REMARK INTER + INTRA:          -4.667
REMARK INTER:                  -5.286
REMARK INTRA:                   0.619
REMARK UNBOUND:                -0.257
REMARK SMILES [H]/N=C\C[C@H]1C[C@@H]1O[C@H]1CO[C@H]2C[C@@H](C3CC3)CCN2C1
REMARK SMILES IDX 7 1 6 2 5 3 8 4 9 5 14 6 13 7 18 8 12 9 19 10 20 11 11 12
REMARK SMILES IDX 21 13 10 14 15 15 16 16 17 17 4 18 3 19 2 20 1 21
REMARK H PARENT
ROOT
ATOM      1  C   UNL     1      -3.460  12.309  -7.295  1.00  0.00     0.122 C 
ATOM      2  C   UNL     1      -3.317  11.353  -8.446  1.00  0.00     0.039 C 
ATOM      3  C   UNL     1      -4.570  12.168  -8.301  1.00  0.00     0.026 C 
ENDROOT
BRANCH   1   4
ATOM      4  O   UNL     1      -3.660  11.668  -6.021  1.00  0.00    -0.371 OA
BRANCH   4   5
ATOM      5  C   UNL     1      -2.777  12.091  -4.969  1.00  0.00     0.158 C 
ATOM      6  C   UNL     1      -0.813   7.437  -3.672  1.00  0.00    -0.003 C 
ATOM      7  C   UNL     1      -2.161   8.147  -3.498  1.00  0.00     0.052 C 
ATOM      8  C   UNL     1      -0.164   7.896  -4.985  1.00  0.00     0.019 C 
ATOM      9  C   UNL     1      -2.023   9.670  -3.628  1.00  0.00     0.189 C 
ATOM     10  C   UNL     1      -0.088   9.420  -5.067  1.00  0.00     0.087 C 
ATOM     11  N   UNL     1      -1.413  10.020  -4.911  1.00  0.00    -0.276 NA
ATOM     12  O   UNL     1      -3.339  10.212  -3.495  1.00  0.00    -0.360 OA
ATOM     13  C   UNL     1      -1.370  11.477  -5.074  1.00  0.00     0.121 C 
ATOM     14  C   UNL     1      -3.375  11.636  -3.634  1.00  0.00     0.195 C 
BRANCH   6  15
ATOM     15  C   UNL     1      -0.973   5.933  -3.656  1.00  0.00    -0.008 C 
ATOM     16  C   UNL     1      -2.310   5.304  -3.968  1.00  0.00     0.004 C 
ATOM     17  C   UNL     1      -1.174   5.163  -4.939  1.00  0.00     0.004 C 
ENDBRANCH   6  15
ENDBRANCH   4   5
ENDBRANCH   1   4
BRANCH   3  18
ATOM     18  C   UNL     1      -4.841  13.266  -9.286  1.00  0.00     0.053 C 
BRANCH  18  19
ATOM     19  C   UNL     1      -6.290  13.594  -9.535  1.00  0.00     0.074 C 
BRANCH  19  20
ATOM     20  N   UNL     1      -7.260  13.421  -8.700  1.00  0.00    -0.313 NA
ATOM     21  H   UNL     1      -7.509  14.298  -8.220  1.00  0.00     0.186 HD
ENDBRANCH  19  20
ENDBRANCH  18  19
ENDBRANCH   3  18
TORSDOF 6
ENDMDL
MODEL 8
REMARK VINA RESULT:    -3.200      7.585     10.520
REMARK INTER + INTRA:          -4.485
REMARK INTER:                  -4.440
REMARK INTRA:                  -0.045
REMARK UNBOUND:                -0.257
REMARK SMILES [H]/N=C\C[C@H]1C[C@@H]1O[C@H]1CO[C@H]2C[C@@H](C3CC3)CCN2C1
REMARK SMILES IDX 7 1 6 2 5 3 8 4 9 5 14 6 13 7 18 8 12 9 19 10 20 11 11 12
REMARK SMILES IDX 21 13 10 14 15 15 16 16 17 17 4 18 3 19 2 20 1 21
REMARK H PARENT
ROOT
ATOM      1  C   UNL     1      -2.071  18.008  -5.805  1.00  0.00     0.122 C 
ATOM      2  C   UNL     1      -2.563  19.129  -4.932  1.00  0.00     0.039 C 
ATOM      3  C   UNL     1      -2.468  17.735  -4.380  1.00  0.00     0.026 C 
ENDROOT
BRANCH   1   4
ATOM      4  O   UNL     1      -3.006  17.604  -6.823  1.00  0.00    -0.371 OA
BRANCH   4   5
ATOM      5  C   UNL     1      -2.551  17.760  -8.178  1.00  0.00     0.158 C 
ATOM      6  C   UNL     1      -7.015  16.643 -10.634  1.00  0.00    -0.003 C 
ATOM      7  C   UNL     1      -5.963  15.847  -9.852  1.00  0.00     0.052 C 
ATOM      8  C   UNL     1      -7.115  18.060 -10.052  1.00  0.00     0.019 C 
ATOM      9  C   UNL     1      -4.622  16.590  -9.782  1.00  0.00     0.189 C 
ATOM     10  C   UNL     1      -5.744  18.731  -9.978  1.00  0.00     0.087 C 
ATOM     11  N   UNL     1      -4.806  17.921  -9.201  1.00  0.00    -0.276 NA
ATOM     12  O   UNL     1      -3.746  15.779  -8.997  1.00  0.00    -0.360 OA
ATOM     13  C   UNL     1      -3.510  18.592  -9.047  1.00  0.00     0.121 C 
ATOM     14  C   UNL     1      -2.455  16.368  -8.810  1.00  0.00     0.195 C 
BRANCH   6  15
ATOM     15  C   UNL     1      -8.364  15.960 -10.602  1.00  0.00    -0.008 C 
ATOM     16  C   UNL     1      -9.095  15.653 -11.888  1.00  0.00     0.004 C 
ATOM     17  C   UNL     1      -8.519  14.533 -11.070  1.00  0.00     0.004 C 
ENDBRANCH   6  15
ENDBRANCH   4   5
ENDBRANCH   1   4
BRANCH   3  18
ATOM     18  C   UNL     1      -1.423  17.431  -3.349  1.00  0.00     0.053 C 
BRANCH  18  19
ATOM     19  C   UNL     1      -0.816  18.618  -2.645  1.00  0.00     0.074 C 
BRANCH  19  20
ATOM     20  N   UNL     1       0.126  18.575  -1.763  1.00  0.00    -0.313 NA
ATOM     21  H   UNL     1       0.011  17.775  -1.124  1.00  0.00     0.186 HD
ENDBRANCH  19  20
ENDBRANCH  18  19
ENDBRANCH   3  18
TORSDOF 6
ENDMDL
