MODEL 1
REMARK VINA RESULT:    -6.179      0.000      0.000
REMARK INTER + INTRA:          -7.631
REMARK INTER:                  -7.262
REMARK INTRA:                  -0.369
REMARK UNBOUND:                -0.369
REMARK SMILES Cc1ccc(CNC(=O)NC(=O)c2ccc(C)cc2)cc1
REMARK SMILES IDX 11 1 12 2 10 3 8 4 9 5 7 6 13 9 19 10 18 11 14 12 16 13
REMARK SMILES IDX 15 14 17 15 6 16 5 17 4 18 20 19 3 20 21 21 2 22 1 23
REMARK H PARENT 10 7 7 8
ROOT
ATOM      1  C   UNL     1      -2.401  10.253  -4.394  1.00  0.00     0.259 C 
ATOM      2  O   UNL     1      -2.643   9.811  -5.507  1.00  0.00    -0.269 OA
ATOM      3  N   UNL     1      -2.039  11.554  -4.028  1.00  0.00    -0.274 N 
ATOM      4  C   UNL     1      -2.035  12.802  -4.596  1.00  0.00     0.321 C 
ATOM      5  O   UNL     1      -1.751  13.761  -3.871  1.00  0.00    -0.248 OA
ATOM      6  N   UNL     1      -2.352  13.035  -5.884  1.00  0.00    -0.334 N 
ATOM      7  H   UNL     1      -1.867  11.677  -3.039  1.00  0.00     0.175 HD
ATOM      8  H   UNL     1      -2.385  14.015  -6.123  1.00  0.00     0.165 HD
ENDROOT
BRANCH   1   9
ATOM      9  C   UNL     1      -2.504   9.304  -3.269  1.00  0.00     0.040 A 
ATOM     10  C   UNL     1      -1.368   8.736  -2.690  1.00  0.00     0.014 A 
ATOM     11  C   UNL     1      -1.512   7.884  -1.594  1.00  0.00     0.004 A 
ATOM     12  C   UNL     1      -3.780   8.980  -2.797  1.00  0.00     0.014 A 
ATOM     13  C   UNL     1      -2.785   7.593  -1.081  1.00  0.00    -0.051 A 
ATOM     14  C   UNL     1      -3.919   8.134  -1.699  1.00  0.00     0.004 A 
ATOM     15  C   UNL     1      -2.918   6.744   0.149  1.00  0.00     0.044 C 
ENDBRANCH   1   9
BRANCH   6  16
ATOM     16  C   UNL     1      -2.806  12.085  -6.860  1.00  0.00     0.153 C 
BRANCH  16  17
ATOM     17  C   UNL     1      -3.501  12.626  -8.078  1.00  0.00    -0.029 A 
ATOM     18  C   UNL     1      -4.758  12.181  -8.500  1.00  0.00     0.006 A 
ATOM     19  C   UNL     1      -2.948  13.768  -8.680  1.00  0.00     0.006 A 
ATOM     20  C   UNL     1      -5.454  12.885  -9.489  1.00  0.00     0.004 A 
ATOM     21  C   UNL     1      -3.643  14.469  -9.660  1.00  0.00     0.004 A 
ATOM     22  C   UNL     1      -4.907  14.040 -10.066  1.00  0.00    -0.051 A 
ATOM     23  C   UNL     1      -5.704  14.877 -11.021  1.00  0.00     0.044 C 
ENDBRANCH  16  17
ENDBRANCH   6  16
TORSDOF 3
ENDMDL
MODEL 2
REMARK VINA RESULT:    -6.168      0.526      8.079
REMARK INTER + INTRA:          -7.618
REMARK INTER:                  -7.147
REMARK INTRA:                  -0.471
REMARK UNBOUND:                -0.369
REMARK SMILES Cc1ccc(CNC(=O)NC(=O)c2ccc(C)cc2)cc1
REMARK SMILES IDX 11 1 12 2 10 3 8 4 9 5 7 6 13 9 19 10 18 11 14 12 16 13
REMARK SMILES IDX 15 14 17 15 6 16 5 17 4 18 20 19 3 20 21 21 2 22 1 23
REMARK H PARENT 10 7 7 8
ROOT
ATOM      1  C   UNL     1      -3.164  11.971  -6.690  1.00  0.00     0.259 C 
ATOM      2  O   UNL     1      -3.269  10.754  -6.645  1.00  0.00    -0.269 OA
ATOM      3  N   UNL     1      -2.617  12.838  -5.739  1.00  0.00    -0.274 N 
ATOM      4  C   UNL     1      -1.836  12.748  -4.615  1.00  0.00     0.321 C 
ATOM      5  O   UNL     1      -1.440  13.801  -4.106  1.00  0.00    -0.248 OA
ATOM      6  N   UNL     1      -1.458  11.579  -4.064  1.00  0.00    -0.334 N 
ATOM      7  H   UNL     1      -2.662  13.817  -5.992  1.00  0.00     0.175 HD
ATOM      8  H   UNL     1      -0.814  11.683  -3.293  1.00  0.00     0.165 HD
ENDROOT
BRANCH   1   9
ATOM      9  C   UNL     1      -3.673  12.634  -7.906  1.00  0.00     0.040 A 
ATOM     10  C   UNL     1      -4.874  12.241  -8.501  1.00  0.00     0.014 A 
ATOM     11  C   UNL     1      -5.341  12.932  -9.619  1.00  0.00     0.004 A 
ATOM     12  C   UNL     1      -2.911  13.669  -8.458  1.00  0.00     0.014 A 
ATOM     13  C   UNL     1      -4.610  14.006 -10.150  1.00  0.00    -0.051 A 
ATOM     14  C   UNL     1      -3.385  14.360  -9.572  1.00  0.00     0.004 A 
ATOM     15  C   UNL     1      -5.167  14.792 -11.300  1.00  0.00     0.044 C 
ENDBRANCH   1   9
BRANCH   6  16
ATOM     16  C   UNL     1      -1.718  10.255  -4.554  1.00  0.00     0.153 C 
BRANCH  16  17
ATOM     17  C   UNL     1      -2.054   9.198  -3.539  1.00  0.00    -0.029 A 
ATOM     18  C   UNL     1      -1.083   8.466  -2.848  1.00  0.00     0.006 A 
ATOM     19  C   UNL     1      -3.394   9.104  -3.128  1.00  0.00     0.006 A 
ATOM     20  C   UNL     1      -1.449   7.677  -1.753  1.00  0.00     0.004 A 
ATOM     21  C   UNL     1      -3.756   8.323  -2.035  1.00  0.00     0.004 A 
ATOM     22  C   UNL     1      -2.784   7.610  -1.331  1.00  0.00    -0.051 A 
ATOM     23  C   UNL     1      -3.161   6.882  -0.076  1.00  0.00     0.044 C 
ENDBRANCH  16  17
ENDBRANCH   6  16
TORSDOF 3
ENDMDL
MODEL 3
REMARK VINA RESULT:    -6.164      3.158      7.355
REMARK INTER + INTRA:          -7.615
REMARK INTER:                  -7.143
REMARK INTRA:                  -0.471
REMARK UNBOUND:                -0.369
REMARK SMILES Cc1ccc(CNC(=O)NC(=O)c2ccc(C)cc2)cc1
REMARK SMILES IDX 11 1 12 2 10 3 8 4 9 5 7 6 13 9 19 10 18 11 14 12 16 13
REMARK SMILES IDX 15 14 17 15 6 16 5 17 4 18 20 19 3 20 21 21 2 22 1 23
REMARK H PARENT 10 7 7 8
ROOT
ATOM      1  C   UNL     1      -1.388  13.244  -3.707  1.00  0.00     0.259 C 
ATOM      2  O   UNL     1      -1.241  12.349  -2.886  1.00  0.00    -0.269 OA
ATOM      3  N   UNL     1      -1.943  13.173  -4.989  1.00  0.00    -0.274 N 
ATOM      4  C   UNL     1      -2.697  12.291  -5.719  1.00  0.00     0.321 C 
ATOM      5  O   UNL     1      -3.116  12.668  -6.819  1.00  0.00    -0.248 OA
ATOM      6  N   UNL     1      -3.024  11.058  -5.290  1.00  0.00    -0.334 N 
ATOM      7  H   UNL     1      -1.937  14.049  -5.495  1.00  0.00     0.175 HD
ATOM      8  H   UNL     1      -3.654  10.566  -5.907  1.00  0.00     0.165 HD
ENDROOT
BRANCH   1   9
ATOM      9  C   UNL     1      -0.927  14.588  -3.309  1.00  0.00     0.040 A 
ATOM     10  C   UNL     1       0.276  14.772  -2.626  1.00  0.00     0.014 A 
ATOM     11  C   UNL     1       0.696  16.067  -2.317  1.00  0.00     0.004 A 
ATOM     12  C   UNL     1      -1.738  15.681  -3.630  1.00  0.00     0.014 A 
ATOM     13  C   UNL     1      -0.085  17.174  -2.680  1.00  0.00    -0.051 A 
ATOM     14  C   UNL     1      -1.312  16.973  -3.325  1.00  0.00     0.004 A 
ATOM     15  C   UNL     1       0.420  18.562  -2.416  1.00  0.00     0.044 C 
ENDBRANCH   1   9
BRANCH   6  16
ATOM     16  C   UNL     1      -2.729  10.468  -4.014  1.00  0.00     0.153 C 
BRANCH  16  17
ATOM     17  C   UNL     1      -2.331   9.018  -4.000  1.00  0.00    -0.029 A 
ATOM     18  C   UNL     1      -3.258   7.972  -3.937  1.00  0.00     0.006 A 
ATOM     19  C   UNL     1      -0.987   8.718  -4.275  1.00  0.00     0.006 A 
ATOM     20  C   UNL     1      -2.845   6.656  -4.169  1.00  0.00     0.004 A 
ATOM     21  C   UNL     1      -0.578   7.409  -4.510  1.00  0.00     0.004 A 
ATOM     22  C   UNL     1      -1.506   6.367  -4.470  1.00  0.00    -0.051 A 
ATOM     23  C   UNL     1      -1.084   4.982  -4.859  1.00  0.00     0.044 C 
ENDBRANCH  16  17
ENDBRANCH   6  16
TORSDOF 3
ENDMDL
MODEL 4
REMARK VINA RESULT:    -6.149      3.269      5.528
REMARK INTER + INTRA:          -7.596
REMARK INTER:                  -7.229
REMARK INTRA:                  -0.367
REMARK UNBOUND:                -0.369
REMARK SMILES Cc1ccc(CNC(=O)NC(=O)c2ccc(C)cc2)cc1
REMARK SMILES IDX 11 1 12 2 10 3 8 4 9 5 7 6 13 9 19 10 18 11 14 12 16 13
REMARK SMILES IDX 15 14 17 15 6 16 5 17 4 18 20 19 3 20 21 21 2 22 1 23
REMARK H PARENT 10 7 7 8
ROOT
ATOM      1  C   UNL     1      -2.038  10.370  -4.130  1.00  0.00     0.259 C 
ATOM      2  O   UNL     1      -1.793  10.843  -3.029  1.00  0.00    -0.269 OA
ATOM      3  N   UNL     1      -2.445  11.029  -5.295  1.00  0.00    -0.274 N 
ATOM      4  C   UNL     1      -2.504  12.317  -5.763  1.00  0.00     0.321 C 
ATOM      5  O   UNL     1      -2.815  12.483  -6.947  1.00  0.00    -0.248 OA
ATOM      6  N   UNL     1      -2.213  13.395  -5.012  1.00  0.00    -0.334 N 
ATOM      7  H   UNL     1      -2.609  10.418  -6.084  1.00  0.00     0.175 HD
ATOM      8  H   UNL     1      -2.220  14.264  -5.528  1.00  0.00     0.165 HD
ENDROOT
BRANCH   1   9
ATOM      9  C   UNL     1      -1.884   8.910  -4.271  1.00  0.00     0.040 A 
ATOM     10  C   UNL     1      -2.991   8.058  -4.270  1.00  0.00     0.014 A 
ATOM     11  C   UNL     1      -2.800   6.689  -4.458  1.00  0.00     0.004 A 
ATOM     12  C   UNL     1      -0.591   8.395  -4.399  1.00  0.00     0.014 A 
ATOM     13  C   UNL     1      -1.510   6.168  -4.640  1.00  0.00    -0.051 A 
ATOM     14  C   UNL     1      -0.405   7.027  -4.594  1.00  0.00     0.004 A 
ATOM     15  C   UNL     1      -1.328   4.706  -4.927  1.00  0.00     0.044 C 
ENDBRANCH   1   9
BRANCH   6  16
ATOM     16  C   UNL     1      -1.735  13.418  -3.659  1.00  0.00     0.153 C 
BRANCH  16  17
ATOM     17  C   UNL     1      -1.096  14.689  -3.173  1.00  0.00    -0.029 A 
ATOM     18  C   UNL     1       0.172  14.730  -2.584  1.00  0.00     0.006 A 
ATOM     19  C   UNL     1      -1.719  15.897  -3.525  1.00  0.00     0.006 A 
ATOM     20  C   UNL     1       0.808  15.958  -2.376  1.00  0.00     0.004 A 
ATOM     21  C   UNL     1      -1.083  17.118  -3.322  1.00  0.00     0.004 A 
ATOM     22  C   UNL     1       0.191  17.158  -2.755  1.00  0.00    -0.051 A 
ATOM     23  C   UNL     1       0.924  18.464  -2.667  1.00  0.00     0.044 C 
ENDBRANCH  16  17
ENDBRANCH   6  16
TORSDOF 3
ENDMDL
MODEL 5
REMARK VINA RESULT:    -5.868      1.174      8.046
REMARK INTER + INTRA:          -7.266
REMARK INTER:                  -6.863
REMARK INTRA:                  -0.403
REMARK UNBOUND:                -0.369
REMARK SMILES Cc1ccc(CNC(=O)NC(=O)c2ccc(C)cc2)cc1
REMARK SMILES IDX 11 1 12 2 10 3 8 4 9 5 7 6 13 9 19 10 18 11 14 12 16 13
REMARK SMILES IDX 15 14 17 15 6 16 5 17 4 18 20 19 3 20 21 21 2 22 1 23
REMARK H PARENT 10 7 7 8
ROOT
ATOM      1  C   UNL     1      -3.114  12.067  -7.019  1.00  0.00     0.259 C 
ATOM      2  O   UNL     1      -3.030  10.849  -7.099  1.00  0.00    -0.269 OA
ATOM      3  N   UNL     1      -2.738  12.903  -5.963  1.00  0.00    -0.274 N 
ATOM      4  C   UNL     1      -1.988  12.815  -4.819  1.00  0.00     0.321 C 
ATOM      5  O   UNL     1      -1.776  13.857  -4.190  1.00  0.00    -0.248 OA
ATOM      6  N   UNL     1      -1.450  11.666  -4.368  1.00  0.00    -0.334 N 
ATOM      7  H   UNL     1      -2.925  13.884  -6.121  1.00  0.00     0.175 HD
ATOM      8  H   UNL     1      -0.855  11.785  -3.561  1.00  0.00     0.165 HD
ENDROOT
BRANCH   1   9
ATOM      9  C   UNL     1      -3.681  12.768  -8.187  1.00  0.00     0.040 A 
ATOM     10  C   UNL     1      -4.900  12.381  -8.747  1.00  0.00     0.014 A 
ATOM     11  C   UNL     1      -5.422  13.108  -9.818  1.00  0.00     0.004 A 
ATOM     12  C   UNL     1      -2.956  13.833  -8.729  1.00  0.00     0.014 A 
ATOM     13  C   UNL     1      -4.727  14.211 -10.336  1.00  0.00    -0.051 A 
ATOM     14  C   UNL     1      -3.484  14.560  -9.795  1.00  0.00     0.004 A 
ATOM     15  C   UNL     1      -5.341  15.032 -11.431  1.00  0.00     0.044 C 
ENDBRANCH   1   9
BRANCH   6  16
ATOM     16  C   UNL     1      -1.487  10.376  -4.996  1.00  0.00     0.153 C 
BRANCH  16  17
ATOM     17  C   UNL     1      -1.597   9.174  -4.099  1.00  0.00    -0.029 A 
ATOM     18  C   UNL     1      -2.678   8.961  -3.237  1.00  0.00     0.006 A 
ATOM     19  C   UNL     1      -0.675   8.134  -4.301  1.00  0.00     0.006 A 
ATOM     20  C   UNL     1      -2.841   7.720  -2.612  1.00  0.00     0.004 A 
ATOM     21  C   UNL     1      -0.841   6.899  -3.683  1.00  0.00     0.004 A 
ATOM     22  C   UNL     1      -1.931   6.677  -2.840  1.00  0.00    -0.051 A 
ATOM     23  C   UNL     1      -2.177   5.305  -2.289  1.00  0.00     0.044 C 
ENDBRANCH  16  17
ENDBRANCH   6  16
TORSDOF 3
ENDMDL
MODEL 6
REMARK VINA RESULT:    -5.637      0.365      1.102
REMARK INTER + INTRA:          -6.995
REMARK INTER:                  -6.606
REMARK INTRA:                  -0.389
REMARK UNBOUND:                -0.369
REMARK SMILES Cc1ccc(CNC(=O)NC(=O)c2ccc(C)cc2)cc1
REMARK SMILES IDX 11 1 12 2 10 3 8 4 9 5 7 6 13 9 19 10 18 11 14 12 16 13
REMARK SMILES IDX 15 14 17 15 6 16 5 17 4 18 20 19 3 20 21 21 2 22 1 23
REMARK H PARENT 10 7 7 8
ROOT
ATOM      1  C   UNL     1      -2.350  10.345  -4.382  1.00  0.00     0.259 C 
ATOM      2  O   UNL     1      -2.638   9.961  -5.507  1.00  0.00    -0.269 OA
ATOM      3  N   UNL     1      -1.909  11.608  -3.975  1.00  0.00    -0.274 N 
ATOM      4  C   UNL     1      -1.848  12.876  -4.494  1.00  0.00     0.321 C 
ATOM      5  O   UNL     1      -1.497  13.789  -3.738  1.00  0.00    -0.248 OA
ATOM      6  N   UNL     1      -2.176  13.177  -5.764  1.00  0.00    -0.334 N 
ATOM      7  H   UNL     1      -1.711  11.682  -2.986  1.00  0.00     0.175 HD
ATOM      8  H   UNL     1      -2.160  14.167  -5.965  1.00  0.00     0.165 HD
ENDROOT
BRANCH   1   9
ATOM      9  C   UNL     1      -2.483   9.359  -3.293  1.00  0.00     0.040 A 
ATOM     10  C   UNL     1      -1.365   8.744  -2.727  1.00  0.00     0.014 A 
ATOM     11  C   UNL     1      -1.537   7.858  -1.663  1.00  0.00     0.004 A 
ATOM     12  C   UNL     1      -3.770   9.047  -2.843  1.00  0.00     0.014 A 
ATOM     13  C   UNL     1      -2.820   7.577  -1.170  1.00  0.00    -0.051 A 
ATOM     14  C   UNL     1      -3.937   8.166  -1.776  1.00  0.00     0.004 A 
ATOM     15  C   UNL     1      -2.982   6.688   0.028  1.00  0.00     0.044 C 
ENDBRANCH   1   9
BRANCH   6  16
ATOM     16  C   UNL     1      -2.701  12.293  -6.766  1.00  0.00     0.153 C 
BRANCH  16  17
ATOM     17  C   UNL     1      -3.597  12.892  -7.814  1.00  0.00    -0.029 A 
ATOM     18  C   UNL     1      -3.170  13.875  -8.712  1.00  0.00     0.006 A 
ATOM     19  C   UNL     1      -4.844  12.279  -8.021  1.00  0.00     0.006 A 
ATOM     20  C   UNL     1      -3.968  14.216  -9.809  1.00  0.00     0.004 A 
ATOM     21  C   UNL     1      -5.635  12.616  -9.115  1.00  0.00     0.004 A 
ATOM     22  C   UNL     1      -5.199  13.581 -10.025  1.00  0.00    -0.051 A 
ATOM     23  C   UNL     1      -5.992  13.837 -11.272  1.00  0.00     0.044 C 
ENDBRANCH  16  17
ENDBRANCH   6  16
TORSDOF 3
ENDMDL
MODEL 7
REMARK VINA RESULT:    -4.625      2.266      3.953
REMARK INTER + INTRA:          -5.805
REMARK INTER:                  -5.362
REMARK INTRA:                  -0.444
REMARK UNBOUND:                -0.369
REMARK SMILES Cc1ccc(CNC(=O)NC(=O)c2ccc(C)cc2)cc1
REMARK SMILES IDX 11 1 12 2 10 3 8 4 9 5 7 6 13 9 19 10 18 11 14 12 16 13
REMARK SMILES IDX 15 14 17 15 6 16 5 17 4 18 20 19 3 20 21 21 2 22 1 23
REMARK H PARENT 10 7 7 8
ROOT
ATOM      1  C   UNL     1      -3.162  12.200  -7.334  1.00  0.00     0.259 C 
ATOM      2  O   UNL     1      -3.871  11.578  -8.112  1.00  0.00    -0.269 OA
ATOM      3  N   UNL     1      -2.659  13.499  -7.455  1.00  0.00    -0.274 N 
ATOM      4  C   UNL     1      -2.887  14.605  -8.234  1.00  0.00     0.321 C 
ATOM      5  O   UNL     1      -2.302  15.651  -7.930  1.00  0.00    -0.248 OA
ATOM      6  N   UNL     1      -3.729  14.616  -9.284  1.00  0.00    -0.334 N 
ATOM      7  H   UNL     1      -2.072  13.793  -6.686  1.00  0.00     0.175 HD
ATOM      8  H   UNL     1      -3.850  15.528  -9.699  1.00  0.00     0.165 HD
ENDROOT
BRANCH   1   9
ATOM      9  C   UNL     1      -2.778  11.505  -6.090  1.00  0.00     0.040 A 
ATOM     10  C   UNL     1      -3.561  11.588  -4.938  1.00  0.00     0.014 A 
ATOM     11  C   UNL     1      -3.185  10.871  -3.802  1.00  0.00     0.004 A 
ATOM     12  C   UNL     1      -1.594  10.760  -6.093  1.00  0.00     0.014 A 
ATOM     13  C   UNL     1      -2.026  10.079  -3.811  1.00  0.00    -0.051 A 
ATOM     14  C   UNL     1      -1.225  10.040  -4.959  1.00  0.00     0.004 A 
ATOM     15  C   UNL     1      -1.681   9.247  -2.611  1.00  0.00     0.044 C 
ENDBRANCH   1   9
BRANCH   6  16
ATOM     16  C   UNL     1      -4.576  13.549  -9.738  1.00  0.00     0.153 C 
BRANCH  16  17
ATOM     17  C   UNL     1      -5.992  13.899 -10.100  1.00  0.00    -0.029 A 
ATOM     18  C   UNL     1      -6.917  14.393  -9.174  1.00  0.00     0.006 A 
ATOM     19  C   UNL     1      -6.320  13.924 -11.465  1.00  0.00     0.006 A 
ATOM     20  C   UNL     1      -8.134  14.924  -9.615  1.00  0.00     0.004 A 
ATOM     21  C   UNL     1      -7.529  14.457 -11.903  1.00  0.00     0.004 A 
ATOM     22  C   UNL     1      -8.442  14.971 -10.982  1.00  0.00    -0.051 A 
ATOM     23  C   UNL     1      -9.678  15.666 -11.471  1.00  0.00     0.044 C 
ENDBRANCH  16  17
ENDBRANCH   6  16
TORSDOF 3
ENDMDL
MODEL 8
REMARK VINA RESULT:    -4.558      5.018      8.064
REMARK INTER + INTRA:          -5.727
REMARK INTER:                  -5.123
REMARK INTRA:                  -0.604
REMARK UNBOUND:                -0.369
REMARK SMILES Cc1ccc(CNC(=O)NC(=O)c2ccc(C)cc2)cc1
REMARK SMILES IDX 11 1 12 2 10 3 8 4 9 5 7 6 13 9 19 10 18 11 14 12 16 13
REMARK SMILES IDX 15 14 17 15 6 16 5 17 4 18 20 19 3 20 21 21 2 22 1 23
REMARK H PARENT 10 7 7 8
ROOT
ATOM      1  C   UNL     1      -5.018  14.555 -10.949  1.00  0.00     0.259 C 
ATOM      2  O   UNL     1      -5.749  13.922 -11.697  1.00  0.00    -0.269 OA
ATOM      3  N   UNL     1      -4.623  15.893 -11.036  1.00  0.00    -0.274 N 
ATOM      4  C   UNL     1      -5.000  17.018 -11.725  1.00  0.00     0.321 C 
ATOM      5  O   UNL     1      -4.467  18.088 -11.411  1.00  0.00    -0.248 OA
ATOM      6  N   UNL     1      -5.934  17.019 -12.694  1.00  0.00    -0.334 N 
ATOM      7  H   UNL     1      -3.990  16.190 -10.306  1.00  0.00     0.175 HD
ATOM      8  H   UNL     1      -6.158  17.941 -13.042  1.00  0.00     0.165 HD
ENDROOT
BRANCH   1   9
ATOM      9  C   UNL     1      -4.472  13.826  -9.788  1.00  0.00     0.040 A 
ATOM     10  C   UNL     1      -5.153  12.749  -9.218  1.00  0.00     0.014 A 
ATOM     11  C   UNL     1      -4.572  12.058  -8.154  1.00  0.00     0.004 A 
ATOM     12  C   UNL     1      -3.247  14.251  -9.263  1.00  0.00     0.014 A 
ATOM     13  C   UNL     1      -3.319  12.444  -7.654  1.00  0.00    -0.051 A 
ATOM     14  C   UNL     1      -2.667  13.554  -8.205  1.00  0.00     0.004 A 
ATOM     15  C   UNL     1      -2.669  11.639  -6.567  1.00  0.00     0.044 C 
ENDBRANCH   1   9
BRANCH   6  16
ATOM     16  C   UNL     1      -6.740  15.916 -13.135  1.00  0.00     0.153 C 
BRANCH  16  17
ATOM     17  C   UNL     1      -8.213  15.978 -12.841  1.00  0.00    -0.029 A 
ATOM     18  C   UNL     1      -8.746  15.771 -11.565  1.00  0.00     0.006 A 
ATOM     19  C   UNL     1      -9.051  16.470 -13.855  1.00  0.00     0.006 A 
ATOM     20  C   UNL     1     -10.087  16.077 -11.308  1.00  0.00     0.004 A 
ATOM     21  C   UNL     1     -10.383  16.778 -13.597  1.00  0.00     0.004 A 
ATOM     22  C   UNL     1     -10.910  16.594 -12.318  1.00  0.00    -0.051 A 
ATOM     23  C   UNL     1     -12.304  17.057 -12.016  1.00  0.00     0.044 C 
ENDBRANCH  16  17
ENDBRANCH   6  16
TORSDOF 3
ENDMDL
MODEL 9
REMARK VINA RESULT:    -4.511      4.745      7.158
REMARK INTER + INTRA:          -5.672
REMARK INTER:                  -5.187
REMARK INTRA:                  -0.485
REMARK UNBOUND:                -0.369
REMARK SMILES Cc1ccc(CNC(=O)NC(=O)c2ccc(C)cc2)cc1
REMARK SMILES IDX 11 1 12 2 10 3 8 4 9 5 7 6 13 9 19 10 18 11 14 12 16 13
REMARK SMILES IDX 15 14 17 15 6 16 5 17 4 18 20 19 3 20 21 21 2 22 1 23
REMARK H PARENT 10 7 7 8
ROOT
ATOM      1  C   UNL     1      -1.499  13.821  -3.425  1.00  0.00     0.259 C 
ATOM      2  O   UNL     1      -0.829  13.971  -2.413  1.00  0.00    -0.269 OA
ATOM      3  N   UNL     1      -2.029  14.796  -4.277  1.00  0.00    -0.274 N 
ATOM      4  C   UNL     1      -1.868  16.139  -4.503  1.00  0.00     0.321 C 
ATOM      5  O   UNL     1      -2.449  16.630  -5.477  1.00  0.00    -0.248 OA
ATOM      6  N   UNL     1      -1.092  16.935  -3.743  1.00  0.00    -0.334 N 
ATOM      7  H   UNL     1      -2.572  14.428  -5.046  1.00  0.00     0.175 HD
ATOM      8  H   UNL     1      -1.012  17.879  -4.093  1.00  0.00     0.165 HD
ENDROOT
BRANCH   1   9
ATOM      9  C   UNL     1      -1.794  12.431  -3.822  1.00  0.00     0.040 A 
ATOM     10  C   UNL     1      -1.001  11.755  -4.751  1.00  0.00     0.014 A 
ATOM     11  C   UNL     1      -1.288  10.424  -5.055  1.00  0.00     0.004 A 
ATOM     12  C   UNL     1      -2.903  11.805  -3.245  1.00  0.00     0.014 A 
ATOM     13  C   UNL     1      -2.368   9.770  -4.442  1.00  0.00    -0.051 A 
ATOM     14  C   UNL     1      -3.183  10.474  -3.547  1.00  0.00     0.004 A 
ATOM     15  C   UNL     1      -2.613   8.316  -4.716  1.00  0.00     0.044 C 
ENDBRANCH   1   9
BRANCH   6  16
ATOM     16  C   UNL     1      -0.258  16.550  -2.640  1.00  0.00     0.153 C 
BRANCH  16  17
ATOM     17  C   UNL     1       1.162  17.042  -2.645  1.00  0.00    -0.029 A 
ATOM     18  C   UNL     1       2.155  16.501  -3.469  1.00  0.00     0.006 A 
ATOM     19  C   UNL     1       1.435  18.227  -1.943  1.00  0.00     0.006 A 
ATOM     20  C   UNL     1       3.385  17.153  -3.603  1.00  0.00     0.004 A 
ATOM     21  C   UNL     1       2.657  18.877  -2.082  1.00  0.00     0.004 A 
ATOM     22  C   UNL     1       3.640  18.351  -2.921  1.00  0.00    -0.051 A 
ATOM     23  C   UNL     1       4.898  19.128  -3.170  1.00  0.00     0.044 C 
ENDBRANCH  16  17
ENDBRANCH   6  16
TORSDOF 3
ENDMDL
