MODEL 1
REMARK VINA RESULT:    -2.889      0.000      0.000
REMARK INTER + INTRA:          -3.287
REMARK INTER:                  -3.818
REMARK INTRA:                   0.531
REMARK UNBOUND:                 0.531
REMARK SMILES [H]/N=C\C[C@H]1C[C@@H]1O[C@H]1CO[C@H]2C[C@@H](C3CC3)CCN2C1
REMARK SMILES IDX 7 1 6 2 5 3 8 4 9 5 14 6 13 7 18 8 12 9 19 10 20 11 11 12
REMARK SMILES IDX 21 13 10 14 15 15 16 16 17 17 4 18 3 19 2 20 1 21
REMARK H PARENT
ROOT
ATOM      1  C   UNL     1      -9.873   4.609  -9.101  1.00  0.00     0.122 C 
ATOM      2  C   UNL     1      -8.592   5.066  -9.741  1.00  0.00     0.039 C 
ATOM      3  C   UNL     1      -9.515   4.145 -10.486  1.00  0.00     0.026 C 
ENDROOT
BRANCH   1   4
ATOM      4  O   UNL     1      -9.689   3.658  -8.035  1.00  0.00    -0.371 OA
BRANCH   4   5
ATOM      5  C   UNL     1     -10.532   3.845  -6.886  1.00  0.00     0.158 C 
ATOM      6  C   UNL     1      -7.458   1.642  -3.294  1.00  0.00    -0.003 C 
ATOM      7  C   UNL     1      -8.320   1.140  -4.459  1.00  0.00     0.052 C 
ATOM      8  C   UNL     1      -6.895   3.028  -3.640  1.00  0.00     0.019 C 
ATOM      9  C   UNL     1      -9.388   2.166  -4.861  1.00  0.00     0.189 C 
ATOM     10  C   UNL     1      -8.004   3.991  -4.064  1.00  0.00     0.087 C 
ATOM     11  N   UNL     1      -8.766   3.449  -5.189  1.00  0.00    -0.276 NA
ATOM     12  O   UNL     1     -10.090   1.610  -5.974  1.00  0.00    -0.360 OA
ATOM     13  C   UNL     1      -9.778   4.399  -5.664  1.00  0.00     0.121 C 
ATOM     14  C   UNL     1     -11.104   2.480  -6.488  1.00  0.00     0.195 C 
BRANCH   6  15
ATOM     15  C   UNL     1      -6.337   0.678  -2.978  1.00  0.00    -0.008 C 
ATOM     16  C   UNL     1      -6.264   0.008  -1.626  1.00  0.00     0.004 C 
ATOM     17  C   UNL     1      -6.604  -0.802  -2.843  1.00  0.00     0.004 C 
ENDBRANCH   6  15
ENDBRANCH   4   5
ENDBRANCH   1   4
BRANCH   3  18
ATOM     18  C   UNL     1     -10.261   4.670 -11.676  1.00  0.00     0.053 C 
BRANCH  18  19
ATOM     19  C   UNL     1     -11.648   5.196 -11.413  1.00  0.00     0.074 C 
BRANCH  19  20
ATOM     20  N   UNL     1     -12.753   4.629 -11.767  1.00  0.00    -0.313 NA
ATOM     21  H   UNL     1     -13.545   5.287 -11.736  1.00  0.00     0.186 HD
ENDBRANCH  19  20
ENDBRANCH  18  19
ENDBRANCH   3  18
TORSDOF 6
ENDMDL
MODEL 2
REMARK VINA RESULT:    -2.776      3.351      5.314
REMARK INTER + INTRA:          -3.138
REMARK INTER:                  -2.939
REMARK INTRA:                  -0.199
REMARK UNBOUND:                 0.531
REMARK SMILES [H]/N=C\C[C@H]1C[C@@H]1O[C@H]1CO[C@H]2C[C@@H](C3CC3)CCN2C1
REMARK SMILES IDX 7 1 6 2 5 3 8 4 9 5 14 6 13 7 18 8 12 9 19 10 20 11 11 12
REMARK SMILES IDX 21 13 10 14 15 15 16 16 17 17 4 18 3 19 2 20 1 21
REMARK H PARENT
ROOT
ATOM      1  C   UNL     1     -13.085   1.206  -5.285  1.00  0.00     0.122 C 
ATOM      2  C   UNL     1     -13.615   0.957  -3.901  1.00  0.00     0.039 C 
ATOM      3  C   UNL     1     -14.282   1.969  -4.788  1.00  0.00     0.026 C 
ENDROOT
BRANCH   1   4
ATOM      4  O   UNL     1     -11.833   1.919  -5.314  1.00  0.00    -0.371 OA
BRANCH   4   5
ATOM      5  C   UNL     1     -11.091   1.816  -6.540  1.00  0.00     0.158 C 
ATOM      6  C   UNL     1      -6.318   2.725  -4.642  1.00  0.00    -0.003 C 
ATOM      7  C   UNL     1      -7.576   3.564  -4.900  1.00  0.00     0.052 C 
ATOM      8  C   UNL     1      -6.730   1.293  -4.272  1.00  0.00     0.019 C 
ATOM      9  C   UNL     1      -8.507   2.897  -5.921  1.00  0.00     0.189 C 
ATOM     10  C   UNL     1      -7.682   0.700  -5.311  1.00  0.00     0.087 C 
ATOM     11  N   UNL     1      -8.862   1.547  -5.483  1.00  0.00    -0.276 NA
ATOM     12  O   UNL     1      -9.653   3.741  -6.041  1.00  0.00    -0.360 OA
ATOM     13  C   UNL     1      -9.827   0.948  -6.412  1.00  0.00     0.121 C 
ATOM     14  C   UNL     1     -10.638   3.224  -6.942  1.00  0.00     0.195 C 
BRANCH   6  15
ATOM     15  C   UNL     1      -5.461   3.329  -3.553  1.00  0.00    -0.008 C 
ATOM     16  C   UNL     1      -4.066   3.818  -3.861  1.00  0.00     0.004 C 
ATOM     17  C   UNL     1      -5.150   4.806  -3.543  1.00  0.00     0.004 C 
ENDBRANCH   6  15
ENDBRANCH   4   5
ENDBRANCH   1   4
BRANCH   3  18
ATOM     18  C   UNL     1     -15.647   1.670  -5.333  1.00  0.00     0.053 C 
BRANCH  18  19
ATOM     19  C   UNL     1     -16.779   1.685  -4.338  1.00  0.00     0.074 C 
BRANCH  19  20
ATOM     20  N   UNL     1     -18.038   1.644  -4.623  1.00  0.00    -0.313 NA
ATOM     21  H   UNL     1     -18.384   0.675  -4.672  1.00  0.00     0.186 HD
ENDBRANCH  19  20
ENDBRANCH  18  19
ENDBRANCH   3  18
TORSDOF 6
ENDMDL
MODEL 3
REMARK VINA RESULT:    -2.715      7.229     10.590
REMARK INTER + INTRA:          -3.058
REMARK INTER:                  -3.129
REMARK INTRA:                   0.071
REMARK UNBOUND:                 0.531
REMARK SMILES [H]/N=C\C[C@H]1C[C@@H]1O[C@H]1CO[C@H]2C[C@@H](C3CC3)CCN2C1
REMARK SMILES IDX 7 1 6 2 5 3 8 4 9 5 14 6 13 7 18 8 12 9 19 10 20 11 11 12
REMARK SMILES IDX 21 13 10 14 15 15 16 16 17 17 4 18 3 19 2 20 1 21
REMARK H PARENT
ROOT
ATOM      1  C   UNL     1     -13.127   5.172 -14.391  1.00  0.00     0.122 C 
ATOM      2  C   UNL     1     -11.862   5.822 -14.876  1.00  0.00     0.039 C 
ATOM      3  C   UNL     1     -12.215   5.866 -13.417  1.00  0.00     0.026 C 
ENDROOT
BRANCH   1   4
ATOM      4  O   UNL     1     -14.328   5.875 -14.763  1.00  0.00    -0.371 OA
BRANCH   4   5
ATOM      5  C   UNL     1     -15.443   5.047 -15.131  1.00  0.00     0.158 C 
ATOM      6  C   UNL     1     -18.454   5.888 -10.956  1.00  0.00    -0.003 C 
ATOM      7  C   UNL     1     -17.157   5.119 -11.238  1.00  0.00     0.052 C 
ATOM      8  C   UNL     1     -18.521   7.121 -11.867  1.00  0.00     0.019 C 
ATOM      9  C   UNL     1     -16.995   4.803 -12.731  1.00  0.00     0.189 C 
ATOM     10  C   UNL     1     -18.318   6.744 -13.335  1.00  0.00     0.087 C 
ATOM     11  N   UNL     1     -17.054   6.033 -13.522  1.00  0.00    -0.276 NA
ATOM     12  O   UNL     1     -15.741   4.134 -12.873  1.00  0.00    -0.360 OA
ATOM     13  C   UNL     1     -16.803   5.740 -14.938  1.00  0.00     0.121 C 
ATOM     14  C   UNL     1     -15.431   3.806 -14.231  1.00  0.00     0.195 C 
BRANCH   6  15
ATOM     15  C   UNL     1     -18.553   6.295  -9.504  1.00  0.00    -0.008 C 
ATOM     16  C   UNL     1     -18.555   5.247  -8.415  1.00  0.00     0.004 C 
ATOM     17  C   UNL     1     -17.369   6.153  -8.578  1.00  0.00     0.004 C 
ENDBRANCH   6  15
ENDBRANCH   4   5
ENDBRANCH   1   4
BRANCH   3  18
ATOM     18  C   UNL     1     -11.397   5.066 -12.447  1.00  0.00     0.053 C 
BRANCH  18  19
ATOM     19  C   UNL     1     -11.529   5.444 -10.994  1.00  0.00     0.074 C 
BRANCH  19  20
ATOM     20  N   UNL     1     -12.434   5.016 -10.179  1.00  0.00    -0.313 NA
ATOM     21  H   UNL     1     -13.062   4.337 -10.632  1.00  0.00     0.186 HD
ENDBRANCH  19  20
ENDBRANCH  18  19
ENDBRANCH   3  18
TORSDOF 6
ENDMDL
MODEL 4
REMARK VINA RESULT:    -2.051      9.262     10.566
REMARK INTER + INTRA:          -2.179
REMARK INTER:                  -2.972
REMARK INTRA:                   0.793
REMARK UNBOUND:                 0.531
REMARK SMILES [H]/N=C\C[C@H]1C[C@@H]1O[C@H]1CO[C@H]2C[C@@H](C3CC3)CCN2C1
REMARK SMILES IDX 7 1 6 2 5 3 8 4 9 5 14 6 13 7 18 8 12 9 19 10 20 11 11 12
REMARK SMILES IDX 21 13 10 14 15 15 16 16 17 17 4 18 3 19 2 20 1 21
REMARK H PARENT
ROOT
ATOM      1  C   UNL     1     -16.004   5.940 -14.253  1.00  0.00     0.122 C 
ATOM      2  C   UNL     1     -16.490   7.225 -14.863  1.00  0.00     0.039 C 
ATOM      3  C   UNL     1     -17.463   6.118 -14.574  1.00  0.00     0.026 C 
ENDROOT
BRANCH   1   4
ATOM      4  O   UNL     1     -15.242   5.115 -15.154  1.00  0.00    -0.371 OA
BRANCH   4   5
ATOM      5  C   UNL     1     -14.446   4.092 -14.534  1.00  0.00     0.158 C 
ATOM      6  C   UNL     1     -17.485   3.130 -10.406  1.00  0.00    -0.003 C 
ATOM      7  C   UNL     1     -16.561   4.271 -10.847  1.00  0.00     0.052 C 
ATOM      8  C   UNL     1     -18.120   2.483 -11.645  1.00  0.00     0.019 C 
ATOM      9  C   UNL     1     -15.545   3.807 -11.900  1.00  0.00     0.189 C 
ATOM     10  C   UNL     1     -17.060   2.076 -12.668  1.00  0.00     0.087 C 
ATOM     11  N   UNL     1     -16.234   3.221 -13.050  1.00  0.00    -0.276 NA
ATOM     12  O   UNL     1     -14.778   4.957 -12.263  1.00  0.00    -0.360 OA
ATOM     13  C   UNL     1     -15.268   2.866 -14.096  1.00  0.00     0.121 C 
ATOM     14  C   UNL     1     -13.805   4.685 -13.275  1.00  0.00     0.195 C 
BRANCH   6  15
ATOM     15  C   UNL     1     -18.555   3.618  -9.455  1.00  0.00    -0.008 C 
ATOM     16  C   UNL     1     -18.456   3.323  -7.977  1.00  0.00     0.004 C 
ATOM     17  C   UNL     1     -18.269   4.728  -8.473  1.00  0.00     0.004 C 
ENDBRANCH   6  15
ENDBRANCH   4   5
ENDBRANCH   1   4
BRANCH   3  18
ATOM     18  C   UNL     1     -18.462   6.299 -13.470  1.00  0.00     0.053 C 
BRANCH  18  19
ATOM     19  C   UNL     1     -18.554   7.679 -12.874  1.00  0.00     0.074 C 
BRANCH  19  20
ATOM     20  N   UNL     1     -18.190   8.014 -11.681  1.00  0.00    -0.313 NA
ATOM     21  H   UNL     1     -17.719   7.238 -11.195  1.00  0.00     0.186 HD
ENDBRANCH  19  20
ENDBRANCH  18  19
ENDBRANCH   3  18
TORSDOF 6
ENDMDL
MODEL 5
REMARK VINA RESULT:    -1.933      9.285     10.496
REMARK INTER + INTRA:          -2.024
REMARK INTER:                  -3.719
REMARK INTRA:                   1.695
REMARK UNBOUND:                 0.531
REMARK SMILES [H]/N=C\C[C@H]1C[C@@H]1O[C@H]1CO[C@H]2C[C@@H](C3CC3)CCN2C1
REMARK SMILES IDX 7 1 6 2 5 3 8 4 9 5 14 6 13 7 18 8 12 9 19 10 20 11 11 12
REMARK SMILES IDX 21 13 10 14 15 15 16 16 17 17 4 18 3 19 2 20 1 21
REMARK H PARENT
ROOT
ATOM      1  C   UNL     1     -14.955   4.238 -14.135  1.00  0.00     0.122 C 
ATOM      2  C   UNL     1     -13.950   4.836 -13.190  1.00  0.00     0.039 C 
ATOM      3  C   UNL     1     -13.857   5.122 -14.662  1.00  0.00     0.026 C 
ENDROOT
BRANCH   1   4
ATOM      4  O   UNL     1     -14.797   2.821 -14.340  1.00  0.00    -0.371 OA
BRANCH   4   5
ATOM      5  C   UNL     1     -16.015   2.060 -14.372  1.00  0.00     0.158 C 
ATOM      6  C   UNL     1     -18.413   4.249 -10.290  1.00  0.00    -0.003 C 
ATOM      7  C   UNL     1     -17.231   3.291 -10.485  1.00  0.00     0.052 C 
ATOM      8  C   UNL     1     -18.483   5.217 -11.479  1.00  0.00     0.019 C 
ATOM      9  C   UNL     1     -17.279   2.599 -11.854  1.00  0.00     0.189 C 
ATOM     10  C   UNL     1     -18.494   4.467 -12.810  1.00  0.00     0.087 C 
ATOM     11  N   UNL     1     -17.328   3.592 -12.927  1.00  0.00    -0.276 NA
ATOM     12  O   UNL     1     -16.114   1.776 -11.937  1.00  0.00    -0.360 OA
ATOM     13  C   UNL     1     -17.277   2.930 -14.236  1.00  0.00     0.121 C 
ATOM     14  C   UNL     1     -16.001   1.089 -13.187  1.00  0.00     0.195 C 
BRANCH   6  15
ATOM     15  C   UNL     1     -18.299   5.012  -8.989  1.00  0.00    -0.008 C 
ATOM     16  C   UNL     1     -17.055   5.811  -8.679  1.00  0.00     0.004 C 
ATOM     17  C   UNL     1     -18.345   6.521  -8.971  1.00  0.00     0.004 C 
ENDBRANCH   6  15
ENDBRANCH   4   5
ENDBRANCH   1   4
BRANCH   3  18
ATOM     18  C   UNL     1     -14.170   6.503 -15.155  1.00  0.00     0.053 C 
BRANCH  18  19
ATOM     19  C   UNL     1     -15.612   6.932 -15.063  1.00  0.00     0.074 C 
BRANCH  19  20
ATOM     20  N   UNL     1     -16.122   7.680 -14.142  1.00  0.00    -0.313 NA
ATOM     21  H   UNL     1     -15.909   8.675 -14.299  1.00  0.00     0.186 HD
ENDBRANCH  19  20
ENDBRANCH  18  19
ENDBRANCH   3  18
TORSDOF 6
ENDMDL
MODEL 6
REMARK VINA RESULT:    -1.351      5.760      9.242
REMARK INTER + INTRA:          -1.255
REMARK INTER:                  -1.062
REMARK INTRA:                  -0.194
REMARK UNBOUND:                 0.531
REMARK SMILES [H]/N=C\C[C@H]1C[C@@H]1O[C@H]1CO[C@H]2C[C@@H](C3CC3)CCN2C1
REMARK SMILES IDX 7 1 6 2 5 3 8 4 9 5 14 6 13 7 18 8 12 9 19 10 20 11 11 12
REMARK SMILES IDX 21 13 10 14 15 15 16 16 17 17 4 18 3 19 2 20 1 21
REMARK H PARENT
ROOT
ATOM      1  C   UNL     1     -16.252   2.602 -14.202  1.00  0.00     0.122 C 
ATOM      2  C   UNL     1     -17.299   2.098 -15.155  1.00  0.00     0.039 C 
ATOM      3  C   UNL     1     -16.253   1.159 -14.627  1.00  0.00     0.026 C 
ENDROOT
BRANCH   1   4
ATOM      4  O   UNL     1     -15.264   3.454 -14.812  1.00  0.00    -0.371 OA
BRANCH   4   5
ATOM      5  C   UNL     1     -15.339   4.844 -14.456  1.00  0.00     0.158 C 
ATOM      6  C   UNL     1     -11.009   5.145 -11.564  1.00  0.00    -0.003 C 
ATOM      7  C   UNL     1     -12.400   4.520 -11.398  1.00  0.00     0.052 C 
ATOM      8  C   UNL     1     -10.609   5.105 -13.046  1.00  0.00     0.019 C 
ATOM      9  C   UNL     1     -13.428   5.160 -12.341  1.00  0.00     0.189 C 
ATOM     10  C   UNL     1     -11.689   5.725 -13.933  1.00  0.00     0.087 C 
ATOM     11  N   UNL     1     -12.977   5.063 -13.729  1.00  0.00    -0.276 NA
ATOM     12  O   UNL     1     -14.661   4.470 -12.128  1.00  0.00    -0.360 OA
ATOM     13  C   UNL     1     -14.004   5.588 -14.636  1.00  0.00     0.121 C 
ATOM     14  C   UNL     1     -15.717   4.936 -12.974  1.00  0.00     0.195 C 
BRANCH   6  15
ATOM     15  C   UNL     1      -9.977   4.436 -10.717  1.00  0.00    -0.008 C 
ATOM     16  C   UNL     1      -8.973   5.228  -9.914  1.00  0.00     0.004 C 
ATOM     17  C   UNL     1     -10.059   4.468  -9.210  1.00  0.00     0.004 C 
ENDBRANCH   6  15
ENDBRANCH   4   5
ENDBRANCH   1   4
BRANCH   3  18
ATOM     18  C   UNL     1     -16.659   0.087 -13.660  1.00  0.00     0.053 C 
BRANCH  18  19
ATOM     19  C   UNL     1     -17.695  -0.892 -14.148  1.00  0.00     0.074 C 
BRANCH  19  20
ATOM     20  N   UNL     1     -17.604  -2.179 -14.098  1.00  0.00    -0.313 NA
ATOM     21  H   UNL     1     -17.009  -2.488 -13.317  1.00  0.00     0.186 HD
ENDBRANCH  19  20
ENDBRANCH  18  19
ENDBRANCH   3  18
TORSDOF 6
ENDMDL
MODEL 7
REMARK VINA RESULT:    -1.351      9.025     10.748
REMARK INTER + INTRA:          -1.255
REMARK INTER:                  -2.402
REMARK INTRA:                   1.148
REMARK UNBOUND:                 0.531
REMARK SMILES [H]/N=C\C[C@H]1C[C@@H]1O[C@H]1CO[C@H]2C[C@@H](C3CC3)CCN2C1
REMARK SMILES IDX 7 1 6 2 5 3 8 4 9 5 14 6 13 7 18 8 12 9 19 10 20 11 11 12
REMARK SMILES IDX 21 13 10 14 15 15 16 16 17 17 4 18 3 19 2 20 1 21
REMARK H PARENT
ROOT
ATOM      1  C   UNL     1     -16.346   2.586 -14.295  1.00  0.00     0.122 C 
ATOM      2  C   UNL     1     -17.796   2.235 -14.121  1.00  0.00     0.039 C 
ATOM      3  C   UNL     1     -16.905   1.350 -14.945  1.00  0.00     0.026 C 
ENDROOT
BRANCH   1   4
ATOM      4  O   UNL     1     -16.114   3.718 -15.155  1.00  0.00    -0.371 OA
BRANCH   4   5
ATOM      5  C   UNL     1     -15.364   4.796 -14.572  1.00  0.00     0.158 C 
ATOM      6  C   UNL     1     -17.400   4.662  -9.772  1.00  0.00    -0.003 C 
ATOM      7  C   UNL     1     -17.887   5.098 -11.160  1.00  0.00     0.052 C 
ATOM      8  C   UNL     1     -16.419   3.491  -9.923  1.00  0.00     0.019 C 
ATOM      9  C   UNL     1     -16.716   5.381 -12.111  1.00  0.00     0.189 C 
ATOM     10  C   UNL     1     -15.299   3.825 -10.907  1.00  0.00     0.087 C 
ATOM     11  N   UNL     1     -15.843   4.211 -12.209  1.00  0.00    -0.276 NA
ATOM     12  O   UNL     1     -17.290   5.729 -13.372  1.00  0.00    -0.360 OA
ATOM     13  C   UNL     1     -14.780   4.450 -13.191  1.00  0.00     0.121 C 
ATOM     14  C   UNL     1     -16.309   5.987 -14.382  1.00  0.00     0.195 C 
BRANCH   6  15
ATOM     15  C   UNL     1     -18.555   4.275  -8.876  1.00  0.00    -0.008 C 
ATOM     16  C   UNL     1     -18.412   3.135  -7.895  1.00  0.00     0.004 C 
ATOM     17  C   UNL     1     -18.507   4.546  -7.391  1.00  0.00     0.004 C 
ENDBRANCH   6  15
ENDBRANCH   4   5
ENDBRANCH   1   4
BRANCH   3  18
ATOM     18  C   UNL     1     -16.545  -0.008 -14.421  1.00  0.00     0.053 C 
BRANCH  18  19
ATOM     19  C   UNL     1     -17.696  -0.902 -14.041  1.00  0.00     0.074 C 
BRANCH  19  20
ATOM     20  N   UNL     1     -17.765  -2.175 -14.244  1.00  0.00    -0.313 NA
ATOM     21  H   UNL     1     -16.890  -2.545 -14.642  1.00  0.00     0.186 HD
ENDBRANCH  19  20
ENDBRANCH  18  19
ENDBRANCH   3  18
TORSDOF 6
ENDMDL
MODEL 8
REMARK VINA RESULT:    -1.099      2.796      6.465
REMARK INTER + INTRA:          -0.922
REMARK INTER:                  -1.300
REMARK INTRA:                   0.378
REMARK UNBOUND:                 0.531
REMARK SMILES [H]/N=C\C[C@H]1C[C@@H]1O[C@H]1CO[C@H]2C[C@@H](C3CC3)CCN2C1
REMARK SMILES IDX 7 1 6 2 5 3 8 4 9 5 14 6 13 7 18 8 12 9 19 10 20 11 11 12
REMARK SMILES IDX 21 13 10 14 15 15 16 16 17 17 4 18 3 19 2 20 1 21
REMARK H PARENT
ROOT
ATOM      1  C   UNL     1      -6.354   0.783  -3.475  1.00  0.00     0.122 C 
ATOM      2  C   UNL     1      -6.792  -0.619  -3.159  1.00  0.00     0.039 C 
ATOM      3  C   UNL     1      -7.478   0.151  -4.250  1.00  0.00     0.026 C 
ENDROOT
BRANCH   1   4
ATOM      4  O   UNL     1      -6.724   1.753  -2.477  1.00  0.00    -0.371 OA
BRANCH   4   5
ATOM      5  C   UNL     1      -6.253   3.090  -2.708  1.00  0.00     0.158 C 
ATOM      6  C   UNL     1      -9.148   4.228  -6.895  1.00  0.00    -0.003 C 
ATOM      7  C   UNL     1      -7.942   3.326  -6.606  1.00  0.00     0.052 C 
ATOM      8  C   UNL     1     -10.039   4.299  -5.646  1.00  0.00     0.019 C 
ATOM      9  C   UNL     1      -7.201   3.756  -5.332  1.00  0.00     0.189 C 
ATOM     10  C   UNL     1      -9.235   4.699  -4.409  1.00  0.00     0.087 C 
ATOM     11  N   UNL     1      -8.118   3.780  -4.192  1.00  0.00    -0.276 NA
ATOM     12  O   UNL     1      -6.136   2.822  -5.144  1.00  0.00    -0.360 OA
ATOM     13  C   UNL     1      -7.388   4.098  -2.959  1.00  0.00     0.121 C 
ATOM     14  C   UNL     1      -5.371   3.075  -3.961  1.00  0.00     0.195 C 
BRANCH   6  15
ATOM     15  C   UNL     1      -9.939   3.732  -8.084  1.00  0.00    -0.008 C 
ATOM     16  C   UNL     1     -10.624   4.712  -9.008  1.00  0.00     0.004 C 
ATOM     17  C   UNL     1      -9.432   3.938  -9.491  1.00  0.00     0.004 C 
ENDBRANCH   6  15
ENDBRANCH   4   5
ENDBRANCH   1   4
BRANCH   3  18
ATOM     18  C   UNL     1      -7.271  -0.267  -5.676  1.00  0.00     0.053 C 
BRANCH  18  19
ATOM     19  C   UNL     1      -8.518  -0.512  -6.485  1.00  0.00     0.074 C 
BRANCH  19  20
ATOM     20  N   UNL     1      -8.806  -1.597  -7.123  1.00  0.00    -0.313 NA
ATOM     21  H   UNL     1      -9.819  -1.783  -7.119  1.00  0.00     0.186 HD
ENDBRANCH  19  20
ENDBRANCH  18  19
ENDBRANCH   3  18
TORSDOF 6
ENDMDL
