MODEL 1
REMARK VINA RESULT:    -2.622      0.000      0.000
REMARK INTER + INTRA:          -3.497
REMARK INTER:                  -3.082
REMARK INTRA:                  -0.414
REMARK UNBOUND:                -0.414
REMARK SMILES Cc1ccc(CNC(=O)NC(=O)c2ccc(C)cc2)cc1
REMARK SMILES IDX 11 1 12 2 10 3 8 4 9 5 7 6 13 9 19 10 18 11 14 12 16 13
REMARK SMILES IDX 15 14 17 15 6 16 5 17 4 18 20 19 3 20 21 21 2 22 1 23
REMARK H PARENT 10 7 7 8
ROOT
ATOM      1  C   UNL     1     -12.002   1.895  -5.583  1.00  0.00     0.259 C 
ATOM      2  O   UNL     1     -11.375   1.165  -4.828  1.00  0.00    -0.269 OA
ATOM      3  N   UNL     1     -11.516   2.849  -6.482  1.00  0.00    -0.274 N 
ATOM      4  C   UNL     1     -10.314   3.187  -7.049  1.00  0.00     0.321 C 
ATOM      5  O   UNL     1     -10.321   4.045  -7.939  1.00  0.00    -0.248 OA
ATOM      6  N   UNL     1      -9.144   2.616  -6.710  1.00  0.00    -0.334 N 
ATOM      7  H   UNL     1     -12.235   3.350  -6.987  1.00  0.00     0.175 HD
ATOM      8  H   UNL     1      -8.365   2.914  -7.280  1.00  0.00     0.165 HD
ENDROOT
BRANCH   1   9
ATOM      9  C   UNL     1     -13.472   1.764  -5.558  1.00  0.00     0.040 A 
ATOM     10  C   UNL     1     -14.201   1.965  -4.385  1.00  0.00     0.014 A 
ATOM     11  C   UNL     1     -15.593   1.882  -4.423  1.00  0.00     0.004 A 
ATOM     12  C   UNL     1     -14.120   1.423  -6.749  1.00  0.00     0.014 A 
ATOM     13  C   UNL     1     -16.257   1.592  -5.624  1.00  0.00    -0.051 A 
ATOM     14  C   UNL     1     -15.511   1.348  -6.784  1.00  0.00     0.004 A 
ATOM     15  C   UNL     1     -17.757   1.590  -5.667  1.00  0.00     0.044 C 
ENDBRANCH   1   9
BRANCH   6  16
ATOM     16  C   UNL     1      -8.931   1.538  -5.785  1.00  0.00     0.153 C 
BRANCH  16  17
ATOM     17  C   UNL     1      -7.641   1.536  -5.014  1.00  0.00    -0.029 A 
ATOM     18  C   UNL     1      -6.656   2.517  -5.171  1.00  0.00     0.006 A 
ATOM     19  C   UNL     1      -7.529   0.627  -3.949  1.00  0.00     0.006 A 
ATOM     20  C   UNL     1      -5.596   2.597  -4.261  1.00  0.00     0.004 A 
ATOM     21  C   UNL     1      -6.477   0.710  -3.042  1.00  0.00     0.004 A 
ATOM     22  C   UNL     1      -5.506   1.703  -3.185  1.00  0.00    -0.051 A 
ATOM     23  C   UNL     1      -4.456   1.871  -2.128  1.00  0.00     0.044 C 
ENDBRANCH  16  17
ENDBRANCH   6  16
TORSDOF 3
ENDMDL
MODEL 2
REMARK VINA RESULT:    -2.436      2.906      5.033
REMARK INTER + INTRA:          -3.278
REMARK INTER:                  -2.863
REMARK INTRA:                  -0.415
REMARK UNBOUND:                -0.414
REMARK SMILES Cc1ccc(CNC(=O)NC(=O)c2ccc(C)cc2)cc1
REMARK SMILES IDX 11 1 12 2 10 3 8 4 9 5 7 6 13 9 19 10 18 11 14 12 16 13
REMARK SMILES IDX 15 14 17 15 6 16 5 17 4 18 20 19 3 20 21 21 2 22 1 23
REMARK H PARENT 10 7 7 8
ROOT
ATOM      1  C   UNL     1      -9.968   3.897  -7.986  1.00  0.00     0.259 C 
ATOM      2  O   UNL     1      -8.908   4.338  -7.564  1.00  0.00    -0.269 OA
ATOM      3  N   UNL     1     -10.852   3.006  -7.371  1.00  0.00    -0.274 N 
ATOM      4  C   UNL     1     -11.062   2.489  -6.118  1.00  0.00     0.321 C 
ATOM      5  O   UNL     1     -12.075   1.803  -5.943  1.00  0.00    -0.248 OA
ATOM      6  N   UNL     1     -10.244   2.715  -5.073  1.00  0.00    -0.334 N 
ATOM      7  H   UNL     1     -11.661   2.768  -7.930  1.00  0.00     0.175 HD
ATOM      8  H   UNL     1     -10.584   2.336  -4.201  1.00  0.00     0.165 HD
ENDROOT
BRANCH   1   9
ATOM      9  C   UNL     1     -10.390   4.360  -9.322  1.00  0.00     0.040 A 
ATOM     10  C   UNL     1      -9.579   4.181 -10.445  1.00  0.00     0.014 A 
ATOM     11  C   UNL     1     -10.044   4.588 -11.696  1.00  0.00     0.004 A 
ATOM     12  C   UNL     1     -11.631   4.994  -9.436  1.00  0.00     0.014 A 
ATOM     13  C   UNL     1     -11.310   5.178 -11.828  1.00  0.00    -0.051 A 
ATOM     14  C   UNL     1     -12.094   5.393 -10.688  1.00  0.00     0.004 A 
ATOM     15  C   UNL     1     -11.830   5.532 -13.190  1.00  0.00     0.044 C 
ENDBRANCH   1   9
BRANCH   6  16
ATOM     16  C   UNL     1      -9.083   3.559  -5.036  1.00  0.00     0.153 C 
BRANCH  16  17
ATOM     17  C   UNL     1      -7.958   3.145  -4.129  1.00  0.00    -0.029 A 
ATOM     18  C   UNL     1      -8.009   2.004  -3.321  1.00  0.00     0.006 A 
ATOM     19  C   UNL     1      -6.736   3.823  -4.269  1.00  0.00     0.006 A 
ATOM     20  C   UNL     1      -6.850   1.542  -2.688  1.00  0.00     0.004 A 
ATOM     21  C   UNL     1      -5.583   3.359  -3.643  1.00  0.00     0.004 A 
ATOM     22  C   UNL     1      -5.628   2.208  -2.855  1.00  0.00    -0.051 A 
ATOM     23  C   UNL     1      -4.357   1.640  -2.298  1.00  0.00     0.044 C 
ENDBRANCH  16  17
ENDBRANCH   6  16
TORSDOF 3
ENDMDL
MODEL 3
REMARK VINA RESULT:    -2.267      1.128      8.113
REMARK INTER + INTRA:          -3.079
REMARK INTER:                  -2.724
REMARK INTRA:                  -0.354
REMARK UNBOUND:                -0.414
REMARK SMILES Cc1ccc(CNC(=O)NC(=O)c2ccc(C)cc2)cc1
REMARK SMILES IDX 11 1 12 2 10 3 8 4 9 5 7 6 13 9 19 10 18 11 14 12 16 13
REMARK SMILES IDX 15 14 17 15 6 16 5 17 4 18 20 19 3 20 21 21 2 22 1 23
REMARK H PARENT 10 7 7 8
ROOT
ATOM      1  C   UNL     1      -9.171   2.443  -5.315  1.00  0.00     0.259 C 
ATOM      2  O   UNL     1      -9.838   1.713  -4.595  1.00  0.00    -0.269 OA
ATOM      3  N   UNL     1      -9.504   2.988  -6.559  1.00  0.00    -0.274 N 
ATOM      4  C   UNL     1     -10.631   3.158  -7.322  1.00  0.00     0.321 C 
ATOM      5  O   UNL     1     -10.531   3.835  -8.350  1.00  0.00    -0.248 OA
ATOM      6  N   UNL     1     -11.835   2.654  -6.992  1.00  0.00    -0.334 N 
ATOM      7  H   UNL     1      -8.774   3.549  -6.978  1.00  0.00     0.175 HD
ATOM      8  H   UNL     1     -12.579   2.941  -7.612  1.00  0.00     0.165 HD
ENDROOT
BRANCH   1   9
ATOM      9  C   UNL     1      -7.831   2.814  -4.820  1.00  0.00     0.040 A 
ATOM     10  C   UNL     1      -6.713   2.020  -5.081  1.00  0.00     0.014 A 
ATOM     11  C   UNL     1      -5.458   2.439  -4.637  1.00  0.00     0.004 A 
ATOM     12  C   UNL     1      -7.710   3.988  -4.070  1.00  0.00     0.014 A 
ATOM     13  C   UNL     1      -5.319   3.642  -3.928  1.00  0.00    -0.051 A 
ATOM     14  C   UNL     1      -6.455   4.406  -3.634  1.00  0.00     0.004 A 
ATOM     15  C   UNL     1      -3.953   4.121  -3.531  1.00  0.00     0.044 C 
ENDBRANCH   1   9
BRANCH   6  16
ATOM     16  C   UNL     1     -12.188   1.934  -5.801  1.00  0.00     0.153 C 
BRANCH  16  17
ATOM     17  C   UNL     1     -13.648   1.667  -5.564  1.00  0.00    -0.029 A 
ATOM     18  C   UNL     1     -14.291   1.957  -4.356  1.00  0.00     0.006 A 
ATOM     19  C   UNL     1     -14.426   1.309  -6.677  1.00  0.00     0.006 A 
ATOM     20  C   UNL     1     -15.687   1.912  -4.277  1.00  0.00     0.004 A 
ATOM     21  C   UNL     1     -15.814   1.269  -6.598  1.00  0.00     0.004 A 
ATOM     22  C   UNL     1     -16.458   1.580  -5.400  1.00  0.00    -0.051 A 
ATOM     23  C   UNL     1     -17.954   1.668  -5.362  1.00  0.00     0.044 C 
ENDBRANCH  16  17
ENDBRANCH   6  16
TORSDOF 3
ENDMDL
MODEL 4
REMARK VINA RESULT:    -1.914      3.058      8.166
REMARK INTER + INTRA:          -2.664
REMARK INTER:                  -2.296
REMARK INTRA:                  -0.369
REMARK UNBOUND:                -0.414
REMARK SMILES Cc1ccc(CNC(=O)NC(=O)c2ccc(C)cc2)cc1
REMARK SMILES IDX 11 1 12 2 10 3 8 4 9 5 7 6 13 9 19 10 18 11 14 12 16 13
REMARK SMILES IDX 15 14 17 15 6 16 5 17 4 18 20 19 3 20 21 21 2 22 1 23
REMARK H PARENT 10 7 7 8
ROOT
ATOM      1  C   UNL     1      -8.316   3.178  -5.543  1.00  0.00     0.259 C 
ATOM      2  O   UNL     1      -7.853   3.902  -6.413  1.00  0.00    -0.269 OA
ATOM      3  N   UNL     1      -9.627   2.716  -5.395  1.00  0.00    -0.274 N 
ATOM      4  C   UNL     1     -10.767   2.642  -6.154  1.00  0.00     0.321 C 
ATOM      5  O   UNL     1     -11.725   2.014  -5.690  1.00  0.00    -0.248 OA
ATOM      6  N   UNL     1     -10.882   3.188  -7.379  1.00  0.00    -0.334 N 
ATOM      7  H   UNL     1      -9.777   2.141  -4.576  1.00  0.00     0.175 HD
ATOM      8  H   UNL     1     -11.754   2.971  -7.840  1.00  0.00     0.165 HD
ENDROOT
BRANCH   1   9
ATOM      9  C   UNL     1      -7.379   2.715  -4.501  1.00  0.00     0.040 A 
ATOM     10  C   UNL     1      -7.696   1.648  -3.658  1.00  0.00     0.014 A 
ATOM     11  C   UNL     1      -6.757   1.213  -2.724  1.00  0.00     0.004 A 
ATOM     12  C   UNL     1      -6.157   3.383  -4.373  1.00  0.00     0.014 A 
ATOM     13  C   UNL     1      -5.507   1.843  -2.622  1.00  0.00    -0.051 A 
ATOM     14  C   UNL     1      -5.219   2.940  -3.442  1.00  0.00     0.004 A 
ATOM     15  C   UNL     1      -4.477   1.309  -1.671  1.00  0.00     0.044 C 
ENDBRANCH   1   9
BRANCH   6  16
ATOM     16  C   UNL     1      -9.866   3.862  -8.137  1.00  0.00     0.153 C 
BRANCH  16  17
ATOM     17  C   UNL     1     -10.271   4.459  -9.456  1.00  0.00    -0.029 A 
ATOM     18  C   UNL     1      -9.568   4.233 -10.644  1.00  0.00     0.006 A 
ATOM     19  C   UNL     1     -11.524   5.091  -9.518  1.00  0.00     0.006 A 
ATOM     20  C   UNL     1     -10.125   4.613 -11.870  1.00  0.00     0.004 A 
ATOM     21  C   UNL     1     -12.078   5.464 -10.738  1.00  0.00     0.004 A 
ATOM     22  C   UNL     1     -11.388   5.219 -11.926  1.00  0.00    -0.051 A 
ATOM     23  C   UNL     1     -12.052   5.498 -13.242  1.00  0.00     0.044 C 
ENDBRANCH  16  17
ENDBRANCH   6  16
TORSDOF 3
ENDMDL
MODEL 5
REMARK VINA RESULT:    -1.655      5.655      9.001
REMARK INTER + INTRA:          -2.360
REMARK INTER:                  -1.973
REMARK INTRA:                  -0.387
REMARK UNBOUND:                -0.414
REMARK SMILES Cc1ccc(CNC(=O)NC(=O)c2ccc(C)cc2)cc1
REMARK SMILES IDX 11 1 12 2 10 3 8 4 9 5 7 6 13 9 19 10 18 11 14 12 16 13
REMARK SMILES IDX 15 14 17 15 6 16 5 17 4 18 20 19 3 20 21 21 2 22 1 23
REMARK H PARENT 10 7 7 8
ROOT
ATOM      1  C   UNL     1      -3.814   1.755  -1.918  1.00  0.00     0.259 C 
ATOM      2  O   UNL     1      -2.838   1.989  -2.616  1.00  0.00    -0.269 OA
ATOM      3  N   UNL     1      -3.857   1.322  -0.589  1.00  0.00    -0.274 N 
ATOM      4  C   UNL     1      -2.994   1.219   0.472  1.00  0.00     0.321 C 
ATOM      5  O   UNL     1      -3.467   0.897   1.567  1.00  0.00    -0.248 OA
ATOM      6  N   UNL     1      -1.676   1.477   0.386  1.00  0.00    -0.334 N 
ATOM      7  H   UNL     1      -4.790   1.174  -0.228  1.00  0.00     0.175 HD
ATOM      8  H   UNL     1      -1.195   1.439   1.273  1.00  0.00     0.165 HD
ENDROOT
BRANCH   1   9
ATOM      9  C   UNL     1      -5.136   1.956  -2.543  1.00  0.00     0.040 A 
ATOM     10  C   UNL     1      -5.403   3.071  -3.340  1.00  0.00     0.014 A 
ATOM     11  C   UNL     1      -6.651   3.191  -3.952  1.00  0.00     0.004 A 
ATOM     12  C   UNL     1      -6.126   0.996  -2.308  1.00  0.00     0.014 A 
ATOM     13  C   UNL     1      -7.633   2.207  -3.765  1.00  0.00    -0.051 A 
ATOM     14  C   UNL     1      -7.369   1.117  -2.927  1.00  0.00     0.004 A 
ATOM     15  C   UNL     1      -8.939   2.307  -4.498  1.00  0.00     0.044 C 
ENDBRANCH   1   9
BRANCH   6  16
ATOM     16  C   UNL     1      -0.950   1.960  -0.755  1.00  0.00     0.153 C 
BRANCH  16  17
ATOM     17  C   UNL     1      -0.108   0.968  -1.507  1.00  0.00    -0.029 A 
ATOM     18  C   UNL     1      -0.181  -0.413  -1.294  1.00  0.00     0.006 A 
ATOM     19  C   UNL     1       0.620   1.446  -2.609  1.00  0.00     0.006 A 
ATOM     20  C   UNL     1       0.444  -1.293  -2.184  1.00  0.00     0.004 A 
ATOM     21  C   UNL     1       1.237   0.570  -3.496  1.00  0.00     0.004 A 
ATOM     22  C   UNL     1       1.146  -0.809  -3.297  1.00  0.00    -0.051 A 
ATOM     23  C   UNL     1       1.695  -1.746  -4.330  1.00  0.00     0.044 C 
ENDBRANCH  16  17
ENDBRANCH   6  16
TORSDOF 3
ENDMDL
MODEL 6
REMARK VINA RESULT:    -1.587      5.817      8.919
REMARK INTER + INTRA:          -2.280
REMARK INTER:                  -1.833
REMARK INTRA:                  -0.447
REMARK UNBOUND:                -0.414
REMARK SMILES Cc1ccc(CNC(=O)NC(=O)c2ccc(C)cc2)cc1
REMARK SMILES IDX 11 1 12 2 10 3 8 4 9 5 7 6 13 9 19 10 18 11 14 12 16 13
REMARK SMILES IDX 15 14 17 15 6 16 5 17 4 18 20 19 3 20 21 21 2 22 1 23
REMARK H PARENT 10 7 7 8
ROOT
ATOM      1  C   UNL     1      -4.125   1.571  -1.837  1.00  0.00     0.259 C 
ATOM      2  O   UNL     1      -4.519   1.232  -0.730  1.00  0.00    -0.269 OA
ATOM      3  N   UNL     1      -2.814   1.794  -2.270  1.00  0.00    -0.274 N 
ATOM      4  C   UNL     1      -1.542   1.535  -1.825  1.00  0.00     0.321 C 
ATOM      5  O   UNL     1      -0.606   1.784  -2.592  1.00  0.00    -0.248 OA
ATOM      6  N   UNL     1      -1.269   1.002  -0.620  1.00  0.00    -0.334 N 
ATOM      7  H   UNL     1      -2.737   2.091  -3.233  1.00  0.00     0.175 HD
ATOM      8  H   UNL     1      -0.291   0.794  -0.479  1.00  0.00     0.165 HD
ENDROOT
BRANCH   1   9
ATOM      9  C   UNL     1      -5.157   1.772  -2.872  1.00  0.00     0.040 A 
ATOM     10  C   UNL     1      -6.198   0.858  -3.049  1.00  0.00     0.014 A 
ATOM     11  C   UNL     1      -7.180   1.118  -4.006  1.00  0.00     0.004 A 
ATOM     12  C   UNL     1      -5.062   2.907  -3.683  1.00  0.00     0.014 A 
ATOM     13  C   UNL     1      -7.122   2.281  -4.789  1.00  0.00    -0.051 A 
ATOM     14  C   UNL     1      -6.048   3.166  -4.633  1.00  0.00     0.004 A 
ATOM     15  C   UNL     1      -8.230   2.588  -5.753  1.00  0.00     0.044 C 
ENDBRANCH   1   9
BRANCH   6  16
ATOM     16  C   UNL     1      -2.205   0.548   0.370  1.00  0.00     0.153 C 
BRANCH  16  17
ATOM     17  C   UNL     1      -2.346   1.376   1.617  1.00  0.00    -0.029 A 
ATOM     18  C   UNL     1      -1.886   2.693   1.715  1.00  0.00     0.006 A 
ATOM     19  C   UNL     1      -3.158   0.862   2.641  1.00  0.00     0.006 A 
ATOM     20  C   UNL     1      -2.257   3.484   2.807  1.00  0.00     0.004 A 
ATOM     21  C   UNL     1      -3.531   1.652   3.724  1.00  0.00     0.004 A 
ATOM     22  C   UNL     1      -3.091   2.974   3.812  1.00  0.00    -0.051 A 
ATOM     23  C   UNL     1      -3.608   3.857   4.908  1.00  0.00     0.044 C 
ENDBRANCH  16  17
ENDBRANCH   6  16
TORSDOF 3
ENDMDL
MODEL 7
REMARK VINA RESULT:    -1.225      6.306      8.239
REMARK INTER + INTRA:          -1.855
REMARK INTER:                  -1.432
REMARK INTRA:                  -0.423
REMARK UNBOUND:                -0.414
REMARK SMILES Cc1ccc(CNC(=O)NC(=O)c2ccc(C)cc2)cc1
REMARK SMILES IDX 11 1 12 2 10 3 8 4 9 5 7 6 13 9 19 10 18 11 14 12 16 13
REMARK SMILES IDX 15 14 17 15 6 16 5 17 4 18 20 19 3 20 21 21 2 22 1 23
REMARK H PARENT 10 7 7 8
ROOT
ATOM      1  C   UNL     1     -14.958   3.368 -12.909  1.00  0.00     0.259 C 
ATOM      2  O   UNL     1     -14.796   3.430 -11.699  1.00  0.00    -0.269 OA
ATOM      3  N   UNL     1     -14.439   4.200 -13.906  1.00  0.00    -0.274 N 
ATOM      4  C   UNL     1     -13.464   5.158 -14.020  1.00  0.00     0.321 C 
ATOM      5  O   UNL     1     -13.210   5.586 -15.151  1.00  0.00    -0.248 OA
ATOM      6  N   UNL     1     -12.755   5.626 -12.976  1.00  0.00    -0.334 N 
ATOM      7  H   UNL     1     -14.733   3.962 -14.844  1.00  0.00     0.175 HD
ATOM      8  H   UNL     1     -12.017   6.263 -13.238  1.00  0.00     0.165 HD
ENDROOT
BRANCH   1   9
ATOM      9  C   UNL     1     -15.809   2.269 -13.407  1.00  0.00     0.040 A 
ATOM     10  C   UNL     1     -15.469   1.547 -14.552  1.00  0.00     0.014 A 
ATOM     11  C   UNL     1     -16.277   0.482 -14.954  1.00  0.00     0.004 A 
ATOM     12  C   UNL     1     -16.978   1.972 -12.699  1.00  0.00     0.014 A 
ATOM     13  C   UNL     1     -17.424   0.143 -14.221  1.00  0.00    -0.051 A 
ATOM     14  C   UNL     1     -17.778   0.904 -13.100  1.00  0.00     0.004 A 
ATOM     15  C   UNL     1     -18.235  -1.056 -14.617  1.00  0.00     0.044 C 
ENDBRANCH   1   9
BRANCH   6  16
ATOM     16  C   UNL     1     -12.819   5.193 -11.609  1.00  0.00     0.153 C 
BRANCH  16  17
ATOM     17  C   UNL     1     -11.522   5.100 -10.853  1.00  0.00    -0.029 A 
ATOM     18  C   UNL     1     -11.430   5.278  -9.469  1.00  0.00     0.006 A 
ATOM     19  C   UNL     1     -10.406   4.606 -11.549  1.00  0.00     0.006 A 
ATOM     20  C   UNL     1     -10.250   4.943  -8.797  1.00  0.00     0.004 A 
ATOM     21  C   UNL     1      -9.235   4.270 -10.879  1.00  0.00     0.004 A 
ATOM     22  C   UNL     1      -9.150   4.426  -9.495  1.00  0.00    -0.051 A 
ATOM     23  C   UNL     1      -7.936   3.932  -8.765  1.00  0.00     0.044 C 
ENDBRANCH  16  17
ENDBRANCH   6  16
TORSDOF 3
ENDMDL
MODEL 8
REMARK VINA RESULT:    -0.790      6.470     10.536
REMARK INTER + INTRA:          -1.343
REMARK INTER:                  -1.084
REMARK INTRA:                  -0.260
REMARK UNBOUND:                -0.414
REMARK SMILES Cc1ccc(CNC(=O)NC(=O)c2ccc(C)cc2)cc1
REMARK SMILES IDX 11 1 12 2 10 3 8 4 9 5 7 6 13 9 19 10 18 11 14 12 16 13
REMARK SMILES IDX 15 14 17 15 6 16 5 17 4 18 20 19 3 20 21 21 2 22 1 23
REMARK H PARENT 10 7 7 8
ROOT
ATOM      1  C   UNL     1     -12.133   4.920 -12.000  1.00  0.00     0.259 C 
ATOM      2  O   UNL     1     -13.321   4.693 -11.818  1.00  0.00    -0.269 OA
ATOM      3  N   UNL     1     -11.489   5.325 -13.174  1.00  0.00    -0.274 N 
ATOM      4  C   UNL     1     -11.841   5.828 -14.400  1.00  0.00     0.321 C 
ATOM      5  O   UNL     1     -10.931   6.200 -15.150  1.00  0.00    -0.248 OA
ATOM      6  N   UNL     1     -13.115   5.964 -14.812  1.00  0.00    -0.334 N 
ATOM      7  H   UNL     1     -10.487   5.429 -13.086  1.00  0.00     0.175 HD
ATOM      8  H   UNL     1     -13.207   6.430 -15.703  1.00  0.00     0.165 HD
ENDROOT
BRANCH   1   9
ATOM      9  C   UNL     1     -11.242   4.755 -10.836  1.00  0.00     0.040 A 
ATOM     10  C   UNL     1     -11.678   5.039  -9.540  1.00  0.00     0.014 A 
ATOM     11  C   UNL     1     -10.816   4.817  -8.465  1.00  0.00     0.004 A 
ATOM     12  C   UNL     1      -9.936   4.310 -11.065  1.00  0.00     0.014 A 
ATOM     13  C   UNL     1      -9.522   4.322  -8.680  1.00  0.00    -0.051 A 
ATOM     14  C   UNL     1      -9.082   4.084  -9.988  1.00  0.00     0.004 A 
ATOM     15  C   UNL     1      -8.638   4.008  -7.509  1.00  0.00     0.044 C 
ENDBRANCH   1   9
BRANCH   6  16
ATOM     16  C   UNL     1     -14.310   5.693 -14.064  1.00  0.00     0.153 C 
BRANCH  16  17
ATOM     17  C   UNL     1     -15.000   4.382 -14.317  1.00  0.00    -0.029 A 
ATOM     18  C   UNL     1     -14.471   3.389 -15.149  1.00  0.00     0.006 A 
ATOM     19  C   UNL     1     -16.112   4.074 -13.516  1.00  0.00     0.006 A 
ATOM     20  C   UNL     1     -15.033   2.108 -15.154  1.00  0.00     0.004 A 
ATOM     21  C   UNL     1     -16.666   2.798 -13.519  1.00  0.00     0.004 A 
ATOM     22  C   UNL     1     -16.125   1.800 -14.331  1.00  0.00    -0.051 A 
ATOM     23  C   UNL     1     -16.641   0.397 -14.225  1.00  0.00     0.044 C 
ENDBRANCH  16  17
ENDBRANCH   6  16
TORSDOF 3
ENDMDL
