MODEL 1
REMARK VINA RESULT:    -0.519      0.000      0.000
REMARK INTER + INTRA:          -0.971
REMARK INTER:                  -0.687
REMARK INTRA:                  -0.284
REMARK UNBOUND:                -0.284
REMARK SMILES [H]/N=C\C[C@H]1C[C@@H]1O[C@H]1CO[C@H]2C[C@@H](C3CC3)CCN2C1
REMARK SMILES IDX 7 1 6 2 5 3 8 4 9 5 14 6 13 7 18 8 12 9 19 10 20 11 11 12
REMARK SMILES IDX 21 13 10 14 15 15 16 16 17 17 4 18 3 19 2 20 1 21
REMARK H PARENT
ROOT
ATOM      1  C   UNL     1       1.574  10.512   9.098  1.00  0.00     0.122 C 
ATOM      2  C   UNL     1       2.684  10.864   8.148  1.00  0.00     0.039 C 
ATOM      3  C   UNL     1       1.505  11.783   8.296  1.00  0.00     0.026 C 
ENDROOT
BRANCH   1   4
ATOM      4  O   UNL     1       0.743   9.423   8.652  1.00  0.00    -0.371 OA
BRANCH   4   5
ATOM      5  C   UNL     1       0.418   8.443   9.652  1.00  0.00     0.158 C 
ATOM      6  C   UNL     1      -1.467   4.724   6.517  1.00  0.00    -0.003 C 
ATOM      7  C   UNL     1      -1.945   6.098   7.003  1.00  0.00     0.052 C 
ATOM      8  C   UNL     1       0.065   4.730   6.408  1.00  0.00     0.019 C 
ATOM      9  C   UNL     1      -1.228   6.529   8.289  1.00  0.00     0.189 C 
ATOM     10  C   UNL     1       0.715   5.201   7.709  1.00  0.00     0.087 C 
ATOM     11  N   UNL     1       0.221   6.523   8.092  1.00  0.00    -0.276 NA
ATOM     12  O   UNL     1      -1.720   7.831   8.614  1.00  0.00    -0.360 OA
ATOM     13  C   UNL     1       0.900   7.027   9.292  1.00  0.00     0.121 C 
ATOM     14  C   UNL     1      -1.108   8.385   9.783  1.00  0.00     0.195 C 
BRANCH   6  15
ATOM     15  C   UNL     1      -2.092   4.356   5.191  1.00  0.00    -0.008 C 
ATOM     16  C   UNL     1      -2.989   3.146   5.079  1.00  0.00     0.004 C 
ATOM     17  C   UNL     1      -3.574   4.523   4.961  1.00  0.00     0.004 C 
ENDBRANCH   6  15
ENDBRANCH   4   5
ENDBRANCH   1   4
BRANCH   3  18
ATOM     18  C   UNL     1       1.698  13.110   8.966  1.00  0.00     0.053 C 
BRANCH  18  19
ATOM     19  C   UNL     1       0.996  14.284   8.334  1.00  0.00     0.074 C 
BRANCH  19  20
ATOM     20  N   UNL     1      -0.265  14.355   8.064  1.00  0.00    -0.313 NA
ATOM     21  H   UNL     1      -0.550  13.632   7.388  1.00  0.00     0.186 HD
ENDBRANCH  19  20
ENDBRANCH  18  19
ENDBRANCH   3  18
TORSDOF 6
ENDMDL
MODEL 2
REMARK VINA RESULT:    -0.328      3.117      5.670
REMARK INTER + INTRA:          -0.717
REMARK INTER:                  -0.438
REMARK INTRA:                  -0.279
REMARK UNBOUND:                -0.284
REMARK SMILES [H]/N=C\C[C@H]1C[C@@H]1O[C@H]1CO[C@H]2C[C@@H](C3CC3)CCN2C1
REMARK SMILES IDX 7 1 6 2 5 3 8 4 9 5 14 6 13 7 18 8 12 9 19 10 20 11 11 12
REMARK SMILES IDX 21 13 10 14 15 15 16 16 17 17 4 18 3 19 2 20 1 21
REMARK H PARENT
ROOT
ATOM      1  C   UNL     1      -3.152   7.693  11.428  1.00  0.00     0.122 C 
ATOM      2  C   UNL     1      -4.208   6.639  11.602  1.00  0.00     0.039 C 
ATOM      3  C   UNL     1      -3.111   6.774  12.618  1.00  0.00     0.026 C 
ENDROOT
BRANCH   1   4
ATOM      4  O   UNL     1      -2.216   7.417  10.368  1.00  0.00    -0.371 OA
BRANCH   4   5
ATOM      5  C   UNL     1      -1.931   8.519   9.491  1.00  0.00     0.158 C 
ATOM      6  C   UNL     1       0.121   5.841   5.513  1.00  0.00    -0.003 C 
ATOM      7  C   UNL     1       0.568   6.216   6.932  1.00  0.00     0.052 C 
ATOM      8  C   UNL     1      -1.403   5.662   5.492  1.00  0.00     0.019 C 
ATOM      9  C   UNL     1      -0.211   7.421   7.475  1.00  0.00     0.189 C 
ATOM     10  C   UNL     1      -2.117   6.880   6.076  1.00  0.00     0.087 C 
ATOM     11  N   UNL     1      -1.650   7.159   7.434  1.00  0.00    -0.276 NA
ATOM     12  O   UNL     1       0.256   7.644   8.806  1.00  0.00    -0.360 OA
ATOM     13  C   UNL     1      -2.387   8.273   8.042  1.00  0.00     0.121 C 
ATOM     14  C   UNL     1      -0.413   8.725   9.462  1.00  0.00     0.195 C 
BRANCH   6  15
ATOM     15  C   UNL     1       0.810   4.586   5.028  1.00  0.00    -0.008 C 
ATOM     16  C   UNL     1       1.864   4.661   3.948  1.00  0.00     0.004 C 
ATOM     17  C   UNL     1       2.260   4.323   5.356  1.00  0.00     0.004 C 
ENDBRANCH   6  15
ENDBRANCH   4   5
ENDBRANCH   1   4
BRANCH   3  18
ATOM     18  C   UNL     1      -3.446   7.293  13.985  1.00  0.00     0.053 C 
BRANCH  18  19
ATOM     19  C   UNL     1      -2.700   6.670  15.136  1.00  0.00     0.074 C 
BRANCH  19  20
ATOM     20  N   UNL     1      -1.468   6.281  15.117  1.00  0.00    -0.313 NA
ATOM     21  H   UNL     1      -1.309   5.558  14.402  1.00  0.00     0.186 HD
ENDBRANCH  19  20
ENDBRANCH  18  19
ENDBRANCH   3  18
TORSDOF 6
ENDMDL
MODEL 3
REMARK VINA RESULT:    -0.039      2.534      6.296
REMARK INTER + INTRA:          -0.336
REMARK INTER:                  -0.798
REMARK INTRA:                   0.462
REMARK UNBOUND:                -0.284
REMARK SMILES [H]/N=C\C[C@H]1C[C@@H]1O[C@H]1CO[C@H]2C[C@@H](C3CC3)CCN2C1
REMARK SMILES IDX 7 1 6 2 5 3 8 4 9 5 14 6 13 7 18 8 12 9 19 10 20 11 11 12
REMARK SMILES IDX 21 13 10 14 15 15 16 16 17 17 4 18 3 19 2 20 1 21
REMARK H PARENT
ROOT
ATOM      1  C   UNL     1      -2.009   4.911   5.142  1.00  0.00     0.122 C 
ATOM      2  C   UNL     1      -3.506   4.845   5.254  1.00  0.00     0.039 C 
ATOM      3  C   UNL     1      -2.745   5.909   5.993  1.00  0.00     0.026 C 
ENDROOT
BRANCH   1   4
ATOM      4  O   UNL     1      -1.321   3.854   5.838  1.00  0.00    -0.371 OA
BRANCH   4   5
ATOM      5  C   UNL     1       0.111   3.857   5.710  1.00  0.00     0.158 C 
ATOM      6  C   UNL     1       1.129   8.198   8.416  1.00  0.00    -0.003 C 
ATOM      7  C   UNL     1       0.515   7.875   7.049  1.00  0.00     0.052 C 
ATOM      8  C   UNL     1       0.791   7.071   9.403  1.00  0.00     0.019 C 
ATOM      9  C   UNL     1       0.914   6.476   6.561  1.00  0.00     0.189 C 
ATOM     10  C   UNL     1       1.182   5.703   8.844  1.00  0.00     0.087 C 
ATOM     11  N   UNL     1       0.542   5.464   7.550  1.00  0.00    -0.276 NA
ATOM     12  O   UNL     1       0.251   6.274   5.312  1.00  0.00    -0.360 OA
ATOM     13  C   UNL     1       0.838   4.121   7.041  1.00  0.00     0.121 C 
ATOM     14  C   UNL     1       0.500   4.983   4.747  1.00  0.00     0.195 C 
BRANCH   6  15
ATOM     15  C   UNL     1       0.641   9.528   8.943  1.00  0.00    -0.008 C 
ATOM     16  C   UNL     1       1.539  10.383   9.807  1.00  0.00     0.004 C 
ATOM     17  C   UNL     1       1.204  10.824   8.412  1.00  0.00     0.004 C 
ENDBRANCH   6  15
ENDBRANCH   4   5
ENDBRANCH   1   4
BRANCH   3  18
ATOM     18  C   UNL     1      -2.872   7.335   5.547  1.00  0.00     0.053 C 
BRANCH  18  19
ATOM     19  C   UNL     1      -3.292   8.327   6.599  1.00  0.00     0.074 C 
BRANCH  19  20
ATOM     20  N   UNL     1      -4.172   9.261   6.451  1.00  0.00    -0.313 NA
ATOM     21  H   UNL     1      -4.107   9.700   5.522  1.00  0.00     0.186 HD
ENDBRANCH  19  20
ENDBRANCH  18  19
ENDBRANCH   3  18
TORSDOF 6
ENDMDL
MODEL 4
REMARK VINA RESULT:    -0.023      3.893      6.190
REMARK INTER + INTRA:          -0.315
REMARK INTER:                  -0.742
REMARK INTRA:                   0.428
REMARK UNBOUND:                -0.284
REMARK SMILES [H]/N=C\C[C@H]1C[C@@H]1O[C@H]1CO[C@H]2C[C@@H](C3CC3)CCN2C1
REMARK SMILES IDX 7 1 6 2 5 3 8 4 9 5 14 6 13 7 18 8 12 9 19 10 20 11 11 12
REMARK SMILES IDX 21 13 10 14 15 15 16 16 17 17 4 18 3 19 2 20 1 21
REMARK H PARENT
ROOT
ATOM      1  C   UNL     1       0.745   4.499   5.625  1.00  0.00     0.122 C 
ATOM      2  C   UNL     1       2.241   4.643   5.629  1.00  0.00     0.039 C 
ATOM      3  C   UNL     1       1.427   5.247   6.738  1.00  0.00     0.026 C 
ENDROOT
BRANCH   1   4
ATOM      4  O   UNL     1       0.081   5.295   4.625  1.00  0.00    -0.371 OA
BRANCH   4   5
ATOM      5  C   UNL     1      -1.344   5.129   4.548  1.00  0.00     0.158 C 
ATOM      6  C   UNL     1      -2.633   7.296   9.114  1.00  0.00    -0.003 C 
ATOM      7  C   UNL     1      -1.963   5.991   8.668  1.00  0.00     0.052 C 
ATOM      8  C   UNL     1      -2.279   8.413   8.122  1.00  0.00     0.019 C 
ATOM      9  C   UNL     1      -2.286   5.655   7.206  1.00  0.00     0.189 C 
ATOM     10  C   UNL     1      -2.593   8.003   6.683  1.00  0.00     0.087 C 
ATOM     11  N   UNL     1      -1.902   6.762   6.330  1.00  0.00    -0.276 NA
ATOM     12  O   UNL     1      -1.575   4.455   6.895  1.00  0.00    -0.360 OA
ATOM     13  C   UNL     1      -2.124   6.402   4.926  1.00  0.00     0.121 C 
ATOM     14  C   UNL     1      -1.752   4.034   5.539  1.00  0.00     0.195 C 
BRANCH   6  15
ATOM     15  C   UNL     1      -2.220   7.681  10.516  1.00  0.00    -0.008 C 
ATOM     16  C   UNL     1      -3.173   8.435  11.414  1.00  0.00     0.004 C 
ATOM     17  C   UNL     1      -2.835   7.004  11.717  1.00  0.00     0.004 C 
ENDBRANCH   6  15
ENDBRANCH   4   5
ENDBRANCH   1   4
BRANCH   3  18
ATOM     18  C   UNL     1       1.511   4.649   8.110  1.00  0.00     0.053 C 
BRANCH  18  19
ATOM     19  C   UNL     1       1.846   5.598   9.231  1.00  0.00     0.074 C 
BRANCH  19  20
ATOM     20  N   UNL     1       2.723   5.397  10.157  1.00  0.00    -0.313 NA
ATOM     21  H   UNL     1       3.683   5.502   9.800  1.00  0.00     0.186 HD
ENDBRANCH  19  20
ENDBRANCH  18  19
ENDBRANCH   3  18
TORSDOF 6
ENDMDL
MODEL 5
REMARK VINA RESULT:     0.619      3.012      6.617
REMARK INTER + INTRA:           0.534
REMARK INTER:                  -0.586
REMARK INTRA:                   1.119
REMARK UNBOUND:                -0.284
REMARK SMILES [H]/N=C\C[C@H]1C[C@@H]1O[C@H]1CO[C@H]2C[C@@H](C3CC3)CCN2C1
REMARK SMILES IDX 7 1 6 2 5 3 8 4 9 5 14 6 13 7 18 8 12 9 19 10 20 11 11 12
REMARK SMILES IDX 21 13 10 14 15 15 16 16 17 17 4 18 3 19 2 20 1 21
REMARK H PARENT
ROOT
ATOM      1  C   UNL     1      -0.203   4.045   4.575  1.00  0.00     0.122 C 
ATOM      2  C   UNL     1       0.849   4.092   3.504  1.00  0.00     0.039 C 
ATOM      3  C   UNL     1       0.990   4.948   4.730  1.00  0.00     0.026 C 
ENDROOT
BRANCH   1   4
ATOM      4  O   UNL     1      -1.445   4.675   4.207  1.00  0.00    -0.371 OA
BRANCH   4   5
ATOM      5  C   UNL     1      -2.556   4.412   5.079  1.00  0.00     0.158 C 
ATOM      6  C   UNL     1      -1.507   7.947   8.768  1.00  0.00    -0.003 C 
ATOM      7  C   UNL     1      -0.903   6.608   8.326  1.00  0.00     0.052 C 
ATOM      8  C   UNL     1      -2.088   8.670   7.545  1.00  0.00     0.019 C 
ATOM      9  C   UNL     1      -1.904   5.769   7.521  1.00  0.00     0.189 C 
ATOM     10  C   UNL     1      -3.049   7.770   6.768  1.00  0.00     0.087 C 
ATOM     11  N   UNL     1      -2.393   6.526   6.368  1.00  0.00    -0.276 NA
ATOM     12  O   UNL     1      -1.218   4.579   7.129  1.00  0.00    -0.360 OA
ATOM     13  C   UNL     1      -3.275   5.689   5.547  1.00  0.00     0.121 C 
ATOM     14  C   UNL     1      -2.022   3.706   6.330  1.00  0.00     0.195 C 
BRANCH   6  15
ATOM     15  C   UNL     1      -0.482   8.816   9.462  1.00  0.00    -0.008 C 
ATOM     16  C   UNL     1       0.976   8.423   9.464  1.00  0.00     0.004 C 
ATOM     17  C   UNL     1       0.524   9.611   8.665  1.00  0.00     0.004 C 
ENDBRANCH   6  15
ENDBRANCH   4   5
ENDBRANCH   1   4
BRANCH   3  18
ATOM     18  C   UNL     1       2.062   4.619   5.726  1.00  0.00     0.053 C 
BRANCH  18  19
ATOM     19  C   UNL     1       1.829   5.094   7.137  1.00  0.00     0.074 C 
BRANCH  19  20
ATOM     20  N   UNL     1       1.545   4.347   8.151  1.00  0.00    -0.313 NA
ATOM     21  H   UNL     1       0.569   4.471   8.453  1.00  0.00     0.186 HD
ENDBRANCH  19  20
ENDBRANCH  18  19
ENDBRANCH   3  18
TORSDOF 6
ENDMDL
MODEL 6
REMARK VINA RESULT:     0.623      3.433      6.448
REMARK INTER + INTRA:           0.539
REMARK INTER:                  -0.670
REMARK INTRA:                   1.209
REMARK UNBOUND:                -0.284
REMARK SMILES [H]/N=C\C[C@H]1C[C@@H]1O[C@H]1CO[C@H]2C[C@@H](C3CC3)CCN2C1
REMARK SMILES IDX 7 1 6 2 5 3 8 4 9 5 14 6 13 7 18 8 12 9 19 10 20 11 11 12
REMARK SMILES IDX 21 13 10 14 15 15 16 16 17 17 4 18 3 19 2 20 1 21
REMARK H PARENT
ROOT
ATOM      1  C   UNL     1      -1.031   3.914   4.634  1.00  0.00     0.122 C 
ATOM      2  C   UNL     1      -2.058   2.822   4.532  1.00  0.00     0.039 C 
ATOM      3  C   UNL     1      -2.253   3.945   5.510  1.00  0.00     0.026 C 
ENDROOT
BRANCH   1   4
ATOM      4  O   UNL     1       0.201   3.505   5.259  1.00  0.00    -0.371 OA
BRANCH   4   5
ATOM      5  C   UNL     1       1.298   4.422   5.122  1.00  0.00     0.158 C 
ATOM      6  C   UNL     1       0.023   7.744   8.936  1.00  0.00    -0.003 C 
ATOM      7  C   UNL     1      -0.518   7.415   7.539  1.00  0.00     0.052 C 
ATOM      8  C   UNL     1       0.605   6.471   9.566  1.00  0.00     0.019 C 
ATOM      9  C   UNL     1       0.534   6.712   6.671  1.00  0.00     0.189 C 
ATOM     10  C   UNL     1       1.620   5.802   8.639  1.00  0.00     0.087 C 
ATOM     11  N   UNL     1       1.022   5.505   7.337  1.00  0.00    -0.276 NA
ATOM     12  O   UNL     1      -0.096   6.418   5.422  1.00  0.00    -0.360 OA
ATOM     13  C   UNL     1       1.956   4.784   6.466  1.00  0.00     0.121 C 
ATOM     14  C   UNL     1       0.761   5.721   4.513  1.00  0.00     0.195 C 
BRANCH   6  15
ATOM     15  C   UNL     1      -1.052   8.332   9.822  1.00  0.00    -0.008 C 
ATOM     16  C   UNL     1      -2.498   8.310   9.387  1.00  0.00     0.004 C 
ATOM     17  C   UNL     1      -2.048   7.441  10.525  1.00  0.00     0.004 C 
ENDBRANCH   6  15
ENDBRANCH   4   5
ENDBRANCH   1   4
BRANCH   3  18
ATOM     18  C   UNL     1      -3.339   4.948   5.258  1.00  0.00     0.053 C 
BRANCH  18  19
ATOM     19  C   UNL     1      -3.150   6.305   5.884  1.00  0.00     0.074 C 
BRANCH  19  20
ATOM     20  N   UNL     1      -2.963   7.413   5.247  1.00  0.00    -0.313 NA
ATOM     21  H   UNL     1      -3.013   8.226   5.878  1.00  0.00     0.186 HD
ENDBRANCH  19  20
ENDBRANCH  18  19
ENDBRANCH   3  18
TORSDOF 6
ENDMDL
MODEL 7
REMARK VINA RESULT:     0.970      2.620      6.929
REMARK INTER + INTRA:           0.997
REMARK INTER:                   0.933
REMARK INTRA:                   0.064
REMARK UNBOUND:                -0.284
REMARK SMILES [H]/N=C\C[C@H]1C[C@@H]1O[C@H]1CO[C@H]2C[C@@H](C3CC3)CCN2C1
REMARK SMILES IDX 7 1 6 2 5 3 8 4 9 5 14 6 13 7 18 8 12 9 19 10 20 11 11 12
REMARK SMILES IDX 21 13 10 14 15 15 16 16 17 17 4 18 3 19 2 20 1 21
REMARK H PARENT
ROOT
ATOM      1  C   UNL     1      -1.063   3.919   5.632  1.00  0.00     0.122 C 
ATOM      2  C   UNL     1      -1.567   4.142   4.234  1.00  0.00     0.039 C 
ATOM      3  C   UNL     1      -0.357   4.886   4.721  1.00  0.00     0.026 C 
ENDROOT
BRANCH   1   4
ATOM      4  O   UNL     1      -1.899   4.490   6.656  1.00  0.00    -0.371 OA
BRANCH   4   5
ATOM      5  C   UNL     1      -1.491   4.227   8.008  1.00  0.00     0.158 C 
ATOM      6  C   UNL     1       0.289   8.976   9.227  1.00  0.00    -0.003 C 
ATOM      7  C   UNL     1       0.763   7.820   8.337  1.00  0.00     0.052 C 
ATOM      8  C   UNL     1      -1.246   9.007   9.243  1.00  0.00     0.019 C 
ATOM      9  C   UNL     1       0.115   6.489   8.740  1.00  0.00     0.189 C 
ATOM     10  C   UNL     1      -1.828   7.644   9.617  1.00  0.00     0.087 C 
ATOM     11  N   UNL     1      -1.343   6.602   8.712  1.00  0.00    -0.276 NA
ATOM     12  O   UNL     1       0.594   5.507   7.819  1.00  0.00    -0.360 OA
ATOM     13  C   UNL     1      -1.960   5.303   9.004  1.00  0.00     0.121 C 
ATOM     14  C   UNL     1       0.041   4.207   8.048  1.00  0.00     0.195 C 
BRANCH   6  15
ATOM     15  C   UNL     1       0.842  10.302   8.755  1.00  0.00    -0.008 C 
ATOM     16  C   UNL     1       1.875  11.035   9.578  1.00  0.00     0.004 C 
ATOM     17  C   UNL     1       2.265  10.417   8.266  1.00  0.00     0.004 C 
ENDBRANCH   6  15
ENDBRANCH   4   5
ENDBRANCH   1   4
BRANCH   3  18
ATOM     18  C   UNL     1       0.986   4.543   4.150  1.00  0.00     0.053 C 
BRANCH  18  19
ATOM     19  C   UNL     1       2.181   4.909   4.991  1.00  0.00     0.074 C 
BRANCH  19  20
ATOM     20  N   UNL     1       2.942   4.082   5.627  1.00  0.00    -0.313 NA
ATOM     21  H   UNL     1       2.393   3.402   6.171  1.00  0.00     0.186 HD
ENDBRANCH  19  20
ENDBRANCH  18  19
ENDBRANCH   3  18
TORSDOF 6
ENDMDL
MODEL 8
REMARK VINA RESULT:     1.159      2.948      6.637
REMARK INTER + INTRA:           1.248
REMARK INTER:                   1.128
REMARK INTRA:                   0.120
REMARK UNBOUND:                -0.284
REMARK SMILES [H]/N=C\C[C@H]1C[C@@H]1O[C@H]1CO[C@H]2C[C@@H](C3CC3)CCN2C1
REMARK SMILES IDX 7 1 6 2 5 3 8 4 9 5 14 6 13 7 18 8 12 9 19 10 20 11 11 12
REMARK SMILES IDX 21 13 10 14 15 15 16 16 17 17 4 18 3 19 2 20 1 21
REMARK H PARENT
ROOT
ATOM      1  C   UNL     1      -0.074   5.070   4.698  1.00  0.00     0.122 C 
ATOM      2  C   UNL     1       0.460   3.678   4.890  1.00  0.00     0.039 C 
ATOM      3  C   UNL     1      -0.844   4.075   5.522  1.00  0.00     0.026 C 
ENDROOT
BRANCH   1   4
ATOM      4  O   UNL     1       0.652   6.082   5.420  1.00  0.00    -0.371 OA
BRANCH   4   5
ATOM      5  C   UNL     1       0.161   7.424   5.268  1.00  0.00     0.158 C 
ATOM      6  C   UNL     1      -1.906   8.045  10.017  1.00  0.00    -0.003 C 
ATOM      7  C   UNL     1      -2.265   7.245   8.758  1.00  0.00     0.052 C 
ATOM      8  C   UNL     1      -0.379   8.159  10.126  1.00  0.00     0.019 C 
ATOM      9  C   UNL     1      -1.589   7.820   7.506  1.00  0.00     0.189 C 
ATOM     10  C   UNL     1       0.234   8.704   8.837  1.00  0.00     0.087 C 
ATOM     11  N   UNL     1      -0.139   7.877   7.689  1.00  0.00    -0.276 NA
ATOM     12  O   UNL     1      -1.959   6.972   6.417  1.00  0.00    -0.360 OA
ATOM     13  C   UNL     1       0.512   8.337   6.457  1.00  0.00     0.121 C 
ATOM     14  C   UNL     1      -1.367   7.365   5.175  1.00  0.00     0.195 C 
BRANCH   6  15
ATOM     15  C   UNL     1      -2.481   7.408  11.262  1.00  0.00    -0.008 C 
ATOM     16  C   UNL     1      -3.518   8.137  12.083  1.00  0.00     0.004 C 
ATOM     17  C   UNL     1      -3.910   6.922  11.293  1.00  0.00     0.004 C 
ENDBRANCH   6  15
ENDBRANCH   4   5
ENDBRANCH   1   4
BRANCH   3  18
ATOM     18  C   UNL     1      -2.117   3.482   4.997  1.00  0.00     0.053 C 
BRANCH  18  19
ATOM     19  C   UNL     1      -3.394   4.153   5.430  1.00  0.00     0.074 C 
BRANCH  19  20
ATOM     20  N   UNL     1      -4.193   4.824   4.669  1.00  0.00    -0.313 NA
ATOM     21  H   UNL     1      -4.957   5.256   5.208  1.00  0.00     0.186 HD
ENDBRANCH  19  20
ENDBRANCH  18  19
ENDBRANCH   3  18
TORSDOF 6
ENDMDL
MODEL 9
REMARK VINA RESULT:     1.495      4.408      9.588
REMARK INTER + INTRA:           1.691
REMARK INTER:                   1.808
REMARK INTRA:                  -0.117
REMARK UNBOUND:                -0.284
REMARK SMILES [H]/N=C\C[C@H]1C[C@@H]1O[C@H]1CO[C@H]2C[C@@H](C3CC3)CCN2C1
REMARK SMILES IDX 7 1 6 2 5 3 8 4 9 5 14 6 13 7 18 8 12 9 19 10 20 11 11 12
REMARK SMILES IDX 21 13 10 14 15 15 16 16 17 17 4 18 3 19 2 20 1 21
REMARK H PARENT
ROOT
ATOM      1  C   UNL     1      -1.058   0.021   3.707  1.00  0.00     0.122 C 
ATOM      2  C   UNL     1      -0.723  -0.231   2.264  1.00  0.00     0.039 C 
ATOM      3  C   UNL     1       0.039  -0.942   3.345  1.00  0.00     0.026 C 
ENDROOT
BRANCH   1   4
ATOM      4  O   UNL     1      -0.647   1.315   4.188  1.00  0.00    -0.371 OA
BRANCH   4   5
ATOM      5  C   UNL     1      -1.267   2.441   3.545  1.00  0.00     0.158 C 
ATOM      6  C   UNL     1      -0.269   6.059   7.166  1.00  0.00    -0.003 C 
ATOM      7  C   UNL     1      -1.205   4.850   7.051  1.00  0.00     0.052 C 
ATOM      8  C   UNL     1       1.021   5.778   6.383  1.00  0.00     0.019 C 
ATOM      9  C   UNL     1      -1.437   4.447   5.588  1.00  0.00     0.189 C 
ATOM     10  C   UNL     1       0.721   5.349   4.947  1.00  0.00     0.087 C 
ATOM     11  N   UNL     1      -0.161   4.182   4.924  1.00  0.00    -0.276 NA
ATOM     12  O   UNL     1      -2.279   3.293   5.611  1.00  0.00    -0.360 OA
ATOM     13  C   UNL     1      -0.389   3.705   3.555  1.00  0.00     0.121 C 
ATOM     14  C   UNL     1      -2.554   2.774   4.306  1.00  0.00     0.195 C 
BRANCH   6  15
ATOM     15  C   UNL     1       0.046   6.381   8.610  1.00  0.00    -0.008 C 
ATOM     16  C   UNL     1       0.225   7.814   9.052  1.00  0.00     0.004 C 
ATOM     17  C   UNL     1      -0.982   7.040   9.498  1.00  0.00     0.004 C 
ENDBRANCH   6  15
ENDBRANCH   4   5
ENDBRANCH   1   4
BRANCH   3  18
ATOM     18  C   UNL     1      -0.161  -2.417   3.524  1.00  0.00     0.053 C 
BRANCH  18  19
ATOM     19  C   UNL     1       0.766  -3.102   4.494  1.00  0.00     0.074 C 
BRANCH  19  20
ATOM     20  N   UNL     1       1.595  -2.515   5.292  1.00  0.00    -0.313 NA
ATOM     21  H   UNL     1       1.336  -2.655   6.279  1.00  0.00     0.186 HD
ENDBRANCH  19  20
ENDBRANCH  18  19
ENDBRANCH   3  18
TORSDOF 6
ENDMDL
