MODEL 1
REMARK VINA RESULT:    -2.401      0.000      0.000
REMARK INTER + INTRA:          -2.968
REMARK INTER:                  -2.822
REMARK INTRA:                  -0.146
REMARK UNBOUND:                -0.146
REMARK SMILES Cc1ccc(CNC(=O)NC(=O)c2ccc(C)cc2)cc1
REMARK SMILES IDX 11 1 12 2 10 3 8 4 9 5 7 6 13 9 19 10 18 11 14 12 16 13
REMARK SMILES IDX 15 14 17 15 6 16 5 17 4 18 20 19 3 20 21 21 2 22 1 23
REMARK H PARENT 10 7 7 8
ROOT
ATOM      1  C   UNL     1      -0.687   2.740   3.393  1.00  0.00     0.259 C 
ATOM      2  O   UNL     1      -1.271   1.732   3.766  1.00  0.00    -0.269 OA
ATOM      3  N   UNL     1      -0.018   2.968   2.186  1.00  0.00    -0.274 N 
ATOM      4  C   UNL     1       0.070   2.381   0.949  1.00  0.00     0.321 C 
ATOM      5  O   UNL     1       0.691   2.987   0.070  1.00  0.00    -0.248 OA
ATOM      6  N   UNL     1      -0.507   1.204   0.642  1.00  0.00    -0.334 N 
ATOM      7  H   UNL     1       0.411   3.881   2.113  1.00  0.00     0.175 HD
ATOM      8  H   UNL     1      -0.421   0.952  -0.332  1.00  0.00     0.165 HD
ENDROOT
BRANCH   1   9
ATOM      9  C   UNL     1      -0.679   3.882   4.326  1.00  0.00     0.040 A 
ATOM     10  C   UNL     1      -1.845   4.310   4.963  1.00  0.00     0.014 A 
ATOM     11  C   UNL     1      -1.778   5.361   5.878  1.00  0.00     0.004 A 
ATOM     12  C   UNL     1       0.536   4.536   4.554  1.00  0.00     0.014 A 
ATOM     13  C   UNL     1      -0.554   5.990   6.152  1.00  0.00    -0.051 A 
ATOM     14  C   UNL     1       0.600   5.581   5.473  1.00  0.00     0.004 A 
ATOM     15  C   UNL     1      -0.484   7.062   7.200  1.00  0.00     0.044 C 
ENDBRANCH   1   9
BRANCH   6  16
ATOM     16  C   UNL     1      -1.350   0.396   1.477  1.00  0.00     0.153 C 
BRANCH  16  17
ATOM     17  C   UNL     1      -0.706  -0.752   2.203  1.00  0.00    -0.029 A 
ATOM     18  C   UNL     1       0.653  -1.062   2.088  1.00  0.00     0.006 A 
ATOM     19  C   UNL     1      -1.467  -1.396   3.192  1.00  0.00     0.006 A 
ATOM     20  C   UNL     1       1.239  -1.981   2.965  1.00  0.00     0.004 A 
ATOM     21  C   UNL     1      -0.883  -2.307   4.067  1.00  0.00     0.004 A 
ATOM     22  C   UNL     1       0.478  -2.600   3.967  1.00  0.00    -0.051 A 
ATOM     23  C   UNL     1       1.126  -3.475   4.998  1.00  0.00     0.044 C 
ENDBRANCH  16  17
ENDBRANCH   6  16
TORSDOF 3
ENDMDL
MODEL 2
REMARK VINA RESULT:    -1.970      2.136      4.910
REMARK INTER + INTRA:          -2.462
REMARK INTER:                  -2.532
REMARK INTRA:                   0.071
REMARK UNBOUND:                -0.146
REMARK SMILES Cc1ccc(CNC(=O)NC(=O)c2ccc(C)cc2)cc1
REMARK SMILES IDX 11 1 12 2 10 3 8 4 9 5 7 6 13 9 19 10 18 11 14 12 16 13
REMARK SMILES IDX 15 14 17 15 6 16 5 17 4 18 20 19 3 20 21 21 2 22 1 23
REMARK H PARENT 10 7 7 8
ROOT
ATOM      1  C   UNL     1      -0.451   2.837   3.274  1.00  0.00     0.259 C 
ATOM      2  O   UNL     1       0.155   3.322   2.329  1.00  0.00    -0.269 OA
ATOM      3  N   UNL     1      -1.083   1.592   3.363  1.00  0.00    -0.274 N 
ATOM      4  C   UNL     1      -1.106   0.415   2.660  1.00  0.00     0.321 C 
ATOM      5  O   UNL     1      -1.716  -0.538   3.158  1.00  0.00    -0.248 OA
ATOM      6  N   UNL     1      -0.477   0.238   1.483  1.00  0.00    -0.334 N 
ATOM      7  H   UNL     1      -1.542   1.420   4.247  1.00  0.00     0.175 HD
ATOM      8  H   UNL     1      -0.518  -0.710   1.139  1.00  0.00     0.165 HD
ENDROOT
BRANCH   1   9
ATOM      9  C   UNL     1      -0.534   3.658   4.497  1.00  0.00     0.040 A 
ATOM     10  C   UNL     1       0.558   4.400   4.951  1.00  0.00     0.014 A 
ATOM     11  C   UNL     1       0.416   5.203   6.083  1.00  0.00     0.004 A 
ATOM     12  C   UNL     1      -1.743   3.669   5.200  1.00  0.00     0.014 A 
ATOM     13  C   UNL     1      -0.808   5.261   6.766  1.00  0.00    -0.051 A 
ATOM     14  C   UNL     1      -1.882   4.477   6.326  1.00  0.00     0.004 A 
ATOM     15  C   UNL     1      -0.970   6.194   7.930  1.00  0.00     0.044 C 
ENDBRANCH   1   9
BRANCH   6  16
ATOM     16  C   UNL     1       0.364   1.173   0.791  1.00  0.00     0.153 C 
BRANCH  16  17
ATOM     17  C   UNL     1      -0.283   2.041  -0.252  1.00  0.00    -0.029 A 
ATOM     18  C   UNL     1      -1.608   1.875  -0.669  1.00  0.00     0.006 A 
ATOM     19  C   UNL     1       0.417   3.189  -0.658  1.00  0.00     0.006 A 
ATOM     20  C   UNL     1      -2.222   2.855  -1.457  1.00  0.00     0.004 A 
ATOM     21  C   UNL     1      -0.196   4.165  -1.436  1.00  0.00     0.004 A 
ATOM     22  C   UNL     1      -1.525   4.012  -1.834  1.00  0.00    -0.051 A 
ATOM     23  C   UNL     1      -2.218   5.129  -2.555  1.00  0.00     0.044 C 
ENDBRANCH  16  17
ENDBRANCH   6  16
TORSDOF 3
ENDMDL
MODEL 3
REMARK VINA RESULT:    -0.642      7.892     13.384
REMARK INTER + INTRA:          -0.900
REMARK INTER:                  -0.574
REMARK INTRA:                  -0.326
REMARK UNBOUND:                -0.146
REMARK SMILES Cc1ccc(CNC(=O)NC(=O)c2ccc(C)cc2)cc1
REMARK SMILES IDX 11 1 12 2 10 3 8 4 9 5 7 6 13 9 19 10 18 11 14 12 16 13
REMARK SMILES IDX 15 14 17 15 6 16 5 17 4 18 20 19 3 20 21 21 2 22 1 23
REMARK H PARENT 10 7 7 8
ROOT
ATOM      1  C   UNL     1      -0.196   9.219   9.913  1.00  0.00     0.259 C 
ATOM      2  O   UNL     1      -1.092   9.355  10.733  1.00  0.00    -0.269 OA
ATOM      3  N   UNL     1       0.918  10.035   9.690  1.00  0.00    -0.274 N 
ATOM      4  C   UNL     1       1.573  11.053  10.334  1.00  0.00     0.321 C 
ATOM      5  O   UNL     1       2.644  11.440   9.854  1.00  0.00    -0.248 OA
ATOM      6  N   UNL     1       1.128  11.625  11.468  1.00  0.00    -0.334 N 
ATOM      7  H   UNL     1       1.516   9.728   8.934  1.00  0.00     0.175 HD
ATOM      8  H   UNL     1       1.768  12.300  11.862  1.00  0.00     0.165 HD
ENDROOT
BRANCH   1   9
ATOM      9  C   UNL     1      -0.279   8.038   9.033  1.00  0.00     0.040 A 
ATOM     10  C   UNL     1       0.649   6.998   9.120  1.00  0.00     0.014 A 
ATOM     11  C   UNL     1       0.498   5.877   8.302  1.00  0.00     0.004 A 
ATOM     12  C   UNL     1      -1.316   7.989   8.096  1.00  0.00     0.014 A 
ATOM     13  C   UNL     1      -0.569   5.795   7.395  1.00  0.00    -0.051 A 
ATOM     14  C   UNL     1      -1.466   6.865   7.286  1.00  0.00     0.004 A 
ATOM     15  C   UNL     1      -0.766   4.548   6.585  1.00  0.00     0.044 C 
ENDBRANCH   1   9
BRANCH   6  16
ATOM     16  C   UNL     1      -0.027  11.259  12.239  1.00  0.00     0.153 C 
BRANCH  16  17
ATOM     17  C   UNL     1      -0.413  12.164  13.375  1.00  0.00    -0.029 A 
ATOM     18  C   UNL     1      -1.456  13.092  13.291  1.00  0.00     0.006 A 
ATOM     19  C   UNL     1       0.167  11.907  14.628  1.00  0.00     0.006 A 
ATOM     20  C   UNL     1      -1.922  13.729  14.447  1.00  0.00     0.004 A 
ATOM     21  C   UNL     1      -0.300  12.538  15.777  1.00  0.00     0.004 A 
ATOM     22  C   UNL     1      -1.356  13.447  15.698  1.00  0.00    -0.051 A 
ATOM     23  C   UNL     1      -1.942  14.016  16.955  1.00  0.00     0.044 C 
ENDBRANCH  16  17
ENDBRANCH   6  16
TORSDOF 3
ENDMDL
MODEL 4
REMARK VINA RESULT:    -0.638      7.917     13.500
REMARK INTER + INTRA:          -0.896
REMARK INTER:                  -0.569
REMARK INTRA:                  -0.327
REMARK UNBOUND:                -0.146
REMARK SMILES Cc1ccc(CNC(=O)NC(=O)c2ccc(C)cc2)cc1
REMARK SMILES IDX 11 1 12 2 10 3 8 4 9 5 7 6 13 9 19 10 18 11 14 12 16 13
REMARK SMILES IDX 15 14 17 15 6 16 5 17 4 18 20 19 3 20 21 21 2 22 1 23
REMARK H PARENT 10 7 7 8
ROOT
ATOM      1  C   UNL     1      -1.415   8.759  10.335  1.00  0.00     0.259 C 
ATOM      2  O   UNL     1      -0.558   9.594  10.589  1.00  0.00    -0.269 OA
ATOM      3  N   UNL     1      -2.544   8.408  11.082  1.00  0.00    -0.274 N 
ATOM      4  C   UNL     1      -3.257   8.913  12.138  1.00  0.00     0.321 C 
ATOM      5  O   UNL     1      -4.319   8.354  12.433  1.00  0.00    -0.248 OA
ATOM      6  N   UNL     1      -2.877   9.995  12.843  1.00  0.00    -0.334 N 
ATOM      7  H   UNL     1      -3.099   7.667  10.674  1.00  0.00     0.175 HD
ATOM      8  H   UNL     1      -3.554  10.290  13.532  1.00  0.00     0.165 HD
ENDROOT
BRANCH   1   9
ATOM      9  C   UNL     1      -1.257   8.015   9.070  1.00  0.00     0.040 A 
ATOM     10  C   UNL     1      -2.169   8.159   8.023  1.00  0.00     0.014 A 
ATOM     11  C   UNL     1      -1.950   7.475   6.827  1.00  0.00     0.004 A 
ATOM     12  C   UNL     1      -0.166   7.150   8.949  1.00  0.00     0.014 A 
ATOM     13  C   UNL     1      -0.829   6.644   6.677  1.00  0.00    -0.051 A 
ATOM     14  C   UNL     1       0.053   6.473   7.750  1.00  0.00     0.004 A 
ATOM     15  C   UNL     1      -0.562   5.982   5.357  1.00  0.00     0.044 C 
ENDBRANCH   1   9
BRANCH   6  16
ATOM     16  C   UNL     1      -1.745  10.844  12.603  1.00  0.00     0.153 C 
BRANCH  16  17
ATOM     17  C   UNL     1      -1.423  11.877  13.646  1.00  0.00    -0.029 A 
ATOM     18  C   UNL     1      -0.403  11.717  14.590  1.00  0.00     0.006 A 
ATOM     19  C   UNL     1      -2.039  13.133  13.520  1.00  0.00     0.006 A 
ATOM     20  C   UNL     1       0.004  12.803  15.372  1.00  0.00     0.004 A 
ATOM     21  C   UNL     1      -1.630  14.213  14.295  1.00  0.00     0.004 A 
ATOM     22  C   UNL     1      -0.597  14.060  15.221  1.00  0.00    -0.051 A 
ATOM     23  C   UNL     1      -0.071  15.260  15.952  1.00  0.00     0.044 C 
ENDBRANCH  16  17
ENDBRANCH   6  16
TORSDOF 3
ENDMDL
MODEL 5
REMARK VINA RESULT:     0.366      4.833      7.216
REMARK INTER + INTRA:           0.284
REMARK INTER:                   0.676
REMARK INTRA:                  -0.392
REMARK UNBOUND:                -0.146
REMARK SMILES Cc1ccc(CNC(=O)NC(=O)c2ccc(C)cc2)cc1
REMARK SMILES IDX 11 1 12 2 10 3 8 4 9 5 7 6 13 9 19 10 18 11 14 12 16 13
REMARK SMILES IDX 15 14 17 15 6 16 5 17 4 18 20 19 3 20 21 21 2 22 1 23
REMARK H PARENT 10 7 7 8
ROOT
ATOM      1  C   UNL     1      -0.789  -0.978   1.378  1.00  0.00     0.259 C 
ATOM      2  O   UNL     1      -1.361   0.098   1.479  1.00  0.00    -0.269 OA
ATOM      3  N   UNL     1      -0.439  -1.679   0.219  1.00  0.00    -0.274 N 
ATOM      4  C   UNL     1      -0.345  -1.429  -1.126  1.00  0.00     0.321 C 
ATOM      5  O   UNL     1       0.151  -2.308  -1.839  1.00  0.00    -0.248 OA
ATOM      6  N   UNL     1      -0.734  -0.274  -1.698  1.00  0.00    -0.334 N 
ATOM      7  H   UNL     1       0.013  -2.567   0.389  1.00  0.00     0.175 HD
ATOM      8  H   UNL     1      -0.518  -0.215  -2.683  1.00  0.00     0.165 HD
ENDROOT
BRANCH   1   9
ATOM      9  C   UNL     1      -0.403  -1.642   2.638  1.00  0.00     0.040 A 
ATOM     10  C   UNL     1       0.926  -1.677   3.065  1.00  0.00     0.014 A 
ATOM     11  C   UNL     1       1.235  -2.270   4.289  1.00  0.00     0.004 A 
ATOM     12  C   UNL     1      -1.410  -2.245   3.398  1.00  0.00     0.014 A 
ATOM     13  C   UNL     1       0.225  -2.833   5.084  1.00  0.00    -0.051 A 
ATOM     14  C   UNL     1      -1.097  -2.831   4.623  1.00  0.00     0.004 A 
ATOM     15  C   UNL     1       0.562  -3.390   6.435  1.00  0.00     0.044 C 
ENDBRANCH   1   9
BRANCH   6  16
ATOM     16  C   UNL     1      -1.234   0.902  -1.044  1.00  0.00     0.153 C 
BRANCH  16  17
ATOM     17  C   UNL     1      -0.881   2.231  -1.651  1.00  0.00    -0.029 A 
ATOM     18  C   UNL     1      -1.820   3.245  -1.869  1.00  0.00     0.006 A 
ATOM     19  C   UNL     1       0.484   2.527  -1.804  1.00  0.00     0.006 A 
ATOM     20  C   UNL     1      -1.393   4.534  -2.208  1.00  0.00     0.004 A 
ATOM     21  C   UNL     1       0.907   3.810  -2.137  1.00  0.00     0.004 A 
ATOM     22  C   UNL     1      -0.028   4.827  -2.332  1.00  0.00    -0.051 A 
ATOM     23  C   UNL     1       0.441   6.234  -2.554  1.00  0.00     0.044 C 
ENDBRANCH  16  17
ENDBRANCH   6  16
TORSDOF 3
ENDMDL
MODEL 6
REMARK VINA RESULT:     0.367      8.354     12.275
REMARK INTER + INTRA:           0.286
REMARK INTER:                   0.611
REMARK INTRA:                  -0.325
REMARK UNBOUND:                -0.146
REMARK SMILES Cc1ccc(CNC(=O)NC(=O)c2ccc(C)cc2)cc1
REMARK SMILES IDX 11 1 12 2 10 3 8 4 9 5 7 6 13 9 19 10 18 11 14 12 16 13
REMARK SMILES IDX 15 14 17 15 6 16 5 17 4 18 20 19 3 20 21 21 2 22 1 23
REMARK H PARENT 10 7 7 8
ROOT
ATOM      1  C   UNL     1      -1.472  11.077  12.845  1.00  0.00     0.259 C 
ATOM      2  O   UNL     1      -0.723  11.044  11.879  1.00  0.00    -0.269 OA
ATOM      3  N   UNL     1      -2.615  10.311  13.094  1.00  0.00    -0.274 N 
ATOM      4  C   UNL     1      -3.200   9.174  12.598  1.00  0.00     0.321 C 
ATOM      5  O   UNL     1      -4.180   8.724  13.201  1.00  0.00    -0.248 OA
ATOM      6  N   UNL     1      -2.747   8.515  11.516  1.00  0.00    -0.334 N 
ATOM      7  H   UNL     1      -3.087  10.536  13.959  1.00  0.00     0.175 HD
ATOM      8  H   UNL     1      -3.235   7.651  11.332  1.00  0.00     0.165 HD
ENDROOT
BRANCH   1   9
ATOM      9  C   UNL     1      -1.140  12.049  13.905  1.00  0.00     0.040 A 
ATOM     10  C   UNL     1      -0.109  11.808  14.816  1.00  0.00     0.014 A 
ATOM     11  C   UNL     1       0.203  12.779  15.768  1.00  0.00     0.004 A 
ATOM     12  C   UNL     1      -1.894  13.224  13.979  1.00  0.00     0.014 A 
ATOM     13  C   UNL     1      -0.514  13.984  15.817  1.00  0.00    -0.051 A 
ATOM     14  C   UNL     1      -1.575  14.194  14.927  1.00  0.00     0.004 A 
ATOM     15  C   UNL     1      -0.112  15.053  16.790  1.00  0.00     0.044 C 
ENDBRANCH   1   9
BRANCH   6  16
ATOM     16  C   UNL     1      -1.575   8.807  10.740  1.00  0.00     0.153 C 
BRANCH  16  17
ATOM     17  C   UNL     1      -1.372   8.021   9.474  1.00  0.00    -0.029 A 
ATOM     18  C   UNL     1      -2.179   8.177   8.342  1.00  0.00     0.006 A 
ATOM     19  C   UNL     1      -0.196   7.262   9.370  1.00  0.00     0.006 A 
ATOM     20  C   UNL     1      -1.797   7.601   7.126  1.00  0.00     0.004 A 
ATOM     21  C   UNL     1       0.186   6.694   8.158  1.00  0.00     0.004 A 
ATOM     22  C   UNL     1      -0.607   6.867   7.022  1.00  0.00    -0.051 A 
ATOM     23  C   UNL     1      -0.119   6.369   5.694  1.00  0.00     0.044 C 
ENDBRANCH  16  17
ENDBRANCH   6  16
TORSDOF 3
ENDMDL
MODEL 7
REMARK VINA RESULT:     0.377      8.343     12.052
REMARK INTER + INTRA:           0.297
REMARK INTER:                   0.623
REMARK INTRA:                  -0.326
REMARK UNBOUND:                -0.146
REMARK SMILES Cc1ccc(CNC(=O)NC(=O)c2ccc(C)cc2)cc1
REMARK SMILES IDX 11 1 12 2 10 3 8 4 9 5 7 6 13 9 19 10 18 11 14 12 16 13
REMARK SMILES IDX 15 14 17 15 6 16 5 17 4 18 20 19 3 20 21 21 2 22 1 23
REMARK H PARENT 10 7 7 8
ROOT
ATOM      1  C   UNL     1      -0.318  11.493  12.516  1.00  0.00     0.259 C 
ATOM      2  O   UNL     1      -1.036  10.518  12.347  1.00  0.00    -0.269 OA
ATOM      3  N   UNL     1       0.847  11.851  11.830  1.00  0.00    -0.274 N 
ATOM      4  C   UNL     1       1.492  11.495  10.674  1.00  0.00     0.321 C 
ATOM      5  O   UNL     1       2.472  12.167  10.333  1.00  0.00    -0.248 OA
ATOM      6  N   UNL     1       1.097  10.479   9.884  1.00  0.00    -0.334 N 
ATOM      7  H   UNL     1       1.285  12.699  12.166  1.00  0.00     0.175 HD
ATOM      8  H   UNL     1       1.625  10.401   9.027  1.00  0.00     0.165 HD
ENDROOT
BRANCH   1   9
ATOM      9  C   UNL     1      -0.719  12.434  13.580  1.00  0.00     0.040 A 
ATOM     10  C   UNL     1      -1.797  13.306  13.411  1.00  0.00     0.014 A 
ATOM     11  C   UNL     1      -2.172  14.140  14.465  1.00  0.00     0.004 A 
ATOM     12  C   UNL     1       0.017  12.435  14.768  1.00  0.00     0.014 A 
ATOM     13  C   UNL     1      -1.472  14.112  15.680  1.00  0.00    -0.051 A 
ATOM     14  C   UNL     1      -0.365  13.265  15.820  1.00  0.00     0.004 A 
ATOM     15  C   UNL     1      -1.940  14.953  16.831  1.00  0.00     0.044 C 
ENDBRANCH   1   9
BRANCH   6  16
ATOM     16  C   UNL     1      -0.063   9.648  10.041  1.00  0.00     0.153 C 
BRANCH  16  17
ATOM     17  C   UNL     1      -0.185   8.456   9.133  1.00  0.00    -0.029 A 
ATOM     18  C   UNL     1       0.651   7.338   9.224  1.00  0.00     0.006 A 
ATOM     19  C   UNL     1      -1.320   8.389   8.308  1.00  0.00     0.006 A 
ATOM     20  C   UNL     1       0.337   6.170   8.519  1.00  0.00     0.004 A 
ATOM     21  C   UNL     1      -1.633   7.226   7.612  1.00  0.00     0.004 A 
ATOM     22  C   UNL     1      -0.812   6.102   7.720  1.00  0.00    -0.051 A 
ATOM     23  C   UNL     1      -1.230   4.813   7.077  1.00  0.00     0.044 C 
ENDBRANCH  16  17
ENDBRANCH   6  16
TORSDOF 3
ENDMDL
