MODEL 1
REMARK VINA RESULT:    -4.199      0.000      0.000
REMARK INTER + INTRA:          -5.737
REMARK INTER:                  -5.550
REMARK INTRA:                  -0.187
REMARK UNBOUND:                -0.187
REMARK SMILES [H]/N=C\C[C@H]1C[C@@H]1O[C@H]1CO[C@H]2C[C@@H](C3CC3)CCN2C1
REMARK SMILES IDX 7 1 6 2 5 3 8 4 9 5 14 6 13 7 18 8 12 9 19 10 20 11 11 12
REMARK SMILES IDX 21 13 10 14 15 15 16 16 17 17 4 18 3 19 2 20 1 21
REMARK H PARENT
ROOT
ATOM      1  C   UNL     1     -12.931   4.649   3.745  1.00  0.00     0.122 C 
ATOM      2  C   UNL     1     -13.792   4.731   4.975  1.00  0.00     0.039 C 
ATOM      3  C   UNL     1     -12.957   5.911   4.564  1.00  0.00     0.026 C 
ENDROOT
BRANCH   1   4
ATOM      4  O   UNL     1     -11.772   3.807   3.895  1.00  0.00    -0.371 OA
BRANCH   4   5
ATOM      5  C   UNL     1     -12.033   2.394   3.930  1.00  0.00     0.158 C 
ATOM      6  C   UNL     1      -8.189   0.811   0.780  1.00  0.00    -0.003 C 
ATOM      7  C   UNL     1      -9.520   1.552   0.602  1.00  0.00     0.052 C 
ATOM      8  C   UNL     1      -7.589   1.168   2.148  1.00  0.00     0.019 C 
ATOM      9  C   UNL     1     -10.469   1.310   1.784  1.00  0.00     0.189 C 
ATOM     10  C   UNL     1      -8.594   0.937   3.276  1.00  0.00     0.087 C 
ATOM     11  N   UNL     1      -9.826   1.691   3.041  1.00  0.00    -0.276 NA
ATOM     12  O   UNL     1     -11.645   2.081   1.528  1.00  0.00    -0.360 OA
ATOM     13  C   UNL     1     -10.767   1.549   4.158  1.00  0.00     0.121 C 
ATOM     14  C   UNL     1     -12.616   1.984   2.574  1.00  0.00     0.195 C 
BRANCH   6  15
ATOM     15  C   UNL     1      -7.216   1.144  -0.329  1.00  0.00    -0.008 C 
ATOM     16  C   UNL     1      -6.352   0.064  -0.936  1.00  0.00     0.004 C 
ATOM     17  C   UNL     1      -7.463   0.672  -1.741  1.00  0.00     0.004 C 
ENDBRANCH   6  15
ENDBRANCH   4   5
ENDBRANCH   1   4
BRANCH   3  18
ATOM     18  C   UNL     1     -13.642   7.138   4.040  1.00  0.00     0.053 C 
BRANCH  18  19
ATOM     19  C   UNL     1     -14.675   7.761   4.942  1.00  0.00     0.074 C 
BRANCH  19  20
ATOM     20  N   UNL     1     -14.457   8.687   5.815  1.00  0.00    -0.313 NA
ATOM     21  H   UNL     1     -15.151   9.445   5.746  1.00  0.00     0.186 HD
ENDBRANCH  19  20
ENDBRANCH  18  19
ENDBRANCH   3  18
TORSDOF 6
ENDMDL
MODEL 2
REMARK VINA RESULT:    -4.191      5.454      8.632
REMARK INTER + INTRA:          -5.725
REMARK INTER:                  -5.443
REMARK INTRA:                  -0.282
REMARK UNBOUND:                -0.187
REMARK SMILES [H]/N=C\C[C@H]1C[C@@H]1O[C@H]1CO[C@H]2C[C@@H](C3CC3)CCN2C1
REMARK SMILES IDX 7 1 6 2 5 3 8 4 9 5 14 6 13 7 18 8 12 9 19 10 20 11 11 12
REMARK SMILES IDX 21 13 10 14 15 15 16 16 17 17 4 18 3 19 2 20 1 21
REMARK H PARENT
ROOT
ATOM      1  C   UNL     1     -18.119   8.544   9.581  1.00  0.00     0.122 C 
ATOM      2  C   UNL     1     -18.256   8.339  11.063  1.00  0.00     0.039 C 
ATOM      3  C   UNL     1     -16.940   8.777  10.486  1.00  0.00     0.026 C 
ENDROOT
BRANCH   1   4
ATOM      4  O   UNL     1     -18.114   7.323   8.817  1.00  0.00    -0.371 OA
BRANCH   4   5
ATOM      5  C   UNL     1     -18.617   7.429   7.475  1.00  0.00     0.158 C 
ATOM      6  C   UNL     1     -14.719   5.017   4.986  1.00  0.00    -0.003 C 
ATOM      7  C   UNL     1     -14.905   6.368   5.688  1.00  0.00     0.052 C 
ATOM      8  C   UNL     1     -15.587   3.959   5.683  1.00  0.00     0.019 C 
ATOM      9  C   UNL     1     -16.386   6.751   5.804  1.00  0.00     0.189 C 
ATOM     10  C   UNL     1     -17.041   4.417   5.797  1.00  0.00     0.087 C 
ATOM     11  N   UNL     1     -17.133   5.700   6.494  1.00  0.00    -0.276 NA
ATOM     12  O   UNL     1     -16.433   7.993   6.509  1.00  0.00    -0.360 OA
ATOM     13  C   UNL     1     -18.528   6.110   6.688  1.00  0.00     0.121 C 
ATOM     14  C   UNL     1     -17.766   8.463   6.729  1.00  0.00     0.195 C 
BRANCH   6  15
ATOM     15  C   UNL     1     -13.269   4.591   4.976  1.00  0.00    -0.008 C 
ATOM     16  C   UNL     1     -12.666   3.959   3.744  1.00  0.00     0.004 C 
ATOM     17  C   UNL     1     -12.248   5.340   4.154  1.00  0.00     0.004 C 
ENDBRANCH   6  15
ENDBRANCH   4   5
ENDBRANCH   1   4
BRANCH   3  18
ATOM     18  C   UNL     1     -16.457  10.171  10.754  1.00  0.00     0.053 C 
BRANCH  18  19
ATOM     19  C   UNL     1     -14.965  10.348  10.867  1.00  0.00     0.074 C 
BRANCH  19  20
ATOM     20  N   UNL     1     -14.322  10.690  11.934  1.00  0.00    -0.313 NA
ATOM     21  H   UNL     1     -13.972  11.657  11.873  1.00  0.00     0.186 HD
ENDBRANCH  19  20
ENDBRANCH  18  19
ENDBRANCH   3  18
TORSDOF 6
ENDMDL
MODEL 3
REMARK VINA RESULT:    -4.166      3.313      5.563
REMARK INTER + INTRA:          -5.693
REMARK INTER:                  -5.442
REMARK INTRA:                  -0.250
REMARK UNBOUND:                -0.187
REMARK SMILES [H]/N=C\C[C@H]1C[C@@H]1O[C@H]1CO[C@H]2C[C@@H](C3CC3)CCN2C1
REMARK SMILES IDX 7 1 6 2 5 3 8 4 9 5 14 6 13 7 18 8 12 9 19 10 20 11 11 12
REMARK SMILES IDX 21 13 10 14 15 15 16 16 17 17 4 18 3 19 2 20 1 21
REMARK H PARENT
ROOT
ATOM      1  C   UNL     1     -13.961   0.029   2.494  1.00  0.00     0.122 C 
ATOM      2  C   UNL     1     -15.332   0.212   1.904  1.00  0.00     0.039 C 
ATOM      3  C   UNL     1     -14.719  -1.158   1.967  1.00  0.00     0.026 C 
ENDROOT
BRANCH   1   4
ATOM      4  O   UNL     1     -12.895   0.532   1.667  1.00  0.00    -0.371 OA
BRANCH   4   5
ATOM      5  C   UNL     1     -12.745   1.961   1.650  1.00  0.00     0.158 C 
ATOM      6  C   UNL     1      -7.539   2.204   1.863  1.00  0.00    -0.003 C 
ATOM      7  C   UNL     1      -8.662   1.840   2.841  1.00  0.00     0.052 C 
ATOM      8  C   UNL     1      -7.955   1.802   0.441  1.00  0.00     0.019 C 
ATOM      9  C   UNL     1     -10.013   2.417   2.398  1.00  0.00     0.189 C 
ATOM     10  C   UNL     1      -9.322   2.380   0.074  1.00  0.00     0.087 C 
ATOM     11  N   UNL     1     -10.339   1.972   1.043  1.00  0.00    -0.276 NA
ATOM     12  O   UNL     1     -10.979   1.976   3.354  1.00  0.00    -0.360 OA
ATOM     13  C   UNL     1     -11.673   2.447   0.658  1.00  0.00     0.121 C 
ATOM     14  C   UNL     1     -12.308   2.410   3.049  1.00  0.00     0.195 C 
BRANCH   6  15
ATOM     15  C   UNL     1      -6.235   1.539   2.242  1.00  0.00    -0.008 C 
ATOM     16  C   UNL     1      -4.958   2.342   2.307  1.00  0.00     0.004 C 
ATOM     17  C   UNL     1      -5.579   1.824   3.571  1.00  0.00     0.004 C 
ENDBRANCH   6  15
ENDBRANCH   4   5
ENDBRANCH   1   4
BRANCH   3  18
ATOM     18  C   UNL     1     -15.295  -2.169   2.914  1.00  0.00     0.053 C 
BRANCH  18  19
ATOM     19  C   UNL     1     -16.764  -2.464   2.761  1.00  0.00     0.074 C 
BRANCH  19  20
ATOM     20  N   UNL     1     -17.282  -3.332   1.956  1.00  0.00    -0.313 NA
ATOM     21  H   UNL     1     -17.711  -2.880   1.136  1.00  0.00     0.186 HD
ENDBRANCH  19  20
ENDBRANCH  18  19
ENDBRANCH   3  18
TORSDOF 6
ENDMDL
MODEL 4
REMARK VINA RESULT:    -4.095      6.391     11.356
REMARK INTER + INTRA:          -5.598
REMARK INTER:                  -5.567
REMARK INTRA:                  -0.031
REMARK UNBOUND:                -0.187
REMARK SMILES [H]/N=C\C[C@H]1C[C@@H]1O[C@H]1CO[C@H]2C[C@@H](C3CC3)CCN2C1
REMARK SMILES IDX 7 1 6 2 5 3 8 4 9 5 14 6 13 7 18 8 12 9 19 10 20 11 11 12
REMARK SMILES IDX 21 13 10 14 15 15 16 16 17 17 4 18 3 19 2 20 1 21
REMARK H PARENT
ROOT
ATOM      1  C   UNL     1     -14.570   7.080   4.813  1.00  0.00     0.122 C 
ATOM      2  C   UNL     1     -13.344   6.298   4.434  1.00  0.00     0.039 C 
ATOM      3  C   UNL     1     -14.302   5.742   5.448  1.00  0.00     0.026 C 
ENDROOT
BRANCH   1   4
ATOM      4  O   UNL     1     -14.300   8.242   5.619  1.00  0.00    -0.371 OA
BRANCH   4   5
ATOM      5  C   UNL     1     -15.168   9.365   5.397  1.00  0.00     0.158 C 
ATOM      6  C   UNL     1     -17.218   9.728  10.180  1.00  0.00    -0.003 C 
ATOM      7  C   UNL     1     -17.354   8.761   8.997  1.00  0.00     0.052 C 
ATOM      8  C   UNL     1     -15.790  10.292  10.212  1.00  0.00     0.019 C 
ATOM      9  C   UNL     1     -16.906   9.407   7.678  1.00  0.00     0.189 C 
ATOM     10  C   UNL     1     -15.395  10.888   8.862  1.00  0.00     0.087 C 
ATOM     11  N   UNL     1     -15.534   9.901   7.792  1.00  0.00    -0.276 NA
ATOM     12  O   UNL     1     -17.034   8.405   6.668  1.00  0.00    -0.360 OA
ATOM     13  C   UNL     1     -15.075  10.431   6.503  1.00  0.00     0.121 C 
ATOM     14  C   UNL     1     -16.612   8.854   5.377  1.00  0.00     0.195 C 
BRANCH   6  15
ATOM     15  C   UNL     1     -17.551   9.051  11.490  1.00  0.00    -0.008 C 
ATOM     16  C   UNL     1     -18.988   8.914  11.935  1.00  0.00     0.004 C 
ATOM     17  C   UNL     1     -18.218   7.697  11.514  1.00  0.00     0.004 C 
ENDBRANCH   6  15
ENDBRANCH   4   5
ENDBRANCH   1   4
BRANCH   3  18
ATOM     18  C   UNL     1     -15.137   4.551   5.082  1.00  0.00     0.053 C 
BRANCH  18  19
ATOM     19  C   UNL     1     -16.384   4.336   5.899  1.00  0.00     0.074 C 
BRANCH  19  20
ATOM     20  N   UNL     1     -16.865   3.193   6.260  1.00  0.00    -0.313 NA
ATOM     21  H   UNL     1     -16.351   2.801   7.062  1.00  0.00     0.186 HD
ENDBRANCH  19  20
ENDBRANCH  18  19
ENDBRANCH   3  18
TORSDOF 6
ENDMDL
MODEL 5
REMARK VINA RESULT:    -4.060      2.661      8.540
REMARK INTER + INTRA:          -5.552
REMARK INTER:                  -5.325
REMARK INTRA:                  -0.227
REMARK UNBOUND:                -0.187
REMARK SMILES [H]/N=C\C[C@H]1C[C@@H]1O[C@H]1CO[C@H]2C[C@@H](C3CC3)CCN2C1
REMARK SMILES IDX 7 1 6 2 5 3 8 4 9 5 14 6 13 7 18 8 12 9 19 10 20 11 11 12
REMARK SMILES IDX 21 13 10 14 15 15 16 16 17 17 4 18 3 19 2 20 1 21
REMARK H PARENT
ROOT
ATOM      1  C   UNL     1     -12.054   2.596   2.686  1.00  0.00     0.122 C 
ATOM      2  C   UNL     1     -12.699   1.545   1.828  1.00  0.00     0.039 C 
ATOM      3  C   UNL     1     -11.861   2.619   1.195  1.00  0.00     0.026 C 
ENDROOT
BRANCH   1   4
ATOM      4  O   UNL     1     -12.978   3.557   3.231  1.00  0.00    -0.371 OA
BRANCH   4   5
ATOM      5  C   UNL     1     -12.642   4.073   4.530  1.00  0.00     0.158 C 
ATOM      6  C   UNL     1     -15.814   8.213   4.574  1.00  0.00    -0.003 C 
ATOM      7  C   UNL     1     -14.519   7.829   3.848  1.00  0.00     0.052 C 
ATOM      8  C   UNL     1     -16.651   6.949   4.820  1.00  0.00     0.019 C 
ATOM      9  C   UNL     1     -13.764   6.712   4.581  1.00  0.00     0.189 C 
ATOM     10  C   UNL     1     -15.833   5.865   5.521  1.00  0.00     0.087 C 
ATOM     11  N   UNL     1     -14.627   5.544   4.758  1.00  0.00    -0.276 NA
ATOM     12  O   UNL     1     -12.611   6.412   3.792  1.00  0.00    -0.360 OA
ATOM     13  C   UNL     1     -13.875   4.444   5.373  1.00  0.00     0.121 C 
ATOM     14  C   UNL     1     -11.820   5.351   4.337  1.00  0.00     0.195 C 
BRANCH   6  15
ATOM     15  C   UNL     1     -16.610   9.231   3.789  1.00  0.00    -0.008 C 
ATOM     16  C   UNL     1     -17.326  10.355   4.501  1.00  0.00     0.004 C 
ATOM     17  C   UNL     1     -16.124  10.654   3.653  1.00  0.00     0.004 C 
ENDBRANCH   6  15
ENDBRANCH   4   5
ENDBRANCH   1   4
BRANCH   3  18
ATOM     18  C   UNL     1     -10.536   2.250   0.598  1.00  0.00     0.053 C 
BRANCH  18  19
ATOM     19  C   UNL     1     -10.214   2.863  -0.740  1.00  0.00     0.074 C 
BRANCH  19  20
ATOM     20  N   UNL     1     -11.074   3.275  -1.611  1.00  0.00    -0.313 NA
ATOM     21  H   UNL     1     -11.805   2.571  -1.785  1.00  0.00     0.186 HD
ENDBRANCH  19  20
ENDBRANCH  18  19
ENDBRANCH   3  18
TORSDOF 6
ENDMDL
MODEL 6
REMARK VINA RESULT:    -4.008      5.173      8.419
REMARK INTER + INTRA:          -5.483
REMARK INTER:                  -5.191
REMARK INTRA:                  -0.293
REMARK UNBOUND:                -0.187
REMARK SMILES [H]/N=C\C[C@H]1C[C@@H]1O[C@H]1CO[C@H]2C[C@@H](C3CC3)CCN2C1
REMARK SMILES IDX 7 1 6 2 5 3 8 4 9 5 14 6 13 7 18 8 12 9 19 10 20 11 11 12
REMARK SMILES IDX 21 13 10 14 15 15 16 16 17 17 4 18 3 19 2 20 1 21
REMARK H PARENT
ROOT
ATOM      1  C   UNL     1     -12.206   1.589   2.714  1.00  0.00     0.122 C 
ATOM      2  C   UNL     1     -12.004   2.731   3.670  1.00  0.00     0.039 C 
ATOM      3  C   UNL     1     -11.233   1.455   3.854  1.00  0.00     0.026 C 
ENDROOT
BRANCH   1   4
ATOM      4  O   UNL     1     -13.471   0.916   2.864  1.00  0.00    -0.371 OA
BRANCH   4   5
ATOM      5  C   UNL     1     -14.081   0.465   1.644  1.00  0.00     0.158 C 
ATOM      6  C   UNL     1     -17.873  -2.466   3.700  1.00  0.00    -0.003 C 
ATOM      7  C   UNL     1     -16.351  -2.581   3.559  1.00  0.00     0.052 C 
ATOM      8  C   UNL     1     -18.259  -0.988   3.850  1.00  0.00     0.019 C 
ATOM      9  C   UNL     1     -15.813  -1.678   2.441  1.00  0.00     0.189 C 
ATOM     10  C   UNL     1     -17.665  -0.140   2.726  1.00  0.00     0.087 C 
ATOM     11  N   UNL     1     -16.211  -0.289   2.670  1.00  0.00    -0.276 NA
ATOM     12  O   UNL     1     -14.392  -1.836   2.437  1.00  0.00    -0.360 OA
ATOM     13  C   UNL     1     -15.616   0.585   1.653  1.00  0.00     0.121 C 
ATOM     14  C   UNL     1     -13.741  -1.017   1.460  1.00  0.00     0.195 C 
BRANCH   6  15
ATOM     15  C   UNL     1     -18.384  -3.269   4.876  1.00  0.00    -0.008 C 
ATOM     16  C   UNL     1     -19.447  -4.323   4.677  1.00  0.00     0.004 C 
ATOM     17  C   UNL     1     -18.044  -4.733   5.019  1.00  0.00     0.004 C 
ENDBRANCH   6  15
ENDBRANCH   4   5
ENDBRANCH   1   4
BRANCH   3  18
ATOM     18  C   UNL     1      -9.757   1.453   3.591  1.00  0.00     0.053 C 
BRANCH  18  19
ATOM     19  C   UNL     1      -8.915   0.623   4.524  1.00  0.00     0.074 C 
BRANCH  19  20
ATOM     20  N   UNL     1      -9.194   0.351   5.756  1.00  0.00    -0.313 NA
ATOM     21  H   UNL     1      -9.982  -0.307   5.831  1.00  0.00     0.186 HD
ENDBRANCH  19  20
ENDBRANCH  18  19
ENDBRANCH   3  18
TORSDOF 6
ENDMDL
MODEL 7
REMARK VINA RESULT:    -3.960      4.730     11.439
REMARK INTER + INTRA:          -5.420
REMARK INTER:                  -5.286
REMARK INTRA:                  -0.134
REMARK UNBOUND:                -0.187
REMARK SMILES [H]/N=C\C[C@H]1C[C@@H]1O[C@H]1CO[C@H]2C[C@@H](C3CC3)CCN2C1
REMARK SMILES IDX 7 1 6 2 5 3 8 4 9 5 14 6 13 7 18 8 12 9 19 10 20 11 11 12
REMARK SMILES IDX 21 13 10 14 15 15 16 16 17 17 4 18 3 19 2 20 1 21
REMARK H PARENT
ROOT
ATOM      1  C   UNL     1     -14.496   6.975   4.850  1.00  0.00     0.122 C 
ATOM      2  C   UNL     1     -13.540   7.022   3.691  1.00  0.00     0.039 C 
ATOM      3  C   UNL     1     -13.313   6.047   4.811  1.00  0.00     0.026 C 
ENDROOT
BRANCH   1   4
ATOM      4  O   UNL     1     -14.399   8.106   5.737  1.00  0.00    -0.371 OA
BRANCH   4   5
ATOM      5  C   UNL     1     -15.287   9.198   5.448  1.00  0.00     0.158 C 
ATOM      6  C   UNL     1     -17.357   9.801  10.197  1.00  0.00    -0.003 C 
ATOM      7  C   UNL     1     -17.472   8.765   9.072  1.00  0.00     0.052 C 
ATOM      8  C   UNL     1     -15.941  10.392  10.200  1.00  0.00     0.019 C 
ATOM      9  C   UNL     1     -17.033   9.341   7.720  1.00  0.00     0.189 C 
ATOM     10  C   UNL     1     -15.552  10.917   8.818  1.00  0.00     0.087 C 
ATOM     11  N   UNL     1     -15.670   9.865   7.807  1.00  0.00    -0.276 NA
ATOM     12  O   UNL     1     -17.139   8.279   6.769  1.00  0.00    -0.360 OA
ATOM     13  C   UNL     1     -15.217  10.328   6.490  1.00  0.00     0.121 C 
ATOM     14  C   UNL     1     -16.722   8.660   5.455  1.00  0.00     0.195 C 
BRANCH   6  15
ATOM     15  C   UNL     1     -17.682   9.196  11.544  1.00  0.00    -0.008 C 
ATOM     16  C   UNL     1     -19.117   8.926  11.934  1.00  0.00     0.004 C 
ATOM     17  C   UNL     1     -18.191   7.779  11.654  1.00  0.00     0.004 C 
ENDBRANCH   6  15
ENDBRANCH   4   5
ENDBRANCH   1   4
BRANCH   3  18
ATOM     18  C   UNL     1     -13.510   4.583   4.550  1.00  0.00     0.053 C 
BRANCH  18  19
ATOM     19  C   UNL     1     -12.336   3.849   3.956  1.00  0.00     0.074 C 
BRANCH  19  20
ATOM     20  N   UNL     1     -12.325   3.230   2.822  1.00  0.00    -0.313 NA
ATOM     21  H   UNL     1     -12.849   2.345   2.867  1.00  0.00     0.186 HD
ENDBRANCH  19  20
ENDBRANCH  18  19
ENDBRANCH   3  18
TORSDOF 6
ENDMDL
MODEL 8
REMARK VINA RESULT:    -3.897      5.844      8.997
REMARK INTER + INTRA:          -5.337
REMARK INTER:                  -5.636
REMARK INTRA:                   0.299
REMARK UNBOUND:                -0.187
REMARK SMILES [H]/N=C\C[C@H]1C[C@@H]1O[C@H]1CO[C@H]2C[C@@H](C3CC3)CCN2C1
REMARK SMILES IDX 7 1 6 2 5 3 8 4 9 5 14 6 13 7 18 8 12 9 19 10 20 11 11 12
REMARK SMILES IDX 21 13 10 14 15 15 16 16 17 17 4 18 3 19 2 20 1 21
REMARK H PARENT
ROOT
ATOM      1  C   UNL     1     -15.962  10.708   7.448  1.00  0.00     0.122 C 
ATOM      2  C   UNL     1     -14.631  11.079   8.038  1.00  0.00     0.039 C 
ATOM      3  C   UNL     1     -15.890  11.308   8.826  1.00  0.00     0.026 C 
ENDROOT
BRANCH   1   4
ATOM      4  O   UNL     1     -16.398  11.579   6.387  1.00  0.00    -0.371 OA
BRANCH   4   5
ATOM      5  C   UNL     1     -17.235  10.971   5.390  1.00  0.00     0.158 C 
ATOM      6  C   UNL     1     -14.624   6.495   4.800  1.00  0.00    -0.003 C 
ATOM      7  C   UNL     1     -14.390   7.961   4.416  1.00  0.00     0.052 C 
ATOM      8  C   UNL     1     -15.414   6.434   6.114  1.00  0.00     0.019 C 
ATOM      9  C   UNL     1     -15.700   8.761   4.397  1.00  0.00     0.189 C 
ATOM     10  C   UNL     1     -16.687   7.276   6.041  1.00  0.00     0.087 C 
ATOM     11  N   UNL     1     -16.378   8.662   5.690  1.00  0.00    -0.276 NA
ATOM     12  O   UNL     1     -15.351  10.109   4.075  1.00  0.00    -0.360 OA
ATOM     13  C   UNL     1     -17.579   9.504   5.700  1.00  0.00     0.121 C 
ATOM     14  C   UNL     1     -16.478  10.990   4.058  1.00  0.00     0.195 C 
BRANCH   6  15
ATOM     15  C   UNL     1     -13.320   5.740   4.928  1.00  0.00    -0.008 C 
ATOM     16  C   UNL     1     -13.205   4.322   4.421  1.00  0.00     0.004 C 
ATOM     17  C   UNL     1     -12.482   5.430   3.711  1.00  0.00     0.004 C 
ENDBRANCH   6  15
ENDBRANCH   4   5
ENDBRANCH   1   4
BRANCH   3  18
ATOM     18  C   UNL     1     -16.155  10.460  10.034  1.00  0.00     0.053 C 
BRANCH  18  19
ATOM     19  C   UNL     1     -14.956  10.105  10.875  1.00  0.00     0.074 C 
BRANCH  19  20
ATOM     20  N   UNL     1     -14.449  10.830  11.816  1.00  0.00    -0.313 NA
ATOM     21  H   UNL     1     -14.761  10.517  12.746  1.00  0.00     0.186 HD
ENDBRANCH  19  20
ENDBRANCH  18  19
ENDBRANCH   3  18
TORSDOF 6
ENDMDL
MODEL 9
REMARK VINA RESULT:    -3.765      4.888      7.316
REMARK INTER + INTRA:          -5.162
REMARK INTER:                  -4.888
REMARK INTRA:                  -0.274
REMARK UNBOUND:                -0.187
REMARK SMILES [H]/N=C\C[C@H]1C[C@@H]1O[C@H]1CO[C@H]2C[C@@H](C3CC3)CCN2C1
REMARK SMILES IDX 7 1 6 2 5 3 8 4 9 5 14 6 13 7 18 8 12 9 19 10 20 11 11 12
REMARK SMILES IDX 21 13 10 14 15 15 16 16 17 17 4 18 3 19 2 20 1 21
REMARK H PARENT
ROOT
ATOM      1  C   UNL     1     -16.243  -2.811   3.577  1.00  0.00     0.122 C 
ATOM      2  C   UNL     1     -15.995  -3.787   4.692  1.00  0.00     0.039 C 
ATOM      3  C   UNL     1     -16.881  -2.597   4.923  1.00  0.00     0.026 C 
ENDROOT
BRANCH   1   4
ATOM      4  O   UNL     1     -15.110  -1.980   3.261  1.00  0.00    -0.371 OA
BRANCH   4   5
ATOM      5  C   UNL     1     -15.147  -1.347   1.972  1.00  0.00     0.158 C 
ATOM      6  C   UNL     1     -12.691   3.086   3.206  1.00  0.00    -0.003 C 
ATOM      7  C   UNL     1     -14.069   2.477   3.494  1.00  0.00     0.052 C 
ATOM      8  C   UNL     1     -11.652   1.961   3.100  1.00  0.00     0.019 C 
ATOM      9  C   UNL     1     -14.432   1.385   2.479  1.00  0.00     0.189 C 
ATOM     10  C   UNL     1     -12.088   0.890   2.100  1.00  0.00     0.087 C 
ATOM     11  N   UNL     1     -13.400   0.348   2.454  1.00  0.00    -0.276 NA
ATOM     12  O   UNL     1     -15.703   0.866   2.874  1.00  0.00    -0.360 OA
ATOM     13  C   UNL     1     -13.795  -0.742   1.555  1.00  0.00     0.121 C 
ATOM     14  C   UNL     1     -16.160  -0.199   2.034  1.00  0.00     0.195 C 
BRANCH   6  15
ATOM     15  C   UNL     1     -12.290   4.079   4.273  1.00  0.00    -0.008 C 
ATOM     16  C   UNL     1     -12.436   5.563   4.029  1.00  0.00     0.004 C 
ATOM     17  C   UNL     1     -13.332   4.877   5.019  1.00  0.00     0.004 C 
ENDBRANCH   6  15
ENDBRANCH   4   5
ENDBRANCH   1   4
BRANCH   3  18
ATOM     18  C   UNL     1     -18.354  -2.812   5.104  1.00  0.00     0.053 C 
BRANCH  18  19
ATOM     19  C   UNL     1     -19.087  -1.764   5.900  1.00  0.00     0.074 C 
BRANCH  19  20
ATOM     20  N   UNL     1     -18.594  -0.644   6.313  1.00  0.00    -0.313 NA
ATOM     21  H   UNL     1     -18.073  -0.761   7.194  1.00  0.00     0.186 HD
ENDBRANCH  19  20
ENDBRANCH  18  19
ENDBRANCH   3  18
TORSDOF 6
ENDMDL
