MODEL 1
REMARK VINA RESULT:    -6.147      0.000      0.000
REMARK INTER + INTRA:          -7.606
REMARK INTER:                  -7.225
REMARK INTRA:                  -0.381
REMARK UNBOUND:                -0.381
REMARK SMILES Cc1ccc(CNC(=O)NC(=O)c2ccc(C)cc2)cc1
REMARK SMILES IDX 11 1 12 2 10 3 8 4 9 5 7 6 13 9 19 10 18 11 14 12 16 13
REMARK SMILES IDX 15 14 17 15 6 16 5 17 4 18 20 19 3 20 21 21 2 22 1 23
REMARK H PARENT 10 7 7 8
ROOT
ATOM      1  C   UNL     1     -10.632   2.077   2.220  1.00  0.00     0.259 C 
ATOM      2  O   UNL     1     -10.272   2.946   3.002  1.00  0.00    -0.269 OA
ATOM      3  N   UNL     1     -11.878   1.448   2.122  1.00  0.00    -0.274 N 
ATOM      4  C   UNL     1     -13.151   1.644   2.592  1.00  0.00     0.321 C 
ATOM      5  O   UNL     1     -14.043   0.910   2.153  1.00  0.00    -0.248 OA
ATOM      6  N   UNL     1     -13.479   2.606   3.474  1.00  0.00    -0.334 N 
ATOM      7  H   UNL     1     -11.931   0.739   1.403  1.00  0.00     0.175 HD
ATOM      8  H   UNL     1     -14.471   2.673   3.652  1.00  0.00     0.165 HD
ENDROOT
BRANCH   1   9
ATOM      9  C   UNL     1      -9.633   1.620   1.234  1.00  0.00     0.040 A 
ATOM     10  C   UNL     1      -8.890   0.456   1.437  1.00  0.00     0.014 A 
ATOM     11  C   UNL     1      -7.995   0.036   0.453  1.00  0.00     0.004 A 
ATOM     12  C   UNL     1      -9.443   2.394   0.085  1.00  0.00     0.014 A 
ATOM     13  C   UNL     1      -7.834   0.777  -0.727  1.00  0.00    -0.051 A 
ATOM     14  C   UNL     1      -8.553   1.967  -0.898  1.00  0.00     0.004 A 
ATOM     15  C   UNL     1      -6.932   0.268  -1.812  1.00  0.00     0.044 C 
ENDBRANCH   1   9
BRANCH   6  16
ATOM     16  C   UNL     1     -12.624   3.620   4.023  1.00  0.00     0.153 C 
BRANCH  16  17
ATOM     17  C   UNL     1     -13.279   4.875   4.529  1.00  0.00    -0.029 A 
ATOM     18  C   UNL     1     -12.921   6.153   4.089  1.00  0.00     0.006 A 
ATOM     19  C   UNL     1     -14.433   4.726   5.315  1.00  0.00     0.006 A 
ATOM     20  C   UNL     1     -13.722   7.254   4.411  1.00  0.00     0.004 A 
ATOM     21  C   UNL     1     -15.231   5.821   5.631  1.00  0.00     0.004 A 
ATOM     22  C   UNL     1     -14.888   7.094   5.173  1.00  0.00    -0.051 A 
ATOM     23  C   UNL     1     -15.824   8.243   5.401  1.00  0.00     0.044 C 
ENDBRANCH  16  17
ENDBRANCH   6  16
TORSDOF 3
ENDMDL
MODEL 2
REMARK VINA RESULT:    -6.136      3.228      5.541
REMARK INTER + INTRA:          -7.593
REMARK INTER:                  -7.199
REMARK INTRA:                  -0.394
REMARK UNBOUND:                -0.381
REMARK SMILES Cc1ccc(CNC(=O)NC(=O)c2ccc(C)cc2)cc1
REMARK SMILES IDX 11 1 12 2 10 3 8 4 9 5 7 6 13 9 19 10 18 11 14 12 16 13
REMARK SMILES IDX 15 14 17 15 6 16 5 17 4 18 20 19 3 20 21 21 2 22 1 23
REMARK H PARENT 10 7 7 8
ROOT
ATOM      1  C   UNL     1     -10.718   1.714   2.248  1.00  0.00     0.259 C 
ATOM      2  O   UNL     1     -11.106   0.871   1.451  1.00  0.00    -0.269 OA
ATOM      3  N   UNL     1     -11.471   2.623   2.997  1.00  0.00    -0.274 N 
ATOM      4  C   UNL     1     -12.785   2.806   3.344  1.00  0.00     0.321 C 
ATOM      5  O   UNL     1     -13.042   3.691   4.168  1.00  0.00    -0.248 OA
ATOM      6  N   UNL     1     -13.794   2.058   2.861  1.00  0.00    -0.334 N 
ATOM      7  H   UNL     1     -10.921   3.243   3.577  1.00  0.00     0.175 HD
ATOM      8  H   UNL     1     -14.690   2.263   3.281  1.00  0.00     0.165 HD
ENDROOT
BRANCH   1   9
ATOM      9  C   UNL     1      -9.260   1.796   2.464  1.00  0.00     0.040 A 
ATOM     10  C   UNL     1      -8.476   2.733   1.790  1.00  0.00     0.014 A 
ATOM     11  C   UNL     1      -7.110   2.808   2.067  1.00  0.00     0.004 A 
ATOM     12  C   UNL     1      -8.679   0.899   3.366  1.00  0.00     0.014 A 
ATOM     13  C   UNL     1      -6.526   1.947   3.008  1.00  0.00    -0.051 A 
ATOM     14  C   UNL     1      -7.316   0.982   3.644  1.00  0.00     0.004 A 
ATOM     15  C   UNL     1      -5.075   2.096   3.357  1.00  0.00     0.044 C 
ENDBRANCH   1   9
BRANCH   6  16
ATOM     16  C   UNL     1     -13.702   0.925   1.984  1.00  0.00     0.153 C 
BRANCH  16  17
ATOM     17  C   UNL     1     -14.787  -0.111   2.080  1.00  0.00    -0.029 A 
ATOM     18  C   UNL     1     -14.540  -1.448   2.410  1.00  0.00     0.006 A 
ATOM     19  C   UNL     1     -16.116   0.343   2.039  1.00  0.00     0.006 A 
ATOM     20  C   UNL     1     -15.605  -2.301   2.718  1.00  0.00     0.004 A 
ATOM     21  C   UNL     1     -17.173  -0.506   2.350  1.00  0.00     0.004 A 
ATOM     22  C   UNL     1     -16.926  -1.834   2.703  1.00  0.00    -0.051 A 
ATOM     23  C   UNL     1     -18.057  -2.701   3.168  1.00  0.00     0.044 C 
ENDBRANCH  16  17
ENDBRANCH   6  16
TORSDOF 3
ENDMDL
MODEL 3
REMARK VINA RESULT:    -6.093      3.137      7.299
REMARK INTER + INTRA:          -7.543
REMARK INTER:                  -7.054
REMARK INTRA:                  -0.489
REMARK UNBOUND:                -0.381
REMARK SMILES Cc1ccc(CNC(=O)NC(=O)c2ccc(C)cc2)cc1
REMARK SMILES IDX 11 1 12 2 10 3 8 4 9 5 7 6 13 9 19 10 18 11 14 12 16 13
REMARK SMILES IDX 15 14 17 15 6 16 5 17 4 18 20 19 3 20 21 21 2 22 1 23
REMARK H PARENT 10 7 7 8
ROOT
ATOM      1  C   UNL     1     -13.380   0.600   2.322  1.00  0.00     0.259 C 
ATOM      2  O   UNL     1     -12.427   0.108   1.733  1.00  0.00    -0.269 OA
ATOM      3  N   UNL     1     -13.449   1.811   3.016  1.00  0.00    -0.274 N 
ATOM      4  C   UNL     1     -12.703   2.956   3.134  1.00  0.00     0.321 C 
ATOM      5  O   UNL     1     -13.190   3.895   3.772  1.00  0.00    -0.248 OA
ATOM      6  N   UNL     1     -11.491   3.116   2.570  1.00  0.00    -0.334 N 
ATOM      7  H   UNL     1     -14.347   1.997   3.443  1.00  0.00     0.175 HD
ATOM      8  H   UNL     1     -11.112   4.045   2.678  1.00  0.00     0.165 HD
ENDROOT
BRANCH   1   9
ATOM      9  C   UNL     1     -14.637  -0.173   2.304  1.00  0.00     0.040 A 
ATOM     10  C   UNL     1     -14.638  -1.564   2.417  1.00  0.00     0.014 A 
ATOM     11  C   UNL     1     -15.855  -2.247   2.448  1.00  0.00     0.004 A 
ATOM     12  C   UNL     1     -15.838   0.530   2.164  1.00  0.00     0.014 A 
ATOM     13  C   UNL     1     -17.067  -1.546   2.361  1.00  0.00    -0.051 A 
ATOM     14  C   UNL     1     -17.051  -0.155   2.203  1.00  0.00     0.004 A 
ATOM     15  C   UNL     1     -18.367  -2.285   2.481  1.00  0.00     0.044 C 
ENDBRANCH   1   9
BRANCH   6  16
ATOM     16  C   UNL     1     -10.797   2.198   1.711  1.00  0.00     0.153 C 
BRANCH  16  17
ATOM     17  C   UNL     1      -9.325   2.007   1.951  1.00  0.00    -0.029 A 
ATOM     18  C   UNL     1      -8.345   2.808   1.357  1.00  0.00     0.006 A 
ATOM     19  C   UNL     1      -8.950   1.124   2.977  1.00  0.00     0.006 A 
ATOM     20  C   UNL     1      -7.020   2.740   1.803  1.00  0.00     0.004 A 
ATOM     21  C   UNL     1      -7.634   1.060   3.422  1.00  0.00     0.004 A 
ATOM     22  C   UNL     1      -6.659   1.876   2.846  1.00  0.00    -0.051 A 
ATOM     23  C   UNL     1      -5.275   1.900   3.423  1.00  0.00     0.044 C 
ENDBRANCH  16  17
ENDBRANCH   6  16
TORSDOF 3
ENDMDL
MODEL 4
REMARK VINA RESULT:    -6.077      0.548      8.008
REMARK INTER + INTRA:          -7.524
REMARK INTER:                  -7.033
REMARK INTRA:                  -0.491
REMARK UNBOUND:                -0.381
REMARK SMILES Cc1ccc(CNC(=O)NC(=O)c2ccc(C)cc2)cc1
REMARK SMILES IDX 11 1 12 2 10 3 8 4 9 5 7 6 13 9 19 10 18 11 14 12 16 13
REMARK SMILES IDX 15 14 17 15 6 16 5 17 4 18 20 19 3 20 21 21 2 22 1 23
REMARK H PARENT 10 7 7 8
ROOT
ATOM      1  C   UNL     1     -12.486   3.854   3.575  1.00  0.00     0.259 C 
ATOM      2  O   UNL     1     -11.279   4.026   3.490  1.00  0.00    -0.269 OA
ATOM      3  N   UNL     1     -13.248   2.764   3.142  1.00  0.00    -0.274 N 
ATOM      4  C   UNL     1     -13.028   1.477   2.725  1.00  0.00     0.321 C 
ATOM      5  O   UNL     1     -14.016   0.755   2.548  1.00  0.00    -0.248 OA
ATOM      6  N   UNL     1     -11.803   0.956   2.530  1.00  0.00    -0.334 N 
ATOM      7  H   UNL     1     -14.242   2.859   3.305  1.00  0.00     0.175 HD
ATOM      8  H   UNL     1     -11.810  -0.029   2.307  1.00  0.00     0.165 HD
ENDROOT
BRANCH   1   9
ATOM      9  C   UNL     1     -13.262   4.928   4.225  1.00  0.00     0.040 A 
ATOM     10  C   UNL     1     -12.965   6.275   4.007  1.00  0.00     0.014 A 
ATOM     11  C   UNL     1     -13.760   7.255   4.601  1.00  0.00     0.004 A 
ATOM     12  C   UNL     1     -14.308   4.560   5.078  1.00  0.00     0.014 A 
ATOM     13  C   UNL     1     -14.844   6.896   5.417  1.00  0.00    -0.051 A 
ATOM     14  C   UNL     1     -15.103   5.542   5.664  1.00  0.00     0.004 A 
ATOM     15  C   UNL     1     -15.740   7.960   5.980  1.00  0.00     0.044 C 
ENDBRANCH   1   9
BRANCH   6  16
ATOM     16  C   UNL     1     -10.535   1.584   2.776  1.00  0.00     0.153 C 
BRANCH  16  17
ATOM     17  C   UNL     1      -9.465   1.409   1.735  1.00  0.00    -0.029 A 
ATOM     18  C   UNL     1      -8.542   0.358   1.758  1.00  0.00     0.006 A 
ATOM     19  C   UNL     1      -9.543   2.219   0.590  1.00  0.00     0.006 A 
ATOM     20  C   UNL     1      -7.733   0.112   0.643  1.00  0.00     0.004 A 
ATOM     21  C   UNL     1      -8.742   1.970  -0.520  1.00  0.00     0.004 A 
ATOM     22  C   UNL     1      -7.836   0.908  -0.507  1.00  0.00    -0.051 A 
ATOM     23  C   UNL     1      -7.078   0.564  -1.754  1.00  0.00     0.044 C 
ENDBRANCH  16  17
ENDBRANCH   6  16
TORSDOF 3
ENDMDL
MODEL 5
REMARK VINA RESULT:    -5.802      1.125      7.884
REMARK INTER + INTRA:          -7.200
REMARK INTER:                  -6.710
REMARK INTRA:                  -0.490
REMARK UNBOUND:                -0.381
REMARK SMILES Cc1ccc(CNC(=O)NC(=O)c2ccc(C)cc2)cc1
REMARK SMILES IDX 11 1 12 2 10 3 8 4 9 5 7 6 13 9 19 10 18 11 14 12 16 13
REMARK SMILES IDX 15 14 17 15 6 16 5 17 4 18 20 19 3 20 21 21 2 22 1 23
REMARK H PARENT 10 7 7 8
ROOT
ATOM      1  C   UNL     1     -12.659   3.923   4.005  1.00  0.00     0.259 C 
ATOM      2  O   UNL     1     -11.477   3.964   4.317  1.00  0.00    -0.269 OA
ATOM      3  N   UNL     1     -13.332   2.954   3.253  1.00  0.00    -0.274 N 
ATOM      4  C   UNL     1     -13.101   1.680   2.804  1.00  0.00     0.321 C 
ATOM      5  O   UNL     1     -14.038   1.085   2.259  1.00  0.00    -0.248 OA
ATOM      6  N   UNL     1     -11.926   1.039   2.952  1.00  0.00    -0.334 N 
ATOM      7  H   UNL     1     -14.313   3.149   3.106  1.00  0.00     0.175 HD
ATOM      8  H   UNL     1     -11.946   0.078   2.644  1.00  0.00     0.165 HD
ENDROOT
BRANCH   1   9
ATOM      9  C   UNL     1     -13.507   5.033   4.480  1.00  0.00     0.040 A 
ATOM     10  C   UNL     1     -14.624   4.802   5.286  1.00  0.00     0.014 A 
ATOM     11  C   UNL     1     -15.365   5.887   5.754  1.00  0.00     0.004 A 
ATOM     12  C   UNL     1     -13.166   6.332   4.094  1.00  0.00     0.014 A 
ATOM     13  C   UNL     1     -15.000   7.199   5.415  1.00  0.00    -0.051 A 
ATOM     14  C   UNL     1     -13.905   7.414   4.569  1.00  0.00     0.004 A 
ATOM     15  C   UNL     1     -15.756   8.358   5.995  1.00  0.00     0.044 C 
ENDBRANCH   1   9
BRANCH   6  16
ATOM     16  C   UNL     1     -10.756   1.505   3.640  1.00  0.00     0.153 C 
BRANCH  16  17
ATOM     17  C   UNL     1      -9.464   1.519   2.871  1.00  0.00    -0.029 A 
ATOM     18  C   UNL     1      -8.305   0.872   3.313  1.00  0.00     0.006 A 
ATOM     19  C   UNL     1      -9.499   2.027   1.562  1.00  0.00     0.006 A 
ATOM     20  C   UNL     1      -7.216   0.718   2.448  1.00  0.00     0.004 A 
ATOM     21  C   UNL     1      -8.418   1.868   0.701  1.00  0.00     0.004 A 
ATOM     22  C   UNL     1      -7.270   1.203   1.134  1.00  0.00    -0.051 A 
ATOM     23  C   UNL     1      -6.166   0.916   0.160  1.00  0.00     0.044 C 
ENDBRANCH  16  17
ENDBRANCH   6  16
TORSDOF 3
ENDMDL
MODEL 6
REMARK VINA RESULT:    -5.782      2.961      7.702
REMARK INTER + INTRA:          -7.177
REMARK INTER:                  -6.687
REMARK INTRA:                  -0.490
REMARK UNBOUND:                -0.381
REMARK SMILES Cc1ccc(CNC(=O)NC(=O)c2ccc(C)cc2)cc1
REMARK SMILES IDX 11 1 12 2 10 3 8 4 9 5 7 6 13 9 19 10 18 11 14 12 16 13
REMARK SMILES IDX 15 14 17 15 6 16 5 17 4 18 20 19 3 20 21 21 2 22 1 23
REMARK H PARENT 10 7 7 8
ROOT
ATOM      1  C   UNL     1     -13.783   0.580   2.032  1.00  0.00     0.259 C 
ATOM      2  O   UNL     1     -13.039   0.293   1.105  1.00  0.00    -0.269 OA
ATOM      3  N   UNL     1     -13.657   1.611   2.968  1.00  0.00    -0.274 N 
ATOM      4  C   UNL     1     -12.918   2.756   3.122  1.00  0.00     0.321 C 
ATOM      5  O   UNL     1     -13.206   3.502   4.063  1.00  0.00    -0.248 OA
ATOM      6  N   UNL     1     -11.925   3.118   2.288  1.00  0.00    -0.334 N 
ATOM      7  H   UNL     1     -14.393   1.636   3.661  1.00  0.00     0.175 HD
ATOM      8  H   UNL     1     -11.538   4.029   2.488  1.00  0.00     0.165 HD
ENDROOT
BRANCH   1   9
ATOM      9  C   UNL     1     -14.984  -0.261   2.199  1.00  0.00     0.040 A 
ATOM     10  C   UNL     1     -14.885  -1.638   2.405  1.00  0.00     0.014 A 
ATOM     11  C   UNL     1     -16.047  -2.383   2.610  1.00  0.00     0.004 A 
ATOM     12  C   UNL     1     -16.235   0.361   2.139  1.00  0.00     0.014 A 
ATOM     13  C   UNL     1     -17.304  -1.760   2.604  1.00  0.00    -0.051 A 
ATOM     14  C   UNL     1     -17.391  -0.386   2.351  1.00  0.00     0.004 A 
ATOM     15  C   UNL     1     -18.536  -2.560   2.910  1.00  0.00     0.044 C 
ENDBRANCH   1   9
BRANCH   6  16
ATOM     16  C   UNL     1     -11.504   2.454   1.087  1.00  0.00     0.153 C 
BRANCH  16  17
ATOM     17  C   UNL     1     -10.044   2.116   0.962  1.00  0.00    -0.029 A 
ATOM     18  C   UNL     1      -9.360   1.330   1.896  1.00  0.00     0.006 A 
ATOM     19  C   UNL     1      -9.412   2.433  -0.251  1.00  0.00     0.006 A 
ATOM     20  C   UNL     1      -8.077   0.853   1.603  1.00  0.00     0.004 A 
ATOM     21  C   UNL     1      -8.139   1.954  -0.543  1.00  0.00     0.004 A 
ATOM     22  C   UNL     1      -7.464   1.151   0.378  1.00  0.00    -0.051 A 
ATOM     23  C   UNL     1      -6.154   0.527  -0.000  1.00  0.00     0.044 C 
ENDBRANCH  16  17
ENDBRANCH   6  16
TORSDOF 3
ENDMDL
MODEL 7
REMARK VINA RESULT:    -5.200      5.193      8.232
REMARK INTER + INTRA:          -6.493
REMARK INTER:                  -6.105
REMARK INTRA:                  -0.388
REMARK UNBOUND:                -0.381
REMARK SMILES Cc1ccc(CNC(=O)NC(=O)c2ccc(C)cc2)cc1
REMARK SMILES IDX 11 1 12 2 10 3 8 4 9 5 7 6 13 9 19 10 18 11 14 12 16 13
REMARK SMILES IDX 15 14 17 15 6 16 5 17 4 18 20 19 3 20 21 21 2 22 1 23
REMARK H PARENT 10 7 7 8
ROOT
ATOM      1  C   UNL     1     -15.361   8.178   5.491  1.00  0.00     0.259 C 
ATOM      2  O   UNL     1     -15.016   8.693   6.545  1.00  0.00    -0.269 OA
ATOM      3  N   UNL     1     -16.393   8.559   4.627  1.00  0.00    -0.274 N 
ATOM      4  C   UNL     1     -17.203   9.649   4.434  1.00  0.00     0.321 C 
ATOM      5  O   UNL     1     -17.931   9.653   3.436  1.00  0.00    -0.248 OA
ATOM      6  N   UNL     1     -17.222  10.716   5.254  1.00  0.00    -0.334 N 
ATOM      7  H   UNL     1     -16.503   7.960   3.819  1.00  0.00     0.175 HD
ATOM      8  H   UNL     1     -17.809  11.470   4.927  1.00  0.00     0.165 HD
ENDROOT
BRANCH   1   9
ATOM      9  C   UNL     1     -14.596   6.995   5.052  1.00  0.00     0.040 A 
ATOM     10  C   UNL     1     -13.502   7.114   4.192  1.00  0.00     0.014 A 
ATOM     11  C   UNL     1     -12.777   5.973   3.847  1.00  0.00     0.004 A 
ATOM     12  C   UNL     1     -15.001   5.741   5.517  1.00  0.00     0.014 A 
ATOM     13  C   UNL     1     -13.144   4.716   4.350  1.00  0.00    -0.051 A 
ATOM     14  C   UNL     1     -14.270   4.605   5.175  1.00  0.00     0.004 A 
ATOM     15  C   UNL     1     -12.305   3.512   4.038  1.00  0.00     0.044 C 
ENDBRANCH   1   9
BRANCH   6  16
ATOM     16  C   UNL     1     -16.390  10.956   6.399  1.00  0.00     0.153 C 
BRANCH  16  17
ATOM     17  C   UNL     1     -17.029  10.834   7.755  1.00  0.00    -0.029 A 
ATOM     18  C   UNL     1     -18.392  10.577   7.935  1.00  0.00     0.006 A 
ATOM     19  C   UNL     1     -16.173  10.769   8.866  1.00  0.00     0.006 A 
ATOM     20  C   UNL     1     -18.879  10.237   9.202  1.00  0.00     0.004 A 
ATOM     21  C   UNL     1     -16.658  10.426  10.125  1.00  0.00     0.004 A 
ATOM     22  C   UNL     1     -18.014  10.147  10.302  1.00  0.00    -0.051 A 
ATOM     23  C   UNL     1     -18.501   9.646  11.628  1.00  0.00     0.044 C 
ENDBRANCH  16  17
ENDBRANCH   6  16
TORSDOF 3
ENDMDL
MODEL 8
REMARK VINA RESULT:    -4.575      2.059      3.649
REMARK INTER + INTRA:          -5.758
REMARK INTER:                  -5.288
REMARK INTRA:                  -0.471
REMARK UNBOUND:                -0.381
REMARK SMILES Cc1ccc(CNC(=O)NC(=O)c2ccc(C)cc2)cc1
REMARK SMILES IDX 11 1 12 2 10 3 8 4 9 5 7 6 13 9 19 10 18 11 14 12 16 13
REMARK SMILES IDX 15 14 17 15 6 16 5 17 4 18 20 19 3 20 21 21 2 22 1 23
REMARK H PARENT 10 7 7 8
ROOT
ATOM      1  C   UNL     1     -12.731   3.957   4.126  1.00  0.00     0.259 C 
ATOM      2  O   UNL     1     -12.224   5.007   4.493  1.00  0.00    -0.269 OA
ATOM      3  N   UNL     1     -14.022   3.476   4.370  1.00  0.00    -0.274 N 
ATOM      4  C   UNL     1     -15.216   3.968   4.830  1.00  0.00     0.321 C 
ATOM      5  O   UNL     1     -16.203   3.226   4.771  1.00  0.00    -0.248 OA
ATOM      6  N   UNL     1     -15.372   5.216   5.309  1.00  0.00    -0.334 N 
ATOM      7  H   UNL     1     -14.207   2.562   3.978  1.00  0.00     0.175 HD
ATOM      8  H   UNL     1     -16.330   5.452   5.526  1.00  0.00     0.165 HD
ENDROOT
BRANCH   1   9
ATOM      9  C   UNL     1     -11.886   3.064   3.310  1.00  0.00     0.040 A 
ATOM     10  C   UNL     1     -11.969   3.056   1.916  1.00  0.00     0.014 A 
ATOM     11  C   UNL     1     -11.113   2.233   1.185  1.00  0.00     0.004 A 
ATOM     12  C   UNL     1     -10.996   2.214   3.974  1.00  0.00     0.014 A 
ATOM     13  C   UNL     1     -10.180   1.414   1.840  1.00  0.00    -0.051 A 
ATOM     14  C   UNL     1     -10.138   1.398   3.239  1.00  0.00     0.004 A 
ATOM     15  C   UNL     1      -9.209   0.599   1.037  1.00  0.00     0.044 C 
ENDBRANCH   1   9
BRANCH   6  16
ATOM     16  C   UNL     1     -14.389   6.261   5.367  1.00  0.00     0.153 C 
BRANCH  16  17
ATOM     17  C   UNL     1     -14.805   7.626   4.893  1.00  0.00    -0.029 A 
ATOM     18  C   UNL     1     -14.814   7.996   3.544  1.00  0.00     0.006 A 
ATOM     19  C   UNL     1     -15.403   8.479   5.834  1.00  0.00     0.006 A 
ATOM     20  C   UNL     1     -15.434   9.186   3.148  1.00  0.00     0.004 A 
ATOM     21  C   UNL     1     -16.024   9.660   5.439  1.00  0.00     0.004 A 
ATOM     22  C   UNL     1     -16.054  10.019   4.090  1.00  0.00    -0.051 A 
ATOM     23  C   UNL     1     -16.842  11.219   3.659  1.00  0.00     0.044 C 
ENDBRANCH  16  17
ENDBRANCH   6  16
TORSDOF 3
ENDMDL
MODEL 9
REMARK VINA RESULT:    -3.291      5.894      9.156
REMARK INTER + INTRA:          -4.249
REMARK INTER:                  -3.721
REMARK INTRA:                  -0.528
REMARK UNBOUND:                -0.381
REMARK SMILES Cc1ccc(CNC(=O)NC(=O)c2ccc(C)cc2)cc1
REMARK SMILES IDX 11 1 12 2 10 3 8 4 9 5 7 6 13 9 19 10 18 11 14 12 16 13
REMARK SMILES IDX 15 14 17 15 6 16 5 17 4 18 20 19 3 20 21 21 2 22 1 23
REMARK H PARENT 10 7 7 8
ROOT
ATOM      1  C   UNL     1     -15.516   9.006   5.925  1.00  0.00     0.259 C 
ATOM      2  O   UNL     1     -16.729   9.125   5.823  1.00  0.00    -0.269 OA
ATOM      3  N   UNL     1     -14.588   9.914   6.444  1.00  0.00    -0.274 N 
ATOM      4  C   UNL     1     -14.604  11.061   7.196  1.00  0.00     0.321 C 
ATOM      5  O   UNL     1     -13.518  11.513   7.575  1.00  0.00    -0.248 OA
ATOM      6  N   UNL     1     -15.734  11.694   7.564  1.00  0.00    -0.334 N 
ATOM      7  H   UNL     1     -13.628   9.599   6.403  1.00  0.00     0.175 HD
ATOM      8  H   UNL     1     -15.578  12.473   8.187  1.00  0.00     0.165 HD
ENDROOT
BRANCH   1   9
ATOM      9  C   UNL     1     -14.934   7.738   5.445  1.00  0.00     0.040 A 
ATOM     10  C   UNL     1     -13.881   7.720   4.529  1.00  0.00     0.014 A 
ATOM     11  C   UNL     1     -13.329   6.498   4.145  1.00  0.00     0.004 A 
ATOM     12  C   UNL     1     -15.473   6.542   5.931  1.00  0.00     0.014 A 
ATOM     13  C   UNL     1     -13.829   5.295   4.666  1.00  0.00    -0.051 A 
ATOM     14  C   UNL     1     -14.914   5.324   5.550  1.00  0.00     0.004 A 
ATOM     15  C   UNL     1     -13.169   3.995   4.309  1.00  0.00     0.044 C 
ENDBRANCH   1   9
BRANCH   6  16
ATOM     16  C   UNL     1     -17.087  11.282   7.321  1.00  0.00     0.153 C 
BRANCH  16  17
ATOM     17  C   UNL     1     -17.862  10.734   8.487  1.00  0.00    -0.029 A 
ATOM     18  C   UNL     1     -18.935   9.848   8.342  1.00  0.00     0.006 A 
ATOM     19  C   UNL     1     -17.341  10.964   9.770  1.00  0.00     0.006 A 
ATOM     20  C   UNL     1     -19.455   9.190   9.461  1.00  0.00     0.004 A 
ATOM     21  C   UNL     1     -17.856  10.305  10.882  1.00  0.00     0.004 A 
ATOM     22  C   UNL     1     -18.912   9.404  10.735  1.00  0.00    -0.051 A 
ATOM     23  C   UNL     1     -19.368   8.598  11.914  1.00  0.00     0.044 C 
ENDBRANCH  16  17
ENDBRANCH   6  16
TORSDOF 3
ENDMDL
