MODEL 1
REMARK VINA RESULT:    -6.033      0.000      0.000
REMARK INTER + INTRA:          -7.458
REMARK INTER:                  -7.092
REMARK INTRA:                  -0.366
REMARK UNBOUND:                -0.366
REMARK SMILES Cc1ccc(CNC(=O)NC(=O)c2ccc(C)cc2)cc1
REMARK SMILES IDX 11 1 12 2 10 3 8 4 9 5 7 6 13 9 19 10 18 11 14 12 16 13
REMARK SMILES IDX 15 14 17 15 6 16 5 17 4 18 20 19 3 20 21 21 2 22 1 23
REMARK H PARENT 10 7 7 8
ROOT
ATOM      1  C   UNL     1      -0.747   5.714   8.501  1.00  0.00     0.259 C 
ATOM      2  O   UNL     1       0.090   4.968   8.988  1.00  0.00    -0.269 OA
ATOM      3  N   UNL     1      -1.461   6.748   9.116  1.00  0.00    -0.274 N 
ATOM      4  C   UNL     1      -1.395   7.473  10.278  1.00  0.00     0.321 C 
ATOM      5  O   UNL     1      -2.163   8.433  10.399  1.00  0.00    -0.248 OA
ATOM      6  N   UNL     1      -0.525   7.211  11.271  1.00  0.00    -0.334 N 
ATOM      7  H   UNL     1      -2.121   7.217   8.510  1.00  0.00     0.175 HD
ATOM      8  H   UNL     1      -0.546   7.888  12.019  1.00  0.00     0.165 HD
ENDROOT
BRANCH   1   9
ATOM      9  C   UNL     1      -1.057   5.517   7.072  1.00  0.00     0.040 A 
ATOM     10  C   UNL     1      -2.164   4.770   6.663  1.00  0.00     0.014 A 
ATOM     11  C   UNL     1      -2.446   4.656   5.302  1.00  0.00     0.004 A 
ATOM     12  C   UNL     1      -0.203   6.097   6.129  1.00  0.00     0.014 A 
ATOM     13  C   UNL     1      -1.625   5.277   4.349  1.00  0.00    -0.051 A 
ATOM     14  C   UNL     1      -0.493   5.985   4.770  1.00  0.00     0.004 A 
ATOM     15  C   UNL     1      -1.990   5.215   2.895  1.00  0.00     0.044 C 
ENDBRANCH   1   9
BRANCH   6  16
ATOM     16  C   UNL     1       0.511   6.217  11.287  1.00  0.00     0.153 C 
BRANCH  16  17
ATOM     17  C   UNL     1       1.602   6.374  12.310  1.00  0.00    -0.029 A 
ATOM     18  C   UNL     1       2.961   6.386  11.981  1.00  0.00     0.006 A 
ATOM     19  C   UNL     1       1.216   6.734  13.612  1.00  0.00     0.006 A 
ATOM     20  C   UNL     1       3.909   6.775  12.933  1.00  0.00     0.004 A 
ATOM     21  C   UNL     1       2.159   7.125  14.557  1.00  0.00     0.004 A 
ATOM     22  C   UNL     1       3.514   7.159  14.222  1.00  0.00    -0.051 A 
ATOM     23  C   UNL     1       4.507   7.711  15.201  1.00  0.00     0.044 C 
ENDBRANCH  16  17
ENDBRANCH   6  16
TORSDOF 3
ENDMDL
MODEL 2
REMARK VINA RESULT:    -6.018      3.226      5.475
REMARK INTER + INTRA:          -7.439
REMARK INTER:                  -7.072
REMARK INTRA:                  -0.368
REMARK UNBOUND:                -0.366
REMARK SMILES Cc1ccc(CNC(=O)NC(=O)c2ccc(C)cc2)cc1
REMARK SMILES IDX 11 1 12 2 10 3 8 4 9 5 7 6 13 9 19 10 18 11 14 12 16 13
REMARK SMILES IDX 15 14 17 15 6 16 5 17 4 18 20 19 3 20 21 21 2 22 1 23
REMARK H PARENT 10 7 7 8
ROOT
ATOM      1  C   UNL     1      -1.127   5.784   8.478  1.00  0.00     0.259 C 
ATOM      2  O   UNL     1      -1.946   6.568   8.020  1.00  0.00    -0.269 OA
ATOM      3  N   UNL     1      -0.331   5.918   9.621  1.00  0.00    -0.274 N 
ATOM      4  C   UNL     1      -0.277   6.725  10.729  1.00  0.00     0.321 C 
ATOM      5  O   UNL     1       0.530   6.426  11.616  1.00  0.00    -0.248 OA
ATOM      6  N   UNL     1      -1.072   7.796  10.909  1.00  0.00    -0.334 N 
ATOM      7  H   UNL     1       0.293   5.140   9.788  1.00  0.00     0.175 HD
ATOM      8  H   UNL     1      -0.967   8.232  11.814  1.00  0.00     0.165 HD
ENDROOT
BRANCH   1   9
ATOM      9  C   UNL     1      -0.941   4.517   7.745  1.00  0.00     0.040 A 
ATOM     10  C   UNL     1       0.095   4.355   6.823  1.00  0.00     0.014 A 
ATOM     11  C   UNL     1       0.262   3.121   6.193  1.00  0.00     0.004 A 
ATOM     12  C   UNL     1      -1.842   3.477   7.992  1.00  0.00     0.014 A 
ATOM     13  C   UNL     1      -0.605   2.055   6.473  1.00  0.00    -0.051 A 
ATOM     14  C   UNL     1      -1.668   2.245   7.365  1.00  0.00     0.004 A 
ATOM     15  C   UNL     1      -0.361   0.711   5.852  1.00  0.00     0.044 C 
ENDBRANCH   1   9
BRANCH   6  16
ATOM     16  C   UNL     1      -2.136   8.251  10.059  1.00  0.00     0.153 C 
BRANCH  16  17
ATOM     17  C   UNL     1      -3.148   9.185  10.661  1.00  0.00    -0.029 A 
ATOM     18  C   UNL     1      -4.522   8.925  10.660  1.00  0.00     0.006 A 
ATOM     19  C   UNL     1      -2.660  10.251  11.433  1.00  0.00     0.006 A 
ATOM     20  C   UNL     1      -5.383   9.704  11.440  1.00  0.00     0.004 A 
ATOM     21  C   UNL     1      -3.516  11.023  12.212  1.00  0.00     0.004 A 
ATOM     22  C   UNL     1      -4.885  10.750  12.230  1.00  0.00    -0.051 A 
ATOM     23  C   UNL     1      -5.778  11.496  13.176  1.00  0.00     0.044 C 
ENDBRANCH  16  17
ENDBRANCH   6  16
TORSDOF 3
ENDMDL
MODEL 3
REMARK VINA RESULT:    -5.972      0.533      8.092
REMARK INTER + INTRA:          -7.385
REMARK INTER:                  -6.918
REMARK INTRA:                  -0.467
REMARK UNBOUND:                -0.366
REMARK SMILES Cc1ccc(CNC(=O)NC(=O)c2ccc(C)cc2)cc1
REMARK SMILES IDX 11 1 12 2 10 3 8 4 9 5 7 6 13 9 19 10 18 11 14 12 16 13
REMARK SMILES IDX 15 14 17 15 6 16 5 17 4 18 20 19 3 20 21 21 2 22 1 23
REMARK H PARENT 10 7 7 8
ROOT
ATOM      1  C   UNL     1       0.772   6.343  11.020  1.00  0.00     0.259 C 
ATOM      2  O   UNL     1       1.037   5.433  10.247  1.00  0.00    -0.269 OA
ATOM      3  N   UNL     1      -0.297   7.243  10.978  1.00  0.00    -0.274 N 
ATOM      4  C   UNL     1      -1.497   7.362  10.324  1.00  0.00     0.321 C 
ATOM      5  O   UNL     1      -2.253   8.274  10.675  1.00  0.00    -0.248 OA
ATOM      6  N   UNL     1      -1.899   6.526   9.350  1.00  0.00    -0.334 N 
ATOM      7  H   UNL     1      -0.295   7.928  11.722  1.00  0.00     0.175 HD
ATOM      8  H   UNL     1      -2.842   6.697   9.031  1.00  0.00     0.165 HD
ENDROOT
BRANCH   1   9
ATOM      9  C   UNL     1       1.690   6.529  12.160  1.00  0.00     0.040 A 
ATOM     10  C   UNL     1       3.075   6.517  11.989  1.00  0.00     0.014 A 
ATOM     11  C   UNL     1       3.902   6.750  13.089  1.00  0.00     0.004 A 
ATOM     12  C   UNL     1       1.131   6.713  13.429  1.00  0.00     0.014 A 
ATOM     13  C   UNL     1       3.350   6.987  14.357  1.00  0.00    -0.051 A 
ATOM     14  C   UNL     1       1.961   6.952  14.523  1.00  0.00     0.004 A 
ATOM     15  C   UNL     1       4.249   7.320  15.512  1.00  0.00     0.044 C 
ENDBRANCH   1   9
BRANCH   6  16
ATOM     16  C   UNL     1      -1.226   5.353   8.868  1.00  0.00     0.153 C 
BRANCH  16  17
ATOM     17  C   UNL     1      -1.242   5.108   7.385  1.00  0.00    -0.029 A 
ATOM     18  C   UNL     1      -2.184   4.287   6.757  1.00  0.00     0.006 A 
ATOM     19  C   UNL     1      -0.403   5.908   6.592  1.00  0.00     0.006 A 
ATOM     20  C   UNL     1      -2.296   4.290   5.363  1.00  0.00     0.004 A 
ATOM     21  C   UNL     1      -0.520   5.914   5.206  1.00  0.00     0.004 A 
ATOM     22  C   UNL     1      -1.475   5.112   4.579  1.00  0.00    -0.051 A 
ATOM     23  C   UNL     1      -1.685   5.228   3.099  1.00  0.00     0.044 C 
ENDBRANCH  16  17
ENDBRANCH   6  16
TORSDOF 3
ENDMDL
MODEL 4
REMARK VINA RESULT:    -5.971      3.130      7.373
REMARK INTER + INTRA:          -7.384
REMARK INTER:                  -6.918
REMARK INTRA:                  -0.466
REMARK UNBOUND:                -0.366
REMARK SMILES Cc1ccc(CNC(=O)NC(=O)c2ccc(C)cc2)cc1
REMARK SMILES IDX 11 1 12 2 10 3 8 4 9 5 7 6 13 9 19 10 18 11 14 12 16 13
REMARK SMILES IDX 15 14 17 15 6 16 5 17 4 18 20 19 3 20 21 21 2 22 1 23
REMARK H PARENT 10 7 7 8
ROOT
ATOM      1  C   UNL     1      -2.426   7.955  10.092  1.00  0.00     0.259 C 
ATOM      2  O   UNL     1      -2.808   7.579   8.993  1.00  0.00    -0.269 OA
ATOM      3  N   UNL     1      -1.308   7.536  10.820  1.00  0.00    -0.274 N 
ATOM      4  C   UNL     1      -0.157   6.826  10.591  1.00  0.00     0.321 C 
ATOM      5  O   UNL     1       0.681   6.784  11.498  1.00  0.00    -0.248 OA
ATOM      6  N   UNL     1       0.114   6.203   9.429  1.00  0.00    -0.334 N 
ATOM      7  H   UNL     1      -1.208   7.980  11.723  1.00  0.00     0.175 HD
ATOM      8  H   UNL     1       1.038   5.798   9.391  1.00  0.00     0.165 HD
ENDROOT
BRANCH   1   9
ATOM      9  C   UNL     1      -3.238   8.993  10.754  1.00  0.00     0.040 A 
ATOM     10  C   UNL     1      -4.633   8.934  10.758  1.00  0.00     0.014 A 
ATOM     11  C   UNL     1      -5.357   9.911  11.442  1.00  0.00     0.004 A 
ATOM     12  C   UNL     1      -2.570  10.052  11.378  1.00  0.00     0.014 A 
ATOM     13  C   UNL     1      -4.694  10.949  12.115  1.00  0.00    -0.051 A 
ATOM     14  C   UNL     1      -3.297  11.022  12.065  1.00  0.00     0.004 A 
ATOM     15  C   UNL     1      -5.482  11.942  12.917  1.00  0.00     0.044 C 
ENDBRANCH   1   9
BRANCH   6  16
ATOM     16  C   UNL     1      -0.669   6.214   8.225  1.00  0.00     0.153 C 
BRANCH  16  17
ATOM     17  C   UNL     1      -0.769   4.927   7.456  1.00  0.00    -0.029 A 
ATOM     18  C   UNL     1       0.103   4.589   6.416  1.00  0.00     0.006 A 
ATOM     19  C   UNL     1      -1.644   3.947   7.952  1.00  0.00     0.006 A 
ATOM     20  C   UNL     1       0.112   3.287   5.904  1.00  0.00     0.004 A 
ATOM     21  C   UNL     1      -1.631   2.651   7.446  1.00  0.00     0.004 A 
ATOM     22  C   UNL     1      -0.745   2.307   6.424  1.00  0.00    -0.051 A 
ATOM     23  C   UNL     1      -0.642   0.878   5.980  1.00  0.00     0.044 C 
ENDBRANCH  16  17
ENDBRANCH   6  16
TORSDOF 3
ENDMDL
MODEL 5
REMARK VINA RESULT:    -5.795      3.024      7.743
REMARK INTER + INTRA:          -7.177
REMARK INTER:                  -6.779
REMARK INTRA:                  -0.398
REMARK UNBOUND:                -0.366
REMARK SMILES Cc1ccc(CNC(=O)NC(=O)c2ccc(C)cc2)cc1
REMARK SMILES IDX 11 1 12 2 10 3 8 4 9 5 7 6 13 9 19 10 18 11 14 12 16 13
REMARK SMILES IDX 15 14 17 15 6 16 5 17 4 18 20 19 3 20 21 21 2 22 1 23
REMARK H PARENT 10 7 7 8
ROOT
ATOM      1  C   UNL     1      -2.519   8.272  10.108  1.00  0.00     0.259 C 
ATOM      2  O   UNL     1      -2.807   8.076   8.936  1.00  0.00    -0.269 OA
ATOM      3  N   UNL     1      -1.497   7.693  10.867  1.00  0.00    -0.274 N 
ATOM      4  C   UNL     1      -0.362   6.956  10.643  1.00  0.00     0.321 C 
ATOM      5  O   UNL     1       0.380   6.740  11.607  1.00  0.00    -0.248 OA
ATOM      6  N   UNL     1      -0.006   6.487   9.433  1.00  0.00    -0.334 N 
ATOM      7  H   UNL     1      -1.468   7.999  11.830  1.00  0.00     0.175 HD
ATOM      8  H   UNL     1       0.899   6.038   9.421  1.00  0.00     0.165 HD
ENDROOT
BRANCH   1   9
ATOM      9  C   UNL     1      -3.346   9.253  10.836  1.00  0.00     0.040 A 
ATOM     10  C   UNL     1      -4.738   9.154  10.864  1.00  0.00     0.014 A 
ATOM     11  C   UNL     1      -5.474  10.075  11.610  1.00  0.00     0.004 A 
ATOM     12  C   UNL     1      -2.694  10.299  11.497  1.00  0.00     0.014 A 
ATOM     13  C   UNL     1      -4.827  11.097  12.320  1.00  0.00    -0.051 A 
ATOM     14  C   UNL     1      -3.433  11.213  12.246  1.00  0.00     0.004 A 
ATOM     15  C   UNL     1      -5.625  12.027  13.184  1.00  0.00     0.044 C 
ENDBRANCH   1   9
BRANCH   6  16
ATOM     16  C   UNL     1      -0.665   6.710   8.178  1.00  0.00     0.153 C 
BRANCH  16  17
ATOM     17  C   UNL     1      -0.651   5.585   7.181  1.00  0.00    -0.029 A 
ATOM     18  C   UNL     1      -1.144   4.307   7.464  1.00  0.00     0.006 A 
ATOM     19  C   UNL     1      -0.319   5.905   5.854  1.00  0.00     0.006 A 
ATOM     20  C   UNL     1      -1.324   3.381   6.431  1.00  0.00     0.004 A 
ATOM     21  C   UNL     1      -0.502   4.985   4.827  1.00  0.00     0.004 A 
ATOM     22  C   UNL     1      -1.017   3.718   5.105  1.00  0.00    -0.051 A 
ATOM     23  C   UNL     1      -1.340   2.784   3.977  1.00  0.00     0.044 C 
ENDBRANCH  16  17
ENDBRANCH   6  16
TORSDOF 3
ENDMDL
MODEL 6
REMARK VINA RESULT:    -4.542      8.182     10.642
REMARK INTER + INTRA:          -5.705
REMARK INTER:                  -5.190
REMARK INTRA:                  -0.515
REMARK UNBOUND:                -0.366
REMARK SMILES Cc1ccc(CNC(=O)NC(=O)c2ccc(C)cc2)cc1
REMARK SMILES IDX 11 1 12 2 10 3 8 4 9 5 7 6 13 9 19 10 18 11 14 12 16 13
REMARK SMILES IDX 15 14 17 15 6 16 5 17 4 18 20 19 3 20 21 21 2 22 1 23
REMARK H PARENT 10 7 7 8
ROOT
ATOM      1  C   UNL     1      -5.447  12.021  12.945  1.00  0.00     0.259 C 
ATOM      2  O   UNL     1      -6.638  12.133  12.690  1.00  0.00    -0.269 OA
ATOM      3  N   UNL     1      -4.679  12.730  13.873  1.00  0.00    -0.274 N 
ATOM      4  C   UNL     1      -4.895  13.562  14.942  1.00  0.00     0.321 C 
ATOM      5  O   UNL     1      -3.915  13.893  15.618  1.00  0.00    -0.248 OA
ATOM      6  N   UNL     1      -6.112  14.007  15.305  1.00  0.00    -0.334 N 
ATOM      7  H   UNL     1      -3.701  12.473  13.889  1.00  0.00     0.175 HD
ATOM      8  H   UNL     1      -6.111  14.539  16.163  1.00  0.00     0.165 HD
ENDROOT
BRANCH   1   9
ATOM      9  C   UNL     1      -4.703  10.999  12.183  1.00  0.00     0.040 A 
ATOM     10  C   UNL     1      -5.364   9.984  11.489  1.00  0.00     0.014 A 
ATOM     11  C   UNL     1      -4.620   9.072  10.739  1.00  0.00     0.004 A 
ATOM     12  C   UNL     1      -3.307  11.071  12.179  1.00  0.00     0.014 A 
ATOM     13  C   UNL     1      -3.221   9.166  10.687  1.00  0.00    -0.051 A 
ATOM     14  C   UNL     1      -2.568  10.162  11.424  1.00  0.00     0.004 A 
ATOM     15  C   UNL     1      -2.442   8.231   9.810  1.00  0.00     0.044 C 
ENDBRANCH   1   9
BRANCH   6  16
ATOM     16  C   UNL     1      -7.380  13.662  14.725  1.00  0.00     0.153 C 
BRANCH  16  17
ATOM     17  C   UNL     1      -8.305  12.807  15.546  1.00  0.00    -0.029 A 
ATOM     18  C   UNL     1      -9.564  13.240  15.976  1.00  0.00     0.006 A 
ATOM     19  C   UNL     1      -7.964  11.454  15.699  1.00  0.00     0.006 A 
ATOM     20  C   UNL     1     -10.469  12.324  16.524  1.00  0.00     0.004 A 
ATOM     21  C   UNL     1      -8.866  10.543  16.239  1.00  0.00     0.004 A 
ATOM     22  C   UNL     1     -10.131  10.969  16.647  1.00  0.00    -0.051 A 
ATOM     23  C   UNL     1     -11.144   9.960  17.099  1.00  0.00     0.044 C 
ENDBRANCH  16  17
ENDBRANCH   6  16
TORSDOF 3
ENDMDL
MODEL 7
REMARK VINA RESULT:    -4.442      4.225      5.238
REMARK INTER + INTRA:          -5.587
REMARK INTER:                  -5.240
REMARK INTRA:                  -0.347
REMARK UNBOUND:                -0.366
REMARK SMILES Cc1ccc(CNC(=O)NC(=O)c2ccc(C)cc2)cc1
REMARK SMILES IDX 11 1 12 2 10 3 8 4 9 5 7 6 13 9 19 10 18 11 14 12 16 13
REMARK SMILES IDX 15 14 17 15 6 16 5 17 4 18 20 19 3 20 21 21 2 22 1 23
REMARK H PARENT 10 7 7 8
ROOT
ATOM      1  C   UNL     1      -1.805   7.677  10.355  1.00  0.00     0.259 C 
ATOM      2  O   UNL     1      -0.985   8.009  11.200  1.00  0.00    -0.269 OA
ATOM      3  N   UNL     1      -3.102   8.160  10.156  1.00  0.00    -0.274 N 
ATOM      4  C   UNL     1      -3.858   9.229  10.562  1.00  0.00     0.321 C 
ATOM      5  O   UNL     1      -4.967   9.380  10.037  1.00  0.00    -0.248 OA
ATOM      6  N   UNL     1      -3.445  10.130  11.473  1.00  0.00    -0.334 N 
ATOM      7  H   UNL     1      -3.602   7.712   9.400  1.00  0.00     0.175 HD
ATOM      8  H   UNL     1      -4.083  10.903  11.598  1.00  0.00     0.165 HD
ENDROOT
BRANCH   1   9
ATOM      9  C   UNL     1      -1.386   6.628   9.406  1.00  0.00     0.040 A 
ATOM     10  C   UNL     1      -1.577   5.273   9.686  1.00  0.00     0.014 A 
ATOM     11  C   UNL     1      -1.213   4.320   8.735  1.00  0.00     0.004 A 
ATOM     12  C   UNL     1      -0.780   7.028   8.211  1.00  0.00     0.014 A 
ATOM     13  C   UNL     1      -0.652   4.714   7.510  1.00  0.00    -0.051 A 
ATOM     14  C   UNL     1      -0.423   6.073   7.261  1.00  0.00     0.004 A 
ATOM     15  C   UNL     1      -0.344   3.683   6.464  1.00  0.00     0.044 C 
ENDBRANCH   1   9
BRANCH   6  16
ATOM     16  C   UNL     1      -2.166  10.197  12.121  1.00  0.00     0.153 C 
BRANCH  16  17
ATOM     17  C   UNL     1      -1.834  11.461  12.864  1.00  0.00    -0.029 A 
ATOM     18  C   UNL     1      -2.134  12.736  12.373  1.00  0.00     0.006 A 
ATOM     19  C   UNL     1      -1.399  11.331  14.193  1.00  0.00     0.006 A 
ATOM     20  C   UNL     1      -2.022  13.853  13.209  1.00  0.00     0.004 A 
ATOM     21  C   UNL     1      -1.293  12.441  15.024  1.00  0.00     0.004 A 
ATOM     22  C   UNL     1      -1.614  13.711  14.542  1.00  0.00    -0.051 A 
ATOM     23  C   UNL     1      -1.628  14.880  15.482  1.00  0.00     0.044 C 
ENDBRANCH  16  17
ENDBRANCH   6  16
TORSDOF 3
ENDMDL
MODEL 8
REMARK VINA RESULT:    -4.402      4.852      7.184
REMARK INTER + INTRA:          -5.540
REMARK INTER:                  -5.098
REMARK INTRA:                  -0.442
REMARK UNBOUND:                -0.366
REMARK SMILES Cc1ccc(CNC(=O)NC(=O)c2ccc(C)cc2)cc1
REMARK SMILES IDX 11 1 12 2 10 3 8 4 9 5 7 6 13 9 19 10 18 11 14 12 16 13
REMARK SMILES IDX 15 14 17 15 6 16 5 17 4 18 20 19 3 20 21 21 2 22 1 23
REMARK H PARENT 10 7 7 8
ROOT
ATOM      1  C   UNL     1      -2.731   8.541  10.205  1.00  0.00     0.259 C 
ATOM      2  O   UNL     1      -3.886   8.704   9.838  1.00  0.00    -0.269 OA
ATOM      3  N   UNL     1      -2.005   9.265  11.157  1.00  0.00    -0.274 N 
ATOM      4  C   UNL     1      -2.262  10.174  12.151  1.00  0.00     0.321 C 
ATOM      5  O   UNL     1      -1.326  10.492  12.893  1.00  0.00    -0.248 OA
ATOM      6  N   UNL     1      -3.477  10.707  12.376  1.00  0.00    -0.334 N 
ATOM      7  H   UNL     1      -1.049   8.956  11.276  1.00  0.00     0.175 HD
ATOM      8  H   UNL     1      -3.519  11.293  13.197  1.00  0.00     0.165 HD
ENDROOT
BRANCH   1   9
ATOM      9  C   UNL     1      -1.986   7.434   9.575  1.00  0.00     0.040 A 
ATOM     10  C   UNL     1      -2.050   6.134  10.080  1.00  0.00     0.014 A 
ATOM     11  C   UNL     1      -1.371   5.110   9.420  1.00  0.00     0.004 A 
ATOM     12  C   UNL     1      -1.203   7.723   8.454  1.00  0.00     0.014 A 
ATOM     13  C   UNL     1      -0.624   5.380   8.263  1.00  0.00    -0.051 A 
ATOM     14  C   UNL     1      -0.532   6.696   7.793  1.00  0.00     0.004 A 
ATOM     15  C   UNL     1       0.030   4.256   7.516  1.00  0.00     0.044 C 
ENDBRANCH   1   9
BRANCH   6  16
ATOM     16  C   UNL     1      -4.707  10.398  11.704  1.00  0.00     0.153 C 
BRANCH  16  17
ATOM     17  C   UNL     1      -5.937  10.237  12.555  1.00  0.00    -0.029 A 
ATOM     18  C   UNL     1      -6.139   9.146  13.406  1.00  0.00     0.006 A 
ATOM     19  C   UNL     1      -6.805  11.337  12.644  1.00  0.00     0.006 A 
ATOM     20  C   UNL     1      -7.177   9.172  14.344  1.00  0.00     0.004 A 
ATOM     21  C   UNL     1      -7.834  11.364  13.580  1.00  0.00     0.004 A 
ATOM     22  C   UNL     1      -8.023  10.285  14.445  1.00  0.00    -0.051 A 
ATOM     23  C   UNL     1      -9.044  10.381  15.539  1.00  0.00     0.044 C 
ENDBRANCH  16  17
ENDBRANCH   6  16
TORSDOF 3
ENDMDL
MODEL 9
REMARK VINA RESULT:    -4.396      2.302      3.960
REMARK INTER + INTRA:          -5.533
REMARK INTER:                  -5.092
REMARK INTRA:                  -0.441
REMARK UNBOUND:                -0.366
REMARK SMILES Cc1ccc(CNC(=O)NC(=O)c2ccc(C)cc2)cc1
REMARK SMILES IDX 11 1 12 2 10 3 8 4 9 5 7 6 13 9 19 10 18 11 14 12 16 13
REMARK SMILES IDX 15 14 17 15 6 16 5 17 4 18 20 19 3 20 21 21 2 22 1 23
REMARK H PARENT 10 7 7 8
ROOT
ATOM      1  C   UNL     1       1.088   6.204  11.525  1.00  0.00     0.259 C 
ATOM      2  O   UNL     1       2.217   5.739  11.454  1.00  0.00    -0.269 OA
ATOM      3  N   UNL     1       0.477   6.858  12.599  1.00  0.00    -0.274 N 
ATOM      4  C   UNL     1       0.857   7.429  13.786  1.00  0.00     0.321 C 
ATOM      5  O   UNL     1      -0.000   8.051  14.424  1.00  0.00    -0.248 OA
ATOM      6  N   UNL     1       2.111   7.373  14.272  1.00  0.00    -0.334 N 
ATOM      7  H   UNL     1      -0.480   7.137  12.428  1.00  0.00     0.175 HD
ATOM      8  H   UNL     1       2.246   7.916  15.112  1.00  0.00     0.165 HD
ENDROOT
BRANCH   1   9
ATOM      9  C   UNL     1       0.242   6.071  10.323  1.00  0.00     0.040 A 
ATOM     10  C   UNL     1       0.284   7.015   9.295  1.00  0.00     0.014 A 
ATOM     11  C   UNL     1      -0.495   6.819   8.155  1.00  0.00     0.004 A 
ATOM     12  C   UNL     1      -0.616   4.970  10.242  1.00  0.00     0.014 A 
ATOM     13  C   UNL     1      -1.321   5.690   8.041  1.00  0.00    -0.051 A 
ATOM     14  C   UNL     1      -1.388   4.775   9.098  1.00  0.00     0.004 A 
ATOM     15  C   UNL     1      -2.088   5.450   6.774  1.00  0.00     0.044 C 
ENDBRANCH   1   9
BRANCH   6  16
ATOM     16  C   UNL     1       3.267   6.796  13.646  1.00  0.00     0.153 C 
BRANCH  16  17
ATOM     17  C   UNL     1       4.552   7.574  13.720  1.00  0.00    -0.029 A 
ATOM     18  C   UNL     1       4.769   8.758  13.008  1.00  0.00     0.006 A 
ATOM     19  C   UNL     1       5.476   7.197  14.708  1.00  0.00     0.006 A 
ATOM     20  C   UNL     1       5.879   9.558  13.301  1.00  0.00     0.004 A 
ATOM     21  C   UNL     1       6.577   7.995  15.001  1.00  0.00     0.004 A 
ATOM     22  C   UNL     1       6.783   9.189  14.307  1.00  0.00    -0.051 A 
ATOM     23  C   UNL     1       7.892  10.108  14.723  1.00  0.00     0.044 C 
ENDBRANCH  16  17
ENDBRANCH   6  16
TORSDOF 3
ENDMDL
