MODEL 1
REMARK VINA RESULT:    -4.092      0.000      0.000
REMARK INTER + INTRA:          -5.655
REMARK INTER:                  -5.408
REMARK INTRA:                  -0.247
REMARK UNBOUND:                -0.247
REMARK SMILES [H]/N=C\C[C@H]1C[C@@H]1O[C@H]1CO[C@H]2C[C@@H](C3CC3)CCN2C1
REMARK SMILES IDX 7 1 6 2 5 3 8 4 9 5 14 6 13 7 18 8 12 9 19 10 20 11 11 12
REMARK SMILES IDX 21 13 10 14 15 15 16 16 17 17 4 18 3 19 2 20 1 21
REMARK H PARENT
ROOT
ATOM      1  C   UNL     1       1.447   6.589  11.336  1.00  0.00     0.122 C 
ATOM      2  C   UNL     1       1.410   6.444  12.832  1.00  0.00     0.039 C 
ATOM      3  C   UNL     1       2.670   6.124  12.080  1.00  0.00     0.026 C 
ENDROOT
BRANCH   1   4
ATOM      4  O   UNL     1       0.700   5.581  10.630  1.00  0.00    -0.371 OA
BRANCH   4   5
ATOM      5  C   UNL     1      -0.729   5.726  10.672  1.00  0.00     0.158 C 
ATOM      6  C   UNL     1      -1.775   4.614   5.684  1.00  0.00    -0.003 C 
ATOM      7  C   UNL     1      -1.141   5.789   6.438  1.00  0.00     0.052 C 
ATOM      8  C   UNL     1      -1.457   3.307   6.423  1.00  0.00     0.019 C 
ATOM      9  C   UNL     1      -1.537   5.797   7.920  1.00  0.00     0.189 C 
ATOM     10  C   UNL     1      -1.844   3.391   7.900  1.00  0.00     0.087 C 
ATOM     11  N   UNL     1      -1.184   4.524   8.549  1.00  0.00    -0.276 NA
ATOM     12  O   UNL     1      -0.854   6.899   8.520  1.00  0.00    -0.360 OA
ATOM     13  C   UNL     1      -1.476   4.568   9.986  1.00  0.00     0.121 C 
ATOM     14  C   UNL     1      -1.100   7.012   9.926  1.00  0.00     0.195 C 
BRANCH   6  15
ATOM     15  C   UNL     1      -1.292   4.546   4.253  1.00  0.00    -0.008 C 
ATOM     16  C   UNL     1      -2.277   4.373   3.121  1.00  0.00     0.004 C 
ATOM     17  C   UNL     1      -1.557   5.680   3.292  1.00  0.00     0.004 C 
ENDBRANCH   6  15
ENDBRANCH   4   5
ENDBRANCH   1   4
BRANCH   3  18
ATOM     18  C   UNL     1       3.855   7.031  12.228  1.00  0.00     0.053 C 
BRANCH  18  19
ATOM     19  C   UNL     1       4.345   7.262  13.634  1.00  0.00     0.074 C 
BRANCH  19  20
ATOM     20  N   UNL     1       5.007   6.417  14.353  1.00  0.00    -0.313 NA
ATOM     21  H   UNL     1       4.690   6.423  15.333  1.00  0.00     0.186 HD
ENDBRANCH  19  20
ENDBRANCH  18  19
ENDBRANCH   3  18
TORSDOF 6
ENDMDL
MODEL 2
REMARK VINA RESULT:    -4.075      3.312      5.548
REMARK INTER + INTRA:          -5.633
REMARK INTER:                  -5.440
REMARK INTRA:                  -0.193
REMARK UNBOUND:                -0.247
REMARK SMILES [H]/N=C\C[C@H]1C[C@@H]1O[C@H]1CO[C@H]2C[C@@H](C3CC3)CCN2C1
REMARK SMILES IDX 7 1 6 2 5 3 8 4 9 5 14 6 13 7 18 8 12 9 19 10 20 11 11 12
REMARK SMILES IDX 21 13 10 14 15 15 16 16 17 17 4 18 3 19 2 20 1 21
REMARK H PARENT
ROOT
ATOM      1  C   UNL     1      -3.064   8.254  10.527  1.00  0.00     0.122 C 
ATOM      2  C   UNL     1      -2.876   9.709  10.856  1.00  0.00     0.039 C 
ATOM      3  C   UNL     1      -4.221   9.209  10.410  1.00  0.00     0.026 C 
ENDROOT
BRANCH   1   4
ATOM      4  O   UNL     1      -2.438   7.846   9.295  1.00  0.00    -0.371 OA
BRANCH   4   5
ATOM      5  C   UNL     1      -1.004   7.759   9.328  1.00  0.00     0.158 C 
ATOM      6  C   UNL     1      -0.413   3.479   6.406  1.00  0.00    -0.003 C 
ATOM      7  C   UNL     1      -0.919   3.781   7.822  1.00  0.00     0.052 C 
ATOM      8  C   UNL     1      -0.748   4.661   5.485  1.00  0.00     0.019 C 
ATOM      9  C   UNL     1      -0.409   5.136   8.332  1.00  0.00     0.189 C 
ATOM     10  C   UNL     1      -0.244   5.982   6.066  1.00  0.00     0.087 C 
ATOM     11  N   UNL     1      -0.785   6.204   7.406  1.00  0.00    -0.276 NA
ATOM     12  O   UNL     1      -0.978   5.324   9.629  1.00  0.00    -0.360 OA
ATOM     13  C   UNL     1      -0.380   7.508   7.943  1.00  0.00     0.121 C 
ATOM     14  C   UNL     1      -0.619   6.576  10.222  1.00  0.00     0.195 C 
BRANCH   6  15
ATOM     15  C   UNL     1      -1.010   2.199   5.865  1.00  0.00    -0.008 C 
ATOM     16  C   UNL     1      -0.152   1.223   5.095  1.00  0.00     0.004 C 
ATOM     17  C   UNL     1      -0.647   0.862   6.465  1.00  0.00     0.004 C 
ENDBRANCH   6  15
ENDBRANCH   4   5
ENDBRANCH   1   4
BRANCH   3  18
ATOM     18  C   UNL     1      -5.343   9.160  11.403  1.00  0.00     0.053 C 
BRANCH  18  19
ATOM     19  C   UNL     1      -5.639  10.442  12.138  1.00  0.00     0.074 C 
BRANCH  19  20
ATOM     20  N   UNL     1      -6.557  11.296  11.831  1.00  0.00    -0.313 NA
ATOM     21  H   UNL     1      -6.942  11.119  10.892  1.00  0.00     0.186 HD
ENDBRANCH  19  20
ENDBRANCH  18  19
ENDBRANCH   3  18
TORSDOF 6
ENDMDL
MODEL 3
REMARK VINA RESULT:    -3.896      2.685      8.610
REMARK INTER + INTRA:          -5.396
REMARK INTER:                  -5.248
REMARK INTRA:                  -0.147
REMARK UNBOUND:                -0.247
REMARK SMILES [H]/N=C\C[C@H]1C[C@@H]1O[C@H]1CO[C@H]2C[C@@H](C3CC3)CCN2C1
REMARK SMILES IDX 7 1 6 2 5 3 8 4 9 5 14 6 13 7 18 8 12 9 19 10 20 11 11 12
REMARK SMILES IDX 21 13 10 14 15 15 16 16 17 17 4 18 3 19 2 20 1 21
REMARK H PARENT
ROOT
ATOM      1  C   UNL     1      -0.355   6.465   9.856  1.00  0.00     0.122 C 
ATOM      2  C   UNL     1      -1.448   7.435   9.504  1.00  0.00     0.039 C 
ATOM      3  C   UNL     1      -0.265   7.277   8.592  1.00  0.00     0.026 C 
ENDROOT
BRANCH   1   4
ATOM      4  O   UNL     1       0.474   6.888  10.955  1.00  0.00    -0.371 OA
BRANCH   4   5
ATOM      5  C   UNL     1       0.931   5.840  11.825  1.00  0.00     0.158 C 
ATOM      6  C   UNL     1       4.708   8.460  14.290  1.00  0.00    -0.003 C 
ATOM      7  C   UNL     1       4.511   7.879  12.884  1.00  0.00     0.052 C 
ATOM      8  C   UNL     1       3.351   8.915  14.845  1.00  0.00     0.019 C 
ATOM      9  C   UNL     1       3.430   6.790  12.864  1.00  0.00     0.189 C 
ATOM     10  C   UNL     1       2.312   7.797  14.765  1.00  0.00     0.087 C 
ATOM     11  N   UNL     1       2.170   7.312  13.392  1.00  0.00    -0.276 NA
ATOM     12  O   UNL     1       3.306   6.362  11.506  1.00  0.00    -0.360 OA
ATOM     13  C   UNL     1       1.114   6.299  13.283  1.00  0.00     0.121 C 
ATOM     14  C   UNL     1       2.297   5.364  11.322  1.00  0.00     0.195 C 
BRANCH   6  15
ATOM     15  C   UNL     1       5.691   9.609  14.283  1.00  0.00    -0.008 C 
ATOM     16  C   UNL     1       6.528   9.905  15.505  1.00  0.00     0.004 C 
ATOM     17  C   UNL     1       7.179   9.354  14.269  1.00  0.00     0.004 C 
ENDBRANCH   6  15
ENDBRANCH   4   5
ENDBRANCH   1   4
BRANCH   3  18
ATOM     18  C   UNL     1      -0.458   6.621   7.258  1.00  0.00     0.053 C 
BRANCH  18  19
ATOM     19  C   UNL     1       0.345   7.186   6.115  1.00  0.00     0.074 C 
BRANCH  19  20
ATOM     20  N   UNL     1       0.722   8.415   5.989  1.00  0.00    -0.313 NA
ATOM     21  H   UNL     1      -0.005   8.991   5.542  1.00  0.00     0.186 HD
ENDBRANCH  19  20
ENDBRANCH  18  19
ENDBRANCH   3  18
TORSDOF 6
ENDMDL
MODEL 4
REMARK VINA RESULT:    -3.875      5.204      8.454
REMARK INTER + INTRA:          -5.368
REMARK INTER:                  -5.156
REMARK INTRA:                  -0.212
REMARK UNBOUND:                -0.247
REMARK SMILES [H]/N=C\C[C@H]1C[C@@H]1O[C@H]1CO[C@H]2C[C@@H](C3CC3)CCN2C1
REMARK SMILES IDX 7 1 6 2 5 3 8 4 9 5 14 6 13 7 18 8 12 9 19 10 20 11 11 12
REMARK SMILES IDX 21 13 10 14 15 15 16 16 17 17 4 18 3 19 2 20 1 21
REMARK H PARENT
ROOT
ATOM      1  C   UNL     1      -1.379   6.790   9.734  1.00  0.00     0.122 C 
ATOM      2  C   UNL     1      -0.320   5.994  10.444  1.00  0.00     0.039 C 
ATOM      3  C   UNL     1      -1.582   5.321   9.986  1.00  0.00     0.026 C 
ENDROOT
BRANCH   1   4
ATOM      4  O   UNL     1      -2.102   7.697  10.588  1.00  0.00    -0.371 OA
BRANCH   4   5
ATOM      5  C   UNL     1      -2.539   8.917   9.967  1.00  0.00     0.158 C 
ATOM      6  C   UNL     1      -5.976  10.446  13.581  1.00  0.00    -0.003 C 
ATOM      7  C   UNL     1      -5.920   9.345  12.515  1.00  0.00     0.052 C 
ATOM      8  C   UNL     1      -4.558  10.718  14.104  1.00  0.00     0.019 C 
ATOM      9  C   UNL     1      -4.899   9.668  11.415  1.00  0.00     0.189 C 
ATOM     10  C   UNL     1      -3.585  10.998  12.959  1.00  0.00     0.087 C 
ATOM     11  N   UNL     1      -3.576   9.895  11.998  1.00  0.00    -0.276 NA
ATOM     12  O   UNL     1      -4.904   8.559  10.514  1.00  0.00    -0.360 OA
ATOM     13  C   UNL     1      -2.584  10.109  10.939  1.00  0.00     0.121 C 
ATOM     14  C   UNL     1      -3.964   8.701   9.445  1.00  0.00     0.195 C 
BRANCH   6  15
ATOM     15  C   UNL     1      -6.898  10.070  14.719  1.00  0.00    -0.008 C 
ATOM     16  C   UNL     1      -7.746  11.122  15.394  1.00  0.00     0.004 C 
ATOM     17  C   UNL     1      -8.396  10.077  14.534  1.00  0.00     0.004 C 
ENDBRANCH   6  15
ENDBRANCH   4   5
ENDBRANCH   1   4
BRANCH   3  18
ATOM     18  C   UNL     1      -1.514   4.343   8.851  1.00  0.00     0.053 C 
BRANCH  18  19
ATOM     19  C   UNL     1      -2.286   3.062   9.028  1.00  0.00     0.074 C 
BRANCH  19  20
ATOM     20  N   UNL     1      -2.670   2.558  10.154  1.00  0.00    -0.313 NA
ATOM     21  H   UNL     1      -2.973   1.580  10.049  1.00  0.00     0.186 HD
ENDBRANCH  19  20
ENDBRANCH  18  19
ENDBRANCH   3  18
TORSDOF 6
ENDMDL
MODEL 5
REMARK VINA RESULT:    -3.767      4.123      7.066
REMARK INTER + INTRA:          -5.225
REMARK INTER:                  -4.767
REMARK INTRA:                  -0.458
REMARK UNBOUND:                -0.247
REMARK SMILES [H]/N=C\C[C@H]1C[C@@H]1O[C@H]1CO[C@H]2C[C@@H](C3CC3)CCN2C1
REMARK SMILES IDX 7 1 6 2 5 3 8 4 9 5 14 6 13 7 18 8 12 9 19 10 20 11 11 12
REMARK SMILES IDX 21 13 10 14 15 15 16 16 17 17 4 18 3 19 2 20 1 21
REMARK H PARENT
ROOT
ATOM      1  C   UNL     1       2.017  10.469  16.582  1.00  0.00     0.122 C 
ATOM      2  C   UNL     1       2.237  11.939  16.365  1.00  0.00     0.039 C 
ATOM      3  C   UNL     1       0.983  11.288  15.858  1.00  0.00     0.026 C 
ENDROOT
BRANCH   1   4
ATOM      4  O   UNL     1       2.854   9.624  15.769  1.00  0.00    -0.371 OA
BRANCH   4   5
ATOM      5  C   UNL     1       2.894   8.239  16.152  1.00  0.00     0.158 C 
ATOM      6  C   UNL     1       1.214   6.141  11.682  1.00  0.00    -0.003 C 
ATOM      7  C   UNL     1       0.582   6.947  12.823  1.00  0.00     0.052 C 
ATOM      8  C   UNL     1       2.675   6.577  11.503  1.00  0.00     0.019 C 
ATOM      9  C   UNL     1       1.419   6.872  14.107  1.00  0.00     0.189 C 
ATOM     10  C   UNL     1       3.444   6.512  12.822  1.00  0.00     0.087 C 
ATOM     11  N   UNL     1       2.788   7.320  13.850  1.00  0.00    -0.276 NA
ATOM     12  O   UNL     1       0.760   7.692  15.074  1.00  0.00    -0.360 OA
ATOM     13  C   UNL     1       3.560   7.338  15.098  1.00  0.00     0.121 C 
ATOM     14  C   UNL     1       1.452   7.751  16.324  1.00  0.00     0.195 C 
BRANCH   6  15
ATOM     15  C   UNL     1       0.447   6.311  10.391  1.00  0.00    -0.008 C 
ATOM     16  C   UNL     1      -0.789   5.485  10.122  1.00  0.00     0.004 C 
ATOM     17  C   UNL     1      -0.917   6.958  10.381  1.00  0.00     0.004 C 
ENDBRANCH   6  15
ENDBRANCH   4   5
ENDBRANCH   1   4
BRANCH   3  18
ATOM     18  C   UNL     1      -0.323  11.612  16.520  1.00  0.00     0.053 C 
BRANCH  18  19
ATOM     19  C   UNL     1      -1.492  10.736  16.152  1.00  0.00     0.074 C 
BRANCH  19  20
ATOM     20  N   UNL     1      -1.421   9.566  15.610  1.00  0.00    -0.313 NA
ATOM     21  H   UNL     1      -2.310   9.053  15.695  1.00  0.00     0.186 HD
ENDBRANCH  19  20
ENDBRANCH  18  19
ENDBRANCH   3  18
TORSDOF 6
ENDMDL
MODEL 6
REMARK VINA RESULT:    -3.711      5.806      7.299
REMARK INTER + INTRA:          -5.151
REMARK INTER:                  -4.620
REMARK INTRA:                  -0.531
REMARK UNBOUND:                -0.247
REMARK SMILES [H]/N=C\C[C@H]1C[C@@H]1O[C@H]1CO[C@H]2C[C@@H](C3CC3)CCN2C1
REMARK SMILES IDX 7 1 6 2 5 3 8 4 9 5 14 6 13 7 18 8 12 9 19 10 20 11 11 12
REMARK SMILES IDX 21 13 10 14 15 15 16 16 17 17 4 18 3 19 2 20 1 21
REMARK H PARENT
ROOT
ATOM      1  C   UNL     1      -3.111  11.794  15.973  1.00  0.00     0.122 C 
ATOM      2  C   UNL     1      -3.338  11.184  17.328  1.00  0.00     0.039 C 
ATOM      3  C   UNL     1      -2.254  10.648  16.437  1.00  0.00     0.026 C 
ENDROOT
BRANCH   1   4
ATOM      4  O   UNL     1      -4.137  11.483  15.011  1.00  0.00    -0.371 OA
BRANCH   4   5
ATOM      5  C   UNL     1      -4.174  12.329  13.850  1.00  0.00     0.158 C 
ATOM      6  C   UNL     1      -2.906   8.773  10.251  1.00  0.00    -0.003 C 
ATOM      7  C   UNL     1      -2.166   9.512  11.373  1.00  0.00     0.052 C 
ATOM      8  C   UNL     1      -4.367   8.554  10.665  1.00  0.00     0.019 C 
ATOM      9  C   UNL     1      -2.898  10.796  11.789  1.00  0.00     0.189 C 
ATOM     10  C   UNL     1      -5.027   9.863  11.100  1.00  0.00     0.087 C 
ATOM     11  N   UNL     1      -4.274  10.494  12.183  1.00  0.00    -0.276 NA
ATOM     12  O   UNL     1      -2.145  11.366  12.862  1.00  0.00    -0.360 OA
ATOM     13  C   UNL     1      -4.941  11.707  12.670  1.00  0.00     0.121 C 
ATOM     14  C   UNL     1      -2.733  12.561  13.384  1.00  0.00     0.195 C 
BRANCH   6  15
ATOM     15  C   UNL     1      -2.243   7.454   9.925  1.00  0.00    -0.008 C 
ATOM     16  C   UNL     1      -1.119   7.392   8.917  1.00  0.00     0.004 C 
ATOM     17  C   UNL     1      -0.830   7.166  10.373  1.00  0.00     0.004 C 
ENDBRANCH   6  15
ENDBRANCH   4   5
ENDBRANCH   1   4
BRANCH   3  18
ATOM     18  C   UNL     1      -0.822  10.880  16.815  1.00  0.00     0.053 C 
BRANCH  18  19
ATOM     19  C   UNL     1       0.205  10.566  15.758  1.00  0.00     0.074 C 
BRANCH  19  20
ATOM     20  N   UNL     1       0.212  11.023  14.550  1.00  0.00    -0.313 NA
ATOM     21  H   UNL     1      -0.639  11.565  14.344  1.00  0.00     0.186 HD
ENDBRANCH  19  20
ENDBRANCH  18  19
ENDBRANCH   3  18
TORSDOF 6
ENDMDL
MODEL 7
REMARK VINA RESULT:    -3.688      4.149      7.027
REMARK INTER + INTRA:          -5.121
REMARK INTER:                  -4.995
REMARK INTRA:                  -0.126
REMARK UNBOUND:                -0.247
REMARK SMILES [H]/N=C\C[C@H]1C[C@@H]1O[C@H]1CO[C@H]2C[C@@H](C3CC3)CCN2C1
REMARK SMILES IDX 7 1 6 2 5 3 8 4 9 5 14 6 13 7 18 8 12 9 19 10 20 11 11 12
REMARK SMILES IDX 21 13 10 14 15 15 16 16 17 17 4 18 3 19 2 20 1 21
REMARK H PARENT
ROOT
ATOM      1  C   UNL     1       3.600  10.448  16.016  1.00  0.00     0.122 C 
ATOM      2  C   UNL     1       4.294  10.975  14.792  1.00  0.00     0.039 C 
ATOM      3  C   UNL     1       3.506  11.908  15.667  1.00  0.00     0.026 C 
ENDROOT
BRANCH   1   4
ATOM      4  O   UNL     1       2.441   9.641  15.733  1.00  0.00    -0.371 OA
BRANCH   4   5
ATOM      5  C   UNL     1       2.540   8.259  16.117  1.00  0.00     0.158 C 
ATOM      6  C   UNL     1       1.142   6.087  11.586  1.00  0.00    -0.003 C 
ATOM      7  C   UNL     1       0.425   6.857  12.702  1.00  0.00     0.052 C 
ATOM      8  C   UNL     1       2.584   6.599  11.462  1.00  0.00     0.019 C 
ATOM      9  C   UNL     1       1.217   6.822  14.017  1.00  0.00     0.189 C 
ATOM     10  C   UNL     1       3.304   6.571  12.810  1.00  0.00     0.087 C 
ATOM     11  N   UNL     1       2.569   7.341  13.812  1.00  0.00    -0.276 NA
ATOM     12  O   UNL     1       0.479   7.604  14.958  1.00  0.00    -0.360 OA
ATOM     13  C   UNL     1       3.291   7.396  15.088  1.00  0.00     0.121 C 
ATOM     14  C   UNL     1       1.120   7.696  16.234  1.00  0.00     0.195 C 
BRANCH   6  15
ATOM     15  C   UNL     1       0.417   6.220  10.266  1.00  0.00    -0.008 C 
ATOM     16  C   UNL     1      -0.831   5.413   9.995  1.00  0.00     0.004 C 
ATOM     17  C   UNL     1      -0.930   6.898  10.188  1.00  0.00     0.004 C 
ENDBRANCH   6  15
ENDBRANCH   4   5
ENDBRANCH   1   4
BRANCH   3  18
ATOM     18  C   UNL     1       4.239  12.929  16.484  1.00  0.00     0.053 C 
BRANCH  18  19
ATOM     19  C   UNL     1       3.680  14.328  16.457  1.00  0.00     0.074 C 
BRANCH  19  20
ATOM     20  N   UNL     1       3.590  15.088  15.417  1.00  0.00    -0.313 NA
ATOM     21  H   UNL     1       2.920  15.856  15.564  1.00  0.00     0.186 HD
ENDBRANCH  19  20
ENDBRANCH  18  19
ENDBRANCH   3  18
TORSDOF 6
ENDMDL
MODEL 8
REMARK VINA RESULT:    -3.406      6.712      8.942
REMARK INTER + INTRA:          -4.749
REMARK INTER:                  -4.481
REMARK INTRA:                  -0.268
REMARK UNBOUND:                -0.247
REMARK SMILES [H]/N=C\C[C@H]1C[C@@H]1O[C@H]1CO[C@H]2C[C@@H](C3CC3)CCN2C1
REMARK SMILES IDX 7 1 6 2 5 3 8 4 9 5 14 6 13 7 18 8 12 9 19 10 20 11 11 12
REMARK SMILES IDX 21 13 10 14 15 15 16 16 17 17 4 18 3 19 2 20 1 21
REMARK H PARENT
ROOT
ATOM      1  C   UNL     1       0.567   8.495  15.285  1.00  0.00     0.122 C 
ATOM      2  C   UNL     1       0.455   7.073  15.758  1.00  0.00     0.039 C 
ATOM      3  C   UNL     1       1.150   7.379  14.462  1.00  0.00     0.026 C 
ENDROOT
BRANCH   1   4
ATOM      4  O   UNL     1      -0.675   9.058  14.820  1.00  0.00    -0.371 OA
BRANCH   4   5
ATOM      5  C   UNL     1      -0.811  10.479  14.984  1.00  0.00     0.158 C 
ATOM      6  C   UNL     1      -6.001  10.724  15.435  1.00  0.00    -0.003 C 
ATOM      7  C   UNL     1      -5.009  10.453  14.297  1.00  0.00     0.052 C 
ATOM      8  C   UNL     1      -5.417  10.196  16.753  1.00  0.00     0.019 C 
ATOM      9  C   UNL     1      -3.609  10.993  14.621  1.00  0.00     0.189 C 
ATOM     10  C   UNL     1      -4.011  10.743  16.999  1.00  0.00     0.087 C 
ATOM     11  N   UNL     1      -3.124  10.428  15.880  1.00  0.00    -0.276 NA
ATOM     12  O   UNL     1      -2.771  10.643  13.518  1.00  0.00    -0.360 OA
ATOM     13  C   UNL     1      -1.749  10.869  16.140  1.00  0.00     0.121 C 
ATOM     14  C   UNL     1      -1.411  11.051  13.696  1.00  0.00     0.195 C 
BRANCH   6  15
ATOM     15  C   UNL     1      -7.347  10.091  15.159  1.00  0.00    -0.008 C 
ATOM     16  C   UNL     1      -8.592  10.944  15.091  1.00  0.00     0.004 C 
ATOM     17  C   UNL     1      -8.050  10.311  13.842  1.00  0.00     0.004 C 
ENDBRANCH   6  15
ENDBRANCH   4   5
ENDBRANCH   1   4
BRANCH   3  18
ATOM     18  C   UNL     1       2.636   7.201  14.374  1.00  0.00     0.053 C 
BRANCH  18  19
ATOM     19  C   UNL     1       3.181   6.797  13.029  1.00  0.00     0.074 C 
BRANCH  19  20
ATOM     20  N   UNL     1       2.479   6.465  11.997  1.00  0.00    -0.313 NA
ATOM     21  H   UNL     1       1.660   7.078  11.882  1.00  0.00     0.186 HD
ENDBRANCH  19  20
ENDBRANCH  18  19
ENDBRANCH   3  18
TORSDOF 6
ENDMDL
MODEL 9
REMARK VINA RESULT:    -3.377      6.518      8.151
REMARK INTER + INTRA:          -4.709
REMARK INTER:                  -4.558
REMARK INTRA:                  -0.151
REMARK UNBOUND:                -0.247
REMARK SMILES [H]/N=C\C[C@H]1C[C@@H]1O[C@H]1CO[C@H]2C[C@@H](C3CC3)CCN2C1
REMARK SMILES IDX 7 1 6 2 5 3 8 4 9 5 14 6 13 7 18 8 12 9 19 10 20 11 11 12
REMARK SMILES IDX 21 13 10 14 15 15 16 16 17 17 4 18 3 19 2 20 1 21
REMARK H PARENT
ROOT
ATOM      1  C   UNL     1      -1.151  12.555  15.787  1.00  0.00     0.122 C 
ATOM      2  C   UNL     1      -0.474  12.395  17.119  1.00  0.00     0.039 C 
ATOM      3  C   UNL     1      -0.803  11.183  16.295  1.00  0.00     0.026 C 
ENDROOT
BRANCH   1   4
ATOM      4  O   UNL     1      -2.536  12.943  15.876  1.00  0.00    -0.371 OA
BRANCH   4   5
ATOM      5  C   UNL     1      -3.001  13.821  14.838  1.00  0.00     0.158 C 
ATOM      6  C   UNL     1      -4.153  10.231  11.234  1.00  0.00    -0.003 C 
ATOM      7  C   UNL     1      -2.867  10.815  11.831  1.00  0.00     0.052 C 
ATOM      8  C   UNL     1      -5.251  10.220  12.308  1.00  0.00     0.019 C 
ATOM      9  C   UNL     1      -3.112  12.180  12.488  1.00  0.00     0.189 C 
ATOM     10  C   UNL     1      -5.421  11.599  12.946  1.00  0.00     0.087 C 
ATOM     11  N   UNL     1      -4.157  12.075  13.507  1.00  0.00    -0.276 NA
ATOM     12  O   UNL     1      -1.862  12.596  13.043  1.00  0.00    -0.360 OA
ATOM     13  C   UNL     1      -4.322  13.358  14.200  1.00  0.00     0.121 C 
ATOM     14  C   UNL     1      -1.944  13.849  13.729  1.00  0.00     0.195 C 
BRANCH   6  15
ATOM     15  C   UNL     1      -3.930   8.838  10.690  1.00  0.00    -0.008 C 
ATOM     16  C   UNL     1      -3.674   8.626   9.216  1.00  0.00     0.004 C 
ATOM     17  C   UNL     1      -2.567   8.406  10.206  1.00  0.00     0.004 C 
ENDBRANCH   6  15
ENDBRANCH   4   5
ENDBRANCH   1   4
BRANCH   3  18
ATOM     18  C   UNL     1       0.316  10.406  15.667  1.00  0.00     0.053 C 
BRANCH  18  19
ATOM     19  C   UNL     1      -0.017   9.009  15.213  1.00  0.00     0.074 C 
BRANCH  19  20
ATOM     20  N   UNL     1      -0.177   8.628  13.990  1.00  0.00    -0.313 NA
ATOM     21  H   UNL     1       0.608   8.926  13.394  1.00  0.00     0.186 HD
ENDBRANCH  19  20
ENDBRANCH  18  19
ENDBRANCH   3  18
TORSDOF 6
ENDMDL
