MODEL 1
REMARK VINA RESULT:    -4.223      0.000      0.000
REMARK INTER + INTRA:          -5.818
REMARK INTER:                  -5.581
REMARK INTRA:                  -0.237
REMARK UNBOUND:                -0.237
REMARK SMILES [H]/N=C\C[C@H]1C[C@@H]1O[C@H]1CO[C@H]2C[C@@H](C3CC3)CCN2C1
REMARK SMILES IDX 7 1 6 2 5 3 8 4 9 5 14 6 13 7 18 8 12 9 19 10 20 11 11 12
REMARK SMILES IDX 21 13 10 14 15 15 16 16 17 17 4 18 3 19 2 20 1 21
REMARK H PARENT
ROOT
ATOM      1  C   UNL     1     -10.583   9.544  -0.002  1.00  0.00     0.122 C 
ATOM      2  C   UNL     1     -12.056   9.807   0.140  1.00  0.00     0.039 C 
ATOM      3  C   UNL     1     -11.142  10.010   1.315  1.00  0.00     0.026 C 
ENDROOT
BRANCH   1   4
ATOM      4  O   UNL     1     -10.242   8.148  -0.100  1.00  0.00    -0.371 OA
BRANCH   4   5
ATOM      5  C   UNL     1     -10.596   7.510  -1.338  1.00  0.00     0.158 C 
ATOM      6  C   UNL     1      -6.266   4.686  -2.028  1.00  0.00    -0.003 C 
ATOM      7  C   UNL     1      -6.634   6.171  -2.120  1.00  0.00     0.052 C 
ATOM      8  C   UNL     1      -7.122   4.017  -0.944  1.00  0.00     0.019 C 
ATOM      9  C   UNL     1      -8.144   6.374  -2.301  1.00  0.00     0.189 C 
ATOM     10  C   UNL     1      -8.610   4.285  -1.163  1.00  0.00     0.087 C 
ATOM     11  N   UNL     1      -8.881   5.721  -1.219  1.00  0.00    -0.276 NA
ATOM     12  O   UNL     1      -8.367   7.785  -2.326  1.00  0.00    -0.360 OA
ATOM     13  C   UNL     1     -10.317   5.997  -1.342  1.00  0.00     0.121 C 
ATOM     14  C   UNL     1      -9.749   8.132  -2.454  1.00  0.00     0.195 C 
BRANCH   6  15
ATOM     15  C   UNL     1      -4.795   4.495  -1.736  1.00  0.00    -0.008 C 
ATOM     16  C   UNL     1      -3.962   3.560  -2.581  1.00  0.00     0.004 C 
ATOM     17  C   UNL     1      -3.743   5.042  -2.671  1.00  0.00     0.004 C 
ENDBRANCH   6  15
ENDBRANCH   4   5
ENDBRANCH   1   4
BRANCH   3  18
ATOM     18  C   UNL     1     -10.878  11.404   1.798  1.00  0.00     0.053 C 
BRANCH  18  19
ATOM     19  C   UNL     1     -12.088  12.219   2.176  1.00  0.00     0.074 C 
BRANCH  19  20
ATOM     20  N   UNL     1     -12.673  12.215   3.328  1.00  0.00    -0.313 NA
ATOM     21  H   UNL     1     -12.969  13.162   3.606  1.00  0.00     0.186 HD
ENDBRANCH  19  20
ENDBRANCH  18  19
ENDBRANCH   3  18
TORSDOF 6
ENDMDL
MODEL 2
REMARK VINA RESULT:    -4.217      3.306      5.558
REMARK INTER + INTRA:          -5.810
REMARK INTER:                  -5.582
REMARK INTRA:                  -0.229
REMARK UNBOUND:                -0.237
REMARK SMILES [H]/N=C\C[C@H]1C[C@@H]1O[C@H]1CO[C@H]2C[C@@H](C3CC3)CCN2C1
REMARK SMILES IDX 7 1 6 2 5 3 8 4 9 5 14 6 13 7 18 8 12 9 19 10 20 11 11 12
REMARK SMILES IDX 21 13 10 14 15 15 16 16 17 17 4 18 3 19 2 20 1 21
REMARK H PARENT
ROOT
ATOM      1  C   UNL     1     -10.559   8.169  -4.680  1.00  0.00     0.122 C 
ATOM      2  C   UNL     1     -10.638   9.515  -5.343  1.00  0.00     0.039 C 
ATOM      3  C   UNL     1     -10.565   8.271  -6.181  1.00  0.00     0.026 C 
ENDROOT
BRANCH   1   4
ATOM      4  O   UNL     1      -9.289   7.895  -4.058  1.00  0.00    -0.371 OA
BRANCH   4   5
ATOM      5  C   UNL     1      -9.021   8.625  -2.849  1.00  0.00     0.158 C 
ATOM      6  C   UNL     1      -6.685   4.828  -0.142  1.00  0.00    -0.003 C 
ATOM      7  C   UNL     1      -8.119   5.133  -0.592  1.00  0.00     0.052 C 
ATOM      8  C   UNL     1      -5.700   5.362  -1.191  1.00  0.00     0.019 C 
ATOM      9  C   UNL     1      -8.307   6.619  -0.927  1.00  0.00     0.189 C 
ATOM     10  C   UNL     1      -5.961   6.835  -1.504  1.00  0.00     0.087 C 
ATOM     11  N   UNL     1      -7.342   7.039  -1.943  1.00  0.00    -0.276 NA
ATOM     12  O   UNL     1      -9.656   6.770  -1.374  1.00  0.00    -0.360 OA
ATOM     13  C   UNL     1      -7.585   8.433  -2.331  1.00  0.00     0.121 C 
ATOM     14  C   UNL     1      -9.970   8.111  -1.762  1.00  0.00     0.195 C 
BRANCH   6  15
ATOM     15  C   UNL     1      -6.476   3.346   0.077  1.00  0.00    -0.008 C 
ATOM     16  C   UNL     1      -5.833   2.845   1.348  1.00  0.00     0.004 C 
ATOM     17  C   UNL     1      -7.292   2.593   1.099  1.00  0.00     0.004 C 
ENDBRANCH   6  15
ENDBRANCH   4   5
ENDBRANCH   1   4
BRANCH   3  18
ATOM     18  C   UNL     1     -11.773   7.849  -6.962  1.00  0.00     0.053 C 
BRANCH  18  19
ATOM     19  C   UNL     1     -12.375   8.889  -7.871  1.00  0.00     0.074 C 
BRANCH  19  20
ATOM     20  N   UNL     1     -12.125   9.031  -9.130  1.00  0.00    -0.313 NA
ATOM     21  H   UNL     1     -12.278   8.155  -9.649  1.00  0.00     0.186 HD
ENDBRANCH  19  20
ENDBRANCH  18  19
ENDBRANCH   3  18
TORSDOF 6
ENDMDL
MODEL 3
REMARK VINA RESULT:    -4.016      5.248      8.464
REMARK INTER + INTRA:          -5.545
REMARK INTER:                  -5.328
REMARK INTRA:                  -0.217
REMARK UNBOUND:                -0.237
REMARK SMILES [H]/N=C\C[C@H]1C[C@@H]1O[C@H]1CO[C@H]2C[C@@H](C3CC3)CCN2C1
REMARK SMILES IDX 7 1 6 2 5 3 8 4 9 5 14 6 13 7 18 8 12 9 19 10 20 11 11 12
REMARK SMILES IDX 21 13 10 14 15 15 16 16 17 17 4 18 3 19 2 20 1 21
REMARK H PARENT
ROOT
ATOM      1  C   UNL     1      -9.719   7.777  -2.601  1.00  0.00     0.122 C 
ATOM      2  C   UNL     1     -10.298   7.894  -1.220  1.00  0.00     0.039 C 
ATOM      3  C   UNL     1     -10.232   6.553  -1.892  1.00  0.00     0.026 C 
ENDROOT
BRANCH   1   4
ATOM      4  O   UNL     1     -10.559   8.321  -3.638  1.00  0.00    -0.371 OA
BRANCH   4   5
ATOM      5  C   UNL     1      -9.866   8.887  -4.763  1.00  0.00     0.158 C 
ATOM      6  C   UNL     1     -13.869   9.146  -8.096  1.00  0.00    -0.003 C 
ATOM      7  C   UNL     1     -13.006   8.026  -7.502  1.00  0.00     0.052 C 
ATOM      8  C   UNL     1     -14.011  10.277  -7.069  1.00  0.00     0.019 C 
ATOM      9  C   UNL     1     -11.669   8.559  -6.970  1.00  0.00     0.189 C 
ATOM     10  C   UNL     1     -12.647  10.739  -6.555  1.00  0.00     0.087 C 
ATOM     11  N   UNL     1     -11.896   9.619  -5.987  1.00  0.00    -0.276 NA
ATOM     12  O   UNL     1     -10.979   7.443  -6.405  1.00  0.00    -0.360 OA
ATOM     13  C   UNL     1     -10.621  10.061  -5.411  1.00  0.00     0.121 C 
ATOM     14  C   UNL     1      -9.718   7.796  -5.829  1.00  0.00     0.195 C 
BRANCH   6  15
ATOM     15  C   UNL     1     -15.230   8.635  -8.514  1.00  0.00    -0.008 C 
ATOM     16  C   UNL     1     -15.897   9.170  -9.759  1.00  0.00     0.004 C 
ATOM     17  C   UNL     1     -15.386   7.759  -9.734  1.00  0.00     0.004 C 
ENDBRANCH   6  15
ENDBRANCH   4   5
ENDBRANCH   1   4
BRANCH   3  18
ATOM     18  C   UNL     1      -9.273   5.525  -1.370  1.00  0.00     0.053 C 
BRANCH  18  19
ATOM     19  C   UNL     1      -9.835   4.146  -1.140  1.00  0.00     0.074 C 
BRANCH  19  20
ATOM     20  N   UNL     1     -11.088   3.839  -1.086  1.00  0.00    -0.313 NA
ATOM     21  H   UNL     1     -11.232   2.897  -0.695  1.00  0.00     0.186 HD
ENDBRANCH  19  20
ENDBRANCH  18  19
ENDBRANCH   3  18
TORSDOF 6
ENDMDL
MODEL 4
REMARK VINA RESULT:    -4.015      2.720      8.657
REMARK INTER + INTRA:          -5.544
REMARK INTER:                  -5.297
REMARK INTRA:                  -0.246
REMARK UNBOUND:                -0.237
REMARK SMILES [H]/N=C\C[C@H]1C[C@@H]1O[C@H]1CO[C@H]2C[C@@H](C3CC3)CCN2C1
REMARK SMILES IDX 7 1 6 2 5 3 8 4 9 5 14 6 13 7 18 8 12 9 19 10 20 11 11 12
REMARK SMILES IDX 21 13 10 14 15 15 16 16 17 17 4 18 3 19 2 20 1 21
REMARK H PARENT
ROOT
ATOM      1  C   UNL     1      -9.678   8.157  -1.535  1.00  0.00     0.122 C 
ATOM      2  C   UNL     1      -9.407   8.290  -3.007  1.00  0.00     0.039 C 
ATOM      3  C   UNL     1      -8.298   8.509  -2.019  1.00  0.00     0.026 C 
ENDROOT
BRANCH   1   4
ATOM      4  O   UNL     1     -10.461   9.233  -0.983  1.00  0.00    -0.371 OA
BRANCH   4   5
ATOM      5  C   UNL     1     -11.356   8.866   0.080  1.00  0.00     0.158 C 
ATOM      6  C   UNL     1     -12.480  13.645   1.842  1.00  0.00    -0.003 C 
ATOM      7  C   UNL     1     -11.259  12.717   1.885  1.00  0.00     0.052 C 
ATOM      8  C   UNL     1     -13.250  13.408   0.535  1.00  0.00     0.019 C 
ATOM      9  C   UNL     1     -11.648  11.252   1.645  1.00  0.00     0.189 C 
ATOM     10  C   UNL     1     -13.576  11.928   0.339  1.00  0.00     0.087 C 
ATOM     11  N   UNL     1     -12.361  11.115   0.374  1.00  0.00    -0.276 NA
ATOM     12  O   UNL     1     -10.434  10.499   1.662  1.00  0.00    -0.360 OA
ATOM     13  C   UNL     1     -12.647   9.702   0.101  1.00  0.00     0.121 C 
ATOM     14  C   UNL     1     -10.636   9.105   1.411  1.00  0.00     0.195 C 
BRANCH   6  15
ATOM     15  C   UNL     1     -12.077  15.097   1.966  1.00  0.00    -0.008 C 
ATOM     16  C   UNL     1     -12.865  16.035   2.850  1.00  0.00     0.004 C 
ATOM     17  C   UNL     1     -11.475  15.627   3.245  1.00  0.00     0.004 C 
ENDBRANCH   6  15
ENDBRANCH   4   5
ENDBRANCH   1   4
BRANCH   3  18
ATOM     18  C   UNL     1      -7.189   7.503  -1.937  1.00  0.00     0.053 C 
BRANCH  18  19
ATOM     19  C   UNL     1      -5.795   8.058  -1.794  1.00  0.00     0.074 C 
BRANCH  19  20
ATOM     20  N   UNL     1      -5.394   9.213  -2.210  1.00  0.00    -0.313 NA
ATOM     21  H   UNL     1      -6.001   9.580  -2.957  1.00  0.00     0.186 HD
ENDBRANCH  19  20
ENDBRANCH  18  19
ENDBRANCH   3  18
TORSDOF 6
ENDMDL
MODEL 5
REMARK VINA RESULT:    -3.809      5.832      7.315
REMARK INTER + INTRA:          -5.271
REMARK INTER:                  -4.768
REMARK INTRA:                  -0.503
REMARK UNBOUND:                -0.237
REMARK SMILES [H]/N=C\C[C@H]1C[C@@H]1O[C@H]1CO[C@H]2C[C@@H](C3CC3)CCN2C1
REMARK SMILES IDX 7 1 6 2 5 3 8 4 9 5 14 6 13 7 18 8 12 9 19 10 20 11 11 12
REMARK SMILES IDX 21 13 10 14 15 15 16 16 17 17 4 18 3 19 2 20 1 21
REMARK H PARENT
ROOT
ATOM      1  C   UNL     1     -15.325  12.506  -6.259  1.00  0.00     0.122 C 
ATOM      2  C   UNL     1     -16.760  12.224  -5.912  1.00  0.00     0.039 C 
ATOM      3  C   UNL     1     -15.722  12.272  -4.827  1.00  0.00     0.026 C 
ENDROOT
BRANCH   1   4
ATOM      4  O   UNL     1     -14.659  11.418  -6.930  1.00  0.00    -0.371 OA
BRANCH   4   5
ATOM      5  C   UNL     1     -13.432  11.759  -7.595  1.00  0.00     0.158 C 
ATOM      6  C   UNL     1     -10.205   8.648  -4.928  1.00  0.00    -0.003 C 
ATOM      7  C   UNL     1     -10.979   9.939  -4.634  1.00  0.00     0.052 C 
ATOM      8  C   UNL     1     -11.005   7.792  -5.921  1.00  0.00     0.019 C 
ATOM      9  C   UNL     1     -11.369  10.676  -5.922  1.00  0.00     0.189 C 
ATOM     10  C   UNL     1     -11.391   8.593  -7.164  1.00  0.00     0.087 C 
ATOM     11  N   UNL     1     -12.140   9.796  -6.800  1.00  0.00    -0.276 NA
ATOM     12  O   UNL     1     -12.117  11.826  -5.524  1.00  0.00    -0.360 OA
ATOM     13  C   UNL     1     -12.593  10.530  -7.987  1.00  0.00     0.121 C 
ATOM     14  C   UNL     1     -12.586  12.600  -6.632  1.00  0.00     0.195 C 
BRANCH   6  15
ATOM     15  C   UNL     1      -9.924   7.869  -3.663  1.00  0.00    -0.008 C 
ATOM     16  C   UNL     1      -8.729   8.212  -2.804  1.00  0.00     0.004 C 
ATOM     17  C   UNL     1     -10.115   8.502  -2.306  1.00  0.00     0.004 C 
ENDBRANCH   6  15
ENDBRANCH   4   5
ENDBRANCH   1   4
BRANCH   3  18
ATOM     18  C   UNL     1     -15.741  13.411  -3.853  1.00  0.00     0.053 C 
BRANCH  18  19
ATOM     19  C   UNL     1     -14.529  13.554  -2.970  1.00  0.00     0.074 C 
BRANCH  19  20
ATOM     20  N   UNL     1     -13.324  13.203  -3.276  1.00  0.00    -0.313 NA
ATOM     21  H   UNL     1     -13.279  12.218  -3.571  1.00  0.00     0.186 HD
ENDBRANCH  19  20
ENDBRANCH  18  19
ENDBRANCH   3  18
TORSDOF 6
ENDMDL
MODEL 6
REMARK VINA RESULT:    -3.794      5.866      8.745
REMARK INTER + INTRA:          -5.252
REMARK INTER:                  -5.166
REMARK INTRA:                  -0.086
REMARK UNBOUND:                -0.237
REMARK SMILES [H]/N=C\C[C@H]1C[C@@H]1O[C@H]1CO[C@H]2C[C@@H](C3CC3)CCN2C1
REMARK SMILES IDX 7 1 6 2 5 3 8 4 9 5 14 6 13 7 18 8 12 9 19 10 20 11 11 12
REMARK SMILES IDX 21 13 10 14 15 15 16 16 17 17 4 18 3 19 2 20 1 21
REMARK H PARENT
ROOT
ATOM      1  C   UNL     1     -15.122  15.154   3.537  1.00  0.00     0.122 C 
ATOM      2  C   UNL     1     -15.645  15.492   4.905  1.00  0.00     0.039 C 
ATOM      3  C   UNL     1     -15.069  14.131   4.638  1.00  0.00     0.026 C 
ENDROOT
BRANCH   1   4
ATOM      4  O   UNL     1     -16.149  14.979   2.543  1.00  0.00    -0.371 OA
BRANCH   4   5
ATOM      5  C   UNL     1     -15.762  15.283   1.193  1.00  0.00     0.158 C 
ATOM      6  C   UNL     1     -13.100  10.922   0.143  1.00  0.00    -0.003 C 
ATOM      7  C   UNL     1     -12.871  12.167   1.010  1.00  0.00     0.052 C 
ATOM      8  C   UNL     1     -14.601  10.605   0.096  1.00  0.00     0.019 C 
ATOM      9  C   UNL     1     -13.746  13.344   0.558  1.00  0.00     0.189 C 
ATOM     10  C   UNL     1     -15.416  11.827  -0.328  1.00  0.00     0.087 C 
ATOM     11  N   UNL     1     -15.158  12.962   0.558  1.00  0.00    -0.276 NA
ATOM     12  O   UNL     1     -13.481  14.420   1.461  1.00  0.00    -0.360 OA
ATOM     13  C   UNL     1     -15.998  14.115   0.218  1.00  0.00     0.121 C 
ATOM     14  C   UNL     1     -14.261  15.587   1.184  1.00  0.00     0.195 C 
BRANCH   6  15
ATOM     15  C   UNL     1     -12.322   9.734   0.663  1.00  0.00    -0.008 C 
ATOM     16  C   UNL     1     -11.157   9.180  -0.123  1.00  0.00     0.004 C 
ATOM     17  C   UNL     1     -10.911   9.896   1.173  1.00  0.00     0.004 C 
ENDBRANCH   6  15
ENDBRANCH   4   5
ENDBRANCH   1   4
BRANCH   3  18
ATOM     18  C   UNL     1     -13.757  13.761   5.264  1.00  0.00     0.053 C 
BRANCH  18  19
ATOM     19  C   UNL     1     -13.820  12.800   6.422  1.00  0.00     0.074 C 
BRANCH  19  20
ATOM     20  N   UNL     1     -13.205  12.932   7.550  1.00  0.00    -0.313 NA
ATOM     21  H   UNL     1     -13.230  13.906   7.884  1.00  0.00     0.186 HD
ENDBRANCH  19  20
ENDBRANCH  18  19
ENDBRANCH   3  18
TORSDOF 6
ENDMDL
MODEL 7
REMARK VINA RESULT:    -3.750      4.247      7.225
REMARK INTER + INTRA:          -5.193
REMARK INTER:                  -4.761
REMARK INTRA:                  -0.431
REMARK UNBOUND:                -0.237
REMARK SMILES [H]/N=C\C[C@H]1C[C@@H]1O[C@H]1CO[C@H]2C[C@@H](C3CC3)CCN2C1
REMARK SMILES IDX 7 1 6 2 5 3 8 4 9 5 14 6 13 7 18 8 12 9 19 10 20 11 11 12
REMARK SMILES IDX 21 13 10 14 15 15 16 16 17 17 4 18 3 19 2 20 1 21
REMARK H PARENT
ROOT
ATOM      1  C   UNL     1     -15.015  14.403  -1.288  1.00  0.00     0.122 C 
ATOM      2  C   UNL     1     -14.555  15.656  -1.977  1.00  0.00     0.039 C 
ATOM      3  C   UNL     1     -14.388  14.325  -2.653  1.00  0.00     0.026 C 
ENDROOT
BRANCH   1   4
ATOM      4  O   UNL     1     -14.190  14.007  -0.176  1.00  0.00    -0.371 OA
BRANCH   4   5
ATOM      5  C   UNL     1     -14.770  13.040   0.714  1.00  0.00     0.158 C 
ATOM      6  C   UNL     1     -11.181   9.286   0.236  1.00  0.00    -0.003 C 
ATOM      7  C   UNL     1     -12.290   9.864  -0.651  1.00  0.00     0.052 C 
ATOM      8  C   UNL     1     -10.613  10.398   1.129  1.00  0.00     0.019 C 
ATOM      9  C   UNL     1     -13.350  10.607   0.173  1.00  0.00     0.189 C 
ATOM     10  C   UNL     1     -11.721  11.120   1.895  1.00  0.00     0.087 C 
ATOM     11  N   UNL     1     -12.727  11.657   0.978  1.00  0.00    -0.276 NA
ATOM     12  O   UNL     1     -14.296  11.135  -0.758  1.00  0.00    -0.360 OA
ATOM     13  C   UNL     1     -13.752  12.427   1.692  1.00  0.00     0.121 C 
ATOM     14  C   UNL     1     -15.335  11.894  -0.132  1.00  0.00     0.195 C 
BRANCH   6  15
ATOM     15  C   UNL     1     -10.082   8.655  -0.589  1.00  0.00    -0.008 C 
ATOM     16  C   UNL     1     -10.246   7.257  -1.139  1.00  0.00     0.004 C 
ATOM     17  C   UNL     1     -10.259   8.433  -2.072  1.00  0.00     0.004 C 
ENDBRANCH   6  15
ENDBRANCH   4   5
ENDBRANCH   1   4
BRANCH   3  18
ATOM     18  C   UNL     1     -15.229  14.009  -3.854  1.00  0.00     0.053 C 
BRANCH  18  19
ATOM     19  C   UNL     1     -15.366  12.551  -4.207  1.00  0.00     0.074 C 
BRANCH  19  20
ATOM     20  N   UNL     1     -14.852  11.563  -3.553  1.00  0.00    -0.313 NA
ATOM     21  H   UNL     1     -13.865  11.413  -3.806  1.00  0.00     0.186 HD
ENDBRANCH  19  20
ENDBRANCH  18  19
ENDBRANCH   3  18
TORSDOF 6
ENDMDL
MODEL 8
REMARK VINA RESULT:    -3.639      7.041      8.573
REMARK INTER + INTRA:          -5.046
REMARK INTER:                  -4.388
REMARK INTRA:                  -0.658
REMARK UNBOUND:                -0.237
REMARK SMILES [H]/N=C\C[C@H]1C[C@@H]1O[C@H]1CO[C@H]2C[C@@H](C3CC3)CCN2C1
REMARK SMILES IDX 7 1 6 2 5 3 8 4 9 5 14 6 13 7 18 8 12 9 19 10 20 11 11 12
REMARK SMILES IDX 21 13 10 14 15 15 16 16 17 17 4 18 3 19 2 20 1 21
REMARK H PARENT
ROOT
ATOM      1  C   UNL     1     -15.861  13.200  -6.305  1.00  0.00     0.122 C 
ATOM      2  C   UNL     1     -17.184  13.208  -5.594  1.00  0.00     0.039 C 
ATOM      3  C   UNL     1     -16.012  12.492  -4.987  1.00  0.00     0.026 C 
ENDROOT
BRANCH   1   4
ATOM      4  O   UNL     1     -15.832  12.372  -7.483  1.00  0.00    -0.371 OA
BRANCH   4   5
ATOM      5  C   UNL     1     -14.784  12.664  -8.421  1.00  0.00     0.158 C 
ATOM      6  C   UNL     1     -11.368   9.010  -6.940  1.00  0.00    -0.003 C 
ATOM      7  C   UNL     1     -11.886  10.330  -6.356  1.00  0.00     0.052 C 
ATOM      8  C   UNL     1     -12.488   8.338  -7.747  1.00  0.00     0.019 C 
ATOM      9  C   UNL     1     -12.503  11.228  -7.437  1.00  0.00     0.189 C 
ATOM     10  C   UNL     1     -13.082   9.295  -8.781  1.00  0.00     0.087 C 
ATOM     11  N   UNL     1     -13.569  10.518  -8.144  1.00  0.00    -0.276 NA
ATOM     12  O   UNL     1     -12.987  12.396  -6.771  1.00  0.00    -0.360 OA
ATOM     13  C   UNL     1     -14.220  11.409  -9.111  1.00  0.00     0.121 C 
ATOM     14  C   UNL     1     -13.629  13.320  -7.656  1.00  0.00     0.195 C 
BRANCH   6  15
ATOM     15  C   UNL     1     -10.867   8.083  -5.856  1.00  0.00    -0.008 C 
ATOM     16  C   UNL     1      -9.384   7.887  -5.645  1.00  0.00     0.004 C 
ATOM     17  C   UNL     1     -10.192   8.631  -4.621  1.00  0.00     0.004 C 
ENDBRANCH   6  15
ENDBRANCH   4   5
ENDBRANCH   1   4
BRANCH   3  18
ATOM     18  C   UNL     1     -15.378  13.055  -3.750  1.00  0.00     0.053 C 
BRANCH  18  19
ATOM     19  C   UNL     1     -14.017  12.515  -3.394  1.00  0.00     0.074 C 
BRANCH  19  20
ATOM     20  N   UNL     1     -12.895  12.888  -3.915  1.00  0.00    -0.313 NA
ATOM     21  H   UNL     1     -12.981  13.047  -4.928  1.00  0.00     0.186 HD
ENDBRANCH  19  20
ENDBRANCH  18  19
ENDBRANCH   3  18
TORSDOF 6
ENDMDL
MODEL 9
REMARK VINA RESULT:    -3.620      5.559      8.572
REMARK INTER + INTRA:          -5.021
REMARK INTER:                  -4.395
REMARK INTRA:                  -0.626
REMARK UNBOUND:                -0.237
REMARK SMILES [H]/N=C\C[C@H]1C[C@@H]1O[C@H]1CO[C@H]2C[C@@H](C3CC3)CCN2C1
REMARK SMILES IDX 7 1 6 2 5 3 8 4 9 5 14 6 13 7 18 8 12 9 19 10 20 11 11 12
REMARK SMILES IDX 21 13 10 14 15 15 16 16 17 17 4 18 3 19 2 20 1 21
REMARK H PARENT
ROOT
ATOM      1  C   UNL     1     -15.498  14.920  -1.560  1.00  0.00     0.122 C 
ATOM      2  C   UNL     1     -15.296  15.916  -2.667  1.00  0.00     0.039 C 
ATOM      3  C   UNL     1     -14.494  14.647  -2.646  1.00  0.00     0.026 C 
ENDROOT
BRANCH   1   4
ATOM      4  O   UNL     1     -14.971  15.342  -0.287  1.00  0.00    -0.371 OA
BRANCH   4   5
ATOM      5  C   UNL     1     -15.546  14.702   0.864  1.00  0.00     0.158 C 
ATOM      6  C   UNL     1     -11.914  11.036   1.617  1.00  0.00    -0.003 C 
ATOM      7  C   UNL     1     -13.024  11.287   0.589  1.00  0.00     0.052 C 
ATOM      8  C   UNL     1     -11.363  12.382   2.108  1.00  0.00     0.019 C 
ATOM      9  C   UNL     1     -14.097  12.242   1.131  1.00  0.00     0.189 C 
ATOM     10  C   UNL     1     -12.483  13.297   2.602  1.00  0.00     0.087 C 
ATOM     11  N   UNL     1     -13.490  13.502   1.560  1.00  0.00    -0.276 NA
ATOM     12  O   UNL     1     -15.043  12.433   0.078  1.00  0.00    -0.360 OA
ATOM     13  C   UNL     1     -14.527  14.447   1.988  1.00  0.00     0.121 C 
ATOM     14  C   UNL     1     -16.094  13.340   0.427  1.00  0.00     0.195 C 
BRANCH   6  15
ATOM     15  C   UNL     1     -10.804  10.188   1.038  1.00  0.00    -0.008 C 
ATOM     16  C   UNL     1     -10.753   8.704   1.316  1.00  0.00     0.004 C 
ATOM     17  C   UNL     1     -11.084   9.194  -0.064  1.00  0.00     0.004 C 
ENDBRANCH   6  15
ENDBRANCH   4   5
ENDBRANCH   1   4
BRANCH   3  18
ATOM     18  C   UNL     1     -14.768  13.597  -3.682  1.00  0.00     0.053 C 
BRANCH  18  19
ATOM     19  C   UNL     1     -14.253  12.214  -3.380  1.00  0.00     0.074 C 
BRANCH  19  20
ATOM     20  N   UNL     1     -14.824  11.343  -2.616  1.00  0.00    -0.313 NA
ATOM     21  H   UNL     1     -14.247  10.498  -2.506  1.00  0.00     0.186 HD
ENDBRANCH  19  20
ENDBRANCH  18  19
ENDBRANCH   3  18
TORSDOF 6
ENDMDL
