MODEL 1
REMARK VINA RESULT:    -6.125      0.000      0.000
REMARK INTER + INTRA:          -7.564
REMARK INTER:                  -7.200
REMARK INTRA:                  -0.364
REMARK UNBOUND:                -0.364
REMARK SMILES Cc1ccc(CNC(=O)NC(=O)c2ccc(C)cc2)cc1
REMARK SMILES IDX 11 1 12 2 10 3 8 4 9 5 7 6 13 9 19 10 18 11 14 12 16 13
REMARK SMILES IDX 15 14 17 15 6 16 5 17 4 18 20 19 3 20 21 21 2 22 1 23
REMARK H PARENT 10 7 7 8
ROOT
ATOM      1  C   UNL     1      -8.598   6.773  -1.928  1.00  0.00     0.259 C 
ATOM      2  O   UNL     1      -8.243   6.792  -3.098  1.00  0.00    -0.269 OA
ATOM      3  N   UNL     1      -9.467   7.644  -1.263  1.00  0.00    -0.274 N 
ATOM      4  C   UNL     1     -10.384   8.609  -1.594  1.00  0.00     0.321 C 
ATOM      5  O   UNL     1     -11.075   9.079  -0.684  1.00  0.00    -0.248 OA
ATOM      6  N   UNL     1     -10.587   9.043  -2.852  1.00  0.00    -0.334 N 
ATOM      7  H   UNL     1      -9.593   7.438  -0.281  1.00  0.00     0.175 HD
ATOM      8  H   UNL     1     -11.355   9.693  -2.939  1.00  0.00     0.165 HD
ENDROOT
BRANCH   1   9
ATOM      9  C   UNL     1      -8.052   5.689  -1.089  1.00  0.00     0.040 A 
ATOM     10  C   UNL     1      -6.960   5.902  -0.245  1.00  0.00     0.014 A 
ATOM     11  C   UNL     1      -6.512   4.861   0.569  1.00  0.00     0.004 A 
ATOM     12  C   UNL     1      -8.655   4.430  -1.167  1.00  0.00     0.014 A 
ATOM     13  C   UNL     1      -7.144   3.609   0.536  1.00  0.00    -0.051 A 
ATOM     14  C   UNL     1      -8.208   3.395  -0.348  1.00  0.00     0.004 A 
ATOM     15  C   UNL     1      -6.704   2.526   1.478  1.00  0.00     0.044 C 
ENDBRANCH   1   9
BRANCH   6  16
ATOM     16  C   UNL     1      -9.971   8.560  -4.055  1.00  0.00     0.153 C 
BRANCH  16  17
ATOM     17  C   UNL     1     -10.626   8.922  -5.359  1.00  0.00    -0.029 A 
ATOM     18  C   UNL     1     -10.979   7.974  -6.325  1.00  0.00     0.006 A 
ATOM     19  C   UNL     1     -11.085  10.241  -5.503  1.00  0.00     0.006 A 
ATOM     20  C   UNL     1     -11.796   8.341  -7.400  1.00  0.00     0.004 A 
ATOM     21  C   UNL     1     -11.901  10.603  -6.570  1.00  0.00     0.004 A 
ATOM     22  C   UNL     1     -12.273   9.653  -7.523  1.00  0.00    -0.051 A 
ATOM     23  C   UNL     1     -13.262  10.018  -8.589  1.00  0.00     0.044 C 
ENDBRANCH  16  17
ENDBRANCH   6  16
TORSDOF 3
ENDMDL
MODEL 2
REMARK VINA RESULT:    -6.120      3.263      5.533
REMARK INTER + INTRA:          -7.557
REMARK INTER:                  -7.193
REMARK INTRA:                  -0.365
REMARK UNBOUND:                -0.364
REMARK SMILES Cc1ccc(CNC(=O)NC(=O)c2ccc(C)cc2)cc1
REMARK SMILES IDX 11 1 12 2 10 3 8 4 9 5 7 6 13 9 19 10 18 11 14 12 16 13
REMARK SMILES IDX 15 14 17 15 6 16 5 17 4 18 20 19 3 20 21 21 2 22 1 23
REMARK H PARENT 10 7 7 8
ROOT
ATOM      1  C   UNL     1      -8.558   6.959  -1.538  1.00  0.00     0.259 C 
ATOM      2  O   UNL     1      -8.939   6.952  -0.375  1.00  0.00    -0.269 OA
ATOM      3  N   UNL     1      -9.155   7.560  -2.651  1.00  0.00    -0.274 N 
ATOM      4  C   UNL     1     -10.136   8.486  -2.898  1.00  0.00     0.321 C 
ATOM      5  O   UNL     1     -10.285   8.865  -4.064  1.00  0.00    -0.248 OA
ATOM      6  N   UNL     1     -10.916   9.018  -1.939  1.00  0.00    -0.334 N 
ATOM      7  H   UNL     1      -8.661   7.410  -3.520  1.00  0.00     0.175 HD
ATOM      8  H   UNL     1     -11.530   9.747  -2.272  1.00  0.00     0.165 HD
ENDROOT
BRANCH   1   9
ATOM      9  C   UNL     1      -7.298   6.248  -1.824  1.00  0.00     0.040 A 
ATOM     10  C   UNL     1      -7.295   4.954  -2.347  1.00  0.00     0.014 A 
ATOM     11  C   UNL     1      -6.078   4.342  -2.651  1.00  0.00     0.004 A 
ATOM     12  C   UNL     1      -6.095   6.907  -1.549  1.00  0.00     0.014 A 
ATOM     13  C   UNL     1      -4.867   5.014  -2.427  1.00  0.00    -0.051 A 
ATOM     14  C   UNL     1      -4.883   6.294  -1.860  1.00  0.00     0.004 A 
ATOM     15  C   UNL     1      -3.572   4.377  -2.838  1.00  0.00     0.044 C 
ENDBRANCH   1   9
BRANCH   6  16
ATOM     16  C   UNL     1     -10.839   8.795  -0.523  1.00  0.00     0.153 C 
BRANCH  16  17
ATOM     17  C   UNL     1     -11.538   9.782   0.370  1.00  0.00    -0.029 A 
ATOM     18  C   UNL     1     -10.897  10.450   1.419  1.00  0.00     0.006 A 
ATOM     19  C   UNL     1     -12.826  10.193  -0.009  1.00  0.00     0.006 A 
ATOM     20  C   UNL     1     -11.529  11.525   2.054  1.00  0.00     0.004 A 
ATOM     21  C   UNL     1     -13.452  11.264   0.620  1.00  0.00     0.004 A 
ATOM     22  C   UNL     1     -12.804  11.947   1.651  1.00  0.00    -0.051 A 
ATOM     23  C   UNL     1     -13.426  13.183   2.228  1.00  0.00     0.044 C 
ENDBRANCH  16  17
ENDBRANCH   6  16
TORSDOF 3
ENDMDL
MODEL 3
REMARK VINA RESULT:    -6.109      0.519      8.094
REMARK INTER + INTRA:          -7.544
REMARK INTER:                  -7.074
REMARK INTRA:                  -0.470
REMARK UNBOUND:                -0.364
REMARK SMILES Cc1ccc(CNC(=O)NC(=O)c2ccc(C)cc2)cc1
REMARK SMILES IDX 11 1 12 2 10 3 8 4 9 5 7 6 13 9 19 10 18 11 14 12 16 13
REMARK SMILES IDX 15 14 17 15 6 16 5 17 4 18 20 19 3 20 21 21 2 22 1 23
REMARK H PARENT 10 7 7 8
ROOT
ATOM      1  C   UNL     1     -10.101   8.204  -4.069  1.00  0.00     0.259 C 
ATOM      2  O   UNL     1      -9.192   7.407  -4.252  1.00  0.00    -0.269 OA
ATOM      3  N   UNL     1     -10.609   8.690  -2.860  1.00  0.00    -0.274 N 
ATOM      4  C   UNL     1     -10.237   8.713  -1.541  1.00  0.00     0.321 C 
ATOM      5  O   UNL     1     -10.922   9.386  -0.763  1.00  0.00    -0.248 OA
ATOM      6  N   UNL     1      -9.157   8.069  -1.061  1.00  0.00    -0.334 N 
ATOM      7  H   UNL     1     -11.385   9.332  -2.962  1.00  0.00     0.175 HD
ATOM      8  H   UNL     1      -8.972   8.256  -0.086  1.00  0.00     0.165 HD
ENDROOT
BRANCH   1   9
ATOM      9  C   UNL     1     -10.760   8.742  -5.275  1.00  0.00     0.040 A 
ATOM     10  C   UNL     1     -11.093   7.919  -6.352  1.00  0.00     0.014 A 
ATOM     11  C   UNL     1     -11.763   8.463  -7.448  1.00  0.00     0.004 A 
ATOM     12  C   UNL     1     -11.040  10.112  -5.314  1.00  0.00     0.014 A 
ATOM     13  C   UNL     1     -12.094   9.826  -7.475  1.00  0.00    -0.051 A 
ATOM     14  C   UNL     1     -11.715  10.650  -6.408  1.00  0.00     0.004 A 
ATOM     15  C   UNL     1     -12.889  10.379  -8.621  1.00  0.00     0.044 C 
ENDBRANCH   1   9
BRANCH   6  16
ATOM     16  C   UNL     1      -8.179   7.325  -1.804  1.00  0.00     0.153 C 
BRANCH  16  17
ATOM     17  C   UNL     1      -7.675   6.046  -1.194  1.00  0.00    -0.029 A 
ATOM     18  C   UNL     1      -6.547   5.987  -0.370  1.00  0.00     0.006 A 
ATOM     19  C   UNL     1      -8.503   4.916  -1.294  1.00  0.00     0.006 A 
ATOM     20  C   UNL     1      -6.271   4.823   0.357  1.00  0.00     0.004 A 
ATOM     21  C   UNL     1      -8.230   3.762  -0.567  1.00  0.00     0.004 A 
ATOM     22  C   UNL     1      -7.117   3.709   0.273  1.00  0.00    -0.051 A 
ATOM     23  C   UNL     1      -6.908   2.514   1.154  1.00  0.00     0.044 C 
ENDBRANCH  16  17
ENDBRANCH   6  16
TORSDOF 3
ENDMDL
MODEL 4
REMARK VINA RESULT:    -6.093      3.152      7.345
REMARK INTER + INTRA:          -7.526
REMARK INTER:                  -7.052
REMARK INTRA:                  -0.474
REMARK UNBOUND:                -0.364
REMARK SMILES Cc1ccc(CNC(=O)NC(=O)c2ccc(C)cc2)cc1
REMARK SMILES IDX 11 1 12 2 10 3 8 4 9 5 7 6 13 9 19 10 18 11 14 12 16 13
REMARK SMILES IDX 15 14 17 15 6 16 5 17 4 18 20 19 3 20 21 21 2 22 1 23
REMARK H PARENT 10 7 7 8
ROOT
ATOM      1  C   UNL     1     -10.488   8.929  -0.445  1.00  0.00     0.259 C 
ATOM      2  O   UNL     1      -9.824   8.146   0.218  1.00  0.00    -0.269 OA
ATOM      3  N   UNL     1     -10.573   9.046  -1.836  1.00  0.00    -0.274 N 
ATOM      4  C   UNL     1     -10.223   8.308  -2.938  1.00  0.00     0.321 C 
ATOM      5  O   UNL     1     -10.604   8.711  -4.042  1.00  0.00    -0.248 OA
ATOM      6  N   UNL     1      -9.519   7.163  -2.874  1.00  0.00    -0.334 N 
ATOM      7  H   UNL     1     -11.178   9.790  -2.156  1.00  0.00     0.175 HD
ATOM      8  H   UNL     1      -9.419   6.697  -3.764  1.00  0.00     0.165 HD
ENDROOT
BRANCH   1   9
ATOM      9  C   UNL     1     -11.325   9.886   0.305  1.00  0.00     0.040 A 
ATOM     10  C   UNL     1     -10.834  10.561   1.424  1.00  0.00     0.014 A 
ATOM     11  C   UNL     1     -11.645  11.495   2.069  1.00  0.00     0.004 A 
ATOM     12  C   UNL     1     -12.637  10.095  -0.134  1.00  0.00     0.014 A 
ATOM     13  C   UNL     1     -12.945  11.751   1.605  1.00  0.00    -0.051 A 
ATOM     14  C   UNL     1     -13.441  11.034   0.510  1.00  0.00     0.004 A 
ATOM     15  C   UNL     1     -13.773  12.819   2.257  1.00  0.00     0.044 C 
ENDBRANCH   1   9
BRANCH   6  16
ATOM     16  C   UNL     1      -9.074   6.473  -1.696  1.00  0.00     0.153 C 
BRANCH  16  17
ATOM     17  C   UNL     1      -7.690   5.886  -1.722  1.00  0.00    -0.029 A 
ATOM     18  C   UNL     1      -7.428   4.566  -2.103  1.00  0.00     0.006 A 
ATOM     19  C   UNL     1      -6.613   6.772  -1.559  1.00  0.00     0.006 A 
ATOM     20  C   UNL     1      -6.112   4.153  -2.338  1.00  0.00     0.004 A 
ATOM     21  C   UNL     1      -5.305   6.362  -1.798  1.00  0.00     0.004 A 
ATOM     22  C   UNL     1      -5.044   5.051  -2.200  1.00  0.00    -0.051 A 
ATOM     23  C   UNL     1      -3.650   4.657  -2.587  1.00  0.00     0.044 C 
ENDBRANCH  16  17
ENDBRANCH   6  16
TORSDOF 3
ENDMDL
MODEL 5
REMARK VINA RESULT:    -5.797      3.092      7.601
REMARK INTER + INTRA:          -7.177
REMARK INTER:                  -6.694
REMARK INTRA:                  -0.483
REMARK UNBOUND:                -0.364
REMARK SMILES Cc1ccc(CNC(=O)NC(=O)c2ccc(C)cc2)cc1
REMARK SMILES IDX 11 1 12 2 10 3 8 4 9 5 7 6 13 9 19 10 18 11 14 12 16 13
REMARK SMILES IDX 15 14 17 15 6 16 5 17 4 18 20 19 3 20 21 21 2 22 1 23
REMARK H PARENT 10 7 7 8
ROOT
ATOM      1  C   UNL     1     -10.888   8.969  -0.313  1.00  0.00     0.259 C 
ATOM      2  O   UNL     1     -10.523   8.027   0.376  1.00  0.00    -0.269 OA
ATOM      3  N   UNL     1     -10.713   9.169  -1.686  1.00  0.00    -0.274 N 
ATOM      4  C   UNL     1     -10.348   8.426  -2.780  1.00  0.00     0.321 C 
ATOM      5  O   UNL     1     -10.446   8.956  -3.892  1.00  0.00    -0.248 OA
ATOM      6  N   UNL     1      -9.920   7.152  -2.705  1.00  0.00    -0.334 N 
ATOM      7  H   UNL     1     -11.087  10.043  -2.032  1.00  0.00     0.175 HD
ATOM      8  H   UNL     1      -9.773   6.719  -3.605  1.00  0.00     0.165 HD
ENDROOT
BRANCH   1   9
ATOM      9  C   UNL     1     -11.619  10.049   0.377  1.00  0.00     0.040 A 
ATOM     10  C   UNL     1     -12.919  10.401   0.008  1.00  0.00     0.014 A 
ATOM     11  C   UNL     1     -13.589  11.392   0.725  1.00  0.00     0.004 A 
ATOM     12  C   UNL     1     -10.969  10.722   1.416  1.00  0.00     0.014 A 
ATOM     13  C   UNL     1     -12.964  12.038   1.802  1.00  0.00    -0.051 A 
ATOM     14  C   UNL     1     -11.644  11.707   2.134  1.00  0.00     0.004 A 
ATOM     15  C   UNL     1     -13.727  13.041   2.616  1.00  0.00     0.044 C 
ENDBRANCH   1   9
BRANCH   6  16
ATOM     16  C   UNL     1      -9.832   6.325  -1.535  1.00  0.00     0.153 C 
BRANCH  16  17
ATOM     17  C   UNL     1      -8.527   5.621  -1.284  1.00  0.00    -0.029 A 
ATOM     18  C   UNL     1      -8.425   4.235  -1.128  1.00  0.00     0.006 A 
ATOM     19  C   UNL     1      -7.351   6.376  -1.426  1.00  0.00     0.006 A 
ATOM     20  C   UNL     1      -7.169   3.620  -1.139  1.00  0.00     0.004 A 
ATOM     21  C   UNL     1      -6.103   5.762  -1.442  1.00  0.00     0.004 A 
ATOM     22  C   UNL     1      -6.001   4.377  -1.309  1.00  0.00    -0.051 A 
ATOM     23  C   UNL     1      -4.666   3.712  -1.465  1.00  0.00     0.044 C 
ENDBRANCH  16  17
ENDBRANCH   6  16
TORSDOF 3
ENDMDL
MODEL 6
REMARK VINA RESULT:    -4.556      2.559      3.985
REMARK INTER + INTRA:          -5.719
REMARK INTER:                  -5.372
REMARK INTRA:                  -0.347
REMARK UNBOUND:                -0.364
REMARK SMILES Cc1ccc(CNC(=O)NC(=O)c2ccc(C)cc2)cc1
REMARK SMILES IDX 11 1 12 2 10 3 8 4 9 5 7 6 13 9 19 10 18 11 14 12 16 13
REMARK SMILES IDX 15 14 17 15 6 16 5 17 4 18 20 19 3 20 21 21 2 22 1 23
REMARK H PARENT 10 7 7 8
ROOT
ATOM      1  C   UNL     1     -10.212   8.384  -3.362  1.00  0.00     0.259 C 
ATOM      2  O   UNL     1     -10.776   9.328  -2.827  1.00  0.00    -0.269 OA
ATOM      3  N   UNL     1     -10.250   7.987  -4.702  1.00  0.00    -0.274 N 
ATOM      4  C   UNL     1     -10.651   8.512  -5.903  1.00  0.00     0.321 C 
ATOM      5  O   UNL     1     -10.385   7.872  -6.926  1.00  0.00    -0.248 OA
ATOM      6  N   UNL     1     -11.286   9.693  -6.025  1.00  0.00    -0.334 N 
ATOM      7  H   UNL     1      -9.713   7.154  -4.905  1.00  0.00     0.175 HD
ATOM      8  H   UNL     1     -11.435   9.977  -6.982  1.00  0.00     0.165 HD
ENDROOT
BRANCH   1   9
ATOM      9  C   UNL     1      -9.366   7.542  -2.494  1.00  0.00     0.040 A 
ATOM     10  C   UNL     1      -9.877   6.408  -1.859  1.00  0.00     0.014 A 
ATOM     11  C   UNL     1      -9.027   5.613  -1.090  1.00  0.00     0.004 A 
ATOM     12  C   UNL     1      -8.031   7.915  -2.316  1.00  0.00     0.014 A 
ATOM     13  C   UNL     1      -7.672   5.950  -0.947  1.00  0.00    -0.051 A 
ATOM     14  C   UNL     1      -7.183   7.114  -1.552  1.00  0.00     0.004 A 
ATOM     15  C   UNL     1      -6.752   5.040  -0.188  1.00  0.00     0.044 C 
ENDBRANCH   1   9
BRANCH   6  16
ATOM     16  C   UNL     1     -11.595  10.632  -4.984  1.00  0.00     0.153 C 
BRANCH  16  17
ATOM     17  C   UNL     1     -12.019  12.012  -5.404  1.00  0.00    -0.029 A 
ATOM     18  C   UNL     1     -11.376  12.733  -6.416  1.00  0.00     0.006 A 
ATOM     19  C   UNL     1     -13.236  12.494  -4.896  1.00  0.00     0.006 A 
ATOM     20  C   UNL     1     -11.959  13.899  -6.923  1.00  0.00     0.004 A 
ATOM     21  C   UNL     1     -13.817  13.651  -5.405  1.00  0.00     0.004 A 
ATOM     22  C   UNL     1     -13.189  14.359  -6.431  1.00  0.00    -0.051 A 
ATOM     23  C   UNL     1     -13.888  15.524  -7.065  1.00  0.00     0.044 C 
ENDBRANCH  16  17
ENDBRANCH   6  16
TORSDOF 3
ENDMDL
MODEL 7
REMARK VINA RESULT:    -4.447      6.063      9.858
REMARK INTER + INTRA:          -5.591
REMARK INTER:                  -5.251
REMARK INTRA:                  -0.340
REMARK UNBOUND:                -0.364
REMARK SMILES Cc1ccc(CNC(=O)NC(=O)c2ccc(C)cc2)cc1
REMARK SMILES IDX 11 1 12 2 10 3 8 4 9 5 7 6 13 9 19 10 18 11 14 12 16 13
REMARK SMILES IDX 15 14 17 15 6 16 5 17 4 18 20 19 3 20 21 21 2 22 1 23
REMARK H PARENT 10 7 7 8
ROOT
ATOM      1  C   UNL     1     -14.291  11.843  -2.687  1.00  0.00     0.259 C 
ATOM      2  O   UNL     1     -13.427  11.056  -2.325  1.00  0.00    -0.269 OA
ATOM      3  N   UNL     1     -15.545  12.088  -2.119  1.00  0.00    -0.274 N 
ATOM      4  C   UNL     1     -16.198  11.811  -0.945  1.00  0.00     0.321 C 
ATOM      5  O   UNL     1     -17.300  12.339  -0.764  1.00  0.00    -0.248 OA
ATOM      6  N   UNL     1     -15.689  11.025   0.021  1.00  0.00    -0.334 N 
ATOM      7  H   UNL     1     -16.098  12.776  -2.612  1.00  0.00     0.175 HD
ATOM      8  H   UNL     1     -16.254  10.991   0.857  1.00  0.00     0.165 HD
ENDROOT
BRANCH   1   9
ATOM      9  C   UNL     1     -13.984  12.658  -3.878  1.00  0.00     0.040 A 
ATOM     10  C   UNL     1     -13.015  12.262  -4.802  1.00  0.00     0.014 A 
ATOM     11  C   UNL     1     -12.797  13.038  -5.940  1.00  0.00     0.004 A 
ATOM     12  C   UNL     1     -14.690  13.852  -4.057  1.00  0.00     0.014 A 
ATOM     13  C   UNL     1     -13.537  14.210  -6.155  1.00  0.00    -0.051 A 
ATOM     14  C   UNL     1     -14.474  14.621  -5.199  1.00  0.00     0.004 A 
ATOM     15  C   UNL     1     -13.352  14.988  -7.425  1.00  0.00     0.044 C 
ENDBRANCH   1   9
BRANCH   6  16
ATOM     16  C   UNL     1     -14.395  10.405   0.055  1.00  0.00     0.153 C 
BRANCH  16  17
ATOM     17  C   UNL     1     -13.310  11.113   0.819  1.00  0.00    -0.029 A 
ATOM     18  C   UNL     1     -12.032  10.576   1.005  1.00  0.00     0.006 A 
ATOM     19  C   UNL     1     -13.541  12.453   1.170  1.00  0.00     0.006 A 
ATOM     20  C   UNL     1     -11.003  11.378   1.510  1.00  0.00     0.004 A 
ATOM     21  C   UNL     1     -12.515  13.250   1.668  1.00  0.00     0.004 A 
ATOM     22  C   UNL     1     -11.234  12.722   1.832  1.00  0.00    -0.051 A 
ATOM     23  C   UNL     1     -10.106  13.623   2.237  1.00  0.00     0.044 C 
ENDBRANCH  16  17
ENDBRANCH   6  16
TORSDOF 3
ENDMDL
MODEL 8
REMARK VINA RESULT:    -4.354      6.686      8.183
REMARK INTER + INTRA:          -5.482
REMARK INTER:                  -4.977
REMARK INTRA:                  -0.505
REMARK UNBOUND:                -0.364
REMARK SMILES Cc1ccc(CNC(=O)NC(=O)c2ccc(C)cc2)cc1
REMARK SMILES IDX 11 1 12 2 10 3 8 4 9 5 7 6 13 9 19 10 18 11 14 12 16 13
REMARK SMILES IDX 15 14 17 15 6 16 5 17 4 18 20 19 3 20 21 21 2 22 1 23
REMARK H PARENT 10 7 7 8
ROOT
ATOM      1  C   UNL     1     -13.473  12.292  -4.184  1.00  0.00     0.259 C 
ATOM      2  O   UNL     1     -12.813  11.263  -4.231  1.00  0.00    -0.269 OA
ATOM      3  N   UNL     1     -13.353  13.445  -4.965  1.00  0.00    -0.274 N 
ATOM      4  C   UNL     1     -12.730  13.822  -6.126  1.00  0.00     0.321 C 
ATOM      5  O   UNL     1     -12.988  14.943  -6.578  1.00  0.00    -0.248 OA
ATOM      6  N   UNL     1     -11.884  13.028  -6.809  1.00  0.00    -0.334 N 
ATOM      7  H   UNL     1     -14.004  14.181  -4.724  1.00  0.00     0.175 HD
ATOM      8  H   UNL     1     -11.577  13.420  -7.687  1.00  0.00     0.165 HD
ENDROOT
BRANCH   1   9
ATOM      9  C   UNL     1     -14.549  12.340  -3.175  1.00  0.00     0.040 A 
ATOM     10  C   UNL     1     -14.398  11.746  -1.921  1.00  0.00     0.014 A 
ATOM     11  C   UNL     1     -15.423  11.863  -0.981  1.00  0.00     0.004 A 
ATOM     12  C   UNL     1     -15.737  12.995  -3.513  1.00  0.00     0.014 A 
ATOM     13  C   UNL     1     -16.598  12.563  -1.292  1.00  0.00    -0.051 A 
ATOM     14  C   UNL     1     -16.755  13.115  -2.569  1.00  0.00     0.004 A 
ATOM     15  C   UNL     1     -17.654  12.752  -0.244  1.00  0.00     0.044 C 
ENDBRANCH   1   9
BRANCH   6  16
ATOM     16  C   UNL     1     -11.532  11.667  -6.517  1.00  0.00     0.153 C 
BRANCH  16  17
ATOM     17  C   UNL     1     -12.115  10.600  -7.401  1.00  0.00    -0.029 A 
ATOM     18  C   UNL     1     -12.074   9.238  -7.083  1.00  0.00     0.006 A 
ATOM     19  C   UNL     1     -12.911  11.021  -8.479  1.00  0.00     0.006 A 
ATOM     20  C   UNL     1     -12.837   8.325  -7.818  1.00  0.00     0.004 A 
ATOM     21  C   UNL     1     -13.673  10.112  -9.206  1.00  0.00     0.004 A 
ATOM     22  C   UNL     1     -13.650   8.756  -8.875  1.00  0.00    -0.051 A 
ATOM     23  C   UNL     1     -14.578   7.806  -9.572  1.00  0.00     0.044 C 
ENDBRANCH  16  17
ENDBRANCH   6  16
TORSDOF 3
ENDMDL
