MODEL 1
REMARK VINA RESULT:    -3.996      0.000      0.000
REMARK INTER + INTRA:          -5.507
REMARK INTER:                  -5.281
REMARK INTRA:                  -0.226
REMARK UNBOUND:                -0.226
REMARK SMILES [H]/N=C\C[C@H]1C[C@@H]1O[C@H]1CO[C@H]2C[C@@H](C3CC3)CCN2C1
REMARK SMILES IDX 7 1 6 2 5 3 8 4 9 5 14 6 13 7 18 8 12 9 19 10 20 11 11 12
REMARK SMILES IDX 21 13 10 14 15 15 16 16 17 17 4 18 3 19 2 20 1 21
REMARK H PARENT
ROOT
ATOM      1  C   UNL     1      -8.359  -1.305   7.584  1.00  0.00     0.122 C 
ATOM      2  C   UNL     1      -8.621  -1.231   9.062  1.00  0.00     0.039 C 
ATOM      3  C   UNL     1      -8.686   0.016   8.226  1.00  0.00     0.026 C 
ENDROOT
BRANCH   1   4
ATOM      4  O   UNL     1      -6.978  -1.532   7.243  1.00  0.00    -0.371 OA
BRANCH   4   5
ATOM      5  C   UNL     1      -6.516  -2.884   7.394  1.00  0.00     0.158 C 
ATOM      6  C   UNL     1      -3.848  -3.303   2.932  1.00  0.00    -0.003 C 
ATOM      7  C   UNL     1      -5.329  -3.244   3.325  1.00  0.00     0.052 C 
ATOM      8  C   UNL     1      -3.027  -2.460   3.919  1.00  0.00     0.019 C 
ATOM      9  C   UNL     1      -5.544  -3.618   4.797  1.00  0.00     0.189 C 
ATOM     10  C   UNL     1      -3.313  -2.860   5.366  1.00  0.00     0.087 C 
ATOM     11  N   UNL     1      -4.741  -2.758   5.665  1.00  0.00    -0.276 NA
ATOM     12  O   UNL     1      -6.943  -3.482   5.053  1.00  0.00    -0.360 OA
ATOM     13  C   UNL     1      -5.020  -3.054   7.075  1.00  0.00     0.121 C 
ATOM     14  C   UNL     1      -7.294  -3.765   6.411  1.00  0.00     0.195 C 
BRANCH   6  15
ATOM     15  C   UNL     1      -3.629  -2.824   1.515  1.00  0.00    -0.008 C 
ATOM     16  C   UNL     1      -2.737  -3.599   0.575  1.00  0.00     0.004 C 
ATOM     17  C   UNL     1      -4.220  -3.573   0.345  1.00  0.00     0.004 C 
ENDBRANCH   6  15
ENDBRANCH   4   5
ENDBRANCH   1   4
BRANCH   3  18
ATOM     18  C   UNL     1     -10.018   0.662   7.988  1.00  0.00     0.053 C 
BRANCH  18  19
ATOM     19  C   UNL     1     -10.848   0.948   9.212  1.00  0.00     0.074 C 
BRANCH  19  20
ATOM     20  N   UNL     1     -10.834   2.042   9.897  1.00  0.00    -0.313 NA
ATOM     21  H   UNL     1     -11.777   2.300  10.221  1.00  0.00     0.186 HD
ENDBRANCH  19  20
ENDBRANCH  18  19
ENDBRANCH   3  18
TORSDOF 6
ENDMDL
MODEL 2
REMARK VINA RESULT:    -3.984      3.292      5.476
REMARK INTER + INTRA:          -5.491
REMARK INTER:                  -5.256
REMARK INTRA:                  -0.235
REMARK UNBOUND:                -0.226
REMARK SMILES [H]/N=C\C[C@H]1C[C@@H]1O[C@H]1CO[C@H]2C[C@@H](C3CC3)CCN2C1
REMARK SMILES IDX 7 1 6 2 5 3 8 4 9 5 14 6 13 7 18 8 12 9 19 10 20 11 11 12
REMARK SMILES IDX 21 13 10 14 15 15 16 16 17 17 4 18 3 19 2 20 1 21
REMARK H PARENT
ROOT
ATOM      1  C   UNL     1      -7.477  -6.003   7.117  1.00  0.00     0.122 C 
ATOM      2  C   UNL     1      -8.900  -6.483   7.164  1.00  0.00     0.039 C 
ATOM      3  C   UNL     1      -7.784  -7.466   6.954  1.00  0.00     0.026 C 
ENDROOT
BRANCH   1   4
ATOM      4  O   UNL     1      -7.142  -5.276   5.919  1.00  0.00    -0.371 OA
BRANCH   4   5
ATOM      5  C   UNL     1      -7.720  -3.966   5.807  1.00  0.00     0.158 C 
ATOM      6  C   UNL     1      -3.742  -1.554   3.449  1.00  0.00    -0.003 C 
ATOM      7  C   UNL     1      -4.020  -2.094   4.857  1.00  0.00     0.052 C 
ATOM      8  C   UNL     1      -4.467  -2.430   2.418  1.00  0.00     0.019 C 
ATOM      9  C   UNL     1      -5.523  -2.254   5.120  1.00  0.00     0.189 C 
ATOM     10  C   UNL     1      -5.950  -2.577   2.755  1.00  0.00     0.087 C 
ATOM     11  N   UNL     1      -6.130  -3.114   4.104  1.00  0.00    -0.276 NA
ATOM     12  O   UNL     1      -5.652  -2.802   6.433  1.00  0.00    -0.360 OA
ATOM     13  C   UNL     1      -7.546  -3.344   4.410  1.00  0.00     0.121 C 
ATOM     14  C   UNL     1      -7.012  -3.046   6.807  1.00  0.00     0.195 C 
BRANCH   6  15
ATOM     15  C   UNL     1      -2.259  -1.506   3.156  1.00  0.00    -0.008 C 
ATOM     16  C   UNL     1      -1.590  -0.194   2.818  1.00  0.00     0.004 C 
ATOM     17  C   UNL     1      -1.299  -0.865   4.129  1.00  0.00     0.004 C 
ENDBRANCH   6  15
ENDBRANCH   4   5
ENDBRANCH   1   4
BRANCH   3  18
ATOM     18  C   UNL     1      -7.453  -8.435   8.049  1.00  0.00     0.053 C 
BRANCH  18  19
ATOM     19  C   UNL     1      -8.612  -9.193   8.641  1.00  0.00     0.074 C 
BRANCH  19  20
ATOM     20  N   UNL     1      -8.816 -10.465   8.540  1.00  0.00    -0.313 NA
ATOM     21  H   UNL     1      -9.822 -10.686   8.508  1.00  0.00     0.186 HD
ENDBRANCH  19  20
ENDBRANCH  18  19
ENDBRANCH   3  18
TORSDOF 6
ENDMDL
MODEL 3
REMARK VINA RESULT:    -3.839      7.386      8.845
REMARK INTER + INTRA:          -5.299
REMARK INTER:                  -4.980
REMARK INTRA:                  -0.319
REMARK UNBOUND:                -0.226
REMARK SMILES [H]/N=C\C[C@H]1C[C@@H]1O[C@H]1CO[C@H]2C[C@@H](C3CC3)CCN2C1
REMARK SMILES IDX 7 1 6 2 5 3 8 4 9 5 14 6 13 7 18 8 12 9 19 10 20 11 11 12
REMARK SMILES IDX 21 13 10 14 15 15 16 16 17 17 4 18 3 19 2 20 1 21
REMARK H PARENT
ROOT
ATOM      1  C   UNL     1     -12.141  -8.243  12.762  1.00  0.00     0.122 C 
ATOM      2  C   UNL     1     -12.245  -7.339  13.958  1.00  0.00     0.039 C 
ATOM      3  C   UNL     1     -11.699  -6.809  12.664  1.00  0.00     0.026 C 
ENDROOT
BRANCH   1   4
ATOM      4  O   UNL     1     -11.100  -9.233  12.863  1.00  0.00    -0.371 OA
BRANCH   4   5
ATOM      5  C   UNL     1     -11.213 -10.345  11.960  1.00  0.00     0.158 C 
ATOM      6  C   UNL     1      -8.019  -8.634   8.209  1.00  0.00    -0.003 C 
ATOM      7  C   UNL     1      -9.420  -8.266   8.711  1.00  0.00     0.052 C 
ATOM      8  C   UNL     1      -7.171  -9.128   9.390  1.00  0.00     0.019 C 
ATOM      9  C   UNL     1     -10.061  -9.412   9.505  1.00  0.00     0.189 C 
ATOM     10  C   UNL     1      -7.879 -10.244  10.158  1.00  0.00     0.087 C 
ATOM     11  N   UNL     1      -9.197  -9.807  10.617  1.00  0.00    -0.276 NA
ATOM     12  O   UNL     1     -11.331  -8.937   9.955  1.00  0.00    -0.360 OA
ATOM     13  C   UNL     1      -9.854 -10.837  11.431  1.00  0.00     0.121 C 
ATOM     14  C   UNL     1     -12.038  -9.894  10.750  1.00  0.00     0.195 C 
BRANCH   6  15
ATOM     15  C   UNL     1      -7.348  -7.463   7.527  1.00  0.00    -0.008 C 
ATOM     16  C   UNL     1      -7.356  -7.350   6.021  1.00  0.00     0.004 C 
ATOM     17  C   UNL     1      -8.165  -6.393   6.846  1.00  0.00     0.004 C 
ENDBRANCH   6  15
ENDBRANCH   4   5
ENDBRANCH   1   4
BRANCH   3  18
ATOM     18  C   UNL     1     -12.512  -5.819  11.884  1.00  0.00     0.053 C 
BRANCH  18  19
ATOM     19  C   UNL     1     -11.780  -5.053  10.812  1.00  0.00     0.074 C 
BRANCH  19  20
ATOM     20  N   UNL     1     -11.865  -5.261   9.540  1.00  0.00    -0.313 NA
ATOM     21  H   UNL     1     -12.462  -6.073   9.328  1.00  0.00     0.186 HD
ENDBRANCH  19  20
ENDBRANCH  18  19
ENDBRANCH   3  18
TORSDOF 6
ENDMDL
MODEL 4
REMARK VINA RESULT:    -3.670      5.849      8.888
REMARK INTER + INTRA:          -5.076
REMARK INTER:                  -4.845
REMARK INTRA:                  -0.231
REMARK UNBOUND:                -0.226
REMARK SMILES [H]/N=C\C[C@H]1C[C@@H]1O[C@H]1CO[C@H]2C[C@@H](C3CC3)CCN2C1
REMARK SMILES IDX 7 1 6 2 5 3 8 4 9 5 14 6 13 7 18 8 12 9 19 10 20 11 11 12
REMARK SMILES IDX 21 13 10 14 15 15 16 16 17 17 4 18 3 19 2 20 1 21
REMARK H PARENT
ROOT
ATOM      1  C   UNL     1     -14.301  -1.822  12.483  1.00  0.00     0.122 C 
ATOM      2  C   UNL     1     -15.151  -3.047  12.299  1.00  0.00     0.039 C 
ATOM      3  C   UNL     1     -13.787  -2.981  11.673  1.00  0.00     0.026 C 
ENDROOT
BRANCH   1   4
ATOM      4  O   UNL     1     -14.760  -0.673  11.745  1.00  0.00    -0.371 OA
BRANCH   4   5
ATOM      5  C   UNL     1     -14.178   0.584  12.130  1.00  0.00     0.158 C 
ATOM      6  C   UNL     1     -10.219   0.688   8.736  1.00  0.00    -0.003 C 
ATOM      7  C   UNL     1     -10.558  -0.105  10.004  1.00  0.00     0.052 C 
ATOM      8  C   UNL     1     -11.517   1.029   7.989  1.00  0.00     0.019 C 
ATOM      9  C   UNL     1     -11.604   0.616  10.865  1.00  0.00     0.189 C 
ATOM     10  C   UNL     1     -12.527   1.713   8.909  1.00  0.00     0.087 C 
ATOM     11  N   UNL     1     -12.811   0.887  10.082  1.00  0.00    -0.276 NA
ATOM     12  O   UNL     1     -11.870  -0.234  11.983  1.00  0.00    -0.360 OA
ATOM     13  C   UNL     1     -13.844   1.490  10.932  1.00  0.00     0.121 C 
ATOM     14  C   UNL     1     -12.865   0.295  12.865  1.00  0.00     0.195 C 
BRANCH   6  15
ATOM     15  C   UNL     1      -9.276  -0.079   7.837  1.00  0.00    -0.008 C 
ATOM     16  C   UNL     1      -7.796   0.224   7.847  1.00  0.00     0.004 C 
ATOM     17  C   UNL     1      -8.296  -1.073   8.413  1.00  0.00     0.004 C 
ENDBRANCH   6  15
ENDBRANCH   4   5
ENDBRANCH   1   4
BRANCH   3  18
ATOM     18  C   UNL     1     -12.696  -3.856  12.214  1.00  0.00     0.053 C 
BRANCH  18  19
ATOM     19  C   UNL     1     -11.582  -4.198  11.259  1.00  0.00     0.074 C 
BRANCH  19  20
ATOM     20  N   UNL     1     -10.323  -3.995  11.461  1.00  0.00    -0.313 NA
ATOM     21  H   UNL     1      -9.872  -4.813  11.896  1.00  0.00     0.186 HD
ENDBRANCH  19  20
ENDBRANCH  18  19
ENDBRANCH   3  18
TORSDOF 6
ENDMDL
MODEL 5
REMARK VINA RESULT:    -3.560      9.360     10.393
REMARK INTER + INTRA:          -4.931
REMARK INTER:                  -4.894
REMARK INTRA:                  -0.037
REMARK UNBOUND:                -0.226
REMARK SMILES [H]/N=C\C[C@H]1C[C@@H]1O[C@H]1CO[C@H]2C[C@@H](C3CC3)CCN2C1
REMARK SMILES IDX 7 1 6 2 5 3 8 4 9 5 14 6 13 7 18 8 12 9 19 10 20 11 11 12
REMARK SMILES IDX 21 13 10 14 15 15 16 16 17 17 4 18 3 19 2 20 1 21
REMARK H PARENT
ROOT
ATOM      1  C   UNL     1     -12.312   1.482  11.707  1.00  0.00     0.122 C 
ATOM      2  C   UNL     1     -11.822   1.963  10.370  1.00  0.00     0.039 C 
ATOM      3  C   UNL     1     -12.701   2.847  11.209  1.00  0.00     0.026 C 
ENDROOT
BRANCH   1   4
ATOM      4  O   UNL     1     -13.319   0.455  11.628  1.00  0.00    -0.371 OA
BRANCH   4   5
ATOM      5  C   UNL     1     -13.785  -0.054  12.888  1.00  0.00     0.158 C 
ATOM      6  C   UNL     1     -13.292  -5.152  11.905  1.00  0.00    -0.003 C 
ATOM      7  C   UNL     1     -14.235  -4.032  11.449  1.00  0.00     0.052 C 
ATOM      8  C   UNL     1     -11.898  -4.565  12.171  1.00  0.00     0.019 C 
ATOM      9  C   UNL     1     -14.230  -2.850  12.428  1.00  0.00     0.189 C 
ATOM     10  C   UNL     1     -11.967  -3.372  13.125  1.00  0.00     0.087 C 
ATOM     11  N   UNL     1     -12.870  -2.343  12.610  1.00  0.00    -0.276 NA
ATOM     12  O   UNL     1     -15.102  -1.860  11.877  1.00  0.00    -0.360 OA
ATOM     13  C   UNL     1     -12.881  -1.154  13.470  1.00  0.00     0.121 C 
ATOM     14  C   UNL     1     -15.171  -0.671  12.670  1.00  0.00     0.195 C 
BRANCH   6  15
ATOM     15  C   UNL     1     -13.213  -6.262  10.882  1.00  0.00    -0.008 C 
ATOM     16  C   UNL     1     -13.351  -7.705  11.308  1.00  0.00     0.004 C 
ATOM     17  C   UNL     1     -14.441  -7.056  10.506  1.00  0.00     0.004 C 
ENDBRANCH   6  15
ENDBRANCH   4   5
ENDBRANCH   1   4
BRANCH   3  18
ATOM     18  C   UNL     1     -12.111   4.076  11.834  1.00  0.00     0.053 C 
BRANCH  18  19
ATOM     19  C   UNL     1     -11.121   4.841  10.994  1.00  0.00     0.074 C 
BRANCH  19  20
ATOM     20  N   UNL     1     -11.037   6.126  10.906  1.00  0.00    -0.313 NA
ATOM     21  H   UNL     1     -10.060   6.447  10.959  1.00  0.00     0.186 HD
ENDBRANCH  19  20
ENDBRANCH  18  19
ENDBRANCH   3  18
TORSDOF 6
ENDMDL
MODEL 6
REMARK VINA RESULT:    -3.540      2.738      8.649
REMARK INTER + INTRA:          -4.904
REMARK INTER:                  -4.783
REMARK INTRA:                  -0.120
REMARK UNBOUND:                -0.226
REMARK SMILES [H]/N=C\C[C@H]1C[C@@H]1O[C@H]1CO[C@H]2C[C@@H](C3CC3)CCN2C1
REMARK SMILES IDX 7 1 6 2 5 3 8 4 9 5 14 6 13 7 18 8 12 9 19 10 20 11 11 12
REMARK SMILES IDX 21 13 10 14 15 15 16 16 17 17 4 18 3 19 2 20 1 21
REMARK H PARENT
ROOT
ATOM      1  C   UNL     1      -7.212  -2.806   6.475  1.00  0.00     0.122 C 
ATOM      2  C   UNL     1      -7.447  -4.242   6.100  1.00  0.00     0.039 C 
ATOM      3  C   UNL     1      -7.629  -3.160   5.074  1.00  0.00     0.026 C 
ENDROOT
BRANCH   1   4
ATOM      4  O   UNL     1      -8.229  -2.247   7.328  1.00  0.00    -0.371 OA
BRANCH   4   5
ATOM      5  C   UNL     1      -7.765  -1.306   8.311  1.00  0.00     0.158 C 
ATOM      6  C   UNL     1     -12.340   0.897   9.504  1.00  0.00    -0.003 C 
ATOM      7  C   UNL     1     -11.385   0.929   8.304  1.00  0.00     0.052 C 
ATOM      8  C   UNL     1     -12.271  -0.484  10.170  1.00  0.00     0.019 C 
ATOM      9  C   UNL     1      -9.966   0.493   8.694  1.00  0.00     0.189 C 
ATOM     10  C   UNL     1     -10.830  -0.873  10.501  1.00  0.00     0.087 C 
ATOM     11  N   UNL     1      -9.990  -0.836   9.304  1.00  0.00    -0.276 NA
ATOM     12  O   UNL     1      -9.188   0.520   7.496  1.00  0.00    -0.360 OA
ATOM     13  C   UNL     1      -8.624  -1.291   9.588  1.00  0.00     0.121 C 
ATOM     14  C   UNL     1      -7.836   0.096   7.697  1.00  0.00     0.195 C 
BRANCH   6  15
ATOM     15  C   UNL     1     -13.759   1.217   9.092  1.00  0.00    -0.008 C 
ATOM     16  C   UNL     1     -14.731   1.802  10.090  1.00  0.00     0.004 C 
ATOM     17  C   UNL     1     -14.223   2.647   8.959  1.00  0.00     0.004 C 
ENDBRANCH   6  15
ENDBRANCH   4   5
ENDBRANCH   1   4
BRANCH   3  18
ATOM     18  C   UNL     1      -6.647  -3.058   3.945  1.00  0.00     0.053 C 
BRANCH  18  19
ATOM     19  C   UNL     1      -7.219  -2.714   2.594  1.00  0.00     0.074 C 
BRANCH  19  20
ATOM     20  N   UNL     1      -8.429  -2.942   2.204  1.00  0.00    -0.313 NA
ATOM     21  H   UNL     1      -8.858  -2.104   1.787  1.00  0.00     0.186 HD
ENDBRANCH  19  20
ENDBRANCH  18  19
ENDBRANCH   3  18
TORSDOF 6
ENDMDL
MODEL 7
REMARK VINA RESULT:    -3.437      8.562     11.012
REMARK INTER + INTRA:          -4.768
REMARK INTER:                  -4.516
REMARK INTRA:                  -0.252
REMARK UNBOUND:                -0.226
REMARK SMILES [H]/N=C\C[C@H]1C[C@@H]1O[C@H]1CO[C@H]2C[C@@H](C3CC3)CCN2C1
REMARK SMILES IDX 7 1 6 2 5 3 8 4 9 5 14 6 13 7 18 8 12 9 19 10 20 11 11 12
REMARK SMILES IDX 21 13 10 14 15 15 16 16 17 17 4 18 3 19 2 20 1 21
REMARK H PARENT
ROOT
ATOM      1  C   UNL     1     -12.065  -5.759  14.185  1.00  0.00     0.122 C 
ATOM      2  C   UNL     1     -13.014  -6.842  14.615  1.00  0.00     0.039 C 
ATOM      3  C   UNL     1     -11.937  -7.144  13.612  1.00  0.00     0.026 C 
ENDROOT
BRANCH   1   4
ATOM      4  O   UNL     1     -12.660  -4.761  13.334  1.00  0.00    -0.371 OA
BRANCH   4   5
ATOM      5  C   UNL     1     -13.443  -3.760  14.006  1.00  0.00     0.158 C 
ATOM      6  C   UNL     1     -13.359  -0.085  10.306  1.00  0.00    -0.003 C 
ATOM      7  C   UNL     1     -12.346  -0.665  11.301  1.00  0.00     0.052 C 
ATOM      8  C   UNL     1     -14.343  -1.185   9.884  1.00  0.00     0.019 C 
ATOM      9  C   UNL     1     -13.040  -1.368  12.476  1.00  0.00     0.189 C 
ATOM     10  C   UNL     1     -14.972  -1.867  11.098  1.00  0.00     0.087 C 
ATOM     11  N   UNL     1     -13.943  -2.409  11.986  1.00  0.00    -0.276 NA
ATOM     12  O   UNL     1     -12.004  -1.902  13.302  1.00  0.00    -0.360 OA
ATOM     13  C   UNL     1     -14.533  -3.142  13.112  1.00  0.00     0.121 C 
ATOM     14  C   UNL     1     -12.504  -2.626  14.430  1.00  0.00     0.195 C 
BRANCH   6  15
ATOM     15  C   UNL     1     -12.671   0.505   9.095  1.00  0.00    -0.008 C 
ATOM     16  C   UNL     1     -12.726   1.992   8.835  1.00  0.00     0.004 C 
ATOM     17  C   UNL     1     -11.431   1.353   9.246  1.00  0.00     0.004 C 
ENDBRANCH   6  15
ENDBRANCH   4   5
ENDBRANCH   1   4
BRANCH   3  18
ATOM     18  C   UNL     1     -10.795  -8.027  14.016  1.00  0.00     0.053 C 
BRANCH  18  19
ATOM     19  C   UNL     1      -9.921  -8.538  12.900  1.00  0.00     0.074 C 
BRANCH  19  20
ATOM     20  N   UNL     1      -8.841  -7.978  12.467  1.00  0.00    -0.313 NA
ATOM     21  H   UNL     1      -8.391  -7.406  13.195  1.00  0.00     0.186 HD
ENDBRANCH  19  20
ENDBRANCH  18  19
ENDBRANCH   3  18
TORSDOF 6
ENDMDL
MODEL 8
REMARK VINA RESULT:    -3.323      8.571      9.673
REMARK INTER + INTRA:          -4.617
REMARK INTER:                  -4.314
REMARK INTRA:                  -0.303
REMARK UNBOUND:                -0.226
REMARK SMILES [H]/N=C\C[C@H]1C[C@@H]1O[C@H]1CO[C@H]2C[C@@H](C3CC3)CCN2C1
REMARK SMILES IDX 7 1 6 2 5 3 8 4 9 5 14 6 13 7 18 8 12 9 19 10 20 11 11 12
REMARK SMILES IDX 21 13 10 14 15 15 16 16 17 17 4 18 3 19 2 20 1 21
REMARK H PARENT
ROOT
ATOM      1  C   UNL     1     -12.644  -4.383  12.135  1.00  0.00     0.122 C 
ATOM      2  C   UNL     1     -11.350  -3.807  11.632  1.00  0.00     0.039 C 
ATOM      3  C   UNL     1     -12.486  -2.894  11.993  1.00  0.00     0.026 C 
ENDROOT
BRANCH   1   4
ATOM      4  O   UNL     1     -13.423  -5.049  11.123  1.00  0.00    -0.371 OA
BRANCH   4   5
ATOM      5  C   UNL     1     -14.015  -6.297  11.518  1.00  0.00     0.158 C 
ATOM      6  C   UNL     1      -9.708  -9.240  11.510  1.00  0.00    -0.003 C 
ATOM      7  C   UNL     1     -10.598  -8.592  10.442  1.00  0.00     0.052 C 
ATOM      8  C   UNL     1      -9.698  -8.357  12.766  1.00  0.00     0.019 C 
ATOM      9  C   UNL     1     -11.994  -8.263  10.987  1.00  0.00     0.189 C 
ATOM     10  C   UNL     1     -11.117  -8.038  13.236  1.00  0.00     0.087 C 
ATOM     11  N   UNL     1     -11.893  -7.407  12.169  1.00  0.00    -0.276 NA
ATOM     12  O   UNL     1     -12.708  -7.628   9.924  1.00  0.00    -0.360 OA
ATOM     13  C   UNL     1     -13.229  -7.015  12.630  1.00  0.00     0.121 C 
ATOM     14  C   UNL     1     -14.029  -7.225  10.299  1.00  0.00     0.195 C 
BRANCH   6  15
ATOM     15  C   UNL     1      -8.301  -9.457  11.003  1.00  0.00    -0.008 C 
ATOM     16  C   UNL     1      -7.822 -10.846  10.650  1.00  0.00     0.004 C 
ATOM     17  C   UNL     1      -8.047  -9.835   9.563  1.00  0.00     0.004 C 
ENDBRANCH   6  15
ENDBRANCH   4   5
ENDBRANCH   1   4
BRANCH   3  18
ATOM     18  C   UNL     1     -12.363  -2.027  13.210  1.00  0.00     0.053 C 
BRANCH  18  19
ATOM     19  C   UNL     1     -13.268  -0.823  13.265  1.00  0.00     0.074 C 
BRANCH  19  20
ATOM     20  N   UNL     1     -14.347  -0.719  13.966  1.00  0.00    -0.313 NA
ATOM     21  H   UNL     1     -15.161  -1.111  13.471  1.00  0.00     0.186 HD
ENDBRANCH  19  20
ENDBRANCH  18  19
ENDBRANCH   3  18
TORSDOF 6
ENDMDL
MODEL 9
REMARK VINA RESULT:    -3.299      8.700     10.704
REMARK INTER + INTRA:          -4.586
REMARK INTER:                  -4.276
REMARK INTRA:                  -0.310
REMARK UNBOUND:                -0.226
REMARK SMILES [H]/N=C\C[C@H]1C[C@@H]1O[C@H]1CO[C@H]2C[C@@H](C3CC3)CCN2C1
REMARK SMILES IDX 7 1 6 2 5 3 8 4 9 5 14 6 13 7 18 8 12 9 19 10 20 11 11 12
REMARK SMILES IDX 21 13 10 14 15 15 16 16 17 17 4 18 3 19 2 20 1 21
REMARK H PARENT
ROOT
ATOM      1  C   UNL     1     -12.630  -5.620  11.711  1.00  0.00     0.122 C 
ATOM      2  C   UNL     1     -11.939  -5.619  10.376  1.00  0.00     0.039 C 
ATOM      3  C   UNL     1     -12.092  -6.903  11.140  1.00  0.00     0.026 C 
ENDROOT
BRANCH   1   4
ATOM      4  O   UNL     1     -11.864  -5.013  12.769  1.00  0.00    -0.371 OA
BRANCH   4   5
ATOM      5  C   UNL     1     -12.600  -4.150  13.651  1.00  0.00     0.158 C 
ATOM      6  C   UNL     1     -13.405  -0.178  10.368  1.00  0.00    -0.003 C 
ATOM      7  C   UNL     1     -12.201  -0.747  11.130  1.00  0.00     0.052 C 
ATOM      8  C   UNL     1     -14.358  -1.323   9.998  1.00  0.00     0.019 C 
ATOM      9  C   UNL     1     -12.637  -1.608  12.323  1.00  0.00     0.189 C 
ATOM     10  C   UNL     1     -14.726  -2.161  11.222  1.00  0.00     0.087 C 
ATOM     11  N   UNL     1     -13.527  -2.682  11.879  1.00  0.00    -0.276 NA
ATOM     12  O   UNL     1     -11.442  -2.115  12.919  1.00  0.00    -0.360 OA
ATOM     13  C   UNL     1     -13.865  -3.560  13.005  1.00  0.00     0.121 C 
ATOM     14  C   UNL     1     -11.693  -2.976  14.034  1.00  0.00     0.195 C 
BRANCH   6  15
ATOM     15  C   UNL     1     -12.972   0.574   9.130  1.00  0.00    -0.008 C 
ATOM     16  C   UNL     1     -13.209   2.062   9.018  1.00  0.00     0.004 C 
ATOM     17  C   UNL     1     -11.811   1.537   9.175  1.00  0.00     0.004 C 
ENDBRANCH   6  15
ENDBRANCH   4   5
ENDBRANCH   1   4
BRANCH   3  18
ATOM     18  C   UNL     1     -13.030  -7.951  10.619  1.00  0.00     0.053 C 
BRANCH  18  19
ATOM     19  C   UNL     1     -12.767  -9.364  11.071  1.00  0.00     0.074 C 
BRANCH  19  20
ATOM     20  N   UNL     1     -13.196  -9.901  12.165  1.00  0.00    -0.313 NA
ATOM     21  H   UNL     1     -14.192 -10.154  12.098  1.00  0.00     0.186 HD
ENDBRANCH  19  20
ENDBRANCH  18  19
ENDBRANCH   3  18
TORSDOF 6
ENDMDL
