MODEL 1
REMARK VINA RESULT:    -5.772      0.000      0.000
REMARK INTER + INTRA:          -7.162
REMARK INTER:                  -6.784
REMARK INTRA:                  -0.378
REMARK UNBOUND:                -0.378
REMARK SMILES Cc1ccc(CNC(=O)NC(=O)c2ccc(C)cc2)cc1
REMARK SMILES IDX 11 1 12 2 10 3 8 4 9 5 7 6 13 9 19 10 18 11 14 12 16 13
REMARK SMILES IDX 15 14 17 15 6 16 5 17 4 18 20 19 3 20 21 21 2 22 1 23
REMARK H PARENT 10 7 7 8
ROOT
ATOM      1  C   UNL     1      -5.798  -3.276   5.283  1.00  0.00     0.259 C 
ATOM      2  O   UNL     1      -5.980  -4.395   4.823  1.00  0.00    -0.269 OA
ATOM      3  N   UNL     1      -6.553  -2.589   6.238  1.00  0.00    -0.274 N 
ATOM      4  C   UNL     1      -7.534  -2.876   7.153  1.00  0.00     0.321 C 
ATOM      5  O   UNL     1      -7.864  -1.982   7.939  1.00  0.00    -0.248 OA
ATOM      6  N   UNL     1      -8.126  -4.080   7.255  1.00  0.00    -0.334 N 
ATOM      7  H   UNL     1      -6.216  -1.658   6.446  1.00  0.00     0.175 HD
ATOM      8  H   UNL     1      -8.765  -4.154   8.034  1.00  0.00     0.165 HD
ENDROOT
BRANCH   1   9
ATOM      9  C   UNL     1      -4.624  -2.538   4.778  1.00  0.00     0.040 A 
ATOM     10  C   UNL     1      -4.741  -1.598   3.752  1.00  0.00     0.014 A 
ATOM     11  C   UNL     1      -3.613  -0.886   3.345  1.00  0.00     0.004 A 
ATOM     12  C   UNL     1      -3.379  -2.810   5.354  1.00  0.00     0.014 A 
ATOM     13  C   UNL     1      -2.369  -1.115   3.952  1.00  0.00    -0.051 A 
ATOM     14  C   UNL     1      -2.256  -2.092   4.948  1.00  0.00     0.004 A 
ATOM     15  C   UNL     1      -1.183  -0.282   3.562  1.00  0.00     0.044 C 
ENDBRANCH   1   9
BRANCH   6  16
ATOM     16  C   UNL     1      -7.821  -5.273   6.516  1.00  0.00     0.153 C 
BRANCH  16  17
ATOM     17  C   UNL     1      -8.219  -6.586   7.131  1.00  0.00    -0.029 A 
ATOM     18  C   UNL     1      -7.321  -7.641   7.324  1.00  0.00     0.006 A 
ATOM     19  C   UNL     1      -9.492  -6.661   7.719  1.00  0.00     0.006 A 
ATOM     20  C   UNL     1      -7.689  -8.737   8.112  1.00  0.00     0.004 A 
ATOM     21  C   UNL     1      -9.854  -7.749   8.507  1.00  0.00     0.004 A 
ATOM     22  C   UNL     1      -8.951  -8.792   8.719  1.00  0.00    -0.051 A 
ATOM     23  C   UNL     1      -9.299  -9.891   9.679  1.00  0.00     0.044 C 
ENDBRANCH  16  17
ENDBRANCH   6  16
TORSDOF 3
ENDMDL
MODEL 2
REMARK VINA RESULT:    -5.749      3.189      5.461
REMARK INTER + INTRA:          -7.136
REMARK INTER:                  -6.747
REMARK INTRA:                  -0.389
REMARK UNBOUND:                -0.378
REMARK SMILES Cc1ccc(CNC(=O)NC(=O)c2ccc(C)cc2)cc1
REMARK SMILES IDX 11 1 12 2 10 3 8 4 9 5 7 6 13 9 19 10 18 11 14 12 16 13
REMARK SMILES IDX 15 14 17 15 6 16 5 17 4 18 20 19 3 20 21 21 2 22 1 23
REMARK H PARENT 10 7 7 8
ROOT
ATOM      1  C   UNL     1      -5.903  -2.880   5.314  1.00  0.00     0.259 C 
ATOM      2  O   UNL     1      -5.742  -1.790   5.845  1.00  0.00    -0.269 OA
ATOM      3  N   UNL     1      -6.629  -3.982   5.778  1.00  0.00    -0.274 N 
ATOM      4  C   UNL     1      -7.563  -4.244   6.747  1.00  0.00     0.321 C 
ATOM      5  O   UNL     1      -8.084  -5.364   6.753  1.00  0.00    -0.248 OA
ATOM      6  N   UNL     1      -7.958  -3.341   7.664  1.00  0.00    -0.334 N 
ATOM      7  H   UNL     1      -6.598  -4.788   5.168  1.00  0.00     0.175 HD
ATOM      8  H   UNL     1      -8.714  -3.662   8.251  1.00  0.00     0.165 HD
ENDROOT
BRANCH   1   9
ATOM      9  C   UNL     1      -5.253  -3.079   4.004  1.00  0.00     0.040 A 
ATOM     10  C   UNL     1      -4.002  -3.688   3.897  1.00  0.00     0.014 A 
ATOM     11  C   UNL     1      -3.451  -3.902   2.632  1.00  0.00     0.004 A 
ATOM     12  C   UNL     1      -5.926  -2.630   2.863  1.00  0.00     0.014 A 
ATOM     13  C   UNL     1      -4.142  -3.502   1.478  1.00  0.00    -0.051 A 
ATOM     14  C   UNL     1      -5.375  -2.852   1.602  1.00  0.00     0.004 A 
ATOM     15  C   UNL     1      -3.576  -3.815   0.124  1.00  0.00     0.044 C 
ENDBRANCH   1   9
BRANCH   6  16
ATOM     16  C   UNL     1      -7.559  -1.966   7.767  1.00  0.00     0.153 C 
BRANCH  16  17
ATOM     17  C   UNL     1      -8.521  -1.016   8.426  1.00  0.00    -0.029 A 
ATOM     18  C   UNL     1      -9.010   0.133   7.798  1.00  0.00     0.006 A 
ATOM     19  C   UNL     1      -9.101  -1.426   9.638  1.00  0.00     0.006 A 
ATOM     20  C   UNL     1     -10.077   0.840   8.363  1.00  0.00     0.004 A 
ATOM     21  C   UNL     1     -10.165  -0.725  10.197  1.00  0.00     0.004 A 
ATOM     22  C   UNL     1     -10.669   0.409   9.558  1.00  0.00    -0.051 A 
ATOM     23  C   UNL     1     -11.901   1.076  10.094  1.00  0.00     0.044 C 
ENDBRANCH  16  17
ENDBRANCH   6  16
TORSDOF 3
ENDMDL
MODEL 3
REMARK VINA RESULT:    -5.550      3.193      5.352
REMARK INTER + INTRA:          -6.902
REMARK INTER:                  -6.514
REMARK INTRA:                  -0.388
REMARK UNBOUND:                -0.378
REMARK SMILES Cc1ccc(CNC(=O)NC(=O)c2ccc(C)cc2)cc1
REMARK SMILES IDX 11 1 12 2 10 3 8 4 9 5 7 6 13 9 19 10 18 11 14 12 16 13
REMARK SMILES IDX 15 14 17 15 6 16 5 17 4 18 20 19 3 20 21 21 2 22 1 23
REMARK H PARENT 10 7 7 8
ROOT
ATOM      1  C   UNL     1      -5.952  -2.934   5.278  1.00  0.00     0.259 C 
ATOM      2  O   UNL     1      -5.777  -1.841   5.797  1.00  0.00    -0.269 OA
ATOM      3  N   UNL     1      -6.676  -4.027   5.764  1.00  0.00    -0.274 N 
ATOM      4  C   UNL     1      -7.594  -4.276   6.752  1.00  0.00     0.321 C 
ATOM      5  O   UNL     1      -8.121  -5.393   6.777  1.00  0.00    -0.248 OA
ATOM      6  N   UNL     1      -7.968  -3.363   7.668  1.00  0.00    -0.334 N 
ATOM      7  H   UNL     1      -6.660  -4.839   5.161  1.00  0.00     0.175 HD
ATOM      8  H   UNL     1      -8.715  -3.675   8.271  1.00  0.00     0.165 HD
ENDROOT
BRANCH   1   9
ATOM      9  C   UNL     1      -5.327  -3.147   3.959  1.00  0.00     0.040 A 
ATOM     10  C   UNL     1      -5.945  -2.718   2.783  1.00  0.00     0.014 A 
ATOM     11  C   UNL     1      -5.291  -2.894   1.563  1.00  0.00     0.004 A 
ATOM     12  C   UNL     1      -4.092  -3.803   3.915  1.00  0.00     0.014 A 
ATOM     13  C   UNL     1      -4.028  -3.504   1.513  1.00  0.00    -0.051 A 
ATOM     14  C   UNL     1      -3.440  -3.971   2.695  1.00  0.00     0.004 A 
ATOM     15  C   UNL     1      -3.301  -3.610   0.205  1.00  0.00     0.044 C 
ENDBRANCH   1   9
BRANCH   6  16
ATOM     16  C   UNL     1      -7.560  -1.989   7.752  1.00  0.00     0.153 C 
BRANCH  16  17
ATOM     17  C   UNL     1      -8.510  -1.027   8.409  1.00  0.00    -0.029 A 
ATOM     18  C   UNL     1      -8.995   0.121   7.773  1.00  0.00     0.006 A 
ATOM     19  C   UNL     1      -9.085  -1.421   9.628  1.00  0.00     0.006 A 
ATOM     20  C   UNL     1     -10.053   0.840   8.339  1.00  0.00     0.004 A 
ATOM     21  C   UNL     1     -10.140  -0.707  10.187  1.00  0.00     0.004 A 
ATOM     22  C   UNL     1     -10.640   0.425   9.542  1.00  0.00    -0.051 A 
ATOM     23  C   UNL     1     -11.863   1.106  10.079  1.00  0.00     0.044 C 
ENDBRANCH  16  17
ENDBRANCH   6  16
TORSDOF 3
ENDMDL
MODEL 4
REMARK VINA RESULT:    -5.507      0.562      8.008
REMARK INTER + INTRA:          -6.850
REMARK INTER:                  -6.355
REMARK INTRA:                  -0.496
REMARK UNBOUND:                -0.378
REMARK SMILES Cc1ccc(CNC(=O)NC(=O)c2ccc(C)cc2)cc1
REMARK SMILES IDX 11 1 12 2 10 3 8 4 9 5 7 6 13 9 19 10 18 11 14 12 16 13
REMARK SMILES IDX 15 14 17 15 6 16 5 17 4 18 20 19 3 20 21 21 2 22 1 23
REMARK H PARENT 10 7 7 8
ROOT
ATOM      1  C   UNL     1      -7.372  -5.327   6.643  1.00  0.00     0.259 C 
ATOM      2  O   UNL     1      -6.653  -5.517   5.672  1.00  0.00    -0.269 OA
ATOM      3  N   UNL     1      -7.710  -4.117   7.258  1.00  0.00    -0.274 N 
ATOM      4  C   UNL     1      -7.633  -2.778   6.971  1.00  0.00     0.321 C 
ATOM      5  O   UNL     1      -8.187  -1.993   7.748  1.00  0.00    -0.248 OA
ATOM      6  N   UNL     1      -7.018  -2.285   5.881  1.00  0.00    -0.334 N 
ATOM      7  H   UNL     1      -8.308  -4.214   8.068  1.00  0.00     0.175 HD
ATOM      8  H   UNL     1      -7.124  -1.287   5.770  1.00  0.00     0.165 HD
ENDROOT
BRANCH   1   9
ATOM      9  C   UNL     1      -7.976  -6.522   7.262  1.00  0.00     0.040 A 
ATOM     10  C   UNL     1      -7.241  -7.694   7.453  1.00  0.00     0.014 A 
ATOM     11  C   UNL     1      -7.841  -8.781   8.090  1.00  0.00     0.004 A 
ATOM     12  C   UNL     1      -9.319  -6.454   7.648  1.00  0.00     0.014 A 
ATOM     13  C   UNL     1      -9.172  -8.704   8.528  1.00  0.00    -0.051 A 
ATOM     14  C   UNL     1      -9.911  -7.540   8.290  1.00  0.00     0.004 A 
ATOM     15  C   UNL     1      -9.775  -9.850   9.287  1.00  0.00     0.044 C 
ENDBRANCH   1   9
BRANCH   6  16
ATOM     16  C   UNL     1      -6.409  -3.022   4.810  1.00  0.00     0.153 C 
BRANCH  16  17
ATOM     17  C   UNL     1      -5.063  -2.555   4.328  1.00  0.00    -0.029 A 
ATOM     18  C   UNL     1      -4.901  -1.679   3.250  1.00  0.00     0.006 A 
ATOM     19  C   UNL     1      -3.953  -2.851   5.135  1.00  0.00     0.006 A 
ATOM     20  C   UNL     1      -3.653  -1.095   3.004  1.00  0.00     0.004 A 
ATOM     21  C   UNL     1      -2.714  -2.266   4.892  1.00  0.00     0.004 A 
ATOM     22  C   UNL     1      -2.556  -1.374   3.830  1.00  0.00    -0.051 A 
ATOM     23  C   UNL     1      -1.257  -0.645   3.660  1.00  0.00     0.044 C 
ENDBRANCH  16  17
ENDBRANCH   6  16
TORSDOF 3
ENDMDL
MODEL 5
REMARK VINA RESULT:    -5.404      3.089      7.380
REMARK INTER + INTRA:          -6.730
REMARK INTER:                  -6.231
REMARK INTRA:                  -0.499
REMARK UNBOUND:                -0.378
REMARK SMILES Cc1ccc(CNC(=O)NC(=O)c2ccc(C)cc2)cc1
REMARK SMILES IDX 11 1 12 2 10 3 8 4 9 5 7 6 13 9 19 10 18 11 14 12 16 13
REMARK SMILES IDX 15 14 17 15 6 16 5 17 4 18 20 19 3 20 21 21 2 22 1 23
REMARK H PARENT 10 7 7 8
ROOT
ATOM      1  C   UNL     1      -7.730  -1.789   7.271  1.00  0.00     0.259 C 
ATOM      2  O   UNL     1      -6.874  -1.143   6.685  1.00  0.00    -0.269 OA
ATOM      3  N   UNL     1      -7.965  -3.167   7.236  1.00  0.00    -0.274 N 
ATOM      4  C   UNL     1      -7.310  -4.296   6.815  1.00  0.00     0.321 C 
ATOM      5  O   UNL     1      -7.815  -5.389   7.092  1.00  0.00    -0.248 OA
ATOM      6  N   UNL     1      -6.141  -4.273   6.147  1.00  0.00    -0.334 N 
ATOM      7  H   UNL     1      -8.752  -3.470   7.794  1.00  0.00     0.175 HD
ATOM      8  H   UNL     1      -5.747  -5.188   5.985  1.00  0.00     0.165 HD
ENDROOT
BRANCH   1   9
ATOM      9  C   UNL     1      -8.648  -1.030   8.144  1.00  0.00     0.040 A 
ATOM     10  C   UNL     1      -9.190   0.192   7.743  1.00  0.00     0.014 A 
ATOM     11  C   UNL     1     -10.094   0.847   8.580  1.00  0.00     0.004 A 
ATOM     12  C   UNL     1      -8.958  -1.569   9.397  1.00  0.00     0.014 A 
ATOM     13  C   UNL     1     -10.451   0.290   9.817  1.00  0.00    -0.051 A 
ATOM     14  C   UNL     1      -9.866  -0.914  10.227  1.00  0.00     0.004 A 
ATOM     15  C   UNL     1     -11.488   0.963  10.667  1.00  0.00     0.044 C 
ENDBRANCH   1   9
BRANCH   6  16
ATOM     16  C   UNL     1      -5.342  -3.126   5.819  1.00  0.00     0.153 C 
BRANCH  16  17
ATOM     17  C   UNL     1      -4.796  -3.043   4.421  1.00  0.00    -0.029 A 
ATOM     18  C   UNL     1      -3.519  -3.495   4.073  1.00  0.00     0.006 A 
ATOM     19  C   UNL     1      -5.693  -2.690   3.400  1.00  0.00     0.006 A 
ATOM     20  C   UNL     1      -3.162  -3.612   2.725  1.00  0.00     0.004 A 
ATOM     21  C   UNL     1      -5.338  -2.812   2.060  1.00  0.00     0.004 A 
ATOM     22  C   UNL     1      -4.072  -3.285   1.711  1.00  0.00    -0.051 A 
ATOM     23  C   UNL     1      -3.748  -3.543   0.270  1.00  0.00     0.044 C 
ENDBRANCH  16  17
ENDBRANCH   6  16
TORSDOF 3
ENDMDL
MODEL 6
REMARK VINA RESULT:    -5.017      5.304      8.310
REMARK INTER + INTRA:          -6.275
REMARK INTER:                  -6.165
REMARK INTRA:                  -0.110
REMARK UNBOUND:                -0.378
REMARK SMILES Cc1ccc(CNC(=O)NC(=O)c2ccc(C)cc2)cc1
REMARK SMILES IDX 11 1 12 2 10 3 8 4 9 5 7 6 13 9 19 10 18 11 14 12 16 13
REMARK SMILES IDX 15 14 17 15 6 16 5 17 4 18 20 19 3 20 21 21 2 22 1 23
REMARK H PARENT 10 7 7 8
ROOT
ATOM      1  C   UNL     1      -9.555  -9.746   9.584  1.00  0.00     0.259 C 
ATOM      2  O   UNL     1      -9.098  -9.845  10.714  1.00  0.00    -0.269 OA
ATOM      3  N   UNL     1     -10.546 -10.517   8.969  1.00  0.00    -0.274 N 
ATOM      4  C   UNL     1     -11.502 -11.426   9.346  1.00  0.00     0.321 C 
ATOM      5  O   UNL     1     -12.307 -11.800   8.486  1.00  0.00    -0.248 OA
ATOM      6  N   UNL     1     -11.624 -11.901  10.599  1.00  0.00    -0.334 N 
ATOM      7  H   UNL     1     -10.744 -10.257   8.012  1.00  0.00     0.175 HD
ATOM      8  H   UNL     1     -12.430 -12.495  10.732  1.00  0.00     0.165 HD
ENDROOT
BRANCH   1   9
ATOM      9  C   UNL     1      -9.003  -8.668   8.741  1.00  0.00     0.040 A 
ATOM     10  C   UNL     1      -7.695  -8.720   8.256  1.00  0.00     0.014 A 
ATOM     11  C   UNL     1      -7.234  -7.703   7.419  1.00  0.00     0.004 A 
ATOM     12  C   UNL     1      -9.828  -7.579   8.443  1.00  0.00     0.014 A 
ATOM     13  C   UNL     1      -8.071  -6.633   7.072  1.00  0.00    -0.051 A 
ATOM     14  C   UNL     1      -9.366  -6.569   7.601  1.00  0.00     0.004 A 
ATOM     15  C   UNL     1      -7.590  -5.592   6.104  1.00  0.00     0.044 C 
ENDBRANCH   1   9
BRANCH   6  16
ATOM     16  C   UNL     1     -10.866 -11.522  11.758  1.00  0.00     0.153 C 
BRANCH  16  17
ATOM     17  C   UNL     1     -11.427 -10.426  12.621  1.00  0.00    -0.029 A 
ATOM     18  C   UNL     1     -11.012 -10.204  13.938  1.00  0.00     0.006 A 
ATOM     19  C   UNL     1     -12.243  -9.469  11.995  1.00  0.00     0.006 A 
ATOM     20  C   UNL     1     -11.390  -9.032  14.602  1.00  0.00     0.004 A 
ATOM     21  C   UNL     1     -12.614  -8.302  12.656  1.00  0.00     0.004 A 
ATOM     22  C   UNL     1     -12.182  -8.068  13.962  1.00  0.00    -0.051 A 
ATOM     23  C   UNL     1     -12.471  -6.750  14.615  1.00  0.00     0.044 C 
ENDBRANCH  16  17
ENDBRANCH   6  16
TORSDOF 3
ENDMDL
MODEL 7
REMARK VINA RESULT:    -4.897      3.049      7.847
REMARK INTER + INTRA:          -6.134
REMARK INTER:                  -5.682
REMARK INTRA:                  -0.452
REMARK UNBOUND:                -0.378
REMARK SMILES Cc1ccc(CNC(=O)NC(=O)c2ccc(C)cc2)cc1
REMARK SMILES IDX 11 1 12 2 10 3 8 4 9 5 7 6 13 9 19 10 18 11 14 12 16 13
REMARK SMILES IDX 15 14 17 15 6 16 5 17 4 18 20 19 3 20 21 21 2 22 1 23
REMARK H PARENT 10 7 7 8
ROOT
ATOM      1  C   UNL     1      -7.657  -1.684   7.291  1.00  0.00     0.259 C 
ATOM      2  O   UNL     1      -6.785  -0.954   6.842  1.00  0.00    -0.269 OA
ATOM      3  N   UNL     1      -7.843  -3.055   7.086  1.00  0.00    -0.274 N 
ATOM      4  C   UNL     1      -7.123  -4.111   6.589  1.00  0.00     0.321 C 
ATOM      5  O   UNL     1      -7.609  -5.241   6.707  1.00  0.00    -0.248 OA
ATOM      6  N   UNL     1      -5.914  -3.983   6.014  1.00  0.00    -0.334 N 
ATOM      7  H   UNL     1      -8.655  -3.439   7.549  1.00  0.00     0.175 HD
ATOM      8  H   UNL     1      -5.479  -4.864   5.779  1.00  0.00     0.165 HD
ENDROOT
BRANCH   1   9
ATOM      9  C   UNL     1      -8.656  -1.053   8.175  1.00  0.00     0.040 A 
ATOM     10  C   UNL     1      -8.975  -1.599   9.420  1.00  0.00     0.014 A 
ATOM     11  C   UNL     1      -9.887  -0.938  10.243  1.00  0.00     0.004 A 
ATOM     12  C   UNL     1      -9.287   0.112   7.727  1.00  0.00     0.014 A 
ATOM     13  C   UNL     1     -10.487   0.260   9.824  1.00  0.00    -0.051 A 
ATOM     14  C   UNL     1     -10.193   0.772   8.555  1.00  0.00     0.004 A 
ATOM     15  C   UNL     1     -11.400   1.002  10.755  1.00  0.00     0.044 C 
ENDBRANCH   1   9
BRANCH   6  16
ATOM     16  C   UNL     1      -5.133  -2.786   5.873  1.00  0.00     0.153 C 
BRANCH  16  17
ATOM     17  C   UNL     1      -4.488  -2.536   4.538  1.00  0.00    -0.029 A 
ATOM     18  C   UNL     1      -4.346  -1.259   3.986  1.00  0.00     0.006 A 
ATOM     19  C   UNL     1      -3.819  -3.614   3.935  1.00  0.00     0.006 A 
ATOM     20  C   UNL     1      -3.530  -1.067   2.866  1.00  0.00     0.004 A 
ATOM     21  C   UNL     1      -3.004  -3.421   2.824  1.00  0.00     0.004 A 
ATOM     22  C   UNL     1      -2.844  -2.144   2.286  1.00  0.00    -0.051 A 
ATOM     23  C   UNL     1      -1.859  -1.923   1.177  1.00  0.00     0.044 C 
ENDBRANCH  16  17
ENDBRANCH   6  16
TORSDOF 3
ENDMDL
MODEL 8
REMARK VINA RESULT:    -4.346      7.659      9.943
REMARK INTER + INTRA:          -5.486
REMARK INTER:                  -5.100
REMARK INTRA:                  -0.386
REMARK UNBOUND:                -0.378
REMARK SMILES Cc1ccc(CNC(=O)NC(=O)c2ccc(C)cc2)cc1
REMARK SMILES IDX 11 1 12 2 10 3 8 4 9 5 7 6 13 9 19 10 18 11 14 12 16 13
REMARK SMILES IDX 15 14 17 15 6 16 5 17 4 18 20 19 3 20 21 21 2 22 1 23
REMARK H PARENT 10 7 7 8
ROOT
ATOM      1  C   UNL     1     -12.681  -1.746  12.664  1.00  0.00     0.259 C 
ATOM      2  O   UNL     1     -13.282  -2.591  13.312  1.00  0.00    -0.269 OA
ATOM      3  N   UNL     1     -11.552  -1.903  11.855  1.00  0.00    -0.274 N 
ATOM      4  C   UNL     1     -10.850  -2.934  11.284  1.00  0.00     0.321 C 
ATOM      5  O   UNL     1      -9.946  -2.643  10.492  1.00  0.00    -0.248 OA
ATOM      6  N   UNL     1     -11.113  -4.233  11.517  1.00  0.00    -0.334 N 
ATOM      7  H   UNL     1     -11.218  -1.047  11.433  1.00  0.00     0.175 HD
ATOM      8  H   UNL     1     -10.564  -4.867  10.954  1.00  0.00     0.165 HD
ENDROOT
BRANCH   1   9
ATOM      9  C   UNL     1     -13.206  -0.369  12.728  1.00  0.00     0.040 A 
ATOM     10  C   UNL     1     -14.572  -0.104  12.618  1.00  0.00     0.014 A 
ATOM     11  C   UNL     1     -15.027   1.209  12.737  1.00  0.00     0.004 A 
ATOM     12  C   UNL     1     -12.291   0.676  12.895  1.00  0.00     0.014 A 
ATOM     13  C   UNL     1     -14.122   2.259  12.957  1.00  0.00    -0.051 A 
ATOM     14  C   UNL     1     -12.750   1.986  13.020  1.00  0.00     0.004 A 
ATOM     15  C   UNL     1     -14.633   3.654  13.167  1.00  0.00     0.044 C 
ENDBRANCH   1   9
BRANCH   6  16
ATOM     16  C   UNL     1     -12.174  -4.782  12.313  1.00  0.00     0.153 C 
BRANCH  16  17
ATOM     17  C   UNL     1     -12.043  -6.217  12.742  1.00  0.00    -0.029 A 
ATOM     18  C   UNL     1     -11.397  -7.189  11.970  1.00  0.00     0.006 A 
ATOM     19  C   UNL     1     -12.402  -6.529  14.063  1.00  0.00     0.006 A 
ATOM     20  C   UNL     1     -11.097  -8.438  12.525  1.00  0.00     0.004 A 
ATOM     21  C   UNL     1     -12.099  -7.770  14.615  1.00  0.00     0.004 A 
ATOM     22  C   UNL     1     -11.434  -8.732  13.853  1.00  0.00    -0.051 A 
ATOM     23  C   UNL     1     -10.990 -10.011  14.497  1.00  0.00     0.044 C 
ENDBRANCH  16  17
ENDBRANCH   6  16
TORSDOF 3
ENDMDL
MODEL 9
REMARK VINA RESULT:    -4.288      7.593     11.537
REMARK INTER + INTRA:          -5.419
REMARK INTER:                  -5.064
REMARK INTRA:                  -0.354
REMARK UNBOUND:                -0.378
REMARK SMILES Cc1ccc(CNC(=O)NC(=O)c2ccc(C)cc2)cc1
REMARK SMILES IDX 11 1 12 2 10 3 8 4 9 5 7 6 13 9 19 10 18 11 14 12 16 13
REMARK SMILES IDX 15 14 17 15 6 16 5 17 4 18 20 19 3 20 21 21 2 22 1 23
REMARK H PARENT 10 7 7 8
ROOT
ATOM      1  C   UNL     1     -12.060  -5.011  12.577  1.00  0.00     0.259 C 
ATOM      2  O   UNL     1     -12.966  -4.436  13.165  1.00  0.00    -0.269 OA
ATOM      3  N   UNL     1     -11.172  -4.501  11.625  1.00  0.00    -0.274 N 
ATOM      4  C   UNL     1     -10.780  -3.272  11.161  1.00  0.00     0.321 C 
ATOM      5  O   UNL     1      -9.831  -3.234  10.371  1.00  0.00    -0.248 OA
ATOM      6  N   UNL     1     -11.352  -2.115  11.542  1.00  0.00    -0.334 N 
ATOM      7  H   UNL     1     -10.517  -5.180  11.261  1.00  0.00     0.175 HD
ATOM      8  H   UNL     1     -10.893  -1.294  11.176  1.00  0.00     0.165 HD
ENDROOT
BRANCH   1   9
ATOM      9  C   UNL     1     -11.858  -6.434  12.909  1.00  0.00     0.040 A 
ATOM     10  C   UNL     1     -11.615  -7.385  11.916  1.00  0.00     0.014 A 
ATOM     11  C   UNL     1     -11.377  -8.710  12.282  1.00  0.00     0.004 A 
ATOM     12  C   UNL     1     -11.923  -6.812  14.254  1.00  0.00     0.014 A 
ATOM     13  C   UNL     1     -11.389  -9.090  13.633  1.00  0.00    -0.051 A 
ATOM     14  C   UNL     1     -11.678  -8.135  14.615  1.00  0.00     0.004 A 
ATOM     15  C   UNL     1     -11.047 -10.500  14.015  1.00  0.00     0.044 C 
ENDBRANCH   1   9
BRANCH   6  16
ATOM     16  C   UNL     1     -12.389  -1.931  12.518  1.00  0.00     0.153 C 
BRANCH  16  17
ATOM     17  C   UNL     1     -13.093  -0.602  12.534  1.00  0.00    -0.029 A 
ATOM     18  C   UNL     1     -14.485  -0.476  12.471  1.00  0.00     0.006 A 
ATOM     19  C   UNL     1     -12.322   0.531  12.836  1.00  0.00     0.006 A 
ATOM     20  C   UNL     1     -15.088   0.760  12.731  1.00  0.00     0.004 A 
ATOM     21  C   UNL     1     -12.923   1.758  13.099  1.00  0.00     0.004 A 
ATOM     22  C   UNL     1     -14.313   1.881  13.059  1.00  0.00    -0.051 A 
ATOM     23  C   UNL     1     -14.957   3.168  13.478  1.00  0.00     0.044 C 
ENDBRANCH  16  17
ENDBRANCH   6  16
TORSDOF 3
ENDMDL
