MODEL 1
REMARK VINA RESULT:    -4.170      0.000      0.000
REMARK INTER + INTRA:          -5.725
REMARK INTER:                  -5.511
REMARK INTRA:                  -0.214
REMARK UNBOUND:                -0.214
REMARK SMILES [H]/N=C\C[C@H]1C[C@@H]1O[C@H]1CO[C@H]2C[C@@H](C3CC3)CCN2C1
REMARK SMILES IDX 7 1 6 2 5 3 8 4 9 5 14 6 13 7 18 8 12 9 19 10 20 11 11 12
REMARK SMILES IDX 21 13 10 14 15 15 16 16 17 17 4 18 3 19 2 20 1 21
REMARK H PARENT
ROOT
ATOM      1  C   UNL     1     -11.148   3.127   8.493  1.00  0.00     0.122 C 
ATOM      2  C   UNL     1     -12.411   2.522   9.039  1.00  0.00     0.039 C 
ATOM      3  C   UNL     1     -11.116   2.346   9.779  1.00  0.00     0.026 C 
ENDROOT
BRANCH   1   4
ATOM      4  O   UNL     1     -10.637   2.462   7.322  1.00  0.00    -0.371 OA
BRANCH   4   5
ATOM      5  C   UNL     1     -11.404   2.647   6.121  1.00  0.00     0.158 C 
ATOM      6  C   UNL     1      -7.460   3.257   2.762  1.00  0.00    -0.003 C 
ATOM      7  C   UNL     1      -8.090   4.096   3.881  1.00  0.00     0.052 C 
ATOM      8  C   UNL     1      -7.578   1.768   3.118  1.00  0.00     0.019 C 
ATOM      9  C   UNL     1      -9.520   3.640   4.199  1.00  0.00     0.189 C 
ATOM     10  C   UNL     1      -9.018   1.387   3.456  1.00  0.00     0.087 C 
ATOM     11  N   UNL     1      -9.538   2.218   4.542  1.00  0.00    -0.276 NA
ATOM     12  O   UNL     1      -9.980   4.458   5.277  1.00  0.00    -0.360 OA
ATOM     13  C   UNL     1     -10.890   1.807   4.938  1.00  0.00     0.121 C 
ATOM     14  C   UNL     1     -11.300   4.120   5.713  1.00  0.00     0.195 C 
BRANCH   6  15
ATOM     15  C   UNL     1      -6.014   3.635   2.532  1.00  0.00    -0.008 C 
ATOM     16  C   UNL     1      -5.495   3.852   1.130  1.00  0.00     0.004 C 
ATOM     17  C   UNL     1      -5.642   5.021   2.061  1.00  0.00     0.004 C 
ENDBRANCH   6  15
ENDBRANCH   4   5
ENDBRANCH   1   4
BRANCH   3  18
ATOM     18  C   UNL     1     -10.925   3.052  11.087  1.00  0.00     0.053 C 
BRANCH  18  19
ATOM     19  C   UNL     1     -11.961   2.784  12.147  1.00  0.00     0.074 C 
BRANCH  19  20
ATOM     20  N   UNL     1     -11.872   1.905  13.089  1.00  0.00    -0.313 NA
ATOM     21  H   UNL     1     -11.867   2.346  14.020  1.00  0.00     0.186 HD
ENDBRANCH  19  20
ENDBRANCH  18  19
ENDBRANCH   3  18
TORSDOF 6
ENDMDL
MODEL 2
REMARK VINA RESULT:    -4.085      3.299      5.538
REMARK INTER + INTRA:          -5.613
REMARK INTER:                  -5.356
REMARK INTRA:                  -0.257
REMARK UNBOUND:                -0.214
REMARK SMILES [H]/N=C\C[C@H]1C[C@@H]1O[C@H]1CO[C@H]2C[C@@H](C3CC3)CCN2C1
REMARK SMILES IDX 7 1 6 2 5 3 8 4 9 5 14 6 13 7 18 8 12 9 19 10 20 11 11 12
REMARK SMILES IDX 21 13 10 14 15 15 16 16 17 17 4 18 3 19 2 20 1 21
REMARK H PARENT
ROOT
ATOM      1  C   UNL     1     -13.039   4.962   4.447  1.00  0.00     0.122 C 
ATOM      2  C   UNL     1     -13.619   6.253   4.952  1.00  0.00     0.039 C 
ATOM      3  C   UNL     1     -13.755   5.888   3.502  1.00  0.00     0.026 C 
ENDROOT
BRANCH   1   4
ATOM      4  O   UNL     1     -11.601   4.953   4.375  1.00  0.00    -0.371 OA
BRANCH   4   5
ATOM      5  C   UNL     1     -10.918   4.831   5.633  1.00  0.00     0.158 C 
ATOM      6  C   UNL     1      -6.891   1.913   4.061  1.00  0.00    -0.003 C 
ATOM      7  C   UNL     1      -8.390   1.683   4.292  1.00  0.00     0.052 C 
ATOM      8  C   UNL     1      -6.665   3.356   3.591  1.00  0.00     0.019 C 
ATOM      9  C   UNL     1      -8.993   2.745   5.222  1.00  0.00     0.189 C 
ATOM     10  C   UNL     1      -7.318   4.361   4.540  1.00  0.00     0.087 C 
ATOM     11  N   UNL     1      -8.747   4.087   4.691  1.00  0.00    -0.276 NA
ATOM     12  O   UNL     1     -10.388   2.456   5.322  1.00  0.00    -0.360 OA
ATOM     13  C   UNL     1      -9.405   5.094   5.530  1.00  0.00     0.121 C 
ATOM     14  C   UNL     1     -11.098   3.395   6.136  1.00  0.00     0.195 C 
BRANCH   6  15
ATOM     15  C   UNL     1      -6.328   0.933   3.057  1.00  0.00    -0.008 C 
ATOM     16  C   UNL     1      -5.192   0.014   3.439  1.00  0.00     0.004 C 
ATOM     17  C   UNL     1      -6.563  -0.551   3.207  1.00  0.00     0.004 C 
ENDBRANCH   6  15
ENDBRANCH   4   5
ENDBRANCH   1   4
BRANCH   3  18
ATOM     18  C   UNL     1     -15.108   5.524   2.968  1.00  0.00     0.053 C 
BRANCH  18  19
ATOM     19  C   UNL     1     -16.224   6.491   3.267  1.00  0.00     0.074 C 
BRANCH  19  20
ATOM     20  N   UNL     1     -16.642   7.430   2.485  1.00  0.00    -0.313 NA
ATOM     21  H   UNL     1     -16.751   8.322   2.988  1.00  0.00     0.186 HD
ENDBRANCH  19  20
ENDBRANCH  18  19
ENDBRANCH   3  18
TORSDOF 6
ENDMDL
MODEL 3
REMARK VINA RESULT:    -3.892      5.560      8.557
REMARK INTER + INTRA:          -5.358
REMARK INTER:                  -4.820
REMARK INTRA:                  -0.538
REMARK UNBOUND:                -0.214
REMARK SMILES [H]/N=C\C[C@H]1C[C@@H]1O[C@H]1CO[C@H]2C[C@@H](C3CC3)CCN2C1
REMARK SMILES IDX 7 1 6 2 5 3 8 4 9 5 14 6 13 7 18 8 12 9 19 10 20 11 11 12
REMARK SMILES IDX 21 13 10 14 15 15 16 16 17 17 4 18 3 19 2 20 1 21
REMARK H PARENT
ROOT
ATOM      1  C   UNL     1     -17.072   4.889  12.484  1.00  0.00     0.122 C 
ATOM      2  C   UNL     1     -17.810   6.193  12.367  1.00  0.00     0.039 C 
ATOM      3  C   UNL     1     -16.782   5.819  11.338  1.00  0.00     0.026 C 
ENDROOT
BRANCH   1   4
ATOM      4  O   UNL     1     -16.103   4.857  13.550  1.00  0.00    -0.371 OA
BRANCH   4   5
ATOM      5  C   UNL     1     -15.758   3.549  14.034  1.00  0.00     0.158 C 
ATOM      6  C   UNL     1     -11.641   2.637  10.965  1.00  0.00    -0.003 C 
ATOM      7  C   UNL     1     -13.160   2.704  10.772  1.00  0.00     0.052 C 
ATOM      8  C   UNL     1     -11.225   3.623  12.066  1.00  0.00     0.019 C 
ATOM      9  C   UNL     1     -13.912   2.515  12.097  1.00  0.00     0.189 C 
ATOM     10  C   UNL     1     -12.032   3.405  13.345  1.00  0.00     0.087 C 
ATOM     11  N   UNL     1     -13.468   3.503  13.081  1.00  0.00    -0.276 NA
ATOM     12  O   UNL     1     -15.303   2.643  11.799  1.00  0.00    -0.360 OA
ATOM     13  C   UNL     1     -14.254   3.383  14.314  1.00  0.00     0.121 C 
ATOM     14  C   UNL     1     -16.137   2.527  12.957  1.00  0.00     0.195 C 
BRANCH   6  15
ATOM     15  C   UNL     1     -10.905   2.937   9.679  1.00  0.00    -0.008 C 
ATOM     16  C   UNL     1     -10.396   1.811   8.810  1.00  0.00     0.004 C 
ATOM     17  C   UNL     1     -11.542   2.657   8.339  1.00  0.00     0.004 C 
ENDBRANCH   6  15
ENDBRANCH   4   5
ENDBRANCH   1   4
BRANCH   3  18
ATOM     18  C   UNL     1     -17.234   5.473   9.951  1.00  0.00     0.053 C 
BRANCH  18  19
ATOM     19  C   UNL     1     -16.237   4.746   9.087  1.00  0.00     0.074 C 
BRANCH  19  20
ATOM     20  N   UNL     1     -16.106   3.465   8.995  1.00  0.00    -0.313 NA
ATOM     21  H   UNL     1     -15.154   3.200   8.703  1.00  0.00     0.186 HD
ENDBRANCH  19  20
ENDBRANCH  18  19
ENDBRANCH   3  18
TORSDOF 6
ENDMDL
MODEL 4
REMARK VINA RESULT:    -3.843      4.467      7.068
REMARK INTER + INTRA:          -5.292
REMARK INTER:                  -5.064
REMARK INTRA:                  -0.228
REMARK UNBOUND:                -0.214
REMARK SMILES [H]/N=C\C[C@H]1C[C@@H]1O[C@H]1CO[C@H]2C[C@@H](C3CC3)CCN2C1
REMARK SMILES IDX 7 1 6 2 5 3 8 4 9 5 14 6 13 7 18 8 12 9 19 10 20 11 11 12
REMARK SMILES IDX 21 13 10 14 15 15 16 16 17 17 4 18 3 19 2 20 1 21
REMARK H PARENT
ROOT
ATOM      1  C   UNL     1     -15.998   5.430  12.273  1.00  0.00     0.122 C 
ATOM      2  C   UNL     1     -15.820   6.763  12.943  1.00  0.00     0.039 C 
ATOM      3  C   UNL     1     -16.342   6.696  11.537  1.00  0.00     0.026 C 
ENDROOT
BRANCH   1   4
ATOM      4  O   UNL     1     -14.763   4.787  11.907  1.00  0.00    -0.371 OA
BRANCH   4   5
ATOM      5  C   UNL     1     -14.807   3.352  11.840  1.00  0.00     0.158 C 
ATOM      6  C   UNL     1     -11.406   2.642   7.951  1.00  0.00    -0.003 C 
ATOM      7  C   UNL     1     -12.840   3.172   8.073  1.00  0.00     0.052 C 
ATOM      8  C   UNL     1     -10.627   2.986   9.228  1.00  0.00     0.019 C 
ATOM      9  C   UNL     1     -13.516   2.694   9.365  1.00  0.00     0.189 C 
ATOM     10  C   UNL     1     -11.369   2.514  10.478  1.00  0.00     0.087 C 
ATOM     11  N   UNL     1     -12.718   3.078  10.530  1.00  0.00    -0.276 NA
ATOM     12  O   UNL     1     -14.817   3.285   9.388  1.00  0.00    -0.360 OA
ATOM     13  C   UNL     1     -13.413   2.705  11.767  1.00  0.00     0.121 C 
ATOM     14  C   UNL     1     -15.560   2.957  10.566  1.00  0.00     0.195 C 
BRANCH   6  15
ATOM     15  C   UNL     1     -10.707   3.207   6.735  1.00  0.00    -0.008 C 
ATOM     16  C   UNL     1     -10.833   2.522   5.394  1.00  0.00     0.004 C 
ATOM     17  C   UNL     1     -11.495   3.850   5.619  1.00  0.00     0.004 C 
ENDBRANCH   6  15
ENDBRANCH   4   5
ENDBRANCH   1   4
BRANCH   3  18
ATOM     18  C   UNL     1     -17.774   7.054  11.276  1.00  0.00     0.053 C 
BRANCH  18  19
ATOM     19  C   UNL     1     -18.023   8.044  10.167  1.00  0.00     0.074 C 
BRANCH  19  20
ATOM     20  N   UNL     1     -17.192   8.942   9.754  1.00  0.00    -0.313 NA
ATOM     21  H   UNL     1     -16.357   8.518   9.326  1.00  0.00     0.186 HD
ENDBRANCH  19  20
ENDBRANCH  18  19
ENDBRANCH   3  18
TORSDOF 6
ENDMDL
MODEL 5
REMARK VINA RESULT:    -3.658      3.582      5.028
REMARK INTER + INTRA:          -5.049
REMARK INTER:                  -4.807
REMARK INTRA:                  -0.242
REMARK UNBOUND:                -0.214
REMARK SMILES [H]/N=C\C[C@H]1C[C@@H]1O[C@H]1CO[C@H]2C[C@@H](C3CC3)CCN2C1
REMARK SMILES IDX 7 1 6 2 5 3 8 4 9 5 14 6 13 7 18 8 12 9 19 10 20 11 11 12
REMARK SMILES IDX 21 13 10 14 15 15 16 16 17 17 4 18 3 19 2 20 1 21
REMARK H PARENT
ROOT
ATOM      1  C   UNL     1     -11.232   3.599  12.123  1.00  0.00     0.122 C 
ATOM      2  C   UNL     1     -10.359   4.522  12.926  1.00  0.00     0.039 C 
ATOM      3  C   UNL     1     -11.763   4.929  12.584  1.00  0.00     0.026 C 
ENDROOT
BRANCH   1   4
ATOM      4  O   UNL     1     -10.860   3.500  10.735  1.00  0.00    -0.371 OA
BRANCH   4   5
ATOM      5  C   UNL     1     -11.291   2.305  10.062  1.00  0.00     0.158 C 
ATOM      6  C   UNL     1     -12.005   4.303   5.298  1.00  0.00    -0.003 C 
ATOM      7  C   UNL     1     -12.729   4.395   6.647  1.00  0.00     0.052 C 
ATOM      8  C   UNL     1     -10.499   4.137   5.540  1.00  0.00     0.019 C 
ATOM      9  C   UNL     1     -12.370   3.220   7.567  1.00  0.00     0.189 C 
ATOM     10  C   UNL     1     -10.211   2.974   6.490  1.00  0.00     0.087 C 
ATOM     11  N   UNL     1     -10.921   3.145   7.757  1.00  0.00    -0.276 NA
ATOM     12  O   UNL     1     -13.062   3.439   8.798  1.00  0.00    -0.360 OA
ATOM     13  C   UNL     1     -10.587   2.082   8.712  1.00  0.00     0.121 C 
ATOM     14  C   UNL     1     -12.791   2.433   9.779  1.00  0.00     0.195 C 
BRANCH   6  15
ATOM     15  C   UNL     1     -12.273   5.520   4.441  1.00  0.00    -0.008 C 
ATOM     16  C   UNL     1     -13.388   5.505   3.422  1.00  0.00     0.004 C 
ATOM     17  C   UNL     1     -13.512   6.357   4.652  1.00  0.00     0.004 C 
ENDBRANCH   6  15
ENDBRANCH   4   5
ENDBRANCH   1   4
BRANCH   3  18
ATOM     18  C   UNL     1     -12.788   4.995  13.677  1.00  0.00     0.053 C 
BRANCH  18  19
ATOM     19  C   UNL     1     -14.025   5.803  13.382  1.00  0.00     0.074 C 
BRANCH  19  20
ATOM     20  N   UNL     1     -14.232   6.513  12.324  1.00  0.00    -0.313 NA
ATOM     21  H   UNL     1     -15.100   6.236  11.845  1.00  0.00     0.186 HD
ENDBRANCH  19  20
ENDBRANCH  18  19
ENDBRANCH   3  18
TORSDOF 6
ENDMDL
MODEL 6
REMARK VINA RESULT:    -3.525      3.366      5.350
REMARK INTER + INTRA:          -4.873
REMARK INTER:                  -4.946
REMARK INTRA:                   0.073
REMARK UNBOUND:                -0.214
REMARK SMILES [H]/N=C\C[C@H]1C[C@@H]1O[C@H]1CO[C@H]2C[C@@H](C3CC3)CCN2C1
REMARK SMILES IDX 7 1 6 2 5 3 8 4 9 5 14 6 13 7 18 8 12 9 19 10 20 11 11 12
REMARK SMILES IDX 21 13 10 14 15 15 16 16 17 17 4 18 3 19 2 20 1 21
REMARK H PARENT
ROOT
ATOM      1  C   UNL     1     -12.820   5.319   4.512  1.00  0.00     0.122 C 
ATOM      2  C   UNL     1     -12.702   6.201   3.301  1.00  0.00     0.039 C 
ATOM      3  C   UNL     1     -13.996   5.496   3.591  1.00  0.00     0.026 C 
ENDROOT
BRANCH   1   4
ATOM      4  O   UNL     1     -12.099   4.076   4.406  1.00  0.00    -0.371 OA
BRANCH   4   5
ATOM      5  C   UNL     1     -11.483   3.612   5.618  1.00  0.00     0.158 C 
ATOM      6  C   UNL     1      -6.554   3.338   3.934  1.00  0.00    -0.003 C 
ATOM      7  C   UNL     1      -7.841   2.537   3.700  1.00  0.00     0.052 C 
ATOM      8  C   UNL     1      -6.911   4.812   4.173  1.00  0.00     0.019 C 
ATOM      9  C   UNL     1      -8.862   2.759   4.824  1.00  0.00     0.189 C 
ATOM     10  C   UNL     1      -7.955   4.961   5.279  1.00  0.00     0.087 C 
ATOM     11  N   UNL     1      -9.156   4.184   4.973  1.00  0.00    -0.276 NA
ATOM     12  O   UNL     1     -10.024   2.005   4.474  1.00  0.00    -0.360 OA
ATOM     13  C   UNL     1     -10.202   4.385   5.981  1.00  0.00     0.121 C 
ATOM     14  C   UNL     1     -11.089   2.145   5.421  1.00  0.00     0.195 C 
BRANCH   6  15
ATOM     15  C   UNL     1      -5.599   3.206   2.769  1.00  0.00    -0.008 C 
ATOM     16  C   UNL     1      -5.098   1.846   2.342  1.00  0.00     0.004 C 
ATOM     17  C   UNL     1      -6.052   2.601   1.462  1.00  0.00     0.004 C 
ENDBRANCH   6  15
ENDBRANCH   4   5
ENDBRANCH   1   4
BRANCH   3  18
ATOM     18  C   UNL     1     -15.182   6.304   4.026  1.00  0.00     0.053 C 
BRANCH  18  19
ATOM     19  C   UNL     1     -16.305   6.429   3.030  1.00  0.00     0.074 C 
BRANCH  19  20
ATOM     20  N   UNL     1     -16.694   7.520   2.459  1.00  0.00    -0.313 NA
ATOM     21  H   UNL     1     -16.287   8.351   2.911  1.00  0.00     0.186 HD
ENDBRANCH  19  20
ENDBRANCH  18  19
ENDBRANCH   3  18
TORSDOF 6
ENDMDL
MODEL 7
REMARK VINA RESULT:    -3.403      5.113      8.247
REMARK INTER + INTRA:          -4.712
REMARK INTER:                  -4.122
REMARK INTRA:                  -0.589
REMARK UNBOUND:                -0.214
REMARK SMILES [H]/N=C\C[C@H]1C[C@@H]1O[C@H]1CO[C@H]2C[C@@H](C3CC3)CCN2C1
REMARK SMILES IDX 7 1 6 2 5 3 8 4 9 5 14 6 13 7 18 8 12 9 19 10 20 11 11 12
REMARK SMILES IDX 21 13 10 14 15 15 16 16 17 17 4 18 3 19 2 20 1 21
REMARK H PARENT
ROOT
ATOM      1  C   UNL     1     -17.499   5.792  10.810  1.00  0.00     0.122 C 
ATOM      2  C   UNL     1     -17.924   7.220  11.007  1.00  0.00     0.039 C 
ATOM      3  C   UNL     1     -16.809   6.895  10.055  1.00  0.00     0.026 C 
ENDROOT
BRANCH   1   4
ATOM      4  O   UNL     1     -16.785   5.233  11.929  1.00  0.00    -0.371 OA
BRANCH   4   5
ATOM      5  C   UNL     1     -16.895   3.808  12.085  1.00  0.00     0.158 C 
ATOM      6  C   UNL     1     -12.259   2.447  10.121  1.00  0.00    -0.003 C 
ATOM      7  C   UNL     1     -13.579   2.981   9.552  1.00  0.00     0.052 C 
ATOM      8  C   UNL     1     -12.048   3.015  11.532  1.00  0.00     0.019 C 
ATOM      9  C   UNL     1     -14.754   2.734  10.508  1.00  0.00     0.189 C 
ATOM     10  C   UNL     1     -13.265   2.766  12.422  1.00  0.00     0.087 C 
ATOM     11  N   UNL     1     -14.477   3.321  11.819  1.00  0.00    -0.276 NA
ATOM     12  O   UNL     1     -15.908   3.312   9.894  1.00  0.00    -0.360 OA
ATOM     13  C   UNL     1     -15.639   3.167  12.701  1.00  0.00     0.121 C 
ATOM     14  C   UNL     1     -17.087   3.191  10.695  1.00  0.00     0.195 C 
BRANCH   6  15
ATOM     15  C   UNL     1     -11.088   2.794   9.229  1.00  0.00    -0.008 C 
ATOM     16  C   UNL     1     -10.465   1.741   8.343  1.00  0.00     0.004 C 
ATOM     17  C   UNL     1     -11.252   2.862   7.730  1.00  0.00     0.004 C 
ENDBRANCH   6  15
ENDBRANCH   4   5
ENDBRANCH   1   4
BRANCH   3  18
ATOM     18  C   UNL     1     -17.038   7.061   8.583  1.00  0.00     0.053 C 
BRANCH  18  19
ATOM     19  C   UNL     1     -15.940   6.566   7.677  1.00  0.00     0.074 C 
BRANCH  19  20
ATOM     20  N   UNL     1     -15.202   5.527   7.882  1.00  0.00    -0.313 NA
ATOM     21  H   UNL     1     -14.391   5.748   8.478  1.00  0.00     0.186 HD
ENDBRANCH  19  20
ENDBRANCH  18  19
ENDBRANCH   3  18
TORSDOF 6
ENDMDL
MODEL 8
REMARK VINA RESULT:    -3.281      1.869      2.291
REMARK INTER + INTRA:          -4.550
REMARK INTER:                  -5.046
REMARK INTRA:                   0.496
REMARK UNBOUND:                -0.214
REMARK SMILES [H]/N=C\C[C@H]1C[C@@H]1O[C@H]1CO[C@H]2C[C@@H](C3CC3)CCN2C1
REMARK SMILES IDX 7 1 6 2 5 3 8 4 9 5 14 6 13 7 18 8 12 9 19 10 20 11 11 12
REMARK SMILES IDX 21 13 10 14 15 15 16 16 17 17 4 18 3 19 2 20 1 21
REMARK H PARENT
ROOT
ATOM      1  C   UNL     1     -11.346   2.373   8.209  1.00  0.00     0.122 C 
ATOM      2  C   UNL     1     -11.008   2.313   9.672  1.00  0.00     0.039 C 
ATOM      3  C   UNL     1     -12.263   3.005   9.221  1.00  0.00     0.026 C 
ENDROOT
BRANCH   1   4
ATOM      4  O   UNL     1     -10.511   3.267   7.450  1.00  0.00    -0.371 OA
BRANCH   4   5
ATOM      5  C   UNL     1     -11.099   3.797   6.251  1.00  0.00     0.158 C 
ATOM      6  C   UNL     1      -7.806   1.724   2.778  1.00  0.00    -0.003 C 
ATOM      7  C   UNL     1      -7.737   2.841   3.826  1.00  0.00     0.052 C 
ATOM      8  C   UNL     1      -8.758   0.624   3.271  1.00  0.00     0.019 C 
ATOM      9  C   UNL     1      -9.133   3.349   4.211  1.00  0.00     0.189 C 
ATOM     10  C   UNL     1     -10.117   1.200   3.670  1.00  0.00     0.087 C 
ATOM     11  N   UNL     1      -9.966   2.243   4.684  1.00  0.00    -0.276 NA
ATOM     12  O   UNL     1      -8.942   4.345   5.218  1.00  0.00    -0.360 OA
ATOM     13  C   UNL     1     -11.267   2.745   5.141  1.00  0.00     0.121 C 
ATOM     14  C   UNL     1     -10.172   4.889   5.707  1.00  0.00     0.195 C 
BRANCH   6  15
ATOM     15  C   UNL     1      -6.438   1.150   2.488  1.00  0.00    -0.008 C 
ATOM     16  C   UNL     1      -5.315   2.049   2.028  1.00  0.00     0.004 C 
ATOM     17  C   UNL     1      -5.269   1.438   3.398  1.00  0.00     0.004 C 
ENDBRANCH   6  15
ENDBRANCH   4   5
ENDBRANCH   1   4
BRANCH   3  18
ATOM     18  C   UNL     1     -13.589   2.379   9.534  1.00  0.00     0.053 C 
BRANCH  18  19
ATOM     19  C   UNL     1     -14.793   3.277   9.414  1.00  0.00     0.074 C 
BRANCH  19  20
ATOM     20  N   UNL     1     -15.980   2.909   9.062  1.00  0.00    -0.313 NA
ATOM     21  H   UNL     1     -16.677   3.644   9.249  1.00  0.00     0.186 HD
ENDBRANCH  19  20
ENDBRANCH  18  19
ENDBRANCH   3  18
TORSDOF 6
ENDMDL
MODEL 9
REMARK VINA RESULT:    -3.151      5.697      7.496
REMARK INTER + INTRA:          -4.378
REMARK INTER:                  -4.373
REMARK INTRA:                  -0.005
REMARK UNBOUND:                -0.214
REMARK SMILES [H]/N=C\C[C@H]1C[C@@H]1O[C@H]1CO[C@H]2C[C@@H](C3CC3)CCN2C1
REMARK SMILES IDX 7 1 6 2 5 3 8 4 9 5 14 6 13 7 18 8 12 9 19 10 20 11 11 12
REMARK SMILES IDX 21 13 10 14 15 15 16 16 17 17 4 18 3 19 2 20 1 21
REMARK H PARENT
ROOT
ATOM      1  C   UNL     1     -17.944   4.634  10.294  1.00  0.00     0.122 C 
ATOM      2  C   UNL     1     -18.705   3.365  10.555  1.00  0.00     0.039 C 
ATOM      3  C   UNL     1     -17.204   3.345  10.527  1.00  0.00     0.026 C 
ENDROOT
BRANCH   1   4
ATOM      4  O   UNL     1     -18.021   5.095   8.931  1.00  0.00    -0.371 OA
BRANCH   4   5
ATOM      5  C   UNL     1     -17.852   6.510   8.746  1.00  0.00     0.158 C 
ATOM      6  C   UNL     1     -14.520   6.381   4.736  1.00  0.00    -0.003 C 
ATOM      7  C   UNL     1     -14.446   6.070   6.236  1.00  0.00     0.052 C 
ATOM      8  C   UNL     1     -15.926   6.048   4.218  1.00  0.00     0.019 C 
ATOM      9  C   UNL     1     -15.577   6.753   7.016  1.00  0.00     0.189 C 
ATOM     10  C   UNL     1     -17.006   6.730   5.057  1.00  0.00     0.087 C 
ATOM     11  N   UNL     1     -16.879   6.369   6.468  1.00  0.00    -0.276 NA
ATOM     12  O   UNL     1     -15.431   6.355   8.380  1.00  0.00    -0.360 OA
ATOM     13  C   UNL     1     -17.960   6.946   7.274  1.00  0.00     0.121 C 
ATOM     14  C   UNL     1     -16.449   6.889   9.232  1.00  0.00     0.195 C 
BRANCH   6  15
ATOM     15  C   UNL     1     -13.473   5.616   3.958  1.00  0.00    -0.008 C 
ATOM     16  C   UNL     1     -12.063   6.147   3.848  1.00  0.00     0.004 C 
ATOM     17  C   UNL     1     -12.336   4.920   4.668  1.00  0.00     0.004 C 
ENDBRANCH   6  15
ENDBRANCH   4   5
ENDBRANCH   1   4
BRANCH   3  18
ATOM     18  C   UNL     1     -16.456   3.124  11.808  1.00  0.00     0.053 C 
BRANCH  18  19
ATOM     19  C   UNL     1     -17.118   2.226  12.820  1.00  0.00     0.074 C 
BRANCH  19  20
ATOM     20  N   UNL     1     -17.971   2.595  13.717  1.00  0.00    -0.313 NA
ATOM     21  H   UNL     1     -18.798   1.982  13.730  1.00  0.00     0.186 HD
ENDBRANCH  19  20
ENDBRANCH  18  19
ENDBRANCH   3  18
TORSDOF 6
ENDMDL
