MODEL 1
REMARK VINA RESULT:    -6.162      0.000      0.000
REMARK INTER + INTRA:          -7.635
REMARK INTER:                  -7.243
REMARK INTRA:                  -0.392
REMARK UNBOUND:                -0.392
REMARK SMILES Cc1ccc(CNC(=O)NC(=O)c2ccc(C)cc2)cc1
REMARK SMILES IDX 11 1 12 2 10 3 8 4 9 5 7 6 13 9 19 10 18 11 14 12 16 13
REMARK SMILES IDX 15 14 17 15 6 16 5 17 4 18 20 19 3 20 21 21 2 22 1 23
REMARK H PARENT 10 7 7 8
ROOT
ATOM      1  C   UNL     1       0.250   6.895  -8.929  1.00  0.00     0.259 C 
ATOM      2  O   UNL     1       1.351   6.464  -9.242  1.00  0.00    -0.269 OA
ATOM      3  N   UNL     1      -0.420   8.022  -9.415  1.00  0.00    -0.274 N 
ATOM      4  C   UNL     1      -0.309   8.889 -10.472  1.00  0.00     0.321 C 
ATOM      5  O   UNL     1      -1.214   9.714 -10.635  1.00  0.00    -0.248 OA
ATOM      6  N   UNL     1       0.711   8.866 -11.350  1.00  0.00    -0.334 N 
ATOM      7  H   UNL     1      -1.319   8.191  -8.986  1.00  0.00     0.175 HD
ATOM      8  H   UNL     1       0.601   9.512 -12.119  1.00  0.00     0.165 HD
ENDROOT
BRANCH   1   9
ATOM      9  C   UNL     1      -0.491   6.133  -7.906  1.00  0.00     0.040 A 
ATOM     10  C   UNL     1      -0.444   6.489  -6.557  1.00  0.00     0.014 A 
ATOM     11  C   UNL     1      -1.203   5.770  -5.633  1.00  0.00     0.004 A 
ATOM     12  C   UNL     1      -1.244   5.031  -8.324  1.00  0.00     0.014 A 
ATOM     13  C   UNL     1      -2.002   4.695  -6.050  1.00  0.00    -0.051 A 
ATOM     14  C   UNL     1      -2.005   4.320  -7.399  1.00  0.00     0.004 A 
ATOM     15  C   UNL     1      -2.878   3.987  -5.059  1.00  0.00     0.044 C 
ENDBRANCH   1   9
BRANCH   6  16
ATOM     16  C   UNL     1       1.800   7.932 -11.403  1.00  0.00     0.153 C 
BRANCH  16  17
ATOM     17  C   UNL     1       2.433   7.685 -12.745  1.00  0.00    -0.029 A 
ATOM     18  C   UNL     1       2.470   6.425 -13.351  1.00  0.00     0.006 A 
ATOM     19  C   UNL     1       2.806   8.811 -13.497  1.00  0.00     0.006 A 
ATOM     20  C   UNL     1       2.852   6.304 -14.691  1.00  0.00     0.004 A 
ATOM     21  C   UNL     1       3.181   8.689 -14.831  1.00  0.00     0.004 A 
ATOM     22  C   UNL     1       3.197   7.435 -15.443  1.00  0.00    -0.051 A 
ATOM     23  C   UNL     1       3.468   7.331 -16.914  1.00  0.00     0.044 C 
ENDBRANCH  16  17
ENDBRANCH   6  16
TORSDOF 3
ENDMDL
MODEL 2
REMARK VINA RESULT:    -6.154      3.223      5.551
REMARK INTER + INTRA:          -7.625
REMARK INTER:                  -7.237
REMARK INTRA:                  -0.388
REMARK UNBOUND:                -0.392
REMARK SMILES Cc1ccc(CNC(=O)NC(=O)c2ccc(C)cc2)cc1
REMARK SMILES IDX 11 1 12 2 10 3 8 4 9 5 7 6 13 9 19 10 18 11 14 12 16 13
REMARK SMILES IDX 15 14 17 15 6 16 5 17 4 18 20 19 3 20 21 21 2 22 1 23
REMARK H PARENT 10 7 7 8
ROOT
ATOM      1  C   UNL     1       0.097   7.163  -8.724  1.00  0.00     0.259 C 
ATOM      2  O   UNL     1      -0.999   7.615  -8.426  1.00  0.00    -0.269 OA
ATOM      3  N   UNL     1       0.841   7.366  -9.891  1.00  0.00    -0.274 N 
ATOM      4  C   UNL     1       0.831   8.222 -10.962  1.00  0.00     0.321 C 
ATOM      5  O   UNL     1       1.777   8.160 -11.754  1.00  0.00    -0.248 OA
ATOM      6  N   UNL     1      -0.134   9.136 -11.176  1.00  0.00    -0.334 N 
ATOM      7  H   UNL     1       1.718   6.865  -9.918  1.00  0.00     0.175 HD
ATOM      8  H   UNL     1       0.050   9.745 -11.960  1.00  0.00     0.165 HD
ENDROOT
BRANCH   1   9
ATOM      9  C   UNL     1       0.742   6.285  -7.728  1.00  0.00     0.040 A 
ATOM     10  C   UNL     1       0.657   4.895  -7.820  1.00  0.00     0.014 A 
ATOM     11  C   UNL     1       1.328   4.106  -6.884  1.00  0.00     0.004 A 
ATOM     12  C   UNL     1       1.440   6.887  -6.677  1.00  0.00     0.014 A 
ATOM     13  C   UNL     1       2.074   4.700  -5.856  1.00  0.00    -0.051 A 
ATOM     14  C   UNL     1       2.114   6.095  -5.748  1.00  0.00     0.004 A 
ATOM     15  C   UNL     1       2.858   3.839  -4.909  1.00  0.00     0.044 C 
ENDBRANCH   1   9
BRANCH   6  16
ATOM     16  C   UNL     1      -1.255   9.440 -10.332  1.00  0.00     0.153 C 
BRANCH  16  17
ATOM     17  C   UNL     1      -1.830  10.826 -10.422  1.00  0.00    -0.029 A 
ATOM     18  C   UNL     1      -1.903  11.696  -9.329  1.00  0.00     0.006 A 
ATOM     19  C   UNL     1      -2.106  11.326 -11.705  1.00  0.00     0.006 A 
ATOM     20  C   UNL     1      -2.222  13.044  -9.526  1.00  0.00     0.004 A 
ATOM     21  C   UNL     1      -2.419  12.667 -11.901  1.00  0.00     0.004 A 
ATOM     22  C   UNL     1      -2.469  13.541 -10.813  1.00  0.00    -0.051 A 
ATOM     23  C   UNL     1      -2.670  15.008 -11.049  1.00  0.00     0.044 C 
ENDBRANCH  16  17
ENDBRANCH   6  16
TORSDOF 3
ENDMDL
MODEL 3
REMARK VINA RESULT:    -6.048      0.567      7.980
REMARK INTER + INTRA:          -7.501
REMARK INTER:                  -7.008
REMARK INTRA:                  -0.492
REMARK UNBOUND:                -0.392
REMARK SMILES Cc1ccc(CNC(=O)NC(=O)c2ccc(C)cc2)cc1
REMARK SMILES IDX 11 1 12 2 10 3 8 4 9 5 7 6 13 9 19 10 18 11 14 12 16 13
REMARK SMILES IDX 15 14 17 15 6 16 5 17 4 18 20 19 3 20 21 21 2 22 1 23
REMARK H PARENT 10 7 7 8
ROOT
ATOM      1  C   UNL     1       1.485   7.459 -11.457  1.00  0.00     0.259 C 
ATOM      2  O   UNL     1       1.823   6.565 -10.693  1.00  0.00    -0.269 OA
ATOM      3  N   UNL     1       0.515   8.448 -11.273  1.00  0.00    -0.274 N 
ATOM      4  C   UNL     1      -0.215   8.971 -10.236  1.00  0.00     0.321 C 
ATOM      5  O   UNL     1      -0.902   9.972 -10.466  1.00  0.00    -0.248 OA
ATOM      6  N   UNL     1      -0.197   8.471  -8.986  1.00  0.00    -0.334 N 
ATOM      7  H   UNL     1       0.398   9.070 -12.062  1.00  0.00     0.175 HD
ATOM      8  H   UNL     1      -0.721   9.020  -8.321  1.00  0.00     0.165 HD
ENDROOT
BRANCH   1   9
ATOM      9  C   UNL     1       2.190   7.521 -12.752  1.00  0.00     0.040 A 
ATOM     10  C   UNL     1       2.495   6.364 -13.472  1.00  0.00     0.014 A 
ATOM     11  C   UNL     1       3.114   6.476 -14.716  1.00  0.00     0.004 A 
ATOM     12  C   UNL     1       2.553   8.779 -13.242  1.00  0.00     0.014 A 
ATOM     13  C   UNL     1       3.437   7.737 -15.241  1.00  0.00    -0.051 A 
ATOM     14  C   UNL     1       3.166   8.887 -14.489  1.00  0.00     0.004 A 
ATOM     15  C   UNL     1       4.025   7.845 -16.617  1.00  0.00     0.044 C 
ENDBRANCH   1   9
BRANCH   6  16
ATOM     16  C   UNL     1       0.604   7.389  -8.488  1.00  0.00     0.153 C 
BRANCH  16  17
ATOM     17  C   UNL     1      -0.073   6.380  -7.601  1.00  0.00    -0.029 A 
ATOM     18  C   UNL     1      -0.115   6.495  -6.208  1.00  0.00     0.006 A 
ATOM     19  C   UNL     1      -0.869   5.406  -8.226  1.00  0.00     0.006 A 
ATOM     20  C   UNL     1      -0.958   5.664  -5.462  1.00  0.00     0.004 A 
ATOM     21  C   UNL     1      -1.710   4.584  -7.484  1.00  0.00     0.004 A 
ATOM     22  C   UNL     1      -1.770   4.713  -6.095  1.00  0.00    -0.051 A 
ATOM     23  C   UNL     1      -2.778   3.919  -5.319  1.00  0.00     0.044 C 
ENDBRANCH  16  17
ENDBRANCH   6  16
TORSDOF 3
ENDMDL
MODEL 4
REMARK VINA RESULT:    -6.042      3.123      7.289
REMARK INTER + INTRA:          -7.494
REMARK INTER:                  -7.004
REMARK INTRA:                  -0.490
REMARK UNBOUND:                -0.392
REMARK SMILES Cc1ccc(CNC(=O)NC(=O)c2ccc(C)cc2)cc1
REMARK SMILES IDX 11 1 12 2 10 3 8 4 9 5 7 6 13 9 19 10 18 11 14 12 16 13
REMARK SMILES IDX 15 14 17 15 6 16 5 17 4 18 20 19 3 20 21 21 2 22 1 23
REMARK H PARENT 10 7 7 8
ROOT
ATOM      1  C   UNL     1      -0.982   9.584  -9.885  1.00  0.00     0.259 C 
ATOM      2  O   UNL     1      -1.401   9.047  -8.870  1.00  0.00    -0.269 OA
ATOM      3  N   UNL     1       0.020   9.147 -10.757  1.00  0.00    -0.274 N 
ATOM      4  C   UNL     1       0.714   7.990 -11.005  1.00  0.00     0.321 C 
ATOM      5  O   UNL     1       1.457   7.967 -11.993  1.00  0.00    -0.248 OA
ATOM      6  N   UNL     1       0.603   6.880 -10.252  1.00  0.00    -0.334 N 
ATOM      7  H   UNL     1       0.209   9.777 -11.525  1.00  0.00     0.175 HD
ATOM      8  H   UNL     1       1.113   6.088 -10.617  1.00  0.00     0.165 HD
ENDROOT
BRANCH   1   9
ATOM      9  C   UNL     1      -1.609  10.866 -10.261  1.00  0.00     0.040 A 
ATOM     10  C   UNL     1      -1.930  11.828  -9.302  1.00  0.00     0.014 A 
ATOM     11  C   UNL     1      -2.473  13.046  -9.712  1.00  0.00     0.004 A 
ATOM     12  C   UNL     1      -1.883  11.091 -11.614  1.00  0.00     0.014 A 
ATOM     13  C   UNL     1      -2.704  13.303 -11.072  1.00  0.00    -0.051 A 
ATOM     14  C   UNL     1      -2.420  12.311 -12.019  1.00  0.00     0.004 A 
ATOM     15  C   UNL     1      -3.209  14.648 -11.503  1.00  0.00     0.044 C 
ENDBRANCH   1   9
BRANCH   6  16
ATOM     16  C   UNL     1      -0.272   6.663  -9.135  1.00  0.00     0.153 C 
BRANCH  16  17
ATOM     17  C   UNL     1       0.305   5.973  -7.930  1.00  0.00    -0.029 A 
ATOM     18  C   UNL     1       0.274   4.586  -7.756  1.00  0.00     0.006 A 
ATOM     19  C   UNL     1       1.088   6.749  -7.059  1.00  0.00     0.006 A 
ATOM     20  C   UNL     1       1.033   3.990  -6.744  1.00  0.00     0.004 A 
ATOM     21  C   UNL     1       1.846   6.154  -6.055  1.00  0.00     0.004 A 
ATOM     22  C   UNL     1       1.833   4.768  -5.895  1.00  0.00    -0.051 A 
ATOM     23  C   UNL     1       2.757   4.126  -4.903  1.00  0.00     0.044 C 
ENDBRANCH  16  17
ENDBRANCH   6  16
TORSDOF 3
ENDMDL
MODEL 5
REMARK VINA RESULT:    -5.613      1.604      7.768
REMARK INTER + INTRA:          -6.989
REMARK INTER:                  -6.495
REMARK INTRA:                  -0.494
REMARK UNBOUND:                -0.392
REMARK SMILES Cc1ccc(CNC(=O)NC(=O)c2ccc(C)cc2)cc1
REMARK SMILES IDX 11 1 12 2 10 3 8 4 9 5 7 6 13 9 19 10 18 11 14 12 16 13
REMARK SMILES IDX 15 14 17 15 6 16 5 17 4 18 20 19 3 20 21 21 2 22 1 23
REMARK H PARENT 10 7 7 8
ROOT
ATOM      1  C   UNL     1       1.911   7.726 -11.663  1.00  0.00     0.259 C 
ATOM      2  O   UNL     1       2.578   7.137 -10.825  1.00  0.00    -0.269 OA
ATOM      3  N   UNL     1       0.707   8.418 -11.495  1.00  0.00    -0.274 N 
ATOM      4  C   UNL     1      -0.042   8.911 -10.458  1.00  0.00     0.321 C 
ATOM      5  O   UNL     1      -1.022   9.610 -10.740  1.00  0.00    -0.248 OA
ATOM      6  N   UNL     1       0.250   8.698  -9.162  1.00  0.00    -0.334 N 
ATOM      7  H   UNL     1       0.329   8.809 -12.348  1.00  0.00     0.175 HD
ATOM      8  H   UNL     1      -0.349   9.199  -8.522  1.00  0.00     0.165 HD
ENDROOT
BRANCH   1   9
ATOM      9  C   UNL     1       2.432   7.723 -13.044  1.00  0.00     0.040 A 
ATOM     10  C   UNL     1       2.754   8.911 -13.703  1.00  0.00     0.014 A 
ATOM     11  C   UNL     1       3.293   8.854 -14.989  1.00  0.00     0.004 A 
ATOM     12  C   UNL     1       2.589   6.489 -13.683  1.00  0.00     0.014 A 
ATOM     13  C   UNL     1       3.504   7.619 -15.619  1.00  0.00    -0.051 A 
ATOM     14  C   UNL     1       3.134   6.438 -14.965  1.00  0.00     0.004 A 
ATOM     15  C   UNL     1       4.162   7.571 -16.967  1.00  0.00     0.044 C 
ENDBRANCH   1   9
BRANCH   6  16
ATOM     16  C   UNL     1       1.388   8.009  -8.622  1.00  0.00     0.153 C 
BRANCH  16  17
ATOM     17  C   UNL     1       1.122   6.890  -7.654  1.00  0.00    -0.029 A 
ATOM     18  C   UNL     1       0.488   5.698  -8.020  1.00  0.00     0.006 A 
ATOM     19  C   UNL     1       1.728   6.976  -6.390  1.00  0.00     0.006 A 
ATOM     20  C   UNL     1       0.486   4.608  -7.142  1.00  0.00     0.004 A 
ATOM     21  C   UNL     1       1.729   5.890  -5.520  1.00  0.00     0.004 A 
ATOM     22  C   UNL     1       1.117   4.692  -5.893  1.00  0.00    -0.051 A 
ATOM     23  C   UNL     1       1.242   3.488  -5.009  1.00  0.00     0.044 C 
ENDBRANCH  16  17
ENDBRANCH   6  16
TORSDOF 3
ENDMDL
MODEL 6
REMARK VINA RESULT:    -4.661      3.823      5.028
REMARK INTER + INTRA:          -5.871
REMARK INTER:                  -5.477
REMARK INTRA:                  -0.394
REMARK UNBOUND:                -0.392
REMARK SMILES Cc1ccc(CNC(=O)NC(=O)c2ccc(C)cc2)cc1
REMARK SMILES IDX 11 1 12 2 10 3 8 4 9 5 7 6 13 9 19 10 18 11 14 12 16 13
REMARK SMILES IDX 15 14 17 15 6 16 5 17 4 18 20 19 3 20 21 21 2 22 1 23
REMARK H PARENT 10 7 7 8
ROOT
ATOM      1  C   UNL     1      -0.109   6.460  -7.857  1.00  0.00     0.259 C 
ATOM      2  O   UNL     1      -1.144   6.582  -8.497  1.00  0.00    -0.269 OA
ATOM      3  N   UNL     1       1.098   7.151  -8.004  1.00  0.00    -0.274 N 
ATOM      4  C   UNL     1       1.549   8.279  -8.642  1.00  0.00     0.321 C 
ATOM      5  O   UNL     1       2.706   8.645  -8.409  1.00  0.00    -0.248 OA
ATOM      6  N   UNL     1       0.792   9.014  -9.477  1.00  0.00    -0.334 N 
ATOM      7  H   UNL     1       1.826   6.859  -7.366  1.00  0.00     0.175 HD
ATOM      8  H   UNL     1       1.243   9.859  -9.796  1.00  0.00     0.165 HD
ENDROOT
BRANCH   1   9
ATOM      9  C   UNL     1      -0.116   5.456  -6.776  1.00  0.00     0.040 A 
ATOM     10  C   UNL     1       1.040   4.755  -6.426  1.00  0.00     0.014 A 
ATOM     11  C   UNL     1       0.997   3.854  -5.362  1.00  0.00     0.004 A 
ATOM     12  C   UNL     1      -1.321   5.218  -6.108  1.00  0.00     0.014 A 
ATOM     13  C   UNL     1      -0.195   3.646  -4.652  1.00  0.00    -0.051 A 
ATOM     14  C   UNL     1      -1.358   4.322  -5.042  1.00  0.00     0.004 A 
ATOM     15  C   UNL     1      -0.204   2.738  -3.458  1.00  0.00     0.044 C 
ENDBRANCH   1   9
BRANCH   6  16
ATOM     16  C   UNL     1      -0.594   8.825  -9.800  1.00  0.00     0.153 C 
BRANCH  16  17
ATOM     17  C   UNL     1      -1.395  10.049 -10.146  1.00  0.00    -0.029 A 
ATOM     18  C   UNL     1      -1.788  10.998  -9.197  1.00  0.00     0.006 A 
ATOM     19  C   UNL     1      -1.566  10.341 -11.509  1.00  0.00     0.006 A 
ATOM     20  C   UNL     1      -2.317  12.225  -9.612  1.00  0.00     0.004 A 
ATOM     21  C   UNL     1      -2.088  11.563 -11.921  1.00  0.00     0.004 A 
ATOM     22  C   UNL     1      -2.459  12.521 -10.975  1.00  0.00    -0.051 A 
ATOM     23  C   UNL     1      -2.890  13.883 -11.429  1.00  0.00     0.044 C 
ENDBRANCH  16  17
ENDBRANCH   6  16
TORSDOF 3
ENDMDL
MODEL 7
REMARK VINA RESULT:    -4.572      1.889      8.175
REMARK INTER + INTRA:          -5.766
REMARK INTER:                  -5.359
REMARK INTRA:                  -0.407
REMARK UNBOUND:                -0.392
REMARK SMILES Cc1ccc(CNC(=O)NC(=O)c2ccc(C)cc2)cc1
REMARK SMILES IDX 11 1 12 2 10 3 8 4 9 5 7 6 13 9 19 10 18 11 14 12 16 13
REMARK SMILES IDX 15 14 17 15 6 16 5 17 4 18 20 19 3 20 21 21 2 22 1 23
REMARK H PARENT 10 7 7 8
ROOT
ATOM      1  C   UNL     1       1.417   7.461 -10.598  1.00  0.00     0.259 C 
ATOM      2  O   UNL     1       0.468   6.701 -10.471  1.00  0.00    -0.269 OA
ATOM      3  N   UNL     1       2.034   8.260  -9.631  1.00  0.00    -0.274 N 
ATOM      4  C   UNL     1       2.048   8.367  -8.263  1.00  0.00     0.321 C 
ATOM      5  O   UNL     1       2.862   9.148  -7.758  1.00  0.00    -0.248 OA
ATOM      6  N   UNL     1       1.249   7.650  -7.452  1.00  0.00    -0.334 N 
ATOM      7  H   UNL     1       2.795   8.827  -9.981  1.00  0.00     0.175 HD
ATOM      8  H   UNL     1       1.442   7.782  -6.470  1.00  0.00     0.165 HD
ENDROOT
BRANCH   1   9
ATOM      9  C   UNL     1       2.009   7.559 -11.946  1.00  0.00     0.040 A 
ATOM     10  C   UNL     1       2.313   6.419 -12.693  1.00  0.00     0.014 A 
ATOM     11  C   UNL     1       2.822   6.562 -13.984  1.00  0.00     0.004 A 
ATOM     12  C   UNL     1       2.267   8.834 -12.459  1.00  0.00     0.014 A 
ATOM     13  C   UNL     1       3.036   7.838 -14.527  1.00  0.00    -0.051 A 
ATOM     14  C   UNL     1       2.770   8.972 -13.751  1.00  0.00     0.004 A 
ATOM     15  C   UNL     1       3.504   7.976 -15.946  1.00  0.00     0.044 C 
ENDBRANCH   1   9
BRANCH   6  16
ATOM     16  C   UNL     1       0.317   6.624  -7.825  1.00  0.00     0.153 C 
BRANCH  16  17
ATOM     17  C   UNL     1       0.164   5.457  -6.889  1.00  0.00    -0.029 A 
ATOM     18  C   UNL     1       1.214   4.588  -6.574  1.00  0.00     0.006 A 
ATOM     19  C   UNL     1      -1.027   5.378  -6.150  1.00  0.00     0.006 A 
ATOM     20  C   UNL     1       1.076   3.677  -5.522  1.00  0.00     0.004 A 
ATOM     21  C   UNL     1      -1.161   4.474  -5.101  1.00  0.00     0.004 A 
ATOM     22  C   UNL     1      -0.106   3.622  -4.771  1.00  0.00    -0.051 A 
ATOM     23  C   UNL     1      -0.208   2.750  -3.555  1.00  0.00     0.044 C 
ENDBRANCH  16  17
ENDBRANCH   6  16
TORSDOF 3
ENDMDL
MODEL 8
REMARK VINA RESULT:    -4.450      2.865      7.588
REMARK INTER + INTRA:          -5.623
REMARK INTER:                  -5.120
REMARK INTRA:                  -0.503
REMARK UNBOUND:                -0.392
REMARK SMILES Cc1ccc(CNC(=O)NC(=O)c2ccc(C)cc2)cc1
REMARK SMILES IDX 11 1 12 2 10 3 8 4 9 5 7 6 13 9 19 10 18 11 14 12 16 13
REMARK SMILES IDX 15 14 17 15 6 16 5 17 4 18 20 19 3 20 21 21 2 22 1 23
REMARK H PARENT 10 7 7 8
ROOT
ATOM      1  C   UNL     1      -0.357   9.514  -9.756  1.00  0.00     0.259 C 
ATOM      2  O   UNL     1      -0.163   9.476  -8.549  1.00  0.00    -0.269 OA
ATOM      3  N   UNL     1       0.086   8.627 -10.742  1.00  0.00    -0.274 N 
ATOM      4  C   UNL     1       0.630   7.369 -10.804  1.00  0.00     0.321 C 
ATOM      5  O   UNL     1       0.765   6.857 -11.920  1.00  0.00    -0.248 OA
ATOM      6  N   UNL     1       0.992   6.661  -9.718  1.00  0.00    -0.334 N 
ATOM      7  H   UNL     1      -0.185   8.880 -11.683  1.00  0.00     0.175 HD
ATOM      8  H   UNL     1       1.295   5.721  -9.929  1.00  0.00     0.165 HD
ENDROOT
BRANCH   1   9
ATOM      9  C   UNL     1      -1.170  10.638 -10.259  1.00  0.00     0.040 A 
ATOM     10  C   UNL     1      -1.647  11.632  -9.403  1.00  0.00     0.014 A 
ATOM     11  C   UNL     1      -2.368  12.703  -9.933  1.00  0.00     0.004 A 
ATOM     12  C   UNL     1      -1.460  10.678 -11.627  1.00  0.00     0.014 A 
ATOM     13  C   UNL     1      -2.619  12.780 -11.311  1.00  0.00    -0.051 A 
ATOM     14  C   UNL     1      -2.174  11.753 -12.152  1.00  0.00     0.004 A 
ATOM     15  C   UNL     1      -3.321  13.980 -11.876  1.00  0.00     0.044 C 
ENDBRANCH   1   9
BRANCH   6  16
ATOM     16  C   UNL     1       0.826   7.025  -8.340  1.00  0.00     0.153 C 
BRANCH  16  17
ATOM     17  C   UNL     1      -0.015   6.119  -7.484  1.00  0.00    -0.029 A 
ATOM     18  C   UNL     1      -0.158   6.289  -6.103  1.00  0.00     0.006 A 
ATOM     19  C   UNL     1      -0.847   5.200  -8.144  1.00  0.00     0.006 A 
ATOM     20  C   UNL     1      -1.135   5.569  -5.406  1.00  0.00     0.004 A 
ATOM     21  C   UNL     1      -1.821   4.489  -7.450  1.00  0.00     0.004 A 
ATOM     22  C   UNL     1      -1.980   4.675  -6.076  1.00  0.00    -0.051 A 
ATOM     23  C   UNL     1      -3.119   4.009  -5.364  1.00  0.00     0.044 C 
ENDBRANCH  16  17
ENDBRANCH   6  16
TORSDOF 3
ENDMDL
MODEL 9
REMARK VINA RESULT:    -3.906      5.903     10.644
REMARK INTER + INTRA:          -4.983
REMARK INTER:                  -4.645
REMARK INTRA:                  -0.339
REMARK UNBOUND:                -0.392
REMARK SMILES Cc1ccc(CNC(=O)NC(=O)c2ccc(C)cc2)cc1
REMARK SMILES IDX 11 1 12 2 10 3 8 4 9 5 7 6 13 9 19 10 18 11 14 12 16 13
REMARK SMILES IDX 15 14 17 15 6 16 5 17 4 18 20 19 3 20 21 21 2 22 1 23
REMARK H PARENT 10 7 7 8
ROOT
ATOM      1  C   UNL     1      -0.099  14.301 -14.696  1.00  0.00     0.259 C 
ATOM      2  O   UNL     1       0.100  14.165 -13.497  1.00  0.00    -0.269 OA
ATOM      3  N   UNL     1      -1.318  14.360 -15.380  1.00  0.00    -0.274 N 
ATOM      4  C   UNL     1      -2.644  14.528 -15.074  1.00  0.00     0.321 C 
ATOM      5  O   UNL     1      -3.436  14.660 -16.013  1.00  0.00    -0.248 OA
ATOM      6  N   UNL     1      -3.116  14.585 -13.815  1.00  0.00    -0.334 N 
ATOM      7  H   UNL     1      -1.229  14.455 -16.383  1.00  0.00     0.175 HD
ATOM      8  H   UNL     1      -4.101  14.799 -13.760  1.00  0.00     0.165 HD
ENDROOT
BRANCH   1   9
ATOM      9  C   UNL     1       1.095  14.427 -15.554  1.00  0.00     0.040 A 
ATOM     10  C   UNL     1       1.544  15.673 -15.998  1.00  0.00     0.014 A 
ATOM     11  C   UNL     1       2.708  15.747 -16.764  1.00  0.00     0.004 A 
ATOM     12  C   UNL     1       1.767  13.257 -15.921  1.00  0.00     0.014 A 
ATOM     13  C   UNL     1       3.419  14.583 -17.094  1.00  0.00    -0.051 A 
ATOM     14  C   UNL     1       2.933  13.337 -16.680  1.00  0.00     0.004 A 
ATOM     15  C   UNL     1       4.713  14.686 -17.845  1.00  0.00     0.044 C 
ENDBRANCH   1   9
BRANCH   6  16
ATOM     16  C   UNL     1      -2.361  14.558 -12.594  1.00  0.00     0.153 C 
BRANCH  16  17
ATOM     17  C   UNL     1      -2.381  13.282 -11.799  1.00  0.00    -0.029 A 
ATOM     18  C   UNL     1      -2.253  12.017 -12.383  1.00  0.00     0.006 A 
ATOM     19  C   UNL     1      -2.314  13.394 -10.401  1.00  0.00     0.006 A 
ATOM     20  C   UNL     1      -2.038  10.893 -11.578  1.00  0.00     0.004 A 
ATOM     21  C   UNL     1      -2.095  12.276  -9.602  1.00  0.00     0.004 A 
ATOM     22  C   UNL     1      -1.944  11.017 -10.184  1.00  0.00    -0.051 A 
ATOM     23  C   UNL     1      -1.573   9.843  -9.329  1.00  0.00     0.044 C 
ENDBRANCH  16  17
ENDBRANCH   6  16
TORSDOF 3
ENDMDL
