MODEL 1
REMARK VINA RESULT:    -6.162      0.000      0.000
REMARK INTER + INTRA:          -7.622
REMARK INTER:                  -7.243
REMARK INTRA:                  -0.379
REMARK UNBOUND:                -0.379
REMARK SMILES Cc1ccc(CNC(=O)NC(=O)c2ccc(C)cc2)cc1
REMARK SMILES IDX 11 1 12 2 10 3 8 4 9 5 7 6 13 9 19 10 18 11 14 12 16 13
REMARK SMILES IDX 15 14 17 15 6 16 5 17 4 18 20 19 3 20 21 21 2 22 1 23
REMARK H PARENT 10 7 7 8
ROOT
ATOM      1  C   UNL     1      -9.643   3.279   5.122  1.00  0.00     0.259 C 
ATOM      2  O   UNL     1      -9.435   2.384   5.929  1.00  0.00    -0.269 OA
ATOM      3  N   UNL     1     -10.787   4.067   4.965  1.00  0.00    -0.274 N 
ATOM      4  C   UNL     1     -11.926   4.354   5.673  1.00  0.00     0.321 C 
ATOM      5  O   UNL     1     -12.665   5.242   5.236  1.00  0.00    -0.248 OA
ATOM      6  N   UNL     1     -12.259   3.742   6.825  1.00  0.00    -0.334 N 
ATOM      7  H   UNL     1     -10.732   4.735   4.207  1.00  0.00     0.175 HD
ATOM      8  H   UNL     1     -13.082   4.127   7.266  1.00  0.00     0.165 HD
ENDROOT
BRANCH   1   9
ATOM      9  C   UNL     1      -8.549   3.587   4.181  1.00  0.00     0.040 A 
ATOM     10  C   UNL     1      -8.541   3.078   2.881  1.00  0.00     0.014 A 
ATOM     11  C   UNL     1      -7.512   3.440   2.011  1.00  0.00     0.004 A 
ATOM     12  C   UNL     1      -7.506   4.404   4.631  1.00  0.00     0.014 A 
ATOM     13  C   UNL     1      -6.489   4.300   2.437  1.00  0.00    -0.051 A 
ATOM     14  C   UNL     1      -6.484   4.768   3.757  1.00  0.00     0.004 A 
ATOM     15  C   UNL     1      -5.437   4.747   1.465  1.00  0.00     0.044 C 
ENDBRANCH   1   9
BRANCH   6  16
ATOM     16  C   UNL     1     -11.496   2.767   7.552  1.00  0.00     0.153 C 
BRANCH  16  17
ATOM     17  C   UNL     1     -11.777   2.627   9.022  1.00  0.00    -0.029 A 
ATOM     18  C   UNL     1     -10.789   2.759  10.004  1.00  0.00     0.006 A 
ATOM     19  C   UNL     1     -13.123   2.572   9.417  1.00  0.00     0.006 A 
ATOM     20  C   UNL     1     -11.151   2.858  11.352  1.00  0.00     0.004 A 
ATOM     21  C   UNL     1     -13.482   2.676  10.757  1.00  0.00     0.004 A 
ATOM     22  C   UNL     1     -12.499   2.830  11.736  1.00  0.00    -0.051 A 
ATOM     23  C   UNL     1     -12.901   3.079  13.159  1.00  0.00     0.044 C 
ENDBRANCH  16  17
ENDBRANCH   6  16
TORSDOF 3
ENDMDL
MODEL 2
REMARK VINA RESULT:    -6.149      3.244      5.521
REMARK INTER + INTRA:          -7.607
REMARK INTER:                  -7.233
REMARK INTRA:                  -0.373
REMARK UNBOUND:                -0.379
REMARK SMILES Cc1ccc(CNC(=O)NC(=O)c2ccc(C)cc2)cc1
REMARK SMILES IDX 11 1 12 2 10 3 8 4 9 5 7 6 13 9 19 10 18 11 14 12 16 13
REMARK SMILES IDX 15 14 17 15 6 16 5 17 4 18 20 19 3 20 21 21 2 22 1 23
REMARK H PARENT 10 7 7 8
ROOT
ATOM      1  C   UNL     1      -9.857   3.356   4.744  1.00  0.00     0.259 C 
ATOM      2  O   UNL     1     -10.112   4.243   3.942  1.00  0.00    -0.269 OA
ATOM      3  N   UNL     1     -10.438   3.110   5.992  1.00  0.00    -0.274 N 
ATOM      4  C   UNL     1     -11.552   3.506   6.686  1.00  0.00     0.321 C 
ATOM      5  O   UNL     1     -11.794   2.935   7.755  1.00  0.00    -0.248 OA
ATOM      6  N   UNL     1     -12.403   4.453   6.251  1.00  0.00    -0.334 N 
ATOM      7  H   UNL     1     -10.042   2.323   6.489  1.00  0.00     0.175 HD
ATOM      8  H   UNL     1     -13.219   4.567   6.835  1.00  0.00     0.165 HD
ENDROOT
BRANCH   1   9
ATOM      9  C   UNL     1      -8.797   2.404   4.360  1.00  0.00     0.040 A 
ATOM     10  C   UNL     1      -7.496   2.524   4.852  1.00  0.00     0.014 A 
ATOM     11  C   UNL     1      -6.542   1.569   4.502  1.00  0.00     0.004 A 
ATOM     12  C   UNL     1      -9.131   1.372   3.477  1.00  0.00     0.014 A 
ATOM     13  C   UNL     1      -6.879   0.500   3.658  1.00  0.00    -0.051 A 
ATOM     14  C   UNL     1      -8.176   0.416   3.135  1.00  0.00     0.004 A 
ATOM     15  C   UNL     1      -5.865  -0.565   3.359  1.00  0.00     0.044 C 
ENDBRANCH   1   9
BRANCH   6  16
ATOM     16  C   UNL     1     -12.364   5.158   5.001  1.00  0.00     0.153 C 
BRANCH  16  17
ATOM     17  C   UNL     1     -13.640   5.798   4.529  1.00  0.00    -0.029 A 
ATOM     18  C   UNL     1     -14.188   5.566   3.263  1.00  0.00     0.006 A 
ATOM     19  C   UNL     1     -14.406   6.485   5.485  1.00  0.00     0.006 A 
ATOM     20  C   UNL     1     -15.488   5.994   2.974  1.00  0.00     0.004 A 
ATOM     21  C   UNL     1     -15.701   6.906   5.197  1.00  0.00     0.004 A 
ATOM     22  C   UNL     1     -16.257   6.655   3.942  1.00  0.00    -0.051 A 
ATOM     23  C   UNL     1     -17.697   6.988   3.688  1.00  0.00     0.044 C 
ENDBRANCH  16  17
ENDBRANCH   6  16
TORSDOF 3
ENDMDL
MODEL 3
REMARK VINA RESULT:    -6.090      0.546      8.016
REMARK INTER + INTRA:          -7.537
REMARK INTER:                  -7.048
REMARK INTRA:                  -0.489
REMARK UNBOUND:                -0.379
REMARK SMILES Cc1ccc(CNC(=O)NC(=O)c2ccc(C)cc2)cc1
REMARK SMILES IDX 11 1 12 2 10 3 8 4 9 5 7 6 13 9 19 10 18 11 14 12 16 13
REMARK SMILES IDX 15 14 17 15 6 16 5 17 4 18 20 19 3 20 21 21 2 22 1 23
REMARK H PARENT 10 7 7 8
ROOT
ATOM      1  C   UNL     1     -11.086   3.038   7.607  1.00  0.00     0.259 C 
ATOM      2  O   UNL     1     -10.060   2.439   7.317  1.00  0.00    -0.269 OA
ATOM      3  N   UNL     1     -11.855   3.893   6.811  1.00  0.00    -0.274 N 
ATOM      4  C   UNL     1     -11.966   4.214   5.482  1.00  0.00     0.321 C 
ATOM      5  O   UNL     1     -12.898   4.951   5.146  1.00  0.00    -0.248 OA
ATOM      6  N   UNL     1     -11.136   3.745   4.532  1.00  0.00    -0.334 N 
ATOM      7  H   UNL     1     -12.657   4.292   7.281  1.00  0.00     0.175 HD
ATOM      8  H   UNL     1     -11.403   4.006   3.594  1.00  0.00     0.165 HD
ENDROOT
BRANCH   1   9
ATOM      9  C   UNL     1     -11.602   2.841   8.975  1.00  0.00     0.040 A 
ATOM     10  C   UNL     1     -10.746   2.808  10.078  1.00  0.00     0.014 A 
ATOM     11  C   UNL     1     -11.285   2.673  11.358  1.00  0.00     0.004 A 
ATOM     12  C   UNL     1     -12.981   2.680   9.140  1.00  0.00     0.014 A 
ATOM     13  C   UNL     1     -12.672   2.563  11.539  1.00  0.00    -0.051 A 
ATOM     14  C   UNL     1     -13.516   2.552  10.421  1.00  0.00     0.004 A 
ATOM     15  C   UNL     1     -13.242   2.503  12.925  1.00  0.00     0.044 C 
ENDBRANCH   1   9
BRANCH   6  16
ATOM     16  C   UNL     1     -10.063   2.804   4.692  1.00  0.00     0.153 C 
BRANCH  16  17
ATOM     17  C   UNL     1      -8.773   3.100   3.978  1.00  0.00    -0.029 A 
ATOM     18  C   UNL     1      -8.501   2.660   2.679  1.00  0.00     0.006 A 
ATOM     19  C   UNL     1      -7.908   4.033   4.573  1.00  0.00     0.006 A 
ATOM     20  C   UNL     1      -7.397   3.165   1.985  1.00  0.00     0.004 A 
ATOM     21  C   UNL     1      -6.813   4.539   3.880  1.00  0.00     0.004 A 
ATOM     22  C   UNL     1      -6.554   4.117   2.575  1.00  0.00    -0.051 A 
ATOM     23  C   UNL     1      -5.455   4.768   1.789  1.00  0.00     0.044 C 
ENDBRANCH  16  17
ENDBRANCH   6  16
TORSDOF 3
ENDMDL
MODEL 4
REMARK VINA RESULT:    -6.060      3.130      7.327
REMARK INTER + INTRA:          -7.502
REMARK INTER:                  -7.013
REMARK INTRA:                  -0.489
REMARK UNBOUND:                -0.379
REMARK SMILES Cc1ccc(CNC(=O)NC(=O)c2ccc(C)cc2)cc1
REMARK SMILES IDX 11 1 12 2 10 3 8 4 9 5 7 6 13 9 19 10 18 11 14 12 16 13
REMARK SMILES IDX 15 14 17 15 6 16 5 17 4 18 20 19 3 20 21 21 2 22 1 23
REMARK H PARENT 10 7 7 8
ROOT
ATOM      1  C   UNL     1     -12.357   4.819   4.714  1.00  0.00     0.259 C 
ATOM      2  O   UNL     1     -11.503   4.857   3.840  1.00  0.00    -0.269 OA
ATOM      3  N   UNL     1     -12.310   4.178   5.956  1.00  0.00    -0.274 N 
ATOM      4  C   UNL     1     -11.362   3.605   6.766  1.00  0.00     0.321 C 
ATOM      5  O   UNL     1     -11.713   3.250   7.896  1.00  0.00    -0.248 OA
ATOM      6  N   UNL     1     -10.076   3.441   6.405  1.00  0.00    -0.334 N 
ATOM      7  H   UNL     1     -13.154   4.270   6.506  1.00  0.00     0.175 HD
ATOM      8  H   UNL     1      -9.489   3.083   7.144  1.00  0.00     0.165 HD
ENDROOT
BRANCH   1   9
ATOM      9  C   UNL     1     -13.613   5.546   4.444  1.00  0.00     0.040 A 
ATOM     10  C   UNL     1     -14.225   5.499   3.191  1.00  0.00     0.014 A 
ATOM     11  C   UNL     1     -15.439   6.160   2.998  1.00  0.00     0.004 A 
ATOM     12  C   UNL     1     -14.174   6.295   5.483  1.00  0.00     0.014 A 
ATOM     13  C   UNL     1     -16.037   6.871   4.049  1.00  0.00    -0.051 A 
ATOM     14  C   UNL     1     -15.390   6.948   5.288  1.00  0.00     0.004 A 
ATOM     15  C   UNL     1     -17.383   7.505   3.850  1.00  0.00     0.044 C 
ENDBRANCH   1   9
BRANCH   6  16
ATOM     16  C   UNL     1      -9.445   3.874   5.190  1.00  0.00     0.153 C 
BRANCH  16  17
ATOM     17  C   UNL     1      -8.505   2.911   4.520  1.00  0.00    -0.029 A 
ATOM     18  C   UNL     1      -7.131   2.879   4.781  1.00  0.00     0.006 A 
ATOM     19  C   UNL     1      -9.076   1.873   3.766  1.00  0.00     0.006 A 
ATOM     20  C   UNL     1      -6.354   1.814   4.314  1.00  0.00     0.004 A 
ATOM     21  C   UNL     1      -8.303   0.811   3.307  1.00  0.00     0.004 A 
ATOM     22  C   UNL     1      -6.936   0.767   3.586  1.00  0.00    -0.051 A 
ATOM     23  C   UNL     1      -6.140  -0.446   3.206  1.00  0.00     0.044 C 
ENDBRANCH  16  17
ENDBRANCH   6  16
TORSDOF 3
ENDMDL
MODEL 5
REMARK VINA RESULT:    -5.771      3.061      7.730
REMARK INTER + INTRA:          -7.162
REMARK INTER:                  -6.696
REMARK INTRA:                  -0.467
REMARK UNBOUND:                -0.379
REMARK SMILES Cc1ccc(CNC(=O)NC(=O)c2ccc(C)cc2)cc1
REMARK SMILES IDX 11 1 12 2 10 3 8 4 9 5 7 6 13 9 19 10 18 11 14 12 16 13
REMARK SMILES IDX 15 14 17 15 6 16 5 17 4 18 20 19 3 20 21 21 2 22 1 23
REMARK H PARENT 10 7 7 8
ROOT
ATOM      1  C   UNL     1     -12.335   4.988   4.609  1.00  0.00     0.259 C 
ATOM      2  O   UNL     1     -11.469   5.228   3.779  1.00  0.00    -0.269 OA
ATOM      3  N   UNL     1     -12.259   4.169   5.740  1.00  0.00    -0.274 N 
ATOM      4  C   UNL     1     -11.284   3.555   6.484  1.00  0.00     0.321 C 
ATOM      5  O   UNL     1     -11.627   3.003   7.535  1.00  0.00    -0.248 OA
ATOM      6  N   UNL     1      -9.982   3.552   6.145  1.00  0.00    -0.334 N 
ATOM      7  H   UNL     1     -13.119   4.108   6.269  1.00  0.00     0.175 HD
ATOM      8  H   UNL     1      -9.382   3.132   6.841  1.00  0.00     0.165 HD
ENDROOT
BRANCH   1   9
ATOM      9  C   UNL     1     -13.641   5.645   4.411  1.00  0.00     0.040 A 
ATOM     10  C   UNL     1     -14.309   5.583   3.186  1.00  0.00     0.014 A 
ATOM     11  C   UNL     1     -15.565   6.176   3.063  1.00  0.00     0.004 A 
ATOM     12  C   UNL     1     -14.194   6.344   5.488  1.00  0.00     0.014 A 
ATOM     13  C   UNL     1     -16.153   6.835   4.153  1.00  0.00    -0.051 A 
ATOM     14  C   UNL     1     -15.453   6.929   5.362  1.00  0.00     0.004 A 
ATOM     15  C   UNL     1     -17.540   7.393   4.029  1.00  0.00     0.044 C 
ENDBRANCH   1   9
BRANCH   6  16
ATOM     16  C   UNL     1      -9.364   4.215   5.032  1.00  0.00     0.153 C 
BRANCH  16  17
ATOM     17  C   UNL     1      -8.405   3.414   4.197  1.00  0.00    -0.029 A 
ATOM     18  C   UNL     1      -8.391   3.456   2.799  1.00  0.00     0.006 A 
ATOM     19  C   UNL     1      -7.353   2.768   4.867  1.00  0.00     0.006 A 
ATOM     20  C   UNL     1      -7.329   2.882   2.092  1.00  0.00     0.004 A 
ATOM     21  C   UNL     1      -6.295   2.202   4.163  1.00  0.00     0.004 A 
ATOM     22  C   UNL     1      -6.268   2.263   2.768  1.00  0.00    -0.051 A 
ATOM     23  C   UNL     1      -5.061   1.774   2.027  1.00  0.00     0.044 C 
ENDBRANCH  16  17
ENDBRANCH   6  16
TORSDOF 3
ENDMDL
MODEL 6
REMARK VINA RESULT:    -4.941      3.118      5.251
REMARK INTER + INTRA:          -6.187
REMARK INTER:                  -5.809
REMARK INTRA:                  -0.378
REMARK UNBOUND:                -0.379
REMARK SMILES Cc1ccc(CNC(=O)NC(=O)c2ccc(C)cc2)cc1
REMARK SMILES IDX 11 1 12 2 10 3 8 4 9 5 7 6 13 9 19 10 18 11 14 12 16 13
REMARK SMILES IDX 15 14 17 15 6 16 5 17 4 18 20 19 3 20 21 21 2 22 1 23
REMARK H PARENT 10 7 7 8
ROOT
ATOM      1  C   UNL     1      -9.593   3.851   4.390  1.00  0.00     0.259 C 
ATOM      2  O   UNL     1     -10.060   4.769   3.731  1.00  0.00    -0.269 OA
ATOM      3  N   UNL     1     -10.027   3.347   5.620  1.00  0.00    -0.274 N 
ATOM      4  C   UNL     1     -11.139   3.440   6.418  1.00  0.00     0.321 C 
ATOM      5  O   UNL     1     -11.196   2.705   7.409  1.00  0.00    -0.248 OA
ATOM      6  N   UNL     1     -12.174   4.261   6.159  1.00  0.00    -0.334 N 
ATOM      7  H   UNL     1      -9.462   2.591   5.984  1.00  0.00     0.175 HD
ATOM      8  H   UNL     1     -12.951   4.148   6.794  1.00  0.00     0.165 HD
ENDROOT
BRANCH   1   9
ATOM      9  C   UNL     1      -8.414   3.166   3.826  1.00  0.00     0.040 A 
ATOM     10  C   UNL     1      -8.030   3.354   2.497  1.00  0.00     0.014 A 
ATOM     11  C   UNL     1      -6.877   2.726   2.023  1.00  0.00     0.004 A 
ATOM     12  C   UNL     1      -7.688   2.312   4.662  1.00  0.00     0.014 A 
ATOM     13  C   UNL     1      -6.113   1.908   2.868  1.00  0.00    -0.051 A 
ATOM     14  C   UNL     1      -6.534   1.692   4.186  1.00  0.00     0.004 A 
ATOM     15  C   UNL     1      -4.832   1.308   2.369  1.00  0.00     0.044 C 
ENDBRANCH   1   9
BRANCH   6  16
ATOM     16  C   UNL     1     -12.353   5.112   5.017  1.00  0.00     0.153 C 
BRANCH  16  17
ATOM     17  C   UNL     1     -13.754   5.556   4.700  1.00  0.00    -0.029 A 
ATOM     18  C   UNL     1     -14.519   6.344   5.567  1.00  0.00     0.006 A 
ATOM     19  C   UNL     1     -14.217   5.340   3.392  1.00  0.00     0.006 A 
ATOM     20  C   UNL     1     -15.712   6.921   5.118  1.00  0.00     0.004 A 
ATOM     21  C   UNL     1     -15.400   5.919   2.946  1.00  0.00     0.004 A 
ATOM     22  C   UNL     1     -16.153   6.724   3.802  1.00  0.00    -0.051 A 
ATOM     23  C   UNL     1     -17.352   7.453   3.273  1.00  0.00     0.044 C 
ENDBRANCH  16  17
ENDBRANCH   6  16
TORSDOF 3
ENDMDL
MODEL 7
REMARK VINA RESULT:    -4.428      1.887      8.191
REMARK INTER + INTRA:          -5.584
REMARK INTER:                  -5.173
REMARK INTRA:                  -0.412
REMARK UNBOUND:                -0.379
REMARK SMILES Cc1ccc(CNC(=O)NC(=O)c2ccc(C)cc2)cc1
REMARK SMILES IDX 11 1 12 2 10 3 8 4 9 5 7 6 13 9 19 10 18 11 14 12 16 13
REMARK SMILES IDX 15 14 17 15 6 16 5 17 4 18 20 19 3 20 21 21 2 22 1 23
REMARK H PARENT 10 7 7 8
ROOT
ATOM      1  C   UNL     1     -10.825   2.808   6.773  1.00  0.00     0.259 C 
ATOM      2  O   UNL     1      -9.961   3.650   6.568  1.00  0.00    -0.269 OA
ATOM      3  N   UNL     1     -11.377   1.886   5.879  1.00  0.00    -0.274 N 
ATOM      4  C   UNL     1     -11.091   1.384   4.636  1.00  0.00     0.321 C 
ATOM      5  O   UNL     1     -11.779   0.443   4.225  1.00  0.00    -0.248 OA
ATOM      6  N   UNL     1     -10.090   1.841   3.861  1.00  0.00    -0.334 N 
ATOM      7  H   UNL     1     -12.099   1.300   6.278  1.00  0.00     0.175 HD
ATOM      8  H   UNL     1      -9.957   1.309   3.012  1.00  0.00     0.165 HD
ENDROOT
BRANCH   1   9
ATOM      9  C   UNL     1     -11.366   2.738   8.144  1.00  0.00     0.040 A 
ATOM     10  C   UNL     1     -10.525   2.679   9.257  1.00  0.00     0.014 A 
ATOM     11  C   UNL     1     -11.083   2.666  10.536  1.00  0.00     0.004 A 
ATOM     12  C   UNL     1     -12.755   2.724   8.301  1.00  0.00     0.014 A 
ATOM     13  C   UNL     1     -12.475   2.705  10.706  1.00  0.00    -0.051 A 
ATOM     14  C   UNL     1     -13.308   2.718   9.581  1.00  0.00     0.004 A 
ATOM     15  C   UNL     1     -13.056   2.776  12.087  1.00  0.00     0.044 C 
ENDBRANCH   1   9
BRANCH   6  16
ATOM     16  C   UNL     1      -9.118   2.845   4.188  1.00  0.00     0.153 C 
BRANCH  16  17
ATOM     17  C   UNL     1      -7.717   2.639   3.683  1.00  0.00    -0.029 A 
ATOM     18  C   UNL     1      -6.929   1.542   4.046  1.00  0.00     0.006 A 
ATOM     19  C   UNL     1      -7.276   3.478   2.647  1.00  0.00     0.006 A 
ATOM     20  C   UNL     1      -5.736   1.281   3.363  1.00  0.00     0.004 A 
ATOM     21  C   UNL     1      -6.093   3.214   1.965  1.00  0.00     0.004 A 
ATOM     22  C   UNL     1      -5.317   2.106   2.310  1.00  0.00    -0.051 A 
ATOM     23  C   UNL     1      -4.118   1.753   1.482  1.00  0.00     0.044 C 
ENDBRANCH  16  17
ENDBRANCH   6  16
TORSDOF 3
ENDMDL
MODEL 8
REMARK VINA RESULT:    -4.384      5.623      8.907
REMARK INTER + INTRA:          -5.533
REMARK INTER:                  -5.009
REMARK INTRA:                  -0.524
REMARK UNBOUND:                -0.379
REMARK SMILES Cc1ccc(CNC(=O)NC(=O)c2ccc(C)cc2)cc1
REMARK SMILES IDX 11 1 12 2 10 3 8 4 9 5 7 6 13 9 19 10 18 11 14 12 16 13
REMARK SMILES IDX 15 14 17 15 6 16 5 17 4 18 20 19 3 20 21 21 2 22 1 23
REMARK H PARENT 10 7 7 8
ROOT
ATOM      1  C   UNL     1     -16.734   6.047  10.508  1.00  0.00     0.259 C 
ATOM      2  O   UNL     1     -16.864   4.856  10.260  1.00  0.00    -0.269 OA
ATOM      3  N   UNL     1     -16.147   6.649  11.625  1.00  0.00    -0.274 N 
ATOM      4  C   UNL     1     -15.342   6.277  12.671  1.00  0.00     0.321 C 
ATOM      5  O   UNL     1     -14.912   7.169  13.410  1.00  0.00    -0.248 OA
ATOM      6  N   UNL     1     -14.976   5.004  12.912  1.00  0.00    -0.334 N 
ATOM      7  H   UNL     1     -16.177   7.660  11.618  1.00  0.00     0.175 HD
ATOM      8  H   UNL     1     -14.312   4.908  13.667  1.00  0.00     0.165 HD
ENDROOT
BRANCH   1   9
ATOM      9  C   UNL     1     -17.257   6.992   9.503  1.00  0.00     0.040 A 
ATOM     10  C   UNL     1     -17.865   8.191   9.878  1.00  0.00     0.014 A 
ATOM     11  C   UNL     1     -18.297   9.077   8.891  1.00  0.00     0.004 A 
ATOM     12  C   UNL     1     -17.134   6.649   8.153  1.00  0.00     0.014 A 
ATOM     13  C   UNL     1     -18.131   8.766   7.533  1.00  0.00    -0.051 A 
ATOM     14  C   UNL     1     -17.561   7.540   7.170  1.00  0.00     0.004 A 
ATOM     15  C   UNL     1     -18.523   9.766   6.484  1.00  0.00     0.044 C 
ENDBRANCH   1   9
BRANCH   6  16
ATOM     16  C   UNL     1     -15.276   3.842  12.124  1.00  0.00     0.153 C 
BRANCH  16  17
ATOM     17  C   UNL     1     -14.150   3.234  11.335  1.00  0.00    -0.029 A 
ATOM     18  C   UNL     1     -14.248   2.932   9.973  1.00  0.00     0.006 A 
ATOM     19  C   UNL     1     -12.891   3.170  11.955  1.00  0.00     0.006 A 
ATOM     20  C   UNL     1     -13.101   2.597   9.245  1.00  0.00     0.004 A 
ATOM     21  C   UNL     1     -11.750   2.842  11.229  1.00  0.00     0.004 A 
ATOM     22  C   UNL     1     -11.844   2.562   9.865  1.00  0.00    -0.051 A 
ATOM     23  C   UNL     1     -10.595   2.345   9.064  1.00  0.00     0.044 C 
ENDBRANCH  16  17
ENDBRANCH   6  16
TORSDOF 3
ENDMDL
