MODEL 1
REMARK VINA RESULT:    -6.181      0.000      0.000
REMARK INTER + INTRA:          -7.755
REMARK INTER:                  -7.265
REMARK INTRA:                  -0.490
REMARK UNBOUND:                -0.490
REMARK SMILES Cc1ccc(CNC(=O)NC(=O)c2ccc(C)cc2)cc1
REMARK SMILES IDX 11 1 12 2 10 3 8 4 9 5 7 6 13 9 19 10 18 11 14 12 16 13
REMARK SMILES IDX 15 14 17 15 6 16 5 17 4 18 20 19 3 20 21 21 2 22 1 23
REMARK H PARENT 10 7 7 8
ROOT
ATOM      1  C   UNL     1       7.467  -1.247 -11.124  1.00  0.00     0.259 C 
ATOM      2  O   UNL     1       7.344  -1.142  -9.912  1.00  0.00    -0.269 OA
ATOM      3  N   UNL     1       6.496  -1.090 -12.119  1.00  0.00    -0.274 N 
ATOM      4  C   UNL     1       5.229  -0.578 -12.226  1.00  0.00     0.321 C 
ATOM      5  O   UNL     1       4.735  -0.500 -13.356  1.00  0.00    -0.248 OA
ATOM      6  N   UNL     1       4.515  -0.133 -11.175  1.00  0.00    -0.334 N 
ATOM      7  H   UNL     1       6.833  -1.249 -13.059  1.00  0.00     0.175 HD
ATOM      8  H   UNL     1       3.635   0.292 -11.432  1.00  0.00     0.165 HD
ENDROOT
BRANCH   1   9
ATOM      9  C   UNL     1       8.814  -1.578 -11.625  1.00  0.00     0.040 A 
ATOM     10  C   UNL     1       9.642  -2.477 -10.950  1.00  0.00     0.014 A 
ATOM     11  C   UNL     1      10.887  -2.799 -11.491  1.00  0.00     0.004 A 
ATOM     12  C   UNL     1       9.248  -0.958 -12.801  1.00  0.00     0.014 A 
ATOM     13  C   UNL     1      11.311  -2.222 -12.697  1.00  0.00    -0.051 A 
ATOM     14  C   UNL     1      10.490  -1.288 -13.341  1.00  0.00     0.004 A 
ATOM     15  C   UNL     1      12.615  -2.642 -13.309  1.00  0.00     0.044 C 
ENDBRANCH   1   9
BRANCH   6  16
ATOM     16  C   UNL     1       4.936  -0.039  -9.806  1.00  0.00     0.153 C 
BRANCH  16  17
ATOM     17  C   UNL     1       3.956  -0.470  -8.751  1.00  0.00    -0.029 A 
ATOM     18  C   UNL     1       3.000   0.390  -8.200  1.00  0.00     0.006 A 
ATOM     19  C   UNL     1       3.874  -1.844  -8.473  1.00  0.00     0.006 A 
ATOM     20  C   UNL     1       1.969  -0.126  -7.407  1.00  0.00     0.004 A 
ATOM     21  C   UNL     1       2.845  -2.356  -7.688  1.00  0.00     0.004 A 
ATOM     22  C   UNL     1       1.877  -1.502  -7.157  1.00  0.00    -0.051 A 
ATOM     23  C   UNL     1       0.699  -2.077  -6.430  1.00  0.00     0.044 C 
ENDBRANCH  16  17
ENDBRANCH   6  16
TORSDOF 3
ENDMDL
MODEL 2
REMARK VINA RESULT:    -6.168      3.034      5.479
REMARK INTER + INTRA:          -7.739
REMARK INTER:                  -7.250
REMARK INTRA:                  -0.490
REMARK UNBOUND:                -0.490
REMARK SMILES Cc1ccc(CNC(=O)NC(=O)c2ccc(C)cc2)cc1
REMARK SMILES IDX 11 1 12 2 10 3 8 4 9 5 7 6 13 9 19 10 18 11 14 12 16 13
REMARK SMILES IDX 15 14 17 15 6 16 5 17 4 18 20 19 3 20 21 21 2 22 1 23
REMARK H PARENT 10 7 7 8
ROOT
ATOM      1  C   UNL     1       4.324  -0.422 -12.758  1.00  0.00     0.259 C 
ATOM      2  O   UNL     1       3.431  -0.355 -11.926  1.00  0.00    -0.269 OA
ATOM      3  N   UNL     1       5.691  -0.641 -12.559  1.00  0.00    -0.274 N 
ATOM      4  C   UNL     1       6.512  -1.071 -11.548  1.00  0.00     0.321 C 
ATOM      5  O   UNL     1       7.702  -1.265 -11.819  1.00  0.00    -0.248 OA
ATOM      6  N   UNL     1       6.083  -1.321 -10.297  1.00  0.00    -0.334 N 
ATOM      7  H   UNL     1       6.242  -0.633 -13.407  1.00  0.00     0.175 HD
ATOM      8  H   UNL     1       6.792  -1.713  -9.695  1.00  0.00     0.165 HD
ENDROOT
BRANCH   1   9
ATOM      9  C   UNL     1       3.926  -0.256 -14.169  1.00  0.00     0.040 A 
ATOM     10  C   UNL     1       2.963   0.680 -14.549  1.00  0.00     0.014 A 
ATOM     11  C   UNL     1       2.658   0.837 -15.902  1.00  0.00     0.004 A 
ATOM     12  C   UNL     1       4.539  -1.074 -15.124  1.00  0.00     0.014 A 
ATOM     13  C   UNL     1       3.305   0.058 -16.873  1.00  0.00    -0.051 A 
ATOM     14  C   UNL     1       4.236  -0.909 -16.475  1.00  0.00     0.004 A 
ATOM     15  C   UNL     1       3.028   0.297 -18.328  1.00  0.00     0.044 C 
ENDBRANCH   1   9
BRANCH   6  16
ATOM     16  C   UNL     1       4.736  -1.261  -9.804  1.00  0.00     0.153 C 
BRANCH  16  17
ATOM     17  C   UNL     1       4.520  -0.622  -8.461  1.00  0.00    -0.029 A 
ATOM     18  C   UNL     1       4.587  -1.331  -7.258  1.00  0.00     0.006 A 
ATOM     19  C   UNL     1       4.459   0.781  -8.419  1.00  0.00     0.006 A 
ATOM     20  C   UNL     1       4.618  -0.644  -6.040  1.00  0.00     0.004 A 
ATOM     21  C   UNL     1       4.494   1.464  -7.207  1.00  0.00     0.004 A 
ATOM     22  C   UNL     1       4.585   0.757  -6.007  1.00  0.00    -0.051 A 
ATOM     23  C   UNL     1       4.760   1.504  -4.718  1.00  0.00     0.044 C 
ENDBRANCH  16  17
ENDBRANCH   6  16
TORSDOF 3
ENDMDL
MODEL 3
REMARK VINA RESULT:    -6.159      3.140      7.280
REMARK INTER + INTRA:          -7.729
REMARK INTER:                  -7.336
REMARK INTRA:                  -0.393
REMARK UNBOUND:                -0.490
REMARK SMILES Cc1ccc(CNC(=O)NC(=O)c2ccc(C)cc2)cc1
REMARK SMILES IDX 11 1 12 2 10 3 8 4 9 5 7 6 13 9 19 10 18 11 14 12 16 13
REMARK SMILES IDX 15 14 17 15 6 16 5 17 4 18 20 19 3 20 21 21 2 22 1 23
REMARK H PARENT 10 7 7 8
ROOT
ATOM      1  C   UNL     1       4.708  -0.536  -9.884  1.00  0.00     0.259 C 
ATOM      2  O   UNL     1       3.621  -0.710 -10.418  1.00  0.00    -0.269 OA
ATOM      3  N   UNL     1       5.986  -0.711 -10.424  1.00  0.00    -0.274 N 
ATOM      4  C   UNL     1       6.548  -0.876 -11.664  1.00  0.00     0.321 C 
ATOM      5  O   UNL     1       7.782  -0.861 -11.740  1.00  0.00    -0.248 OA
ATOM      6  N   UNL     1       5.831  -1.021 -12.793  1.00  0.00    -0.334 N 
ATOM      7  H   UNL     1       6.741  -0.524  -9.777  1.00  0.00     0.175 HD
ATOM      8  H   UNL     1       6.393  -1.045 -13.632  1.00  0.00     0.165 HD
ENDROOT
BRANCH   1   9
ATOM      9  C   UNL     1       4.689  -0.076  -8.483  1.00  0.00     0.040 A 
ATOM     10  C   UNL     1       4.890  -0.961  -7.423  1.00  0.00     0.014 A 
ATOM     11  C   UNL     1       4.916  -0.470  -6.117  1.00  0.00     0.004 A 
ATOM     12  C   UNL     1       4.456   1.282  -8.241  1.00  0.00     0.014 A 
ATOM     13  C   UNL     1       4.734   0.898  -5.867  1.00  0.00    -0.051 A 
ATOM     14  C   UNL     1       4.489   1.769  -6.935  1.00  0.00     0.004 A 
ATOM     15  C   UNL     1       4.850   1.423  -4.466  1.00  0.00     0.044 C 
ENDBRANCH   1   9
BRANCH   6  16
ATOM     16  C   UNL     1       4.404  -0.963 -12.938  1.00  0.00     0.153 C 
BRANCH  16  17
ATOM     17  C   UNL     1       3.863  -0.522 -14.270  1.00  0.00    -0.029 A 
ATOM     18  C   UNL     1       3.025   0.587 -14.425  1.00  0.00     0.006 A 
ATOM     19  C   UNL     1       4.399  -1.133 -15.416  1.00  0.00     0.006 A 
ATOM     20  C   UNL     1       2.753   1.086 -15.703  1.00  0.00     0.004 A 
ATOM     21  C   UNL     1       4.132  -0.632 -16.686  1.00  0.00     0.004 A 
ATOM     22  C   UNL     1       3.314   0.488 -16.840  1.00  0.00    -0.051 A 
ATOM     23  C   UNL     1       3.144   1.101 -18.198  1.00  0.00     0.044 C 
ENDBRANCH  16  17
ENDBRANCH   6  16
TORSDOF 3
ENDMDL
MODEL 4
REMARK VINA RESULT:    -6.153      0.564      7.980
REMARK INTER + INTRA:          -7.722
REMARK INTER:                  -7.327
REMARK INTRA:                  -0.395
REMARK UNBOUND:                -0.490
REMARK SMILES Cc1ccc(CNC(=O)NC(=O)c2ccc(C)cc2)cc1
REMARK SMILES IDX 11 1 12 2 10 3 8 4 9 5 7 6 13 9 19 10 18 11 14 12 16 13
REMARK SMILES IDX 15 14 17 15 6 16 5 17 4 18 20 19 3 20 21 21 2 22 1 23
REMARK H PARENT 10 7 7 8
ROOT
ATOM      1  C   UNL     1       4.980  -0.741  -9.737  1.00  0.00     0.259 C 
ATOM      2  O   UNL     1       6.074  -0.561  -9.222  1.00  0.00    -0.269 OA
ATOM      3  N   UNL     1       4.641  -0.746 -11.094  1.00  0.00    -0.274 N 
ATOM      4  C   UNL     1       5.291  -0.804 -12.300  1.00  0.00     0.321 C 
ATOM      5  O   UNL     1       4.601  -0.926 -13.318  1.00  0.00    -0.248 OA
ATOM      6  N   UNL     1       6.631  -0.766 -12.427  1.00  0.00    -0.334 N 
ATOM      7  H   UNL     1       3.659  -0.897 -11.278  1.00  0.00     0.175 HD
ATOM      8  H   UNL     1       6.954  -0.906 -13.373  1.00  0.00     0.165 HD
ENDROOT
BRANCH   1   9
ATOM      9  C   UNL     1       3.852  -0.994  -8.821  1.00  0.00     0.040 A 
ATOM     10  C   UNL     1       2.964   0.021  -8.461  1.00  0.00     0.014 A 
ATOM     11  C   UNL     1       1.882  -0.278  -7.633  1.00  0.00     0.004 A 
ATOM     12  C   UNL     1       3.697  -2.287  -8.311  1.00  0.00     0.014 A 
ATOM     13  C   UNL     1       1.688  -1.584  -7.158  1.00  0.00    -0.051 A 
ATOM     14  C   UNL     1       2.611  -2.583  -7.489  1.00  0.00     0.004 A 
ATOM     15  C   UNL     1       0.473  -1.908  -6.339  1.00  0.00     0.044 C 
ENDBRANCH   1   9
BRANCH   6  16
ATOM     16  C   UNL     1       7.609  -0.732 -11.377  1.00  0.00     0.153 C 
BRANCH  16  17
ATOM     17  C   UNL     1       8.959  -1.324 -11.672  1.00  0.00    -0.029 A 
ATOM     18  C   UNL     1       9.509  -2.378 -10.936  1.00  0.00     0.006 A 
ATOM     19  C   UNL     1       9.586  -0.931 -12.866  1.00  0.00     0.006 A 
ATOM     20  C   UNL     1      10.649  -3.040 -11.404  1.00  0.00     0.004 A 
ATOM     21  C   UNL     1      10.717  -1.593 -13.333  1.00  0.00     0.004 A 
ATOM     22  C   UNL     1      11.253  -2.660 -12.611  1.00  0.00    -0.051 A 
ATOM     23  C   UNL     1      12.386  -3.453 -13.190  1.00  0.00     0.044 C 
ENDBRANCH  16  17
ENDBRANCH   6  16
TORSDOF 3
ENDMDL
MODEL 5
REMARK VINA RESULT:    -5.906      2.931      5.257
REMARK INTER + INTRA:          -7.431
REMARK INTER:                  -6.923
REMARK INTRA:                  -0.508
REMARK UNBOUND:                -0.490
REMARK SMILES Cc1ccc(CNC(=O)NC(=O)c2ccc(C)cc2)cc1
REMARK SMILES IDX 11 1 12 2 10 3 8 4 9 5 7 6 13 9 19 10 18 11 14 12 16 13
REMARK SMILES IDX 15 14 17 15 6 16 5 17 4 18 20 19 3 20 21 21 2 22 1 23
REMARK H PARENT 10 7 7 8
ROOT
ATOM      1  C   UNL     1       4.299  -0.821 -13.183  1.00  0.00     0.259 C 
ATOM      2  O   UNL     1       3.384  -1.263 -12.503  1.00  0.00    -0.269 OA
ATOM      3  N   UNL     1       5.641  -0.638 -12.834  1.00  0.00    -0.274 N 
ATOM      4  C   UNL     1       6.490  -1.034 -11.833  1.00  0.00     0.321 C 
ATOM      5  O   UNL     1       7.689  -0.760 -11.956  1.00  0.00    -0.248 OA
ATOM      6  N   UNL     1       6.092  -1.725 -10.749  1.00  0.00    -0.334 N 
ATOM      7  H   UNL     1       6.211  -0.233 -13.565  1.00  0.00     0.175 HD
ATOM      8  H   UNL     1       6.852  -2.014 -10.149  1.00  0.00     0.165 HD
ENDROOT
BRANCH   1   9
ATOM      9  C   UNL     1       3.964  -0.427 -14.565  1.00  0.00     0.040 A 
ATOM     10  C   UNL     1       4.545  -1.062 -15.665  1.00  0.00     0.014 A 
ATOM     11  C   UNL     1       4.157  -0.691 -16.952  1.00  0.00     0.004 A 
ATOM     12  C   UNL     1       3.046   0.612 -14.748  1.00  0.00     0.014 A 
ATOM     13  C   UNL     1       3.199   0.316 -17.145  1.00  0.00    -0.051 A 
ATOM     14  C   UNL     1       2.657   0.975 -16.035  1.00  0.00     0.004 A 
ATOM     15  C   UNL     1       2.730   0.644 -18.532  1.00  0.00     0.044 C 
ENDBRANCH   1   9
BRANCH   6  16
ATOM     16  C   UNL     1       4.778  -2.229 -10.465  1.00  0.00     0.153 C 
BRANCH  16  17
ATOM     17  C   UNL     1       4.117  -1.760  -9.199  1.00  0.00    -0.029 A 
ATOM     18  C   UNL     1       3.852  -0.413  -8.930  1.00  0.00     0.006 A 
ATOM     19  C   UNL     1       3.562  -2.741  -8.362  1.00  0.00     0.006 A 
ATOM     20  C   UNL     1       3.026  -0.063  -7.857  1.00  0.00     0.004 A 
ATOM     21  C   UNL     1       2.737  -2.391  -7.297  1.00  0.00     0.004 A 
ATOM     22  C   UNL     1       2.453  -1.049  -7.042  1.00  0.00    -0.051 A 
ATOM     23  C   UNL     1       1.456  -0.690  -5.981  1.00  0.00     0.044 C 
ENDBRANCH  16  17
ENDBRANCH   6  16
TORSDOF 3
ENDMDL
MODEL 6
REMARK VINA RESULT:    -5.754      1.116      1.765
REMARK INTER + INTRA:          -7.253
REMARK INTER:                  -6.795
REMARK INTRA:                  -0.457
REMARK UNBOUND:                -0.490
REMARK SMILES Cc1ccc(CNC(=O)NC(=O)c2ccc(C)cc2)cc1
REMARK SMILES IDX 11 1 12 2 10 3 8 4 9 5 7 6 13 9 19 10 18 11 14 12 16 13
REMARK SMILES IDX 15 14 17 15 6 16 5 17 4 18 20 19 3 20 21 21 2 22 1 23
REMARK H PARENT 10 7 7 8
ROOT
ATOM      1  C   UNL     1       7.455  -1.194 -11.016  1.00  0.00     0.259 C 
ATOM      2  O   UNL     1       7.511  -0.833  -9.849  1.00  0.00    -0.269 OA
ATOM      3  N   UNL     1       6.333  -1.324 -11.840  1.00  0.00    -0.274 N 
ATOM      4  C   UNL     1       5.019  -0.932 -11.832  1.00  0.00     0.321 C 
ATOM      5  O   UNL     1       4.353  -1.137 -12.852  1.00  0.00    -0.248 OA
ATOM      6  N   UNL     1       4.434  -0.313 -10.790  1.00  0.00    -0.334 N 
ATOM      7  H   UNL     1       6.536  -1.665 -12.771  1.00  0.00     0.175 HD
ATOM      8  H   UNL     1       3.487  -0.013 -10.974  1.00  0.00     0.165 HD
ENDROOT
BRANCH   1   9
ATOM      9  C   UNL     1       8.736  -1.540 -11.662  1.00  0.00     0.040 A 
ATOM     10  C   UNL     1       9.111  -0.979 -12.884  1.00  0.00     0.014 A 
ATOM     11  C   UNL     1      10.355  -1.296 -13.430  1.00  0.00     0.004 A 
ATOM     12  C   UNL     1       9.571  -2.458 -11.017  1.00  0.00     0.014 A 
ATOM     13  C   UNL     1      11.221  -2.176 -12.765  1.00  0.00    -0.051 A 
ATOM     14  C   UNL     1      10.815  -2.767 -11.562  1.00  0.00     0.004 A 
ATOM     15  C   UNL     1      12.589  -2.441 -13.321  1.00  0.00     0.044 C 
ENDBRANCH   1   9
BRANCH   6  16
ATOM     16  C   UNL     1       5.049   0.108  -9.563  1.00  0.00     0.153 C 
BRANCH  16  17
ATOM     17  C   UNL     1       4.324  -0.206  -8.284  1.00  0.00    -0.029 A 
ATOM     18  C   UNL     1       4.976  -0.630  -7.121  1.00  0.00     0.006 A 
ATOM     19  C   UNL     1       2.967   0.149  -8.210  1.00  0.00     0.006 A 
ATOM     20  C   UNL     1       4.284  -0.673  -5.907  1.00  0.00     0.004 A 
ATOM     21  C   UNL     1       2.281   0.111  -7.000  1.00  0.00     0.004 A 
ATOM     22  C   UNL     1       2.937  -0.291  -5.835  1.00  0.00    -0.051 A 
ATOM     23  C   UNL     1       2.230  -0.198  -4.516  1.00  0.00     0.044 C 
ENDBRANCH  16  17
ENDBRANCH   6  16
TORSDOF 3
ENDMDL
MODEL 7
REMARK VINA RESULT:    -5.581      0.632      7.861
REMARK INTER + INTRA:          -7.050
REMARK INTER:                  -6.650
REMARK INTRA:                  -0.399
REMARK UNBOUND:                -0.490
REMARK SMILES Cc1ccc(CNC(=O)NC(=O)c2ccc(C)cc2)cc1
REMARK SMILES IDX 11 1 12 2 10 3 8 4 9 5 7 6 13 9 19 10 18 11 14 12 16 13
REMARK SMILES IDX 15 14 17 15 6 16 5 17 4 18 20 19 3 20 21 21 2 22 1 23
REMARK H PARENT 10 7 7 8
ROOT
ATOM      1  C   UNL     1       4.940  -0.798  -9.858  1.00  0.00     0.259 C 
ATOM      2  O   UNL     1       6.058  -0.721  -9.369  1.00  0.00    -0.269 OA
ATOM      3  N   UNL     1       4.560  -0.664 -11.197  1.00  0.00    -0.274 N 
ATOM      4  C   UNL     1       5.168  -0.646 -12.426  1.00  0.00     0.321 C 
ATOM      5  O   UNL     1       4.441  -0.641 -13.426  1.00  0.00    -0.248 OA
ATOM      6  N   UNL     1       6.503  -0.666 -12.597  1.00  0.00    -0.334 N 
ATOM      7  H   UNL     1       3.565  -0.747 -11.359  1.00  0.00     0.175 HD
ATOM      8  H   UNL     1       6.789  -0.737 -13.563  1.00  0.00     0.165 HD
ENDROOT
BRANCH   1   9
ATOM      9  C   UNL     1       3.829  -1.074  -8.928  1.00  0.00     0.040 A 
ATOM     10  C   UNL     1       3.634  -2.344  -8.382  1.00  0.00     0.014 A 
ATOM     11  C   UNL     1       2.601  -2.544  -7.466  1.00  0.00     0.004 A 
ATOM     12  C   UNL     1       2.963  -0.023  -8.608  1.00  0.00     0.014 A 
ATOM     13  C   UNL     1       1.759  -1.483  -7.099  1.00  0.00    -0.051 A 
ATOM     14  C   UNL     1       1.937  -0.225  -7.688  1.00  0.00     0.004 A 
ATOM     15  C   UNL     1       0.708  -1.693  -6.050  1.00  0.00     0.044 C 
ENDBRANCH   1   9
BRANCH   6  16
ATOM     16  C   UNL     1       7.514  -0.777 -11.583  1.00  0.00     0.153 C 
BRANCH  16  17
ATOM     17  C   UNL     1       8.779  -1.503 -11.947  1.00  0.00    -0.029 A 
ATOM     18  C   UNL     1       9.605  -1.113 -13.007  1.00  0.00     0.006 A 
ATOM     19  C   UNL     1       9.242  -2.478 -11.049  1.00  0.00     0.006 A 
ATOM     20  C   UNL     1      10.879  -1.674 -13.144  1.00  0.00     0.004 A 
ATOM     21  C   UNL     1      10.512  -3.032 -11.184  1.00  0.00     0.004 A 
ATOM     22  C   UNL     1      11.346  -2.626 -12.228  1.00  0.00    -0.051 A 
ATOM     23  C   UNL     1      12.759  -3.125 -12.285  1.00  0.00     0.044 C 
ENDBRANCH  16  17
ENDBRANCH   6  16
TORSDOF 3
ENDMDL
MODEL 8
REMARK VINA RESULT:    -4.949      3.806      7.807
REMARK INTER + INTRA:          -6.306
REMARK INTER:                  -5.916
REMARK INTRA:                  -0.391
REMARK UNBOUND:                -0.490
REMARK SMILES Cc1ccc(CNC(=O)NC(=O)c2ccc(C)cc2)cc1
REMARK SMILES IDX 11 1 12 2 10 3 8 4 9 5 7 6 13 9 19 10 18 11 14 12 16 13
REMARK SMILES IDX 15 14 17 15 6 16 5 17 4 18 20 19 3 20 21 21 2 22 1 23
REMARK H PARENT 10 7 7 8
ROOT
ATOM      1  C   UNL     1       4.110  -0.556  -9.004  1.00  0.00     0.259 C 
ATOM      2  O   UNL     1       3.683  -1.434  -9.740  1.00  0.00    -0.269 OA
ATOM      3  N   UNL     1       5.066   0.428  -9.277  1.00  0.00    -0.274 N 
ATOM      4  C   UNL     1       5.685   0.960 -10.379  1.00  0.00     0.321 C 
ATOM      5  O   UNL     1       6.404   1.951 -10.210  1.00  0.00    -0.248 OA
ATOM      6  N   UNL     1       5.527   0.480 -11.627  1.00  0.00    -0.334 N 
ATOM      7  H   UNL     1       5.274   1.035  -8.496  1.00  0.00     0.175 HD
ATOM      8  H   UNL     1       5.982   1.036 -12.337  1.00  0.00     0.165 HD
ENDROOT
BRANCH   1   9
ATOM      9  C   UNL     1       3.550  -0.508  -7.639  1.00  0.00     0.040 A 
ATOM     10  C   UNL     1       4.343  -0.176  -6.539  1.00  0.00     0.014 A 
ATOM     11  C   UNL     1       3.757  -0.092  -5.275  1.00  0.00     0.004 A 
ATOM     12  C   UNL     1       2.196  -0.813  -7.474  1.00  0.00     0.014 A 
ATOM     13  C   UNL     1       2.388  -0.346  -5.106  1.00  0.00    -0.051 A 
ATOM     14  C   UNL     1       1.614  -0.722  -6.211  1.00  0.00     0.004 A 
ATOM     15  C   UNL     1       1.757  -0.169  -3.757  1.00  0.00     0.044 C 
ENDBRANCH   1   9
BRANCH   6  16
ATOM     16  C   UNL     1       4.665  -0.586 -12.052  1.00  0.00     0.153 C 
BRANCH  16  17
ATOM     17  C   UNL     1       4.132  -0.524 -13.457  1.00  0.00    -0.029 A 
ATOM     18  C   UNL     1       3.115   0.352 -13.849  1.00  0.00     0.006 A 
ATOM     19  C   UNL     1       4.839  -1.229 -14.444  1.00  0.00     0.006 A 
ATOM     20  C   UNL     1       2.832   0.533 -15.207  1.00  0.00     0.004 A 
ATOM     21  C   UNL     1       4.560  -1.044 -15.795  1.00  0.00     0.004 A 
ATOM     22  C   UNL     1       3.561  -0.153 -16.189  1.00  0.00    -0.051 A 
ATOM     23  C   UNL     1       3.361   0.141 -17.645  1.00  0.00     0.044 C 
ENDBRANCH  16  17
ENDBRANCH   6  16
TORSDOF 3
ENDMDL
MODEL 9
REMARK VINA RESULT:    -4.655      2.177      8.263
REMARK INTER + INTRA:          -5.961
REMARK INTER:                  -5.479
REMARK INTRA:                  -0.482
REMARK UNBOUND:                -0.490
REMARK SMILES Cc1ccc(CNC(=O)NC(=O)c2ccc(C)cc2)cc1
REMARK SMILES IDX 11 1 12 2 10 3 8 4 9 5 7 6 13 9 19 10 18 11 14 12 16 13
REMARK SMILES IDX 15 14 17 15 6 16 5 17 4 18 20 19 3 20 21 21 2 22 1 23
REMARK H PARENT 10 7 7 8
ROOT
ATOM      1  C   UNL     1       8.090  -0.961 -11.452  1.00  0.00     0.259 C 
ATOM      2  O   UNL     1       9.016  -1.236 -10.702  1.00  0.00    -0.269 OA
ATOM      3  N   UNL     1       8.120  -0.736 -12.832  1.00  0.00    -0.274 N 
ATOM      4  C   UNL     1       8.990  -0.935 -13.873  1.00  0.00     0.321 C 
ATOM      5  O   UNL     1       8.576  -0.716 -15.016  1.00  0.00    -0.248 OA
ATOM      6  N   UNL     1      10.250  -1.382 -13.715  1.00  0.00    -0.334 N 
ATOM      7  H   UNL     1       7.222  -0.501 -13.235  1.00  0.00     0.175 HD
ATOM      8  H   UNL     1      10.732  -1.557 -14.585  1.00  0.00     0.165 HD
ENDROOT
BRANCH   1   9
ATOM      9  C   UNL     1       6.753  -0.853 -10.839  1.00  0.00     0.040 A 
ATOM     10  C   UNL     1       5.866  -1.931 -10.829  1.00  0.00     0.014 A 
ATOM     11  C   UNL     1       4.633  -1.797 -10.191  1.00  0.00     0.004 A 
ATOM     12  C   UNL     1       6.389   0.371 -10.269  1.00  0.00     0.014 A 
ATOM     13  C   UNL     1       4.279  -0.590  -9.571  1.00  0.00    -0.051 A 
ATOM     14  C   UNL     1       5.158   0.499  -9.627  1.00  0.00     0.004 A 
ATOM     15  C   UNL     1       2.986  -0.488  -8.816  1.00  0.00     0.044 C 
ENDBRANCH   1   9
BRANCH   6  16
ATOM     16  C   UNL     1      10.887  -1.791 -12.495  1.00  0.00     0.153 C 
BRANCH  16  17
ATOM     17  C   UNL     1      11.610  -3.109 -12.503  1.00  0.00    -0.029 A 
ATOM     18  C   UNL     1      10.952  -4.342 -12.444  1.00  0.00     0.006 A 
ATOM     19  C   UNL     1      12.984  -3.088 -12.794  1.00  0.00     0.006 A 
ATOM     20  C   UNL     1      11.655  -5.524 -12.697  1.00  0.00     0.004 A 
ATOM     21  C   UNL     1      13.681  -4.264 -13.051  1.00  0.00     0.004 A 
ATOM     22  C   UNL     1      13.020  -5.493 -13.015  1.00  0.00    -0.051 A 
ATOM     23  C   UNL     1      13.746  -6.738 -13.426  1.00  0.00     0.044 C 
ENDBRANCH  16  17
ENDBRANCH   6  16
TORSDOF 3
ENDMDL
