MODEL 1
REMARK VINA RESULT:    -4.377      0.000      0.000
REMARK INTER + INTRA:          -6.001
REMARK INTER:                  -5.785
REMARK INTRA:                  -0.217
REMARK UNBOUND:                -0.217
REMARK SMILES [H]/N=C\C[C@H]1C[C@@H]1O[C@H]1CO[C@H]2C[C@@H](C3CC3)CCN2C1
REMARK SMILES IDX 7 1 6 2 5 3 8 4 9 5 14 6 13 7 18 8 12 9 19 10 20 11 11 12
REMARK SMILES IDX 21 13 10 14 15 15 16 16 17 17 4 18 3 19 2 20 1 21
REMARK H PARENT
ROOT
ATOM      1  C   UNL     1       8.228  -1.710 -11.351  1.00  0.00     0.122 C 
ATOM      2  C   UNL     1       9.262  -1.013 -12.191  1.00  0.00     0.039 C 
ATOM      3  C   UNL     1       9.691  -1.880 -11.042  1.00  0.00     0.026 C 
ENDROOT
BRANCH   1   4
ATOM      4  O   UNL     1       7.484  -0.830 -10.487  1.00  0.00    -0.371 OA
BRANCH   4   5
ATOM      5  C   UNL     1       6.483  -0.028 -11.133  1.00  0.00     0.158 C 
ATOM      6  C   UNL     1       2.681  -0.524  -7.596  1.00  0.00    -0.003 C 
ATOM      7  C   UNL     1       3.332  -1.435  -8.644  1.00  0.00     0.052 C 
ATOM      8  C   UNL     1       3.731   0.457  -7.055  1.00  0.00     0.019 C 
ATOM      9  C   UNL     1       4.052  -0.627  -9.733  1.00  0.00     0.189 C 
ATOM     10  C   UNL     1       4.434   1.203  -8.189  1.00  0.00     0.087 C 
ATOM     11  N   UNL     1       5.043   0.267  -9.134  1.00  0.00    -0.276 NA
ATOM     12  O   UNL     1       4.651  -1.577 -10.617  1.00  0.00    -0.360 OA
ATOM     13  C   UNL     1       5.795   0.967 -10.180  1.00  0.00     0.121 C 
ATOM     14  C   UNL     1       5.397  -0.965 -11.673  1.00  0.00     0.195 C 
BRANCH   6  15
ATOM     15  C   UNL     1       2.072  -1.324  -6.467  1.00  0.00    -0.008 C 
ATOM     16  C   UNL     1       0.728  -0.939  -5.896  1.00  0.00     0.004 C 
ATOM     17  C   UNL     1       0.864  -2.198  -6.702  1.00  0.00     0.004 C 
ENDBRANCH   6  15
ENDBRANCH   4   5
ENDBRANCH   1   4
BRANCH   3  18
ATOM     18  C   UNL     1      10.378  -3.181 -11.330  1.00  0.00     0.053 C 
BRANCH  18  19
ATOM     19  C   UNL     1      11.615  -3.106 -12.187  1.00  0.00     0.074 C 
BRANCH  19  20
ATOM     20  N   UNL     1      12.794  -2.763 -11.786  1.00  0.00    -0.313 NA
ATOM     21  H   UNL     1      13.531  -3.232 -12.330  1.00  0.00     0.186 HD
ENDBRANCH  19  20
ENDBRANCH  18  19
ENDBRANCH   3  18
TORSDOF 6
ENDMDL
MODEL 2
REMARK VINA RESULT:    -4.365      3.314      5.604
REMARK INTER + INTRA:          -5.985
REMARK INTER:                  -5.760
REMARK INTRA:                  -0.225
REMARK UNBOUND:                -0.217
REMARK SMILES [H]/N=C\C[C@H]1C[C@@H]1O[C@H]1CO[C@H]2C[C@@H](C3CC3)CCN2C1
REMARK SMILES IDX 7 1 6 2 5 3 8 4 9 5 14 6 13 7 18 8 12 9 19 10 20 11 11 12
REMARK SMILES IDX 21 13 10 14 15 15 16 16 17 17 4 18 3 19 2 20 1 21
REMARK H PARENT
ROOT
ATOM      1  C   UNL     1       4.117  -0.038 -13.601  1.00  0.00     0.122 C 
ATOM      2  C   UNL     1       4.086  -0.910 -14.824  1.00  0.00     0.039 C 
ATOM      3  C   UNL     1       2.994   0.095 -14.593  1.00  0.00     0.026 C 
ENDROOT
BRANCH   1   4
ATOM      4  O   UNL     1       3.816  -0.734 -12.376  1.00  0.00    -0.371 OA
BRANCH   4   5
ATOM      5  C   UNL     1       4.878  -1.544 -11.847  1.00  0.00     0.158 C 
ATOM      6  C   UNL     1       4.379  -0.292  -6.808  1.00  0.00    -0.003 C 
ATOM      7  C   UNL     1       4.885   0.416  -8.071  1.00  0.00     0.052 C 
ATOM      8  C   UNL     1       3.252  -1.263  -7.188  1.00  0.00     0.019 C 
ATOM      9  C   UNL     1       5.264  -0.584  -9.172  1.00  0.00     0.189 C 
ATOM     10  C   UNL     1       3.682  -2.207  -8.310  1.00  0.00     0.087 C 
ATOM     11  N   UNL     1       4.131  -1.455  -9.482  1.00  0.00    -0.276 NA
ATOM     12  O   UNL     1       5.672   0.189 -10.302  1.00  0.00    -0.360 OA
ATOM     13  C   UNL     1       4.465  -2.346 -10.600  1.00  0.00     0.121 C 
ATOM     14  C   UNL     1       6.024  -0.615 -11.433  1.00  0.00     0.195 C 
BRANCH   6  15
ATOM     15  C   UNL     1       3.900   0.698  -5.771  1.00  0.00    -0.008 C 
ATOM     16  C   UNL     1       4.224   0.490  -4.310  1.00  0.00     0.004 C 
ATOM     17  C   UNL     1       4.873   1.612  -5.067  1.00  0.00     0.004 C 
ENDBRANCH   6  15
ENDBRANCH   4   5
ENDBRANCH   1   4
BRANCH   3  18
ATOM     18  C   UNL     1       2.913   1.298 -15.485  1.00  0.00     0.053 C 
BRANCH  18  19
ATOM     19  C   UNL     1       2.769   1.025 -16.960  1.00  0.00     0.074 C 
BRANCH  19  20
ATOM     20  N   UNL     1       1.690   0.643 -17.558  1.00  0.00    -0.313 NA
ATOM     21  H   UNL     1       1.897   0.052 -18.376  1.00  0.00     0.186 HD
ENDBRANCH  19  20
ENDBRANCH  18  19
ENDBRANCH   3  18
TORSDOF 6
ENDMDL
MODEL 3
REMARK VINA RESULT:    -4.193      2.687      8.554
REMARK INTER + INTRA:          -5.758
REMARK INTER:                  -5.679
REMARK INTRA:                  -0.080
REMARK UNBOUND:                -0.217
REMARK SMILES [H]/N=C\C[C@H]1C[C@@H]1O[C@H]1CO[C@H]2C[C@@H](C3CC3)CCN2C1
REMARK SMILES IDX 7 1 6 2 5 3 8 4 9 5 14 6 13 7 18 8 12 9 19 10 20 11 11 12
REMARK SMILES IDX 21 13 10 14 15 15 16 16 17 17 4 18 3 19 2 20 1 21
REMARK H PARENT
ROOT
ATOM      1  C   UNL     1       5.885  -1.078 -11.059  1.00  0.00     0.122 C 
ATOM      2  C   UNL     1       4.642  -1.264 -11.883  1.00  0.00     0.039 C 
ATOM      3  C   UNL     1       4.921  -2.185 -10.730  1.00  0.00     0.026 C 
ENDROOT
BRANCH   1   4
ATOM      4  O   UNL     1       7.099  -1.460 -11.734  1.00  0.00    -0.371 OA
BRANCH   4   5
ATOM      5  C   UNL     1       8.267  -0.697 -11.388  1.00  0.00     0.158 C 
ATOM      6  C   UNL     1      11.907  -4.040 -13.055  1.00  0.00    -0.003 C 
ATOM      7  C   UNL     1      10.920  -3.986 -11.883  1.00  0.00     0.052 C 
ATOM      8  C   UNL     1      11.287  -3.341 -14.273  1.00  0.00     0.019 C 
ATOM      9  C   UNL     1      10.443  -2.554 -11.606  1.00  0.00     0.189 C 
ATOM     10  C   UNL     1      10.801  -1.935 -13.922  1.00  0.00     0.087 C 
ATOM     11  N   UNL     1       9.852  -1.971 -12.810  1.00  0.00    -0.276 NA
ATOM     12  O   UNL     1       9.502  -2.638 -10.533  1.00  0.00    -0.360 OA
ATOM     13  C   UNL     1       9.310  -0.639 -12.518  1.00  0.00     0.121 C 
ATOM     14  C   UNL     1       8.936  -1.370 -10.185  1.00  0.00     0.195 C 
BRANCH   6  15
ATOM     15  C   UNL     1      12.286  -5.463 -13.397  1.00  0.00    -0.008 C 
ATOM     16  C   UNL     1      13.569  -5.756 -14.138  1.00  0.00     0.004 C 
ATOM     17  C   UNL     1      13.434  -6.148 -12.696  1.00  0.00     0.004 C 
ENDBRANCH   6  15
ENDBRANCH   4   5
ENDBRANCH   1   4
BRANCH   3  18
ATOM     18  C   UNL     1       4.060  -2.097  -9.505  1.00  0.00     0.053 C 
BRANCH  18  19
ATOM     19  C   UNL     1       3.715  -3.403  -8.839  1.00  0.00     0.074 C 
BRANCH  19  20
ATOM     20  N   UNL     1       3.460  -4.517  -9.441  1.00  0.00    -0.313 NA
ATOM     21  H   UNL     1       3.590  -4.436 -10.460  1.00  0.00     0.186 HD
ENDBRANCH  19  20
ENDBRANCH  18  19
ENDBRANCH   3  18
TORSDOF 6
ENDMDL
MODEL 4
REMARK VINA RESULT:    -4.072      1.520      1.764
REMARK INTER + INTRA:          -5.599
REMARK INTER:                  -5.620
REMARK INTRA:                   0.021
REMARK UNBOUND:                -0.217
REMARK SMILES [H]/N=C\C[C@H]1C[C@@H]1O[C@H]1CO[C@H]2C[C@@H](C3CC3)CCN2C1
REMARK SMILES IDX 7 1 6 2 5 3 8 4 9 5 14 6 13 7 18 8 12 9 19 10 20 11 11 12
REMARK SMILES IDX 21 13 10 14 15 15 16 16 17 17 4 18 3 19 2 20 1 21
REMARK H PARENT
ROOT
ATOM      1  C   UNL     1       8.565  -0.635 -11.004  1.00  0.00     0.122 C 
ATOM      2  C   UNL     1       9.469  -1.809 -10.755  1.00  0.00     0.039 C 
ATOM      3  C   UNL     1       9.030  -1.486 -12.154  1.00  0.00     0.026 C 
ENDROOT
BRANCH   1   4
ATOM      4  O   UNL     1       7.208  -0.835 -10.563  1.00  0.00    -0.371 OA
BRANCH   4   5
ATOM      5  C   UNL     1       6.239   0.075 -11.107  1.00  0.00     0.158 C 
ATOM      6  C   UNL     1       2.582  -0.374  -7.416  1.00  0.00    -0.003 C 
ATOM      7  C   UNL     1       3.113  -1.260  -8.549  1.00  0.00     0.052 C 
ATOM      8  C   UNL     1       3.725   0.495  -6.872  1.00  0.00     0.019 C 
ATOM      9  C   UNL     1       3.839  -0.438  -9.623  1.00  0.00     0.189 C 
ATOM     10  C   UNL     1       4.427   1.260  -7.994  1.00  0.00     0.087 C 
ATOM     11  N   UNL     1       4.920   0.344  -9.023  1.00  0.00    -0.276 NA
ATOM     12  O   UNL     1       4.325  -1.370 -10.591  1.00  0.00    -0.360 OA
ATOM     13  C   UNL     1       5.672   1.054 -10.063  1.00  0.00     0.121 C 
ATOM     14  C   UNL     1       5.064  -0.747 -11.646  1.00  0.00     0.195 C 
BRANCH   6  15
ATOM     15  C   UNL     1       1.969  -1.199  -6.307  1.00  0.00    -0.008 C 
ATOM     16  C   UNL     1       0.534  -0.975  -5.892  1.00  0.00     0.004 C 
ATOM     17  C   UNL     1       0.917  -2.238  -6.607  1.00  0.00     0.004 C 
ENDBRANCH   6  15
ENDBRANCH   4   5
ENDBRANCH   1   4
BRANCH   3  18
ATOM     18  C   UNL     1      10.040  -0.954 -13.127  1.00  0.00     0.053 C 
BRANCH  18  19
ATOM     19  C   UNL     1       9.611  -0.902 -14.570  1.00  0.00     0.074 C 
BRANCH  19  20
ATOM     20  N   UNL     1       9.338   0.167 -15.241  1.00  0.00    -0.313 NA
ATOM     21  H   UNL     1       9.225   0.984 -14.625  1.00  0.00     0.186 HD
ENDBRANCH  19  20
ENDBRANCH  18  19
ENDBRANCH   3  18
TORSDOF 6
ENDMDL
MODEL 5
REMARK VINA RESULT:    -4.018      3.806      5.310
REMARK INTER + INTRA:          -5.526
REMARK INTER:                  -5.278
REMARK INTRA:                  -0.249
REMARK UNBOUND:                -0.217
REMARK SMILES [H]/N=C\C[C@H]1C[C@@H]1O[C@H]1CO[C@H]2C[C@@H](C3CC3)CCN2C1
REMARK SMILES IDX 7 1 6 2 5 3 8 4 9 5 14 6 13 7 18 8 12 9 19 10 20 11 11 12
REMARK SMILES IDX 21 13 10 14 15 15 16 16 17 17 4 18 3 19 2 20 1 21
REMARK H PARENT
ROOT
ATOM      1  C   UNL     1      11.219  -3.966 -12.597  1.00  0.00     0.122 C 
ATOM      2  C   UNL     1      11.507  -5.379 -12.177  1.00  0.00     0.039 C 
ATOM      3  C   UNL     1      10.994  -5.099 -13.561  1.00  0.00     0.026 C 
ENDROOT
BRANCH   1   4
ATOM      4  O   UNL     1      10.045  -3.398 -11.984  1.00  0.00    -0.371 OA
BRANCH   4   5
ATOM      5  C   UNL     1      10.138  -2.007 -11.638  1.00  0.00     0.158 C 
ATOM      6  C   UNL     1       5.189  -0.640 -12.555  1.00  0.00    -0.003 C 
ATOM      7  C   UNL     1       6.402  -1.014 -13.415  1.00  0.00     0.052 C 
ATOM      8  C   UNL     1       5.248  -1.414 -11.230  1.00  0.00     0.019 C 
ATOM      9  C   UNL     1       7.720  -0.840 -12.647  1.00  0.00     0.189 C 
ATOM     10  C   UNL     1       6.596  -1.227 -10.534  1.00  0.00     0.087 C 
ATOM     11  N   UNL     1       7.697  -1.622 -11.411  1.00  0.00    -0.276 NA
ATOM     12  O   UNL     1       8.764  -1.259 -13.528  1.00  0.00    -0.360 OA
ATOM     13  C   UNL     1       8.992  -1.531 -10.728  1.00  0.00     0.121 C 
ATOM     14  C   UNL     1      10.063  -1.188 -12.931  1.00  0.00     0.195 C 
BRANCH   6  15
ATOM     15  C   UNL     1       3.890  -0.921 -13.276  1.00  0.00    -0.008 C 
ATOM     16  C   UNL     1       3.122   0.202 -13.932  1.00  0.00     0.004 C 
ATOM     17  C   UNL     1       3.805  -0.830 -14.781  1.00  0.00     0.004 C 
ENDBRANCH   6  15
ENDBRANCH   4   5
ENDBRANCH   1   4
BRANCH   3  18
ATOM     18  C   UNL     1      11.915  -5.291 -14.729  1.00  0.00     0.053 C 
BRANCH  18  19
ATOM     19  C   UNL     1      11.338  -4.989 -16.088  1.00  0.00     0.074 C 
BRANCH  19  20
ATOM     20  N   UNL     1      10.089  -4.803 -16.356  1.00  0.00    -0.313 NA
ATOM     21  H   UNL     1       9.823  -3.812 -16.258  1.00  0.00     0.186 HD
ENDBRANCH  19  20
ENDBRANCH  18  19
ENDBRANCH   3  18
TORSDOF 6
ENDMDL
MODEL 6
REMARK VINA RESULT:    -3.776      3.665      6.076
REMARK INTER + INTRA:          -5.207
REMARK INTER:                  -4.856
REMARK INTRA:                  -0.351
REMARK UNBOUND:                -0.217
REMARK SMILES [H]/N=C\C[C@H]1C[C@@H]1O[C@H]1CO[C@H]2C[C@@H](C3CC3)CCN2C1
REMARK SMILES IDX 7 1 6 2 5 3 8 4 9 5 14 6 13 7 18 8 12 9 19 10 20 11 11 12
REMARK SMILES IDX 21 13 10 14 15 15 16 16 17 17 4 18 3 19 2 20 1 21
REMARK H PARENT
ROOT
ATOM      1  C   UNL     1      11.769  -4.542 -13.521  1.00  0.00     0.122 C 
ATOM      2  C   UNL     1      11.024  -5.839 -13.385  1.00  0.00     0.039 C 
ATOM      3  C   UNL     1      12.345  -5.806 -14.098  1.00  0.00     0.026 C 
ENDROOT
BRANCH   1   4
ATOM      4  O   UNL     1      11.176  -3.619 -14.454  1.00  0.00    -0.371 OA
BRANCH   4   5
ATOM      5  C   UNL     1      11.539  -2.240 -14.277  1.00  0.00     0.158 C 
ATOM      6  C   UNL     1       7.531  -0.748 -11.292  1.00  0.00    -0.003 C 
ATOM      7  C   UNL     1       7.723  -1.121 -12.767  1.00  0.00     0.052 C 
ATOM      8  C   UNL     1       8.510  -1.560 -10.432  1.00  0.00     0.019 C 
ATOM      9  C   UNL     1       9.190  -0.996 -13.201  1.00  0.00     0.189 C 
ATOM     10  C   UNL     1       9.946  -1.420 -10.936  1.00  0.00     0.087 C 
ATOM     11  N   UNL     1      10.047  -1.813 -12.342  1.00  0.00    -0.276 NA
ATOM     12  O   UNL     1       9.248  -1.411 -14.567  1.00  0.00    -0.360 OA
ATOM     13  C   UNL     1      11.435  -1.767 -12.817  1.00  0.00     0.121 C 
ATOM     14  C   UNL     1      10.575  -1.383 -15.104  1.00  0.00     0.195 C 
BRANCH   6  15
ATOM     15  C   UNL     1       6.107  -0.982 -10.840  1.00  0.00    -0.008 C 
ATOM     16  C   UNL     1       5.268   0.167 -10.333  1.00  0.00     0.004 C 
ATOM     17  C   UNL     1       4.944  -0.469 -11.654  1.00  0.00     0.004 C 
ENDBRANCH   6  15
ENDBRANCH   4   5
ENDBRANCH   1   4
BRANCH   3  18
ATOM     18  C   UNL     1      13.534  -6.456 -13.457  1.00  0.00     0.053 C 
BRANCH  18  19
ATOM     19  C   UNL     1      13.986  -7.761 -14.060  1.00  0.00     0.074 C 
BRANCH  19  20
ATOM     20  N   UNL     1      13.932  -8.918 -13.489  1.00  0.00    -0.313 NA
ATOM     21  H   UNL     1      14.174  -8.860 -12.490  1.00  0.00     0.186 HD
ENDBRANCH  19  20
ENDBRANCH  18  19
ENDBRANCH   3  18
TORSDOF 6
ENDMDL
MODEL 7
REMARK VINA RESULT:    -3.767      4.180      7.147
REMARK INTER + INTRA:          -5.195
REMARK INTER:                  -4.700
REMARK INTRA:                  -0.495
REMARK UNBOUND:                -0.217
REMARK SMILES [H]/N=C\C[C@H]1C[C@@H]1O[C@H]1CO[C@H]2C[C@@H](C3CC3)CCN2C1
REMARK SMILES IDX 7 1 6 2 5 3 8 4 9 5 14 6 13 7 18 8 12 9 19 10 20 11 11 12
REMARK SMILES IDX 21 13 10 14 15 15 16 16 17 17 4 18 3 19 2 20 1 21
REMARK H PARENT
ROOT
ATOM      1  C   UNL     1      11.021  -2.774 -17.204  1.00  0.00     0.122 C 
ATOM      2  C   UNL     1      10.469  -3.942 -17.972  1.00  0.00     0.039 C 
ATOM      3  C   UNL     1       9.554  -2.836 -17.531  1.00  0.00     0.026 C 
ENDROOT
BRANCH   1   4
ATOM      4  O   UNL     1      11.393  -3.086 -15.848  1.00  0.00    -0.371 OA
BRANCH   4   5
ATOM      5  C   UNL     1      12.063  -2.036 -15.132  1.00  0.00     0.158 C 
ATOM      6  C   UNL     1       8.465  -1.173 -11.456  1.00  0.00    -0.003 C 
ATOM      7  C   UNL     1       8.587  -0.897 -12.960  1.00  0.00     0.052 C 
ATOM      8  C   UNL     1       9.215  -2.468 -11.115  1.00  0.00     0.019 C 
ATOM      9  C   UNL     1      10.050  -0.914 -13.425  1.00  0.00     0.189 C 
ATOM     10  C   UNL     1      10.652  -2.434 -11.635  1.00  0.00     0.087 C 
ATOM     11  N   UNL     1      10.682  -2.186 -13.077  1.00  0.00    -0.276 NA
ATOM     12  O   UNL     1      10.031  -0.693 -14.837  1.00  0.00    -0.360 OA
ATOM     13  C   UNL     1      12.049  -2.237 -13.606  1.00  0.00     0.121 C 
ATOM     14  C   UNL     1      11.336  -0.720 -15.425  1.00  0.00     0.195 C 
BRANCH   6  15
ATOM     15  C   UNL     1       7.019  -1.268 -11.025  1.00  0.00    -0.008 C 
ATOM     16  C   UNL     1       6.278  -0.036 -10.560  1.00  0.00     0.004 C 
ATOM     17  C   UNL     1       5.919  -0.673 -11.871  1.00  0.00     0.004 C 
ENDBRANCH   6  15
ENDBRANCH   4   5
ENDBRANCH   1   4
BRANCH   3  18
ATOM     18  C   UNL     1       8.971  -1.920 -18.565  1.00  0.00     0.053 C 
BRANCH  18  19
ATOM     19  C   UNL     1       8.074  -0.823 -18.053  1.00  0.00     0.074 C 
BRANCH  19  20
ATOM     20  N   UNL     1       8.324  -0.045 -17.054  1.00  0.00    -0.313 NA
ATOM     21  H   UNL     1       7.545   0.604 -16.873  1.00  0.00     0.186 HD
ENDBRANCH  19  20
ENDBRANCH  18  19
ENDBRANCH   3  18
TORSDOF 6
ENDMDL
MODEL 8
REMARK VINA RESULT:    -3.549      5.529      8.504
REMARK INTER + INTRA:          -4.906
REMARK INTER:                  -4.655
REMARK INTRA:                  -0.251
REMARK UNBOUND:                -0.217
REMARK SMILES [H]/N=C\C[C@H]1C[C@@H]1O[C@H]1CO[C@H]2C[C@@H](C3CC3)CCN2C1
REMARK SMILES IDX 7 1 6 2 5 3 8 4 9 5 14 6 13 7 18 8 12 9 19 10 20 11 11 12
REMARK SMILES IDX 21 13 10 14 15 15 16 16 17 17 4 18 3 19 2 20 1 21
REMARK H PARENT
ROOT
ATOM      1  C   UNL     1      12.257  -2.690 -17.286  1.00  0.00     0.122 C 
ATOM      2  C   UNL     1      11.592  -3.077 -18.576  1.00  0.00     0.039 C 
ATOM      3  C   UNL     1      10.757  -2.668 -17.397  1.00  0.00     0.026 C 
ENDROOT
BRANCH   1   4
ATOM      4  O   UNL     1      12.834  -3.796 -16.567  1.00  0.00    -0.371 OA
BRANCH   4   5
ATOM      5  C   UNL     1      13.807  -3.448 -15.569  1.00  0.00     0.158 C 
ATOM      6  C   UNL     1      10.566  -2.651 -11.561  1.00  0.00    -0.003 C 
ATOM      7  C   UNL     1      10.909  -1.911 -12.860  1.00  0.00     0.052 C 
ATOM      8  C   UNL     1      10.708  -4.163 -11.786  1.00  0.00     0.019 C 
ATOM      9  C   UNL     1      12.276  -2.335 -13.414  1.00  0.00     0.189 C 
ATOM     10  C   UNL     1      12.077  -4.514 -12.369  1.00  0.00     0.087 C 
ATOM     11  N   UNL     1      12.319  -3.784 -13.613  1.00  0.00    -0.276 NA
ATOM     12  O   UNL     1      12.461  -1.620 -14.637  1.00  0.00    -0.360 OA
ATOM     13  C   UNL     1      13.591  -4.176 -14.231  1.00  0.00     0.121 C 
ATOM     14  C   UNL     1      13.690  -1.945 -15.295  1.00  0.00     0.195 C 
BRANCH   6  15
ATOM     15  C   UNL     1       9.172  -2.314 -11.083  1.00  0.00    -0.008 C 
ATOM     16  C   UNL     1       8.948  -1.161 -10.133  1.00  0.00     0.004 C 
ATOM     17  C   UNL     1       8.473  -1.062 -11.554  1.00  0.00     0.004 C 
ENDBRANCH   6  15
ENDBRANCH   4   5
ENDBRANCH   1   4
BRANCH   3  18
ATOM     18  C   UNL     1      10.022  -1.362 -17.445  1.00  0.00     0.053 C 
BRANCH  18  19
ATOM     19  C   UNL     1       9.125  -1.058 -16.273  1.00  0.00     0.074 C 
BRANCH  19  20
ATOM     20  N   UNL     1       9.052   0.069 -15.647  1.00  0.00    -0.313 NA
ATOM     21  H   UNL     1       9.563   0.813 -16.144  1.00  0.00     0.186 HD
ENDBRANCH  19  20
ENDBRANCH  18  19
ENDBRANCH   3  18
TORSDOF 6
ENDMDL
MODEL 9
REMARK VINA RESULT:    -3.331      4.098      6.587
REMARK INTER + INTRA:          -4.619
REMARK INTER:                  -4.423
REMARK INTRA:                  -0.196
REMARK UNBOUND:                -0.217
REMARK SMILES [H]/N=C\C[C@H]1C[C@@H]1O[C@H]1CO[C@H]2C[C@@H](C3CC3)CCN2C1
REMARK SMILES IDX 7 1 6 2 5 3 8 4 9 5 14 6 13 7 18 8 12 9 19 10 20 11 11 12
REMARK SMILES IDX 21 13 10 14 15 15 16 16 17 17 4 18 3 19 2 20 1 21
REMARK H PARENT
ROOT
ATOM      1  C   UNL     1      11.419  -3.912 -16.308  1.00  0.00     0.122 C 
ATOM      2  C   UNL     1      11.262  -5.375 -16.004  1.00  0.00     0.039 C 
ATOM      3  C   UNL     1      10.815  -4.834 -17.332  1.00  0.00     0.026 C 
ENDROOT
BRANCH   1   4
ATOM      4  O   UNL     1      10.506  -3.061 -15.589  1.00  0.00    -0.371 OA
BRANCH   4   5
ATOM      5  C   UNL     1      11.077  -1.860 -15.044  1.00  0.00     0.158 C 
ATOM      6  C   UNL     1       7.575  -0.965 -11.283  1.00  0.00    -0.003 C 
ATOM      7  C   UNL     1       7.593  -0.866 -12.814  1.00  0.00     0.052 C 
ATOM      8  C   UNL     1       8.493  -2.112 -10.838  1.00  0.00     0.019 C 
ATOM      9  C   UNL     1       9.023  -0.773 -13.362  1.00  0.00     0.189 C 
ATOM     10  C   UNL     1       9.889  -1.979 -11.445  1.00  0.00     0.087 C 
ATOM     11  N   UNL     1       9.821  -1.911 -12.905  1.00  0.00    -0.276 NA
ATOM     12  O   UNL     1       8.913  -0.733 -14.786  1.00  0.00    -0.360 OA
ATOM     13  C   UNL     1      11.158  -1.870 -13.507  1.00  0.00     0.121 C 
ATOM     14  C   UNL     1      10.182  -0.683 -15.446  1.00  0.00     0.195 C 
BRANCH   6  15
ATOM     15  C   UNL     1       6.173  -1.171 -10.757  1.00  0.00    -0.008 C 
ATOM     16  C   UNL     1       5.468  -0.065 -10.007  1.00  0.00     0.004 C 
ATOM     17  C   UNL     1       5.000  -0.454 -11.379  1.00  0.00     0.004 C 
ENDBRANCH   6  15
ENDBRANCH   4   5
ENDBRANCH   1   4
BRANCH   3  18
ATOM     18  C   UNL     1      11.586  -5.204 -18.564  1.00  0.00     0.053 C 
BRANCH  18  19
ATOM     19  C   UNL     1      12.129  -6.608 -18.613  1.00  0.00     0.074 C 
BRANCH  19  20
ATOM     20  N   UNL     1      13.374  -6.943 -18.524  1.00  0.00    -0.313 NA
ATOM     21  H   UNL     1      13.515  -7.702 -17.842  1.00  0.00     0.186 HD
ENDBRANCH  19  20
ENDBRANCH  18  19
ENDBRANCH   3  18
TORSDOF 6
ENDMDL
