MODEL 1
REMARK VINA RESULT:    -5.935      0.000      0.000
REMARK INTER + INTRA:          -7.396
REMARK INTER:                  -6.976
REMARK INTRA:                  -0.420
REMARK UNBOUND:                -0.420
REMARK SMILES Cc1ccc(CNC(=O)NC(=O)c2ccc(C)cc2)cc1
REMARK SMILES IDX 11 1 12 2 10 3 8 4 9 5 7 6 13 9 19 10 18 11 14 12 16 13
REMARK SMILES IDX 15 14 17 15 6 16 5 17 4 18 20 19 3 20 21 21 2 22 1 23
REMARK H PARENT 10 7 7 8
ROOT
ATOM      1  C   UNL     1       8.786   1.391  -5.633  1.00  0.00     0.259 C 
ATOM      2  O   UNL     1       8.560   0.457  -6.390  1.00  0.00    -0.269 OA
ATOM      3  N   UNL     1       9.971   2.115  -5.465  1.00  0.00    -0.274 N 
ATOM      4  C   UNL     1      11.160   2.279  -6.128  1.00  0.00     0.321 C 
ATOM      5  O   UNL     1      11.934   3.148  -5.710  1.00  0.00    -0.248 OA
ATOM      6  N   UNL     1      11.510   1.571  -7.217  1.00  0.00    -0.334 N 
ATOM      7  H   UNL     1       9.923   2.835  -4.757  1.00  0.00     0.175 HD
ATOM      8  H   UNL     1      12.377   1.872  -7.637  1.00  0.00     0.165 HD
ENDROOT
BRANCH   1   9
ATOM      9  C   UNL     1       7.669   1.831  -4.775  1.00  0.00     0.040 A 
ATOM     10  C   UNL     1       7.709   1.672  -3.389  1.00  0.00     0.014 A 
ATOM     11  C   UNL     1       6.652   2.152  -2.615  1.00  0.00     0.004 A 
ATOM     12  C   UNL     1       6.556   2.409  -5.393  1.00  0.00     0.014 A 
ATOM     13  C   UNL     1       5.554   2.781  -3.221  1.00  0.00    -0.051 A 
ATOM     14  C   UNL     1       5.505   2.893  -4.615  1.00  0.00     0.004 A 
ATOM     15  C   UNL     1       4.466   3.366  -2.369  1.00  0.00     0.044 C 
ENDBRANCH   1   9
BRANCH   6  16
ATOM     16  C   UNL     1      10.721   0.598  -7.919  1.00  0.00     0.153 C 
BRANCH  16  17
ATOM     17  C   UNL     1      10.857   0.550  -9.416  1.00  0.00    -0.029 A 
ATOM     18  C   UNL     1      12.078   0.342 -10.066  1.00  0.00     0.006 A 
ATOM     19  C   UNL     1       9.671   0.503 -10.168  1.00  0.00     0.006 A 
ATOM     20  C   UNL     1      12.103   0.068 -11.437  1.00  0.00     0.004 A 
ATOM     21  C   UNL     1       9.697   0.226 -11.531  1.00  0.00     0.004 A 
ATOM     22  C   UNL     1      10.914  -0.004 -12.176  1.00  0.00    -0.051 A 
ATOM     23  C   UNL     1      10.922  -0.437 -13.612  1.00  0.00     0.044 C 
ENDBRANCH  16  17
ENDBRANCH   6  16
TORSDOF 3
ENDMDL
MODEL 2
REMARK VINA RESULT:    -5.927      3.190      5.622
REMARK INTER + INTRA:          -7.386
REMARK INTER:                  -6.962
REMARK INTRA:                  -0.424
REMARK UNBOUND:                -0.420
REMARK SMILES Cc1ccc(CNC(=O)NC(=O)c2ccc(C)cc2)cc1
REMARK SMILES IDX 11 1 12 2 10 3 8 4 9 5 7 6 13 9 19 10 18 11 14 12 16 13
REMARK SMILES IDX 15 14 17 15 6 16 5 17 4 18 20 19 3 20 21 21 2 22 1 23
REMARK H PARENT 10 7 7 8
ROOT
ATOM      1  C   UNL     1       8.754   1.891  -5.528  1.00  0.00     0.259 C 
ATOM      2  O   UNL     1       9.070   2.861  -4.854  1.00  0.00    -0.269 OA
ATOM      3  N   UNL     1       9.064   1.615  -6.864  1.00  0.00    -0.274 N 
ATOM      4  C   UNL     1       9.933   2.078  -7.819  1.00  0.00     0.321 C 
ATOM      5  O   UNL     1       9.997   1.457  -8.885  1.00  0.00    -0.248 OA
ATOM      6  N   UNL     1      10.732   3.146  -7.642  1.00  0.00    -0.334 N 
ATOM      7  H   UNL     1       8.669   0.753  -7.214  1.00  0.00     0.175 HD
ATOM      8  H   UNL     1      11.373   3.305  -8.406  1.00  0.00     0.165 HD
ENDROOT
BRANCH   1   9
ATOM      9  C   UNL     1       7.939   0.859  -4.859  1.00  0.00     0.040 A 
ATOM     10  C   UNL     1       6.614   0.623  -5.231  1.00  0.00     0.014 A 
ATOM     11  C   UNL     1       5.900  -0.400  -4.606  1.00  0.00     0.004 A 
ATOM     12  C   UNL     1       8.530   0.121  -3.829  1.00  0.00     0.014 A 
ATOM     13  C   UNL     1       6.501  -1.180  -3.607  1.00  0.00    -0.051 A 
ATOM     14  C   UNL     1       7.816  -0.904  -3.212  1.00  0.00     0.004 A 
ATOM     15  C   UNL     1       5.749  -2.330  -3.004  1.00  0.00     0.044 C 
ENDBRANCH   1   9
BRANCH   6  16
ATOM     16  C   UNL     1      10.888   3.938  -6.455  1.00  0.00     0.153 C 
BRANCH  16  17
ATOM     17  C   UNL     1      12.268   4.443  -6.138  1.00  0.00    -0.029 A 
ATOM     18  C   UNL     1      13.000   5.260  -7.006  1.00  0.00     0.006 A 
ATOM     19  C   UNL     1      12.739   4.250  -4.829  1.00  0.00     0.006 A 
ATOM     20  C   UNL     1      14.166   5.890  -6.558  1.00  0.00     0.004 A 
ATOM     21  C   UNL     1      13.896   4.881  -4.383  1.00  0.00     0.004 A 
ATOM     22  C   UNL     1      14.614   5.715  -5.241  1.00  0.00    -0.051 A 
ATOM     23  C   UNL     1      15.780   6.497  -4.713  1.00  0.00     0.044 C 
ENDBRANCH  16  17
ENDBRANCH   6  16
TORSDOF 3
ENDMDL
MODEL 3
REMARK VINA RESULT:    -5.832      3.162      7.292
REMARK INTER + INTRA:          -7.275
REMARK INTER:                  -6.785
REMARK INTRA:                  -0.489
REMARK UNBOUND:                -0.420
REMARK SMILES Cc1ccc(CNC(=O)NC(=O)c2ccc(C)cc2)cc1
REMARK SMILES IDX 11 1 12 2 10 3 8 4 9 5 7 6 13 9 19 10 18 11 14 12 16 13
REMARK SMILES IDX 15 14 17 15 6 16 5 17 4 18 20 19 3 20 21 21 2 22 1 23
REMARK H PARENT 10 7 7 8
ROOT
ATOM      1  C   UNL     1      11.117   3.561  -5.832  1.00  0.00     0.259 C 
ATOM      2  O   UNL     1      10.422   3.554  -4.826  1.00  0.00    -0.269 OA
ATOM      3  N   UNL     1      10.942   2.849  -7.023  1.00  0.00    -0.274 N 
ATOM      4  C   UNL     1       9.948   2.130  -7.636  1.00  0.00     0.321 C 
ATOM      5  O   UNL     1      10.146   1.752  -8.796  1.00  0.00    -0.248 OA
ATOM      6  N   UNL     1       8.768   1.845  -7.054  1.00  0.00    -0.334 N 
ATOM      7  H   UNL     1      11.666   3.003  -7.711  1.00  0.00     0.175 HD
ATOM      8  H   UNL     1       8.113   1.383  -7.669  1.00  0.00     0.165 HD
ENDROOT
BRANCH   1   9
ATOM      9  C   UNL     1      12.305   4.437  -5.808  1.00  0.00     0.040 A 
ATOM     10  C   UNL     1      13.074   4.589  -4.653  1.00  0.00     0.014 A 
ATOM     11  C   UNL     1      14.218   5.387  -4.693  1.00  0.00     0.004 A 
ATOM     12  C   UNL     1      12.639   5.123  -6.980  1.00  0.00     0.014 A 
ATOM     13  C   UNL     1      14.591   6.038  -5.879  1.00  0.00    -0.051 A 
ATOM     14  C   UNL     1      13.786   5.913  -7.017  1.00  0.00     0.004 A 
ATOM     15  C   UNL     1      15.869   6.823  -5.929  1.00  0.00     0.044 C 
ENDBRANCH   1   9
BRANCH   6  16
ATOM     16  C   UNL     1       8.300   2.273  -5.767  1.00  0.00     0.153 C 
BRANCH  16  17
ATOM     17  C   UNL     1       7.588   1.257  -4.918  1.00  0.00    -0.029 A 
ATOM     18  C   UNL     1       6.235   0.941  -5.078  1.00  0.00     0.006 A 
ATOM     19  C   UNL     1       8.377   0.453  -4.079  1.00  0.00     0.006 A 
ATOM     20  C   UNL     1       5.694  -0.173  -4.429  1.00  0.00     0.004 A 
ATOM     21  C   UNL     1       7.840  -0.658  -3.438  1.00  0.00     0.004 A 
ATOM     22  C   UNL     1       6.495  -0.987  -3.615  1.00  0.00    -0.051 A 
ATOM     23  C   UNL     1       5.959  -2.261  -3.032  1.00  0.00     0.044 C 
ENDBRANCH  16  17
ENDBRANCH   6  16
TORSDOF 3
ENDMDL
MODEL 4
REMARK VINA RESULT:    -5.830      0.625      7.861
REMARK INTER + INTRA:          -7.273
REMARK INTER:                  -6.781
REMARK INTRA:                  -0.492
REMARK UNBOUND:                -0.420
REMARK SMILES Cc1ccc(CNC(=O)NC(=O)c2ccc(C)cc2)cc1
REMARK SMILES IDX 11 1 12 2 10 3 8 4 9 5 7 6 13 9 19 10 18 11 14 12 16 13
REMARK SMILES IDX 15 14 17 15 6 16 5 17 4 18 20 19 3 20 21 21 2 22 1 23
REMARK H PARENT 10 7 7 8
ROOT
ATOM      1  C   UNL     1      10.063   0.846  -8.158  1.00  0.00     0.259 C 
ATOM      2  O   UNL     1       9.022   0.316  -7.794  1.00  0.00    -0.269 OA
ATOM      3  N   UNL     1      10.873   1.751  -7.465  1.00  0.00    -0.274 N 
ATOM      4  C   UNL     1      11.015   2.205  -6.179  1.00  0.00     0.321 C 
ATOM      5  O   UNL     1      11.978   2.940  -5.933  1.00  0.00    -0.248 OA
ATOM      6  N   UNL     1      10.185   1.868  -5.174  1.00  0.00    -0.334 N 
ATOM      7  H   UNL     1      11.680   2.071  -7.984  1.00  0.00     0.175 HD
ATOM      8  H   UNL     1      10.476   2.215  -4.272  1.00  0.00     0.165 HD
ENDROOT
BRANCH   1   9
ATOM      9  C   UNL     1      10.550   0.489  -9.504  1.00  0.00     0.040 A 
ATOM     10  C   UNL     1       9.671   0.326 -10.577  1.00  0.00     0.014 A 
ATOM     11  C   UNL     1      10.183   0.041 -11.843  1.00  0.00     0.004 A 
ATOM     12  C   UNL     1      11.926   0.311  -9.679  1.00  0.00     0.014 A 
ATOM     13  C   UNL     1      11.566  -0.088 -12.040  1.00  0.00    -0.051 A 
ATOM     14  C   UNL     1      12.433   0.033 -10.947  1.00  0.00     0.004 A 
ATOM     15  C   UNL     1      12.106  -0.310 -13.422  1.00  0.00     0.044 C 
ENDBRANCH   1   9
BRANCH   6  16
ATOM     16  C   UNL     1       9.079   0.953  -5.222  1.00  0.00     0.153 C 
BRANCH  16  17
ATOM     17  C   UNL     1       7.813   1.366  -4.524  1.00  0.00    -0.029 A 
ATOM     18  C   UNL     1       7.623   1.232  -3.144  1.00  0.00     0.006 A 
ATOM     19  C   UNL     1       6.879   2.105  -5.268  1.00  0.00     0.006 A 
ATOM     20  C   UNL     1       6.531   1.849  -2.525  1.00  0.00     0.004 A 
ATOM     21  C   UNL     1       5.797   2.722  -4.650  1.00  0.00     0.004 A 
ATOM     22  C   UNL     1       5.619   2.609  -3.270  1.00  0.00    -0.051 A 
ATOM     23  C   UNL     1       4.531   3.389  -2.596  1.00  0.00     0.044 C 
ENDBRANCH  16  17
ENDBRANCH   6  16
TORSDOF 3
ENDMDL
MODEL 5
REMARK VINA RESULT:    -5.702      2.724      4.894
REMARK INTER + INTRA:          -7.122
REMARK INTER:                  -6.588
REMARK INTRA:                  -0.534
REMARK UNBOUND:                -0.420
REMARK SMILES Cc1ccc(CNC(=O)NC(=O)c2ccc(C)cc2)cc1
REMARK SMILES IDX 11 1 12 2 10 3 8 4 9 5 7 6 13 9 19 10 18 11 14 12 16 13
REMARK SMILES IDX 15 14 17 15 6 16 5 17 4 18 20 19 3 20 21 21 2 22 1 23
REMARK H PARENT 10 7 7 8
ROOT
ATOM      1  C   UNL     1       8.696   1.940  -6.049  1.00  0.00     0.259 C 
ATOM      2  O   UNL     1       8.914   3.142  -6.112  1.00  0.00    -0.269 OA
ATOM      3  N   UNL     1       9.304   0.902  -6.763  1.00  0.00    -0.274 N 
ATOM      4  C   UNL     1      10.417   0.725  -7.544  1.00  0.00     0.321 C 
ATOM      5  O   UNL     1      10.691  -0.426  -7.899  1.00  0.00    -0.248 OA
ATOM      6  N   UNL     1      11.233   1.730  -7.915  1.00  0.00    -0.334 N 
ATOM      7  H   UNL     1       8.938  -0.017  -6.554  1.00  0.00     0.175 HD
ATOM      8  H   UNL     1      12.054   1.422  -8.417  1.00  0.00     0.165 HD
ENDROOT
BRANCH   1   9
ATOM      9  C   UNL     1       7.660   1.506  -5.094  1.00  0.00     0.040 A 
ATOM     10  C   UNL     1       7.877   0.440  -4.218  1.00  0.00     0.014 A 
ATOM     11  C   UNL     1       6.887   0.100  -3.296  1.00  0.00     0.004 A 
ATOM     12  C   UNL     1       6.440   2.190  -5.092  1.00  0.00     0.014 A 
ATOM     13  C   UNL     1       5.679   0.814  -3.251  1.00  0.00    -0.051 A 
ATOM     14  C   UNL     1       5.456   1.851  -4.165  1.00  0.00     0.004 A 
ATOM     15  C   UNL     1       4.660   0.491  -2.199  1.00  0.00     0.044 C 
ENDBRANCH   1   9
BRANCH   6  16
ATOM     16  C   UNL     1      11.154   3.110  -7.529  1.00  0.00     0.153 C 
BRANCH  16  17
ATOM     17  C   UNL     1      12.324   3.685  -6.780  1.00  0.00    -0.029 A 
ATOM     18  C   UNL     1      13.468   4.180  -7.415  1.00  0.00     0.006 A 
ATOM     19  C   UNL     1      12.156   3.919  -5.406  1.00  0.00     0.006 A 
ATOM     20  C   UNL     1      14.409   4.916  -6.687  1.00  0.00     0.004 A 
ATOM     21  C   UNL     1      13.090   4.655  -4.684  1.00  0.00     0.004 A 
ATOM     22  C   UNL     1      14.220   5.169  -5.321  1.00  0.00    -0.051 A 
ATOM     23  C   UNL     1      15.149   6.075  -4.568  1.00  0.00     0.044 C 
ENDBRANCH  16  17
ENDBRANCH   6  16
TORSDOF 3
ENDMDL
MODEL 6
REMARK VINA RESULT:    -5.592      2.155      7.606
REMARK INTER + INTRA:          -6.993
REMARK INTER:                  -6.495
REMARK INTRA:                  -0.498
REMARK UNBOUND:                -0.420
REMARK SMILES Cc1ccc(CNC(=O)NC(=O)c2ccc(C)cc2)cc1
REMARK SMILES IDX 11 1 12 2 10 3 8 4 9 5 7 6 13 9 19 10 18 11 14 12 16 13
REMARK SMILES IDX 15 14 17 15 6 16 5 17 4 18 20 19 3 20 21 21 2 22 1 23
REMARK H PARENT 10 7 7 8
ROOT
ATOM      1  C   UNL     1      10.745   1.822  -7.733  1.00  0.00     0.259 C 
ATOM      2  O   UNL     1       9.651   1.345  -8.000  1.00  0.00    -0.269 OA
ATOM      3  N   UNL     1      11.072   2.770  -6.759  1.00  0.00    -0.274 N 
ATOM      4  C   UNL     1      10.486   3.331  -5.653  1.00  0.00     0.321 C 
ATOM      5  O   UNL     1      11.182   4.067  -4.946  1.00  0.00    -0.248 OA
ATOM      6  N   UNL     1       9.212   3.096  -5.286  1.00  0.00    -0.334 N 
ATOM      7  H   UNL     1      12.050   3.029  -6.741  1.00  0.00     0.175 HD
ATOM      8  H   UNL     1       8.960   3.515  -4.403  1.00  0.00     0.165 HD
ENDROOT
BRANCH   1   9
ATOM      9  C   UNL     1      11.888   1.342  -8.534  1.00  0.00     0.040 A 
ATOM     10  C   UNL     1      13.133   1.971  -8.475  1.00  0.00     0.014 A 
ATOM     11  C   UNL     1      14.197   1.449  -9.210  1.00  0.00     0.004 A 
ATOM     12  C   UNL     1      11.688   0.236  -9.365  1.00  0.00     0.014 A 
ATOM     13  C   UNL     1      14.021   0.308 -10.008  1.00  0.00    -0.051 A 
ATOM     14  C   UNL     1      12.756  -0.286 -10.093  1.00  0.00     0.004 A 
ATOM     15  C   UNL     1      15.195  -0.290 -10.725  1.00  0.00     0.044 C 
ENDBRANCH   1   9
BRANCH   6  16
ATOM     16  C   UNL     1       8.274   2.201  -5.902  1.00  0.00     0.153 C 
BRANCH  16  17
ATOM     17  C   UNL     1       7.576   1.212  -5.010  1.00  0.00    -0.029 A 
ATOM     18  C   UNL     1       6.221   0.890  -5.141  1.00  0.00     0.006 A 
ATOM     19  C   UNL     1       8.379   0.438  -4.157  1.00  0.00     0.006 A 
ATOM     20  C   UNL     1       5.692  -0.204  -4.447  1.00  0.00     0.004 A 
ATOM     21  C   UNL     1       7.852  -0.652  -3.472  1.00  0.00     0.004 A 
ATOM     22  C   UNL     1       6.506  -0.989  -3.619  1.00  0.00    -0.051 A 
ATOM     23  C   UNL     1       5.981  -2.243  -2.987  1.00  0.00     0.044 C 
ENDBRANCH  16  17
ENDBRANCH   6  16
TORSDOF 3
ENDMDL
MODEL 7
REMARK VINA RESULT:    -5.583      2.693      7.664
REMARK INTER + INTRA:          -6.982
REMARK INTER:                  -6.491
REMARK INTRA:                  -0.491
REMARK UNBOUND:                -0.420
REMARK SMILES Cc1ccc(CNC(=O)NC(=O)c2ccc(C)cc2)cc1
REMARK SMILES IDX 11 1 12 2 10 3 8 4 9 5 7 6 13 9 19 10 18 11 14 12 16 13
REMARK SMILES IDX 15 14 17 15 6 16 5 17 4 18 20 19 3 20 21 21 2 22 1 23
REMARK H PARENT 10 7 7 8
ROOT
ATOM      1  C   UNL     1      11.149   2.833  -6.948  1.00  0.00     0.259 C 
ATOM      2  O   UNL     1      11.044   2.949  -5.735  1.00  0.00    -0.269 OA
ATOM      3  N   UNL     1      10.638   1.830  -7.778  1.00  0.00    -0.274 N 
ATOM      4  C   UNL     1       9.719   0.816  -7.695  1.00  0.00     0.321 C 
ATOM      5  O   UNL     1       9.442   0.206  -8.734  1.00  0.00    -0.248 OA
ATOM      6  N   UNL     1       9.086   0.476  -6.557  1.00  0.00    -0.334 N 
ATOM      7  H   UNL     1      10.876   1.937  -8.756  1.00  0.00     0.175 HD
ATOM      8  H   UNL     1       8.377  -0.232  -6.681  1.00  0.00     0.165 HD
ENDROOT
BRANCH   1   9
ATOM      9  C   UNL     1      11.908   3.885  -7.650  1.00  0.00     0.040 A 
ATOM     10  C   UNL     1      12.405   3.688  -8.939  1.00  0.00     0.014 A 
ATOM     11  C   UNL     1      13.072   4.731  -9.583  1.00  0.00     0.004 A 
ATOM     12  C   UNL     1      12.126   5.094  -6.981  1.00  0.00     0.014 A 
ATOM     13  C   UNL     1      13.251   5.965  -8.940  1.00  0.00    -0.051 A 
ATOM     14  C   UNL     1      12.787   6.135  -7.630  1.00  0.00     0.004 A 
ATOM     15  C   UNL     1      13.894   7.104  -9.676  1.00  0.00     0.044 C 
ENDBRANCH   1   9
BRANCH   6  16
ATOM     16  C   UNL     1       9.183   1.118  -5.276  1.00  0.00     0.153 C 
BRANCH  16  17
ATOM     17  C   UNL     1       7.897   1.475  -4.584  1.00  0.00    -0.029 A 
ATOM     18  C   UNL     1       7.694   1.300  -3.211  1.00  0.00     0.006 A 
ATOM     19  C   UNL     1       6.950   2.204  -5.322  1.00  0.00     0.006 A 
ATOM     20  C   UNL     1       6.577   1.869  -2.590  1.00  0.00     0.004 A 
ATOM     21  C   UNL     1       5.842   2.774  -4.702  1.00  0.00     0.004 A 
ATOM     22  C   UNL     1       5.651   2.619  -3.328  1.00  0.00    -0.051 A 
ATOM     23  C   UNL     1       4.532   3.349  -2.648  1.00  0.00     0.044 C 
ENDBRANCH  16  17
ENDBRANCH   6  16
TORSDOF 3
ENDMDL
MODEL 8
REMARK VINA RESULT:    -5.451      2.830      4.278
REMARK INTER + INTRA:          -6.827
REMARK INTER:                  -6.351
REMARK INTRA:                  -0.476
REMARK UNBOUND:                -0.420
REMARK SMILES Cc1ccc(CNC(=O)NC(=O)c2ccc(C)cc2)cc1
REMARK SMILES IDX 11 1 12 2 10 3 8 4 9 5 7 6 13 9 19 10 18 11 14 12 16 13
REMARK SMILES IDX 15 14 17 15 6 16 5 17 4 18 20 19 3 20 21 21 2 22 1 23
REMARK H PARENT 10 7 7 8
ROOT
ATOM      1  C   UNL     1       9.124   1.699  -5.878  1.00  0.00     0.259 C 
ATOM      2  O   UNL     1       9.940   2.513  -5.471  1.00  0.00    -0.269 OA
ATOM      3  N   UNL     1       9.099   1.018  -7.099  1.00  0.00    -0.274 N 
ATOM      4  C   UNL     1       9.959   0.773  -8.139  1.00  0.00     0.321 C 
ATOM      5  O   UNL     1       9.590  -0.019  -9.013  1.00  0.00    -0.248 OA
ATOM      6  N   UNL     1      11.183   1.323  -8.239  1.00  0.00    -0.334 N 
ATOM      7  H   UNL     1       8.304   0.405  -7.219  1.00  0.00     0.175 HD
ATOM      8  H   UNL     1      11.723   0.975  -9.018  1.00  0.00     0.165 HD
ENDROOT
BRANCH   1   9
ATOM      9  C   UNL     1       8.007   1.373  -4.970  1.00  0.00     0.040 A 
ATOM     10  C   UNL     1       6.789   2.052  -5.041  1.00  0.00     0.014 A 
ATOM     11  C   UNL     1       5.745   1.674  -4.197  1.00  0.00     0.004 A 
ATOM     12  C   UNL     1       8.204   0.364  -4.022  1.00  0.00     0.014 A 
ATOM     13  C   UNL     1       5.915   0.627  -3.278  1.00  0.00    -0.051 A 
ATOM     14  C   UNL     1       7.156  -0.016  -3.186  1.00  0.00     0.004 A 
ATOM     15  C   UNL     1       4.757   0.175  -2.437  1.00  0.00     0.044 C 
ENDBRANCH   1   9
BRANCH   6  16
ATOM     16  C   UNL     1      11.839   2.179  -7.291  1.00  0.00     0.153 C 
BRANCH  16  17
ATOM     17  C   UNL     1      12.319   3.515  -7.784  1.00  0.00    -0.029 A 
ATOM     18  C   UNL     1      12.637   3.766  -9.122  1.00  0.00     0.006 A 
ATOM     19  C   UNL     1      12.236   4.597  -6.892  1.00  0.00     0.006 A 
ATOM     20  C   UNL     1      12.843   5.079  -9.559  1.00  0.00     0.004 A 
ATOM     21  C   UNL     1      12.437   5.903  -7.329  1.00  0.00     0.004 A 
ATOM     22  C   UNL     1      12.732   6.156  -8.669  1.00  0.00    -0.051 A 
ATOM     23  C   UNL     1      12.810   7.572  -9.157  1.00  0.00     0.044 C 
ENDBRANCH  16  17
ENDBRANCH   6  16
TORSDOF 3
ENDMDL
MODEL 9
REMARK VINA RESULT:    -5.448      1.865      2.552
REMARK INTER + INTRA:          -6.823
REMARK INTER:                  -6.338
REMARK INTRA:                  -0.485
REMARK UNBOUND:                -0.420
REMARK SMILES Cc1ccc(CNC(=O)NC(=O)c2ccc(C)cc2)cc1
REMARK SMILES IDX 11 1 12 2 10 3 8 4 9 5 7 6 13 9 19 10 18 11 14 12 16 13
REMARK SMILES IDX 15 14 17 15 6 16 5 17 4 18 20 19 3 20 21 21 2 22 1 23
REMARK H PARENT 10 7 7 8
ROOT
ATOM      1  C   UNL     1       9.073   1.822  -5.781  1.00  0.00     0.259 C 
ATOM      2  O   UNL     1       9.124   1.218  -6.843  1.00  0.00    -0.269 OA
ATOM      3  N   UNL     1       9.949   2.792  -5.282  1.00  0.00    -0.274 N 
ATOM      4  C   UNL     1      10.959   3.586  -5.760  1.00  0.00     0.321 C 
ATOM      5  O   UNL     1      11.419   4.447  -5.001  1.00  0.00    -0.248 OA
ATOM      6  N   UNL     1      11.449   3.496  -7.010  1.00  0.00    -0.334 N 
ATOM      7  H   UNL     1       9.710   3.136  -4.361  1.00  0.00     0.175 HD
ATOM      8  H   UNL     1      12.129   4.209  -7.233  1.00  0.00     0.165 HD
ENDROOT
BRANCH   1   9
ATOM      9  C   UNL     1       7.938   1.503  -4.893  1.00  0.00     0.040 A 
ATOM     10  C   UNL     1       6.720   2.177  -4.998  1.00  0.00     0.014 A 
ATOM     11  C   UNL     1       5.659   1.804  -4.172  1.00  0.00     0.004 A 
ATOM     12  C   UNL     1       8.118   0.504  -3.931  1.00  0.00     0.014 A 
ATOM     13  C   UNL     1       5.813   0.767  -3.239  1.00  0.00    -0.051 A 
ATOM     14  C   UNL     1       7.054   0.130  -3.113  1.00  0.00     0.004 A 
ATOM     15  C   UNL     1       4.639   0.321  -2.418  1.00  0.00     0.044 C 
ENDBRANCH   1   9
BRANCH   6  16
ATOM     16  C   UNL     1      10.990   2.645  -8.071  1.00  0.00     0.153 C 
BRANCH  16  17
ATOM     17  C   UNL     1      12.017   1.794  -8.766  1.00  0.00    -0.029 A 
ATOM     18  C   UNL     1      13.384   2.088  -8.757  1.00  0.00     0.006 A 
ATOM     19  C   UNL     1      11.594   0.548  -9.257  1.00  0.00     0.006 A 
ATOM     20  C   UNL     1      14.307   1.139  -9.210  1.00  0.00     0.004 A 
ATOM     21  C   UNL     1      12.513  -0.396  -9.702  1.00  0.00     0.004 A 
ATOM     22  C   UNL     1      13.879  -0.113  -9.673  1.00  0.00    -0.051 A 
ATOM     23  C   UNL     1      14.867  -1.185 -10.024  1.00  0.00     0.044 C 
ENDBRANCH  16  17
ENDBRANCH   6  16
TORSDOF 3
ENDMDL
