MODEL 1
REMARK VINA RESULT:    -4.022      0.000      0.000
REMARK INTER + INTRA:          -5.526
REMARK INTER:                  -5.315
REMARK INTRA:                  -0.211
REMARK UNBOUND:                -0.211
REMARK SMILES [H]/N=C\C[C@H]1C[C@@H]1O[C@H]1CO[C@H]2C[C@@H](C3CC3)CCN2C1
REMARK SMILES IDX 7 1 6 2 5 3 8 4 9 5 14 6 13 7 18 8 12 9 19 10 20 11 11 12
REMARK SMILES IDX 21 13 10 14 15 15 16 16 17 17 4 18 3 19 2 20 1 21
REMARK H PARENT
ROOT
ATOM      1  C   UNL     1      -4.345  13.168  -2.374  1.00  0.00     0.122 C 
ATOM      2  C   UNL     1      -4.580  14.127  -3.507  1.00  0.00     0.039 C 
ATOM      3  C   UNL     1      -5.723  13.323  -2.957  1.00  0.00     0.026 C 
ENDROOT
BRANCH   1   4
ATOM      4  O   UNL     1      -3.615  11.984  -2.749  1.00  0.00    -0.371 OA
BRANCH   4   5
ATOM      5  C   UNL     1      -2.209  12.169  -2.977  1.00  0.00     0.158 C 
ATOM      6  C   UNL     1      -0.434   8.058  -0.302  1.00  0.00    -0.003 C 
ATOM      7  C   UNL     1      -1.056   9.414   0.053  1.00  0.00     0.052 C 
ATOM      8  C   UNL     1      -1.020   7.564  -1.631  1.00  0.00     0.019 C 
ATOM      9  C   UNL     1      -0.928  10.420  -1.099  1.00  0.00     0.189 C 
ATOM     10  C   UNL     1      -0.892   8.622  -2.726  1.00  0.00     0.087 C 
ATOM     11  N   UNL     1      -1.525   9.876  -2.319  1.00  0.00    -0.276 NA
ATOM     12  O   UNL     1      -1.578  11.617  -0.671  1.00  0.00    -0.360 OA
ATOM     13  C   UNL     1      -1.486  10.875  -3.393  1.00  0.00     0.121 C 
ATOM     14  C   UNL     1      -1.572  12.645  -1.667  1.00  0.00     0.195 C 
BRANCH   6  15
ATOM     15  C   UNL     1      -0.664   7.039   0.791  1.00  0.00    -0.008 C 
ATOM     16  C   UNL     1       0.458   6.132   1.238  1.00  0.00     0.004 C 
ATOM     17  C   UNL     1      -0.039   7.212   2.154  1.00  0.00     0.004 C 
ENDBRANCH   6  15
ENDBRANCH   4   5
ENDBRANCH   1   4
BRANCH   3  18
ATOM     18  C   UNL     1      -6.797  14.024  -2.181  1.00  0.00     0.053 C 
BRANCH  18  19
ATOM     19  C   UNL     1      -7.488  15.165  -2.881  1.00  0.00     0.074 C 
BRANCH  19  20
ATOM     20  N   UNL     1      -8.507  15.065  -3.668  1.00  0.00    -0.313 NA
ATOM     21  H   UNL     1      -8.237  15.176  -4.655  1.00  0.00     0.186 HD
ENDBRANCH  19  20
ENDBRANCH  18  19
ENDBRANCH   3  18
TORSDOF 6
ENDMDL
MODEL 2
REMARK VINA RESULT:    -3.996      3.322      5.554
REMARK INTER + INTRA:          -5.492
REMARK INTER:                  -5.279
REMARK INTRA:                  -0.213
REMARK UNBOUND:                -0.211
REMARK SMILES [H]/N=C\C[C@H]1C[C@@H]1O[C@H]1CO[C@H]2C[C@@H](C3CC3)CCN2C1
REMARK SMILES IDX 7 1 6 2 5 3 8 4 9 5 14 6 13 7 18 8 12 9 19 10 20 11 11 12
REMARK SMILES IDX 21 13 10 14 15 15 16 16 17 17 4 18 3 19 2 20 1 21
REMARK H PARENT
ROOT
ATOM      1  C   UNL     1       0.468  13.958  -1.758  1.00  0.00     0.122 C 
ATOM      2  C   UNL     1       0.381  15.295  -1.079  1.00  0.00     0.039 C 
ATOM      3  C   UNL     1       1.720  14.652  -1.297  1.00  0.00     0.026 C 
ENDROOT
BRANCH   1   4
ATOM      4  O   UNL     1       0.007  12.858  -0.950  1.00  0.00    -0.371 OA
BRANCH   4   5
ATOM      5  C   UNL     1      -1.411  12.810  -0.720  1.00  0.00     0.158 C 
ATOM      6  C   UNL     1      -2.105   7.662  -1.186  1.00  0.00    -0.003 C 
ATOM      7  C   UNL     1      -1.803   8.820  -2.144  1.00  0.00     0.052 C 
ATOM      8  C   UNL     1      -1.462   7.950   0.178  1.00  0.00     0.019 C 
ATOM      9  C   UNL     1      -2.195  10.176  -1.541  1.00  0.00     0.189 C 
ATOM     10  C   UNL     1      -1.865   9.326   0.706  1.00  0.00     0.087 C 
ATOM     11  N   UNL     1      -1.526  10.375  -0.256  1.00  0.00    -0.276 NA
ATOM     12  O   UNL     1      -1.826  11.171  -2.498  1.00  0.00    -0.360 OA
ATOM     13  C   UNL     1      -1.827  11.711   0.273  1.00  0.00     0.121 C 
ATOM     14  C   UNL     1      -2.099  12.503  -2.054  1.00  0.00     0.195 C 
BRANCH   6  15
ATOM     15  C   UNL     1      -1.613   6.343  -1.737  1.00  0.00    -0.008 C 
ATOM     16  C   UNL     1      -2.527   5.141  -1.773  1.00  0.00     0.004 C 
ATOM     17  C   UNL     1      -2.128   5.814  -3.054  1.00  0.00     0.004 C 
ENDBRANCH   6  15
ENDBRANCH   4   5
ENDBRANCH   1   4
BRANCH   3  18
ATOM     18  C   UNL     1       2.661  15.255  -2.297  1.00  0.00     0.053 C 
BRANCH  18  19
ATOM     19  C   UNL     1       2.919  16.733  -2.162  1.00  0.00     0.074 C 
BRANCH  19  20
ATOM     20  N   UNL     1       3.939  17.274  -1.582  1.00  0.00    -0.313 NA
ATOM     21  H   UNL     1       3.739  18.240  -1.287  1.00  0.00     0.186 HD
ENDBRANCH  19  20
ENDBRANCH  18  19
ENDBRANCH   3  18
TORSDOF 6
ENDMDL
MODEL 3
REMARK VINA RESULT:    -3.945      2.696      8.575
REMARK INTER + INTRA:          -5.425
REMARK INTER:                  -5.228
REMARK INTRA:                  -0.197
REMARK UNBOUND:                -0.211
REMARK SMILES [H]/N=C\C[C@H]1C[C@@H]1O[C@H]1CO[C@H]2C[C@@H](C3CC3)CCN2C1
REMARK SMILES IDX 7 1 6 2 5 3 8 4 9 5 14 6 13 7 18 8 12 9 19 10 20 11 11 12
REMARK SMILES IDX 21 13 10 14 15 15 16 16 17 17 4 18 3 19 2 20 1 21
REMARK H PARENT
ROOT
ATOM      1  C   UNL     1      -2.316  12.198  -1.754  1.00  0.00     0.122 C 
ATOM      2  C   UNL     1      -1.093  12.706  -1.045  1.00  0.00     0.039 C 
ATOM      3  C   UNL     1      -2.124  11.920  -0.288  1.00  0.00     0.026 C 
ENDROOT
BRANCH   1   4
ATOM      4  O   UNL     1      -3.266  13.226  -2.096  1.00  0.00    -0.371 OA
BRANCH   4   5
ATOM      5  C   UNL     1      -4.017  13.000  -3.299  1.00  0.00     0.158 C 
ATOM      6  C   UNL     1      -7.874  16.411  -2.468  1.00  0.00    -0.003 C 
ATOM      7  C   UNL     1      -7.463  15.054  -1.883  1.00  0.00     0.052 C 
ATOM      8  C   UNL     1      -6.616  17.184  -2.889  1.00  0.00     0.019 C 
ATOM      9  C   UNL     1      -6.542  14.279  -2.836  1.00  0.00     0.189 C 
ATOM     10  C   UNL     1      -5.727  16.346  -3.807  1.00  0.00     0.087 C 
ATOM     11  N   UNL     1      -5.364  15.079  -3.171  1.00  0.00    -0.276 NA
ATOM     12  O   UNL     1      -6.193  13.065  -2.168  1.00  0.00    -0.360 OA
ATOM     13  C   UNL     1      -4.441  14.301  -4.004  1.00  0.00     0.121 C 
ATOM     14  C   UNL     1      -5.298  12.246  -2.926  1.00  0.00     0.195 C 
BRANCH   6  15
ATOM     15  C   UNL     1      -8.686  17.218  -1.480  1.00  0.00    -0.008 C 
ATOM     16  C   UNL     1      -9.799  18.119  -1.961  1.00  0.00     0.004 C 
ATOM     17  C   UNL     1     -10.127  16.870  -1.197  1.00  0.00     0.004 C 
ENDBRANCH   6  15
ENDBRANCH   4   5
ENDBRANCH   1   4
BRANCH   3  18
ATOM     18  C   UNL     1      -1.784  10.536   0.180  1.00  0.00     0.053 C 
BRANCH  18  19
ATOM     19  C   UNL     1      -2.223  10.179   1.576  1.00  0.00     0.074 C 
BRANCH  19  20
ATOM     20  N   UNL     1      -2.385  11.007   2.554  1.00  0.00    -0.313 NA
ATOM     21  H   UNL     1      -1.993  11.934   2.336  1.00  0.00     0.186 HD
ENDBRANCH  19  20
ENDBRANCH  18  19
ENDBRANCH   3  18
TORSDOF 6
ENDMDL
MODEL 4
REMARK VINA RESULT:    -3.945      5.200      8.429
REMARK INTER + INTRA:          -5.425
REMARK INTER:                  -5.174
REMARK INTRA:                  -0.251
REMARK UNBOUND:                -0.211
REMARK SMILES [H]/N=C\C[C@H]1C[C@@H]1O[C@H]1CO[C@H]2C[C@@H](C3CC3)CCN2C1
REMARK SMILES IDX 7 1 6 2 5 3 8 4 9 5 14 6 13 7 18 8 12 9 19 10 20 11 11 12
REMARK SMILES IDX 21 13 10 14 15 15 16 16 17 17 4 18 3 19 2 20 1 21
REMARK H PARENT
ROOT
ATOM      1  C   UNL     1      -1.255  12.319  -1.757  1.00  0.00     0.122 C 
ATOM      2  C   UNL     1      -2.541  12.199  -2.525  1.00  0.00     0.039 C 
ATOM      3  C   UNL     1      -1.332  11.423  -2.962  1.00  0.00     0.026 C 
ENDROOT
BRANCH   1   4
ATOM      4  O   UNL     1      -0.581  13.580  -1.932  1.00  0.00    -0.371 OA
BRANCH   4   5
ATOM      5  C   UNL     1       0.130  14.068  -0.783  1.00  0.00     0.158 C 
ATOM      6  C   UNL     1       3.042  17.693  -3.145  1.00  0.00    -0.003 C 
ATOM      7  C   UNL     1       3.023  16.161  -3.096  1.00  0.00     0.052 C 
ATOM      8  C   UNL     1       1.607  18.223  -3.015  1.00  0.00     0.019 C 
ATOM      9  C   UNL     1       2.273  15.640  -1.862  1.00  0.00     0.189 C 
ATOM     10  C   UNL     1       0.905  17.641  -1.789  1.00  0.00     0.087 C 
ATOM     11  N   UNL     1       0.913  16.178  -1.827  1.00  0.00    -0.276 NA
ATOM     12  O   UNL     1       2.282  14.213  -1.951  1.00  0.00    -0.360 OA
ATOM     13  C   UNL     1       0.168  15.605  -0.701  1.00  0.00     0.121 C 
ATOM     14  C   UNL     1       1.579  13.581  -0.877  1.00  0.00     0.195 C 
BRANCH   6  15
ATOM     15  C   UNL     1       3.682  18.200  -4.418  1.00  0.00    -0.008 C 
ATOM     16  C   UNL     1       4.653  19.356  -4.377  1.00  0.00     0.004 C 
ATOM     17  C   UNL     1       5.150  17.975  -4.689  1.00  0.00     0.004 C 
ENDBRANCH   6  15
ENDBRANCH   4   5
ENDBRANCH   1   4
BRANCH   3  18
ATOM     18  C   UNL     1      -1.326   9.933  -2.798  1.00  0.00     0.053 C 
BRANCH  18  19
ATOM     19  C   UNL     1      -0.731   9.140  -3.932  1.00  0.00     0.074 C 
BRANCH  19  20
ATOM     20  N   UNL     1      -0.717   9.489  -5.175  1.00  0.00    -0.313 NA
ATOM     21  H   UNL     1       0.067  10.125  -5.382  1.00  0.00     0.186 HD
ENDBRANCH  19  20
ENDBRANCH  18  19
ENDBRANCH   3  18
TORSDOF 6
ENDMDL
MODEL 5
REMARK VINA RESULT:    -3.874      3.045      4.570
REMARK INTER + INTRA:          -5.331
REMARK INTER:                  -5.484
REMARK INTRA:                   0.153
REMARK UNBOUND:                -0.211
REMARK SMILES [H]/N=C\C[C@H]1C[C@@H]1O[C@H]1CO[C@H]2C[C@@H](C3CC3)CCN2C1
REMARK SMILES IDX 7 1 6 2 5 3 8 4 9 5 14 6 13 7 18 8 12 9 19 10 20 11 11 12
REMARK SMILES IDX 21 13 10 14 15 15 16 16 17 17 4 18 3 19 2 20 1 21
REMARK H PARENT
ROOT
ATOM      1  C   UNL     1       0.587  14.038  -0.555  1.00  0.00     0.122 C 
ATOM      2  C   UNL     1       1.719  14.466  -1.447  1.00  0.00     0.039 C 
ATOM      3  C   UNL     1       0.425  15.229  -1.460  1.00  0.00     0.026 C 
ENDROOT
BRANCH   1   4
ATOM      4  O   UNL     1      -0.059  12.820  -0.971  1.00  0.00    -0.371 OA
BRANCH   4   5
ATOM      5  C   UNL     1      -1.478  12.764  -0.749  1.00  0.00     0.158 C 
ATOM      6  C   UNL     1      -2.136   7.608  -1.183  1.00  0.00    -0.003 C 
ATOM      7  C   UNL     1      -1.836   8.762  -2.147  1.00  0.00     0.052 C 
ATOM      8  C   UNL     1      -1.502   7.910   0.182  1.00  0.00     0.019 C 
ATOM      9  C   UNL     1      -2.240  10.119  -1.556  1.00  0.00     0.189 C 
ATOM     10  C   UNL     1      -1.917   9.287   0.699  1.00  0.00     0.087 C 
ATOM     11  N   UNL     1      -1.579  10.332  -0.268  1.00  0.00    -0.276 NA
ATOM     12  O   UNL     1      -1.872  11.110  -2.517  1.00  0.00    -0.360 OA
ATOM     13  C   UNL     1      -1.892  11.669   0.250  1.00  0.00     0.121 C 
ATOM     14  C   UNL     1      -2.157  12.444  -2.084  1.00  0.00     0.195 C 
BRANCH   6  15
ATOM     15  C   UNL     1      -1.632   6.289  -1.722  1.00  0.00    -0.008 C 
ATOM     16  C   UNL     1      -2.557   5.098  -1.813  1.00  0.00     0.004 C 
ATOM     17  C   UNL     1      -2.089   5.778  -3.067  1.00  0.00     0.004 C 
ENDBRANCH   6  15
ENDBRANCH   4   5
ENDBRANCH   1   4
BRANCH   3  18
ATOM     18  C   UNL     1       0.393  16.614  -0.887  1.00  0.00     0.053 C 
BRANCH  18  19
ATOM     19  C   UNL     1      -0.679  17.530  -1.418  1.00  0.00     0.074 C 
BRANCH  19  20
ATOM     20  N   UNL     1      -1.735  17.165  -2.065  1.00  0.00    -0.313 NA
ATOM     21  H   UNL     1      -1.876  16.146  -2.017  1.00  0.00     0.186 HD
ENDBRANCH  19  20
ENDBRANCH  18  19
ENDBRANCH   3  18
TORSDOF 6
ENDMDL
MODEL 6
REMARK VINA RESULT:    -3.864      1.480      1.757
REMARK INTER + INTRA:          -5.317
REMARK INTER:                  -5.374
REMARK INTRA:                   0.056
REMARK UNBOUND:                -0.211
REMARK SMILES [H]/N=C\C[C@H]1C[C@@H]1O[C@H]1CO[C@H]2C[C@@H](C3CC3)CCN2C1
REMARK SMILES IDX 7 1 6 2 5 3 8 4 9 5 14 6 13 7 18 8 12 9 19 10 20 11 11 12
REMARK SMILES IDX 21 13 10 14 15 15 16 16 17 17 4 18 3 19 2 20 1 21
REMARK H PARENT
ROOT
ATOM      1  C   UNL     1      -4.416  12.748  -3.485  1.00  0.00     0.122 C 
ATOM      2  C   UNL     1      -5.751  13.082  -2.880  1.00  0.00     0.039 C 
ATOM      3  C   UNL     1      -4.741  14.169  -3.113  1.00  0.00     0.026 C 
ENDROOT
BRANCH   1   4
ATOM      4  O   UNL     1      -3.532  12.035  -2.599  1.00  0.00    -0.371 OA
BRANCH   4   5
ATOM      5  C   UNL     1      -2.129  12.190  -2.868  1.00  0.00     0.158 C 
ATOM      6  C   UNL     1      -0.377   7.987  -0.324  1.00  0.00    -0.003 C 
ATOM      7  C   UNL     1      -0.953   9.351   0.074  1.00  0.00     0.052 C 
ATOM      8  C   UNL     1      -1.017   7.532  -1.644  1.00  0.00     0.019 C 
ATOM      9  C   UNL     1      -0.835  10.374  -1.063  1.00  0.00     0.189 C 
ATOM     10  C   UNL     1      -0.896   8.607  -2.723  1.00  0.00     0.087 C 
ATOM     11  N   UNL     1      -1.484   9.869  -2.273  1.00  0.00    -0.276 NA
ATOM     12  O   UNL     1      -1.441  11.580  -0.593  1.00  0.00    -0.360 OA
ATOM     13  C   UNL     1      -1.453  10.886  -3.330  1.00  0.00     0.121 C 
ATOM     14  C   UNL     1      -1.440  12.625  -1.570  1.00  0.00     0.195 C 
BRANCH   6  15
ATOM     15  C   UNL     1      -0.598   6.953   0.757  1.00  0.00    -0.008 C 
ATOM     16  C   UNL     1       0.554   6.117   1.262  1.00  0.00     0.004 C 
ATOM     17  C   UNL     1      -0.055   7.163   2.150  1.00  0.00     0.004 C 
ENDBRANCH   6  15
ENDBRANCH   4   5
ENDBRANCH   1   4
BRANCH   3  18
ATOM     18  C   UNL     1      -5.004  15.188  -4.180  1.00  0.00     0.053 C 
BRANCH  18  19
ATOM     19  C   UNL     1      -4.077  16.375  -4.211  1.00  0.00     0.074 C 
BRANCH  19  20
ATOM     20  N   UNL     1      -3.041  16.547  -3.458  1.00  0.00    -0.313 NA
ATOM     21  H   UNL     1      -2.914  15.762  -2.803  1.00  0.00     0.186 HD
ENDBRANCH  19  20
ENDBRANCH  18  19
ENDBRANCH   3  18
TORSDOF 6
ENDMDL
MODEL 7
REMARK VINA RESULT:    -3.496      4.873      7.293
REMARK INTER + INTRA:          -4.831
REMARK INTER:                  -4.548
REMARK INTRA:                  -0.283
REMARK UNBOUND:                -0.211
REMARK SMILES [H]/N=C\C[C@H]1C[C@@H]1O[C@H]1CO[C@H]2C[C@@H](C3CC3)CCN2C1
REMARK SMILES IDX 7 1 6 2 5 3 8 4 9 5 14 6 13 7 18 8 12 9 19 10 20 11 11 12
REMARK SMILES IDX 21 13 10 14 15 15 16 16 17 17 4 18 3 19 2 20 1 21
REMARK H PARENT
ROOT
ATOM      1  C   UNL     1       3.041  16.292  -3.135  1.00  0.00     0.122 C 
ATOM      2  C   UNL     1       4.038  16.039  -4.230  1.00  0.00     0.039 C 
ATOM      3  C   UNL     1       2.840  16.905  -4.494  1.00  0.00     0.026 C 
ENDROOT
BRANCH   1   4
ATOM      4  O   UNL     1       2.219  15.153  -2.814  1.00  0.00    -0.371 OA
BRANCH   4   5
ATOM      5  C   UNL     1       1.824  15.042  -1.437  1.00  0.00     0.158 C 
ATOM      6  C   UNL     1      -2.855  12.847  -2.140  1.00  0.00    -0.003 C 
ATOM      7  C   UNL     1      -2.249  14.237  -2.366  1.00  0.00     0.052 C 
ATOM      8  C   UNL     1      -1.773  11.780  -2.360  1.00  0.00     0.019 C 
ATOM      9  C   UNL     1      -0.981  14.450  -1.528  1.00  0.00     0.189 C 
ATOM     10  C   UNL     1      -0.526  12.068  -1.524  1.00  0.00     0.087 C 
ATOM     11  N   UNL     1      -0.000  13.402  -1.811  1.00  0.00    -0.276 NA
ATOM     12  O   UNL     1      -0.487  15.750  -1.856  1.00  0.00    -0.360 OA
ATOM     13  C   UNL     1       1.246  13.661  -1.081  1.00  0.00     0.121 C 
ATOM     14  C   UNL     1       0.726  16.077  -1.172  1.00  0.00     0.195 C 
BRANCH   6  15
ATOM     15  C   UNL     1      -4.036  12.601  -3.051  1.00  0.00    -0.008 C 
ATOM     16  C   UNL     1      -5.446  12.743  -2.529  1.00  0.00     0.004 C 
ATOM     17  C   UNL     1      -4.909  13.743  -3.511  1.00  0.00     0.004 C 
ENDBRANCH   6  15
ENDBRANCH   4   5
ENDBRANCH   1   4
BRANCH   3  18
ATOM     18  C   UNL     1       3.038  18.378  -4.694  1.00  0.00     0.053 C 
BRANCH  18  19
ATOM     19  C   UNL     1       1.830  19.158  -5.143  1.00  0.00     0.074 C 
BRANCH  19  20
ATOM     20  N   UNL     1       0.606  18.746  -5.106  1.00  0.00    -0.313 NA
ATOM     21  H   UNL     1       0.220  18.620  -6.051  1.00  0.00     0.186 HD
ENDBRANCH  19  20
ENDBRANCH  18  19
ENDBRANCH   3  18
TORSDOF 6
ENDMDL
MODEL 8
REMARK VINA RESULT:    -3.490      3.578      5.034
REMARK INTER + INTRA:          -4.823
REMARK INTER:                  -4.704
REMARK INTRA:                  -0.119
REMARK UNBOUND:                -0.211
REMARK SMILES [H]/N=C\C[C@H]1C[C@@H]1O[C@H]1CO[C@H]2C[C@@H](C3CC3)CCN2C1
REMARK SMILES IDX 7 1 6 2 5 3 8 4 9 5 14 6 13 7 18 8 12 9 19 10 20 11 11 12
REMARK SMILES IDX 21 13 10 14 15 15 16 16 17 17 4 18 3 19 2 20 1 21
REMARK H PARENT
ROOT
ATOM      1  C   UNL     1      -7.523  15.232  -1.830  1.00  0.00     0.122 C 
ATOM      2  C   UNL     1      -8.355  15.287  -0.581  1.00  0.00     0.039 C 
ATOM      3  C   UNL     1      -7.482  16.451  -0.951  1.00  0.00     0.026 C 
ENDROOT
BRANCH   1   4
ATOM      4  O   UNL     1      -6.396  14.338  -1.746  1.00  0.00    -0.371 OA
BRANCH   4   5
ATOM      5  C   UNL     1      -5.959  13.773  -2.993  1.00  0.00     0.158 C 
ATOM      6  C   UNL     1      -0.952  12.966  -1.774  1.00  0.00    -0.003 C 
ATOM      7  C   UNL     1      -1.827  14.190  -2.070  1.00  0.00     0.052 C 
ATOM      8  C   UNL     1      -1.804  11.887  -1.092  1.00  0.00     0.019 C 
ATOM      9  C   UNL     1      -3.094  13.810  -2.848  1.00  0.00     0.189 C 
ATOM     10  C   UNL     1      -3.066  11.580  -1.898  1.00  0.00     0.087 C 
ATOM     11  N   UNL     1      -3.853  12.793  -2.121  1.00  0.00    -0.276 NA
ATOM     12  O   UNL     1      -3.843  15.015  -3.022  1.00  0.00    -0.360 OA
ATOM     13  C   UNL     1      -5.111  12.501  -2.817  1.00  0.00     0.121 C 
ATOM     14  C   UNL     1      -5.084  14.810  -3.705  1.00  0.00     0.195 C 
BRANCH   6  15
ATOM     15  C   UNL     1       0.236  13.328  -0.911  1.00  0.00    -0.008 C 
ATOM     16  C   UNL     1       1.463  13.958  -1.526  1.00  0.00     0.004 C 
ATOM     17  C   UNL     1       0.576  14.772  -0.630  1.00  0.00     0.004 C 
ENDBRANCH   6  15
ENDBRANCH   4   5
ENDBRANCH   1   4
BRANCH   3  18
ATOM     18  C   UNL     1      -8.126  17.729  -1.400  1.00  0.00     0.053 C 
BRANCH  18  19
ATOM     19  C   UNL     1      -7.235  18.943  -1.448  1.00  0.00     0.074 C 
BRANCH  19  20
ATOM     20  N   UNL     1      -6.001  18.992  -1.071  1.00  0.00    -0.313 NA
ATOM     21  H   UNL     1      -5.805  18.312  -0.322  1.00  0.00     0.186 HD
ENDBRANCH  19  20
ENDBRANCH  18  19
ENDBRANCH   3  18
TORSDOF 6
ENDMDL
MODEL 9
REMARK VINA RESULT:    -3.380      6.577      8.624
REMARK INTER + INTRA:          -4.677
REMARK INTER:                  -4.339
REMARK INTRA:                  -0.339
REMARK UNBOUND:                -0.211
REMARK SMILES [H]/N=C\C[C@H]1C[C@@H]1O[C@H]1CO[C@H]2C[C@@H](C3CC3)CCN2C1
REMARK SMILES IDX 7 1 6 2 5 3 8 4 9 5 14 6 13 7 18 8 12 9 19 10 20 11 11 12
REMARK SMILES IDX 21 13 10 14 15 15 16 16 17 17 4 18 3 19 2 20 1 21
REMARK H PARENT
ROOT
ATOM      1  C   UNL     1       3.058  17.666  -3.959  1.00  0.00     0.122 C 
ATOM      2  C   UNL     1       3.103  17.024  -5.316  1.00  0.00     0.039 C 
ATOM      3  C   UNL     1       3.700  18.386  -5.113  1.00  0.00     0.026 C 
ENDROOT
BRANCH   1   4
ATOM      4  O   UNL     1       1.748  18.118  -3.566  1.00  0.00    -0.371 OA
BRANCH   4   5
ATOM      5  C   UNL     1       1.551  18.293  -2.153  1.00  0.00     0.158 C 
ATOM      6  C   UNL     1      -0.307  13.551  -1.029  1.00  0.00    -0.003 C 
ATOM      7  C   UNL     1      -0.836  14.794  -1.756  1.00  0.00     0.052 C 
ATOM      8  C   UNL     1       1.210  13.448  -1.239  1.00  0.00     0.019 C 
ATOM      9  C   UNL     1      -0.062  16.058  -1.358  1.00  0.00     0.189 C 
ATOM     10  C   UNL     1       1.916  14.748  -0.857  1.00  0.00     0.087 C 
ATOM     11  N   UNL     1       1.369  15.880  -1.606  1.00  0.00    -0.276 NA
ATOM     12  O   UNL     1      -0.609  17.131  -2.127  1.00  0.00    -0.360 OA
ATOM     13  C   UNL     1       2.095  17.122  -1.316  1.00  0.00     0.121 C 
ATOM     14  C   UNL     1       0.044  18.381  -1.890  1.00  0.00     0.195 C 
BRANCH   6  15
ATOM     15  C   UNL     1      -0.996  12.293  -1.508  1.00  0.00    -0.008 C 
ATOM     16  C   UNL     1      -1.860  11.489  -0.566  1.00  0.00     0.004 C 
ATOM     17  C   UNL     1      -2.494  12.253  -1.692  1.00  0.00     0.004 C 
ENDBRANCH   6  15
ENDBRANCH   4   5
ENDBRANCH   1   4
BRANCH   3  18
ATOM     18  C   UNL     1       5.191  18.542  -5.172  1.00  0.00     0.053 C 
BRANCH  18  19
ATOM     19  C   UNL     1       5.730  19.361  -6.316  1.00  0.00     0.074 C 
BRANCH  19  20
ATOM     20  N   UNL     1       6.482  18.924  -7.271  1.00  0.00    -0.313 NA
ATOM     21  H   UNL     1       7.099  18.163  -6.951  1.00  0.00     0.186 HD
ENDBRANCH  19  20
ENDBRANCH  18  19
ENDBRANCH   3  18
TORSDOF 6
ENDMDL
