MODEL 1
REMARK VINA RESULT:    -4.439      0.000      0.000
REMARK INTER + INTRA:          -5.624
REMARK INTER:                  -5.866
REMARK INTRA:                   0.242
REMARK UNBOUND:                 0.242
REMARK SMILES [H]/N=C\C[C@H]1C[C@@H]1O[C@H]1CO[C@H]2C[C@@H](C3CC3)CCN2C1
REMARK SMILES IDX 7 1 6 2 5 3 8 4 9 5 14 6 13 7 18 8 12 9 19 10 20 11 11 12
REMARK SMILES IDX 21 13 10 14 15 15 16 16 17 17 4 18 3 19 2 20 1 21
REMARK H PARENT
ROOT
ATOM      1  C   UNL     1      10.531   1.505   8.380  1.00  0.00     0.122 C 
ATOM      2  C   UNL     1      11.535   2.565   8.023  1.00  0.00     0.039 C 
ATOM      3  C   UNL     1      11.241   2.266   9.466  1.00  0.00     0.026 C 
ENDROOT
BRANCH   1   4
ATOM      4  O   UNL     1       9.165   1.878   8.119  1.00  0.00    -0.371 OA
BRANCH   4   5
ATOM      5  C   UNL     1       8.205   1.437   9.093  1.00  0.00     0.158 C 
ATOM      6  C   UNL     1       3.869   2.077   6.265  1.00  0.00    -0.003 C 
ATOM      7  C   UNL     1       4.878   3.004   6.954  1.00  0.00     0.052 C 
ATOM      8  C   UNL     1       4.593   0.814   5.777  1.00  0.00     0.019 C 
ATOM      9  C   UNL     1       5.668   2.274   8.049  1.00  0.00     0.189 C 
ATOM     10  C   UNL     1       5.387   0.155   6.905  1.00  0.00     0.087 C 
ATOM     11  N   UNL     1       6.337   1.097   7.496  1.00  0.00    -0.276 NA
ATOM     12  O   UNL     1       6.598   3.219   8.581  1.00  0.00    -0.360 OA
ATOM     13  C   UNL     1       7.168   0.455   8.521  1.00  0.00     0.121 C 
ATOM     14  C   UNL     1       7.440   2.665   9.597  1.00  0.00     0.195 C 
BRANCH   6  15
ATOM     15  C   UNL     1       3.176   2.770   5.114  1.00  0.00    -0.008 C 
ATOM     16  C   UNL     1       1.669   2.751   5.007  1.00  0.00     0.004 C 
ATOM     17  C   UNL     1       2.379   4.032   5.337  1.00  0.00     0.004 C 
ENDBRANCH   6  15
ENDBRANCH   4   5
ENDBRANCH   1   4
BRANCH   3  18
ATOM     18  C   UNL     1      12.293   1.594  10.297  1.00  0.00     0.053 C 
BRANCH  18  19
ATOM     19  C   UNL     1      12.344   1.985  11.751  1.00  0.00     0.074 C 
BRANCH  19  20
ATOM     20  N   UNL     1      11.949   1.260  12.745  1.00  0.00    -0.313 NA
ATOM     21  H   UNL     1      11.334   1.788  13.379  1.00  0.00     0.186 HD
ENDBRANCH  19  20
ENDBRANCH  18  19
ENDBRANCH   3  18
TORSDOF 6
ENDMDL
MODEL 2
REMARK VINA RESULT:    -4.403      3.115      4.637
REMARK INTER + INTRA:          -5.577
REMARK INTER:                  -5.353
REMARK INTRA:                  -0.223
REMARK UNBOUND:                 0.242
REMARK SMILES [H]/N=C\C[C@H]1C[C@@H]1O[C@H]1CO[C@H]2C[C@@H](C3CC3)CCN2C1
REMARK SMILES IDX 7 1 6 2 5 3 8 4 9 5 14 6 13 7 18 8 12 9 19 10 20 11 11 12
REMARK SMILES IDX 21 13 10 14 15 15 16 16 17 17 4 18 3 19 2 20 1 21
REMARK H PARENT
ROOT
ATOM      1  C   UNL     1       6.534   2.627  11.739  1.00  0.00     0.122 C 
ATOM      2  C   UNL     1       6.893   3.751  12.671  1.00  0.00     0.039 C 
ATOM      3  C   UNL     1       5.640   2.956  12.903  1.00  0.00     0.026 C 
ENDROOT
BRANCH   1   4
ATOM      4  O   UNL     1       6.088   3.062  10.440  1.00  0.00    -0.371 OA
BRANCH   4   5
ATOM      5  C   UNL     1       7.120   3.516   9.550  1.00  0.00     0.158 C 
ATOM      6  C   UNL     1       5.381   1.320   5.150  1.00  0.00    -0.003 C 
ATOM      7  C   UNL     1       6.035   0.819   6.444  1.00  0.00     0.052 C 
ATOM      8  C   UNL     1       4.516   2.549   5.462  1.00  0.00     0.019 C 
ATOM      9  C   UNL     1       6.783   1.941   7.177  1.00  0.00     0.189 C 
ATOM     10  C   UNL     1       5.309   3.612   6.220  1.00  0.00     0.087 C 
ATOM     11  N   UNL     1       5.882   3.061   7.448  1.00  0.00    -0.276 NA
ATOM     12  O   UNL     1       7.304   1.368   8.378  1.00  0.00    -0.360 OA
ATOM     13  C   UNL     1       6.574   4.091   8.232  1.00  0.00     0.121 C 
ATOM     14  C   UNL     1       8.002   2.315   9.192  1.00  0.00     0.195 C 
BRANCH   6  15
ATOM     15  C   UNL     1       4.552   0.240   4.493  1.00  0.00    -0.008 C 
ATOM     16  C   UNL     1       4.653  -0.001   3.005  1.00  0.00     0.004 C 
ATOM     17  C   UNL     1       5.199  -1.018   3.965  1.00  0.00     0.004 C 
ENDBRANCH   6  15
ENDBRANCH   4   5
ENDBRANCH   1   4
BRANCH   3  18
ATOM     18  C   UNL     1       5.571   2.038  14.087  1.00  0.00     0.053 C 
BRANCH  18  19
ATOM     19  C   UNL     1       5.956   2.634  15.416  1.00  0.00     0.074 C 
BRANCH  19  20
ATOM     20  N   UNL     1       5.179   3.306  16.197  1.00  0.00    -0.313 NA
ATOM     21  H   UNL     1       5.132   4.298  15.925  1.00  0.00     0.186 HD
ENDBRANCH  19  20
ENDBRANCH  18  19
ENDBRANCH   3  18
TORSDOF 6
ENDMDL
MODEL 3
REMARK VINA RESULT:    -4.064      4.238      7.168
REMARK INTER + INTRA:          -5.129
REMARK INTER:                  -4.957
REMARK INTRA:                  -0.171
REMARK UNBOUND:                 0.242
REMARK SMILES [H]/N=C\C[C@H]1C[C@@H]1O[C@H]1CO[C@H]2C[C@@H](C3CC3)CCN2C1
REMARK SMILES IDX 7 1 6 2 5 3 8 4 9 5 14 6 13 7 18 8 12 9 19 10 20 11 11 12
REMARK SMILES IDX 21 13 10 14 15 15 16 16 17 17 4 18 3 19 2 20 1 21
REMARK H PARENT
ROOT
ATOM      1  C   UNL     1      15.010   5.111  12.941  1.00  0.00     0.122 C 
ATOM      2  C   UNL     1      15.724   6.258  12.284  1.00  0.00     0.039 C 
ATOM      3  C   UNL     1      14.686   6.525  13.337  1.00  0.00     0.026 C 
ENDROOT
BRANCH   1   4
ATOM      4  O   UNL     1      14.058   4.446  12.089  1.00  0.00    -0.371 OA
BRANCH   4   5
ATOM      5  C   UNL     1      14.387   3.095  11.727  1.00  0.00     0.158 C 
ATOM      6  C   UNL     1      10.202   2.024   8.805  1.00  0.00    -0.003 C 
ATOM      7  C   UNL     1      10.477   2.212  10.302  1.00  0.00     0.052 C 
ATOM      8  C   UNL     1      11.148   2.924   7.998  1.00  0.00     0.019 C 
ATOM      9  C   UNL     1      11.963   2.018  10.637  1.00  0.00     0.189 C 
ATOM     10  C   UNL     1      12.606   2.708   8.403  1.00  0.00     0.087 C 
ATOM     11  N   UNL     1      12.788   2.924   9.838  1.00  0.00    -0.276 NA
ATOM     12  O   UNL     1      12.101   2.262  12.038  1.00  0.00    -0.360 OA
ATOM     13  C   UNL     1      14.198   2.805  10.227  1.00  0.00     0.121 C 
ATOM     14  C   UNL     1      13.452   2.155  12.495  1.00  0.00     0.195 C 
BRANCH   6  15
ATOM     15  C   UNL     1       8.761   2.327   8.463  1.00  0.00    -0.008 C 
ATOM     16  C   UNL     1       7.703   1.256   8.594  1.00  0.00     0.004 C 
ATOM     17  C   UNL     1       7.712   2.417   9.546  1.00  0.00     0.004 C 
ENDBRANCH   6  15
ENDBRANCH   4   5
ENDBRANCH   1   4
BRANCH   3  18
ATOM     18  C   UNL     1      15.124   7.056  14.670  1.00  0.00     0.053 C 
BRANCH  18  19
ATOM     19  C   UNL     1      15.485   8.517  14.719  1.00  0.00     0.074 C 
BRANCH  19  20
ATOM     20  N   UNL     1      14.705   9.501  14.415  1.00  0.00    -0.313 NA
ATOM     21  H   UNL     1      14.046   9.245  13.666  1.00  0.00     0.186 HD
ENDBRANCH  19  20
ENDBRANCH  18  19
ENDBRANCH   3  18
TORSDOF 6
ENDMDL
MODEL 4
REMARK VINA RESULT:    -3.928      5.229      8.535
REMARK INTER + INTRA:          -4.949
REMARK INTER:                  -4.548
REMARK INTRA:                  -0.401
REMARK UNBOUND:                 0.242
REMARK SMILES [H]/N=C\C[C@H]1C[C@@H]1O[C@H]1CO[C@H]2C[C@@H](C3CC3)CCN2C1
REMARK SMILES IDX 7 1 6 2 5 3 8 4 9 5 14 6 13 7 18 8 12 9 19 10 20 11 11 12
REMARK SMILES IDX 21 13 10 14 15 15 16 16 17 17 4 18 3 19 2 20 1 21
REMARK H PARENT
ROOT
ATOM      1  C   UNL     1      15.129   5.448  14.191  1.00  0.00     0.122 C 
ATOM      2  C   UNL     1      15.023   6.538  13.162  1.00  0.00     0.039 C 
ATOM      3  C   UNL     1      14.732   6.839  14.604  1.00  0.00     0.026 C 
ENDROOT
BRANCH   1   4
ATOM      4  O   UNL     1      14.074   4.471  14.122  1.00  0.00    -0.371 OA
BRANCH   4   5
ATOM      5  C   UNL     1      14.501   3.109  13.949  1.00  0.00     0.158 C 
ATOM      6  C   UNL     1      12.254   2.162   9.339  1.00  0.00    -0.003 C 
ATOM      7  C   UNL     1      11.766   2.344  10.781  1.00  0.00     0.052 C 
ATOM      8  C   UNL     1      13.498   3.032   9.110  1.00  0.00     0.019 C 
ATOM      9  C   UNL     1      12.892   2.106  11.797  1.00  0.00     0.189 C 
ATOM     10  C   UNL     1      14.565   2.771  10.173  1.00  0.00     0.087 C 
ATOM     11  N   UNL     1      14.027   2.984  11.517  1.00  0.00    -0.276 NA
ATOM     12  O   UNL     1      12.333   2.348  13.090  1.00  0.00    -0.360 OA
ATOM     13  C   UNL     1      15.062   2.823  12.545  1.00  0.00     0.121 C 
ATOM     14  C   UNL     1      13.285   2.200  14.148  1.00  0.00     0.195 C 
BRANCH   6  15
ATOM     15  C   UNL     1      11.173   2.509   8.340  1.00  0.00    -0.008 C 
ATOM     16  C   UNL     1      10.596   1.443   7.438  1.00  0.00     0.004 C 
ATOM     17  C   UNL     1       9.756   2.027   8.535  1.00  0.00     0.004 C 
ENDBRANCH   6  15
ENDBRANCH   4   5
ENDBRANCH   1   4
BRANCH   3  18
ATOM     18  C   UNL     1      15.688   7.701  15.373  1.00  0.00     0.053 C 
BRANCH  18  19
ATOM     19  C   UNL     1      15.419   9.183  15.347  1.00  0.00     0.074 C 
BRANCH  19  20
ATOM     20  N   UNL     1      14.573   9.785  14.579  1.00  0.00    -0.313 NA
ATOM     21  H   UNL     1      14.207  10.643  15.016  1.00  0.00     0.186 HD
ENDBRANCH  19  20
ENDBRANCH  18  19
ENDBRANCH   3  18
TORSDOF 6
ENDMDL
MODEL 5
REMARK VINA RESULT:    -3.901      3.118      4.484
REMARK INTER + INTRA:          -4.914
REMARK INTER:                  -4.987
REMARK INTRA:                   0.073
REMARK UNBOUND:                 0.242
REMARK SMILES [H]/N=C\C[C@H]1C[C@@H]1O[C@H]1CO[C@H]2C[C@@H](C3CC3)CCN2C1
REMARK SMILES IDX 7 1 6 2 5 3 8 4 9 5 14 6 13 7 18 8 12 9 19 10 20 11 11 12
REMARK SMILES IDX 21 13 10 14 15 15 16 16 17 17 4 18 3 19 2 20 1 21
REMARK H PARENT
ROOT
ATOM      1  C   UNL     1       6.514   3.252  11.769  1.00  0.00     0.122 C 
ATOM      2  C   UNL     1       5.078   3.386  12.188  1.00  0.00     0.039 C 
ATOM      3  C   UNL     1       6.042   2.628  13.054  1.00  0.00     0.026 C 
ENDROOT
BRANCH   1   4
ATOM      4  O   UNL     1       6.721   2.360  10.657  1.00  0.00    -0.371 OA
BRANCH   4   5
ATOM      5  C   UNL     1       7.666   2.807   9.671  1.00  0.00     0.158 C 
ATOM      6  C   UNL     1       4.903   1.714   5.385  1.00  0.00    -0.003 C 
ATOM      7  C   UNL     1       5.651   0.899   6.447  1.00  0.00     0.052 C 
ATOM      8  C   UNL     1       4.328   2.982   6.030  1.00  0.00     0.019 C 
ATOM      9  C   UNL     1       6.690   1.749   7.190  1.00  0.00     0.189 C 
ATOM     10  C   UNL     1       5.405   3.764   6.782  1.00  0.00     0.087 C 
ATOM     11  N   UNL     1       6.056   2.924   7.787  1.00  0.00    -0.276 NA
ATOM     12  O   UNL     1       7.283   0.900   8.176  1.00  0.00    -0.360 OA
ATOM     13  C   UNL     1       7.032   3.684   8.577  1.00  0.00     0.121 C 
ATOM     14  C   UNL     1       8.255   1.572   8.982  1.00  0.00     0.195 C 
BRANCH   6  15
ATOM     15  C   UNL     1       3.804   0.904   4.735  1.00  0.00    -0.008 C 
ATOM     16  C   UNL     1       3.045   1.456   3.552  1.00  0.00     0.004 C 
ATOM     17  C   UNL     1       3.991   0.307   3.361  1.00  0.00     0.004 C 
ENDBRANCH   6  15
ENDBRANCH   4   5
ENDBRANCH   1   4
BRANCH   3  18
ATOM     18  C   UNL     1       6.450   3.213  14.373  1.00  0.00     0.053 C 
BRANCH  18  19
ATOM     19  C   UNL     1       5.763   2.653  15.591  1.00  0.00     0.074 C 
BRANCH  19  20
ATOM     20  N   UNL     1       5.080   3.330  16.454  1.00  0.00    -0.313 NA
ATOM     21  H   UNL     1       4.517   4.064  16.001  1.00  0.00     0.186 HD
ENDBRANCH  19  20
ENDBRANCH  18  19
ENDBRANCH   3  18
TORSDOF 6
ENDMDL
MODEL 6
REMARK VINA RESULT:    -3.893      5.131      7.998
REMARK INTER + INTRA:          -4.903
REMARK INTER:                  -4.361
REMARK INTRA:                  -0.542
REMARK UNBOUND:                 0.242
REMARK SMILES [H]/N=C\C[C@H]1C[C@@H]1O[C@H]1CO[C@H]2C[C@@H](C3CC3)CCN2C1
REMARK SMILES IDX 7 1 6 2 5 3 8 4 9 5 14 6 13 7 18 8 12 9 19 10 20 11 11 12
REMARK SMILES IDX 21 13 10 14 15 15 16 16 17 17 4 18 3 19 2 20 1 21
REMARK H PARENT
ROOT
ATOM      1  C   UNL     1      12.810   3.964  15.114  1.00  0.00     0.122 C 
ATOM      2  C   UNL     1      12.582   5.153  16.005  1.00  0.00     0.039 C 
ATOM      3  C   UNL     1      11.657   4.894  14.850  1.00  0.00     0.026 C 
ENDROOT
BRANCH   1   4
ATOM      4  O   UNL     1      13.953   4.092  14.247  1.00  0.00    -0.371 OA
BRANCH   4   5
ATOM      5  C   UNL     1      14.581   2.857  13.864  1.00  0.00     0.158 C 
ATOM      6  C   UNL     1      12.401   2.293   9.160  1.00  0.00    -0.003 C 
ATOM      7  C   UNL     1      11.925   2.172  10.613  1.00  0.00     0.052 C 
ATOM      8  C   UNL     1      13.490   3.372   9.071  1.00  0.00     0.019 C 
ATOM      9  C   UNL     1      13.097   1.959  11.580  1.00  0.00     0.189 C 
ATOM     10  C   UNL     1      14.608   3.120  10.082  1.00  0.00     0.087 C 
ATOM     11  N   UNL     1      14.076   3.037  11.442  1.00  0.00    -0.276 NA
ATOM     12  O   UNL     1      12.537   1.908  12.894  1.00  0.00    -0.360 OA
ATOM     13  C   UNL     1      15.147   2.883  12.433  1.00  0.00     0.121 C 
ATOM     14  C   UNL     1      13.525   1.749  13.918  1.00  0.00     0.195 C 
BRANCH   6  15
ATOM     15  C   UNL     1      11.256   2.617   8.226  1.00  0.00    -0.008 C 
ATOM     16  C   UNL     1      10.694   1.555   7.311  1.00  0.00     0.004 C 
ATOM     17  C   UNL     1       9.877   2.052   8.468  1.00  0.00     0.004 C 
ENDBRANCH   6  15
ENDBRANCH   4   5
ENDBRANCH   1   4
BRANCH   3  18
ATOM     18  C   UNL     1      10.252   4.453  15.129  1.00  0.00     0.053 C 
BRANCH  18  19
ATOM     19  C   UNL     1       9.435   4.034  13.934  1.00  0.00     0.074 C 
BRANCH  19  20
ATOM     20  N   UNL     1       9.872   3.377  12.911  1.00  0.00    -0.313 NA
ATOM     21  H   UNL     1      10.900   3.313  12.911  1.00  0.00     0.186 HD
ENDBRANCH  19  20
ENDBRANCH  18  19
ENDBRANCH   3  18
TORSDOF 6
ENDMDL
MODEL 7
REMARK VINA RESULT:    -3.878      4.969      7.474
REMARK INTER + INTRA:          -4.884
REMARK INTER:                  -4.300
REMARK INTRA:                  -0.584
REMARK UNBOUND:                 0.242
REMARK SMILES [H]/N=C\C[C@H]1C[C@@H]1O[C@H]1CO[C@H]2C[C@@H](C3CC3)CCN2C1
REMARK SMILES IDX 7 1 6 2 5 3 8 4 9 5 14 6 13 7 18 8 12 9 19 10 20 11 11 12
REMARK SMILES IDX 21 13 10 14 15 15 16 16 17 17 4 18 3 19 2 20 1 21
REMARK H PARENT
ROOT
ATOM      1  C   UNL     1      12.699   3.119  15.327  1.00  0.00     0.122 C 
ATOM      2  C   UNL     1      13.806   2.122  15.522  1.00  0.00     0.039 C 
ATOM      3  C   UNL     1      12.843   1.958  14.381  1.00  0.00     0.026 C 
ENDROOT
BRANCH   1   4
ATOM      4  O   UNL     1      11.646   3.026  16.307  1.00  0.00    -0.371 OA
BRANCH   4   5
ATOM      5  C   UNL     1      10.957   4.254  16.593  1.00  0.00     0.158 C 
ATOM      6  C   UNL     1       6.635   3.396  13.803  1.00  0.00    -0.003 C 
ATOM      7  C   UNL     1       8.101   3.718  13.486  1.00  0.00     0.052 C 
ATOM      8  C   UNL     1       6.566   2.557  15.087  1.00  0.00     0.019 C 
ATOM      9  C   UNL     1       8.816   4.353  14.687  1.00  0.00     0.189 C 
ATOM     10  C   UNL     1       7.325   3.227  16.232  1.00  0.00     0.087 C 
ATOM     11  N   UNL     1       8.716   3.483  15.859  1.00  0.00    -0.276 NA
ATOM     12  O   UNL     1      10.173   4.563  14.289  1.00  0.00    -0.360 OA
ATOM     13  C   UNL     1       9.481   4.045  16.977  1.00  0.00     0.121 C 
ATOM     14  C   UNL     1      10.981   5.120  15.330  1.00  0.00     0.195 C 
BRANCH   6  15
ATOM     15  C   UNL     1       5.967   2.668  12.658  1.00  0.00    -0.008 C 
ATOM     16  C   UNL     1       5.033   3.404  11.726  1.00  0.00     0.004 C 
ATOM     17  C   UNL     1       6.371   2.940  11.228  1.00  0.00     0.004 C 
ENDBRANCH   6  15
ENDBRANCH   4   5
ENDBRANCH   1   4
BRANCH   3  18
ATOM     18  C   UNL     1      13.330   2.181  12.981  1.00  0.00     0.053 C 
BRANCH  18  19
ATOM     19  C   UNL     1      12.269   2.317  11.920  1.00  0.00     0.074 C 
BRANCH  19  20
ATOM     20  N   UNL     1      11.036   2.646  12.120  1.00  0.00    -0.313 NA
ATOM     21  H   UNL     1      10.475   2.554  11.261  1.00  0.00     0.186 HD
ENDBRANCH  19  20
ENDBRANCH  18  19
ENDBRANCH   3  18
TORSDOF 6
ENDMDL
MODEL 8
REMARK VINA RESULT:    -3.708      2.104      2.581
REMARK INTER + INTRA:          -4.659
REMARK INTER:                  -5.267
REMARK INTRA:                   0.608
REMARK UNBOUND:                 0.242
REMARK SMILES [H]/N=C\C[C@H]1C[C@@H]1O[C@H]1CO[C@H]2C[C@@H](C3CC3)CCN2C1
REMARK SMILES IDX 7 1 6 2 5 3 8 4 9 5 14 6 13 7 18 8 12 9 19 10 20 11 11 12
REMARK SMILES IDX 21 13 10 14 15 15 16 16 17 17 4 18 3 19 2 20 1 21
REMARK H PARENT
ROOT
ATOM      1  C   UNL     1      10.193   2.114   8.690  1.00  0.00     0.122 C 
ATOM      2  C   UNL     1      10.972   1.534   7.543  1.00  0.00     0.039 C 
ATOM      3  C   UNL     1      11.556   2.655   8.354  1.00  0.00     0.026 C 
ENDROOT
BRANCH   1   4
ATOM      4  O   UNL     1       9.065   2.915   8.288  1.00  0.00    -0.371 OA
BRANCH   4   5
ATOM      5  C   UNL     1       7.932   2.875   9.170  1.00  0.00     0.158 C 
ATOM      6  C   UNL     1       4.651   0.213   6.111  1.00  0.00    -0.003 C 
ATOM      7  C   UNL     1       5.234   1.632   6.124  1.00  0.00     0.052 C 
ATOM      8  C   UNL     1       5.681  -0.764   6.695  1.00  0.00     0.019 C 
ATOM      9  C   UNL     1       5.748   2.023   7.516  1.00  0.00     0.189 C 
ATOM     10  C   UNL     1       6.178  -0.299   8.064  1.00  0.00     0.087 C 
ATOM     11  N   UNL     1       6.734   1.051   7.988  1.00  0.00    -0.276 NA
ATOM     12  O   UNL     1       6.304   3.334   7.393  1.00  0.00    -0.360 OA
ATOM     13  C   UNL     1       7.294   1.478   9.276  1.00  0.00     0.121 C 
ATOM     14  C   UNL     1       6.863   3.823   8.616  1.00  0.00     0.195 C 
BRANCH   6  15
ATOM     15  C   UNL     1       4.252  -0.209   4.715  1.00  0.00    -0.008 C 
ATOM     16  C   UNL     1       4.831   0.492   3.509  1.00  0.00     0.004 C 
ATOM     17  C   UNL     1       5.229  -0.923   3.813  1.00  0.00     0.004 C 
ENDBRANCH   6  15
ENDBRANCH   4   5
ENDBRANCH   1   4
BRANCH   3  18
ATOM     18  C   UNL     1      12.724   2.371   9.251  1.00  0.00     0.053 C 
BRANCH  18  19
ATOM     19  C   UNL     1      14.019   3.052   8.894  1.00  0.00     0.074 C 
BRANCH  19  20
ATOM     20  N   UNL     1      15.083   2.471   8.449  1.00  0.00    -0.313 NA
ATOM     21  H   UNL     1      15.585   1.971   9.197  1.00  0.00     0.186 HD
ENDBRANCH  19  20
ENDBRANCH  18  19
ENDBRANCH   3  18
TORSDOF 6
ENDMDL
MODEL 9
REMARK VINA RESULT:    -3.412      2.838      8.436
REMARK INTER + INTRA:          -4.268
REMARK INTER:                  -4.741
REMARK INTRA:                   0.472
REMARK UNBOUND:                 0.242
REMARK SMILES [H]/N=C\C[C@H]1C[C@@H]1O[C@H]1CO[C@H]2C[C@@H](C3CC3)CCN2C1
REMARK SMILES IDX 7 1 6 2 5 3 8 4 9 5 14 6 13 7 18 8 12 9 19 10 20 11 11 12
REMARK SMILES IDX 21 13 10 14 15 15 16 16 17 17 4 18 3 19 2 20 1 21
REMARK H PARENT
ROOT
ATOM      1  C   UNL     1       7.775   2.460   8.569  1.00  0.00     0.122 C 
ATOM      2  C   UNL     1       6.808   3.049   9.557  1.00  0.00     0.039 C 
ATOM      3  C   UNL     1       7.013   3.710   8.224  1.00  0.00     0.026 C 
ENDROOT
BRANCH   1   4
ATOM      4  O   UNL     1       9.159   2.627   8.932  1.00  0.00    -0.371 OA
BRANCH   4   5
ATOM      5  C   UNL     1      10.025   1.531   8.595  1.00  0.00     0.158 C 
ATOM      6  C   UNL     1      14.595   3.755   9.764  1.00  0.00    -0.003 C 
ATOM      7  C   UNL     1      13.549   3.913   8.653  1.00  0.00     0.052 C 
ATOM      8  C   UNL     1      13.893   3.359  11.070  1.00  0.00     0.019 C 
ATOM      9  C   UNL     1      12.656   2.671   8.531  1.00  0.00     0.189 C 
ATOM     10  C   UNL     1      12.995   2.138  10.873  1.00  0.00     0.087 C 
ATOM     11  N   UNL     1      12.015   2.376   9.813  1.00  0.00    -0.276 NA
ATOM     12  O   UNL     1      11.701   2.953   7.506  1.00  0.00    -0.360 OA
ATOM     13  C   UNL     1      11.089   1.247   9.670  1.00  0.00     0.121 C 
ATOM     14  C   UNL     1      10.767   1.889   7.303  1.00  0.00     0.195 C 
BRANCH   6  15
ATOM     15  C   UNL     1      15.396   5.023   9.955  1.00  0.00    -0.008 C 
ATOM     16  C   UNL     1      15.593   5.984   8.806  1.00  0.00     0.004 C 
ATOM     17  C   UNL     1      14.719   6.373   9.963  1.00  0.00     0.004 C 
ENDBRANCH   6  15
ENDBRANCH   4   5
ENDBRANCH   1   4
BRANCH   3  18
ATOM     18  C   UNL     1       5.907   3.667   7.213  1.00  0.00     0.053 C 
BRANCH  18  19
ATOM     19  C   UNL     1       5.599   4.961   6.506  1.00  0.00     0.074 C 
BRANCH  19  20
ATOM     20  N   UNL     1       5.975   6.138   6.884  1.00  0.00    -0.313 NA
ATOM     21  H   UNL     1       5.173   6.723   7.157  1.00  0.00     0.186 HD
ENDBRANCH  19  20
ENDBRANCH  18  19
ENDBRANCH   3  18
TORSDOF 6
ENDMDL
