MODEL 1
REMARK VINA RESULT:    -6.001      0.000      0.000
REMARK INTER + INTRA:          -7.549
REMARK INTER:                  -7.054
REMARK INTRA:                  -0.495
REMARK UNBOUND:                -0.495
REMARK SMILES Cc1ccc(CNC(=O)NC(=O)c2ccc(C)cc2)cc1
REMARK SMILES IDX 11 1 12 2 10 3 8 4 9 5 7 6 13 9 19 10 18 11 14 12 16 13
REMARK SMILES IDX 15 14 17 15 6 16 5 17 4 18 20 19 3 20 21 21 2 22 1 23
REMARK H PARENT 10 7 7 8
ROOT
ATOM      1  C   UNL     1     -13.520  -1.279  -3.054  1.00  0.00     0.259 C 
ATOM      2  O   UNL     1     -12.346  -1.603  -3.159  1.00  0.00    -0.269 OA
ATOM      3  N   UNL     1     -14.070  -0.191  -2.369  1.00  0.00    -0.274 N 
ATOM      4  C   UNL     1     -13.629   0.979  -1.805  1.00  0.00     0.321 C 
ATOM      5  O   UNL     1     -14.481   1.774  -1.394  1.00  0.00    -0.248 OA
ATOM      6  N   UNL     1     -12.330   1.314  -1.706  1.00  0.00    -0.334 N 
ATOM      7  H   UNL     1     -15.079  -0.141  -2.407  1.00  0.00     0.175 HD
ATOM      8  H   UNL     1     -12.176   2.245  -1.345  1.00  0.00     0.165 HD
ENDROOT
BRANCH   1   9
ATOM      9  C   UNL     1     -14.506  -2.137  -3.739  1.00  0.00     0.040 A 
ATOM     10  C   UNL     1     -14.388  -3.528  -3.735  1.00  0.00     0.014 A 
ATOM     11  C   UNL     1     -15.373  -4.300  -4.352  1.00  0.00     0.004 A 
ATOM     12  C   UNL     1     -15.567  -1.515  -4.405  1.00  0.00     0.014 A 
ATOM     13  C   UNL     1     -16.469  -3.687  -4.978  1.00  0.00    -0.051 A 
ATOM     14  C   UNL     1     -16.552  -2.290  -5.014  1.00  0.00     0.004 A 
ATOM     15  C   UNL     1     -17.563  -4.532  -5.563  1.00  0.00     0.044 C 
ENDBRANCH   1   9
BRANCH   6  16
ATOM     16  C   UNL     1     -11.197   0.589  -2.209  1.00  0.00     0.153 C 
BRANCH  16  17
ATOM     17  C   UNL     1     -10.006   0.454  -1.302  1.00  0.00    -0.029 A 
ATOM     18  C   UNL     1      -8.946   1.367  -1.293  1.00  0.00     0.006 A 
ATOM     19  C   UNL     1     -10.077  -0.513  -0.287  1.00  0.00     0.006 A 
ATOM     20  C   UNL     1      -7.994   1.323  -0.269  1.00  0.00     0.004 A 
ATOM     21  C   UNL     1      -9.131  -0.553   0.733  1.00  0.00     0.004 A 
ATOM     22  C   UNL     1      -8.087   0.373   0.756  1.00  0.00    -0.051 A 
ATOM     23  C   UNL     1      -7.154   0.410   1.930  1.00  0.00     0.044 C 
ENDBRANCH  16  17
ENDBRANCH   6  16
TORSDOF 3
ENDMDL
MODEL 2
REMARK VINA RESULT:    -5.994      0.569      7.982
REMARK INTER + INTRA:          -7.540
REMARK INTER:                  -7.150
REMARK INTRA:                  -0.390
REMARK UNBOUND:                -0.495
REMARK SMILES Cc1ccc(CNC(=O)NC(=O)c2ccc(C)cc2)cc1
REMARK SMILES IDX 11 1 12 2 10 3 8 4 9 5 7 6 13 9 19 10 18 11 14 12 16 13
REMARK SMILES IDX 15 14 17 15 6 16 5 17 4 18 20 19 3 20 21 21 2 22 1 23
REMARK H PARENT 10 7 7 8
ROOT
ATOM      1  C   UNL     1     -11.330  -0.031  -1.742  1.00  0.00     0.259 C 
ATOM      2  O   UNL     1     -11.192  -0.809  -2.676  1.00  0.00    -0.269 OA
ATOM      3  N   UNL     1     -12.449   0.734  -1.398  1.00  0.00    -0.274 N 
ATOM      4  C   UNL     1     -13.781   0.781  -1.719  1.00  0.00     0.321 C 
ATOM      5  O   UNL     1     -14.500   1.550  -1.072  1.00  0.00    -0.248 OA
ATOM      6  N   UNL     1     -14.345   0.018  -2.674  1.00  0.00    -0.334 N 
ATOM      7  H   UNL     1     -12.317   1.326  -0.589  1.00  0.00     0.175 HD
ATOM      8  H   UNL     1     -15.349   0.109  -2.728  1.00  0.00     0.165 HD
ENDROOT
BRANCH   1   9
ATOM      9  C   UNL     1     -10.171   0.134  -0.844  1.00  0.00     0.040 A 
ATOM     10  C   UNL     1      -9.270   1.189  -1.003  1.00  0.00     0.014 A 
ATOM     11  C   UNL     1      -8.220   1.334  -0.097  1.00  0.00     0.004 A 
ATOM     12  C   UNL     1      -9.993  -0.805   0.177  1.00  0.00     0.014 A 
ATOM     13  C   UNL     1      -8.062   0.427   0.962  1.00  0.00    -0.051 A 
ATOM     14  C   UNL     1      -8.946  -0.652   1.085  1.00  0.00     0.004 A 
ATOM     15  C   UNL     1      -6.979   0.645   1.977  1.00  0.00     0.044 C 
ENDBRANCH   1   9
BRANCH   6  16
ATOM     16  C   UNL     1     -13.716  -1.004  -3.463  1.00  0.00     0.153 C 
BRANCH  16  17
ATOM     17  C   UNL     1     -14.592  -2.108  -3.986  1.00  0.00    -0.029 A 
ATOM     18  C   UNL     1     -14.388  -3.456  -3.676  1.00  0.00     0.006 A 
ATOM     19  C   UNL     1     -15.778  -1.733  -4.638  1.00  0.00     0.006 A 
ATOM     20  C   UNL     1     -15.368  -4.403  -3.992  1.00  0.00     0.004 A 
ATOM     21  C   UNL     1     -16.754  -2.675  -4.948  1.00  0.00     0.004 A 
ATOM     22  C   UNL     1     -16.562  -4.018  -4.618  1.00  0.00    -0.051 A 
ATOM     23  C   UNL     1     -17.674  -5.001  -4.830  1.00  0.00     0.044 C 
ENDBRANCH  16  17
ENDBRANCH   6  16
TORSDOF 3
ENDMDL
MODEL 3
REMARK VINA RESULT:    -5.983      3.168      7.304
REMARK INTER + INTRA:          -7.527
REMARK INTER:                  -7.152
REMARK INTRA:                  -0.375
REMARK UNBOUND:                -0.495
REMARK SMILES Cc1ccc(CNC(=O)NC(=O)c2ccc(C)cc2)cc1
REMARK SMILES IDX 11 1 12 2 10 3 8 4 9 5 7 6 13 9 19 10 18 11 14 12 16 13
REMARK SMILES IDX 15 14 17 15 6 16 5 17 4 18 20 19 3 20 21 21 2 22 1 23
REMARK H PARENT 10 7 7 8
ROOT
ATOM      1  C   UNL     1     -11.314   0.454  -1.683  1.00  0.00     0.259 C 
ATOM      2  O   UNL     1     -11.467   1.258  -0.775  1.00  0.00    -0.269 OA
ATOM      3  N   UNL     1     -12.285  -0.260  -2.393  1.00  0.00    -0.274 N 
ATOM      4  C   UNL     1     -13.645  -0.220  -2.570  1.00  0.00     0.321 C 
ATOM      5  O   UNL     1     -14.135  -0.971  -3.419  1.00  0.00    -0.248 OA
ATOM      6  N   UNL     1     -14.459   0.611  -1.893  1.00  0.00    -0.334 N 
ATOM      7  H   UNL     1     -11.913  -0.889  -3.092  1.00  0.00     0.175 HD
ATOM      8  H   UNL     1     -15.421   0.578  -2.200  1.00  0.00     0.165 HD
ENDROOT
BRANCH   1   9
ATOM      9  C   UNL     1      -9.925   0.189  -2.105  1.00  0.00     0.040 A 
ATOM     10  C   UNL     1      -9.231  -0.937  -1.659  1.00  0.00     0.014 A 
ATOM     11  C   UNL     1      -7.938  -1.173  -2.127  1.00  0.00     0.004 A 
ATOM     12  C   UNL     1      -9.314   1.107  -2.965  1.00  0.00     0.014 A 
ATOM     13  C   UNL     1      -7.334  -0.285  -3.030  1.00  0.00    -0.051 A 
ATOM     14  C   UNL     1      -8.024   0.864  -3.434  1.00  0.00     0.004 A 
ATOM     15  C   UNL     1      -5.977  -0.597  -3.589  1.00  0.00     0.044 C 
ENDBRANCH   1   9
BRANCH   6  16
ATOM     16  C   UNL     1     -14.087   1.625  -0.948  1.00  0.00     0.153 C 
BRANCH  16  17
ATOM     17  C   UNL     1     -15.073   2.732  -0.698  1.00  0.00    -0.029 A 
ATOM     18  C   UNL     1     -14.740   4.087  -0.792  1.00  0.00     0.006 A 
ATOM     19  C   UNL     1     -16.425   2.373  -0.575  1.00  0.00     0.006 A 
ATOM     20  C   UNL     1     -15.748   5.058  -0.788  1.00  0.00     0.004 A 
ATOM     21  C   UNL     1     -17.427   3.339  -0.576  1.00  0.00     0.004 A 
ATOM     22  C   UNL     1     -17.097   4.690  -0.692  1.00  0.00    -0.051 A 
ATOM     23  C   UNL     1     -18.187   5.710  -0.830  1.00  0.00     0.044 C 
ENDBRANCH  16  17
ENDBRANCH   6  16
TORSDOF 3
ENDMDL
MODEL 4
REMARK VINA RESULT:    -5.981      3.022      5.486
REMARK INTER + INTRA:          -7.524
REMARK INTER:                  -7.028
REMARK INTRA:                  -0.496
REMARK UNBOUND:                -0.495
REMARK SMILES Cc1ccc(CNC(=O)NC(=O)c2ccc(C)cc2)cc1
REMARK SMILES IDX 11 1 12 2 10 3 8 4 9 5 7 6 13 9 19 10 18 11 14 12 16 13
REMARK SMILES IDX 15 14 17 15 6 16 5 17 4 18 20 19 3 20 21 21 2 22 1 23
REMARK H PARENT 10 7 7 8
ROOT
ATOM      1  C   UNL     1     -13.736   1.834  -1.209  1.00  0.00     0.259 C 
ATOM      2  O   UNL     1     -12.659   2.080  -0.685  1.00  0.00    -0.269 OA
ATOM      3  N   UNL     1     -14.074   0.776  -2.059  1.00  0.00    -0.274 N 
ATOM      4  C   UNL     1     -13.539  -0.428  -2.441  1.00  0.00     0.321 C 
ATOM      5  O   UNL     1     -14.237  -1.170  -3.141  1.00  0.00    -0.248 OA
ATOM      6  N   UNL     1     -12.316  -0.850  -2.070  1.00  0.00    -0.334 N 
ATOM      7  H   UNL     1     -15.030   0.794  -2.387  1.00  0.00     0.175 HD
ATOM      8  H   UNL     1     -12.105  -1.794  -2.362  1.00  0.00     0.165 HD
ENDROOT
BRANCH   1   9
ATOM      9  C   UNL     1     -14.842   2.764  -0.914  1.00  0.00     0.040 A 
ATOM     10  C   UNL     1     -14.641   4.145  -0.871  1.00  0.00     0.014 A 
ATOM     11  C   UNL     1     -15.729   4.987  -0.640  1.00  0.00     0.004 A 
ATOM     12  C   UNL     1     -16.108   2.222  -0.670  1.00  0.00     0.014 A 
ATOM     13  C   UNL     1     -17.012   4.456  -0.445  1.00  0.00    -0.051 A 
ATOM     14  C   UNL     1     -17.193   3.068  -0.446  1.00  0.00     0.004 A 
ATOM     15  C   UNL     1     -18.185   5.378  -0.282  1.00  0.00     0.044 C 
ENDBRANCH   1   9
BRANCH   6  16
ATOM     16  C   UNL     1     -11.395  -0.196  -1.184  1.00  0.00     0.153 C 
BRANCH  16  17
ATOM     17  C   UNL     1      -9.952  -0.145  -1.604  1.00  0.00    -0.029 A 
ATOM     18  C   UNL     1      -9.012  -1.109  -1.225  1.00  0.00     0.006 A 
ATOM     19  C   UNL     1      -9.600   0.796  -2.585  1.00  0.00     0.006 A 
ATOM     20  C   UNL     1      -7.755  -1.141  -1.839  1.00  0.00     0.004 A 
ATOM     21  C   UNL     1      -8.352   0.761  -3.198  1.00  0.00     0.004 A 
ATOM     22  C   UNL     1      -7.421  -0.215  -2.837  1.00  0.00    -0.051 A 
ATOM     23  C   UNL     1      -6.134  -0.331  -3.597  1.00  0.00     0.044 C 
ENDBRANCH  16  17
ENDBRANCH   6  16
TORSDOF 3
ENDMDL
MODEL 5
REMARK VINA RESULT:    -5.697      1.055      1.364
REMARK INTER + INTRA:          -7.191
REMARK INTER:                  -6.729
REMARK INTRA:                  -0.462
REMARK UNBOUND:                -0.495
REMARK SMILES Cc1ccc(CNC(=O)NC(=O)c2ccc(C)cc2)cc1
REMARK SMILES IDX 11 1 12 2 10 3 8 4 9 5 7 6 13 9 19 10 18 11 14 12 16 13
REMARK SMILES IDX 15 14 17 15 6 16 5 17 4 18 20 19 3 20 21 21 2 22 1 23
REMARK H PARENT 10 7 7 8
ROOT
ATOM      1  C   UNL     1     -13.469  -1.373  -3.248  1.00  0.00     0.259 C 
ATOM      2  O   UNL     1     -12.327  -1.660  -3.579  1.00  0.00    -0.269 OA
ATOM      3  N   UNL     1     -13.901  -0.375  -2.368  1.00  0.00    -0.274 N 
ATOM      4  C   UNL     1     -13.376   0.736  -1.761  1.00  0.00     0.321 C 
ATOM      5  O   UNL     1     -14.151   1.465  -1.131  1.00  0.00    -0.248 OA
ATOM      6  N   UNL     1     -12.079   1.086  -1.840  1.00  0.00    -0.334 N 
ATOM      7  H   UNL     1     -14.903  -0.342  -2.234  1.00  0.00     0.175 HD
ATOM      8  H   UNL     1     -11.870   1.975  -1.411  1.00  0.00     0.165 HD
ENDROOT
BRANCH   1   9
ATOM      9  C   UNL     1     -14.552  -2.172  -3.852  1.00  0.00     0.040 A 
ATOM     10  C   UNL     1     -14.512  -3.568  -3.856  1.00  0.00     0.014 A 
ATOM     11  C   UNL     1     -15.584  -4.282  -4.391  1.00  0.00     0.004 A 
ATOM     12  C   UNL     1     -15.627  -1.491  -4.431  1.00  0.00     0.014 A 
ATOM     13  C   UNL     1     -16.691  -3.608  -4.928  1.00  0.00    -0.051 A 
ATOM     14  C   UNL     1     -16.699  -2.208  -4.959  1.00  0.00     0.004 A 
ATOM     15  C   UNL     1     -17.873  -4.389  -5.423  1.00  0.00     0.044 C 
ENDBRANCH   1   9
BRANCH   6  16
ATOM     16  C   UNL     1     -11.043   0.442  -2.598  1.00  0.00     0.153 C 
BRANCH  16  17
ATOM     17  C   UNL     1      -9.735   0.189  -1.903  1.00  0.00    -0.029 A 
ATOM     18  C   UNL     1      -8.962  -0.956  -2.122  1.00  0.00     0.006 A 
ATOM     19  C   UNL     1      -9.181   1.251  -1.169  1.00  0.00     0.006 A 
ATOM     20  C   UNL     1      -7.653  -1.021  -1.635  1.00  0.00     0.004 A 
ATOM     21  C   UNL     1      -7.876   1.187  -0.689  1.00  0.00     0.004 A 
ATOM     22  C   UNL     1      -7.097   0.054  -0.927  1.00  0.00    -0.051 A 
ATOM     23  C   UNL     1      -5.652   0.049  -0.527  1.00  0.00     0.044 C 
ENDBRANCH  16  17
ENDBRANCH   6  16
TORSDOF 3
ENDMDL
MODEL 6
REMARK VINA RESULT:    -5.659      2.967      5.191
REMARK INTER + INTRA:          -7.147
REMARK INTER:                  -6.687
REMARK INTRA:                  -0.460
REMARK UNBOUND:                -0.495
REMARK SMILES Cc1ccc(CNC(=O)NC(=O)c2ccc(C)cc2)cc1
REMARK SMILES IDX 11 1 12 2 10 3 8 4 9 5 7 6 13 9 19 10 18 11 14 12 16 13
REMARK SMILES IDX 15 14 17 15 6 16 5 17 4 18 20 19 3 20 21 21 2 22 1 23
REMARK H PARENT 10 7 7 8
ROOT
ATOM      1  C   UNL     1     -13.798   1.900  -1.027  1.00  0.00     0.259 C 
ATOM      2  O   UNL     1     -12.835   2.150  -0.316  1.00  0.00    -0.269 OA
ATOM      3  N   UNL     1     -13.943   0.886  -1.980  1.00  0.00    -0.274 N 
ATOM      4  C   UNL     1     -13.299  -0.272  -2.333  1.00  0.00     0.321 C 
ATOM      5  O   UNL     1     -13.838  -0.992  -3.181  1.00  0.00    -0.248 OA
ATOM      6  N   UNL     1     -12.137  -0.674  -1.786  1.00  0.00    -0.334 N 
ATOM      7  H   UNL     1     -14.832   0.892  -2.463  1.00  0.00     0.175 HD
ATOM      8  H   UNL     1     -11.839  -1.589  -2.091  1.00  0.00     0.165 HD
ENDROOT
BRANCH   1   9
ATOM      9  C   UNL     1     -14.979   2.771  -0.871  1.00  0.00     0.040 A 
ATOM     10  C   UNL     1     -16.261   2.239  -0.717  1.00  0.00     0.014 A 
ATOM     11  C   UNL     1     -17.340   3.101  -0.519  1.00  0.00     0.004 A 
ATOM     12  C   UNL     1     -14.781   4.155  -0.887  1.00  0.00     0.014 A 
ATOM     13  C   UNL     1     -17.144   4.490  -0.483  1.00  0.00    -0.051 A 
ATOM     14  C   UNL     1     -15.861   5.012  -0.683  1.00  0.00     0.004 A 
ATOM     15  C   UNL     1     -18.300   5.399  -0.185  1.00  0.00     0.044 C 
ENDBRANCH   1   9
BRANCH   6  16
ATOM     16  C   UNL     1     -11.406  -0.045  -0.722  1.00  0.00     0.153 C 
BRANCH  16  17
ATOM     17  C   UNL     1      -9.923   0.120  -0.908  1.00  0.00    -0.029 A 
ATOM     18  C   UNL     1      -9.218   1.242  -0.461  1.00  0.00     0.006 A 
ATOM     19  C   UNL     1      -9.203  -0.997  -1.362  1.00  0.00     0.006 A 
ATOM     20  C   UNL     1      -7.819   1.230  -0.446  1.00  0.00     0.004 A 
ATOM     21  C   UNL     1      -7.812  -1.010  -1.343  1.00  0.00     0.004 A 
ATOM     22  C   UNL     1      -7.108   0.100  -0.875  1.00  0.00    -0.051 A 
ATOM     23  C   UNL     1      -5.617   0.026  -0.729  1.00  0.00     0.044 C 
ENDBRANCH  16  17
ENDBRANCH   6  16
TORSDOF 3
ENDMDL
MODEL 7
REMARK VINA RESULT:    -4.942      4.964     10.502
REMARK INTER + INTRA:          -6.304
REMARK INTER:                  -5.925
REMARK INTRA:                  -0.379
REMARK UNBOUND:                -0.495
REMARK SMILES Cc1ccc(CNC(=O)NC(=O)c2ccc(C)cc2)cc1
REMARK SMILES IDX 11 1 12 2 10 3 8 4 9 5 7 6 13 9 19 10 18 11 14 12 16 13
REMARK SMILES IDX 15 14 17 15 6 16 5 17 4 18 20 19 3 20 21 21 2 22 1 23
REMARK H PARENT 10 7 7 8
ROOT
ATOM      1  C   UNL     1     -17.528  -4.545  -4.840  1.00  0.00     0.259 C 
ATOM      2  O   UNL     1     -18.429  -4.110  -5.543  1.00  0.00    -0.269 OA
ATOM      3  N   UNL     1     -17.403  -5.812  -4.261  1.00  0.00    -0.274 N 
ATOM      4  C   UNL     1     -17.988  -7.046  -4.389  1.00  0.00     0.321 C 
ATOM      5  O   UNL     1     -17.486  -7.986  -3.764  1.00  0.00    -0.248 OA
ATOM      6  N   UNL     1     -19.053  -7.287  -5.176  1.00  0.00    -0.334 N 
ATOM      7  H   UNL     1     -16.572  -5.934  -3.698  1.00  0.00     0.175 HD
ATOM      8  H   UNL     1     -19.309  -8.263  -5.226  1.00  0.00     0.165 HD
ENDROOT
BRANCH   1   9
ATOM      9  C   UNL     1     -16.408  -3.626  -4.556  1.00  0.00     0.040 A 
ATOM     10  C   UNL     1     -16.522  -2.252  -4.772  1.00  0.00     0.014 A 
ATOM     11  C   UNL     1     -15.455  -1.417  -4.440  1.00  0.00     0.004 A 
ATOM     12  C   UNL     1     -15.217  -4.173  -4.069  1.00  0.00     0.014 A 
ATOM     13  C   UNL     1     -14.274  -1.950  -3.901  1.00  0.00    -0.051 A 
ATOM     14  C   UNL     1     -14.156  -3.335  -3.732  1.00  0.00     0.004 A 
ATOM     15  C   UNL     1     -13.169  -1.031  -3.470  1.00  0.00     0.044 C 
ENDBRANCH   1   9
BRANCH   6  16
ATOM     16  C   UNL     1     -19.718  -6.368  -6.056  1.00  0.00     0.153 C 
BRANCH  16  17
ATOM     17  C   UNL     1     -19.357  -6.427  -7.515  1.00  0.00    -0.029 A 
ATOM     18  C   UNL     1     -19.967  -5.625  -8.485  1.00  0.00     0.006 A 
ATOM     19  C   UNL     1     -18.217  -7.168  -7.866  1.00  0.00     0.006 A 
ATOM     20  C   UNL     1     -19.427  -5.551  -9.773  1.00  0.00     0.004 A 
ATOM     21  C   UNL     1     -17.678  -7.090  -9.146  1.00  0.00     0.004 A 
ATOM     22  C   UNL     1     -18.273  -6.272 -10.109  1.00  0.00    -0.051 A 
ATOM     23  C   UNL     1     -17.607  -6.089 -11.440  1.00  0.00     0.044 C 
ENDBRANCH  16  17
ENDBRANCH   6  16
TORSDOF 3
ENDMDL
MODEL 8
REMARK VINA RESULT:    -4.680      4.686      8.074
REMARK INTER + INTRA:          -5.996
REMARK INTER:                  -5.550
REMARK INTRA:                  -0.446
REMARK UNBOUND:                -0.495
REMARK SMILES Cc1ccc(CNC(=O)NC(=O)c2ccc(C)cc2)cc1
REMARK SMILES IDX 11 1 12 2 10 3 8 4 9 5 7 6 13 9 19 10 18 11 14 12 16 13
REMARK SMILES IDX 15 14 17 15 6 16 5 17 4 18 20 19 3 20 21 21 2 22 1 23
REMARK H PARENT 10 7 7 8
ROOT
ATOM      1  C   UNL     1     -14.118   2.046  -0.829  1.00  0.00     0.259 C 
ATOM      2  O   UNL     1     -13.892   3.141  -0.334  1.00  0.00    -0.269 OA
ATOM      3  N   UNL     1     -15.351   1.436  -1.080  1.00  0.00    -0.274 N 
ATOM      4  C   UNL     1     -16.672   1.804  -1.130  1.00  0.00     0.321 C 
ATOM      5  O   UNL     1     -17.485   0.967  -1.535  1.00  0.00    -0.248 OA
ATOM      6  N   UNL     1     -17.117   3.029  -0.793  1.00  0.00    -0.334 N 
ATOM      7  H   UNL     1     -15.285   0.510  -1.480  1.00  0.00     0.175 HD
ATOM      8  H   UNL     1     -18.102   3.166  -0.967  1.00  0.00     0.165 HD
ENDROOT
BRANCH   1   9
ATOM      9  C   UNL     1     -12.944   1.245  -1.227  1.00  0.00     0.040 A 
ATOM     10  C   UNL     1     -12.419   1.316  -2.519  1.00  0.00     0.014 A 
ATOM     11  C   UNL     1     -11.276   0.580  -2.834  1.00  0.00     0.004 A 
ATOM     12  C   UNL     1     -12.369   0.402  -0.271  1.00  0.00     0.014 A 
ATOM     13  C   UNL     1     -10.661  -0.229  -1.867  1.00  0.00    -0.051 A 
ATOM     14  C   UNL     1     -11.224  -0.326  -0.588  1.00  0.00     0.004 A 
ATOM     15  C   UNL     1      -9.385  -0.947  -2.195  1.00  0.00     0.044 C 
ENDBRANCH   1   9
BRANCH   6  16
ATOM     16  C   UNL     1     -16.335   4.167  -0.401  1.00  0.00     0.153 C 
BRANCH  16  17
ATOM     17  C   UNL     1     -16.706   5.497  -0.997  1.00  0.00    -0.029 A 
ATOM     18  C   UNL     1     -16.452   5.834  -2.330  1.00  0.00     0.006 A 
ATOM     19  C   UNL     1     -17.527   6.339  -0.228  1.00  0.00     0.006 A 
ATOM     20  C   UNL     1     -17.032   6.980  -2.885  1.00  0.00     0.004 A 
ATOM     21  C   UNL     1     -18.106   7.476  -0.783  1.00  0.00     0.004 A 
ATOM     22  C   UNL     1     -17.872   7.801  -2.120  1.00  0.00    -0.051 A 
ATOM     23  C   UNL     1     -18.608   8.948  -2.745  1.00  0.00     0.044 C 
ENDBRANCH  16  17
ENDBRANCH   6  16
TORSDOF 3
ENDMDL
MODEL 9
REMARK VINA RESULT:    -4.390      2.438      8.416
REMARK INTER + INTRA:          -5.655
REMARK INTER:                  -5.184
REMARK INTRA:                  -0.471
REMARK UNBOUND:                -0.495
REMARK SMILES Cc1ccc(CNC(=O)NC(=O)c2ccc(C)cc2)cc1
REMARK SMILES IDX 11 1 12 2 10 3 8 4 9 5 7 6 13 9 19 10 18 11 14 12 16 13
REMARK SMILES IDX 15 14 17 15 6 16 5 17 4 18 20 19 3 20 21 21 2 22 1 23
REMARK H PARENT 10 7 7 8
ROOT
ATOM      1  C   UNL     1     -14.155  -1.639  -3.774  1.00  0.00     0.259 C 
ATOM      2  O   UNL     1     -13.817  -2.777  -4.064  1.00  0.00    -0.269 OA
ATOM      3  N   UNL     1     -15.345  -0.973  -4.084  1.00  0.00    -0.274 N 
ATOM      4  C   UNL     1     -16.594  -1.295  -4.552  1.00  0.00     0.321 C 
ATOM      5  O   UNL     1     -17.448  -0.402  -4.566  1.00  0.00    -0.248 OA
ATOM      6  N   UNL     1     -16.939  -2.529  -4.963  1.00  0.00    -0.334 N 
ATOM      7  H   UNL     1     -15.389  -0.020  -3.751  1.00  0.00     0.175 HD
ATOM      8  H   UNL     1     -17.918  -2.621  -5.196  1.00  0.00     0.165 HD
ENDROOT
BRANCH   1   9
ATOM      9  C   UNL     1     -13.194  -0.845  -2.984  1.00  0.00     0.040 A 
ATOM     10  C   UNL     1     -13.622   0.145  -2.097  1.00  0.00     0.014 A 
ATOM     11  C   UNL     1     -12.679   0.833  -1.333  1.00  0.00     0.004 A 
ATOM     12  C   UNL     1     -11.831  -1.106  -3.153  1.00  0.00     0.014 A 
ATOM     13  C   UNL     1     -11.313   0.542  -1.458  1.00  0.00    -0.051 A 
ATOM     14  C   UNL     1     -10.893  -0.421  -2.383  1.00  0.00     0.004 A 
ATOM     15  C   UNL     1     -10.319   1.230  -0.569  1.00  0.00     0.044 C 
ENDBRANCH   1   9
BRANCH   6  16
ATOM     16  C   UNL     1     -16.138  -3.720  -4.931  1.00  0.00     0.153 C 
BRANCH  16  17
ATOM     17  C   UNL     1     -16.775  -4.966  -4.381  1.00  0.00    -0.029 A 
ATOM     18  C   UNL     1     -17.134  -5.110  -3.037  1.00  0.00     0.006 A 
ATOM     19  C   UNL     1     -17.210  -5.928  -5.307  1.00  0.00     0.006 A 
ATOM     20  C   UNL     1     -17.935  -6.186  -2.639  1.00  0.00     0.004 A 
ATOM     21  C   UNL     1     -18.010  -6.994  -4.910  1.00  0.00     0.004 A 
ATOM     22  C   UNL     1     -18.389  -7.127  -3.573  1.00  0.00    -0.051 A 
ATOM     23  C   UNL     1     -19.361  -8.198  -3.180  1.00  0.00     0.044 C 
ENDBRANCH  16  17
ENDBRANCH   6  16
TORSDOF 3
ENDMDL
