MODEL 1
REMARK VINA RESULT:    -5.339      0.000      0.000
REMARK INTER + INTRA:          -6.749
REMARK INTER:                  -6.276
REMARK INTRA:                  -0.473
REMARK UNBOUND:                -0.473
REMARK SMILES Cc1ccc(CNC(=O)NC(=O)c2ccc(C)cc2)cc1
REMARK SMILES IDX 11 1 12 2 10 3 8 4 9 5 7 6 13 9 19 10 18 11 14 12 16 13
REMARK SMILES IDX 15 14 17 15 6 16 5 17 4 18 20 19 3 20 21 21 2 22 1 23
REMARK H PARENT 10 7 7 8
ROOT
ATOM      1  C   UNL     1     -11.508   0.755  -6.485  1.00  0.00     0.259 C 
ATOM      2  O   UNL     1     -10.848   0.227  -5.601  1.00  0.00    -0.269 OA
ATOM      3  N   UNL     1     -11.075   1.270  -7.712  1.00  0.00    -0.274 N 
ATOM      4  C   UNL     1      -9.952   1.210  -8.496  1.00  0.00     0.321 C 
ATOM      5  O   UNL     1     -10.012   1.715  -9.622  1.00  0.00    -0.248 OA
ATOM      6  N   UNL     1      -8.810   0.608  -8.116  1.00  0.00    -0.334 N 
ATOM      7  H   UNL     1     -11.809   1.681  -8.273  1.00  0.00     0.175 HD
ATOM      8  H   UNL     1      -8.107   0.575  -8.840  1.00  0.00     0.165 HD
ENDROOT
BRANCH   1   9
ATOM      9  C   UNL     1     -12.959   0.870  -6.247  1.00  0.00     0.040 A 
ATOM     10  C   UNL     1     -13.463   1.324  -5.026  1.00  0.00     0.014 A 
ATOM     11  C   UNL     1     -14.841   1.466  -4.866  1.00  0.00     0.004 A 
ATOM     12  C   UNL     1     -13.826   0.503  -7.281  1.00  0.00     0.014 A 
ATOM     13  C   UNL     1     -15.717   1.150  -5.915  1.00  0.00    -0.051 A 
ATOM     14  C   UNL     1     -15.202   0.652  -7.118  1.00  0.00     0.004 A 
ATOM     15  C   UNL     1     -17.190   1.388  -5.756  1.00  0.00     0.044 C 
ENDBRANCH   1   9
BRANCH   6  16
ATOM     16  C   UNL     1      -8.566  -0.122  -6.904  1.00  0.00     0.153 C 
BRANCH  16  17
ATOM     17  C   UNL     1      -7.238   0.085  -6.230  1.00  0.00    -0.029 A 
ATOM     18  C   UNL     1      -6.113  -0.701  -6.500  1.00  0.00     0.006 A 
ATOM     19  C   UNL     1      -7.084   1.248  -5.458  1.00  0.00     0.006 A 
ATOM     20  C   UNL     1      -4.856  -0.310  -6.026  1.00  0.00     0.004 A 
ATOM     21  C   UNL     1      -5.833   1.638  -4.991  1.00  0.00     0.004 A 
ATOM     22  C   UNL     1      -4.705   0.867  -5.280  1.00  0.00    -0.051 A 
ATOM     23  C   UNL     1      -3.346   1.366  -4.892  1.00  0.00     0.044 C 
ENDBRANCH  16  17
ENDBRANCH   6  16
TORSDOF 3
ENDMDL
MODEL 2
REMARK VINA RESULT:    -5.321      3.060      5.507
REMARK INTER + INTRA:          -6.728
REMARK INTER:                  -6.256
REMARK INTRA:                  -0.472
REMARK UNBOUND:                -0.473
REMARK SMILES Cc1ccc(CNC(=O)NC(=O)c2ccc(C)cc2)cc1
REMARK SMILES IDX 11 1 12 2 10 3 8 4 9 5 7 6 13 9 19 10 18 11 14 12 16 13
REMARK SMILES IDX 15 14 17 15 6 16 5 17 4 18 20 19 3 20 21 21 2 22 1 23
REMARK H PARENT 10 7 7 8
ROOT
ATOM      1  C   UNL     1      -9.239   1.599  -9.570  1.00  0.00     0.259 C 
ATOM      2  O   UNL     1      -8.062   1.603  -9.238  1.00  0.00    -0.269 OA
ATOM      3  N   UNL     1     -10.363   1.269  -8.807  1.00  0.00    -0.274 N 
ATOM      4  C   UNL     1     -10.669   1.076  -7.484  1.00  0.00     0.321 C 
ATOM      5  O   UNL     1     -11.859   0.920  -7.188  1.00  0.00    -0.248 OA
ATOM      6  N   UNL     1      -9.752   1.080  -6.500  1.00  0.00    -0.334 N 
ATOM      7  H   UNL     1     -11.239   1.320  -9.311  1.00  0.00     0.175 HD
ATOM      8  H   UNL     1     -10.148   1.011  -5.574  1.00  0.00     0.165 HD
ENDROOT
BRANCH   1   9
ATOM      9  C   UNL     1      -9.534   2.001 -10.959  1.00  0.00     0.040 A 
ATOM     10  C   UNL     1      -8.809   1.486 -12.035  1.00  0.00     0.014 A 
ATOM     11  C   UNL     1      -9.159   1.854 -13.335  1.00  0.00     0.004 A 
ATOM     12  C   UNL     1     -10.563   2.924 -11.172  1.00  0.00     0.014 A 
ATOM     13  C   UNL     1     -10.224   2.739 -13.562  1.00  0.00    -0.051 A 
ATOM     14  C   UNL     1     -10.913   3.284 -12.472  1.00  0.00     0.004 A 
ATOM     15  C   UNL     1     -10.642   3.060 -14.967  1.00  0.00     0.044 C 
ENDBRANCH   1   9
BRANCH   6  16
ATOM     16  C   UNL     1      -8.345   1.345  -6.615  1.00  0.00     0.153 C 
BRANCH  16  17
ATOM     17  C   UNL     1      -7.413   0.488  -5.804  1.00  0.00    -0.029 A 
ATOM     18  C   UNL     1      -6.988   0.829  -4.516  1.00  0.00     0.006 A 
ATOM     19  C   UNL     1      -7.139  -0.801  -6.290  1.00  0.00     0.006 A 
ATOM     20  C   UNL     1      -6.322  -0.114  -3.726  1.00  0.00     0.004 A 
ATOM     21  C   UNL     1      -6.481  -1.739  -5.501  1.00  0.00     0.004 A 
ATOM     22  C   UNL     1      -6.076  -1.407  -4.207  1.00  0.00    -0.051 A 
ATOM     23  C   UNL     1      -5.493  -2.464  -3.318  1.00  0.00     0.044 C 
ENDBRANCH  16  17
ENDBRANCH   6  16
TORSDOF 3
ENDMDL
MODEL 3
REMARK VINA RESULT:    -5.097      0.553      8.092
REMARK INTER + INTRA:          -6.464
REMARK INTER:                  -6.100
REMARK INTRA:                  -0.364
REMARK UNBOUND:                -0.473
REMARK SMILES Cc1ccc(CNC(=O)NC(=O)c2ccc(C)cc2)cc1
REMARK SMILES IDX 11 1 12 2 10 3 8 4 9 5 7 6 13 9 19 10 18 11 14 12 16 13
REMARK SMILES IDX 15 14 17 15 6 16 5 17 4 18 20 19 3 20 21 21 2 22 1 23
REMARK H PARENT 10 7 7 8
ROOT
ATOM      1  C   UNL     1      -8.442   0.442  -6.442  1.00  0.00     0.259 C 
ATOM      2  O   UNL     1      -9.176  -0.106  -5.632  1.00  0.00    -0.269 OA
ATOM      3  N   UNL     1      -8.763   0.973  -7.696  1.00  0.00    -0.274 N 
ATOM      4  C   UNL     1      -9.894   1.315  -8.392  1.00  0.00     0.321 C 
ATOM      5  O   UNL     1      -9.748   1.904  -9.468  1.00  0.00    -0.248 OA
ATOM      6  N   UNL     1     -11.142   1.070  -7.951  1.00  0.00    -0.334 N 
ATOM      7  H   UNL     1      -7.975   1.361  -8.198  1.00  0.00     0.175 HD
ATOM      8  H   UNL     1     -11.864   1.460  -8.539  1.00  0.00     0.165 HD
ENDROOT
BRANCH   1   9
ATOM      9  C   UNL     1      -7.022   0.576  -6.062  1.00  0.00     0.040 A 
ATOM     10  C   UNL     1      -6.048  -0.283  -6.573  1.00  0.00     0.014 A 
ATOM     11  C   UNL     1      -4.711  -0.085  -6.226  1.00  0.00     0.004 A 
ATOM     12  C   UNL     1      -6.676   1.590  -5.164  1.00  0.00     0.014 A 
ATOM     13  C   UNL     1      -4.346   0.962  -5.366  1.00  0.00    -0.051 A 
ATOM     14  C   UNL     1      -5.339   1.788  -4.825  1.00  0.00     0.004 A 
ATOM     15  C   UNL     1      -2.897   1.215  -5.069  1.00  0.00     0.044 C 
ENDBRANCH   1   9
BRANCH   6  16
ATOM     16  C   UNL     1     -11.529   0.496  -6.693  1.00  0.00     0.153 C 
BRANCH  16  17
ATOM     17  C   UNL     1     -12.960   0.672  -6.267  1.00  0.00    -0.029 A 
ATOM     18  C   UNL     1     -13.327   1.219  -5.033  1.00  0.00     0.006 A 
ATOM     19  C   UNL     1     -13.951   0.469  -7.241  1.00  0.00     0.006 A 
ATOM     20  C   UNL     1     -14.658   1.578  -4.795  1.00  0.00     0.004 A 
ATOM     21  C   UNL     1     -15.274   0.831  -7.004  1.00  0.00     0.004 A 
ATOM     22  C   UNL     1     -15.637   1.398  -5.782  1.00  0.00    -0.051 A 
ATOM     23  C   UNL     1     -17.033   1.910  -5.587  1.00  0.00     0.044 C 
ENDBRANCH  16  17
ENDBRANCH   6  16
TORSDOF 3
ENDMDL
MODEL 4
REMARK VINA RESULT:    -5.080      3.170      7.428
REMARK INTER + INTRA:          -6.444
REMARK INTER:                  -6.083
REMARK INTRA:                  -0.361
REMARK UNBOUND:                -0.473
REMARK SMILES Cc1ccc(CNC(=O)NC(=O)c2ccc(C)cc2)cc1
REMARK SMILES IDX 11 1 12 2 10 3 8 4 9 5 7 6 13 9 19 10 18 11 14 12 16 13
REMARK SMILES IDX 15 14 17 15 6 16 5 17 4 18 20 19 3 20 21 21 2 22 1 23
REMARK H PARENT 10 7 7 8
ROOT
ATOM      1  C   UNL     1      -8.081   0.660  -6.859  1.00  0.00     0.259 C 
ATOM      2  O   UNL     1      -7.395   1.201  -7.714  1.00  0.00    -0.269 OA
ATOM      3  N   UNL     1      -9.474   0.646  -6.733  1.00  0.00    -0.274 N 
ATOM      4  C   UNL     1     -10.564   0.951  -7.507  1.00  0.00     0.321 C 
ATOM      5  O   UNL     1     -11.681   0.664  -7.062  1.00  0.00    -0.248 OA
ATOM      6  N   UNL     1     -10.477   1.514  -8.726  1.00  0.00    -0.334 N 
ATOM      7  H   UNL     1      -9.814   0.144  -5.923  1.00  0.00     0.175 HD
ATOM      8  H   UNL     1     -11.365   1.595  -9.201  1.00  0.00     0.165 HD
ENDROOT
BRANCH   1   9
ATOM      9  C   UNL     1      -7.361  -0.090  -5.811  1.00  0.00     0.040 A 
ATOM     10  C   UNL     1      -7.175   0.441  -4.534  1.00  0.00     0.014 A 
ATOM     11  C   UNL     1      -6.534  -0.326  -3.561  1.00  0.00     0.004 A 
ATOM     12  C   UNL     1      -6.858  -1.354  -6.136  1.00  0.00     0.014 A 
ATOM     13  C   UNL     1      -6.072  -1.616  -3.862  1.00  0.00    -0.051 A 
ATOM     14  C   UNL     1      -6.224  -2.119  -5.160  1.00  0.00     0.004 A 
ATOM     15  C   UNL     1      -5.461  -2.461  -2.783  1.00  0.00     0.044 C 
ENDBRANCH   1   9
BRANCH   6  16
ATOM     16  C   UNL     1      -9.286   1.828  -9.463  1.00  0.00     0.153 C 
BRANCH  16  17
ATOM     17  C   UNL     1      -9.440   2.130 -10.928  1.00  0.00    -0.029 A 
ATOM     18  C   UNL     1      -8.714   1.469 -11.924  1.00  0.00     0.006 A 
ATOM     19  C   UNL     1     -10.509   2.959 -11.305  1.00  0.00     0.006 A 
ATOM     20  C   UNL     1      -9.072   1.619 -13.268  1.00  0.00     0.004 A 
ATOM     21  C   UNL     1     -10.867   3.104 -12.641  1.00  0.00     0.004 A 
ATOM     22  C   UNL     1     -10.157   2.427 -13.634  1.00  0.00    -0.051 A 
ATOM     23  C   UNL     1     -10.635   2.481 -15.055  1.00  0.00     0.044 C 
ENDBRANCH  16  17
ENDBRANCH   6  16
TORSDOF 3
ENDMDL
MODEL 5
REMARK VINA RESULT:    -4.232      6.735      7.974
REMARK INTER + INTRA:          -5.447
REMARK INTER:                  -4.891
REMARK INTRA:                  -0.557
REMARK UNBOUND:                -0.473
REMARK SMILES Cc1ccc(CNC(=O)NC(=O)c2ccc(C)cc2)cc1
REMARK SMILES IDX 11 1 12 2 10 3 8 4 9 5 7 6 13 9 19 10 18 11 14 12 16 13
REMARK SMILES IDX 15 14 17 15 6 16 5 17 4 18 20 19 3 20 21 21 2 22 1 23
REMARK H PARENT 10 7 7 8
ROOT
ATOM      1  C   UNL     1     -14.716   2.828 -10.813  1.00  0.00     0.259 C 
ATOM      2  O   UNL     1     -13.554   3.049 -10.502  1.00  0.00    -0.269 OA
ATOM      3  N   UNL     1     -15.536   3.538 -11.696  1.00  0.00    -0.274 N 
ATOM      4  C   UNL     1     -15.390   4.495 -12.667  1.00  0.00     0.321 C 
ATOM      5  O   UNL     1     -16.383   4.780 -13.346  1.00  0.00    -0.248 OA
ATOM      6  N   UNL     1     -14.223   5.110 -12.936  1.00  0.00    -0.334 N 
ATOM      7  H   UNL     1     -16.476   3.173 -11.777  1.00  0.00     0.175 HD
ATOM      8  H   UNL     1     -14.263   5.726 -13.736  1.00  0.00     0.165 HD
ENDROOT
BRANCH   1   9
ATOM      9  C   UNL     1     -15.356   1.655 -10.187  1.00  0.00     0.040 A 
ATOM     10  C   UNL     1     -16.642   1.248 -10.547  1.00  0.00     0.014 A 
ATOM     11  C   UNL     1     -17.185   0.102  -9.966  1.00  0.00     0.004 A 
ATOM     12  C   UNL     1     -14.638   0.959  -9.210  1.00  0.00     0.014 A 
ATOM     13  C   UNL     1     -16.452  -0.633  -9.022  1.00  0.00    -0.051 A 
ATOM     14  C   UNL     1     -15.181  -0.189  -8.636  1.00  0.00     0.004 A 
ATOM     15  C   UNL     1     -17.015  -1.910  -8.469  1.00  0.00     0.044 C 
ENDBRANCH   1   9
BRANCH   6  16
ATOM     16  C   UNL     1     -12.941   4.855 -12.343  1.00  0.00     0.153 C 
BRANCH  16  17
ATOM     17  C   UNL     1     -11.894   4.217 -13.212  1.00  0.00    -0.029 A 
ATOM     18  C   UNL     1     -11.085   3.160 -12.782  1.00  0.00     0.006 A 
ATOM     19  C   UNL     1     -11.887   4.566 -14.572  1.00  0.00     0.006 A 
ATOM     20  C   UNL     1     -10.305   2.455 -13.704  1.00  0.00     0.004 A 
ATOM     21  C   UNL     1     -11.114   3.861 -15.490  1.00  0.00     0.004 A 
ATOM     22  C   UNL     1     -10.324   2.791 -15.065  1.00  0.00    -0.051 A 
ATOM     23  C   UNL     1      -9.604   1.953 -16.078  1.00  0.00     0.044 C 
ENDBRANCH  16  17
ENDBRANCH   6  16
TORSDOF 3
ENDMDL
MODEL 6
REMARK VINA RESULT:    -4.008      1.750      2.304
REMARK INTER + INTRA:          -5.184
REMARK INTER:                  -4.775
REMARK INTRA:                  -0.409
REMARK UNBOUND:                -0.473
REMARK SMILES Cc1ccc(CNC(=O)NC(=O)c2ccc(C)cc2)cc1
REMARK SMILES IDX 11 1 12 2 10 3 8 4 9 5 7 6 13 9 19 10 18 11 14 12 16 13
REMARK SMILES IDX 15 14 17 15 6 16 5 17 4 18 20 19 3 20 21 21 2 22 1 23
REMARK H PARENT 10 7 7 8
ROOT
ATOM      1  C   UNL     1     -10.567   0.499  -6.702  1.00  0.00     0.259 C 
ATOM      2  O   UNL     1      -9.838   1.372  -6.252  1.00  0.00    -0.269 OA
ATOM      3  N   UNL     1     -10.214  -0.686  -7.354  1.00  0.00    -0.274 N 
ATOM      4  C   UNL     1      -9.085  -1.442  -7.541  1.00  0.00     0.321 C 
ATOM      5  O   UNL     1      -9.215  -2.541  -8.090  1.00  0.00    -0.248 OA
ATOM      6  N   UNL     1      -7.860  -1.063  -7.134  1.00  0.00    -0.334 N 
ATOM      7  H   UNL     1     -11.000  -1.245  -7.658  1.00  0.00     0.175 HD
ATOM      8  H   UNL     1      -7.150  -1.768  -7.269  1.00  0.00     0.165 HD
ENDROOT
BRANCH   1   9
ATOM      9  C   UNL     1     -12.020   0.703  -6.540  1.00  0.00     0.040 A 
ATOM     10  C   UNL     1     -12.906   0.500  -7.600  1.00  0.00     0.014 A 
ATOM     11  C   UNL     1     -14.276   0.654  -7.385  1.00  0.00     0.004 A 
ATOM     12  C   UNL     1     -12.490   1.117  -5.290  1.00  0.00     0.014 A 
ATOM     13  C   UNL     1     -14.762   1.019  -6.121  1.00  0.00    -0.051 A 
ATOM     14  C   UNL     1     -13.859   1.264  -5.078  1.00  0.00     0.004 A 
ATOM     15  C   UNL     1     -16.241   1.098  -5.884  1.00  0.00     0.044 C 
ENDBRANCH   1   9
BRANCH   6  16
ATOM     16  C   UNL     1      -7.509   0.115  -6.392  1.00  0.00     0.153 C 
BRANCH  16  17
ATOM     17  C   UNL     1      -6.403  -0.010  -5.381  1.00  0.00    -0.029 A 
ATOM     18  C   UNL     1      -6.500  -0.812  -4.239  1.00  0.00     0.006 A 
ATOM     19  C   UNL     1      -5.156   0.540  -5.719  1.00  0.00     0.006 A 
ATOM     20  C   UNL     1      -5.362  -1.076  -3.469  1.00  0.00     0.004 A 
ATOM     21  C   UNL     1      -4.024   0.273  -4.956  1.00  0.00     0.004 A 
ATOM     22  C   UNL     1      -4.115  -0.546  -3.829  1.00  0.00    -0.051 A 
ATOM     23  C   UNL     1      -2.869  -0.938  -3.094  1.00  0.00     0.044 C 
ENDBRANCH  16  17
ENDBRANCH   6  16
TORSDOF 3
ENDMDL
MODEL 7
REMARK VINA RESULT:    -3.945      1.926      8.157
REMARK INTER + INTRA:          -5.110
REMARK INTER:                  -4.716
REMARK INTRA:                  -0.394
REMARK UNBOUND:                -0.473
REMARK SMILES Cc1ccc(CNC(=O)NC(=O)c2ccc(C)cc2)cc1
REMARK SMILES IDX 11 1 12 2 10 3 8 4 9 5 7 6 13 9 19 10 18 11 14 12 16 13
REMARK SMILES IDX 15 14 17 15 6 16 5 17 4 18 20 19 3 20 21 21 2 22 1 23
REMARK H PARENT 10 7 7 8
ROOT
ATOM      1  C   UNL     1      -7.539   0.384  -5.875  1.00  0.00     0.259 C 
ATOM      2  O   UNL     1      -8.307  -0.516  -6.183  1.00  0.00    -0.269 OA
ATOM      3  N   UNL     1      -7.681   1.761  -6.070  1.00  0.00    -0.274 N 
ATOM      4  C   UNL     1      -8.681   2.640  -6.401  1.00  0.00     0.321 C 
ATOM      5  O   UNL     1      -8.427   3.847  -6.339  1.00  0.00    -0.248 OA
ATOM      6  N   UNL     1      -9.922   2.256  -6.755  1.00  0.00    -0.334 N 
ATOM      7  H   UNL     1      -6.896   2.311  -5.749  1.00  0.00     0.175 HD
ATOM      8  H   UNL     1     -10.564   3.025  -6.883  1.00  0.00     0.165 HD
ENDROOT
BRANCH   1   9
ATOM      9  C   UNL     1      -6.288  -0.016  -5.202  1.00  0.00     0.040 A 
ATOM     10  C   UNL     1      -5.070   0.593  -5.508  1.00  0.00     0.014 A 
ATOM     11  C   UNL     1      -3.923   0.217  -4.807  1.00  0.00     0.004 A 
ATOM     12  C   UNL     1      -6.354  -1.035  -4.247  1.00  0.00     0.014 A 
ATOM     13  C   UNL     1      -3.988  -0.768  -3.810  1.00  0.00    -0.051 A 
ATOM     14  C   UNL     1      -5.207  -1.402  -3.545  1.00  0.00     0.004 A 
ATOM     15  C   UNL     1      -2.764  -1.099  -3.008  1.00  0.00     0.044 C 
ENDBRANCH   1   9
BRANCH   6  16
ATOM     16  C   UNL     1     -10.450   0.922  -6.789  1.00  0.00     0.153 C 
BRANCH  16  17
ATOM     17  C   UNL     1     -11.915   0.752  -6.495  1.00  0.00    -0.029 A 
ATOM     18  C   UNL     1     -12.477   1.015  -5.242  1.00  0.00     0.006 A 
ATOM     19  C   UNL     1     -12.768   0.523  -7.587  1.00  0.00     0.006 A 
ATOM     20  C   UNL     1     -13.867   1.071  -5.096  1.00  0.00     0.004 A 
ATOM     21  C   UNL     1     -14.150   0.584  -7.442  1.00  0.00     0.004 A 
ATOM     22  C   UNL     1     -14.712   0.869  -6.197  1.00  0.00    -0.051 A 
ATOM     23  C   UNL     1     -16.194   1.068  -6.079  1.00  0.00     0.044 C 
ENDBRANCH  16  17
ENDBRANCH   6  16
TORSDOF 3
ENDMDL
MODEL 8
REMARK VINA RESULT:    -3.879      4.160      8.310
REMARK INTER + INTRA:          -5.033
REMARK INTER:                  -4.686
REMARK INTRA:                  -0.347
REMARK UNBOUND:                -0.473
REMARK SMILES Cc1ccc(CNC(=O)NC(=O)c2ccc(C)cc2)cc1
REMARK SMILES IDX 11 1 12 2 10 3 8 4 9 5 7 6 13 9 19 10 18 11 14 12 16 13
REMARK SMILES IDX 15 14 17 15 6 16 5 17 4 18 20 19 3 20 21 21 2 22 1 23
REMARK H PARENT 10 7 7 8
ROOT
ATOM      1  C   UNL     1      -9.594   1.421  -8.819  1.00  0.00     0.259 C 
ATOM      2  O   UNL     1     -10.784   1.649  -8.648  1.00  0.00    -0.269 OA
ATOM      3  N   UNL     1      -8.842   1.527  -9.993  1.00  0.00    -0.274 N 
ATOM      4  C   UNL     1      -8.981   2.085 -11.238  1.00  0.00     0.321 C 
ATOM      5  O   UNL     1      -7.995   2.076 -11.983  1.00  0.00    -0.248 OA
ATOM      6  N   UNL     1     -10.116   2.664 -11.672  1.00  0.00    -0.334 N 
ATOM      7  H   UNL     1      -7.872   1.261  -9.892  1.00  0.00     0.175 HD
ATOM      8  H   UNL     1     -10.028   3.103 -12.577  1.00  0.00     0.165 HD
ENDROOT
BRANCH   1   9
ATOM      9  C   UNL     1      -8.830   0.979  -7.636  1.00  0.00     0.040 A 
ATOM     10  C   UNL     1      -8.455  -0.355  -7.469  1.00  0.00     0.014 A 
ATOM     11  C   UNL     1      -7.687  -0.716  -6.361  1.00  0.00     0.004 A 
ATOM     12  C   UNL     1      -8.495   1.938  -6.675  1.00  0.00     0.014 A 
ATOM     13  C   UNL     1      -7.301   0.248  -5.418  1.00  0.00    -0.051 A 
ATOM     14  C   UNL     1      -7.723   1.574  -5.573  1.00  0.00     0.004 A 
ATOM     15  C   UNL     1      -6.406  -0.140  -4.278  1.00  0.00     0.044 C 
ENDBRANCH   1   9
BRANCH   6  16
ATOM     16  C   UNL     1     -11.331   2.870 -10.936  1.00  0.00     0.153 C 
BRANCH  16  17
ATOM     17  C   UNL     1     -12.350   3.800 -11.534  1.00  0.00    -0.029 A 
ATOM     18  C   UNL     1     -12.009   4.990 -12.185  1.00  0.00     0.006 A 
ATOM     19  C   UNL     1     -13.673   3.335 -11.619  1.00  0.00     0.006 A 
ATOM     20  C   UNL     1     -12.972   5.684 -12.925  1.00  0.00     0.004 A 
ATOM     21  C   UNL     1     -14.628   4.023 -12.360  1.00  0.00     0.004 A 
ATOM     22  C   UNL     1     -14.284   5.199 -13.028  1.00  0.00    -0.051 A 
ATOM     23  C   UNL     1     -15.281   5.858 -13.933  1.00  0.00     0.044 C 
ENDBRANCH  16  17
ENDBRANCH   6  16
TORSDOF 3
ENDMDL
MODEL 9
REMARK VINA RESULT:    -3.724      6.829      8.422
REMARK INTER + INTRA:          -4.851
REMARK INTER:                  -4.469
REMARK INTRA:                  -0.382
REMARK UNBOUND:                -0.473
REMARK SMILES Cc1ccc(CNC(=O)NC(=O)c2ccc(C)cc2)cc1
REMARK SMILES IDX 11 1 12 2 10 3 8 4 9 5 7 6 13 9 19 10 18 11 14 12 16 13
REMARK SMILES IDX 15 14 17 15 6 16 5 17 4 18 20 19 3 20 21 21 2 22 1 23
REMARK H PARENT 10 7 7 8
ROOT
ATOM      1  C   UNL     1     -12.750   3.854 -14.764  1.00  0.00     0.259 C 
ATOM      2  O   UNL     1     -11.691   4.417 -14.523  1.00  0.00    -0.269 OA
ATOM      3  N   UNL     1     -12.972   2.518 -15.109  1.00  0.00    -0.274 N 
ATOM      4  C   UNL     1     -12.274   1.337 -15.092  1.00  0.00     0.321 C 
ATOM      5  O   UNL     1     -12.891   0.302 -15.365  1.00  0.00    -0.248 OA
ATOM      6  N   UNL     1     -10.971   1.248 -14.768  1.00  0.00    -0.334 N 
ATOM      7  H   UNL     1     -13.942   2.287 -15.283  1.00  0.00     0.175 HD
ATOM      8  H   UNL     1     -10.627   0.300 -14.720  1.00  0.00     0.165 HD
ENDROOT
BRANCH   1   9
ATOM      9  C   UNL     1     -13.971   4.679 -14.678  1.00  0.00     0.040 A 
ATOM     10  C   UNL     1     -14.438   5.165 -13.456  1.00  0.00     0.014 A 
ATOM     11  C   UNL     1     -15.567   5.984 -13.431  1.00  0.00     0.004 A 
ATOM     12  C   UNL     1     -14.659   4.959 -15.864  1.00  0.00     0.014 A 
ATOM     13  C   UNL     1     -16.234   6.313 -14.621  1.00  0.00    -0.051 A 
ATOM     14  C   UNL     1     -15.782   5.783 -15.835  1.00  0.00     0.004 A 
ATOM     15  C   UNL     1     -17.395   7.263 -14.588  1.00  0.00     0.044 C 
ENDBRANCH   1   9
BRANCH   6  16
ATOM     16  C   UNL     1     -10.104   2.304 -14.323  1.00  0.00     0.153 C 
BRANCH  16  17
ATOM     17  C   UNL     1      -9.781   2.359 -12.856  1.00  0.00    -0.029 A 
ATOM     18  C   UNL     1     -10.618   2.964 -11.912  1.00  0.00     0.006 A 
ATOM     19  C   UNL     1      -8.699   1.585 -12.406  1.00  0.00     0.006 A 
ATOM     20  C   UNL     1     -10.385   2.774 -10.546  1.00  0.00     0.004 A 
ATOM     21  C   UNL     1      -8.471   1.393 -11.047  1.00  0.00     0.004 A 
ATOM     22  C   UNL     1      -9.319   1.977 -10.105  1.00  0.00    -0.051 A 
ATOM     23  C   UNL     1      -9.148   1.653  -8.651  1.00  0.00     0.044 C 
ENDBRANCH  16  17
ENDBRANCH   6  16
TORSDOF 3
ENDMDL
