MODEL 1
REMARK VINA RESULT:    -6.044      0.000      0.000
REMARK INTER + INTRA:          -7.590
REMARK INTER:                  -7.105
REMARK INTRA:                  -0.486
REMARK UNBOUND:                -0.486
REMARK SMILES Cc1ccc(CNC(=O)NC(=O)c2ccc(C)cc2)cc1
REMARK SMILES IDX 11 1 12 2 10 3 8 4 9 5 7 6 13 9 19 10 18 11 14 12 16 13
REMARK SMILES IDX 15 14 17 15 6 16 5 17 4 18 20 19 3 20 21 21 2 22 1 23
REMARK H PARENT 10 7 7 8
ROOT
ATOM      1  C   UNL     1     -12.199   4.349   1.885  1.00  0.00     0.259 C 
ATOM      2  O   UNL     1     -11.285   3.540   1.966  1.00  0.00    -0.269 OA
ATOM      3  N   UNL     1     -12.204   5.606   1.272  1.00  0.00    -0.274 N 
ATOM      4  C   UNL     1     -11.418   6.309   0.396  1.00  0.00     0.321 C 
ATOM      5  O   UNL     1     -11.851   7.387  -0.025  1.00  0.00    -0.248 OA
ATOM      6  N   UNL     1     -10.224   5.873  -0.047  1.00  0.00    -0.334 N 
ATOM      7  H   UNL     1     -13.079   6.106   1.354  1.00  0.00     0.175 HD
ATOM      8  H   UNL     1      -9.811   6.466  -0.753  1.00  0.00     0.165 HD
ENDROOT
BRANCH   1   9
ATOM      9  C   UNL     1     -13.480   3.962   2.507  1.00  0.00     0.040 A 
ATOM     10  C   UNL     1     -13.522   3.294   3.732  1.00  0.00     0.014 A 
ATOM     11  C   UNL     1     -14.758   2.996   4.307  1.00  0.00     0.004 A 
ATOM     12  C   UNL     1     -14.661   4.278   1.829  1.00  0.00     0.014 A 
ATOM     13  C   UNL     1     -15.950   3.355   3.659  1.00  0.00    -0.051 A 
ATOM     14  C   UNL     1     -15.894   3.984   2.409  1.00  0.00     0.004 A 
ATOM     15  C   UNL     1     -17.268   3.103   4.329  1.00  0.00     0.044 C 
ENDBRANCH   1   9
BRANCH   6  16
ATOM     16  C   UNL     1      -9.591   4.616   0.233  1.00  0.00     0.153 C 
BRANCH  16  17
ATOM     17  C   UNL     1      -8.116   4.635   0.523  1.00  0.00    -0.029 A 
ATOM     18  C   UNL     1      -7.141   4.564  -0.477  1.00  0.00     0.006 A 
ATOM     19  C   UNL     1      -7.722   4.948   1.834  1.00  0.00     0.006 A 
ATOM     20  C   UNL     1      -5.802   4.828  -0.169  1.00  0.00     0.004 A 
ATOM     21  C   UNL     1      -6.391   5.215   2.138  1.00  0.00     0.004 A 
ATOM     22  C   UNL     1      -5.420   5.167   1.137  1.00  0.00    -0.051 A 
ATOM     23  C   UNL     1      -4.015   5.589   1.445  1.00  0.00     0.044 C 
ENDBRANCH  16  17
ENDBRANCH   6  16
TORSDOF 3
ENDMDL
MODEL 2
REMARK VINA RESULT:    -6.034      3.031      5.467
REMARK INTER + INTRA:          -7.578
REMARK INTER:                  -7.089
REMARK INTRA:                  -0.489
REMARK UNBOUND:                -0.486
REMARK SMILES Cc1ccc(CNC(=O)NC(=O)c2ccc(C)cc2)cc1
REMARK SMILES IDX 11 1 12 2 10 3 8 4 9 5 7 6 13 9 19 10 18 11 14 12 16 13
REMARK SMILES IDX 15 14 17 15 6 16 5 17 4 18 20 19 3 20 21 21 2 22 1 23
REMARK H PARENT 10 7 7 8
ROOT
ATOM      1  C   UNL     1     -11.150   7.238  -0.107  1.00  0.00     0.259 C 
ATOM      2  O   UNL     1      -9.942   7.206  -0.293  1.00  0.00    -0.269 OA
ATOM      3  N   UNL     1     -11.961   6.302   0.542  1.00  0.00    -0.274 N 
ATOM      4  C   UNL     1     -11.797   5.220   1.369  1.00  0.00     0.321 C 
ATOM      5  O   UNL     1     -12.813   4.714   1.859  1.00  0.00    -0.248 OA
ATOM      6  N   UNL     1     -10.596   4.705   1.692  1.00  0.00    -0.334 N 
ATOM      7  H   UNL     1     -12.945   6.538   0.553  1.00  0.00     0.175 HD
ATOM      8  H   UNL     1     -10.642   3.965   2.377  1.00  0.00     0.165 HD
ENDROOT
BRANCH   1   9
ATOM      9  C   UNL     1     -11.867   8.418  -0.628  1.00  0.00     0.040 A 
ATOM     10  C   UNL     1     -11.558   8.967  -1.873  1.00  0.00     0.014 A 
ATOM     11  C   UNL     1     -12.299  10.051  -2.346  1.00  0.00     0.004 A 
ATOM     12  C   UNL     1     -12.870   8.981   0.168  1.00  0.00     0.014 A 
ATOM     13  C   UNL     1     -13.341  10.591  -1.577  1.00  0.00    -0.051 A 
ATOM     14  C   UNL     1     -13.611  10.059  -0.311  1.00  0.00     0.004 A 
ATOM     15  C   UNL     1     -14.183  11.700  -2.135  1.00  0.00     0.044 C 
ENDBRANCH   1   9
BRANCH   6  16
ATOM     16  C   UNL     1      -9.302   5.201   1.318  1.00  0.00     0.153 C 
BRANCH  16  17
ATOM     17  C   UNL     1      -8.275   4.191   0.888  1.00  0.00    -0.029 A 
ATOM     18  C   UNL     1      -7.414   3.548   1.783  1.00  0.00     0.006 A 
ATOM     19  C   UNL     1      -8.339   3.733  -0.438  1.00  0.00     0.006 A 
ATOM     20  C   UNL     1      -6.654   2.453   1.360  1.00  0.00     0.004 A 
ATOM     21  C   UNL     1      -7.587   2.640  -0.857  1.00  0.00     0.004 A 
ATOM     22  C   UNL     1      -6.744   1.984   0.042  1.00  0.00    -0.051 A 
ATOM     23  C   UNL     1      -6.044   0.727  -0.380  1.00  0.00     0.044 C 
ENDBRANCH  16  17
ENDBRANCH   6  16
TORSDOF 3
ENDMDL
MODEL 3
REMARK VINA RESULT:    -6.000      3.140      7.316
REMARK INTER + INTRA:          -7.538
REMARK INTER:                  -7.152
REMARK INTRA:                  -0.386
REMARK UNBOUND:                -0.486
REMARK SMILES Cc1ccc(CNC(=O)NC(=O)c2ccc(C)cc2)cc1
REMARK SMILES IDX 11 1 12 2 10 3 8 4 9 5 7 6 13 9 19 10 18 11 14 12 16 13
REMARK SMILES IDX 15 14 17 15 6 16 5 17 4 18 20 19 3 20 21 21 2 22 1 23
REMARK H PARENT 10 7 7 8
ROOT
ATOM      1  C   UNL     1      -9.427   5.040   0.628  1.00  0.00     0.259 C 
ATOM      2  O   UNL     1      -9.014   6.164   0.382  1.00  0.00    -0.269 OA
ATOM      3  N   UNL     1     -10.699   4.649   1.058  1.00  0.00    -0.274 N 
ATOM      4  C   UNL     1     -11.952   5.199   1.146  1.00  0.00     0.321 C 
ATOM      5  O   UNL     1     -12.883   4.455   1.472  1.00  0.00    -0.248 OA
ATOM      6  N   UNL     1     -12.220   6.489   0.869  1.00  0.00    -0.334 N 
ATOM      7  H   UNL     1     -10.798   3.655   1.218  1.00  0.00     0.175 HD
ATOM      8  H   UNL     1     -13.204   6.715   0.899  1.00  0.00     0.165 HD
ENDROOT
BRANCH   1   9
ATOM      9  C   UNL     1      -8.471   3.930   0.447  1.00  0.00     0.040 A 
ATOM     10  C   UNL     1      -7.767   3.393   1.526  1.00  0.00     0.014 A 
ATOM     11  C   UNL     1      -6.913   2.310   1.315  1.00  0.00     0.004 A 
ATOM     12  C   UNL     1      -8.280   3.432  -0.845  1.00  0.00     0.014 A 
ATOM     13  C   UNL     1      -6.754   1.769   0.030  1.00  0.00    -0.051 A 
ATOM     14  C   UNL     1      -7.431   2.346  -1.051  1.00  0.00     0.004 A 
ATOM     15  C   UNL     1      -5.899   0.552  -0.166  1.00  0.00     0.044 C 
ENDBRANCH   1   9
BRANCH   6  16
ATOM     16  C   UNL     1     -11.311   7.486   0.379  1.00  0.00     0.153 C 
BRANCH  16  17
ATOM     17  C   UNL     1     -11.898   8.632  -0.398  1.00  0.00    -0.029 A 
ATOM     18  C   UNL     1     -11.527   8.932  -1.712  1.00  0.00     0.006 A 
ATOM     19  C   UNL     1     -13.011   9.284   0.159  1.00  0.00     0.006 A 
ATOM     20  C   UNL     1     -12.275   9.850  -2.458  1.00  0.00     0.004 A 
ATOM     21  C   UNL     1     -13.756  10.193  -0.585  1.00  0.00     0.004 A 
ATOM     22  C   UNL     1     -13.400  10.476  -1.905  1.00  0.00    -0.051 A 
ATOM     23  C   UNL     1     -14.287  11.349  -2.742  1.00  0.00     0.044 C 
ENDBRANCH  16  17
ENDBRANCH   6  16
TORSDOF 3
ENDMDL
MODEL 4
REMARK VINA RESULT:    -5.992      0.545      8.011
REMARK INTER + INTRA:          -7.529
REMARK INTER:                  -7.145
REMARK INTRA:                  -0.384
REMARK UNBOUND:                -0.486
REMARK SMILES Cc1ccc(CNC(=O)NC(=O)c2ccc(C)cc2)cc1
REMARK SMILES IDX 11 1 12 2 10 3 8 4 9 5 7 6 13 9 19 10 18 11 14 12 16 13
REMARK SMILES IDX 15 14 17 15 6 16 5 17 4 18 20 19 3 20 21 21 2 22 1 23
REMARK H PARENT 10 7 7 8
ROOT
ATOM      1  C   UNL     1      -9.520   4.780   0.927  1.00  0.00     0.259 C 
ATOM      2  O   UNL     1      -9.966   3.672   1.187  1.00  0.00    -0.269 OA
ATOM      3  N   UNL     1     -10.214   5.946   0.590  1.00  0.00    -0.274 N 
ATOM      4  C   UNL     1     -11.506   6.405   0.634  1.00  0.00     0.321 C 
ATOM      5  O   UNL     1     -11.702   7.593   0.357  1.00  0.00    -0.248 OA
ATOM      6  N   UNL     1     -12.555   5.642   0.991  1.00  0.00    -0.334 N 
ATOM      7  H   UNL     1      -9.622   6.743   0.395  1.00  0.00     0.175 HD
ATOM      8  H   UNL     1     -13.425   6.150   1.056  1.00  0.00     0.165 HD
ENDROOT
BRANCH   1   9
ATOM      9  C   UNL     1      -8.052   4.930   0.975  1.00  0.00     0.040 A 
ATOM     10  C   UNL     1      -7.278   4.889  -0.186  1.00  0.00     0.014 A 
ATOM     11  C   UNL     1      -5.900   5.088  -0.096  1.00  0.00     0.004 A 
ATOM     12  C   UNL     1      -7.451   5.107   2.225  1.00  0.00     0.014 A 
ATOM     13  C   UNL     1      -5.293   5.319   1.148  1.00  0.00    -0.051 A 
ATOM     14  C   UNL     1      -6.075   5.312   2.309  1.00  0.00     0.004 A 
ATOM     15  C   UNL     1      -3.824   5.615   1.218  1.00  0.00     0.044 C 
ENDBRANCH   1   9
BRANCH   6  16
ATOM     16  C   UNL     1     -12.533   4.280   1.446  1.00  0.00     0.153 C 
BRANCH  16  17
ATOM     17  C   UNL     1     -13.677   3.822   2.306  1.00  0.00    -0.029 A 
ATOM     18  C   UNL     1     -13.503   3.285   3.586  1.00  0.00     0.006 A 
ATOM     19  C   UNL     1     -14.975   4.147   1.878  1.00  0.00     0.006 A 
ATOM     20  C   UNL     1     -14.607   3.104   4.426  1.00  0.00     0.004 A 
ATOM     21  C   UNL     1     -16.071   3.971   2.716  1.00  0.00     0.004 A 
ATOM     22  C   UNL     1     -15.896   3.457   4.002  1.00  0.00    -0.051 A 
ATOM     23  C   UNL     1     -17.061   3.399   4.944  1.00  0.00     0.044 C 
ENDBRANCH  16  17
ENDBRANCH   6  16
TORSDOF 3
ENDMDL
MODEL 5
REMARK VINA RESULT:    -5.701      1.360      2.096
REMARK INTER + INTRA:          -7.187
REMARK INTER:                  -6.684
REMARK INTRA:                  -0.503
REMARK UNBOUND:                -0.486
REMARK SMILES Cc1ccc(CNC(=O)NC(=O)c2ccc(C)cc2)cc1
REMARK SMILES IDX 11 1 12 2 10 3 8 4 9 5 7 6 13 9 19 10 18 11 14 12 16 13
REMARK SMILES IDX 15 14 17 15 6 16 5 17 4 18 20 19 3 20 21 21 2 22 1 23
REMARK H PARENT 10 7 7 8
ROOT
ATOM      1  C   UNL     1     -12.664   4.212   1.630  1.00  0.00     0.259 C 
ATOM      2  O   UNL     1     -11.997   3.243   1.294  1.00  0.00    -0.269 OA
ATOM      3  N   UNL     1     -12.441   5.565   1.359  1.00  0.00    -0.274 N 
ATOM      4  C   UNL     1     -11.659   6.314   0.517  1.00  0.00     0.321 C 
ATOM      5  O   UNL     1     -11.856   7.533   0.485  1.00  0.00    -0.248 OA
ATOM      6  N   UNL     1     -10.718   5.788  -0.289  1.00  0.00    -0.334 N 
ATOM      7  H   UNL     1     -13.124   6.190   1.765  1.00  0.00     0.175 HD
ATOM      8  H   UNL     1     -10.290   6.462  -0.908  1.00  0.00     0.165 HD
ENDROOT
BRANCH   1   9
ATOM      9  C   UNL     1     -13.875   3.935   2.427  1.00  0.00     0.040 A 
ATOM     10  C   UNL     1     -15.148   4.250   1.949  1.00  0.00     0.014 A 
ATOM     11  C   UNL     1     -16.267   3.922   2.716  1.00  0.00     0.004 A 
ATOM     12  C   UNL     1     -13.713   3.352   3.687  1.00  0.00     0.014 A 
ATOM     13  C   UNL     1     -16.118   3.289   3.959  1.00  0.00    -0.051 A 
ATOM     14  C   UNL     1     -14.833   3.020   4.447  1.00  0.00     0.004 A 
ATOM     15  C   UNL     1     -17.332   2.866   4.733  1.00  0.00     0.044 C 
ENDBRANCH   1   9
BRANCH   6  16
ATOM     16  C   UNL     1     -10.403   4.401  -0.479  1.00  0.00     0.153 C 
BRANCH  16  17
ATOM     17  C   UNL     1      -8.986   3.972  -0.218  1.00  0.00    -0.029 A 
ATOM     18  C   UNL     1      -8.342   4.172   1.008  1.00  0.00     0.006 A 
ATOM     19  C   UNL     1      -8.373   3.154  -1.180  1.00  0.00     0.006 A 
ATOM     20  C   UNL     1      -7.120   3.542   1.268  1.00  0.00     0.004 A 
ATOM     21  C   UNL     1      -7.160   2.524  -0.919  1.00  0.00     0.004 A 
ATOM     22  C   UNL     1      -6.528   2.705   0.312  1.00  0.00    -0.051 A 
ATOM     23  C   UNL     1      -5.295   1.916   0.636  1.00  0.00     0.044 C 
ENDBRANCH  16  17
ENDBRANCH   6  16
TORSDOF 3
ENDMDL
MODEL 6
REMARK VINA RESULT:    -5.638      2.990      5.173
REMARK INTER + INTRA:          -7.112
REMARK INTER:                  -6.652
REMARK INTRA:                  -0.460
REMARK UNBOUND:                -0.486
REMARK SMILES Cc1ccc(CNC(=O)NC(=O)c2ccc(C)cc2)cc1
REMARK SMILES IDX 11 1 12 2 10 3 8 4 9 5 7 6 13 9 19 10 18 11 14 12 16 13
REMARK SMILES IDX 15 14 17 15 6 16 5 17 4 18 20 19 3 20 21 21 2 22 1 23
REMARK H PARENT 10 7 7 8
ROOT
ATOM      1  C   UNL     1     -11.018   7.350  -0.097  1.00  0.00     0.259 C 
ATOM      2  O   UNL     1      -9.804   7.497  -0.120  1.00  0.00    -0.269 OA
ATOM      3  N   UNL     1     -11.759   6.251   0.350  1.00  0.00    -0.274 N 
ATOM      4  C   UNL     1     -11.542   5.116   1.089  1.00  0.00     0.321 C 
ATOM      5  O   UNL     1     -12.526   4.432   1.390  1.00  0.00    -0.248 OA
ATOM      6  N   UNL     1     -10.328   4.731   1.524  1.00  0.00    -0.334 N 
ATOM      7  H   UNL     1     -12.760   6.354   0.248  1.00  0.00     0.175 HD
ATOM      8  H   UNL     1     -10.350   3.922   2.126  1.00  0.00     0.165 HD
ENDROOT
BRANCH   1   9
ATOM      9  C   UNL     1     -11.829   8.475  -0.600  1.00  0.00     0.040 A 
ATOM     10  C   UNL     1     -11.583   9.049  -1.849  1.00  0.00     0.014 A 
ATOM     11  C   UNL     1     -12.410  10.076  -2.304  1.00  0.00     0.004 A 
ATOM     12  C   UNL     1     -12.855   8.962   0.216  1.00  0.00     0.014 A 
ATOM     13  C   UNL     1     -13.475  10.536  -1.515  1.00  0.00    -0.051 A 
ATOM     14  C   UNL     1     -13.683   9.984  -0.246  1.00  0.00     0.004 A 
ATOM     15  C   UNL     1     -14.406  11.582  -2.054  1.00  0.00     0.044 C 
ENDBRANCH   1   9
BRANCH   6  16
ATOM     16  C   UNL     1      -9.082   5.430   1.375  1.00  0.00     0.153 C 
BRANCH  16  17
ATOM     17  C   UNL     1      -7.892   4.629   0.926  1.00  0.00    -0.029 A 
ATOM     18  C   UNL     1      -6.956   5.105   0.001  1.00  0.00     0.006 A 
ATOM     19  C   UNL     1      -7.609   3.448   1.631  1.00  0.00     0.006 A 
ATOM     20  C   UNL     1      -5.752   4.420  -0.192  1.00  0.00     0.004 A 
ATOM     21  C   UNL     1      -6.408   2.770   1.441  1.00  0.00     0.004 A 
ATOM     22  C   UNL     1      -5.465   3.256   0.535  1.00  0.00    -0.051 A 
ATOM     23  C   UNL     1      -4.121   2.598   0.439  1.00  0.00     0.044 C 
ENDBRANCH  16  17
ENDBRANCH   6  16
TORSDOF 3
ENDMDL
MODEL 7
REMARK VINA RESULT:    -4.876      8.262     11.331
REMARK INTER + INTRA:          -6.217
REMARK INTER:                  -5.881
REMARK INTRA:                  -0.336
REMARK UNBOUND:                -0.486
REMARK SMILES Cc1ccc(CNC(=O)NC(=O)c2ccc(C)cc2)cc1
REMARK SMILES IDX 11 1 12 2 10 3 8 4 9 5 7 6 13 9 19 10 18 11 14 12 16 13
REMARK SMILES IDX 15 14 17 15 6 16 5 17 4 18 20 19 3 20 21 21 2 22 1 23
REMARK H PARENT 10 7 7 8
ROOT
ATOM      1  C   UNL     1     -13.782  11.314  -2.788  1.00  0.00     0.259 C 
ATOM      2  O   UNL     1     -14.957  11.091  -3.046  1.00  0.00    -0.269 OA
ATOM      3  N   UNL     1     -12.986  12.390  -3.195  1.00  0.00    -0.274 N 
ATOM      4  C   UNL     1     -13.166  13.627  -3.757  1.00  0.00     0.321 C 
ATOM      5  O   UNL     1     -12.179  14.367  -3.842  1.00  0.00    -0.248 OA
ATOM      6  N   UNL     1     -14.356  14.084  -4.188  1.00  0.00    -0.334 N 
ATOM      7  H   UNL     1     -12.029  12.346  -2.870  1.00  0.00     0.175 HD
ATOM      8  H   UNL     1     -14.336  15.045  -4.496  1.00  0.00     0.165 HD
ENDROOT
BRANCH   1   9
ATOM      9  C   UNL     1     -13.096  10.330  -1.930  1.00  0.00     0.040 A 
ATOM     10  C   UNL     1     -11.992   9.609  -2.388  1.00  0.00     0.014 A 
ATOM     11  C   UNL     1     -11.343   8.728  -1.522  1.00  0.00     0.004 A 
ATOM     12  C   UNL     1     -13.588  10.131  -0.636  1.00  0.00     0.014 A 
ATOM     13  C   UNL     1     -11.797   8.559  -0.206  1.00  0.00    -0.051 A 
ATOM     14  C   UNL     1     -12.933   9.254   0.227  1.00  0.00     0.004 A 
ATOM     15  C   UNL     1     -11.039   7.673   0.738  1.00  0.00     0.044 C 
ENDBRANCH   1   9
BRANCH   6  16
ATOM     16  C   UNL     1     -15.632  13.433  -4.088  1.00  0.00     0.153 C 
BRANCH  16  17
ATOM     17  C   UNL     1     -16.271  12.966  -5.366  1.00  0.00    -0.029 A 
ATOM     18  C   UNL     1     -17.340  13.633  -5.973  1.00  0.00     0.006 A 
ATOM     19  C   UNL     1     -15.620  11.942  -6.074  1.00  0.00     0.006 A 
ATOM     20  C   UNL     1     -17.730  13.293  -7.273  1.00  0.00     0.004 A 
ATOM     21  C   UNL     1     -16.006  11.609  -7.368  1.00  0.00     0.004 A 
ATOM     22  C   UNL     1     -17.058  12.289  -7.984  1.00  0.00    -0.051 A 
ATOM     23  C   UNL     1     -17.376  12.018  -9.424  1.00  0.00     0.044 C 
ENDBRANCH  16  17
ENDBRANCH   6  16
TORSDOF 3
ENDMDL
MODEL 8
REMARK VINA RESULT:    -4.530      7.927     10.264
REMARK INTER + INTRA:          -5.810
REMARK INTER:                  -5.420
REMARK INTRA:                  -0.391
REMARK UNBOUND:                -0.486
REMARK SMILES Cc1ccc(CNC(=O)NC(=O)c2ccc(C)cc2)cc1
REMARK SMILES IDX 11 1 12 2 10 3 8 4 9 5 7 6 13 9 19 10 18 11 14 12 16 13
REMARK SMILES IDX 15 14 17 15 6 16 5 17 4 18 20 19 3 20 21 21 2 22 1 23
REMARK H PARENT 10 7 7 8
ROOT
ATOM      1  C   UNL     1     -15.480  11.718  -4.353  1.00  0.00     0.259 C 
ATOM      2  O   UNL     1     -15.829  10.886  -3.527  1.00  0.00    -0.269 OA
ATOM      3  N   UNL     1     -14.462  12.672  -4.257  1.00  0.00    -0.274 N 
ATOM      4  C   UNL     1     -13.383  12.925  -3.449  1.00  0.00     0.321 C 
ATOM      5  O   UNL     1     -12.613  13.831  -3.786  1.00  0.00    -0.248 OA
ATOM      6  N   UNL     1     -13.107  12.222  -2.334  1.00  0.00    -0.334 N 
ATOM      7  H   UNL     1     -14.373  13.271  -5.067  1.00  0.00     0.175 HD
ATOM      8  H   UNL     1     -12.231  12.477  -1.900  1.00  0.00     0.165 HD
ENDROOT
BRANCH   1   9
ATOM      9  C   UNL     1     -16.216  11.730  -5.631  1.00  0.00     0.040 A 
ATOM     10  C   UNL     1     -17.600  11.910  -5.673  1.00  0.00     0.014 A 
ATOM     11  C   UNL     1     -18.245  11.966  -6.909  1.00  0.00     0.004 A 
ATOM     12  C   UNL     1     -15.487  11.548  -6.811  1.00  0.00     0.014 A 
ATOM     13  C   UNL     1     -17.515  11.837  -8.100  1.00  0.00    -0.051 A 
ATOM     14  C   UNL     1     -16.134  11.612  -8.043  1.00  0.00     0.004 A 
ATOM     15  C   UNL     1     -18.210  11.985  -9.422  1.00  0.00     0.044 C 
ENDBRANCH   1   9
BRANCH   6  16
ATOM     16  C   UNL     1     -13.806  11.076  -1.826  1.00  0.00     0.153 C 
BRANCH  16  17
ATOM     17  C   UNL     1     -12.999  10.054  -1.074  1.00  0.00    -0.029 A 
ATOM     18  C   UNL     1     -13.471   9.399   0.068  1.00  0.00     0.006 A 
ATOM     19  C   UNL     1     -11.815   9.598  -1.677  1.00  0.00     0.006 A 
ATOM     20  C   UNL     1     -12.779   8.294   0.577  1.00  0.00     0.004 A 
ATOM     21  C   UNL     1     -11.131   8.497  -1.173  1.00  0.00     0.004 A 
ATOM     22  C   UNL     1     -11.614   7.828  -0.047  1.00  0.00    -0.051 A 
ATOM     23  C   UNL     1     -10.948   6.563   0.407  1.00  0.00     0.044 C 
ENDBRANCH  16  17
ENDBRANCH   6  16
TORSDOF 3
ENDMDL
MODEL 9
REMARK VINA RESULT:    -4.429      8.202     11.249
REMARK INTER + INTRA:          -5.692
REMARK INTER:                  -5.095
REMARK INTRA:                  -0.597
REMARK UNBOUND:                -0.486
REMARK SMILES Cc1ccc(CNC(=O)NC(=O)c2ccc(C)cc2)cc1
REMARK SMILES IDX 11 1 12 2 10 3 8 4 9 5 7 6 13 9 19 10 18 11 14 12 16 13
REMARK SMILES IDX 15 14 17 15 6 16 5 17 4 18 20 19 3 20 21 21 2 22 1 23
REMARK H PARENT 10 7 7 8
ROOT
ATOM      1  C   UNL     1     -14.031  11.527  -2.279  1.00  0.00     0.259 C 
ATOM      2  O   UNL     1     -13.466  12.187  -3.139  1.00  0.00    -0.269 OA
ATOM      3  N   UNL     1     -15.335  11.659  -1.789  1.00  0.00    -0.274 N 
ATOM      4  C   UNL     1     -16.492  12.301  -2.148  1.00  0.00     0.321 C 
ATOM      5  O   UNL     1     -17.512  12.051  -1.498  1.00  0.00    -0.248 OA
ATOM      6  N   UNL     1     -16.577  13.159  -3.182  1.00  0.00    -0.334 N 
ATOM      7  H   UNL     1     -15.573  11.004  -1.056  1.00  0.00     0.175 HD
ATOM      8  H   UNL     1     -17.516  13.480  -3.368  1.00  0.00     0.165 HD
ENDROOT
BRANCH   1   9
ATOM      9  C   UNL     1     -13.251  10.434  -1.667  1.00  0.00     0.040 A 
ATOM     10  C   UNL     1     -12.201   9.818  -2.350  1.00  0.00     0.014 A 
ATOM     11  C   UNL     1     -11.458   8.825  -1.710  1.00  0.00     0.004 A 
ATOM     12  C   UNL     1     -13.599  10.022  -0.376  1.00  0.00     0.014 A 
ATOM     13  C   UNL     1     -11.766   8.441  -0.396  1.00  0.00    -0.051 A 
ATOM     14  C   UNL     1     -12.850   9.035   0.261  1.00  0.00     0.004 A 
ATOM     15  C   UNL     1     -10.906   7.433   0.308  1.00  0.00     0.044 C 
ENDBRANCH   1   9
BRANCH   6  16
ATOM     16  C   UNL     1     -15.547  13.506  -4.120  1.00  0.00     0.153 C 
BRANCH  16  17
ATOM     17  C   UNL     1     -15.775  13.143  -5.561  1.00  0.00    -0.029 A 
ATOM     18  C   UNL     1     -15.448  11.892  -6.094  1.00  0.00     0.006 A 
ATOM     19  C   UNL     1     -16.539  14.031  -6.334  1.00  0.00     0.006 A 
ATOM     20  C   UNL     1     -15.902  11.534  -7.368  1.00  0.00     0.004 A 
ATOM     21  C   UNL     1     -16.994  13.672  -7.599  1.00  0.00     0.004 A 
ATOM     22  C   UNL     1     -16.688  12.415  -8.123  1.00  0.00    -0.051 A 
ATOM     23  C   UNL     1     -17.295  11.986  -9.425  1.00  0.00     0.044 C 
ENDBRANCH  16  17
ENDBRANCH   6  16
TORSDOF 3
ENDMDL
