MODEL 1
REMARK VINA RESULT:    -4.058      0.000      0.000
REMARK INTER + INTRA:          -5.532
REMARK INTER:                  -5.363
REMARK INTRA:                  -0.169
REMARK UNBOUND:                -0.169
REMARK SMILES [H]/N=C\C[C@H]1C[C@@H]1O[C@H]1CO[C@H]2C[C@@H](C3CC3)CCN2C1
REMARK SMILES IDX 7 1 6 2 5 3 8 4 9 5 14 6 13 7 18 8 12 9 19 10 20 11 11 12
REMARK SMILES IDX 21 13 10 14 15 15 16 16 17 17 4 18 3 19 2 20 1 21
REMARK H PARENT
ROOT
ATOM      1  C   UNL     1     -10.876   5.782   0.458  1.00  0.00     0.122 C 
ATOM      2  C   UNL     1     -11.586   4.523   0.868  1.00  0.00     0.039 C 
ATOM      3  C   UNL     1     -10.770   4.546  -0.392  1.00  0.00     0.026 C 
ENDROOT
BRANCH   1   4
ATOM      4  O   UNL     1     -11.751   6.821  -0.020  1.00  0.00    -0.371 OA
BRANCH   4   5
ATOM      5  C   UNL     1     -11.344   8.165   0.285  1.00  0.00     0.158 C 
ATOM      6  C   UNL     1     -14.278  10.687  -3.213  1.00  0.00    -0.003 C 
ATOM      7  C   UNL     1     -13.031   9.795  -3.264  1.00  0.00     0.052 C 
ATOM      8  C   UNL     1     -15.174  10.239  -2.050  1.00  0.00     0.019 C 
ATOM      9  C   UNL     1     -12.315   9.739  -1.908  1.00  0.00     0.189 C 
ATOM     10  C   UNL     1     -14.394  10.170  -0.738  1.00  0.00     0.087 C 
ATOM     11  N   UNL     1     -13.235   9.288  -0.863  1.00  0.00    -0.276 NA
ATOM     12  O   UNL     1     -11.207   8.850  -2.067  1.00  0.00    -0.360 OA
ATOM     13  C   UNL     1     -12.525   9.143   0.413  1.00  0.00     0.121 C 
ATOM     14  C   UNL     1     -10.459   8.666  -0.861  1.00  0.00     0.195 C 
BRANCH   6  15
ATOM     15  C   UNL     1     -15.041  10.648  -4.517  1.00  0.00    -0.008 C 
ATOM     16  C   UNL     1     -15.800  11.864  -4.994  1.00  0.00     0.004 C 
ATOM     17  C   UNL     1     -14.560  11.426  -5.718  1.00  0.00     0.004 C 
ENDBRANCH   6  15
ENDBRANCH   4   5
ENDBRANCH   1   4
BRANCH   3  18
ATOM     18  C   UNL     1      -9.487   3.770  -0.441  1.00  0.00     0.053 C 
BRANCH  18  19
ATOM     19  C   UNL     1      -9.135   3.149  -1.768  1.00  0.00     0.074 C 
BRANCH  19  20
ATOM     20  N   UNL     1      -9.956   2.550  -2.565  1.00  0.00    -0.313 NA
ATOM     21  H   UNL     1     -10.883   2.998  -2.563  1.00  0.00     0.186 HD
ENDBRANCH  19  20
ENDBRANCH  18  19
ENDBRANCH   3  18
TORSDOF 6
ENDMDL
MODEL 2
REMARK VINA RESULT:    -4.040      5.223      8.416
REMARK INTER + INTRA:          -5.508
REMARK INTER:                  -5.289
REMARK INTRA:                  -0.219
REMARK UNBOUND:                -0.169
REMARK SMILES [H]/N=C\C[C@H]1C[C@@H]1O[C@H]1CO[C@H]2C[C@@H](C3CC3)CCN2C1
REMARK SMILES IDX 7 1 6 2 5 3 8 4 9 5 14 6 13 7 18 8 12 9 19 10 20 11 11 12
REMARK SMILES IDX 21 13 10 14 15 15 16 16 17 17 4 18 3 19 2 20 1 21
REMARK H PARENT
ROOT
ATOM      1  C   UNL     1     -12.803   4.184   2.452  1.00  0.00     0.122 C 
ATOM      2  C   UNL     1     -14.187   3.934   1.921  1.00  0.00     0.039 C 
ATOM      3  C   UNL     1     -13.656   3.099   3.051  1.00  0.00     0.026 C 
ENDROOT
BRANCH   1   4
ATOM      4  O   UNL     1     -11.749   3.760   1.566  1.00  0.00    -0.371 OA
BRANCH   4   5
ATOM      5  C   UNL     1     -11.557   4.574   0.397  1.00  0.00     0.158 C 
ATOM      6  C   UNL     1      -6.342   4.615   0.321  1.00  0.00    -0.003 C 
ATOM      7  C   UNL     1      -7.433   5.253   1.189  1.00  0.00     0.052 C 
ATOM      8  C   UNL     1      -6.831   3.250  -0.186  1.00  0.00     0.019 C 
ATOM      9  C   UNL     1      -8.784   5.303   0.463  1.00  0.00     0.189 C 
ATOM     10  C   UNL     1      -8.194   3.363  -0.867  1.00  0.00     0.087 C 
ATOM     11  N   UNL     1      -9.181   3.963   0.031  1.00  0.00    -0.276 NA
ATOM     12  O   UNL     1      -9.721   5.870   1.381  1.00  0.00    -0.360 OA
ATOM     13  C   UNL     1     -10.515   3.998  -0.578  1.00  0.00     0.121 C 
ATOM     14  C   UNL     1     -11.048   5.946   0.851  1.00  0.00     0.195 C 
BRANCH   6  15
ATOM     15  C   UNL     1      -5.044   4.465   1.081  1.00  0.00    -0.008 C 
ATOM     16  C   UNL     1      -3.737   4.886   0.452  1.00  0.00     0.004 C 
ATOM     17  C   UNL     1      -4.304   5.676   1.595  1.00  0.00     0.004 C 
ENDBRANCH   6  15
ENDBRANCH   4   5
ENDBRANCH   1   4
BRANCH   3  18
ATOM     18  C   UNL     1     -14.244   3.270   4.420  1.00  0.00     0.053 C 
BRANCH  18  19
ATOM     19  C   UNL     1     -15.736   3.092   4.530  1.00  0.00     0.074 C 
BRANCH  19  20
ATOM     20  N   UNL     1     -16.345   2.012   4.889  1.00  0.00    -0.313 NA
ATOM     21  H   UNL     1     -16.136   1.229   4.254  1.00  0.00     0.186 HD
ENDBRANCH  19  20
ENDBRANCH  18  19
ENDBRANCH   3  18
TORSDOF 6
ENDMDL
MODEL 3
REMARK VINA RESULT:    -4.031      2.769      8.603
REMARK INTER + INTRA:          -5.496
REMARK INTER:                  -5.271
REMARK INTRA:                  -0.225
REMARK UNBOUND:                -0.169
REMARK SMILES [H]/N=C\C[C@H]1C[C@@H]1O[C@H]1CO[C@H]2C[C@@H](C3CC3)CCN2C1
REMARK SMILES IDX 7 1 6 2 5 3 8 4 9 5 14 6 13 7 18 8 12 9 19 10 20 11 11 12
REMARK SMILES IDX 21 13 10 14 15 15 16 16 17 17 4 18 3 19 2 20 1 21
REMARK H PARENT
ROOT
ATOM      1  C   UNL     1     -11.538   7.805  -0.627  1.00  0.00     0.122 C 
ATOM      2  C   UNL     1     -12.309   8.910   0.038  1.00  0.00     0.039 C 
ATOM      3  C   UNL     1     -11.460   9.208  -1.164  1.00  0.00     0.026 C 
ENDROOT
BRANCH   1   4
ATOM      4  O   UNL     1     -10.405   7.341   0.131  1.00  0.00    -0.371 OA
BRANCH   4   5
ATOM      5  C   UNL     1     -10.717   6.587   1.314  1.00  0.00     0.158 C 
ATOM      6  C   UNL     1      -6.970   2.976   0.953  1.00  0.00    -0.003 C 
ATOM      7  C   UNL     1      -8.275   3.283   0.208  1.00  0.00     0.052 C 
ATOM      8  C   UNL     1      -6.342   4.290   1.439  1.00  0.00     0.019 C 
ATOM      9  C   UNL     1      -9.219   4.155   1.047  1.00  0.00     0.189 C 
ATOM     10  C   UNL     1      -7.343   5.126   2.237  1.00  0.00     0.087 C 
ATOM     11  N   UNL     1      -8.548   5.390   1.452  1.00  0.00    -0.276 NA
ATOM     12  O   UNL     1     -10.368   4.410   0.236  1.00  0.00    -0.360 OA
ATOM     13  C   UNL     1      -9.481   6.264   2.172  1.00  0.00     0.121 C 
ATOM     14  C   UNL     1     -11.331   5.252   0.879  1.00  0.00     0.195 C 
BRANCH   6  15
ATOM     15  C   UNL     1      -5.999   2.215   0.080  1.00  0.00    -0.008 C 
ATOM     16  C   UNL     1      -5.315   0.973   0.602  1.00  0.00     0.004 C 
ATOM     17  C   UNL     1      -6.356   0.856  -0.472  1.00  0.00     0.004 C 
ENDBRANCH   6  15
ENDBRANCH   4   5
ENDBRANCH   1   4
BRANCH   3  18
ATOM     18  C   UNL     1     -12.130   9.560  -2.459  1.00  0.00     0.053 C 
BRANCH  18  19
ATOM     19  C   UNL     1     -13.079  10.730  -2.421  1.00  0.00     0.074 C 
BRANCH  19  20
ATOM     20  N   UNL     1     -12.824  11.925  -2.839  1.00  0.00    -0.313 NA
ATOM     21  H   UNL     1     -13.613  12.564  -2.665  1.00  0.00     0.186 HD
ENDBRANCH  19  20
ENDBRANCH  18  19
ENDBRANCH   3  18
TORSDOF 6
ENDMDL
MODEL 4
REMARK VINA RESULT:    -4.023      5.501      8.466
REMARK INTER + INTRA:          -5.485
REMARK INTER:                  -5.195
REMARK INTRA:                  -0.290
REMARK UNBOUND:                -0.169
REMARK SMILES [H]/N=C\C[C@H]1C[C@@H]1O[C@H]1CO[C@H]2C[C@@H](C3CC3)CCN2C1
REMARK SMILES IDX 7 1 6 2 5 3 8 4 9 5 14 6 13 7 18 8 12 9 19 10 20 11 11 12
REMARK SMILES IDX 21 13 10 14 15 15 16 16 17 17 4 18 3 19 2 20 1 21
REMARK H PARENT
ROOT
ATOM      1  C   UNL     1     -11.012   5.196   1.277  1.00  0.00     0.122 C 
ATOM      2  C   UNL     1     -10.636   6.628   1.018  1.00  0.00     0.039 C 
ATOM      3  C   UNL     1      -9.978   5.872   2.137  1.00  0.00     0.026 C 
ENDROOT
BRANCH   1   4
ATOM      4  O   UNL     1     -12.321   5.028   1.855  1.00  0.00    -0.371 OA
BRANCH   4   5
ATOM      5  C   UNL     1     -12.982   3.792   1.541  1.00  0.00     0.158 C 
ATOM      6  C   UNL     1     -16.641   3.897   5.257  1.00  0.00    -0.003 C 
ATOM      7  C   UNL     1     -15.125   3.667   5.214  1.00  0.00     0.052 C 
ATOM      8  C   UNL     1     -17.036   4.885   4.150  1.00  0.00     0.019 C 
ATOM      9  C   UNL     1     -14.650   3.259   3.813  1.00  0.00     0.189 C 
ATOM     10  C   UNL     1     -16.504   4.439   2.788  1.00  0.00     0.087 C 
ATOM     11  N   UNL     1     -15.052   4.261   2.826  1.00  0.00    -0.276 NA
ATOM     12  O   UNL     1     -13.230   3.120   3.888  1.00  0.00    -0.360 OA
ATOM     13  C   UNL     1     -14.516   3.917   1.504  1.00  0.00     0.121 C 
ATOM     14  C   UNL     1     -12.634   2.775   2.633  1.00  0.00     0.195 C 
BRANCH   6  15
ATOM     15  C   UNL     1     -17.086   4.409   6.608  1.00  0.00    -0.008 C 
ATOM     16  C   UNL     1     -18.236   3.750   7.333  1.00  0.00     0.004 C 
ATOM     17  C   UNL     1     -16.838   3.603   7.861  1.00  0.00     0.004 C 
ENDBRANCH   6  15
ENDBRANCH   4   5
ENDBRANCH   1   4
BRANCH   3  18
ATOM     18  C   UNL     1      -8.531   5.501   2.010  1.00  0.00     0.053 C 
BRANCH  18  19
ATOM     19  C   UNL     1      -7.634   5.920   3.146  1.00  0.00     0.074 C 
BRANCH  19  20
ATOM     20  N   UNL     1      -7.904   6.822   4.030  1.00  0.00    -0.313 NA
ATOM     21  H   UNL     1      -8.001   6.415   4.971  1.00  0.00     0.186 HD
ENDBRANCH  19  20
ENDBRANCH  18  19
ENDBRANCH   3  18
TORSDOF 6
ENDMDL
MODEL 5
REMARK VINA RESULT:    -3.969      2.006      7.214
REMARK INTER + INTRA:          -5.414
REMARK INTER:                  -5.258
REMARK INTRA:                  -0.156
REMARK UNBOUND:                -0.169
REMARK SMILES [H]/N=C\C[C@H]1C[C@@H]1O[C@H]1CO[C@H]2C[C@@H](C3CC3)CCN2C1
REMARK SMILES IDX 7 1 6 2 5 3 8 4 9 5 14 6 13 7 18 8 12 9 19 10 20 11 11 12
REMARK SMILES IDX 21 13 10 14 15 15 16 16 17 17 4 18 3 19 2 20 1 21
REMARK H PARENT
ROOT
ATOM      1  C   UNL     1     -13.597  10.007  -3.164  1.00  0.00     0.122 C 
ATOM      2  C   UNL     1     -13.458  10.031  -4.660  1.00  0.00     0.039 C 
ATOM      3  C   UNL     1     -14.687   9.438  -4.031  1.00  0.00     0.026 C 
ENDROOT
BRANCH   1   4
ATOM      4  O   UNL     1     -12.733   9.060  -2.509  1.00  0.00    -0.371 OA
BRANCH   4   5
ATOM      5  C   UNL     1     -12.048   9.548  -1.344  1.00  0.00     0.158 C 
ATOM      6  C   UNL     1     -11.865   5.103   1.379  1.00  0.00    -0.003 C 
ATOM      7  C   UNL     1     -12.955   6.110   0.992  1.00  0.00     0.052 C 
ATOM      8  C   UNL     1     -10.814   5.039   0.261  1.00  0.00     0.019 C 
ATOM      9  C   UNL     1     -12.363   7.474   0.612  1.00  0.00     0.189 C 
ATOM     10  C   UNL     1     -10.290   6.431  -0.093  1.00  0.00     0.087 C 
ATOM     11  N   UNL     1     -11.387   7.323  -0.467  1.00  0.00    -0.276 NA
ATOM     12  O   UNL     1     -13.461   8.304   0.230  1.00  0.00    -0.360 OA
ATOM     13  C   UNL     1     -10.892   8.637  -0.893  1.00  0.00     0.121 C 
ATOM     14  C   UNL     1     -13.055   9.611  -0.190  1.00  0.00     0.195 C 
BRANCH   6  15
ATOM     15  C   UNL     1     -12.445   3.731   1.641  1.00  0.00    -0.008 C 
ATOM     16  C   UNL     1     -12.906   3.350   3.028  1.00  0.00     0.004 C 
ATOM     17  C   UNL     1     -13.915   3.556   1.935  1.00  0.00     0.004 C 
ENDBRANCH   6  15
ENDBRANCH   4   5
ENDBRANCH   1   4
BRANCH   3  18
ATOM     18  C   UNL     1     -15.994  10.158  -4.172  1.00  0.00     0.053 C 
BRANCH  18  19
ATOM     19  C   UNL     1     -17.142   9.620  -3.358  1.00  0.00     0.074 C 
BRANCH  19  20
ATOM     20  N   UNL     1     -17.048   8.791  -2.372  1.00  0.00    -0.313 NA
ATOM     21  H   UNL     1     -16.492   7.962  -2.625  1.00  0.00     0.186 HD
ENDBRANCH  19  20
ENDBRANCH  18  19
ENDBRANCH   3  18
TORSDOF 6
ENDMDL
MODEL 6
REMARK VINA RESULT:    -3.946      4.725      7.601
REMARK INTER + INTRA:          -5.384
REMARK INTER:                  -5.160
REMARK INTRA:                  -0.224
REMARK UNBOUND:                -0.169
REMARK SMILES [H]/N=C\C[C@H]1C[C@@H]1O[C@H]1CO[C@H]2C[C@@H](C3CC3)CCN2C1
REMARK SMILES IDX 7 1 6 2 5 3 8 4 9 5 14 6 13 7 18 8 12 9 19 10 20 11 11 12
REMARK SMILES IDX 21 13 10 14 15 15 16 16 17 17 4 18 3 19 2 20 1 21
REMARK H PARENT
ROOT
ATOM      1  C   UNL     1     -15.532   3.871   5.323  1.00  0.00     0.122 C 
ATOM      2  C   UNL     1     -15.298   3.873   6.807  1.00  0.00     0.039 C 
ATOM      3  C   UNL     1     -15.912   5.072   6.145  1.00  0.00     0.026 C 
ENDROOT
BRANCH   1   4
ATOM      4  O   UNL     1     -14.328   3.981   4.539  1.00  0.00    -0.371 OA
BRANCH   4   5
ATOM      5  C   UNL     1     -14.306   3.210   3.327  1.00  0.00     0.158 C 
ATOM      6  C   UNL     1     -11.413   6.424   0.410  1.00  0.00    -0.003 C 
ATOM      7  C   UNL     1     -12.844   6.430   0.961  1.00  0.00     0.052 C 
ATOM      8  C   UNL     1     -10.492   5.693   1.397  1.00  0.00     0.019 C 
ATOM      9  C   UNL     1     -13.318   5.018   1.330  1.00  0.00     0.189 C 
ATOM     10  C   UNL     1     -11.038   4.309   1.749  1.00  0.00     0.087 C 
ATOM     11  N   UNL     1     -12.396   4.403   2.285  1.00  0.00    -0.276 NA
ATOM     12  O   UNL     1     -14.634   5.157   1.870  1.00  0.00    -0.360 OA
ATOM     13  C   UNL     1     -12.901   3.092   2.709  1.00  0.00     0.121 C 
ATOM     14  C   UNL     1     -15.198   3.914   2.299  1.00  0.00     0.195 C 
BRANCH   6  15
ATOM     15  C   UNL     1     -10.911   7.827   0.155  1.00  0.00    -0.008 C 
ATOM     16  C   UNL     1     -11.071   8.460  -1.207  1.00  0.00     0.004 C 
ATOM     17  C   UNL     1     -11.876   8.970  -0.047  1.00  0.00     0.004 C 
ENDBRANCH   6  15
ENDBRANCH   4   5
ENDBRANCH   1   4
BRANCH   3  18
ATOM     18  C   UNL     1     -17.356   5.386   6.402  1.00  0.00     0.053 C 
BRANCH  18  19
ATOM     19  C   UNL     1     -17.886   6.648   5.773  1.00  0.00     0.074 C 
BRANCH  19  20
ATOM     20  N   UNL     1     -17.375   7.260   4.757  1.00  0.00    -0.313 NA
ATOM     21  H   UNL     1     -17.748   6.898   3.869  1.00  0.00     0.186 HD
ENDBRANCH  19  20
ENDBRANCH  18  19
ENDBRANCH   3  18
TORSDOF 6
ENDMDL
MODEL 7
REMARK VINA RESULT:    -3.665      6.392      9.255
REMARK INTER + INTRA:          -5.012
REMARK INTER:                  -4.690
REMARK INTRA:                  -0.322
REMARK UNBOUND:                -0.169
REMARK SMILES [H]/N=C\C[C@H]1C[C@@H]1O[C@H]1CO[C@H]2C[C@@H](C3CC3)CCN2C1
REMARK SMILES IDX 7 1 6 2 5 3 8 4 9 5 14 6 13 7 18 8 12 9 19 10 20 11 11 12
REMARK SMILES IDX 21 13 10 14 15 15 16 16 17 17 4 18 3 19 2 20 1 21
REMARK H PARENT
ROOT
ATOM      1  C   UNL     1     -16.536   4.516   5.875  1.00  0.00     0.122 C 
ATOM      2  C   UNL     1     -15.876   5.432   6.867  1.00  0.00     0.039 C 
ATOM      3  C   UNL     1     -17.279   4.956   7.107  1.00  0.00     0.026 C 
ENDROOT
BRANCH   1   4
ATOM      4  O   UNL     1     -16.903   5.156   4.638  1.00  0.00    -0.371 OA
BRANCH   4   5
ATOM      5  C   UNL     1     -17.176   4.271   3.540  1.00  0.00     0.158 C 
ATOM      6  C   UNL     1     -12.417   4.174   1.409  1.00  0.00    -0.003 C 
ATOM      7  C   UNL     1     -13.554   5.197   1.509  1.00  0.00     0.052 C 
ATOM      8  C   UNL     1     -12.409   3.299   2.670  1.00  0.00     0.019 C 
ATOM      9  C   UNL     1     -14.900   4.525   1.813  1.00  0.00     0.189 C 
ATOM     10  C   UNL     1     -13.785   2.688   2.935  1.00  0.00     0.087 C 
ATOM     11  N   UNL     1     -14.808   3.728   3.036  1.00  0.00    -0.276 NA
ATOM     12  O   UNL     1     -15.864   5.574   1.927  1.00  0.00    -0.360 OA
ATOM     13  C   UNL     1     -16.120   3.164   3.376  1.00  0.00     0.121 C 
ATOM     14  C   UNL     1     -17.174   5.097   2.250  1.00  0.00     0.195 C 
BRANCH   6  15
ATOM     15  C   UNL     1     -11.077   4.850   1.224  1.00  0.00    -0.008 C 
ATOM     16  C   UNL     1     -10.276   4.626  -0.037  1.00  0.00     0.004 C 
ATOM     17  C   UNL     1     -10.905   5.964   0.220  1.00  0.00     0.004 C 
ENDBRANCH   6  15
ENDBRANCH   4   5
ENDBRANCH   1   4
BRANCH   3  18
ATOM     18  C   UNL     1     -17.536   3.986   8.221  1.00  0.00     0.053 C 
BRANCH  18  19
ATOM     19  C   UNL     1     -18.187   4.548   9.458  1.00  0.00     0.074 C 
BRANCH  19  20
ATOM     20  N   UNL     1     -17.680   4.549  10.646  1.00  0.00    -0.313 NA
ATOM     21  H   UNL     1     -18.396   4.366  11.364  1.00  0.00     0.186 HD
ENDBRANCH  19  20
ENDBRANCH  18  19
ENDBRANCH   3  18
TORSDOF 6
ENDMDL
MODEL 8
REMARK VINA RESULT:    -3.641      2.527      7.395
REMARK INTER + INTRA:          -4.981
REMARK INTER:                  -4.655
REMARK INTRA:                  -0.325
REMARK UNBOUND:                -0.169
REMARK SMILES [H]/N=C\C[C@H]1C[C@@H]1O[C@H]1CO[C@H]2C[C@@H](C3CC3)CCN2C1
REMARK SMILES IDX 7 1 6 2 5 3 8 4 9 5 14 6 13 7 18 8 12 9 19 10 20 11 11 12
REMARK SMILES IDX 21 13 10 14 15 15 16 16 17 17 4 18 3 19 2 20 1 21
REMARK H PARENT
ROOT
ATOM      1  C   UNL     1     -14.819  10.242  -3.628  1.00  0.00     0.122 C 
ATOM      2  C   UNL     1     -15.052   9.171  -4.655  1.00  0.00     0.039 C 
ATOM      3  C   UNL     1     -15.775  10.483  -4.764  1.00  0.00     0.026 C 
ENDROOT
BRANCH   1   4
ATOM      4  O   UNL     1     -15.404   9.960  -2.342  1.00  0.00    -0.371 OA
BRANCH   4   5
ATOM      5  C   UNL     1     -14.898  10.740  -1.246  1.00  0.00     0.158 C 
ATOM      6  C   UNL     1     -11.158   7.486   0.373  1.00  0.00    -0.003 C 
ATOM      7  C   UNL     1     -12.690   7.508   0.421  1.00  0.00     0.052 C 
ATOM      8  C   UNL     1     -10.680   8.187  -0.907  1.00  0.00     0.019 C 
ATOM      9  C   UNL     1     -13.245   8.927   0.240  1.00  0.00     0.189 C 
ATOM     10  C   UNL     1     -11.294   9.579  -1.043  1.00  0.00     0.087 C 
ATOM     11  N   UNL     1     -12.755   9.513  -1.007  1.00  0.00    -0.276 NA
ATOM     12  O   UNL     1     -14.670   8.814   0.256  1.00  0.00    -0.360 OA
ATOM     13  C   UNL     1     -13.362  10.831  -1.225  1.00  0.00     0.121 C 
ATOM     14  C   UNL     1     -15.333  10.066   0.059  1.00  0.00     0.195 C 
BRANCH   6  15
ATOM     15  C   UNL     1     -10.621   6.073   0.436  1.00  0.00    -0.008 C 
ATOM     16  C   UNL     1      -9.745   5.640   1.588  1.00  0.00     0.004 C 
ATOM     17  C   UNL     1     -11.138   5.095   1.463  1.00  0.00     0.004 C 
ENDBRANCH   6  15
ENDBRANCH   4   5
ENDBRANCH   1   4
BRANCH   3  18
ATOM     18  C   UNL     1     -15.410  11.424  -5.872  1.00  0.00     0.053 C 
BRANCH  18  19
ATOM     19  C   UNL     1     -16.364  11.483  -7.037  1.00  0.00     0.074 C 
BRANCH  19  20
ATOM     20  N   UNL     1     -16.095  11.142  -8.254  1.00  0.00    -0.313 NA
ATOM     21  H   UNL     1     -15.460  11.815  -8.706  1.00  0.00     0.186 HD
ENDBRANCH  19  20
ENDBRANCH  18  19
ENDBRANCH   3  18
TORSDOF 6
ENDMDL
MODEL 9
REMARK VINA RESULT:    -3.400      1.994      2.346
REMARK INTER + INTRA:          -4.662
REMARK INTER:                  -4.679
REMARK INTRA:                   0.017
REMARK UNBOUND:                -0.169
REMARK SMILES [H]/N=C\C[C@H]1C[C@@H]1O[C@H]1CO[C@H]2C[C@@H](C3CC3)CCN2C1
REMARK SMILES IDX 7 1 6 2 5 3 8 4 9 5 14 6 13 7 18 8 12 9 19 10 20 11 11 12
REMARK SMILES IDX 21 13 10 14 15 15 16 16 17 17 4 18 3 19 2 20 1 21
REMARK H PARENT
ROOT
ATOM      1  C   UNL     1     -11.208   5.568   0.293  1.00  0.00     0.122 C 
ATOM      2  C   UNL     1     -10.688   5.843   1.676  1.00  0.00     0.039 C 
ATOM      3  C   UNL     1     -11.939   5.031   1.494  1.00  0.00     0.026 C 
ENDROOT
BRANCH   1   4
ATOM      4  O   UNL     1     -11.789   6.716  -0.354  1.00  0.00    -0.371 OA
BRANCH   4   5
ATOM      5  C   UNL     1     -11.328   7.993   0.117  1.00  0.00     0.158 C 
ATOM      6  C   UNL     1     -14.247  11.055  -2.935  1.00  0.00    -0.003 C 
ATOM      7  C   UNL     1     -13.033  10.139  -3.137  1.00  0.00     0.052 C 
ATOM      8  C   UNL     1     -15.134  10.483  -1.819  1.00  0.00     0.019 C 
ATOM      9  C   UNL     1     -12.291   9.878  -1.819  1.00  0.00     0.189 C 
ATOM     10  C   UNL     1     -14.329  10.214  -0.548  1.00  0.00     0.087 C 
ATOM     11  N   UNL     1     -13.203   9.320  -0.821  1.00  0.00    -0.276 NA
ATOM     12  O   UNL     1     -11.219   8.984  -2.125  1.00  0.00    -0.360 OA
ATOM     13  C   UNL     1     -12.472   8.982   0.405  1.00  0.00     0.121 C 
ATOM     14  C   UNL     1     -10.452   8.615  -0.974  1.00  0.00     0.195 C 
BRANCH   6  15
ATOM     15  C   UNL     1     -15.039  11.216  -4.212  1.00  0.00    -0.008 C 
ATOM     16  C   UNL     1     -15.177  12.574  -4.859  1.00  0.00     0.004 C 
ATOM     17  C   UNL     1     -14.346  11.513  -5.520  1.00  0.00     0.004 C 
ENDBRANCH   6  15
ENDBRANCH   4   5
ENDBRANCH   1   4
BRANCH   3  18
ATOM     18  C   UNL     1     -11.904   3.565   1.805  1.00  0.00     0.053 C 
BRANCH  18  19
ATOM     19  C   UNL     1     -12.999   3.049   2.702  1.00  0.00     0.074 C 
BRANCH  19  20
ATOM     20  N   UNL     1     -13.253   3.458   3.900  1.00  0.00    -0.313 NA
ATOM     21  H   UNL     1     -12.464   3.280   4.538  1.00  0.00     0.186 HD
ENDBRANCH  19  20
ENDBRANCH  18  19
ENDBRANCH   3  18
TORSDOF 6
ENDMDL
