MODEL 1
REMARK VINA RESULT:    -3.760      0.000      0.000
REMARK INTER + INTRA:          -5.167
REMARK INTER:                  -4.970
REMARK INTRA:                  -0.198
REMARK UNBOUND:                -0.198
REMARK SMILES [H]/N=C\C[C@H]1C[C@@H]1O[C@H]1CO[C@H]2C[C@@H](C3CC3)CCN2C1
REMARK SMILES IDX 7 1 6 2 5 3 8 4 9 5 14 6 13 7 18 8 12 9 19 10 20 11 11 12
REMARK SMILES IDX 21 13 10 14 15 15 16 16 17 17 4 18 3 19 2 20 1 21
REMARK H PARENT
ROOT
ATOM      1  C   UNL     1     -13.492   1.806 -15.153  1.00  0.00     0.122 C 
ATOM      2  C   UNL     1     -13.164   0.656 -16.063  1.00  0.00     0.039 C 
ATOM      3  C   UNL     1     -14.425   0.630 -15.247  1.00  0.00     0.026 C 
ENDROOT
BRANCH   1   4
ATOM      4  O   UNL     1     -12.664   1.880 -13.978  1.00  0.00    -0.371 OA
BRANCH   4   5
ATOM      5  C   UNL     1     -11.974   3.125 -13.783  1.00  0.00     0.158 C 
ATOM      6  C   UNL     1      -9.299   1.874  -9.483  1.00  0.00    -0.003 C 
ATOM      7  C   UNL     1     -10.766   2.173  -9.816  1.00  0.00     0.052 C 
ATOM      8  C   UNL     1      -8.631   1.202 -10.691  1.00  0.00     0.019 C 
ATOM      9  C   UNL     1     -10.904   2.960 -11.126  1.00  0.00     0.189 C 
ATOM     10  C   UNL     1      -8.835   2.017 -11.968  1.00  0.00     0.087 C 
ATOM     11  N   UNL     1     -10.257   2.242 -12.224  1.00  0.00    -0.276 NA
ATOM     12  O   UNL     1     -12.304   3.136 -11.352  1.00  0.00    -0.360 OA
ATOM     13  C   UNL     1     -10.473   2.948 -13.492  1.00  0.00     0.121 C 
ATOM     14  C   UNL     1     -12.593   3.828 -12.570  1.00  0.00     0.195 C 
BRANCH   6  15
ATOM     15  C   UNL     1      -9.175   1.002  -8.254  1.00  0.00    -0.008 C 
ATOM     16  C   UNL     1      -8.940   1.623  -6.898  1.00  0.00     0.004 C 
ATOM     17  C   UNL     1     -10.262   0.983  -7.207  1.00  0.00     0.004 C 
ENDBRANCH   6  15
ENDBRANCH   4   5
ENDBRANCH   1   4
BRANCH   3  18
ATOM     18  C   UNL     1     -15.745   0.766 -15.945  1.00  0.00     0.053 C 
BRANCH  18  19
ATOM     19  C   UNL     1     -16.970   0.485 -15.114  1.00  0.00     0.074 C 
BRANCH  19  20
ATOM     20  N   UNL     1     -17.022   0.467 -13.824  1.00  0.00    -0.313 NA
ATOM     21  H   UNL     1     -17.234   1.398 -13.440  1.00  0.00     0.186 HD
ENDBRANCH  19  20
ENDBRANCH  18  19
ENDBRANCH   3  18
TORSDOF 6
ENDMDL
MODEL 2
REMARK VINA RESULT:    -3.545      1.882      2.132
REMARK INTER + INTRA:          -4.882
REMARK INTER:                  -4.427
REMARK INTRA:                  -0.455
REMARK UNBOUND:                -0.198
REMARK SMILES [H]/N=C\C[C@H]1C[C@@H]1O[C@H]1CO[C@H]2C[C@@H](C3CC3)CCN2C1
REMARK SMILES IDX 7 1 6 2 5 3 8 4 9 5 14 6 13 7 18 8 12 9 19 10 20 11 11 12
REMARK SMILES IDX 21 13 10 14 15 15 16 16 17 17 4 18 3 19 2 20 1 21
REMARK H PARENT
ROOT
ATOM      1  C   UNL     1     -14.411   2.876 -13.988  1.00  0.00     0.122 C 
ATOM      2  C   UNL     1     -15.376   1.888 -14.580  1.00  0.00     0.039 C 
ATOM      3  C   UNL     1     -15.220   1.982 -13.089  1.00  0.00     0.026 C 
ENDROOT
BRANCH   1   4
ATOM      4  O   UNL     1     -13.026   2.525 -14.170  1.00  0.00    -0.371 OA
BRANCH   4   5
ATOM      5  C   UNL     1     -12.095   3.617 -14.095  1.00  0.00     0.158 C 
ATOM      6  C   UNL     1      -9.306   1.988  -9.999  1.00  0.00    -0.003 C 
ATOM      7  C   UNL     1     -10.714   2.558 -10.213  1.00  0.00     0.052 C 
ATOM      8  C   UNL     1      -8.900   1.165 -11.229  1.00  0.00     0.019 C 
ATOM      9  C   UNL     1     -10.825   3.320 -11.540  1.00  0.00     0.189 C 
ATOM     10  C   UNL     1      -9.066   1.969 -12.519  1.00  0.00     0.087 C 
ATOM     11  N   UNL     1     -10.437   2.459 -12.657  1.00  0.00    -0.276 NA
ATOM     12  O   UNL     1     -12.181   3.759 -11.647  1.00  0.00    -0.360 OA
ATOM     13  C   UNL     1     -10.635   3.159 -13.932  1.00  0.00     0.121 C 
ATOM     14  C   UNL     1     -12.448   4.460 -12.865  1.00  0.00     0.195 C 
BRANCH   6  15
ATOM     15  C   UNL     1      -9.234   1.143  -8.747  1.00  0.00    -0.008 C 
ATOM     16  C   UNL     1      -9.108   1.796  -7.391  1.00  0.00     0.004 C 
ATOM     17  C   UNL     1     -10.385   1.105  -7.772  1.00  0.00     0.004 C 
ENDBRANCH   6  15
ENDBRANCH   4   5
ENDBRANCH   1   4
BRANCH   3  18
ATOM     18  C   UNL     1     -16.345   2.548 -12.275  1.00  0.00     0.053 C 
BRANCH  18  19
ATOM     19  C   UNL     1     -15.994   3.013 -10.886  1.00  0.00     0.074 C 
BRANCH  19  20
ATOM     20  N   UNL     1     -14.836   3.433 -10.498  1.00  0.00    -0.313 NA
ATOM     21  H   UNL     1     -14.888   3.896  -9.580  1.00  0.00     0.186 HD
ENDBRANCH  19  20
ENDBRANCH  18  19
ENDBRANCH   3  18
TORSDOF 6
ENDMDL
MODEL 3
REMARK VINA RESULT:    -3.461      2.654      3.717
REMARK INTER + INTRA:          -4.771
REMARK INTER:                  -4.082
REMARK INTRA:                  -0.689
REMARK UNBOUND:                -0.198
REMARK SMILES [H]/N=C\C[C@H]1C[C@@H]1O[C@H]1CO[C@H]2C[C@@H](C3CC3)CCN2C1
REMARK SMILES IDX 7 1 6 2 5 3 8 4 9 5 14 6 13 7 18 8 12 9 19 10 20 11 11 12
REMARK SMILES IDX 21 13 10 14 15 15 16 16 17 17 4 18 3 19 2 20 1 21
REMARK H PARENT
ROOT
ATOM      1  C   UNL     1     -15.714   3.728 -14.233  1.00  0.00     0.122 C 
ATOM      2  C   UNL     1     -16.929   2.854 -14.368  1.00  0.00     0.039 C 
ATOM      3  C   UNL     1     -15.872   2.516 -13.356  1.00  0.00     0.026 C 
ENDROOT
BRANCH   1   4
ATOM      4  O   UNL     1     -14.785   3.614 -15.328  1.00  0.00    -0.371 OA
BRANCH   4   5
ATOM      5  C   UNL     1     -13.879   4.719 -15.489  1.00  0.00     0.158 C 
ATOM      6  C   UNL     1      -9.764   2.731 -12.975  1.00  0.00    -0.003 C 
ATOM      7  C   UNL     1     -11.139   3.278 -12.571  1.00  0.00     0.052 C 
ATOM      8  C   UNL     1      -9.869   2.062 -14.352  1.00  0.00     0.019 C 
ATOM      9  C   UNL     1     -11.736   4.179 -13.661  1.00  0.00     0.189 C 
ATOM     10  C   UNL     1     -10.503   2.998 -15.382  1.00  0.00     0.087 C 
ATOM     11  N   UNL     1     -11.816   3.459 -14.932  1.00  0.00    -0.276 NA
ATOM     12  O   UNL     1     -13.023   4.587 -13.193  1.00  0.00    -0.360 OA
ATOM     13  C   UNL     1     -12.474   4.289 -15.947  1.00  0.00     0.121 C 
ATOM     14  C   UNL     1     -13.725   5.410 -14.130  1.00  0.00     0.195 C 
BRANCH   6  15
ATOM     15  C   UNL     1      -9.232   1.756 -11.950  1.00  0.00    -0.008 C 
ATOM     16  C   UNL     1      -7.958   2.058 -11.197  1.00  0.00     0.004 C 
ATOM     17  C   UNL     1      -9.275   2.081 -10.477  1.00  0.00     0.004 C 
ENDBRANCH   6  15
ENDBRANCH   4   5
ENDBRANCH   1   4
BRANCH   3  18
ATOM     18  C   UNL     1     -16.185   2.674 -11.898  1.00  0.00     0.053 C 
BRANCH  18  19
ATOM     19  C   UNL     1     -15.006   2.673 -10.960  1.00  0.00     0.074 C 
BRANCH  19  20
ATOM     20  N   UNL     1     -14.180   3.649 -10.781  1.00  0.00    -0.313 NA
ATOM     21  H   UNL     1     -14.601   4.554 -11.037  1.00  0.00     0.186 HD
ENDBRANCH  19  20
ENDBRANCH  18  19
ENDBRANCH   3  18
TORSDOF 6
ENDMDL
MODEL 4
REMARK VINA RESULT:    -3.339      4.352      5.805
REMARK INTER + INTRA:          -4.610
REMARK INTER:                  -4.480
REMARK INTRA:                  -0.130
REMARK UNBOUND:                -0.198
REMARK SMILES [H]/N=C\C[C@H]1C[C@@H]1O[C@H]1CO[C@H]2C[C@@H](C3CC3)CCN2C1
REMARK SMILES IDX 7 1 6 2 5 3 8 4 9 5 14 6 13 7 18 8 12 9 19 10 20 11 11 12
REMARK SMILES IDX 21 13 10 14 15 15 16 16 17 17 4 18 3 19 2 20 1 21
REMARK H PARENT
ROOT
ATOM      1  C   UNL     1     -17.353   2.857  -9.568  1.00  0.00     0.122 C 
ATOM      2  C   UNL     1     -17.395   4.305  -9.968  1.00  0.00     0.039 C 
ATOM      3  C   UNL     1     -16.471   3.358 -10.679  1.00  0.00     0.026 C 
ENDROOT
BRANCH   1   4
ATOM      4  O   UNL     1     -16.716   2.617  -8.298  1.00  0.00    -0.371 OA
BRANCH   4   5
ATOM      5  C   UNL     1     -16.822   1.275  -7.796  1.00  0.00     0.158 C 
ATOM      6  C   UNL     1     -11.824   0.525  -6.509  1.00  0.00    -0.003 C 
ATOM      7  C   UNL     1     -12.618   0.623  -7.817  1.00  0.00     0.052 C 
ATOM      8  C   UNL     1     -12.473   1.429  -5.452  1.00  0.00     0.019 C 
ATOM      9  C   UNL     1     -14.113   0.354  -7.597  1.00  0.00     0.189 C 
ATOM     10  C   UNL     1     -13.966   1.134  -5.306  1.00  0.00     0.087 C 
ATOM     11  N   UNL     1     -14.654   1.267  -6.590  1.00  0.00    -0.276 NA
ATOM     12  O   UNL     1     -14.748   0.518  -8.867  1.00  0.00    -0.360 OA
ATOM     13  C   UNL     1     -16.101   1.073  -6.451  1.00  0.00     0.121 C 
ATOM     14  C   UNL     1     -16.166   0.334  -8.811  1.00  0.00     0.195 C 
BRANCH   6  15
ATOM     15  C   UNL     1     -10.373   0.902  -6.711  1.00  0.00    -0.008 C 
ATOM     16  C   UNL     1      -9.392  -0.104  -7.265  1.00  0.00     0.004 C 
ATOM     17  C   UNL     1      -9.805   1.074  -8.099  1.00  0.00     0.004 C 
ENDBRANCH   6  15
ENDBRANCH   4   5
ENDBRANCH   1   4
BRANCH   3  18
ATOM     18  C   UNL     1     -16.765   2.987 -12.102  1.00  0.00     0.053 C 
BRANCH  18  19
ATOM     19  C   UNL     1     -15.607   2.455 -12.905  1.00  0.00     0.074 C 
BRANCH  19  20
ATOM     20  N   UNL     1     -14.625   1.754 -12.445  1.00  0.00    -0.313 NA
ATOM     21  H   UNL     1     -13.849   1.697 -13.120  1.00  0.00     0.186 HD
ENDBRANCH  19  20
ENDBRANCH  18  19
ENDBRANCH   3  18
TORSDOF 6
ENDMDL
MODEL 5
REMARK VINA RESULT:    -3.212      3.813      6.215
REMARK INTER + INTRA:          -4.443
REMARK INTER:                  -3.777
REMARK INTRA:                  -0.666
REMARK UNBOUND:                -0.198
REMARK SMILES [H]/N=C\C[C@H]1C[C@@H]1O[C@H]1CO[C@H]2C[C@@H](C3CC3)CCN2C1
REMARK SMILES IDX 7 1 6 2 5 3 8 4 9 5 14 6 13 7 18 8 12 9 19 10 20 11 11 12
REMARK SMILES IDX 21 13 10 14 15 15 16 16 17 17 4 18 3 19 2 20 1 21
REMARK H PARENT
ROOT
ATOM      1  C   UNL     1     -12.537   5.478 -12.837  1.00  0.00     0.122 C 
ATOM      2  C   UNL     1     -11.693   6.603 -12.308  1.00  0.00     0.039 C 
ATOM      3  C   UNL     1     -11.701   5.277 -11.603  1.00  0.00     0.026 C 
ENDROOT
BRANCH   1   4
ATOM      4  O   UNL     1     -13.951   5.660 -12.636  1.00  0.00    -0.371 OA
BRANCH   4   5
ATOM      5  C   UNL     1     -14.803   4.823 -13.435  1.00  0.00     0.158 C 
ATOM      6  C   UNL     1     -16.454   1.585  -9.694  1.00  0.00    -0.003 C 
ATOM      7  C   UNL     1     -15.139   1.811 -10.450  1.00  0.00     0.052 C 
ATOM      8  C   UNL     1     -17.189   2.925  -9.545  1.00  0.00     0.019 C 
ATOM      9  C   UNL     1     -15.363   2.552 -11.775  1.00  0.00     0.189 C 
ATOM     10  C   UNL     1     -17.349   3.627 -10.893  1.00  0.00     0.087 C 
ATOM     11  N   UNL     1     -16.052   3.821 -11.540  1.00  0.00    -0.276 NA
ATOM     12  O   UNL     1     -14.073   2.743 -12.360  1.00  0.00    -0.360 OA
ATOM     13  C   UNL     1     -16.180   4.571 -12.794  1.00  0.00     0.121 C 
ATOM     14  C   UNL     1     -14.119   3.462 -13.596  1.00  0.00     0.195 C 
BRANCH   6  15
ATOM     15  C   UNL     1     -16.215   0.958  -8.340  1.00  0.00    -0.008 C 
ATOM     16  C   UNL     1     -16.601  -0.480  -8.085  1.00  0.00     0.004 C 
ATOM     17  C   UNL     1     -15.151  -0.097  -8.153  1.00  0.00     0.004 C 
ENDBRANCH   6  15
ENDBRANCH   4   5
ENDBRANCH   1   4
BRANCH   3  18
ATOM     18  C   UNL     1     -10.472   4.420 -11.653  1.00  0.00     0.053 C 
BRANCH  18  19
ATOM     19  C   UNL     1     -10.627   3.004 -11.164  1.00  0.00     0.074 C 
BRANCH  19  20
ATOM     20  N   UNL     1     -11.681   2.505 -10.609  1.00  0.00    -0.313 NA
ATOM     21  H   UNL     1     -11.450   1.702 -10.008  1.00  0.00     0.186 HD
ENDBRANCH  19  20
ENDBRANCH  18  19
ENDBRANCH   3  18
TORSDOF 6
ENDMDL
MODEL 6
REMARK VINA RESULT:    -3.144      2.248      7.314
REMARK INTER + INTRA:          -4.353
REMARK INTER:                  -4.123
REMARK INTRA:                  -0.230
REMARK UNBOUND:                -0.198
REMARK SMILES [H]/N=C\C[C@H]1C[C@@H]1O[C@H]1CO[C@H]2C[C@@H](C3CC3)CCN2C1
REMARK SMILES IDX 7 1 6 2 5 3 8 4 9 5 14 6 13 7 18 8 12 9 19 10 20 11 11 12
REMARK SMILES IDX 21 13 10 14 15 15 16 16 17 17 4 18 3 19 2 20 1 21
REMARK H PARENT
ROOT
ATOM      1  C   UNL     1      -8.939   1.652 -11.963  1.00  0.00     0.122 C 
ATOM      2  C   UNL     1      -7.833   2.406 -11.278  1.00  0.00     0.039 C 
ATOM      3  C   UNL     1      -9.103   2.100 -10.536  1.00  0.00     0.026 C 
ENDROOT
BRANCH   1   4
ATOM      4  O   UNL     1      -9.638   2.417 -12.963  1.00  0.00    -0.371 OA
BRANCH   4   5
ATOM      5  C   UNL     1      -9.492   1.950 -14.314  1.00  0.00     0.158 C 
ATOM      6  C   UNL     1     -14.437   2.513 -15.875  1.00  0.00    -0.003 C 
ATOM      7  C   UNL     1     -13.682   1.558 -14.942  1.00  0.00     0.052 C 
ATOM      8  C   UNL     1     -13.775   3.897 -15.829  1.00  0.00     0.019 C 
ATOM      9  C   UNL     1     -12.177   1.542 -15.240  1.00  0.00     0.189 C 
ATOM     10  C   UNL     1     -12.274   3.807 -16.100  1.00  0.00     0.087 C 
ATOM     11  N   UNL     1     -11.626   2.895 -15.158  1.00  0.00    -0.276 NA
ATOM     12  O   UNL     1     -11.581   0.662 -14.286  1.00  0.00    -0.360 OA
ATOM     13  C   UNL     1     -10.171   2.865 -15.349  1.00  0.00     0.121 C 
ATOM     14  C   UNL     1     -10.158   0.573 -14.417  1.00  0.00     0.195 C 
BRANCH   6  15
ATOM     15  C   UNL     1     -15.900   2.611 -15.504  1.00  0.00    -0.008 C 
ATOM     16  C   UNL     1     -16.905   1.656 -16.102  1.00  0.00     0.004 C 
ATOM     17  C   UNL     1     -16.552   1.553 -14.646  1.00  0.00     0.004 C 
ENDBRANCH   6  15
ENDBRANCH   4   5
ENDBRANCH   1   4
BRANCH   3  18
ATOM     18  C   UNL     1      -9.069   1.099  -9.421  1.00  0.00     0.053 C 
BRANCH  18  19
ATOM     19  C   UNL     1      -9.611   1.561  -8.093  1.00  0.00     0.074 C 
BRANCH  19  20
ATOM     20  N   UNL     1      -8.984   1.521  -6.965  1.00  0.00    -0.313 NA
ATOM     21  H   UNL     1      -8.417   0.666  -6.875  1.00  0.00     0.186 HD
ENDBRANCH  19  20
ENDBRANCH  18  19
ENDBRANCH   3  18
TORSDOF 6
ENDMDL
MODEL 7
REMARK VINA RESULT:    -3.128      3.042      6.183
REMARK INTER + INTRA:          -4.331
REMARK INTER:                  -4.474
REMARK INTRA:                   0.143
REMARK UNBOUND:                -0.198
REMARK SMILES [H]/N=C\C[C@H]1C[C@@H]1O[C@H]1CO[C@H]2C[C@@H](C3CC3)CCN2C1
REMARK SMILES IDX 7 1 6 2 5 3 8 4 9 5 14 6 13 7 18 8 12 9 19 10 20 11 11 12
REMARK SMILES IDX 21 13 10 14 15 15 16 16 17 17 4 18 3 19 2 20 1 21
REMARK H PARENT
ROOT
ATOM      1  C   UNL     1     -10.132   2.344 -13.412  1.00  0.00     0.122 C 
ATOM      2  C   UNL     1      -8.755   1.749 -13.319  1.00  0.00     0.039 C 
ATOM      3  C   UNL     1      -9.915   0.892 -13.738  1.00  0.00     0.026 C 
ENDROOT
BRANCH   1   4
ATOM      4  O   UNL     1     -10.732   2.636 -12.135  1.00  0.00    -0.371 OA
BRANCH   4   5
ATOM      5  C   UNL     1     -11.439   3.884 -12.054  1.00  0.00     0.158 C 
ATOM      6  C   UNL     1     -16.141   2.224 -13.583  1.00  0.00    -0.003 C 
ATOM      7  C   UNL     1     -14.788   2.469 -14.262  1.00  0.00     0.052 C 
ATOM      8  C   UNL     1     -15.907   1.771 -12.135  1.00  0.00     0.019 C 
ATOM      9  C   UNL     1     -13.904   3.421 -13.445  1.00  0.00     0.189 C 
ATOM     10  C   UNL     1     -14.992   2.742 -11.387  1.00  0.00     0.087 C 
ATOM     11  N   UNL     1     -13.719   2.906 -12.088  1.00  0.00    -0.276 NA
ATOM     12  O   UNL     1     -12.666   3.534 -14.149  1.00  0.00    -0.360 OA
ATOM     13  C   UNL     1     -12.797   3.767 -11.339  1.00  0.00     0.121 C 
ATOM     14  C   UNL     1     -11.716   4.369 -13.481  1.00  0.00     0.195 C 
BRANCH   6  15
ATOM     15  C   UNL     1     -16.961   1.199 -14.333  1.00  0.00    -0.008 C 
ATOM     16  C   UNL     1     -17.394   1.460 -15.756  1.00  0.00     0.004 C 
ATOM     17  C   UNL     1     -16.360   0.410 -15.471  1.00  0.00     0.004 C 
ENDBRANCH   6  15
ENDBRANCH   4   5
ENDBRANCH   1   4
BRANCH   3  18
ATOM     18  C   UNL     1      -9.991   0.417 -15.158  1.00  0.00     0.053 C 
BRANCH  18  19
ATOM     19  C   UNL     1     -11.256  -0.301 -15.553  1.00  0.00     0.074 C 
BRANCH  19  20
ATOM     20  N   UNL     1     -12.217  -0.635 -14.757  1.00  0.00    -0.313 NA
ATOM     21  H   UNL     1     -11.875  -1.196 -13.964  1.00  0.00     0.186 HD
ENDBRANCH  19  20
ENDBRANCH  18  19
ENDBRANCH   3  18
TORSDOF 6
ENDMDL
MODEL 8
REMARK VINA RESULT:    -3.104      6.556      7.765
REMARK INTER + INTRA:          -4.300
REMARK INTER:                  -4.558
REMARK INTRA:                   0.259
REMARK UNBOUND:                -0.198
REMARK SMILES [H]/N=C\C[C@H]1C[C@@H]1O[C@H]1CO[C@H]2C[C@@H](C3CC3)CCN2C1
REMARK SMILES IDX 7 1 6 2 5 3 8 4 9 5 14 6 13 7 18 8 12 9 19 10 20 11 11 12
REMARK SMILES IDX 21 13 10 14 15 15 16 16 17 17 4 18 3 19 2 20 1 21
REMARK H PARENT
ROOT
ATOM      1  C   UNL     1     -12.393   0.675  -6.345  1.00  0.00     0.122 C 
ATOM      2  C   UNL     1     -12.922  -0.430  -5.476  1.00  0.00     0.039 C 
ATOM      3  C   UNL     1     -13.325   0.991  -5.207  1.00  0.00     0.026 C 
ENDROOT
BRANCH   1   4
ATOM      4  O   UNL     1     -10.999   0.970  -6.137  1.00  0.00    -0.371 OA
BRANCH   4   5
ATOM      5  C   UNL     1     -10.222   1.167  -7.330  1.00  0.00     0.158 C 
ATOM      6  C   UNL     1      -5.775  -1.049  -5.745  1.00  0.00    -0.003 C 
ATOM      7  C   UNL     1      -6.528   0.249  -5.430  1.00  0.00     0.052 C 
ATOM      8  C   UNL     1      -6.786  -2.156  -6.072  1.00  0.00     0.019 C 
ATOM      9  C   UNL     1      -7.520   0.617  -6.542  1.00  0.00     0.189 C 
ATOM     10  C   UNL     1      -7.764  -1.715  -7.161  1.00  0.00     0.087 C 
ATOM     11  N   UNL     1      -8.455  -0.484  -6.777  1.00  0.00    -0.276 NA
ATOM     12  O   UNL     1      -8.188   1.806  -6.117  1.00  0.00    -0.360 OA
ATOM     13  C   UNL     1      -9.460  -0.094  -7.772  1.00  0.00     0.121 C 
ATOM     14  C   UNL     1      -9.180   2.254  -7.046  1.00  0.00     0.195 C 
BRANCH   6  15
ATOM     15  C   UNL     1      -4.884  -1.466  -4.596  1.00  0.00    -0.008 C 
ATOM     16  C   UNL     1      -3.930  -0.476  -3.971  1.00  0.00     0.004 C 
ATOM     17  C   UNL     1      -5.129  -0.947  -3.200  1.00  0.00     0.004 C 
ENDBRANCH   6  15
ENDBRANCH   4   5
ENDBRANCH   1   4
BRANCH   3  18
ATOM     18  C   UNL     1     -14.739   1.410  -5.482  1.00  0.00     0.053 C 
BRANCH  18  19
ATOM     19  C   UNL     1     -15.230   2.626  -4.740  1.00  0.00     0.074 C 
BRANCH  19  20
ATOM     20  N   UNL     1     -15.515   3.770  -5.267  1.00  0.00    -0.313 NA
ATOM     21  H   UNL     1     -15.996   3.663  -6.170  1.00  0.00     0.186 HD
ENDBRANCH  19  20
ENDBRANCH  18  19
ENDBRANCH   3  18
TORSDOF 6
ENDMDL
MODEL 9
REMARK VINA RESULT:    -3.035      3.985      6.760
REMARK INTER + INTRA:          -4.209
REMARK INTER:                  -3.962
REMARK INTRA:                  -0.247
REMARK UNBOUND:                -0.198
REMARK SMILES [H]/N=C\C[C@H]1C[C@@H]1O[C@H]1CO[C@H]2C[C@@H](C3CC3)CCN2C1
REMARK SMILES IDX 7 1 6 2 5 3 8 4 9 5 14 6 13 7 18 8 12 9 19 10 20 11 11 12
REMARK SMILES IDX 21 13 10 14 15 15 16 16 17 17 4 18 3 19 2 20 1 21
REMARK H PARENT
ROOT
ATOM      1  C   UNL     1     -16.411   0.091  -8.836  1.00  0.00     0.122 C 
ATOM      2  C   UNL     1     -15.955  -1.243  -8.315  1.00  0.00     0.039 C 
ATOM      3  C   UNL     1     -15.002  -0.083  -8.338  1.00  0.00     0.026 C 
ENDROOT
BRANCH   1   4
ATOM      4  O   UNL     1     -16.589   0.133 -10.265  1.00  0.00    -0.371 OA
BRANCH   4   5
ATOM      5  C   UNL     1     -17.395   1.216 -10.757  1.00  0.00     0.158 C 
ATOM      6  C   UNL     1     -13.617   4.075 -12.939  1.00  0.00    -0.003 C 
ATOM      7  C   UNL     1     -14.058   3.746 -11.508  1.00  0.00     0.052 C 
ATOM      8  C   UNL     1     -13.914   2.874 -13.849  1.00  0.00     0.019 C 
ATOM      9  C   UNL     1     -15.515   3.267 -11.456  1.00  0.00     0.189 C 
ATOM     10  C   UNL     1     -15.370   2.426 -13.725  1.00  0.00     0.087 C 
ATOM     11  N   UNL     1     -15.705   2.114 -12.336  1.00  0.00    -0.276 NA
ATOM     12  O   UNL     1     -15.793   2.950 -10.090  1.00  0.00    -0.360 OA
ATOM     13  C   UNL     1     -17.073   1.599 -12.213  1.00  0.00     0.121 C 
ATOM     14  C   UNL     1     -17.118   2.448  -9.890  1.00  0.00     0.195 C 
BRANCH   6  15
ATOM     15  C   UNL     1     -12.150   4.436 -12.999  1.00  0.00    -0.008 C 
ATOM     16  C   UNL     1     -11.719   5.884 -12.982  1.00  0.00     0.004 C 
ATOM     17  C   UNL     1     -11.445   5.009 -11.793  1.00  0.00     0.004 C 
ENDBRANCH   6  15
ENDBRANCH   4   5
ENDBRANCH   1   4
BRANCH   3  18
ATOM     18  C   UNL     1     -14.578   0.535  -7.040  1.00  0.00     0.053 C 
BRANCH  18  19
ATOM     19  C   UNL     1     -13.134   0.350  -6.654  1.00  0.00     0.074 C 
BRANCH  19  20
ATOM     20  N   UNL     1     -12.558  -0.775  -6.390  1.00  0.00    -0.313 NA
ATOM     21  H   UNL     1     -12.693  -1.049  -5.406  1.00  0.00     0.186 HD
ENDBRANCH  19  20
ENDBRANCH  18  19
ENDBRANCH   3  18
TORSDOF 6
ENDMDL
