MODEL 1
REMARK VINA RESULT:    -4.289      0.000      0.000
REMARK INTER + INTRA:          -5.898
REMARK INTER:                  -5.668
REMARK INTRA:                  -0.230
REMARK UNBOUND:                -0.230
REMARK SMILES [H]/N=C\C[C@H]1C[C@@H]1O[C@H]1CO[C@H]2C[C@@H](C3CC3)CCN2C1
REMARK SMILES IDX 7 1 6 2 5 3 8 4 9 5 14 6 13 7 18 8 12 9 19 10 20 11 11 12
REMARK SMILES IDX 21 13 10 14 15 15 16 16 17 17 4 18 3 19 2 20 1 21
REMARK H PARENT
ROOT
ATOM      1  C   UNL     1     -19.583  -5.855  -7.924  1.00  0.00     0.122 C 
ATOM      2  C   UNL     1     -19.823  -5.861  -9.407  1.00  0.00     0.039 C 
ATOM      3  C   UNL     1     -18.441  -6.104  -8.871  1.00  0.00     0.026 C 
ENDROOT
BRANCH   1   4
ATOM      4  O   UNL     1     -19.649  -4.547  -7.323  1.00  0.00    -0.371 OA
BRANCH   4   5
ATOM      5  C   UNL     1     -19.975  -4.524  -5.924  1.00  0.00     0.158 C 
ATOM      6  C   UNL     1     -15.770  -1.977  -4.182  1.00  0.00    -0.003 C 
ATOM      7  C   UNL     1     -16.055  -3.381  -4.729  1.00  0.00     0.052 C 
ATOM      8  C   UNL     1     -16.711  -0.969  -4.856  1.00  0.00     0.019 C 
ATOM      9  C   UNL     1     -17.542  -3.744  -4.620  1.00  0.00     0.189 C 
ATOM     10  C   UNL     1     -18.171  -1.405  -4.742  1.00  0.00     0.087 C 
ATOM     11  N   UNL     1     -18.363  -2.743  -5.301  1.00  0.00    -0.276 NA
ATOM     12  O   UNL     1     -17.690  -5.043  -5.197  1.00  0.00    -0.360 OA
ATOM     13  C   UNL     1     -19.775  -3.142  -5.278  1.00  0.00     0.121 C 
ATOM     14  C   UNL     1     -19.044  -5.503  -5.202  1.00  0.00     0.195 C 
BRANCH   6  15
ATOM     15  C   UNL     1     -14.326  -1.581  -4.396  1.00  0.00    -0.008 C 
ATOM     16  C   UNL     1     -13.417  -1.339  -3.214  1.00  0.00     0.004 C 
ATOM     17  C   UNL     1     -13.206  -2.543  -4.085  1.00  0.00     0.004 C 
ENDBRANCH   6  15
ENDBRANCH   4   5
ENDBRANCH   1   4
BRANCH   3  18
ATOM     18  C   UNL     1     -17.846  -7.475  -8.993  1.00  0.00     0.053 C 
BRANCH  18  19
ATOM     19  C   UNL     1     -16.624  -7.747  -8.154  1.00  0.00     0.074 C 
BRANCH  19  20
ATOM     20  N   UNL     1     -15.976  -8.863  -8.100  1.00  0.00    -0.313 NA
ATOM     21  H   UNL     1     -16.475  -9.565  -7.536  1.00  0.00     0.186 HD
ENDBRANCH  19  20
ENDBRANCH  18  19
ENDBRANCH   3  18
TORSDOF 6
ENDMDL
MODEL 2
REMARK VINA RESULT:    -4.150      8.327     10.796
REMARK INTER + INTRA:          -5.715
REMARK INTER:                  -5.485
REMARK INTRA:                  -0.230
REMARK UNBOUND:                -0.230
REMARK SMILES [H]/N=C\C[C@H]1C[C@@H]1O[C@H]1CO[C@H]2C[C@@H](C3CC3)CCN2C1
REMARK SMILES IDX 7 1 6 2 5 3 8 4 9 5 14 6 13 7 18 8 12 9 19 10 20 11 11 12
REMARK SMILES IDX 21 13 10 14 15 15 16 16 17 17 4 18 3 19 2 20 1 21
REMARK H PARENT
ROOT
ATOM      1  C   UNL     1     -14.224   2.506  -1.229  1.00  0.00     0.122 C 
ATOM      2  C   UNL     1     -15.531   2.373  -0.501  1.00  0.00     0.039 C 
ATOM      3  C   UNL     1     -14.761   3.660  -0.427  1.00  0.00     0.026 C 
ENDROOT
BRANCH   1   4
ATOM      4  O   UNL     1     -13.144   1.758  -0.639  1.00  0.00    -0.371 OA
BRANCH   4   5
ATOM      5  C   UNL     1     -13.211   0.333  -0.812  1.00  0.00     0.158 C 
ATOM      6  C   UNL     1      -8.177  -0.569  -1.836  1.00  0.00    -0.003 C 
ATOM      7  C   UNL     1      -9.352   0.071  -2.585  1.00  0.00     0.052 C 
ATOM      8  C   UNL     1      -8.334  -0.314  -0.331  1.00  0.00     0.019 C 
ATOM      9  C   UNL     1     -10.704  -0.376  -2.012  1.00  0.00     0.189 C 
ATOM     10  C   UNL     1      -9.711  -0.749   0.169  1.00  0.00     0.087 C 
ATOM     11  N   UNL     1     -10.775  -0.081  -0.581  1.00  0.00    -0.276 NA
ATOM     12  O   UNL     1     -11.711   0.316  -2.753  1.00  0.00    -0.360 OA
ATOM     13  C   UNL     1     -12.102  -0.422  -0.057  1.00  0.00     0.121 C 
ATOM     14  C   UNL     1     -13.037   0.025  -2.303  1.00  0.00     0.195 C 
BRANCH   6  15
ATOM     15  C   UNL     1      -6.850  -0.038  -2.329  1.00  0.00    -0.008 C 
ATOM     16  C   UNL     1      -5.721  -0.986  -2.657  1.00  0.00     0.004 C 
ATOM     17  C   UNL     1      -6.417  -0.243  -3.760  1.00  0.00     0.004 C 
ENDBRANCH   6  15
ENDBRANCH   4   5
ENDBRANCH   1   4
BRANCH   3  18
ATOM     18  C   UNL     1     -15.305   4.873  -1.120  1.00  0.00     0.053 C 
BRANCH  18  19
ATOM     19  C   UNL     1     -16.693   5.302  -0.720  1.00  0.00     0.074 C 
BRANCH  19  20
ATOM     20  N   UNL     1     -16.988   6.115   0.238  1.00  0.00    -0.313 NA
ATOM     21  H   UNL     1     -16.154   6.383   0.779  1.00  0.00     0.186 HD
ENDBRANCH  19  20
ENDBRANCH  18  19
ENDBRANCH   3  18
TORSDOF 6
ENDMDL
MODEL 3
REMARK VINA RESULT:    -4.134      5.284      8.318
REMARK INTER + INTRA:          -5.693
REMARK INTER:                  -5.430
REMARK INTRA:                  -0.263
REMARK UNBOUND:                -0.230
REMARK SMILES [H]/N=C\C[C@H]1C[C@@H]1O[C@H]1CO[C@H]2C[C@@H](C3CC3)CCN2C1
REMARK SMILES IDX 7 1 6 2 5 3 8 4 9 5 14 6 13 7 18 8 12 9 19 10 20 11 11 12
REMARK SMILES IDX 21 13 10 14 15 15 16 16 17 17 4 18 3 19 2 20 1 21
REMARK H PARENT
ROOT
ATOM      1  C   UNL     1     -14.039  -1.896  -3.249  1.00  0.00     0.122 C 
ATOM      2  C   UNL     1     -14.920  -1.825  -4.465  1.00  0.00     0.039 C 
ATOM      3  C   UNL     1     -14.274  -3.126  -4.083  1.00  0.00     0.026 C 
ENDROOT
BRANCH   1   4
ATOM      4  O   UNL     1     -12.765  -1.243  -3.409  1.00  0.00    -0.371 OA
BRANCH   4   5
ATOM      5  C   UNL     1     -12.780   0.187  -3.267  1.00  0.00     0.158 C 
ATOM      6  C   UNL     1      -8.430   0.739  -0.443  1.00  0.00    -0.003 C 
ATOM      7  C   UNL     1      -9.845   0.206  -0.187  1.00  0.00     0.052 C 
ATOM      8  C   UNL     1      -8.038   0.459  -1.900  1.00  0.00     0.019 C 
ATOM      9  C   UNL     1     -10.849   0.738  -1.219  1.00  0.00     0.189 C 
ATOM     10  C   UNL     1      -9.094   0.982  -2.873  1.00  0.00     0.087 C 
ATOM     11  N   UNL     1     -10.408   0.414  -2.575  1.00  0.00    -0.276 NA
ATOM     12  O   UNL     1     -12.110   0.141  -0.907  1.00  0.00    -0.360 OA
ATOM     13  C   UNL     1     -11.416   0.838  -3.554  1.00  0.00     0.121 C 
ATOM     14  C   UNL     1     -13.148   0.518  -1.817  1.00  0.00     0.195 C 
BRANCH   6  15
ATOM     15  C   UNL     1      -7.426   0.123   0.505  1.00  0.00    -0.008 C 
ATOM     16  C   UNL     1      -6.414   0.991   1.216  1.00  0.00     0.004 C 
ATOM     17  C   UNL     1      -7.527   0.351   1.994  1.00  0.00     0.004 C 
ENDBRANCH   6  15
ENDBRANCH   4   5
ENDBRANCH   1   4
BRANCH   3  18
ATOM     18  C   UNL     1     -15.134  -4.239  -3.563  1.00  0.00     0.053 C 
BRANCH  18  19
ATOM     19  C   UNL     1     -16.297  -4.644  -4.431  1.00  0.00     0.074 C 
BRANCH  19  20
ATOM     20  N   UNL     1     -16.220  -5.081  -5.644  1.00  0.00    -0.313 NA
ATOM     21  H   UNL     1     -16.811  -5.912  -5.787  1.00  0.00     0.186 HD
ENDBRANCH  19  20
ENDBRANCH  18  19
ENDBRANCH   3  18
TORSDOF 6
ENDMDL
MODEL 4
REMARK VINA RESULT:    -4.071      7.998     10.260
REMARK INTER + INTRA:          -5.609
REMARK INTER:                  -5.434
REMARK INTRA:                  -0.175
REMARK UNBOUND:                -0.230
REMARK SMILES [H]/N=C\C[C@H]1C[C@@H]1O[C@H]1CO[C@H]2C[C@@H](C3CC3)CCN2C1
REMARK SMILES IDX 7 1 6 2 5 3 8 4 9 5 14 6 13 7 18 8 12 9 19 10 20 11 11 12
REMARK SMILES IDX 21 13 10 14 15 15 16 16 17 17 4 18 3 19 2 20 1 21
REMARK H PARENT
ROOT
ATOM      1  C   UNL     1     -12.733   0.748  -1.883  1.00  0.00     0.122 C 
ATOM      2  C   UNL     1     -12.784  -0.283  -2.975  1.00  0.00     0.039 C 
ATOM      3  C   UNL     1     -11.904   0.925  -3.126  1.00  0.00     0.026 C 
ENDROOT
BRANCH   1   4
ATOM      4  O   UNL     1     -13.922   1.554  -1.781  1.00  0.00    -0.371 OA
BRANCH   4   5
ATOM      5  C   UNL     1     -14.307   1.924  -0.447  1.00  0.00     0.158 C 
ATOM      6  C   UNL     1     -17.554   5.833  -1.624  1.00  0.00    -0.003 C 
ATOM      7  C   UNL     1     -16.036   5.619  -1.656  1.00  0.00     0.052 C 
ATOM      8  C   UNL     1     -18.260   4.502  -1.918  1.00  0.00     0.019 C 
ATOM      9  C   UNL     1     -15.603   4.466  -0.739  1.00  0.00     0.189 C 
ATOM     10  C   UNL     1     -17.761   3.390  -0.996  1.00  0.00     0.087 C 
ATOM     11  N   UNL     1     -16.309   3.237  -1.098  1.00  0.00    -0.276 NA
ATOM     12  O   UNL     1     -14.188   4.335  -0.887  1.00  0.00    -0.360 OA
ATOM     13  C   UNL     1     -15.825   2.116  -0.284  1.00  0.00     0.121 C 
ATOM     14  C   UNL     1     -13.641   3.263  -0.113  1.00  0.00     0.195 C 
BRANCH   6  15
ATOM     15  C   UNL     1     -17.985   6.892  -2.613  1.00  0.00    -0.008 C 
ATOM     16  C   UNL     1     -19.170   7.779  -2.314  1.00  0.00     0.004 C 
ATOM     17  C   UNL     1     -17.785   8.358  -2.314  1.00  0.00     0.004 C 
ENDBRANCH   6  15
ENDBRANCH   4   5
ENDBRANCH   1   4
BRANCH   3  18
ATOM     18  C   UNL     1     -10.416   0.750  -3.072  1.00  0.00     0.053 C 
BRANCH  18  19
ATOM     19  C   UNL     1      -9.608   1.640  -3.980  1.00  0.00     0.074 C 
BRANCH  19  20
ATOM     20  N   UNL     1      -9.947   2.019  -5.167  1.00  0.00    -0.313 NA
ATOM     21  H   UNL     1     -10.607   2.810  -5.139  1.00  0.00     0.186 HD
ENDBRANCH  19  20
ENDBRANCH  18  19
ENDBRANCH   3  18
TORSDOF 6
ENDMDL
MODEL 5
REMARK VINA RESULT:    -4.066      3.703      8.125
REMARK INTER + INTRA:          -5.603
REMARK INTER:                  -5.395
REMARK INTRA:                  -0.208
REMARK UNBOUND:                -0.230
REMARK SMILES [H]/N=C\C[C@H]1C[C@@H]1O[C@H]1CO[C@H]2C[C@@H](C3CC3)CCN2C1
REMARK SMILES IDX 7 1 6 2 5 3 8 4 9 5 14 6 13 7 18 8 12 9 19 10 20 11 11 12
REMARK SMILES IDX 21 13 10 14 15 15 16 16 17 17 4 18 3 19 2 20 1 21
REMARK H PARENT
ROOT
ATOM      1  C   UNL     1     -12.740  -0.246  -2.029  1.00  0.00     0.122 C 
ATOM      2  C   UNL     1     -13.099   0.803  -1.015  1.00  0.00     0.039 C 
ATOM      3  C   UNL     1     -12.440  -0.471  -0.572  1.00  0.00     0.026 C 
ENDROOT
BRANCH   1   4
ATOM      4  O   UNL     1     -13.873  -0.951  -2.570  1.00  0.00    -0.371 OA
BRANCH   4   5
ATOM      5  C   UNL     1     -13.772  -1.313  -3.957  1.00  0.00     0.158 C 
ATOM      6  C   UNL     1     -17.490  -4.969  -4.085  1.00  0.00    -0.003 C 
ATOM      7  C   UNL     1     -16.075  -4.861  -3.502  1.00  0.00     0.052 C 
ATOM      8  C   UNL     1     -18.159  -3.588  -4.052  1.00  0.00     0.019 C 
ATOM      9  C   UNL     1     -15.261  -3.754  -4.186  1.00  0.00     0.189 C 
ATOM     10  C   UNL     1     -17.283  -2.526  -4.717  1.00  0.00     0.087 C 
ATOM     11  N   UNL     1     -15.961  -2.473  -4.093  1.00  0.00    -0.276 NA
ATOM     12  O   UNL     1     -13.990  -3.719  -3.532  1.00  0.00    -0.360 OA
ATOM     13  C   UNL     1     -15.138  -1.400  -4.662  1.00  0.00     0.121 C 
ATOM     14  C   UNL     1     -13.126  -2.699  -4.042  1.00  0.00     0.195 C 
BRANCH   6  15
ATOM     15  C   UNL     1     -18.324  -5.981  -3.333  1.00  0.00    -0.008 C 
ATOM     16  C   UNL     1     -19.309  -6.858  -4.070  1.00  0.00     0.004 C 
ATOM     17  C   UNL     1     -18.066  -7.461  -3.483  1.00  0.00     0.004 C 
ENDBRANCH   6  15
ENDBRANCH   4   5
ENDBRANCH   1   4
BRANCH   3  18
ATOM     18  C   UNL     1     -11.026  -0.423  -0.075  1.00  0.00     0.053 C 
BRANCH  18  19
ATOM     19  C   UNL     1     -10.679  -1.375   1.039  1.00  0.00     0.074 C 
BRANCH  19  20
ATOM     20  N   UNL     1     -11.438  -1.681   2.038  1.00  0.00    -0.313 NA
ATOM     21  H   UNL     1     -10.955  -2.297   2.708  1.00  0.00     0.186 HD
ENDBRANCH  19  20
ENDBRANCH  18  19
ENDBRANCH   3  18
TORSDOF 6
ENDMDL
MODEL 6
REMARK VINA RESULT:    -3.949      4.192      6.055
REMARK INTER + INTRA:          -5.449
REMARK INTER:                  -5.159
REMARK INTRA:                  -0.290
REMARK UNBOUND:                -0.230
REMARK SMILES [H]/N=C\C[C@H]1C[C@@H]1O[C@H]1CO[C@H]2C[C@@H](C3CC3)CCN2C1
REMARK SMILES IDX 7 1 6 2 5 3 8 4 9 5 14 6 13 7 18 8 12 9 19 10 20 11 11 12
REMARK SMILES IDX 21 13 10 14 15 15 16 16 17 17 4 18 3 19 2 20 1 21
REMARK H PARENT
ROOT
ATOM      1  C   UNL     1     -16.208  -4.913  -3.567  1.00  0.00     0.122 C 
ATOM      2  C   UNL     1     -16.295  -6.120  -2.676  1.00  0.00     0.039 C 
ATOM      3  C   UNL     1     -17.330  -5.036  -2.573  1.00  0.00     0.026 C 
ENDROOT
BRANCH   1   4
ATOM      4  O   UNL     1     -15.141  -4.008  -3.225  1.00  0.00    -0.371 OA
BRANCH   4   5
ATOM      5  C   UNL     1     -14.630  -3.215  -4.310  1.00  0.00     0.158 C 
ATOM      6  C   UNL     1     -13.591   1.157  -1.662  1.00  0.00    -0.003 C 
ATOM      7  C   UNL     1     -14.858   0.435  -2.136  1.00  0.00     0.052 C 
ATOM      8  C   UNL     1     -12.505   0.120  -1.344  1.00  0.00     0.019 C 
ATOM      9  C   UNL     1     -14.564  -0.535  -3.288  1.00  0.00     0.189 C 
ATOM     10  C   UNL     1     -12.285  -0.836  -2.516  1.00  0.00     0.087 C 
ATOM     11  N   UNL     1     -13.534  -1.497  -2.895  1.00  0.00    -0.276 NA
ATOM     12  O   UNL     1     -15.800  -1.176  -3.609  1.00  0.00    -0.360 OA
ATOM     13  C   UNL     1     -13.322  -2.482  -3.961  1.00  0.00     0.121 C 
ATOM     14  C   UNL     1     -15.674  -2.147  -4.652  1.00  0.00     0.195 C 
BRANCH   6  15
ATOM     15  C   UNL     1     -13.865   2.025  -0.455  1.00  0.00    -0.008 C 
ATOM     16  C   UNL     1     -14.103   3.508  -0.618  1.00  0.00     0.004 C 
ATOM     17  C   UNL     1     -15.237   2.610  -0.218  1.00  0.00     0.004 C 
ENDBRANCH   6  15
ENDBRANCH   4   5
ENDBRANCH   1   4
BRANCH   3  18
ATOM     18  C   UNL     1     -18.726  -5.318  -3.041  1.00  0.00     0.053 C 
BRANCH  18  19
ATOM     19  C   UNL     1     -19.779  -4.321  -2.634  1.00  0.00     0.074 C 
BRANCH  19  20
ATOM     20  N   UNL     1     -19.572  -3.083  -2.329  1.00  0.00    -0.313 NA
ATOM     21  H   UNL     1     -19.752  -2.460  -3.129  1.00  0.00     0.186 HD
ENDBRANCH  19  20
ENDBRANCH  18  19
ENDBRANCH   3  18
TORSDOF 6
ENDMDL
MODEL 7
REMARK VINA RESULT:    -3.928      6.299      9.853
REMARK INTER + INTRA:          -5.421
REMARK INTER:                  -5.145
REMARK INTRA:                  -0.276
REMARK UNBOUND:                -0.230
REMARK SMILES [H]/N=C\C[C@H]1C[C@@H]1O[C@H]1CO[C@H]2C[C@@H](C3CC3)CCN2C1
REMARK SMILES IDX 7 1 6 2 5 3 8 4 9 5 14 6 13 7 18 8 12 9 19 10 20 11 11 12
REMARK SMILES IDX 21 13 10 14 15 15 16 16 17 17 4 18 3 19 2 20 1 21
REMARK H PARENT
ROOT
ATOM      1  C   UNL     1     -16.158   5.648  -1.607  1.00  0.00     0.122 C 
ATOM      2  C   UNL     1     -15.886   6.801  -2.531  1.00  0.00     0.039 C 
ATOM      3  C   UNL     1     -16.884   5.749  -2.921  1.00  0.00     0.026 C 
ENDROOT
BRANCH   1   4
ATOM      4  O   UNL     1     -15.087   4.688  -1.534  1.00  0.00    -0.371 OA
BRANCH   4   5
ATOM      5  C   UNL     1     -15.067   3.869  -0.353  1.00  0.00     0.158 C 
ATOM      6  C   UNL     1     -13.474  -0.597  -2.524  1.00  0.00    -0.003 C 
ATOM      7  C   UNL     1     -14.768   0.226  -2.529  1.00  0.00     0.052 C 
ATOM      8  C   UNL     1     -12.271   0.349  -2.407  1.00  0.00     0.019 C 
ATOM      9  C   UNL     1     -14.839   1.183  -1.331  1.00  0.00     0.189 C 
ATOM     10  C   UNL     1     -12.420   1.296  -1.217  1.00  0.00     0.087 C 
ATOM     11  N   UNL     1     -13.666   2.057  -1.306  1.00  0.00    -0.276 NA
ATOM     12  O   UNL     1     -16.055   1.921  -1.470  1.00  0.00    -0.360 OA
ATOM     13  C   UNL     1     -13.783   3.033  -0.217  1.00  0.00     0.121 C 
ATOM     14  C   UNL     1     -16.243   2.890  -0.434  1.00  0.00     0.195 C 
BRANCH   6  15
ATOM     15  C   UNL     1     -13.357  -1.454  -3.765  1.00  0.00    -0.008 C 
ATOM     16  C   UNL     1     -13.798  -2.898  -3.741  1.00  0.00     0.004 C 
ATOM     17  C   UNL     1     -14.587  -1.890  -4.523  1.00  0.00     0.004 C 
ENDBRANCH   6  15
ENDBRANCH   4   5
ENDBRANCH   1   4
BRANCH   3  18
ATOM     18  C   UNL     1     -18.340   6.105  -2.954  1.00  0.00     0.053 C 
BRANCH  18  19
ATOM     19  C   UNL     1     -19.224   5.216  -3.789  1.00  0.00     0.074 C 
BRANCH  19  20
ATOM     20  N   UNL     1     -19.045   3.954  -4.001  1.00  0.00    -0.313 NA
ATOM     21  H   UNL     1     -19.748   3.575  -4.651  1.00  0.00     0.186 HD
ENDBRANCH  19  20
ENDBRANCH  18  19
ENDBRANCH   3  18
TORSDOF 6
ENDMDL
MODEL 8
REMARK VINA RESULT:    -3.598      8.203     10.755
REMARK INTER + INTRA:          -4.985
REMARK INTER:                  -4.649
REMARK INTRA:                  -0.336
REMARK UNBOUND:                -0.230
REMARK SMILES [H]/N=C\C[C@H]1C[C@@H]1O[C@H]1CO[C@H]2C[C@@H](C3CC3)CCN2C1
REMARK SMILES IDX 7 1 6 2 5 3 8 4 9 5 14 6 13 7 18 8 12 9 19 10 20 11 11 12
REMARK SMILES IDX 21 13 10 14 15 15 16 16 17 17 4 18 3 19 2 20 1 21
REMARK H PARENT
ROOT
ATOM      1  C   UNL     1     -17.668   5.930  -2.347  1.00  0.00     0.122 C 
ATOM      2  C   UNL     1     -17.125   6.377  -3.675  1.00  0.00     0.039 C 
ATOM      3  C   UNL     1     -18.424   6.937  -3.170  1.00  0.00     0.026 C 
ENDROOT
BRANCH   1   4
ATOM      4  O   UNL     1     -18.180   4.584  -2.345  1.00  0.00    -0.371 OA
BRANCH   4   5
ATOM      5  C   UNL     1     -18.340   3.984  -1.049  1.00  0.00     0.158 C 
ATOM      6  C   UNL     1     -13.750   1.524  -0.752  1.00  0.00    -0.003 C 
ATOM      7  C   UNL     1     -15.049   1.333  -1.545  1.00  0.00     0.052 C 
ATOM      8  C   UNL     1     -13.522   3.022  -0.504  1.00  0.00     0.019 C 
ATOM      9  C   UNL     1     -16.234   2.044  -0.876  1.00  0.00     0.189 C 
ATOM     10  C   UNL     1     -14.749   3.676   0.131  1.00  0.00     0.087 C 
ATOM     11  N   UNL     1     -15.940   3.465  -0.694  1.00  0.00    -0.276 NA
ATOM     12  O   UNL     1     -17.366   1.835  -1.723  1.00  0.00    -0.360 OA
ATOM     13  C   UNL     1     -17.108   4.161  -0.143  1.00  0.00     0.121 C 
ATOM     14  C   UNL     1     -18.551   2.479  -1.243  1.00  0.00     0.195 C 
BRANCH   6  15
ATOM     15  C   UNL     1     -12.567   0.919  -1.473  1.00  0.00    -0.008 C 
ATOM     16  C   UNL     1     -11.813  -0.240  -0.865  1.00  0.00     0.004 C 
ATOM     17  C   UNL     1     -12.656  -0.457  -2.088  1.00  0.00     0.004 C 
ENDBRANCH   6  15
ENDBRANCH   4   5
ENDBRANCH   1   4
BRANCH   3  18
ATOM     18  C   UNL     1     -18.479   8.373  -2.744  1.00  0.00     0.053 C 
BRANCH  18  19
ATOM     19  C   UNL     1     -19.156   9.325  -3.696  1.00  0.00     0.074 C 
BRANCH  19  20
ATOM     20  N   UNL     1     -18.572  10.240  -4.395  1.00  0.00    -0.313 NA
ATOM     21  H   UNL     1     -17.809  10.690  -3.870  1.00  0.00     0.186 HD
ENDBRANCH  19  20
ENDBRANCH  18  19
ENDBRANCH   3  18
TORSDOF 6
ENDMDL
MODEL 9
REMARK VINA RESULT:    -3.486      3.321      4.469
REMARK INTER + INTRA:          -4.837
REMARK INTER:                  -4.477
REMARK INTRA:                  -0.360
REMARK UNBOUND:                -0.230
REMARK SMILES [H]/N=C\C[C@H]1C[C@@H]1O[C@H]1CO[C@H]2C[C@@H](C3CC3)CCN2C1
REMARK SMILES IDX 7 1 6 2 5 3 8 4 9 5 14 6 13 7 18 8 12 9 19 10 20 11 11 12
REMARK SMILES IDX 21 13 10 14 15 15 16 16 17 17 4 18 3 19 2 20 1 21
REMARK H PARENT
ROOT
ATOM      1  C   UNL     1     -18.016  -5.144  -3.623  1.00  0.00     0.122 C 
ATOM      2  C   UNL     1     -17.908  -5.540  -2.178  1.00  0.00     0.039 C 
ATOM      3  C   UNL     1     -19.005  -6.109  -3.031  1.00  0.00     0.026 C 
ENDROOT
BRANCH   1   4
ATOM      4  O   UNL     1     -18.476  -3.794  -3.830  1.00  0.00    -0.371 OA
BRANCH   4   5
ATOM      5  C   UNL     1     -18.072  -3.184  -5.066  1.00  0.00     0.158 C 
ATOM      6  C   UNL     1     -13.626  -0.993  -3.443  1.00  0.00    -0.003 C 
ATOM      7  C   UNL     1     -15.122  -0.729  -3.231  1.00  0.00     0.052 C 
ATOM      8  C   UNL     1     -13.396  -2.501  -3.616  1.00  0.00     0.019 C 
ATOM      9  C   UNL     1     -15.975  -1.369  -4.335  1.00  0.00     0.189 C 
ATOM     10  C   UNL     1     -14.299  -3.081  -4.704  1.00  0.00     0.087 C 
ATOM     11  N   UNL     1     -15.707  -2.804  -4.420  1.00  0.00    -0.276 NA
ATOM     12  O   UNL     1     -17.339  -1.096  -4.006  1.00  0.00    -0.360 OA
ATOM     13  C   UNL     1     -16.592  -3.430  -5.409  1.00  0.00     0.121 C 
ATOM     14  C   UNL     1     -18.264  -1.670  -4.935  1.00  0.00     0.195 C 
BRANCH   6  15
ATOM     15  C   UNL     1     -12.800  -0.459  -2.294  1.00  0.00    -0.008 C 
ATOM     16  C   UNL     1     -11.702   0.547  -2.546  1.00  0.00     0.004 C 
ATOM     17  C   UNL     1     -12.952   0.970  -1.831  1.00  0.00     0.004 C 
ENDBRANCH   6  15
ENDBRANCH   4   5
ENDBRANCH   1   4
BRANCH   3  18
ATOM     18  C   UNL     1     -18.958  -7.562  -3.401  1.00  0.00     0.053 C 
BRANCH  18  19
ATOM     19  C   UNL     1     -19.973  -8.452  -2.732  1.00  0.00     0.074 C 
BRANCH  19  20
ATOM     20  N   UNL     1     -19.719  -9.355  -1.844  1.00  0.00    -0.313 NA
ATOM     21  H   UNL     1     -20.573  -9.852  -1.553  1.00  0.00     0.186 HD
ENDBRANCH  19  20
ENDBRANCH  18  19
ENDBRANCH   3  18
TORSDOF 6
ENDMDL
