MODEL 1
REMARK VINA RESULT:    -6.115      0.000      0.000
REMARK INTER + INTRA:          -7.562
REMARK INTER:                  -7.188
REMARK INTRA:                  -0.375
REMARK UNBOUND:                -0.375
REMARK SMILES Cc1ccc(CNC(=O)NC(=O)c2ccc(C)cc2)cc1
REMARK SMILES IDX 11 1 12 2 10 3 8 4 9 5 7 6 13 9 19 10 18 11 14 12 16 13
REMARK SMILES IDX 15 14 17 15 6 16 5 17 4 18 20 19 3 20 21 21 2 22 1 23
REMARK H PARENT 10 7 7 8
ROOT
ATOM      1  C   UNL     1      12.154   6.198  -0.334  1.00  0.00     0.259 C 
ATOM      2  O   UNL     1      11.829   6.926   0.593  1.00  0.00    -0.269 OA
ATOM      3  N   UNL     1      13.296   6.261  -1.139  1.00  0.00    -0.274 N 
ATOM      4  C   UNL     1      14.515   6.888  -1.119  1.00  0.00     0.321 C 
ATOM      5  O   UNL     1      15.339   6.568  -1.984  1.00  0.00    -0.248 OA
ATOM      6  N   UNL     1      14.867   7.804  -0.197  1.00  0.00    -0.334 N 
ATOM      7  H   UNL     1      13.336   5.556  -1.863  1.00  0.00     0.175 HD
ATOM      8  H   UNL     1      15.827   8.107  -0.271  1.00  0.00     0.165 HD
ENDROOT
BRANCH   1   9
ATOM      9  C   UNL     1      11.231   5.094  -0.662  1.00  0.00     0.040 A 
ATOM     10  C   UNL     1      10.340   5.183  -1.733  1.00  0.00     0.014 A 
ATOM     11  C   UNL     1       9.524   4.093  -2.037  1.00  0.00     0.004 A 
ATOM     12  C   UNL     1      11.266   3.949   0.140  1.00  0.00     0.014 A 
ATOM     13  C   UNL     1       9.588   2.920  -1.270  1.00  0.00    -0.051 A 
ATOM     14  C   UNL     1      10.453   2.860  -0.171  1.00  0.00     0.004 A 
ATOM     15  C   UNL     1       8.766   1.727  -1.660  1.00  0.00     0.044 C 
ENDBRANCH   1   9
BRANCH   6  16
ATOM     16  C   UNL     1      14.107   8.237   0.941  1.00  0.00     0.153 C 
BRANCH  16  17
ATOM     17  C   UNL     1      14.863   8.874   2.074  1.00  0.00    -0.029 A 
ATOM     18  C   UNL     1      14.752   8.447   3.401  1.00  0.00     0.006 A 
ATOM     19  C   UNL     1      15.873   9.790   1.738  1.00  0.00     0.006 A 
ATOM     20  C   UNL     1      15.653   8.913   4.364  1.00  0.00     0.004 A 
ATOM     21  C   UNL     1      16.771  10.249   2.696  1.00  0.00     0.004 A 
ATOM     22  C   UNL     1      16.675   9.806   4.016  1.00  0.00    -0.051 A 
ATOM     23  C   UNL     1      17.728  10.198   5.009  1.00  0.00     0.044 C 
ENDBRANCH  16  17
ENDBRANCH   6  16
TORSDOF 3
ENDMDL
MODEL 2
REMARK VINA RESULT:    -6.098      0.539      8.012
REMARK INTER + INTRA:          -7.542
REMARK INTER:                  -7.044
REMARK INTRA:                  -0.498
REMARK UNBOUND:                -0.375
REMARK SMILES Cc1ccc(CNC(=O)NC(=O)c2ccc(C)cc2)cc1
REMARK SMILES IDX 11 1 12 2 10 3 8 4 9 5 7 6 13 9 19 10 18 11 14 12 16 13
REMARK SMILES IDX 15 14 17 15 6 16 5 17 4 18 20 19 3 20 21 21 2 22 1 23
REMARK H PARENT 10 7 7 8
ROOT
ATOM      1  C   UNL     1      13.998   7.784   1.107  1.00  0.00     0.259 C 
ATOM      2  O   UNL     1      12.840   7.557   1.428  1.00  0.00    -0.269 OA
ATOM      3  N   UNL     1      14.665   7.429  -0.070  1.00  0.00    -0.274 N 
ATOM      4  C   UNL     1      14.339   6.971  -1.321  1.00  0.00     0.321 C 
ATOM      5  O   UNL     1      15.244   6.902  -2.160  1.00  0.00    -0.248 OA
ATOM      6  N   UNL     1      13.091   6.624  -1.684  1.00  0.00    -0.334 N 
ATOM      7  H   UNL     1      15.636   7.710  -0.100  1.00  0.00     0.175 HD
ATOM      8  H   UNL     1      13.002   6.390  -2.663  1.00  0.00     0.165 HD
ENDROOT
BRANCH   1   9
ATOM      9  C   UNL     1      14.818   8.536   2.076  1.00  0.00     0.040 A 
ATOM     10  C   UNL     1      14.746   8.276   3.446  1.00  0.00     0.014 A 
ATOM     11  C   UNL     1      15.579   8.977   4.319  1.00  0.00     0.004 A 
ATOM     12  C   UNL     1      15.671   9.529   1.585  1.00  0.00     0.014 A 
ATOM     13  C   UNL     1      16.476   9.939   3.831  1.00  0.00    -0.051 A 
ATOM     14  C   UNL     1      16.505  10.221   2.460  1.00  0.00     0.004 A 
ATOM     15  C   UNL     1      17.424  10.622   4.771  1.00  0.00     0.044 C 
ENDBRANCH   1   9
BRANCH   6  16
ATOM     16  C   UNL     1      11.891   6.726  -0.903  1.00  0.00     0.153 C 
BRANCH  16  17
ATOM     17  C   UNL     1      10.952   5.552  -0.923  1.00  0.00    -0.029 A 
ATOM     18  C   UNL     1       9.932   5.406  -1.869  1.00  0.00     0.006 A 
ATOM     19  C   UNL     1      11.260   4.468  -0.085  1.00  0.00     0.006 A 
ATOM     20  C   UNL     1       9.254   4.188  -1.985  1.00  0.00     0.004 A 
ATOM     21  C   UNL     1      10.588   3.256  -0.205  1.00  0.00     0.004 A 
ATOM     22  C   UNL     1       9.585   3.102  -1.164  1.00  0.00    -0.051 A 
ATOM     23  C   UNL     1       8.964   1.754  -1.377  1.00  0.00     0.044 C 
ENDBRANCH  16  17
ENDBRANCH   6  16
TORSDOF 3
ENDMDL
MODEL 3
REMARK VINA RESULT:    -6.082      3.251      5.521
REMARK INTER + INTRA:          -7.523
REMARK INTER:                  -7.148
REMARK INTRA:                  -0.375
REMARK UNBOUND:                -0.375
REMARK SMILES Cc1ccc(CNC(=O)NC(=O)c2ccc(C)cc2)cc1
REMARK SMILES IDX 11 1 12 2 10 3 8 4 9 5 7 6 13 9 19 10 18 11 14 12 16 13
REMARK SMILES IDX 15 14 17 15 6 16 5 17 4 18 20 19 3 20 21 21 2 22 1 23
REMARK H PARENT 10 7 7 8
ROOT
ATOM      1  C   UNL     1      12.148   6.236  -0.778  1.00  0.00     0.259 C 
ATOM      2  O   UNL     1      12.503   5.526  -1.708  1.00  0.00    -0.269 OA
ATOM      3  N   UNL     1      12.929   7.042   0.056  1.00  0.00    -0.274 N 
ATOM      4  C   UNL     1      14.204   7.546   0.073  1.00  0.00     0.321 C 
ATOM      5  O   UNL     1      14.485   8.363   0.956  1.00  0.00    -0.248 OA
ATOM      6  N   UNL     1      15.145   7.221  -0.832  1.00  0.00    -0.334 N 
ATOM      7  H   UNL     1      12.408   7.524   0.777  1.00  0.00     0.175 HD
ATOM      8  H   UNL     1      16.004   7.743  -0.732  1.00  0.00     0.165 HD
ENDROOT
BRANCH   1   9
ATOM      9  C   UNL     1      10.702   6.263  -0.482  1.00  0.00     0.040 A 
ATOM     10  C   UNL     1      10.160   5.520   0.568  1.00  0.00     0.014 A 
ATOM     11  C   UNL     1       8.795   5.619   0.842  1.00  0.00     0.004 A 
ATOM     12  C   UNL     1       9.881   7.054  -1.292  1.00  0.00     0.014 A 
ATOM     13  C   UNL     1       7.971   6.449   0.067  1.00  0.00    -0.051 A 
ATOM     14  C   UNL     1       8.520   7.154  -1.011  1.00  0.00     0.004 A 
ATOM     15  C   UNL     1       6.524   6.610   0.427  1.00  0.00     0.044 C 
ENDBRANCH   1   9
BRANCH   6  16
ATOM     16  C   UNL     1      14.997   6.381  -1.987  1.00  0.00     0.153 C 
BRANCH  16  17
ATOM     17  C   UNL     1      15.997   6.549  -3.096  1.00  0.00    -0.029 A 
ATOM     18  C   UNL     1      15.630   6.764  -4.429  1.00  0.00     0.006 A 
ATOM     19  C   UNL     1      17.344   6.705  -2.730  1.00  0.00     0.006 A 
ATOM     20  C   UNL     1      16.594   7.151  -5.366  1.00  0.00     0.004 A 
ATOM     21  C   UNL     1      18.300   7.095  -3.662  1.00  0.00     0.004 A 
ATOM     22  C   UNL     1      17.931   7.332  -4.987  1.00  0.00    -0.051 A 
ATOM     23  C   UNL     1      18.939   7.883  -5.951  1.00  0.00     0.044 C 
ENDBRANCH  16  17
ENDBRANCH   6  16
TORSDOF 3
ENDMDL
MODEL 4
REMARK VINA RESULT:    -6.061      3.146      7.302
REMARK INTER + INTRA:          -7.499
REMARK INTER:                  -6.999
REMARK INTRA:                  -0.500
REMARK UNBOUND:                -0.375
REMARK SMILES Cc1ccc(CNC(=O)NC(=O)c2ccc(C)cc2)cc1
REMARK SMILES IDX 11 1 12 2 10 3 8 4 9 5 7 6 13 9 19 10 18 11 14 12 16 13
REMARK SMILES IDX 15 14 17 15 6 16 5 17 4 18 20 19 3 20 21 21 2 22 1 23
REMARK H PARENT 10 7 7 8
ROOT
ATOM      1  C   UNL     1      14.571   6.590  -2.160  1.00  0.00     0.259 C 
ATOM      2  O   UNL     1      13.648   5.868  -2.511  1.00  0.00    -0.269 OA
ATOM      3  N   UNL     1      14.717   7.309  -0.970  1.00  0.00    -0.274 N 
ATOM      4  C   UNL     1      14.132   7.344   0.270  1.00  0.00     0.321 C 
ATOM      5  O   UNL     1      14.657   8.060   1.131  1.00  0.00    -0.248 OA
ATOM      6  N   UNL     1      13.046   6.623   0.602  1.00  0.00    -0.334 N 
ATOM      7  H   UNL     1      15.565   7.858  -0.915  1.00  0.00     0.175 HD
ATOM      8  H   UNL     1      12.791   6.695   1.576  1.00  0.00     0.165 HD
ENDROOT
BRANCH   1   9
ATOM      9  C   UNL     1      15.696   6.730  -3.106  1.00  0.00     0.040 A 
ATOM     10  C   UNL     1      15.480   6.862  -4.479  1.00  0.00     0.014 A 
ATOM     11  C   UNL     1      16.572   7.045  -5.328  1.00  0.00     0.004 A 
ATOM     12  C   UNL     1      16.994   6.720  -2.588  1.00  0.00     0.014 A 
ATOM     13  C   UNL     1      17.876   7.089  -4.812  1.00  0.00    -0.051 A 
ATOM     14  C   UNL     1      18.082   6.910  -3.439  1.00  0.00     0.004 A 
ATOM     15  C   UNL     1      19.032   7.371  -5.726  1.00  0.00     0.044 C 
ENDBRANCH   1   9
BRANCH   6  16
ATOM     16  C   UNL     1      12.352   5.662  -0.208  1.00  0.00     0.153 C 
BRANCH  16  17
ATOM     17  C   UNL     1      10.850   5.728  -0.223  1.00  0.00    -0.029 A 
ATOM     18  C   UNL     1      10.046   5.031   0.685  1.00  0.00     0.006 A 
ATOM     19  C   UNL     1      10.257   6.695  -1.052  1.00  0.00     0.006 A 
ATOM     20  C   UNL     1       8.680   5.319   0.774  1.00  0.00     0.004 A 
ATOM     21  C   UNL     1       8.900   6.984  -0.958  1.00  0.00     0.004 A 
ATOM     22  C   UNL     1       8.100   6.305  -0.036  1.00  0.00    -0.051 A 
ATOM     23  C   UNL     1       6.672   6.719   0.153  1.00  0.00     0.044 C 
ENDBRANCH  16  17
ENDBRANCH   6  16
TORSDOF 3
ENDMDL
MODEL 5
REMARK VINA RESULT:    -5.811      1.248      8.003
REMARK INTER + INTRA:          -7.205
REMARK INTER:                  -6.740
REMARK INTRA:                  -0.465
REMARK UNBOUND:                -0.375
REMARK SMILES Cc1ccc(CNC(=O)NC(=O)c2ccc(C)cc2)cc1
REMARK SMILES IDX 11 1 12 2 10 3 8 4 9 5 7 6 13 9 19 10 18 11 14 12 16 13
REMARK SMILES IDX 15 14 17 15 6 16 5 17 4 18 20 19 3 20 21 21 2 22 1 23
REMARK H PARENT 10 7 7 8
ROOT
ATOM      1  C   UNL     1      13.860   7.921   1.231  1.00  0.00     0.259 C 
ATOM      2  O   UNL     1      12.676   7.932   1.537  1.00  0.00    -0.269 OA
ATOM      3  N   UNL     1      14.473   7.320   0.127  1.00  0.00    -0.274 N 
ATOM      4  C   UNL     1      14.092   6.775  -1.072  1.00  0.00     0.321 C 
ATOM      5  O   UNL     1      14.983   6.455  -1.866  1.00  0.00    -0.248 OA
ATOM      6  N   UNL     1      12.807   6.601  -1.435  1.00  0.00    -0.334 N 
ATOM      7  H   UNL     1      15.478   7.429   0.098  1.00  0.00     0.175 HD
ATOM      8  H   UNL     1      12.694   6.268  -2.382  1.00  0.00     0.165 HD
ENDROOT
BRANCH   1   9
ATOM      9  C   UNL     1      14.782   8.636   2.134  1.00  0.00     0.040 A 
ATOM     10  C   UNL     1      14.778   8.406   3.511  1.00  0.00     0.014 A 
ATOM     11  C   UNL     1      15.704   9.068   4.317  1.00  0.00     0.004 A 
ATOM     12  C   UNL     1      15.663   9.565   1.571  1.00  0.00     0.014 A 
ATOM     13  C   UNL     1      16.627   9.963   3.755  1.00  0.00    -0.051 A 
ATOM     14  C   UNL     1      16.590  10.219   2.379  1.00  0.00     0.004 A 
ATOM     15  C   UNL     1      17.671  10.602   4.623  1.00  0.00     0.044 C 
ENDBRANCH   1   9
BRANCH   6  16
ATOM     16  C   UNL     1      11.631   6.996  -0.713  1.00  0.00     0.153 C 
BRANCH  16  17
ATOM     17  C   UNL     1      10.531   5.980  -0.578  1.00  0.00    -0.029 A 
ATOM     18  C   UNL     1       9.817   5.781   0.608  1.00  0.00     0.006 A 
ATOM     19  C   UNL     1      10.075   5.366  -1.756  1.00  0.00     0.006 A 
ATOM     20  C   UNL     1       8.655   5.002   0.603  1.00  0.00     0.004 A 
ATOM     21  C   UNL     1       8.917   4.595  -1.760  1.00  0.00     0.004 A 
ATOM     22  C   UNL     1       8.191   4.414  -0.582  1.00  0.00    -0.051 A 
ATOM     23  C   UNL     1       6.874   3.698  -0.624  1.00  0.00     0.044 C 
ENDBRANCH  16  17
ENDBRANCH   6  16
TORSDOF 3
ENDMDL
MODEL 6
REMARK VINA RESULT:    -5.782      3.077      7.742
REMARK INTER + INTRA:          -7.171
REMARK INTER:                  -6.706
REMARK INTRA:                  -0.465
REMARK UNBOUND:                -0.375
REMARK SMILES Cc1ccc(CNC(=O)NC(=O)c2ccc(C)cc2)cc1
REMARK SMILES IDX 11 1 12 2 10 3 8 4 9 5 7 6 13 9 19 10 18 11 14 12 16 13
REMARK SMILES IDX 15 14 17 15 6 16 5 17 4 18 20 19 3 20 21 21 2 22 1 23
REMARK H PARENT 10 7 7 8
ROOT
ATOM      1  C   UNL     1      14.616   6.421  -2.288  1.00  0.00     0.259 C 
ATOM      2  O   UNL     1      13.848   5.530  -2.624  1.00  0.00    -0.269 OA
ATOM      3  N   UNL     1      14.554   7.253  -1.166  1.00  0.00    -0.274 N 
ATOM      4  C   UNL     1      13.878   7.298   0.026  1.00  0.00     0.321 C 
ATOM      5  O   UNL     1      14.214   8.160   0.845  1.00  0.00    -0.248 OA
ATOM      6  N   UNL     1      12.896   6.439   0.357  1.00  0.00    -0.334 N 
ATOM      7  H   UNL     1      15.298   7.936  -1.111  1.00  0.00     0.175 HD
ATOM      8  H   UNL     1      12.559   6.551   1.303  1.00  0.00     0.165 HD
ENDROOT
BRANCH   1   9
ATOM      9  C   UNL     1      15.774   6.662  -3.170  1.00  0.00     0.040 A 
ATOM     10  C   UNL     1      15.615   6.852  -4.544  1.00  0.00     0.014 A 
ATOM     11  C   UNL     1      16.734   7.130  -5.330  1.00  0.00     0.004 A 
ATOM     12  C   UNL     1      17.047   6.690  -2.591  1.00  0.00     0.014 A 
ATOM     13  C   UNL     1      18.009   7.211  -4.750  1.00  0.00    -0.051 A 
ATOM     14  C   UNL     1      18.161   6.975  -3.379  1.00  0.00     0.004 A 
ATOM     15  C   UNL     1      19.190   7.594  -5.594  1.00  0.00     0.044 C 
ENDBRANCH   1   9
BRANCH   6  16
ATOM     16  C   UNL     1      12.427   5.311  -0.397  1.00  0.00     0.153 C 
BRANCH  16  17
ATOM     17  C   UNL     1      10.940   5.158  -0.558  1.00  0.00    -0.029 A 
ATOM     18  C   UNL     1      10.337   4.779  -1.762  1.00  0.00     0.006 A 
ATOM     19  C   UNL     1      10.160   5.196   0.609  1.00  0.00     0.006 A 
ATOM     20  C   UNL     1       8.985   4.421  -1.785  1.00  0.00     0.004 A 
ATOM     21  C   UNL     1       8.816   4.836   0.586  1.00  0.00     0.004 A 
ATOM     22  C   UNL     1       8.219   4.435  -0.611  1.00  0.00    -0.051 A 
ATOM     23  C   UNL     1       6.811   3.918  -0.601  1.00  0.00     0.044 C 
ENDBRANCH  16  17
ENDBRANCH   6  16
TORSDOF 3
ENDMDL
MODEL 7
REMARK VINA RESULT:    -5.638      5.545      8.621
REMARK INTER + INTRA:          -7.002
REMARK INTER:                  -6.651
REMARK INTRA:                  -0.351
REMARK UNBOUND:                -0.375
REMARK SMILES Cc1ccc(CNC(=O)NC(=O)c2ccc(C)cc2)cc1
REMARK SMILES IDX 11 1 12 2 10 3 8 4 9 5 7 6 13 9 19 10 18 11 14 12 16 13
REMARK SMILES IDX 15 14 17 15 6 16 5 17 4 18 20 19 3 20 21 21 2 22 1 23
REMARK H PARENT 10 7 7 8
ROOT
ATOM      1  C   UNL     1      17.221  10.275   5.623  1.00  0.00     0.259 C 
ATOM      2  O   UNL     1      18.438  10.160   5.600  1.00  0.00    -0.269 OA
ATOM      3  N   UNL     1      16.416  10.868   6.600  1.00  0.00    -0.274 N 
ATOM      4  C   UNL     1      16.579  11.694   7.683  1.00  0.00     0.321 C 
ATOM      5  O   UNL     1      15.560  12.120   8.238  1.00  0.00    -0.248 OA
ATOM      6  N   UNL     1      17.780  12.084   8.147  1.00  0.00    -0.334 N 
ATOM      7  H   UNL     1      15.424  10.822   6.408  1.00  0.00     0.175 HD
ATOM      8  H   UNL     1      17.727  12.760   8.896  1.00  0.00     0.165 HD
ENDROOT
BRANCH   1   9
ATOM      9  C   UNL     1      16.484   9.722   4.470  1.00  0.00     0.040 A 
ATOM     10  C   UNL     1      15.692   8.579   4.593  1.00  0.00     0.014 A 
ATOM     11  C   UNL     1      14.972   8.124   3.488  1.00  0.00     0.004 A 
ATOM     12  C   UNL     1      16.604  10.375   3.239  1.00  0.00     0.014 A 
ATOM     13  C   UNL     1      15.045   8.802   2.261  1.00  0.00    -0.051 A 
ATOM     14  C   UNL     1      15.878   9.921   2.140  1.00  0.00     0.004 A 
ATOM     15  C   UNL     1      14.200   8.351   1.107  1.00  0.00     0.044 C 
ENDBRANCH   1   9
BRANCH   6  16
ATOM     16  C   UNL     1      19.071  11.791   7.591  1.00  0.00     0.153 C 
BRANCH  16  17
ATOM     17  C   UNL     1      19.689  12.830   6.697  1.00  0.00    -0.029 A 
ATOM     18  C   UNL     1      20.622  12.522   5.701  1.00  0.00     0.006 A 
ATOM     19  C   UNL     1      19.139  14.121   6.735  1.00  0.00     0.006 A 
ATOM     20  C   UNL     1      20.974  13.486   4.750  1.00  0.00     0.004 A 
ATOM     21  C   UNL     1      19.486  15.078   5.787  1.00  0.00     0.004 A 
ATOM     22  C   UNL     1      20.400  14.765   4.779  1.00  0.00    -0.051 A 
ATOM     23  C   UNL     1      20.664  15.754   3.683  1.00  0.00     0.044 C 
ENDBRANCH  16  17
ENDBRANCH   6  16
TORSDOF 3
ENDMDL
MODEL 8
REMARK VINA RESULT:    -5.035      5.257      8.190
REMARK INTER + INTRA:          -6.293
REMARK INTER:                  -6.106
REMARK INTRA:                  -0.187
REMARK UNBOUND:                -0.375
REMARK SMILES Cc1ccc(CNC(=O)NC(=O)c2ccc(C)cc2)cc1
REMARK SMILES IDX 11 1 12 2 10 3 8 4 9 5 7 6 13 9 19 10 18 11 14 12 16 13
REMARK SMILES IDX 15 14 17 15 6 16 5 17 4 18 20 19 3 20 21 21 2 22 1 23
REMARK H PARENT 10 7 7 8
ROOT
ATOM      1  C   UNL     1      17.909   9.966   4.709  1.00  0.00     0.259 C 
ATOM      2  O   UNL     1      18.592  10.923   4.373  1.00  0.00    -0.269 OA
ATOM      3  N   UNL     1      18.037   9.153   5.839  1.00  0.00    -0.274 N 
ATOM      4  C   UNL     1      18.702   9.182   7.038  1.00  0.00     0.321 C 
ATOM      5  O   UNL     1      18.440   8.298   7.861  1.00  0.00    -0.248 OA
ATOM      6  N   UNL     1      19.593  10.134   7.372  1.00  0.00    -0.334 N 
ATOM      7  H   UNL     1      17.361   8.402   5.892  1.00  0.00     0.175 HD
ATOM      8  H   UNL     1      19.929  10.062   8.322  1.00  0.00     0.165 HD
ENDROOT
BRANCH   1   9
ATOM      9  C   UNL     1      16.789   9.608   3.817  1.00  0.00     0.040 A 
ATOM     10  C   UNL     1      16.695  10.125   2.524  1.00  0.00     0.014 A 
ATOM     11  C   UNL     1      15.646   9.716   1.698  1.00  0.00     0.004 A 
ATOM     12  C   UNL     1      15.813   8.735   4.306  1.00  0.00     0.014 A 
ATOM     13  C   UNL     1      14.690   8.800   2.163  1.00  0.00    -0.051 A 
ATOM     14  C   UNL     1      14.771   8.324   3.477  1.00  0.00     0.004 A 
ATOM     15  C   UNL     1      13.619   8.306   1.236  1.00  0.00     0.044 C 
ENDBRANCH   1   9
BRANCH   6  16
ATOM     16  C   UNL     1      19.961  11.295   6.612  1.00  0.00     0.153 C 
BRANCH  16  17
ATOM     17  C   UNL     1      19.179  12.556   6.857  1.00  0.00    -0.029 A 
ATOM     18  C   UNL     1      19.401  13.742   6.150  1.00  0.00     0.006 A 
ATOM     19  C   UNL     1      18.047  12.460   7.683  1.00  0.00     0.006 A 
ATOM     20  C   UNL     1      18.490  14.799   6.252  1.00  0.00     0.004 A 
ATOM     21  C   UNL     1      17.139  13.510   7.780  1.00  0.00     0.004 A 
ATOM     22  C   UNL     1      17.347  14.686   7.057  1.00  0.00    -0.051 A 
ATOM     23  C   UNL     1      16.296  15.755   7.060  1.00  0.00     0.044 C 
ENDBRANCH  16  17
ENDBRANCH   6  16
TORSDOF 3
ENDMDL
MODEL 9
REMARK VINA RESULT:    -4.997      8.132     11.291
REMARK INTER + INTRA:          -6.248
REMARK INTER:                  -5.898
REMARK INTRA:                  -0.350
REMARK UNBOUND:                -0.375
REMARK SMILES Cc1ccc(CNC(=O)NC(=O)c2ccc(C)cc2)cc1
REMARK SMILES IDX 11 1 12 2 10 3 8 4 9 5 7 6 13 9 19 10 18 11 14 12 16 13
REMARK SMILES IDX 15 14 17 15 6 16 5 17 4 18 20 19 3 20 21 21 2 22 1 23
REMARK H PARENT 10 7 7 8
ROOT
ATOM      1  C   UNL     1      19.430   9.668  -7.426  1.00  0.00     0.259 C 
ATOM      2  O   UNL     1      19.173   9.922  -6.257  1.00  0.00    -0.269 OA
ATOM      3  N   UNL     1      19.510   8.422  -8.054  1.00  0.00    -0.274 N 
ATOM      4  C   UNL     1      19.149   7.126  -7.785  1.00  0.00     0.321 C 
ATOM      5  O   UNL     1      19.277   6.295  -8.690  1.00  0.00    -0.248 OA
ATOM      6  N   UNL     1      18.639   6.726  -6.605  1.00  0.00    -0.334 N 
ATOM      7  H   UNL     1      19.761   8.463  -9.033  1.00  0.00     0.175 HD
ATOM      8  H   UNL     1      18.344   5.760  -6.597  1.00  0.00     0.165 HD
ENDROOT
BRANCH   1   9
ATOM      9  C   UNL     1      19.688  10.821  -8.310  1.00  0.00     0.040 A 
ATOM     10  C   UNL     1      18.921  11.047  -9.455  1.00  0.00     0.014 A 
ATOM     11  C   UNL     1      19.169  12.179 -10.231  1.00  0.00     0.004 A 
ATOM     12  C   UNL     1      20.735  11.685  -7.974  1.00  0.00     0.014 A 
ATOM     13  C   UNL     1      20.183  13.080  -9.874  1.00  0.00    -0.051 A 
ATOM     14  C   UNL     1      20.974  12.818  -8.749  1.00  0.00     0.004 A 
ATOM     15  C   UNL     1      20.381  14.336 -10.671  1.00  0.00     0.044 C 
ENDBRANCH   1   9
BRANCH   6  16
ATOM     16  C   UNL     1      18.315   7.541  -5.469  1.00  0.00     0.153 C 
BRANCH  16  17
ATOM     17  C   UNL     1      17.349   6.974  -4.466  1.00  0.00    -0.029 A 
ATOM     18  C   UNL     1      17.670   6.791  -3.116  1.00  0.00     0.006 A 
ATOM     19  C   UNL     1      16.013   6.825  -4.872  1.00  0.00     0.006 A 
ATOM     20  C   UNL     1      16.663   6.490  -2.193  1.00  0.00     0.004 A 
ATOM     21  C   UNL     1      15.013   6.530  -3.952  1.00  0.00     0.004 A 
ATOM     22  C   UNL     1      15.327   6.370  -2.601  1.00  0.00    -0.051 A 
ATOM     23  C   UNL     1      14.227   6.190  -1.599  1.00  0.00     0.044 C 
ENDBRANCH  16  17
ENDBRANCH   6  16
TORSDOF 3
ENDMDL
