MODEL 1
REMARK VINA RESULT:    -4.408      0.000      0.000
REMARK INTER + INTRA:          -6.104
REMARK INTER:                  -5.825
REMARK INTRA:                  -0.279
REMARK UNBOUND:                -0.279
REMARK SMILES [H]/N=C\C[C@H]1C[C@@H]1O[C@H]1CO[C@H]2C[C@@H](C3CC3)CCN2C1
REMARK SMILES IDX 7 1 6 2 5 3 8 4 9 5 14 6 13 7 18 8 12 9 19 10 20 11 11 12
REMARK SMILES IDX 21 13 10 14 15 15 16 16 17 17 4 18 3 19 2 20 1 21
REMARK H PARENT
ROOT
ATOM      1  C   UNL     1      19.223  13.146   6.322  1.00  0.00     0.122 C 
ATOM      2  C   UNL     1      18.964  14.590   6.648  1.00  0.00     0.039 C 
ATOM      3  C   UNL     1      17.859  13.582   6.784  1.00  0.00     0.026 C 
ENDROOT
BRANCH   1   4
ATOM      4  O   UNL     1      19.372  12.879   4.915  1.00  0.00    -0.371 OA
BRANCH   4   5
ATOM      5  C   UNL     1      20.004  11.631   4.584  1.00  0.00     0.158 C 
ATOM      6  C   UNL     1      16.048   9.411   2.009  1.00  0.00    -0.003 C 
ATOM      7  C   UNL     1      16.356   9.744   3.475  1.00  0.00     0.052 C 
ATOM      8  C   UNL     1      16.693  10.469   1.103  1.00  0.00     0.019 C 
ATOM      9  C   UNL     1      17.860   9.937   3.711  1.00  0.00     0.189 C 
ATOM     10  C   UNL     1      18.180  10.637   1.412  1.00  0.00     0.087 C 
ATOM     11  N   UNL     1      18.388  10.971   2.821  1.00  0.00    -0.276 NA
ATOM     12  O   UNL     1      18.015  10.285   5.088  1.00  0.00    -0.360 OA
ATOM     13  C   UNL     1      19.803  11.221   3.114  1.00  0.00     0.121 C 
ATOM     14  C   UNL     1      19.376  10.536   5.452  1.00  0.00     0.195 C 
BRANCH   6  15
ATOM     15  C   UNL     1      14.559   9.334   1.759  1.00  0.00    -0.008 C 
ATOM     16  C   UNL     1      13.940   8.069   1.214  1.00  0.00     0.004 C 
ATOM     17  C   UNL     1      13.671   8.481   2.632  1.00  0.00     0.004 C 
ENDBRANCH   6  15
ENDBRANCH   4   5
ENDBRANCH   1   4
BRANCH   3  18
ATOM     18  C   UNL     1      17.373  13.217   8.155  1.00  0.00     0.053 C 
BRANCH  18  19
ATOM     19  C   UNL     1      16.084  12.439   8.219  1.00  0.00     0.074 C 
BRANCH  19  20
ATOM     20  N   UNL     1      15.382  12.225   9.282  1.00  0.00    -0.313 NA
ATOM     21  H   UNL     1      14.496  11.749   9.061  1.00  0.00     0.186 HD
ENDBRANCH  19  20
ENDBRANCH  18  19
ENDBRANCH   3  18
TORSDOF 6
ENDMDL
MODEL 2
REMARK VINA RESULT:    -4.189      8.323     10.764
REMARK INTER + INTRA:          -5.815
REMARK INTER:                  -5.577
REMARK INTRA:                  -0.238
REMARK UNBOUND:                -0.279
REMARK SMILES [H]/N=C\C[C@H]1C[C@@H]1O[C@H]1CO[C@H]2C[C@@H](C3CC3)CCN2C1
REMARK SMILES IDX 7 1 6 2 5 3 8 4 9 5 14 6 13 7 18 8 12 9 19 10 20 11 11 12
REMARK SMILES IDX 21 13 10 14 15 15 16 16 17 17 4 18 3 19 2 20 1 21
REMARK H PARENT
ROOT
ATOM      1  C   UNL     1      15.075   6.834  -2.857  1.00  0.00     0.122 C 
ATOM      2  C   UNL     1      16.527   6.447  -2.845  1.00  0.00     0.039 C 
ATOM      3  C   UNL     1      15.748   6.396  -4.128  1.00  0.00     0.026 C 
ENDROOT
BRANCH   1   4
ATOM      4  O   UNL     1      14.207   5.875  -2.223  1.00  0.00    -0.371 OA
BRANCH   4   5
ATOM      5  C   UNL     1      14.255   5.849  -0.787  1.00  0.00     0.158 C 
ATOM      6  C   UNL     1       9.140   5.487   0.163  1.00  0.00    -0.003 C 
ATOM      7  C   UNL     1      10.088   6.581  -0.341  1.00  0.00     0.052 C 
ATOM      8  C   UNL     1       9.651   4.117  -0.306  1.00  0.00     0.019 C 
ATOM      9  C   UNL     1      11.546   6.293   0.043  1.00  0.00     0.189 C 
ATOM     10  C   UNL     1      11.116   3.907   0.077  1.00  0.00     0.087 C 
ATOM     11  N   UNL     1      11.955   4.980  -0.455  1.00  0.00    -0.276 NA
ATOM     12  O   UNL     1      12.332   7.348  -0.515  1.00  0.00    -0.360 OA
ATOM     13  C   UNL     1      13.375   4.747  -0.171  1.00  0.00     0.121 C 
ATOM     14  C   UNL     1      13.733   7.193  -0.269  1.00  0.00     0.195 C 
BRANCH   6  15
ATOM     15  C   UNL     1       7.724   5.716  -0.315  1.00  0.00    -0.008 C 
ATOM     16  C   UNL     1       6.566   5.614   0.649  1.00  0.00     0.004 C 
ATOM     17  C   UNL     1       6.960   6.952   0.095  1.00  0.00     0.004 C 
ENDBRANCH   6  15
ENDBRANCH   4   5
ENDBRANCH   1   4
BRANCH   3  18
ATOM     18  C   UNL     1      16.054   7.394  -5.205  1.00  0.00     0.053 C 
BRANCH  18  19
ATOM     19  C   UNL     1      17.485   7.452  -5.672  1.00  0.00     0.074 C 
BRANCH  19  20
ATOM     20  N   UNL     1      18.038   6.649  -6.519  1.00  0.00    -0.313 NA
ATOM     21  H   UNL     1      18.921   7.033  -6.885  1.00  0.00     0.186 HD
ENDBRANCH  19  20
ENDBRANCH  18  19
ENDBRANCH   3  18
TORSDOF 6
ENDMDL
MODEL 3
REMARK VINA RESULT:    -4.157      5.348      8.331
REMARK INTER + INTRA:          -5.773
REMARK INTER:                  -5.575
REMARK INTRA:                  -0.198
REMARK UNBOUND:                -0.279
REMARK SMILES [H]/N=C\C[C@H]1C[C@@H]1O[C@H]1CO[C@H]2C[C@@H](C3CC3)CCN2C1
REMARK SMILES IDX 7 1 6 2 5 3 8 4 9 5 14 6 13 7 18 8 12 9 19 10 20 11 11 12
REMARK SMILES IDX 21 13 10 14 15 15 16 16 17 17 4 18 3 19 2 20 1 21
REMARK H PARENT
ROOT
ATOM      1  C   UNL     1      14.514   7.978   1.844  1.00  0.00     0.122 C 
ATOM      2  C   UNL     1      15.193   9.318   1.872  1.00  0.00     0.039 C 
ATOM      3  C   UNL     1      14.600   8.753   3.131  1.00  0.00     0.026 C 
ENDROOT
BRANCH   1   4
ATOM      4  O   UNL     1      13.239   7.979   1.175  1.00  0.00    -0.371 OA
BRANCH   4   5
ATOM      5  C   UNL     1      13.293   8.034  -0.260  1.00  0.00     0.158 C 
ATOM      6  C   UNL     1       9.716   4.387  -1.317  1.00  0.00    -0.003 C 
ATOM      7  C   UNL     1      11.150   4.394  -0.771  1.00  0.00     0.052 C 
ATOM      8  C   UNL     1       8.996   5.666  -0.868  1.00  0.00     0.019 C 
ATOM      9  C   UNL     1      11.891   5.688  -1.133  1.00  0.00     0.189 C 
ATOM     10  C   UNL     1       9.801   6.915  -1.228  1.00  0.00     0.087 C 
ATOM     11  N   UNL     1      11.146   6.854  -0.655  1.00  0.00    -0.276 NA
ATOM     12  O   UNL     1      13.186   5.598  -0.536  1.00  0.00    -0.360 OA
ATOM     13  C   UNL     1      11.902   8.083  -0.918  1.00  0.00     0.121 C 
ATOM     14  C   UNL     1      13.988   6.762  -0.759  1.00  0.00     0.195 C 
BRANCH   6  15
ATOM     15  C   UNL     1       8.955   3.162  -0.861  1.00  0.00    -0.008 C 
ATOM     16  C   UNL     1       8.014   2.453  -1.805  1.00  0.00     0.004 C 
ATOM     17  C   UNL     1       9.299   1.794  -1.397  1.00  0.00     0.004 C 
ENDBRANCH   6  15
ENDBRANCH   4   5
ENDBRANCH   1   4
BRANCH   3  18
ATOM     18  C   UNL     1      15.517   8.300   4.226  1.00  0.00     0.053 C 
BRANCH  18  19
ATOM     19  C   UNL     1      16.522   9.310   4.715  1.00  0.00     0.074 C 
BRANCH  19  20
ATOM     20  N   UNL     1      16.259  10.363   5.416  1.00  0.00    -0.313 NA
ATOM     21  H   UNL     1      15.297  10.694   5.256  1.00  0.00     0.186 HD
ENDBRANCH  19  20
ENDBRANCH  18  19
ENDBRANCH   3  18
TORSDOF 6
ENDMDL
MODEL 4
REMARK VINA RESULT:    -3.981      7.944     10.179
REMARK INTER + INTRA:          -5.540
REMARK INTER:                  -5.449
REMARK INTRA:                  -0.091
REMARK UNBOUND:                -0.279
REMARK SMILES [H]/N=C\C[C@H]1C[C@@H]1O[C@H]1CO[C@H]2C[C@@H](C3CC3)CCN2C1
REMARK SMILES IDX 7 1 6 2 5 3 8 4 9 5 14 6 13 7 18 8 12 9 19 10 20 11 11 12
REMARK SMILES IDX 21 13 10 14 15 15 16 16 17 17 4 18 3 19 2 20 1 21
REMARK H PARENT
ROOT
ATOM      1  C   UNL     1      13.586   6.845  -1.045  1.00  0.00     0.122 C 
ATOM      2  C   UNL     1      13.379   7.722   0.157  1.00  0.00     0.039 C 
ATOM      3  C   UNL     1      12.481   7.865  -1.039  1.00  0.00     0.026 C 
ENDROOT
BRANCH   1   4
ATOM      4  O   UNL     1      14.760   7.170  -1.814  1.00  0.00    -0.371 OA
BRANCH   4   5
ATOM      5  C   UNL     1      15.455   6.051  -2.388  1.00  0.00     0.158 C 
ATOM      6  C   UNL     1      18.153   8.600  -6.053  1.00  0.00    -0.003 C 
ATOM      7  C   UNL     1      16.685   8.210  -5.841  1.00  0.00     0.052 C 
ATOM      8  C   UNL     1      18.811   8.857  -4.690  1.00  0.00     0.019 C 
ATOM      9  C   UNL     1      16.541   7.049  -4.848  1.00  0.00     0.189 C 
ATOM     10  C   UNL     1      18.602   7.679  -3.738  1.00  0.00     0.087 C 
ATOM     11  N   UNL     1      17.179   7.384  -3.575  1.00  0.00    -0.276 NA
ATOM     12  O   UNL     1      15.140   6.809  -4.700  1.00  0.00    -0.360 OA
ATOM     13  C   UNL     1      16.957   6.312  -2.597  1.00  0.00     0.121 C 
ATOM     14  C   UNL     1      14.845   5.767  -3.764  1.00  0.00     0.195 C 
BRANCH   6  15
ATOM     15  C   UNL     1      18.281   9.816  -6.942  1.00  0.00    -0.008 C 
ATOM     16  C   UNL     1      19.557  10.068  -7.711  1.00  0.00     0.004 C 
ATOM     17  C   UNL     1      18.307   9.676  -8.445  1.00  0.00     0.004 C 
ENDBRANCH   6  15
ENDBRANCH   4   5
ENDBRANCH   1   4
BRANCH   3  18
ATOM     18  C   UNL     1      11.051   7.430  -0.931  1.00  0.00     0.053 C 
BRANCH  18  19
ATOM     19  C   UNL     1      10.051   8.219  -1.735  1.00  0.00     0.074 C 
BRANCH  19  20
ATOM     20  N   UNL     1      10.040   9.502  -1.880  1.00  0.00    -0.313 NA
ATOM     21  H   UNL     1       9.080   9.867  -1.959  1.00  0.00     0.186 HD
ENDBRANCH  19  20
ENDBRANCH  18  19
ENDBRANCH   3  18
TORSDOF 6
ENDMDL
MODEL 5
REMARK VINA RESULT:    -3.979      3.620      8.079
REMARK INTER + INTRA:          -5.538
REMARK INTER:                  -5.349
REMARK INTRA:                  -0.189
REMARK UNBOUND:                -0.279
REMARK SMILES [H]/N=C\C[C@H]1C[C@@H]1O[C@H]1CO[C@H]2C[C@@H](C3CC3)CCN2C1
REMARK SMILES IDX 7 1 6 2 5 3 8 4 9 5 14 6 13 7 18 8 12 9 19 10 20 11 11 12
REMARK SMILES IDX 21 13 10 14 15 15 16 16 17 17 4 18 3 19 2 20 1 21
REMARK H PARENT
ROOT
ATOM      1  C   UNL     1      13.535   6.853   0.004  1.00  0.00     0.122 C 
ATOM      2  C   UNL     1      14.100   6.150  -1.198  1.00  0.00     0.039 C 
ATOM      3  C   UNL     1      13.593   5.350  -0.032  1.00  0.00     0.026 C 
ENDROOT
BRANCH   1   4
ATOM      4  O   UNL     1      14.524   7.517   0.813  1.00  0.00    -0.371 OA
BRANCH   4   5
ATOM      5  C   UNL     1      14.128   8.786   1.359  1.00  0.00     0.158 C 
ATOM      6  C   UNL     1      17.806   9.244   5.029  1.00  0.00    -0.003 C 
ATOM      7  C   UNL     1      16.553   8.382   4.831  1.00  0.00     0.052 C 
ATOM      8  C   UNL     1      18.435   9.545   3.662  1.00  0.00     0.019 C 
ATOM      9  C   UNL     1      15.583   9.009   3.821  1.00  0.00     0.189 C 
ATOM     10  C   UNL     1      17.410  10.136   2.693  1.00  0.00     0.087 C 
ATOM     11  N   UNL     1      16.258   9.247   2.545  1.00  0.00    -0.276 NA
ATOM     12  O   UNL     1      14.488   8.101   3.687  1.00  0.00    -0.360 OA
ATOM     13  C   UNL     1      15.306   9.758   1.552  1.00  0.00     0.121 C 
ATOM     14  C   UNL     1      13.510   8.539   2.739  1.00  0.00     0.195 C 
BRANCH   6  15
ATOM     15  C   UNL     1      18.807   8.567   5.937  1.00  0.00    -0.008 C 
ATOM     16  C   UNL     1      19.656   9.384   6.882  1.00  0.00     0.004 C 
ATOM     17  C   UNL     1      18.576   8.494   7.427  1.00  0.00     0.004 C 
ENDBRANCH   6  15
ENDBRANCH   4   5
ENDBRANCH   1   4
BRANCH   3  18
ATOM     18  C   UNL     1      12.335   4.549  -0.192  1.00  0.00     0.053 C 
BRANCH  18  19
ATOM     19  C   UNL     1      12.263   3.261   0.585  1.00  0.00     0.074 C 
BRANCH  19  20
ATOM     20  N   UNL     1      13.233   2.426   0.758  1.00  0.00    -0.313 NA
ATOM     21  H   UNL     1      13.852   2.386  -0.064  1.00  0.00     0.186 HD
ENDBRANCH  19  20
ENDBRANCH  18  19
ENDBRANCH   3  18
TORSDOF 6
ENDMDL
MODEL 6
REMARK VINA RESULT:    -3.823      6.305      9.722
REMARK INTER + INTRA:          -5.332
REMARK INTER:                  -5.145
REMARK INTRA:                  -0.187
REMARK UNBOUND:                -0.279
REMARK SMILES [H]/N=C\C[C@H]1C[C@@H]1O[C@H]1CO[C@H]2C[C@@H](C3CC3)CCN2C1
REMARK SMILES IDX 7 1 6 2 5 3 8 4 9 5 14 6 13 7 18 8 12 9 19 10 20 11 11 12
REMARK SMILES IDX 21 13 10 14 15 15 16 16 17 17 4 18 3 19 2 20 1 21
REMARK H PARENT
ROOT
ATOM      1  C   UNL     1      16.967   8.334  -5.844  1.00  0.00     0.122 C 
ATOM      2  C   UNL     1      16.399   9.186  -6.944  1.00  0.00     0.039 C 
ATOM      3  C   UNL     1      17.254   9.811  -5.879  1.00  0.00     0.026 C 
ENDROOT
BRANCH   1   4
ATOM      4  O   UNL     1      15.992   7.889  -4.882  1.00  0.00    -0.371 OA
BRANCH   4   5
ATOM      5  C   UNL     1      16.227   6.589  -4.318  1.00  0.00     0.158 C 
ATOM      6  C   UNL     1      14.068   7.367   0.366  1.00  0.00    -0.003 C 
ATOM      7  C   UNL     1      15.345   7.831  -0.345  1.00  0.00     0.052 C 
ATOM      8  C   UNL     1      12.948   7.187  -0.668  1.00  0.00     0.019 C 
ATOM      9  C   UNL     1      15.714   6.906  -1.513  1.00  0.00     0.189 C 
ATOM     10  C   UNL     1      13.391   6.285  -1.820  1.00  0.00     0.087 C 
ATOM     11  N   UNL     1      14.601   6.805  -2.456  1.00  0.00    -0.276 NA
ATOM     12  O   UNL     1      16.882   7.462  -2.121  1.00  0.00    -0.360 OA
ATOM     13  C   UNL     1      14.989   5.999  -3.619  1.00  0.00     0.121 C 
ATOM     14  C   UNL     1      17.328   6.720  -3.260  1.00  0.00     0.195 C 
BRANCH   6  15
ATOM     15  C   UNL     1      13.646   8.342   1.441  1.00  0.00    -0.008 C 
ATOM     16  C   UNL     1      14.174   8.203   2.850  1.00  0.00     0.004 C 
ATOM     17  C   UNL     1      14.621   9.353   1.995  1.00  0.00     0.004 C 
ENDBRANCH   6  15
ENDBRANCH   4   5
ENDBRANCH   1   4
BRANCH   3  18
ATOM     18  C   UNL     1      18.621  10.307  -6.244  1.00  0.00     0.053 C 
BRANCH  18  19
ATOM     19  C   UNL     1      19.406  10.966  -5.140  1.00  0.00     0.074 C 
BRANCH  19  20
ATOM     20  N   UNL     1      19.138  10.904  -3.878  1.00  0.00    -0.313 NA
ATOM     21  H   UNL     1      19.323   9.966  -3.496  1.00  0.00     0.186 HD
ENDBRANCH  19  20
ENDBRANCH  18  19
ENDBRANCH   3  18
TORSDOF 6
ENDMDL
MODEL 7
REMARK VINA RESULT:    -3.810      4.065      5.936
REMARK INTER + INTRA:          -5.314
REMARK INTER:                  -5.116
REMARK INTRA:                  -0.198
REMARK UNBOUND:                -0.279
REMARK SMILES [H]/N=C\C[C@H]1C[C@@H]1O[C@H]1CO[C@H]2C[C@@H](C3CC3)CCN2C1
REMARK SMILES IDX 7 1 6 2 5 3 8 4 9 5 14 6 13 7 18 8 12 9 19 10 20 11 11 12
REMARK SMILES IDX 21 13 10 14 15 15 16 16 17 17 4 18 3 19 2 20 1 21
REMARK H PARENT
ROOT
ATOM      1  C   UNL     1      16.918   8.522   4.851  1.00  0.00     0.122 C 
ATOM      2  C   UNL     1      17.207   7.550   5.960  1.00  0.00     0.039 C 
ATOM      3  C   UNL     1      18.227   7.782   4.882  1.00  0.00     0.026 C 
ENDROOT
BRANCH   1   4
ATOM      4  O   UNL     1      15.936   8.058   3.904  1.00  0.00    -0.371 OA
BRANCH   4   5
ATOM      5  C   UNL     1      15.094   9.074   3.337  1.00  0.00     0.158 C 
ATOM      6  C   UNL     1      14.319   6.920  -1.350  1.00  0.00    -0.003 C 
ATOM      7  C   UNL     1      15.492   7.599  -0.634  1.00  0.00     0.052 C 
ATOM      8  C   UNL     1      13.456   6.178  -0.319  1.00  0.00     0.019 C 
ATOM      9  C   UNL     1      15.018   8.477   0.532  1.00  0.00     0.189 C 
ATOM     10  C   UNL     1      13.046   7.097   0.831  1.00  0.00     0.087 C 
ATOM     11  N   UNL     1      14.221   7.689   1.472  1.00  0.00    -0.276 NA
ATOM     12  O   UNL     1      16.192   9.014   1.144  1.00  0.00    -0.360 OA
ATOM     13  C   UNL     1      13.849   8.506   2.633  1.00  0.00     0.121 C 
ATOM     14  C   UNL     1      15.907   9.832   2.282  1.00  0.00     0.195 C 
BRANCH   6  15
ATOM     15  C   UNL     1      14.799   5.969  -2.423  1.00  0.00    -0.008 C 
ATOM     16  C   UNL     1      15.038   6.463  -3.830  1.00  0.00     0.004 C 
ATOM     17  C   UNL     1      16.202   6.065  -2.970  1.00  0.00     0.004 C 
ENDBRANCH   6  15
ENDBRANCH   4   5
ENDBRANCH   1   4
BRANCH   3  18
ATOM     18  C   UNL     1      19.495   8.504   5.225  1.00  0.00     0.053 C 
BRANCH  18  19
ATOM     19  C   UNL     1      20.522   8.604   4.128  1.00  0.00     0.074 C 
BRANCH  19  20
ATOM     20  N   UNL     1      20.301   8.440   2.866  1.00  0.00    -0.313 NA
ATOM     21  H   UNL     1      19.791   9.239   2.463  1.00  0.00     0.186 HD
ENDBRANCH  19  20
ENDBRANCH  18  19
ENDBRANCH   3  18
TORSDOF 6
ENDMDL
MODEL 8
REMARK VINA RESULT:    -3.455      4.912      6.798
REMARK INTER + INTRA:          -4.845
REMARK INTER:                  -4.564
REMARK INTRA:                  -0.282
REMARK UNBOUND:                -0.279
REMARK SMILES [H]/N=C\C[C@H]1C[C@@H]1O[C@H]1CO[C@H]2C[C@@H](C3CC3)CCN2C1
REMARK SMILES IDX 7 1 6 2 5 3 8 4 9 5 14 6 13 7 18 8 12 9 19 10 20 11 11 12
REMARK SMILES IDX 21 13 10 14 15 15 16 16 17 17 4 18 3 19 2 20 1 21
REMARK H PARENT
ROOT
ATOM      1  C   UNL     1      19.906  10.620  -0.031  1.00  0.00     0.122 C 
ATOM      2  C   UNL     1      19.668  12.035   0.416  1.00  0.00     0.039 C 
ATOM      3  C   UNL     1      18.520  11.071   0.340  1.00  0.00     0.026 C 
ENDROOT
BRANCH   1   4
ATOM      4  O   UNL     1      20.187  10.488  -1.437  1.00  0.00    -0.371 OA
BRANCH   4   5
ATOM      5  C   UNL     1      20.875   9.287  -1.821  1.00  0.00     0.158 C 
ATOM      6  C   UNL     1      16.836   6.681  -3.846  1.00  0.00    -0.003 C 
ATOM      7  C   UNL     1      17.291   7.079  -2.436  1.00  0.00     0.052 C 
ATOM      8  C   UNL     1      17.274   7.762  -4.844  1.00  0.00     0.019 C 
ATOM      9  C   UNL     1      18.791   7.400  -2.391  1.00  0.00     0.189 C 
ATOM     10  C   UNL     1      18.769   8.059  -4.725  1.00  0.00     0.087 C 
ATOM     11  N   UNL     1      19.118   8.448  -3.359  1.00  0.00    -0.276 NA
ATOM     12  O   UNL     1      19.084   7.798  -1.050  1.00  0.00    -0.360 OA
ATOM     13  C   UNL     1      20.532   8.821  -3.247  1.00  0.00     0.121 C 
ATOM     14  C   UNL     1      20.453   8.169  -0.862  1.00  0.00     0.195 C 
BRANCH   6  15
ATOM     15  C   UNL     1      15.339   6.477  -3.908  1.00  0.00    -0.008 C 
ATOM     16  C   UNL     1      14.739   5.126  -3.596  1.00  0.00     0.004 C 
ATOM     17  C   UNL     1      14.533   6.272  -2.648  1.00  0.00     0.004 C 
ENDBRANCH   6  15
ENDBRANCH   4   5
ENDBRANCH   1   4
BRANCH   3  18
ATOM     18  C   UNL     1      17.885  10.595   1.612  1.00  0.00     0.053 C 
BRANCH  18  19
ATOM     19  C   UNL     1      16.469  10.092   1.503  1.00  0.00     0.074 C 
BRANCH  19  20
ATOM     20  N   UNL     1      16.098   8.989   0.943  1.00  0.00    -0.313 NA
ATOM     21  H   UNL     1      15.132   8.740   1.197  1.00  0.00     0.186 HD
ENDBRANCH  19  20
ENDBRANCH  18  19
ENDBRANCH   3  18
TORSDOF 6
ENDMDL
MODEL 9
REMARK VINA RESULT:    -3.428      1.981      2.534
REMARK INTER + INTRA:          -4.810
REMARK INTER:                  -5.142
REMARK INTRA:                   0.332
REMARK UNBOUND:                -0.279
REMARK SMILES [H]/N=C\C[C@H]1C[C@@H]1O[C@H]1CO[C@H]2C[C@@H](C3CC3)CCN2C1
REMARK SMILES IDX 7 1 6 2 5 3 8 4 9 5 14 6 13 7 18 8 12 9 19 10 20 11 11 12
REMARK SMILES IDX 21 13 10 14 15 15 16 16 17 17 4 18 3 19 2 20 1 21
REMARK H PARENT
ROOT
ATOM      1  C   UNL     1      18.469  11.884   7.308  1.00  0.00     0.122 C 
ATOM      2  C   UNL     1      17.056  12.183   7.723  1.00  0.00     0.039 C 
ATOM      3  C   UNL     1      18.130  13.213   7.925  1.00  0.00     0.026 C 
ENDROOT
BRANCH   1   4
ATOM      4  O   UNL     1      19.141  10.932   8.154  1.00  0.00    -0.371 OA
BRANCH   4   5
ATOM      5  C   UNL     1      19.831   9.873   7.470  1.00  0.00     0.158 C 
ATOM      6  C   UNL     1      16.481   9.170   3.534  1.00  0.00    -0.003 C 
ATOM      7  C   UNL     1      16.488   8.869   5.038  1.00  0.00     0.052 C 
ATOM      8  C   UNL     1      17.290  10.448   3.269  1.00  0.00     0.019 C 
ATOM      9  C   UNL     1      17.913   8.836   5.606  1.00  0.00     0.189 C 
ATOM     10  C   UNL     1      18.685  10.364   3.889  1.00  0.00     0.087 C 
ATOM     11  N   UNL     1      18.604  10.094   5.325  1.00  0.00    -0.276 NA
ATOM     12  O   UNL     1      17.788   8.595   7.009  1.00  0.00    -0.360 OA
ATOM     13  C   UNL     1      19.931  10.097   5.951  1.00  0.00     0.121 C 
ATOM     14  C   UNL     1      19.047   8.575   7.689  1.00  0.00     0.195 C 
BRANCH   6  15
ATOM     15  C   UNL     1      15.073   9.315   3.003  1.00  0.00    -0.008 C 
ATOM     16  C   UNL     1      14.712   8.777   1.638  1.00  0.00     0.004 C 
ATOM     17  C   UNL     1      14.170   8.112   2.870  1.00  0.00     0.004 C 
ENDBRANCH   6  15
ENDBRANCH   4   5
ENDBRANCH   1   4
BRANCH   3  18
ATOM     18  C   UNL     1      18.113  14.454   7.085  1.00  0.00     0.053 C 
BRANCH  18  19
ATOM     19  C   UNL     1      16.880  15.314   7.190  1.00  0.00     0.074 C 
BRANCH  19  20
ATOM     20  N   UNL     1      15.798  15.173   6.499  1.00  0.00    -0.313 NA
ATOM     21  H   UNL     1      15.914  14.475   5.750  1.00  0.00     0.186 HD
ENDBRANCH  19  20
ENDBRANCH  18  19
ENDBRANCH   3  18
TORSDOF 6
ENDMDL
