MODEL 1
REMARK VINA RESULT:    -3.973      0.000      0.000
REMARK INTER + INTRA:          -5.523
REMARK INTER:                  -5.250
REMARK INTRA:                  -0.273
REMARK UNBOUND:                -0.273
REMARK SMILES [H]/N=C\C[C@H]1C[C@@H]1O[C@H]1CO[C@H]2C[C@@H](C3CC3)CCN2C1
REMARK SMILES IDX 7 1 6 2 5 3 8 4 9 5 14 6 13 7 18 8 12 9 19 10 20 11 11 12
REMARK SMILES IDX 21 13 10 14 15 15 16 16 17 17 4 18 3 19 2 20 1 21
REMARK H PARENT
ROOT
ATOM      1  C   UNL     1      -7.417  10.762  -0.782  1.00  0.00     0.122 C 
ATOM      2  C   UNL     1      -6.905  10.455  -2.162  1.00  0.00     0.039 C 
ATOM      3  C   UNL     1      -8.384  10.477  -1.899  1.00  0.00     0.026 C 
ENDROOT
BRANCH   1   4
ATOM      4  O   UNL     1      -7.204   9.704   0.171  1.00  0.00    -0.371 OA
BRANCH   4   5
ATOM      5  C   UNL     1      -6.400  10.050   1.311  1.00  0.00     0.158 C 
ATOM      6  C   UNL     1      -4.202   5.397   2.160  1.00  0.00    -0.003 C 
ATOM      7  C   UNL     1      -5.599   6.001   2.344  1.00  0.00     0.052 C 
ATOM      8  C   UNL     1      -3.523   6.047   0.947  1.00  0.00     0.019 C 
ATOM      9  C   UNL     1      -5.554   7.534   2.399  1.00  0.00     0.189 C 
ATOM     10  C   UNL     1      -3.542   7.572   1.047  1.00  0.00     0.087 C 
ATOM     11  N   UNL     1      -4.909   8.070   1.201  1.00  0.00    -0.276 NA
ATOM     12  O   UNL     1      -6.907   7.978   2.524  1.00  0.00    -0.360 OA
ATOM     13  C   UNL     1      -4.953   9.536   1.211  1.00  0.00     0.121 C 
ATOM     14  C   UNL     1      -7.028   9.404   2.551  1.00  0.00     0.195 C 
BRANCH   6  15
ATOM     15  C   UNL     1      -4.264   3.895   1.992  1.00  0.00    -0.008 C 
ATOM     16  C   UNL     1      -3.429   2.993   2.870  1.00  0.00     0.004 C 
ATOM     17  C   UNL     1      -4.921   3.026   3.037  1.00  0.00     0.004 C 
ENDBRANCH   6  15
ENDBRANCH   4   5
ENDBRANCH   1   4
BRANCH   3  18
ATOM     18  C   UNL     1      -9.209  11.584  -2.484  1.00  0.00     0.053 C 
BRANCH  18  19
ATOM     19  C   UNL     1     -10.669  11.282  -2.703  1.00  0.00     0.074 C 
BRANCH  19  20
ATOM     20  N   UNL     1     -11.648  11.715  -1.980  1.00  0.00    -0.313 NA
ATOM     21  H   UNL     1     -11.425  12.618  -1.539  1.00  0.00     0.186 HD
ENDBRANCH  19  20
ENDBRANCH  18  19
ENDBRANCH   3  18
TORSDOF 6
ENDMDL
MODEL 2
REMARK VINA RESULT:    -3.959      3.059      5.477
REMARK INTER + INTRA:          -5.504
REMARK INTER:                  -5.187
REMARK INTRA:                  -0.317
REMARK UNBOUND:                -0.273
REMARK SMILES [H]/N=C\C[C@H]1C[C@@H]1O[C@H]1CO[C@H]2C[C@@H](C3CC3)CCN2C1
REMARK SMILES IDX 7 1 6 2 5 3 8 4 9 5 14 6 13 7 18 8 12 9 19 10 20 11 11 12
REMARK SMILES IDX 21 13 10 14 15 15 16 16 17 17 4 18 3 19 2 20 1 21
REMARK H PARENT
ROOT
ATOM      1  C   UNL     1      -7.167  10.267   4.575  1.00  0.00     0.122 C 
ATOM      2  C   UNL     1      -6.797   9.522   5.826  1.00  0.00     0.039 C 
ATOM      3  C   UNL     1      -6.443  10.975   5.687  1.00  0.00     0.026 C 
ENDROOT
BRANCH   1   4
ATOM      4  O   UNL     1      -6.382   9.905   3.422  1.00  0.00    -0.371 OA
BRANCH   4   5
ATOM      5  C   UNL     1      -7.131   9.501   2.265  1.00  0.00     0.158 C 
ATOM      6  C   UNL     1      -3.848   5.884   0.434  1.00  0.00    -0.003 C 
ATOM      7  C   UNL     1      -3.861   7.415   0.516  1.00  0.00     0.052 C 
ATOM      8  C   UNL     1      -4.591   5.305   1.646  1.00  0.00     0.019 C 
ATOM      9  C   UNL     1      -5.282   7.965   0.699  1.00  0.00     0.189 C 
ATOM     10  C   UNL     1      -5.984   5.918   1.792  1.00  0.00     0.087 C 
ATOM     11  N   UNL     1      -5.908   7.376   1.882  1.00  0.00    -0.276 NA
ATOM     12  O   UNL     1      -5.160   9.384   0.807  1.00  0.00    -0.360 OA
ATOM     13  C   UNL     1      -7.229   7.973   2.110  1.00  0.00     0.121 C 
ATOM     14  C   UNL     1      -6.414  10.039   1.022  1.00  0.00     0.195 C 
BRANCH   6  15
ATOM     15  C   UNL     1      -2.438   5.343   0.368  1.00  0.00    -0.008 C 
ATOM     16  C   UNL     1      -2.037   4.385  -0.729  1.00  0.00     0.004 C 
ATOM     17  C   UNL     1      -1.491   5.783  -0.722  1.00  0.00     0.004 C 
ENDBRANCH   6  15
ENDBRANCH   4   5
ENDBRANCH   1   4
BRANCH   3  18
ATOM     18  C   UNL     1      -7.161  11.982   6.535  1.00  0.00     0.053 C 
BRANCH  18  19
ATOM     19  C   UNL     1      -6.322  13.101   7.095  1.00  0.00     0.074 C 
BRANCH  19  20
ATOM     20  N   UNL     1      -5.115  13.393   6.740  1.00  0.00    -0.313 NA
ATOM     21  H   UNL     1      -4.616  12.568   6.379  1.00  0.00     0.186 HD
ENDBRANCH  19  20
ENDBRANCH  18  19
ENDBRANCH   3  18
TORSDOF 6
ENDMDL
MODEL 3
REMARK VINA RESULT:    -3.819      2.560      8.448
REMARK INTER + INTRA:          -5.320
REMARK INTER:                  -5.141
REMARK INTRA:                  -0.179
REMARK UNBOUND:                -0.273
REMARK SMILES [H]/N=C\C[C@H]1C[C@@H]1O[C@H]1CO[C@H]2C[C@@H](C3CC3)CCN2C1
REMARK SMILES IDX 7 1 6 2 5 3 8 4 9 5 14 6 13 7 18 8 12 9 19 10 20 11 11 12
REMARK SMILES IDX 21 13 10 14 15 15 16 16 17 17 4 18 3 19 2 20 1 21
REMARK H PARENT
ROOT
ATOM      1  C   UNL     1      -6.656   9.165   1.197  1.00  0.00     0.122 C 
ATOM      2  C   UNL     1      -6.883   9.086   2.681  1.00  0.00     0.039 C 
ATOM      3  C   UNL     1      -7.337   7.962   1.793  1.00  0.00     0.026 C 
ENDROOT
BRANCH   1   4
ATOM      4  O   UNL     1      -7.502  10.116   0.524  1.00  0.00    -0.371 OA
BRANCH   4   5
ATOM      5  C   UNL     1      -6.860  10.906  -0.491  1.00  0.00     0.158 C 
ATOM      6  C   UNL     1     -11.124  12.684  -2.912  1.00  0.00    -0.003 C 
ATOM      7  C   UNL     1     -10.401  11.336  -2.809  1.00  0.00     0.052 C 
ATOM      8  C   UNL     1     -10.948  13.456  -1.596  1.00  0.00     0.019 C 
ATOM      9  C   UNL     1      -8.939  11.504  -2.374  1.00  0.00     0.189 C 
ATOM     10  C   UNL     1      -9.475  13.558  -1.202  1.00  0.00     0.087 C 
ATOM     11  N   UNL     1      -8.865  12.232  -1.108  1.00  0.00    -0.276 NA
ATOM     12  O   UNL     1      -8.390  10.190  -2.271  1.00  0.00    -0.360 OA
ATOM     13  C   UNL     1      -7.474  12.309  -0.646  1.00  0.00     0.121 C 
ATOM     14  C   UNL     1      -7.028  10.185  -1.832  1.00  0.00     0.195 C 
BRANCH   6  15
ATOM     15  C   UNL     1     -12.592  12.505  -3.229  1.00  0.00    -0.008 C 
ATOM     16  C   UNL     1     -13.322  13.526  -4.069  1.00  0.00     0.004 C 
ATOM     17  C   UNL     1     -13.044  12.161  -4.628  1.00  0.00     0.004 C 
ENDBRANCH   6  15
ENDBRANCH   4   5
ENDBRANCH   1   4
BRANCH   3  18
ATOM     18  C   UNL     1      -6.621   6.647   1.863  1.00  0.00     0.053 C 
BRANCH  18  19
ATOM     19  C   UNL     1      -7.466   5.417   1.651  1.00  0.00     0.074 C 
BRANCH  19  20
ATOM     20  N   UNL     1      -8.685   5.258   2.047  1.00  0.00    -0.313 NA
ATOM     21  H   UNL     1      -9.356   5.413   1.281  1.00  0.00     0.186 HD
ENDBRANCH  19  20
ENDBRANCH  18  19
ENDBRANCH   3  18
TORSDOF 6
ENDMDL
MODEL 4
REMARK VINA RESULT:    -3.780      5.017      8.408
REMARK INTER + INTRA:          -5.268
REMARK INTER:                  -5.070
REMARK INTRA:                  -0.198
REMARK UNBOUND:                -0.273
REMARK SMILES [H]/N=C\C[C@H]1C[C@@H]1O[C@H]1CO[C@H]2C[C@@H](C3CC3)CCN2C1
REMARK SMILES IDX 7 1 6 2 5 3 8 4 9 5 14 6 13 7 18 8 12 9 19 10 20 11 11 12
REMARK SMILES IDX 21 13 10 14 15 15 16 16 17 17 4 18 3 19 2 20 1 21
REMARK H PARENT
ROOT
ATOM      1  C   UNL     1      -6.206   9.405   2.244  1.00  0.00     0.122 C 
ATOM      2  C   UNL     1      -6.196   9.847   0.808  1.00  0.00     0.039 C 
ATOM      3  C   UNL     1      -4.901   9.690   1.552  1.00  0.00     0.026 C 
ENDROOT
BRANCH   1   4
ATOM      4  O   UNL     1      -6.680  10.406   3.164  1.00  0.00    -0.371 OA
BRANCH   4   5
ATOM      5  C   UNL     1      -7.485   9.919   4.250  1.00  0.00     0.158 C 
ATOM      6  C   UNL     1      -7.223  14.099   7.358  1.00  0.00    -0.003 C 
ATOM      7  C   UNL     1      -6.257  12.989   6.926  1.00  0.00     0.052 C 
ATOM      8  C   UNL     1      -8.195  14.401   6.208  1.00  0.00     0.019 C 
ATOM      9  C   UNL     1      -7.004  11.756   6.399  1.00  0.00     0.189 C 
ATOM     10  C   UNL     1      -8.879  13.129   5.707  1.00  0.00     0.087 C 
ATOM     11  N   UNL     1      -7.892  12.130   5.298  1.00  0.00    -0.276 NA
ATOM     12  O   UNL     1      -6.007  10.819   5.988  1.00  0.00    -0.360 OA
ATOM     13  C   UNL     1      -8.533  10.937   4.733  1.00  0.00     0.121 C 
ATOM     14  C   UNL     1      -6.559   9.621   5.433  1.00  0.00     0.195 C 
BRANCH   6  15
ATOM     15  C   UNL     1      -6.481  15.351   7.768  1.00  0.00    -0.008 C 
ATOM     16  C   UNL     1      -6.987  16.198   8.913  1.00  0.00     0.004 C 
ATOM     17  C   UNL     1      -5.721  15.408   9.071  1.00  0.00     0.004 C 
ENDBRANCH   6  15
ENDBRANCH   4   5
ENDBRANCH   1   4
BRANCH   3  18
ATOM     18  C   UNL     1      -3.981   8.565   1.180  1.00  0.00     0.053 C 
BRANCH  18  19
ATOM     19  C   UNL     1      -2.508   8.822   1.361  1.00  0.00     0.074 C 
BRANCH  19  20
ATOM     20  N   UNL     1      -1.864   9.863   0.950  1.00  0.00    -0.313 NA
ATOM     21  H   UNL     1      -2.504  10.627   0.691  1.00  0.00     0.186 HD
ENDBRANCH  19  20
ENDBRANCH  18  19
ENDBRANCH   3  18
TORSDOF 6
ENDMDL
MODEL 5
REMARK VINA RESULT:    -3.741      4.221      7.186
REMARK INTER + INTRA:          -5.217
REMARK INTER:                  -4.647
REMARK INTRA:                  -0.570
REMARK UNBOUND:                -0.273
REMARK SMILES [H]/N=C\C[C@H]1C[C@@H]1O[C@H]1CO[C@H]2C[C@@H](C3CC3)CCN2C1
REMARK SMILES IDX 7 1 6 2 5 3 8 4 9 5 14 6 13 7 18 8 12 9 19 10 20 11 11 12
REMARK SMILES IDX 21 13 10 14 15 15 16 16 17 17 4 18 3 19 2 20 1 21
REMARK H PARENT
ROOT
ATOM      1  C   UNL     1     -11.565  15.793  -0.007  1.00  0.00     0.122 C 
ATOM      2  C   UNL     1     -12.960  15.767   0.550  1.00  0.00     0.039 C 
ATOM      3  C   UNL     1     -11.835  15.138   1.320  1.00  0.00     0.026 C 
ENDROOT
BRANCH   1   4
ATOM      4  O   UNL     1     -11.365  14.914  -1.131  1.00  0.00    -0.371 OA
BRANCH   4   5
ATOM      5  C   UNL     1     -10.207  15.191  -1.936  1.00  0.00     0.158 C 
ATOM      6  C   UNL     1      -7.420  10.934  -0.788  1.00  0.00    -0.003 C 
ATOM      7  C   UNL     1      -7.822  12.216  -0.049  1.00  0.00     0.052 C 
ATOM      8  C   UNL     1      -8.536  10.543  -1.767  1.00  0.00     0.019 C 
ATOM      9  C   UNL     1      -8.221  13.334  -1.022  1.00  0.00     0.189 C 
ATOM     10  C   UNL     1      -8.910  11.708  -2.683  1.00  0.00     0.087 C 
ATOM     11  N   UNL     1      -9.298  12.883  -1.903  1.00  0.00    -0.276 NA
ATOM     12  O   UNL     1      -8.615  14.450  -0.221  1.00  0.00    -0.360 OA
ATOM     13  C   UNL     1      -9.743  13.982  -2.767  1.00  0.00     0.121 C 
ATOM     14  C   UNL     1      -9.055  15.569  -0.998  1.00  0.00     0.195 C 
BRANCH   6  15
ATOM     15  C   UNL     1      -7.138   9.803   0.175  1.00  0.00    -0.008 C 
ATOM     16  C   UNL     1      -5.745   9.593   0.719  1.00  0.00     0.004 C 
ATOM     17  C   UNL     1      -6.836  10.081   1.627  1.00  0.00     0.004 C 
ENDBRANCH   6  15
ENDBRANCH   4   5
ENDBRANCH   1   4
BRANCH   3  18
ATOM     18  C   UNL     1     -11.373  15.785   2.591  1.00  0.00     0.053 C 
BRANCH  18  19
ATOM     19  C   UNL     1     -10.044  15.322   3.129  1.00  0.00     0.074 C 
BRANCH  19  20
ATOM     20  N   UNL     1      -8.934  15.278   2.471  1.00  0.00    -0.313 NA
ATOM     21  H   UNL     1      -9.027  15.711   1.541  1.00  0.00     0.186 HD
ENDBRANCH  19  20
ENDBRANCH  18  19
ENDBRANCH   3  18
TORSDOF 6
ENDMDL
MODEL 6
REMARK VINA RESULT:    -3.740      5.666      8.648
REMARK INTER + INTRA:          -5.215
REMARK INTER:                  -5.130
REMARK INTRA:                  -0.085
REMARK UNBOUND:                -0.273
REMARK SMILES [H]/N=C\C[C@H]1C[C@@H]1O[C@H]1CO[C@H]2C[C@@H](C3CC3)CCN2C1
REMARK SMILES IDX 7 1 6 2 5 3 8 4 9 5 14 6 13 7 18 8 12 9 19 10 20 11 11 12
REMARK SMILES IDX 21 13 10 14 15 15 16 16 17 17 4 18 3 19 2 20 1 21
REMARK H PARENT
ROOT
ATOM      1  C   UNL     1     -11.926  15.650  -4.757  1.00  0.00     0.122 C 
ATOM      2  C   UNL     1     -12.221  16.221  -6.115  1.00  0.00     0.039 C 
ATOM      3  C   UNL     1     -10.980  15.403  -5.901  1.00  0.00     0.026 C 
ENDROOT
BRANCH   1   4
ATOM      4  O   UNL     1     -11.519  16.631  -3.784  1.00  0.00    -0.371 OA
BRANCH   4   5
ATOM      5  C   UNL     1     -12.006  16.418  -2.449  1.00  0.00     0.158 C 
ATOM      6  C   UNL     1      -8.419  12.989  -0.843  1.00  0.00    -0.003 C 
ATOM      7  C   UNL     1      -9.609  12.962  -1.810  1.00  0.00     0.052 C 
ATOM      8  C   UNL     1      -7.792  14.390  -0.850  1.00  0.00     0.019 C 
ATOM      9  C   UNL     1     -10.604  14.094  -1.521  1.00  0.00     0.189 C 
ATOM     10  C   UNL     1      -8.839  15.472  -0.591  1.00  0.00     0.087 C 
ATOM     11  N   UNL     1      -9.928  15.391  -1.564  1.00  0.00    -0.276 NA
ATOM     12  O   UNL     1     -11.635  13.994  -2.506  1.00  0.00    -0.360 OA
ATOM     13  C   UNL     1     -10.898  16.477  -1.382  1.00  0.00     0.121 C 
ATOM     14  C   UNL     1     -12.626  15.019  -2.385  1.00  0.00     0.195 C 
BRANCH   6  15
ATOM     15  C   UNL     1      -7.388  11.943  -1.203  1.00  0.00    -0.008 C 
ATOM     16  C   UNL     1      -7.169  10.746  -0.309  1.00  0.00     0.004 C 
ATOM     17  C   UNL     1      -7.808  10.566  -1.655  1.00  0.00     0.004 C 
ENDBRANCH   6  15
ENDBRANCH   4   5
ENDBRANCH   1   4
BRANCH   3  18
ATOM     18  C   UNL     1     -10.889  14.043  -6.526  1.00  0.00     0.053 C 
BRANCH  18  19
ATOM     19  C   UNL     1      -9.784  13.844  -7.529  1.00  0.00     0.074 C 
BRANCH  19  20
ATOM     20  N   UNL     1      -9.855  13.129  -8.602  1.00  0.00    -0.313 NA
ATOM     21  H   UNL     1     -10.425  12.283  -8.458  1.00  0.00     0.186 HD
ENDBRANCH  19  20
ENDBRANCH  18  19
ENDBRANCH   3  18
TORSDOF 6
ENDMDL
MODEL 7
REMARK VINA RESULT:    -3.606      5.519      7.042
REMARK INTER + INTRA:          -5.038
REMARK INTER:                  -4.741
REMARK INTRA:                  -0.297
REMARK UNBOUND:                -0.273
REMARK SMILES [H]/N=C\C[C@H]1C[C@@H]1O[C@H]1CO[C@H]2C[C@@H](C3CC3)CCN2C1
REMARK SMILES IDX 7 1 6 2 5 3 8 4 9 5 14 6 13 7 18 8 12 9 19 10 20 11 11 12
REMARK SMILES IDX 21 13 10 14 15 15 16 16 17 17 4 18 3 19 2 20 1 21
REMARK H PARENT
ROOT
ATOM      1  C   UNL     1     -10.435  15.576   4.578  1.00  0.00     0.122 C 
ATOM      2  C   UNL     1     -10.230  16.995   4.128  1.00  0.00     0.039 C 
ATOM      3  C   UNL     1      -9.655  15.863   3.325  1.00  0.00     0.026 C 
ENDROOT
BRANCH   1   4
ATOM      4  O   UNL     1      -9.672  15.214   5.745  1.00  0.00    -0.371 OA
BRANCH   4   5
ATOM      5  C   UNL     1     -10.197  14.121   6.515  1.00  0.00     0.158 C 
ATOM      6  C   UNL     1      -7.226  10.298   4.575  1.00  0.00    -0.003 C 
ATOM      7  C   UNL     1      -8.397  11.145   4.064  1.00  0.00     0.052 C 
ATOM      8  C   UNL     1      -6.380  11.135   5.545  1.00  0.00     0.019 C 
ATOM      9  C   UNL     1      -9.198  11.766   5.217  1.00  0.00     0.189 C 
ATOM     10  C   UNL     1      -7.240  11.751   6.647  1.00  0.00     0.087 C 
ATOM     11  N   UNL     1      -8.320  12.558   6.079  1.00  0.00    -0.276 NA
ATOM     12  O   UNL     1     -10.223  12.562   4.620  1.00  0.00    -0.360 OA
ATOM     13  C   UNL     1      -9.102  13.227   7.124  1.00  0.00     0.121 C 
ATOM     14  C   UNL     1     -11.036  13.241   5.582  1.00  0.00     0.195 C 
BRANCH   6  15
ATOM     15  C   UNL     1      -6.375   9.783   3.437  1.00  0.00    -0.008 C 
ATOM     16  C   UNL     1      -6.791   8.551   2.668  1.00  0.00     0.004 C 
ATOM     17  C   UNL     1      -6.845   9.897   2.006  1.00  0.00     0.004 C 
ENDBRANCH   6  15
ENDBRANCH   4   5
ENDBRANCH   1   4
BRANCH   3  18
ATOM     18  C   UNL     1     -10.243  15.554   1.981  1.00  0.00     0.053 C 
BRANCH  18  19
ATOM     19  C   UNL     1      -9.480  14.573   1.129  1.00  0.00     0.074 C 
BRANCH  19  20
ATOM     20  N   UNL     1      -8.806  13.560   1.561  1.00  0.00    -0.313 NA
ATOM     21  H   UNL     1      -8.522  13.683   2.543  1.00  0.00     0.186 HD
ENDBRANCH  19  20
ENDBRANCH  18  19
ENDBRANCH   3  18
TORSDOF 6
ENDMDL
MODEL 8
REMARK VINA RESULT:    -3.442      5.026      8.137
REMARK INTER + INTRA:          -4.822
REMARK INTER:                  -4.403
REMARK INTRA:                  -0.418
REMARK UNBOUND:                -0.273
REMARK SMILES [H]/N=C\C[C@H]1C[C@@H]1O[C@H]1CO[C@H]2C[C@@H](C3CC3)CCN2C1
REMARK SMILES IDX 7 1 6 2 5 3 8 4 9 5 14 6 13 7 18 8 12 9 19 10 20 11 11 12
REMARK SMILES IDX 21 13 10 14 15 15 16 16 17 17 4 18 3 19 2 20 1 21
REMARK H PARENT
ROOT
ATOM      1  C   UNL     1     -11.097  16.146   1.841  1.00  0.00     0.122 C 
ATOM      2  C   UNL     1     -12.237  16.222   2.818  1.00  0.00     0.039 C 
ATOM      3  C   UNL     1     -11.420  14.966   2.717  1.00  0.00     0.026 C 
ENDROOT
BRANCH   1   4
ATOM      4  O   UNL     1     -11.509  16.059   0.464  1.00  0.00    -0.371 OA
BRANCH   4   5
ATOM      5  C   UNL     1     -10.568  16.563  -0.498  1.00  0.00     0.158 C 
ATOM      6  C   UNL     1      -8.325  12.050  -1.842  1.00  0.00    -0.003 C 
ATOM      7  C   UNL     1      -8.305  12.963  -0.609  1.00  0.00     0.052 C 
ATOM      8  C   UNL     1      -9.704  12.133  -2.511  1.00  0.00     0.019 C 
ATOM      9  C   UNL     1      -8.750  14.391  -0.950  1.00  0.00     0.189 C 
ATOM     10  C   UNL     1     -10.103  13.581  -2.793  1.00  0.00     0.087 C 
ATOM     11  N   UNL     1     -10.077  14.379  -1.567  1.00  0.00    -0.276 NA
ATOM     12  O   UNL     1      -8.734  15.127   0.274  1.00  0.00    -0.360 OA
ATOM     13  C   UNL     1     -10.541  15.751  -1.804  1.00  0.00     0.121 C 
ATOM     14  C   UNL     1      -9.168  16.482   0.119  1.00  0.00     0.195 C 
BRANCH   6  15
ATOM     15  C   UNL     1      -7.996  10.620  -1.479  1.00  0.00    -0.008 C 
ATOM     16  C   UNL     1      -6.665  10.020  -1.866  1.00  0.00     0.004 C 
ATOM     17  C   UNL     1      -6.963  10.308  -0.424  1.00  0.00     0.004 C 
ENDBRANCH   6  15
ENDBRANCH   4   5
ENDBRANCH   1   4
BRANCH   3  18
ATOM     18  C   UNL     1     -10.512  14.597   3.852  1.00  0.00     0.053 C 
BRANCH  18  19
ATOM     19  C   UNL     1      -9.889  13.226   3.787  1.00  0.00     0.074 C 
BRANCH  19  20
ATOM     20  N   UNL     1      -9.119  12.788   2.847  1.00  0.00    -0.313 NA
ATOM     21  H   UNL     1      -8.258  13.347   2.770  1.00  0.00     0.186 HD
ENDBRANCH  19  20
ENDBRANCH  18  19
ENDBRANCH   3  18
TORSDOF 6
ENDMDL
MODEL 9
REMARK VINA RESULT:    -3.412      6.308      7.995
REMARK INTER + INTRA:          -4.782
REMARK INTER:                  -4.494
REMARK INTRA:                  -0.288
REMARK UNBOUND:                -0.273
REMARK SMILES [H]/N=C\C[C@H]1C[C@@H]1O[C@H]1CO[C@H]2C[C@@H](C3CC3)CCN2C1
REMARK SMILES IDX 7 1 6 2 5 3 8 4 9 5 14 6 13 7 18 8 12 9 19 10 20 11 11 12
REMARK SMILES IDX 21 13 10 14 15 15 16 16 17 17 4 18 3 19 2 20 1 21
REMARK H PARENT
ROOT
ATOM      1  C   UNL     1     -11.484  15.801   3.761  1.00  0.00     0.122 C 
ATOM      2  C   UNL     1     -11.352  16.995   2.859  1.00  0.00     0.039 C 
ATOM      3  C   UNL     1     -10.374  15.861   2.748  1.00  0.00     0.026 C 
ENDROOT
BRANCH   1   4
ATOM      4  O   UNL     1     -11.122  16.057   5.131  1.00  0.00    -0.371 OA
BRANCH   4   5
ATOM      5  C   UNL     1     -11.678  15.152   6.099  1.00  0.00     0.158 C 
ATOM      6  C   UNL     1      -7.932  11.524   6.025  1.00  0.00    -0.003 C 
ATOM      7  C   UNL     1      -9.048  11.970   5.072  1.00  0.00     0.052 C 
ATOM      8  C   UNL     1      -7.426  12.737   6.817  1.00  0.00     0.019 C 
ATOM      9  C   UNL     1     -10.152  12.741   5.808  1.00  0.00     0.189 C 
ATOM     10  C   UNL     1      -8.576  13.480   7.497  1.00  0.00     0.087 C 
ATOM     11  N   UNL     1      -9.586  13.887   6.520  1.00  0.00    -0.276 NA
ATOM     12  O   UNL     1     -11.101  13.141   4.818  1.00  0.00    -0.360 OA
ATOM     13  C   UNL     1     -10.654  14.677   7.144  1.00  0.00     0.121 C 
ATOM     14  C   UNL     1     -12.181  13.910   5.356  1.00  0.00     0.195 C 
BRANCH   6  15
ATOM     15  C   UNL     1      -6.795  10.865   5.277  1.00  0.00    -0.008 C 
ATOM     16  C   UNL     1      -6.655   9.361   5.269  1.00  0.00     0.004 C 
ATOM     17  C   UNL     1      -7.050  10.082   4.013  1.00  0.00     0.004 C 
ENDBRANCH   6  15
ENDBRANCH   4   5
ENDBRANCH   1   4
BRANCH   3  18
ATOM     18  C   UNL     1     -10.412  14.984   1.531  1.00  0.00     0.053 C 
BRANCH  18  19
ATOM     19  C   UNL     1      -9.099  14.387   1.099  1.00  0.00     0.074 C 
BRANCH  19  20
ATOM     20  N   UNL     1      -8.646  13.226   1.439  1.00  0.00    -0.313 NA
ATOM     21  H   UNL     1      -7.621  13.231   1.535  1.00  0.00     0.186 HD
ENDBRANCH  19  20
ENDBRANCH  18  19
ENDBRANCH   3  18
TORSDOF 6
ENDMDL
