MODEL 1
REMARK VINA RESULT:    -6.045      0.000      0.000
REMARK INTER + INTRA:          -7.474
REMARK INTER:                  -7.105
REMARK INTRA:                  -0.369
REMARK UNBOUND:                -0.369
REMARK SMILES Cc1ccc(CNC(=O)NC(=O)c2ccc(C)cc2)cc1
REMARK SMILES IDX 11 1 12 2 10 3 8 4 9 5 7 6 13 9 19 10 18 11 14 12 16 13
REMARK SMILES IDX 15 14 17 15 6 16 5 17 4 18 20 19 3 20 21 21 2 22 1 23
REMARK H PARENT 10 7 7 8
ROOT
ATOM      1  C   UNL     1      -5.749   8.034   1.363  1.00  0.00     0.259 C 
ATOM      2  O   UNL     1      -5.571   8.315   0.186  1.00  0.00    -0.269 OA
ATOM      3  N   UNL     1      -6.289   8.827   2.380  1.00  0.00    -0.274 N 
ATOM      4  C   UNL     1      -6.997   9.997   2.485  1.00  0.00     0.321 C 
ATOM      5  O   UNL     1      -7.423  10.311   3.602  1.00  0.00    -0.248 OA
ATOM      6  N   UNL     1      -7.275  10.795   1.438  1.00  0.00    -0.334 N 
ATOM      7  H   UNL     1      -6.316   8.381   3.287  1.00  0.00     0.175 HD
ATOM      8  H   UNL     1      -7.878  11.572   1.668  1.00  0.00     0.165 HD
ENDROOT
BRANCH   1   9
ATOM      9  C   UNL     1      -5.350   6.678   1.786  1.00  0.00     0.040 A 
ATOM     10  C   UNL     1      -4.129   6.442   2.420  1.00  0.00     0.014 A 
ATOM     11  C   UNL     1      -3.819   5.151   2.849  1.00  0.00     0.004 A 
ATOM     12  C   UNL     1      -6.231   5.623   1.526  1.00  0.00     0.014 A 
ATOM     13  C   UNL     1      -4.719   4.096   2.639  1.00  0.00    -0.051 A 
ATOM     14  C   UNL     1      -5.920   4.337   1.961  1.00  0.00     0.004 A 
ATOM     15  C   UNL     1      -4.409   2.731   3.181  1.00  0.00     0.044 C 
ENDBRANCH   1   9
BRANCH   6  16
ATOM     16  C   UNL     1      -6.967  10.565   0.055  1.00  0.00     0.153 C 
BRANCH  16  17
ATOM     17  C   UNL     1      -7.742  11.352  -0.965  1.00  0.00    -0.029 A 
ATOM     18  C   UNL     1      -8.447  10.755  -2.016  1.00  0.00     0.006 A 
ATOM     19  C   UNL     1      -7.928  12.721  -0.715  1.00  0.00     0.006 A 
ATOM     20  C   UNL     1      -9.338  11.515  -2.781  1.00  0.00     0.004 A 
ATOM     21  C   UNL     1      -8.818  13.474  -1.474  1.00  0.00     0.004 A 
ATOM     22  C   UNL     1      -9.539  12.875  -2.508  1.00  0.00    -0.051 A 
ATOM     23  C   UNL     1     -10.594  13.659  -3.229  1.00  0.00     0.044 C 
ENDBRANCH  16  17
ENDBRANCH   6  16
TORSDOF 3
ENDMDL
MODEL 2
REMARK VINA RESULT:    -6.044      3.277      5.554
REMARK INTER + INTRA:          -7.472
REMARK INTER:                  -7.105
REMARK INTRA:                  -0.368
REMARK UNBOUND:                -0.369
REMARK SMILES Cc1ccc(CNC(=O)NC(=O)c2ccc(C)cc2)cc1
REMARK SMILES IDX 11 1 12 2 10 3 8 4 9 5 7 6 13 9 19 10 18 11 14 12 16 13
REMARK SMILES IDX 15 14 17 15 6 16 5 17 4 18 20 19 3 20 21 21 2 22 1 23
REMARK H PARENT 10 7 7 8
ROOT
ATOM      1  C   UNL     1      -5.524   8.136   1.807  1.00  0.00     0.259 C 
ATOM      2  O   UNL     1      -5.707   7.884   2.990  1.00  0.00    -0.269 OA
ATOM      3  N   UNL     1      -6.159   9.092   1.007  1.00  0.00    -0.274 N 
ATOM      4  C   UNL     1      -6.960  10.190   1.184  1.00  0.00     0.321 C 
ATOM      5  O   UNL     1      -7.215  10.880   0.191  1.00  0.00    -0.248 OA
ATOM      6  N   UNL     1      -7.452  10.568   2.379  1.00  0.00    -0.334 N 
ATOM      7  H   UNL     1      -5.851   9.100   0.044  1.00  0.00     0.175 HD
ATOM      8  H   UNL     1      -7.952  11.445   2.353  1.00  0.00     0.165 HD
ENDROOT
BRANCH   1   9
ATOM      9  C   UNL     1      -4.495   7.338   1.113  1.00  0.00     0.040 A 
ATOM     10  C   UNL     1      -4.839   6.263   0.292  1.00  0.00     0.014 A 
ATOM     11  C   UNL     1      -3.835   5.570  -0.385  1.00  0.00     0.004 A 
ATOM     12  C   UNL     1      -3.154   7.684   1.306  1.00  0.00     0.014 A 
ATOM     13  C   UNL     1      -2.490   5.943  -0.239  1.00  0.00    -0.051 A 
ATOM     14  C   UNL     1      -2.155   6.994   0.623  1.00  0.00     0.004 A 
ATOM     15  C   UNL     1      -1.430   5.244  -1.039  1.00  0.00     0.044 C 
ENDBRANCH   1   9
BRANCH   6  16
ATOM     16  C   UNL     1      -7.194   9.974   3.660  1.00  0.00     0.153 C 
BRANCH  16  17
ATOM     17  C   UNL     1      -7.506  10.798   4.878  1.00  0.00    -0.029 A 
ATOM     18  C   UNL     1      -6.582  11.023   5.904  1.00  0.00     0.006 A 
ATOM     19  C   UNL     1      -8.701  11.535   4.867  1.00  0.00     0.006 A 
ATOM     20  C   UNL     1      -6.845  11.987   6.883  1.00  0.00     0.004 A 
ATOM     21  C   UNL     1      -8.959  12.496   5.839  1.00  0.00     0.004 A 
ATOM     22  C   UNL     1      -8.028  12.738   6.851  1.00  0.00    -0.051 A 
ATOM     23  C   UNL     1      -8.252  13.868   7.811  1.00  0.00     0.044 C 
ENDBRANCH  16  17
ENDBRANCH   6  16
TORSDOF 3
ENDMDL
MODEL 3
REMARK VINA RESULT:    -6.017      0.521      8.073
REMARK INTER + INTRA:          -7.441
REMARK INTER:                  -6.967
REMARK INTRA:                  -0.474
REMARK UNBOUND:                -0.369
REMARK SMILES Cc1ccc(CNC(=O)NC(=O)c2ccc(C)cc2)cc1
REMARK SMILES IDX 11 1 12 2 10 3 8 4 9 5 7 6 13 9 19 10 18 11 14 12 16 13
REMARK SMILES IDX 15 14 17 15 6 16 5 17 4 18 20 19 3 20 21 21 2 22 1 23
REMARK H PARENT 10 7 7 8
ROOT
ATOM      1  C   UNL     1      -7.162  10.186   0.018  1.00  0.00     0.259 C 
ATOM      2  O   UNL     1      -6.502   9.313  -0.527  1.00  0.00    -0.269 OA
ATOM      3  N   UNL     1      -7.343  10.422   1.385  1.00  0.00    -0.274 N 
ATOM      4  C   UNL     1      -6.768  10.028   2.566  1.00  0.00     0.321 C 
ATOM      5  O   UNL     1      -7.146  10.586   3.601  1.00  0.00    -0.248 OA
ATOM      6  N   UNL     1      -5.801   9.095   2.648  1.00  0.00    -0.334 N 
ATOM      7  H   UNL     1      -7.957  11.197   1.596  1.00  0.00     0.175 HD
ATOM      8  H   UNL     1      -5.424   8.982   3.578  1.00  0.00     0.165 HD
ENDROOT
BRANCH   1   9
ATOM      9  C   UNL     1      -7.865  11.133  -0.868  1.00  0.00     0.040 A 
ATOM     10  C   UNL     1      -8.510  10.702  -2.029  1.00  0.00     0.014 A 
ATOM     11  C   UNL     1      -9.207  11.626  -2.808  1.00  0.00     0.004 A 
ATOM     12  C   UNL     1      -7.864  12.486  -0.517  1.00  0.00     0.014 A 
ATOM     13  C   UNL     1      -9.256  12.978  -2.436  1.00  0.00    -0.051 A 
ATOM     14  C   UNL     1      -8.567  13.405  -1.294  1.00  0.00     0.004 A 
ATOM     15  C   UNL     1     -10.079  13.943  -3.237  1.00  0.00     0.044 C 
ENDBRANCH   1   9
BRANCH   6  16
ATOM     16  C   UNL     1      -5.153   8.407   1.568  1.00  0.00     0.153 C 
BRANCH  16  17
ATOM     17  C   UNL     1      -4.869   6.943   1.754  1.00  0.00    -0.029 A 
ATOM     18  C   UNL     1      -3.704   6.462   2.362  1.00  0.00     0.006 A 
ATOM     19  C   UNL     1      -5.918   6.046   1.493  1.00  0.00     0.006 A 
ATOM     20  C   UNL     1      -3.608   5.114   2.722  1.00  0.00     0.004 A 
ATOM     21  C   UNL     1      -5.822   4.706   1.856  1.00  0.00     0.004 A 
ATOM     22  C   UNL     1      -4.669   4.230   2.483  1.00  0.00    -0.051 A 
ATOM     23  C   UNL     1      -4.630   2.821   2.993  1.00  0.00     0.044 C 
ENDBRANCH  16  17
ENDBRANCH   6  16
TORSDOF 3
ENDMDL
MODEL 4
REMARK VINA RESULT:    -6.016      3.167      7.344
REMARK INTER + INTRA:          -7.440
REMARK INTER:                  -6.963
REMARK INTRA:                  -0.477
REMARK UNBOUND:                -0.369
REMARK SMILES Cc1ccc(CNC(=O)NC(=O)c2ccc(C)cc2)cc1
REMARK SMILES IDX 11 1 12 2 10 3 8 4 9 5 7 6 13 9 19 10 18 11 14 12 16 13
REMARK SMILES IDX 15 14 17 15 6 16 5 17 4 18 20 19 3 20 21 21 2 22 1 23
REMARK H PARENT 10 7 7 8
ROOT
ATOM      1  C   UNL     1      -6.771   9.992   3.650  1.00  0.00     0.259 C 
ATOM      2  O   UNL     1      -6.181   8.967   3.961  1.00  0.00    -0.269 OA
ATOM      3  N   UNL     1      -7.066  10.479   2.373  1.00  0.00    -0.274 N 
ATOM      4  C   UNL     1      -7.072  10.008   1.085  1.00  0.00     0.321 C 
ATOM      5  O   UNL     1      -7.545  10.740   0.209  1.00  0.00    -0.248 OA
ATOM      6  N   UNL     1      -6.622   8.789   0.736  1.00  0.00    -0.334 N 
ATOM      7  H   UNL     1      -7.549  11.368   2.367  1.00  0.00     0.175 HD
ATOM      8  H   UNL     1      -6.776   8.561  -0.235  1.00  0.00     0.165 HD
ENDROOT
BRANCH   1   9
ATOM      9  C   UNL     1      -7.249  10.841   4.758  1.00  0.00     0.040 A 
ATOM     10  C   UNL     1      -6.463  11.072   5.889  1.00  0.00     0.014 A 
ATOM     11  C   UNL     1      -6.936  11.924   6.887  1.00  0.00     0.004 A 
ATOM     12  C   UNL     1      -8.523  11.407   4.650  1.00  0.00     0.014 A 
ATOM     13  C   UNL     1      -8.191  12.539   6.764  1.00  0.00    -0.051 A 
ATOM     14  C   UNL     1      -8.988  12.263   5.646  1.00  0.00     0.004 A 
ATOM     15  C   UNL     1      -8.649  13.518   7.805  1.00  0.00     0.044 C 
ENDBRANCH   1   9
BRANCH   6  16
ATOM     16  C   UNL     1      -6.135   7.754   1.604  1.00  0.00     0.153 C 
BRANCH  16  17
ATOM     17  C   UNL     1      -4.929   6.981   1.147  1.00  0.00    -0.029 A 
ATOM     18  C   UNL     1      -5.014   5.822   0.370  1.00  0.00     0.006 A 
ATOM     19  C   UNL     1      -3.672   7.578   1.340  1.00  0.00     0.006 A 
ATOM     20  C   UNL     1      -3.864   5.289  -0.222  1.00  0.00     0.004 A 
ATOM     21  C   UNL     1      -2.530   7.050   0.747  1.00  0.00     0.004 A 
ATOM     22  C   UNL     1      -2.617   5.906  -0.048  1.00  0.00    -0.051 A 
ATOM     23  C   UNL     1      -1.407   5.426  -0.792  1.00  0.00     0.044 C 
ENDBRANCH  16  17
ENDBRANCH   6  16
TORSDOF 3
ENDMDL
MODEL 5
REMARK VINA RESULT:    -5.731      3.073      7.619
REMARK INTER + INTRA:          -7.105
REMARK INTER:                  -6.619
REMARK INTRA:                  -0.487
REMARK UNBOUND:                -0.369
REMARK SMILES Cc1ccc(CNC(=O)NC(=O)c2ccc(C)cc2)cc1
REMARK SMILES IDX 11 1 12 2 10 3 8 4 9 5 7 6 13 9 19 10 18 11 14 12 16 13
REMARK SMILES IDX 15 14 17 15 6 16 5 17 4 18 20 19 3 20 21 21 2 22 1 23
REMARK H PARENT 10 7 7 8
ROOT
ATOM      1  C   UNL     1      -7.159  10.071   3.881  1.00  0.00     0.259 C 
ATOM      2  O   UNL     1      -6.910   8.932   4.250  1.00  0.00    -0.269 OA
ATOM      3  N   UNL     1      -7.151  10.593   2.584  1.00  0.00    -0.274 N 
ATOM      4  C   UNL     1      -7.123  10.114   1.299  1.00  0.00     0.321 C 
ATOM      5  O   UNL     1      -7.268  10.928   0.380  1.00  0.00    -0.248 OA
ATOM      6  N   UNL     1      -6.979   8.811   0.994  1.00  0.00    -0.334 N 
ATOM      7  H   UNL     1      -7.372  11.578   2.529  1.00  0.00     0.175 HD
ATOM      8  H   UNL     1      -7.066   8.613   0.007  1.00  0.00     0.165 HD
ENDROOT
BRANCH   1   9
ATOM      9  C   UNL     1      -7.525  11.040   4.932  1.00  0.00     0.040 A 
ATOM     10  C   UNL     1      -8.751  11.707   4.913  1.00  0.00     0.014 A 
ATOM     11  C   UNL     1      -9.074  12.575   5.956  1.00  0.00     0.004 A 
ATOM     12  C   UNL     1      -6.601  11.281   5.953  1.00  0.00     0.014 A 
ATOM     13  C   UNL     1      -8.175  12.784   7.013  1.00  0.00    -0.051 A 
ATOM     14  C   UNL     1      -6.930  12.144   6.997  1.00  0.00     0.004 A 
ATOM     15  C   UNL     1      -8.572  13.654   8.169  1.00  0.00     0.044 C 
ENDBRANCH   1   9
BRANCH   6  16
ATOM     16  C   UNL     1      -6.901   7.702   1.902  1.00  0.00     0.153 C 
BRANCH  16  17
ATOM     17  C   UNL     1      -5.764   6.736   1.714  1.00  0.00    -0.029 A 
ATOM     18  C   UNL     1      -5.953   5.368   1.490  1.00  0.00     0.006 A 
ATOM     19  C   UNL     1      -4.479   7.279   1.552  1.00  0.00     0.006 A 
ATOM     20  C   UNL     1      -4.877   4.570   1.086  1.00  0.00     0.004 A 
ATOM     21  C   UNL     1      -3.411   6.485   1.145  1.00  0.00     0.004 A 
ATOM     22  C   UNL     1      -3.604   5.124   0.899  1.00  0.00    -0.051 A 
ATOM     23  C   UNL     1      -2.482   4.307   0.331  1.00  0.00     0.044 C 
ENDBRANCH  16  17
ENDBRANCH   6  16
TORSDOF 3
ENDMDL
MODEL 6
REMARK VINA RESULT:    -4.536      4.794      7.167
REMARK INTER + INTRA:          -5.700
REMARK INTER:                  -5.263
REMARK INTRA:                  -0.437
REMARK UNBOUND:                -0.369
REMARK SMILES Cc1ccc(CNC(=O)NC(=O)c2ccc(C)cc2)cc1
REMARK SMILES IDX 11 1 12 2 10 3 8 4 9 5 7 6 13 9 19 10 18 11 14 12 16 13
REMARK SMILES IDX 15 14 17 15 6 16 5 17 4 18 20 19 3 20 21 21 2 22 1 23
REMARK H PARENT 10 7 7 8
ROOT
ATOM      1  C   UNL     1      -7.103  10.102   4.113  1.00  0.00     0.259 C 
ATOM      2  O   UNL     1      -6.642   9.939   5.234  1.00  0.00    -0.269 OA
ATOM      3  N   UNL     1      -8.125  10.964   3.703  1.00  0.00    -0.274 N 
ATOM      4  C   UNL     1      -8.807  12.040   4.210  1.00  0.00     0.321 C 
ATOM      5  O   UNL     1      -9.581  12.636   3.454  1.00  0.00    -0.248 OA
ATOM      6  N   UNL     1      -8.654  12.493   5.469  1.00  0.00    -0.334 N 
ATOM      7  H   UNL     1      -8.349  10.906   2.719  1.00  0.00     0.175 HD
ATOM      8  H   UNL     1      -9.162  13.344   5.659  1.00  0.00     0.165 HD
ENDROOT
BRANCH   1   9
ATOM      9  C   UNL     1      -6.510   9.292   3.032  1.00  0.00     0.040 A 
ATOM     10  C   UNL     1      -5.397   9.738   2.316  1.00  0.00     0.014 A 
ATOM     11  C   UNL     1      -4.839   8.914   1.338  1.00  0.00     0.004 A 
ATOM     12  C   UNL     1      -7.100   8.060   2.734  1.00  0.00     0.014 A 
ATOM     13  C   UNL     1      -5.392   7.653   1.067  1.00  0.00    -0.051 A 
ATOM     14  C   UNL     1      -6.535   7.238   1.761  1.00  0.00     0.004 A 
ATOM     15  C   UNL     1      -4.731   6.745   0.073  1.00  0.00     0.044 C 
ENDBRANCH   1   9
BRANCH   6  16
ATOM     16  C   UNL     1      -7.739  12.014   6.466  1.00  0.00     0.153 C 
BRANCH  16  17
ATOM     17  C   UNL     1      -7.021  13.044   7.294  1.00  0.00    -0.029 A 
ATOM     18  C   UNL     1      -5.997  13.851   6.787  1.00  0.00     0.006 A 
ATOM     19  C   UNL     1      -7.553  13.337   8.560  1.00  0.00     0.006 A 
ATOM     20  C   UNL     1      -5.537  14.945   7.528  1.00  0.00     0.004 A 
ATOM     21  C   UNL     1      -7.098  14.428   9.293  1.00  0.00     0.004 A 
ATOM     22  C   UNL     1      -6.093  15.249   8.779  1.00  0.00    -0.051 A 
ATOM     23  C   UNL     1      -5.706  16.498   9.513  1.00  0.00     0.044 C 
ENDBRANCH  16  17
ENDBRANCH   6  16
TORSDOF 3
ENDMDL
MODEL 7
REMARK VINA RESULT:    -4.530      4.195      5.202
REMARK INTER + INTRA:          -5.693
REMARK INTER:                  -5.345
REMARK INTRA:                  -0.349
REMARK UNBOUND:                -0.369
REMARK SMILES Cc1ccc(CNC(=O)NC(=O)c2ccc(C)cc2)cc1
REMARK SMILES IDX 11 1 12 2 10 3 8 4 9 5 7 6 13 9 19 10 18 11 14 12 16 13
REMARK SMILES IDX 15 14 17 15 6 16 5 17 4 18 20 19 3 20 21 21 2 22 1 23
REMARK H PARENT 10 7 7 8
ROOT
ATOM      1  C   UNL     1      -6.914  10.118   2.927  1.00  0.00     0.259 C 
ATOM      2  O   UNL     1      -7.667  10.812   2.257  1.00  0.00    -0.269 OA
ATOM      3  N   UNL     1      -6.635  10.198   4.294  1.00  0.00    -0.274 N 
ATOM      4  C   UNL     1      -7.165  10.808   5.403  1.00  0.00     0.321 C 
ATOM      5  O   UNL     1      -6.687  10.512   6.503  1.00  0.00    -0.248 OA
ATOM      6  N   UNL     1      -8.189  11.679   5.355  1.00  0.00    -0.334 N 
ATOM      7  H   UNL     1      -5.956   9.524   4.622  1.00  0.00     0.175 HD
ATOM      8  H   UNL     1      -8.517  11.972   6.264  1.00  0.00     0.165 HD
ENDROOT
BRANCH   1   9
ATOM      9  C   UNL     1      -6.199   9.041   2.214  1.00  0.00     0.040 A 
ATOM     10  C   UNL     1      -4.934   9.249   1.662  1.00  0.00     0.014 A 
ATOM     11  C   UNL     1      -4.275   8.187   1.044  1.00  0.00     0.004 A 
ATOM     12  C   UNL     1      -6.830   7.799   2.099  1.00  0.00     0.014 A 
ATOM     13  C   UNL     1      -4.877   6.922   0.969  1.00  0.00    -0.051 A 
ATOM     14  C   UNL     1      -6.165   6.738   1.486  1.00  0.00     0.004 A 
ATOM     15  C   UNL     1      -4.121   5.769   0.377  1.00  0.00     0.044 C 
ENDBRANCH   1   9
BRANCH   6  16
ATOM     16  C   UNL     1      -8.948  12.076   4.203  1.00  0.00     0.153 C 
BRANCH  16  17
ATOM     17  C   UNL     1     -10.249  12.791   4.446  1.00  0.00    -0.029 A 
ATOM     18  C   UNL     1     -11.127  12.448   5.479  1.00  0.00     0.006 A 
ATOM     19  C   UNL     1     -10.473  13.979   3.731  1.00  0.00     0.006 A 
ATOM     20  C   UNL     1     -12.192  13.294   5.802  1.00  0.00     0.004 A 
ATOM     21  C   UNL     1     -11.531  14.822   4.056  1.00  0.00     0.004 A 
ATOM     22  C   UNL     1     -12.394  14.492   5.102  1.00  0.00    -0.051 A 
ATOM     23  C   UNL     1     -13.445  15.471   5.534  1.00  0.00     0.044 C 
ENDBRANCH  16  17
ENDBRANCH   6  16
TORSDOF 3
ENDMDL
MODEL 8
REMARK VINA RESULT:    -4.519      2.198      3.792
REMARK INTER + INTRA:          -5.680
REMARK INTER:                  -5.244
REMARK INTRA:                  -0.436
REMARK UNBOUND:                -0.369
REMARK SMILES Cc1ccc(CNC(=O)NC(=O)c2ccc(C)cc2)cc1
REMARK SMILES IDX 11 1 12 2 10 3 8 4 9 5 7 6 13 9 19 10 18 11 14 12 16 13
REMARK SMILES IDX 15 14 17 15 6 16 5 17 4 18 20 19 3 20 21 21 2 22 1 23
REMARK H PARENT 10 7 7 8
ROOT
ATOM      1  C   UNL     1      -7.168  10.573  -0.376  1.00  0.00     0.259 C 
ATOM      2  O   UNL     1      -7.327  10.281  -1.552  1.00  0.00    -0.269 OA
ATOM      3  N   UNL     1      -7.503  11.759   0.285  1.00  0.00    -0.274 N 
ATOM      4  C   UNL     1      -8.271  12.870   0.046  1.00  0.00     0.321 C 
ATOM      5  O   UNL     1      -8.424  13.671   0.974  1.00  0.00    -0.248 OA
ATOM      6  N   UNL     1      -8.884  13.112  -1.127  1.00  0.00    -0.334 N 
ATOM      7  H   UNL     1      -7.252  11.776   1.265  1.00  0.00     0.175 HD
ATOM      8  H   UNL     1      -9.481  13.927  -1.113  1.00  0.00     0.165 HD
ENDROOT
BRANCH   1   9
ATOM      9  C   UNL     1      -6.544   9.546   0.481  1.00  0.00     0.040 A 
ATOM     10  C   UNL     1      -7.311   8.587   1.144  1.00  0.00     0.014 A 
ATOM     11  C   UNL     1      -6.672   7.604   1.900  1.00  0.00     0.004 A 
ATOM     12  C   UNL     1      -5.152   9.563   0.619  1.00  0.00     0.014 A 
ATOM     13  C   UNL     1      -5.273   7.581   2.003  1.00  0.00    -0.051 A 
ATOM     14  C   UNL     1      -4.518   8.576   1.370  1.00  0.00     0.004 A 
ATOM     15  C   UNL     1      -4.598   6.468   2.750  1.00  0.00     0.044 C 
ENDBRANCH   1   9
BRANCH   6  16
ATOM     16  C   UNL     1      -8.921  12.267  -2.287  1.00  0.00     0.153 C 
BRANCH  16  17
ATOM     17  C   UNL     1     -10.234  12.146  -3.010  1.00  0.00    -0.029 A 
ATOM     18  C   UNL     1     -11.307  11.393  -2.523  1.00  0.00     0.006 A 
ATOM     19  C   UNL     1     -10.444  12.996  -4.108  1.00  0.00     0.006 A 
ATOM     20  C   UNL     1     -12.571  11.513  -3.112  1.00  0.00     0.004 A 
ATOM     21  C   UNL     1     -11.702  13.118  -4.689  1.00  0.00     0.004 A 
ATOM     22  C   UNL     1     -12.780  12.384  -4.189  1.00  0.00    -0.051 A 
ATOM     23  C   UNL     1     -14.157  12.625  -4.732  1.00  0.00     0.044 C 
ENDBRANCH  16  17
ENDBRANCH   6  16
TORSDOF 3
ENDMDL
MODEL 9
REMARK VINA RESULT:    -4.454      7.651      9.520
REMARK INTER + INTRA:          -5.604
REMARK INTER:                  -5.440
REMARK INTRA:                  -0.164
REMARK UNBOUND:                -0.369
REMARK SMILES Cc1ccc(CNC(=O)NC(=O)c2ccc(C)cc2)cc1
REMARK SMILES IDX 11 1 12 2 10 3 8 4 9 5 7 6 13 9 19 10 18 11 14 12 16 13
REMARK SMILES IDX 15 14 17 15 6 16 5 17 4 18 20 19 3 20 21 21 2 22 1 23
REMARK H PARENT 10 7 7 8
ROOT
ATOM      1  C   UNL     1      -7.642  13.575   7.694  1.00  0.00     0.259 C 
ATOM      2  O   UNL     1      -7.512  14.725   7.298  1.00  0.00    -0.269 OA
ATOM      3  N   UNL     1      -7.845  13.115   8.999  1.00  0.00    -0.274 N 
ATOM      4  C   UNL     1      -8.197  13.642  10.215  1.00  0.00     0.321 C 
ATOM      5  O   UNL     1      -8.410  12.853  11.142  1.00  0.00    -0.248 OA
ATOM      6  N   UNL     1      -8.351  14.961  10.439  1.00  0.00    -0.334 N 
ATOM      7  H   UNL     1      -7.901  12.109   9.083  1.00  0.00     0.175 HD
ATOM      8  H   UNL     1      -8.697  15.179  11.362  1.00  0.00     0.165 HD
ENDROOT
BRANCH   1   9
ATOM      9  C   UNL     1      -7.584  12.514   6.670  1.00  0.00     0.040 A 
ATOM     10  C   UNL     1      -8.631  12.314   5.769  1.00  0.00     0.014 A 
ATOM     11  C   UNL     1      -8.508  11.332   4.785  1.00  0.00     0.004 A 
ATOM     12  C   UNL     1      -6.446  11.702   6.629  1.00  0.00     0.014 A 
ATOM     13  C   UNL     1      -7.349  10.547   4.703  1.00  0.00    -0.051 A 
ATOM     14  C   UNL     1      -6.325  10.727   5.641  1.00  0.00     0.004 A 
ATOM     15  C   UNL     1      -7.196   9.555   3.588  1.00  0.00     0.044 C 
ENDBRANCH   1   9
BRANCH   6  16
ATOM     16  C   UNL     1      -8.255  16.028   9.484  1.00  0.00     0.153 C 
BRANCH  16  17
ATOM     17  C   UNL     1      -9.533  16.504   8.850  1.00  0.00    -0.029 A 
ATOM     18  C   UNL     1      -9.648  16.792   7.486  1.00  0.00     0.006 A 
ATOM     19  C   UNL     1     -10.698  16.449   9.632  1.00  0.00     0.006 A 
ATOM     20  C   UNL     1     -10.909  16.995   6.917  1.00  0.00     0.004 A 
ATOM     21  C   UNL     1     -11.953  16.647   9.064  1.00  0.00     0.004 A 
ATOM     22  C   UNL     1     -12.070  16.911   7.699  1.00  0.00    -0.051 A 
ATOM     23  C   UNL     1     -13.430  16.986   7.072  1.00  0.00     0.044 C 
ENDBRANCH  16  17
ENDBRANCH   6  16
TORSDOF 3
ENDMDL
