MODEL 1
REMARK VINA RESULT:    -4.076      0.000      0.000
REMARK INTER + INTRA:          -5.618
REMARK INTER:                  -5.387
REMARK INTRA:                  -0.231
REMARK UNBOUND:                -0.231
REMARK SMILES [H]/N=C\C[C@H]1C[C@@H]1O[C@H]1CO[C@H]2C[C@@H](C3CC3)CCN2C1
REMARK SMILES IDX 7 1 6 2 5 3 8 4 9 5 14 6 13 7 18 8 12 9 19 10 20 11 11 12
REMARK SMILES IDX 21 13 10 14 15 15 16 16 17 17 4 18 3 19 2 20 1 21
REMARK H PARENT
ROOT
ATOM      1  C   UNL     1      -2.044 -13.999   1.464  1.00  0.00     0.122 C 
ATOM      2  C   UNL     1      -3.040 -15.090   1.742  1.00  0.00     0.039 C 
ATOM      3  C   UNL     1      -2.762 -14.671   0.326  1.00  0.00     0.026 C 
ENDROOT
BRANCH   1   4
ATOM      4  O   UNL     1      -2.500 -12.682   1.826  1.00  0.00    -0.371 OA
BRANCH   4   5
ATOM      5  C   UNL     1      -2.530 -12.402   3.235  1.00  0.00     0.158 C 
ATOM      6  C   UNL     1      -0.977  -7.425   3.079  1.00  0.00    -0.003 C 
ATOM      7  C   UNL     1      -0.312  -8.791   2.864  1.00  0.00     0.052 C 
ATOM      8  C   UNL     1      -2.442  -7.498   2.627  1.00  0.00     0.019 C 
ATOM      9  C   UNL     1      -1.113  -9.924   3.519  1.00  0.00     0.189 C 
ATOM     10  C   UNL     1      -3.173  -8.666   3.288  1.00  0.00     0.087 C 
ATOM     11  N   UNL     1      -2.489  -9.930   3.021  1.00  0.00    -0.276 NA
ATOM     12  O   UNL     1      -0.427 -11.139   3.213  1.00  0.00    -0.360 OA
ATOM     13  C   UNL     1      -3.226 -11.072   3.575  1.00  0.00     0.121 C 
ATOM     14  C   UNL     1      -1.084 -12.300   3.732  1.00  0.00     0.195 C 
BRANCH   6  15
ATOM     15  C   UNL     1      -0.246  -6.329   2.337  1.00  0.00    -0.008 C 
ATOM     16  C   UNL     1       0.132  -5.049   3.044  1.00  0.00     0.004 C 
ATOM     17  C   UNL     1       1.201  -6.022   2.639  1.00  0.00     0.004 C 
ENDBRANCH   6  15
ENDBRANCH   4   5
ENDBRANCH   1   4
BRANCH   3  18
ATOM     18  C   UNL     1      -2.028 -15.614  -0.579  1.00  0.00     0.053 C 
BRANCH  18  19
ATOM     19  C   UNL     1      -2.530 -17.034  -0.611  1.00  0.00     0.074 C 
BRANCH  19  20
ATOM     20  N   UNL     1      -3.487 -17.482  -1.355  1.00  0.00    -0.313 NA
ATOM     21  H   UNL     1      -4.046 -18.196  -0.865  1.00  0.00     0.186 HD
ENDBRANCH  19  20
ENDBRANCH  18  19
ENDBRANCH   3  18
TORSDOF 6
ENDMDL
MODEL 2
REMARK VINA RESULT:    -4.064      3.314      5.551
REMARK INTER + INTRA:          -5.602
REMARK INTER:                  -5.375
REMARK INTRA:                  -0.226
REMARK UNBOUND:                -0.231
REMARK SMILES [H]/N=C\C[C@H]1C[C@@H]1O[C@H]1CO[C@H]2C[C@@H](C3CC3)CCN2C1
REMARK SMILES IDX 7 1 6 2 5 3 8 4 9 5 14 6 13 7 18 8 12 9 19 10 20 11 11 12
REMARK SMILES IDX 21 13 10 14 15 15 16 16 17 17 4 18 3 19 2 20 1 21
REMARK H PARENT
ROOT
ATOM      1  C   UNL     1      -0.580 -12.764   5.981  1.00  0.00     0.122 C 
ATOM      2  C   UNL     1       0.399 -13.895   6.133  1.00  0.00     0.039 C 
ATOM      3  C   UNL     1       0.218 -12.906   7.249  1.00  0.00     0.026 C 
ENDROOT
BRANCH   1   4
ATOM      4  O   UNL     1      -0.155 -11.739   5.063  1.00  0.00    -0.371 OA
BRANCH   4   5
ATOM      5  C   UNL     1      -0.128 -12.120   3.678  1.00  0.00     0.158 C 
ATOM      6  C   UNL     1      -2.189  -7.786   1.635  1.00  0.00    -0.003 C 
ATOM      7  C   UNL     1      -2.713  -8.969   2.459  1.00  0.00     0.052 C 
ATOM      8  C   UNL     1      -0.733  -7.501   2.027  1.00  0.00     0.019 C 
ATOM      9  C   UNL     1      -1.788 -10.189   2.357  1.00  0.00     0.189 C 
ATOM     10  C   UNL     1       0.127  -8.761   1.937  1.00  0.00     0.087 C 
ATOM     11  N   UNL     1      -0.428  -9.833   2.764  1.00  0.00    -0.276 NA
ATOM     12  O   UNL     1      -2.351 -11.200   3.196  1.00  0.00    -0.360 OA
ATOM     13  C   UNL     1       0.433 -11.021   2.758  1.00  0.00     0.121 C 
ATOM     14  C   UNL     1      -1.568 -12.397   3.233  1.00  0.00     0.195 C 
BRANCH   6  15
ATOM     15  C   UNL     1      -3.043  -6.553   1.829  1.00  0.00    -0.008 C 
ATOM     16  C   UNL     1      -3.592  -5.808   0.635  1.00  0.00     0.004 C 
ATOM     17  C   UNL     1      -4.521  -6.580   1.526  1.00  0.00     0.004 C 
ENDBRANCH   6  15
ENDBRANCH   4   5
ENDBRANCH   1   4
BRANCH   3  18
ATOM     18  C   UNL     1      -0.449 -13.354   8.515  1.00  0.00     0.053 C 
BRANCH  18  19
ATOM     19  C   UNL     1       0.199 -14.506   9.238  1.00  0.00     0.074 C 
BRANCH  19  20
ATOM     20  N   UNL     1       1.111 -14.412  10.147  1.00  0.00    -0.313 NA
ATOM     21  H   UNL     1       1.677 -15.271  10.207  1.00  0.00     0.186 HD
ENDBRANCH  19  20
ENDBRANCH  18  19
ENDBRANCH   3  18
TORSDOF 6
ENDMDL
MODEL 3
REMARK VINA RESULT:    -3.900      5.186      8.418
REMARK INTER + INTRA:          -5.385
REMARK INTER:                  -5.233
REMARK INTRA:                  -0.152
REMARK UNBOUND:                -0.231
REMARK SMILES [H]/N=C\C[C@H]1C[C@@H]1O[C@H]1CO[C@H]2C[C@@H](C3CC3)CCN2C1
REMARK SMILES IDX 7 1 6 2 5 3 8 4 9 5 14 6 13 7 18 8 12 9 19 10 20 11 11 12
REMARK SMILES IDX 21 13 10 14 15 15 16 16 17 17 4 18 3 19 2 20 1 21
REMARK H PARENT
ROOT
ATOM      1  C   UNL     1      -1.292 -11.883   3.932  1.00  0.00     0.122 C 
ATOM      2  C   UNL     1      -2.189 -12.392   2.839  1.00  0.00     0.039 C 
ATOM      3  C   UNL     1      -2.705 -11.378   3.819  1.00  0.00     0.026 C 
ENDROOT
BRANCH   1   4
ATOM      4  O   UNL     1      -1.032 -12.844   4.973  1.00  0.00    -0.371 OA
BRANCH   4   5
ATOM      5  C   UNL     1       0.305 -12.842   5.499  1.00  0.00     0.158 C 
ATOM      6  C   UNL     1      -0.567 -15.553   9.869  1.00  0.00    -0.003 C 
ATOM      7  C   UNL     1      -0.900 -14.142   9.366  1.00  0.00     0.052 C 
ATOM      8  C   UNL     1      -0.556 -16.525   8.681  1.00  0.00     0.019 C 
ATOM      9  C   UNL     1       0.023 -13.715   8.217  1.00  0.00     0.189 C 
ATOM     10  C   UNL     1       0.353 -16.025   7.558  1.00  0.00     0.087 C 
ATOM     11  N   UNL     1      -0.041 -14.685   7.123  1.00  0.00    -0.276 NA
ATOM     12  O   UNL     1      -0.410 -12.416   7.807  1.00  0.00    -0.360 OA
ATOM     13  C   UNL     1       0.767 -14.226   5.988  1.00  0.00     0.121 C 
ATOM     14  C   UNL     1       0.340 -11.897   6.705  1.00  0.00     0.195 C 
BRANCH   6  15
ATOM     15  C   UNL     1      -1.550 -16.013  10.922  1.00  0.00    -0.008 C 
ATOM     16  C   UNL     1      -1.120 -16.986  11.994  1.00  0.00     0.004 C 
ATOM     17  C   UNL     1      -1.416 -15.559  12.355  1.00  0.00     0.004 C 
ENDBRANCH   6  15
ENDBRANCH   4   5
ENDBRANCH   1   4
BRANCH   3  18
ATOM     18  C   UNL     1      -2.972  -9.981   3.346  1.00  0.00     0.053 C 
BRANCH  18  19
ATOM     19  C   UNL     1      -4.196  -9.309   3.911  1.00  0.00     0.074 C 
BRANCH  19  20
ATOM     20  N   UNL     1      -5.248  -9.907   4.363  1.00  0.00    -0.313 NA
ATOM     21  H   UNL     1      -6.078  -9.300   4.319  1.00  0.00     0.186 HD
ENDBRANCH  19  20
ENDBRANCH  18  19
ENDBRANCH   3  18
TORSDOF 6
ENDMDL
MODEL 4
REMARK VINA RESULT:    -3.879      8.369     10.834
REMARK INTER + INTRA:          -5.358
REMARK INTER:                  -5.155
REMARK INTRA:                  -0.203
REMARK UNBOUND:                -0.231
REMARK SMILES [H]/N=C\C[C@H]1C[C@@H]1O[C@H]1CO[C@H]2C[C@@H](C3CC3)CCN2C1
REMARK SMILES IDX 7 1 6 2 5 3 8 4 9 5 14 6 13 7 18 8 12 9 19 10 20 11 11 12
REMARK SMILES IDX 21 13 10 14 15 15 16 16 17 17 4 18 3 19 2 20 1 21
REMARK H PARENT
ROOT
ATOM      1  C   UNL     1       1.548 -18.153  11.685  1.00  0.00     0.122 C 
ATOM      2  C   UNL     1       2.478 -18.295  12.857  1.00  0.00     0.039 C 
ATOM      3  C   UNL     1       2.401 -16.991  12.115  1.00  0.00     0.026 C 
ENDROOT
BRANCH   1   4
ATOM      4  O   UNL     1       1.974 -18.865  10.507  1.00  0.00    -0.371 OA
BRANCH   4   5
ATOM      5  C   UNL     1       0.920 -19.320   9.643  1.00  0.00     0.158 C 
ATOM      6  C   UNL     1       0.637 -15.166   6.501  1.00  0.00    -0.003 C 
ATOM      7  C   UNL     1       0.248 -15.474   7.952  1.00  0.00     0.052 C 
ATOM      8  C   UNL     1       1.881 -15.984   6.124  1.00  0.00     0.019 C 
ATOM      9  C   UNL     1       0.103 -16.983   8.195  1.00  0.00     0.189 C 
ATOM     10  C   UNL     1       1.683 -17.470   6.422  1.00  0.00     0.087 C 
ATOM     11  N   UNL     1       1.335 -17.680   7.827  1.00  0.00    -0.276 NA
ATOM     12  O   UNL     1      -0.213 -17.145   9.580  1.00  0.00    -0.360 OA
ATOM     13  C   UNL     1       1.227 -19.108   8.150  1.00  0.00     0.121 C 
ATOM     14  C   UNL     1      -0.343 -18.516   9.968  1.00  0.00     0.195 C 
BRANCH   6  15
ATOM     15  C   UNL     1       0.890 -13.690   6.296  1.00  0.00    -0.008 C 
ATOM     16  C   UNL     1      -0.124 -12.834   5.574  1.00  0.00     0.004 C 
ATOM     17  C   UNL     1       0.090 -12.655   7.049  1.00  0.00     0.004 C 
ENDBRANCH   6  15
ENDBRANCH   4   5
ENDBRANCH   1   4
BRANCH   3  18
ATOM     18  C   UNL     1       1.778 -15.807  12.791  1.00  0.00     0.053 C 
BRANCH  18  19
ATOM     19  C   UNL     1       2.294 -14.454  12.374  1.00  0.00     0.074 C 
BRANCH  19  20
ATOM     20  N   UNL     1       3.421 -13.932  12.727  1.00  0.00    -0.313 NA
ATOM     21  H   UNL     1       4.116 -13.977  11.968  1.00  0.00     0.186 HD
ENDBRANCH  19  20
ENDBRANCH  18  19
ENDBRANCH   3  18
TORSDOF 6
ENDMDL
MODEL 5
REMARK VINA RESULT:    -3.452      6.691      8.911
REMARK INTER + INTRA:          -4.792
REMARK INTER:                  -4.591
REMARK INTRA:                  -0.202
REMARK UNBOUND:                -0.231
REMARK SMILES [H]/N=C\C[C@H]1C[C@@H]1O[C@H]1CO[C@H]2C[C@@H](C3CC3)CCN2C1
REMARK SMILES IDX 7 1 6 2 5 3 8 4 9 5 14 6 13 7 18 8 12 9 19 10 20 11 11 12
REMARK SMILES IDX 21 13 10 14 15 15 16 16 17 17 4 18 3 19 2 20 1 21
REMARK H PARENT
ROOT
ATOM      1  C   UNL     1      -2.511 -17.898   3.473  1.00  0.00     0.122 C 
ATOM      2  C   UNL     1      -3.992 -17.664   3.377  1.00  0.00     0.039 C 
ATOM      3  C   UNL     1      -3.047 -16.829   2.561  1.00  0.00     0.026 C 
ENDROOT
BRANCH   1   4
ATOM      4  O   UNL     1      -1.925 -17.454   4.712  1.00  0.00    -0.371 OA
BRANCH   4   5
ATOM      5  C   UNL     1      -0.824 -18.241   5.194  1.00  0.00     0.158 C 
ATOM      6  C   UNL     1      -1.326 -17.255  10.291  1.00  0.00    -0.003 C 
ATOM      7  C   UNL     1      -0.864 -16.465   9.060  1.00  0.00     0.052 C 
ATOM      8  C   UNL     1      -2.413 -18.254   9.874  1.00  0.00     0.019 C 
ATOM      9  C   UNL     1      -0.452 -17.394   7.909  1.00  0.00     0.189 C 
ATOM     10  C   UNL     1      -1.954 -19.124   8.704  1.00  0.00     0.087 C 
ATOM     11  N   UNL     1      -1.549 -18.298   7.566  1.00  0.00    -0.276 NA
ATOM     12  O   UNL     1      -0.090 -16.550   6.813  1.00  0.00    -0.360 OA
ATOM     13  C   UNL     1      -1.188 -19.119   6.404  1.00  0.00     0.121 C 
ATOM     14  C   UNL     1       0.285 -17.283   5.643  1.00  0.00     0.195 C 
BRANCH   6  15
ATOM     15  C   UNL     1      -1.837 -16.337  11.378  1.00  0.00    -0.008 C 
ATOM     16  C   UNL     1      -1.363 -16.503  12.803  1.00  0.00     0.004 C 
ATOM     17  C   UNL     1      -0.933 -15.305  12.008  1.00  0.00     0.004 C 
ENDBRANCH   6  15
ENDBRANCH   4   5
ENDBRANCH   1   4
BRANCH   3  18
ATOM     18  C   UNL     1      -3.010 -17.017   1.073  1.00  0.00     0.053 C 
BRANCH  18  19
ATOM     19  C   UNL     1      -2.566 -15.827   0.262  1.00  0.00     0.074 C 
BRANCH  19  20
ATOM     20  N   UNL     1      -1.875 -15.870  -0.828  1.00  0.00    -0.313 NA
ATOM     21  H   UNL     1      -1.545 -14.934  -1.105  1.00  0.00     0.186 HD
ENDBRANCH  19  20
ENDBRANCH  18  19
ENDBRANCH   3  18
TORSDOF 6
ENDMDL
MODEL 6
REMARK VINA RESULT:    -3.334      4.815      7.206
REMARK INTER + INTRA:          -4.636
REMARK INTER:                  -4.362
REMARK INTRA:                  -0.274
REMARK UNBOUND:                -0.231
REMARK SMILES [H]/N=C\C[C@H]1C[C@@H]1O[C@H]1CO[C@H]2C[C@@H](C3CC3)CCN2C1
REMARK SMILES IDX 7 1 6 2 5 3 8 4 9 5 14 6 13 7 18 8 12 9 19 10 20 11 11 12
REMARK SMILES IDX 21 13 10 14 15 15 16 16 17 17 4 18 3 19 2 20 1 21
REMARK H PARENT
ROOT
ATOM      1  C   UNL     1      -0.753 -14.367   9.339  1.00  0.00     0.122 C 
ATOM      2  C   UNL     1      -1.634 -14.011  10.503  1.00  0.00     0.039 C 
ATOM      3  C   UNL     1      -1.993 -15.171   9.618  1.00  0.00     0.026 C 
ENDROOT
BRANCH   1   4
ATOM      4  O   UNL     1      -0.822 -13.434   8.244  1.00  0.00    -0.371 OA
BRANCH   4   5
ATOM      5  C   UNL     1       0.392 -13.268   7.494  1.00  0.00     0.158 C 
ATOM      6  C   UNL     1      -1.675 -12.950   2.716  1.00  0.00    -0.003 C 
ATOM      7  C   UNL     1      -1.464 -14.063   3.749  1.00  0.00     0.052 C 
ATOM      8  C   UNL     1      -1.912 -11.620   3.444  1.00  0.00     0.019 C 
ATOM      9  C   UNL     1      -0.370 -13.701   4.763  1.00  0.00     0.189 C 
ATOM     10  C   UNL     1      -0.807 -11.335   4.461  1.00  0.00     0.087 C 
ATOM     11  N   UNL     1      -0.683 -12.432   5.420  1.00  0.00    -0.276 NA
ATOM     12  O   UNL     1      -0.299 -14.783   5.692  1.00  0.00    -0.360 OA
ATOM     13  C   UNL     1       0.313 -12.135   6.455  1.00  0.00     0.121 C 
ATOM     14  C   UNL     1       0.663 -14.568   6.730  1.00  0.00     0.195 C 
BRANCH   6  15
ATOM     15  C   UNL     1      -2.829 -13.263   1.791  1.00  0.00    -0.008 C 
ATOM     16  C   UNL     1      -2.583 -13.939   0.463  1.00  0.00     0.004 C 
ATOM     17  C   UNL     1      -3.276 -14.687   1.565  1.00  0.00     0.004 C 
ENDBRANCH   6  15
ENDBRANCH   4   5
ENDBRANCH   1   4
BRANCH   3  18
ATOM     18  C   UNL     1      -1.884 -16.563  10.165  1.00  0.00     0.053 C 
BRANCH  18  19
ATOM     19  C   UNL     1      -2.559 -17.647   9.366  1.00  0.00     0.074 C 
BRANCH  19  20
ATOM     20  N   UNL     1      -2.319 -17.939   8.131  1.00  0.00    -0.313 NA
ATOM     21  H   UNL     1      -2.207 -17.092   7.556  1.00  0.00     0.186 HD
ENDBRANCH  19  20
ENDBRANCH  18  19
ENDBRANCH   3  18
TORSDOF 6
ENDMDL
MODEL 7
REMARK VINA RESULT:    -3.265      1.729      2.237
REMARK INTER + INTRA:          -4.545
REMARK INTER:                  -5.160
REMARK INTRA:                   0.614
REMARK UNBOUND:                -0.231
REMARK SMILES [H]/N=C\C[C@H]1C[C@@H]1O[C@H]1CO[C@H]2C[C@@H](C3CC3)CCN2C1
REMARK SMILES IDX 7 1 6 2 5 3 8 4 9 5 14 6 13 7 18 8 12 9 19 10 20 11 11 12
REMARK SMILES IDX 21 13 10 14 15 15 16 16 17 17 4 18 3 19 2 20 1 21
REMARK H PARENT
ROOT
ATOM      1  C   UNL     1      -2.446 -13.826   1.666  1.00  0.00     0.122 C 
ATOM      2  C   UNL     1      -3.350 -13.655   0.477  1.00  0.00     0.039 C 
ATOM      3  C   UNL     1      -2.369 -14.793   0.515  1.00  0.00     0.026 C 
ENDROOT
BRANCH   1   4
ATOM      4  O   UNL     1      -1.397 -12.843   1.752  1.00  0.00    -0.371 OA
BRANCH   4   5
ATOM      5  C   UNL     1      -1.013 -12.462   3.083  1.00  0.00     0.158 C 
ATOM      6  C   UNL     1      -2.982  -7.632   3.116  1.00  0.00    -0.003 C 
ATOM      7  C   UNL     1      -1.794  -8.329   2.443  1.00  0.00     0.052 C 
ATOM      8  C   UNL     1      -4.134  -8.635   3.275  1.00  0.00     0.019 C 
ATOM      9  C   UNL     1      -1.403  -9.622   3.173  1.00  0.00     0.189 C 
ATOM     10  C   UNL     1      -3.672  -9.911   3.977  1.00  0.00     0.087 C 
ATOM     11  N   UNL     1      -2.551 -10.524   3.264  1.00  0.00    -0.276 NA
ATOM     12  O   UNL     1      -0.325 -10.199   2.432  1.00  0.00    -0.360 OA
ATOM     13  C   UNL     1      -2.152 -11.796   3.876  1.00  0.00     0.121 C 
ATOM     14  C   UNL     1       0.126 -11.443   2.977  1.00  0.00     0.195 C 
BRANCH   6  15
ATOM     15  C   UNL     1      -3.435  -6.423   2.330  1.00  0.00    -0.008 C 
ATOM     16  C   UNL     1      -3.082  -6.288   0.867  1.00  0.00     0.004 C 
ATOM     17  C   UNL     1      -4.505  -6.545   1.272  1.00  0.00     0.004 C 
ENDBRANCH   6  15
ENDBRANCH   4   5
ENDBRANCH   1   4
BRANCH   3  18
ATOM     18  C   UNL     1      -2.886 -16.192   0.669  1.00  0.00     0.053 C 
BRANCH  18  19
ATOM     19  C   UNL     1      -2.242 -17.239  -0.203  1.00  0.00     0.074 C 
BRANCH  19  20
ATOM     20  N   UNL     1      -1.044 -17.702  -0.071  1.00  0.00    -0.313 NA
ATOM     21  H   UNL     1      -1.037 -18.731  -0.032  1.00  0.00     0.186 HD
ENDBRANCH  19  20
ENDBRANCH  18  19
ENDBRANCH   3  18
TORSDOF 6
ENDMDL
MODEL 8
REMARK VINA RESULT:    -3.036      5.309      7.907
REMARK INTER + INTRA:          -4.243
REMARK INTER:                  -4.226
REMARK INTRA:                  -0.017
REMARK UNBOUND:                -0.231
REMARK SMILES [H]/N=C\C[C@H]1C[C@@H]1O[C@H]1CO[C@H]2C[C@@H](C3CC3)CCN2C1
REMARK SMILES IDX 7 1 6 2 5 3 8 4 9 5 14 6 13 7 18 8 12 9 19 10 20 11 11 12
REMARK SMILES IDX 21 13 10 14 15 15 16 16 17 17 4 18 3 19 2 20 1 21
REMARK H PARENT
ROOT
ATOM      1  C   UNL     1      -1.616 -12.152   4.040  1.00  0.00     0.122 C 
ATOM      2  C   UNL     1      -0.494 -11.992   3.052  1.00  0.00     0.039 C 
ATOM      3  C   UNL     1      -1.633 -12.922   2.748  1.00  0.00     0.026 C 
ENDROOT
BRANCH   1   4
ATOM      4  O   UNL     1      -1.255 -12.888   5.224  1.00  0.00    -0.371 OA
BRANCH   4   5
ATOM      5  C   UNL     1       0.131 -12.821   5.597  1.00  0.00     0.158 C 
ATOM      6  C   UNL     1      -0.074 -15.753   9.906  1.00  0.00    -0.003 C 
ATOM      7  C   UNL     1      -0.545 -14.348   9.510  1.00  0.00     0.052 C 
ATOM      8  C   UNL     1      -0.141 -16.674   8.680  1.00  0.00     0.019 C 
ATOM      9  C   UNL     1       0.214 -13.817   8.286  1.00  0.00     0.189 C 
ATOM     10  C   UNL     1       0.603 -16.073   7.488  1.00  0.00     0.087 C 
ATOM     11  N   UNL     1       0.083 -14.745   7.163  1.00  0.00    -0.276 NA
ATOM     12  O   UNL     1      -0.340 -12.533   7.988  1.00  0.00    -0.360 OA
ATOM     13  C   UNL     1       0.728 -14.191   5.967  1.00  0.00     0.121 C 
ATOM     14  C   UNL     1       0.248 -11.924   6.834  1.00  0.00     0.195 C 
BRANCH   6  15
ATOM     15  C   UNL     1      -0.901 -16.316  11.040  1.00  0.00    -0.008 C 
ATOM     16  C   UNL     1      -0.247 -16.694  12.348  1.00  0.00     0.004 C 
ATOM     17  C   UNL     1      -1.160 -15.504  12.286  1.00  0.00     0.004 C 
ENDBRANCH   6  15
ENDBRANCH   4   5
ENDBRANCH   1   4
BRANCH   3  18
ATOM     18  C   UNL     1      -2.601 -12.555   1.662  1.00  0.00     0.053 C 
BRANCH  18  19
ATOM     19  C   UNL     1      -3.018 -13.668   0.737  1.00  0.00     0.074 C 
BRANCH  19  20
ATOM     20  N   UNL     1      -2.229 -14.523   0.176  1.00  0.00    -0.313 NA
ATOM     21  H   UNL     1      -2.422 -14.613  -0.832  1.00  0.00     0.186 HD
ENDBRANCH  19  20
ENDBRANCH  18  19
ENDBRANCH   3  18
TORSDOF 6
ENDMDL
MODEL 9
REMARK VINA RESULT:    -3.011      6.750      8.386
REMARK INTER + INTRA:          -4.210
REMARK INTER:                  -4.613
REMARK INTRA:                   0.403
REMARK UNBOUND:                -0.231
REMARK SMILES [H]/N=C\C[C@H]1C[C@@H]1O[C@H]1CO[C@H]2C[C@@H](C3CC3)CCN2C1
REMARK SMILES IDX 7 1 6 2 5 3 8 4 9 5 14 6 13 7 18 8 12 9 19 10 20 11 11 12
REMARK SMILES IDX 21 13 10 14 15 15 16 16 17 17 4 18 3 19 2 20 1 21
REMARK H PARENT
ROOT
ATOM      1  C   UNL     1      -1.626 -17.491   9.436  1.00  0.00     0.122 C 
ATOM      2  C   UNL     1      -2.412 -18.744   9.703  1.00  0.00     0.039 C 
ATOM      3  C   UNL     1      -1.022 -18.599  10.255  1.00  0.00     0.026 C 
ENDROOT
BRANCH   1   4
ATOM      4  O   UNL     1      -1.163 -17.367   8.078  1.00  0.00    -0.371 OA
BRANCH   4   5
ATOM      5  C   UNL     1       0.240 -17.093   7.924  1.00  0.00     0.158 C 
ATOM      6  C   UNL     1      -0.124 -12.609   5.284  1.00  0.00    -0.003 C 
ATOM      7  C   UNL     1      -0.371 -14.090   4.973  1.00  0.00     0.052 C 
ATOM      8  C   UNL     1      -0.452 -12.340   6.760  1.00  0.00     0.019 C 
ATOM      9  C   UNL     1       0.365 -15.011   5.956  1.00  0.00     0.189 C 
ATOM     10  C   UNL     1       0.286 -13.310   7.682  1.00  0.00     0.087 C 
ATOM     11  N   UNL     1      -0.017 -14.698   7.333  1.00  0.00    -0.276 NA
ATOM     12  O   UNL     1       0.023 -16.350   5.595  1.00  0.00    -0.360 OA
ATOM     13  C   UNL     1       0.614 -15.640   8.263  1.00  0.00     0.121 C 
ATOM     14  C   UNL     1       0.613 -17.330   6.457  1.00  0.00     0.195 C 
BRANCH   6  15
ATOM     15  C   UNL     1      -0.941 -11.709   4.386  1.00  0.00    -0.008 C 
ATOM     16  C   UNL     1      -0.367 -11.206   3.082  1.00  0.00     0.004 C 
ATOM     17  C   UNL     1      -1.480 -12.213   3.069  1.00  0.00     0.004 C 
ENDBRANCH   6  15
ENDBRANCH   4   5
ENDBRANCH   1   4
BRANCH   3  18
ATOM     18  C   UNL     1      -0.841 -18.433  11.734  1.00  0.00     0.053 C 
BRANCH  18  19
ATOM     19  C   UNL     1       0.572 -18.231  12.214  1.00  0.00     0.074 C 
BRANCH  19  20
ATOM     20  N   UNL     1       1.631 -18.754  11.691  1.00  0.00    -0.313 NA
ATOM     21  H   UNL     1       1.672 -19.771  11.854  1.00  0.00     0.186 HD
ENDBRANCH  19  20
ENDBRANCH  18  19
ENDBRANCH   3  18
TORSDOF 6
ENDMDL
