MODEL 1
REMARK VINA RESULT:    -5.953      0.000      0.000
REMARK INTER + INTRA:          -7.367
REMARK INTER:                  -6.997
REMARK INTRA:                  -0.370
REMARK UNBOUND:                -0.370
REMARK SMILES Cc1ccc(CNC(=O)NC(=O)c2ccc(C)cc2)cc1
REMARK SMILES IDX 11 1 12 2 10 3 8 4 9 5 7 6 13 9 19 10 18 11 14 12 16 13
REMARK SMILES IDX 15 14 17 15 6 16 5 17 4 18 20 19 3 20 21 21 2 22 1 23
REMARK H PARENT 10 7 7 8
ROOT
ATOM      1  C   UNL     1      -1.467 -10.508   3.264  1.00  0.00     0.259 C 
ATOM      2  O   UNL     1      -0.631 -10.275   4.126  1.00  0.00    -0.269 OA
ATOM      3  N   UNL     1      -1.867 -11.742   2.742  1.00  0.00    -0.274 N 
ATOM      4  C   UNL     1      -1.735 -13.069   3.065  1.00  0.00     0.321 C 
ATOM      5  O   UNL     1      -2.375 -13.887   2.396  1.00  0.00    -0.248 OA
ATOM      6  N   UNL     1      -0.976 -13.515   4.083  1.00  0.00    -0.334 N 
ATOM      7  H   UNL     1      -2.566 -11.681   2.014  1.00  0.00     0.175 HD
ATOM      8  H   UNL     1      -1.055 -14.510   4.242  1.00  0.00     0.165 HD
ENDROOT
BRANCH   1   9
ATOM      9  C   UNL     1      -2.163  -9.341   2.687  1.00  0.00     0.040 A 
ATOM     10  C   UNL     1      -1.752  -8.773   1.480  1.00  0.00     0.014 A 
ATOM     11  C   UNL     1      -2.474  -7.704   0.947  1.00  0.00     0.004 A 
ATOM     12  C   UNL     1      -3.250  -8.811   3.389  1.00  0.00     0.014 A 
ATOM     13  C   UNL     1      -3.597  -7.198   1.618  1.00  0.00    -0.051 A 
ATOM     14  C   UNL     1      -3.971  -7.748   2.850  1.00  0.00     0.004 A 
ATOM     15  C   UNL     1      -4.412  -6.105   0.991  1.00  0.00     0.044 C 
ENDBRANCH   1   9
BRANCH   6  16
ATOM     16  C   UNL     1      -0.244 -12.733   5.038  1.00  0.00     0.153 C 
BRANCH  16  17
ATOM     17  C   UNL     1       0.145 -13.405   6.326  1.00  0.00    -0.029 A 
ATOM     18  C   UNL     1      -0.204 -12.902   7.584  1.00  0.00     0.006 A 
ATOM     19  C   UNL     1       0.697 -14.693   6.239  1.00  0.00     0.006 A 
ATOM     20  C   UNL     1      -0.025 -13.690   8.726  1.00  0.00     0.004 A 
ATOM     21  C   UNL     1       0.870 -15.477   7.375  1.00  0.00     0.004 A 
ATOM     22  C   UNL     1       0.501 -14.986   8.628  1.00  0.00    -0.051 A 
ATOM     23  C   UNL     1       0.562 -15.886   9.826  1.00  0.00     0.044 C 
ENDBRANCH  16  17
ENDBRANCH   6  16
TORSDOF 3
ENDMDL
MODEL 2
REMARK VINA RESULT:    -5.944      3.249      5.534
REMARK INTER + INTRA:          -7.357
REMARK INTER:                  -6.984
REMARK INTRA:                  -0.372
REMARK UNBOUND:                -0.370
REMARK SMILES Cc1ccc(CNC(=O)NC(=O)c2ccc(C)cc2)cc1
REMARK SMILES IDX 11 1 12 2 10 3 8 4 9 5 7 6 13 9 19 10 18 11 14 12 16 13
REMARK SMILES IDX 15 14 17 15 6 16 5 17 4 18 20 19 3 20 21 21 2 22 1 23
REMARK H PARENT 10 7 7 8
ROOT
ATOM      1  C   UNL     1      -1.460 -10.595   2.864  1.00  0.00     0.259 C 
ATOM      2  O   UNL     1      -2.298 -10.849   2.010  1.00  0.00    -0.269 OA
ATOM      3  N   UNL     1      -0.955 -11.426   3.869  1.00  0.00    -0.274 N 
ATOM      4  C   UNL     1      -0.954 -12.763   4.172  1.00  0.00     0.321 C 
ATOM      5  O   UNL     1      -0.253 -13.136   5.119  1.00  0.00    -0.248 OA
ATOM      6  N   UNL     1      -1.648 -13.685   3.479  1.00  0.00    -0.334 N 
ATOM      7  H   UNL     1      -0.279 -10.982   4.476  1.00  0.00     0.175 HD
ATOM      8  H   UNL     1      -1.473 -14.634   3.776  1.00  0.00     0.165 HD
ENDROOT
BRANCH   1   9
ATOM      9  C   UNL     1      -0.889  -9.235   2.845  1.00  0.00     0.040 A 
ATOM     10  C   UNL     1      -1.385  -8.225   3.672  1.00  0.00     0.014 A 
ATOM     11  C   UNL     1      -0.778  -6.969   3.657  1.00  0.00     0.004 A 
ATOM     12  C   UNL     1       0.167  -8.978   1.964  1.00  0.00     0.014 A 
ATOM     13  C   UNL     1       0.315  -6.716   2.815  1.00  0.00    -0.051 A 
ATOM     14  C   UNL     1       0.774  -7.724   1.957  1.00  0.00     0.004 A 
ATOM     15  C   UNL     1       1.010  -5.387   2.871  1.00  0.00     0.044 C 
ENDBRANCH   1   9
BRANCH   6  16
ATOM     16  C   UNL     1      -2.434 -13.481   2.295  1.00  0.00     0.153 C 
BRANCH  16  17
ATOM     17  C   UNL     1      -2.707 -14.682   1.433  1.00  0.00    -0.029 A 
ATOM     18  C   UNL     1      -2.348 -14.750   0.083  1.00  0.00     0.006 A 
ATOM     19  C   UNL     1      -3.149 -15.849   2.077  1.00  0.00     0.006 A 
ATOM     20  C   UNL     1      -2.409 -15.972  -0.597  1.00  0.00     0.004 A 
ATOM     21  C   UNL     1      -3.205 -17.064   1.402  1.00  0.00     0.004 A 
ATOM     22  C   UNL     1      -2.825 -17.138   0.061  1.00  0.00    -0.051 A 
ATOM     23  C   UNL     1      -2.757 -18.473  -0.619  1.00  0.00     0.044 C 
ENDBRANCH  16  17
ENDBRANCH   6  16
TORSDOF 3
ENDMDL
MODEL 3
REMARK VINA RESULT:    -5.885      0.538      8.074
REMARK INTER + INTRA:          -7.287
REMARK INTER:                  -6.815
REMARK INTRA:                  -0.472
REMARK UNBOUND:                -0.370
REMARK SMILES Cc1ccc(CNC(=O)NC(=O)c2ccc(C)cc2)cc1
REMARK SMILES IDX 11 1 12 2 10 3 8 4 9 5 7 6 13 9 19 10 18 11 14 12 16 13
REMARK SMILES IDX 15 14 17 15 6 16 5 17 4 18 20 19 3 20 21 21 2 22 1 23
REMARK H PARENT 10 7 7 8
ROOT
ATOM      1  C   UNL     1      -0.549 -12.533   5.237  1.00  0.00     0.259 C 
ATOM      2  O   UNL     1      -0.330 -11.332   5.308  1.00  0.00    -0.269 OA
ATOM      3  N   UNL     1      -1.193 -13.247   4.221  1.00  0.00    -0.274 N 
ATOM      4  C   UNL     1      -1.587 -13.033   2.926  1.00  0.00     0.321 C 
ATOM      5  O   UNL     1      -2.025 -13.999   2.292  1.00  0.00    -0.248 OA
ATOM      6  N   UNL     1      -1.494 -11.841   2.307  1.00  0.00    -0.334 N 
ATOM      7  H   UNL     1      -1.275 -14.239   4.397  1.00  0.00     0.175 HD
ATOM      8  H   UNL     1      -1.746 -11.870   1.329  1.00  0.00     0.165 HD
ENDROOT
BRANCH   1   9
ATOM      9  C   UNL     1      -0.072 -13.359   6.363  1.00  0.00     0.040 A 
ATOM     10  C   UNL     1      -0.228 -12.944   7.687  1.00  0.00     0.014 A 
ATOM     11  C   UNL     1       0.191 -13.783   8.720  1.00  0.00     0.004 A 
ATOM     12  C   UNL     1       0.551 -14.575   6.068  1.00  0.00     0.014 A 
ATOM     13  C   UNL     1       0.771 -15.028   8.436  1.00  0.00    -0.051 A 
ATOM     14  C   UNL     1       0.962 -15.412   7.103  1.00  0.00     0.004 A 
ATOM     15  C   UNL     1       1.138 -15.954   9.558  1.00  0.00     0.044 C 
ENDBRANCH   1   9
BRANCH   6  16
ATOM     16  C   UNL     1      -0.924 -10.629   2.822  1.00  0.00     0.153 C 
BRANCH  16  17
ATOM     17  C   UNL     1      -1.644  -9.344   2.518  1.00  0.00    -0.029 A 
ATOM     18  C   UNL     1      -1.332  -8.536   1.420  1.00  0.00     0.006 A 
ATOM     19  C   UNL     1      -2.809  -9.070   3.253  1.00  0.00     0.006 A 
ATOM     20  C   UNL     1      -2.187  -7.490   1.055  1.00  0.00     0.004 A 
ATOM     21  C   UNL     1      -3.660  -8.033   2.886  1.00  0.00     0.004 A 
ATOM     22  C   UNL     1      -3.362  -7.240   1.777  1.00  0.00    -0.051 A 
ATOM     23  C   UNL     1      -4.352  -6.216   1.309  1.00  0.00     0.044 C 
ENDBRANCH  16  17
ENDBRANCH   6  16
TORSDOF 3
ENDMDL
MODEL 4
REMARK VINA RESULT:    -5.737      3.123      7.522
REMARK INTER + INTRA:          -7.114
REMARK INTER:                  -6.641
REMARK INTRA:                  -0.472
REMARK UNBOUND:                -0.370
REMARK SMILES Cc1ccc(CNC(=O)NC(=O)c2ccc(C)cc2)cc1
REMARK SMILES IDX 11 1 12 2 10 3 8 4 9 5 7 6 13 9 19 10 18 11 14 12 16 13
REMARK SMILES IDX 15 14 17 15 6 16 5 17 4 18 20 19 3 20 21 21 2 22 1 23
REMARK H PARENT 10 7 7 8
ROOT
ATOM      1  C   UNL     1      -2.430 -13.648   1.948  1.00  0.00     0.259 C 
ATOM      2  O   UNL     1      -3.002 -12.675   1.476  1.00  0.00    -0.269 OA
ATOM      3  N   UNL     1      -1.563 -13.707   3.044  1.00  0.00    -0.274 N 
ATOM      4  C   UNL     1      -1.200 -12.902   4.093  1.00  0.00     0.321 C 
ATOM      5  O   UNL     1      -0.468 -13.388   4.962  1.00  0.00    -0.248 OA
ATOM      6  N   UNL     1      -1.622 -11.632   4.238  1.00  0.00    -0.334 N 
ATOM      7  H   UNL     1      -1.194 -14.629   3.234  1.00  0.00     0.175 HD
ATOM      8  H   UNL     1      -1.335 -11.205   5.107  1.00  0.00     0.165 HD
ENDROOT
BRANCH   1   9
ATOM      9  C   UNL     1      -2.681 -14.945   1.291  1.00  0.00     0.040 A 
ATOM     10  C   UNL     1      -2.460 -15.124  -0.075  1.00  0.00     0.014 A 
ATOM     11  C   UNL     1      -2.661 -16.383  -0.642  1.00  0.00     0.004 A 
ATOM     12  C   UNL     1      -3.158 -15.998   2.078  1.00  0.00     0.014 A 
ATOM     13  C   UNL     1      -3.089 -17.460   0.149  1.00  0.00    -0.051 A 
ATOM     14  C   UNL     1      -3.351 -17.256   1.510  1.00  0.00     0.004 A 
ATOM     15  C   UNL     1      -3.219 -18.826  -0.456  1.00  0.00     0.044 C 
ENDBRANCH   1   9
BRANCH   6  16
ATOM     16  C   UNL     1      -2.549 -10.917   3.407  1.00  0.00     0.153 C 
BRANCH  16  17
ATOM     17  C   UNL     1      -2.163  -9.527   2.981  1.00  0.00    -0.029 A 
ATOM     18  C   UNL     1      -2.971  -8.408   3.206  1.00  0.00     0.006 A 
ATOM     19  C   UNL     1      -0.847  -9.335   2.531  1.00  0.00     0.006 A 
ATOM     20  C   UNL     1      -2.457  -7.122   3.007  1.00  0.00     0.004 A 
ATOM     21  C   UNL     1      -0.336  -8.055   2.337  1.00  0.00     0.004 A 
ATOM     22  C   UNL     1      -1.134  -6.937   2.584  1.00  0.00    -0.051 A 
ATOM     23  C   UNL     1      -0.533  -5.565   2.506  1.00  0.00     0.044 C 
ENDBRANCH  16  17
ENDBRANCH   6  16
TORSDOF 3
ENDMDL
MODEL 5
REMARK VINA RESULT:    -5.706      1.194      8.055
REMARK INTER + INTRA:          -7.077
REMARK INTER:                  -6.680
REMARK INTRA:                  -0.397
REMARK UNBOUND:                -0.370
REMARK SMILES Cc1ccc(CNC(=O)NC(=O)c2ccc(C)cc2)cc1
REMARK SMILES IDX 11 1 12 2 10 3 8 4 9 5 7 6 13 9 19 10 18 11 14 12 16 13
REMARK SMILES IDX 15 14 17 15 6 16 5 17 4 18 20 19 3 20 21 21 2 22 1 23
REMARK H PARENT 10 7 7 8
ROOT
ATOM      1  C   UNL     1      -0.312 -12.660   5.430  1.00  0.00     0.259 C 
ATOM      2  O   UNL     1       0.078 -11.501   5.468  1.00  0.00    -0.269 OA
ATOM      3  N   UNL     1      -1.089 -13.291   4.454  1.00  0.00    -0.274 N 
ATOM      4  C   UNL     1      -1.500 -13.043   3.169  1.00  0.00     0.321 C 
ATOM      5  O   UNL     1      -2.095 -13.947   2.573  1.00  0.00    -0.248 OA
ATOM      6  N   UNL     1      -1.263 -11.887   2.522  1.00  0.00    -0.334 N 
ATOM      7  H   UNL     1      -1.305 -14.259   4.653  1.00  0.00     0.175 HD
ATOM      8  H   UNL     1      -1.554 -11.895   1.555  1.00  0.00     0.165 HD
ENDROOT
BRANCH   1   9
ATOM      9  C   UNL     1       0.087 -13.528   6.555  1.00  0.00     0.040 A 
ATOM     10  C   UNL     1      -0.105 -13.134   7.881  1.00  0.00     0.014 A 
ATOM     11  C   UNL     1       0.239 -14.011   8.911  1.00  0.00     0.004 A 
ATOM     12  C   UNL     1       0.672 -14.762   6.257  1.00  0.00     0.014 A 
ATOM     13  C   UNL     1       0.779 -15.273   8.621  1.00  0.00    -0.051 A 
ATOM     14  C   UNL     1       1.008 -15.637   7.289  1.00  0.00     0.004 A 
ATOM     15  C   UNL     1       1.065 -16.236   9.736  1.00  0.00     0.044 C 
ENDBRANCH   1   9
BRANCH   6  16
ATOM     16  C   UNL     1      -0.507 -10.760   2.991  1.00  0.00     0.153 C 
BRANCH  16  17
ATOM     17  C   UNL     1      -0.965  -9.394   2.560  1.00  0.00    -0.029 A 
ATOM     18  C   UNL     1      -2.177  -8.830   2.973  1.00  0.00     0.006 A 
ATOM     19  C   UNL     1      -0.034  -8.585   1.888  1.00  0.00     0.006 A 
ATOM     20  C   UNL     1      -2.434  -7.475   2.738  1.00  0.00     0.004 A 
ATOM     21  C   UNL     1      -0.289  -7.237   1.659  1.00  0.00     0.004 A 
ATOM     22  C   UNL     1      -1.488  -6.667   2.091  1.00  0.00    -0.051 A 
ATOM     23  C   UNL     1      -1.695  -5.188   1.963  1.00  0.00     0.044 C 
ENDBRANCH  16  17
ENDBRANCH   6  16
TORSDOF 3
ENDMDL
MODEL 6
REMARK VINA RESULT:    -5.654      3.269      5.430
REMARK INTER + INTRA:          -7.015
REMARK INTER:                  -6.648
REMARK INTRA:                  -0.367
REMARK UNBOUND:                -0.370
REMARK SMILES Cc1ccc(CNC(=O)NC(=O)c2ccc(C)cc2)cc1
REMARK SMILES IDX 11 1 12 2 10 3 8 4 9 5 7 6 13 9 19 10 18 11 14 12 16 13
REMARK SMILES IDX 15 14 17 15 6 16 5 17 4 18 20 19 3 20 21 21 2 22 1 23
REMARK H PARENT 10 7 7 8
ROOT
ATOM      1  C   UNL     1      -1.398 -10.612   2.858  1.00  0.00     0.259 C 
ATOM      2  O   UNL     1      -2.207 -10.853   1.974  1.00  0.00    -0.269 OA
ATOM      3  N   UNL     1      -0.943 -11.450   3.881  1.00  0.00    -0.274 N 
ATOM      4  C   UNL     1      -0.974 -12.787   4.185  1.00  0.00     0.321 C 
ATOM      5  O   UNL     1      -0.314 -13.169   5.157  1.00  0.00    -0.248 OA
ATOM      6  N   UNL     1      -1.656 -13.698   3.466  1.00  0.00    -0.334 N 
ATOM      7  H   UNL     1      -0.283 -11.016   4.513  1.00  0.00     0.175 HD
ATOM      8  H   UNL     1      -1.507 -14.649   3.769  1.00  0.00     0.165 HD
ENDROOT
BRANCH   1   9
ATOM      9  C   UNL     1      -0.805  -9.261   2.860  1.00  0.00     0.040 A 
ATOM     10  C   UNL     1       0.225  -8.916   1.983  1.00  0.00     0.014 A 
ATOM     11  C   UNL     1       0.718  -7.611   1.986  1.00  0.00     0.004 A 
ATOM     12  C   UNL     1      -1.301  -8.327   3.775  1.00  0.00     0.014 A 
ATOM     13  C   UNL     1       0.191  -6.653   2.865  1.00  0.00    -0.051 A 
ATOM     14  C   UNL     1      -0.811  -7.023   3.770  1.00  0.00     0.004 A 
ATOM     15  C   UNL     1       0.672  -5.233   2.797  1.00  0.00     0.044 C 
ENDBRANCH   1   9
BRANCH   6  16
ATOM     16  C   UNL     1      -2.395 -13.483   2.254  1.00  0.00     0.153 C 
BRANCH  16  17
ATOM     17  C   UNL     1      -2.700 -14.688   1.409  1.00  0.00    -0.029 A 
ATOM     18  C   UNL     1      -2.367 -14.774   0.053  1.00  0.00     0.006 A 
ATOM     19  C   UNL     1      -3.146 -15.843   2.073  1.00  0.00     0.006 A 
ATOM     20  C   UNL     1      -2.457 -16.001  -0.613  1.00  0.00     0.004 A 
ATOM     21  C   UNL     1      -3.230 -17.063   1.410  1.00  0.00     0.004 A 
ATOM     22  C   UNL     1      -2.876 -17.155   0.063  1.00  0.00    -0.051 A 
ATOM     23  C   UNL     1      -2.839 -18.498  -0.604  1.00  0.00     0.044 C 
ENDBRANCH  16  17
ENDBRANCH   6  16
TORSDOF 3
ENDMDL
MODEL 7
REMARK VINA RESULT:    -5.479      2.997      7.773
REMARK INTER + INTRA:          -6.810
REMARK INTER:                  -6.424
REMARK INTRA:                  -0.386
REMARK UNBOUND:                -0.370
REMARK SMILES Cc1ccc(CNC(=O)NC(=O)c2ccc(C)cc2)cc1
REMARK SMILES IDX 11 1 12 2 10 3 8 4 9 5 7 6 13 9 19 10 18 11 14 12 16 13
REMARK SMILES IDX 15 14 17 15 6 16 5 17 4 18 20 19 3 20 21 21 2 22 1 23
REMARK H PARENT 10 7 7 8
ROOT
ATOM      1  C   UNL     1      -2.301 -13.335   1.973  1.00  0.00     0.259 C 
ATOM      2  O   UNL     1      -2.835 -12.392   1.407  1.00  0.00    -0.269 OA
ATOM      3  N   UNL     1      -1.483 -13.326   3.108  1.00  0.00    -0.274 N 
ATOM      4  C   UNL     1      -1.154 -12.453   4.113  1.00  0.00     0.321 C 
ATOM      5  O   UNL     1      -0.469 -12.885   5.046  1.00  0.00    -0.248 OA
ATOM      6  N   UNL     1      -1.562 -11.171   4.147  1.00  0.00    -0.334 N 
ATOM      7  H   UNL     1      -1.138 -14.237   3.380  1.00  0.00     0.175 HD
ATOM      8  H   UNL     1      -1.307 -10.686   4.996  1.00  0.00     0.165 HD
ENDROOT
BRANCH   1   9
ATOM      9  C   UNL     1      -2.543 -14.673   1.400  1.00  0.00     0.040 A 
ATOM     10  C   UNL     1      -2.993 -15.733   2.189  1.00  0.00     0.014 A 
ATOM     11  C   UNL     1      -3.258 -16.966   1.592  1.00  0.00     0.004 A 
ATOM     12  C   UNL     1      -2.301 -14.856   0.035  1.00  0.00     0.014 A 
ATOM     13  C   UNL     1      -3.069 -17.145   0.214  1.00  0.00    -0.051 A 
ATOM     14  C   UNL     1      -2.574 -16.087  -0.559  1.00  0.00     0.004 A 
ATOM     15  C   UNL     1      -3.439 -18.450  -0.428  1.00  0.00     0.044 C 
ENDBRANCH   1   9
BRANCH   6  16
ATOM     16  C   UNL     1      -2.440 -10.505   3.227  1.00  0.00     0.153 C 
BRANCH  16  17
ATOM     17  C   UNL     1      -2.282  -9.018   3.075  1.00  0.00    -0.029 A 
ATOM     18  C   UNL     1      -1.118  -8.333   3.439  1.00  0.00     0.006 A 
ATOM     19  C   UNL     1      -3.269  -8.337   2.344  1.00  0.00     0.006 A 
ATOM     20  C   UNL     1      -0.941  -7.000   3.054  1.00  0.00     0.004 A 
ATOM     21  C   UNL     1      -3.090  -7.013   1.957  1.00  0.00     0.004 A 
ATOM     22  C   UNL     1      -1.919  -6.335   2.300  1.00  0.00    -0.051 A 
ATOM     23  C   UNL     1      -1.675  -4.957   1.763  1.00  0.00     0.044 C 
ENDBRANCH  16  17
ENDBRANCH   6  16
TORSDOF 3
ENDMDL
MODEL 8
REMARK VINA RESULT:    -4.411      2.131      3.718
REMARK INTER + INTRA:          -5.555
REMARK INTER:                  -5.081
REMARK INTRA:                  -0.474
REMARK UNBOUND:                -0.370
REMARK SMILES Cc1ccc(CNC(=O)NC(=O)c2ccc(C)cc2)cc1
REMARK SMILES IDX 11 1 12 2 10 3 8 4 9 5 7 6 13 9 19 10 18 11 14 12 16 13
REMARK SMILES IDX 15 14 17 15 6 16 5 17 4 18 20 19 3 20 21 21 2 22 1 23
REMARK H PARENT 10 7 7 8
ROOT
ATOM      1  C   UNL     1      -0.187 -12.831   5.420  1.00  0.00     0.259 C 
ATOM      2  O   UNL     1       0.218 -12.328   6.459  1.00  0.00    -0.269 OA
ATOM      3  N   UNL     1      -0.185 -14.177   5.040  1.00  0.00    -0.274 N 
ATOM      4  C   UNL     1      -0.007 -15.398   5.637  1.00  0.00     0.321 C 
ATOM      5  O   UNL     1      -0.225 -16.406   4.957  1.00  0.00    -0.248 OA
ATOM      6  N   UNL     1       0.361 -15.551   6.923  1.00  0.00    -0.334 N 
ATOM      7  H   UNL     1      -0.557 -14.349   4.115  1.00  0.00     0.175 HD
ATOM      8  H   UNL     1       0.364 -16.512   7.233  1.00  0.00     0.165 HD
ENDROOT
BRANCH   1   9
ATOM      9  C   UNL     1      -0.763 -11.910   4.421  1.00  0.00     0.040 A 
ATOM     10  C   UNL     1      -2.138 -11.678   4.352  1.00  0.00     0.014 A 
ATOM     11  C   UNL     1      -2.631 -10.759   3.426  1.00  0.00     0.004 A 
ATOM     12  C   UNL     1       0.110 -11.274   3.533  1.00  0.00     0.014 A 
ATOM     13  C   UNL     1      -1.758 -10.077   2.565  1.00  0.00    -0.051 A 
ATOM     14  C   UNL     1      -0.386 -10.352   2.614  1.00  0.00     0.004 A 
ATOM     15  C   UNL     1      -2.294  -9.030   1.634  1.00  0.00     0.044 C 
ENDBRANCH   1   9
BRANCH   6  16
ATOM     16  C   UNL     1       0.561 -14.523   7.905  1.00  0.00     0.153 C 
BRANCH  16  17
ATOM     17  C   UNL     1      -0.071 -14.726   9.254  1.00  0.00    -0.029 A 
ATOM     18  C   UNL     1      -1.410 -14.425   9.523  1.00  0.00     0.006 A 
ATOM     19  C   UNL     1       0.668 -15.441  10.210  1.00  0.00     0.006 A 
ATOM     20  C   UNL     1      -1.999 -14.856  10.716  1.00  0.00     0.004 A 
ATOM     21  C   UNL     1       0.080 -15.874  11.394  1.00  0.00     0.004 A 
ATOM     22  C   UNL     1      -1.262 -15.594  11.653  1.00  0.00    -0.051 A 
ATOM     23  C   UNL     1      -1.923 -16.181  12.865  1.00  0.00     0.044 C 
ENDBRANCH  16  17
ENDBRANCH   6  16
TORSDOF 3
ENDMDL
MODEL 9
REMARK VINA RESULT:    -4.396      1.825      2.003
REMARK INTER + INTRA:          -5.538
REMARK INTER:                  -5.152
REMARK INTRA:                  -0.386
REMARK UNBOUND:                -0.370
REMARK SMILES Cc1ccc(CNC(=O)NC(=O)c2ccc(C)cc2)cc1
REMARK SMILES IDX 11 1 12 2 10 3 8 4 9 5 7 6 13 9 19 10 18 11 14 12 16 13
REMARK SMILES IDX 15 14 17 15 6 16 5 17 4 18 20 19 3 20 21 21 2 22 1 23
REMARK H PARENT 10 7 7 8
ROOT
ATOM      1  C   UNL     1      -1.257  -9.461   3.091  1.00  0.00     0.259 C 
ATOM      2  O   UNL     1      -0.131  -9.890   3.299  1.00  0.00    -0.269 OA
ATOM      3  N   UNL     1      -2.484 -10.116   3.234  1.00  0.00    -0.274 N 
ATOM      4  C   UNL     1      -2.959 -11.262   3.820  1.00  0.00     0.321 C 
ATOM      5  O   UNL     1      -4.183 -11.430   3.842  1.00  0.00    -0.248 OA
ATOM      6  N   UNL     1      -2.167 -12.188   4.393  1.00  0.00    -0.334 N 
ATOM      7  H   UNL     1      -3.288  -9.557   2.980  1.00  0.00     0.175 HD
ATOM      8  H   UNL     1      -2.676 -12.928   4.854  1.00  0.00     0.165 HD
ENDROOT
BRANCH   1   9
ATOM      9  C   UNL     1      -1.357  -8.062   2.632  1.00  0.00     0.040 A 
ATOM     10  C   UNL     1      -2.338  -7.662   1.723  1.00  0.00     0.014 A 
ATOM     11  C   UNL     1      -2.425  -6.318   1.359  1.00  0.00     0.004 A 
ATOM     12  C   UNL     1      -0.430  -7.140   3.130  1.00  0.00     0.014 A 
ATOM     13  C   UNL     1      -1.533  -5.376   1.892  1.00  0.00    -0.051 A 
ATOM     14  C   UNL     1      -0.526  -5.797   2.768  1.00  0.00     0.004 A 
ATOM     15  C   UNL     1      -1.694  -3.922   1.557  1.00  0.00     0.044 C 
ENDBRANCH   1   9
BRANCH   6  16
ATOM     16  C   UNL     1      -0.743 -12.136   4.566  1.00  0.00     0.153 C 
BRANCH  16  17
ATOM     17  C   UNL     1      -0.162 -12.891   5.730  1.00  0.00    -0.029 A 
ATOM     18  C   UNL     1      -0.289 -12.464   7.056  1.00  0.00     0.006 A 
ATOM     19  C   UNL     1       0.340 -14.177   5.476  1.00  0.00     0.006 A 
ATOM     20  C   UNL     1       0.059 -13.323   8.104  1.00  0.00     0.004 A 
ATOM     21  C   UNL     1       0.681 -15.032   6.519  1.00  0.00     0.004 A 
ATOM     22  C   UNL     1       0.534 -14.616   7.844  1.00  0.00    -0.051 A 
ATOM     23  C   UNL     1       0.772 -15.590   8.959  1.00  0.00     0.044 C 
ENDBRANCH  16  17
ENDBRANCH   6  16
TORSDOF 3
ENDMDL
