MODEL 1
REMARK VINA RESULT:    -3.939      0.000      0.000
REMARK INTER + INTRA:          -5.429
REMARK INTER:                  -5.205
REMARK INTRA:                  -0.224
REMARK UNBOUND:                -0.224
REMARK SMILES [H]/N=C\C[C@H]1C[C@@H]1O[C@H]1CO[C@H]2C[C@@H](C3CC3)CCN2C1
REMARK SMILES IDX 7 1 6 2 5 3 8 4 9 5 14 6 13 7 18 8 12 9 19 10 20 11 11 12
REMARK SMILES IDX 21 13 10 14 15 15 16 16 17 17 4 18 3 19 2 20 1 21
REMARK H PARENT
ROOT
ATOM      1  C   UNL     1       0.949   4.218  11.492  1.00  0.00     0.122 C 
ATOM      2  C   UNL     1       0.828   5.544  12.188  1.00  0.00     0.039 C 
ATOM      3  C   UNL     1      -0.394   4.699  11.968  1.00  0.00     0.026 C 
ENDROOT
BRANCH   1   4
ATOM      4  O   UNL     1       1.207   4.319  10.078  1.00  0.00    -0.371 OA
BRANCH   4   5
ATOM      5  C   UNL     1       2.521   4.776   9.719  1.00  0.00     0.158 C 
ATOM      6  C   UNL     1       3.274   1.772   5.522  1.00  0.00    -0.003 C 
ATOM      7  C   UNL     1       3.230   1.549   7.039  1.00  0.00     0.052 C 
ATOM      8  C   UNL     1       2.310   2.907   5.148  1.00  0.00     0.019 C 
ATOM      9  C   UNL     1       3.468   2.852   7.813  1.00  0.00     0.189 C 
ATOM     10  C   UNL     1       2.577   4.162   5.978  1.00  0.00     0.087 C 
ATOM     11  N   UNL     1       2.498   3.870   7.409  1.00  0.00    -0.276 NA
ATOM     12  O   UNL     1       3.358   2.529   9.201  1.00  0.00    -0.360 OA
ATOM     13  C   UNL     1       2.666   5.083   8.218  1.00  0.00     0.121 C 
ATOM     14  C   UNL     1       3.520   3.665  10.056  1.00  0.00     0.195 C 
BRANCH   6  15
ATOM     15  C   UNL     1       2.926   0.510   4.765  1.00  0.00    -0.008 C 
ATOM     16  C   UNL     1       3.818   0.018   3.650  1.00  0.00     0.004 C 
ATOM     17  C   UNL     1       3.745  -0.747   4.939  1.00  0.00     0.004 C 
ENDBRANCH   6  15
ENDBRANCH   4   5
ENDBRANCH   1   4
BRANCH   3  18
ATOM     18  C   UNL     1      -1.053   4.053  13.149  1.00  0.00     0.053 C 
BRANCH  18  19
ATOM     19  C   UNL     1      -1.430   4.968  14.285  1.00  0.00     0.074 C 
BRANCH  19  20
ATOM     20  N   UNL     1      -2.624   5.373  14.568  1.00  0.00    -0.313 NA
ATOM     21  H   UNL     1      -3.339   4.821  14.072  1.00  0.00     0.186 HD
ENDBRANCH  19  20
ENDBRANCH  18  19
ENDBRANCH   3  18
TORSDOF 6
ENDMDL
MODEL 2
REMARK VINA RESULT:    -3.930      3.117      4.630
REMARK INTER + INTRA:          -5.418
REMARK INTER:                  -5.645
REMARK INTRA:                   0.227
REMARK UNBOUND:                -0.224
REMARK SMILES [H]/N=C\C[C@H]1C[C@@H]1O[C@H]1CO[C@H]2C[C@@H](C3CC3)CCN2C1
REMARK SMILES IDX 7 1 6 2 5 3 8 4 9 5 14 6 13 7 18 8 12 9 19 10 20 11 11 12
REMARK SMILES IDX 21 13 10 14 15 15 16 16 17 17 4 18 3 19 2 20 1 21
REMARK H PARENT
ROOT
ATOM      1  C   UNL     1       6.133   3.232  10.774  1.00  0.00     0.122 C 
ATOM      2  C   UNL     1       7.167   4.323  10.756  1.00  0.00     0.039 C 
ATOM      3  C   UNL     1       6.216   4.212  11.913  1.00  0.00     0.026 C 
ENDROOT
BRANCH   1   4
ATOM      4  O   UNL     1       5.059   3.425   9.834  1.00  0.00    -0.371 OA
BRANCH   4   5
ATOM      5  C   UNL     1       3.759   3.011  10.285  1.00  0.00     0.158 C 
ATOM      6  C   UNL     1       1.451   2.480   5.638  1.00  0.00    -0.003 C 
ATOM      7  C   UNL     1       1.919   3.656   6.504  1.00  0.00     0.052 C 
ATOM      8  C   UNL     1       2.382   1.281   5.864  1.00  0.00     0.019 C 
ATOM      9  C   UNL     1       2.073   3.253   7.977  1.00  0.00     0.189 C 
ATOM     10  C   UNL     1       2.520   0.954   7.351  1.00  0.00     0.087 C 
ATOM     11  N   UNL     1       2.988   2.119   8.102  1.00  0.00    -0.276 NA
ATOM     12  O   UNL     1       2.554   4.408   8.668  1.00  0.00    -0.360 OA
ATOM     13  C   UNL     1       3.209   1.797   9.517  1.00  0.00     0.121 C 
ATOM     14  C   UNL     1       2.785   4.172  10.060  1.00  0.00     0.195 C 
BRANCH   6  15
ATOM     15  C   UNL     1       1.410   2.851   4.173  1.00  0.00    -0.008 C 
ATOM     16  C   UNL     1       0.217   2.480   3.324  1.00  0.00     0.004 C 
ATOM     17  C   UNL     1       0.468   3.919   3.672  1.00  0.00     0.004 C 
ENDBRANCH   6  15
ENDBRANCH   4   5
ENDBRANCH   1   4
BRANCH   3  18
ATOM     18  C   UNL     1       6.743   3.776  13.248  1.00  0.00     0.053 C 
BRANCH  18  19
ATOM     19  C   UNL     1       6.063   4.365  14.456  1.00  0.00     0.074 C 
BRANCH  19  20
ATOM     20  N   UNL     1       5.170   3.780  15.183  1.00  0.00    -0.313 NA
ATOM     21  H   UNL     1       5.157   2.763  15.023  1.00  0.00     0.186 HD
ENDBRANCH  19  20
ENDBRANCH  18  19
ENDBRANCH   3  18
TORSDOF 6
ENDMDL
MODEL 3
REMARK VINA RESULT:    -3.899      5.172      8.411
REMARK INTER + INTRA:          -5.377
REMARK INTER:                  -5.133
REMARK INTRA:                  -0.244
REMARK UNBOUND:                -0.224
REMARK SMILES [H]/N=C\C[C@H]1C[C@@H]1O[C@H]1CO[C@H]2C[C@@H](C3CC3)CCN2C1
REMARK SMILES IDX 7 1 6 2 5 3 8 4 9 5 14 6 13 7 18 8 12 9 19 10 20 11 11 12
REMARK SMILES IDX 21 13 10 14 15 15 16 16 17 17 4 18 3 19 2 20 1 21
REMARK H PARENT
ROOT
ATOM      1  C   UNL     1       3.634   3.811   9.594  1.00  0.00     0.122 C 
ATOM      2  C   UNL     1       2.265   4.392   9.810  1.00  0.00     0.039 C 
ATOM      3  C   UNL     1       3.085   4.826   8.628  1.00  0.00     0.026 C 
ENDROOT
BRANCH   1   4
ATOM      4  O   UNL     1       4.625   4.279  10.528  1.00  0.00    -0.371 OA
BRANCH   4   5
ATOM      5  C   UNL     1       5.625   3.319  10.904  1.00  0.00     0.158 C 
ATOM      6  C   UNL     1       9.149   6.601  12.907  1.00  0.00    -0.003 C 
ATOM      7  C   UNL     1       8.643   6.257  11.501  1.00  0.00     0.052 C 
ATOM      8  C   UNL     1       8.002   6.437  13.913  1.00  0.00     0.019 C 
ATOM      9  C   UNL     1       7.966   4.880  11.459  1.00  0.00     0.189 C 
ATOM     10  C   UNL     1       7.349   5.060  13.797  1.00  0.00     0.087 C 
ATOM     11  N   UNL     1       6.877   4.818  12.434  1.00  0.00    -0.276 NA
ATOM     12  O   UNL     1       7.500   4.695  10.122  1.00  0.00    -0.360 OA
ATOM     13  C   UNL     1       6.171   3.536  12.326  1.00  0.00     0.121 C 
ATOM     14  C   UNL     1       6.806   3.457   9.937  1.00  0.00     0.195 C 
BRANCH   6  15
ATOM     15  C   UNL     1       9.712   8.003  12.967  1.00  0.00    -0.008 C 
ATOM     16  C   UNL     1      10.973   8.287  13.750  1.00  0.00     0.004 C 
ATOM     17  C   UNL     1      10.994   8.353  12.251  1.00  0.00     0.004 C 
ENDBRANCH   6  15
ENDBRANCH   4   5
ENDBRANCH   1   4
BRANCH   3  18
ATOM     18  C   UNL     1       2.657   4.407   7.254  1.00  0.00     0.053 C 
BRANCH  18  19
ATOM     19  C   UNL     1       2.698   5.472   6.190  1.00  0.00     0.074 C 
BRANCH  19  20
ATOM     20  N   UNL     1       2.696   6.747   6.394  1.00  0.00    -0.313 NA
ATOM     21  H   UNL     1       2.133   7.244   5.690  1.00  0.00     0.186 HD
ENDBRANCH  19  20
ENDBRANCH  18  19
ENDBRANCH   3  18
TORSDOF 6
ENDMDL
MODEL 4
REMARK VINA RESULT:    -3.743      6.582      7.955
REMARK INTER + INTRA:          -5.170
REMARK INTER:                  -4.959
REMARK INTRA:                  -0.211
REMARK UNBOUND:                -0.224
REMARK SMILES [H]/N=C\C[C@H]1C[C@@H]1O[C@H]1CO[C@H]2C[C@@H](C3CC3)CCN2C1
REMARK SMILES IDX 7 1 6 2 5 3 8 4 9 5 14 6 13 7 18 8 12 9 19 10 20 11 11 12
REMARK SMILES IDX 21 13 10 14 15 15 16 16 17 17 4 18 3 19 2 20 1 21
REMARK H PARENT
ROOT
ATOM      1  C   UNL     1       7.388   7.794  15.908  1.00  0.00     0.122 C 
ATOM      2  C   UNL     1       8.671   8.532  16.168  1.00  0.00     0.039 C 
ATOM      3  C   UNL     1       7.435   9.292  15.784  1.00  0.00     0.026 C 
ENDROOT
BRANCH   1   4
ATOM      4  O   UNL     1       7.380   7.045  14.678  1.00  0.00    -0.371 OA
BRANCH   4   5
ATOM      5  C   UNL     1       7.904   5.710  14.762  1.00  0.00     0.158 C 
ATOM      6  C   UNL     1       5.471   3.652  10.633  1.00  0.00    -0.003 C 
ATOM      7  C   UNL     1       5.057   4.105  12.038  1.00  0.00     0.052 C 
ATOM      8  C   UNL     1       6.625   4.532  10.135  1.00  0.00     0.019 C 
ATOM      9  C   UNL     1       6.255   4.165  12.994  1.00  0.00     0.189 C 
ATOM     10  C   UNL     1       7.770   4.576  11.146  1.00  0.00     0.087 C 
ATOM     11  N   UNL     1       7.298   5.036  12.452  1.00  0.00    -0.276 NA
ATOM     12  O   UNL     1       5.757   4.640  14.246  1.00  0.00    -0.360 OA
ATOM     13  C   UNL     1       8.401   5.167  13.411  1.00  0.00     0.121 C 
ATOM     14  C   UNL     1       6.778   4.785  15.238  1.00  0.00     0.195 C 
BRANCH   6  15
ATOM     15  C   UNL     1       4.308   3.704   9.668  1.00  0.00    -0.008 C 
ATOM     16  C   UNL     1       3.448   2.484   9.440  1.00  0.00     0.004 C 
ATOM     17  C   UNL     1       2.884   3.669  10.169  1.00  0.00     0.004 C 
ENDBRANCH   6  15
ENDBRANCH   4   5
ENDBRANCH   1   4
BRANCH   3  18
ATOM     18  C   UNL     1       6.766  10.157  16.810  1.00  0.00     0.053 C 
BRANCH  18  19
ATOM     19  C   UNL     1       7.156  11.612  16.811  1.00  0.00     0.074 C 
BRANCH  19  20
ATOM     20  N   UNL     1       6.443  12.588  16.356  1.00  0.00    -0.313 NA
ATOM     21  H   UNL     1       6.210  12.456  15.361  1.00  0.00     0.186 HD
ENDBRANCH  19  20
ENDBRANCH  18  19
ENDBRANCH   3  18
TORSDOF 6
ENDMDL
MODEL 5
REMARK VINA RESULT:    -3.668      5.766      7.249
REMARK INTER + INTRA:          -5.071
REMARK INTER:                  -4.584
REMARK INTRA:                  -0.487
REMARK UNBOUND:                -0.224
REMARK SMILES [H]/N=C\C[C@H]1C[C@@H]1O[C@H]1CO[C@H]2C[C@@H](C3CC3)CCN2C1
REMARK SMILES IDX 7 1 6 2 5 3 8 4 9 5 14 6 13 7 18 8 12 9 19 10 20 11 11 12
REMARK SMILES IDX 21 13 10 14 15 15 16 16 17 17 4 18 3 19 2 20 1 21
REMARK H PARENT
ROOT
ATOM      1  C   UNL     1       6.845   7.076  16.461  1.00  0.00     0.122 C 
ATOM      2  C   UNL     1       6.473   8.525  16.604  1.00  0.00     0.039 C 
ATOM      3  C   UNL     1       5.448   7.531  16.135  1.00  0.00     0.026 C 
ENDROOT
BRANCH   1   4
ATOM      4  O   UNL     1       7.710   6.800  15.343  1.00  0.00    -0.371 OA
BRANCH   4   5
ATOM      5  C   UNL     1       8.270   5.477  15.304  1.00  0.00     0.158 C 
ATOM      6  C   UNL     1       5.995   3.791  10.924  1.00  0.00    -0.003 C 
ATOM      7  C   UNL     1       5.535   4.087  12.356  1.00  0.00     0.052 C 
ATOM      8  C   UNL     1       7.136   4.747  10.549  1.00  0.00     0.019 C 
ATOM      9  C   UNL     1       6.709   4.079  13.345  1.00  0.00     0.189 C 
ATOM     10  C   UNL     1       8.255   4.717  11.590  1.00  0.00     0.087 C 
ATOM     11  N   UNL     1       7.739   5.028  12.922  1.00  0.00    -0.276 NA
ATOM     12  O   UNL     1       6.167   4.411  14.625  1.00  0.00    -0.360 OA
ATOM     13  C   UNL     1       8.814   5.089  13.918  1.00  0.00     0.121 C 
ATOM     14  C   UNL     1       7.160   4.480  15.653  1.00  0.00     0.195 C 
BRANCH   6  15
ATOM     15  C   UNL     1       4.855   3.912   9.938  1.00  0.00    -0.008 C 
ATOM     16  C   UNL     1       3.947   2.735   9.672  1.00  0.00     0.004 C 
ATOM     17  C   UNL     1       3.422   3.930  10.412  1.00  0.00     0.004 C 
ENDBRANCH   6  15
ENDBRANCH   4   5
ENDBRANCH   1   4
BRANCH   3  18
ATOM     18  C   UNL     1       4.308   7.180  17.044  1.00  0.00     0.053 C 
BRANCH  18  19
ATOM     19  C   UNL     1       3.380   6.096  16.559  1.00  0.00     0.074 C 
BRANCH  19  20
ATOM     20  N   UNL     1       3.737   4.941  16.105  1.00  0.00    -0.313 NA
ATOM     21  H   UNL     1       2.922   4.362  15.858  1.00  0.00     0.186 HD
ENDBRANCH  19  20
ENDBRANCH  18  19
ENDBRANCH   3  18
TORSDOF 6
ENDMDL
MODEL 6
REMARK VINA RESULT:    -3.598      6.659      8.805
REMARK INTER + INTRA:          -4.979
REMARK INTER:                  -4.733
REMARK INTRA:                  -0.246
REMARK UNBOUND:                -0.224
REMARK SMILES [H]/N=C\C[C@H]1C[C@@H]1O[C@H]1CO[C@H]2C[C@@H](C3CC3)CCN2C1
REMARK SMILES IDX 7 1 6 2 5 3 8 4 9 5 14 6 13 7 18 8 12 9 19 10 20 11 11 12
REMARK SMILES IDX 21 13 10 14 15 15 16 16 17 17 4 18 3 19 2 20 1 21
REMARK H PARENT
ROOT
ATOM      1  C   UNL     1       2.454   6.399  14.735  1.00  0.00     0.122 C 
ATOM      2  C   UNL     1       1.850   7.573  14.016  1.00  0.00     0.039 C 
ATOM      3  C   UNL     1       1.397   6.179  13.688  1.00  0.00     0.026 C 
ENDROOT
BRANCH   1   4
ATOM      4  O   UNL     1       3.812   6.111  14.352  1.00  0.00    -0.371 OA
BRANCH   4   5
ATOM      5  C   UNL     1       4.651   5.584  15.392  1.00  0.00     0.158 C 
ATOM      6  C   UNL     1       9.104   7.965  14.087  1.00  0.00    -0.003 C 
ATOM      7  C   UNL     1       8.261   6.821  13.511  1.00  0.00     0.052 C 
ATOM      8  C   UNL     1       8.179   8.988  14.762  1.00  0.00     0.019 C 
ATOM      9  C   UNL     1       7.324   6.217  14.566  1.00  0.00     0.189 C 
ATOM     10  C   UNL     1       7.250   8.318  15.774  1.00  0.00     0.087 C 
ATOM     11  N   UNL     1       6.469   7.254  15.144  1.00  0.00    -0.276 NA
ATOM     12  O   UNL     1       6.565   5.203  13.905  1.00  0.00    -0.360 OA
ATOM     13  C   UNL     1       5.510   6.659  16.081  1.00  0.00     0.121 C 
ATOM     14  C   UNL     1       5.611   4.569  14.762  1.00  0.00     0.195 C 
BRANCH   6  15
ATOM     15  C   UNL     1       9.941   8.631  13.018  1.00  0.00    -0.008 C 
ATOM     16  C   UNL     1      11.403   8.922  13.263  1.00  0.00     0.004 C 
ATOM     17  C   UNL     1      11.008   7.860  12.279  1.00  0.00     0.004 C 
ENDBRANCH   6  15
ENDBRANCH   4   5
ENDBRANCH   1   4
BRANCH   3  18
ATOM     18  C   UNL     1       0.016   5.751  14.086  1.00  0.00     0.053 C 
BRANCH  18  19
ATOM     19  C   UNL     1      -0.631   4.700  13.222  1.00  0.00     0.074 C 
BRANCH  19  20
ATOM     20  N   UNL     1      -0.289   4.397  12.014  1.00  0.00    -0.313 NA
ATOM     21  H   UNL     1      -0.760   4.998  11.324  1.00  0.00     0.186 HD
ENDBRANCH  19  20
ENDBRANCH  18  19
ENDBRANCH   3  18
TORSDOF 6
ENDMDL
MODEL 7
REMARK VINA RESULT:    -3.556      8.299     10.693
REMARK INTER + INTRA:          -4.923
REMARK INTER:                  -4.663
REMARK INTRA:                  -0.260
REMARK UNBOUND:                -0.224
REMARK SMILES [H]/N=C\C[C@H]1C[C@@H]1O[C@H]1CO[C@H]2C[C@@H](C3CC3)CCN2C1
REMARK SMILES IDX 7 1 6 2 5 3 8 4 9 5 14 6 13 7 18 8 12 9 19 10 20 11 11 12
REMARK SMILES IDX 21 13 10 14 15 15 16 16 17 17 4 18 3 19 2 20 1 21
REMARK H PARENT
ROOT
ATOM      1  C   UNL     1      11.264   6.042  16.602  1.00  0.00     0.122 C 
ATOM      2  C   UNL     1      12.500   5.318  17.056  1.00  0.00     0.039 C 
ATOM      3  C   UNL     1      11.981   5.112  15.662  1.00  0.00     0.026 C 
ENDROOT
BRANCH   1   4
ATOM      4  O   UNL     1      10.045   5.550  17.191  1.00  0.00    -0.371 OA
BRANCH   4   5
ATOM      5  C   UNL     1       8.920   6.441  17.120  1.00  0.00     0.158 C 
ATOM      6  C   UNL     1       6.482   4.300  13.036  1.00  0.00    -0.003 C 
ATOM      7  C   UNL     1       7.753   5.132  13.244  1.00  0.00     0.052 C 
ATOM      8  C   UNL     1       6.248   3.414  14.268  1.00  0.00     0.019 C 
ATOM      9  C   UNL     1       7.720   5.902  14.571  1.00  0.00     0.189 C 
ATOM     10  C   UNL     1       6.261   4.236  15.557  1.00  0.00     0.087 C 
ATOM     11  N   UNL     1       7.511   4.983  15.690  1.00  0.00    -0.276 NA
ATOM     12  O   UNL     1       8.965   6.595  14.672  1.00  0.00    -0.360 OA
ATOM     13  C   UNL     1       7.575   5.708  16.963  1.00  0.00     0.121 C 
ATOM     14  C   UNL     1       9.097   7.336  15.889  1.00  0.00     0.195 C 
BRANCH   6  15
ATOM     15  C   UNL     1       6.569   3.456  11.785  1.00  0.00    -0.008 C 
ATOM     16  C   UNL     1       5.535   3.600  10.693  1.00  0.00     0.004 C 
ATOM     17  C   UNL     1       6.941   4.074  10.459  1.00  0.00     0.004 C 
ENDBRANCH   6  15
ENDBRANCH   4   5
ENDBRANCH   1   4
BRANCH   3  18
ATOM     18  C   UNL     1      12.764   5.660  14.507  1.00  0.00     0.053 C 
BRANCH  18  19
ATOM     19  C   UNL     1      12.212   5.379  13.134  1.00  0.00     0.074 C 
BRANCH  19  20
ATOM     20  N   UNL     1      12.590   4.429  12.346  1.00  0.00    -0.313 NA
ATOM     21  H   UNL     1      11.894   4.247  11.609  1.00  0.00     0.186 HD
ENDBRANCH  19  20
ENDBRANCH  18  19
ENDBRANCH   3  18
TORSDOF 6
ENDMDL
MODEL 8
REMARK VINA RESULT:    -3.443      6.620      8.657
REMARK INTER + INTRA:          -4.773
REMARK INTER:                  -4.463
REMARK INTRA:                  -0.311
REMARK UNBOUND:                -0.224
REMARK SMILES [H]/N=C\C[C@H]1C[C@@H]1O[C@H]1CO[C@H]2C[C@@H](C3CC3)CCN2C1
REMARK SMILES IDX 7 1 6 2 5 3 8 4 9 5 14 6 13 7 18 8 12 9 19 10 20 11 11 12
REMARK SMILES IDX 21 13 10 14 15 15 16 16 17 17 4 18 3 19 2 20 1 21
REMARK H PARENT
ROOT
ATOM      1  C   UNL     1       9.016   7.453  12.921  1.00  0.00     0.122 C 
ATOM      2  C   UNL     1       8.683   8.744  12.229  1.00  0.00     0.039 C 
ATOM      3  C   UNL     1       9.722   8.722  13.313  1.00  0.00     0.026 C 
ENDROOT
BRANCH   1   4
ATOM      4  O   UNL     1       7.989   6.984  13.816  1.00  0.00    -0.371 OA
BRANCH   4   5
ATOM      5  C   UNL     1       8.105   5.612  14.228  1.00  0.00     0.158 C 
ATOM      6  C   UNL     1       5.107   3.432  10.560  1.00  0.00    -0.003 C 
ATOM      7  C   UNL     1       4.867   4.300  11.801  1.00  0.00     0.052 C 
ATOM      8  C   UNL     1       6.458   3.805   9.933  1.00  0.00     0.019 C 
ATOM      9  C   UNL     1       6.049   4.235  12.778  1.00  0.00     0.189 C 
ATOM     10  C   UNL     1       7.585   3.755  10.964  1.00  0.00     0.087 C 
ATOM     11  N   UNL     1       7.289   4.621  12.105  1.00  0.00    -0.276 NA
ATOM     12  O   UNL     1       5.732   5.111  13.862  1.00  0.00    -0.360 OA
ATOM     13  C   UNL     1       8.400   4.651  13.063  1.00  0.00     0.121 C 
ATOM     14  C   UNL     1       6.769   5.185  14.845  1.00  0.00     0.195 C 
BRANCH   6  15
ATOM     15  C   UNL     1       3.992   3.588   9.550  1.00  0.00    -0.008 C 
ATOM     16  C   UNL     1       3.033   2.451   9.290  1.00  0.00     0.004 C 
ATOM     17  C   UNL     1       2.553   3.686   9.995  1.00  0.00     0.004 C 
ENDBRANCH   6  15
ENDBRANCH   4   5
ENDBRANCH   1   4
BRANCH   3  18
ATOM     18  C   UNL     1      11.160   8.931  12.945  1.00  0.00     0.053 C 
BRANCH  18  19
ATOM     19  C   UNL     1      11.733  10.292  13.245  1.00  0.00     0.074 C 
BRANCH  19  20
ATOM     20  N   UNL     1      12.091  11.172  12.370  1.00  0.00    -0.313 NA
ATOM     21  H   UNL     1      11.404  11.251  11.607  1.00  0.00     0.186 HD
ENDBRANCH  19  20
ENDBRANCH  18  19
ENDBRANCH   3  18
TORSDOF 6
ENDMDL
MODEL 9
REMARK VINA RESULT:    -3.428      5.047      8.200
REMARK INTER + INTRA:          -4.754
REMARK INTER:                  -4.438
REMARK INTRA:                  -0.315
REMARK UNBOUND:                -0.224
REMARK SMILES [H]/N=C\C[C@H]1C[C@@H]1O[C@H]1CO[C@H]2C[C@@H](C3CC3)CCN2C1
REMARK SMILES IDX 7 1 6 2 5 3 8 4 9 5 14 6 13 7 18 8 12 9 19 10 20 11 11 12
REMARK SMILES IDX 21 13 10 14 15 15 16 16 17 17 4 18 3 19 2 20 1 21
REMARK H PARENT
ROOT
ATOM      1  C   UNL     1       5.446   5.408  16.509  1.00  0.00     0.122 C 
ATOM      2  C   UNL     1       6.390   4.468  17.205  1.00  0.00     0.039 C 
ATOM      3  C   UNL     1       5.983   4.204  15.783  1.00  0.00     0.026 C 
ENDROOT
BRANCH   1   4
ATOM      4  O   UNL     1       4.086   5.325  16.975  1.00  0.00    -0.371 OA
BRANCH   4   5
ATOM      5  C   UNL     1       3.338   6.551  16.923  1.00  0.00     0.158 C 
ATOM      6  C   UNL     1       0.025   5.284  13.098  1.00  0.00    -0.003 C 
ATOM      7  C   UNL     1       1.518   5.624  13.191  1.00  0.00     0.052 C 
ATOM      8  C   UNL     1      -0.413   4.571  14.385  1.00  0.00     0.019 C 
ATOM      9  C   UNL     1       1.849   6.394  14.476  1.00  0.00     0.189 C 
ATOM     10  C   UNL     1      -0.025   5.373  15.628  1.00  0.00     0.087 C 
ATOM     11  N   UNL     1       1.413   5.638  15.651  1.00  0.00    -0.276 NA
ATOM     12  O   UNL     1       3.261   6.611  14.471  1.00  0.00    -0.360 OA
ATOM     13  C   UNL     1       1.815   6.331  16.880  1.00  0.00     0.121 C 
ATOM     14  C   UNL     1       3.727   7.292  15.640  1.00  0.00     0.195 C 
BRANCH   6  15
ATOM     15  C   UNL     1      -0.275   4.428  11.889  1.00  0.00    -0.008 C 
ATOM     16  C   UNL     1      -0.566   5.069  10.553  1.00  0.00     0.004 C 
ATOM     17  C   UNL     1       0.716   4.316  10.755  1.00  0.00     0.004 C 
ENDBRANCH   6  15
ENDBRANCH   4   5
ENDBRANCH   1   4
BRANCH   3  18
ATOM     18  C   UNL     1       7.000   4.370  14.694  1.00  0.00     0.053 C 
BRANCH  18  19
ATOM     19  C   UNL     1       6.534   4.061  13.295  1.00  0.00     0.074 C 
BRANCH  19  20
ATOM     20  N   UNL     1       5.503   4.574  12.710  1.00  0.00    -0.313 NA
ATOM     21  H   UNL     1       5.746   4.969  11.790  1.00  0.00     0.186 HD
ENDBRANCH  19  20
ENDBRANCH  18  19
ENDBRANCH   3  18
TORSDOF 6
ENDMDL
