MODEL 1
REMARK VINA RESULT:    -5.921      0.000      0.000
REMARK INTER + INTRA:          -7.324
REMARK INTER:                  -6.959
REMARK INTRA:                  -0.365
REMARK UNBOUND:                -0.365
REMARK SMILES Cc1ccc(CNC(=O)NC(=O)c2ccc(C)cc2)cc1
REMARK SMILES IDX 11 1 12 2 10 3 8 4 9 5 7 6 13 9 19 10 18 11 14 12 16 13
REMARK SMILES IDX 15 14 17 15 6 16 5 17 4 18 20 19 3 20 21 21 2 22 1 23
REMARK H PARENT 10 7 7 8
ROOT
ATOM      1  C   UNL     1       3.087   3.286   8.300  1.00  0.00     0.259 C 
ATOM      2  O   UNL     1       4.231   2.854   8.281  1.00  0.00    -0.269 OA
ATOM      3  N   UNL     1       2.364   3.804   9.379  1.00  0.00    -0.274 N 
ATOM      4  C   UNL     1       2.620   4.245  10.652  1.00  0.00     0.321 C 
ATOM      5  O   UNL     1       1.693   4.774  11.274  1.00  0.00    -0.248 OA
ATOM      6  N   UNL     1       3.828   4.158  11.241  1.00  0.00    -0.334 N 
ATOM      7  H   UNL     1       1.418   4.081   9.154  1.00  0.00     0.175 HD
ATOM      8  H   UNL     1       3.873   4.606  12.145  1.00  0.00     0.165 HD
ENDROOT
BRANCH   1   9
ATOM      9  C   UNL     1       2.354   3.273   7.019  1.00  0.00     0.040 A 
ATOM     10  C   UNL     1       1.407   2.289   6.732  1.00  0.00     0.014 A 
ATOM     11  C   UNL     1       0.702   2.348   5.530  1.00  0.00     0.004 A 
ATOM     12  C   UNL     1       2.641   4.276   6.088  1.00  0.00     0.014 A 
ATOM     13  C   UNL     1       0.945   3.380   4.611  1.00  0.00    -0.051 A 
ATOM     14  C   UNL     1       1.930   4.335   4.891  1.00  0.00     0.004 A 
ATOM     15  C   UNL     1       0.120   3.478   3.362  1.00  0.00     0.044 C 
ENDBRANCH   1   9
BRANCH   6  16
ATOM     16  C   UNL     1       5.052   3.679  10.663  1.00  0.00     0.153 C 
BRANCH  16  17
ATOM     17  C   UNL     1       6.331   4.023  11.373  1.00  0.00    -0.029 A 
ATOM     18  C   UNL     1       7.439   4.577  10.724  1.00  0.00     0.006 A 
ATOM     19  C   UNL     1       6.321   3.975  12.777  1.00  0.00     0.006 A 
ATOM     20  C   UNL     1       8.502   5.095  11.472  1.00  0.00     0.004 A 
ATOM     21  C   UNL     1       7.376   4.495  13.520  1.00  0.00     0.004 A 
ATOM     22  C   UNL     1       8.472   5.069  12.874  1.00  0.00    -0.051 A 
ATOM     23  C   UNL     1       9.537   5.748  13.681  1.00  0.00     0.044 C 
ENDBRANCH  16  17
ENDBRANCH   6  16
TORSDOF 3
ENDMDL
MODEL 2
REMARK VINA RESULT:    -5.910      3.269      5.534
REMARK INTER + INTRA:          -7.311
REMARK INTER:                  -6.941
REMARK INTRA:                  -0.371
REMARK UNBOUND:                -0.365
REMARK SMILES Cc1ccc(CNC(=O)NC(=O)c2ccc(C)cc2)cc1
REMARK SMILES IDX 11 1 12 2 10 3 8 4 9 5 7 6 13 9 19 10 18 11 14 12 16 13
REMARK SMILES IDX 15 14 17 15 6 16 5 17 4 18 20 19 3 20 21 21 2 22 1 23
REMARK H PARENT 10 7 7 8
ROOT
ATOM      1  C   UNL     1       2.669   3.143   8.434  1.00  0.00     0.259 C 
ATOM      2  O   UNL     1       1.540   3.612   8.467  1.00  0.00    -0.269 OA
ATOM      3  N   UNL     1       3.738   3.371   9.307  1.00  0.00    -0.274 N 
ATOM      4  C   UNL     1       3.932   3.922  10.548  1.00  0.00     0.321 C 
ATOM      5  O   UNL     1       5.053   3.810  11.055  1.00  0.00    -0.248 OA
ATOM      6  N   UNL     1       2.965   4.547  11.245  1.00  0.00    -0.334 N 
ATOM      7  H   UNL     1       4.588   2.882   9.062  1.00  0.00     0.175 HD
ATOM      8  H   UNL     1       3.247   4.820  12.176  1.00  0.00     0.165 HD
ENDROOT
BRANCH   1   9
ATOM      9  C   UNL     1       2.962   2.203   7.335  1.00  0.00     0.040 A 
ATOM     10  C   UNL     1       3.639   2.615   6.186  1.00  0.00     0.014 A 
ATOM     11  C   UNL     1       3.940   1.678   5.197  1.00  0.00     0.004 A 
ATOM     12  C   UNL     1       2.534   0.879   7.472  1.00  0.00     0.014 A 
ATOM     13  C   UNL     1       3.561   0.335   5.348  1.00  0.00    -0.051 A 
ATOM     14  C   UNL     1       2.843  -0.055   6.485  1.00  0.00     0.004 A 
ATOM     15  C   UNL     1       3.965  -0.676   4.316  1.00  0.00     0.044 C 
ENDBRANCH   1   9
BRANCH   6  16
ATOM     16  C   UNL     1       1.583   4.694  10.887  1.00  0.00     0.153 C 
BRANCH  16  17
ATOM     17  C   UNL     1       0.614   5.012  11.991  1.00  0.00    -0.029 A 
ATOM     18  C   UNL     1      -0.523   4.241  12.255  1.00  0.00     0.006 A 
ATOM     19  C   UNL     1       0.993   5.999  12.915  1.00  0.00     0.006 A 
ATOM     20  C   UNL     1      -1.248   4.443  13.434  1.00  0.00     0.004 A 
ATOM     21  C   UNL     1       0.275   6.196  14.090  1.00  0.00     0.004 A 
ATOM     22  C   UNL     1      -0.847   5.412  14.365  1.00  0.00    -0.051 A 
ATOM     23  C   UNL     1      -1.532   5.537  15.693  1.00  0.00     0.044 C 
ENDBRANCH  16  17
ENDBRANCH   6  16
TORSDOF 3
ENDMDL
MODEL 3
REMARK VINA RESULT:    -5.907      0.516      8.087
REMARK INTER + INTRA:          -7.308
REMARK INTER:                  -6.833
REMARK INTRA:                  -0.475
REMARK UNBOUND:                -0.365
REMARK SMILES Cc1ccc(CNC(=O)NC(=O)c2ccc(C)cc2)cc1
REMARK SMILES IDX 11 1 12 2 10 3 8 4 9 5 7 6 13 9 19 10 18 11 14 12 16 13
REMARK SMILES IDX 15 14 17 15 6 16 5 17 4 18 20 19 3 20 21 21 2 22 1 23
REMARK H PARENT 10 7 7 8
ROOT
ATOM      1  C   UNL     1       5.040   3.900  10.362  1.00  0.00     0.259 C 
ATOM      2  O   UNL     1       5.267   3.340   9.299  1.00  0.00    -0.269 OA
ATOM      3  N   UNL     1       3.812   4.303  10.895  1.00  0.00    -0.274 N 
ATOM      4  C   UNL     1       2.481   4.077  10.656  1.00  0.00     0.321 C 
ATOM      5  O   UNL     1       1.667   4.533  11.467  1.00  0.00    -0.248 OA
ATOM      6  N   UNL     1       2.023   3.365   9.610  1.00  0.00    -0.334 N 
ATOM      7  H   UNL     1       3.878   4.770  11.789  1.00  0.00     0.175 HD
ATOM      8  H   UNL     1       1.024   3.217   9.624  1.00  0.00     0.165 HD
ENDROOT
BRANCH   1   9
ATOM      9  C   UNL     1       6.208   4.193  11.216  1.00  0.00     0.040 A 
ATOM     10  C   UNL     1       7.406   4.663  10.675  1.00  0.00     0.014 A 
ATOM     11  C   UNL     1       8.465   4.977  11.528  1.00  0.00     0.004 A 
ATOM     12  C   UNL     1       6.084   3.981  12.593  1.00  0.00     0.014 A 
ATOM     13  C   UNL     1       8.334   4.816  12.915  1.00  0.00    -0.051 A 
ATOM     14  C   UNL     1       7.142   4.302  13.441  1.00  0.00     0.004 A 
ATOM     15  C   UNL     1       9.450   5.238  13.824  1.00  0.00     0.044 C 
ENDBRANCH   1   9
BRANCH   6  16
ATOM     16  C   UNL     1       2.795   2.668   8.619  1.00  0.00     0.153 C 
BRANCH  16  17
ATOM     17  C   UNL     1       2.319   2.745   7.195  1.00  0.00    -0.029 A 
ATOM     18  C   UNL     1       1.405   1.840   6.646  1.00  0.00     0.006 A 
ATOM     19  C   UNL     1       2.653   3.898   6.466  1.00  0.00     0.006 A 
ATOM     20  C   UNL     1       0.822   2.102   5.402  1.00  0.00     0.004 A 
ATOM     21  C   UNL     1       2.069   4.160   5.232  1.00  0.00     0.004 A 
ATOM     22  C   UNL     1       1.139   3.269   4.693  1.00  0.00    -0.051 A 
ATOM     23  C   UNL     1       0.414   3.627   3.430  1.00  0.00     0.044 C 
ENDBRANCH  16  17
ENDBRANCH   6  16
TORSDOF 3
ENDMDL
MODEL 4
REMARK VINA RESULT:    -5.863      3.156      7.346
REMARK INTER + INTRA:          -7.257
REMARK INTER:                  -6.778
REMARK INTRA:                  -0.479
REMARK UNBOUND:                -0.365
REMARK SMILES Cc1ccc(CNC(=O)NC(=O)c2ccc(C)cc2)cc1
REMARK SMILES IDX 11 1 12 2 10 3 8 4 9 5 7 6 13 9 19 10 18 11 14 12 16 13
REMARK SMILES IDX 15 14 17 15 6 16 5 17 4 18 20 19 3 20 21 21 2 22 1 23
REMARK H PARENT 10 7 7 8
ROOT
ATOM      1  C   UNL     1       1.508   4.274  10.849  1.00  0.00     0.259 C 
ATOM      2  O   UNL     1       0.900   4.003   9.822  1.00  0.00    -0.269 OA
ATOM      3  N   UNL     1       2.881   4.195  11.100  1.00  0.00    -0.274 N 
ATOM      4  C   UNL     1       4.037   4.055  10.376  1.00  0.00     0.321 C 
ATOM      5  O   UNL     1       5.109   4.168  10.979  1.00  0.00    -0.248 OA
ATOM      6  N   UNL     1       4.062   3.833   9.048  1.00  0.00    -0.334 N 
ATOM      7  H   UNL     1       3.149   4.453  12.040  1.00  0.00     0.175 HD
ATOM      8  H   UNL     1       4.991   3.841   8.652  1.00  0.00     0.165 HD
ENDROOT
BRANCH   1   9
ATOM      9  C   UNL     1       0.701   4.755  11.986  1.00  0.00     0.040 A 
ATOM     10  C   UNL     1      -0.546   4.200  12.281  1.00  0.00     0.014 A 
ATOM     11  C   UNL     1      -1.249   4.652  13.398  1.00  0.00     0.004 A 
ATOM     12  C   UNL     1       1.218   5.795  12.765  1.00  0.00     0.014 A 
ATOM     13  C   UNL     1      -0.716   5.659  14.216  1.00  0.00    -0.051 A 
ATOM     14  C   UNL     1       0.515   6.238  13.884  1.00  0.00     0.004 A 
ATOM     15  C   UNL     1      -1.444   6.074  15.461  1.00  0.00     0.044 C 
ENDBRANCH   1   9
BRANCH   6  16
ATOM     16  C   UNL     1       2.944   3.773   8.149  1.00  0.00     0.153 C 
BRANCH  16  17
ATOM     17  C   UNL     1       2.965   2.704   7.093  1.00  0.00    -0.029 A 
ATOM     18  C   UNL     1       3.525   2.894   5.825  1.00  0.00     0.006 A 
ATOM     19  C   UNL     1       2.595   1.406   7.482  1.00  0.00     0.006 A 
ATOM     20  C   UNL     1       3.731   1.800   4.979  1.00  0.00     0.004 A 
ATOM     21  C   UNL     1       2.804   0.318   6.641  1.00  0.00     0.004 A 
ATOM     22  C   UNL     1       3.384   0.504   5.385  1.00  0.00    -0.051 A 
ATOM     23  C   UNL     1       3.731  -0.688   4.544  1.00  0.00     0.044 C 
ENDBRANCH  16  17
ENDBRANCH   6  16
TORSDOF 3
ENDMDL
MODEL 5
REMARK VINA RESULT:    -5.720      3.107      7.794
REMARK INTER + INTRA:          -7.087
REMARK INTER:                  -6.635
REMARK INTRA:                  -0.452
REMARK UNBOUND:                -0.365
REMARK SMILES Cc1ccc(CNC(=O)NC(=O)c2ccc(C)cc2)cc1
REMARK SMILES IDX 11 1 12 2 10 3 8 4 9 5 7 6 13 9 19 10 18 11 14 12 16 13
REMARK SMILES IDX 15 14 17 15 6 16 5 17 4 18 20 19 3 20 21 21 2 22 1 23
REMARK H PARENT 10 7 7 8
ROOT
ATOM      1  C   UNL     1       1.287   4.404  10.789  1.00  0.00     0.259 C 
ATOM      2  O   UNL     1       0.627   4.332   9.763  1.00  0.00    -0.269 OA
ATOM      3  N   UNL     1       2.645   4.127  10.978  1.00  0.00    -0.274 N 
ATOM      4  C   UNL     1       3.756   3.929  10.200  1.00  0.00     0.321 C 
ATOM      5  O   UNL     1       4.848   3.838  10.772  1.00  0.00    -0.248 OA
ATOM      6  N   UNL     1       3.722   3.860   8.856  1.00  0.00    -0.334 N 
ATOM      7  H   UNL     1       2.965   4.240  11.931  1.00  0.00     0.175 HD
ATOM      8  H   UNL     1       4.634   3.797   8.429  1.00  0.00     0.165 HD
ENDROOT
BRANCH   1   9
ATOM      9  C   UNL     1       0.575   4.848  12.003  1.00  0.00     0.040 A 
ATOM     10  C   UNL     1      -0.638   4.272  12.387  1.00  0.00     0.014 A 
ATOM     11  C   UNL     1      -1.248   4.688  13.571  1.00  0.00     0.004 A 
ATOM     12  C   UNL     1       1.147   5.874  12.762  1.00  0.00     0.014 A 
ATOM     13  C   UNL     1      -0.656   5.680  14.367  1.00  0.00    -0.051 A 
ATOM     14  C   UNL     1       0.537   6.281  13.947  1.00  0.00     0.004 A 
ATOM     15  C   UNL     1      -1.280   6.056  15.679  1.00  0.00     0.044 C 
ENDBRANCH   1   9
BRANCH   6  16
ATOM     16  C   UNL     1       2.585   4.043   7.999  1.00  0.00     0.153 C 
BRANCH  16  17
ATOM     17  C   UNL     1       2.410   3.069   6.867  1.00  0.00    -0.029 A 
ATOM     18  C   UNL     1       1.167   2.549   6.491  1.00  0.00     0.006 A 
ATOM     19  C   UNL     1       3.518   2.847   6.033  1.00  0.00     0.006 A 
ATOM     20  C   UNL     1       1.038   1.844   5.290  1.00  0.00     0.004 A 
ATOM     21  C   UNL     1       3.387   2.150   4.836  1.00  0.00     0.004 A 
ATOM     22  C   UNL     1       2.142   1.651   4.449  1.00  0.00    -0.051 A 
ATOM     23  C   UNL     1       1.983   1.022   3.097  1.00  0.00     0.044 C 
ENDBRANCH  16  17
ENDBRANCH   6  16
TORSDOF 3
ENDMDL
MODEL 6
REMARK VINA RESULT:    -5.021      5.163      8.379
REMARK INTER + INTRA:          -6.267
REMARK INTER:                  -5.764
REMARK INTRA:                  -0.503
REMARK UNBOUND:                -0.365
REMARK SMILES Cc1ccc(CNC(=O)NC(=O)c2ccc(C)cc2)cc1
REMARK SMILES IDX 11 1 12 2 10 3 8 4 9 5 7 6 13 9 19 10 18 11 14 12 16 13
REMARK SMILES IDX 15 14 17 15 6 16 5 17 4 18 20 19 3 20 21 21 2 22 1 23
REMARK H PARENT 10 7 7 8
ROOT
ATOM      1  C   UNL     1       9.469   5.716  12.825  1.00  0.00     0.259 C 
ATOM      2  O   UNL     1       9.277   6.742  13.461  1.00  0.00    -0.269 OA
ATOM      3  N   UNL     1      10.681   5.081  12.533  1.00  0.00    -0.274 N 
ATOM      4  C   UNL     1      11.983   5.138  12.958  1.00  0.00     0.321 C 
ATOM      5  O   UNL     1      12.765   4.283  12.529  1.00  0.00    -0.248 OA
ATOM      6  N   UNL     1      12.440   6.052  13.834  1.00  0.00    -0.334 N 
ATOM      7  H   UNL     1      10.589   4.248  11.967  1.00  0.00     0.175 HD
ATOM      8  H   UNL     1      13.401   5.906  14.110  1.00  0.00     0.165 HD
ENDROOT
BRANCH   1   9
ATOM      9  C   UNL     1       8.274   5.037  12.288  1.00  0.00     0.040 A 
ATOM     10  C   UNL     1       7.297   4.507  13.133  1.00  0.00     0.014 A 
ATOM     11  C   UNL     1       6.158   3.921  12.579  1.00  0.00     0.004 A 
ATOM     12  C   UNL     1       8.146   4.932  10.900  1.00  0.00     0.014 A 
ATOM     13  C   UNL     1       5.996   3.857  11.187  1.00  0.00    -0.051 A 
ATOM     14  C   UNL     1       7.004   4.352  10.351  1.00  0.00     0.004 A 
ATOM     15  C   UNL     1       4.728   3.301  10.608  1.00  0.00     0.044 C 
ENDBRANCH   1   9
BRANCH   6  16
ATOM     16  C   UNL     1      11.685   7.059  14.524  1.00  0.00     0.153 C 
BRANCH  16  17
ATOM     17  C   UNL     1      12.064   8.493  14.284  1.00  0.00    -0.029 A 
ATOM     18  C   UNL     1      11.823   9.155  13.075  1.00  0.00     0.006 A 
ATOM     19  C   UNL     1      12.484   9.243  15.395  1.00  0.00     0.006 A 
ATOM     20  C   UNL     1      11.976  10.543  12.994  1.00  0.00     0.004 A 
ATOM     21  C   UNL     1      12.631  10.624  15.314  1.00  0.00     0.004 A 
ATOM     22  C   UNL     1      12.368  11.287  14.115  1.00  0.00    -0.051 A 
ATOM     23  C   UNL     1      12.397  12.786  14.074  1.00  0.00     0.044 C 
ENDBRANCH  16  17
ENDBRANCH   6  16
TORSDOF 3
ENDMDL
MODEL 7
REMARK VINA RESULT:    -4.582      5.381     10.616
REMARK INTER + INTRA:          -5.751
REMARK INTER:                  -5.225
REMARK INTRA:                  -0.525
REMARK UNBOUND:                -0.365
REMARK SMILES Cc1ccc(CNC(=O)NC(=O)c2ccc(C)cc2)cc1
REMARK SMILES IDX 11 1 12 2 10 3 8 4 9 5 7 6 13 9 19 10 18 11 14 12 16 13
REMARK SMILES IDX 15 14 17 15 6 16 5 17 4 18 20 19 3 20 21 21 2 22 1 23
REMARK H PARENT 10 7 7 8
ROOT
ATOM      1  C   UNL     1      10.457   7.590  14.656  1.00  0.00     0.259 C 
ATOM      2  O   UNL     1       9.248   7.605  14.838  1.00  0.00    -0.269 OA
ATOM      3  N   UNL     1      11.322   6.493  14.614  1.00  0.00    -0.274 N 
ATOM      4  C   UNL     1      11.225   5.129  14.511  1.00  0.00     0.321 C 
ATOM      5  O   UNL     1      12.272   4.488  14.367  1.00  0.00    -0.248 OA
ATOM      6  N   UNL     1      10.055   4.463  14.527  1.00  0.00    -0.334 N 
ATOM      7  H   UNL     1      12.294   6.733  14.470  1.00  0.00     0.175 HD
ATOM      8  H   UNL     1      10.148   3.472  14.354  1.00  0.00     0.165 HD
ENDROOT
BRANCH   1   9
ATOM      9  C   UNL     1      11.109   8.897  14.446  1.00  0.00     0.040 A 
ATOM     10  C   UNL     1      11.730   9.215  13.236  1.00  0.00     0.014 A 
ATOM     11  C   UNL     1      12.287  10.482  13.066  1.00  0.00     0.004 A 
ATOM     12  C   UNL     1      11.096   9.815  15.501  1.00  0.00     0.014 A 
ATOM     13  C   UNL     1      12.234  11.429  14.101  1.00  0.00    -0.051 A 
ATOM     14  C   UNL     1      11.649  11.082  15.324  1.00  0.00     0.004 A 
ATOM     15  C   UNL     1      12.762  12.815  13.873  1.00  0.00     0.044 C 
ENDBRANCH   1   9
BRANCH   6  16
ATOM     16  C   UNL     1       8.732   5.018  14.580  1.00  0.00     0.153 C 
BRANCH  16  17
ATOM     17  C   UNL     1       7.863   4.847  13.365  1.00  0.00    -0.029 A 
ATOM     18  C   UNL     1       8.330   5.038  12.060  1.00  0.00     0.006 A 
ATOM     19  C   UNL     1       6.597   4.270  13.555  1.00  0.00     0.006 A 
ATOM     20  C   UNL     1       7.550   4.634  10.972  1.00  0.00     0.004 A 
ATOM     21  C   UNL     1       5.825   3.864  12.472  1.00  0.00     0.004 A 
ATOM     22  C   UNL     1       6.299   4.033  11.170  1.00  0.00    -0.051 A 
ATOM     23  C   UNL     1       5.522   3.469  10.018  1.00  0.00     0.044 C 
ENDBRANCH  16  17
ENDBRANCH   6  16
TORSDOF 3
ENDMDL
MODEL 8
REMARK VINA RESULT:    -4.431      2.082      3.578
REMARK INTER + INTRA:          -5.572
REMARK INTER:                  -5.122
REMARK INTRA:                  -0.450
REMARK UNBOUND:                -0.365
REMARK SMILES Cc1ccc(CNC(=O)NC(=O)c2ccc(C)cc2)cc1
REMARK SMILES IDX 11 1 12 2 10 3 8 4 9 5 7 6 13 9 19 10 18 11 14 12 16 13
REMARK SMILES IDX 15 14 17 15 6 16 5 17 4 18 20 19 3 20 21 21 2 22 1 23
REMARK H PARENT 10 7 7 8
ROOT
ATOM      1  C   UNL     1       5.307   3.671  10.597  1.00  0.00     0.259 C 
ATOM      2  O   UNL     1       6.449   3.537  10.181  1.00  0.00    -0.269 OA
ATOM      3  N   UNL     1       4.878   4.001  11.887  1.00  0.00    -0.274 N 
ATOM      4  C   UNL     1       5.426   4.503  13.039  1.00  0.00     0.321 C 
ATOM      5  O   UNL     1       4.657   4.790  13.962  1.00  0.00    -0.248 OA
ATOM      6  N   UNL     1       6.744   4.725  13.201  1.00  0.00    -0.334 N 
ATOM      7  H   UNL     1       3.873   4.032  11.997  1.00  0.00     0.175 HD
ATOM      8  H   UNL     1       6.975   5.177  14.074  1.00  0.00     0.165 HD
ENDROOT
BRANCH   1   9
ATOM      9  C   UNL     1       4.220   3.464   9.621  1.00  0.00     0.040 A 
ATOM     10  C   UNL     1       3.643   4.536   8.937  1.00  0.00     0.014 A 
ATOM     11  C   UNL     1       2.654   4.287   7.984  1.00  0.00     0.004 A 
ATOM     12  C   UNL     1       3.773   2.158   9.402  1.00  0.00     0.014 A 
ATOM     13  C   UNL     1       2.235   2.974   7.719  1.00  0.00    -0.051 A 
ATOM     14  C   UNL     1       2.790   1.913   8.445  1.00  0.00     0.004 A 
ATOM     15  C   UNL     1       1.233   2.715   6.633  1.00  0.00     0.044 C 
ENDBRANCH   1   9
BRANCH   6  16
ATOM     16  C   UNL     1       7.786   4.560  12.228  1.00  0.00     0.153 C 
BRANCH  16  17
ATOM     17  C   UNL     1       8.825   5.644  12.139  1.00  0.00    -0.029 A 
ATOM     18  C   UNL     1       8.613   6.850  11.464  1.00  0.00     0.006 A 
ATOM     19  C   UNL     1       9.965   5.510  12.948  1.00  0.00     0.006 A 
ATOM     20  C   UNL     1       9.516   7.907  11.619  1.00  0.00     0.004 A 
ATOM     21  C   UNL     1      10.860   6.564  13.106  1.00  0.00     0.004 A 
ATOM     22  C   UNL     1      10.638   7.776  12.450  1.00  0.00    -0.051 A 
ATOM     23  C   UNL     1      11.530   8.947  12.734  1.00  0.00     0.044 C 
ENDBRANCH  16  17
ENDBRANCH   6  16
TORSDOF 3
ENDMDL
MODEL 9
REMARK VINA RESULT:    -4.313      5.085      8.179
REMARK INTER + INTRA:          -5.434
REMARK INTER:                  -4.852
REMARK INTRA:                  -0.582
REMARK UNBOUND:                -0.365
REMARK SMILES Cc1ccc(CNC(=O)NC(=O)c2ccc(C)cc2)cc1
REMARK SMILES IDX 11 1 12 2 10 3 8 4 9 5 7 6 13 9 19 10 18 11 14 12 16 13
REMARK SMILES IDX 15 14 17 15 6 16 5 17 4 18 20 19 3 20 21 21 2 22 1 23
REMARK H PARENT 10 7 7 8
ROOT
ATOM      1  C   UNL     1       9.357   5.313  13.415  1.00  0.00     0.259 C 
ATOM      2  O   UNL     1      10.414   5.522  12.837  1.00  0.00    -0.269 OA
ATOM      3  N   UNL     1       9.068   5.427  14.779  1.00  0.00    -0.274 N 
ATOM      4  C   UNL     1       9.643   5.979  15.894  1.00  0.00     0.321 C 
ATOM      5  O   UNL     1       8.982   5.984  16.938  1.00  0.00    -0.248 OA
ATOM      6  N   UNL     1      10.868   6.538  15.900  1.00  0.00    -0.334 N 
ATOM      7  H   UNL     1       8.119   5.178  15.026  1.00  0.00     0.175 HD
ATOM      8  H   UNL     1      11.111   6.976  16.778  1.00  0.00     0.165 HD
ENDROOT
BRANCH   1   9
ATOM      9  C   UNL     1       8.219   4.887  12.578  1.00  0.00     0.040 A 
ATOM     10  C   UNL     1       8.235   5.049  11.191  1.00  0.00     0.014 A 
ATOM     11  C   UNL     1       7.158   4.583  10.436  1.00  0.00     0.004 A 
ATOM     12  C   UNL     1       7.111   4.319  13.215  1.00  0.00     0.014 A 
ATOM     13  C   UNL     1       6.065   3.964  11.061  1.00  0.00    -0.051 A 
ATOM     14  C   UNL     1       6.041   3.849  12.456  1.00  0.00     0.004 A 
ATOM     15  C   UNL     1       4.954   3.393  10.229  1.00  0.00     0.044 C 
ENDBRANCH   1   9
BRANCH   6  16
ATOM     16  C   UNL     1      11.750   6.728  14.784  1.00  0.00     0.153 C 
BRANCH  16  17
ATOM     17  C   UNL     1      12.099   8.142  14.413  1.00  0.00    -0.029 A 
ATOM     18  C   UNL     1      11.730   8.725  13.196  1.00  0.00     0.006 A 
ATOM     19  C   UNL     1      12.630   8.960  15.423  1.00  0.00     0.006 A 
ATOM     20  C   UNL     1      11.871  10.105  13.009  1.00  0.00     0.004 A 
ATOM     21  C   UNL     1      12.765  10.332  15.238  1.00  0.00     0.004 A 
ATOM     22  C   UNL     1      12.377  10.918  14.033  1.00  0.00    -0.051 A 
ATOM     23  C   UNL     1      12.397  12.411  13.893  1.00  0.00     0.044 C 
ENDBRANCH  16  17
ENDBRANCH   6  16
TORSDOF 3
ENDMDL
