MODEL 1
REMARK VINA RESULT:    -4.267      0.000      0.000
REMARK INTER + INTRA:          -5.871
REMARK INTER:                  -5.638
REMARK INTRA:                  -0.233
REMARK UNBOUND:                -0.233
REMARK SMILES [H]/N=C\C[C@H]1C[C@@H]1O[C@H]1CO[C@H]2C[C@@H](C3CC3)CCN2C1
REMARK SMILES IDX 7 1 6 2 5 3 8 4 9 5 14 6 13 7 18 8 12 9 19 10 20 11 11 12
REMARK SMILES IDX 21 13 10 14 15 15 16 16 17 17 4 18 3 19 2 20 1 21
REMARK H PARENT
ROOT
ATOM      1  C   UNL     1       2.860  13.919  -1.423  1.00  0.00     0.122 C 
ATOM      2  C   UNL     1       2.063  15.183  -1.584  1.00  0.00     0.039 C 
ATOM      3  C   UNL     1       2.508  14.747  -0.217  1.00  0.00     0.026 C 
ENDROOT
BRANCH   1   4
ATOM      4  O   UNL     1       2.097  12.714  -1.623  1.00  0.00    -0.371 OA
BRANCH   4   5
ATOM      5  C   UNL     1       1.767  12.409  -2.988  1.00  0.00     0.158 C 
ATOM      6  C   UNL     1       2.742   7.286  -2.902  1.00  0.00    -0.003 C 
ATOM      7  C   UNL     1       3.587   8.565  -2.876  1.00  0.00     0.052 C 
ATOM      8  C   UNL     1       1.408   7.545  -2.189  1.00  0.00     0.019 C 
ATOM      9  C   UNL     1       2.811   9.772  -3.420  1.00  0.00     0.189 C 
ATOM     10  C   UNL     1       0.702   8.778  -2.753  1.00  0.00     0.087 C 
ATOM     11  N   UNL     1       1.566   9.956  -2.675  1.00  0.00    -0.276 NA
ATOM     12  O   UNL     1       3.678  10.902  -3.302  1.00  0.00    -0.360 OA
ATOM     13  C   UNL     1       0.872  11.165  -3.132  1.00  0.00     0.121 C 
ATOM     14  C   UNL     1       3.071  12.122  -3.740  1.00  0.00     0.195 C 
BRANCH   6  15
ATOM     15  C   UNL     1       3.470   6.126  -2.261  1.00  0.00    -0.008 C 
ATOM     16  C   UNL     1       3.497   4.774  -2.934  1.00  0.00     0.004 C 
ATOM     17  C   UNL     1       4.752   5.594  -2.855  1.00  0.00     0.004 C 
ENDBRANCH   6  15
ENDBRANCH   4   5
ENDBRANCH   1   4
BRANCH   3  18
ATOM     18  C   UNL     1       3.566  15.540   0.490  1.00  0.00     0.053 C 
BRANCH  18  19
ATOM     19  C   UNL     1       3.305  17.016   0.638  1.00  0.00     0.074 C 
BRANCH  19  20
ATOM     20  N   UNL     1       2.571  17.568   1.547  1.00  0.00    -0.313 NA
ATOM     21  H   UNL     1       2.884  18.526   1.757  1.00  0.00     0.186 HD
ENDBRANCH  19  20
ENDBRANCH  18  19
ENDBRANCH   3  18
TORSDOF 6
ENDMDL
MODEL 2
REMARK VINA RESULT:    -4.205      3.287      5.515
REMARK INTER + INTRA:          -5.789
REMARK INTER:                  -5.535
REMARK INTRA:                  -0.254
REMARK UNBOUND:                -0.233
REMARK SMILES [H]/N=C\C[C@H]1C[C@@H]1O[C@H]1CO[C@H]2C[C@@H](C3CC3)CCN2C1
REMARK SMILES IDX 7 1 6 2 5 3 8 4 9 5 14 6 13 7 18 8 12 9 19 10 20 11 11 12
REMARK SMILES IDX 21 13 10 14 15 15 16 16 17 17 4 18 3 19 2 20 1 21
REMARK H PARENT
ROOT
ATOM      1  C   UNL     1       3.136  12.469  -6.004  1.00  0.00     0.122 C 
ATOM      2  C   UNL     1       4.241  13.337  -6.537  1.00  0.00     0.039 C 
ATOM      3  C   UNL     1       3.540  12.372  -7.450  1.00  0.00     0.026 C 
ENDROOT
BRANCH   1   4
ATOM      4  O   UNL     1       3.587  11.412  -5.136  1.00  0.00    -0.371 OA
BRANCH   4   5
ATOM      5  C   UNL     1       3.959  11.816  -3.808  1.00  0.00     0.158 C 
ATOM      6  C   UNL     1       1.989   7.767  -1.176  1.00  0.00    -0.003 C 
ATOM      7  C   UNL     1       1.413   8.981  -1.916  1.00  0.00     0.052 C 
ATOM      8  C   UNL     1       3.286   7.321  -1.865  1.00  0.00     0.019 C 
ATOM      9  C   UNL     1       2.453  10.098  -2.073  1.00  0.00     0.189 C 
ATOM     10  C   UNL     1       4.264   8.486  -2.022  1.00  0.00     0.087 C 
ATOM     11  N   UNL     1       3.647   9.593  -2.752  1.00  0.00    -0.276 NA
ATOM     12  O   UNL     1       1.820  11.145  -2.811  1.00  0.00    -0.360 OA
ATOM     13  C   UNL     1       4.599  10.683  -2.986  1.00  0.00     0.121 C 
ATOM     14  C   UNL     1       2.689  12.252  -3.070  1.00  0.00     0.195 C 
BRANCH   6  15
ATOM     15  C   UNL     1       0.997   6.627  -1.125  1.00  0.00    -0.008 C 
ATOM     16  C   UNL     1       0.630   5.992   0.196  1.00  0.00     0.004 C 
ATOM     17  C   UNL     1      -0.380   6.825  -0.538  1.00  0.00     0.004 C 
ENDBRANCH   6  15
ENDBRANCH   4   5
ENDBRANCH   1   4
BRANCH   3  18
ATOM     18  C   UNL     1       2.642  12.909  -8.523  1.00  0.00     0.053 C 
BRANCH  18  19
ATOM     19  C   UNL     1       3.221  13.991  -9.397  1.00  0.00     0.074 C 
BRANCH  19  20
ATOM     20  N   UNL     1       3.912  13.806 -10.473  1.00  0.00    -0.313 NA
ATOM     21  H   UNL     1       4.388  14.669 -10.771  1.00  0.00     0.186 HD
ENDBRANCH  19  20
ENDBRANCH  18  19
ENDBRANCH   3  18
TORSDOF 6
ENDMDL
MODEL 3
REMARK VINA RESULT:    -4.094      5.220      8.427
REMARK INTER + INTRA:          -5.643
REMARK INTER:                  -5.553
REMARK INTRA:                  -0.091
REMARK UNBOUND:                -0.233
REMARK SMILES [H]/N=C\C[C@H]1C[C@@H]1O[C@H]1CO[C@H]2C[C@@H](C3CC3)CCN2C1
REMARK SMILES IDX 7 1 6 2 5 3 8 4 9 5 14 6 13 7 18 8 12 9 19 10 20 11 11 12
REMARK SMILES IDX 21 13 10 14 15 15 16 16 17 17 4 18 3 19 2 20 1 21
REMARK H PARENT
ROOT
ATOM      1  C   UNL     1       2.789  11.797  -3.891  1.00  0.00     0.122 C 
ATOM      2  C   UNL     1       2.162  12.420  -2.675  1.00  0.00     0.039 C 
ATOM      3  C   UNL     1       1.388  11.423  -3.489  1.00  0.00     0.026 C 
ENDROOT
BRANCH   1   4
ATOM      4  O   UNL     1       2.920  12.696  -5.009  1.00  0.00    -0.371 OA
BRANCH   4   5
ATOM      5  C   UNL     1       4.074  12.486  -5.840  1.00  0.00     0.158 C 
ATOM      6  C   UNL     1       2.462  15.059 -10.080  1.00  0.00    -0.003 C 
ATOM      7  C   UNL     1       2.102  13.735  -9.397  1.00  0.00     0.052 C 
ATOM      8  C   UNL     1       2.884  16.082  -9.015  1.00  0.00     0.019 C 
ATOM      9  C   UNL     1       3.226  13.247  -8.472  1.00  0.00     0.189 C 
ATOM     10  C   UNL     1       3.979  15.523  -8.108  1.00  0.00     0.087 C 
ATOM     11  N   UNL     1       3.552  14.272  -7.481  1.00  0.00    -0.276 NA
ATOM     12  O   UNL     1       2.759  12.041  -7.863  1.00  0.00    -0.360 OA
ATOM     13  C   UNL     1       4.558  13.768  -6.539  1.00  0.00     0.121 C 
ATOM     14  C   UNL     1       3.695  11.484  -6.935  1.00  0.00     0.195 C 
BRANCH   6  15
ATOM     15  C   UNL     1       1.309  15.592 -10.900  1.00  0.00    -0.008 C 
ATOM     16  C   UNL     1       1.559  16.563 -12.030  1.00  0.00     0.004 C 
ATOM     17  C   UNL     1       1.115  15.162 -12.334  1.00  0.00     0.004 C 
ENDBRANCH   6  15
ENDBRANCH   4   5
ENDBRANCH   1   4
BRANCH   3  18
ATOM     18  C   UNL     1       1.105  10.071  -2.904  1.00  0.00     0.053 C 
BRANCH  18  19
ATOM     19  C   UNL     1      -0.278   9.521  -3.136  1.00  0.00     0.074 C 
BRANCH  19  20
ATOM     20  N   UNL     1      -1.347  10.219  -3.331  1.00  0.00    -0.313 NA
ATOM     21  H   UNL     1      -1.139  11.107  -3.808  1.00  0.00     0.186 HD
ENDBRANCH  19  20
ENDBRANCH  18  19
ENDBRANCH   3  18
TORSDOF 6
ENDMDL
MODEL 4
REMARK VINA RESULT:    -3.789      3.348      5.323
REMARK INTER + INTRA:          -5.240
REMARK INTER:                  -5.292
REMARK INTRA:                   0.052
REMARK UNBOUND:                -0.233
REMARK SMILES [H]/N=C\C[C@H]1C[C@@H]1O[C@H]1CO[C@H]2C[C@@H](C3CC3)CCN2C1
REMARK SMILES IDX 7 1 6 2 5 3 8 4 9 5 14 6 13 7 18 8 12 9 19 10 20 11 11 12
REMARK SMILES IDX 21 13 10 14 15 15 16 16 17 17 4 18 3 19 2 20 1 21
REMARK H PARENT
ROOT
ATOM      1  C   UNL     1       3.596  12.389  -5.992  1.00  0.00     0.122 C 
ATOM      2  C   UNL     1       4.089  11.507  -7.103  1.00  0.00     0.039 C 
ATOM      3  C   UNL     1       3.198  12.675  -7.414  1.00  0.00     0.026 C 
ENDROOT
BRANCH   1   4
ATOM      4  O   UNL     1       2.598  11.776  -5.153  1.00  0.00    -0.371 OA
BRANCH   4   5
ATOM      5  C   UNL     1       2.617  12.177  -3.774  1.00  0.00     0.158 C 
ATOM      6  C   UNL     1       3.400   7.497  -1.608  1.00  0.00    -0.003 C 
ATOM      7  C   UNL     1       2.231   8.202  -2.308  1.00  0.00     0.052 C 
ATOM      8  C   UNL     1       4.723   7.987  -2.212  1.00  0.00     0.019 C 
ATOM      9  C   UNL     1       2.397   9.728  -2.298  1.00  0.00     0.189 C 
ATOM     10  C   UNL     1       4.810   9.513  -2.203  1.00  0.00     0.087 C 
ATOM     11  N   UNL     1       3.672  10.107  -2.905  1.00  0.00    -0.276 NA
ATOM     12  O   UNL     1       1.282  10.264  -3.013  1.00  0.00    -0.360 OA
ATOM     13  C   UNL     1       3.786  11.568  -2.980  1.00  0.00     0.121 C 
ATOM     14  C   UNL     1       1.319  11.691  -3.119  1.00  0.00     0.195 C 
BRANCH   6  15
ATOM     15  C   UNL     1       3.289   5.994  -1.721  1.00  0.00    -0.008 C 
ATOM     16  C   UNL     1       2.095   5.270  -1.145  1.00  0.00     0.004 C 
ATOM     17  C   UNL     1       2.267   5.359  -2.633  1.00  0.00     0.004 C 
ENDBRANCH   6  15
ENDBRANCH   4   5
ENDBRANCH   1   4
BRANCH   3  18
ATOM     18  C   UNL     1       3.774  13.856  -8.137  1.00  0.00     0.053 C 
BRANCH  18  19
ATOM     19  C   UNL     1       3.278  14.084  -9.541  1.00  0.00     0.074 C 
BRANCH  19  20
ATOM     20  N   UNL     1       3.930  13.828 -10.626  1.00  0.00    -0.313 NA
ATOM     21  H   UNL     1       4.349  12.887 -10.604  1.00  0.00     0.186 HD
ENDBRANCH  19  20
ENDBRANCH  18  19
ENDBRANCH   3  18
TORSDOF 6
ENDMDL
MODEL 5
REMARK VINA RESULT:    -3.472      4.828      7.224
REMARK INTER + INTRA:          -4.821
REMARK INTER:                  -4.659
REMARK INTRA:                  -0.162
REMARK UNBOUND:                -0.233
REMARK SMILES [H]/N=C\C[C@H]1C[C@@H]1O[C@H]1CO[C@H]2C[C@@H](C3CC3)CCN2C1
REMARK SMILES IDX 7 1 6 2 5 3 8 4 9 5 14 6 13 7 18 8 12 9 19 10 20 11 11 12
REMARK SMILES IDX 21 13 10 14 15 15 16 16 17 17 4 18 3 19 2 20 1 21
REMARK H PARENT
ROOT
ATOM      1  C   UNL     1       2.262  13.727  -9.435  1.00  0.00     0.122 C 
ATOM      2  C   UNL     1       0.892  13.797 -10.046  1.00  0.00     0.039 C 
ATOM      3  C   UNL     1       1.471  15.005  -9.368  1.00  0.00     0.026 C 
ENDROOT
BRANCH   1   4
ATOM      4  O   UNL     1       2.328  12.945  -8.227  1.00  0.00    -0.371 OA
BRANCH   4   5
ATOM      5  C   UNL     1       3.650  12.598  -7.785  1.00  0.00     0.158 C 
ATOM      6  C   UNL     1       2.827  12.785  -2.637  1.00  0.00    -0.003 C 
ATOM      7  C   UNL     1       2.943  13.813  -3.769  1.00  0.00     0.052 C 
ATOM      8  C   UNL     1       2.208  11.493  -3.188  1.00  0.00     0.019 C 
ATOM      9  C   UNL     1       3.676  13.238  -4.989  1.00  0.00     0.189 C 
ATOM     10  C   UNL     1       2.963  10.992  -4.419  1.00  0.00     0.087 C 
ATOM     11  N   UNL     1       3.012  12.022  -5.457  1.00  0.00    -0.276 NA
ATOM     12  O   UNL     1       3.681  14.264  -5.984  1.00  0.00    -0.360 OA
ATOM     13  C   UNL     1       3.657  11.528  -6.678  1.00  0.00     0.121 C 
ATOM     14  C   UNL     1       4.304  13.856  -7.205  1.00  0.00     0.195 C 
BRANCH   6  15
ATOM     15  C   UNL     1       2.006  13.318  -1.485  1.00  0.00    -0.008 C 
ATOM     16  C   UNL     1       2.664  14.110  -0.380  1.00  0.00     0.004 C 
ATOM     17  C   UNL     1       1.741  14.798  -1.343  1.00  0.00     0.004 C 
ENDBRANCH   6  15
ENDBRANCH   4   5
ENDBRANCH   1   4
BRANCH   3  18
ATOM     18  C   UNL     1       1.870  16.186 -10.202  1.00  0.00     0.053 C 
BRANCH  18  19
ATOM     19  C   UNL     1       1.440  17.537  -9.693  1.00  0.00     0.074 C 
BRANCH  19  20
ATOM     20  N   UNL     1       1.172  17.833  -8.465  1.00  0.00    -0.313 NA
ATOM     21  H   UNL     1       1.639  17.192  -7.809  1.00  0.00     0.186 HD
ENDBRANCH  19  20
ENDBRANCH  18  19
ENDBRANCH   3  18
TORSDOF 6
ENDMDL
MODEL 6
REMARK VINA RESULT:    -3.369      6.755      8.834
REMARK INTER + INTRA:          -4.684
REMARK INTER:                  -4.398
REMARK INTRA:                  -0.286
REMARK UNBOUND:                -0.233
REMARK SMILES [H]/N=C\C[C@H]1C[C@@H]1O[C@H]1CO[C@H]2C[C@@H](C3CC3)CCN2C1
REMARK SMILES IDX 7 1 6 2 5 3 8 4 9 5 14 6 13 7 18 8 12 9 19 10 20 11 11 12
REMARK SMILES IDX 21 13 10 14 15 15 16 16 17 17 4 18 3 19 2 20 1 21
REMARK H PARENT
ROOT
ATOM      1  C   UNL     1       2.753  17.700  -3.586  1.00  0.00     0.122 C 
ATOM      2  C   UNL     1       1.276  17.734  -3.309  1.00  0.00     0.039 C 
ATOM      3  C   UNL     1       2.174  16.857  -2.484  1.00  0.00     0.026 C 
ENDROOT
BRANCH   1   4
ATOM      4  O   UNL     1       3.106  17.016  -4.804  1.00  0.00    -0.371 OA
BRANCH   4   5
ATOM      5  C   UNL     1       4.081  17.678  -5.626  1.00  0.00     0.158 C 
ATOM      6  C   UNL     1       1.907  16.792 -10.284  1.00  0.00    -0.003 C 
ATOM      7  C   UNL     1       2.642  15.947  -9.236  1.00  0.00     0.052 C 
ATOM      8  C   UNL     1       1.119  17.904  -9.577  1.00  0.00     0.019 C 
ATOM      9  C   UNL     1       3.490  16.815  -8.297  1.00  0.00     0.189 C 
ATOM     10  C   UNL     1       2.013  18.708  -8.633  1.00  0.00     0.087 C 
ATOM     11  N   UNL     1       2.660  17.834  -7.655  1.00  0.00    -0.276 NA
ATOM     12  O   UNL     1       4.083  15.929  -7.346  1.00  0.00    -0.360 OA
ATOM     13  C   UNL     1       3.453  18.600  -6.687  1.00  0.00     0.121 C 
ATOM     14  C   UNL     1       4.882  16.606  -6.371  1.00  0.00     0.195 C 
BRANCH   6  15
ATOM     15  C   UNL     1       0.985  15.946 -11.132  1.00  0.00    -0.008 C 
ATOM     16  C   UNL     1       1.037  16.035 -12.639  1.00  0.00     0.004 C 
ATOM     17  C   UNL     1       1.523  14.794 -11.947  1.00  0.00     0.004 C 
ENDBRANCH   6  15
ENDBRANCH   4   5
ENDBRANCH   1   4
BRANCH   3  18
ATOM     18  C   UNL     1       2.421  17.215  -1.049  1.00  0.00     0.053 C 
BRANCH  18  19
ATOM     19  C   UNL     1       2.901  16.100  -0.157  1.00  0.00     0.074 C 
BRANCH  19  20
ATOM     20  N   UNL     1       2.787  14.836  -0.396  1.00  0.00    -0.313 NA
ATOM     21  H   UNL     1       3.347  14.553  -1.213  1.00  0.00     0.186 HD
ENDBRANCH  19  20
ENDBRANCH  18  19
ENDBRANCH   3  18
TORSDOF 6
ENDMDL
MODEL 7
REMARK VINA RESULT:    -3.118      5.226      7.783
REMARK INTER + INTRA:          -4.353
REMARK INTER:                  -4.480
REMARK INTRA:                   0.127
REMARK UNBOUND:                -0.233
REMARK SMILES [H]/N=C\C[C@H]1C[C@@H]1O[C@H]1CO[C@H]2C[C@@H](C3CC3)CCN2C1
REMARK SMILES IDX 7 1 6 2 5 3 8 4 9 5 14 6 13 7 18 8 12 9 19 10 20 11 11 12
REMARK SMILES IDX 21 13 10 14 15 15 16 16 17 17 4 18 3 19 2 20 1 21
REMARK H PARENT
ROOT
ATOM      1  C   UNL     1       2.395  12.050  -3.835  1.00  0.00     0.122 C 
ATOM      2  C   UNL     1       3.706  11.793  -3.146  1.00  0.00     0.039 C 
ATOM      3  C   UNL     1       2.871  12.976  -2.749  1.00  0.00     0.026 C 
ENDROOT
BRANCH   1   4
ATOM      4  O   UNL     1       2.526  12.523  -5.189  1.00  0.00    -0.371 OA
BRANCH   4   5
ATOM      5  C   UNL     1       3.818  12.335  -5.789  1.00  0.00     0.158 C 
ATOM      6  C   UNL     1       3.095  15.163 -10.111  1.00  0.00    -0.003 C 
ATOM      7  C   UNL     1       2.595  13.811  -9.587  1.00  0.00     0.052 C 
ATOM      8  C   UNL     1       3.309  16.118  -8.928  1.00  0.00     0.019 C 
ATOM      9  C   UNL     1       3.511  13.252  -8.489  1.00  0.00     0.189 C 
ATOM     10  C   UNL     1       4.199  15.490  -7.857  1.00  0.00     0.087 C 
ATOM     11  N   UNL     1       3.645  14.216  -7.397  1.00  0.00    -0.276 NA
ATOM     12  O   UNL     1       2.922  12.026  -8.052  1.00  0.00    -0.360 OA
ATOM     13  C   UNL     1       4.442  13.643  -6.307  1.00  0.00     0.121 C 
ATOM     14  C   UNL     1       3.653  11.401  -6.992  1.00  0.00     0.195 C 
BRANCH   6  15
ATOM     15  C   UNL     1       2.129  15.762 -11.109  1.00  0.00    -0.008 C 
ATOM     16  C   UNL     1       2.537  15.942 -12.552  1.00  0.00     0.004 C 
ATOM     17  C   UNL     1       1.507  14.911 -12.190  1.00  0.00     0.004 C 
ENDBRANCH   6  15
ENDBRANCH   4   5
ENDBRANCH   1   4
BRANCH   3  18
ATOM     18  C   UNL     1       2.201  12.975  -1.408  1.00  0.00     0.053 C 
BRANCH  18  19
ATOM     19  C   UNL     1       2.254  14.268  -0.635  1.00  0.00     0.074 C 
BRANCH  19  20
ATOM     20  N   UNL     1       2.894  15.334  -0.986  1.00  0.00    -0.313 NA
ATOM     21  H   UNL     1       2.309  16.176  -0.890  1.00  0.00     0.186 HD
ENDBRANCH  19  20
ENDBRANCH  18  19
ENDBRANCH   3  18
TORSDOF 6
ENDMDL
MODEL 8
REMARK VINA RESULT:    -3.049      6.979      8.471
REMARK INTER + INTRA:          -4.262
REMARK INTER:                  -4.741
REMARK INTRA:                   0.480
REMARK UNBOUND:                -0.233
REMARK SMILES [H]/N=C\C[C@H]1C[C@@H]1O[C@H]1CO[C@H]2C[C@@H](C3CC3)CCN2C1
REMARK SMILES IDX 7 1 6 2 5 3 8 4 9 5 14 6 13 7 18 8 12 9 19 10 20 11 11 12
REMARK SMILES IDX 21 13 10 14 15 15 16 16 17 17 4 18 3 19 2 20 1 21
REMARK H PARENT
ROOT
ATOM      1  C   UNL     1       1.689  17.640  -9.273  1.00  0.00     0.122 C 
ATOM      2  C   UNL     1       0.982  18.962  -9.164  1.00  0.00     0.039 C 
ATOM      3  C   UNL     1       2.118  18.798 -10.132  1.00  0.00     0.026 C 
ENDROOT
BRANCH   1   4
ATOM      4  O   UNL     1       2.529  17.329  -8.145  1.00  0.00    -0.371 OA
BRANCH   4   5
ATOM      5  C   UNL     1       3.853  16.870  -8.466  1.00  0.00     0.158 C 
ATOM      6  C   UNL     1       3.765  12.346  -5.872  1.00  0.00    -0.003 C 
ATOM      7  C   UNL     1       3.838  13.830  -5.491  1.00  0.00     0.052 C 
ATOM      8  C   UNL     1       2.937  12.193  -7.156  1.00  0.00     0.019 C 
ATOM      9  C   UNL     1       4.331  14.695  -6.659  1.00  0.00     0.189 C 
ATOM     10  C   UNL     1       3.457  13.105  -8.267  1.00  0.00     0.087 C 
ATOM     11  N   UNL     1       3.478  14.501  -7.832  1.00  0.00    -0.276 NA
ATOM     12  O   UNL     1       4.313  16.048  -6.200  1.00  0.00    -0.360 OA
ATOM     13  C   UNL     1       3.892  15.399  -8.916  1.00  0.00     0.121 C 
ATOM     14  C   UNL     1       4.715  16.985  -7.205  1.00  0.00     0.195 C 
BRANCH   6  15
ATOM     15  C   UNL     1       3.172  11.515  -4.757  1.00  0.00    -0.008 C 
ATOM     16  C   UNL     1       3.975  11.226  -3.510  1.00  0.00     0.004 C 
ATOM     17  C   UNL     1       2.791  12.147  -3.440  1.00  0.00     0.004 C 
ENDBRANCH   6  15
ENDBRANCH   4   5
ENDBRANCH   1   4
BRANCH   3  18
ATOM     18  C   UNL     1       1.824  18.797 -11.603  1.00  0.00     0.053 C 
BRANCH  18  19
ATOM     19  C   UNL     1       3.003  19.004 -12.518  1.00  0.00     0.074 C 
BRANCH  19  20
ATOM     20  N   UNL     1       4.220  19.225 -12.147  1.00  0.00    -0.313 NA
ATOM     21  H   UNL     1       4.892  18.671 -12.696  1.00  0.00     0.186 HD
ENDBRANCH  19  20
ENDBRANCH  18  19
ENDBRANCH   3  18
TORSDOF 6
ENDMDL
