MODEL 1
REMARK VINA RESULT:    -6.117      0.000      0.000
REMARK INTER + INTRA:          -7.568
REMARK INTER:                  -7.190
REMARK INTRA:                  -0.378
REMARK UNBOUND:                -0.378
REMARK SMILES Cc1ccc(CNC(=O)NC(=O)c2ccc(C)cc2)cc1
REMARK SMILES IDX 11 1 12 2 10 3 8 4 9 5 7 6 13 9 19 10 18 11 14 12 16 13
REMARK SMILES IDX 15 14 17 15 6 16 5 17 4 18 20 19 3 20 21 21 2 22 1 23
REMARK H PARENT 10 7 7 8
ROOT
ATOM      1  C   UNL     1       2.687  10.454  -2.738  1.00  0.00     0.259 C 
ATOM      2  O   UNL     1       2.108  10.837  -1.731  1.00  0.00    -0.269 OA
ATOM      3  N   UNL     1       3.044  11.187  -3.874  1.00  0.00    -0.274 N 
ATOM      4  C   UNL     1       3.141  12.505  -4.241  1.00  0.00     0.321 C 
ATOM      5  O   UNL     1       3.645  12.758  -5.340  1.00  0.00    -0.248 OA
ATOM      6  N   UNL     1       2.747  13.526  -3.458  1.00  0.00    -0.334 N 
ATOM      7  H   UNL     1       3.501  10.643  -4.594  1.00  0.00     0.175 HD
ATOM      8  H   UNL     1       2.964  14.436  -3.836  1.00  0.00     0.165 HD
ENDROOT
BRANCH   1   9
ATOM      9  C   UNL     1       3.074   9.030  -2.776  1.00  0.00     0.040 A 
ATOM     10  C   UNL     1       2.285   8.079  -3.426  1.00  0.00     0.014 A 
ATOM     11  C   UNL     1       2.718   6.754  -3.482  1.00  0.00     0.004 A 
ATOM     12  C   UNL     1       4.257   8.654  -2.134  1.00  0.00     0.014 A 
ATOM     13  C   UNL     1       3.930   6.376  -2.885  1.00  0.00    -0.051 A 
ATOM     14  C   UNL     1       4.690   7.330  -2.198  1.00  0.00     0.004 A 
ATOM     15  C   UNL     1       4.424   4.966  -3.026  1.00  0.00     0.044 C 
ENDBRANCH   1   9
BRANCH   6  16
ATOM     16  C   UNL     1       2.238  13.456  -2.117  1.00  0.00     0.153 C 
BRANCH  16  17
ATOM     17  C   UNL     1       2.366  14.688  -1.265  1.00  0.00    -0.029 A 
ATOM     18  C   UNL     1       3.041  14.703  -0.040  1.00  0.00     0.006 A 
ATOM     19  C   UNL     1       1.970  15.909  -1.836  1.00  0.00     0.006 A 
ATOM     20  C   UNL     1       3.333  15.920   0.584  1.00  0.00     0.004 A 
ATOM     21  C   UNL     1       2.265  17.119  -1.217  1.00  0.00     0.004 A 
ATOM     22  C   UNL     1       2.958  17.136  -0.005  1.00  0.00    -0.051 A 
ATOM     23  C   UNL     1       3.391  18.445   0.584  1.00  0.00     0.044 C 
ENDBRANCH  16  17
ENDBRANCH   6  16
TORSDOF 3
ENDMDL
MODEL 2
REMARK VINA RESULT:    -6.114      3.231      5.508
REMARK INTER + INTRA:          -7.564
REMARK INTER:                  -7.195
REMARK INTRA:                  -0.370
REMARK UNBOUND:                -0.378
REMARK SMILES Cc1ccc(CNC(=O)NC(=O)c2ccc(C)cc2)cc1
REMARK SMILES IDX 11 1 12 2 10 3 8 4 9 5 7 6 13 9 19 10 18 11 14 12 16 13
REMARK SMILES IDX 15 14 17 15 6 16 5 17 4 18 20 19 3 20 21 21 2 22 1 23
REMARK H PARENT 10 7 7 8
ROOT
ATOM      1  C   UNL     1       2.617  10.333  -3.112  1.00  0.00     0.259 C 
ATOM      2  O   UNL     1       3.189   9.986  -4.136  1.00  0.00    -0.269 OA
ATOM      3  N   UNL     1       2.492  11.617  -2.571  1.00  0.00    -0.274 N 
ATOM      4  C   UNL     1       2.683  12.912  -2.981  1.00  0.00     0.321 C 
ATOM      5  O   UNL     1       2.318  13.814  -2.219  1.00  0.00    -0.248 OA
ATOM      6  N   UNL     1       3.216  13.245  -4.171  1.00  0.00    -0.334 N 
ATOM      7  H   UNL     1       1.988  11.653  -1.696  1.00  0.00     0.175 HD
ATOM      8  H   UNL     1       3.209  14.238  -4.356  1.00  0.00     0.165 HD
ENDROOT
BRANCH   1   9
ATOM      9  C   UNL     1       1.961   9.269  -2.329  1.00  0.00     0.040 A 
ATOM     10  C   UNL     1       2.590   8.678  -1.232  1.00  0.00     0.014 A 
ATOM     11  C   UNL     1       1.909   7.713  -0.490  1.00  0.00     0.004 A 
ATOM     12  C   UNL     1       0.683   8.858  -2.721  1.00  0.00     0.014 A 
ATOM     13  C   UNL     1       0.606   7.331  -0.845  1.00  0.00    -0.051 A 
ATOM     14  C   UNL     1       0.003   7.898  -1.974  1.00  0.00     0.004 A 
ATOM     15  C   UNL     1      -0.145   6.354   0.012  1.00  0.00     0.044 C 
ENDBRANCH   1   9
BRANCH   6  16
ATOM     16  C   UNL     1       3.607  12.363  -5.234  1.00  0.00     0.153 C 
BRANCH  16  17
ATOM     17  C   UNL     1       3.751  12.958  -6.607  1.00  0.00    -0.029 A 
ATOM     18  C   UNL     1       3.101  12.444  -7.734  1.00  0.00     0.006 A 
ATOM     19  C   UNL     1       4.398  14.201  -6.704  1.00  0.00     0.006 A 
ATOM     20  C   UNL     1       3.081  13.177  -8.925  1.00  0.00     0.004 A 
ATOM     21  C   UNL     1       4.373  14.931  -7.889  1.00  0.00     0.004 A 
ATOM     22  C   UNL     1       3.705  14.429  -9.007  1.00  0.00    -0.051 A 
ATOM     23  C   UNL     1       3.567  15.282 -10.233  1.00  0.00     0.044 C 
ENDBRANCH  16  17
ENDBRANCH   6  16
TORSDOF 3
ENDMDL
MODEL 3
REMARK VINA RESULT:    -6.059      0.549      8.013
REMARK INTER + INTRA:          -7.500
REMARK INTER:                  -7.007
REMARK INTRA:                  -0.493
REMARK UNBOUND:                -0.378
REMARK SMILES Cc1ccc(CNC(=O)NC(=O)c2ccc(C)cc2)cc1
REMARK SMILES IDX 11 1 12 2 10 3 8 4 9 5 7 6 13 9 19 10 18 11 14 12 16 13
REMARK SMILES IDX 15 14 17 15 6 16 5 17 4 18 20 19 3 20 21 21 2 22 1 23
REMARK H PARENT 10 7 7 8
ROOT
ATOM      1  C   UNL     1       2.611  13.237  -1.912  1.00  0.00     0.259 C 
ATOM      2  O   UNL     1       2.282  12.281  -1.223  1.00  0.00    -0.269 OA
ATOM      3  N   UNL     1       2.997  13.256  -3.256  1.00  0.00    -0.274 N 
ATOM      4  C   UNL     1       2.950  12.412  -4.335  1.00  0.00     0.321 C 
ATOM      5  O   UNL     1       3.288  12.867  -5.434  1.00  0.00    -0.248 OA
ATOM      6  N   UNL     1       2.531  11.135  -4.264  1.00  0.00    -0.334 N 
ATOM      7  H   UNL     1       3.247  14.172  -3.604  1.00  0.00     0.175 HD
ATOM      8  H   UNL     1       2.475  10.675  -5.162  1.00  0.00     0.165 HD
ENDROOT
BRANCH   1   9
ATOM      9  C   UNL     1       2.603  14.558  -1.254  1.00  0.00     0.040 A 
ATOM     10  C   UNL     1       3.105  14.732   0.037  1.00  0.00     0.014 A 
ATOM     11  C   UNL     1       3.124  16.010   0.596  1.00  0.00     0.004 A 
ATOM     12  C   UNL     1       2.067  15.639  -1.961  1.00  0.00     0.014 A 
ATOM     13  C   UNL     1       2.636  17.111  -0.125  1.00  0.00    -0.051 A 
ATOM     14  C   UNL     1       2.094  16.915  -1.400  1.00  0.00     0.004 A 
ATOM     15  C   UNL     1       2.741  18.490   0.457  1.00  0.00     0.044 C 
ENDBRANCH   1   9
BRANCH   6  16
ATOM     16  C   UNL     1       2.003  10.449  -3.119  1.00  0.00     0.153 C 
BRANCH  16  17
ATOM     17  C   UNL     1       2.498   9.053  -2.863  1.00  0.00    -0.029 A 
ATOM     18  C   UNL     1       1.848   7.912  -3.344  1.00  0.00     0.006 A 
ATOM     19  C   UNL     1       3.776   8.917  -2.297  1.00  0.00     0.006 A 
ATOM     20  C   UNL     1       2.481   6.666  -3.281  1.00  0.00     0.004 A 
ATOM     21  C   UNL     1       4.407   7.679  -2.239  1.00  0.00     0.004 A 
ATOM     22  C   UNL     1       3.768   6.543  -2.740  1.00  0.00    -0.051 A 
ATOM     23  C   UNL     1       4.509   5.240  -2.798  1.00  0.00     0.044 C 
ENDBRANCH  16  17
ENDBRANCH   6  16
TORSDOF 3
ENDMDL
MODEL 4
REMARK VINA RESULT:    -6.051      3.125      7.309
REMARK INTER + INTRA:          -7.490
REMARK INTER:                  -6.997
REMARK INTRA:                  -0.493
REMARK UNBOUND:                -0.378
REMARK SMILES Cc1ccc(CNC(=O)NC(=O)c2ccc(C)cc2)cc1
REMARK SMILES IDX 11 1 12 2 10 3 8 4 9 5 7 6 13 9 19 10 18 11 14 12 16 13
REMARK SMILES IDX 15 14 17 15 6 16 5 17 4 18 20 19 3 20 21 21 2 22 1 23
REMARK H PARENT 10 7 7 8
ROOT
ATOM      1  C   UNL     1       3.235  12.170  -5.308  1.00  0.00     0.259 C 
ATOM      2  O   UNL     1       3.315  10.950  -5.352  1.00  0.00    -0.269 OA
ATOM      3  N   UNL     1       2.946  12.990  -4.213  1.00  0.00    -0.274 N 
ATOM      4  C   UNL     1       2.883  12.872  -2.848  1.00  0.00     0.321 C 
ATOM      5  O   UNL     1       2.717  13.905  -2.191  1.00  0.00    -0.248 OA
ATOM      6  N   UNL     1       3.023  11.704  -2.194  1.00  0.00    -0.334 N 
ATOM      7  H   UNL     1       2.914  13.977  -4.428  1.00  0.00     0.175 HD
ATOM      8  H   UNL     1       3.038  11.799  -1.189  1.00  0.00     0.165 HD
ENDROOT
BRANCH   1   9
ATOM      9  C   UNL     1       3.477  12.893  -6.572  1.00  0.00     0.040 A 
ATOM     10  C   UNL     1       2.956  12.436  -7.784  1.00  0.00     0.014 A 
ATOM     11  C   UNL     1       3.167  13.182  -8.943  1.00  0.00     0.004 A 
ATOM     12  C   UNL     1       4.255  14.054  -6.525  1.00  0.00     0.014 A 
ATOM     13  C   UNL     1       3.903  14.376  -8.898  1.00  0.00    -0.051 A 
ATOM     14  C   UNL     1       4.459  14.799  -7.685  1.00  0.00     0.004 A 
ATOM     15  C   UNL     1       4.050  15.210 -10.137  1.00  0.00     0.044 C 
ENDBRANCH   1   9
BRANCH   6  16
ATOM     16  C   UNL     1       3.324  10.417  -2.755  1.00  0.00     0.153 C 
BRANCH  16  17
ATOM     17  C   UNL     1       2.537   9.241  -2.246  1.00  0.00    -0.029 A 
ATOM     18  C   UNL     1       2.960   8.445  -1.177  1.00  0.00     0.006 A 
ATOM     19  C   UNL     1       1.231   9.080  -2.737  1.00  0.00     0.006 A 
ATOM     20  C   UNL     1       2.080   7.525  -0.598  1.00  0.00     0.004 A 
ATOM     21  C   UNL     1       0.355   8.167  -2.158  1.00  0.00     0.004 A 
ATOM     22  C   UNL     1       0.769   7.389  -1.076  1.00  0.00    -0.051 A 
ATOM     23  C   UNL     1      -0.222   6.510  -0.372  1.00  0.00     0.044 C 
ENDBRANCH  16  17
ENDBRANCH   6  16
TORSDOF 3
ENDMDL
MODEL 5
REMARK VINA RESULT:    -5.711      2.989      7.594
REMARK INTER + INTRA:          -7.091
REMARK INTER:                  -6.600
REMARK INTRA:                  -0.491
REMARK UNBOUND:                -0.378
REMARK SMILES Cc1ccc(CNC(=O)NC(=O)c2ccc(C)cc2)cc1
REMARK SMILES IDX 11 1 12 2 10 3 8 4 9 5 7 6 13 9 19 10 18 11 14 12 16 13
REMARK SMILES IDX 15 14 17 15 6 16 5 17 4 18 20 19 3 20 21 21 2 22 1 23
REMARK H PARENT 10 7 7 8
ROOT
ATOM      1  C   UNL     1       3.579  12.343  -5.458  1.00  0.00     0.259 C 
ATOM      2  O   UNL     1       4.056  11.218  -5.491  1.00  0.00    -0.269 OA
ATOM      3  N   UNL     1       2.974  13.006  -4.385  1.00  0.00    -0.274 N 
ATOM      4  C   UNL     1       2.874  12.853  -3.026  1.00  0.00     0.321 C 
ATOM      5  O   UNL     1       2.339  13.764  -2.385  1.00  0.00    -0.248 OA
ATOM      6  N   UNL     1       3.351  11.785  -2.360  1.00  0.00    -0.334 N 
ATOM      7  H   UNL     1       2.632  13.932  -4.607  1.00  0.00     0.175 HD
ATOM      8  H   UNL     1       3.275  11.865  -1.357  1.00  0.00     0.165 HD
ENDROOT
BRANCH   1   9
ATOM      9  C   UNL     1       3.643  13.125  -6.708  1.00  0.00     0.040 A 
ATOM     10  C   UNL     1       4.332  14.338  -6.772  1.00  0.00     0.014 A 
ATOM     11  C   UNL     1       4.410  15.016  -7.989  1.00  0.00     0.004 A 
ATOM     12  C   UNL     1       2.986  12.620  -7.833  1.00  0.00     0.014 A 
ATOM     13  C   UNL     1       3.797  14.492  -9.137  1.00  0.00    -0.051 A 
ATOM     14  C   UNL     1       3.072  13.297  -9.048  1.00  0.00     0.004 A 
ATOM     15  C   UNL     1       3.962  15.188 -10.456  1.00  0.00     0.044 C 
ENDBRANCH   1   9
BRANCH   6  16
ATOM     16  C   UNL     1       4.089  10.677  -2.896  1.00  0.00     0.153 C 
BRANCH  16  17
ATOM     17  C   UNL     1       3.556   9.297  -2.626  1.00  0.00    -0.029 A 
ATOM     18  C   UNL     1       4.308   8.297  -2.001  1.00  0.00     0.006 A 
ATOM     19  C   UNL     1       2.182   9.088  -2.825  1.00  0.00     0.006 A 
ATOM     20  C   UNL     1       3.685   7.124  -1.562  1.00  0.00     0.004 A 
ATOM     21  C   UNL     1       1.563   7.923  -2.384  1.00  0.00     0.004 A 
ATOM     22  C   UNL     1       2.308   6.934  -1.740  1.00  0.00    -0.051 A 
ATOM     23  C   UNL     1       1.609   5.747  -1.148  1.00  0.00     0.044 C 
ENDBRANCH  16  17
ENDBRANCH   6  16
TORSDOF 3
ENDMDL
MODEL 6
REMARK VINA RESULT:    -4.656      1.847      8.178
REMARK INTER + INTRA:          -5.851
REMARK INTER:                  -5.434
REMARK INTRA:                  -0.417
REMARK UNBOUND:                -0.378
REMARK SMILES Cc1ccc(CNC(=O)NC(=O)c2ccc(C)cc2)cc1
REMARK SMILES IDX 11 1 12 2 10 3 8 4 9 5 7 6 13 9 19 10 18 11 14 12 16 13
REMARK SMILES IDX 15 14 17 15 6 16 5 17 4 18 20 19 3 20 21 21 2 22 1 23
REMARK H PARENT 10 7 7 8
ROOT
ATOM      1  C   UNL     1       2.322  12.549  -2.189  1.00  0.00     0.259 C 
ATOM      2  O   UNL     1       3.316  11.842  -2.090  1.00  0.00    -0.269 OA
ATOM      3  N   UNL     1       1.101  12.259  -2.806  1.00  0.00    -0.274 N 
ATOM      4  C   UNL     1       0.443  11.155  -3.282  1.00  0.00     0.321 C 
ATOM      5  O   UNL     1      -0.728  11.299  -3.650  1.00  0.00    -0.248 OA
ATOM      6  N   UNL     1       0.993   9.928  -3.340  1.00  0.00    -0.334 N 
ATOM      7  H   UNL     1       0.430  13.016  -2.779  1.00  0.00     0.175 HD
ATOM      8  H   UNL     1       0.350   9.207  -3.634  1.00  0.00     0.165 HD
ENDROOT
BRANCH   1   9
ATOM      9  C   UNL     1       2.401  13.889  -1.578  1.00  0.00     0.040 A 
ATOM     10  C   UNL     1       2.892  14.071  -0.284  1.00  0.00     0.014 A 
ATOM     11  C   UNL     1       2.996  15.363   0.232  1.00  0.00     0.004 A 
ATOM     12  C   UNL     1       1.962  14.982  -2.332  1.00  0.00     0.014 A 
ATOM     13  C   UNL     1       2.607  16.471  -0.536  1.00  0.00    -0.051 A 
ATOM     14  C   UNL     1       2.074  16.271  -1.815  1.00  0.00     0.004 A 
ATOM     15  C   UNL     1       2.805  17.858   0.000  1.00  0.00     0.044 C 
ENDBRANCH   1   9
BRANCH   6  16
ATOM     16  C   UNL     1       2.289   9.526  -2.871  1.00  0.00     0.153 C 
BRANCH  16  17
ATOM     17  C   UNL     1       2.406   8.163  -2.248  1.00  0.00    -0.029 A 
ATOM     18  C   UNL     1       1.841   7.838  -1.011  1.00  0.00     0.006 A 
ATOM     19  C   UNL     1       2.925   7.132  -3.049  1.00  0.00     0.006 A 
ATOM     20  C   UNL     1       1.776   6.502  -0.601  1.00  0.00     0.004 A 
ATOM     21  C   UNL     1       2.856   5.804  -2.642  1.00  0.00     0.004 A 
ATOM     22  C   UNL     1       2.271   5.476  -1.417  1.00  0.00    -0.051 A 
ATOM     23  C   UNL     1       2.077   4.035  -1.050  1.00  0.00     0.044 C 
ENDBRANCH  16  17
ENDBRANCH   6  16
TORSDOF 3
ENDMDL
MODEL 7
REMARK VINA RESULT:    -4.489      3.732      7.593
REMARK INTER + INTRA:          -5.654
REMARK INTER:                  -5.215
REMARK INTRA:                  -0.439
REMARK UNBOUND:                -0.378
REMARK SMILES Cc1ccc(CNC(=O)NC(=O)c2ccc(C)cc2)cc1
REMARK SMILES IDX 11 1 12 2 10 3 8 4 9 5 7 6 13 9 19 10 18 11 14 12 16 13
REMARK SMILES IDX 15 14 17 15 6 16 5 17 4 18 20 19 3 20 21 21 2 22 1 23
REMARK H PARENT 10 7 7 8
ROOT
ATOM      1  C   UNL     1       2.969  11.684  -4.909  1.00  0.00     0.259 C 
ATOM      2  O   UNL     1       3.897  11.126  -4.340  1.00  0.00    -0.269 OA
ATOM      3  N   UNL     1       1.604  11.643  -4.605  1.00  0.00    -0.274 N 
ATOM      4  C   UNL     1       0.810  11.247  -3.560  1.00  0.00     0.321 C 
ATOM      5  O   UNL     1      -0.396  11.508  -3.625  1.00  0.00    -0.248 OA
ATOM      6  N   UNL     1       1.280  10.621  -2.464  1.00  0.00    -0.334 N 
ATOM      7  H   UNL     1       1.020  12.173  -5.238  1.00  0.00     0.175 HD
ATOM      8  H   UNL     1       0.581  10.474  -1.750  1.00  0.00     0.165 HD
ENDROOT
BRANCH   1   9
ATOM      9  C   UNL     1       3.316  12.522  -6.073  1.00  0.00     0.040 A 
ATOM     10  C   UNL     1       2.882  12.196  -7.359  1.00  0.00     0.014 A 
ATOM     11  C   UNL     1       3.191  13.047  -8.421  1.00  0.00     0.004 A 
ATOM     12  C   UNL     1       4.102  13.657  -5.854  1.00  0.00     0.014 A 
ATOM     13  C   UNL     1       3.936  14.216  -8.203  1.00  0.00    -0.051 A 
ATOM     14  C   UNL     1       4.403  14.508  -6.916  1.00  0.00     0.004 A 
ATOM     15  C   UNL     1       4.187  15.164  -9.339  1.00  0.00     0.044 C 
ENDBRANCH   1   9
BRANCH   6  16
ATOM     16  C   UNL     1       2.646  10.319  -2.146  1.00  0.00     0.153 C 
BRANCH  16  17
ATOM     17  C   UNL     1       3.070   8.878  -2.221  1.00  0.00    -0.029 A 
ATOM     18  C   UNL     1       2.259   7.870  -2.752  1.00  0.00     0.006 A 
ATOM     19  C   UNL     1       4.414   8.588  -1.936  1.00  0.00     0.006 A 
ATOM     20  C   UNL     1       2.795   6.605  -3.014  1.00  0.00     0.004 A 
ATOM     21  C   UNL     1       4.948   7.331  -2.202  1.00  0.00     0.004 A 
ATOM     22  C   UNL     1       4.145   6.331  -2.753  1.00  0.00    -0.051 A 
ATOM     23  C   UNL     1       4.760   5.026  -3.162  1.00  0.00     0.044 C 
ENDBRANCH  16  17
ENDBRANCH   6  16
TORSDOF 3
ENDMDL
MODEL 8
REMARK VINA RESULT:    -3.539      3.922      5.117
REMARK INTER + INTRA:          -4.537
REMARK INTER:                  -4.090
REMARK INTRA:                  -0.447
REMARK UNBOUND:                -0.378
REMARK SMILES Cc1ccc(CNC(=O)NC(=O)c2ccc(C)cc2)cc1
REMARK SMILES IDX 11 1 12 2 10 3 8 4 9 5 7 6 13 9 19 10 18 11 14 12 16 13
REMARK SMILES IDX 15 14 17 15 6 16 5 17 4 18 20 19 3 20 21 21 2 22 1 23
REMARK H PARENT 10 7 7 8
ROOT
ATOM      1  C   UNL     1       3.296   8.856  -3.168  1.00  0.00     0.259 C 
ATOM      2  O   UNL     1       2.531   9.295  -4.015  1.00  0.00    -0.269 OA
ATOM      3  N   UNL     1       4.503   9.396  -2.714  1.00  0.00    -0.274 N 
ATOM      4  C   UNL     1       5.170  10.592  -2.788  1.00  0.00     0.321 C 
ATOM      5  O   UNL     1       6.196  10.720  -2.113  1.00  0.00    -0.248 OA
ATOM      6  N   UNL     1       4.749  11.634  -3.530  1.00  0.00    -0.334 N 
ATOM      7  H   UNL     1       4.974   8.836  -2.016  1.00  0.00     0.175 HD
ATOM      8  H   UNL     1       5.303  12.469  -3.409  1.00  0.00     0.165 HD
ENDROOT
BRANCH   1   9
ATOM      9  C   UNL     1       2.907   7.588  -2.521  1.00  0.00     0.040 A 
ATOM     10  C   UNL     1       1.945   7.551  -1.510  1.00  0.00     0.014 A 
ATOM     11  C   UNL     1       1.573   6.322  -0.965  1.00  0.00     0.004 A 
ATOM     12  C   UNL     1       3.537   6.414  -2.946  1.00  0.00     0.014 A 
ATOM     13  C   UNL     1       2.161   5.133  -1.421  1.00  0.00    -0.051 A 
ATOM     14  C   UNL     1       3.157   5.188  -2.404  1.00  0.00     0.004 A 
ATOM     15  C   UNL     1       1.689   3.813  -0.886  1.00  0.00     0.044 C 
ENDBRANCH   1   9
BRANCH   6  16
ATOM     16  C   UNL     1       3.540  11.730  -4.298  1.00  0.00     0.153 C 
BRANCH  16  17
ATOM     17  C   UNL     1       3.653  12.272  -5.696  1.00  0.00    -0.029 A 
ATOM     18  C   UNL     1       3.016  11.687  -6.796  1.00  0.00     0.006 A 
ATOM     19  C   UNL     1       4.250  13.534  -5.850  1.00  0.00     0.006 A 
ATOM     20  C   UNL     1       2.961  12.368  -8.017  1.00  0.00     0.004 A 
ATOM     21  C   UNL     1       4.190  14.212  -7.064  1.00  0.00     0.004 A 
ATOM     22  C   UNL     1       3.536  13.639  -8.155  1.00  0.00    -0.051 A 
ATOM     23  C   UNL     1       3.357  14.434  -9.414  1.00  0.00     0.044 C 
ENDBRANCH  16  17
ENDBRANCH   6  16
TORSDOF 3
ENDMDL
MODEL 9
REMARK VINA RESULT:    -3.514      2.388      4.072
REMARK INTER + INTRA:          -4.508
REMARK INTER:                  -4.068
REMARK INTRA:                  -0.440
REMARK UNBOUND:                -0.378
REMARK SMILES Cc1ccc(CNC(=O)NC(=O)c2ccc(C)cc2)cc1
REMARK SMILES IDX 11 1 12 2 10 3 8 4 9 5 7 6 13 9 19 10 18 11 14 12 16 13
REMARK SMILES IDX 15 14 17 15 6 16 5 17 4 18 20 19 3 20 21 21 2 22 1 23
REMARK H PARENT 10 7 7 8
ROOT
ATOM      1  C   UNL     1       2.225  14.211  -1.637  1.00  0.00     0.259 C 
ATOM      2  O   UNL     1       2.235  14.361  -0.424  1.00  0.00    -0.269 OA
ATOM      3  N   UNL     1       2.087  15.179  -2.638  1.00  0.00    -0.274 N 
ATOM      4  C   UNL     1       2.148  16.545  -2.742  1.00  0.00     0.321 C 
ATOM      5  O   UNL     1       2.100  17.036  -3.874  1.00  0.00    -0.248 OA
ATOM      6  N   UNL     1       2.286  17.366  -1.684  1.00  0.00    -0.334 N 
ATOM      7  H   UNL     1       2.087  14.808  -3.579  1.00  0.00     0.175 HD
ATOM      8  H   UNL     1       2.401  18.337  -1.936  1.00  0.00     0.165 HD
ENDROOT
BRANCH   1   9
ATOM      9  C   UNL     1       2.385  12.831  -2.134  1.00  0.00     0.040 A 
ATOM     10  C   UNL     1       1.282  12.057  -2.500  1.00  0.00     0.014 A 
ATOM     11  C   UNL     1       1.487  10.776  -3.014  1.00  0.00     0.004 A 
ATOM     12  C   UNL     1       3.680  12.311  -2.223  1.00  0.00     0.014 A 
ATOM     13  C   UNL     1       2.785  10.264  -3.155  1.00  0.00    -0.051 A 
ATOM     14  C   UNL     1       3.880  11.033  -2.743  1.00  0.00     0.004 A 
ATOM     15  C   UNL     1       2.993   8.919  -3.788  1.00  0.00     0.044 C 
ENDBRANCH   1   9
BRANCH   6  16
ATOM     16  C   UNL     1       2.462  16.999  -0.307  1.00  0.00     0.153 C 
BRANCH  16  17
ATOM     17  C   UNL     1       3.463  17.786   0.493  1.00  0.00    -0.029 A 
ATOM     18  C   UNL     1       3.122  18.515   1.637  1.00  0.00     0.006 A 
ATOM     19  C   UNL     1       4.821  17.599   0.188  1.00  0.00     0.006 A 
ATOM     20  C   UNL     1       4.125  19.023   2.469  1.00  0.00     0.004 A 
ATOM     21  C   UNL     1       5.818  18.100   1.018  1.00  0.00     0.004 A 
ATOM     22  C   UNL     1       5.479  18.808   2.173  1.00  0.00    -0.051 A 
ATOM     23  C   UNL     1       6.554  19.224   3.131  1.00  0.00     0.044 C 
ENDBRANCH  16  17
ENDBRANCH   6  16
TORSDOF 3
ENDMDL
