MODEL 1
REMARK VINA RESULT:    -6.064      0.000      0.000
REMARK INTER + INTRA:          -7.598
REMARK INTER:                  -7.128
REMARK INTRA:                  -0.470
REMARK UNBOUND:                -0.470
REMARK SMILES Cc1ccc(CNC(=O)NC(=O)c2ccc(C)cc2)cc1
REMARK SMILES IDX 11 1 12 2 10 3 8 4 9 5 7 6 13 9 19 10 18 11 14 12 16 13
REMARK SMILES IDX 15 14 17 15 6 16 5 17 4 18 20 19 3 20 21 21 2 22 1 23
REMARK H PARENT 10 7 7 8
ROOT
ATOM      1  C   UNL     1      -1.352  12.913  -4.220  1.00  0.00     0.259 C 
ATOM      2  O   UNL     1      -0.589  12.218  -3.564  1.00  0.00    -0.269 OA
ATOM      3  N   UNL     1      -2.502  12.532  -4.919  1.00  0.00    -0.274 N 
ATOM      4  C   UNL     1      -3.333  11.443  -4.984  1.00  0.00     0.321 C 
ATOM      5  O   UNL     1      -4.365  11.549  -5.656  1.00  0.00    -0.248 OA
ATOM      6  N   UNL     1      -3.099  10.288  -4.335  1.00  0.00    -0.334 N 
ATOM      7  H   UNL     1      -2.962  13.287  -5.409  1.00  0.00     0.175 HD
ATOM      8  H   UNL     1      -3.849   9.616  -4.417  1.00  0.00     0.165 HD
ENDROOT
BRANCH   1   9
ATOM      9  C   UNL     1      -1.038  14.353  -4.292  1.00  0.00     0.040 A 
ATOM     10  C   UNL     1       0.266  14.804  -4.506  1.00  0.00     0.014 A 
ATOM     11  C   UNL     1       0.506  16.173  -4.619  1.00  0.00     0.004 A 
ATOM     12  C   UNL     1      -2.087  15.263  -4.131  1.00  0.00     0.014 A 
ATOM     13  C   UNL     1      -0.548  17.093  -4.511  1.00  0.00    -0.051 A 
ATOM     14  C   UNL     1      -1.844  16.630  -4.251  1.00  0.00     0.004 A 
ATOM     15  C   UNL     1      -0.287  18.556  -4.719  1.00  0.00     0.044 C 
ENDBRANCH   1   9
BRANCH   6  16
ATOM     16  C   UNL     1      -2.026   9.995  -3.428  1.00  0.00     0.153 C 
BRANCH  16  17
ATOM     17  C   UNL     1      -1.396   8.632  -3.521  1.00  0.00    -0.029 A 
ATOM     18  C   UNL     1      -1.858   7.527  -2.799  1.00  0.00     0.006 A 
ATOM     19  C   UNL     1      -0.444   8.432  -4.533  1.00  0.00     0.006 A 
ATOM     20  C   UNL     1      -1.391   6.245  -3.107  1.00  0.00     0.004 A 
ATOM     21  C   UNL     1       0.016   7.155  -4.842  1.00  0.00     0.004 A 
ATOM     22  C   UNL     1      -0.461   6.049  -4.137  1.00  0.00    -0.051 A 
ATOM     23  C   UNL     1      -0.065   4.668  -4.567  1.00  0.00     0.044 C 
ENDBRANCH  16  17
ENDBRANCH   6  16
TORSDOF 3
ENDMDL
MODEL 2
REMARK VINA RESULT:    -6.048      3.037      5.448
REMARK INTER + INTRA:          -7.579
REMARK INTER:                  -7.110
REMARK INTRA:                  -0.469
REMARK UNBOUND:                -0.470
REMARK SMILES Cc1ccc(CNC(=O)NC(=O)c2ccc(C)cc2)cc1
REMARK SMILES IDX 11 1 12 2 10 3 8 4 9 5 7 6 13 9 19 10 18 11 14 12 16 13
REMARK SMILES IDX 15 14 17 15 6 16 5 17 4 18 20 19 3 20 21 21 2 22 1 23
REMARK H PARENT 10 7 7 8
ROOT
ATOM      1  C   UNL     1      -4.184  10.913  -5.477  1.00  0.00     0.259 C 
ATOM      2  O   UNL     1      -3.980   9.722  -5.290  1.00  0.00    -0.269 OA
ATOM      3  N   UNL     1      -3.398  12.006  -5.096  1.00  0.00    -0.274 N 
ATOM      4  C   UNL     1      -2.122  12.227  -4.645  1.00  0.00     0.321 C 
ATOM      5  O   UNL     1      -1.745  13.400  -4.544  1.00  0.00    -0.248 OA
ATOM      6  N   UNL     1      -1.259  11.241  -4.339  1.00  0.00    -0.334 N 
ATOM      7  H   UNL     1      -3.786  12.906  -5.345  1.00  0.00     0.175 HD
ATOM      8  H   UNL     1      -0.333  11.569  -4.104  1.00  0.00     0.165 HD
ENDROOT
BRANCH   1   9
ATOM      9  C   UNL     1      -5.417  11.267  -6.205  1.00  0.00     0.040 A 
ATOM     10  C   UNL     1      -6.635  10.648  -5.918  1.00  0.00     0.014 A 
ATOM     11  C   UNL     1      -7.785  11.053  -6.596  1.00  0.00     0.004 A 
ATOM     12  C   UNL     1      -5.334  12.242  -7.204  1.00  0.00     0.014 A 
ATOM     13  C   UNL     1      -7.722  12.066  -7.564  1.00  0.00    -0.051 A 
ATOM     14  C   UNL     1      -6.486  12.648  -7.875  1.00  0.00     0.004 A 
ATOM     15  C   UNL     1      -8.980  12.549  -8.223  1.00  0.00     0.044 C 
ENDBRANCH   1   9
BRANCH   6  16
ATOM     16  C   UNL     1      -1.458   9.827  -4.483  1.00  0.00     0.153 C 
BRANCH  16  17
ATOM     17  C   UNL     1      -0.932   8.941  -3.388  1.00  0.00    -0.029 A 
ATOM     18  C   UNL     1       0.364   8.415  -3.388  1.00  0.00     0.006 A 
ATOM     19  C   UNL     1      -1.713   8.820  -2.227  1.00  0.00     0.006 A 
ATOM     20  C   UNL     1       0.872   7.803  -2.237  1.00  0.00     0.004 A 
ATOM     21  C   UNL     1      -1.205   8.215  -1.082  1.00  0.00     0.004 A 
ATOM     22  C   UNL     1       0.096   7.710  -1.073  1.00  0.00    -0.051 A 
ATOM     23  C   UNL     1       0.680   7.186   0.205  1.00  0.00     0.044 C 
ENDBRANCH  16  17
ENDBRANCH   6  16
TORSDOF 3
ENDMDL
MODEL 3
REMARK VINA RESULT:    -6.041      3.164      7.365
REMARK INTER + INTRA:          -7.570
REMARK INTER:                  -7.206
REMARK INTRA:                  -0.364
REMARK UNBOUND:                -0.470
REMARK SMILES Cc1ccc(CNC(=O)NC(=O)c2ccc(C)cc2)cc1
REMARK SMILES IDX 11 1 12 2 10 3 8 4 9 5 7 6 13 9 19 10 18 11 14 12 16 13
REMARK SMILES IDX 15 14 17 15 6 16 5 17 4 18 20 19 3 20 21 21 2 22 1 23
REMARK H PARENT 10 7 7 8
ROOT
ATOM      1  C   UNL     1      -1.947   9.777  -3.953  1.00  0.00     0.259 C 
ATOM      2  O   UNL     1      -2.690   9.107  -4.656  1.00  0.00    -0.269 OA
ATOM      3  N   UNL     1      -1.719  11.156  -3.986  1.00  0.00    -0.274 N 
ATOM      4  C   UNL     1      -2.303  12.266  -4.541  1.00  0.00     0.321 C 
ATOM      5  O   UNL     1      -1.858  13.372  -4.214  1.00  0.00    -0.248 OA
ATOM      6  N   UNL     1      -3.344  12.213  -5.393  1.00  0.00    -0.334 N 
ATOM      7  H   UNL     1      -1.038  11.483  -3.314  1.00  0.00     0.175 HD
ATOM      8  H   UNL     1      -3.711  13.120  -5.643  1.00  0.00     0.165 HD
ENDROOT
BRANCH   1   9
ATOM      9  C   UNL     1      -1.183   9.052  -2.920  1.00  0.00     0.040 A 
ATOM     10  C   UNL     1       0.157   8.709  -3.111  1.00  0.00     0.014 A 
ATOM     11  C   UNL     1       0.853   8.070  -2.085  1.00  0.00     0.004 A 
ATOM     12  C   UNL     1      -1.843   8.707  -1.736  1.00  0.00     0.014 A 
ATOM     13  C   UNL     1       0.214   7.766  -0.873  1.00  0.00    -0.051 A 
ATOM     14  C   UNL     1      -1.142   8.074  -0.711  1.00  0.00     0.004 A 
ATOM     15  C   UNL     1       0.998   7.156   0.251  1.00  0.00     0.044 C 
ENDBRANCH   1   9
BRANCH   6  16
ATOM     16  C   UNL     1      -4.069  11.050  -5.818  1.00  0.00     0.153 C 
BRANCH  16  17
ATOM     17  C   UNL     1      -5.413  11.269  -6.456  1.00  0.00    -0.029 A 
ATOM     18  C   UNL     1      -6.578  10.630  -6.021  1.00  0.00     0.006 A 
ATOM     19  C   UNL     1      -5.520  12.317  -7.385  1.00  0.00     0.006 A 
ATOM     20  C   UNL     1      -7.826  11.053  -6.492  1.00  0.00     0.004 A 
ATOM     21  C   UNL     1      -6.761  12.740  -7.848  1.00  0.00     0.004 A 
ATOM     22  C   UNL     1      -7.927  12.118  -7.398  1.00  0.00    -0.051 A 
ATOM     23  C   UNL     1      -9.264  12.669  -7.795  1.00  0.00     0.044 C 
ENDBRANCH  16  17
ENDBRANCH   6  16
TORSDOF 3
ENDMDL
MODEL 4
REMARK VINA RESULT:    -6.033      0.517      8.086
REMARK INTER + INTRA:          -7.561
REMARK INTER:                  -7.194
REMARK INTRA:                  -0.367
REMARK UNBOUND:                -0.470
REMARK SMILES Cc1ccc(CNC(=O)NC(=O)c2ccc(C)cc2)cc1
REMARK SMILES IDX 11 1 12 2 10 3 8 4 9 5 7 6 13 9 19 10 18 11 14 12 16 13
REMARK SMILES IDX 15 14 17 15 6 16 5 17 4 18 20 19 3 20 21 21 2 22 1 23
REMARK H PARENT 10 7 7 8
ROOT
ATOM      1  C   UNL     1      -1.531  10.021  -3.943  1.00  0.00     0.259 C 
ATOM      2  O   UNL     1      -0.824  10.724  -3.235  1.00  0.00    -0.269 OA
ATOM      3  N   UNL     1      -2.641  10.387  -4.710  1.00  0.00    -0.274 N 
ATOM      4  C   UNL     1      -3.217  11.543  -5.171  1.00  0.00     0.321 C 
ATOM      5  O   UNL     1      -4.158  11.438  -5.965  1.00  0.00    -0.248 OA
ATOM      6  N   UNL     1      -2.794  12.774  -4.828  1.00  0.00    -0.334 N 
ATOM      7  H   UNL     1      -3.081   9.619  -5.200  1.00  0.00     0.175 HD
ATOM      8  H   UNL     1      -3.268  13.518  -5.319  1.00  0.00     0.165 HD
ENDROOT
BRANCH   1   9
ATOM      9  C   UNL     1      -1.178   8.590  -4.015  1.00  0.00     0.040 A 
ATOM     10  C   UNL     1      -1.846   7.636  -3.245  1.00  0.00     0.014 A 
ATOM     11  C   UNL     1      -1.513   6.288  -3.386  1.00  0.00     0.004 A 
ATOM     12  C   UNL     1      -0.144   8.210  -4.876  1.00  0.00     0.014 A 
ATOM     13  C   UNL     1      -0.512   5.892  -4.286  1.00  0.00    -0.051 A 
ATOM     14  C   UNL     1       0.181   6.863  -5.019  1.00  0.00     0.004 A 
ATOM     15  C   UNL     1      -0.225   4.433  -4.488  1.00  0.00     0.044 C 
ENDBRANCH   1   9
BRANCH   6  16
ATOM     16  C   UNL     1      -1.665  13.115  -4.009  1.00  0.00     0.153 C 
BRANCH  16  17
ATOM     17  C   UNL     1      -1.144  14.522  -4.105  1.00  0.00    -0.029 A 
ATOM     18  C   UNL     1       0.190  14.824  -4.400  1.00  0.00     0.006 A 
ATOM     19  C   UNL     1      -2.090  15.560  -4.104  1.00  0.00     0.006 A 
ATOM     20  C   UNL     1       0.558  16.137  -4.712  1.00  0.00     0.004 A 
ATOM     21  C   UNL     1      -1.723  16.865  -4.419  1.00  0.00     0.004 A 
ATOM     22  C   UNL     1      -0.397  17.163  -4.736  1.00  0.00    -0.051 A 
ATOM     23  C   UNL     1      -0.038  18.540  -5.207  1.00  0.00     0.044 C 
ENDBRANCH  16  17
ENDBRANCH   6  16
TORSDOF 3
ENDMDL
MODEL 5
REMARK VINA RESULT:    -5.721      1.006      1.318
REMARK INTER + INTRA:          -7.195
REMARK INTER:                  -6.742
REMARK INTRA:                  -0.452
REMARK UNBOUND:                -0.470
REMARK SMILES Cc1ccc(CNC(=O)NC(=O)c2ccc(C)cc2)cc1
REMARK SMILES IDX 11 1 12 2 10 3 8 4 9 5 7 6 13 9 19 10 18 11 14 12 16 13
REMARK SMILES IDX 15 14 17 15 6 16 5 17 4 18 20 19 3 20 21 21 2 22 1 23
REMARK H PARENT 10 7 7 8
ROOT
ATOM      1  C   UNL     1      -1.274  13.010  -4.042  1.00  0.00     0.259 C 
ATOM      2  O   UNL     1      -0.580  12.424  -3.223  1.00  0.00    -0.269 OA
ATOM      3  N   UNL     1      -2.293  12.497  -4.852  1.00  0.00    -0.274 N 
ATOM      4  C   UNL     1      -3.054  11.359  -4.925  1.00  0.00     0.321 C 
ATOM      5  O   UNL     1      -3.982  11.340  -5.740  1.00  0.00    -0.248 OA
ATOM      6  N   UNL     1      -2.860  10.283  -4.139  1.00  0.00    -0.334 N 
ATOM      7  H   UNL     1      -2.714  13.176  -5.473  1.00  0.00     0.175 HD
ATOM      8  H   UNL     1      -3.557   9.562  -4.257  1.00  0.00     0.165 HD
ENDROOT
BRANCH   1   9
ATOM      9  C   UNL     1      -1.022  14.454  -4.211  1.00  0.00     0.040 A 
ATOM     10  C   UNL     1       0.260  14.944  -4.466  1.00  0.00     0.014 A 
ATOM     11  C   UNL     1       0.442  16.312  -4.670  1.00  0.00     0.004 A 
ATOM     12  C   UNL     1      -2.108  15.328  -4.100  1.00  0.00     0.014 A 
ATOM     13  C   UNL     1      -0.650  17.191  -4.613  1.00  0.00    -0.051 A 
ATOM     14  C   UNL     1      -1.923  16.693  -4.311  1.00  0.00     0.004 A 
ATOM     15  C   UNL     1      -0.453  18.647  -4.918  1.00  0.00     0.044 C 
ENDBRANCH   1   9
BRANCH   6  16
ATOM     16  C   UNL     1      -1.914  10.139  -3.069  1.00  0.00     0.153 C 
BRANCH  16  17
ATOM     17  C   UNL     1      -1.142   8.851  -2.999  1.00  0.00    -0.029 A 
ATOM     18  C   UNL     1       0.218   8.792  -2.679  1.00  0.00     0.006 A 
ATOM     19  C   UNL     1      -1.878   7.656  -3.053  1.00  0.00     0.006 A 
ATOM     20  C   UNL     1       0.819   7.561  -2.395  1.00  0.00     0.004 A 
ATOM     21  C   UNL     1      -1.281   6.433  -2.766  1.00  0.00     0.004 A 
ATOM     22  C   UNL     1       0.071   6.376  -2.424  1.00  0.00    -0.051 A 
ATOM     23  C   UNL     1       0.671   5.074  -1.984  1.00  0.00     0.044 C 
ENDBRANCH  16  17
ENDBRANCH   6  16
TORSDOF 3
ENDMDL
MODEL 6
REMARK VINA RESULT:    -5.710      2.998      5.196
REMARK INTER + INTRA:          -7.182
REMARK INTER:                  -6.732
REMARK INTRA:                  -0.450
REMARK UNBOUND:                -0.470
REMARK SMILES Cc1ccc(CNC(=O)NC(=O)c2ccc(C)cc2)cc1
REMARK SMILES IDX 11 1 12 2 10 3 8 4 9 5 7 6 13 9 19 10 18 11 14 12 16 13
REMARK SMILES IDX 15 14 17 15 6 16 5 17 4 18 20 19 3 20 21 21 2 22 1 23
REMARK H PARENT 10 7 7 8
ROOT
ATOM      1  C   UNL     1      -4.251  10.779  -5.638  1.00  0.00     0.259 C 
ATOM      2  O   UNL     1      -4.032   9.576  -5.653  1.00  0.00    -0.269 OA
ATOM      3  N   UNL     1      -3.489  11.800  -5.061  1.00  0.00    -0.274 N 
ATOM      4  C   UNL     1      -2.226  11.958  -4.553  1.00  0.00     0.321 C 
ATOM      5  O   UNL     1      -1.870  13.101  -4.246  1.00  0.00    -0.248 OA
ATOM      6  N   UNL     1      -1.352  10.945  -4.402  1.00  0.00    -0.334 N 
ATOM      7  H   UNL     1      -3.888  12.725  -5.161  1.00  0.00     0.175 HD
ATOM      8  H   UNL     1      -0.436  11.240  -4.096  1.00  0.00     0.165 HD
ENDROOT
BRANCH   1   9
ATOM      9  C   UNL     1      -5.477  11.236  -6.320  1.00  0.00     0.040 A 
ATOM     10  C   UNL     1      -6.723  10.675  -6.032  1.00  0.00     0.014 A 
ATOM     11  C   UNL     1      -7.861  11.176  -6.664  1.00  0.00     0.004 A 
ATOM     12  C   UNL     1      -5.358  12.249  -7.277  1.00  0.00     0.014 A 
ATOM     13  C   UNL     1      -7.759  12.228  -7.587  1.00  0.00    -0.051 A 
ATOM     14  C   UNL     1      -6.499  12.751  -7.901  1.00  0.00     0.004 A 
ATOM     15  C   UNL     1      -9.001  12.812  -8.194  1.00  0.00     0.044 C 
ENDBRANCH   1   9
BRANCH   6  16
ATOM     16  C   UNL     1      -1.526   9.574  -4.789  1.00  0.00     0.153 C 
BRANCH  16  17
ATOM     17  C   UNL     1      -1.089   8.520  -3.810  1.00  0.00    -0.029 A 
ATOM     18  C   UNL     1      -1.800   7.335  -3.595  1.00  0.00     0.006 A 
ATOM     19  C   UNL     1       0.194   8.651  -3.253  1.00  0.00     0.006 A 
ATOM     20  C   UNL     1      -1.223   6.295  -2.859  1.00  0.00     0.004 A 
ATOM     21  C   UNL     1       0.769   7.614  -2.525  1.00  0.00     0.004 A 
ATOM     22  C   UNL     1       0.069   6.423  -2.330  1.00  0.00    -0.051 A 
ATOM     23  C   UNL     1       0.749   5.264  -1.664  1.00  0.00     0.044 C 
ENDBRANCH  16  17
ENDBRANCH   6  16
TORSDOF 3
ENDMDL
MODEL 7
REMARK VINA RESULT:    -4.555      7.799     11.357
REMARK INTER + INTRA:          -5.823
REMARK INTER:                  -5.266
REMARK INTRA:                  -0.558
REMARK UNBOUND:                -0.470
REMARK SMILES Cc1ccc(CNC(=O)NC(=O)c2ccc(C)cc2)cc1
REMARK SMILES IDX 11 1 12 2 10 3 8 4 9 5 7 6 13 9 19 10 18 11 14 12 16 13
REMARK SMILES IDX 15 14 17 15 6 16 5 17 4 18 20 19 3 20 21 21 2 22 1 23
REMARK H PARENT 10 7 7 8
ROOT
ATOM      1  C   UNL     1      -8.707  13.160  -8.105  1.00  0.00     0.259 C 
ATOM      2  O   UNL     1      -8.941  14.288  -7.696  1.00  0.00    -0.269 OA
ATOM      3  N   UNL     1      -9.354  12.443  -9.116  1.00  0.00    -0.274 N 
ATOM      4  C   UNL     1     -10.233  12.700 -10.136  1.00  0.00     0.321 C 
ATOM      5  O   UNL     1     -10.475  11.784 -10.930  1.00  0.00    -0.248 OA
ATOM      6  N   UNL     1     -10.817  13.897 -10.332  1.00  0.00    -0.334 N 
ATOM      7  H   UNL     1      -8.993  11.510  -9.262  1.00  0.00     0.175 HD
ATOM      8  H   UNL     1     -11.370  13.946 -11.176  1.00  0.00     0.165 HD
ENDROOT
BRANCH   1   9
ATOM      9  C   UNL     1      -7.590  12.442  -7.460  1.00  0.00     0.040 A 
ATOM     10  C   UNL     1      -7.818  11.396  -6.564  1.00  0.00     0.014 A 
ATOM     11  C   UNL     1      -6.730  10.713  -6.020  1.00  0.00     0.004 A 
ATOM     12  C   UNL     1      -6.286  12.846  -7.765  1.00  0.00     0.014 A 
ATOM     13  C   UNL     1      -5.418  11.076  -6.360  1.00  0.00    -0.051 A 
ATOM     14  C   UNL     1      -5.203  12.157  -7.224  1.00  0.00     0.004 A 
ATOM     15  C   UNL     1      -4.262  10.278  -5.834  1.00  0.00     0.044 C 
ENDBRANCH   1   9
BRANCH   6  16
ATOM     16  C   UNL     1     -10.596  15.110  -9.597  1.00  0.00     0.153 C 
BRANCH  16  17
ATOM     17  C   UNL     1      -9.914  16.239 -10.318  1.00  0.00    -0.029 A 
ATOM     18  C   UNL     1      -8.868  16.980  -9.758  1.00  0.00     0.006 A 
ATOM     19  C   UNL     1     -10.208  16.403 -11.681  1.00  0.00     0.006 A 
ATOM     20  C   UNL     1      -8.119  17.849 -10.559  1.00  0.00     0.004 A 
ATOM     21  C   UNL     1      -9.459  17.264 -12.477  1.00  0.00     0.004 A 
ATOM     22  C   UNL     1      -8.400  17.987 -11.925  1.00  0.00    -0.051 A 
ATOM     23  C   UNL     1      -7.515  18.804 -12.817  1.00  0.00     0.044 C 
ENDBRANCH  16  17
ENDBRANCH   6  16
TORSDOF 3
ENDMDL
MODEL 8
REMARK VINA RESULT:    -3.991      3.915      8.356
REMARK INTER + INTRA:          -5.160
REMARK INTER:                  -4.815
REMARK INTRA:                  -0.345
REMARK UNBOUND:                -0.470
REMARK SMILES Cc1ccc(CNC(=O)NC(=O)c2ccc(C)cc2)cc1
REMARK SMILES IDX 11 1 12 2 10 3 8 4 9 5 7 6 13 9 19 10 18 11 14 12 16 13
REMARK SMILES IDX 15 14 17 15 6 16 5 17 4 18 20 19 3 20 21 21 2 22 1 23
REMARK H PARENT 10 7 7 8
ROOT
ATOM      1  C   UNL     1      -3.541  11.501  -5.218  1.00  0.00     0.259 C 
ATOM      2  O   UNL     1      -3.189  12.658  -5.401  1.00  0.00    -0.269 OA
ATOM      3  N   UNL     1      -4.739  10.882  -5.588  1.00  0.00    -0.274 N 
ATOM      4  C   UNL     1      -5.801  11.144  -6.415  1.00  0.00     0.321 C 
ATOM      5  O   UNL     1      -6.637  10.247  -6.576  1.00  0.00    -0.248 OA
ATOM      6  N   UNL     1      -5.961  12.304  -7.077  1.00  0.00    -0.334 N 
ATOM      7  H   UNL     1      -4.813   9.914  -5.306  1.00  0.00     0.175 HD
ATOM      8  H   UNL     1      -6.747  12.306  -7.711  1.00  0.00     0.165 HD
ENDROOT
BRANCH   1   9
ATOM      9  C   UNL     1      -2.584  10.622  -4.518  1.00  0.00     0.040 A 
ATOM     10  C   UNL     1      -2.606  10.482  -3.130  1.00  0.00     0.014 A 
ATOM     11  C   UNL     1      -1.716   9.599  -2.518  1.00  0.00     0.004 A 
ATOM     12  C   UNL     1      -1.643   9.932  -5.288  1.00  0.00     0.014 A 
ATOM     13  C   UNL     1      -0.802   8.863  -3.286  1.00  0.00    -0.051 A 
ATOM     14  C   UNL     1      -0.760   9.047  -4.673  1.00  0.00     0.004 A 
ATOM     15  C   UNL     1       0.090   7.855  -2.622  1.00  0.00     0.044 C 
ENDBRANCH   1   9
BRANCH   6  16
ATOM     16  C   UNL     1      -5.063  13.424  -7.112  1.00  0.00     0.153 C 
BRANCH  16  17
ATOM     17  C   UNL     1      -5.560  14.687  -7.759  1.00  0.00    -0.029 A 
ATOM     18  C   UNL     1      -5.242  15.964  -7.285  1.00  0.00     0.006 A 
ATOM     19  C   UNL     1      -6.190  14.565  -9.008  1.00  0.00     0.006 A 
ATOM     20  C   UNL     1      -5.530  17.091  -8.062  1.00  0.00     0.004 A 
ATOM     21  C   UNL     1      -6.471  15.686  -9.782  1.00  0.00     0.004 A 
ATOM     22  C   UNL     1      -6.134  16.959  -9.320  1.00  0.00    -0.051 A 
ATOM     23  C   UNL     1      -6.316  18.147 -10.217  1.00  0.00     0.044 C 
ENDBRANCH  16  17
ENDBRANCH   6  16
TORSDOF 3
ENDMDL
MODEL 9
REMARK VINA RESULT:    -3.822      4.733      5.855
REMARK INTER + INTRA:          -4.962
REMARK INTER:                  -4.595
REMARK INTRA:                  -0.367
REMARK UNBOUND:                -0.470
REMARK SMILES Cc1ccc(CNC(=O)NC(=O)c2ccc(C)cc2)cc1
REMARK SMILES IDX 11 1 12 2 10 3 8 4 9 5 7 6 13 9 19 10 18 11 14 12 16 13
REMARK SMILES IDX 15 14 17 15 6 16 5 17 4 18 20 19 3 20 21 21 2 22 1 23
REMARK H PARENT 10 7 7 8
ROOT
ATOM      1  C   UNL     1      -5.812  13.277  -7.696  1.00  0.00     0.259 C 
ATOM      2  O   UNL     1      -4.621  13.475  -7.506  1.00  0.00    -0.269 OA
ATOM      3  N   UNL     1      -6.591  12.181  -7.311  1.00  0.00    -0.274 N 
ATOM      4  C   UNL     1      -6.484  11.112  -6.459  1.00  0.00     0.321 C 
ATOM      5  O   UNL     1      -7.486  10.409  -6.293  1.00  0.00    -0.248 OA
ATOM      6  N   UNL     1      -5.362  10.812  -5.778  1.00  0.00    -0.334 N 
ATOM      7  H   UNL     1      -7.557  12.233  -7.603  1.00  0.00     0.175 HD
ATOM      8  H   UNL     1      -5.472  10.047  -5.129  1.00  0.00     0.165 HD
ENDROOT
BRANCH   1   9
ATOM      9  C   UNL     1      -6.547  14.328  -8.427  1.00  0.00     0.040 A 
ATOM     10  C   UNL     1      -5.900  15.465  -8.914  1.00  0.00     0.014 A 
ATOM     11  C   UNL     1      -6.627  16.405  -9.644  1.00  0.00     0.004 A 
ATOM     12  C   UNL     1      -7.923  14.158  -8.614  1.00  0.00     0.014 A 
ATOM     13  C   UNL     1      -7.997  16.219  -9.882  1.00  0.00    -0.051 A 
ATOM     14  C   UNL     1      -8.643  15.097  -9.350  1.00  0.00     0.004 A 
ATOM     15  C   UNL     1      -8.745  17.195 -10.741  1.00  0.00     0.044 C 
ENDBRANCH   1   9
BRANCH   6  16
ATOM     16  C   UNL     1      -4.132  11.552  -5.748  1.00  0.00     0.153 C 
BRANCH  16  17
ATOM     17  C   UNL     1      -2.994  10.967  -4.957  1.00  0.00    -0.029 A 
ATOM     18  C   UNL     1      -2.979  10.923  -3.559  1.00  0.00     0.006 A 
ATOM     19  C   UNL     1      -2.016  10.253  -5.669  1.00  0.00     0.006 A 
ATOM     20  C   UNL     1      -2.017  10.157  -2.893  1.00  0.00     0.004 A 
ATOM     21  C   UNL     1      -1.062   9.488  -5.005  1.00  0.00     0.004 A 
ATOM     22  C   UNL     1      -1.061   9.425  -3.611  1.00  0.00    -0.051 A 
ATOM     23  C   UNL     1      -0.118   8.492  -2.912  1.00  0.00     0.044 C 
ENDBRANCH  16  17
ENDBRANCH   6  16
TORSDOF 3
ENDMDL
