MODEL 1
REMARK VINA RESULT:    -4.057      0.000      0.000
REMARK INTER + INTRA:          -5.606
REMARK INTER:                  -5.361
REMARK INTRA:                  -0.245
REMARK UNBOUND:                -0.245
REMARK SMILES [H]/N=C\C[C@H]1C[C@@H]1O[C@H]1CO[C@H]2C[C@@H](C3CC3)CCN2C1
REMARK SMILES IDX 7 1 6 2 5 3 8 4 9 5 14 6 13 7 18 8 12 9 19 10 20 11 11 12
REMARK SMILES IDX 21 13 10 14 15 15 16 16 17 17 4 18 3 19 2 20 1 21
REMARK H PARENT
ROOT
ATOM      1  C   UNL     1      -4.915  10.970  -5.520  1.00  0.00     0.122 C 
ATOM      2  C   UNL     1      -5.300  11.612  -6.823  1.00  0.00     0.039 C 
ATOM      3  C   UNL     1      -6.150  10.515  -6.248  1.00  0.00     0.026 C 
ENDROOT
BRANCH   1   4
ATOM      4  O   UNL     1      -3.762  10.111  -5.606  1.00  0.00    -0.371 OA
BRANCH   4   5
ATOM      5  C   UNL     1      -2.496  10.781  -5.713  1.00  0.00     0.158 C 
ATOM      6  C   UNL     1       0.210   7.894  -2.315  1.00  0.00    -0.003 C 
ATOM      7  C   UNL     1      -0.898   8.950  -2.221  1.00  0.00     0.052 C 
ATOM      8  C   UNL     1       0.040   7.094  -3.614  1.00  0.00     0.019 C 
ATOM      9  C   UNL     1      -0.968   9.817  -3.486  1.00  0.00     0.189 C 
ATOM     10  C   UNL     1      -0.057   8.016  -4.829  1.00  0.00     0.087 C 
ATOM     11  N   UNL     1      -1.147   8.979  -4.671  1.00  0.00    -0.276 NA
ATOM     12  O   UNL     1      -2.057  10.724  -3.300  1.00  0.00    -0.360 OA
ATOM     13  C   UNL     1      -1.308   9.814  -5.866  1.00  0.00     0.121 C 
ATOM     14  C   UNL     1      -2.270  11.581  -4.426  1.00  0.00     0.195 C 
BRANCH   6  15
ATOM     15  C   UNL     1       0.199   6.971  -1.118  1.00  0.00    -0.008 C 
ATOM     16  C   UNL     1       1.475   6.687  -0.361  1.00  0.00     0.004 C 
ATOM     17  C   UNL     1       0.395   7.511   0.278  1.00  0.00     0.004 C 
ENDBRANCH   6  15
ENDBRANCH   4   5
ENDBRANCH   1   4
BRANCH   3  18
ATOM     18  C   UNL     1      -7.510  10.855  -5.714  1.00  0.00     0.053 C 
BRANCH  18  19
ATOM     19  C   UNL     1      -8.423  11.606  -6.647  1.00  0.00     0.074 C 
BRANCH  19  20
ATOM     20  N   UNL     1      -8.939  11.144  -7.737  1.00  0.00    -0.313 NA
ATOM     21  H   UNL     1      -9.730  10.514  -7.545  1.00  0.00     0.186 HD
ENDBRANCH  19  20
ENDBRANCH  18  19
ENDBRANCH   3  18
TORSDOF 6
ENDMDL
MODEL 2
REMARK VINA RESULT:    -3.996      3.051      4.583
REMARK INTER + INTRA:          -5.526
REMARK INTER:                  -5.702
REMARK INTRA:                   0.176
REMARK UNBOUND:                -0.245
REMARK SMILES [H]/N=C\C[C@H]1C[C@@H]1O[C@H]1CO[C@H]2C[C@@H](C3CC3)CCN2C1
REMARK SMILES IDX 7 1 6 2 5 3 8 4 9 5 14 6 13 7 18 8 12 9 19 10 20 11 11 12
REMARK SMILES IDX 21 13 10 14 15 15 16 16 17 17 4 18 3 19 2 20 1 21
REMARK H PARENT
ROOT
ATOM      1  C   UNL     1      -1.054  13.808  -3.367  1.00  0.00     0.122 C 
ATOM      2  C   UNL     1      -0.059  14.606  -4.162  1.00  0.00     0.039 C 
ATOM      3  C   UNL     1      -1.530  14.826  -4.367  1.00  0.00     0.026 C 
ENDROOT
BRANCH   1   4
ATOM      4  O   UNL     1      -1.145  12.425  -3.761  1.00  0.00    -0.371 OA
BRANCH   4   5
ATOM      5  C   UNL     1      -2.455  11.841  -3.670  1.00  0.00     0.158 C 
ATOM      6  C   UNL     1      -1.051   6.829  -3.325  1.00  0.00    -0.003 C 
ATOM      7  C   UNL     1      -1.065   7.892  -4.430  1.00  0.00     0.052 C 
ATOM      8  C   UNL     1      -0.792   7.506  -1.972  1.00  0.00     0.019 C 
ATOM      9  C   UNL     1      -2.035   9.037  -4.108  1.00  0.00     0.189 C 
ATOM     10  C   UNL     1      -1.767   8.657  -1.728  1.00  0.00     0.087 C 
ATOM     11  N   UNL     1      -1.706   9.635  -2.814  1.00  0.00    -0.276 NA
ATOM     12  O   UNL     1      -1.925   9.978  -5.177  1.00  0.00    -0.360 OA
ATOM     13  C   UNL     1      -2.573  10.790  -2.552  1.00  0.00     0.121 C 
ATOM     14  C   UNL     1      -2.753  11.132  -4.995  1.00  0.00     0.195 C 
BRANCH   6  15
ATOM     15  C   UNL     1      -0.013   5.763  -3.593  1.00  0.00    -0.008 C 
ATOM     16  C   UNL     1      -0.390   4.301  -3.551  1.00  0.00     0.004 C 
ATOM     17  C   UNL     1      -0.051   4.947  -4.862  1.00  0.00     0.004 C 
ENDBRANCH   6  15
ENDBRANCH   4   5
ENDBRANCH   1   4
BRANCH   3  18
ATOM     18  C   UNL     1      -2.145  16.112  -3.902  1.00  0.00     0.053 C 
BRANCH  18  19
ATOM     19  C   UNL     1      -3.275  16.651  -4.739  1.00  0.00     0.074 C 
BRANCH  19  20
ATOM     20  N   UNL     1      -4.535  16.473  -4.517  1.00  0.00    -0.313 NA
ATOM     21  H   UNL     1      -4.841  15.530  -4.798  1.00  0.00     0.186 HD
ENDBRANCH  19  20
ENDBRANCH  18  19
ENDBRANCH   3  18
TORSDOF 6
ENDMDL
MODEL 3
REMARK VINA RESULT:    -3.850      4.092      7.037
REMARK INTER + INTRA:          -5.334
REMARK INTER:                  -4.908
REMARK INTRA:                  -0.426
REMARK UNBOUND:                -0.245
REMARK SMILES [H]/N=C\C[C@H]1C[C@@H]1O[C@H]1CO[C@H]2C[C@@H](C3CC3)CCN2C1
REMARK SMILES IDX 7 1 6 2 5 3 8 4 9 5 14 6 13 7 18 8 12 9 19 10 20 11 11 12
REMARK SMILES IDX 21 13 10 14 15 15 16 16 17 17 4 18 3 19 2 20 1 21
REMARK H PARENT
ROOT
ATOM      1  C   UNL     1      -7.830  16.464  -7.577  1.00  0.00     0.122 C 
ATOM      2  C   UNL     1      -8.357  17.457  -6.579  1.00  0.00     0.039 C 
ATOM      3  C   UNL     1      -6.890  17.137  -6.615  1.00  0.00     0.026 C 
ENDROOT
BRANCH   1   4
ATOM      4  O   UNL     1      -8.181  15.097  -7.286  1.00  0.00    -0.371 OA
BRANCH   4   5
ATOM      5  C   UNL     1      -8.000  14.168  -8.367  1.00  0.00     0.158 C 
ATOM      6  C   UNL     1      -4.659  10.906  -6.045  1.00  0.00    -0.003 C 
ATOM      7  C   UNL     1      -4.591  12.331  -6.606  1.00  0.00     0.052 C 
ATOM      8  C   UNL     1      -6.066  10.646  -5.490  1.00  0.00     0.019 C 
ATOM      9  C   UNL     1      -5.719  12.602  -7.611  1.00  0.00     0.189 C 
ATOM     10  C   UNL     1      -7.143  10.967  -6.526  1.00  0.00     0.087 C 
ATOM     11  N   UNL     1      -7.022  12.347  -6.996  1.00  0.00    -0.276 NA
ATOM     12  O   UNL     1      -5.579  13.963  -8.025  1.00  0.00    -0.360 OA
ATOM     13  C   UNL     1      -8.101  12.697  -7.926  1.00  0.00     0.121 C 
ATOM     14  C   UNL     1      -6.596  14.376  -8.944  1.00  0.00     0.195 C 
BRANCH   6  15
ATOM     15  C   UNL     1      -3.616  10.681  -4.973  1.00  0.00    -0.008 C 
ATOM     16  C   UNL     1      -2.200  10.314  -5.350  1.00  0.00     0.004 C 
ATOM     17  C   UNL     1      -2.491  11.667  -4.770  1.00  0.00     0.004 C 
ENDBRANCH   6  15
ENDBRANCH   4   5
ENDBRANCH   1   4
BRANCH   3  18
ATOM     18  C   UNL     1      -5.930  18.181  -7.102  1.00  0.00     0.053 C 
BRANCH  18  19
ATOM     19  C   UNL     1      -4.546  17.701  -7.454  1.00  0.00     0.074 C 
BRANCH  19  20
ATOM     20  N   UNL     1      -4.221  16.491  -7.769  1.00  0.00    -0.313 NA
ATOM     21  H   UNL     1      -3.260  16.267  -7.474  1.00  0.00     0.186 HD
ENDBRANCH  19  20
ENDBRANCH  18  19
ENDBRANCH   3  18
TORSDOF 6
ENDMDL
MODEL 4
REMARK VINA RESULT:    -3.732      5.526      6.967
REMARK INTER + INTRA:          -5.178
REMARK INTER:                  -4.701
REMARK INTRA:                  -0.477
REMARK UNBOUND:                -0.245
REMARK SMILES [H]/N=C\C[C@H]1C[C@@H]1O[C@H]1CO[C@H]2C[C@@H](C3CC3)CCN2C1
REMARK SMILES IDX 7 1 6 2 5 3 8 4 9 5 14 6 13 7 18 8 12 9 19 10 20 11 11 12
REMARK SMILES IDX 21 13 10 14 15 15 16 16 17 17 4 18 3 19 2 20 1 21
REMARK H PARENT
ROOT
ATOM      1  C   UNL     1      -3.699  18.732  -7.248  1.00  0.00     0.122 C 
ATOM      2  C   UNL     1      -3.713  18.804  -8.749  1.00  0.00     0.039 C 
ATOM      3  C   UNL     1      -4.487  17.727  -8.044  1.00  0.00     0.026 C 
ENDROOT
BRANCH   1   4
ATOM      4  O   UNL     1      -2.449  18.279  -6.694  1.00  0.00    -0.371 OA
BRANCH   4   5
ATOM      5  C   UNL     1      -2.303  18.448  -5.275  1.00  0.00     0.158 C 
ATOM      6  C   UNL     1      -1.306  13.490  -3.997  1.00  0.00    -0.003 C 
ATOM      7  C   UNL     1      -2.537  14.278  -4.461  1.00  0.00     0.052 C 
ATOM      8  C   UNL     1      -0.046  14.098  -4.630  1.00  0.00     0.019 C 
ATOM      9  C   UNL     1      -2.376  15.784  -4.212  1.00  0.00     0.189 C 
ATOM     10  C   UNL     1       0.036  15.603  -4.375  1.00  0.00     0.087 C 
ATOM     11  N   UNL     1      -1.164  16.282  -4.862  1.00  0.00    -0.276 NA
ATOM     12  O   UNL     1      -3.555  16.411  -4.723  1.00  0.00    -0.360 OA
ATOM     13  C   UNL     1      -1.063  17.737  -4.704  1.00  0.00     0.121 C 
ATOM     14  C   UNL     1      -3.532  17.836  -4.594  1.00  0.00     0.195 C 
BRANCH   6  15
ATOM     15  C   UNL     1      -1.421  12.024  -4.348  1.00  0.00    -0.008 C 
ATOM     16  C   UNL     1      -1.828  11.017  -3.298  1.00  0.00     0.004 C 
ATOM     17  C   UNL     1      -2.770  11.349  -4.419  1.00  0.00     0.004 C 
ENDBRANCH   6  15
ENDBRANCH   4   5
ENDBRANCH   1   4
BRANCH   3  18
ATOM     18  C   UNL     1      -5.985  17.781  -8.057  1.00  0.00     0.053 C 
BRANCH  18  19
ATOM     19  C   UNL     1      -6.694  16.828  -7.131  1.00  0.00     0.074 C 
BRANCH  19  20
ATOM     20  N   UNL     1      -6.252  16.409  -5.992  1.00  0.00    -0.313 NA
ATOM     21  H   UNL     1      -5.432  15.796  -6.105  1.00  0.00     0.186 HD
ENDBRANCH  19  20
ENDBRANCH  18  19
ENDBRANCH   3  18
TORSDOF 6
ENDMDL
MODEL 5
REMARK VINA RESULT:    -3.702      3.597      5.045
REMARK INTER + INTRA:          -5.138
REMARK INTER:                  -4.919
REMARK INTRA:                  -0.218
REMARK UNBOUND:                -0.245
REMARK SMILES [H]/N=C\C[C@H]1C[C@@H]1O[C@H]1CO[C@H]2C[C@@H](C3CC3)CCN2C1
REMARK SMILES IDX 7 1 6 2 5 3 8 4 9 5 14 6 13 7 18 8 12 9 19 10 20 11 11 12
REMARK SMILES IDX 21 13 10 14 15 15 16 16 17 17 4 18 3 19 2 20 1 21
REMARK H PARENT
ROOT
ATOM      1  C   UNL     1      -8.628  11.675  -5.772  1.00  0.00     0.122 C 
ATOM      2  C   UNL     1      -9.648  11.532  -4.678  1.00  0.00     0.039 C 
ATOM      3  C   UNL     1      -9.157  12.896  -5.069  1.00  0.00     0.026 C 
ENDROOT
BRANCH   1   4
ATOM      4  O   UNL     1      -7.305  11.241  -5.402  1.00  0.00    -0.371 OA
BRANCH   4   5
ATOM      5  C   UNL     1      -6.470  10.807  -6.487  1.00  0.00     0.158 C 
ATOM      6  C   UNL     1      -1.846  12.212  -4.524  1.00  0.00    -0.003 C 
ATOM      7  C   UNL     1      -3.062  12.945  -5.104  1.00  0.00     0.052 C 
ATOM      8  C   UNL     1      -2.316  10.936  -3.812  1.00  0.00     0.019 C 
ATOM      9  C   UNL     1      -3.921  12.021  -5.977  1.00  0.00     0.189 C 
ATOM     10  C   UNL     1      -3.194  10.078  -4.722  1.00  0.00     0.087 C 
ATOM     11  N   UNL     1      -4.338  10.843  -5.217  1.00  0.00    -0.276 NA
ATOM     12  O   UNL     1      -5.037  12.798  -6.418  1.00  0.00    -0.360 OA
ATOM     13  C   UNL     1      -5.238  10.010  -6.023  1.00  0.00     0.121 C 
ATOM     14  C   UNL     1      -5.957  12.051  -7.220  1.00  0.00     0.195 C 
BRANCH   6  15
ATOM     15  C   UNL     1      -1.067  13.094  -3.575  1.00  0.00    -0.008 C 
ATOM     16  C   UNL     1       0.050  13.971  -4.091  1.00  0.00     0.004 C 
ATOM     17  C   UNL     1      -1.227  14.595  -3.606  1.00  0.00     0.004 C 
ENDBRANCH   6  15
ENDBRANCH   4   5
ENDBRANCH   1   4
BRANCH   3  18
ATOM     18  C   UNL     1     -10.092  13.830  -5.778  1.00  0.00     0.053 C 
BRANCH  18  19
ATOM     19  C   UNL     1      -9.681  15.279  -5.820  1.00  0.00     0.074 C 
BRANCH  19  20
ATOM     20  N   UNL     1      -8.541  15.754  -5.445  1.00  0.00    -0.313 NA
ATOM     21  H   UNL     1      -8.324  15.498  -4.471  1.00  0.00     0.186 HD
ENDBRANCH  19  20
ENDBRANCH  18  19
ENDBRANCH   3  18
TORSDOF 6
ENDMDL
MODEL 6
REMARK VINA RESULT:    -3.641      4.887      7.250
REMARK INTER + INTRA:          -5.057
REMARK INTER:                  -4.857
REMARK INTRA:                  -0.200
REMARK UNBOUND:                -0.245
REMARK SMILES [H]/N=C\C[C@H]1C[C@@H]1O[C@H]1CO[C@H]2C[C@@H](C3CC3)CCN2C1
REMARK SMILES IDX 7 1 6 2 5 3 8 4 9 5 14 6 13 7 18 8 12 9 19 10 20 11 11 12
REMARK SMILES IDX 21 13 10 14 15 15 16 16 17 17 4 18 3 19 2 20 1 21
REMARK H PARENT
ROOT
ATOM      1  C   UNL     1       0.851  16.578  -5.843  1.00  0.00     0.122 C 
ATOM      2  C   UNL     1       1.935  16.591  -6.883  1.00  0.00     0.039 C 
ATOM      3  C   UNL     1       0.533  16.978  -7.258  1.00  0.00     0.026 C 
ENDROOT
BRANCH   1   4
ATOM      4  O   UNL     1       0.440  15.258  -5.439  1.00  0.00    -0.371 OA
BRANCH   4   5
ATOM      5  C   UNL     1      -0.127  15.162  -4.122  1.00  0.00     0.158 C 
ATOM      6  C   UNL     1      -3.425  11.212  -4.979  1.00  0.00    -0.003 C 
ATOM      7  C   UNL     1      -3.356  12.692  -5.377  1.00  0.00     0.052 C 
ATOM      8  C   UNL     1      -2.001  10.649  -4.872  1.00  0.00     0.019 C 
ATOM      9  C   UNL     1      -2.437  13.491  -4.443  1.00  0.00     0.189 C 
ATOM     10  C   UNL     1      -1.128  11.508  -3.957  1.00  0.00     0.087 C 
ATOM     11  N   UNL     1      -1.100  12.898  -4.413  1.00  0.00    -0.276 NA
ATOM     12  O   UNL     1      -2.418  14.831  -4.938  1.00  0.00    -0.360 OA
ATOM     13  C   UNL     1      -0.198  13.717  -3.596  1.00  0.00     0.121 C 
ATOM     14  C   UNL     1      -1.563  15.695  -4.182  1.00  0.00     0.195 C 
BRANCH   6  15
ATOM     15  C   UNL     1      -4.240  10.409  -5.968  1.00  0.00    -0.008 C 
ATOM     16  C   UNL     1      -5.731  10.258  -5.784  1.00  0.00     0.004 C 
ATOM     17  C   UNL     1      -5.199  11.090  -6.914  1.00  0.00     0.004 C 
ENDBRANCH   6  15
ENDBRANCH   4   5
ENDBRANCH   1   4
BRANCH   3  18
ATOM     18  C   UNL     1       0.239  18.411  -7.590  1.00  0.00     0.053 C 
BRANCH  18  19
ATOM     19  C   UNL     1      -1.100  18.687  -8.222  1.00  0.00     0.074 C 
BRANCH  19  20
ATOM     20  N   UNL     1      -1.943  17.797  -8.630  1.00  0.00    -0.313 NA
ATOM     21  H   UNL     1      -1.465  16.955  -8.982  1.00  0.00     0.186 HD
ENDBRANCH  19  20
ENDBRANCH  18  19
ENDBRANCH   3  18
TORSDOF 6
ENDMDL
MODEL 7
REMARK VINA RESULT:    -3.596      5.481      8.496
REMARK INTER + INTRA:          -4.997
REMARK INTER:                  -4.296
REMARK INTRA:                  -0.701
REMARK UNBOUND:                -0.245
REMARK SMILES [H]/N=C\C[C@H]1C[C@@H]1O[C@H]1CO[C@H]2C[C@@H](C3CC3)CCN2C1
REMARK SMILES IDX 7 1 6 2 5 3 8 4 9 5 14 6 13 7 18 8 12 9 19 10 20 11 11 12
REMARK SMILES IDX 21 13 10 14 15 15 16 16 17 17 4 18 3 19 2 20 1 21
REMARK H PARENT
ROOT
ATOM      1  C   UNL     1      -8.300  17.267  -7.771  1.00  0.00     0.122 C 
ATOM      2  C   UNL     1      -8.291  18.410  -6.795  1.00  0.00     0.039 C 
ATOM      3  C   UNL     1      -7.190  17.389  -6.763  1.00  0.00     0.026 C 
ENDROOT
BRANCH   1   4
ATOM      4  O   UNL     1      -9.309  16.274  -7.502  1.00  0.00    -0.371 OA
BRANCH   4   5
ATOM      5  C   UNL     1      -9.579  15.359  -8.577  1.00  0.00     0.158 C 
ATOM      6  C   UNL     1      -7.068  11.189  -6.703  1.00  0.00    -0.003 C 
ATOM      7  C   UNL     1      -6.658  12.541  -7.301  1.00  0.00     0.052 C 
ATOM      8  C   UNL     1      -8.389  11.352  -5.939  1.00  0.00     0.019 C 
ATOM      9  C   UNL     1      -7.789  13.162  -8.132  1.00  0.00     0.189 C 
ATOM     10  C   UNL     1      -9.461  12.006  -6.810  1.00  0.00     0.087 C 
ATOM     11  N   UNL     1      -9.002  13.296  -7.325  1.00  0.00    -0.276 NA
ATOM     12  O   UNL     1      -7.310  14.427  -8.594  1.00  0.00    -0.360 OA
ATOM     13  C   UNL     1     -10.051  13.977  -8.092  1.00  0.00     0.121 C 
ATOM     14  C   UNL     1      -8.279  15.148  -9.360  1.00  0.00     0.195 C 
BRANCH   6  15
ATOM     15  C   UNL     1      -5.994  10.637  -5.794  1.00  0.00    -0.008 C 
ATOM     16  C   UNL     1      -5.105   9.508  -6.260  1.00  0.00     0.004 C 
ATOM     17  C   UNL     1      -4.533  10.884  -6.083  1.00  0.00     0.004 C 
ENDBRANCH   6  15
ENDBRANCH   4   5
ENDBRANCH   1   4
BRANCH   3  18
ATOM     18  C   UNL     1      -5.813  17.790  -7.200  1.00  0.00     0.053 C 
BRANCH  18  19
ATOM     19  C   UNL     1      -4.767  16.707  -7.183  1.00  0.00     0.074 C 
BRANCH  19  20
ATOM     20  N   UNL     1      -4.763  15.646  -7.919  1.00  0.00    -0.313 NA
ATOM     21  H   UNL     1      -4.040  15.694  -8.651  1.00  0.00     0.186 HD
ENDBRANCH  19  20
ENDBRANCH  18  19
ENDBRANCH   3  18
TORSDOF 6
ENDMDL
MODEL 8
REMARK VINA RESULT:    -3.438      2.653      8.354
REMARK INTER + INTRA:          -4.790
REMARK INTER:                  -4.984
REMARK INTRA:                   0.195
REMARK UNBOUND:                -0.245
REMARK SMILES [H]/N=C\C[C@H]1C[C@@H]1O[C@H]1CO[C@H]2C[C@@H](C3CC3)CCN2C1
REMARK SMILES IDX 7 1 6 2 5 3 8 4 9 5 14 6 13 7 18 8 12 9 19 10 20 11 11 12
REMARK SMILES IDX 21 13 10 14 15 15 16 16 17 17 4 18 3 19 2 20 1 21
REMARK H PARENT
ROOT
ATOM      1  C   UNL     1      -2.654  10.779  -4.433  1.00  0.00     0.122 C 
ATOM      2  C   UNL     1      -1.951  11.760  -3.538  1.00  0.00     0.039 C 
ATOM      3  C   UNL     1      -2.747  10.637  -2.938  1.00  0.00     0.026 C 
ENDROOT
BRANCH   1   4
ATOM      4  O   UNL     1      -3.809  11.319  -5.103  1.00  0.00    -0.371 OA
BRANCH   4   5
ATOM      5  C   UNL     1      -4.167  10.675  -6.337  1.00  0.00     0.158 C 
ATOM      6  C   UNL     1      -8.889  12.792  -6.984  1.00  0.00    -0.003 C 
ATOM      7  C   UNL     1      -8.273  11.747  -6.046  1.00  0.00     0.052 C 
ATOM      8  C   UNL     1      -7.827  13.841  -7.342  1.00  0.00     0.019 C 
ATOM      9  C   UNL     1      -6.980  11.155  -6.623  1.00  0.00     0.189 C 
ATOM     10  C   UNL     1      -6.554  13.186  -7.878  1.00  0.00     0.087 C 
ATOM     11  N   UNL     1      -6.020  12.219  -6.919  1.00  0.00    -0.276 NA
ATOM     12  O   UNL     1      -6.480  10.238  -5.648  1.00  0.00    -0.360 OA
ATOM     13  C   UNL     1      -4.751  11.645  -7.380  1.00  0.00     0.121 C 
ATOM     14  C   UNL     1      -5.244   9.629  -6.033  1.00  0.00     0.195 C 
BRANCH   6  15
ATOM     15  C   UNL     1     -10.098  13.453  -6.361  1.00  0.00    -0.008 C 
ATOM     16  C   UNL     1     -11.224  12.615  -5.804  1.00  0.00     0.004 C 
ATOM     17  C   UNL     1     -10.335  13.386  -4.872  1.00  0.00     0.004 C 
ENDBRANCH   6  15
ENDBRANCH   4   5
ENDBRANCH   1   4
BRANCH   3  18
ATOM     18  C   UNL     1      -2.023   9.526  -2.238  1.00  0.00     0.053 C 
BRANCH  18  19
ATOM     19  C   UNL     1      -2.468   9.224  -0.831  1.00  0.00     0.074 C 
BRANCH  19  20
ATOM     20  N   UNL     1      -3.172  10.000  -0.076  1.00  0.00    -0.313 NA
ATOM     21  H   UNL     1      -2.578  10.633   0.478  1.00  0.00     0.186 HD
ENDBRANCH  19  20
ENDBRANCH  18  19
ENDBRANCH   3  18
TORSDOF 6
ENDMDL
