MODEL 1
REMARK VINA RESULT:    -6.062      0.000      0.000
REMARK INTER + INTRA:          -7.514
REMARK INTER:                  -7.125
REMARK INTRA:                  -0.389
REMARK UNBOUND:                -0.389
REMARK SMILES Cc1ccc(CNC(=O)NC(=O)c2ccc(C)cc2)cc1
REMARK SMILES IDX 11 1 12 2 10 3 8 4 9 5 7 6 13 9 19 10 18 11 14 12 16 13
REMARK SMILES IDX 15 14 17 15 6 16 5 17 4 18 20 19 3 20 21 21 2 22 1 23
REMARK H PARENT 10 7 7 8
ROOT
ATOM      1  C   UNL     1      -8.011   6.062   0.267  1.00  0.00     0.259 C 
ATOM      2  O   UNL     1      -8.851   5.239  -0.070  1.00  0.00    -0.269 OA
ATOM      3  N   UNL     1      -8.166   7.435   0.479  1.00  0.00    -0.274 N 
ATOM      4  C   UNL     1      -9.197   8.326   0.640  1.00  0.00     0.321 C 
ATOM      5  O   UNL     1      -8.908   9.486   0.952  1.00  0.00    -0.248 OA
ATOM      6  N   UNL     1     -10.494   7.994   0.506  1.00  0.00    -0.334 N 
ATOM      7  H   UNL     1      -7.314   7.917   0.735  1.00  0.00     0.175 HD
ATOM      8  H   UNL     1     -11.131   8.742   0.742  1.00  0.00     0.165 HD
ENDROOT
BRANCH   1   9
ATOM      9  C   UNL     1      -6.643   5.555   0.491  1.00  0.00     0.040 A 
ATOM     10  C   UNL     1      -5.645   5.701  -0.474  1.00  0.00     0.014 A 
ATOM     11  C   UNL     1      -4.354   5.253  -0.195  1.00  0.00     0.004 A 
ATOM     12  C   UNL     1      -6.371   4.913   1.703  1.00  0.00     0.014 A 
ATOM     13  C   UNL     1      -4.058   4.654   1.038  1.00  0.00    -0.051 A 
ATOM     14  C   UNL     1      -5.078   4.472   1.980  1.00  0.00     0.004 A 
ATOM     15  C   UNL     1      -2.647   4.255   1.355  1.00  0.00     0.044 C 
ENDBRANCH   1   9
BRANCH   6  16
ATOM     16  C   UNL     1     -11.044   6.692   0.253  1.00  0.00     0.153 C 
BRANCH  16  17
ATOM     17  C   UNL     1     -12.446   6.431   0.729  1.00  0.00    -0.029 A 
ATOM     18  C   UNL     1     -12.775   5.388   1.601  1.00  0.00     0.006 A 
ATOM     19  C   UNL     1     -13.414   7.408   0.444  1.00  0.00     0.006 A 
ATOM     20  C   UNL     1     -14.042   5.343   2.193  1.00  0.00     0.004 A 
ATOM     21  C   UNL     1     -14.672   7.365   1.038  1.00  0.00     0.004 A 
ATOM     22  C   UNL     1     -14.993   6.337   1.926  1.00  0.00    -0.051 A 
ATOM     23  C   UNL     1     -16.298   6.375   2.664  1.00  0.00     0.044 C 
ENDBRANCH  16  17
ENDBRANCH   6  16
TORSDOF 3
ENDMDL
MODEL 2
REMARK VINA RESULT:    -6.052      3.231      5.494
REMARK INTER + INTRA:          -7.503
REMARK INTER:                  -7.123
REMARK INTRA:                  -0.380
REMARK UNBOUND:                -0.389
REMARK SMILES Cc1ccc(CNC(=O)NC(=O)c2ccc(C)cc2)cc1
REMARK SMILES IDX 11 1 12 2 10 3 8 4 9 5 7 6 13 9 19 10 18 11 14 12 16 13
REMARK SMILES IDX 15 14 17 15 6 16 5 17 4 18 20 19 3 20 21 21 2 22 1 23
REMARK H PARENT 10 7 7 8
ROOT
ATOM      1  C   UNL     1      -7.803   6.332   0.037  1.00  0.00     0.259 C 
ATOM      2  O   UNL     1      -6.993   7.194   0.345  1.00  0.00    -0.269 OA
ATOM      3  N   UNL     1      -9.191   6.333   0.206  1.00  0.00    -0.274 N 
ATOM      4  C   UNL     1     -10.175   7.242   0.503  1.00  0.00     0.321 C 
ATOM      5  O   UNL     1     -11.348   6.862   0.426  1.00  0.00    -0.248 OA
ATOM      6  N   UNL     1      -9.928   8.521   0.841  1.00  0.00    -0.334 N 
ATOM      7  H   UNL     1      -9.651   5.490  -0.110  1.00  0.00     0.175 HD
ATOM      8  H   UNL     1     -10.762   9.082   0.945  1.00  0.00     0.165 HD
ENDROOT
BRANCH   1   9
ATOM      9  C   UNL     1      -7.263   5.118  -0.607  1.00  0.00     0.040 A 
ATOM     10  C   UNL     1      -7.135   3.918   0.095  1.00  0.00     0.014 A 
ATOM     11  C   UNL     1      -6.669   2.784  -0.571  1.00  0.00     0.004 A 
ATOM     12  C   UNL     1      -6.873   5.204  -1.947  1.00  0.00     0.014 A 
ATOM     13  C   UNL     1      -6.323   2.846  -1.929  1.00  0.00    -0.051 A 
ATOM     14  C   UNL     1      -6.414   4.067  -2.609  1.00  0.00     0.004 A 
ATOM     15  C   UNL     1      -5.904   1.599  -2.651  1.00  0.00     0.044 C 
ENDBRANCH   1   9
BRANCH   6  16
ATOM     16  C   UNL     1      -8.657   9.186   0.888  1.00  0.00     0.153 C 
BRANCH  16  17
ATOM     17  C   UNL     1      -8.657  10.685   0.770  1.00  0.00    -0.029 A 
ATOM     18  C   UNL     1      -7.876  11.378  -0.161  1.00  0.00     0.006 A 
ATOM     19  C   UNL     1      -9.641  11.386   1.487  1.00  0.00     0.006 A 
ATOM     20  C   UNL     1      -8.098  12.741  -0.384  1.00  0.00     0.004 A 
ATOM     21  C   UNL     1      -9.863  12.740   1.260  1.00  0.00     0.004 A 
ATOM     22  C   UNL     1      -9.100  13.428   0.315  1.00  0.00    -0.051 A 
ATOM     23  C   UNL     1      -9.439  14.850  -0.020  1.00  0.00     0.044 C 
ENDBRANCH  16  17
ENDBRANCH   6  16
TORSDOF 3
ENDMDL
MODEL 3
REMARK VINA RESULT:    -6.040      0.556      7.990
REMARK INTER + INTRA:          -7.489
REMARK INTER:                  -6.998
REMARK INTRA:                  -0.491
REMARK UNBOUND:                -0.389
REMARK SMILES Cc1ccc(CNC(=O)NC(=O)c2ccc(C)cc2)cc1
REMARK SMILES IDX 11 1 12 2 10 3 8 4 9 5 7 6 13 9 19 10 18 11 14 12 16 13
REMARK SMILES IDX 15 14 17 15 6 16 5 17 4 18 20 19 3 20 21 21 2 22 1 23
REMARK H PARENT 10 7 7 8
ROOT
ATOM      1  C   UNL     1     -10.798   6.418   0.705  1.00  0.00     0.259 C 
ATOM      2  O   UNL     1     -10.258   5.349   0.458  1.00  0.00    -0.269 OA
ATOM      3  N   UNL     1     -10.230   7.695   0.756  1.00  0.00    -0.274 N 
ATOM      4  C   UNL     1      -9.063   8.301   0.368  1.00  0.00     0.321 C 
ATOM      5  O   UNL     1      -8.992   9.530   0.475  1.00  0.00    -0.248 OA
ATOM      6  N   UNL     1      -8.013   7.634  -0.147  1.00  0.00    -0.334 N 
ATOM      7  H   UNL     1     -10.878   8.430   1.005  1.00  0.00     0.175 HD
ATOM      8  H   UNL     1      -7.265   8.234  -0.463  1.00  0.00     0.165 HD
ENDROOT
BRANCH   1   9
ATOM      9  C   UNL     1     -12.246   6.376   0.986  1.00  0.00     0.040 A 
ATOM     10  C   UNL     1     -12.816   5.333   1.717  1.00  0.00     0.014 A 
ATOM     11  C   UNL     1     -14.182   5.364   2.002  1.00  0.00     0.004 A 
ATOM     12  C   UNL     1     -13.041   7.415   0.490  1.00  0.00     0.014 A 
ATOM     13  C   UNL     1     -14.979   6.428   1.554  1.00  0.00    -0.051 A 
ATOM     14  C   UNL     1     -14.403   7.445   0.783  1.00  0.00     0.004 A 
ATOM     15  C   UNL     1     -16.427   6.491   1.941  1.00  0.00     0.044 C 
ENDBRANCH   1   9
BRANCH   6  16
ATOM     16  C   UNL     1      -7.929   6.233  -0.449  1.00  0.00     0.153 C 
BRANCH  16  17
ATOM     17  C   UNL     1      -6.657   5.522  -0.077  1.00  0.00    -0.029 A 
ATOM     18  C   UNL     1      -5.525   5.503  -0.897  1.00  0.00     0.006 A 
ATOM     19  C   UNL     1      -6.549   5.044   1.239  1.00  0.00     0.006 A 
ATOM     20  C   UNL     1      -4.305   5.036  -0.396  1.00  0.00     0.004 A 
ATOM     21  C   UNL     1      -5.335   4.585   1.738  1.00  0.00     0.004 A 
ATOM     22  C   UNL     1      -4.198   4.587   0.927  1.00  0.00    -0.051 A 
ATOM     23  C   UNL     1      -2.868   4.221   1.514  1.00  0.00     0.044 C 
ENDBRANCH  16  17
ENDBRANCH   6  16
TORSDOF 3
ENDMDL
MODEL 4
REMARK VINA RESULT:    -6.037      3.125      7.314
REMARK INTER + INTRA:          -7.485
REMARK INTER:                  -6.990
REMARK INTRA:                  -0.495
REMARK UNBOUND:                -0.389
REMARK SMILES Cc1ccc(CNC(=O)NC(=O)c2ccc(C)cc2)cc1
REMARK SMILES IDX 11 1 12 2 10 3 8 4 9 5 7 6 13 9 19 10 18 11 14 12 16 13
REMARK SMILES IDX 15 14 17 15 6 16 5 17 4 18 20 19 3 20 21 21 2 22 1 23
REMARK H PARENT 10 7 7 8
ROOT
ATOM      1  C   UNL     1      -8.482   9.063   0.404  1.00  0.00     0.259 C 
ATOM      2  O   UNL     1      -7.344   8.630   0.288  1.00  0.00    -0.269 OA
ATOM      3  N   UNL     1      -9.684   8.353   0.488  1.00  0.00    -0.274 N 
ATOM      4  C   UNL     1     -10.084   7.060   0.708  1.00  0.00     0.321 C 
ATOM      5  O   UNL     1     -11.294   6.850   0.846  1.00  0.00    -0.248 OA
ATOM      6  N   UNL     1      -9.231   6.024   0.809  1.00  0.00    -0.334 N 
ATOM      7  H   UNL     1     -10.508   8.936   0.559  1.00  0.00     0.175 HD
ATOM      8  H   UNL     1      -9.677   5.153   1.057  1.00  0.00     0.165 HD
ENDROOT
BRANCH   1   9
ATOM      9  C   UNL     1      -8.627  10.530   0.471  1.00  0.00     0.040 A 
ATOM     10  C   UNL     1      -7.847  11.375  -0.320  1.00  0.00     0.014 A 
ATOM     11  C   UNL     1      -8.057  12.753  -0.261  1.00  0.00     0.004 A 
ATOM     12  C   UNL     1      -9.568  11.057   1.360  1.00  0.00     0.014 A 
ATOM     13  C   UNL     1      -9.035  13.289   0.590  1.00  0.00    -0.051 A 
ATOM     14  C   UNL     1      -9.779  12.433   1.412  1.00  0.00     0.004 A 
ATOM     15  C   UNL     1      -9.306  14.764   0.580  1.00  0.00     0.044 C 
ENDBRANCH   1   9
BRANCH   6  16
ATOM     16  C   UNL     1      -7.796   6.065   0.783  1.00  0.00     0.153 C 
BRANCH  16  17
ATOM     17  C   UNL     1      -7.090   5.020  -0.035  1.00  0.00    -0.029 A 
ATOM     18  C   UNL     1      -6.762   3.754   0.462  1.00  0.00     0.006 A 
ATOM     19  C   UNL     1      -6.953   5.265  -1.411  1.00  0.00     0.006 A 
ATOM     20  C   UNL     1      -6.329   2.750  -0.411  1.00  0.00     0.004 A 
ATOM     21  C   UNL     1      -6.526   4.265  -2.279  1.00  0.00     0.004 A 
ATOM     22  C   UNL     1      -6.220   2.995  -1.787  1.00  0.00    -0.051 A 
ATOM     23  C   UNL     1      -5.895   1.887  -2.744  1.00  0.00     0.044 C 
ENDBRANCH  16  17
ENDBRANCH   6  16
TORSDOF 3
ENDMDL
MODEL 5
REMARK VINA RESULT:    -5.825      3.079      7.740
REMARK INTER + INTRA:          -7.235
REMARK INTER:                  -6.778
REMARK INTRA:                  -0.458
REMARK UNBOUND:                -0.389
REMARK SMILES Cc1ccc(CNC(=O)NC(=O)c2ccc(C)cc2)cc1
REMARK SMILES IDX 11 1 12 2 10 3 8 4 9 5 7 6 13 9 19 10 18 11 14 12 16 13
REMARK SMILES IDX 15 14 17 15 6 16 5 17 4 18 20 19 3 20 21 21 2 22 1 23
REMARK H PARENT 10 7 7 8
ROOT
ATOM      1  C   UNL     1      -8.290   9.114   0.454  1.00  0.00     0.259 C 
ATOM      2  O   UNL     1      -7.127   8.763   0.589  1.00  0.00    -0.269 OA
ATOM      3  N   UNL     1      -9.426   8.323   0.255  1.00  0.00    -0.274 N 
ATOM      4  C   UNL     1      -9.769   6.999   0.358  1.00  0.00     0.321 C 
ATOM      5  O   UNL     1     -10.961   6.704   0.219  1.00  0.00    -0.248 OA
ATOM      6  N   UNL     1      -8.887   6.021   0.632  1.00  0.00    -0.334 N 
ATOM      7  H   UNL     1     -10.285   8.846   0.148  1.00  0.00     0.175 HD
ATOM      8  H   UNL     1      -9.312   5.114   0.760  1.00  0.00     0.165 HD
ENDROOT
BRANCH   1   9
ATOM      9  C   UNL     1      -8.553  10.565   0.510  1.00  0.00     0.040 A 
ATOM     10  C   UNL     1      -7.837  11.466  -0.280  1.00  0.00     0.014 A 
ATOM     11  C   UNL     1      -8.157  12.823  -0.232  1.00  0.00     0.004 A 
ATOM     12  C   UNL     1      -9.542  11.020   1.388  1.00  0.00     0.014 A 
ATOM     13  C   UNL     1      -9.183  13.283   0.608  1.00  0.00    -0.051 A 
ATOM     14  C   UNL     1      -9.863  12.376   1.429  1.00  0.00     0.004 A 
ATOM     15  C   UNL     1      -9.572  14.732   0.586  1.00  0.00     0.044 C 
ENDBRANCH   1   9
BRANCH   6  16
ATOM     16  C   UNL     1      -7.489   6.160   0.930  1.00  0.00     0.153 C 
BRANCH  16  17
ATOM     17  C   UNL     1      -6.540   5.219   0.240  1.00  0.00    -0.029 A 
ATOM     18  C   UNL     1      -5.293   5.617  -0.253  1.00  0.00     0.006 A 
ATOM     19  C   UNL     1      -6.844   3.849   0.289  1.00  0.00     0.006 A 
ATOM     20  C   UNL     1      -4.363   4.656  -0.663  1.00  0.00     0.004 A 
ATOM     21  C   UNL     1      -5.916   2.894  -0.115  1.00  0.00     0.004 A 
ATOM     22  C   UNL     1      -4.663   3.289  -0.585  1.00  0.00    -0.051 A 
ATOM     23  C   UNL     1      -3.623   2.253  -0.887  1.00  0.00     0.044 C 
ENDBRANCH  16  17
ENDBRANCH   6  16
TORSDOF 3
ENDMDL
MODEL 6
REMARK VINA RESULT:    -5.396      3.183      5.019
REMARK INTER + INTRA:          -6.731
REMARK INTER:                  -6.231
REMARK INTRA:                  -0.499
REMARK UNBOUND:                -0.389
REMARK SMILES Cc1ccc(CNC(=O)NC(=O)c2ccc(C)cc2)cc1
REMARK SMILES IDX 11 1 12 2 10 3 8 4 9 5 7 6 13 9 19 10 18 11 14 12 16 13
REMARK SMILES IDX 15 14 17 15 6 16 5 17 4 18 20 19 3 20 21 21 2 22 1 23
REMARK H PARENT 10 7 7 8
ROOT
ATOM      1  C   UNL     1      -7.366   6.104   0.538  1.00  0.00     0.259 C 
ATOM      2  O   UNL     1      -6.974   6.919   1.361  1.00  0.00    -0.269 OA
ATOM      3  N   UNL     1      -8.628   5.997  -0.055  1.00  0.00    -0.274 N 
ATOM      4  C   UNL     1      -9.757   6.766  -0.182  1.00  0.00     0.321 C 
ATOM      5  O   UNL     1     -10.651   6.353  -0.928  1.00  0.00    -0.248 OA
ATOM      6  N   UNL     1      -9.923   7.951   0.434  1.00  0.00    -0.334 N 
ATOM      7  H   UNL     1      -8.723   5.222  -0.697  1.00  0.00     0.175 HD
ATOM      8  H   UNL     1     -10.771   8.432   0.170  1.00  0.00     0.165 HD
ENDROOT
BRANCH   1   9
ATOM      9  C   UNL     1      -6.389   5.092   0.093  1.00  0.00     0.040 A 
ATOM     10  C   UNL     1      -5.115   5.454  -0.348  1.00  0.00     0.014 A 
ATOM     11  C   UNL     1      -4.208   4.457  -0.709  1.00  0.00     0.004 A 
ATOM     12  C   UNL     1      -6.778   3.749   0.118  1.00  0.00     0.014 A 
ATOM     13  C   UNL     1      -4.571   3.104  -0.638  1.00  0.00    -0.051 A 
ATOM     14  C   UNL     1      -5.867   2.756  -0.237  1.00  0.00     0.004 A 
ATOM     15  C   UNL     1      -3.557   2.042  -0.948  1.00  0.00     0.044 C 
ENDBRANCH   1   9
BRANCH   6  16
ATOM     16  C   UNL     1      -8.975   8.654   1.252  1.00  0.00     0.153 C 
BRANCH  16  17
ATOM     17  C   UNL     1      -8.746  10.108   0.948  1.00  0.00    -0.029 A 
ATOM     18  C   UNL     1      -7.834  10.553  -0.015  1.00  0.00     0.006 A 
ATOM     19  C   UNL     1      -9.642  11.032   1.512  1.00  0.00     0.006 A 
ATOM     20  C   UNL     1      -7.841  11.892  -0.419  1.00  0.00     0.004 A 
ATOM     21  C   UNL     1      -9.650  12.362   1.105  1.00  0.00     0.004 A 
ATOM     22  C   UNL     1      -8.756  12.802   0.128  1.00  0.00    -0.051 A 
ATOM     23  C   UNL     1      -8.864  14.200  -0.402  1.00  0.00     0.044 C 
ENDBRANCH  16  17
ENDBRANCH   6  16
TORSDOF 3
ENDMDL
MODEL 7
REMARK VINA RESULT:    -4.663      1.908      8.182
REMARK INTER + INTRA:          -5.869
REMARK INTER:                  -5.461
REMARK INTRA:                  -0.408
REMARK UNBOUND:                -0.389
REMARK SMILES Cc1ccc(CNC(=O)NC(=O)c2ccc(C)cc2)cc1
REMARK SMILES IDX 11 1 12 2 10 3 8 4 9 5 7 6 13 9 19 10 18 11 14 12 16 13
REMARK SMILES IDX 15 14 17 15 6 16 5 17 4 18 20 19 3 20 21 21 2 22 1 23
REMARK H PARENT 10 7 7 8
ROOT
ATOM      1  C   UNL     1     -10.082   6.295   0.252  1.00  0.00     0.259 C 
ATOM      2  O   UNL     1      -9.289   6.025   1.143  1.00  0.00    -0.269 OA
ATOM      3  N   UNL     1      -9.825   6.575  -1.093  1.00  0.00    -0.274 N 
ATOM      4  C   UNL     1      -8.780   6.451  -1.973  1.00  0.00     0.321 C 
ATOM      5  O   UNL     1      -9.000   6.700  -3.163  1.00  0.00    -0.248 OA
ATOM      6  N   UNL     1      -7.548   6.046  -1.612  1.00  0.00    -0.334 N 
ATOM      7  H   UNL     1     -10.649   6.793  -1.639  1.00  0.00     0.175 HD
ATOM      8  H   UNL     1      -6.917   5.924  -2.391  1.00  0.00     0.165 HD
ENDROOT
BRANCH   1   9
ATOM      9  C   UNL     1     -11.509   6.328   0.627  1.00  0.00     0.040 A 
ATOM     10  C   UNL     1     -12.087   5.310   1.386  1.00  0.00     0.014 A 
ATOM     11  C   UNL     1     -13.427   5.412   1.760  1.00  0.00     0.004 A 
ATOM     12  C   UNL     1     -12.277   7.413   0.191  1.00  0.00     0.014 A 
ATOM     13  C   UNL     1     -14.192   6.521   1.372  1.00  0.00    -0.051 A 
ATOM     14  C   UNL     1     -13.613   7.514   0.572  1.00  0.00     0.004 A 
ATOM     15  C   UNL     1     -15.607   6.658   1.853  1.00  0.00     0.044 C 
ENDBRANCH   1   9
BRANCH   6  16
ATOM     16  C   UNL     1      -7.114   5.612  -0.315  1.00  0.00     0.153 C 
BRANCH  16  17
ATOM     17  C   UNL     1      -6.095   4.507  -0.262  1.00  0.00    -0.029 A 
ATOM     18  C   UNL     1      -6.359   3.204  -0.696  1.00  0.00     0.006 A 
ATOM     19  C   UNL     1      -4.772   4.867   0.041  1.00  0.00     0.006 A 
ATOM     20  C   UNL     1      -5.310   2.291  -0.847  1.00  0.00     0.004 A 
ATOM     21  C   UNL     1      -3.729   3.959  -0.114  1.00  0.00     0.004 A 
ATOM     22  C   UNL     1      -3.988   2.665  -0.569  1.00  0.00    -0.051 A 
ATOM     23  C   UNL     1      -2.845   1.740  -0.864  1.00  0.00     0.044 C 
ENDBRANCH  16  17
ENDBRANCH   6  16
TORSDOF 3
ENDMDL
MODEL 8
REMARK VINA RESULT:    -4.654      3.771      7.932
REMARK INTER + INTRA:          -5.859
REMARK INTER:                  -5.467
REMARK INTRA:                  -0.392
REMARK UNBOUND:                -0.389
REMARK SMILES Cc1ccc(CNC(=O)NC(=O)c2ccc(C)cc2)cc1
REMARK SMILES IDX 11 1 12 2 10 3 8 4 9 5 7 6 13 9 19 10 18 11 14 12 16 13
REMARK SMILES IDX 15 14 17 15 6 16 5 17 4 18 20 19 3 20 21 21 2 22 1 23
REMARK H PARENT 10 7 7 8
ROOT
ATOM      1  C   UNL     1      -8.229   8.165   0.699  1.00  0.00     0.259 C 
ATOM      2  O   UNL     1      -8.101   7.618  -0.387  1.00  0.00    -0.269 OA
ATOM      3  N   UNL     1      -8.103   7.613   1.977  1.00  0.00    -0.274 N 
ATOM      4  C   UNL     1      -7.607   6.465   2.541  1.00  0.00     0.321 C 
ATOM      5  O   UNL     1      -7.557   6.406   3.774  1.00  0.00    -0.248 OA
ATOM      6  N   UNL     1      -7.149   5.422   1.824  1.00  0.00    -0.334 N 
ATOM      7  H   UNL     1      -8.276   8.263   2.732  1.00  0.00     0.175 HD
ATOM      8  H   UNL     1      -6.739   4.690   2.387  1.00  0.00     0.165 HD
ENDROOT
BRANCH   1   9
ATOM      9  C   UNL     1      -8.555   9.604   0.680  1.00  0.00     0.040 A 
ATOM     10  C   UNL     1      -9.640  10.114   1.396  1.00  0.00     0.014 A 
ATOM     11  C   UNL     1      -9.877  11.489   1.390  1.00  0.00     0.004 A 
ATOM     12  C   UNL     1      -7.747  10.451  -0.086  1.00  0.00     0.014 A 
ATOM     13  C   UNL     1      -9.041  12.353   0.666  1.00  0.00    -0.051 A 
ATOM     14  C   UNL     1      -7.984  11.824  -0.084  1.00  0.00     0.004 A 
ATOM     15  C   UNL     1      -9.259  13.836   0.738  1.00  0.00     0.044 C 
ENDBRANCH   1   9
BRANCH   6  16
ATOM     16  C   UNL     1      -7.023   5.328   0.397  1.00  0.00     0.153 C 
BRANCH  16  17
ATOM     17  C   UNL     1      -5.874   4.521  -0.142  1.00  0.00    -0.029 A 
ATOM     18  C   UNL     1      -4.539   4.778   0.186  1.00  0.00     0.006 A 
ATOM     19  C   UNL     1      -6.187   3.338  -0.831  1.00  0.00     0.006 A 
ATOM     20  C   UNL     1      -3.545   3.854  -0.150  1.00  0.00     0.004 A 
ATOM     21  C   UNL     1      -5.198   2.417  -1.160  1.00  0.00     0.004 A 
ATOM     22  C   UNL     1      -3.868   2.662  -0.813  1.00  0.00    -0.051 A 
ATOM     23  C   UNL     1      -2.832   1.604  -1.049  1.00  0.00     0.044 C 
ENDBRANCH  16  17
ENDBRANCH   6  16
TORSDOF 3
ENDMDL
MODEL 9
REMARK VINA RESULT:    -4.558      5.088      9.765
REMARK INTER + INTRA:          -5.747
REMARK INTER:                  -5.169
REMARK INTRA:                  -0.578
REMARK UNBOUND:                -0.389
REMARK SMILES Cc1ccc(CNC(=O)NC(=O)c2ccc(C)cc2)cc1
REMARK SMILES IDX 11 1 12 2 10 3 8 4 9 5 7 6 13 9 19 10 18 11 14 12 16 13
REMARK SMILES IDX 15 14 17 15 6 16 5 17 4 18 20 19 3 20 21 21 2 22 1 23
REMARK H PARENT 10 7 7 8
ROOT
ATOM      1  C   UNL     1     -16.322   9.180   3.852  1.00  0.00     0.259 C 
ATOM      2  O   UNL     1     -16.421   9.067   2.638  1.00  0.00    -0.269 OA
ATOM      3  N   UNL     1     -16.182   8.177   4.816  1.00  0.00    -0.274 N 
ATOM      4  C   UNL     1     -15.878   6.840   4.850  1.00  0.00     0.321 C 
ATOM      5  O   UNL     1     -15.716   6.317   5.958  1.00  0.00    -0.248 OA
ATOM      6  N   UNL     1     -15.720   6.084   3.748  1.00  0.00    -0.334 N 
ATOM      7  H   UNL     1     -16.141   8.516   5.768  1.00  0.00     0.175 HD
ATOM      8  H   UNL     1     -15.414   5.141   3.941  1.00  0.00     0.165 HD
ENDROOT
BRANCH   1   9
ATOM      9  C   UNL     1     -16.346  10.553   4.392  1.00  0.00     0.040 A 
ATOM     10  C   UNL     1     -16.889  10.833   5.647  1.00  0.00     0.014 A 
ATOM     11  C   UNL     1     -16.842  12.138   6.138  1.00  0.00     0.004 A 
ATOM     12  C   UNL     1     -15.811  11.578   3.605  1.00  0.00     0.014 A 
ATOM     13  C   UNL     1     -16.261  13.164   5.377  1.00  0.00    -0.051 A 
ATOM     14  C   UNL     1     -15.760  12.879   4.101  1.00  0.00     0.004 A 
ATOM     15  C   UNL     1     -16.141  14.544   5.954  1.00  0.00     0.044 C 
ENDBRANCH   1   9
BRANCH   6  16
ATOM     16  C   UNL     1     -15.762   6.513   2.378  1.00  0.00     0.153 C 
BRANCH  16  17
ATOM     17  C   UNL     1     -14.484   6.430   1.590  1.00  0.00    -0.029 A 
ATOM     18  C   UNL     1     -14.046   7.447   0.736  1.00  0.00     0.006 A 
ATOM     19  C   UNL     1     -13.607   5.376   1.896  1.00  0.00     0.006 A 
ATOM     20  C   UNL     1     -12.745   7.418   0.222  1.00  0.00     0.004 A 
ATOM     21  C   UNL     1     -12.312   5.351   1.388  1.00  0.00     0.004 A 
ATOM     22  C   UNL     1     -11.866   6.378   0.554  1.00  0.00    -0.051 A 
ATOM     23  C   UNL     1     -10.430   6.414   0.124  1.00  0.00     0.044 C 
ENDBRANCH  16  17
ENDBRANCH   6  16
TORSDOF 3
ENDMDL
