MODEL 1
REMARK VINA RESULT:    -4.039      0.000      0.000
REMARK INTER + INTRA:          -5.558
REMARK INTER:                  -5.338
REMARK INTRA:                  -0.220
REMARK UNBOUND:                -0.220
REMARK SMILES [H]/N=C\C[C@H]1C[C@@H]1O[C@H]1CO[C@H]2C[C@@H](C3CC3)CCN2C1
REMARK SMILES IDX 7 1 6 2 5 3 8 4 9 5 14 6 13 7 18 8 12 9 19 10 20 11 11 12
REMARK SMILES IDX 21 13 10 14 15 15 16 16 17 17 4 18 3 19 2 20 1 21
REMARK H PARENT
ROOT
ATOM      1  C   UNL     1     -11.535   6.259   1.133  1.00  0.00     0.122 C 
ATOM      2  C   UNL     1     -12.754   6.885   0.515  1.00  0.00     0.039 C 
ATOM      3  C   UNL     1     -12.838   5.508   1.109  1.00  0.00     0.026 C 
ENDROOT
BRANCH   1   4
ATOM      4  O   UNL     1     -10.538   5.849   0.178  1.00  0.00    -0.371 OA
BRANCH   4   5
ATOM      5  C   UNL     1      -9.804   6.915  -0.448  1.00  0.00     0.158 C 
ATOM      6  C   UNL     1      -5.015   4.880  -0.098  1.00  0.00    -0.003 C 
ATOM      7  C   UNL     1      -6.023   5.489   0.884  1.00  0.00     0.052 C 
ATOM      8  C   UNL     1      -5.772   4.164  -1.225  1.00  0.00     0.019 C 
ATOM      9  C   UNL     1      -7.056   6.369   0.166  1.00  0.00     0.189 C 
ATOM     10  C   UNL     1      -6.807   5.082  -1.874  1.00  0.00     0.087 C 
ATOM     11  N   UNL     1      -7.741   5.606  -0.877  1.00  0.00    -0.276 NA
ATOM     12  O   UNL     1      -7.960   6.838   1.169  1.00  0.00    -0.360 OA
ATOM     13  C   UNL     1      -8.792   6.420  -1.496  1.00  0.00     0.121 C 
ATOM     14  C   UNL     1      -9.012   7.650   0.638  1.00  0.00     0.195 C 
BRANCH   6  15
ATOM     15  C   UNL     1      -4.071   3.924   0.598  1.00  0.00    -0.008 C 
ATOM     16  C   UNL     1      -2.584   4.002   0.347  1.00  0.00     0.004 C 
ATOM     17  C   UNL     1      -3.139   4.410   1.681  1.00  0.00     0.004 C 
ENDBRANCH   6  15
ENDBRANCH   4   5
ENDBRANCH   1   4
BRANCH   3  18
ATOM     18  C   UNL     1     -13.619   5.310   2.374  1.00  0.00     0.053 C 
BRANCH  18  19
ATOM     19  C   UNL     1     -15.058   5.755   2.346  1.00  0.00     0.074 C 
BRANCH  19  20
ATOM     20  N   UNL     1     -16.061   5.051   1.939  1.00  0.00    -0.313 NA
ATOM     21  H   UNL     1     -16.956   5.437   2.272  1.00  0.00     0.186 HD
ENDBRANCH  19  20
ENDBRANCH  18  19
ENDBRANCH   3  18
TORSDOF 6
ENDMDL
MODEL 2
REMARK VINA RESULT:    -4.035      3.279      5.514
REMARK INTER + INTRA:          -5.552
REMARK INTER:                  -5.319
REMARK INTRA:                  -0.233
REMARK UNBOUND:                -0.220
REMARK SMILES [H]/N=C\C[C@H]1C[C@@H]1O[C@H]1CO[C@H]2C[C@@H](C3CC3)CCN2C1
REMARK SMILES IDX 7 1 6 2 5 3 8 4 9 5 14 6 13 7 18 8 12 9 19 10 20 11 11 12
REMARK SMILES IDX 21 13 10 14 15 15 16 16 17 17 4 18 3 19 2 20 1 21
REMARK H PARENT
ROOT
ATOM      1  C   UNL     1      -8.527   9.936   0.166  1.00  0.00     0.122 C 
ATOM      2  C   UNL     1      -9.035  10.934   1.168  1.00  0.00     0.039 C 
ATOM      3  C   UNL     1      -7.879  11.289   0.278  1.00  0.00     0.026 C 
ENDROOT
BRANCH   1   4
ATOM      4  O   UNL     1      -7.813   8.829   0.750  1.00  0.00    -0.371 OA
BRANCH   4   5
ATOM      5  C   UNL     1      -8.629   7.834   1.390  1.00  0.00     0.158 C 
ATOM      6  C   UNL     1      -6.341   3.574  -0.565  1.00  0.00    -0.003 C 
ATOM      7  C   UNL     1      -7.253   4.679  -1.111  1.00  0.00     0.052 C 
ATOM      8  C   UNL     1      -5.440   4.156   0.533  1.00  0.00     0.019 C 
ATOM      9  C   UNL     1      -8.018   5.394   0.012  1.00  0.00     0.189 C 
ATOM     10  C   UNL     1      -6.258   4.882   1.600  1.00  0.00     0.087 C 
ATOM     11  N   UNL     1      -7.085   5.931   1.002  1.00  0.00    -0.276 NA
ATOM     12  O   UNL     1      -8.790   6.422  -0.611  1.00  0.00    -0.360 OA
ATOM     13  C   UNL     1      -7.810   6.695   2.023  1.00  0.00     0.121 C 
ATOM     14  C   UNL     1      -9.536   7.207   0.326  1.00  0.00     0.195 C 
BRANCH   6  15
ATOM     15  C   UNL     1      -5.507   2.951  -1.662  1.00  0.00    -0.008 C 
ATOM     16  C   UNL     1      -5.357   1.450  -1.749  1.00  0.00     0.004 C 
ATOM     17  C   UNL     1      -6.157   2.182  -2.787  1.00  0.00     0.004 C 
ENDBRANCH   6  15
ENDBRANCH   4   5
ENDBRANCH   1   4
BRANCH   3  18
ATOM     18  C   UNL     1      -8.079  12.314  -0.798  1.00  0.00     0.053 C 
BRANCH  18  19
ATOM     19  C   UNL     1      -8.577  13.663  -0.349  1.00  0.00     0.074 C 
BRANCH  19  20
ATOM     20  N   UNL     1      -7.862  14.592   0.193  1.00  0.00    -0.313 NA
ATOM     21  H   UNL     1      -6.876  14.533  -0.101  1.00  0.00     0.186 HD
ENDBRANCH  19  20
ENDBRANCH  18  19
ENDBRANCH   3  18
TORSDOF 6
ENDMDL
MODEL 3
REMARK VINA RESULT:    -3.996      4.993      7.380
REMARK INTER + INTRA:          -5.501
REMARK INTER:                  -5.201
REMARK INTRA:                  -0.299
REMARK UNBOUND:                -0.220
REMARK SMILES [H]/N=C\C[C@H]1C[C@@H]1O[C@H]1CO[C@H]2C[C@@H](C3CC3)CCN2C1
REMARK SMILES IDX 7 1 6 2 5 3 8 4 9 5 14 6 13 7 18 8 12 9 19 10 20 11 11 12
REMARK SMILES IDX 21 13 10 14 15 15 16 16 17 17 4 18 3 19 2 20 1 21
REMARK H PARENT
ROOT
ATOM      1  C   UNL     1      -8.832  13.560  -1.292  1.00  0.00     0.122 C 
ATOM      2  C   UNL     1      -8.581  14.005  -2.705  1.00  0.00     0.039 C 
ATOM      3  C   UNL     1      -9.989  13.883  -2.198  1.00  0.00     0.026 C 
ENDROOT
BRANCH   1   4
ATOM      4  O   UNL     1      -8.565  12.164  -1.059  1.00  0.00    -0.371 OA
BRANCH   4   5
ATOM      5  C   UNL     1      -8.118  11.832   0.265  1.00  0.00     0.158 C 
ATOM      6  C   UNL     1     -10.357   7.140   0.692  1.00  0.00    -0.003 C 
ATOM      7  C   UNL     1     -10.845   8.594   0.689  1.00  0.00     0.052 C 
ATOM      8  C   UNL     1      -9.126   7.017  -0.217  1.00  0.00     0.019 C 
ATOM      9  C   UNL     1      -9.716   9.575   1.030  1.00  0.00     0.189 C 
ATOM     10  C   UNL     1      -8.055   8.042   0.152  1.00  0.00     0.087 C 
ATOM     11  N   UNL     1      -8.593   9.402   0.108  1.00  0.00    -0.276 NA
ATOM     12  O   UNL     1     -10.276  10.887   0.952  1.00  0.00    -0.360 OA
ATOM     13  C   UNL     1      -7.555  10.403   0.375  1.00  0.00     0.121 C 
ATOM     14  C   UNL     1      -9.321  11.921   1.210  1.00  0.00     0.195 C 
BRANCH   6  15
ATOM     15  C   UNL     1     -11.444   6.189   0.245  1.00  0.00    -0.008 C 
ATOM     16  C   UNL     1     -12.180   5.341   1.255  1.00  0.00     0.004 C 
ATOM     17  C   UNL     1     -12.894   6.466   0.564  1.00  0.00     0.004 C 
ENDBRANCH   6  15
ENDBRANCH   4   5
ENDBRANCH   1   4
BRANCH   3  18
ATOM     18  C   UNL     1     -10.794  15.129  -1.982  1.00  0.00     0.053 C 
BRANCH  18  19
ATOM     19  C   UNL     1     -12.255  14.933  -1.670  1.00  0.00     0.074 C 
BRANCH  19  20
ATOM     20  N   UNL     1     -12.820  13.813  -1.364  1.00  0.00    -0.313 NA
ATOM     21  H   UNL     1     -13.471  13.502  -2.100  1.00  0.00     0.186 HD
ENDBRANCH  19  20
ENDBRANCH  18  19
ENDBRANCH   3  18
TORSDOF 6
ENDMDL
MODEL 4
REMARK VINA RESULT:    -3.994      3.770      5.255
REMARK INTER + INTRA:          -5.499
REMARK INTER:                  -5.259
REMARK INTRA:                  -0.240
REMARK UNBOUND:                -0.220
REMARK SMILES [H]/N=C\C[C@H]1C[C@@H]1O[C@H]1CO[C@H]2C[C@@H](C3CC3)CCN2C1
REMARK SMILES IDX 7 1 6 2 5 3 8 4 9 5 14 6 13 7 18 8 12 9 19 10 20 11 11 12
REMARK SMILES IDX 21 13 10 14 15 15 16 16 17 17 4 18 3 19 2 20 1 21
REMARK H PARENT
ROOT
ATOM      1  C   UNL     1     -14.852   5.851   3.332  1.00  0.00     0.122 C 
ATOM      2  C   UNL     1     -14.950   5.158   4.662  1.00  0.00     0.039 C 
ATOM      3  C   UNL     1     -15.015   6.657   4.592  1.00  0.00     0.026 C 
ENDROOT
BRANCH   1   4
ATOM      4  O   UNL     1     -13.534   5.823   2.751  1.00  0.00    -0.371 OA
BRANCH   4   5
ATOM      5  C   UNL     1     -13.490   5.712   1.319  1.00  0.00     0.158 C 
ATOM      6  C   UNL     1      -9.149   8.470   0.452  1.00  0.00    -0.003 C 
ATOM      7  C   UNL     1     -10.587   8.791   0.876  1.00  0.00     0.052 C 
ATOM      8  C   UNL     1      -8.754   7.091   0.999  1.00  0.00     0.019 C 
ATOM      9  C   UNL     1     -11.558   7.665   0.494  1.00  0.00     0.189 C 
ATOM     10  C   UNL     1      -9.778   6.023   0.613  1.00  0.00     0.087 C 
ATOM     11  N   UNL     1     -11.118   6.394   1.068  1.00  0.00    -0.276 NA
ATOM     12  O   UNL     1     -12.845   8.055   0.977  1.00  0.00    -0.360 OA
ATOM     13  C   UNL     1     -12.097   5.340   0.782  1.00  0.00     0.121 C 
ATOM     14  C   UNL     1     -13.858   7.076   0.724  1.00  0.00     0.195 C 
BRANCH   6  15
ATOM     15  C   UNL     1      -8.180   9.528   0.932  1.00  0.00    -0.008 C 
ATOM     16  C   UNL     1      -7.744  10.639   0.007  1.00  0.00     0.004 C 
ATOM     17  C   UNL     1      -8.640  10.946   1.171  1.00  0.00     0.004 C 
ENDBRANCH   6  15
ENDBRANCH   4   5
ENDBRANCH   1   4
BRANCH   3  18
ATOM     18  C   UNL     1     -16.316   7.342   4.887  1.00  0.00     0.053 C 
BRANCH  18  19
ATOM     19  C   UNL     1     -16.311   8.846   4.801  1.00  0.00     0.074 C 
BRANCH  19  20
ATOM     20  N   UNL     1     -15.307   9.582   4.459  1.00  0.00    -0.313 NA
ATOM     21  H   UNL     1     -15.584  10.317   3.793  1.00  0.00     0.186 HD
ENDBRANCH  19  20
ENDBRANCH  18  19
ENDBRANCH   3  18
TORSDOF 6
ENDMDL
MODEL 5
REMARK VINA RESULT:    -3.866      6.416      7.803
REMARK INTER + INTRA:          -5.328
REMARK INTER:                  -5.054
REMARK INTRA:                  -0.274
REMARK UNBOUND:                -0.220
REMARK SMILES [H]/N=C\C[C@H]1C[C@@H]1O[C@H]1CO[C@H]2C[C@@H](C3CC3)CCN2C1
REMARK SMILES IDX 7 1 6 2 5 3 8 4 9 5 14 6 13 7 18 8 12 9 19 10 20 11 11 12
REMARK SMILES IDX 21 13 10 14 15 15 16 16 17 17 4 18 3 19 2 20 1 21
REMARK H PARENT
ROOT
ATOM      1  C   UNL     1     -12.849  14.837  -0.331  1.00  0.00     0.122 C 
ATOM      2  C   UNL     1     -12.726  15.339  -1.742  1.00  0.00     0.039 C 
ATOM      3  C   UNL     1     -13.960  14.596  -1.316  1.00  0.00     0.026 C 
ENDROOT
BRANCH   1   4
ATOM      4  O   UNL     1     -11.998  13.714  -0.031  1.00  0.00    -0.371 OA
BRANCH   4   5
ATOM      5  C   UNL     1     -11.206  13.837   1.161  1.00  0.00     0.158 C 
ATOM      6  C   UNL     1      -8.537   9.371   0.795  1.00  0.00    -0.003 C 
ATOM      7  C   UNL     1      -9.983   9.762   1.124  1.00  0.00     0.052 C 
ATOM      8  C   UNL     1      -7.955  10.375  -0.209  1.00  0.00     0.019 C 
ATOM      9  C   UNL     1     -10.089  11.227   1.570  1.00  0.00     0.189 C 
ATOM     10  C   UNL     1      -8.123  11.814   0.278  1.00  0.00     0.087 C 
ATOM     11  N   UNL     1      -9.529  12.114   0.551  1.00  0.00    -0.276 NA
ATOM     12  O   UNL     1     -11.476  11.484   1.801  1.00  0.00    -0.360 OA
ATOM     13  C   UNL     1      -9.718  13.516   0.937  1.00  0.00     0.121 C 
ATOM     14  C   UNL     1     -11.737  12.835   2.192  1.00  0.00     0.195 C 
BRANCH   6  15
ATOM     15  C   UNL     1      -8.454   7.964   0.247  1.00  0.00    -0.008 C 
ATOM     16  C   UNL     1      -8.056   6.817   1.145  1.00  0.00     0.004 C 
ATOM     17  C   UNL     1      -9.467   6.918   0.645  1.00  0.00     0.004 C 
ENDBRANCH   6  15
ENDBRANCH   4   5
ENDBRANCH   1   4
BRANCH   3  18
ATOM     18  C   UNL     1     -15.253  15.345  -1.195  1.00  0.00     0.053 C 
BRANCH  18  19
ATOM     19  C   UNL     1     -16.197  15.239  -2.364  1.00  0.00     0.074 C 
BRANCH  19  20
ATOM     20  N   UNL     1     -15.855  15.131  -3.605  1.00  0.00    -0.313 NA
ATOM     21  H   UNL     1     -14.832  15.134  -3.719  1.00  0.00     0.186 HD
ENDBRANCH  19  20
ENDBRANCH  18  19
ENDBRANCH   3  18
TORSDOF 6
ENDMDL
MODEL 6
REMARK VINA RESULT:    -3.717      4.499      7.089
REMARK INTER + INTRA:          -5.132
REMARK INTER:                  -4.935
REMARK INTRA:                  -0.197
REMARK UNBOUND:                -0.220
REMARK SMILES [H]/N=C\C[C@H]1C[C@@H]1O[C@H]1CO[C@H]2C[C@@H](C3CC3)CCN2C1
REMARK SMILES IDX 7 1 6 2 5 3 8 4 9 5 14 6 13 7 18 8 12 9 19 10 20 11 11 12
REMARK SMILES IDX 21 13 10 14 15 15 16 16 17 17 4 18 3 19 2 20 1 21
REMARK H PARENT
ROOT
ATOM      1  C   UNL     1     -16.531   9.979   3.655  1.00  0.00     0.122 C 
ATOM      2  C   UNL     1     -16.520   9.832   5.150  1.00  0.00     0.039 C 
ATOM      3  C   UNL     1     -16.062  11.116   4.520  1.00  0.00     0.026 C 
ENDROOT
BRANCH   1   4
ATOM      4  O   UNL     1     -15.510   9.217   2.983  1.00  0.00    -0.371 OA
BRANCH   4   5
ATOM      5  C   UNL     1     -15.884   8.669   1.708  1.00  0.00     0.158 C 
ATOM      6  C   UNL     1     -11.328   6.474   0.432  1.00  0.00    -0.003 C 
ATOM      7  C   UNL     1     -11.868   7.906   0.528  1.00  0.00     0.052 C 
ATOM      8  C   UNL     1     -12.016   5.600   1.490  1.00  0.00     0.019 C 
ATOM      9  C   UNL     1     -13.402   7.942   0.469  1.00  0.00     0.189 C 
ATOM     10  C   UNL     1     -13.538   5.707   1.399  1.00  0.00     0.087 C 
ATOM     11  N   UNL     1     -13.973   7.098   1.518  1.00  0.00    -0.276 NA
ATOM     12  O   UNL     1     -13.784   9.311   0.613  1.00  0.00    -0.360 OA
ATOM     13  C   UNL     1     -15.436   7.209   1.520  1.00  0.00     0.121 C 
ATOM     14  C   UNL     1     -15.203   9.499   0.615  1.00  0.00     0.195 C 
BRANCH   6  15
ATOM     15  C   UNL     1      -9.827   6.435   0.605  1.00  0.00    -0.008 C 
ATOM     16  C   UNL     1      -8.916   6.503  -0.598  1.00  0.00     0.004 C 
ATOM     17  C   UNL     1      -8.986   7.663   0.353  1.00  0.00     0.004 C 
ENDBRANCH   6  15
ENDBRANCH   4   5
ENDBRANCH   1   4
BRANCH   3  18
ATOM     18  C   UNL     1     -16.907  12.345   4.678  1.00  0.00     0.053 C 
BRANCH  18  19
ATOM     19  C   UNL     1     -16.166  13.641   4.882  1.00  0.00     0.074 C 
BRANCH  19  20
ATOM     20  N   UNL     1     -15.152  13.819   5.662  1.00  0.00    -0.313 NA
ATOM     21  H   UNL     1     -15.202  13.214   6.494  1.00  0.00     0.186 HD
ENDBRANCH  19  20
ENDBRANCH  18  19
ENDBRANCH   3  18
TORSDOF 6
ENDMDL
MODEL 7
REMARK VINA RESULT:    -3.669      3.002      4.516
REMARK INTER + INTRA:          -5.068
REMARK INTER:                  -5.192
REMARK INTRA:                   0.124
REMARK UNBOUND:                -0.220
REMARK SMILES [H]/N=C\C[C@H]1C[C@@H]1O[C@H]1CO[C@H]2C[C@@H](C3CC3)CCN2C1
REMARK SMILES IDX 7 1 6 2 5 3 8 4 9 5 14 6 13 7 18 8 12 9 19 10 20 11 11 12
REMARK SMILES IDX 21 13 10 14 15 15 16 16 17 17 4 18 3 19 2 20 1 21
REMARK H PARENT
ROOT
ATOM      1  C   UNL     1      -7.944  10.076   1.119  1.00  0.00     0.122 C 
ATOM      2  C   UNL     1      -7.700  11.148   0.095  1.00  0.00     0.039 C 
ATOM      3  C   UNL     1      -9.091  10.905   0.608  1.00  0.00     0.026 C 
ENDROOT
BRANCH   1   4
ATOM      4  O   UNL     1      -7.837   8.736   0.603  1.00  0.00    -0.371 OA
BRANCH   4   5
ATOM      5  C   UNL     1      -8.648   7.751   1.263  1.00  0.00     0.158 C 
ATOM      6  C   UNL     1      -6.356   3.460  -0.617  1.00  0.00    -0.003 C 
ATOM      7  C   UNL     1      -7.272   4.552  -1.181  1.00  0.00     0.052 C 
ATOM      8  C   UNL     1      -5.453   4.065   0.468  1.00  0.00     0.019 C 
ATOM      9  C   UNL     1      -8.035   5.286  -0.070  1.00  0.00     0.189 C 
ATOM     10  C   UNL     1      -6.270   4.809   1.523  1.00  0.00     0.087 C 
ATOM     11  N   UNL     1      -7.101   5.844   0.908  1.00  0.00    -0.276 NA
ATOM     12  O   UNL     1      -8.812   6.301  -0.709  1.00  0.00    -0.360 OA
ATOM     13  C   UNL     1      -7.826   6.626   1.916  1.00  0.00     0.121 C 
ATOM     14  C   UNL     1      -9.557   7.101   0.214  1.00  0.00     0.195 C 
BRANCH   6  15
ATOM     15  C   UNL     1      -5.523   2.818  -1.703  1.00  0.00    -0.008 C 
ATOM     16  C   UNL     1      -5.421   1.314  -1.799  1.00  0.00     0.004 C 
ATOM     17  C   UNL     1      -6.178   2.079  -2.845  1.00  0.00     0.004 C 
ENDBRANCH   6  15
ENDBRANCH   4   5
ENDBRANCH   1   4
BRANCH   3  18
ATOM     18  C   UNL     1      -9.731  11.935   1.490  1.00  0.00     0.053 C 
BRANCH  18  19
ATOM     19  C   UNL     1     -11.150  11.660   1.914  1.00  0.00     0.074 C 
BRANCH  19  20
ATOM     20  N   UNL     1     -11.874  10.661   1.533  1.00  0.00    -0.313 NA
ATOM     21  H   UNL     1     -11.660   9.810   2.073  1.00  0.00     0.186 HD
ENDBRANCH  19  20
ENDBRANCH  18  19
ENDBRANCH   3  18
TORSDOF 6
ENDMDL
MODEL 8
REMARK VINA RESULT:    -3.493      5.565      7.044
REMARK INTER + INTRA:          -4.836
REMARK INTER:                  -4.504
REMARK INTRA:                  -0.332
REMARK UNBOUND:                -0.220
REMARK SMILES [H]/N=C\C[C@H]1C[C@@H]1O[C@H]1CO[C@H]2C[C@@H](C3CC3)CCN2C1
REMARK SMILES IDX 7 1 6 2 5 3 8 4 9 5 14 6 13 7 18 8 12 9 19 10 20 11 11 12
REMARK SMILES IDX 21 13 10 14 15 15 16 16 17 17 4 18 3 19 2 20 1 21
REMARK H PARENT
ROOT
ATOM      1  C   UNL     1     -13.563  14.047   0.663  1.00  0.00     0.122 C 
ATOM      2  C   UNL     1     -14.582  13.975  -0.440  1.00  0.00     0.039 C 
ATOM      3  C   UNL     1     -14.316  12.768   0.414  1.00  0.00     0.026 C 
ENDROOT
BRANCH   1   4
ATOM      4  O   UNL     1     -12.200  14.093   0.200  1.00  0.00    -0.371 OA
BRANCH   4   5
ATOM      5  C   UNL     1     -11.211  14.354   1.210  1.00  0.00     0.158 C 
ATOM      6  C   UNL     1      -8.422   9.973   0.725  1.00  0.00    -0.003 C 
ATOM      7  C   UNL     1      -9.802  10.340   1.284  1.00  0.00     0.052 C 
ATOM      8  C   UNL     1      -8.086  10.902  -0.450  1.00  0.00     0.019 C 
ATOM      9  C   UNL     1      -9.902  11.834   1.619  1.00  0.00     0.189 C 
ATOM     10  C   UNL     1      -8.238  12.372  -0.060  1.00  0.00     0.087 C 
ATOM     11  N   UNL     1      -9.585  12.644   0.443  1.00  0.00    -0.276 NA
ATOM     12  O   UNL     1     -11.235  12.060   2.082  1.00  0.00    -0.360 OA
ATOM     13  C   UNL     1      -9.774  14.068   0.740  1.00  0.00     0.121 C 
ATOM     14  C   UNL     1     -11.492  13.431   2.401  1.00  0.00     0.195 C 
BRANCH   6  15
ATOM     15  C   UNL     1      -8.366   8.526   0.291  1.00  0.00    -0.008 C 
ATOM     16  C   UNL     1      -8.219   7.426   1.315  1.00  0.00     0.004 C 
ATOM     17  C   UNL     1      -9.514   7.588   0.574  1.00  0.00     0.004 C 
ENDBRANCH   6  15
ENDBRANCH   4   5
ENDBRANCH   1   4
BRANCH   3  18
ATOM     18  C   UNL     1     -15.371  12.313   1.378  1.00  0.00     0.053 C 
BRANCH  18  19
ATOM     19  C   UNL     1     -14.999  11.165   2.279  1.00  0.00     0.074 C 
BRANCH  19  20
ATOM     20  N   UNL     1     -13.877  11.025   2.904  1.00  0.00    -0.313 NA
ATOM     21  H   UNL     1     -13.189  10.509   2.337  1.00  0.00     0.186 HD
ENDBRANCH  19  20
ENDBRANCH  18  19
ENDBRANCH   3  18
TORSDOF 6
ENDMDL
MODEL 9
REMARK VINA RESULT:    -3.245      5.009      8.245
REMARK INTER + INTRA:          -4.508
REMARK INTER:                  -3.783
REMARK INTRA:                  -0.725
REMARK UNBOUND:                -0.220
REMARK SMILES [H]/N=C\C[C@H]1C[C@@H]1O[C@H]1CO[C@H]2C[C@@H](C3CC3)CCN2C1
REMARK SMILES IDX 7 1 6 2 5 3 8 4 9 5 14 6 13 7 18 8 12 9 19 10 20 11 11 12
REMARK SMILES IDX 21 13 10 14 15 15 16 16 17 17 4 18 3 19 2 20 1 21
REMARK H PARENT
ROOT
ATOM      1  C   UNL     1     -15.240  12.660   2.595  1.00  0.00     0.122 C 
ATOM      2  C   UNL     1     -14.986  13.298   3.932  1.00  0.00     0.039 C 
ATOM      3  C   UNL     1     -13.845  12.707   3.155  1.00  0.00     0.026 C 
ENDROOT
BRANCH   1   4
ATOM      4  O   UNL     1     -15.922  11.394   2.670  1.00  0.00    -0.371 OA
BRANCH   4   5
ATOM      5  C   UNL     1     -16.476  10.915   1.433  1.00  0.00     0.158 C 
ATOM      6  C   UNL     1     -13.392   6.764   0.750  1.00  0.00    -0.003 C 
ATOM      7  C   UNL     1     -13.223   8.286   0.656  1.00  0.00     0.052 C 
ATOM      8  C   UNL     1     -14.426   6.435   1.836  1.00  0.00     0.019 C 
ATOM      9  C   UNL     1     -14.570   8.998   0.473  1.00  0.00     0.189 C 
ATOM     10  C   UNL     1     -15.730   7.202   1.616  1.00  0.00     0.087 C 
ATOM     11  N   UNL     1     -15.486   8.643   1.557  1.00  0.00    -0.276 NA
ATOM     12  O   UNL     1     -14.290  10.399   0.445  1.00  0.00    -0.360 OA
ATOM     13  C   UNL     1     -16.738   9.398   1.433  1.00  0.00     0.121 C 
ATOM     14  C   UNL     1     -15.467  11.203   0.316  1.00  0.00     0.195 C 
BRANCH   6  15
ATOM     15  C   UNL     1     -12.077   6.077   1.044  1.00  0.00    -0.008 C 
ATOM     16  C   UNL     1     -11.498   5.085   0.063  1.00  0.00     0.004 C 
ATOM     17  C   UNL     1     -10.834   6.417   0.258  1.00  0.00     0.004 C 
ENDBRANCH   6  15
ENDBRANCH   4   5
ENDBRANCH   1   4
BRANCH   3  18
ATOM     18  C   UNL     1     -12.821  13.625   2.556  1.00  0.00     0.053 C 
BRANCH  18  19
ATOM     19  C   UNL     1     -11.872  13.007   1.562  1.00  0.00     0.074 C 
BRANCH  19  20
ATOM     20  N   UNL     1     -11.890  11.780   1.161  1.00  0.00    -0.313 NA
ATOM     21  H   UNL     1     -12.409  11.175   1.812  1.00  0.00     0.186 HD
ENDBRANCH  19  20
ENDBRANCH  18  19
ENDBRANCH   3  18
TORSDOF 6
ENDMDL
