MODEL 1
REMARK VINA RESULT:    -3.890      0.000      0.000
REMARK INTER + INTRA:          -5.385
REMARK INTER:                  -5.141
REMARK INTRA:                  -0.245
REMARK UNBOUND:                -0.245
REMARK SMILES [H]/N=C\C[C@H]1C[C@@H]1O[C@H]1CO[C@H]2C[C@@H](C3CC3)CCN2C1
REMARK SMILES IDX 7 1 6 2 5 3 8 4 9 5 14 6 13 7 18 8 12 9 19 10 20 11 11 12
REMARK SMILES IDX 21 13 10 14 15 15 16 16 17 17 4 18 3 19 2 20 1 21
REMARK H PARENT
ROOT
ATOM      1  C   UNL     1      -1.141 -12.517 -12.315  1.00  0.00     0.122 C 
ATOM      2  C   UNL     1      -0.119 -12.015 -13.295  1.00  0.00     0.039 C 
ATOM      3  C   UNL     1      -0.008 -13.408 -12.746  1.00  0.00     0.026 C 
ENDROOT
BRANCH   1   4
ATOM      4  O   UNL     1      -1.036 -11.929 -11.004  1.00  0.00    -0.371 OA
BRANCH   4   5
ATOM      5  C   UNL     1      -2.255 -11.393 -10.466  1.00  0.00     0.158 C 
ATOM      6  C   UNL     1      -1.652 -12.899  -5.509  1.00  0.00    -0.003 C 
ATOM      7  C   UNL     1      -1.967 -13.597  -6.838  1.00  0.00     0.052 C 
ATOM      8  C   UNL     1      -0.736 -11.695  -5.772  1.00  0.00     0.019 C 
ATOM      9  C   UNL     1      -2.512 -12.613  -7.882  1.00  0.00     0.189 C 
ATOM     10  C   UNL     1      -1.319 -10.775  -6.844  1.00  0.00     0.087 C 
ATOM     11  N   UNL     1      -1.572 -11.509  -8.083  1.00  0.00    -0.276 NA
ATOM     12  O   UNL     1      -2.722 -13.363  -9.080  1.00  0.00    -0.360 OA
ATOM     13  C   UNL     1      -2.050 -10.622  -9.149  1.00  0.00     0.121 C 
ATOM     14  C   UNL     1      -3.198 -12.563 -10.166  1.00  0.00     0.195 C 
BRANCH   6  15
ATOM     15  C   UNL     1      -1.010 -13.849  -4.523  1.00  0.00    -0.008 C 
ATOM     16  C   UNL     1      -1.678 -14.145  -3.201  1.00  0.00     0.004 C 
ATOM     17  C   UNL     1      -1.607 -15.210  -4.257  1.00  0.00     0.004 C 
ENDBRANCH   6  15
ENDBRANCH   4   5
ENDBRANCH   1   4
BRANCH   3  18
ATOM     18  C   UNL     1      -0.266 -14.571 -13.656  1.00  0.00     0.053 C 
BRANCH  18  19
ATOM     19  C   UNL     1      -0.309 -15.930 -13.007  1.00  0.00     0.074 C 
BRANCH  19  20
ATOM     20  N   UNL     1       0.349 -16.287 -11.954  1.00  0.00    -0.313 NA
ATOM     21  H   UNL     1       1.241 -16.739 -12.200  1.00  0.00     0.186 HD
ENDBRANCH  19  20
ENDBRANCH  18  19
ENDBRANCH   3  18
TORSDOF 6
ENDMDL
MODEL 2
REMARK VINA RESULT:    -3.826      3.741      7.555
REMARK INTER + INTRA:          -5.301
REMARK INTER:                  -5.029
REMARK INTRA:                  -0.272
REMARK UNBOUND:                -0.245
REMARK SMILES [H]/N=C\C[C@H]1C[C@@H]1O[C@H]1CO[C@H]2C[C@@H](C3CC3)CCN2C1
REMARK SMILES IDX 7 1 6 2 5 3 8 4 9 5 14 6 13 7 18 8 12 9 19 10 20 11 11 12
REMARK SMILES IDX 21 13 10 14 15 15 16 16 17 17 4 18 3 19 2 20 1 21
REMARK H PARENT
ROOT
ATOM      1  C   UNL     1      -3.858 -17.465  -3.336  1.00  0.00     0.122 C 
ATOM      2  C   UNL     1      -4.845 -17.647  -2.217  1.00  0.00     0.039 C 
ATOM      3  C   UNL     1      -5.319 -17.657  -3.642  1.00  0.00     0.026 C 
ENDROOT
BRANCH   1   4
ATOM      4  O   UNL     1      -3.346 -16.124  -3.455  1.00  0.00    -0.371 OA
BRANCH   4   5
ATOM      5  C   UNL     1      -1.918 -16.015  -3.571  1.00  0.00     0.158 C 
ATOM      6  C   UNL     1      -1.705 -11.928  -6.805  1.00  0.00    -0.003 C 
ATOM      7  C   UNL     1      -2.096 -13.406  -6.927  1.00  0.00     0.052 C 
ATOM      8  C   UNL     1      -2.058 -11.425  -5.398  1.00  0.00     0.019 C 
ATOM      9  C   UNL     1      -1.498 -14.249  -5.793  1.00  0.00     0.189 C 
ATOM     10  C   UNL     1      -1.463 -12.326  -4.317  1.00  0.00     0.087 C 
ATOM     11  N   UNL     1      -1.897 -13.711  -4.492  1.00  0.00    -0.276 NA
ATOM     12  O   UNL     1      -1.966 -15.586  -5.986  1.00  0.00    -0.360 OA
ATOM     13  C   UNL     1      -1.404 -14.573  -3.412  1.00  0.00     0.121 C 
ATOM     14  C   UNL     1      -1.516 -16.489  -4.972  1.00  0.00     0.195 C 
BRANCH   6  15
ATOM     15  C   UNL     1      -2.389 -11.085  -7.858  1.00  0.00    -0.008 C 
ATOM     16  C   UNL     1      -1.578 -10.398  -8.931  1.00  0.00     0.004 C 
ATOM     17  C   UNL     1      -2.468 -11.551  -9.291  1.00  0.00     0.004 C 
ENDBRANCH   6  15
ENDBRANCH   4   5
ENDBRANCH   1   4
BRANCH   3  18
ATOM     18  C   UNL     1      -5.803 -18.945  -4.238  1.00  0.00     0.053 C 
BRANCH  18  19
ATOM     19  C   UNL     1      -6.253 -18.887  -5.674  1.00  0.00     0.074 C 
BRANCH  19  20
ATOM     20  N   UNL     1      -6.588 -17.820  -6.320  1.00  0.00    -0.313 NA
ATOM     21  H   UNL     1      -7.518 -17.914  -6.753  1.00  0.00     0.186 HD
ENDBRANCH  19  20
ENDBRANCH  18  19
ENDBRANCH   3  18
TORSDOF 6
ENDMDL
MODEL 3
REMARK VINA RESULT:    -3.811      4.820      6.811
REMARK INTER + INTRA:          -5.281
REMARK INTER:                  -5.010
REMARK INTRA:                  -0.271
REMARK UNBOUND:                -0.245
REMARK SMILES [H]/N=C\C[C@H]1C[C@@H]1O[C@H]1CO[C@H]2C[C@@H](C3CC3)CCN2C1
REMARK SMILES IDX 7 1 6 2 5 3 8 4 9 5 14 6 13 7 18 8 12 9 19 10 20 11 11 12
REMARK SMILES IDX 21 13 10 14 15 15 16 16 17 17 4 18 3 19 2 20 1 21
REMARK H PARENT
ROOT
ATOM      1  C   UNL     1      -5.424 -18.517  -7.700  1.00  0.00     0.122 C 
ATOM      2  C   UNL     1      -6.373 -18.943  -6.616  1.00  0.00     0.039 C 
ATOM      3  C   UNL     1      -6.886 -18.178  -7.802  1.00  0.00     0.026 C 
ENDROOT
BRANCH   1   4
ATOM      4  O   UNL     1      -4.540 -17.446  -7.319  1.00  0.00    -0.371 OA
BRANCH   4   5
ATOM      5  C   UNL     1      -3.137 -17.754  -7.368  1.00  0.00     0.158 C 
ATOM      6  C   UNL     1      -1.307 -13.433  -5.090  1.00  0.00    -0.003 C 
ATOM      7  C   UNL     1      -1.932 -13.779  -6.447  1.00  0.00     0.052 C 
ATOM      8  C   UNL     1      -1.907 -14.343  -4.008  1.00  0.00     0.019 C 
ATOM      9  C   UNL     1      -1.823 -15.277  -6.759  1.00  0.00     0.189 C 
ATOM     10  C   UNL     1      -1.797 -15.818  -4.396  1.00  0.00     0.087 C 
ATOM     11  N   UNL     1      -2.433 -16.068  -5.689  1.00  0.00    -0.276 NA
ATOM     12  O   UNL     1      -2.475 -15.481  -8.014  1.00  0.00    -0.360 OA
ATOM     13  C   UNL     1      -2.413 -17.493  -6.035  1.00  0.00     0.121 C 
ATOM     14  C   UNL     1      -2.487 -16.853  -8.423  1.00  0.00     0.195 C 
BRANCH   6  15
ATOM     15  C   UNL     1      -1.518 -11.979  -4.736  1.00  0.00    -0.008 C 
ATOM     16  C   UNL     1      -0.430 -10.963  -4.997  1.00  0.00     0.004 C 
ATOM     17  C   UNL     1      -1.689 -10.937  -5.815  1.00  0.00     0.004 C 
ENDBRANCH   6  15
ENDBRANCH   4   5
ENDBRANCH   1   4
BRANCH   3  18
ATOM     18  C   UNL     1      -7.758 -18.883  -8.799  1.00  0.00     0.053 C 
BRANCH  18  19
ATOM     19  C   UNL     1      -9.173 -18.381  -8.918  1.00  0.00     0.074 C 
BRANCH  19  20
ATOM     20  N   UNL     1      -9.676 -17.375  -8.283  1.00  0.00    -0.313 NA
ATOM     21  H   UNL     1     -10.243 -16.779  -8.903  1.00  0.00     0.186 HD
ENDBRANCH  19  20
ENDBRANCH  18  19
ENDBRANCH   3  18
TORSDOF 6
ENDMDL
MODEL 4
REMARK VINA RESULT:    -3.706      2.824      5.502
REMARK INTER + INTRA:          -5.143
REMARK INTER:                  -4.416
REMARK INTRA:                  -0.727
REMARK UNBOUND:                -0.245
REMARK SMILES [H]/N=C\C[C@H]1C[C@@H]1O[C@H]1CO[C@H]2C[C@@H](C3CC3)CCN2C1
REMARK SMILES IDX 7 1 6 2 5 3 8 4 9 5 14 6 13 7 18 8 12 9 19 10 20 11 11 12
REMARK SMILES IDX 21 13 10 14 15 15 16 16 17 17 4 18 3 19 2 20 1 21
REMARK H PARENT
ROOT
ATOM      1  C   UNL     1      -1.659 -17.662  -9.355  1.00  0.00     0.122 C 
ATOM      2  C   UNL     1      -0.533 -18.595  -9.011  1.00  0.00     0.039 C 
ATOM      3  C   UNL     1      -0.791 -17.386  -8.158  1.00  0.00     0.026 C 
ENDROOT
BRANCH   1   4
ATOM      4  O   UNL     1      -1.419 -16.857 -10.525  1.00  0.00    -0.371 OA
BRANCH   4   5
ATOM      5  C   UNL     1      -2.593 -16.361 -11.188  1.00  0.00     0.158 C 
ATOM      6  C   UNL     1      -2.132 -11.320  -9.930  1.00  0.00    -0.003 C 
ATOM      7  C   UNL     1      -2.497 -12.610  -9.184  1.00  0.00     0.052 C 
ATOM      8  C   UNL     1      -1.121 -11.645 -11.039  1.00  0.00     0.019 C 
ATOM      9  C   UNL     1      -2.957 -13.714 -10.146  1.00  0.00     0.189 C 
ATOM     10  C   UNL     1      -1.623 -12.774 -11.940  1.00  0.00     0.087 C 
ATOM     11  N   UNL     1      -1.931 -13.970 -11.157  1.00  0.00    -0.276 NA
ATOM     12  O   UNL     1      -3.222 -14.868  -9.346  1.00  0.00    -0.360 OA
ATOM     13  C   UNL     1      -2.331 -15.090 -12.016  1.00  0.00     0.121 C 
ATOM     14  C   UNL     1      -3.629 -16.003 -10.117  1.00  0.00     0.195 C 
BRANCH   6  15
ATOM     15  C   UNL     1      -1.572 -10.276  -8.991  1.00  0.00    -0.008 C 
ATOM     16  C   UNL     1      -2.430  -9.117  -8.540  1.00  0.00     0.004 C 
ATOM     17  C   UNL     1      -2.046 -10.188  -7.561  1.00  0.00     0.004 C 
ENDBRANCH   6  15
ENDBRANCH   4   5
ENDBRANCH   1   4
BRANCH   3  18
ATOM     18  C   UNL     1      -1.332 -17.577  -6.773  1.00  0.00     0.053 C 
BRANCH  18  19
ATOM     19  C   UNL     1      -1.877 -16.347  -6.095  1.00  0.00     0.074 C 
BRANCH  19  20
ATOM     20  N   UNL     1      -2.521 -15.388  -6.672  1.00  0.00    -0.313 NA
ATOM     21  H   UNL     1      -2.539 -14.539  -6.090  1.00  0.00     0.186 HD
ENDBRANCH  19  20
ENDBRANCH  18  19
ENDBRANCH   3  18
TORSDOF 6
ENDMDL
MODEL 5
REMARK VINA RESULT:    -3.643      2.203      3.381
REMARK INTER + INTRA:          -5.059
REMARK INTER:                  -4.764
REMARK INTRA:                  -0.295
REMARK UNBOUND:                -0.245
REMARK SMILES [H]/N=C\C[C@H]1C[C@@H]1O[C@H]1CO[C@H]2C[C@@H](C3CC3)CCN2C1
REMARK SMILES IDX 7 1 6 2 5 3 8 4 9 5 14 6 13 7 18 8 12 9 19 10 20 11 11 12
REMARK SMILES IDX 21 13 10 14 15 15 16 16 17 17 4 18 3 19 2 20 1 21
REMARK H PARENT
ROOT
ATOM      1  C   UNL     1      -1.914 -16.271 -11.829  1.00  0.00     0.122 C 
ATOM      2  C   UNL     1      -1.003 -17.043 -12.742  1.00  0.00     0.039 C 
ATOM      3  C   UNL     1      -0.770 -17.065 -11.258  1.00  0.00     0.026 C 
ENDROOT
BRANCH   1   4
ATOM      4  O   UNL     1      -1.738 -14.843 -11.896  1.00  0.00    -0.371 OA
BRANCH   4   5
ATOM      5  C   UNL     1      -2.949 -14.069 -11.902  1.00  0.00     0.158 C 
ATOM      6  C   UNL     1      -2.108 -11.264  -7.586  1.00  0.00    -0.003 C 
ATOM      7  C   UNL     1      -2.457 -12.725  -7.896  1.00  0.00     0.052 C 
ATOM      8  C   UNL     1      -1.236 -10.701  -8.716  1.00  0.00     0.019 C 
ATOM      9  C   UNL     1      -3.069 -12.880  -9.294  1.00  0.00     0.189 C 
ATOM     10  C   UNL     1      -1.884 -10.917 -10.083  1.00  0.00     0.087 C 
ATOM     11  N   UNL     1      -2.168 -12.334 -10.309  1.00  0.00    -0.276 NA
ATOM     12  O   UNL     1      -3.307 -14.276  -9.484  1.00  0.00    -0.360 OA
ATOM     13  C   UNL     1      -2.711 -12.569 -11.652  1.00  0.00     0.121 C 
ATOM     14  C   UNL     1      -3.848 -14.583 -10.773  1.00  0.00     0.195 C 
BRANCH   6  15
ATOM     15  C   UNL     1      -1.402 -11.133  -6.255  1.00  0.00    -0.008 C 
ATOM     16  C   UNL     1      -2.172 -10.732  -5.019  1.00  0.00     0.004 C 
ATOM     17  C   UNL     1      -1.644 -12.131  -5.149  1.00  0.00     0.004 C 
ENDBRANCH   6  15
ENDBRANCH   4   5
ENDBRANCH   1   4
BRANCH   3  18
ATOM     18  C   UNL     1      -1.034 -18.331 -10.499  1.00  0.00     0.053 C 
BRANCH  18  19
ATOM     19  C   UNL     1      -0.754 -18.291  -9.019  1.00  0.00     0.074 C 
BRANCH  19  20
ATOM     20  N   UNL     1      -0.247 -17.296  -8.371  1.00  0.00    -0.313 NA
ATOM     21  H   UNL     1       0.545 -16.876  -8.879  1.00  0.00     0.186 HD
ENDBRANCH  19  20
ENDBRANCH  18  19
ENDBRANCH   3  18
TORSDOF 6
ENDMDL
MODEL 6
REMARK VINA RESULT:    -3.629      3.407      5.363
REMARK INTER + INTRA:          -5.040
REMARK INTER:                  -4.347
REMARK INTRA:                  -0.693
REMARK UNBOUND:                -0.245
REMARK SMILES [H]/N=C\C[C@H]1C[C@@H]1O[C@H]1CO[C@H]2C[C@@H](C3CC3)CCN2C1
REMARK SMILES IDX 7 1 6 2 5 3 8 4 9 5 14 6 13 7 18 8 12 9 19 10 20 11 11 12
REMARK SMILES IDX 21 13 10 14 15 15 16 16 17 17 4 18 3 19 2 20 1 21
REMARK H PARENT
ROOT
ATOM      1  C   UNL     1      -4.326 -16.578  -9.790  1.00  0.00     0.122 C 
ATOM      2  C   UNL     1      -5.736 -16.313 -10.239  1.00  0.00     0.039 C 
ATOM      3  C   UNL     1      -5.021 -15.308  -9.383  1.00  0.00     0.026 C 
ENDROOT
BRANCH   1   4
ATOM      4  O   UNL     1      -4.213 -17.602  -8.784  1.00  0.00    -0.371 OA
BRANCH   4   5
ATOM      5  C   UNL     1      -2.897 -18.149  -8.601  1.00  0.00     0.158 C 
ATOM      6  C   UNL     1      -1.488 -15.406  -4.394  1.00  0.00    -0.003 C 
ATOM      7  C   UNL     1      -1.692 -15.105  -5.884  1.00  0.00     0.052 C 
ATOM      8  C   UNL     1      -2.469 -16.503  -3.960  1.00  0.00     0.019 C 
ATOM      9  C   UNL     1      -1.623 -16.379  -6.738  1.00  0.00     0.189 C 
ATOM     10  C   UNL     1      -2.376 -17.728  -4.869  1.00  0.00     0.087 C 
ATOM     11  N   UNL     1      -2.600 -17.361  -6.267  1.00  0.00    -0.276 NA
ATOM     12  O   UNL     1      -1.871 -15.980  -8.087  1.00  0.00    -0.360 OA
ATOM     13  C   UNL     1      -2.600 -18.539  -7.142  1.00  0.00     0.121 C 
ATOM     14  C   UNL     1      -1.877 -17.079  -9.004  1.00  0.00     0.195 C 
BRANCH   6  15
ATOM     15  C   UNL     1      -1.669 -14.166  -3.548  1.00  0.00    -0.008 C 
ATOM     16  C   UNL     1      -0.541 -13.664  -2.678  1.00  0.00     0.004 C 
ATOM     17  C   UNL     1      -0.952 -12.883  -3.892  1.00  0.00     0.004 C 
ENDBRANCH   6  15
ENDBRANCH   4   5
ENDBRANCH   1   4
BRANCH   3  18
ATOM     18  C   UNL     1      -4.615 -13.997  -9.987  1.00  0.00     0.053 C 
BRANCH  18  19
ATOM     19  C   UNL     1      -3.609 -13.188  -9.210  1.00  0.00     0.074 C 
BRANCH  19  20
ATOM     20  N   UNL     1      -2.363 -13.486  -9.044  1.00  0.00    -0.313 NA
ATOM     21  H   UNL     1      -2.204 -13.971  -8.150  1.00  0.00     0.186 HD
ENDBRANCH  19  20
ENDBRANCH  18  19
ENDBRANCH   3  18
TORSDOF 6
ENDMDL
MODEL 7
REMARK VINA RESULT:    -3.616      3.130      5.200
REMARK INTER + INTRA:          -5.023
REMARK INTER:                  -4.518
REMARK INTRA:                  -0.505
REMARK UNBOUND:                -0.245
REMARK SMILES [H]/N=C\C[C@H]1C[C@@H]1O[C@H]1CO[C@H]2C[C@@H](C3CC3)CCN2C1
REMARK SMILES IDX 7 1 6 2 5 3 8 4 9 5 14 6 13 7 18 8 12 9 19 10 20 11 11 12
REMARK SMILES IDX 21 13 10 14 15 15 16 16 17 17 4 18 3 19 2 20 1 21
REMARK H PARENT
ROOT
ATOM      1  C   UNL     1      -4.272 -16.907  -8.864  1.00  0.00     0.122 C 
ATOM      2  C   UNL     1      -5.711 -16.892  -9.297  1.00  0.00     0.039 C 
ATOM      3  C   UNL     1      -4.961 -15.599  -9.147  1.00  0.00     0.026 C 
ENDROOT
BRANCH   1   4
ATOM      4  O   UNL     1      -4.080 -17.247  -7.478  1.00  0.00    -0.371 OA
BRANCH   4   5
ATOM      5  C   UNL     1      -2.751 -17.662  -7.121  1.00  0.00     0.158 C 
ATOM      6  C   UNL     1      -1.197 -13.311  -4.702  1.00  0.00    -0.003 C 
ATOM      7  C   UNL     1      -1.466 -13.723  -6.154  1.00  0.00     0.052 C 
ATOM      8  C   UNL     1      -2.147 -14.077  -3.772  1.00  0.00     0.019 C 
ATOM      9  C   UNL     1      -1.420 -15.247  -6.331  1.00  0.00     0.189 C 
ATOM     10  C   UNL     1      -2.078 -15.584  -4.022  1.00  0.00     0.087 C 
ATOM     11  N   UNL     1      -2.365 -15.895  -5.422  1.00  0.00    -0.276 NA
ATOM     12  O   UNL     1      -1.728 -15.509  -7.702  1.00  0.00    -0.360 OA
ATOM     13  C   UNL     1      -2.388 -17.343  -5.660  1.00  0.00     0.121 C 
ATOM     14  C   UNL     1      -1.760 -16.905  -8.012  1.00  0.00     0.195 C 
BRANCH   6  15
ATOM     15  C   UNL     1      -1.356 -11.819  -4.511  1.00  0.00    -0.008 C 
ATOM     16  C   UNL     1      -0.288 -10.868  -4.999  1.00  0.00     0.004 C 
ATOM     17  C   UNL     1      -1.621 -10.912  -5.688  1.00  0.00     0.004 C 
ENDBRANCH   6  15
ENDBRANCH   4   5
ENDBRANCH   1   4
BRANCH   3  18
ATOM     18  C   UNL     1      -4.615 -14.813 -10.376  1.00  0.00     0.053 C 
BRANCH  18  19
ATOM     19  C   UNL     1      -3.634 -13.685 -10.191  1.00  0.00     0.074 C 
BRANCH  19  20
ATOM     20  N   UNL     1      -2.399 -13.807  -9.832  1.00  0.00    -0.313 NA
ATOM     21  H   UNL     1      -1.785 -13.172 -10.362  1.00  0.00     0.186 HD
ENDBRANCH  19  20
ENDBRANCH  18  19
ENDBRANCH   3  18
TORSDOF 6
ENDMDL
MODEL 8
REMARK VINA RESULT:    -3.405      4.480      8.183
REMARK INTER + INTRA:          -4.744
REMARK INTER:                  -4.569
REMARK INTRA:                  -0.175
REMARK UNBOUND:                -0.245
REMARK SMILES [H]/N=C\C[C@H]1C[C@@H]1O[C@H]1CO[C@H]2C[C@@H](C3CC3)CCN2C1
REMARK SMILES IDX 7 1 6 2 5 3 8 4 9 5 14 6 13 7 18 8 12 9 19 10 20 11 11 12
REMARK SMILES IDX 21 13 10 14 15 15 16 16 17 17 4 18 3 19 2 20 1 21
REMARK H PARENT
ROOT
ATOM      1  C   UNL     1      -2.607 -16.708  -4.077  1.00  0.00     0.122 C 
ATOM      2  C   UNL     1      -2.184 -16.405  -2.667  1.00  0.00     0.039 C 
ATOM      3  C   UNL     1      -3.636 -16.627  -2.982  1.00  0.00     0.026 C 
ENDROOT
BRANCH   1   4
ATOM      4  O   UNL     1      -2.525 -15.580  -4.969  1.00  0.00    -0.371 OA
BRANCH   4   5
ATOM      5  C   UNL     1      -1.641 -15.740  -6.091  1.00  0.00     0.158 C 
ATOM      6  C   UNL     1      -5.223 -16.417  -9.821  1.00  0.00    -0.003 C 
ATOM      7  C   UNL     1      -4.686 -17.249  -8.650  1.00  0.00     0.052 C 
ATOM      8  C   UNL     1      -5.175 -14.928  -9.450  1.00  0.00     0.019 C 
ATOM      9  C   UNL     1      -3.304 -16.763  -8.192  1.00  0.00     0.189 C 
ATOM     10  C   UNL     1      -3.783 -14.517  -8.970  1.00  0.00     0.087 C 
ATOM     11  N   UNL     1      -3.353 -15.343  -7.842  1.00  0.00    -0.276 NA
ATOM     12  O   UNL     1      -2.933 -17.577  -7.078  1.00  0.00    -0.360 OA
ATOM     13  C   UNL     1      -2.056 -14.904  -7.314  1.00  0.00     0.121 C 
ATOM     14  C   UNL     1      -1.670 -17.213  -6.513  1.00  0.00     0.195 C 
BRANCH   6  15
ATOM     15  C   UNL     1      -6.630 -16.826 -10.193  1.00  0.00    -0.008 C 
ATOM     16  C   UNL     1      -6.900 -17.531 -11.502  1.00  0.00     0.004 C 
ATOM     17  C   UNL     1      -7.034 -18.280 -10.208  1.00  0.00     0.004 C 
ENDBRANCH   6  15
ENDBRANCH   4   5
ENDBRANCH   1   4
BRANCH   3  18
ATOM     18  C   UNL     1      -4.306 -17.871  -2.482  1.00  0.00     0.053 C 
BRANCH  18  19
ATOM     19  C   UNL     1      -5.707 -18.119  -2.978  1.00  0.00     0.074 C 
BRANCH  19  20
ATOM     20  N   UNL     1      -6.346 -17.394  -3.835  1.00  0.00    -0.313 NA
ATOM     21  H   UNL     1      -6.295 -17.793  -4.783  1.00  0.00     0.186 HD
ENDBRANCH  19  20
ENDBRANCH  18  19
ENDBRANCH   3  18
TORSDOF 6
ENDMDL
MODEL 9
REMARK VINA RESULT:    -3.351      4.016      5.602
REMARK INTER + INTRA:          -4.674
REMARK INTER:                  -4.428
REMARK INTRA:                  -0.246
REMARK UNBOUND:                -0.245
REMARK SMILES [H]/N=C\C[C@H]1C[C@@H]1O[C@H]1CO[C@H]2C[C@@H](C3CC3)CCN2C1
REMARK SMILES IDX 7 1 6 2 5 3 8 4 9 5 14 6 13 7 18 8 12 9 19 10 20 11 11 12
REMARK SMILES IDX 21 13 10 14 15 15 16 16 17 17 4 18 3 19 2 20 1 21
REMARK H PARENT
ROOT
ATOM      1  C   UNL     1      -1.561 -11.232  -8.303  1.00  0.00     0.122 C 
ATOM      2  C   UNL     1      -2.717 -11.851  -9.038  1.00  0.00     0.039 C 
ATOM      3  C   UNL     1      -1.984 -10.686  -9.640  1.00  0.00     0.026 C 
ENDROOT
BRANCH   1   4
ATOM      4  O   UNL     1      -1.944 -10.466  -7.145  1.00  0.00    -0.371 OA
BRANCH   4   5
ATOM      5  C   UNL     1      -2.241 -11.233  -5.966  1.00  0.00     0.158 C 
ATOM      6  C   UNL     1       0.205  -8.252  -2.455  1.00  0.00    -0.003 C 
ATOM      7  C   UNL     1       0.635  -9.213  -3.570  1.00  0.00     0.052 C 
ATOM      8  C   UNL     1      -1.107  -7.562  -2.857  1.00  0.00     0.019 C 
ATOM      9  C   UNL     1      -0.491 -10.184  -3.951  1.00  0.00     0.189 C 
ATOM     10  C   UNL     1      -2.173  -8.581  -3.258  1.00  0.00     0.087 C 
ATOM     11  N   UNL     1      -1.693  -9.445  -4.336  1.00  0.00    -0.276 NA
ATOM     12  O   UNL     1       0.009 -10.989  -5.020  1.00  0.00    -0.360 OA
ATOM     13  C   UNL     1      -2.736 -10.371  -4.791  1.00  0.00     0.121 C 
ATOM     14  C   UNL     1      -0.953 -11.927  -5.512  1.00  0.00     0.195 C 
BRANCH   6  15
ATOM     15  C   UNL     1       1.276  -7.225  -2.163  1.00  0.00    -0.008 C 
ATOM     16  C   UNL     1       1.621  -6.866  -0.737  1.00  0.00     0.004 C 
ATOM     17  C   UNL     1       2.602  -7.638  -1.570  1.00  0.00     0.004 C 
ENDBRANCH   6  15
ENDBRANCH   4   5
ENDBRANCH   1   4
BRANCH   3  18
ATOM     18  C   UNL     1      -1.131 -10.914 -10.853  1.00  0.00     0.053 C 
BRANCH  18  19
ATOM     19  C   UNL     1      -1.825 -11.499 -12.055  1.00  0.00     0.074 C 
BRANCH  19  20
ATOM     20  N   UNL     1      -2.655 -10.879 -12.827  1.00  0.00    -0.313 NA
ATOM     21  H   UNL     1      -3.478 -10.543 -12.307  1.00  0.00     0.186 HD
ENDBRANCH  19  20
ENDBRANCH  18  19
ENDBRANCH   3  18
TORSDOF 6
ENDMDL
