MODEL 1
REMARK VINA RESULT:    -5.677      0.000      0.000
REMARK INTER + INTRA:          -7.149
REMARK INTER:                  -6.673
REMARK INTRA:                  -0.476
REMARK UNBOUND:                -0.476
REMARK SMILES Cc1ccc(CNC(=O)NC(=O)c2ccc(C)cc2)cc1
REMARK SMILES IDX 11 1 12 2 10 3 8 4 9 5 7 6 13 9 19 10 18 11 14 12 16 13
REMARK SMILES IDX 15 14 17 15 6 16 5 17 4 18 20 19 3 20 21 21 2 22 1 23
REMARK H PARENT 10 7 7 8
ROOT
ATOM      1  C   UNL     1      -1.712 -10.981  -7.337  1.00  0.00     0.259 C 
ATOM      2  O   UNL     1      -1.520  -9.796  -7.100  1.00  0.00    -0.269 OA
ATOM      3  N   UNL     1      -1.661 -12.069  -6.460  1.00  0.00    -0.274 N 
ATOM      4  C   UNL     1      -1.638 -12.277  -5.105  1.00  0.00     0.321 C 
ATOM      5  O   UNL     1      -1.733 -13.442  -4.702  1.00  0.00    -0.248 OA
ATOM      6  N   UNL     1      -1.549 -11.284  -4.200  1.00  0.00    -0.334 N 
ATOM      7  H   UNL     1      -1.836 -12.964  -6.896  1.00  0.00     0.175 HD
ATOM      8  H   UNL     1      -1.631 -11.597  -3.244  1.00  0.00     0.165 HD
ENDROOT
BRANCH   1   9
ATOM      9  C   UNL     1      -2.047 -11.329  -8.731  1.00  0.00     0.040 A 
ATOM     10  C   UNL     1      -1.486 -10.641  -9.809  1.00  0.00     0.014 A 
ATOM     11  C   UNL     1      -1.793 -11.041 -11.110  1.00  0.00     0.004 A 
ATOM     12  C   UNL     1      -2.955 -12.370  -8.948  1.00  0.00     0.014 A 
ATOM     13  C   UNL     1      -2.663 -12.118 -11.337  1.00  0.00    -0.051 A 
ATOM     14  C   UNL     1      -3.254 -12.770 -10.249  1.00  0.00     0.004 A 
ATOM     15  C   UNL     1      -2.916 -12.590 -12.739  1.00  0.00     0.044 C 
ENDBRANCH   1   9
BRANCH   6  16
ATOM     16  C   UNL     1      -1.534  -9.871  -4.450  1.00  0.00     0.153 C 
BRANCH  16  17
ATOM     17  C   UNL     1      -0.605  -9.033  -3.616  1.00  0.00    -0.029 A 
ATOM     18  C   UNL     1      -0.841  -8.743  -2.268  1.00  0.00     0.006 A 
ATOM     19  C   UNL     1       0.646  -8.714  -4.170  1.00  0.00     0.006 A 
ATOM     20  C   UNL     1       0.169  -8.168  -1.488  1.00  0.00     0.004 A 
ATOM     21  C   UNL     1       1.650  -8.146  -3.392  1.00  0.00     0.004 A 
ATOM     22  C   UNL     1       1.424  -7.878  -2.041  1.00  0.00    -0.051 A 
ATOM     23  C   UNL     1       2.553  -7.396  -1.181  1.00  0.00     0.044 C 
ENDBRANCH  16  17
ENDBRANCH   6  16
TORSDOF 3
ENDMDL
MODEL 2
REMARK VINA RESULT:    -5.666      3.016      5.363
REMARK INTER + INTRA:          -7.136
REMARK INTER:                  -6.651
REMARK INTRA:                  -0.485
REMARK UNBOUND:                -0.476
REMARK SMILES Cc1ccc(CNC(=O)NC(=O)c2ccc(C)cc2)cc1
REMARK SMILES IDX 11 1 12 2 10 3 8 4 9 5 7 6 13 9 19 10 18 11 14 12 16 13
REMARK SMILES IDX 15 14 17 15 6 16 5 17 4 18 20 19 3 20 21 21 2 22 1 23
REMARK H PARENT 10 7 7 8
ROOT
ATOM      1  C   UNL     1      -1.376 -13.032  -4.346  1.00  0.00     0.259 C 
ATOM      2  O   UNL     1      -0.961 -12.386  -3.394  1.00  0.00    -0.269 OA
ATOM      3  N   UNL     1      -1.658 -12.596  -5.644  1.00  0.00    -0.274 N 
ATOM      4  C   UNL     1      -1.405 -11.493  -6.420  1.00  0.00     0.321 C 
ATOM      5  O   UNL     1      -1.723 -11.547  -7.613  1.00  0.00    -0.248 OA
ATOM      6  N   UNL     1      -0.806 -10.380  -5.958  1.00  0.00    -0.334 N 
ATOM      7  H   UNL     1      -2.015 -13.316  -6.258  1.00  0.00     0.175 HD
ATOM      8  H   UNL     1      -0.615  -9.694  -6.674  1.00  0.00     0.165 HD
ENDROOT
BRANCH   1   9
ATOM      9  C   UNL     1      -1.614 -14.470  -4.115  1.00  0.00     0.040 A 
ATOM     10  C   UNL     1      -2.108 -14.940  -2.896  1.00  0.00     0.014 A 
ATOM     11  C   UNL     1      -2.366 -16.302  -2.743  1.00  0.00     0.004 A 
ATOM     12  C   UNL     1      -1.322 -15.359  -5.154  1.00  0.00     0.014 A 
ATOM     13  C   UNL     1      -2.126 -17.196  -3.797  1.00  0.00    -0.051 A 
ATOM     14  C   UNL     1      -1.588 -16.718  -4.998  1.00  0.00     0.004 A 
ATOM     15  C   UNL     1      -2.489 -18.644  -3.646  1.00  0.00     0.044 C 
ENDBRANCH   1   9
BRANCH   6  16
ATOM     16  C   UNL     1      -0.270 -10.154  -4.646  1.00  0.00     0.153 C 
BRANCH  16  17
ATOM     17  C   UNL     1      -0.514  -8.807  -4.024  1.00  0.00    -0.029 A 
ATOM     18  C   UNL     1       0.176  -7.652  -4.408  1.00  0.00     0.006 A 
ATOM     19  C   UNL     1      -1.627  -8.682  -3.176  1.00  0.00     0.006 A 
ATOM     20  C   UNL     1      -0.259  -6.397  -3.969  1.00  0.00     0.004 A 
ATOM     21  C   UNL     1      -2.062  -7.433  -2.744  1.00  0.00     0.004 A 
ATOM     22  C   UNL     1      -1.388  -6.278  -3.145  1.00  0.00    -0.051 A 
ATOM     23  C   UNL     1      -1.944  -4.932  -2.788  1.00  0.00     0.044 C 
ENDBRANCH  16  17
ENDBRANCH   6  16
TORSDOF 3
ENDMDL
MODEL 3
REMARK VINA RESULT:    -5.606      1.046      1.384
REMARK INTER + INTRA:          -7.066
REMARK INTER:                  -6.609
REMARK INTRA:                  -0.456
REMARK UNBOUND:                -0.476
REMARK SMILES Cc1ccc(CNC(=O)NC(=O)c2ccc(C)cc2)cc1
REMARK SMILES IDX 11 1 12 2 10 3 8 4 9 5 7 6 13 9 19 10 18 11 14 12 16 13
REMARK SMILES IDX 15 14 17 15 6 16 5 17 4 18 20 19 3 20 21 21 2 22 1 23
REMARK H PARENT 10 7 7 8
ROOT
ATOM      1  C   UNL     1      -1.579 -10.860  -7.184  1.00  0.00     0.259 C 
ATOM      2  O   UNL     1      -1.779  -9.688  -6.899  1.00  0.00    -0.269 OA
ATOM      3  N   UNL     1      -1.042 -11.875  -6.386  1.00  0.00    -0.274 N 
ATOM      4  C   UNL     1      -0.772 -12.085  -5.058  1.00  0.00     0.321 C 
ATOM      5  O   UNL     1      -0.406 -13.215  -4.719  1.00  0.00    -0.248 OA
ATOM      6  N   UNL     1      -0.915 -11.138  -4.112  1.00  0.00    -0.334 N 
ATOM      7  H   UNL     1      -0.951 -12.768  -6.853  1.00  0.00     0.175 HD
ATOM      8  H   UNL     1      -0.759 -11.476  -3.173  1.00  0.00     0.165 HD
ENDROOT
BRANCH   1   9
ATOM      9  C   UNL     1      -1.951 -11.281  -8.549  1.00  0.00     0.040 A 
ATOM     10  C   UNL     1      -1.456 -10.621  -9.675  1.00  0.00     0.014 A 
ATOM     11  C   UNL     1      -1.795 -11.089 -10.945  1.00  0.00     0.004 A 
ATOM     12  C   UNL     1      -2.826 -12.363  -8.686  1.00  0.00     0.014 A 
ATOM     13  C   UNL     1      -2.631 -12.206 -11.094  1.00  0.00    -0.051 A 
ATOM     14  C   UNL     1      -3.157 -12.831  -9.956  1.00  0.00     0.004 A 
ATOM     15  C   UNL     1      -2.917 -12.748 -12.463  1.00  0.00     0.044 C 
ENDBRANCH   1   9
BRANCH   6  16
ATOM     16  C   UNL     1      -1.422  -9.805  -4.275  1.00  0.00     0.153 C 
BRANCH  16  17
ATOM     17  C   UNL     1      -0.662  -8.691  -3.610  1.00  0.00    -0.029 A 
ATOM     18  C   UNL     1      -0.294  -7.516  -4.274  1.00  0.00     0.006 A 
ATOM     19  C   UNL     1      -0.509  -8.760  -2.216  1.00  0.00     0.006 A 
ATOM     20  C   UNL     1       0.194  -6.425  -3.546  1.00  0.00     0.004 A 
ATOM     21  C   UNL     1      -0.029  -7.672  -1.493  1.00  0.00     0.004 A 
ATOM     22  C   UNL     1       0.317  -6.491  -2.151  1.00  0.00    -0.051 A 
ATOM     23  C   UNL     1       0.702  -5.282  -1.353  1.00  0.00     0.044 C 
ENDBRANCH  16  17
ENDBRANCH   6  16
TORSDOF 3
ENDMDL
MODEL 4
REMARK VINA RESULT:    -5.597      3.006      5.004
REMARK INTER + INTRA:          -7.054
REMARK INTER:                  -6.598
REMARK INTRA:                  -0.456
REMARK UNBOUND:                -0.476
REMARK SMILES Cc1ccc(CNC(=O)NC(=O)c2ccc(C)cc2)cc1
REMARK SMILES IDX 11 1 12 2 10 3 8 4 9 5 7 6 13 9 19 10 18 11 14 12 16 13
REMARK SMILES IDX 15 14 17 15 6 16 5 17 4 18 20 19 3 20 21 21 2 22 1 23
REMARK H PARENT 10 7 7 8
ROOT
ATOM      1  C   UNL     1      -1.396 -12.838  -4.273  1.00  0.00     0.259 C 
ATOM      2  O   UNL     1      -0.670 -12.310  -3.443  1.00  0.00    -0.269 OA
ATOM      3  N   UNL     1      -2.059 -12.252  -5.356  1.00  0.00    -0.274 N 
ATOM      4  C   UNL     1      -2.018 -11.069  -6.049  1.00  0.00     0.321 C 
ATOM      5  O   UNL     1      -2.702 -10.981  -7.074  1.00  0.00    -0.248 OA
ATOM      6  N   UNL     1      -1.254 -10.021  -5.689  1.00  0.00    -0.334 N 
ATOM      7  H   UNL     1      -2.625 -12.893  -5.895  1.00  0.00     0.175 HD
ATOM      8  H   UNL     1      -1.271  -9.258  -6.350  1.00  0.00     0.165 HD
ENDROOT
BRANCH   1   9
ATOM      9  C   UNL     1      -1.612 -14.291  -4.133  1.00  0.00     0.040 A 
ATOM     10  C   UNL     1      -2.081 -14.846  -2.941  1.00  0.00     0.014 A 
ATOM     11  C   UNL     1      -2.319 -16.219  -2.873  1.00  0.00     0.004 A 
ATOM     12  C   UNL     1      -1.324 -15.106  -5.232  1.00  0.00     0.014 A 
ATOM     13  C   UNL     1      -2.083 -17.039  -3.987  1.00  0.00    -0.051 A 
ATOM     14  C   UNL     1      -1.570 -16.476  -5.162  1.00  0.00     0.004 A 
ATOM     15  C   UNL     1      -2.424 -18.499  -3.925  1.00  0.00     0.044 C 
ENDBRANCH   1   9
BRANCH   6  16
ATOM     16  C   UNL     1      -0.317  -9.953  -4.603  1.00  0.00     0.153 C 
BRANCH  16  17
ATOM     17  C   UNL     1      -0.351  -8.722  -3.739  1.00  0.00    -0.029 A 
ATOM     18  C   UNL     1      -0.361  -8.771  -2.342  1.00  0.00     0.006 A 
ATOM     19  C   UNL     1      -0.150  -7.485  -4.374  1.00  0.00     0.006 A 
ATOM     20  C   UNL     1      -0.150  -7.604  -1.599  1.00  0.00     0.004 A 
ATOM     21  C   UNL     1       0.065  -6.327  -3.634  1.00  0.00     0.004 A 
ATOM     22  C   UNL     1       0.077  -6.378  -2.239  1.00  0.00    -0.051 A 
ATOM     23  C   UNL     1       0.445  -5.154  -1.455  1.00  0.00     0.044 C 
ENDBRANCH  16  17
ENDBRANCH   6  16
TORSDOF 3
ENDMDL
MODEL 5
REMARK VINA RESULT:    -5.368      2.980      7.446
REMARK INTER + INTRA:          -6.786
REMARK INTER:                  -6.201
REMARK INTRA:                  -0.585
REMARK UNBOUND:                -0.476
REMARK SMILES Cc1ccc(CNC(=O)NC(=O)c2ccc(C)cc2)cc1
REMARK SMILES IDX 11 1 12 2 10 3 8 4 9 5 7 6 13 9 19 10 18 11 14 12 16 13
REMARK SMILES IDX 15 14 17 15 6 16 5 17 4 18 20 19 3 20 21 21 2 22 1 23
REMARK H PARENT 10 7 7 8
ROOT
ATOM      1  C   UNL     1      -0.543  -9.981  -4.648  1.00  0.00     0.259 C 
ATOM      2  O   UNL     1       0.280 -10.873  -4.497  1.00  0.00    -0.269 OA
ATOM      3  N   UNL     1      -1.649  -9.947  -5.503  1.00  0.00    -0.274 N 
ATOM      4  C   UNL     1      -2.374 -10.833  -6.259  1.00  0.00     0.321 C 
ATOM      5  O   UNL     1      -3.408 -10.419  -6.793  1.00  0.00    -0.248 OA
ATOM      6  N   UNL     1      -2.034 -12.125  -6.420  1.00  0.00    -0.334 N 
ATOM      7  H   UNL     1      -2.177  -9.085  -5.468  1.00  0.00     0.175 HD
ATOM      8  H   UNL     1      -2.717 -12.664  -6.934  1.00  0.00     0.165 HD
ENDROOT
BRANCH   1   9
ATOM      9  C   UNL     1      -0.366  -8.771  -3.822  1.00  0.00     0.040 A 
ATOM     10  C   UNL     1      -0.398  -8.831  -2.428  1.00  0.00     0.014 A 
ATOM     11  C   UNL     1      -0.173  -7.669  -1.688  1.00  0.00     0.004 A 
ATOM     12  C   UNL     1      -0.170  -7.552  -4.477  1.00  0.00     0.014 A 
ATOM     13  C   UNL     1       0.076  -6.450  -2.336  1.00  0.00    -0.051 A 
ATOM     14  C   UNL     1       0.061  -6.395  -3.735  1.00  0.00     0.004 A 
ATOM     15  C   UNL     1       0.401  -5.228  -1.528  1.00  0.00     0.044 C 
ENDBRANCH   1   9
BRANCH   6  16
ATOM     16  C   UNL     1      -0.941 -12.826  -5.809  1.00  0.00     0.153 C 
BRANCH  16  17
ATOM     17  C   UNL     1      -1.280 -13.965  -4.888  1.00  0.00    -0.029 A 
ATOM     18  C   UNL     1      -1.625 -13.784  -3.545  1.00  0.00     0.006 A 
ATOM     19  C   UNL     1      -1.458 -15.231  -5.469  1.00  0.00     0.006 A 
ATOM     20  C   UNL     1      -2.161 -14.847  -2.810  1.00  0.00     0.004 A 
ATOM     21  C   UNL     1      -1.995 -16.286  -4.739  1.00  0.00     0.004 A 
ATOM     22  C   UNL     1      -2.361 -16.100  -3.405  1.00  0.00    -0.051 A 
ATOM     23  C   UNL     1      -3.064 -17.201  -2.668  1.00  0.00     0.044 C 
ENDBRANCH  16  17
ENDBRANCH   6  16
TORSDOF 3
ENDMDL
MODEL 6
REMARK VINA RESULT:    -5.365      1.357      7.605
REMARK INTER + INTRA:          -6.783
REMARK INTER:                  -6.194
REMARK INTRA:                  -0.589
REMARK UNBOUND:                -0.476
REMARK SMILES Cc1ccc(CNC(=O)NC(=O)c2ccc(C)cc2)cc1
REMARK SMILES IDX 11 1 12 2 10 3 8 4 9 5 7 6 13 9 19 10 18 11 14 12 16 13
REMARK SMILES IDX 15 14 17 15 6 16 5 17 4 18 20 19 3 20 21 21 2 22 1 23
REMARK H PARENT 10 7 7 8
ROOT
ATOM      1  C   UNL     1      -1.253  -9.972  -4.341  1.00  0.00     0.259 C 
ATOM      2  O   UNL     1      -2.300  -9.783  -4.944  1.00  0.00    -0.269 OA
ATOM      3  N   UNL     1      -0.500 -11.147  -4.240  1.00  0.00    -0.274 N 
ATOM      4  C   UNL     1      -0.436 -12.366  -4.865  1.00  0.00     0.321 C 
ATOM      5  O   UNL     1       0.496 -13.118  -4.560  1.00  0.00    -0.248 OA
ATOM      6  N   UNL     1      -1.311 -12.767  -5.806  1.00  0.00    -0.334 N 
ATOM      7  H   UNL     1       0.326 -11.065  -3.663  1.00  0.00     0.175 HD
ATOM      8  H   UNL     1      -1.075 -13.653  -6.229  1.00  0.00     0.165 HD
ENDROOT
BRANCH   1   9
ATOM      9  C   UNL     1      -0.687  -8.816  -3.620  1.00  0.00     0.040 A 
ATOM     10  C   UNL     1      -0.300  -7.656  -4.294  1.00  0.00     0.014 A 
ATOM     11  C   UNL     1       0.180  -6.569  -3.564  1.00  0.00     0.004 A 
ATOM     12  C   UNL     1      -0.542  -8.913  -2.233  1.00  0.00     0.014 A 
ATOM     13  C   UNL     1       0.281  -6.638  -2.166  1.00  0.00    -0.051 A 
ATOM     14  C   UNL     1      -0.069  -7.822  -1.507  1.00  0.00     0.004 A 
ATOM     15  C   UNL     1       0.718  -5.432  -1.388  1.00  0.00     0.044 C 
ENDBRANCH   1   9
BRANCH   6  16
ATOM     16  C   UNL     1      -2.393 -12.013  -6.375  1.00  0.00     0.153 C 
BRANCH  16  17
ATOM     17  C   UNL     1      -2.318 -11.698  -7.843  1.00  0.00    -0.029 A 
ATOM     18  C   UNL     1      -1.568 -10.637  -8.359  1.00  0.00     0.006 A 
ATOM     19  C   UNL     1      -2.857 -12.643  -8.731  1.00  0.00     0.006 A 
ATOM     20  C   UNL     1      -1.344 -10.542  -9.737  1.00  0.00     0.004 A 
ATOM     21  C   UNL     1      -2.629 -12.551 -10.101  1.00  0.00     0.004 A 
ATOM     22  C   UNL     1      -1.862 -11.504 -10.615  1.00  0.00    -0.051 A 
ATOM     23  C   UNL     1      -1.508 -11.489 -12.072  1.00  0.00     0.044 C 
ENDBRANCH  16  17
ENDBRANCH   6  16
TORSDOF 3
ENDMDL
MODEL 7
REMARK VINA RESULT:    -5.268      0.596      7.995
REMARK INTER + INTRA:          -6.668
REMARK INTER:                  -6.272
REMARK INTRA:                  -0.396
REMARK UNBOUND:                -0.476
REMARK SMILES Cc1ccc(CNC(=O)NC(=O)c2ccc(C)cc2)cc1
REMARK SMILES IDX 11 1 12 2 10 3 8 4 9 5 7 6 13 9 19 10 18 11 14 12 16 13
REMARK SMILES IDX 15 14 17 15 6 16 5 17 4 18 20 19 3 20 21 21 2 22 1 23
REMARK H PARENT 10 7 7 8
ROOT
ATOM      1  C   UNL     1      -0.942  -9.819  -4.814  1.00  0.00     0.259 C 
ATOM      2  O   UNL     1      -1.339  -9.148  -5.756  1.00  0.00    -0.269 OA
ATOM      3  N   UNL     1      -1.162 -11.175  -4.552  1.00  0.00    -0.274 N 
ATOM      4  C   UNL     1      -1.620 -12.277  -5.228  1.00  0.00     0.321 C 
ATOM      5  O   UNL     1      -1.534 -13.373  -4.664  1.00  0.00    -0.248 OA
ATOM      6  N   UNL     1      -2.126 -12.227  -6.475  1.00  0.00    -0.334 N 
ATOM      7  H   UNL     1      -0.747 -11.506  -3.691  1.00  0.00     0.175 HD
ATOM      8  H   UNL     1      -2.339 -13.135  -6.863  1.00  0.00     0.165 HD
ENDROOT
BRANCH   1   9
ATOM      9  C   UNL     1      -0.114  -9.124  -3.810  1.00  0.00     0.040 A 
ATOM     10  C   UNL     1      -0.555  -8.952  -2.496  1.00  0.00     0.014 A 
ATOM     11  C   UNL     1       0.285  -8.335  -1.569  1.00  0.00     0.004 A 
ATOM     12  C   UNL     1       1.132  -8.633  -4.212  1.00  0.00     0.014 A 
ATOM     13  C   UNL     1       1.558  -7.884  -1.949  1.00  0.00    -0.051 A 
ATOM     14  C   UNL     1       1.970  -8.023  -3.280  1.00  0.00     0.004 A 
ATOM     15  C   UNL     1       2.482  -7.300  -0.921  1.00  0.00     0.044 C 
ENDBRANCH   1   9
BRANCH   6  16
ATOM     16  C   UNL     1      -2.219 -11.084  -7.338  1.00  0.00     0.153 C 
BRANCH  16  17
ATOM     17  C   UNL     1      -2.227 -11.338  -8.820  1.00  0.00    -0.029 A 
ATOM     18  C   UNL     1      -1.452 -10.604  -9.724  1.00  0.00     0.006 A 
ATOM     19  C   UNL     1      -2.882 -12.495  -9.271  1.00  0.00     0.006 A 
ATOM     20  C   UNL     1      -1.319 -11.040 -11.047  1.00  0.00     0.004 A 
ATOM     21  C   UNL     1      -2.745 -12.931 -10.585  1.00  0.00     0.004 A 
ATOM     22  C   UNL     1      -1.954 -12.212 -11.482  1.00  0.00    -0.051 A 
ATOM     23  C   UNL     1      -1.701 -12.762 -12.854  1.00  0.00     0.044 C 
ENDBRANCH  16  17
ENDBRANCH   6  16
TORSDOF 3
ENDMDL
MODEL 8
REMARK VINA RESULT:    -4.866      2.903      5.090
REMARK INTER + INTRA:          -6.195
REMARK INTER:                  -5.635
REMARK INTRA:                  -0.561
REMARK UNBOUND:                -0.476
REMARK SMILES Cc1ccc(CNC(=O)NC(=O)c2ccc(C)cc2)cc1
REMARK SMILES IDX 11 1 12 2 10 3 8 4 9 5 7 6 13 9 19 10 18 11 14 12 16 13
REMARK SMILES IDX 15 14 17 15 6 16 5 17 4 18 20 19 3 20 21 21 2 22 1 23
REMARK H PARENT 10 7 7 8
ROOT
ATOM      1  C   UNL     1      -1.895 -11.747  -7.250  1.00  0.00     0.259 C 
ATOM      2  O   UNL     1      -2.847 -12.225  -6.650  1.00  0.00    -0.269 OA
ATOM      3  N   UNL     1      -0.683 -11.276  -6.736  1.00  0.00    -0.274 N 
ATOM      4  C   UNL     1       0.013 -11.348  -5.556  1.00  0.00     0.321 C 
ATOM      5  O   UNL     1       1.162 -10.892  -5.540  1.00  0.00    -0.248 OA
ATOM      6  N   UNL     1      -0.476 -11.912  -4.436  1.00  0.00    -0.334 N 
ATOM      7  H   UNL     1      -0.051 -10.903  -7.432  1.00  0.00     0.175 HD
ATOM      8  H   UNL     1       0.192 -11.961  -3.681  1.00  0.00     0.165 HD
ENDROOT
BRANCH   1   9
ATOM      9  C   UNL     1      -2.020 -11.650  -8.717  1.00  0.00     0.040 A 
ATOM     10  C   UNL     1      -1.310 -10.695  -9.447  1.00  0.00     0.014 A 
ATOM     11  C   UNL     1      -1.421 -10.676 -10.837  1.00  0.00     0.004 A 
ATOM     12  C   UNL     1      -2.882 -12.542  -9.363  1.00  0.00     0.014 A 
ATOM     13  C   UNL     1      -2.242 -11.600 -11.500  1.00  0.00    -0.051 A 
ATOM     14  C   UNL     1      -2.984 -12.524 -10.753  1.00  0.00     0.004 A 
ATOM     15  C   UNL     1      -2.285 -11.622 -12.999  1.00  0.00     0.044 C 
ENDBRANCH   1   9
BRANCH   6  16
ATOM     16  C   UNL     1      -1.733 -12.585  -4.272  1.00  0.00     0.153 C 
BRANCH  16  17
ATOM     17  C   UNL     1      -1.694 -14.069  -4.030  1.00  0.00    -0.029 A 
ATOM     18  C   UNL     1      -2.180 -14.665  -2.862  1.00  0.00     0.006 A 
ATOM     19  C   UNL     1      -1.347 -14.888  -5.117  1.00  0.00     0.006 A 
ATOM     20  C   UNL     1      -2.337 -16.054  -2.798  1.00  0.00     0.004 A 
ATOM     21  C   UNL     1      -1.508 -16.269  -5.053  1.00  0.00     0.004 A 
ATOM     22  C   UNL     1      -2.015 -16.863  -3.897  1.00  0.00    -0.051 A 
ATOM     23  C   UNL     1      -2.314 -18.332  -3.887  1.00  0.00     0.044 C 
ENDBRANCH  16  17
ENDBRANCH   6  16
TORSDOF 3
ENDMDL
MODEL 9
REMARK VINA RESULT:    -4.843      2.728      7.970
REMARK INTER + INTRA:          -6.168
REMARK INTER:                  -5.781
REMARK INTRA:                  -0.388
REMARK UNBOUND:                -0.476
REMARK SMILES Cc1ccc(CNC(=O)NC(=O)c2ccc(C)cc2)cc1
REMARK SMILES IDX 11 1 12 2 10 3 8 4 9 5 7 6 13 9 19 10 18 11 14 12 16 13
REMARK SMILES IDX 15 14 17 15 6 16 5 17 4 18 20 19 3 20 21 21 2 22 1 23
REMARK H PARENT 10 7 7 8
ROOT
ATOM      1  C   UNL     1      -0.744 -10.038  -4.354  1.00  0.00     0.259 C 
ATOM      2  O   UNL     1      -0.554 -11.092  -3.764  1.00  0.00    -0.269 OA
ATOM      3  N   UNL     1      -1.185  -9.836  -5.665  1.00  0.00    -0.274 N 
ATOM      4  C   UNL     1      -1.766 -10.574  -6.664  1.00  0.00     0.321 C 
ATOM      5  O   UNL     1      -2.142  -9.974  -7.677  1.00  0.00    -0.248 OA
ATOM      6  N   UNL     1      -1.973 -11.902  -6.584  1.00  0.00    -0.334 N 
ATOM      7  H   UNL     1      -1.246  -8.864  -5.940  1.00  0.00     0.175 HD
ATOM      8  H   UNL     1      -2.488 -12.281  -7.365  1.00  0.00     0.165 HD
ENDROOT
BRANCH   1   9
ATOM      9  C   UNL     1      -0.483  -8.800  -3.594  1.00  0.00     0.040 A 
ATOM     10  C   UNL     1      -0.449  -8.795  -2.198  1.00  0.00     0.014 A 
ATOM     11  C   UNL     1      -0.146  -7.611  -1.526  1.00  0.00     0.004 A 
ATOM     12  C   UNL     1      -0.277  -7.619  -4.314  1.00  0.00     0.014 A 
ATOM     13  C   UNL     1       0.114  -6.432  -2.240  1.00  0.00    -0.051 A 
ATOM     14  C   UNL     1       0.031  -6.440  -3.638  1.00  0.00     0.004 A 
ATOM     15  C   UNL     1       0.520  -5.188  -1.507  1.00  0.00     0.044 C 
ENDBRANCH   1   9
BRANCH   6  16
ATOM     16  C   UNL     1      -1.709 -12.764  -5.466  1.00  0.00     0.153 C 
BRANCH  16  17
ATOM     17  C   UNL     1      -1.640 -14.241  -5.735  1.00  0.00    -0.029 A 
ATOM     18  C   UNL     1      -1.419 -15.191  -4.732  1.00  0.00     0.006 A 
ATOM     19  C   UNL     1      -2.024 -14.681  -7.013  1.00  0.00     0.006 A 
ATOM     20  C   UNL     1      -1.605 -16.551  -5.002  1.00  0.00     0.004 A 
ATOM     21  C   UNL     1      -2.214 -16.033  -7.278  1.00  0.00     0.004 A 
ATOM     22  C   UNL     1      -2.015 -16.980  -6.272  1.00  0.00    -0.051 A 
ATOM     23  C   UNL     1      -2.354 -18.418  -6.529  1.00  0.00     0.044 C 
ENDBRANCH  16  17
ENDBRANCH   6  16
TORSDOF 3
ENDMDL
