MODEL 1
REMARK VINA RESULT:    -6.156      0.000      0.000
REMARK INTER + INTRA:          -7.724
REMARK INTER:                  -7.235
REMARK INTRA:                  -0.489
REMARK UNBOUND:                -0.489
REMARK SMILES Cc1ccc(CNC(=O)NC(=O)c2ccc(C)cc2)cc1
REMARK SMILES IDX 11 1 12 2 10 3 8 4 9 5 7 6 13 9 19 10 18 11 14 12 16 13
REMARK SMILES IDX 15 14 17 15 6 16 5 17 4 18 20 19 3 20 21 21 2 22 1 23
REMARK H PARENT 10 7 7 8
ROOT
ATOM      1  C   UNL     1     -10.716  -6.069   6.305  1.00  0.00     0.259 C 
ATOM      2  O   UNL     1      -9.515  -5.841   6.288  1.00  0.00    -0.269 OA
ATOM      3  N   UNL     1     -11.703  -5.634   5.414  1.00  0.00    -0.274 N 
ATOM      4  C   UNL     1     -11.763  -5.065   4.168  1.00  0.00     0.321 C 
ATOM      5  O   UNL     1     -12.876  -4.950   3.644  1.00  0.00    -0.248 OA
ATOM      6  N   UNL     1     -10.679  -4.658   3.482  1.00  0.00    -0.334 N 
ATOM      7  H   UNL     1     -12.639  -5.936   5.649  1.00  0.00     0.175 HD
ATOM      8  H   UNL     1     -10.885  -4.341   2.546  1.00  0.00     0.165 HD
ENDROOT
BRANCH   1   9
ATOM      9  C   UNL     1     -11.211  -6.920   7.404  1.00  0.00     0.040 A 
ATOM     10  C   UNL     1     -10.704  -6.803   8.700  1.00  0.00     0.014 A 
ATOM     11  C   UNL     1     -11.240  -7.593   9.718  1.00  0.00     0.004 A 
ATOM     12  C   UNL     1     -12.204  -7.859   7.112  1.00  0.00     0.014 A 
ATOM     13  C   UNL     1     -12.273  -8.502   9.445  1.00  0.00    -0.051 A 
ATOM     14  C   UNL     1     -12.741  -8.641   8.132  1.00  0.00     0.004 A 
ATOM     15  C   UNL     1     -12.896  -9.282  10.564  1.00  0.00     0.044 C 
ENDBRANCH   1   9
BRANCH   6  16
ATOM     16  C   UNL     1      -9.301  -4.794   3.861  1.00  0.00     0.153 C 
BRANCH  16  17
ATOM     17  C   UNL     1      -8.400  -3.614   3.623  1.00  0.00    -0.029 A 
ATOM     18  C   UNL     1      -7.770  -3.370   2.398  1.00  0.00     0.006 A 
ATOM     19  C   UNL     1      -8.370  -2.617   4.612  1.00  0.00     0.006 A 
ATOM     20  C   UNL     1      -7.145  -2.140   2.165  1.00  0.00     0.004 A 
ATOM     21  C   UNL     1      -7.753  -1.393   4.377  1.00  0.00     0.004 A 
ATOM     22  C   UNL     1      -7.143  -1.140   3.147  1.00  0.00    -0.051 A 
ATOM     23  C   UNL     1      -6.603   0.228   2.854  1.00  0.00     0.044 C 
ENDBRANCH  16  17
ENDBRANCH   6  16
TORSDOF 3
ENDMDL
MODEL 2
REMARK VINA RESULT:    -6.143      3.017      5.440
REMARK INTER + INTRA:          -7.709
REMARK INTER:                  -7.218
REMARK INTRA:                  -0.492
REMARK UNBOUND:                -0.489
REMARK SMILES Cc1ccc(CNC(=O)NC(=O)c2ccc(C)cc2)cc1
REMARK SMILES IDX 11 1 12 2 10 3 8 4 9 5 7 6 13 9 19 10 18 11 14 12 16 13
REMARK SMILES IDX 15 14 17 15 6 16 5 17 4 18 20 19 3 20 21 21 2 22 1 23
REMARK H PARENT 10 7 7 8
ROOT
ATOM      1  C   UNL     1     -12.294  -4.620   3.441  1.00  0.00     0.259 C 
ATOM      2  O   UNL     1     -11.515  -3.874   2.866  1.00  0.00    -0.269 OA
ATOM      3  N   UNL     1     -12.068  -5.431   4.558  1.00  0.00    -0.274 N 
ATOM      4  C   UNL     1     -11.116  -5.567   5.535  1.00  0.00     0.321 C 
ATOM      5  O   UNL     1     -11.353  -6.348   6.463  1.00  0.00    -0.248 OA
ATOM      6  N   UNL     1      -9.961  -4.875   5.550  1.00  0.00    -0.334 N 
ATOM      7  H   UNL     1     -12.867  -5.982   4.842  1.00  0.00     0.175 HD
ATOM      8  H   UNL     1      -9.408  -5.025   6.382  1.00  0.00     0.165 HD
ENDROOT
BRANCH   1   9
ATOM      9  C   UNL     1     -13.667  -4.683   2.903  1.00  0.00     0.040 A 
ATOM     10  C   UNL     1     -13.910  -4.685   1.528  1.00  0.00     0.014 A 
ATOM     11  C   UNL     1     -15.222  -4.800   1.067  1.00  0.00     0.004 A 
ATOM     12  C   UNL     1     -14.728  -4.734   3.813  1.00  0.00     0.014 A 
ATOM     13  C   UNL     1     -16.289  -4.903   1.971  1.00  0.00    -0.051 A 
ATOM     14  C   UNL     1     -16.035  -4.854   3.347  1.00  0.00     0.004 A 
ATOM     15  C   UNL     1     -17.684  -5.111   1.459  1.00  0.00     0.044 C 
ENDBRANCH   1   9
BRANCH   6  16
ATOM     16  C   UNL     1      -9.540  -3.853   4.634  1.00  0.00     0.153 C 
BRANCH  16  17
ATOM     17  C   UNL     1      -8.113  -3.896   4.161  1.00  0.00    -0.029 A 
ATOM     18  C   UNL     1      -7.057  -3.314   4.869  1.00  0.00     0.006 A 
ATOM     19  C   UNL     1      -7.821  -4.736   3.075  1.00  0.00     0.006 A 
ATOM     20  C   UNL     1      -5.734  -3.592   4.507  1.00  0.00     0.004 A 
ATOM     21  C   UNL     1      -6.505  -5.016   2.719  1.00  0.00     0.004 A 
ATOM     22  C   UNL     1      -5.450  -4.454   3.439  1.00  0.00    -0.051 A 
ATOM     23  C   UNL     1      -4.041  -4.869   3.136  1.00  0.00     0.044 C 
ENDBRANCH  16  17
ENDBRANCH   6  16
TORSDOF 3
ENDMDL
MODEL 3
REMARK VINA RESULT:    -6.124      0.555      7.992
REMARK INTER + INTRA:          -7.686
REMARK INTER:                  -7.296
REMARK INTRA:                  -0.390
REMARK UNBOUND:                -0.489
REMARK SMILES Cc1ccc(CNC(=O)NC(=O)c2ccc(C)cc2)cc1
REMARK SMILES IDX 11 1 12 2 10 3 8 4 9 5 7 6 13 9 19 10 18 11 14 12 16 13
REMARK SMILES IDX 15 14 17 15 6 16 5 17 4 18 20 19 3 20 21 21 2 22 1 23
REMARK H PARENT 10 7 7 8
ROOT
ATOM      1  C   UNL     1      -9.381  -4.359   4.440  1.00  0.00     0.259 C 
ATOM      2  O   UNL     1      -8.790  -5.185   5.122  1.00  0.00    -0.269 OA
ATOM      3  N   UNL     1     -10.724  -4.346   4.050  1.00  0.00    -0.274 N 
ATOM      4  C   UNL     1     -11.885  -4.990   4.393  1.00  0.00     0.321 C 
ATOM      5  O   UNL     1     -12.937  -4.584   3.886  1.00  0.00    -0.248 OA
ATOM      6  N   UNL     1     -11.940  -6.010   5.269  1.00  0.00    -0.334 N 
ATOM      7  H   UNL     1     -10.980  -3.564   3.462  1.00  0.00     0.175 HD
ATOM      8  H   UNL     1     -12.879  -6.317   5.478  1.00  0.00     0.165 HD
ENDROOT
BRANCH   1   9
ATOM      9  C   UNL     1      -8.588  -3.212   3.958  1.00  0.00     0.040 A 
ATOM     10  C   UNL     1      -8.108  -3.158   2.648  1.00  0.00     0.014 A 
ATOM     11  C   UNL     1      -7.408  -2.029   2.222  1.00  0.00     0.004 A 
ATOM     12  C   UNL     1      -8.322  -2.174   4.856  1.00  0.00     0.014 A 
ATOM     13  C   UNL     1      -7.180  -0.959   3.101  1.00  0.00    -0.051 A 
ATOM     14  C   UNL     1      -7.629  -1.045   4.424  1.00  0.00     0.004 A 
ATOM     15  C   UNL     1      -6.501   0.283   2.604  1.00  0.00     0.044 C 
ENDBRANCH   1   9
BRANCH   6  16
ATOM     16  C   UNL     1     -10.862  -6.561   6.041  1.00  0.00     0.153 C 
BRANCH  16  17
ATOM     17  C   UNL     1     -11.215  -7.226   7.342  1.00  0.00    -0.029 A 
ATOM     18  C   UNL     1     -10.700  -6.813   8.575  1.00  0.00     0.006 A 
ATOM     19  C   UNL     1     -12.263  -8.160   7.323  1.00  0.00     0.006 A 
ATOM     20  C   UNL     1     -11.247  -7.309   9.763  1.00  0.00     0.004 A 
ATOM     21  C   UNL     1     -12.809  -8.649   8.505  1.00  0.00     0.004 A 
ATOM     22  C   UNL     1     -12.312  -8.220   9.737  1.00  0.00    -0.051 A 
ATOM     23  C   UNL     1     -12.995  -8.646  11.002  1.00  0.00     0.044 C 
ENDBRANCH  16  17
ENDBRANCH   6  16
TORSDOF 3
ENDMDL
MODEL 4
REMARK VINA RESULT:    -6.092      3.140      7.309
REMARK INTER + INTRA:          -7.649
REMARK INTER:                  -7.263
REMARK INTRA:                  -0.386
REMARK UNBOUND:                -0.489
REMARK SMILES Cc1ccc(CNC(=O)NC(=O)c2ccc(C)cc2)cc1
REMARK SMILES IDX 11 1 12 2 10 3 8 4 9 5 7 6 13 9 19 10 18 11 14 12 16 13
REMARK SMILES IDX 15 14 17 15 6 16 5 17 4 18 20 19 3 20 21 21 2 22 1 23
REMARK H PARENT 10 7 7 8
ROOT
ATOM      1  C   UNL     1      -9.513  -4.344   4.066  1.00  0.00     0.259 C 
ATOM      2  O   UNL     1     -10.136  -3.531   3.397  1.00  0.00    -0.269 OA
ATOM      3  N   UNL     1      -9.998  -5.260   5.005  1.00  0.00    -0.274 N 
ATOM      4  C   UNL     1     -11.210  -5.784   5.376  1.00  0.00     0.321 C 
ATOM      5  O   UNL     1     -11.207  -6.709   6.196  1.00  0.00    -0.248 OA
ATOM      6  N   UNL     1     -12.387  -5.367   4.875  1.00  0.00    -0.334 N 
ATOM      7  H   UNL     1      -9.283  -5.819   5.451  1.00  0.00     0.175 HD
ATOM      8  H   UNL     1     -13.178  -5.912   5.186  1.00  0.00     0.165 HD
ENDROOT
BRANCH   1   9
ATOM      9  C   UNL     1      -8.052  -4.383   3.867  1.00  0.00     0.040 A 
ATOM     10  C   UNL     1      -7.178  -3.765   4.764  1.00  0.00     0.014 A 
ATOM     11  C   UNL     1      -5.802  -3.873   4.562  1.00  0.00     0.004 A 
ATOM     12  C   UNL     1      -7.560  -5.054   2.743  1.00  0.00     0.014 A 
ATOM     13  C   UNL     1      -5.296  -4.589   3.466  1.00  0.00    -0.051 A 
ATOM     14  C   UNL     1      -6.184  -5.165   2.549  1.00  0.00     0.004 A 
ATOM     15  C   UNL     1      -3.815  -4.768   3.310  1.00  0.00     0.044 C 
ENDBRANCH   1   9
BRANCH   6  16
ATOM     16  C   UNL     1     -12.603  -4.388   3.847  1.00  0.00     0.153 C 
BRANCH  16  17
ATOM     17  C   UNL     1     -13.874  -4.494   3.050  1.00  0.00    -0.029 A 
ATOM     18  C   UNL     1     -13.893  -4.624   1.657  1.00  0.00     0.006 A 
ATOM     19  C   UNL     1     -15.068  -4.680   3.765  1.00  0.00     0.006 A 
ATOM     20  C   UNL     1     -15.082  -4.959   1.002  1.00  0.00     0.004 A 
ATOM     21  C   UNL     1     -16.250  -5.017   3.112  1.00  0.00     0.004 A 
ATOM     22  C   UNL     1     -16.265  -5.170   1.725  1.00  0.00    -0.051 A 
ATOM     23  C   UNL     1     -17.506  -5.667   1.046  1.00  0.00     0.044 C 
ENDBRANCH  16  17
ENDBRANCH   6  16
TORSDOF 3
ENDMDL
MODEL 5
REMARK VINA RESULT:    -5.801      2.972      5.125
REMARK INTER + INTRA:          -7.307
REMARK INTER:                  -6.846
REMARK INTRA:                  -0.461
REMARK UNBOUND:                -0.489
REMARK SMILES Cc1ccc(CNC(=O)NC(=O)c2ccc(C)cc2)cc1
REMARK SMILES IDX 11 1 12 2 10 3 8 4 9 5 7 6 13 9 19 10 18 11 14 12 16 13
REMARK SMILES IDX 15 14 17 15 6 16 5 17 4 18 20 19 3 20 21 21 2 22 1 23
REMARK H PARENT 10 7 7 8
ROOT
ATOM      1  C   UNL     1     -12.325  -4.457   3.358  1.00  0.00     0.259 C 
ATOM      2  O   UNL     1     -11.696  -3.516   2.895  1.00  0.00    -0.269 OA
ATOM      3  N   UNL     1     -11.909  -5.416   4.287  1.00  0.00    -0.274 N 
ATOM      4  C   UNL     1     -10.875  -5.589   5.171  1.00  0.00     0.321 C 
ATOM      5  O   UNL     1     -10.937  -6.550   5.945  1.00  0.00    -0.248 OA
ATOM      6  N   UNL     1      -9.823  -4.754   5.257  1.00  0.00    -0.334 N 
ATOM      7  H   UNL     1     -12.606  -6.116   4.503  1.00  0.00     0.175 HD
ATOM      8  H   UNL     1      -9.192  -4.972   6.016  1.00  0.00     0.165 HD
ENDROOT
BRANCH   1   9
ATOM      9  C   UNL     1     -13.715  -4.616   2.889  1.00  0.00     0.040 A 
ATOM     10  C   UNL     1     -14.027  -4.636   1.528  1.00  0.00     0.014 A 
ATOM     11  C   UNL     1     -15.349  -4.841   1.132  1.00  0.00     0.004 A 
ATOM     12  C   UNL     1     -14.723  -4.740   3.851  1.00  0.00     0.014 A 
ATOM     13  C   UNL     1     -16.359  -5.019   2.089  1.00  0.00    -0.051 A 
ATOM     14  C   UNL     1     -16.041  -4.952   3.451  1.00  0.00     0.004 A 
ATOM     15  C   UNL     1     -17.760  -5.324   1.647  1.00  0.00     0.044 C 
ENDBRANCH   1   9
BRANCH   6  16
ATOM     16  C   UNL     1      -9.610  -3.534   4.531  1.00  0.00     0.153 C 
BRANCH  16  17
ATOM     17  C   UNL     1      -8.250  -3.319   3.927  1.00  0.00    -0.029 A 
ATOM     18  C   UNL     1      -8.059  -2.847   2.624  1.00  0.00     0.006 A 
ATOM     19  C   UNL     1      -7.144  -3.399   4.789  1.00  0.00     0.006 A 
ATOM     20  C   UNL     1      -6.787  -2.441   2.206  1.00  0.00     0.004 A 
ATOM     21  C   UNL     1      -5.880  -2.990   4.373  1.00  0.00     0.004 A 
ATOM     22  C   UNL     1      -5.693  -2.497   3.081  1.00  0.00    -0.051 A 
ATOM     23  C   UNL     1      -4.361  -1.932   2.688  1.00  0.00     0.044 C 
ENDBRANCH  16  17
ENDBRANCH   6  16
TORSDOF 3
ENDMDL
MODEL 6
REMARK VINA RESULT:    -5.295      3.101      7.561
REMARK INTER + INTRA:          -6.712
REMARK INTER:                  -6.201
REMARK INTRA:                  -0.511
REMARK UNBOUND:                -0.489
REMARK SMILES Cc1ccc(CNC(=O)NC(=O)c2ccc(C)cc2)cc1
REMARK SMILES IDX 11 1 12 2 10 3 8 4 9 5 7 6 13 9 19 10 18 11 14 12 16 13
REMARK SMILES IDX 15 14 17 15 6 16 5 17 4 18 20 19 3 20 21 21 2 22 1 23
REMARK H PARENT 10 7 7 8
ROOT
ATOM      1  C   UNL     1      -9.364  -3.740   4.195  1.00  0.00     0.259 C 
ATOM      2  O   UNL     1     -10.245  -2.894   4.123  1.00  0.00    -0.269 OA
ATOM      3  N   UNL     1      -9.458  -5.067   4.628  1.00  0.00    -0.274 N 
ATOM      4  C   UNL     1     -10.447  -5.981   4.885  1.00  0.00     0.321 C 
ATOM      5  O   UNL     1     -10.104  -7.142   5.132  1.00  0.00    -0.248 OA
ATOM      6  N   UNL     1     -11.760  -5.686   4.853  1.00  0.00    -0.334 N 
ATOM      7  H   UNL     1      -8.582  -5.571   4.618  1.00  0.00     0.175 HD
ATOM      8  H   UNL     1     -12.360  -6.488   4.980  1.00  0.00     0.165 HD
ENDROOT
BRANCH   1   9
ATOM      9  C   UNL     1      -8.014  -3.326   3.768  1.00  0.00     0.040 A 
ATOM     10  C   UNL     1      -7.800  -2.699   2.539  1.00  0.00     0.014 A 
ATOM     11  C   UNL     1      -6.513  -2.278   2.201  1.00  0.00     0.004 A 
ATOM     12  C   UNL     1      -6.944  -3.586   4.629  1.00  0.00     0.014 A 
ATOM     13  C   UNL     1      -5.441  -2.488   3.081  1.00  0.00    -0.051 A 
ATOM     14  C   UNL     1      -5.661  -3.158   4.290  1.00  0.00     0.004 A 
ATOM     15  C   UNL     1      -4.080  -1.954   2.741  1.00  0.00     0.044 C 
ENDBRANCH   1   9
BRANCH   6  16
ATOM     16  C   UNL     1     -12.369  -4.438   4.489  1.00  0.00     0.153 C 
BRANCH  16  17
ATOM     17  C   UNL     1     -13.464  -4.478   3.460  1.00  0.00    -0.029 A 
ATOM     18  C   UNL     1     -13.217  -4.508   2.083  1.00  0.00     0.006 A 
ATOM     19  C   UNL     1     -14.771  -4.706   3.920  1.00  0.00     0.006 A 
ATOM     20  C   UNL     1     -14.258  -4.787   1.191  1.00  0.00     0.004 A 
ATOM     21  C   UNL     1     -15.804  -4.988   3.032  1.00  0.00     0.004 A 
ATOM     22  C   UNL     1     -15.554  -5.041   1.660  1.00  0.00    -0.051 A 
ATOM     23  C   UNL     1     -16.641  -5.480   0.724  1.00  0.00     0.044 C 
ENDBRANCH  16  17
ENDBRANCH   6  16
TORSDOF 3
ENDMDL
MODEL 7
REMARK VINA RESULT:    -5.106      5.261     10.773
REMARK INTER + INTRA:          -6.490
REMARK INTER:                  -6.120
REMARK INTRA:                  -0.369
REMARK UNBOUND:                -0.489
REMARK SMILES Cc1ccc(CNC(=O)NC(=O)c2ccc(C)cc2)cc1
REMARK SMILES IDX 11 1 12 2 10 3 8 4 9 5 7 6 13 9 19 10 18 11 14 12 16 13
REMARK SMILES IDX 15 14 17 15 6 16 5 17 4 18 20 19 3 20 21 21 2 22 1 23
REMARK H PARENT 10 7 7 8
ROOT
ATOM      1  C   UNL     1     -12.551  -8.812  11.040  1.00  0.00     0.259 C 
ATOM      2  O   UNL     1     -13.720  -8.637  11.352  1.00  0.00    -0.269 OA
ATOM      3  N   UNL     1     -11.560  -9.525  11.722  1.00  0.00    -0.274 N 
ATOM      4  C   UNL     1     -11.490 -10.432  12.748  1.00  0.00     0.321 C 
ATOM      5  O   UNL     1     -10.393 -10.953  12.978  1.00  0.00    -0.248 OA
ATOM      6  N   UNL     1     -12.551 -10.802  13.488  1.00  0.00    -0.334 N 
ATOM      7  H   UNL     1     -10.653  -9.511  11.274  1.00  0.00     0.175 HD
ATOM      8  H   UNL     1     -12.350 -11.542  14.146  1.00  0.00     0.165 HD
ENDROOT
BRANCH   1   9
ATOM      9  C   UNL     1     -12.106  -8.198   9.773  1.00  0.00     0.040 A 
ATOM     10  C   UNL     1     -11.148  -7.183   9.753  1.00  0.00     0.014 A 
ATOM     11  C   UNL     1     -10.721  -6.670   8.528  1.00  0.00     0.004 A 
ATOM     12  C   UNL     1     -12.678  -8.659   8.584  1.00  0.00     0.014 A 
ATOM     13  C   UNL     1     -11.251  -7.162   7.326  1.00  0.00    -0.051 A 
ATOM     14  C   UNL     1     -12.244  -8.149   7.362  1.00  0.00     0.004 A 
ATOM     15  C   UNL     1     -10.720  -6.661   6.015  1.00  0.00     0.044 C 
ENDBRANCH   1   9
BRANCH   6  16
ATOM     16  C   UNL     1     -13.919 -10.401  13.320  1.00  0.00     0.153 C 
BRANCH  16  17
ATOM     17  C   UNL     1     -14.820 -11.326  12.551  1.00  0.00    -0.029 A 
ATOM     18  C   UNL     1     -16.028 -10.914  11.978  1.00  0.00     0.006 A 
ATOM     19  C   UNL     1     -14.313 -12.595  12.226  1.00  0.00     0.006 A 
ATOM     20  C   UNL     1     -16.697 -11.751  11.078  1.00  0.00     0.004 A 
ATOM     21  C   UNL     1     -14.977 -13.424  11.328  1.00  0.00     0.004 A 
ATOM     22  C   UNL     1     -16.170 -13.004  10.737  1.00  0.00    -0.051 A 
ATOM     23  C   UNL     1     -16.805 -13.844   9.669  1.00  0.00     0.044 C 
ENDBRANCH  16  17
ENDBRANCH   6  16
TORSDOF 3
ENDMDL
MODEL 8
REMARK VINA RESULT:    -4.690      1.859      2.118
REMARK INTER + INTRA:          -6.002
REMARK INTER:                  -5.594
REMARK INTRA:                  -0.407
REMARK UNBOUND:                -0.489
REMARK SMILES Cc1ccc(CNC(=O)NC(=O)c2ccc(C)cc2)cc1
REMARK SMILES IDX 11 1 12 2 10 3 8 4 9 5 7 6 13 9 19 10 18 11 14 12 16 13
REMARK SMILES IDX 15 14 17 15 6 16 5 17 4 18 20 19 3 20 21 21 2 22 1 23
REMARK H PARENT 10 7 7 8
ROOT
ATOM      1  C   UNL     1     -10.237  -5.842   5.603  1.00  0.00     0.259 C 
ATOM      2  O   UNL     1     -10.043  -4.651   5.803  1.00  0.00    -0.269 OA
ATOM      3  N   UNL     1      -9.964  -6.593   4.455  1.00  0.00    -0.274 N 
ATOM      4  C   UNL     1      -9.238  -6.451   3.301  1.00  0.00     0.321 C 
ATOM      5  O   UNL     1      -9.136  -7.437   2.563  1.00  0.00    -0.248 OA
ATOM      6  N   UNL     1      -8.611  -5.312   2.951  1.00  0.00    -0.334 N 
ATOM      7  H   UNL     1     -10.235  -7.565   4.519  1.00  0.00     0.175 HD
ATOM      8  H   UNL     1      -8.049  -5.398   2.116  1.00  0.00     0.165 HD
ENDROOT
BRANCH   1   9
ATOM      9  C   UNL     1     -10.836  -6.609   6.712  1.00  0.00     0.040 A 
ATOM     10  C   UNL     1     -10.335  -6.520   8.012  1.00  0.00     0.014 A 
ATOM     11  C   UNL     1     -10.967  -7.223   9.038  1.00  0.00     0.004 A 
ATOM     12  C   UNL     1     -11.923  -7.440   6.425  1.00  0.00     0.014 A 
ATOM     13  C   UNL     1     -12.090  -8.019   8.769  1.00  0.00    -0.051 A 
ATOM     14  C   UNL     1     -12.555  -8.135   7.454  1.00  0.00     0.004 A 
ATOM     15  C   UNL     1     -12.809  -8.701   9.896  1.00  0.00     0.044 C 
ENDBRANCH   1   9
BRANCH   6  16
ATOM     16  C   UNL     1      -8.516  -4.096   3.708  1.00  0.00     0.153 C 
BRANCH  16  17
ATOM     17  C   UNL     1      -7.230  -3.324   3.614  1.00  0.00    -0.029 A 
ATOM     18  C   UNL     1      -6.000  -3.835   4.041  1.00  0.00     0.006 A 
ATOM     19  C   UNL     1      -7.249  -2.130   2.875  1.00  0.00     0.006 A 
ATOM     20  C   UNL     1      -4.813  -3.172   3.709  1.00  0.00     0.004 A 
ATOM     21  C   UNL     1      -6.068  -1.474   2.542  1.00  0.00     0.004 A 
ATOM     22  C   UNL     1      -4.838  -1.995   2.948  1.00  0.00    -0.051 A 
ATOM     23  C   UNL     1      -3.568  -1.359   2.469  1.00  0.00     0.044 C 
ENDBRANCH  16  17
ENDBRANCH   6  16
TORSDOF 3
ENDMDL
MODEL 9
REMARK VINA RESULT:    -4.621      1.977      8.091
REMARK INTER + INTRA:          -5.920
REMARK INTER:                  -5.395
REMARK INTRA:                  -0.525
REMARK UNBOUND:                -0.489
REMARK SMILES Cc1ccc(CNC(=O)NC(=O)c2ccc(C)cc2)cc1
REMARK SMILES IDX 11 1 12 2 10 3 8 4 9 5 7 6 13 9 19 10 18 11 14 12 16 13
REMARK SMILES IDX 15 14 17 15 6 16 5 17 4 18 20 19 3 20 21 21 2 22 1 23
REMARK H PARENT 10 7 7 8
ROOT
ATOM      1  C   UNL     1     -11.041  -6.728   6.160  1.00  0.00     0.259 C 
ATOM      2  O   UNL     1     -10.323  -7.307   6.964  1.00  0.00    -0.269 OA
ATOM      3  N   UNL     1     -12.407  -6.903   5.922  1.00  0.00    -0.274 N 
ATOM      4  C   UNL     1     -13.474  -7.506   6.538  1.00  0.00     0.321 C 
ATOM      5  O   UNL     1     -14.596  -7.315   6.057  1.00  0.00    -0.248 OA
ATOM      6  N   UNL     1     -13.364  -8.263   7.645  1.00  0.00    -0.334 N 
ATOM      7  H   UNL     1     -12.780  -6.319   5.185  1.00  0.00     0.175 HD
ATOM      8  H   UNL     1     -14.251  -8.563   8.023  1.00  0.00     0.165 HD
ENDROOT
BRANCH   1   9
ATOM      9  C   UNL     1     -10.396  -5.699   5.321  1.00  0.00     0.040 A 
ATOM     10  C   UNL     1     -10.593  -4.338   5.559  1.00  0.00     0.014 A 
ATOM     11  C   UNL     1      -9.921  -3.402   4.772  1.00  0.00     0.004 A 
ATOM     12  C   UNL     1      -9.582  -6.127   4.268  1.00  0.00     0.014 A 
ATOM     13  C   UNL     1      -9.061  -3.821   3.746  1.00  0.00    -0.051 A 
ATOM     14  C   UNL     1      -8.907  -5.189   3.488  1.00  0.00     0.004 A 
ATOM     15  C   UNL     1      -8.280  -2.805   2.965  1.00  0.00     0.044 C 
ENDBRANCH   1   9
BRANCH   6  16
ATOM     16  C   UNL     1     -12.180  -8.522   8.415  1.00  0.00     0.153 C 
BRANCH  16  17
ATOM     17  C   UNL     1     -12.229  -8.208   9.884  1.00  0.00    -0.029 A 
ATOM     18  C   UNL     1     -12.036  -6.921  10.396  1.00  0.00     0.006 A 
ATOM     19  C   UNL     1     -12.696  -9.216  10.742  1.00  0.00     0.006 A 
ATOM     20  C   UNL     1     -12.331  -6.649  11.737  1.00  0.00     0.004 A 
ATOM     21  C   UNL     1     -12.994  -8.944  12.074  1.00  0.00     0.004 A 
ATOM     22  C   UNL     1     -12.823  -7.655  12.580  1.00  0.00    -0.051 A 
ATOM     23  C   UNL     1     -13.275  -7.339  13.975  1.00  0.00     0.044 C 
ENDBRANCH  16  17
ENDBRANCH   6  16
TORSDOF 3
ENDMDL
