MODEL 1
REMARK VINA RESULT:    -4.207      0.000      0.000
REMARK INTER + INTRA:          -5.788
REMARK INTER:                  -5.560
REMARK INTRA:                  -0.228
REMARK UNBOUND:                -0.228
REMARK SMILES [H]/N=C\C[C@H]1C[C@@H]1O[C@H]1CO[C@H]2C[C@@H](C3CC3)CCN2C1
REMARK SMILES IDX 7 1 6 2 5 3 8 4 9 5 14 6 13 7 18 8 12 9 19 10 20 11 11 12
REMARK SMILES IDX 21 13 10 14 15 15 16 16 17 17 4 18 3 19 2 20 1 21
REMARK H PARENT
ROOT
ATOM      1  C   UNL     1     -14.235 -12.194  12.212  1.00  0.00     0.122 C 
ATOM      2  C   UNL     1     -13.848 -13.646  12.191  1.00  0.00     0.039 C 
ATOM      3  C   UNL     1     -12.784 -12.587  12.160  1.00  0.00     0.026 C 
ENDROOT
BRANCH   1   4
ATOM      4  O   UNL     1     -14.821 -11.725  10.982  1.00  0.00    -0.371 OA
BRANCH   4   5
ATOM      5  C   UNL     1     -15.484 -10.453  11.058  1.00  0.00     0.158 C 
ATOM      6  C   UNL     1     -12.512  -7.818   7.677  1.00  0.00    -0.003 C 
ATOM      7  C   UNL     1     -12.337  -8.365   9.099  1.00  0.00     0.052 C 
ATOM      8  C   UNL     1     -13.451  -8.742   6.890  1.00  0.00     0.019 C 
ATOM      9  C   UNL     1     -13.688  -8.615   9.784  1.00  0.00     0.189 C 
ATOM     10  C   UNL     1     -14.762  -8.978   7.641  1.00  0.00     0.087 C 
ATOM     11  N   UNL     1     -14.510  -9.517   8.977  1.00  0.00    -0.276 NA
ATOM     12  O   UNL     1     -13.398  -9.162  11.072  1.00  0.00    -0.360 OA
ATOM     13  C   UNL     1     -15.760  -9.830   9.678  1.00  0.00     0.121 C 
ATOM     14  C   UNL     1     -14.573  -9.485  11.821  1.00  0.00     0.195 C 
BRANCH   6  15
ATOM     15  C   UNL     1     -11.184  -7.681   6.968  1.00  0.00    -0.008 C 
ATOM     16  C   UNL     1     -10.785  -6.366   6.341  1.00  0.00     0.004 C 
ATOM     17  C   UNL     1     -10.069  -6.857   7.565  1.00  0.00     0.004 C 
ENDBRANCH   6  15
ENDBRANCH   4   5
ENDBRANCH   1   4
BRANCH   3  18
ATOM     18  C   UNL     1     -11.907 -12.402  13.362  1.00  0.00     0.053 C 
BRANCH  18  19
ATOM     19  C   UNL     1     -10.836 -11.348  13.250  1.00  0.00     0.074 C 
BRANCH  19  20
ATOM     20  N   UNL     1      -9.566 -11.566  13.167  1.00  0.00    -0.313 NA
ATOM     21  H   UNL     1      -9.020 -10.766  13.516  1.00  0.00     0.186 HD
ENDBRANCH  19  20
ENDBRANCH  18  19
ENDBRANCH   3  18
TORSDOF 6
ENDMDL
MODEL 2
REMARK VINA RESULT:    -4.169      5.489      8.499
REMARK INTER + INTRA:          -5.738
REMARK INTER:                  -5.456
REMARK INTRA:                  -0.281
REMARK UNBOUND:                -0.228
REMARK SMILES [H]/N=C\C[C@H]1C[C@@H]1O[C@H]1CO[C@H]2C[C@@H](C3CC3)CCN2C1
REMARK SMILES IDX 7 1 6 2 5 3 8 4 9 5 14 6 13 7 18 8 12 9 19 10 20 11 11 12
REMARK SMILES IDX 21 13 10 14 15 15 16 16 17 17 4 18 3 19 2 20 1 21
REMARK H PARENT
ROOT
ATOM      1  C   UNL     1     -10.917  -6.307   7.008  1.00  0.00     0.122 C 
ATOM      2  C   UNL     1     -11.549  -7.659   7.187  1.00  0.00     0.039 C 
ATOM      3  C   UNL     1     -10.588  -7.139   8.218  1.00  0.00     0.026 C 
ENDROOT
BRANCH   1   4
ATOM      4  O   UNL     1      -9.920  -6.258   5.970  1.00  0.00    -0.371 OA
BRANCH   4   5
ATOM      5  C   UNL     1     -10.427  -6.166   4.628  1.00  0.00     0.158 C 
ATOM      6  C   UNL     1      -7.230  -2.455   2.836  1.00  0.00    -0.003 C 
ATOM      7  C   UNL     1      -8.416  -2.508   3.807  1.00  0.00     0.052 C 
ATOM      8  C   UNL     1      -6.455  -3.779   2.909  1.00  0.00     0.019 C 
ATOM      9  C   UNL     1      -9.283  -3.754   3.579  1.00  0.00     0.189 C 
ATOM     10  C   UNL     1      -7.380  -4.979   2.709  1.00  0.00     0.087 C 
ATOM     11  N   UNL     1      -8.472  -4.966   3.683  1.00  0.00    -0.276 NA
ATOM     12  O   UNL     1     -10.319  -3.716   4.563  1.00  0.00    -0.360 OA
ATOM     13  C   UNL     1      -9.319  -6.158   3.561  1.00  0.00     0.121 C 
ATOM     14  C   UNL     1     -11.194  -4.846   4.499  1.00  0.00     0.195 C 
BRANCH   6  15
ATOM     15  C   UNL     1      -6.317  -1.289   3.139  1.00  0.00    -0.008 C 
ATOM     16  C   UNL     1      -5.935  -0.314   2.049  1.00  0.00     0.004 C 
ATOM     17  C   UNL     1      -6.848   0.125   3.157  1.00  0.00     0.004 C 
ENDBRANCH   6  15
ENDBRANCH   4   5
ENDBRANCH   1   4
BRANCH   3  18
ATOM     18  C   UNL     1     -11.112  -6.749   9.568  1.00  0.00     0.053 C 
BRANCH  18  19
ATOM     19  C   UNL     1     -11.913  -7.795  10.299  1.00  0.00     0.074 C 
BRANCH  19  20
ATOM     20  N   UNL     1     -11.465  -8.927  10.732  1.00  0.00    -0.313 NA
ATOM     21  H   UNL     1     -11.566  -9.670  10.026  1.00  0.00     0.186 HD
ENDBRANCH  19  20
ENDBRANCH  18  19
ENDBRANCH   3  18
TORSDOF 6
ENDMDL
MODEL 3
REMARK VINA RESULT:    -4.138      8.328     10.751
REMARK INTER + INTRA:          -5.696
REMARK INTER:                  -5.459
REMARK INTRA:                  -0.237
REMARK UNBOUND:                -0.228
REMARK SMILES [H]/N=C\C[C@H]1C[C@@H]1O[C@H]1CO[C@H]2C[C@@H](C3CC3)CCN2C1
REMARK SMILES IDX 7 1 6 2 5 3 8 4 9 5 14 6 13 7 18 8 12 9 19 10 20 11 11 12
REMARK SMILES IDX 21 13 10 14 15 15 16 16 17 17 4 18 3 19 2 20 1 21
REMARK H PARENT
ROOT
ATOM      1  C   UNL     1     -12.961  -4.847   2.916  1.00  0.00     0.122 C 
ATOM      2  C   UNL     1     -14.342  -4.505   3.400  1.00  0.00     0.039 C 
ATOM      3  C   UNL     1     -13.984  -4.306   1.955  1.00  0.00     0.026 C 
ENDROOT
BRANCH   1   4
ATOM      4  O   UNL     1     -11.941  -3.931   3.356  1.00  0.00    -0.371 OA
BRANCH   4   5
ATOM      5  C   UNL     1     -11.524  -4.077   4.723  1.00  0.00     0.158 C 
ATOM      6  C   UNL     1      -6.369  -3.713   4.014  1.00  0.00    -0.003 C 
ATOM      7  C   UNL     1      -7.448  -4.762   3.715  1.00  0.00     0.052 C 
ATOM      8  C   UNL     1      -6.981  -2.310   3.902  1.00  0.00     0.019 C 
ATOM      9  C   UNL     1      -8.699  -4.554   4.579  1.00  0.00     0.189 C 
ATOM     10  C   UNL     1      -8.241  -2.180   4.758  1.00  0.00     0.087 C 
ATOM     11  N   UNL     1      -9.225  -3.201   4.399  1.00  0.00    -0.276 NA
ATOM     12  O   UNL     1      -9.641  -5.553   4.181  1.00  0.00    -0.360 OA
ATOM     13  C   UNL     1     -10.474  -3.036   5.151  1.00  0.00     0.121 C 
ATOM     14  C   UNL     1     -10.885  -5.460   4.881  1.00  0.00     0.195 C 
BRANCH   6  15
ATOM     15  C   UNL     1      -5.187  -3.853   3.082  1.00  0.00    -0.008 C 
ATOM     16  C   UNL     1      -3.777  -3.786   3.621  1.00  0.00     0.004 C 
ATOM     17  C   UNL     1      -4.321  -5.089   3.110  1.00  0.00     0.004 C 
ENDBRANCH   6  15
ENDBRANCH   4   5
ENDBRANCH   1   4
BRANCH   3  18
ATOM     18  C   UNL     1     -14.601  -5.203   0.924  1.00  0.00     0.053 C 
BRANCH  18  19
ATOM     19  C   UNL     1     -16.107  -5.253   0.901  1.00  0.00     0.074 C 
BRANCH  19  20
ATOM     20  N   UNL     1     -16.890  -4.312   0.490  1.00  0.00    -0.313 NA
ATOM     21  H   UNL     1     -16.412  -3.400   0.473  1.00  0.00     0.186 HD
ENDBRANCH  19  20
ENDBRANCH  18  19
ENDBRANCH   3  18
TORSDOF 6
ENDMDL
MODEL 4
REMARK VINA RESULT:    -4.097      4.225      6.066
REMARK INTER + INTRA:          -5.643
REMARK INTER:                  -5.401
REMARK INTRA:                  -0.241
REMARK UNBOUND:                -0.228
REMARK SMILES [H]/N=C\C[C@H]1C[C@@H]1O[C@H]1CO[C@H]2C[C@@H](C3CC3)CCN2C1
REMARK SMILES IDX 7 1 6 2 5 3 8 4 9 5 14 6 13 7 18 8 12 9 19 10 20 11 11 12
REMARK SMILES IDX 21 13 10 14 15 15 16 16 17 17 4 18 3 19 2 20 1 21
REMARK H PARENT
ROOT
ATOM      1  C   UNL     1     -11.949  -6.900  10.717  1.00  0.00     0.122 C 
ATOM      2  C   UNL     1     -11.902  -5.898  11.836  1.00  0.00     0.039 C 
ATOM      3  C   UNL     1     -13.217  -6.253  11.204  1.00  0.00     0.026 C 
ENDROOT
BRANCH   1   4
ATOM      4  O   UNL     1     -11.415  -6.413   9.471  1.00  0.00    -0.371 OA
BRANCH   4   5
ATOM      5  C   UNL     1     -10.904  -7.419   8.581  1.00  0.00     0.158 C 
ATOM      6  C   UNL     1     -11.947  -5.057   4.049  1.00  0.00    -0.003 C 
ATOM      7  C   UNL     1     -12.771  -5.744   5.145  1.00  0.00     0.052 C 
ATOM      8  C   UNL     1     -10.720  -4.386   4.682  1.00  0.00     0.019 C 
ATOM      9  C   UNL     1     -11.912  -6.688   5.997  1.00  0.00     0.189 C 
ATOM     10  C   UNL     1      -9.928  -5.369   5.544  1.00  0.00     0.087 C 
ATOM     11  N   UNL     1     -10.779  -5.965   6.574  1.00  0.00    -0.276 NA
ATOM     12  O   UNL     1     -12.772  -7.228   7.002  1.00  0.00    -0.360 OA
ATOM     13  C   UNL     1     -10.014  -6.845   7.464  1.00  0.00     0.121 C 
ATOM     14  C   UNL     1     -12.095  -8.107   7.906  1.00  0.00     0.195 C 
BRANCH   6  15
ATOM     15  C   UNL     1     -12.772  -4.045   3.287  1.00  0.00    -0.008 C 
ATOM     16  C   UNL     1     -13.410  -4.416   1.969  1.00  0.00     0.004 C 
ATOM     17  C   UNL     1     -14.270  -4.191   3.179  1.00  0.00     0.004 C 
ENDBRANCH   6  15
ENDBRANCH   4   5
ENDBRANCH   1   4
BRANCH   3  18
ATOM     18  C   UNL     1     -14.214  -7.045  11.996  1.00  0.00     0.053 C 
BRANCH  18  19
ATOM     19  C   UNL     1     -15.570  -7.229  11.366  1.00  0.00     0.074 C 
BRANCH  19  20
ATOM     20  N   UNL     1     -16.024  -6.583  10.344  1.00  0.00    -0.313 NA
ATOM     21  H   UNL     1     -16.584  -7.190   9.729  1.00  0.00     0.186 HD
ENDBRANCH  19  20
ENDBRANCH  18  19
ENDBRANCH   3  18
TORSDOF 6
ENDMDL
MODEL 5
REMARK VINA RESULT:    -4.067      6.208      9.730
REMARK INTER + INTRA:          -5.603
REMARK INTER:                  -5.360
REMARK INTRA:                  -0.243
REMARK UNBOUND:                -0.228
REMARK SMILES [H]/N=C\C[C@H]1C[C@@H]1O[C@H]1CO[C@H]2C[C@@H](C3CC3)CCN2C1
REMARK SMILES IDX 7 1 6 2 5 3 8 4 9 5 14 6 13 7 18 8 12 9 19 10 20 11 11 12
REMARK SMILES IDX 21 13 10 14 15 15 16 16 17 17 4 18 3 19 2 20 1 21
REMARK H PARENT
ROOT
ATOM      1  C   UNL     1     -15.651  -6.027   0.434  1.00  0.00     0.122 C 
ATOM      2  C   UNL     1     -15.429  -6.788  -0.843  1.00  0.00     0.039 C 
ATOM      3  C   UNL     1     -15.962  -7.497   0.369  1.00  0.00     0.026 C 
ENDROOT
BRANCH   1   4
ATOM      4  O   UNL     1     -14.437  -5.654   1.114  1.00  0.00    -0.371 OA
BRANCH   4   5
ATOM      5  C   UNL     1     -14.497  -4.428   1.860  1.00  0.00     0.158 C 
ATOM      6  C   UNL     1     -11.153  -5.664   5.667  1.00  0.00    -0.003 C 
ATOM      7  C   UNL     1     -12.579  -6.074   5.282  1.00  0.00     0.052 C 
ATOM      8  C   UNL     1     -10.354  -5.350   4.394  1.00  0.00     0.019 C 
ATOM      9  C   UNL     1     -13.244  -5.036   4.367  1.00  0.00     0.189 C 
ATOM     10  C   UNL     1     -11.085  -4.338   3.512  1.00  0.00     0.087 C 
ATOM     11  N   UNL     1     -12.428  -4.811   3.174  1.00  0.00    -0.276 NA
ATOM     12  O   UNL     1     -14.538  -5.547   4.043  1.00  0.00    -0.360 OA
ATOM     13  C   UNL     1     -13.110  -3.891   2.257  1.00  0.00     0.121 C 
ATOM     14  C   UNL     1     -15.270  -4.696   3.156  1.00  0.00     0.195 C 
BRANCH   6  15
ATOM     15  C   UNL     1     -10.464  -6.742   6.473  1.00  0.00    -0.008 C 
ATOM     16  C   UNL     1     -10.401  -6.647   7.979  1.00  0.00     0.004 C 
ATOM     17  C   UNL     1     -11.260  -7.694   7.332  1.00  0.00     0.004 C 
ENDBRANCH   6  15
ENDBRANCH   4   5
ENDBRANCH   1   4
BRANCH   3  18
ATOM     18  C   UNL     1     -17.385  -7.970   0.367  1.00  0.00     0.053 C 
BRANCH  18  19
ATOM     19  C   UNL     1     -17.862  -8.652   1.622  1.00  0.00     0.074 C 
BRANCH  19  20
ATOM     20  N   UNL     1     -17.132  -8.955   2.643  1.00  0.00    -0.313 NA
ATOM     21  H   UNL     1     -17.533  -9.740   3.177  1.00  0.00     0.186 HD
ENDBRANCH  19  20
ENDBRANCH  18  19
ENDBRANCH   3  18
TORSDOF 6
ENDMDL
MODEL 6
REMARK VINA RESULT:    -3.972      3.772      8.171
REMARK INTER + INTRA:          -5.478
REMARK INTER:                  -5.233
REMARK INTRA:                  -0.245
REMARK UNBOUND:                -0.228
REMARK SMILES [H]/N=C\C[C@H]1C[C@@H]1O[C@H]1CO[C@H]2C[C@@H](C3CC3)CCN2C1
REMARK SMILES IDX 7 1 6 2 5 3 8 4 9 5 14 6 13 7 18 8 12 9 19 10 20 11 11 12
REMARK SMILES IDX 21 13 10 14 15 15 16 16 17 17 4 18 3 19 2 20 1 21
REMARK H PARENT
ROOT
ATOM      1  C   UNL     1     -10.557  -4.883   5.102  1.00  0.00     0.122 C 
ATOM      2  C   UNL     1     -11.456  -3.945   4.347  1.00  0.00     0.039 C 
ATOM      3  C   UNL     1     -10.477  -3.401   5.347  1.00  0.00     0.026 C 
ENDROOT
BRANCH   1   4
ATOM      4  O   UNL     1     -11.233  -5.667   6.103  1.00  0.00    -0.371 OA
BRANCH   4   5
ATOM      5  C   UNL     1     -10.678  -6.968   6.351  1.00  0.00     0.158 C 
ATOM      6  C   UNL     1     -12.934  -7.919  10.956  1.00  0.00    -0.003 C 
ATOM      7  C   UNL     1     -11.818  -6.998  10.449  1.00  0.00     0.052 C 
ATOM      8  C   UNL     1     -13.980  -8.106   9.848  1.00  0.00     0.019 C 
ATOM      9  C   UNL     1     -11.236  -7.487   9.116  1.00  0.00     0.189 C 
ATOM     10  C   UNL     1     -13.333  -8.560   8.540  1.00  0.00     0.087 C 
ATOM     11  N   UNL     1     -12.295  -7.621   8.115  1.00  0.00    -0.276 NA
ATOM     12  O   UNL     1     -10.248  -6.531   8.726  1.00  0.00    -0.360 OA
ATOM     13  C   UNL     1     -11.724  -7.996   6.817  1.00  0.00     0.121 C 
ATOM     14  C   UNL     1      -9.638  -6.837   7.469  1.00  0.00     0.195 C 
BRANCH   6  15
ATOM     15  C   UNL     1     -13.580  -7.372  12.208  1.00  0.00    -0.008 C 
ATOM     16  C   UNL     1     -13.935  -8.294  13.351  1.00  0.00     0.004 C 
ATOM     17  C   UNL     1     -12.816  -7.307  13.508  1.00  0.00     0.004 C 
ENDBRANCH   6  15
ENDBRANCH   4   5
ENDBRANCH   1   4
BRANCH   3  18
ATOM     18  C   UNL     1      -9.298  -2.615   4.857  1.00  0.00     0.053 C 
BRANCH  18  19
ATOM     19  C   UNL     1      -9.010  -1.324   5.578  1.00  0.00     0.074 C 
BRANCH  19  20
ATOM     20  N   UNL     1      -9.868  -0.618   6.238  1.00  0.00    -0.313 NA
ATOM     21  H   UNL     1      -9.686  -0.650   7.251  1.00  0.00     0.186 HD
ENDBRANCH  19  20
ENDBRANCH  18  19
ENDBRANCH   3  18
TORSDOF 6
ENDMDL
MODEL 7
REMARK VINA RESULT:    -3.820      4.802      6.706
REMARK INTER + INTRA:          -5.277
REMARK INTER:                  -4.646
REMARK INTRA:                  -0.632
REMARK UNBOUND:                -0.228
REMARK SMILES [H]/N=C\C[C@H]1C[C@@H]1O[C@H]1CO[C@H]2C[C@@H](C3CC3)CCN2C1
REMARK SMILES IDX 7 1 6 2 5 3 8 4 9 5 14 6 13 7 18 8 12 9 19 10 20 11 11 12
REMARK SMILES IDX 21 13 10 14 15 15 16 16 17 17 4 18 3 19 2 20 1 21
REMARK H PARENT
ROOT
ATOM      1  C   UNL     1     -16.632  -8.974   6.754  1.00  0.00     0.122 C 
ATOM      2  C   UNL     1     -16.343 -10.443   6.888  1.00  0.00     0.039 C 
ATOM      3  C   UNL     1     -15.235  -9.490   6.544  1.00  0.00     0.026 C 
ENDROOT
BRANCH   1   4
ATOM      4  O   UNL     1     -17.376  -8.627   5.571  1.00  0.00    -0.371 OA
BRANCH   4   5
ATOM      5  C   UNL     1     -18.068  -7.369   5.620  1.00  0.00     0.158 C 
ATOM      6  C   UNL     1     -14.791  -4.555   2.697  1.00  0.00    -0.003 C 
ATOM      7  C   UNL     1     -14.764  -5.157   4.108  1.00  0.00     0.052 C 
ATOM      8  C   UNL     1     -15.618  -5.461   1.775  1.00  0.00     0.019 C 
ATOM      9  C   UNL     1     -16.177  -5.455   4.627  1.00  0.00     0.189 C 
ATOM     10  C   UNL     1     -16.999  -5.747   2.365  1.00  0.00     0.087 C 
ATOM     11  N   UNL     1     -16.887  -6.335   3.699  1.00  0.00    -0.276 NA
ATOM     12  O   UNL     1     -16.022  -6.049   5.917  1.00  0.00    -0.360 OA
ATOM     13  C   UNL     1     -18.201  -6.695   4.243  1.00  0.00     0.121 C 
ATOM     14  C   UNL     1     -17.267  -6.420   6.517  1.00  0.00     0.195 C 
BRANCH   6  15
ATOM     15  C   UNL     1     -13.395  -4.371   2.147  1.00  0.00    -0.008 C 
ATOM     16  C   UNL     1     -12.755  -3.002   2.130  1.00  0.00     0.004 C 
ATOM     17  C   UNL     1     -12.237  -4.058   3.063  1.00  0.00     0.004 C 
ENDBRANCH   6  15
ENDBRANCH   4   5
ENDBRANCH   1   4
BRANCH   3  18
ATOM     18  C   UNL     1     -14.167  -9.219   7.562  1.00  0.00     0.053 C 
BRANCH  18  19
ATOM     19  C   UNL     1     -13.106  -8.225   7.166  1.00  0.00     0.074 C 
BRANCH  19  20
ATOM     20  N   UNL     1     -13.282  -7.188   6.416  1.00  0.00    -0.313 NA
ATOM     21  H   UNL     1     -14.000  -6.559   6.800  1.00  0.00     0.186 HD
ENDBRANCH  19  20
ENDBRANCH  18  19
ENDBRANCH   3  18
TORSDOF 6
ENDMDL
MODEL 8
REMARK VINA RESULT:    -3.722      3.724      6.545
REMARK INTER + INTRA:          -5.147
REMARK INTER:                  -4.669
REMARK INTRA:                  -0.478
REMARK UNBOUND:                -0.228
REMARK SMILES [H]/N=C\C[C@H]1C[C@@H]1O[C@H]1CO[C@H]2C[C@@H](C3CC3)CCN2C1
REMARK SMILES IDX 7 1 6 2 5 3 8 4 9 5 14 6 13 7 18 8 12 9 19 10 20 11 11 12
REMARK SMILES IDX 21 13 10 14 15 15 16 16 17 17 4 18 3 19 2 20 1 21
REMARK H PARENT
ROOT
ATOM      1  C   UNL     1     -17.377  -7.010   6.188  1.00  0.00     0.122 C 
ATOM      2  C   UNL     1     -18.285  -5.814   6.134  1.00  0.00     0.039 C 
ATOM      3  C   UNL     1     -16.827  -5.663   5.809  1.00  0.00     0.026 C 
ENDROOT
BRANCH   1   4
ATOM      4  O   UNL     1     -17.091  -7.471   7.522  1.00  0.00    -0.371 OA
BRANCH   4   5
ATOM      5  C   UNL     1     -16.605  -8.820   7.621  1.00  0.00     0.158 C 
ATOM      6  C   UNL     1     -11.528  -7.780   8.217  1.00  0.00    -0.003 C 
ATOM      7  C   UNL     1     -12.537  -7.705   7.064  1.00  0.00     0.052 C 
ATOM      8  C   UNL     1     -12.249  -7.489   9.541  1.00  0.00     0.019 C 
ATOM      9  C   UNL     1     -13.761  -8.595   7.319  1.00  0.00     0.189 C 
ATOM     10  C   UNL     1     -13.476  -8.383   9.718  1.00  0.00     0.087 C 
ATOM     11  N   UNL     1     -14.395  -8.239   8.589  1.00  0.00    -0.276 NA
ATOM     12  O   UNL     1     -14.641  -8.407   6.209  1.00  0.00    -0.360 OA
ATOM     13  C   UNL     1     -15.619  -9.025   8.785  1.00  0.00     0.121 C 
ATOM     14  C   UNL     1     -15.857  -9.153   6.326  1.00  0.00     0.195 C 
BRANCH   6  15
ATOM     15  C   UNL     1     -10.381  -6.817   8.014  1.00  0.00    -0.008 C 
ATOM     16  C   UNL     1      -9.147  -7.248   7.257  1.00  0.00     0.004 C 
ATOM     17  C   UNL     1     -10.084  -6.245   6.649  1.00  0.00     0.004 C 
ENDBRANCH   6  15
ENDBRANCH   4   5
ENDBRANCH   1   4
BRANCH   3  18
ATOM     18  C   UNL     1     -16.424  -5.382   4.392  1.00  0.00     0.053 C 
BRANCH  18  19
ATOM     19  C   UNL     1     -14.958  -5.131   4.153  1.00  0.00     0.074 C 
BRANCH  19  20
ATOM     20  N   UNL     1     -13.981  -5.774   4.701  1.00  0.00    -0.313 NA
ATOM     21  H   UNL     1     -13.976  -5.657   5.725  1.00  0.00     0.186 HD
ENDBRANCH  19  20
ENDBRANCH  18  19
ENDBRANCH   3  18
TORSDOF 6
ENDMDL
MODEL 9
REMARK VINA RESULT:    -3.602      3.097      5.527
REMARK INTER + INTRA:          -4.988
REMARK INTER:                  -4.549
REMARK INTRA:                  -0.439
REMARK UNBOUND:                -0.228
REMARK SMILES [H]/N=C\C[C@H]1C[C@@H]1O[C@H]1CO[C@H]2C[C@@H](C3CC3)CCN2C1
REMARK SMILES IDX 7 1 6 2 5 3 8 4 9 5 14 6 13 7 18 8 12 9 19 10 20 11 11 12
REMARK SMILES IDX 21 13 10 14 15 15 16 16 17 17 4 18 3 19 2 20 1 21
REMARK H PARENT
ROOT
ATOM      1  C   UNL     1     -16.713  -8.567   9.008  1.00  0.00     0.122 C 
ATOM      2  C   UNL     1     -17.807  -7.628   9.432  1.00  0.00     0.039 C 
ATOM      3  C   UNL     1     -17.175  -7.479   8.078  1.00  0.00     0.026 C 
ENDROOT
BRANCH   1   4
ATOM      4  O   UNL     1     -15.459  -8.350   9.683  1.00  0.00    -0.371 OA
BRANCH   4   5
ATOM      5  C   UNL     1     -14.491  -9.403   9.545  1.00  0.00     0.158 C 
ATOM      6  C   UNL     1     -10.879  -6.794   6.833  1.00  0.00    -0.003 C 
ATOM      7  C   UNL     1     -12.271  -7.366   6.540  1.00  0.00     0.052 C 
ATOM      8  C   UNL     1     -10.814  -6.344   8.300  1.00  0.00     0.019 C 
ATOM      9  C   UNL     1     -12.663  -8.457   7.547  1.00  0.00     0.189 C 
ATOM     10  C   UNL     1     -11.247  -7.463   9.247  1.00  0.00     0.087 C 
ATOM     11  N   UNL     1     -12.590  -7.940   8.914  1.00  0.00    -0.276 NA
ATOM     12  O   UNL     1     -13.985  -8.876   7.202  1.00  0.00    -0.360 OA
ATOM     13  C   UNL     1     -13.055  -8.953   9.867  1.00  0.00     0.121 C 
ATOM     14  C   UNL     1     -14.504  -9.874   8.086  1.00  0.00     0.195 C 
BRANCH   6  15
ATOM     15  C   UNL     1     -10.547  -5.644   5.910  1.00  0.00    -0.008 C 
ATOM     16  C   UNL     1      -9.972  -5.907   4.538  1.00  0.00     0.004 C 
ATOM     17  C   UNL     1     -11.371  -5.382   4.673  1.00  0.00     0.004 C 
ENDBRANCH   6  15
ENDBRANCH   4   5
ENDBRANCH   1   4
BRANCH   3  18
ATOM     18  C   UNL     1     -17.979  -7.817   6.858  1.00  0.00     0.053 C 
BRANCH  18  19
ATOM     19  C   UNL     1     -17.216  -7.917   5.563  1.00  0.00     0.074 C 
BRANCH  19  20
ATOM     20  N   UNL     1     -16.254  -8.742   5.313  1.00  0.00    -0.313 NA
ATOM     21  H   UNL     1     -15.631  -8.386   4.574  1.00  0.00     0.186 HD
ENDBRANCH  19  20
ENDBRANCH  18  19
ENDBRANCH   3  18
TORSDOF 6
ENDMDL
