MODEL 1
REMARK VINA RESULT:    -6.073      0.000      0.000
REMARK INTER + INTRA:          -7.517
REMARK INTER:                  -7.138
REMARK INTRA:                  -0.378
REMARK UNBOUND:                -0.378
REMARK SMILES Cc1ccc(CNC(=O)NC(=O)c2ccc(C)cc2)cc1
REMARK SMILES IDX 11 1 12 2 10 3 8 4 9 5 7 6 13 9 19 10 18 11 14 12 16 13
REMARK SMILES IDX 15 14 17 15 6 16 5 17 4 18 20 19 3 20 21 21 2 22 1 23
REMARK H PARENT 10 7 7 8
ROOT
ATOM      1  C   UNL     1      -6.203   0.582   6.933  1.00  0.00     0.259 C 
ATOM      2  O   UNL     1      -5.549   1.390   7.579  1.00  0.00    -0.269 OA
ATOM      3  N   UNL     1      -7.402  -0.048   7.278  1.00  0.00    -0.274 N 
ATOM      4  C   UNL     1      -8.390   0.098   8.218  1.00  0.00     0.321 C 
ATOM      5  O   UNL     1      -9.398  -0.608   8.105  1.00  0.00    -0.248 OA
ATOM      6  N   UNL     1      -8.330   0.984   9.230  1.00  0.00    -0.334 N 
ATOM      7  H   UNL     1      -7.746  -0.699   6.585  1.00  0.00     0.175 HD
ATOM      8  H   UNL     1      -9.173   1.027   9.783  1.00  0.00     0.165 HD
ENDROOT
BRANCH   1   9
ATOM      9  C   UNL     1      -5.673   0.214   5.606  1.00  0.00     0.040 A 
ATOM     10  C   UNL     1      -4.935  -0.955   5.415  1.00  0.00     0.014 A 
ATOM     11  C   UNL     1      -4.500  -1.287   4.132  1.00  0.00     0.004 A 
ATOM     12  C   UNL     1      -5.927   1.078   4.535  1.00  0.00     0.014 A 
ATOM     13  C   UNL     1      -4.793  -0.454   3.042  1.00  0.00    -0.051 A 
ATOM     14  C   UNL     1      -5.496   0.738   3.254  1.00  0.00     0.004 A 
ATOM     15  C   UNL     1      -4.393  -0.868   1.657  1.00  0.00     0.044 C 
ENDBRANCH   1   9
BRANCH   6  16
ATOM     16  C   UNL     1      -7.306   1.959   9.480  1.00  0.00     0.153 C 
BRANCH  16  17
ATOM     17  C   UNL     1      -7.682   3.156  10.309  1.00  0.00    -0.029 A 
ATOM     18  C   UNL     1      -7.536   4.472   9.860  1.00  0.00     0.006 A 
ATOM     19  C   UNL     1      -8.401   2.919  11.492  1.00  0.00     0.006 A 
ATOM     20  C   UNL     1      -8.122   5.524  10.572  1.00  0.00     0.004 A 
ATOM     21  C   UNL     1      -8.987   3.965  12.197  1.00  0.00     0.004 A 
ATOM     22  C   UNL     1      -8.861   5.277  11.737  1.00  0.00    -0.051 A 
ATOM     23  C   UNL     1      -9.609   6.380  12.425  1.00  0.00     0.044 C 
ENDBRANCH  16  17
ENDBRANCH   6  16
TORSDOF 3
ENDMDL
MODEL 2
REMARK VINA RESULT:    -6.072      3.240      5.534
REMARK INTER + INTRA:          -7.515
REMARK INTER:                  -7.135
REMARK INTRA:                  -0.380
REMARK UNBOUND:                -0.378
REMARK SMILES Cc1ccc(CNC(=O)NC(=O)c2ccc(C)cc2)cc1
REMARK SMILES IDX 11 1 12 2 10 3 8 4 9 5 7 6 13 9 19 10 18 11 14 12 16 13
REMARK SMILES IDX 15 14 17 15 6 16 5 17 4 18 20 19 3 20 21 21 2 22 1 23
REMARK H PARENT 10 7 7 8
ROOT
ATOM      1  C   UNL     1      -6.254   0.198   6.924  1.00  0.00     0.259 C 
ATOM      2  O   UNL     1      -6.930  -0.603   6.293  1.00  0.00    -0.269 OA
ATOM      3  N   UNL     1      -6.644   1.043   7.967  1.00  0.00    -0.274 N 
ATOM      4  C   UNL     1      -7.712   1.177   8.817  1.00  0.00     0.321 C 
ATOM      5  O   UNL     1      -7.618   2.004   9.730  1.00  0.00    -0.248 OA
ATOM      6  N   UNL     1      -8.834   0.439   8.724  1.00  0.00    -0.334 N 
ATOM      7  H   UNL     1      -5.906   1.637   8.321  1.00  0.00     0.175 HD
ATOM      8  H   UNL     1      -9.489   0.599   9.476  1.00  0.00     0.165 HD
ENDROOT
BRANCH   1   9
ATOM      9  C   UNL     1      -4.829   0.296   6.552  1.00  0.00     0.040 A 
ATOM     10  C   UNL     1      -4.366   1.305   5.704  1.00  0.00     0.014 A 
ATOM     11  C   UNL     1      -3.002   1.389   5.423  1.00  0.00     0.004 A 
ATOM     12  C   UNL     1      -3.948  -0.658   7.068  1.00  0.00     0.014 A 
ATOM     13  C   UNL     1      -2.102   0.467   5.978  1.00  0.00    -0.051 A 
ATOM     14  C   UNL     1      -2.585  -0.566   6.790  1.00  0.00     0.004 A 
ATOM     15  C   UNL     1      -0.630   0.622   5.735  1.00  0.00     0.044 C 
ENDBRANCH   1   9
BRANCH   6  16
ATOM     16  C   UNL     1      -9.103  -0.635   7.811  1.00  0.00     0.153 C 
BRANCH  16  17
ATOM     17  C   UNL     1     -10.137  -1.647   8.221  1.00  0.00    -0.029 A 
ATOM     18  C   UNL     1      -9.863  -3.014   8.338  1.00  0.00     0.006 A 
ATOM     19  C   UNL     1     -11.360  -1.157   8.705  1.00  0.00     0.006 A 
ATOM     20  C   UNL     1     -10.790  -3.864   8.951  1.00  0.00     0.004 A 
ATOM     21  C   UNL     1     -12.279  -2.002   9.319  1.00  0.00     0.004 A 
ATOM     22  C   UNL     1     -11.997  -3.362   9.456  1.00  0.00    -0.051 A 
ATOM     23  C   UNL     1     -12.929  -4.237  10.239  1.00  0.00     0.044 C 
ENDBRANCH  16  17
ENDBRANCH   6  16
TORSDOF 3
ENDMDL
MODEL 3
REMARK VINA RESULT:    -6.018      3.142      7.306
REMARK INTER + INTRA:          -7.451
REMARK INTER:                  -6.966
REMARK INTRA:                  -0.485
REMARK UNBOUND:                -0.378
REMARK SMILES Cc1ccc(CNC(=O)NC(=O)c2ccc(C)cc2)cc1
REMARK SMILES IDX 11 1 12 2 10 3 8 4 9 5 7 6 13 9 19 10 18 11 14 12 16 13
REMARK SMILES IDX 15 14 17 15 6 16 5 17 4 18 20 19 3 20 21 21 2 22 1 23
REMARK H PARENT 10 7 7 8
ROOT
ATOM      1  C   UNL     1      -8.737  -0.935   7.950  1.00  0.00     0.259 C 
ATOM      2  O   UNL     1      -8.103  -1.361   6.995  1.00  0.00    -0.269 OA
ATOM      3  N   UNL     1      -8.493   0.204   8.724  1.00  0.00    -0.274 N 
ATOM      4  C   UNL     1      -7.724   1.337   8.646  1.00  0.00     0.321 C 
ATOM      5  O   UNL     1      -7.896   2.207   9.506  1.00  0.00    -0.248 OA
ATOM      6  N   UNL     1      -6.822   1.558   7.672  1.00  0.00    -0.334 N 
ATOM      7  H   UNL     1      -9.149   0.342   9.482  1.00  0.00     0.175 HD
ATOM      8  H   UNL     1      -6.401   2.476   7.708  1.00  0.00     0.165 HD
ENDROOT
BRANCH   1   9
ATOM      9  C   UNL     1      -9.926  -1.710   8.354  1.00  0.00     0.040 A 
ATOM     10  C   UNL     1      -9.915  -3.106   8.365  1.00  0.00     0.014 A 
ATOM     11  C   UNL     1     -11.046  -3.795   8.804  1.00  0.00     0.004 A 
ATOM     12  C   UNL     1     -11.076  -1.005   8.721  1.00  0.00     0.014 A 
ATOM     13  C   UNL     1     -12.188  -3.096   9.224  1.00  0.00    -0.051 A 
ATOM     14  C   UNL     1     -12.201  -1.697   9.165  1.00  0.00     0.004 A 
ATOM     15  C   UNL     1     -13.364  -3.849   9.773  1.00  0.00     0.044 C 
ENDBRANCH   1   9
BRANCH   6  16
ATOM     16  C   UNL     1      -6.545   0.732   6.531  1.00  0.00     0.153 C 
BRANCH  16  17
ATOM     17  C   UNL     1      -5.102   0.537   6.156  1.00  0.00    -0.029 A 
ATOM     18  C   UNL     1      -4.421   1.384   5.276  1.00  0.00     0.006 A 
ATOM     19  C   UNL     1      -4.370  -0.412   6.888  1.00  0.00     0.006 A 
ATOM     20  C   UNL     1      -3.030   1.295   5.154  1.00  0.00     0.004 A 
ATOM     21  C   UNL     1      -2.986  -0.496   6.770  1.00  0.00     0.004 A 
ATOM     22  C   UNL     1      -2.302   0.365   5.909  1.00  0.00    -0.051 A 
ATOM     23  C   UNL     1      -0.803   0.360   5.892  1.00  0.00     0.044 C 
ENDBRANCH  16  17
ENDBRANCH   6  16
TORSDOF 3
ENDMDL
MODEL 4
REMARK VINA RESULT:    -6.011      0.545      8.030
REMARK INTER + INTRA:          -7.444
REMARK INTER:                  -6.960
REMARK INTRA:                  -0.484
REMARK UNBOUND:                -0.378
REMARK SMILES Cc1ccc(CNC(=O)NC(=O)c2ccc(C)cc2)cc1
REMARK SMILES IDX 11 1 12 2 10 3 8 4 9 5 7 6 13 9 19 10 18 11 14 12 16 13
REMARK SMILES IDX 15 14 17 15 6 16 5 17 4 18 20 19 3 20 21 21 2 22 1 23
REMARK H PARENT 10 7 7 8
ROOT
ATOM      1  C   UNL     1      -7.345   2.189   9.063  1.00  0.00     0.259 C 
ATOM      2  O   UNL     1      -6.263   2.383   8.526  1.00  0.00    -0.269 OA
ATOM      3  N   UNL     1      -8.247   1.140   8.859  1.00  0.00    -0.274 N 
ATOM      4  C   UNL     1      -8.246  -0.096   8.264  1.00  0.00     0.321 C 
ATOM      5  O   UNL     1      -9.245  -0.808   8.420  1.00  0.00    -0.248 OA
ATOM      6  N   UNL     1      -7.211  -0.580   7.553  1.00  0.00    -0.334 N 
ATOM      7  H   UNL     1      -9.094   1.205   9.407  1.00  0.00     0.175 HD
ATOM      8  H   UNL     1      -7.333  -1.537   7.256  1.00  0.00     0.165 HD
ENDROOT
BRANCH   1   9
ATOM      9  C   UNL     1      -7.772   3.182  10.067  1.00  0.00     0.040 A 
ATOM     10  C   UNL     1      -7.551   4.547   9.881  1.00  0.00     0.014 A 
ATOM     11  C   UNL     1      -8.020   5.452  10.833  1.00  0.00     0.004 A 
ATOM     12  C   UNL     1      -8.404   2.715  11.224  1.00  0.00     0.014 A 
ATOM     13  C   UNL     1      -8.701   4.998  11.973  1.00  0.00    -0.051 A 
ATOM     14  C   UNL     1      -8.877   3.623  12.170  1.00  0.00     0.004 A 
ATOM     15  C   UNL     1      -9.273   5.988  12.945  1.00  0.00     0.044 C 
ENDBRANCH   1   9
BRANCH   6  16
ATOM     16  C   UNL     1      -5.931   0.035   7.342  1.00  0.00     0.153 C 
BRANCH  16  17
ATOM     17  C   UNL     1      -5.346  -0.047   5.959  1.00  0.00    -0.029 A 
ATOM     18  C   UNL     1      -4.520  -1.095   5.540  1.00  0.00     0.006 A 
ATOM     19  C   UNL     1      -5.830   0.859   5.001  1.00  0.00     0.006 A 
ATOM     20  C   UNL     1      -4.207  -1.242   4.185  1.00  0.00     0.004 A 
ATOM     21  C   UNL     1      -5.522   0.710   3.653  1.00  0.00     0.004 A 
ATOM     22  C   UNL     1      -4.716  -0.349   3.231  1.00  0.00    -0.051 A 
ATOM     23  C   UNL     1      -4.503  -0.582   1.765  1.00  0.00     0.044 C 
ENDBRANCH  16  17
ENDBRANCH   6  16
TORSDOF 3
ENDMDL
MODEL 5
REMARK VINA RESULT:    -5.776      1.131      7.906
REMARK INTER + INTRA:          -7.168
REMARK INTER:                  -6.679
REMARK INTRA:                  -0.489
REMARK UNBOUND:                -0.378
REMARK SMILES Cc1ccc(CNC(=O)NC(=O)c2ccc(C)cc2)cc1
REMARK SMILES IDX 11 1 12 2 10 3 8 4 9 5 7 6 13 9 19 10 18 11 14 12 16 13
REMARK SMILES IDX 15 14 17 15 6 16 5 17 4 18 20 19 3 20 21 21 2 22 1 23
REMARK H PARENT 10 7 7 8
ROOT
ATOM      1  C   UNL     1      -7.306   2.226   9.518  1.00  0.00     0.259 C 
ATOM      2  O   UNL     1      -6.095   2.253   9.351  1.00  0.00    -0.269 OA
ATOM      3  N   UNL     1      -8.243   1.331   8.990  1.00  0.00    -0.274 N 
ATOM      4  C   UNL     1      -8.237   0.114   8.359  1.00  0.00     0.321 C 
ATOM      5  O   UNL     1      -9.326  -0.435   8.162  1.00  0.00    -0.248 OA
ATOM      6  N   UNL     1      -7.113  -0.521   7.976  1.00  0.00    -0.334 N 
ATOM      7  H   UNL     1      -9.199   1.525   9.255  1.00  0.00     0.175 HD
ATOM      8  H   UNL     1      -7.275  -1.445   7.604  1.00  0.00     0.165 HD
ENDROOT
BRANCH   1   9
ATOM      9  C   UNL     1      -7.876   3.268  10.394  1.00  0.00     0.040 A 
ATOM     10  C   UNL     1      -8.563   2.939  11.564  1.00  0.00     0.014 A 
ATOM     11  C   UNL     1      -9.038   3.960  12.388  1.00  0.00     0.004 A 
ATOM     12  C   UNL     1      -7.715   4.604  10.016  1.00  0.00     0.014 A 
ATOM     13  C   UNL     1      -8.837   5.305  12.044  1.00  0.00    -0.051 A 
ATOM     14  C   UNL     1      -8.186   5.621  10.845  1.00  0.00     0.004 A 
ATOM     15  C   UNL     1      -9.278   6.390  12.982  1.00  0.00     0.044 C 
ENDBRANCH   1   9
BRANCH   6  16
ATOM     16  C   UNL     1      -5.756  -0.111   8.201  1.00  0.00     0.153 C 
BRANCH  16  17
ATOM     17  C   UNL     1      -4.855  -0.020   7.001  1.00  0.00    -0.029 A 
ATOM     18  C   UNL     1      -3.638  -0.702   6.906  1.00  0.00     0.006 A 
ATOM     19  C   UNL     1      -5.370   0.611   5.857  1.00  0.00     0.006 A 
ATOM     20  C   UNL     1      -2.967  -0.770   5.681  1.00  0.00     0.004 A 
ATOM     21  C   UNL     1      -4.703   0.539   4.638  1.00  0.00     0.004 A 
ATOM     22  C   UNL     1      -3.500  -0.161   4.537  1.00  0.00    -0.051 A 
ATOM     23  C   UNL     1      -2.862  -0.350   3.193  1.00  0.00     0.044 C 
ENDBRANCH  16  17
ENDBRANCH   6  16
TORSDOF 3
ENDMDL
MODEL 6
REMARK VINA RESULT:    -5.053      8.226     11.360
REMARK INTER + INTRA:          -6.317
REMARK INTER:                  -5.849
REMARK INTRA:                  -0.468
REMARK UNBOUND:                -0.378
REMARK SMILES Cc1ccc(CNC(=O)NC(=O)c2ccc(C)cc2)cc1
REMARK SMILES IDX 11 1 12 2 10 3 8 4 9 5 7 6 13 9 19 10 18 11 14 12 16 13
REMARK SMILES IDX 15 14 17 15 6 16 5 17 4 18 20 19 3 20 21 21 2 22 1 23
REMARK H PARENT 10 7 7 8
ROOT
ATOM      1  C   UNL     1     -13.551  -5.700  11.959  1.00  0.00     0.259 C 
ATOM      2  O   UNL     1     -13.294  -4.536  12.229  1.00  0.00    -0.269 OA
ATOM      3  N   UNL     1     -13.919  -6.253  10.728  1.00  0.00    -0.274 N 
ATOM      4  C   UNL     1     -13.917  -5.879   9.409  1.00  0.00     0.321 C 
ATOM      5  O   UNL     1     -14.212  -6.737   8.570  1.00  0.00    -0.248 OA
ATOM      6  N   UNL     1     -13.585  -4.646   8.985  1.00  0.00    -0.334 N 
ATOM      7  H   UNL     1     -14.104  -7.247  10.756  1.00  0.00     0.175 HD
ATOM      8  H   UNL     1     -13.550  -4.557   7.980  1.00  0.00     0.165 HD
ENDROOT
BRANCH   1   9
ATOM      9  C   UNL     1     -13.461  -6.671  13.067  1.00  0.00     0.040 A 
ATOM     10  C   UNL     1     -14.123  -6.457  14.278  1.00  0.00     0.014 A 
ATOM     11  C   UNL     1     -14.051  -7.428  15.277  1.00  0.00     0.004 A 
ATOM     12  C   UNL     1     -12.684  -7.817  12.875  1.00  0.00     0.014 A 
ATOM     13  C   UNL     1     -13.316  -8.606  15.074  1.00  0.00    -0.051 A 
ATOM     14  C   UNL     1     -12.620  -8.787  13.873  1.00  0.00     0.004 A 
ATOM     15  C   UNL     1     -13.318  -9.677  16.125  1.00  0.00     0.044 C 
ENDBRANCH   1   9
BRANCH   6  16
ATOM     16  C   UNL     1     -13.117  -3.544   9.778  1.00  0.00     0.153 C 
BRANCH  16  17
ATOM     17  C   UNL     1     -11.868  -2.845   9.318  1.00  0.00    -0.029 A 
ATOM     18  C   UNL     1     -10.751  -3.525   8.823  1.00  0.00     0.006 A 
ATOM     19  C   UNL     1     -11.922  -1.447   9.192  1.00  0.00     0.006 A 
ATOM     20  C   UNL     1      -9.723  -2.817   8.191  1.00  0.00     0.004 A 
ATOM     21  C   UNL     1     -10.901  -0.744   8.559  1.00  0.00     0.004 A 
ATOM     22  C   UNL     1      -9.797  -1.425   8.044  1.00  0.00    -0.051 A 
ATOM     23  C   UNL     1      -8.771  -0.678   7.245  1.00  0.00     0.044 C 
ENDBRANCH  16  17
ENDBRANCH   6  16
TORSDOF 3
ENDMDL
MODEL 7
REMARK VINA RESULT:    -4.621      4.613      7.053
REMARK INTER + INTRA:          -5.810
REMARK INTER:                  -5.331
REMARK INTRA:                  -0.480
REMARK UNBOUND:                -0.378
REMARK SMILES Cc1ccc(CNC(=O)NC(=O)c2ccc(C)cc2)cc1
REMARK SMILES IDX 11 1 12 2 10 3 8 4 9 5 7 6 13 9 19 10 18 11 14 12 16 13
REMARK SMILES IDX 15 14 17 15 6 16 5 17 4 18 20 19 3 20 21 21 2 22 1 23
REMARK H PARENT 10 7 7 8
ROOT
ATOM      1  C   UNL     1      -9.339  -0.909   7.861  1.00  0.00     0.259 C 
ATOM      2  O   UNL     1      -9.650  -1.968   7.333  1.00  0.00    -0.269 OA
ATOM      3  N   UNL     1     -10.064  -0.144   8.780  1.00  0.00    -0.274 N 
ATOM      4  C   UNL     1     -11.158  -0.302   9.592  1.00  0.00     0.321 C 
ATOM      5  O   UNL     1     -11.415   0.605  10.390  1.00  0.00    -0.248 OA
ATOM      6  N   UNL     1     -11.938  -1.399   9.584  1.00  0.00    -0.334 N 
ATOM      7  H   UNL     1      -9.606   0.713   9.061  1.00  0.00     0.175 HD
ATOM      8  H   UNL     1     -12.649  -1.397  10.301  1.00  0.00     0.165 HD
ENDROOT
BRANCH   1   9
ATOM      9  C   UNL     1      -8.024  -0.350   7.496  1.00  0.00     0.040 A 
ATOM     10  C   UNL     1      -6.918  -0.482   8.338  1.00  0.00     0.014 A 
ATOM     11  C   UNL     1      -5.682   0.017   7.926  1.00  0.00     0.004 A 
ATOM     12  C   UNL     1      -7.913   0.327   6.278  1.00  0.00     0.014 A 
ATOM     13  C   UNL     1      -5.548   0.652   6.682  1.00  0.00    -0.051 A 
ATOM     14  C   UNL     1      -6.675   0.818   5.867  1.00  0.00     0.004 A 
ATOM     15  C   UNL     1      -4.196   1.108   6.217  1.00  0.00     0.044 C 
ENDBRANCH   1   9
BRANCH   6  16
ATOM     16  C   UNL     1     -11.755  -2.599   8.817  1.00  0.00     0.153 C 
BRANCH  16  17
ATOM     17  C   UNL     1     -11.850  -3.908   9.550  1.00  0.00    -0.029 A 
ATOM     18  C   UNL     1     -10.828  -4.401  10.368  1.00  0.00     0.006 A 
ATOM     19  C   UNL     1     -13.101  -4.544   9.570  1.00  0.00     0.006 A 
ATOM     20  C   UNL     1     -11.068  -5.494  11.207  1.00  0.00     0.004 A 
ATOM     21  C   UNL     1     -13.341  -5.629  10.408  1.00  0.00     0.004 A 
ATOM     22  C   UNL     1     -12.328  -6.107  11.242  1.00  0.00    -0.051 A 
ATOM     23  C   UNL     1     -12.635  -7.185  12.238  1.00  0.00     0.044 C 
ENDBRANCH  16  17
ENDBRANCH   6  16
TORSDOF 3
ENDMDL
MODEL 8
REMARK VINA RESULT:    -4.525      7.812     10.310
REMARK INTER + INTRA:          -5.697
REMARK INTER:                  -5.094
REMARK INTRA:                  -0.603
REMARK UNBOUND:                -0.378
REMARK SMILES Cc1ccc(CNC(=O)NC(=O)c2ccc(C)cc2)cc1
REMARK SMILES IDX 11 1 12 2 10 3 8 4 9 5 7 6 13 9 19 10 18 11 14 12 16 13
REMARK SMILES IDX 15 14 17 15 6 16 5 17 4 18 20 19 3 20 21 21 2 22 1 23
REMARK H PARENT 10 7 7 8
ROOT
ATOM      1  C   UNL     1     -12.917  -3.577   9.566  1.00  0.00     0.259 C 
ATOM      2  O   UNL     1     -13.061  -4.717   9.148  1.00  0.00    -0.269 OA
ATOM      3  N   UNL     1     -13.713  -2.871  10.474  1.00  0.00    -0.274 N 
ATOM      4  C   UNL     1     -14.708  -3.145  11.376  1.00  0.00     0.321 C 
ATOM      5  O   UNL     1     -15.079  -2.229  12.117  1.00  0.00    -0.248 OA
ATOM      6  N   UNL     1     -15.274  -4.359  11.514  1.00  0.00    -0.334 N 
ATOM      7  H   UNL     1     -13.403  -1.924  10.651  1.00  0.00     0.175 HD
ATOM      8  H   UNL     1     -15.930  -4.417  12.280  1.00  0.00     0.165 HD
ENDROOT
BRANCH   1   9
ATOM      9  C   UNL     1     -11.750  -2.830   9.060  1.00  0.00     0.040 A 
ATOM     10  C   UNL     1     -10.617  -3.489   8.578  1.00  0.00     0.014 A 
ATOM     11  C   UNL     1      -9.559  -2.741   8.060  1.00  0.00     0.004 A 
ATOM     12  C   UNL     1     -11.804  -1.433   9.081  1.00  0.00     0.014 A 
ATOM     13  C   UNL     1      -9.626  -1.340   8.030  1.00  0.00    -0.051 A 
ATOM     14  C   UNL     1     -10.748  -0.690   8.557  1.00  0.00     0.004 A 
ATOM     15  C   UNL     1      -8.518  -0.554   7.393  1.00  0.00     0.044 C 
ENDBRANCH   1   9
BRANCH   6  16
ATOM     16  C   UNL     1     -14.922  -5.572  10.832  1.00  0.00     0.153 C 
BRANCH  16  17
ATOM     17  C   UNL     1     -14.334  -6.682  11.658  1.00  0.00    -0.029 A 
ATOM     18  C   UNL     1     -12.983  -6.735  12.014  1.00  0.00     0.006 A 
ATOM     19  C   UNL     1     -15.231  -7.577  12.263  1.00  0.00     0.006 A 
ATOM     20  C   UNL     1     -12.548  -7.653  12.976  1.00  0.00     0.004 A 
ATOM     21  C   UNL     1     -14.798  -8.486  13.224  1.00  0.00     0.004 A 
ATOM     22  C   UNL     1     -13.453  -8.525  13.596  1.00  0.00    -0.051 A 
ATOM     23  C   UNL     1     -13.022  -9.410  14.727  1.00  0.00     0.044 C 
ENDBRANCH  16  17
ENDBRANCH   6  16
TORSDOF 3
ENDMDL
MODEL 9
REMARK VINA RESULT:    -4.327      8.075     11.223
REMARK INTER + INTRA:          -5.465
REMARK INTER:                  -4.986
REMARK INTRA:                  -0.479
REMARK UNBOUND:                -0.378
REMARK SMILES Cc1ccc(CNC(=O)NC(=O)c2ccc(C)cc2)cc1
REMARK SMILES IDX 11 1 12 2 10 3 8 4 9 5 7 6 13 9 19 10 18 11 14 12 16 13
REMARK SMILES IDX 15 14 17 15 6 16 5 17 4 18 20 19 3 20 21 21 2 22 1 23
REMARK H PARENT 10 7 7 8
ROOT
ATOM      1  C   UNL     1     -12.897  -5.490  12.426  1.00  0.00     0.259 C 
ATOM      2  O   UNL     1     -12.341  -5.689  11.355  1.00  0.00    -0.269 OA
ATOM      3  N   UNL     1     -13.430  -4.298  12.928  1.00  0.00    -0.274 N 
ATOM      4  C   UNL     1     -13.766  -3.058  12.449  1.00  0.00     0.321 C 
ATOM      5  O   UNL     1     -14.360  -2.290  13.213  1.00  0.00    -0.248 OA
ATOM      6  N   UNL     1     -13.511  -2.651  11.192  1.00  0.00    -0.334 N 
ATOM      7  H   UNL     1     -13.824  -4.376  13.856  1.00  0.00     0.175 HD
ATOM      8  H   UNL     1     -13.898  -1.745  10.971  1.00  0.00     0.165 HD
ENDROOT
BRANCH   1   9
ATOM      9  C   UNL     1     -13.040  -6.653  13.323  1.00  0.00     0.040 A 
ATOM     10  C   UNL     1     -12.465  -7.887  13.012  1.00  0.00     0.014 A 
ATOM     11  C   UNL     1     -12.582  -8.943  13.916  1.00  0.00     0.004 A 
ATOM     12  C   UNL     1     -13.778  -6.489  14.499  1.00  0.00     0.014 A 
ATOM     13  C   UNL     1     -13.276  -8.774  15.123  1.00  0.00    -0.051 A 
ATOM     14  C   UNL     1     -13.887  -7.545  15.402  1.00  0.00     0.004 A 
ATOM     15  C   UNL     1     -13.321  -9.893  16.122  1.00  0.00     0.044 C 
ENDBRANCH   1   9
BRANCH   6  16
ATOM     16  C   UNL     1     -12.931  -3.416  10.124  1.00  0.00     0.153 C 
BRANCH  16  17
ATOM     17  C   UNL     1     -11.925  -2.724   9.247  1.00  0.00    -0.029 A 
ATOM     18  C   UNL     1     -11.895  -1.338   9.067  1.00  0.00     0.006 A 
ATOM     19  C   UNL     1     -10.853  -3.494   8.766  1.00  0.00     0.006 A 
ATOM     20  C   UNL     1     -10.799  -0.737   8.439  1.00  0.00     0.004 A 
ATOM     21  C   UNL     1      -9.761  -2.895   8.146  1.00  0.00     0.004 A 
ATOM     22  C   UNL     1      -9.720  -1.509   7.986  1.00  0.00    -0.051 A 
ATOM     23  C   UNL     1      -8.481  -0.861   7.443  1.00  0.00     0.044 C 
ENDBRANCH  16  17
ENDBRANCH   6  16
TORSDOF 3
ENDMDL
