MODEL 1
REMARK VINA RESULT:    -4.036      0.000      0.000
REMARK INTER + INTRA:          -5.576
REMARK INTER:                  -5.334
REMARK INTRA:                  -0.242
REMARK UNBOUND:                -0.242
REMARK SMILES [H]/N=C\C[C@H]1C[C@@H]1O[C@H]1CO[C@H]2C[C@@H](C3CC3)CCN2C1
REMARK SMILES IDX 7 1 6 2 5 3 8 4 9 5 14 6 13 7 18 8 12 9 19 10 20 11 11 12
REMARK SMILES IDX 21 13 10 14 15 15 16 16 17 17 4 18 3 19 2 20 1 21
REMARK H PARENT
ROOT
ATOM      1  C   UNL     1      -9.187  -1.566   8.307  1.00  0.00     0.122 C 
ATOM      2  C   UNL     1     -10.663  -1.287   8.263  1.00  0.00     0.039 C 
ATOM      3  C   UNL     1     -10.153  -2.670   7.976  1.00  0.00     0.026 C 
ENDROOT
BRANCH   1   4
ATOM      4  O   UNL     1      -8.450  -1.002   7.205  1.00  0.00    -0.371 OA
BRANCH   4   5
ATOM      5  C   UNL     1      -8.318   0.429   7.215  1.00  0.00     0.158 C 
ATOM      6  C   UNL     1      -3.457   0.781   5.359  1.00  0.00    -0.003 C 
ATOM      7  C   UNL     1      -4.099   0.338   6.679  1.00  0.00     0.052 C 
ATOM      8  C   UNL     1      -4.404   0.448   4.197  1.00  0.00     0.019 C 
ATOM      9  C   UNL     1      -5.514   0.907   6.844  1.00  0.00     0.189 C 
ATOM     10  C   UNL     1      -5.804   1.013   4.439  1.00  0.00     0.087 C 
ATOM     11  N   UNL     1      -6.352   0.529   5.705  1.00  0.00    -0.276 NA
ATOM     12  O   UNL     1      -6.021   0.392   8.077  1.00  0.00    -0.360 OA
ATOM     13  C   UNL     1      -7.729   0.992   5.910  1.00  0.00     0.121 C 
ATOM     14  C   UNL     1      -7.362   0.811   8.350  1.00  0.00     0.195 C 
BRANCH   6  15
ATOM     15  C   UNL     1      -2.110   0.126   5.150  1.00  0.00    -0.008 C 
ATOM     16  C   UNL     1      -0.888   0.967   4.865  1.00  0.00     0.004 C 
ATOM     17  C   UNL     1      -1.017   0.259   6.182  1.00  0.00     0.004 C 
ENDBRANCH   6  15
ENDBRANCH   4   5
ENDBRANCH   1   4
BRANCH   3  18
ATOM     18  C   UNL     1     -10.420  -3.763   8.967  1.00  0.00     0.053 C 
BRANCH  18  19
ATOM     19  C   UNL     1     -11.860  -3.971   9.358  1.00  0.00     0.074 C 
BRANCH  19  20
ATOM     20  N   UNL     1     -12.676  -4.817   8.824  1.00  0.00    -0.313 NA
ATOM     21  H   UNL     1     -12.174  -5.559   8.316  1.00  0.00     0.186 HD
ENDBRANCH  19  20
ENDBRANCH  18  19
ENDBRANCH   3  18
TORSDOF 6
ENDMDL
MODEL 2
REMARK VINA RESULT:    -4.033      3.299      5.550
REMARK INTER + INTRA:          -5.572
REMARK INTER:                  -5.332
REMARK INTRA:                  -0.240
REMARK UNBOUND:                -0.242
REMARK SMILES [H]/N=C\C[C@H]1C[C@@H]1O[C@H]1CO[C@H]2C[C@@H](C3CC3)CCN2C1
REMARK SMILES IDX 7 1 6 2 5 3 8 4 9 5 14 6 13 7 18 8 12 9 19 10 20 11 11 12
REMARK SMILES IDX 21 13 10 14 15 15 16 16 17 17 4 18 3 19 2 20 1 21
REMARK H PARENT
ROOT
ATOM      1  C   UNL     1      -7.655   2.950   9.407  1.00  0.00     0.122 C 
ATOM      2  C   UNL     1      -7.824   2.972  10.900  1.00  0.00     0.039 C 
ATOM      3  C   UNL     1      -7.291   4.183  10.189  1.00  0.00     0.026 C 
ENDROOT
BRANCH   1   4
ATOM      4  O   UNL     1      -6.563   2.129   8.952  1.00  0.00    -0.371 OA
BRANCH   4   5
ATOM      5  C   UNL     1      -6.791   0.711   9.000  1.00  0.00     0.158 C 
ATOM      6  C   UNL     1      -4.450  -0.611   4.530  1.00  0.00    -0.003 C 
ATOM      7  C   UNL     1      -5.748   0.108   4.920  1.00  0.00     0.052 C 
ATOM      8  C   UNL     1      -3.372  -0.317   5.582  1.00  0.00     0.019 C 
ATOM      9  C   UNL     1      -6.171  -0.219   6.358  1.00  0.00     0.189 C 
ATOM     10  C   UNL     1      -3.867  -0.631   6.993  1.00  0.00     0.087 C 
ATOM     11  N   UNL     1      -5.094   0.107   7.294  1.00  0.00    -0.276 NA
ATOM     12  O   UNL     1      -7.354   0.538   6.618  1.00  0.00    -0.360 OA
ATOM     13  C   UNL     1      -5.535  -0.117   8.675  1.00  0.00     0.121 C 
ATOM     14  C   UNL     1      -7.850   0.363   7.949  1.00  0.00     0.195 C 
BRANCH   6  15
ATOM     15  C   UNL     1      -3.978  -0.197   3.155  1.00  0.00    -0.008 C 
ATOM     16  C   UNL     1      -3.577  -1.240   2.139  1.00  0.00     0.004 C 
ATOM     17  C   UNL     1      -4.833  -0.445   1.936  1.00  0.00     0.004 C 
ENDBRANCH   6  15
ENDBRANCH   4   5
ENDBRANCH   1   4
BRANCH   3  18
ATOM     18  C   UNL     1      -8.147   5.411  10.105  1.00  0.00     0.053 C 
BRANCH  18  19
ATOM     19  C   UNL     1      -8.729   5.907  11.402  1.00  0.00     0.074 C 
BRANCH  19  20
ATOM     20  N   UNL     1      -8.121   6.643  12.273  1.00  0.00    -0.313 NA
ATOM     21  H   UNL     1      -7.098   6.546  12.204  1.00  0.00     0.186 HD
ENDBRANCH  19  20
ENDBRANCH  18  19
ENDBRANCH   3  18
TORSDOF 6
ENDMDL
MODEL 3
REMARK VINA RESULT:    -3.969      5.168      8.395
REMARK INTER + INTRA:          -5.487
REMARK INTER:                  -5.339
REMARK INTRA:                  -0.147
REMARK UNBOUND:                -0.242
REMARK SMILES [H]/N=C\C[C@H]1C[C@@H]1O[C@H]1CO[C@H]2C[C@@H](C3CC3)CCN2C1
REMARK SMILES IDX 7 1 6 2 5 3 8 4 9 5 14 6 13 7 18 8 12 9 19 10 20 11 11 12
REMARK SMILES IDX 21 13 10 14 15 15 16 16 17 17 4 18 3 19 2 20 1 21
REMARK H PARENT
ROOT
ATOM      1  C   UNL     1      -7.307   0.998   7.961  1.00  0.00     0.122 C 
ATOM      2  C   UNL     1      -8.245   0.008   7.331  1.00  0.00     0.039 C 
ATOM      3  C   UNL     1      -7.712   1.156   6.521  1.00  0.00     0.026 C 
ENDROOT
BRANCH   1   4
ATOM      4  O   UNL     1      -7.936   1.883   8.908  1.00  0.00    -0.371 OA
BRANCH   4   5
ATOM      5  C   UNL     1      -7.105   2.317   9.997  1.00  0.00     0.158 C 
ATOM      6  C   UNL     1      -9.914   6.434  11.532  1.00  0.00    -0.003 C 
ATOM      7  C   UNL     1      -9.018   6.102  10.333  1.00  0.00     0.052 C 
ATOM      8  C   UNL     1     -10.614   5.155  12.013  1.00  0.00     0.019 C 
ATOM      9  C   UNL     1      -8.059   4.944  10.642  1.00  0.00     0.189 C 
ATOM     10  C   UNL     1      -9.609   4.032  12.270  1.00  0.00     0.087 C 
ATOM     11  N   UNL     1      -8.808   3.764  11.075  1.00  0.00    -0.276 NA
ATOM     12  O   UNL     1      -7.316   4.698   9.447  1.00  0.00    -0.360 OA
ATOM     13  C   UNL     1      -7.899   2.630  11.278  1.00  0.00     0.121 C 
ATOM     14  C   UNL     1      -6.398   3.608   9.572  1.00  0.00     0.195 C 
BRANCH   6  15
ATOM     15  C   UNL     1     -10.932   7.498  11.186  1.00  0.00    -0.008 C 
ATOM     16  C   UNL     1     -11.457   8.429  12.253  1.00  0.00     0.004 C 
ATOM     17  C   UNL     1     -10.553   8.959  11.178  1.00  0.00     0.004 C 
ENDBRANCH   6  15
ENDBRANCH   4   5
ENDBRANCH   1   4
BRANCH   3  18
ATOM     18  C   UNL     1      -6.728   0.876   5.424  1.00  0.00     0.053 C 
BRANCH  18  19
ATOM     19  C   UNL     1      -6.923   1.644   4.143  1.00  0.00     0.074 C 
BRANCH  19  20
ATOM     20  N   UNL     1      -8.049   2.079   3.685  1.00  0.00    -0.313 NA
ATOM     21  H   UNL     1      -8.800   1.383   3.797  1.00  0.00     0.186 HD
ENDBRANCH  19  20
ENDBRANCH  18  19
ENDBRANCH   3  18
TORSDOF 6
ENDMDL
MODEL 4
REMARK VINA RESULT:    -3.944      2.706      8.580
REMARK INTER + INTRA:          -5.454
REMARK INTER:                  -5.350
REMARK INTRA:                  -0.103
REMARK UNBOUND:                -0.242
REMARK SMILES [H]/N=C\C[C@H]1C[C@@H]1O[C@H]1CO[C@H]2C[C@@H](C3CC3)CCN2C1
REMARK SMILES IDX 7 1 6 2 5 3 8 4 9 5 14 6 13 7 18 8 12 9 19 10 20 11 11 12
REMARK SMILES IDX 21 13 10 14 15 15 16 16 17 17 4 18 3 19 2 20 1 21
REMARK H PARENT
ROOT
ATOM      1  C   UNL     1      -7.467   0.111   7.947  1.00  0.00     0.122 C 
ATOM      2  C   UNL     1      -6.753   1.069   8.858  1.00  0.00     0.039 C 
ATOM      3  C   UNL     1      -6.131  -0.259   8.531  1.00  0.00     0.026 C 
ENDROOT
BRANCH   1   4
ATOM      4  O   UNL     1      -8.624  -0.510   8.539  1.00  0.00    -0.371 OA
BRANCH   4   5
ATOM      5  C   UNL     1      -9.647  -0.921   7.617  1.00  0.00     0.158 C 
ATOM      6  C   UNL     1     -12.074  -4.407  10.643  1.00  0.00    -0.003 C 
ATOM      7  C   UNL     1     -10.737  -4.345   9.896  1.00  0.00     0.052 C 
ATOM      8  C   UNL     1     -12.461  -2.997  11.110  1.00  0.00     0.019 C 
ATOM      9  C   UNL     1     -10.760  -3.299   8.773  1.00  0.00     0.189 C 
ATOM     10  C   UNL     1     -12.432  -1.999   9.953  1.00  0.00     0.087 C 
ATOM     11  N   UNL     1     -11.120  -1.985   9.306  1.00  0.00    -0.276 NA
ATOM     12  O   UNL     1      -9.457  -3.300   8.186  1.00  0.00    -0.360 OA
ATOM     13  C   UNL     1     -11.049  -0.969   8.250  1.00  0.00     0.121 C 
ATOM     14  C   UNL     1      -9.315  -2.337   7.137  1.00  0.00     0.195 C 
BRANCH   6  15
ATOM     15  C   UNL     1     -12.008  -5.356  11.819  1.00  0.00    -0.008 C 
ATOM     16  C   UNL     1     -13.270  -5.975  12.372  1.00  0.00     0.004 C 
ATOM     17  C   UNL     1     -12.278  -6.831  11.639  1.00  0.00     0.004 C 
ENDBRANCH   6  15
ENDBRANCH   4   5
ENDBRANCH   1   4
BRANCH   3  18
ATOM     18  C   UNL     1      -4.910  -0.295   7.661  1.00  0.00     0.053 C 
BRANCH  18  19
ATOM     19  C   UNL     1      -3.732  -1.065   8.198  1.00  0.00     0.074 C 
BRANCH  19  20
ATOM     20  N   UNL     1      -3.570  -1.444   9.422  1.00  0.00    -0.313 NA
ATOM     21  H   UNL     1      -4.292  -2.119   9.709  1.00  0.00     0.186 HD
ENDBRANCH  19  20
ENDBRANCH  18  19
ENDBRANCH   3  18
TORSDOF 6
ENDMDL
MODEL 5
REMARK VINA RESULT:    -3.647      4.960      7.297
REMARK INTER + INTRA:          -5.061
REMARK INTER:                  -4.841
REMARK INTRA:                  -0.220
REMARK UNBOUND:                -0.242
REMARK SMILES [H]/N=C\C[C@H]1C[C@@H]1O[C@H]1CO[C@H]2C[C@@H](C3CC3)CCN2C1
REMARK SMILES IDX 7 1 6 2 5 3 8 4 9 5 14 6 13 7 18 8 12 9 19 10 20 11 11 12
REMARK SMILES IDX 21 13 10 14 15 15 16 16 17 17 4 18 3 19 2 20 1 21
REMARK H PARENT
ROOT
ATOM      1  C   UNL     1      -9.415   6.133  10.731  1.00  0.00     0.122 C 
ATOM      2  C   UNL     1      -9.735   7.390   9.971  1.00  0.00     0.039 C 
ATOM      3  C   UNL     1     -10.834   6.431  10.328  1.00  0.00     0.026 C 
ENDROOT
BRANCH   1   4
ATOM      4  O   UNL     1      -8.720   5.138   9.956  1.00  0.00    -0.371 OA
BRANCH   4   5
ATOM      5  C   UNL     1      -7.725   4.383  10.666  1.00  0.00     0.158 C 
ATOM      6  C   UNL     1      -8.293  -0.176   8.198  1.00  0.00    -0.003 C 
ATOM      7  C   UNL     1      -9.111   0.633   9.212  1.00  0.00     0.052 C 
ATOM      8  C   UNL     1      -7.525   0.786   7.282  1.00  0.00     0.019 C 
ATOM      9  C   UNL     1      -8.242   1.651   9.963  1.00  0.00     0.189 C 
ATOM     10  C   UNL     1      -6.707   1.794   8.091  1.00  0.00     0.087 C 
ATOM     11  N   UNL     1      -7.561   2.536   9.018  1.00  0.00    -0.276 NA
ATOM     12  O   UNL     1      -9.115   2.369  10.836  1.00  0.00    -0.360 OA
ATOM     13  C   UNL     1      -6.807   3.567   9.739  1.00  0.00     0.121 C 
ATOM     14  C   UNL     1      -8.446   3.390  11.583  1.00  0.00     0.195 C 
BRANCH   6  15
ATOM     15  C   UNL     1      -9.174  -1.096   7.383  1.00  0.00    -0.008 C 
ATOM     16  C   UNL     1      -9.430  -2.513   7.840  1.00  0.00     0.004 C 
ATOM     17  C   UNL     1     -10.539  -1.503   7.881  1.00  0.00     0.004 C 
ENDBRANCH   6  15
ENDBRANCH   4   5
ENDBRANCH   1   4
BRANCH   3  18
ATOM     18  C   UNL     1     -11.843   6.835  11.361  1.00  0.00     0.053 C 
BRANCH  18  19
ATOM     19  C   UNL     1     -12.948   5.849  11.634  1.00  0.00     0.074 C 
BRANCH  19  20
ATOM     20  N   UNL     1     -12.964   4.609  11.271  1.00  0.00    -0.313 NA
ATOM     21  H   UNL     1     -12.778   4.507  10.263  1.00  0.00     0.186 HD
ENDBRANCH  19  20
ENDBRANCH  18  19
ENDBRANCH   3  18
TORSDOF 6
ENDMDL
MODEL 6
REMARK VINA RESULT:    -3.645      4.410      7.004
REMARK INTER + INTRA:          -5.059
REMARK INTER:                  -4.797
REMARK INTRA:                  -0.262
REMARK UNBOUND:                -0.242
REMARK SMILES [H]/N=C\C[C@H]1C[C@@H]1O[C@H]1CO[C@H]2C[C@@H](C3CC3)CCN2C1
REMARK SMILES IDX 7 1 6 2 5 3 8 4 9 5 14 6 13 7 18 8 12 9 19 10 20 11 11 12
REMARK SMILES IDX 21 13 10 14 15 15 16 16 17 17 4 18 3 19 2 20 1 21
REMARK H PARENT
ROOT
ATOM      1  C   UNL     1     -13.442  -2.086  13.266  1.00  0.00     0.122 C 
ATOM      2  C   UNL     1     -12.911  -2.800  14.476  1.00  0.00     0.039 C 
ATOM      3  C   UNL     1     -12.829  -1.303  14.394  1.00  0.00     0.026 C 
ENDROOT
BRANCH   1   4
ATOM      4  O   UNL     1     -12.636  -2.253  12.084  1.00  0.00    -0.371 OA
BRANCH   4   5
ATOM      5  C   UNL     1     -13.328  -2.099  10.835  1.00  0.00     0.158 C 
ATOM      6  C   UNL     1      -9.239  -0.934   7.813  1.00  0.00    -0.003 C 
ATOM      7  C   UNL     1     -10.037  -0.214   8.907  1.00  0.00     0.052 C 
ATOM      8  C   UNL     1      -9.220  -2.441   8.107  1.00  0.00     0.019 C 
ATOM      9  C   UNL     1     -11.429  -0.832   9.098  1.00  0.00     0.189 C 
ATOM     10  C   UNL     1     -10.632  -2.986   8.321  1.00  0.00     0.087 C 
ATOM     11  N   UNL     1     -11.317  -2.261   9.391  1.00  0.00    -0.276 NA
ATOM     12  O   UNL     1     -12.052  -0.114  10.165  1.00  0.00    -0.360 OA
ATOM     13  C   UNL     1     -12.641  -2.830   9.667  1.00  0.00     0.121 C 
ATOM     14  C   UNL     1     -13.356  -0.608  10.486  1.00  0.00     0.195 C 
BRANCH   6  15
ATOM     15  C   UNL     1      -7.830  -0.396   7.708  1.00  0.00    -0.008 C 
ATOM     16  C   UNL     1      -7.482   0.632   6.657  1.00  0.00     0.004 C 
ATOM     17  C   UNL     1      -7.514   1.025   8.106  1.00  0.00     0.004 C 
ENDBRANCH   6  15
ENDBRANCH   4   5
ENDBRANCH   1   4
BRANCH   3  18
ATOM     18  C   UNL     1     -13.695  -0.477  15.299  1.00  0.00     0.053 C 
BRANCH  18  19
ATOM     19  C   UNL     1     -13.054   0.747  15.899  1.00  0.00     0.074 C 
BRANCH  19  20
ATOM     20  N   UNL     1     -11.809   1.075  15.801  1.00  0.00    -0.313 NA
ATOM     21  H   UNL     1     -11.613   1.563  14.915  1.00  0.00     0.186 HD
ENDBRANCH  19  20
ENDBRANCH  18  19
ENDBRANCH   3  18
TORSDOF 6
ENDMDL
MODEL 7
REMARK VINA RESULT:    -3.593      5.499      8.456
REMARK INTER + INTRA:          -4.990
REMARK INTER:                  -4.364
REMARK INTRA:                  -0.626
REMARK UNBOUND:                -0.242
REMARK SMILES [H]/N=C\C[C@H]1C[C@@H]1O[C@H]1CO[C@H]2C[C@@H](C3CC3)CCN2C1
REMARK SMILES IDX 7 1 6 2 5 3 8 4 9 5 14 6 13 7 18 8 12 9 19 10 20 11 11 12
REMARK SMILES IDX 21 13 10 14 15 15 16 16 17 17 4 18 3 19 2 20 1 21
REMARK H PARENT
ROOT
ATOM      1  C   UNL     1     -14.305  -1.087  13.464  1.00  0.00     0.122 C 
ATOM      2  C   UNL     1     -13.894  -0.590  14.821  1.00  0.00     0.039 C 
ATOM      3  C   UNL     1     -13.044  -0.282  13.621  1.00  0.00     0.026 C 
ENDROOT
BRANCH   1   4
ATOM      4  O   UNL     1     -14.146  -2.508  13.286  1.00  0.00    -0.371 OA
BRANCH   4   5
ATOM      5  C   UNL     1     -14.855  -3.077  12.174  1.00  0.00     0.158 C 
ATOM      6  C   UNL     1     -10.955  -3.147   8.711  1.00  0.00    -0.003 C 
ATOM      7  C   UNL     1     -11.834  -2.067   9.353  1.00  0.00     0.052 C 
ATOM      8  C   UNL     1     -10.744  -4.291   9.713  1.00  0.00     0.019 C 
ATOM      9  C   UNL     1     -13.136  -2.653   9.917  1.00  0.00     0.189 C 
ATOM     10  C   UNL     1     -12.075  -4.806  10.261  1.00  0.00     0.087 C 
ATOM     11  N   UNL     1     -12.843  -3.721  10.872  1.00  0.00    -0.276 NA
ATOM     12  O   UNL     1     -13.842  -1.569  10.524  1.00  0.00    -0.360 OA
ATOM     13  C   UNL     1     -14.084  -4.214  11.481  1.00  0.00     0.121 C 
ATOM     14  C   UNL     1     -15.073  -1.973  11.133  1.00  0.00     0.195 C 
BRANCH   6  15
ATOM     15  C   UNL     1      -9.626  -2.585   8.260  1.00  0.00    -0.008 C 
ATOM     16  C   UNL     1      -9.382  -2.277   6.801  1.00  0.00     0.004 C 
ATOM     17  C   UNL     1      -9.510  -1.155   7.790  1.00  0.00     0.004 C 
ENDBRANCH   6  15
ENDBRANCH   4   5
ENDBRANCH   1   4
BRANCH   3  18
ATOM     18  C   UNL     1     -12.981   1.129  13.118  1.00  0.00     0.053 C 
BRANCH  18  19
ATOM     19  C   UNL     1     -12.260   1.339  11.812  1.00  0.00     0.074 C 
BRANCH  19  20
ATOM     20  N   UNL     1     -12.773   1.208  10.634  1.00  0.00    -0.313 NA
ATOM     21  H   UNL     1     -12.627   0.261  10.258  1.00  0.00     0.186 HD
ENDBRANCH  19  20
ENDBRANCH  18  19
ENDBRANCH   3  18
TORSDOF 6
ENDMDL
MODEL 8
REMARK VINA RESULT:    -3.570      5.589      7.078
REMARK INTER + INTRA:          -4.959
REMARK INTER:                  -4.699
REMARK INTRA:                  -0.261
REMARK UNBOUND:                -0.242
REMARK SMILES [H]/N=C\C[C@H]1C[C@@H]1O[C@H]1CO[C@H]2C[C@@H](C3CC3)CCN2C1
REMARK SMILES IDX 7 1 6 2 5 3 8 4 9 5 14 6 13 7 18 8 12 9 19 10 20 11 11 12
REMARK SMILES IDX 21 13 10 14 15 15 16 16 17 17 4 18 3 19 2 20 1 21
REMARK H PARENT
ROOT
ATOM      1  C   UNL     1     -13.185   3.279  13.130  1.00  0.00     0.122 C 
ATOM      2  C   UNL     1     -14.511   3.511  12.462  1.00  0.00     0.039 C 
ATOM      3  C   UNL     1     -13.727   2.266  12.160  1.00  0.00     0.026 C 
ENDROOT
BRANCH   1   4
ATOM      4  O   UNL     1     -12.128   4.131  12.649  1.00  0.00    -0.371 OA
BRANCH   4   5
ATOM      5  C   UNL     1     -10.960   4.202  13.483  1.00  0.00     0.158 C 
ATOM      6  C   UNL     1      -7.394   2.749   9.966  1.00  0.00    -0.003 C 
ATOM      7  C   UNL     1      -8.514   2.051  10.747  1.00  0.00     0.052 C 
ATOM      8  C   UNL     1      -7.803   4.201   9.680  1.00  0.00     0.019 C 
ATOM      9  C   UNL     1      -8.916   2.845  11.997  1.00  0.00     0.189 C 
ATOM     10  C   UNL     1      -8.224   4.924  10.959  1.00  0.00     0.087 C 
ATOM     11  N   UNL     1      -9.307   4.207  11.633  1.00  0.00    -0.276 NA
ATOM     12  O   UNL     1      -9.988   2.125  12.610  1.00  0.00    -0.360 OA
ATOM     13  C   UNL     1      -9.782   4.933  12.816  1.00  0.00     0.121 C 
ATOM     14  C   UNL     1     -10.499   2.771  13.780  1.00  0.00     0.195 C 
BRANCH   6  15
ATOM     15  C   UNL     1      -7.080   2.023   8.677  1.00  0.00    -0.008 C 
ATOM     16  C   UNL     1      -6.310   0.724   8.700  1.00  0.00     0.004 C 
ATOM     17  C   UNL     1      -7.766   0.722   8.336  1.00  0.00     0.004 C 
ENDBRANCH   6  15
ENDBRANCH   4   5
ENDBRANCH   1   4
BRANCH   3  18
ATOM     18  C   UNL     1     -14.241   0.946  12.654  1.00  0.00     0.053 C 
BRANCH  18  19
ATOM     19  C   UNL     1     -13.273  -0.207  12.602  1.00  0.00     0.074 C 
BRANCH  19  20
ATOM     20  N   UNL     1     -12.016  -0.154  12.893  1.00  0.00    -0.313 NA
ATOM     21  H   UNL     1     -11.467  -0.816  12.326  1.00  0.00     0.186 HD
ENDBRANCH  19  20
ENDBRANCH  18  19
ENDBRANCH   3  18
TORSDOF 6
ENDMDL
MODEL 9
REMARK VINA RESULT:    -3.542      8.303     10.781
REMARK INTER + INTRA:          -4.923
REMARK INTER:                  -5.670
REMARK INTRA:                   0.747
REMARK UNBOUND:                -0.242
REMARK SMILES [H]/N=C\C[C@H]1C[C@@H]1O[C@H]1CO[C@H]2C[C@@H](C3CC3)CCN2C1
REMARK SMILES IDX 7 1 6 2 5 3 8 4 9 5 14 6 13 7 18 8 12 9 19 10 20 11 11 12
REMARK SMILES IDX 21 13 10 14 15 15 16 16 17 17 4 18 3 19 2 20 1 21
REMARK H PARENT
ROOT
ATOM      1  C   UNL     1      -9.459   7.939  14.960  1.00  0.00     0.122 C 
ATOM      2  C   UNL     1      -9.631   9.023  15.987  1.00  0.00     0.039 C 
ATOM      3  C   UNL     1      -8.412   8.146  16.021  1.00  0.00     0.026 C 
ENDROOT
BRANCH   1   4
ATOM      4  O   UNL     1     -10.343   6.817  15.137  1.00  0.00    -0.371 OA
BRANCH   4   5
ATOM      5  C   UNL     1     -11.322   6.630  14.102  1.00  0.00     0.158 C 
ATOM      6  C   UNL     1      -8.658   3.301  11.097  1.00  0.00    -0.003 C 
ATOM      7  C   UNL     1      -8.570   4.797  11.425  1.00  0.00     0.052 C 
ATOM      8  C   UNL     1      -9.184   2.543  12.324  1.00  0.00     0.019 C 
ATOM      9  C   UNL     1      -9.897   5.339  11.973  1.00  0.00     0.189 C 
ATOM     10  C   UNL     1     -10.487   3.153  12.840  1.00  0.00     0.087 C 
ATOM     11  N   UNL     1     -10.315   4.573  13.147  1.00  0.00    -0.276 NA
ATOM     12  O   UNL     1      -9.678   6.717  12.282  1.00  0.00    -0.360 OA
ATOM     13  C   UNL     1     -11.533   5.152  13.726  1.00  0.00     0.121 C 
ATOM     14  C   UNL     1     -10.830   7.354  12.845  1.00  0.00     0.195 C 
BRANCH   6  15
ATOM     15  C   UNL     1      -7.318   2.748  10.666  1.00  0.00    -0.008 C 
ATOM     16  C   UNL     1      -7.146   2.150   9.290  1.00  0.00     0.004 C 
ATOM     17  C   UNL     1      -6.488   3.457   9.624  1.00  0.00     0.004 C 
ENDBRANCH   6  15
ENDBRANCH   4   5
ENDBRANCH   1   4
BRANCH   3  18
ATOM     18  C   UNL     1      -7.081   8.738  15.664  1.00  0.00     0.053 C 
BRANCH  18  19
ATOM     19  C   UNL     1      -6.929   9.231  14.249  1.00  0.00     0.074 C 
BRANCH  19  20
ATOM     20  N   UNL     1      -6.193  10.222  13.867  1.00  0.00    -0.313 NA
ATOM     21  H   UNL     1      -5.450   9.916  13.223  1.00  0.00     0.186 HD
ENDBRANCH  19  20
ENDBRANCH  18  19
ENDBRANCH   3  18
TORSDOF 6
ENDMDL
