MODEL 1
REMARK VINA RESULT:    -4.034      0.000      0.000
REMARK INTER + INTRA:          -5.703
REMARK INTER:                  -5.331
REMARK INTRA:                  -0.372
REMARK UNBOUND:                -0.372
REMARK SMILES [H]/N=C\C[C@H]1C[C@@H]1O[C@H]1CO[C@H]2C[C@@H](C3CC3)CCN2C1
REMARK SMILES IDX 7 1 6 2 5 3 8 4 9 5 14 6 13 7 18 8 12 9 19 10 20 11 11 12
REMARK SMILES IDX 21 13 10 14 15 15 16 16 17 17 4 18 3 19 2 20 1 21
REMARK H PARENT
ROOT
ATOM      1  C   UNL     1      -4.555  10.824 -17.047  1.00  0.00     0.122 C 
ATOM      2  C   UNL     1      -5.867  10.451 -17.678  1.00  0.00     0.039 C 
ATOM      3  C   UNL     1      -5.750  10.527 -16.183  1.00  0.00     0.026 C 
ENDROOT
BRANCH   1   4
ATOM      4  O   UNL     1      -3.550   9.796 -17.133  1.00  0.00    -0.371 OA
BRANCH   4   5
ATOM      5  C   UNL     1      -2.191  10.261 -17.179  1.00  0.00     0.158 C 
ATOM      6  C   UNL     1      -0.289   7.514 -13.174  1.00  0.00    -0.003 C 
ATOM      7  C   UNL     1      -1.225   8.718 -13.333  1.00  0.00     0.052 C 
ATOM      8  C   UNL     1      -0.459   6.576 -14.377  1.00  0.00     0.019 C 
ATOM      9  C   UNL     1      -1.042   9.405 -14.694  1.00  0.00     0.189 C 
ATOM     10  C   UNL     1      -0.300   7.327 -15.698  1.00  0.00     0.087 C 
ATOM     11  N   UNL     1      -1.238   8.446 -15.781  1.00  0.00    -0.276 NA
ATOM     12  O   UNL     1      -1.991  10.473 -14.743  1.00  0.00    -0.360 OA
ATOM     13  C   UNL     1      -1.158   9.125 -17.079  1.00  0.00     0.121 C 
ATOM     14  C   UNL     1      -1.965  11.189 -15.981  1.00  0.00     0.195 C 
BRANCH   6  15
ATOM     15  C   UNL     1      -0.553   6.774 -11.882  1.00  0.00    -0.008 C 
ATOM     16  C   UNL     1       0.580   6.473 -10.929  1.00  0.00     0.004 C 
ATOM     17  C   UNL     1      -0.465   7.483 -10.552  1.00  0.00     0.004 C 
ENDBRANCH   6  15
ENDBRANCH   4   5
ENDBRANCH   1   4
BRANCH   3  18
ATOM     18  C   UNL     1      -6.449  11.635 -15.454  1.00  0.00     0.053 C 
BRANCH  18  19
ATOM     19  C   UNL     1      -7.123  11.260 -14.160  1.00  0.00     0.074 C 
BRANCH  19  20
ATOM     20  N   UNL     1      -7.965  10.294 -13.996  1.00  0.00    -0.313 NA
ATOM     21  H   UNL     1      -8.326   9.949 -14.897  1.00  0.00     0.186 HD
ENDBRANCH  19  20
ENDBRANCH  18  19
ENDBRANCH   3  18
TORSDOF 6
ENDMDL
MODEL 2
REMARK VINA RESULT:    -3.890      4.745      6.387
REMARK INTER + INTRA:          -5.513
REMARK INTER:                  -5.227
REMARK INTRA:                  -0.286
REMARK UNBOUND:                -0.372
REMARK SMILES [H]/N=C\C[C@H]1C[C@@H]1O[C@H]1CO[C@H]2C[C@@H](C3CC3)CCN2C1
REMARK SMILES IDX 7 1 6 2 5 3 8 4 9 5 14 6 13 7 18 8 12 9 19 10 20 11 11 12
REMARK SMILES IDX 21 13 10 14 15 15 16 16 17 17 4 18 3 19 2 20 1 21
REMARK H PARENT
ROOT
ATOM      1  C   UNL     1      -0.133  10.765 -12.274  1.00  0.00     0.122 C 
ATOM      2  C   UNL     1       0.629  11.984 -11.836  1.00  0.00     0.039 C 
ATOM      3  C   UNL     1       0.884  11.388 -13.191  1.00  0.00     0.026 C 
ENDROOT
BRANCH   1   4
ATOM      4  O   UNL     1       0.261   9.554 -11.602  1.00  0.00    -0.371 OA
BRANCH   4   5
ATOM      5  C   UNL     1      -0.758   8.547 -11.491  1.00  0.00     0.158 C 
ATOM      6  C   UNL     1       2.286   4.319 -11.740  1.00  0.00    -0.003 C 
ATOM      7  C   UNL     1       1.812   5.391 -12.729  1.00  0.00     0.052 C 
ATOM      8  C   UNL     1       2.424   4.943 -10.344  1.00  0.00     0.019 C 
ATOM      9  C   UNL     1       0.546   6.103 -12.235  1.00  0.00     0.189 C 
ATOM     10  C   UNL     1       1.142   5.664  -9.926  1.00  0.00     0.087 C 
ATOM     11  N   UNL     1       0.769   6.680 -10.909  1.00  0.00    -0.276 NA
ATOM     12  O   UNL     1       0.231   7.100 -13.208  1.00  0.00    -0.360 OA
ATOM     13  C   UNL     1      -0.410   7.441 -10.480  1.00  0.00     0.121 C 
ATOM     14  C   UNL     1      -0.918   7.879 -12.861  1.00  0.00     0.195 C 
BRANCH   6  15
ATOM     15  C   UNL     1       3.596   3.702 -12.177  1.00  0.00    -0.008 C 
ATOM     16  C   UNL     1       3.618   2.338 -12.826  1.00  0.00     0.004 C 
ATOM     17  C   UNL     1       3.933   3.558 -13.641  1.00  0.00     0.004 C 
ENDBRANCH   6  15
ENDBRANCH   4   5
ENDBRANCH   1   4
BRANCH   3  18
ATOM     18  C   UNL     1       0.442  12.140 -14.410  1.00  0.00     0.053 C 
BRANCH  18  19
ATOM     19  C   UNL     1       0.958  11.630 -15.731  1.00  0.00     0.074 C 
BRANCH  19  20
ATOM     20  N   UNL     1       1.756  10.628 -15.896  1.00  0.00    -0.313 NA
ATOM     21  H   UNL     1       2.672  10.928 -16.260  1.00  0.00     0.186 HD
ENDBRANCH  19  20
ENDBRANCH  18  19
ENDBRANCH   3  18
TORSDOF 6
ENDMDL
MODEL 3
REMARK VINA RESULT:    -3.761      1.824      2.276
REMARK INTER + INTRA:          -5.342
REMARK INTER:                  -5.483
REMARK INTRA:                   0.140
REMARK UNBOUND:                -0.372
REMARK SMILES [H]/N=C\C[C@H]1C[C@@H]1O[C@H]1CO[C@H]2C[C@@H](C3CC3)CCN2C1
REMARK SMILES IDX 7 1 6 2 5 3 8 4 9 5 14 6 13 7 18 8 12 9 19 10 20 11 11 12
REMARK SMILES IDX 21 13 10 14 15 15 16 16 17 17 4 18 3 19 2 20 1 21
REMARK H PARENT
ROOT
ATOM      1  C   UNL     1      -4.803  11.943 -14.801  1.00  0.00     0.122 C 
ATOM      2  C   UNL     1      -4.292  12.471 -16.112  1.00  0.00     0.039 C 
ATOM      3  C   UNL     1      -5.243  11.308 -16.092  1.00  0.00     0.026 C 
ENDROOT
BRANCH   1   4
ATOM      4  O   UNL     1      -3.818  11.226 -14.032  1.00  0.00    -0.371 OA
BRANCH   4   5
ATOM      5  C   UNL     1      -2.452  11.605 -14.269  1.00  0.00     0.158 C 
ATOM      6  C   UNL     1      -0.116   7.385 -12.285  1.00  0.00    -0.003 C 
ATOM      7  C   UNL     1      -0.868   8.593 -11.715  1.00  0.00     0.052 C 
ATOM      8  C   UNL     1      -0.702   7.023 -13.657  1.00  0.00     0.019 C 
ATOM      9  C   UNL     1      -0.903   9.763 -12.708  1.00  0.00     0.189 C 
ATOM     10  C   UNL     1      -0.740   8.237 -14.585  1.00  0.00     0.087 C 
ATOM     11  N   UNL     1      -1.490   9.336 -13.978  1.00  0.00    -0.276 NA
ATOM     12  O   UNL     1      -1.663  10.802 -12.089  1.00  0.00    -0.360 OA
ATOM     13  C   UNL     1      -1.610  10.478 -14.892  1.00  0.00     0.121 C 
ATOM     14  C   UNL     1      -1.815  11.957 -12.920  1.00  0.00     0.195 C 
BRANCH   6  15
ATOM     15  C   UNL     1      -0.183   6.198 -11.350  1.00  0.00    -0.008 C 
ATOM     16  C   UNL     1       1.077   5.647 -10.724  1.00  0.00     0.004 C 
ATOM     17  C   UNL     1       0.071   6.364  -9.871  1.00  0.00     0.004 C 
ENDBRANCH   6  15
ENDBRANCH   4   5
ENDBRANCH   1   4
BRANCH   3  18
ATOM     18  C   UNL     1      -6.642  11.505 -16.593  1.00  0.00     0.053 C 
BRANCH  18  19
ATOM     19  C   UNL     1      -7.211  10.393 -17.435  1.00  0.00     0.074 C 
BRANCH  19  20
ATOM     20  N   UNL     1      -7.965   9.433 -17.013  1.00  0.00    -0.313 NA
ATOM     21  H   UNL     1      -7.617   8.514 -17.319  1.00  0.00     0.186 HD
ENDBRANCH  19  20
ENDBRANCH  18  19
ENDBRANCH   3  18
TORSDOF 6
ENDMDL
MODEL 4
REMARK VINA RESULT:    -3.711      5.494      8.611
REMARK INTER + INTRA:          -5.276
REMARK INTER:                  -5.070
REMARK INTRA:                  -0.206
REMARK UNBOUND:                -0.372
REMARK SMILES [H]/N=C\C[C@H]1C[C@@H]1O[C@H]1CO[C@H]2C[C@@H](C3CC3)CCN2C1
REMARK SMILES IDX 7 1 6 2 5 3 8 4 9 5 14 6 13 7 18 8 12 9 19 10 20 11 11 12
REMARK SMILES IDX 21 13 10 14 15 15 16 16 17 17 4 18 3 19 2 20 1 21
REMARK H PARENT
ROOT
ATOM      1  C   UNL     1       0.445   7.041 -11.050  1.00  0.00     0.122 C 
ATOM      2  C   UNL     1      -0.446   7.064 -12.259  1.00  0.00     0.039 C 
ATOM      3  C   UNL     1      -0.680   8.035 -11.137  1.00  0.00     0.026 C 
ENDROOT
BRANCH   1   4
ATOM      4  O   UNL     1       0.237   5.905 -10.189  1.00  0.00    -0.371 OA
BRANCH   4   5
ATOM      5  C   UNL     1       0.697   4.645 -10.704  1.00  0.00     0.158 C 
ATOM      6  C   UNL     1       3.090   2.877  -6.420  1.00  0.00    -0.003 C 
ATOM      7  C   UNL     1       3.369   3.965  -7.463  1.00  0.00     0.052 C 
ATOM      8  C   UNL     1       1.573   2.731  -6.231  1.00  0.00     0.019 C 
ATOM      9  C   UNL     1       2.598   3.715  -8.767  1.00  0.00     0.189 C 
ATOM     10  C   UNL     1       0.862   2.520  -7.568  1.00  0.00     0.087 C 
ATOM     11  N   UNL     1       1.164   3.607  -8.499  1.00  0.00    -0.276 NA
ATOM     12  O   UNL     1       2.900   4.809  -9.636  1.00  0.00    -0.360 OA
ATOM     13  C   UNL     1       0.421   3.464  -9.755  1.00  0.00     0.121 C 
ATOM     14  C   UNL     1       2.216   4.733 -10.890  1.00  0.00     0.195 C 
BRANCH   6  15
ATOM     15  C   UNL     1       3.761   3.188  -5.101  1.00  0.00    -0.008 C 
ATOM     16  C   UNL     1       4.519   2.113  -4.357  1.00  0.00     0.004 C 
ATOM     17  C   UNL     1       5.266   3.248  -4.994  1.00  0.00     0.004 C 
ENDBRANCH   6  15
ENDBRANCH   4   5
ENDBRANCH   1   4
BRANCH   3  18
ATOM     18  C   UNL     1      -0.389   9.488 -11.361  1.00  0.00     0.053 C 
BRANCH  18  19
ATOM     19  C   UNL     1      -1.157  10.159 -12.470  1.00  0.00     0.074 C 
BRANCH  19  20
ATOM     20  N   UNL     1      -2.298  10.751 -12.351  1.00  0.00    -0.313 NA
ATOM     21  H   UNL     1      -2.515  11.328 -13.177  1.00  0.00     0.186 HD
ENDBRANCH  19  20
ENDBRANCH  18  19
ENDBRANCH   3  18
TORSDOF 6
ENDMDL
MODEL 5
REMARK VINA RESULT:    -3.702      8.492     10.657
REMARK INTER + INTRA:          -5.265
REMARK INTER:                  -5.077
REMARK INTRA:                  -0.187
REMARK UNBOUND:                -0.372
REMARK SMILES [H]/N=C\C[C@H]1C[C@@H]1O[C@H]1CO[C@H]2C[C@@H](C3CC3)CCN2C1
REMARK SMILES IDX 7 1 6 2 5 3 8 4 9 5 14 6 13 7 18 8 12 9 19 10 20 11 11 12
REMARK SMILES IDX 21 13 10 14 15 15 16 16 17 17 4 18 3 19 2 20 1 21
REMARK H PARENT
ROOT
ATOM      1  C   UNL     1       3.016   3.225 -12.613  1.00  0.00     0.122 C 
ATOM      2  C   UNL     1       3.686   3.960 -13.739  1.00  0.00     0.039 C 
ATOM      3  C   UNL     1       4.046   2.530 -13.459  1.00  0.00     0.026 C 
ENDROOT
BRANCH   1   4
ATOM      4  O   UNL     1       3.437   3.649 -11.302  1.00  0.00    -0.371 OA
BRANCH   4   5
ATOM      5  C   UNL     1       2.973   4.946 -10.891  1.00  0.00     0.158 C 
ATOM      6  C   UNL     1       1.519   3.752  -6.027  1.00  0.00    -0.003 C 
ATOM      7  C   UNL     1       0.985   3.463  -7.435  1.00  0.00     0.052 C 
ATOM      8  C   UNL     1       3.051   3.843  -6.074  1.00  0.00     0.019 C 
ATOM      9  C   UNL     1       1.520   4.467  -8.465  1.00  0.00     0.189 C 
ATOM     10  C   UNL     1       3.519   4.832  -7.141  1.00  0.00     0.087 C 
ATOM     11  N   UNL     1       2.983   4.476  -8.455  1.00  0.00    -0.276 NA
ATOM     12  O   UNL     1       0.995   4.070  -9.733  1.00  0.00    -0.360 OA
ATOM     13  C   UNL     1       3.493   5.365  -9.505  1.00  0.00     0.121 C 
ATOM     14  C   UNL     1       1.443   4.900 -10.809  1.00  0.00     0.195 C 
BRANCH   6  15
ATOM     15  C   UNL     1       1.080   2.695  -5.039  1.00  0.00    -0.008 C 
ATOM     16  C   UNL     1       0.621   3.087  -3.654  1.00  0.00     0.004 C 
ATOM     17  C   UNL     1      -0.371   2.556  -4.648  1.00  0.00     0.004 C 
ENDBRANCH   6  15
ENDBRANCH   4   5
ENDBRANCH   1   4
BRANCH   3  18
ATOM     18  C   UNL     1       3.632   1.471 -14.437  1.00  0.00     0.053 C 
BRANCH  18  19
ATOM     19  C   UNL     1       4.164   1.614 -15.839  1.00  0.00     0.074 C 
BRANCH  19  20
ATOM     20  N   UNL     1       5.236   1.061 -16.302  1.00  0.00    -0.313 NA
ATOM     21  H   UNL     1       5.116   0.045 -16.426  1.00  0.00     0.186 HD
ENDBRANCH  19  20
ENDBRANCH  18  19
ENDBRANCH   3  18
TORSDOF 6
ENDMDL
MODEL 6
REMARK VINA RESULT:    -3.689      3.775      5.744
REMARK INTER + INTRA:          -5.247
REMARK INTER:                  -5.430
REMARK INTRA:                   0.183
REMARK UNBOUND:                -0.372
REMARK SMILES [H]/N=C\C[C@H]1C[C@@H]1O[C@H]1CO[C@H]2C[C@@H](C3CC3)CCN2C1
REMARK SMILES IDX 7 1 6 2 5 3 8 4 9 5 14 6 13 7 18 8 12 9 19 10 20 11 11 12
REMARK SMILES IDX 21 13 10 14 15 15 16 16 17 17 4 18 3 19 2 20 1 21
REMARK H PARENT
ROOT
ATOM      1  C   UNL     1      -0.046  10.885 -11.784  1.00  0.00     0.122 C 
ATOM      2  C   UNL     1       0.891  11.889 -12.394  1.00  0.00     0.039 C 
ATOM      3  C   UNL     1      -0.450  11.639 -13.021  1.00  0.00     0.026 C 
ENDROOT
BRANCH   1   4
ATOM      4  O   UNL     1       0.361   9.515 -11.967  1.00  0.00    -0.371 OA
BRANCH   4   5
ATOM      5  C   UNL     1      -0.663   8.531 -11.748  1.00  0.00     0.158 C 
ATOM      6  C   UNL     1       2.343   4.268 -11.728  1.00  0.00    -0.003 C 
ATOM      7  C   UNL     1       1.851   5.260 -12.789  1.00  0.00     0.052 C 
ATOM      8  C   UNL     1       2.522   5.002 -10.391  1.00  0.00     0.019 C 
ATOM      9  C   UNL     1       0.603   6.022 -12.322  1.00  0.00     0.189 C 
ATOM     10  C   UNL     1       1.257   5.767 -10.001  1.00  0.00     0.087 C 
ATOM     11  N   UNL     1       0.865   6.703 -11.054  1.00  0.00    -0.276 NA
ATOM     12  O   UNL     1       0.270   6.939 -13.366  1.00  0.00    -0.360 OA
ATOM     13  C   UNL     1      -0.296   7.507 -10.659  1.00  0.00     0.121 C 
ATOM     14  C   UNL     1      -0.864   7.755 -13.054  1.00  0.00     0.195 C 
BRANCH   6  15
ATOM     15  C   UNL     1       3.636   3.605 -12.146  1.00  0.00    -0.008 C 
ATOM     16  C   UNL     1       3.620   2.240 -12.792  1.00  0.00     0.004 C 
ATOM     17  C   UNL     1       3.988   3.446 -13.605  1.00  0.00     0.004 C 
ENDBRANCH   6  15
ENDBRANCH   4   5
ENDBRANCH   1   4
BRANCH   3  18
ATOM     18  C   UNL     1      -1.498  12.708 -12.946  1.00  0.00     0.053 C 
BRANCH  18  19
ATOM     19  C   UNL     1      -2.921  12.263 -13.164  1.00  0.00     0.074 C 
BRANCH  19  20
ATOM     20  N   UNL     1      -3.798  12.051 -12.241  1.00  0.00    -0.313 NA
ATOM     21  H   UNL     1      -3.713  11.103 -11.847  1.00  0.00     0.186 HD
ENDBRANCH  19  20
ENDBRANCH  18  19
ENDBRANCH   3  18
TORSDOF 6
ENDMDL
MODEL 7
REMARK VINA RESULT:    -3.540      2.582      7.441
REMARK INTER + INTRA:          -5.050
REMARK INTER:                  -5.008
REMARK INTRA:                  -0.042
REMARK UNBOUND:                -0.372
REMARK SMILES [H]/N=C\C[C@H]1C[C@@H]1O[C@H]1CO[C@H]2C[C@@H](C3CC3)CCN2C1
REMARK SMILES IDX 7 1 6 2 5 3 8 4 9 5 14 6 13 7 18 8 12 9 19 10 20 11 11 12
REMARK SMILES IDX 21 13 10 14 15 15 16 16 17 17 4 18 3 19 2 20 1 21
REMARK H PARENT
ROOT
ATOM      1  C   UNL     1      -0.228   8.334 -11.298  1.00  0.00     0.122 C 
ATOM      2  C   UNL     1      -0.780   7.553 -10.139  1.00  0.00     0.039 C 
ATOM      3  C   UNL     1      -0.402   6.843 -11.407  1.00  0.00     0.026 C 
ENDROOT
BRANCH   1   4
ATOM      4  O   UNL     1      -1.204   9.148 -11.975  1.00  0.00    -0.371 OA
BRANCH   4   5
ATOM      5  C   UNL     1      -0.675  10.255 -12.724  1.00  0.00     0.158 C 
ATOM      6  C   UNL     1      -5.095  11.852 -14.987  1.00  0.00    -0.003 C 
ATOM      7  C   UNL     1      -4.149  10.655 -15.147  1.00  0.00     0.052 C 
ATOM      8  C   UNL     1      -5.106  12.297 -13.518  1.00  0.00     0.019 C 
ATOM      9  C   UNL     1      -2.757  10.948 -14.572  1.00  0.00     0.189 C 
ATOM     10  C   UNL     1      -3.689  12.539 -12.998  1.00  0.00     0.087 C 
ATOM     11  N   UNL     1      -2.858  11.347 -13.168  1.00  0.00    -0.276 NA
ATOM     12  O   UNL     1      -1.988   9.754 -14.735  1.00  0.00    -0.360 OA
ATOM     13  C   UNL     1      -1.521  11.534 -12.594  1.00  0.00     0.121 C 
ATOM     14  C   UNL     1      -0.663   9.864 -14.205  1.00  0.00     0.195 C 
BRANCH   6  15
ATOM     15  C   UNL     1      -6.495  11.519 -15.451  1.00  0.00    -0.008 C 
ATOM     16  C   UNL     1      -6.865  11.640 -16.911  1.00  0.00     0.004 C 
ATOM     17  C   UNL     1      -6.763  10.284 -16.277  1.00  0.00     0.004 C 
ENDBRANCH   6  15
ENDBRANCH   4   5
ENDBRANCH   1   4
BRANCH   3  18
ATOM     18  C   UNL     1       0.795   5.941 -11.406  1.00  0.00     0.053 C 
BRANCH  18  19
ATOM     19  C   UNL     1       0.928   5.012 -10.227  1.00  0.00     0.074 C 
BRANCH  19  20
ATOM     20  N   UNL     1       0.644   3.753 -10.219  1.00  0.00    -0.313 NA
ATOM     21  H   UNL     1       1.175   3.239 -10.937  1.00  0.00     0.186 HD
ENDBRANCH  19  20
ENDBRANCH  18  19
ENDBRANCH   3  18
TORSDOF 6
ENDMDL
MODEL 8
REMARK VINA RESULT:    -3.476      4.704      6.427
REMARK INTER + INTRA:          -4.965
REMARK INTER:                  -4.967
REMARK INTRA:                   0.002
REMARK UNBOUND:                -0.372
REMARK SMILES [H]/N=C\C[C@H]1C[C@@H]1O[C@H]1CO[C@H]2C[C@@H](C3CC3)CCN2C1
REMARK SMILES IDX 7 1 6 2 5 3 8 4 9 5 14 6 13 7 18 8 12 9 19 10 20 11 11 12
REMARK SMILES IDX 21 13 10 14 15 15 16 16 17 17 4 18 3 19 2 20 1 21
REMARK H PARENT
ROOT
ATOM      1  C   UNL     1       0.625   6.424 -17.255  1.00  0.00     0.122 C 
ATOM      2  C   UNL     1      -0.795   6.409 -17.745  1.00  0.00     0.039 C 
ATOM      3  C   UNL     1      -0.512   6.435 -16.270  1.00  0.00     0.026 C 
ENDROOT
BRANCH   1   4
ATOM      4  O   UNL     1       1.318   5.173 -17.425  1.00  0.00    -0.371 OA
BRANCH   4   5
ATOM      5  C   UNL     1       2.753   5.256 -17.438  1.00  0.00     0.158 C 
ATOM      6  C   UNL     1       3.678   3.560 -12.593  1.00  0.00    -0.003 C 
ATOM      7  C   UNL     1       3.107   4.838 -13.219  1.00  0.00     0.052 C 
ATOM      8  C   UNL     1       3.313   2.357 -13.474  1.00  0.00     0.019 C 
ATOM      9  C   UNL     1       3.524   4.989 -14.688  1.00  0.00     0.189 C 
ATOM     10  C   UNL     1       3.724   2.585 -14.929  1.00  0.00     0.087 C 
ATOM     11  N   UNL     1       3.124   3.810 -15.456  1.00  0.00    -0.276 NA
ATOM     12  O   UNL     1       2.900   6.181 -15.170  1.00  0.00    -0.360 OA
ATOM     13  C   UNL     1       3.438   3.997 -16.877  1.00  0.00     0.121 C 
ATOM     14  C   UNL     1       3.170   6.435 -16.552  1.00  0.00     0.195 C 
BRANCH   6  15
ATOM     15  C   UNL     1       3.171   3.359 -11.183  1.00  0.00    -0.008 C 
ATOM     16  C   UNL     1       3.066   4.530 -10.235  1.00  0.00     0.004 C 
ATOM     17  C   UNL     1       1.819   3.883 -10.764  1.00  0.00     0.004 C 
ENDBRANCH   6  15
ENDBRANCH   4   5
ENDBRANCH   1   4
BRANCH   3  18
ATOM     18  C   UNL     1      -0.825   7.678 -15.492  1.00  0.00     0.053 C 
BRANCH  18  19
ATOM     19  C   UNL     1      -0.474   7.653 -14.027  1.00  0.00     0.074 C 
BRANCH  19  20
ATOM     20  N   UNL     1       0.384   6.867 -13.467  1.00  0.00    -0.313 NA
ATOM     21  H   UNL     1       1.219   6.737 -14.055  1.00  0.00     0.186 HD
ENDBRANCH  19  20
ENDBRANCH  18  19
ENDBRANCH   3  18
TORSDOF 6
ENDMDL
MODEL 9
REMARK VINA RESULT:    -3.472      3.804      6.407
REMARK INTER + INTRA:          -4.960
REMARK INTER:                  -4.493
REMARK INTRA:                  -0.467
REMARK UNBOUND:                -0.372
REMARK SMILES [H]/N=C\C[C@H]1C[C@@H]1O[C@H]1CO[C@H]2C[C@@H](C3CC3)CCN2C1
REMARK SMILES IDX 7 1 6 2 5 3 8 4 9 5 14 6 13 7 18 8 12 9 19 10 20 11 11 12
REMARK SMILES IDX 21 13 10 14 15 15 16 16 17 17 4 18 3 19 2 20 1 21
REMARK H PARENT
ROOT
ATOM      1  C   UNL     1       2.196   6.767 -17.389  1.00  0.00     0.122 C 
ATOM      2  C   UNL     1       3.641   6.978 -17.745  1.00  0.00     0.039 C 
ATOM      3  C   UNL     1       3.272   6.470 -16.380  1.00  0.00     0.026 C 
ENDROOT
BRANCH   1   4
ATOM      4  O   UNL     1       1.454   7.987 -17.200  1.00  0.00    -0.371 OA
BRANCH   4   5
ATOM      5  C   UNL     1       0.024   7.849 -17.206  1.00  0.00     0.158 C 
ATOM      6  C   UNL     1      -0.796   7.988 -12.056  1.00  0.00    -0.003 C 
ATOM      7  C   UNL     1      -0.202   6.979 -13.047  1.00  0.00     0.052 C 
ATOM      8  C   UNL     1      -0.503   9.413 -12.546  1.00  0.00     0.019 C 
ATOM      9  C   UNL     1      -0.663   7.254 -14.485  1.00  0.00     0.189 C 
ATOM     10  C   UNL     1      -0.954   9.610 -13.993  1.00  0.00     0.087 C 
ATOM     11  N   UNL     1      -0.330   8.624 -14.875  1.00  0.00    -0.276 NA
ATOM     12  O   UNL     1      -0.014   6.287 -15.314  1.00  0.00    -0.360 OA
ATOM     13  C   UNL     1      -0.685   8.854 -16.280  1.00  0.00     0.121 C 
ATOM     14  C   UNL     1      -0.321   6.444 -16.703  1.00  0.00     0.195 C 
BRANCH   6  15
ATOM     15  C   UNL     1      -0.250   7.783 -10.662  1.00  0.00    -0.008 C 
ATOM     16  C   UNL     1      -0.920   6.817  -9.713  1.00  0.00     0.004 C 
ATOM     17  C   UNL     1       0.432   6.491 -10.280  1.00  0.00     0.004 C 
ENDBRANCH   6  15
ENDBRANCH   4   5
ENDBRANCH   1   4
BRANCH   3  18
ATOM     18  C   UNL     1       3.599   5.051 -16.020  1.00  0.00     0.053 C 
BRANCH  18  19
ATOM     19  C   UNL     1       3.299   4.638 -14.603  1.00  0.00     0.074 C 
BRANCH  19  20
ATOM     20  N   UNL     1       2.321   5.071 -13.879  1.00  0.00    -0.313 NA
ATOM     21  H   UNL     1       2.039   4.380 -13.169  1.00  0.00     0.186 HD
ENDBRANCH  19  20
ENDBRANCH  18  19
ENDBRANCH   3  18
TORSDOF 6
ENDMDL
