MODEL 1
REMARK VINA RESULT:    -5.942      0.000      0.000
REMARK INTER + INTRA:          -7.509
REMARK INTER:                  -6.984
REMARK INTRA:                  -0.525
REMARK UNBOUND:                -0.525
REMARK SMILES Cc1ccc(CNC(=O)NC(=O)c2ccc(C)cc2)cc1
REMARK SMILES IDX 11 1 12 2 10 3 8 4 9 5 7 6 13 9 19 10 18 11 14 12 16 13
REMARK SMILES IDX 15 14 17 15 6 16 5 17 4 18 20 19 3 20 21 21 2 22 1 23
REMARK H PARENT 10 7 7 8
ROOT
ATOM      1  C   UNL     1      -2.005  10.672 -13.390  1.00  0.00     0.259 C 
ATOM      2  O   UNL     1      -1.863  10.836 -14.594  1.00  0.00    -0.269 OA
ATOM      3  N   UNL     1      -2.736  11.445 -12.482  1.00  0.00    -0.274 N 
ATOM      4  C   UNL     1      -3.690  12.429 -12.527  1.00  0.00     0.321 C 
ATOM      5  O   UNL     1      -4.205  12.777 -11.459  1.00  0.00    -0.248 OA
ATOM      6  N   UNL     1      -4.111  13.006 -13.667  1.00  0.00    -0.334 N 
ATOM      7  H   UNL     1      -2.686  11.122 -11.525  1.00  0.00     0.175 HD
ATOM      8  H   UNL     1      -4.878  13.650 -13.538  1.00  0.00     0.165 HD
ENDROOT
BRANCH   1   9
ATOM      9  C   UNL     1      -1.324   9.505 -12.797  1.00  0.00     0.040 A 
ATOM     10  C   UNL     1      -0.849   9.528 -11.484  1.00  0.00     0.014 A 
ATOM     11  C   UNL     1      -0.260   8.382 -10.950  1.00  0.00     0.004 A 
ATOM     12  C   UNL     1      -1.160   8.367 -13.592  1.00  0.00     0.014 A 
ATOM     13  C   UNL     1      -0.137   7.218 -11.723  1.00  0.00    -0.051 A 
ATOM     14  C   UNL     1      -0.577   7.222 -13.052  1.00  0.00     0.004 A 
ATOM     15  C   UNL     1       0.422   5.969 -11.108  1.00  0.00     0.044 C 
ENDBRANCH   1   9
BRANCH   6  16
ATOM     16  C   UNL     1      -3.722  12.679 -15.010  1.00  0.00     0.153 C 
BRANCH  16  17
ATOM     17  C   UNL     1      -4.737  11.979 -15.871  1.00  0.00    -0.029 A 
ATOM     18  C   UNL     1      -4.417  11.378 -17.093  1.00  0.00     0.006 A 
ATOM     19  C   UNL     1      -6.004  11.746 -15.311  1.00  0.00     0.006 A 
ATOM     20  C   UNL     1      -5.343  10.541 -17.725  1.00  0.00     0.004 A 
ATOM     21  C   UNL     1      -6.922  10.910 -15.939  1.00  0.00     0.004 A 
ATOM     22  C   UNL     1      -6.595  10.292 -17.147  1.00  0.00    -0.051 A 
ATOM     23  C   UNL     1      -7.535   9.287 -17.744  1.00  0.00     0.044 C 
ENDBRANCH  16  17
ENDBRANCH   6  16
TORSDOF 3
ENDMDL
MODEL 2
REMARK VINA RESULT:    -5.900      8.142     11.112
REMARK INTER + INTRA:          -7.460
REMARK INTER:                  -6.965
REMARK INTRA:                  -0.495
REMARK UNBOUND:                -0.525
REMARK SMILES Cc1ccc(CNC(=O)NC(=O)c2ccc(C)cc2)cc1
REMARK SMILES IDX 11 1 12 2 10 3 8 4 9 5 7 6 13 9 19 10 18 11 14 12 16 13
REMARK SMILES IDX 15 14 17 15 6 16 5 17 4 18 20 19 3 20 21 21 2 22 1 23
REMARK H PARENT 10 7 7 8
ROOT
ATOM      1  C   UNL     1       2.886   3.700 -11.830  1.00  0.00     0.259 C 
ATOM      2  O   UNL     1       3.368   3.110 -10.873  1.00  0.00    -0.269 OA
ATOM      3  N   UNL     1       1.934   4.724 -11.837  1.00  0.00    -0.274 N 
ATOM      4  C   UNL     1       1.372   5.592 -10.936  1.00  0.00     0.321 C 
ATOM      5  O   UNL     1       0.631   6.476 -11.378  1.00  0.00    -0.248 OA
ATOM      6  N   UNL     1       1.610   5.547  -9.612  1.00  0.00    -0.334 N 
ATOM      7  H   UNL     1       1.672   5.042 -12.761  1.00  0.00     0.175 HD
ATOM      8  H   UNL     1       1.189   6.308  -9.098  1.00  0.00     0.165 HD
ENDROOT
BRANCH   1   9
ATOM      9  C   UNL     1       3.364   3.294 -13.165  1.00  0.00     0.040 A 
ATOM     10  C   UNL     1       3.681   1.964 -13.452  1.00  0.00     0.014 A 
ATOM     11  C   UNL     1       4.079   1.620 -14.744  1.00  0.00     0.004 A 
ATOM     12  C   UNL     1       3.500   4.284 -14.143  1.00  0.00     0.014 A 
ATOM     13  C   UNL     1       4.168   2.597 -15.747  1.00  0.00    -0.051 A 
ATOM     14  C   UNL     1       3.891   3.934 -15.434  1.00  0.00     0.004 A 
ATOM     15  C   UNL     1       4.515   2.198 -17.151  1.00  0.00     0.044 C 
ENDBRANCH   1   9
BRANCH   6  16
ATOM     16  C   UNL     1       2.511   4.675  -8.913  1.00  0.00     0.153 C 
BRANCH  16  17
ATOM     17  C   UNL     1       2.020   4.061  -7.631  1.00  0.00    -0.029 A 
ATOM     18  C   UNL     1       2.084   4.716  -6.397  1.00  0.00     0.006 A 
ATOM     19  C   UNL     1       1.281   2.871  -7.730  1.00  0.00     0.006 A 
ATOM     20  C   UNL     1       1.399   4.198  -5.293  1.00  0.00     0.004 A 
ATOM     21  C   UNL     1       0.595   2.360  -6.633  1.00  0.00     0.004 A 
ATOM     22  C   UNL     1       0.640   3.025  -5.406  1.00  0.00    -0.051 A 
ATOM     23  C   UNL     1      -0.210   2.543  -4.269  1.00  0.00     0.044 C 
ENDBRANCH  16  17
ENDBRANCH   6  16
TORSDOF 3
ENDMDL
MODEL 3
REMARK VINA RESULT:    -5.895      5.228     10.947
REMARK INTER + INTRA:          -7.453
REMARK INTER:                  -6.960
REMARK INTRA:                  -0.493
REMARK UNBOUND:                -0.525
REMARK SMILES Cc1ccc(CNC(=O)NC(=O)c2ccc(C)cc2)cc1
REMARK SMILES IDX 11 1 12 2 10 3 8 4 9 5 7 6 13 9 19 10 18 11 14 12 16 13
REMARK SMILES IDX 15 14 17 15 6 16 5 17 4 18 20 19 3 20 21 21 2 22 1 23
REMARK H PARENT 10 7 7 8
ROOT
ATOM      1  C   UNL     1       0.654   6.248 -10.777  1.00  0.00     0.259 C 
ATOM      2  O   UNL     1       0.400   6.145  -9.585  1.00  0.00    -0.269 OA
ATOM      3  N   UNL     1       1.525   5.480 -11.555  1.00  0.00    -0.274 N 
ATOM      4  C   UNL     1       2.197   4.289 -11.449  1.00  0.00     0.321 C 
ATOM      5  O   UNL     1       2.787   3.871 -12.451  1.00  0.00    -0.248 OA
ATOM      6  N   UNL     1       2.220   3.545 -10.327  1.00  0.00    -0.334 N 
ATOM      7  H   UNL     1       1.587   5.770 -12.522  1.00  0.00     0.175 HD
ATOM      8  H   UNL     1       2.686   2.656 -10.438  1.00  0.00     0.165 HD
ENDROOT
BRANCH   1   9
ATOM      9  C   UNL     1      -0.046   7.319 -11.511  1.00  0.00     0.040 A 
ATOM     10  C   UNL     1      -0.328   8.549 -10.913  1.00  0.00     0.014 A 
ATOM     11  C   UNL     1      -0.945   9.550 -11.664  1.00  0.00     0.004 A 
ATOM     12  C   UNL     1      -0.429   7.068 -12.832  1.00  0.00     0.014 A 
ATOM     13  C   UNL     1      -1.287   9.325 -13.006  1.00  0.00    -0.051 A 
ATOM     14  C   UNL     1      -1.039   8.072 -13.581  1.00  0.00     0.004 A 
ATOM     15  C   UNL     1      -1.872  10.438 -13.824  1.00  0.00     0.044 C 
ENDBRANCH   1   9
BRANCH   6  16
ATOM     16  C   UNL     1       1.523   3.794  -9.097  1.00  0.00     0.153 C 
BRANCH  16  17
ATOM     17  C   UNL     1       2.283   3.579  -7.817  1.00  0.00    -0.029 A 
ATOM     18  C   UNL     1       2.412   2.326  -7.208  1.00  0.00     0.006 A 
ATOM     19  C   UNL     1       3.062   4.647  -7.344  1.00  0.00     0.006 A 
ATOM     20  C   UNL     1       3.324   2.148  -6.162  1.00  0.00     0.004 A 
ATOM     21  C   UNL     1       3.971   4.467  -6.307  1.00  0.00     0.004 A 
ATOM     22  C   UNL     1       4.118   3.213  -5.713  1.00  0.00    -0.051 A 
ATOM     23  C   UNL     1       5.195   2.996  -4.693  1.00  0.00     0.044 C 
ENDBRANCH  16  17
ENDBRANCH   6  16
TORSDOF 3
ENDMDL
MODEL 4
REMARK VINA RESULT:    -5.765      8.077     10.296
REMARK INTER + INTRA:          -7.301
REMARK INTER:                  -6.908
REMARK INTRA:                  -0.393
REMARK UNBOUND:                -0.525
REMARK SMILES Cc1ccc(CNC(=O)NC(=O)c2ccc(C)cc2)cc1
REMARK SMILES IDX 11 1 12 2 10 3 8 4 9 5 7 6 13 9 19 10 18 11 14 12 16 13
REMARK SMILES IDX 15 14 17 15 6 16 5 17 4 18 20 19 3 20 21 21 2 22 1 23
REMARK H PARENT 10 7 7 8
ROOT
ATOM      1  C   UNL     1       2.094   4.073  -9.127  1.00  0.00     0.259 C 
ATOM      2  O   UNL     1       3.146   3.543  -9.458  1.00  0.00    -0.269 OA
ATOM      3  N   UNL     1       1.305   4.977  -9.845  1.00  0.00    -0.274 N 
ATOM      4  C   UNL     1       1.201   5.427 -11.136  1.00  0.00     0.321 C 
ATOM      5  O   UNL     1       0.246   6.161 -11.412  1.00  0.00    -0.248 OA
ATOM      6  N   UNL     1       2.061   5.088 -12.115  1.00  0.00    -0.334 N 
ATOM      7  H   UNL     1       0.483   5.297  -9.351  1.00  0.00     0.175 HD
ATOM      8  H   UNL     1       1.796   5.432 -13.026  1.00  0.00     0.165 HD
ENDROOT
BRANCH   1   9
ATOM      9  C   UNL     1       1.568   3.720  -7.794  1.00  0.00     0.040 A 
ATOM     10  C   UNL     1       1.717   4.576  -6.702  1.00  0.00     0.014 A 
ATOM     11  C   UNL     1       1.157   4.223  -5.474  1.00  0.00     0.004 A 
ATOM     12  C   UNL     1       0.915   2.492  -7.650  1.00  0.00     0.014 A 
ATOM     13  C   UNL     1       0.455   3.017  -5.332  1.00  0.00    -0.051 A 
ATOM     14  C   UNL     1       0.351   2.146  -6.424  1.00  0.00     0.004 A 
ATOM     15  C   UNL     1      -0.215   2.691  -4.030  1.00  0.00     0.044 C 
ENDBRANCH   1   9
BRANCH   6  16
ATOM     16  C   UNL     1       3.165   4.174 -12.032  1.00  0.00     0.153 C 
BRANCH  16  17
ATOM     17  C   UNL     1       3.579   3.476 -13.298  1.00  0.00    -0.029 A 
ATOM     18  C   UNL     1       3.667   2.084 -13.408  1.00  0.00     0.006 A 
ATOM     19  C   UNL     1       3.672   4.256 -14.462  1.00  0.00     0.006 A 
ATOM     20  C   UNL     1       3.820   1.490 -14.666  1.00  0.00     0.004 A 
ATOM     21  C   UNL     1       3.820   3.664 -15.712  1.00  0.00     0.004 A 
ATOM     22  C   UNL     1       3.885   2.274 -15.826  1.00  0.00    -0.051 A 
ATOM     23  C   UNL     1       3.906   1.641 -17.185  1.00  0.00     0.044 C 
ENDBRANCH  16  17
ENDBRANCH   6  16
TORSDOF 3
ENDMDL
MODEL 5
REMARK VINA RESULT:    -5.746      5.339      8.565
REMARK INTER + INTRA:          -7.278
REMARK INTER:                  -6.897
REMARK INTRA:                  -0.381
REMARK UNBOUND:                -0.525
REMARK SMILES Cc1ccc(CNC(=O)NC(=O)c2ccc(C)cc2)cc1
REMARK SMILES IDX 11 1 12 2 10 3 8 4 9 5 7 6 13 9 19 10 18 11 14 12 16 13
REMARK SMILES IDX 15 14 17 15 6 16 5 17 4 18 20 19 3 20 21 21 2 22 1 23
REMARK H PARENT 10 7 7 8
ROOT
ATOM      1  C   UNL     1       1.918   4.456  -8.971  1.00  0.00     0.259 C 
ATOM      2  O   UNL     1       0.885   5.060  -8.717  1.00  0.00    -0.269 OA
ATOM      3  N   UNL     1       2.466   4.146 -10.219  1.00  0.00    -0.274 N 
ATOM      4  C   UNL     1       2.289   4.524 -11.526  1.00  0.00     0.321 C 
ATOM      5  O   UNL     1       3.097   4.100 -12.359  1.00  0.00    -0.248 OA
ATOM      6  N   UNL     1       1.308   5.348 -11.936  1.00  0.00    -0.334 N 
ATOM      7  H   UNL     1       3.326   3.616 -10.177  1.00  0.00     0.175 HD
ATOM      8  H   UNL     1       1.366   5.596 -12.913  1.00  0.00     0.165 HD
ENDROOT
BRANCH   1   9
ATOM      9  C   UNL     1       2.709   3.988  -7.817  1.00  0.00     0.040 A 
ATOM     10  C   UNL     1       2.726   2.642  -7.444  1.00  0.00     0.014 A 
ATOM     11  C   UNL     1       3.531   2.238  -6.379  1.00  0.00     0.004 A 
ATOM     12  C   UNL     1       3.443   4.935  -7.096  1.00  0.00     0.014 A 
ATOM     13  C   UNL     1       4.311   3.173  -5.681  1.00  0.00    -0.051 A 
ATOM     14  C   UNL     1       4.250   4.526  -6.036  1.00  0.00     0.004 A 
ATOM     15  C   UNL     1       5.236   2.710  -4.593  1.00  0.00     0.044 C 
ENDBRANCH   1   9
BRANCH   6  16
ATOM     16  C   UNL     1       0.337   6.026 -11.124  1.00  0.00     0.153 C 
BRANCH  16  17
ATOM     17  C   UNL     1      -0.296   7.264 -11.695  1.00  0.00    -0.029 A 
ATOM     18  C   UNL     1      -0.377   8.473 -10.996  1.00  0.00     0.006 A 
ATOM     19  C   UNL     1      -0.623   7.248 -13.061  1.00  0.00     0.006 A 
ATOM     20  C   UNL     1      -0.754   9.644 -11.662  1.00  0.00     0.004 A 
ATOM     21  C   UNL     1      -0.994   8.414 -13.723  1.00  0.00     0.004 A 
ATOM     22  C   UNL     1      -1.053   9.625 -13.032  1.00  0.00    -0.051 A 
ATOM     23  C   UNL     1      -1.319  10.896 -13.781  1.00  0.00     0.044 C 
ENDBRANCH  16  17
ENDBRANCH   6  16
TORSDOF 3
ENDMDL
MODEL 6
REMARK VINA RESULT:    -5.673      5.322     10.899
REMARK INTER + INTRA:          -7.193
REMARK INTER:                  -6.735
REMARK INTRA:                  -0.458
REMARK UNBOUND:                -0.525
REMARK SMILES Cc1ccc(CNC(=O)NC(=O)c2ccc(C)cc2)cc1
REMARK SMILES IDX 11 1 12 2 10 3 8 4 9 5 7 6 13 9 19 10 18 11 14 12 16 13
REMARK SMILES IDX 15 14 17 15 6 16 5 17 4 18 20 19 3 20 21 21 2 22 1 23
REMARK H PARENT 10 7 7 8
ROOT
ATOM      1  C   UNL     1       0.598   6.232 -10.626  1.00  0.00     0.259 C 
ATOM      2  O   UNL     1       0.113   6.027  -9.522  1.00  0.00    -0.269 OA
ATOM      3  N   UNL     1       1.692   5.607 -11.231  1.00  0.00    -0.274 N 
ATOM      4  C   UNL     1       2.456   4.485 -11.032  1.00  0.00     0.321 C 
ATOM      5  O   UNL     1       3.285   4.195 -11.901  1.00  0.00    -0.248 OA
ATOM      6  N   UNL     1       2.328   3.677  -9.963  1.00  0.00    -0.334 N 
ATOM      7  H   UNL     1       1.922   5.964 -12.149  1.00  0.00     0.175 HD
ATOM      8  H   UNL     1       2.903   2.849 -10.009  1.00  0.00     0.165 HD
ENDROOT
BRANCH   1   9
ATOM      9  C   UNL     1      -0.050   7.272 -11.449  1.00  0.00     0.040 A 
ATOM     10  C   UNL     1      -0.350   8.531 -10.926  1.00  0.00     0.014 A 
ATOM     11  C   UNL     1      -0.914   9.500 -11.757  1.00  0.00     0.004 A 
ATOM     12  C   UNL     1      -0.364   6.959 -12.775  1.00  0.00     0.014 A 
ATOM     13  C   UNL     1      -1.185   9.213 -13.103  1.00  0.00    -0.051 A 
ATOM     14  C   UNL     1      -0.921   7.932 -13.603  1.00  0.00     0.004 A 
ATOM     15  C   UNL     1      -1.712  10.290 -14.005  1.00  0.00     0.044 C 
ENDBRANCH   1   9
BRANCH   6  16
ATOM     16  C   UNL     1       1.366   3.775  -8.902  1.00  0.00     0.153 C 
BRANCH  16  17
ATOM     17  C   UNL     1       1.871   3.603  -7.496  1.00  0.00    -0.029 A 
ATOM     18  C   UNL     1       1.461   4.416  -6.434  1.00  0.00     0.006 A 
ATOM     19  C   UNL     1       2.617   2.447  -7.217  1.00  0.00     0.006 A 
ATOM     20  C   UNL     1       1.775   4.060  -5.118  1.00  0.00     0.004 A 
ATOM     21  C   UNL     1       2.925   2.091  -5.908  1.00  0.00     0.004 A 
ATOM     22  C   UNL     1       2.497   2.889  -4.845  1.00  0.00    -0.051 A 
ATOM     23  C   UNL     1       2.714   2.427  -3.436  1.00  0.00     0.044 C 
ENDBRANCH  16  17
ENDBRANCH   6  16
TORSDOF 3
ENDMDL
MODEL 7
REMARK VINA RESULT:    -5.673      8.398     11.624
REMARK INTER + INTRA:          -7.193
REMARK INTER:                  -6.725
REMARK INTRA:                  -0.467
REMARK UNBOUND:                -0.525
REMARK SMILES Cc1ccc(CNC(=O)NC(=O)c2ccc(C)cc2)cc1
REMARK SMILES IDX 11 1 12 2 10 3 8 4 9 5 7 6 13 9 19 10 18 11 14 12 16 13
REMARK SMILES IDX 15 14 17 15 6 16 5 17 4 18 20 19 3 20 21 21 2 22 1 23
REMARK H PARENT 10 7 7 8
ROOT
ATOM      1  C   UNL     1       2.924   3.640 -11.625  1.00  0.00     0.259 C 
ATOM      2  O   UNL     1       3.646   3.255 -10.716  1.00  0.00    -0.269 OA
ATOM      3  N   UNL     1       1.732   4.367 -11.548  1.00  0.00    -0.274 N 
ATOM      4  C   UNL     1       1.050   5.098 -10.610  1.00  0.00     0.321 C 
ATOM      5  O   UNL     1       0.053   5.724 -10.985  1.00  0.00    -0.248 OA
ATOM      6  N   UNL     1       1.427   5.192  -9.321  1.00  0.00    -0.334 N 
ATOM      7  H   UNL     1       1.298   4.551 -12.443  1.00  0.00     0.175 HD
ATOM      8  H   UNL     1       0.869   5.838  -8.781  1.00  0.00     0.165 HD
ENDROOT
BRANCH   1   9
ATOM      9  C   UNL     1       3.354   3.306 -12.996  1.00  0.00     0.040 A 
ATOM     10  C   UNL     1       3.663   1.994 -13.363  1.00  0.00     0.014 A 
ATOM     11  C   UNL     1       4.014   1.719 -14.685  1.00  0.00     0.004 A 
ATOM     12  C   UNL     1       3.453   4.346 -13.926  1.00  0.00     0.014 A 
ATOM     13  C   UNL     1       4.066   2.748 -15.638  1.00  0.00    -0.051 A 
ATOM     14  C   UNL     1       3.798   4.065 -15.246  1.00  0.00     0.004 A 
ATOM     15  C   UNL     1       4.362   2.423 -17.072  1.00  0.00     0.044 C 
ENDBRANCH   1   9
BRANCH   6  16
ATOM     16  C   UNL     1       2.600   4.635  -8.709  1.00  0.00     0.153 C 
BRANCH  16  17
ATOM     17  C   UNL     1       2.416   3.897  -7.412  1.00  0.00    -0.029 A 
ATOM     18  C   UNL     1       2.971   2.637  -7.166  1.00  0.00     0.006 A 
ATOM     19  C   UNL     1       1.842   4.606  -6.344  1.00  0.00     0.006 A 
ATOM     20  C   UNL     1       2.969   2.113  -5.869  1.00  0.00     0.004 A 
ATOM     21  C   UNL     1       1.845   4.086  -5.054  1.00  0.00     0.004 A 
ATOM     22  C   UNL     1       2.418   2.838  -4.803  1.00  0.00    -0.051 A 
ATOM     23  C   UNL     1       2.540   2.348  -3.391  1.00  0.00     0.044 C 
ENDBRANCH  16  17
ENDBRANCH   6  16
TORSDOF 3
ENDMDL
MODEL 8
REMARK VINA RESULT:    -5.335      8.373     10.543
REMARK INTER + INTRA:          -6.795
REMARK INTER:                  -6.267
REMARK INTRA:                  -0.529
REMARK UNBOUND:                -0.525
REMARK SMILES Cc1ccc(CNC(=O)NC(=O)c2ccc(C)cc2)cc1
REMARK SMILES IDX 11 1 12 2 10 3 8 4 9 5 7 6 13 9 19 10 18 11 14 12 16 13
REMARK SMILES IDX 15 14 17 15 6 16 5 17 4 18 20 19 3 20 21 21 2 22 1 23
REMARK H PARENT 10 7 7 8
ROOT
ATOM      1  C   UNL     1       2.452   4.309  -8.709  1.00  0.00     0.259 C 
ATOM      2  O   UNL     1       3.566   4.412  -9.204  1.00  0.00    -0.269 OA
ATOM      3  N   UNL     1       1.212   4.628  -9.270  1.00  0.00    -0.274 N 
ATOM      4  C   UNL     1       0.704   4.911 -10.512  1.00  0.00     0.321 C 
ATOM      5  O   UNL     1      -0.522   5.013 -10.620  1.00  0.00    -0.248 OA
ATOM      6  N   UNL     1       1.466   5.053 -11.612  1.00  0.00    -0.334 N 
ATOM      7  H   UNL     1       0.424   4.475  -8.654  1.00  0.00     0.175 HD
ATOM      8  H   UNL     1       0.934   5.174 -12.462  1.00  0.00     0.165 HD
ENDROOT
BRANCH   1   9
ATOM      9  C   UNL     1       2.387   3.772  -7.336  1.00  0.00     0.040 A 
ATOM     10  C   UNL     1       3.014   2.573  -6.992  1.00  0.00     0.014 A 
ATOM     11  C   UNL     1       2.970   2.132  -5.670  1.00  0.00     0.004 A 
ATOM     12  C   UNL     1       1.669   4.497  -6.380  1.00  0.00     0.014 A 
ATOM     13  C   UNL     1       2.295   2.879  -4.692  1.00  0.00    -0.051 A 
ATOM     14  C   UNL     1       1.632   4.056  -5.059  1.00  0.00     0.004 A 
ATOM     15  C   UNL     1       2.328   2.436  -3.259  1.00  0.00     0.044 C 
ENDBRANCH   1   9
BRANCH   6  16
ATOM     16  C   UNL     1       2.886   4.873 -11.724  1.00  0.00     0.153 C 
BRANCH  16  17
ATOM     17  C   UNL     1       3.381   3.933 -12.788  1.00  0.00    -0.029 A 
ATOM     18  C   UNL     1       3.540   2.559 -12.579  1.00  0.00     0.006 A 
ATOM     19  C   UNL     1       3.482   4.437 -14.095  1.00  0.00     0.006 A 
ATOM     20  C   UNL     1       3.770   1.708 -13.665  1.00  0.00     0.004 A 
ATOM     21  C   UNL     1       3.705   3.588 -15.175  1.00  0.00     0.004 A 
ATOM     22  C   UNL     1       3.841   2.214 -14.970  1.00  0.00    -0.051 A 
ATOM     23  C   UNL     1       3.944   1.295 -16.150  1.00  0.00     0.044 C 
ENDBRANCH  16  17
ENDBRANCH   6  16
TORSDOF 3
ENDMDL
MODEL 9
REMARK VINA RESULT:    -5.329      5.713      8.965
REMARK INTER + INTRA:          -6.788
REMARK INTER:                  -6.257
REMARK INTRA:                  -0.531
REMARK UNBOUND:                -0.525
REMARK SMILES Cc1ccc(CNC(=O)NC(=O)c2ccc(C)cc2)cc1
REMARK SMILES IDX 11 1 12 2 10 3 8 4 9 5 7 6 13 9 19 10 18 11 14 12 16 13
REMARK SMILES IDX 15 14 17 15 6 16 5 17 4 18 20 19 3 20 21 21 2 22 1 23
REMARK H PARENT 10 7 7 8
ROOT
ATOM      1  C   UNL     1       1.655   3.956  -8.740  1.00  0.00     0.259 C 
ATOM      2  O   UNL     1       0.464   4.077  -8.990  1.00  0.00    -0.269 OA
ATOM      3  N   UNL     1       2.750   4.113  -9.595  1.00  0.00    -0.274 N 
ATOM      4  C   UNL     1       2.998   4.639 -10.837  1.00  0.00     0.321 C 
ATOM      5  O   UNL     1       4.176   4.710 -11.205  1.00  0.00    -0.248 OA
ATOM      6  N   UNL     1       2.036   5.107 -11.653  1.00  0.00    -0.334 N 
ATOM      7  H   UNL     1       3.647   3.938  -9.162  1.00  0.00     0.175 HD
ATOM      8  H   UNL     1       2.390   5.540 -12.494  1.00  0.00     0.165 HD
ENDROOT
BRANCH   1   9
ATOM      9  C   UNL     1       2.005   3.601  -7.351  1.00  0.00     0.040 A 
ATOM     10  C   UNL     1       1.551   4.358  -6.270  1.00  0.00     0.014 A 
ATOM     11  C   UNL     1       1.864   3.953  -4.972  1.00  0.00     0.004 A 
ATOM     12  C   UNL     1       2.816   2.480  -7.144  1.00  0.00     0.014 A 
ATOM     13  C   UNL     1       2.634   2.801  -4.751  1.00  0.00    -0.051 A 
ATOM     14  C   UNL     1       3.121   2.076  -5.846  1.00  0.00     0.004 A 
ATOM     15  C   UNL     1       2.891   2.331  -3.349  1.00  0.00     0.044 C 
ENDBRANCH   1   9
BRANCH   6  16
ATOM     16  C   UNL     1       0.630   5.213 -11.380  1.00  0.00     0.153 C 
BRANCH  16  17
ATOM     17  C   UNL     1      -0.009   6.560 -11.570  1.00  0.00    -0.029 A 
ATOM     18  C   UNL     1      -0.012   7.550 -10.582  1.00  0.00     0.006 A 
ATOM     19  C   UNL     1      -0.431   6.895 -12.867  1.00  0.00     0.006 A 
ATOM     20  C   UNL     1      -0.405   8.855 -10.899  1.00  0.00     0.004 A 
ATOM     21  C   UNL     1      -0.817   8.194 -13.182  1.00  0.00     0.004 A 
ATOM     22  C   UNL     1      -0.798   9.188 -12.203  1.00  0.00    -0.051 A 
ATOM     23  C   UNL     1      -1.083  10.610 -12.584  1.00  0.00     0.044 C 
ENDBRANCH  16  17
ENDBRANCH   6  16
TORSDOF 3
ENDMDL
