MODEL 1
REMARK VINA RESULT:    -6.104      0.000      0.000
REMARK INTER + INTRA:          -7.663
REMARK INTER:                  -7.174
REMARK INTRA:                  -0.489
REMARK UNBOUND:                -0.489
REMARK SMILES Cc1ccc(CNC(=O)NC(=O)c2ccc(C)cc2)cc1
REMARK SMILES IDX 11 1 12 2 10 3 8 4 9 5 7 6 13 9 19 10 18 11 14 12 16 13
REMARK SMILES IDX 15 14 17 15 6 16 5 17 4 18 20 19 3 20 21 21 2 22 1 23
REMARK H PARENT 10 7 7 8
ROOT
ATOM      1  C   UNL     1      -4.054  13.521   3.429  1.00  0.00     0.259 C 
ATOM      2  O   UNL     1      -4.113  12.305   3.550  1.00  0.00    -0.269 OA
ATOM      3  N   UNL     1      -3.307  14.274   2.518  1.00  0.00    -0.274 N 
ATOM      4  C   UNL     1      -2.609  14.059   1.357  1.00  0.00     0.321 C 
ATOM      5  O   UNL     1      -2.181  15.049   0.754  1.00  0.00    -0.248 OA
ATOM      6  N   UNL     1      -2.396  12.838   0.832  1.00  0.00    -0.334 N 
ATOM      7  H   UNL     1      -3.405  15.275   2.625  1.00  0.00     0.175 HD
ATOM      8  H   UNL     1      -1.940  12.857  -0.069  1.00  0.00     0.165 HD
ENDROOT
BRANCH   1   9
ATOM      9  C   UNL     1      -4.878  14.318   4.357  1.00  0.00     0.040 A 
ATOM     10  C   UNL     1      -5.026  13.954   5.696  1.00  0.00     0.014 A 
ATOM     11  C   UNL     1      -5.773  14.768   6.548  1.00  0.00     0.004 A 
ATOM     12  C   UNL     1      -5.519  15.455   3.855  1.00  0.00     0.014 A 
ATOM     13  C   UNL     1      -6.378  15.939   6.066  1.00  0.00    -0.051 A 
ATOM     14  C   UNL     1      -6.259  16.269   4.711  1.00  0.00     0.004 A 
ATOM     15  C   UNL     1      -7.106  16.847   7.012  1.00  0.00     0.044 C 
ENDBRANCH   1   9
BRANCH   6  16
ATOM     16  C   UNL     1      -2.891  11.579   1.313  1.00  0.00     0.153 C 
BRANCH  16  17
ATOM     17  C   UNL     1      -1.936  10.418   1.316  1.00  0.00    -0.029 A 
ATOM     18  C   UNL     1      -1.724   9.601   0.201  1.00  0.00     0.006 A 
ATOM     19  C   UNL     1      -1.078  10.294   2.421  1.00  0.00     0.006 A 
ATOM     20  C   UNL     1      -0.656   8.696   0.189  1.00  0.00     0.004 A 
ATOM     21  C   UNL     1      -0.014   9.398   2.406  1.00  0.00     0.004 A 
ATOM     22  C   UNL     1       0.212   8.598   1.285  1.00  0.00    -0.051 A 
ATOM     23  C   UNL     1       1.438   7.737   1.223  1.00  0.00     0.044 C 
ENDBRANCH  16  17
ENDBRANCH   6  16
TORSDOF 3
ENDMDL
MODEL 2
REMARK VINA RESULT:    -6.090      3.006      5.403
REMARK INTER + INTRA:          -7.646
REMARK INTER:                  -7.155
REMARK INTRA:                  -0.491
REMARK UNBOUND:                -0.489
REMARK SMILES Cc1ccc(CNC(=O)NC(=O)c2ccc(C)cc2)cc1
REMARK SMILES IDX 11 1 12 2 10 3 8 4 9 5 7 6 13 9 19 10 18 11 14 12 16 13
REMARK SMILES IDX 15 14 17 15 6 16 5 17 4 18 20 19 3 20 21 21 2 22 1 23
REMARK H PARENT 10 7 7 8
ROOT
ATOM      1  C   UNL     1      -1.956  14.429   0.642  1.00  0.00     0.259 C 
ATOM      2  O   UNL     1      -1.340  13.458   0.226  1.00  0.00    -0.269 OA
ATOM      3  N   UNL     1      -2.912  14.489   1.661  1.00  0.00    -0.274 N 
ATOM      4  C   UNL     1      -3.354  13.689   2.683  1.00  0.00     0.321 C 
ATOM      5  O   UNL     1      -4.159  14.175   3.484  1.00  0.00    -0.248 OA
ATOM      6  N   UNL     1      -2.936  12.424   2.873  1.00  0.00    -0.334 N 
ATOM      7  H   UNL     1      -3.303  15.409   1.813  1.00  0.00     0.175 HD
ATOM      8  H   UNL     1      -3.290  12.000   3.718  1.00  0.00     0.165 HD
ENDROOT
BRANCH   1   9
ATOM      9  C   UNL     1      -1.662  15.724  -0.002  1.00  0.00     0.040 A 
ATOM     10  C   UNL     1      -1.436  15.818  -1.377  1.00  0.00     0.014 A 
ATOM     11  C   UNL     1      -1.214  17.071  -1.949  1.00  0.00     0.004 A 
ATOM     12  C   UNL     1      -1.607  16.863   0.807  1.00  0.00     0.014 A 
ATOM     13  C   UNL     1      -1.209  18.227  -1.153  1.00  0.00    -0.051 A 
ATOM     14  C   UNL     1      -1.392  18.113   0.231  1.00  0.00     0.004 A 
ATOM     15  C   UNL     1      -1.053  19.574  -1.794  1.00  0.00     0.044 C 
ENDBRANCH   1   9
BRANCH   6  16
ATOM     16  C   UNL     1      -1.937  11.710   2.127  1.00  0.00     0.153 C 
BRANCH  16  17
ATOM     17  C   UNL     1      -2.237  10.282   1.764  1.00  0.00    -0.029 A 
ATOM     18  C   UNL     1      -1.966   9.205   2.615  1.00  0.00     0.006 A 
ATOM     19  C   UNL     1      -3.009  10.060   0.612  1.00  0.00     0.006 A 
ATOM     20  C   UNL     1      -2.484   7.938   2.326  1.00  0.00     0.004 A 
ATOM     21  C   UNL     1      -3.527   8.800   0.329  1.00  0.00     0.004 A 
ATOM     22  C   UNL     1      -3.277   7.730   1.189  1.00  0.00    -0.051 A 
ATOM     23  C   UNL     1      -3.951   6.412   0.949  1.00  0.00     0.044 C 
ENDBRANCH  16  17
ENDBRANCH   6  16
TORSDOF 3
ENDMDL
MODEL 3
REMARK VINA RESULT:    -6.002      0.552      8.003
REMARK INTER + INTRA:          -7.543
REMARK INTER:                  -7.158
REMARK INTRA:                  -0.385
REMARK UNBOUND:                -0.489
REMARK SMILES Cc1ccc(CNC(=O)NC(=O)c2ccc(C)cc2)cc1
REMARK SMILES IDX 11 1 12 2 10 3 8 4 9 5 7 6 13 9 19 10 18 11 14 12 16 13
REMARK SMILES IDX 15 14 17 15 6 16 5 17 4 18 20 19 3 20 21 21 2 22 1 23
REMARK H PARENT 10 7 7 8
ROOT
ATOM      1  C   UNL     1      -2.483  11.645   1.932  1.00  0.00     0.259 C 
ATOM      2  O   UNL     1      -3.496  11.340   2.546  1.00  0.00    -0.269 OA
ATOM      3  N   UNL     1      -2.106  12.895   1.431  1.00  0.00    -0.274 N 
ATOM      4  C   UNL     1      -2.486  14.204   1.581  1.00  0.00     0.321 C 
ATOM      5  O   UNL     1      -1.787  15.069   1.043  1.00  0.00    -0.248 OA
ATOM      6  N   UNL     1      -3.554  14.590   2.304  1.00  0.00    -0.334 N 
ATOM      7  H   UNL     1      -1.225  12.896   0.933  1.00  0.00     0.175 HD
ATOM      8  H   UNL     1      -3.647  15.592   2.387  1.00  0.00     0.165 HD
ENDROOT
BRANCH   1   9
ATOM      9  C   UNL     1      -1.513  10.562   1.679  1.00  0.00     0.040 A 
ATOM     10  C   UNL     1      -1.447   9.917   0.443  1.00  0.00     0.014 A 
ATOM     11  C   UNL     1      -0.478   8.935   0.234  1.00  0.00     0.004 A 
ATOM     12  C   UNL     1      -0.659  10.189   2.722  1.00  0.00     0.014 A 
ATOM     13  C   UNL     1       0.418   8.590   1.257  1.00  0.00    -0.051 A 
ATOM     14  C   UNL     1       0.311   9.212   2.507  1.00  0.00     0.004 A 
ATOM     15  C   UNL     1       1.507   7.594   0.991  1.00  0.00     0.044 C 
ENDBRANCH   1   9
BRANCH   6  16
ATOM     16  C   UNL     1      -4.428  13.763   3.086  1.00  0.00     0.153 C 
BRANCH  16  17
ATOM     17  C   UNL     1      -5.156  14.415   4.229  1.00  0.00    -0.029 A 
ATOM     18  C   UNL     1      -5.067  13.962   5.549  1.00  0.00     0.006 A 
ATOM     19  C   UNL     1      -5.775  15.650   3.975  1.00  0.00     0.006 A 
ATOM     20  C   UNL     1      -5.567  14.746   6.593  1.00  0.00     0.004 A 
ATOM     21  C   UNL     1      -6.268  16.431   5.016  1.00  0.00     0.004 A 
ATOM     22  C   UNL     1      -6.159  15.991   6.336  1.00  0.00    -0.051 A 
ATOM     23  C   UNL     1      -6.567  16.898   7.457  1.00  0.00     0.044 C 
ENDBRANCH  16  17
ENDBRANCH   6  16
TORSDOF 3
ENDMDL
MODEL 4
REMARK VINA RESULT:    -5.996      3.122      7.376
REMARK INTER + INTRA:          -7.537
REMARK INTER:                  -7.155
REMARK INTRA:                  -0.382
REMARK UNBOUND:                -0.489
REMARK SMILES Cc1ccc(CNC(=O)NC(=O)c2ccc(C)cc2)cc1
REMARK SMILES IDX 11 1 12 2 10 3 8 4 9 5 7 6 13 9 19 10 18 11 14 12 16 13
REMARK SMILES IDX 15 14 17 15 6 16 5 17 4 18 20 19 3 20 21 21 2 22 1 23
REMARK H PARENT 10 7 7 8
ROOT
ATOM      1  C   UNL     1      -2.354  11.728   1.511  1.00  0.00     0.259 C 
ATOM      2  O   UNL     1      -1.362  12.100   0.901  1.00  0.00    -0.269 OA
ATOM      3  N   UNL     1      -3.240  12.483   2.286  1.00  0.00    -0.274 N 
ATOM      4  C   UNL     1      -3.531  13.807   2.492  1.00  0.00     0.321 C 
ATOM      5  O   UNL     1      -4.516  14.076   3.188  1.00  0.00    -0.248 OA
ATOM      6  N   UNL     1      -2.822  14.817   1.955  1.00  0.00    -0.334 N 
ATOM      7  H   UNL     1      -3.982  11.945   2.714  1.00  0.00     0.175 HD
ATOM      8  H   UNL     1      -3.216  15.730   2.132  1.00  0.00     0.165 HD
ENDROOT
BRANCH   1   9
ATOM      9  C   UNL     1      -2.681  10.291   1.425  1.00  0.00     0.040 A 
ATOM     10  C   UNL     1      -2.351   9.407   2.454  1.00  0.00     0.014 A 
ATOM     11  C   UNL     1      -2.728   8.068   2.351  1.00  0.00     0.004 A 
ATOM     12  C   UNL     1      -3.330   9.833   0.274  1.00  0.00     0.014 A 
ATOM     13  C   UNL     1      -3.425   7.608   1.223  1.00  0.00    -0.051 A 
ATOM     14  C   UNL     1      -3.710   8.496   0.178  1.00  0.00     0.004 A 
ATOM     15  C   UNL     1      -3.897   6.185   1.166  1.00  0.00     0.044 C 
ENDBRANCH   1   9
BRANCH   6  16
ATOM     16  C   UNL     1      -1.717  14.724   1.043  1.00  0.00     0.153 C 
BRANCH  16  17
ATOM     17  C   UNL     1      -1.450  15.910   0.158  1.00  0.00    -0.029 A 
ATOM     18  C   UNL     1      -1.402  15.826  -1.237  1.00  0.00     0.006 A 
ATOM     19  C   UNL     1      -1.462  17.178   0.762  1.00  0.00     0.006 A 
ATOM     20  C   UNL     1      -1.391  16.993  -2.008  1.00  0.00     0.004 A 
ATOM     21  C   UNL     1      -1.457  18.337  -0.007  1.00  0.00     0.004 A 
ATOM     22  C   UNL     1      -1.431  18.255  -1.400  1.00  0.00    -0.051 A 
ATOM     23  C   UNL     1      -1.564  19.503  -2.220  1.00  0.00     0.044 C 
ENDBRANCH  16  17
ENDBRANCH   6  16
TORSDOF 3
ENDMDL
MODEL 5
REMARK VINA RESULT:    -5.778      1.039      1.364
REMARK INTER + INTRA:          -7.280
REMARK INTER:                  -6.823
REMARK INTRA:                  -0.457
REMARK UNBOUND:                -0.489
REMARK SMILES Cc1ccc(CNC(=O)NC(=O)c2ccc(C)cc2)cc1
REMARK SMILES IDX 11 1 12 2 10 3 8 4 9 5 7 6 13 9 19 10 18 11 14 12 16 13
REMARK SMILES IDX 15 14 17 15 6 16 5 17 4 18 20 19 3 20 21 21 2 22 1 23
REMARK H PARENT 10 7 7 8
ROOT
ATOM      1  C   UNL     1      -4.097  13.376   3.422  1.00  0.00     0.259 C 
ATOM      2  O   UNL     1      -4.408  12.194   3.412  1.00  0.00    -0.269 OA
ATOM      3  N   UNL     1      -3.085  14.022   2.704  1.00  0.00    -0.274 N 
ATOM      4  C   UNL     1      -2.270  13.749   1.636  1.00  0.00     0.321 C 
ATOM      5  O   UNL     1      -1.569  14.669   1.200  1.00  0.00    -0.248 OA
ATOM      6  N   UNL     1      -2.218  12.551   1.025  1.00  0.00    -0.334 N 
ATOM      7  H   UNL     1      -3.003  15.011   2.897  1.00  0.00     0.175 HD
ATOM      8  H   UNL     1      -1.632  12.539   0.202  1.00  0.00     0.165 HD
ENDROOT
BRANCH   1   9
ATOM      9  C   UNL     1      -4.886  14.259   4.303  1.00  0.00     0.040 A 
ATOM     10  C   UNL     1      -5.080  13.957   5.652  1.00  0.00     0.014 A 
ATOM     11  C   UNL     1      -5.789  14.849   6.457  1.00  0.00     0.004 A 
ATOM     12  C   UNL     1      -5.446  15.413   3.745  1.00  0.00     0.014 A 
ATOM     13  C   UNL     1      -6.311  16.035   5.918  1.00  0.00    -0.051 A 
ATOM     14  C   UNL     1      -6.148  16.304   4.554  1.00  0.00     0.004 A 
ATOM     15  C   UNL     1      -6.997  17.024   6.814  1.00  0.00     0.044 C 
ENDBRANCH   1   9
BRANCH   6  16
ATOM     16  C   UNL     1      -3.016  11.391   1.304  1.00  0.00     0.153 C 
BRANCH  16  17
ATOM     17  C   UNL     1      -2.307  10.067   1.382  1.00  0.00    -0.029 A 
ATOM     18  C   UNL     1      -2.536   9.137   2.400  1.00  0.00     0.006 A 
ATOM     19  C   UNL     1      -1.544   9.680   0.267  1.00  0.00     0.006 A 
ATOM     20  C   UNL     1      -2.032   7.837   2.287  1.00  0.00     0.004 A 
ATOM     21  C   UNL     1      -1.047   8.385   0.154  1.00  0.00     0.004 A 
ATOM     22  C   UNL     1      -1.295   7.449   1.159  1.00  0.00    -0.051 A 
ATOM     23  C   UNL     1      -0.874   6.023   0.965  1.00  0.00     0.044 C 
ENDBRANCH  16  17
ENDBRANCH   6  16
TORSDOF 3
ENDMDL
MODEL 6
REMARK VINA RESULT:    -5.274      3.112      7.531
REMARK INTER + INTRA:          -6.688
REMARK INTER:                  -6.199
REMARK INTRA:                  -0.489
REMARK UNBOUND:                -0.489
REMARK SMILES Cc1ccc(CNC(=O)NC(=O)c2ccc(C)cc2)cc1
REMARK SMILES IDX 11 1 12 2 10 3 8 4 9 5 7 6 13 9 19 10 18 11 14 12 16 13
REMARK SMILES IDX 15 14 17 15 6 16 5 17 4 18 20 19 3 20 21 21 2 22 1 23
REMARK H PARENT 10 7 7 8
ROOT
ATOM      1  C   UNL     1      -1.848  11.390   1.916  1.00  0.00     0.259 C 
ATOM      2  O   UNL     1      -0.833  12.072   1.893  1.00  0.00    -0.269 OA
ATOM      3  N   UNL     1      -3.173  11.799   2.091  1.00  0.00    -0.274 N 
ATOM      4  C   UNL     1      -3.884  12.972   2.064  1.00  0.00     0.321 C 
ATOM      5  O   UNL     1      -5.115  12.897   2.139  1.00  0.00    -0.248 OA
ATOM      6  N   UNL     1      -3.315  14.184   1.931  1.00  0.00    -0.334 N 
ATOM      7  H   UNL     1      -3.846  11.044   2.095  1.00  0.00     0.175 HD
ATOM      8  H   UNL     1      -3.981  14.938   1.842  1.00  0.00     0.165 HD
ENDROOT
BRANCH   1   9
ATOM      9  C   UNL     1      -1.671   9.937   1.730  1.00  0.00     0.040 A 
ATOM     10  C   UNL     1      -2.344   9.014   2.532  1.00  0.00     0.014 A 
ATOM     11  C   UNL     1      -2.186   7.650   2.285  1.00  0.00     0.004 A 
ATOM     12  C   UNL     1      -0.799   9.504   0.726  1.00  0.00     0.014 A 
ATOM     13  C   UNL     1      -1.353   7.206   1.246  1.00  0.00    -0.051 A 
ATOM     14  C   UNL     1      -0.649   8.141   0.479  1.00  0.00     0.004 A 
ATOM     15  C   UNL     1      -1.260   5.740   0.938  1.00  0.00     0.044 C 
ENDBRANCH   1   9
BRANCH   6  16
ATOM     16  C   UNL     1      -1.926  14.482   1.727  1.00  0.00     0.153 C 
BRANCH  16  17
ATOM     17  C   UNL     1      -1.583  15.465   0.642  1.00  0.00    -0.029 A 
ATOM     18  C   UNL     1      -1.453  15.103  -0.703  1.00  0.00     0.006 A 
ATOM     19  C   UNL     1      -1.606  16.828   0.979  1.00  0.00     0.006 A 
ATOM     20  C   UNL     1      -1.373  16.092  -1.689  1.00  0.00     0.004 A 
ATOM     21  C   UNL     1      -1.531  17.810  -0.004  1.00  0.00     0.004 A 
ATOM     22  C   UNL     1      -1.424  17.451  -1.348  1.00  0.00    -0.051 A 
ATOM     23  C   UNL     1      -1.483  18.511  -2.407  1.00  0.00     0.044 C 
ENDBRANCH  16  17
ENDBRANCH   6  16
TORSDOF 3
ENDMDL
MODEL 7
REMARK VINA RESULT:    -5.099      4.652     10.369
REMARK INTER + INTRA:          -6.482
REMARK INTER:                  -6.179
REMARK INTRA:                  -0.303
REMARK UNBOUND:                -0.489
REMARK SMILES Cc1ccc(CNC(=O)NC(=O)c2ccc(C)cc2)cc1
REMARK SMILES IDX 11 1 12 2 10 3 8 4 9 5 7 6 13 9 19 10 18 11 14 12 16 13
REMARK SMILES IDX 15 14 17 15 6 16 5 17 4 18 20 19 3 20 21 21 2 22 1 23
REMARK H PARENT 10 7 7 8
ROOT
ATOM      1  C   UNL     1      -6.481  16.393   6.669  1.00  0.00     0.259 C 
ATOM      2  O   UNL     1      -7.687  16.251   6.816  1.00  0.00    -0.269 OA
ATOM      3  N   UNL     1      -5.616  17.271   7.329  1.00  0.00    -0.274 N 
ATOM      4  C   UNL     1      -5.639  18.070   8.443  1.00  0.00     0.321 C 
ATOM      5  O   UNL     1      -4.583  18.615   8.781  1.00  0.00    -0.248 OA
ATOM      6  N   UNL     1      -6.738  18.265   9.196  1.00  0.00    -0.334 N 
ATOM      7  H   UNL     1      -4.654  17.221   7.019  1.00  0.00     0.175 HD
ATOM      8  H   UNL     1      -6.568  18.810  10.029  1.00  0.00     0.165 HD
ENDROOT
BRANCH   1   9
ATOM      9  C   UNL     1      -5.831  15.525   5.667  1.00  0.00     0.040 A 
ATOM     10  C   UNL     1      -5.254  14.306   6.025  1.00  0.00     0.014 A 
ATOM     11  C   UNL     1      -4.698  13.496   5.035  1.00  0.00     0.004 A 
ATOM     12  C   UNL     1      -5.802  15.963   4.339  1.00  0.00     0.014 A 
ATOM     13  C   UNL     1      -4.709  13.902   3.692  1.00  0.00    -0.051 A 
ATOM     14  C   UNL     1      -5.251  15.148   3.353  1.00  0.00     0.004 A 
ATOM     15  C   UNL     1      -4.184  12.983   2.629  1.00  0.00     0.044 C 
ENDBRANCH   1   9
BRANCH   6  16
ATOM     16  C   UNL     1      -8.026  17.651   9.041  1.00  0.00     0.153 C 
BRANCH  16  17
ATOM     17  C   UNL     1      -9.099  18.460   8.367  1.00  0.00    -0.029 A 
ATOM     18  C   UNL     1      -8.826  19.577   7.571  1.00  0.00     0.006 A 
ATOM     19  C   UNL     1     -10.402  17.936   8.377  1.00  0.00     0.006 A 
ATOM     20  C   UNL     1      -9.837  20.138   6.782  1.00  0.00     0.004 A 
ATOM     21  C   UNL     1     -11.404  18.492   7.588  1.00  0.00     0.004 A 
ATOM     22  C   UNL     1     -11.128  19.592   6.776  1.00  0.00    -0.051 A 
ATOM     23  C   UNL     1     -12.175  20.098   5.829  1.00  0.00     0.044 C 
ENDBRANCH  16  17
ENDBRANCH   6  16
TORSDOF 3
ENDMDL
MODEL 8
REMARK VINA RESULT:    -4.454      4.972     10.295
REMARK INTER + INTRA:          -5.724
REMARK INTER:                  -5.619
REMARK INTRA:                  -0.105
REMARK UNBOUND:                -0.489
REMARK SMILES Cc1ccc(CNC(=O)NC(=O)c2ccc(C)cc2)cc1
REMARK SMILES IDX 11 1 12 2 10 3 8 4 9 5 7 6 13 9 19 10 18 11 14 12 16 13
REMARK SMILES IDX 15 14 17 15 6 16 5 17 4 18 20 19 3 20 21 21 2 22 1 23
REMARK H PARENT 10 7 7 8
ROOT
ATOM      1  C   UNL     1      -6.150  17.470   6.578  1.00  0.00     0.259 C 
ATOM      2  O   UNL     1      -6.991  18.239   6.131  1.00  0.00    -0.269 OA
ATOM      3  N   UNL     1      -5.444  17.549   7.782  1.00  0.00    -0.274 N 
ATOM      4  C   UNL     1      -5.520  18.252   8.957  1.00  0.00     0.321 C 
ATOM      5  O   UNL     1      -4.754  17.925   9.871  1.00  0.00    -0.248 OA
ATOM      6  N   UNL     1      -6.399  19.248   9.173  1.00  0.00    -0.334 N 
ATOM      7  H   UNL     1      -4.779  16.801   7.925  1.00  0.00     0.175 HD
ATOM      8  H   UNL     1      -6.385  19.605  10.118  1.00  0.00     0.165 HD
ENDROOT
BRANCH   1   9
ATOM      9  C   UNL     1      -5.828  16.291   5.751  1.00  0.00     0.040 A 
ATOM     10  C   UNL     1      -5.862  16.349   4.356  1.00  0.00     0.014 A 
ATOM     11  C   UNL     1      -5.498  15.223   3.617  1.00  0.00     0.004 A 
ATOM     12  C   UNL     1      -5.491  15.103   6.405  1.00  0.00     0.014 A 
ATOM     13  C   UNL     1      -5.108  14.041   4.264  1.00  0.00    -0.051 A 
ATOM     14  C   UNL     1      -5.122  13.983   5.662  1.00  0.00     0.004 A 
ATOM     15  C   UNL     1      -4.638  12.868   3.455  1.00  0.00     0.044 C 
ENDBRANCH   1   9
BRANCH   6  16
ATOM     16  C   UNL     1      -7.433  19.710   8.291  1.00  0.00     0.153 C 
BRANCH  16  17
ATOM     17  C   UNL     1      -8.775  19.038   8.390  1.00  0.00    -0.029 A 
ATOM     18  C   UNL     1      -9.795  19.228   7.452  1.00  0.00     0.006 A 
ATOM     19  C   UNL     1      -8.916  18.023   9.350  1.00  0.00     0.006 A 
ATOM     20  C   UNL     1     -10.921  18.399   7.465  1.00  0.00     0.004 A 
ATOM     21  C   UNL     1     -10.035  17.195   9.358  1.00  0.00     0.004 A 
ATOM     22  C   UNL     1     -11.042  17.370   8.409  1.00  0.00    -0.051 A 
ATOM     23  C   UNL     1     -12.174  16.389   8.339  1.00  0.00     0.044 C 
ENDBRANCH  16  17
ENDBRANCH   6  16
TORSDOF 3
ENDMDL
MODEL 9
REMARK VINA RESULT:    -4.445      2.096      8.196
REMARK INTER + INTRA:          -5.714
REMARK INTER:                  -5.225
REMARK INTRA:                  -0.489
REMARK UNBOUND:                -0.489
REMARK SMILES Cc1ccc(CNC(=O)NC(=O)c2ccc(C)cc2)cc1
REMARK SMILES IDX 11 1 12 2 10 3 8 4 9 5 7 6 13 9 19 10 18 11 14 12 16 13
REMARK SMILES IDX 15 14 17 15 6 16 5 17 4 18 20 19 3 20 21 21 2 22 1 23
REMARK H PARENT 10 7 7 8
ROOT
ATOM      1  C   UNL     1      -4.632  13.882   3.375  1.00  0.00     0.259 C 
ATOM      2  O   UNL     1      -5.281  13.370   4.277  1.00  0.00    -0.269 OA
ATOM      3  N   UNL     1      -4.659  15.203   2.917  1.00  0.00    -0.274 N 
ATOM      4  C   UNL     1      -5.140  16.414   3.345  1.00  0.00     0.321 C 
ATOM      5  O   UNL     1      -4.832  17.416   2.692  1.00  0.00    -0.248 OA
ATOM      6  N   UNL     1      -5.899  16.566   4.446  1.00  0.00    -0.334 N 
ATOM      7  H   UNL     1      -4.043  15.386   2.137  1.00  0.00     0.175 HD
ATOM      8  H   UNL     1      -6.099  17.530   4.672  1.00  0.00     0.165 HD
ENDROOT
BRANCH   1   9
ATOM      9  C   UNL     1      -3.684  13.003   2.663  1.00  0.00     0.040 A 
ATOM     10  C   UNL     1      -2.345  12.912   3.050  1.00  0.00     0.014 A 
ATOM     11  C   UNL     1      -1.499  12.028   2.381  1.00  0.00     0.004 A 
ATOM     12  C   UNL     1      -4.162  12.262   1.578  1.00  0.00     0.014 A 
ATOM     13  C   UNL     1      -1.982  11.242   1.323  1.00  0.00    -0.051 A 
ATOM     14  C   UNL     1      -3.315  11.376   0.916  1.00  0.00     0.004 A 
ATOM     15  C   UNL     1      -1.081  10.235   0.670  1.00  0.00     0.044 C 
ENDBRANCH   1   9
BRANCH   6  16
ATOM     16  C   UNL     1      -6.281  15.557   5.393  1.00  0.00     0.153 C 
BRANCH  16  17
ATOM     17  C   UNL     1      -6.082  15.868   6.851  1.00  0.00    -0.029 A 
ATOM     18  C   UNL     1      -4.901  15.574   7.540  1.00  0.00     0.006 A 
ATOM     19  C   UNL     1      -7.049  16.673   7.474  1.00  0.00     0.006 A 
ATOM     20  C   UNL     1      -4.686  16.100   8.818  1.00  0.00     0.004 A 
ATOM     21  C   UNL     1      -6.832  17.200   8.744  1.00  0.00     0.004 A 
ATOM     22  C   UNL     1      -5.644  16.926   9.423  1.00  0.00    -0.051 A 
ATOM     23  C   UNL     1      -5.361  17.608  10.728  1.00  0.00     0.044 C 
ENDBRANCH  16  17
ENDBRANCH   6  16
TORSDOF 3
ENDMDL
