MODEL 1
REMARK VINA RESULT:    -4.348      0.000      0.000
REMARK INTER + INTRA:          -5.944
REMARK INTER:                  -5.746
REMARK INTRA:                  -0.199
REMARK UNBOUND:                -0.199
REMARK SMILES [H]/N=C\C[C@H]1C[C@@H]1O[C@H]1CO[C@H]2C[C@@H](C3CC3)CCN2C1
REMARK SMILES IDX 7 1 6 2 5 3 8 4 9 5 14 6 13 7 18 8 12 9 19 10 20 11 11 12
REMARK SMILES IDX 21 13 10 14 15 15 16 16 17 17 4 18 3 19 2 20 1 21
REMARK H PARENT
ROOT
ATOM      1  C   UNL     1     -10.132  18.729   7.806  1.00  0.00     0.122 C 
ATOM      2  C   UNL     1     -11.601  18.595   7.521  1.00  0.00     0.039 C 
ATOM      3  C   UNL     1     -10.787  17.375   7.842  1.00  0.00     0.026 C 
ENDROOT
BRANCH   1   4
ATOM      4  O   UNL     1      -9.334  19.029   6.645  1.00  0.00    -0.371 OA
BRANCH   4   5
ATOM      5  C   UNL     1      -7.989  19.458   6.912  1.00  0.00     0.158 C 
ATOM      6  C   UNL     1      -5.442  15.723   4.310  1.00  0.00    -0.003 C 
ATOM      7  C   UNL     1      -6.249  15.800   5.612  1.00  0.00     0.052 C 
ATOM      8  C   UNL     1      -6.016  16.724   3.298  1.00  0.00     0.019 C 
ATOM      9  C   UNL     1      -6.345  17.238   6.140  1.00  0.00     0.189 C 
ATOM     10  C   UNL     1      -6.117  18.127   3.895  1.00  0.00     0.087 C 
ATOM     11  N   UNL     1      -6.917  18.118   5.120  1.00  0.00    -0.276 NA
ATOM     12  O   UNL     1      -7.152  17.188   7.318  1.00  0.00    -0.360 OA
ATOM     13  C   UNL     1      -7.096  19.471   5.659  1.00  0.00     0.121 C 
ATOM     14  C   UNL     1      -7.363  18.475   7.907  1.00  0.00     0.195 C 
BRANCH   6  15
ATOM     15  C   UNL     1      -5.447  14.325   3.736  1.00  0.00    -0.008 C 
ATOM     16  C   UNL     1      -4.147  13.623   3.422  1.00  0.00     0.004 C 
ATOM     17  C   UNL     1      -4.996  13.146   4.564  1.00  0.00     0.004 C 
ENDBRANCH   6  15
ENDBRANCH   4   5
ENDBRANCH   1   4
BRANCH   3  18
ATOM     18  C   UNL     1     -11.008  16.678   9.151  1.00  0.00     0.053 C 
BRANCH  18  19
ATOM     19  C   UNL     1     -10.054  15.559   9.479  1.00  0.00     0.074 C 
BRANCH  19  20
ATOM     20  N   UNL     1     -10.344  14.301   9.509  1.00  0.00    -0.313 NA
ATOM     21  H   UNL     1      -9.498  13.719   9.589  1.00  0.00     0.186 HD
ENDBRANCH  19  20
ENDBRANCH  18  19
ENDBRANCH   3  18
TORSDOF 6
ENDMDL
MODEL 2
REMARK VINA RESULT:    -4.063      4.178      5.877
REMARK INTER + INTRA:          -5.568
REMARK INTER:                  -5.306
REMARK INTRA:                  -0.262
REMARK UNBOUND:                -0.199
REMARK SMILES [H]/N=C\C[C@H]1C[C@@H]1O[C@H]1CO[C@H]2C[C@@H](C3CC3)CCN2C1
REMARK SMILES IDX 7 1 6 2 5 3 8 4 9 5 14 6 13 7 18 8 12 9 19 10 20 11 11 12
REMARK SMILES IDX 21 13 10 14 15 15 16 16 17 17 4 18 3 19 2 20 1 21
REMARK H PARENT
ROOT
ATOM      1  C   UNL     1      -5.248  16.172   7.532  1.00  0.00     0.122 C 
ATOM      2  C   UNL     1      -4.658  16.022   8.905  1.00  0.00     0.039 C 
ATOM      3  C   UNL     1      -4.283  17.201   8.054  1.00  0.00     0.026 C 
ENDROOT
BRANCH   1   4
ATOM      4  O   UNL     1      -4.733  15.236   6.565  1.00  0.00    -0.371 OA
BRANCH   4   5
ATOM      5  C   UNL     1      -5.695  14.712   5.636  1.00  0.00     0.158 C 
ATOM      6  C   UNL     1      -2.624  14.381   1.433  1.00  0.00    -0.003 C 
ATOM      7  C   UNL     1      -3.278  15.517   2.228  1.00  0.00     0.052 C 
ATOM      8  C   UNL     1      -2.280  13.227   2.386  1.00  0.00     0.019 C 
ATOM      9  C   UNL     1      -4.466  15.019   3.062  1.00  0.00     0.189 C 
ATOM     10  C   UNL     1      -3.495  12.802   3.210  1.00  0.00     0.087 C 
ATOM     11  N   UNL     1      -4.047  13.935   3.951  1.00  0.00    -0.276 NA
ATOM     12  O   UNL     1      -4.959  16.148   3.787  1.00  0.00    -0.360 OA
ATOM     13  C   UNL     1      -5.161  13.526   4.814  1.00  0.00     0.121 C 
ATOM     14  C   UNL     1      -6.056  15.825   4.647  1.00  0.00     0.195 C 
BRANCH   6  15
ATOM     15  C   UNL     1      -1.386  14.854   0.704  1.00  0.00    -0.008 C 
ATOM     16  C   UNL     1      -1.409  15.048  -0.793  1.00  0.00     0.004 C 
ATOM     17  C   UNL     1      -1.320  16.242   0.113  1.00  0.00     0.004 C 
ENDBRANCH   6  15
ENDBRANCH   4   5
ENDBRANCH   1   4
BRANCH   3  18
ATOM     18  C   UNL     1      -4.770  18.564   8.446  1.00  0.00     0.053 C 
BRANCH  18  19
ATOM     19  C   UNL     1      -4.464  19.682   7.484  1.00  0.00     0.074 C 
BRANCH  19  20
ATOM     20  N   UNL     1      -3.732  19.590   6.423  1.00  0.00    -0.313 NA
ATOM     21  H   UNL     1      -3.904  18.709   5.919  1.00  0.00     0.186 HD
ENDBRANCH  19  20
ENDBRANCH  18  19
ENDBRANCH   3  18
TORSDOF 6
ENDMDL
MODEL 3
REMARK VINA RESULT:    -4.013      8.251     10.691
REMARK INTER + INTRA:          -5.501
REMARK INTER:                  -5.266
REMARK INTRA:                  -0.235
REMARK UNBOUND:                -0.199
REMARK SMILES [H]/N=C\C[C@H]1C[C@@H]1O[C@H]1CO[C@H]2C[C@@H](C3CC3)CCN2C1
REMARK SMILES IDX 7 1 6 2 5 3 8 4 9 5 14 6 13 7 18 8 12 9 19 10 20 11 11 12
REMARK SMILES IDX 21 13 10 14 15 15 16 16 17 17 4 18 3 19 2 20 1 21
REMARK H PARENT
ROOT
ATOM      1  C   UNL     1      -1.939  15.090   0.128  1.00  0.00     0.122 C 
ATOM      2  C   UNL     1      -1.332  16.392   0.571  1.00  0.00     0.039 C 
ATOM      3  C   UNL     1      -1.050  15.864  -0.807  1.00  0.00     0.026 C 
ENDROOT
BRANCH   1   4
ATOM      4  O   UNL     1      -1.361  13.929   0.754  1.00  0.00    -0.371 OA
BRANCH   4   5
ATOM      5  C   UNL     1      -1.769  13.689   2.111  1.00  0.00     0.158 C 
ATOM      6  C   UNL     1      -2.414   8.521   1.831  1.00  0.00    -0.003 C 
ATOM      7  C   UNL     1      -3.162   9.751   1.303  1.00  0.00     0.052 C 
ATOM      8  C   UNL     1      -0.910   8.827   1.886  1.00  0.00     0.019 C 
ATOM      9  C   UNL     1      -2.810  11.016   2.098  1.00  0.00     0.189 C 
ATOM     10  C   UNL     1      -0.631  10.115   2.660  1.00  0.00     0.087 C 
ATOM     11  N   UNL     1      -1.365  11.241   2.085  1.00  0.00    -0.276 NA
ATOM     12  O   UNL     1      -3.526  12.093   1.490  1.00  0.00    -0.360 OA
ATOM     13  C   UNL     1      -1.039  12.501   2.762  1.00  0.00     0.121 C 
ATOM     14  C   UNL     1      -3.265  13.358   2.106  1.00  0.00     0.195 C 
BRANCH   6  15
ATOM     15  C   UNL     1      -2.677   7.303   0.974  1.00  0.00    -0.008 C 
ATOM     16  C   UNL     1      -3.003   5.975   1.616  1.00  0.00     0.004 C 
ATOM     17  C   UNL     1      -4.065   6.721   0.861  1.00  0.00     0.004 C 
ENDBRANCH   6  15
ENDBRANCH   4   5
ENDBRANCH   1   4
BRANCH   3  18
ATOM     18  C   UNL     1      -1.635  16.575  -1.991  1.00  0.00     0.053 C 
BRANCH  18  19
ATOM     19  C   UNL     1      -1.322  18.044  -2.107  1.00  0.00     0.074 C 
BRANCH  19  20
ATOM     20  N   UNL     1      -0.305  18.556  -2.716  1.00  0.00    -0.313 NA
ATOM     21  H   UNL     1       0.471  17.883  -2.791  1.00  0.00     0.186 HD
ENDBRANCH  19  20
ENDBRANCH  18  19
ENDBRANCH   3  18
TORSDOF 6
ENDMDL
MODEL 4
REMARK VINA RESULT:    -4.002      5.390      8.377
REMARK INTER + INTRA:          -5.487
REMARK INTER:                  -5.221
REMARK INTRA:                  -0.266
REMARK UNBOUND:                -0.199
REMARK SMILES [H]/N=C\C[C@H]1C[C@@H]1O[C@H]1CO[C@H]2C[C@@H](C3CC3)CCN2C1
REMARK SMILES IDX 7 1 6 2 5 3 8 4 9 5 14 6 13 7 18 8 12 9 19 10 20 11 11 12
REMARK SMILES IDX 21 13 10 14 15 15 16 16 17 17 4 18 3 19 2 20 1 21
REMARK H PARENT
ROOT
ATOM      1  C   UNL     1      -4.281  13.895   4.099  1.00  0.00     0.122 C 
ATOM      2  C   UNL     1      -5.431  14.858   4.012  1.00  0.00     0.039 C 
ATOM      3  C   UNL     1      -5.332  13.913   5.175  1.00  0.00     0.026 C 
ENDROOT
BRANCH   1   4
ATOM      4  O   UNL     1      -4.348  12.813   3.151  1.00  0.00    -0.371 OA
BRANCH   4   5
ATOM      5  C   UNL     1      -3.965  13.144   1.806  1.00  0.00     0.158 C 
ATOM      6  C   UNL     1      -0.974   8.991   0.798  1.00  0.00    -0.003 C 
ATOM      7  C   UNL     1      -0.851  10.249   1.667  1.00  0.00     0.052 C 
ATOM      8  C   UNL     1      -2.447   8.564   0.730  1.00  0.00     0.019 C 
ATOM      9  C   UNL     1      -1.803  11.359   1.201  1.00  0.00     0.189 C 
ATOM     10  C   UNL     1      -3.345   9.722   0.294  1.00  0.00     0.087 C 
ATOM     11  N   UNL     1      -3.183  10.873   1.182  1.00  0.00    -0.276 NA
ATOM     12  O   UNL     1      -1.631  12.451   2.106  1.00  0.00    -0.360 OA
ATOM     13  C   UNL     1      -4.101  11.962   0.829  1.00  0.00     0.121 C 
ATOM     14  C   UNL     1      -2.490  13.558   1.818  1.00  0.00     0.195 C 
BRANCH   6  15
ATOM     15  C   UNL     1      -0.119   7.863   1.330  1.00  0.00    -0.008 C 
ATOM     16  C   UNL     1       0.803   7.103   0.406  1.00  0.00     0.004 C 
ATOM     17  C   UNL     1       1.378   8.018   1.448  1.00  0.00     0.004 C 
ENDBRANCH   6  15
ENDBRANCH   4   5
ENDBRANCH   1   4
BRANCH   3  18
ATOM     18  C   UNL     1      -5.014  14.464   6.533  1.00  0.00     0.053 C 
BRANCH  18  19
ATOM     19  C   UNL     1      -5.932  15.543   7.046  1.00  0.00     0.074 C 
BRANCH  19  20
ATOM     20  N   UNL     1      -7.188  15.406   7.311  1.00  0.00    -0.313 NA
ATOM     21  H   UNL     1      -7.337  14.863   8.173  1.00  0.00     0.186 HD
ENDBRANCH  19  20
ENDBRANCH  18  19
ENDBRANCH   3  18
TORSDOF 6
ENDMDL
MODEL 5
REMARK VINA RESULT:    -3.857      6.527     10.419
REMARK INTER + INTRA:          -5.296
REMARK INTER:                  -5.496
REMARK INTRA:                   0.200
REMARK UNBOUND:                -0.199
REMARK SMILES [H]/N=C\C[C@H]1C[C@@H]1O[C@H]1CO[C@H]2C[C@@H](C3CC3)CCN2C1
REMARK SMILES IDX 7 1 6 2 5 3 8 4 9 5 14 6 13 7 18 8 12 9 19 10 20 11 11 12
REMARK SMILES IDX 21 13 10 14 15 15 16 16 17 17 4 18 3 19 2 20 1 21
REMARK H PARENT
ROOT
ATOM      1  C   UNL     1      -2.270  17.420  -3.093  1.00  0.00     0.122 C 
ATOM      2  C   UNL     1      -3.466  18.085  -3.716  1.00  0.00     0.039 C 
ATOM      3  C   UNL     1      -2.311  18.917  -3.236  1.00  0.00     0.026 C 
ENDROOT
BRANCH   1   4
ATOM      4  O   UNL     1      -2.513  16.892  -1.775  1.00  0.00    -0.371 OA
BRANCH   4   5
ATOM      5  C   UNL     1      -1.341  16.644  -0.982  1.00  0.00     0.158 C 
ATOM      6  C   UNL     1      -3.545  13.826   2.813  1.00  0.00    -0.003 C 
ATOM      7  C   UNL     1      -3.552  15.301   2.395  1.00  0.00     0.052 C 
ATOM      8  C   UNL     1      -3.408  12.945   1.563  1.00  0.00     0.019 C 
ATOM      9  C   UNL     1      -2.345  15.650   1.514  1.00  0.00     0.189 C 
ATOM     10  C   UNL     1      -2.209  13.365   0.713  1.00  0.00     0.087 C 
ATOM     11  N   UNL     1      -2.300  14.777   0.341  1.00  0.00    -0.276 NA
ATOM     12  O   UNL     1      -2.486  17.026   1.155  1.00  0.00    -0.360 OA
ATOM     13  C   UNL     1      -1.202  15.174  -0.547  1.00  0.00     0.121 C 
ATOM     14  C   UNL     1      -1.441  17.489   0.293  1.00  0.00     0.195 C 
BRANCH   6  15
ATOM     15  C   UNL     1      -4.794  13.461   3.584  1.00  0.00    -0.008 C 
ATOM     16  C   UNL     1      -4.787  13.464   5.095  1.00  0.00     0.004 C 
ATOM     17  C   UNL     1      -5.564  14.510   4.350  1.00  0.00     0.004 C 
ENDBRANCH   6  15
ENDBRANCH   4   5
ENDBRANCH   1   4
BRANCH   3  18
ATOM     18  C   UNL     1      -1.441  19.604  -4.246  1.00  0.00     0.053 C 
BRANCH  18  19
ATOM     19  C   UNL     1      -0.106  20.096  -3.751  1.00  0.00     0.074 C 
BRANCH  19  20
ATOM     20  N   UNL     1       1.045  19.591  -4.049  1.00  0.00    -0.313 NA
ATOM     21  H   UNL     1       1.794  19.980  -3.459  1.00  0.00     0.186 HD
ENDBRANCH  19  20
ENDBRANCH  18  19
ENDBRANCH   3  18
TORSDOF 6
ENDMDL
MODEL 6
REMARK VINA RESULT:    -3.759      3.404      4.684
REMARK INTER + INTRA:          -5.166
REMARK INTER:                  -4.805
REMARK INTRA:                  -0.361
REMARK UNBOUND:                -0.199
REMARK SMILES [H]/N=C\C[C@H]1C[C@@H]1O[C@H]1CO[C@H]2C[C@@H](C3CC3)CCN2C1
REMARK SMILES IDX 7 1 6 2 5 3 8 4 9 5 14 6 13 7 18 8 12 9 19 10 20 11 11 12
REMARK SMILES IDX 21 13 10 14 15 15 16 16 17 17 4 18 3 19 2 20 1 21
REMARK H PARENT
ROOT
ATOM      1  C   UNL     1      -5.230  17.340   7.971  1.00  0.00     0.122 C 
ATOM      2  C   UNL     1      -3.878  17.043   8.555  1.00  0.00     0.039 C 
ATOM      3  C   UNL     1      -4.636  18.259   9.003  1.00  0.00     0.026 C 
ENDROOT
BRANCH   1   4
ATOM      4  O   UNL     1      -5.194  17.794   6.605  1.00  0.00    -0.371 OA
BRANCH   4   5
ATOM      5  C   UNL     1      -6.350  17.475   5.814  1.00  0.00     0.158 C 
ATOM      6  C   UNL     1      -4.337  13.551   3.029  1.00  0.00    -0.003 C 
ATOM      7  C   UNL     1      -4.169  15.075   3.060  1.00  0.00     0.052 C 
ATOM      8  C   UNL     1      -4.637  13.045   4.447  1.00  0.00     0.019 C 
ATOM      9  C   UNL     1      -5.363  15.767   3.732  1.00  0.00     0.189 C 
ATOM     10  C   UNL     1      -5.812  13.796   5.072  1.00  0.00     0.087 C 
ATOM     11  N   UNL     1      -5.567  15.238   5.081  1.00  0.00    -0.276 NA
ATOM     12  O   UNL     1      -5.073  17.166   3.743  1.00  0.00    -0.360 OA
ATOM     13  C   UNL     1      -6.647  15.966   5.756  1.00  0.00     0.121 C 
ATOM     14  C   UNL     1      -6.090  17.945   4.379  1.00  0.00     0.195 C 
BRANCH   6  15
ATOM     15  C   UNL     1      -3.109  12.869   2.471  1.00  0.00    -0.008 C 
ATOM     16  C   UNL     1      -3.204  12.030   1.218  1.00  0.00     0.004 C 
ATOM     17  C   UNL     1      -2.478  13.344   1.184  1.00  0.00     0.004 C 
ENDBRANCH   6  15
ENDBRANCH   4   5
ENDBRANCH   1   4
BRANCH   3  18
ATOM     18  C   UNL     1      -5.195  18.295  10.394  1.00  0.00     0.053 C 
BRANCH  18  19
ATOM     19  C   UNL     1      -5.552  19.656  10.933  1.00  0.00     0.074 C 
BRANCH  19  20
ATOM     20  N   UNL     1      -6.593  20.349  10.611  1.00  0.00    -0.313 NA
ATOM     21  H   UNL     1      -6.335  21.218  10.123  1.00  0.00     0.186 HD
ENDBRANCH  19  20
ENDBRANCH  18  19
ENDBRANCH   3  18
TORSDOF 6
ENDMDL
MODEL 7
REMARK VINA RESULT:    -3.754      3.736      8.108
REMARK INTER + INTRA:          -5.160
REMARK INTER:                  -4.850
REMARK INTRA:                  -0.309
REMARK UNBOUND:                -0.199
REMARK SMILES [H]/N=C\C[C@H]1C[C@@H]1O[C@H]1CO[C@H]2C[C@@H](C3CC3)CCN2C1
REMARK SMILES IDX 7 1 6 2 5 3 8 4 9 5 14 6 13 7 18 8 12 9 19 10 20 11 11 12
REMARK SMILES IDX 21 13 10 14 15 15 16 16 17 17 4 18 3 19 2 20 1 21
REMARK H PARENT
ROOT
ATOM      1  C   UNL     1      -2.797  13.079   2.378  1.00  0.00     0.122 C 
ATOM      2  C   UNL     1      -1.546  13.635   1.757  1.00  0.00     0.039 C 
ATOM      3  C   UNL     1      -1.448  12.645   2.882  1.00  0.00     0.026 C 
ENDROOT
BRANCH   1   4
ATOM      4  O   UNL     1      -3.517  14.023   3.193  1.00  0.00    -0.371 OA
BRANCH   4   5
ATOM      5  C   UNL     1      -4.934  13.803   3.290  1.00  0.00     0.158 C 
ATOM      6  C   UNL     1      -5.890  16.710   7.514  1.00  0.00    -0.003 C 
ATOM      7  C   UNL     1      -5.203  15.367   7.237  1.00  0.00     0.052 C 
ATOM      8  C   UNL     1      -5.684  17.642   6.312  1.00  0.00     0.019 C 
ATOM      9  C   UNL     1      -5.646  14.766   5.897  1.00  0.00     0.189 C 
ATOM     10  C   UNL     1      -6.112  16.973   5.006  1.00  0.00     0.087 C 
ATOM     11  N   UNL     1      -5.399  15.711   4.807  1.00  0.00    -0.276 NA
ATOM     12  O   UNL     1      -4.911  13.552   5.731  1.00  0.00    -0.360 OA
ATOM     13  C   UNL     1      -5.734  15.098   3.517  1.00  0.00     0.121 C 
ATOM     14  C   UNL     1      -5.193  12.891   4.493  1.00  0.00     0.195 C 
BRANCH   6  15
ATOM     15  C   UNL     1      -5.366  17.351   8.779  1.00  0.00    -0.008 C 
ATOM     16  C   UNL     1      -6.317  17.762   9.878  1.00  0.00     0.004 C 
ATOM     17  C   UNL     1      -5.385  16.604  10.090  1.00  0.00     0.004 C 
ENDBRANCH   6  15
ENDBRANCH   4   5
ENDBRANCH   1   4
BRANCH   3  18
ATOM     18  C   UNL     1      -0.941  11.264   2.592  1.00  0.00     0.053 C 
BRANCH  18  19
ATOM     19  C   UNL     1       0.251  10.809   3.393  1.00  0.00     0.074 C 
BRANCH  19  20
ATOM     20  N   UNL     1       0.978  11.554   4.157  1.00  0.00    -0.313 NA
ATOM     21  H   UNL     1       1.762  11.027   4.567  1.00  0.00     0.186 HD
ENDBRANCH  19  20
ENDBRANCH  18  19
ENDBRANCH   3  18
TORSDOF 6
ENDMDL
MODEL 8
REMARK VINA RESULT:    -3.726      6.136      9.679
REMARK INTER + INTRA:          -5.123
REMARK INTER:                  -4.917
REMARK INTRA:                  -0.205
REMARK UNBOUND:                -0.199
REMARK SMILES [H]/N=C\C[C@H]1C[C@@H]1O[C@H]1CO[C@H]2C[C@@H](C3CC3)CCN2C1
REMARK SMILES IDX 7 1 6 2 5 3 8 4 9 5 14 6 13 7 18 8 12 9 19 10 20 11 11 12
REMARK SMILES IDX 21 13 10 14 15 15 16 16 17 17 4 18 3 19 2 20 1 21
REMARK H PARENT
ROOT
ATOM      1  C   UNL     1      -2.061  17.393  -2.768  1.00  0.00     0.122 C 
ATOM      2  C   UNL     1      -2.829  17.242  -4.051  1.00  0.00     0.039 C 
ATOM      3  C   UNL     1      -3.371  18.111  -2.953  1.00  0.00     0.026 C 
ENDROOT
BRANCH   1   4
ATOM      4  O   UNL     1      -2.081  16.222  -1.931  1.00  0.00    -0.371 OA
BRANCH   4   5
ATOM      5  C   UNL     1      -1.020  16.132  -0.966  1.00  0.00     0.158 C 
ATOM      6  C   UNL     1      -3.682  13.885   2.916  1.00  0.00    -0.003 C 
ATOM      7  C   UNL     1      -3.643  15.277   2.272  1.00  0.00     0.052 C 
ATOM      8  C   UNL     1      -3.378  12.824   1.850  1.00  0.00     0.019 C 
ATOM      9  C   UNL     1      -2.334  15.515   1.508  1.00  0.00     0.189 C 
ATOM     10  C   UNL     1      -2.081  13.138   1.103  1.00  0.00     0.087 C 
ATOM     11  N   UNL     1      -2.132  14.471   0.504  1.00  0.00    -0.276 NA
ATOM     12  O   UNL     1      -2.435  16.813   0.920  1.00  0.00    -0.360 OA
ATOM     13  C   UNL     1      -0.930  14.753  -0.289  1.00  0.00     0.121 C 
ATOM     14  C   UNL     1      -1.290  17.163   0.135  1.00  0.00     0.195 C 
BRANCH   6  15
ATOM     15  C   UNL     1      -5.018  13.613   3.570  1.00  0.00    -0.008 C 
ATOM     16  C   UNL     1      -5.092  12.828   4.858  1.00  0.00     0.004 C 
ATOM     17  C   UNL     1      -5.401  14.297   4.861  1.00  0.00     0.004 C 
ENDBRANCH   6  15
ENDBRANCH   4   5
ENDBRANCH   1   4
BRANCH   3  18
ATOM     18  C   UNL     1      -3.397  19.598  -3.148  1.00  0.00     0.053 C 
BRANCH  18  19
ATOM     19  C   UNL     1      -4.297  20.375  -2.223  1.00  0.00     0.074 C 
BRANCH  19  20
ATOM     20  N   UNL     1      -5.386  19.939  -1.683  1.00  0.00    -0.313 NA
ATOM     21  H   UNL     1      -5.260  18.999  -1.281  1.00  0.00     0.186 HD
ENDBRANCH  19  20
ENDBRANCH  18  19
ENDBRANCH   3  18
TORSDOF 6
ENDMDL
MODEL 9
REMARK VINA RESULT:    -3.639      1.997      2.637
REMARK INTER + INTRA:          -5.008
REMARK INTER:                  -5.330
REMARK INTRA:                   0.323
REMARK UNBOUND:                -0.199
REMARK SMILES [H]/N=C\C[C@H]1C[C@@H]1O[C@H]1CO[C@H]2C[C@@H](C3CC3)CCN2C1
REMARK SMILES IDX 7 1 6 2 5 3 8 4 9 5 14 6 13 7 18 8 12 9 19 10 20 11 11 12
REMARK SMILES IDX 21 13 10 14 15 15 16 16 17 17 4 18 3 19 2 20 1 21
REMARK H PARENT
ROOT
ATOM      1  C   UNL     1      -8.679  17.593   9.340  1.00  0.00     0.122 C 
ATOM      2  C   UNL     1      -9.295  16.224   9.405  1.00  0.00     0.039 C 
ATOM      3  C   UNL     1     -10.156  17.442   9.584  1.00  0.00     0.026 C 
ENDROOT
BRANCH   1   4
ATOM      4  O   UNL     1      -7.868  17.927  10.482  1.00  0.00    -0.371 OA
BRANCH   4   5
ATOM      5  C   UNL     1      -6.575  18.479  10.184  1.00  0.00     0.158 C 
ATOM      6  C   UNL     1      -5.558  15.782   5.837  1.00  0.00    -0.003 C 
ATOM      7  C   UNL     1      -5.622  15.465   7.336  1.00  0.00     0.052 C 
ATOM      8  C   UNL     1      -6.577  16.882   5.506  1.00  0.00     0.019 C 
ATOM      9  C   UNL     1      -5.477  16.730   8.192  1.00  0.00     0.189 C 
ATOM     10  C   UNL     1      -6.401  18.097   6.415  1.00  0.00     0.087 C 
ATOM     11  N   UNL     1      -6.494  17.715   7.824  1.00  0.00    -0.276 NA
ATOM     12  O   UNL     1      -5.598  16.318   9.555  1.00  0.00    -0.360 OA
ATOM     13  C   UNL     1      -6.414  18.884   8.708  1.00  0.00     0.121 C 
ATOM     14  C   UNL     1      -5.521  17.407  10.479  1.00  0.00     0.195 C 
BRANCH   6  15
ATOM     15  C   UNL     1      -5.815  14.551   4.998  1.00  0.00    -0.008 C 
ATOM     16  C   UNL     1      -5.010  14.298   3.745  1.00  0.00     0.004 C 
ATOM     17  C   UNL     1      -4.811  13.424   4.949  1.00  0.00     0.004 C 
ENDBRANCH   6  15
ENDBRANCH   4   5
ENDBRANCH   1   4
BRANCH   3  18
ATOM     18  C   UNL     1     -11.140  17.800   8.510  1.00  0.00     0.053 C 
BRANCH  18  19
ATOM     19  C   UNL     1     -12.175  16.756   8.180  1.00  0.00     0.074 C 
BRANCH  19  20
ATOM     20  N   UNL     1     -12.126  15.927   7.192  1.00  0.00    -0.313 NA
ATOM     21  H   UNL     1     -13.039  15.841   6.722  1.00  0.00     0.186 HD
ENDBRANCH  19  20
ENDBRANCH  18  19
ENDBRANCH   3  18
TORSDOF 6
ENDMDL
