MODEL 1
REMARK VINA RESULT:    -4.099      0.000      0.000
REMARK INTER + INTRA:          -5.663
REMARK INTER:                  -5.416
REMARK INTRA:                  -0.246
REMARK UNBOUND:                -0.246
REMARK SMILES [H]/N=C\C[C@H]1C[C@@H]1O[C@H]1CO[C@H]2C[C@@H](C3CC3)CCN2C1
REMARK SMILES IDX 7 1 6 2 5 3 8 4 9 5 14 6 13 7 18 8 12 9 19 10 20 11 11 12
REMARK SMILES IDX 21 13 10 14 15 15 16 16 17 17 4 18 3 19 2 20 1 21
REMARK H PARENT
ROOT
ATOM      1  C   UNL     1       9.600   8.626  -2.478  1.00  0.00     0.122 C 
ATOM      2  C   UNL     1      11.046   8.866  -2.148  1.00  0.00     0.039 C 
ATOM      3  C   UNL     1      10.678   8.038  -3.347  1.00  0.00     0.026 C 
ENDROOT
BRANCH   1   4
ATOM      4  O   UNL     1       8.934   7.722  -1.577  1.00  0.00    -0.371 OA
BRANCH   4   5
ATOM      5  C   UNL     1       8.639   8.251  -0.274  1.00  0.00     0.158 C 
ATOM      6  C   UNL     1       3.878   6.213   0.342  1.00  0.00    -0.003 C 
ATOM      7  C   UNL     1       4.493   7.328  -0.512  1.00  0.00     0.052 C 
ATOM      8  C   UNL     1       4.919   5.105   0.557  1.00  0.00     0.019 C 
ATOM      9  C   UNL     1       5.824   7.824   0.070  1.00  0.00     0.189 C 
ATOM     10  C   UNL     1       6.230   5.669   1.105  1.00  0.00     0.087 C 
ATOM     11  N   UNL     1       6.760   6.710   0.225  1.00  0.00    -0.276 NA
ATOM     12  O   UNL     1       6.318   8.818  -0.830  1.00  0.00    -0.360 OA
ATOM     13  C   UNL     1       8.062   7.201   0.691  1.00  0.00     0.121 C 
ATOM     14  C   UNL     1       7.585   9.352  -0.434  1.00  0.00     0.195 C 
BRANCH   6  15
ATOM     15  C   UNL     1       2.628   5.650  -0.296  1.00  0.00    -0.008 C 
ATOM     16  C   UNL     1       1.352   5.527   0.503  1.00  0.00     0.004 C 
ATOM     17  C   UNL     1       1.447   6.540  -0.600  1.00  0.00     0.004 C 
ENDBRANCH   6  15
ENDBRANCH   4   5
ENDBRANCH   1   4
BRANCH   3  18
ATOM     18  C   UNL     1      10.931   8.592  -4.717  1.00  0.00     0.053 C 
BRANCH  18  19
ATOM     19  C   UNL     1      12.344   9.022  -5.012  1.00  0.00     0.074 C 
BRANCH  19  20
ATOM     20  N   UNL     1      13.296   8.258  -5.435  1.00  0.00    -0.313 NA
ATOM     21  H   UNL     1      13.893   8.740  -6.121  1.00  0.00     0.186 HD
ENDBRANCH  19  20
ENDBRANCH  18  19
ENDBRANCH   3  18
TORSDOF 6
ENDMDL
MODEL 2
REMARK VINA RESULT:    -4.079      3.323      5.555
REMARK INTER + INTRA:          -5.637
REMARK INTER:                  -5.487
REMARK INTRA:                  -0.150
REMARK UNBOUND:                -0.246
REMARK SMILES [H]/N=C\C[C@H]1C[C@@H]1O[C@H]1CO[C@H]2C[C@@H](C3CC3)CCN2C1
REMARK SMILES IDX 7 1 6 2 5 3 8 4 9 5 14 6 13 7 18 8 12 9 19 10 20 11 11 12
REMARK SMILES IDX 21 13 10 14 15 15 16 16 17 17 4 18 3 19 2 20 1 21
REMARK H PARENT
ROOT
ATOM      1  C   UNL     1       7.593  11.210   1.152  1.00  0.00     0.122 C 
ATOM      2  C   UNL     1       7.762  12.585   0.570  1.00  0.00     0.039 C 
ATOM      3  C   UNL     1       7.077  12.412   1.896  1.00  0.00     0.026 C 
ENDROOT
BRANCH   1   4
ATOM      4  O   UNL     1       6.612  10.402   0.474  1.00  0.00    -0.371 OA
BRANCH   4   5
ATOM      5  C   UNL     1       6.996   9.922  -0.825  1.00  0.00     0.158 C 
ATOM      6  C   UNL     1       5.197   5.043  -0.419  1.00  0.00    -0.003 C 
ATOM      7  C   UNL     1       6.367   5.835   0.177  1.00  0.00     0.052 C 
ATOM      8  C   UNL     1       4.009   5.988  -0.648  1.00  0.00     0.019 C 
ATOM      9  C   UNL     1       6.705   7.073  -0.666  1.00  0.00     0.189 C 
ATOM     10  C   UNL     1       4.420   7.214  -1.462  1.00  0.00     0.087 C 
ATOM     11  N   UNL     1       5.525   7.924  -0.819  1.00  0.00    -0.276 NA
ATOM     12  O   UNL     1       7.769   7.748   0.008  1.00  0.00    -0.360 OA
ATOM     13  C   UNL     1       5.874   9.151  -1.543  1.00  0.00     0.121 C 
ATOM     14  C   UNL     1       8.171   8.955  -0.647  1.00  0.00     0.195 C 
BRANCH   6  15
ATOM     15  C   UNL     1       4.795   3.891   0.474  1.00  0.00    -0.008 C 
ATOM     16  C   UNL     1       4.314   2.591  -0.126  1.00  0.00     0.004 C 
ATOM     17  C   UNL     1       5.647   2.647   0.563  1.00  0.00     0.004 C 
ENDBRANCH   6  15
ENDBRANCH   4   5
ENDBRANCH   1   4
BRANCH   3  18
ATOM     18  C   UNL     1       7.769  12.886   3.139  1.00  0.00     0.053 C 
BRANCH  18  19
ATOM     19  C   UNL     1       8.154  14.342   3.173  1.00  0.00     0.074 C 
BRANCH  19  20
ATOM     20  N   UNL     1       7.435  15.304   3.646  1.00  0.00    -0.313 NA
ATOM     21  H   UNL     1       6.449  15.026   3.751  1.00  0.00     0.186 HD
ENDBRANCH  19  20
ENDBRANCH  18  19
ENDBRANCH   3  18
TORSDOF 6
ENDMDL
MODEL 3
REMARK VINA RESULT:    -3.807      2.730      8.596
REMARK INTER + INTRA:          -5.278
REMARK INTER:                  -5.051
REMARK INTRA:                  -0.227
REMARK UNBOUND:                -0.246
REMARK SMILES [H]/N=C\C[C@H]1C[C@@H]1O[C@H]1CO[C@H]2C[C@@H](C3CC3)CCN2C1
REMARK SMILES IDX 7 1 6 2 5 3 8 4 9 5 14 6 13 7 18 8 12 9 19 10 20 11 11 12
REMARK SMILES IDX 21 13 10 14 15 15 16 16 17 17 4 18 3 19 2 20 1 21
REMARK H PARENT
ROOT
ATOM      1  C   UNL     1       7.758   8.681  -0.993  1.00  0.00     0.122 C 
ATOM      2  C   UNL     1       6.982   9.807  -0.370  1.00  0.00     0.039 C 
ATOM      3  C   UNL     1       6.419   9.075  -1.554  1.00  0.00     0.026 C 
ENDROOT
BRANCH   1   4
ATOM      4  O   UNL     1       8.918   9.106  -1.733  1.00  0.00    -0.371 OA
BRANCH   4   5
ATOM      5  C   UNL     1      10.043   8.213  -1.689  1.00  0.00     0.158 C 
ATOM      6  C   UNL     1      12.756  10.173  -5.690  1.00  0.00    -0.003 C 
ATOM      7  C   UNL     1      11.470   9.351  -5.532  1.00  0.00     0.052 C 
ATOM      8  C   UNL     1      12.909  11.112  -4.485  1.00  0.00     0.019 C 
ATOM      9  C   UNL     1      11.412   8.640  -4.173  1.00  0.00     0.189 C 
ATOM     10  C   UNL     1      12.807  10.348  -3.165  1.00  0.00     0.087 C 
ATOM     11  N   UNL     1      11.548   9.607  -3.084  1.00  0.00    -0.276 NA
ATOM     12  O   UNL     1      10.161   7.951  -4.126  1.00  0.00    -0.360 OA
ATOM     13  C   UNL     1      11.397   8.938  -1.787  1.00  0.00     0.121 C 
ATOM     14  C   UNL     1       9.945   7.265  -2.888  1.00  0.00     0.195 C 
BRANCH   6  15
ATOM     15  C   UNL     1      12.755  10.961  -6.980  1.00  0.00    -0.008 C 
ATOM     16  C   UNL     1      14.016  11.079  -7.803  1.00  0.00     0.004 C 
ATOM     17  C   UNL     1      12.865  10.262  -8.313  1.00  0.00     0.004 C 
ENDBRANCH   6  15
ENDBRANCH   4   5
ENDBRANCH   1   4
BRANCH   3  18
ATOM     18  C   UNL     1       5.227   8.186  -1.360  1.00  0.00     0.053 C 
BRANCH  18  19
ATOM     19  C   UNL     1       4.225   8.159  -2.484  1.00  0.00     0.074 C 
BRANCH  19  20
ATOM     20  N   UNL     1       3.868   9.170  -3.204  1.00  0.00    -0.313 NA
ATOM     21  H   UNL     1       3.374   8.873  -4.058  1.00  0.00     0.186 HD
ENDBRANCH  19  20
ENDBRANCH  18  19
ENDBRANCH   3  18
TORSDOF 6
ENDMDL
MODEL 4
REMARK VINA RESULT:    -3.805      5.165      8.415
REMARK INTER + INTRA:          -5.274
REMARK INTER:                  -5.105
REMARK INTRA:                  -0.170
REMARK UNBOUND:                -0.246
REMARK SMILES [H]/N=C\C[C@H]1C[C@@H]1O[C@H]1CO[C@H]2C[C@@H](C3CC3)CCN2C1
REMARK SMILES IDX 7 1 6 2 5 3 8 4 9 5 14 6 13 7 18 8 12 9 19 10 20 11 11 12
REMARK SMILES IDX 21 13 10 14 15 15 16 16 17 17 4 18 3 19 2 20 1 21
REMARK H PARENT
ROOT
ATOM      1  C   UNL     1       7.471   9.065  -0.107  1.00  0.00     0.122 C 
ATOM      2  C   UNL     1       8.520   8.194  -0.739  1.00  0.00     0.039 C 
ATOM      3  C   UNL     1       7.953   7.830   0.603  1.00  0.00     0.026 C 
ENDROOT
BRANCH   1   4
ATOM      4  O   UNL     1       7.970  10.325   0.380  1.00  0.00    -0.371 OA
BRANCH   4   5
ATOM      5  C   UNL     1       7.053  11.428   0.298  1.00  0.00     0.158 C 
ATOM      6  C   UNL     1       9.392  14.643   3.675  1.00  0.00    -0.003 C 
ATOM      7  C   UNL     1       8.586  13.342   3.775  1.00  0.00     0.052 C 
ATOM      8  C   UNL     1      10.184  14.649   2.360  1.00  0.00     0.019 C 
ATOM      9  C   UNL     1       7.727  13.105   2.526  1.00  0.00     0.189 C 
ATOM     10  C   UNL     1       9.278  14.375   1.161  1.00  0.00     0.087 C 
ATOM     11  N   UNL     1       8.562  13.110   1.324  1.00  0.00    -0.276 NA
ATOM     12  O   UNL     1       7.066  11.853   2.715  1.00  0.00    -0.360 OA
ATOM     13  C   UNL     1       7.754  12.789   0.142  1.00  0.00     0.121 C 
ATOM     14  C   UNL     1       6.249  11.477   1.602  1.00  0.00     0.195 C 
BRANCH   6  15
ATOM     15  C   UNL     1      10.321  14.813   4.856  1.00  0.00    -0.008 C 
ATOM     16  C   UNL     1      10.684  16.193   5.349  1.00  0.00     0.004 C 
ATOM     17  C   UNL     1       9.802  15.310   6.183  1.00  0.00     0.004 C 
ENDBRANCH   6  15
ENDBRANCH   4   5
ENDBRANCH   1   4
BRANCH   3  18
ATOM     18  C   UNL     1       7.065   6.627   0.715  1.00  0.00     0.053 C 
BRANCH  18  19
ATOM     19  C   UNL     1       7.375   5.672   1.838  1.00  0.00     0.074 C 
BRANCH  19  20
ATOM     20  N   UNL     1       8.478   5.622   2.507  1.00  0.00    -0.313 NA
ATOM     21  H   UNL     1       8.373   5.075   3.373  1.00  0.00     0.186 HD
ENDBRANCH  19  20
ENDBRANCH  18  19
ENDBRANCH   3  18
TORSDOF 6
ENDMDL
MODEL 5
REMARK VINA RESULT:    -3.790      4.146      7.065
REMARK INTER + INTRA:          -5.254
REMARK INTER:                  -4.817
REMARK INTRA:                  -0.437
REMARK UNBOUND:                -0.246
REMARK SMILES [H]/N=C\C[C@H]1C[C@@H]1O[C@H]1CO[C@H]2C[C@@H](C3CC3)CCN2C1
REMARK SMILES IDX 7 1 6 2 5 3 8 4 9 5 14 6 13 7 18 8 12 9 19 10 20 11 11 12
REMARK SMILES IDX 21 13 10 14 15 15 16 16 17 17 4 18 3 19 2 20 1 21
REMARK H PARENT
ROOT
ATOM      1  C   UNL     1      13.846  13.422  -3.436  1.00  0.00     0.122 C 
ATOM      2  C   UNL     1      13.419  14.690  -4.119  1.00  0.00     0.039 C 
ATOM      3  C   UNL     1      12.718  14.241  -2.869  1.00  0.00     0.026 C 
ENDROOT
BRANCH   1   4
ATOM      4  O   UNL     1      13.480  12.222  -4.143  1.00  0.00    -0.371 OA
BRANCH   4   5
ATOM      5  C   UNL     1      14.139  11.021  -3.708  1.00  0.00     0.158 C 
ATOM      6  C   UNL     1       9.952   8.379  -2.068  1.00  0.00    -0.003 C 
ATOM      7  C   UNL     1      10.753   9.587  -1.568  1.00  0.00     0.052 C 
ATOM      8  C   UNL     1       9.981   8.351  -3.603  1.00  0.00     0.019 C 
ATOM      9  C   UNL     1      12.166   9.622  -2.167  1.00  0.00     0.189 C 
ATOM     10  C   UNL     1      11.412   8.422  -4.135  1.00  0.00     0.087 C 
ATOM     11  N   UNL     1      12.101   9.609  -3.629  1.00  0.00    -0.276 NA
ATOM     12  O   UNL     1      12.792  10.805  -1.669  1.00  0.00    -0.360 OA
ATOM     13  C   UNL     1      13.446   9.738  -4.199  1.00  0.00     0.121 C 
ATOM     14  C   UNL     1      14.117  10.994  -2.177  1.00  0.00     0.195 C 
BRANCH   6  15
ATOM     15  C   UNL     1       8.526   8.413  -1.566  1.00  0.00    -0.008 C 
ATOM     16  C   UNL     1       8.194   7.916  -0.178  1.00  0.00     0.004 C 
ATOM     17  C   UNL     1       8.109   9.383  -0.487  1.00  0.00     0.004 C 
ENDBRANCH   6  15
ENDBRANCH   4   5
ENDBRANCH   1   4
BRANCH   3  18
ATOM     18  C   UNL     1      12.913  15.024  -1.605  1.00  0.00     0.053 C 
BRANCH  18  19
ATOM     19  C   UNL     1      12.388  14.392  -0.343  1.00  0.00     0.074 C 
BRANCH  19  20
ATOM     20  N   UNL     1      12.632  13.190   0.061  1.00  0.00    -0.313 NA
ATOM     21  H   UNL     1      13.021  13.181   1.014  1.00  0.00     0.186 HD
ENDBRANCH  19  20
ENDBRANCH  18  19
ENDBRANCH   3  18
TORSDOF 6
ENDMDL
MODEL 6
REMARK VINA RESULT:    -3.727      5.827      7.340
REMARK INTER + INTRA:          -5.171
REMARK INTER:                  -4.616
REMARK INTRA:                  -0.556
REMARK UNBOUND:                -0.246
REMARK SMILES [H]/N=C\C[C@H]1C[C@@H]1O[C@H]1CO[C@H]2C[C@@H](C3CC3)CCN2C1
REMARK SMILES IDX 7 1 6 2 5 3 8 4 9 5 14 6 13 7 18 8 12 9 19 10 20 11 11 12
REMARK SMILES IDX 21 13 10 14 15 15 16 16 17 17 4 18 3 19 2 20 1 21
REMARK H PARENT
ROOT
ATOM      1  C   UNL     1      12.062  15.821   0.776  1.00  0.00     0.122 C 
ATOM      2  C   UNL     1      13.459  15.738   1.323  1.00  0.00     0.039 C 
ATOM      3  C   UNL     1      12.910  14.612   0.495  1.00  0.00     0.026 C 
ENDROOT
BRANCH   1   4
ATOM      4  O   UNL     1      11.032  15.669   1.771  1.00  0.00    -0.371 OA
BRANCH   4   5
ATOM      5  C   UNL     1       9.737  16.172   1.404  1.00  0.00     0.158 C 
ATOM      6  C   UNL     1       7.265  11.617   0.818  1.00  0.00    -0.003 C 
ATOM      7  C   UNL     1       8.332  12.396   0.039  1.00  0.00     0.052 C 
ATOM      8  C   UNL     1       7.423  11.901   2.318  1.00  0.00     0.019 C 
ATOM      9  C   UNL     1       8.324  13.888   0.398  1.00  0.00     0.189 C 
ATOM     10  C   UNL     1       7.442  13.402   2.603  1.00  0.00     0.087 C 
ATOM     11  N   UNL     1       8.497  14.067   1.839  1.00  0.00    -0.276 NA
ATOM     12  O   UNL     1       9.381  14.493  -0.349  1.00  0.00    -0.360 OA
ATOM     13  C   UNL     1       8.585  15.495   2.167  1.00  0.00     0.121 C 
ATOM     14  C   UNL     1       9.522  15.893  -0.087  1.00  0.00     0.195 C 
BRANCH   6  15
ATOM     15  C   UNL     1       7.352  10.132   0.546  1.00  0.00    -0.008 C 
ATOM     16  C   UNL     1       6.628   9.527  -0.633  1.00  0.00     0.004 C 
ATOM     17  C   UNL     1       8.127   9.607  -0.638  1.00  0.00     0.004 C 
ENDBRANCH   6  15
ENDBRANCH   4   5
ENDBRANCH   1   4
BRANCH   3  18
ATOM     18  C   UNL     1      13.467  14.382  -0.879  1.00  0.00     0.053 C 
BRANCH  18  19
ATOM     19  C   UNL     1      12.636  13.527  -1.800  1.00  0.00     0.074 C 
BRANCH  19  20
ATOM     20  N   UNL     1      11.423  13.769  -2.169  1.00  0.00    -0.313 NA
ATOM     21  H   UNL     1      10.738  13.332  -1.536  1.00  0.00     0.186 HD
ENDBRANCH  19  20
ENDBRANCH  18  19
ENDBRANCH   3  18
TORSDOF 6
ENDMDL
MODEL 7
REMARK VINA RESULT:    -3.703      4.220      6.866
REMARK INTER + INTRA:          -5.139
REMARK INTER:                  -4.877
REMARK INTRA:                  -0.263
REMARK UNBOUND:                -0.246
REMARK SMILES [H]/N=C\C[C@H]1C[C@@H]1O[C@H]1CO[C@H]2C[C@@H](C3CC3)CCN2C1
REMARK SMILES IDX 7 1 6 2 5 3 8 4 9 5 14 6 13 7 18 8 12 9 19 10 20 11 11 12
REMARK SMILES IDX 21 13 10 14 15 15 16 16 17 17 4 18 3 19 2 20 1 21
REMARK H PARENT
ROOT
ATOM      1  C   UNL     1      13.670  13.071  -4.963  1.00  0.00     0.122 C 
ATOM      2  C   UNL     1      13.168  13.194  -6.374  1.00  0.00     0.039 C 
ATOM      3  C   UNL     1      13.011  14.344  -5.421  1.00  0.00     0.026 C 
ENDROOT
BRANCH   1   4
ATOM      4  O   UNL     1      12.880  12.199  -4.133  1.00  0.00    -0.371 OA
BRANCH   4   5
ATOM      5  C   UNL     1      13.607  11.159  -3.458  1.00  0.00     0.158 C 
ATOM      6  C   UNL     1       9.556   8.366  -1.727  1.00  0.00    -0.003 C 
ATOM      7  C   UNL     1      10.190   9.718  -1.374  1.00  0.00     0.052 C 
ATOM      8  C   UNL     1       9.730   8.102  -3.229  1.00  0.00     0.019 C 
ATOM      9  C   UNL     1      11.642   9.811  -1.861  1.00  0.00     0.189 C 
ATOM     10  C   UNL     1      11.191   8.244  -3.656  1.00  0.00     0.087 C 
ATOM     11  N   UNL     1      11.714   9.563  -3.301  1.00  0.00    -0.276 NA
ATOM     12  O   UNL     1      12.104  11.119  -1.519  1.00  0.00    -0.360 OA
ATOM     13  C   UNL     1      13.088   9.747  -3.782  1.00  0.00     0.121 C 
ATOM     14  C   UNL     1      13.446  11.369  -1.949  1.00  0.00     0.195 C 
BRANCH   6  15
ATOM     15  C   UNL     1       8.093   8.323  -1.346  1.00  0.00    -0.008 C 
ATOM     16  C   UNL     1       7.663   7.705  -0.037  1.00  0.00     0.004 C 
ATOM     17  C   UNL     1       7.558   9.189  -0.232  1.00  0.00     0.004 C 
ENDBRANCH   6  15
ENDBRANCH   4   5
ENDBRANCH   1   4
BRANCH   3  18
ATOM     18  C   UNL     1      13.829  15.582  -5.636  1.00  0.00     0.053 C 
BRANCH  18  19
ATOM     19  C   UNL     1      13.063  16.835  -5.973  1.00  0.00     0.074 C 
BRANCH  19  20
ATOM     20  N   UNL     1      11.906  16.885  -6.545  1.00  0.00    -0.313 NA
ATOM     21  H   UNL     1      11.537  17.846  -6.573  1.00  0.00     0.186 HD
ENDBRANCH  19  20
ENDBRANCH  18  19
ENDBRANCH   3  18
TORSDOF 6
ENDMDL
MODEL 8
REMARK VINA RESULT:    -3.584      6.161      7.585
REMARK INTER + INTRA:          -4.983
REMARK INTER:                  -4.791
REMARK INTRA:                  -0.192
REMARK UNBOUND:                -0.246
REMARK SMILES [H]/N=C\C[C@H]1C[C@@H]1O[C@H]1CO[C@H]2C[C@@H](C3CC3)CCN2C1
REMARK SMILES IDX 7 1 6 2 5 3 8 4 9 5 14 6 13 7 18 8 12 9 19 10 20 11 11 12
REMARK SMILES IDX 21 13 10 14 15 15 16 16 17 17 4 18 3 19 2 20 1 21
REMARK H PARENT
ROOT
ATOM      1  C   UNL     1      12.081  15.487   2.421  1.00  0.00     0.122 C 
ATOM      2  C   UNL     1      12.310  15.394   3.904  1.00  0.00     0.039 C 
ATOM      3  C   UNL     1      13.352  14.883   2.951  1.00  0.00     0.026 C 
ENDROOT
BRANCH   1   4
ATOM      4  O   UNL     1      11.090  14.568   1.922  1.00  0.00    -0.371 OA
BRANCH   4   5
ATOM      5  C   UNL     1       9.948  15.171   1.291  1.00  0.00     0.158 C 
ATOM      6  C   UNL     1       7.204  10.840   0.335  1.00  0.00    -0.003 C 
ATOM      7  C   UNL     1       8.475  11.483  -0.233  1.00  0.00     0.052 C 
ATOM      8  C   UNL     1       7.091  11.174   1.829  1.00  0.00     0.019 C 
ATOM      9  C   UNL     1       8.543  12.984   0.079  1.00  0.00     0.189 C 
ATOM     10  C   UNL     1       7.201  12.679   2.075  1.00  0.00     0.087 C 
ATOM     11  N   UNL     1       8.446  13.210   1.521  1.00  0.00    -0.276 NA
ATOM     12  O   UNL     1       9.781  13.457  -0.456  1.00  0.00    -0.360 OA
ATOM     13  C   UNL     1       8.608  14.636   1.825  1.00  0.00     0.121 C 
ATOM     14  C   UNL     1      10.005  14.848  -0.205  1.00  0.00     0.195 C 
BRANCH   6  15
ATOM     15  C   UNL     1       7.197   9.343   0.124  1.00  0.00    -0.008 C 
ATOM     16  C   UNL     1       6.440   8.739  -1.036  1.00  0.00     0.004 C 
ATOM     17  C   UNL     1       7.941   8.722  -1.034  1.00  0.00     0.004 C 
ENDBRANCH   6  15
ENDBRANCH   4   5
ENDBRANCH   1   4
BRANCH   3  18
ATOM     18  C   UNL     1      14.650  15.624   2.828  1.00  0.00     0.053 C 
BRANCH  18  19
ATOM     19  C   UNL     1      15.671  15.029   1.894  1.00  0.00     0.074 C 
BRANCH  19  20
ATOM     20  N   UNL     1      15.429  14.185   0.946  1.00  0.00    -0.313 NA
ATOM     21  H   UNL     1      15.011  14.645   0.125  1.00  0.00     0.186 HD
ENDBRANCH  19  20
ENDBRANCH  18  19
ENDBRANCH   3  18
TORSDOF 6
ENDMDL
MODEL 9
REMARK VINA RESULT:    -3.464      6.566     10.119
REMARK INTER + INTRA:          -4.824
REMARK INTER:                  -4.580
REMARK INTRA:                  -0.244
REMARK UNBOUND:                -0.246
REMARK SMILES [H]/N=C\C[C@H]1C[C@@H]1O[C@H]1CO[C@H]2C[C@@H](C3CC3)CCN2C1
REMARK SMILES IDX 7 1 6 2 5 3 8 4 9 5 14 6 13 7 18 8 12 9 19 10 20 11 11 12
REMARK SMILES IDX 21 13 10 14 15 15 16 16 17 17 4 18 3 19 2 20 1 21
REMARK H PARENT
ROOT
ATOM      1  C   UNL     1      10.180  14.188  -0.484  1.00  0.00     0.122 C 
ATOM      2  C   UNL     1       8.893  14.769  -0.999  1.00  0.00     0.039 C 
ATOM      3  C   UNL     1       8.866  13.758   0.111  1.00  0.00     0.026 C 
ENDROOT
BRANCH   1   4
ATOM      4  O   UNL     1      10.811  13.263  -1.389  1.00  0.00    -0.371 OA
BRANCH   4   5
ATOM      5  C   UNL     1      12.245  13.207  -1.317  1.00  0.00     0.158 C 
ATOM      6  C   UNL     1      13.225  11.862  -6.260  1.00  0.00    -0.003 C 
ATOM      7  C   UNL     1      12.644  11.161  -5.026  1.00  0.00     0.052 C 
ATOM      8  C   UNL     1      12.854  13.351  -6.220  1.00  0.00     0.019 C 
ATOM      9  C   UNL     1      13.046  11.871  -3.726  1.00  0.00     0.189 C 
ATOM     10  C   UNL     1      13.250  13.989  -4.889  1.00  0.00     0.087 C 
ATOM     11  N   UNL     1      12.641  13.276  -3.766  1.00  0.00    -0.276 NA
ATOM     12  O   UNL     1      12.413  11.160  -2.660  1.00  0.00    -0.360 OA
ATOM     13  C   UNL     1      12.940  13.928  -2.486  1.00  0.00     0.121 C 
ATOM     14  C   UNL     1      12.667  11.735  -1.375  1.00  0.00     0.195 C 
BRANCH   6  15
ATOM     15  C   UNL     1      12.734  11.227  -7.541  1.00  0.00    -0.008 C 
ATOM     16  C   UNL     1      13.714  10.816  -8.615  1.00  0.00     0.004 C 
ATOM     17  C   UNL     1      12.986   9.766  -7.827  1.00  0.00     0.004 C 
ENDBRANCH   6  15
ENDBRANCH   4   5
ENDBRANCH   1   4
BRANCH   3  18
ATOM     18  C   UNL     1       8.479  14.203   1.490  1.00  0.00     0.053 C 
BRANCH  18  19
ATOM     19  C   UNL     1       7.824  13.166   2.364  1.00  0.00     0.074 C 
BRANCH  19  20
ATOM     20  N   UNL     1       7.135  12.154   1.953  1.00  0.00    -0.313 NA
ATOM     21  H   UNL     1       6.809  12.284   0.985  1.00  0.00     0.186 HD
ENDBRANCH  19  20
ENDBRANCH  18  19
ENDBRANCH   3  18
TORSDOF 6
ENDMDL
