MODEL 1
REMARK VINA RESULT:    -6.086      0.000      0.000
REMARK INTER + INTRA:          -7.522
REMARK INTER:                  -7.154
REMARK INTRA:                  -0.369
REMARK UNBOUND:                -0.369
REMARK SMILES Cc1ccc(CNC(=O)NC(=O)c2ccc(C)cc2)cc1
REMARK SMILES IDX 11 1 12 2 10 3 8 4 9 5 7 6 13 9 19 10 18 11 14 12 16 13
REMARK SMILES IDX 15 14 17 15 6 16 5 17 4 18 20 19 3 20 21 21 2 22 1 23
REMARK H PARENT 10 7 7 8
ROOT
ATOM      1  C   UNL     1       6.648   7.736  -0.610  1.00  0.00     0.259 C 
ATOM      2  O   UNL     1       7.445   6.933  -1.075  1.00  0.00    -0.269 OA
ATOM      3  N   UNL     1       6.875   9.048  -0.185  1.00  0.00    -0.274 N 
ATOM      4  C   UNL     1       7.860   9.995  -0.301  1.00  0.00     0.321 C 
ATOM      5  O   UNL     1       7.617  11.130   0.123  1.00  0.00    -0.248 OA
ATOM      6  N   UNL     1       9.054   9.760  -0.876  1.00  0.00    -0.334 N 
ATOM      7  H   UNL     1       6.057   9.514   0.187  1.00  0.00     0.175 HD
ATOM      8  H   UNL     1       9.634  10.583  -0.960  1.00  0.00     0.165 HD
ENDROOT
BRANCH   1   9
ATOM      9  C   UNL     1       5.251   7.278  -0.477  1.00  0.00     0.040 A 
ATOM     10  C   UNL     1       4.756   6.794   0.735  1.00  0.00     0.014 A 
ATOM     11  C   UNL     1       3.415   6.422   0.826  1.00  0.00     0.004 A 
ATOM     12  C   UNL     1       4.431   7.336  -1.608  1.00  0.00     0.014 A 
ATOM     13  C   UNL     1       2.570   6.525  -0.289  1.00  0.00    -0.051 A 
ATOM     14  C   UNL     1       3.090   6.970  -1.511  1.00  0.00     0.004 A 
ATOM     15  C   UNL     1       1.111   6.202  -0.153  1.00  0.00     0.044 C 
ENDBRANCH   1   9
BRANCH   6  16
ATOM     16  C   UNL     1       9.495   8.554  -1.518  1.00  0.00     0.153 C 
BRANCH  16  17
ATOM     17  C   UNL     1      10.660   8.662  -2.462  1.00  0.00    -0.029 A 
ATOM     18  C   UNL     1      10.604   8.241  -3.795  1.00  0.00     0.006 A 
ATOM     19  C   UNL     1      11.770   9.407  -2.032  1.00  0.00     0.006 A 
ATOM     20  C   UNL     1      11.631   8.585  -4.681  1.00  0.00     0.004 A 
ATOM     21  C   UNL     1      12.787   9.753  -2.915  1.00  0.00     0.004 A 
ATOM     22  C   UNL     1      12.722   9.353  -4.251  1.00  0.00    -0.051 A 
ATOM     23  C   UNL     1      13.750   9.846  -5.224  1.00  0.00     0.044 C 
ENDBRANCH  16  17
ENDBRANCH   6  16
TORSDOF 3
ENDMDL
MODEL 2
REMARK VINA RESULT:    -6.085      3.234      5.491
REMARK INTER + INTRA:          -7.521
REMARK INTER:                  -7.147
REMARK INTRA:                  -0.374
REMARK UNBOUND:                -0.369
REMARK SMILES Cc1ccc(CNC(=O)NC(=O)c2ccc(C)cc2)cc1
REMARK SMILES IDX 11 1 12 2 10 3 8 4 9 5 7 6 13 9 19 10 18 11 14 12 16 13
REMARK SMILES IDX 15 14 17 15 6 16 5 17 4 18 20 19 3 20 21 21 2 22 1 23
REMARK H PARENT 10 7 7 8
ROOT
ATOM      1  C   UNL     1       6.550   7.922  -0.217  1.00  0.00     0.259 C 
ATOM      2  O   UNL     1       5.781   8.763   0.226  1.00  0.00    -0.269 OA
ATOM      3  N   UNL     1       7.788   8.109  -0.839  1.00  0.00    -0.274 N 
ATOM      4  C   UNL     1       8.702   9.120  -0.994  1.00  0.00     0.321 C 
ATOM      5  O   UNL     1       9.783   8.840  -1.522  1.00  0.00    -0.248 OA
ATOM      6  N   UNL     1       8.493  10.383  -0.576  1.00  0.00    -0.334 N 
ATOM      7  H   UNL     1       8.236   7.255  -1.143  1.00  0.00     0.175 HD
ATOM      8  H   UNL     1       9.295  10.986  -0.686  1.00  0.00     0.165 HD
ENDROOT
BRANCH   1   9
ATOM      9  C   UNL     1       6.136   6.512  -0.082  1.00  0.00     0.040 A 
ATOM     10  C   UNL     1       5.503   5.836  -1.126  1.00  0.00     0.014 A 
ATOM     11  C   UNL     1       5.178   4.488  -0.970  1.00  0.00     0.004 A 
ATOM     12  C   UNL     1       6.390   5.867   1.133  1.00  0.00     0.014 A 
ATOM     13  C   UNL     1       5.475   3.817   0.226  1.00  0.00    -0.051 A 
ATOM     14  C   UNL     1       6.069   4.519   1.282  1.00  0.00     0.004 A 
ATOM     15  C   UNL     1       5.197   2.348   0.346  1.00  0.00     0.044 C 
ENDBRANCH   1   9
BRANCH   6  16
ATOM     16  C   UNL     1       7.361  10.890   0.147  1.00  0.00     0.153 C 
BRANCH  16  17
ATOM     17  C   UNL     1       7.553  12.160   0.928  1.00  0.00    -0.029 A 
ATOM     18  C   UNL     1       7.325  12.252   2.305  1.00  0.00     0.006 A 
ATOM     19  C   UNL     1       8.188  13.228   0.273  1.00  0.00     0.006 A 
ATOM     20  C   UNL     1       7.750  13.382   3.011  1.00  0.00     0.004 A 
ATOM     21  C   UNL     1       8.614  14.350   0.977  1.00  0.00     0.004 A 
ATOM     22  C   UNL     1       8.408  14.432   2.355  1.00  0.00    -0.051 A 
ATOM     23  C   UNL     1       8.991  15.579   3.126  1.00  0.00     0.044 C 
ENDBRANCH  16  17
ENDBRANCH   6  16
TORSDOF 3
ENDMDL
MODEL 3
REMARK VINA RESULT:    -6.074      3.143      7.374
REMARK INTER + INTRA:          -7.508
REMARK INTER:                  -7.037
REMARK INTRA:                  -0.471
REMARK UNBOUND:                -0.369
REMARK SMILES Cc1ccc(CNC(=O)NC(=O)c2ccc(C)cc2)cc1
REMARK SMILES IDX 11 1 12 2 10 3 8 4 9 5 7 6 13 9 19 10 18 11 14 12 16 13
REMARK SMILES IDX 15 14 17 15 6 16 5 17 4 18 20 19 3 20 21 21 2 22 1 23
REMARK H PARENT 10 7 7 8
ROOT
ATOM      1  C   UNL     1       7.371  10.622   0.556  1.00  0.00     0.259 C 
ATOM      2  O   UNL     1       6.317  10.095   0.882  1.00  0.00    -0.269 OA
ATOM      3  N   UNL     1       8.379  10.123  -0.276  1.00  0.00    -0.274 N 
ATOM      4  C   UNL     1       8.535   9.101  -1.177  1.00  0.00     0.321 C 
ATOM      5  O   UNL     1       9.581   9.072  -1.834  1.00  0.00    -0.248 OA
ATOM      6  N   UNL     1       7.602   8.157  -1.402  1.00  0.00    -0.334 N 
ATOM      7  H   UNL     1       9.175  10.738  -0.382  1.00  0.00     0.175 HD
ATOM      8  H   UNL     1       7.834   7.528  -2.157  1.00  0.00     0.165 HD
ENDROOT
BRANCH   1   9
ATOM      9  C   UNL     1       7.631  11.969   1.098  1.00  0.00     0.040 A 
ATOM     10  C   UNL     1       7.362  12.282   2.432  1.00  0.00     0.014 A 
ATOM     11  C   UNL     1       7.674  13.554   2.912  1.00  0.00     0.004 A 
ATOM     12  C   UNL     1       8.153  12.936   0.233  1.00  0.00     0.014 A 
ATOM     13  C   UNL     1       8.246  14.515   2.065  1.00  0.00    -0.051 A 
ATOM     14  C   UNL     1       8.470  14.203   0.719  1.00  0.00     0.004 A 
ATOM     15  C   UNL     1       8.654  15.849   2.618  1.00  0.00     0.044 C 
ENDBRANCH   1   9
BRANCH   6  16
ATOM     16  C   UNL     1       6.289   8.069  -0.828  1.00  0.00     0.153 C 
BRANCH  16  17
ATOM     17  C   UNL     1       5.799   6.704  -0.433  1.00  0.00    -0.029 A 
ATOM     18  C   UNL     1       5.083   5.870  -1.298  1.00  0.00     0.006 A 
ATOM     19  C   UNL     1       6.270   6.178   0.781  1.00  0.00     0.006 A 
ATOM     20  C   UNL     1       4.866   4.530  -0.959  1.00  0.00     0.004 A 
ATOM     21  C   UNL     1       6.058   4.844   1.115  1.00  0.00     0.004 A 
ATOM     22  C   UNL     1       5.363   4.005   0.242  1.00  0.00    -0.051 A 
ATOM     23  C   UNL     1       5.259   2.541   0.545  1.00  0.00     0.044 C 
ENDBRANCH  16  17
ENDBRANCH   6  16
TORSDOF 3
ENDMDL
MODEL 4
REMARK VINA RESULT:    -6.068      0.525      8.077
REMARK INTER + INTRA:          -7.501
REMARK INTER:                  -7.030
REMARK INTRA:                  -0.471
REMARK UNBOUND:                -0.369
REMARK SMILES Cc1ccc(CNC(=O)NC(=O)c2ccc(C)cc2)cc1
REMARK SMILES IDX 11 1 12 2 10 3 8 4 9 5 7 6 13 9 19 10 18 11 14 12 16 13
REMARK SMILES IDX 15 14 17 15 6 16 5 17 4 18 20 19 3 20 21 21 2 22 1 23
REMARK H PARENT 10 7 7 8
ROOT
ATOM      1  C   UNL     1       9.201   8.507  -1.849  1.00  0.00     0.259 C 
ATOM      2  O   UNL     1       8.680   7.404  -1.944  1.00  0.00    -0.269 OA
ATOM      3  N   UNL     1       8.777   9.614  -1.107  1.00  0.00    -0.274 N 
ATOM      4  C   UNL     1       7.884   9.877  -0.100  1.00  0.00     0.321 C 
ATOM      5  O   UNL     1       7.899  11.007   0.399  1.00  0.00    -0.248 OA
ATOM      6  N   UNL     1       7.021   8.966   0.387  1.00  0.00    -0.334 N 
ATOM      7  H   UNL     1       9.366  10.431  -1.203  1.00  0.00     0.175 HD
ATOM      8  H   UNL     1       6.492   9.291   1.183  1.00  0.00     0.165 HD
ENDROOT
BRANCH   1   9
ATOM      9  C   UNL     1      10.448   8.716  -2.609  1.00  0.00     0.040 A 
ATOM     10  C   UNL     1      10.581   8.274  -3.926  1.00  0.00     0.014 A 
ATOM     11  C   UNL     1      11.760   8.541  -4.622  1.00  0.00     0.004 A 
ATOM     12  C   UNL     1      11.506   9.368  -1.968  1.00  0.00     0.014 A 
ATOM     13  C   UNL     1      12.808   9.240  -4.005  1.00  0.00    -0.051 A 
ATOM     14  C   UNL     1      12.680   9.639  -2.669  1.00  0.00     0.004 A 
ATOM     15  C   UNL     1      14.035   9.594  -4.792  1.00  0.00     0.044 C 
ENDBRANCH   1   9
BRANCH   6  16
ATOM     16  C   UNL     1       6.912   7.581   0.024  1.00  0.00     0.153 C 
BRANCH  16  17
ATOM     17  C   UNL     1       5.528   7.007  -0.099  1.00  0.00    -0.029 A 
ATOM     18  C   UNL     1       4.851   6.412   0.971  1.00  0.00     0.006 A 
ATOM     19  C   UNL     1       4.823   7.275  -1.283  1.00  0.00     0.006 A 
ATOM     20  C   UNL     1       3.488   6.117   0.859  1.00  0.00     0.004 A 
ATOM     21  C   UNL     1       3.467   6.986  -1.391  1.00  0.00     0.004 A 
ATOM     22  C   UNL     1       2.784   6.413  -0.316  1.00  0.00    -0.051 A 
ATOM     23  C   UNL     1       1.298   6.233  -0.392  1.00  0.00     0.044 C 
ENDBRANCH  16  17
ENDBRANCH   6  16
TORSDOF 3
ENDMDL
MODEL 5
REMARK VINA RESULT:    -5.827      1.219      8.055
REMARK INTER + INTRA:          -7.218
REMARK INTER:                  -6.771
REMARK INTRA:                  -0.447
REMARK UNBOUND:                -0.369
REMARK SMILES Cc1ccc(CNC(=O)NC(=O)c2ccc(C)cc2)cc1
REMARK SMILES IDX 11 1 12 2 10 3 8 4 9 5 7 6 13 9 19 10 18 11 14 12 16 13
REMARK SMILES IDX 15 14 17 15 6 16 5 17 4 18 20 19 3 20 21 21 2 22 1 23
REMARK H PARENT 10 7 7 8
ROOT
ATOM      1  C   UNL     1       9.306   8.314  -1.866  1.00  0.00     0.259 C 
ATOM      2  O   UNL     1       8.967   7.139  -1.862  1.00  0.00    -0.269 OA
ATOM      3  N   UNL     1       8.690   9.405  -1.246  1.00  0.00    -0.274 N 
ATOM      4  C   UNL     1       7.730   9.619  -0.290  1.00  0.00     0.321 C 
ATOM      5  O   UNL     1       7.552  10.779   0.095  1.00  0.00    -0.248 OA
ATOM      6  N   UNL     1       7.002   8.633   0.267  1.00  0.00    -0.334 N 
ATOM      7  H   UNL     1       9.148  10.292  -1.411  1.00  0.00     0.175 HD
ATOM      8  H   UNL     1       6.400   8.945   1.015  1.00  0.00     0.165 HD
ENDROOT
BRANCH   1   9
ATOM      9  C   UNL     1      10.533   8.644  -2.616  1.00  0.00     0.040 A 
ATOM     10  C   UNL     1      10.701   8.254  -3.946  1.00  0.00     0.014 A 
ATOM     11  C   UNL     1      11.855   8.635  -4.630  1.00  0.00     0.004 A 
ATOM     12  C   UNL     1      11.536   9.359  -1.953  1.00  0.00     0.014 A 
ATOM     13  C   UNL     1      12.844   9.396  -3.990  1.00  0.00    -0.051 A 
ATOM     14  C   UNL     1      12.685   9.742  -2.643  1.00  0.00     0.004 A 
ATOM     15  C   UNL     1      14.040   9.870  -4.763  1.00  0.00     0.044 C 
ENDBRANCH   1   9
BRANCH   6  16
ATOM     16  C   UNL     1       7.122   7.220   0.040  1.00  0.00     0.153 C 
BRANCH  16  17
ATOM     17  C   UNL     1       5.849   6.437  -0.124  1.00  0.00    -0.029 A 
ATOM     18  C   UNL     1       5.714   5.381  -1.031  1.00  0.00     0.006 A 
ATOM     19  C   UNL     1       4.836   6.650   0.826  1.00  0.00     0.006 A 
ATOM     20  C   UNL     1       4.596   4.542  -0.967  1.00  0.00     0.004 A 
ATOM     21  C   UNL     1       3.728   5.812   0.891  1.00  0.00     0.004 A 
ATOM     22  C   UNL     1       3.603   4.744   0.001  1.00  0.00    -0.051 A 
ATOM     23  C   UNL     1       2.477   3.768   0.167  1.00  0.00     0.044 C 
ENDBRANCH  16  17
ENDBRANCH   6  16
TORSDOF 3
ENDMDL
MODEL 6
REMARK VINA RESULT:    -5.767      3.079      7.869
REMARK INTER + INTRA:          -7.147
REMARK INTER:                  -6.704
REMARK INTRA:                  -0.442
REMARK UNBOUND:                -0.369
REMARK SMILES Cc1ccc(CNC(=O)NC(=O)c2ccc(C)cc2)cc1
REMARK SMILES IDX 11 1 12 2 10 3 8 4 9 5 7 6 13 9 19 10 18 11 14 12 16 13
REMARK SMILES IDX 15 14 17 15 6 16 5 17 4 18 20 19 3 20 21 21 2 22 1 23
REMARK H PARENT 10 7 7 8
ROOT
ATOM      1  C   UNL     1       7.231  10.711   0.548  1.00  0.00     0.259 C 
ATOM      2  O   UNL     1       6.085  10.366   0.795  1.00  0.00    -0.269 OA
ATOM      3  N   UNL     1       8.218  10.024  -0.167  1.00  0.00    -0.274 N 
ATOM      4  C   UNL     1       8.291   8.945  -1.010  1.00  0.00     0.321 C 
ATOM      5  O   UNL     1       9.373   8.725  -1.566  1.00  0.00    -0.248 OA
ATOM      6  N   UNL     1       7.247   8.141  -1.284  1.00  0.00    -0.334 N 
ATOM      7  H   UNL     1       9.105  10.506  -0.222  1.00  0.00     0.175 HD
ATOM      8  H   UNL     1       7.443   7.446  -1.989  1.00  0.00     0.165 HD
ENDROOT
BRANCH   1   9
ATOM      9  C   UNL     1       7.649  12.030   1.060  1.00  0.00     0.040 A 
ATOM     10  C   UNL     1       8.242  12.980   0.227  1.00  0.00     0.014 A 
ATOM     11  C   UNL     1       8.572  14.233   0.744  1.00  0.00     0.004 A 
ATOM     12  C   UNL     1       7.441  12.305   2.415  1.00  0.00     0.014 A 
ATOM     13  C   UNL     1       8.319  14.537   2.090  1.00  0.00    -0.051 A 
ATOM     14  C   UNL     1       7.766  13.560   2.927  1.00  0.00     0.004 A 
ATOM     15  C   UNL     1       8.601  15.916   2.611  1.00  0.00     0.044 C 
ENDBRANCH   1   9
BRANCH   6  16
ATOM     16  C   UNL     1       5.892   8.281  -0.831  1.00  0.00     0.153 C 
BRANCH  16  17
ATOM     17  C   UNL     1       5.183   7.034  -0.381  1.00  0.00    -0.029 A 
ATOM     18  C   UNL     1       4.289   7.010   0.695  1.00  0.00     0.006 A 
ATOM     19  C   UNL     1       5.270   5.908  -1.216  1.00  0.00     0.006 A 
ATOM     20  C   UNL     1       3.484   5.886   0.911  1.00  0.00     0.004 A 
ATOM     21  C   UNL     1       4.466   4.793  -1.002  1.00  0.00     0.004 A 
ATOM     22  C   UNL     1       3.558   4.777   0.058  1.00  0.00    -0.051 A 
ATOM     23  C   UNL     1       2.601   3.631   0.197  1.00  0.00     0.044 C 
ENDBRANCH  16  17
ENDBRANCH   6  16
TORSDOF 3
ENDMDL
MODEL 7
REMARK VINA RESULT:    -4.545      2.166      3.742
REMARK INTER + INTRA:          -5.710
REMARK INTER:                  -5.251
REMARK INTRA:                  -0.459
REMARK UNBOUND:                -0.369
REMARK SMILES Cc1ccc(CNC(=O)NC(=O)c2ccc(C)cc2)cc1
REMARK SMILES IDX 11 1 12 2 10 3 8 4 9 5 7 6 13 9 19 10 18 11 14 12 16 13
REMARK SMILES IDX 15 14 17 15 6 16 5 17 4 18 20 19 3 20 21 21 2 22 1 23
REMARK H PARENT 10 7 7 8
ROOT
ATOM      1  C   UNL     1       9.716   8.437  -1.877  1.00  0.00     0.259 C 
ATOM      2  O   UNL     1      10.076   7.627  -2.720  1.00  0.00    -0.269 OA
ATOM      3  N   UNL     1      10.386   9.573  -1.412  1.00  0.00    -0.274 N 
ATOM      4  C   UNL     1      11.455  10.344  -1.789  1.00  0.00     0.321 C 
ATOM      5  O   UNL     1      11.658  11.389  -1.162  1.00  0.00    -0.248 OA
ATOM      6  N   UNL     1      12.267  10.038  -2.818  1.00  0.00    -0.334 N 
ATOM      7  H   UNL     1       9.894  10.080  -0.689  1.00  0.00     0.175 HD
ATOM      8  H   UNL     1      12.953  10.751  -3.020  1.00  0.00     0.165 HD
ENDROOT
BRANCH   1   9
ATOM      9  C   UNL     1       8.398   8.202  -1.257  1.00  0.00     0.040 A 
ATOM     10  C   UNL     1       7.244   8.817  -1.747  1.00  0.00     0.014 A 
ATOM     11  C   UNL     1       6.012   8.524  -1.161  1.00  0.00     0.004 A 
ATOM     12  C   UNL     1       8.334   7.347  -0.152  1.00  0.00     0.014 A 
ATOM     13  C   UNL     1       5.930   7.627  -0.085  1.00  0.00    -0.051 A 
ATOM     14  C   UNL     1       7.100   7.052   0.425  1.00  0.00     0.004 A 
ATOM     15  C   UNL     1       4.589   7.257   0.478  1.00  0.00     0.044 C 
ENDBRANCH   1   9
BRANCH   6  16
ATOM     16  C   UNL     1      12.146   8.938  -3.732  1.00  0.00     0.153 C 
BRANCH  16  17
ATOM     17  C   UNL     1      12.328   9.233  -5.195  1.00  0.00    -0.029 A 
ATOM     18  C   UNL     1      11.349   9.858  -5.975  1.00  0.00     0.006 A 
ATOM     19  C   UNL     1      13.614   9.060  -5.732  1.00  0.00     0.006 A 
ATOM     20  C   UNL     1      11.665  10.320  -7.257  1.00  0.00     0.004 A 
ATOM     21  C   UNL     1      13.928   9.525  -7.005  1.00  0.00     0.004 A 
ATOM     22  C   UNL     1      12.958  10.169  -7.775  1.00  0.00    -0.051 A 
ATOM     23  C   UNL     1      13.342  10.786  -9.087  1.00  0.00     0.044 C 
ENDBRANCH  16  17
ENDBRANCH   6  16
TORSDOF 3
ENDMDL
MODEL 8
REMARK VINA RESULT:    -4.504      4.781      7.119
REMARK INTER + INTRA:          -5.662
REMARK INTER:                  -5.220
REMARK INTRA:                  -0.442
REMARK UNBOUND:                -0.369
REMARK SMILES Cc1ccc(CNC(=O)NC(=O)c2ccc(C)cc2)cc1
REMARK SMILES IDX 11 1 12 2 10 3 8 4 9 5 7 6 13 9 19 10 18 11 14 12 16 13
REMARK SMILES IDX 15 14 17 15 6 16 5 17 4 18 20 19 3 20 21 21 2 22 1 23
REMARK H PARENT 10 7 7 8
ROOT
ATOM      1  C   UNL     1       7.257  11.170   0.629  1.00  0.00     0.259 C 
ATOM      2  O   UNL     1       6.619  11.545   1.603  1.00  0.00    -0.269 OA
ATOM      3  N   UNL     1       8.192  11.879  -0.131  1.00  0.00    -0.274 N 
ATOM      4  C   UNL     1       8.917  13.038  -0.021  1.00  0.00     0.321 C 
ATOM      5  O   UNL     1       9.774  13.262  -0.883  1.00  0.00    -0.248 OA
ATOM      6  N   UNL     1       8.763  13.920   0.984  1.00  0.00    -0.334 N 
ATOM      7  H   UNL     1       8.576  11.361  -0.910  1.00  0.00     0.175 HD
ATOM      8  H   UNL     1       9.431  14.677   0.966  1.00  0.00     0.165 HD
ENDROOT
BRANCH   1   9
ATOM      9  C   UNL     1       7.026   9.782   0.182  1.00  0.00     0.040 A 
ATOM     10  C   UNL     1       7.743   8.714   0.723  1.00  0.00     0.014 A 
ATOM     11  C   UNL     1       7.453   7.415   0.307  1.00  0.00     0.004 A 
ATOM     12  C   UNL     1       6.066   9.564  -0.811  1.00  0.00     0.014 A 
ATOM     13  C   UNL     1       6.456   7.180  -0.651  1.00  0.00    -0.051 A 
ATOM     14  C   UNL     1       5.775   8.263  -1.219  1.00  0.00     0.004 A 
ATOM     15  C   UNL     1       6.097   5.772  -1.025  1.00  0.00     0.044 C 
ENDBRANCH   1   9
BRANCH   6  16
ATOM     16  C   UNL     1       7.906  13.801   2.130  1.00  0.00     0.153 C 
BRANCH  16  17
ATOM     17  C   UNL     1       8.476  14.201   3.462  1.00  0.00    -0.029 A 
ATOM     18  C   UNL     1       9.422  13.433   4.150  1.00  0.00     0.006 A 
ATOM     19  C   UNL     1       8.195  15.500   3.918  1.00  0.00     0.006 A 
ATOM     20  C   UNL     1      10.088  13.970   5.257  1.00  0.00     0.004 A 
ATOM     21  C   UNL     1       8.862  16.034   5.016  1.00  0.00     0.004 A 
ATOM     22  C   UNL     1       9.823  15.277   5.689  1.00  0.00    -0.051 A 
ATOM     23  C   UNL     1      10.632  15.907   6.782  1.00  0.00     0.044 C 
ENDBRANCH  16  17
ENDBRANCH   6  16
TORSDOF 3
ENDMDL
MODEL 9
REMARK VINA RESULT:    -4.318      6.357      7.515
REMARK INTER + INTRA:          -5.444
REMARK INTER:                  -4.897
REMARK INTRA:                  -0.547
REMARK UNBOUND:                -0.369
REMARK SMILES Cc1ccc(CNC(=O)NC(=O)c2ccc(C)cc2)cc1
REMARK SMILES IDX 11 1 12 2 10 3 8 4 9 5 7 6 13 9 19 10 18 11 14 12 16 13
REMARK SMILES IDX 15 14 17 15 6 16 5 17 4 18 20 19 3 20 21 21 2 22 1 23
REMARK H PARENT 10 7 7 8
ROOT
ATOM      1  C   UNL     1      12.128  12.610  -1.108  1.00  0.00     0.259 C 
ATOM      2  O   UNL     1      11.645  11.499  -1.273  1.00  0.00    -0.269 OA
ATOM      3  N   UNL     1      13.474  12.974  -1.007  1.00  0.00    -0.274 N 
ATOM      4  C   UNL     1      14.698  12.409  -1.260  1.00  0.00     0.321 C 
ATOM      5  O   UNL     1      15.695  13.132  -1.163  1.00  0.00    -0.248 OA
ATOM      6  N   UNL     1      14.863  11.126  -1.634  1.00  0.00    -0.334 N 
ATOM      7  H   UNL     1      13.629  13.961  -0.849  1.00  0.00     0.175 HD
ATOM      8  H   UNL     1      15.817  10.889  -1.865  1.00  0.00     0.165 HD
ENDROOT
BRANCH   1   9
ATOM      9  C   UNL     1      11.177  13.734  -1.004  1.00  0.00     0.040 A 
ATOM     10  C   UNL     1      11.571  15.047  -1.269  1.00  0.00     0.014 A 
ATOM     11  C   UNL     1      10.624  16.070  -1.209  1.00  0.00     0.004 A 
ATOM     12  C   UNL     1       9.863  13.449  -0.623  1.00  0.00     0.014 A 
ATOM     13  C   UNL     1       9.290  15.788  -0.878  1.00  0.00    -0.051 A 
ATOM     14  C   UNL     1       8.919  14.473  -0.570  1.00  0.00     0.004 A 
ATOM     15  C   UNL     1       8.267  16.885  -0.900  1.00  0.00     0.044 C 
ENDBRANCH   1   9
BRANCH   6  16
ATOM     16  C   UNL     1      13.841  10.154  -1.904  1.00  0.00     0.153 C 
BRANCH  16  17
ATOM     17  C   UNL     1      13.632   9.752  -3.337  1.00  0.00    -0.029 A 
ATOM     18  C   UNL     1      12.379   9.422  -3.863  1.00  0.00     0.006 A 
ATOM     19  C   UNL     1      14.713   9.924  -4.217  1.00  0.00     0.006 A 
ATOM     20  C   UNL     1      12.212   9.292  -5.246  1.00  0.00     0.004 A 
ATOM     21  C   UNL     1      14.545   9.799  -5.593  1.00  0.00     0.004 A 
ATOM     22  C   UNL     1      13.289   9.493  -6.120  1.00  0.00    -0.051 A 
ATOM     23  C   UNL     1      13.088   9.496  -7.606  1.00  0.00     0.044 C 
ENDBRANCH  16  17
ENDBRANCH   6  16
TORSDOF 3
ENDMDL
