MODEL 1
REMARK VINA RESULT:    -6.072      0.000      0.000
REMARK INTER + INTRA:          -7.609
REMARK INTER:                  -7.137
REMARK INTRA:                  -0.472
REMARK UNBOUND:                -0.472
REMARK SMILES Cc1ccc(CNC(=O)NC(=O)c2ccc(C)cc2)cc1
REMARK SMILES IDX 11 1 12 2 10 3 8 4 9 5 7 6 13 9 19 10 18 11 14 12 16 13
REMARK SMILES IDX 15 14 17 15 6 16 5 17 4 18 20 19 3 20 21 21 2 22 1 23
REMARK H PARENT 10 7 7 8
ROOT
ATOM      1  C   UNL     1       2.856   4.965  10.615  1.00  0.00     0.259 C 
ATOM      2  O   UNL     1       2.626   3.929  10.008  1.00  0.00    -0.269 OA
ATOM      3  N   UNL     1       2.582   6.283  10.234  1.00  0.00    -0.274 N 
ATOM      4  C   UNL     1       1.825   6.928   9.290  1.00  0.00     0.321 C 
ATOM      5  O   UNL     1       1.740   8.158   9.366  1.00  0.00    -0.248 OA
ATOM      6  N   UNL     1       1.151   6.291   8.314  1.00  0.00    -0.334 N 
ATOM      7  H   UNL     1       2.888   6.981  10.898  1.00  0.00     0.175 HD
ATOM      8  H   UNL     1       0.573   6.901   7.754  1.00  0.00     0.165 HD
ENDROOT
BRANCH   1   9
ATOM      9  C   UNL     1       3.506   4.828  11.933  1.00  0.00     0.040 A 
ATOM     10  C   UNL     1       4.574   3.951  12.130  1.00  0.00     0.014 A 
ATOM     11  C   UNL     1       5.191   3.895  13.380  1.00  0.00     0.004 A 
ATOM     12  C   UNL     1       3.017   5.601  12.990  1.00  0.00     0.014 A 
ATOM     13  C   UNL     1       4.741   4.704  14.434  1.00  0.00    -0.051 A 
ATOM     14  C   UNL     1       3.640   5.547  14.235  1.00  0.00     0.004 A 
ATOM     15  C   UNL     1       5.467   4.694  15.746  1.00  0.00     0.044 C 
ENDBRANCH   1   9
BRANCH   6  16
ATOM     16  C   UNL     1       1.032   4.874   8.112  1.00  0.00     0.153 C 
BRANCH  16  17
ATOM     17  C   UNL     1       1.116   4.370   6.698  1.00  0.00    -0.029 A 
ATOM     18  C   UNL     1      -0.012   4.105   5.914  1.00  0.00     0.006 A 
ATOM     19  C   UNL     1       2.381   4.372   6.088  1.00  0.00     0.006 A 
ATOM     20  C   UNL     1       0.128   3.872   4.542  1.00  0.00     0.004 A 
ATOM     21  C   UNL     1       2.518   4.144   4.722  1.00  0.00     0.004 A 
ATOM     22  C   UNL     1       1.392   3.903   3.935  1.00  0.00    -0.051 A 
ATOM     23  C   UNL     1       1.535   3.796   2.446  1.00  0.00     0.044 C 
ENDBRANCH  16  17
ENDBRANCH   6  16
TORSDOF 3
ENDMDL
MODEL 2
REMARK VINA RESULT:    -6.064      3.120      7.428
REMARK INTER + INTRA:          -7.599
REMARK INTER:                  -7.233
REMARK INTRA:                  -0.366
REMARK UNBOUND:                -0.472
REMARK SMILES Cc1ccc(CNC(=O)NC(=O)c2ccc(C)cc2)cc1
REMARK SMILES IDX 11 1 12 2 10 3 8 4 9 5 7 6 13 9 19 10 18 11 14 12 16 13
REMARK SMILES IDX 15 14 17 15 6 16 5 17 4 18 20 19 3 20 21 21 2 22 1 23
REMARK H PARENT 10 7 7 8
ROOT
ATOM      1  C   UNL     1       1.455   5.198   7.743  1.00  0.00     0.259 C 
ATOM      2  O   UNL     1       1.354   6.208   7.059  1.00  0.00    -0.269 OA
ATOM      3  N   UNL     1       1.985   5.062   9.029  1.00  0.00    -0.274 N 
ATOM      4  C   UNL     1       2.344   5.880  10.069  1.00  0.00     0.321 C 
ATOM      5  O   UNL     1       2.663   5.345  11.137  1.00  0.00    -0.248 OA
ATOM      6  N   UNL     1       2.338   7.224   9.995  1.00  0.00    -0.334 N 
ATOM      7  H   UNL     1       1.981   4.115   9.384  1.00  0.00     0.175 HD
ATOM      8  H   UNL     1       2.545   7.681  10.872  1.00  0.00     0.165 HD
ENDROOT
BRANCH   1   9
ATOM      9  C   UNL     1       0.950   3.945   7.149  1.00  0.00     0.040 A 
ATOM     10  C   UNL     1       1.807   3.040   6.521  1.00  0.00     0.014 A 
ATOM     11  C   UNL     1       1.291   1.844   6.021  1.00  0.00     0.004 A 
ATOM     12  C   UNL     1      -0.423   3.689   7.225  1.00  0.00     0.014 A 
ATOM     13  C   UNL     1      -0.076   1.554   6.139  1.00  0.00    -0.051 A 
ATOM     14  C   UNL     1      -0.933   2.490   6.730  1.00  0.00     0.004 A 
ATOM     15  C   UNL     1      -0.601   0.227   5.673  1.00  0.00     0.044 C 
ENDBRANCH   1   9
BRANCH   6  16
ATOM     16  C   UNL     1       1.907   8.039   8.894  1.00  0.00     0.153 C 
BRANCH  16  17
ATOM     17  C   UNL     1       1.608   9.484   9.181  1.00  0.00    -0.029 A 
ATOM     18  C   UNL     1       0.396  10.095   8.842  1.00  0.00     0.006 A 
ATOM     19  C   UNL     1       2.507  10.175  10.010  1.00  0.00     0.006 A 
ATOM     20  C   UNL     1       0.086  11.362   9.346  1.00  0.00     0.004 A 
ATOM     21  C   UNL     1       2.195  11.433  10.514  1.00  0.00     0.004 A 
ATOM     22  C   UNL     1       0.976  12.034  10.195  1.00  0.00    -0.051 A 
ATOM     23  C   UNL     1       0.591  13.326  10.851  1.00  0.00     0.044 C 
ENDBRANCH  16  17
ENDBRANCH   6  16
TORSDOF 3
ENDMDL
MODEL 3
REMARK VINA RESULT:    -6.062      2.991      5.355
REMARK INTER + INTRA:          -7.598
REMARK INTER:                  -7.131
REMARK INTRA:                  -0.466
REMARK UNBOUND:                -0.472
REMARK SMILES Cc1ccc(CNC(=O)NC(=O)c2ccc(C)cc2)cc1
REMARK SMILES IDX 11 1 12 2 10 3 8 4 9 5 7 6 13 9 19 10 18 11 14 12 16 13
REMARK SMILES IDX 15 14 17 15 6 16 5 17 4 18 20 19 3 20 21 21 2 22 1 23
REMARK H PARENT 10 7 7 8
ROOT
ATOM      1  C   UNL     1       1.530   7.910   8.834  1.00  0.00     0.259 C 
ATOM      2  O   UNL     1       1.203   7.633   7.689  1.00  0.00    -0.269 OA
ATOM      3  N   UNL     1       2.009   7.062   9.838  1.00  0.00    -0.274 N 
ATOM      4  C   UNL     1       2.504   5.787   9.935  1.00  0.00     0.321 C 
ATOM      5  O   UNL     1       2.964   5.433  11.026  1.00  0.00    -0.248 OA
ATOM      6  N   UNL     1       2.542   4.922   8.905  1.00  0.00    -0.334 N 
ATOM      7  H   UNL     1       2.194   7.521  10.719  1.00  0.00     0.175 HD
ATOM      8  H   UNL     1       3.016   4.056   9.118  1.00  0.00     0.165 HD
ENDROOT
BRANCH   1   9
ATOM      9  C   UNL     1       1.418   9.328   9.229  1.00  0.00     0.040 A 
ATOM     10  C   UNL     1       0.304  10.094   8.881  1.00  0.00     0.014 A 
ATOM     11  C   UNL     1       0.218  11.415   9.321  1.00  0.00     0.004 A 
ATOM     12  C   UNL     1       2.468   9.891   9.960  1.00  0.00     0.014 A 
ATOM     13  C   UNL     1       1.242  11.974  10.100  1.00  0.00    -0.051 A 
ATOM     14  C   UNL     1       2.375  11.209  10.404  1.00  0.00     0.004 A 
ATOM     15  C   UNL     1       1.096  13.368  10.637  1.00  0.00     0.044 C 
ENDBRANCH   1   9
BRANCH   6  16
ATOM     16  C   UNL     1       2.160   5.165   7.543  1.00  0.00     0.153 C 
BRANCH  16  17
ATOM     17  C   UNL     1       1.432   4.064   6.823  1.00  0.00    -0.029 A 
ATOM     18  C   UNL     1       2.083   3.099   6.047  1.00  0.00     0.006 A 
ATOM     19  C   UNL     1       0.072   3.888   7.124  1.00  0.00     0.006 A 
ATOM     20  C   UNL     1       1.386   1.969   5.605  1.00  0.00     0.004 A 
ATOM     21  C   UNL     1      -0.619   2.762   6.688  1.00  0.00     0.004 A 
ATOM     22  C   UNL     1       0.035   1.787   5.933  1.00  0.00    -0.051 A 
ATOM     23  C   UNL     1      -0.678   0.515   5.585  1.00  0.00     0.044 C 
ENDBRANCH  16  17
ENDBRANCH   6  16
TORSDOF 3
ENDMDL
MODEL 4
REMARK VINA RESULT:    -6.058      0.559      8.073
REMARK INTER + INTRA:          -7.593
REMARK INTER:                  -7.223
REMARK INTRA:                  -0.370
REMARK UNBOUND:                -0.472
REMARK SMILES Cc1ccc(CNC(=O)NC(=O)c2ccc(C)cc2)cc1
REMARK SMILES IDX 11 1 12 2 10 3 8 4 9 5 7 6 13 9 19 10 18 11 14 12 16 13
REMARK SMILES IDX 15 14 17 15 6 16 5 17 4 18 20 19 3 20 21 21 2 22 1 23
REMARK H PARENT 10 7 7 8
ROOT
ATOM      1  C   UNL     1       1.771   4.855   7.908  1.00  0.00     0.259 C 
ATOM      2  O   UNL     1       1.872   3.879   8.638  1.00  0.00    -0.269 OA
ATOM      3  N   UNL     1       1.752   6.210   8.256  1.00  0.00    -0.274 N 
ATOM      4  C   UNL     1       2.049   6.979   9.352  1.00  0.00     0.321 C 
ATOM      5  O   UNL     1       2.029   8.207   9.213  1.00  0.00    -0.248 OA
ATOM      6  N   UNL     1       2.387   6.468  10.550  1.00  0.00    -0.334 N 
ATOM      7  H   UNL     1       1.637   6.839   7.473  1.00  0.00     0.175 HD
ATOM      8  H   UNL     1       2.659   7.166  11.227  1.00  0.00     0.165 HD
ENDROOT
BRANCH   1   9
ATOM      9  C   UNL     1       1.656   4.589   6.462  1.00  0.00     0.040 A 
ATOM     10  C   UNL     1       0.414   4.546   5.825  1.00  0.00     0.014 A 
ATOM     11  C   UNL     1       0.359   4.343   4.446  1.00  0.00     0.004 A 
ATOM     12  C   UNL     1       2.833   4.372   5.738  1.00  0.00     0.014 A 
ATOM     13  C   UNL     1       1.537   4.176   3.703  1.00  0.00    -0.051 A 
ATOM     14  C   UNL     1       2.774   4.177   4.360  1.00  0.00     0.004 A 
ATOM     15  C   UNL     1       1.466   4.044   2.210  1.00  0.00     0.044 C 
ENDBRANCH   1   9
BRANCH   6  16
ATOM     16  C   UNL     1       2.569   5.086  10.893  1.00  0.00     0.153 C 
BRANCH  16  17
ATOM     17  C   UNL     1       3.366   4.782  12.131  1.00  0.00    -0.029 A 
ATOM     18  C   UNL     1       4.475   3.929  12.135  1.00  0.00     0.006 A 
ATOM     19  C   UNL     1       3.101   5.555  13.273  1.00  0.00     0.006 A 
ATOM     20  C   UNL     1       5.313   3.876  13.254  1.00  0.00     0.004 A 
ATOM     21  C   UNL     1       3.938   5.505  14.383  1.00  0.00     0.004 A 
ATOM     22  C   UNL     1       5.058   4.672  14.380  1.00  0.00    -0.051 A 
ATOM     23  C   UNL     1       6.027   4.726  15.522  1.00  0.00     0.044 C 
ENDBRANCH  16  17
ENDBRANCH   6  16
TORSDOF 3
ENDMDL
MODEL 5
REMARK VINA RESULT:    -5.838      0.940      1.196
REMARK INTER + INTRA:          -7.334
REMARK INTER:                  -6.888
REMARK INTRA:                  -0.447
REMARK UNBOUND:                -0.472
REMARK SMILES Cc1ccc(CNC(=O)NC(=O)c2ccc(C)cc2)cc1
REMARK SMILES IDX 11 1 12 2 10 3 8 4 9 5 7 6 13 9 19 10 18 11 14 12 16 13
REMARK SMILES IDX 15 14 17 15 6 16 5 17 4 18 20 19 3 20 21 21 2 22 1 23
REMARK H PARENT 10 7 7 8
ROOT
ATOM      1  C   UNL     1       2.804   4.798  10.606  1.00  0.00     0.259 C 
ATOM      2  O   UNL     1       2.493   3.719  10.121  1.00  0.00    -0.269 OA
ATOM      3  N   UNL     1       2.620   6.081  10.080  1.00  0.00    -0.274 N 
ATOM      4  C   UNL     1       1.899   6.668   9.072  1.00  0.00     0.321 C 
ATOM      5  O   UNL     1       1.902   7.902   9.009  1.00  0.00    -0.248 OA
ATOM      6  N   UNL     1       1.170   5.976   8.176  1.00  0.00    -0.334 N 
ATOM      7  H   UNL     1       2.982   6.826  10.660  1.00  0.00     0.175 HD
ATOM      8  H   UNL     1       0.630   6.559   7.554  1.00  0.00     0.165 HD
ENDROOT
BRANCH   1   9
ATOM      9  C   UNL     1       3.458   4.764  11.928  1.00  0.00     0.040 A 
ATOM     10  C   UNL     1       4.554   3.935  12.177  1.00  0.00     0.014 A 
ATOM     11  C   UNL     1       5.172   3.976  13.427  1.00  0.00     0.004 A 
ATOM     12  C   UNL     1       2.945   5.585  12.937  1.00  0.00     0.014 A 
ATOM     13  C   UNL     1       4.697   4.834  14.429  1.00  0.00    -0.051 A 
ATOM     14  C   UNL     1       3.569   5.627  14.182  1.00  0.00     0.004 A 
ATOM     15  C   UNL     1       5.424   4.928  15.739  1.00  0.00     0.044 C 
ENDBRANCH   1   9
BRANCH   6  16
ATOM     16  C   UNL     1       0.949   4.558   8.136  1.00  0.00     0.153 C 
BRANCH  16  17
ATOM     17  C   UNL     1       1.027   3.885   6.794  1.00  0.00    -0.029 A 
ATOM     18  C   UNL     1       1.521   2.589   6.617  1.00  0.00     0.006 A 
ATOM     19  C   UNL     1       0.379   4.517   5.719  1.00  0.00     0.006 A 
ATOM     20  C   UNL     1       1.345   1.934   5.393  1.00  0.00     0.004 A 
ATOM     21  C   UNL     1       0.201   3.863   4.505  1.00  0.00     0.004 A 
ATOM     22  C   UNL     1       0.673   2.561   4.334  1.00  0.00    -0.051 A 
ATOM     23  C   UNL     1       0.356   1.815   3.072  1.00  0.00     0.044 C 
ENDBRANCH  16  17
ENDBRANCH   6  16
TORSDOF 3
ENDMDL
MODEL 6
REMARK VINA RESULT:    -5.834      3.004      5.136
REMARK INTER + INTRA:          -7.329
REMARK INTER:                  -6.889
REMARK INTRA:                  -0.440
REMARK UNBOUND:                -0.472
REMARK SMILES Cc1ccc(CNC(=O)NC(=O)c2ccc(C)cc2)cc1
REMARK SMILES IDX 11 1 12 2 10 3 8 4 9 5 7 6 13 9 19 10 18 11 14 12 16 13
REMARK SMILES IDX 15 14 17 15 6 16 5 17 4 18 20 19 3 20 21 21 2 22 1 23
REMARK H PARENT 10 7 7 8
ROOT
ATOM      1  C   UNL     1       1.529   8.014   8.675  1.00  0.00     0.259 C 
ATOM      2  O   UNL     1       1.276   7.840   7.492  1.00  0.00    -0.269 OA
ATOM      3  N   UNL     1       1.897   7.071   9.640  1.00  0.00    -0.274 N 
ATOM      4  C   UNL     1       2.332   5.771   9.672  1.00  0.00     0.321 C 
ATOM      5  O   UNL     1       2.695   5.314  10.761  1.00  0.00    -0.248 OA
ATOM      6  N   UNL     1       2.411   4.986   8.581  1.00  0.00    -0.334 N 
ATOM      7  H   UNL     1       2.034   7.453  10.566  1.00  0.00     0.175 HD
ATOM      8  H   UNL     1       2.832   4.085   8.758  1.00  0.00     0.165 HD
ENDROOT
BRANCH   1   9
ATOM      9  C   UNL     1       1.444   9.401   9.172  1.00  0.00     0.040 A 
ATOM     10  C   UNL     1       0.338  10.207   8.896  1.00  0.00     0.014 A 
ATOM     11  C   UNL     1       0.279  11.494   9.431  1.00  0.00     0.004 A 
ATOM     12  C   UNL     1       2.513   9.895   9.926  1.00  0.00     0.014 A 
ATOM     13  C   UNL     1       1.323  11.981  10.232  1.00  0.00    -0.051 A 
ATOM     14  C   UNL     1       2.448  11.179  10.463  1.00  0.00     0.004 A 
ATOM     15  C   UNL     1       1.207  13.334  10.870  1.00  0.00     0.044 C 
ENDBRANCH   1   9
BRANCH   6  16
ATOM     16  C   UNL     1       2.141   5.349   7.219  1.00  0.00     0.153 C 
BRANCH  16  17
ATOM     17  C   UNL     1       1.390   4.356   6.376  1.00  0.00    -0.029 A 
ATOM     18  C   UNL     1       0.576   4.728   5.301  1.00  0.00     0.006 A 
ATOM     19  C   UNL     1       1.697   2.997   6.556  1.00  0.00     0.006 A 
ATOM     20  C   UNL     1       0.101   3.756   4.413  1.00  0.00     0.004 A 
ATOM     21  C   UNL     1       1.228   2.033   5.670  1.00  0.00     0.004 A 
ATOM     22  C   UNL     1       0.434   2.406   4.584  1.00  0.00    -0.051 A 
ATOM     23  C   UNL     1       0.049   1.380   3.560  1.00  0.00     0.044 C 
ENDBRANCH  16  17
ENDBRANCH   6  16
TORSDOF 3
ENDMDL
MODEL 7
REMARK VINA RESULT:    -4.840      1.804      8.141
REMARK INTER + INTRA:          -6.160
REMARK INTER:                  -5.771
REMARK INTRA:                  -0.389
REMARK UNBOUND:                -0.472
REMARK SMILES Cc1ccc(CNC(=O)NC(=O)c2ccc(C)cc2)cc1
REMARK SMILES IDX 11 1 12 2 10 3 8 4 9 5 7 6 13 9 19 10 18 11 14 12 16 13
REMARK SMILES IDX 15 14 17 15 6 16 5 17 4 18 20 19 3 20 21 21 2 22 1 23
REMARK H PARENT 10 7 7 8
ROOT
ATOM      1  C   UNL     1       1.362   4.119   7.128  1.00  0.00     0.259 C 
ATOM      2  O   UNL     1       0.829   3.829   8.189  1.00  0.00    -0.269 OA
ATOM      3  N   UNL     1       2.342   5.084   6.875  1.00  0.00    -0.274 N 
ATOM      4  C   UNL     1       3.216   5.854   7.599  1.00  0.00     0.321 C 
ATOM      5  O   UNL     1       4.050   6.517   6.973  1.00  0.00    -0.248 OA
ATOM      6  N   UNL     1       3.229   5.900   8.944  1.00  0.00    -0.334 N 
ATOM      7  H   UNL     1       2.616   5.156   5.905  1.00  0.00     0.175 HD
ATOM      8  H   UNL     1       3.988   6.448   9.325  1.00  0.00     0.165 HD
ENDROOT
BRANCH   1   9
ATOM      9  C   UNL     1       0.931   3.355   5.942  1.00  0.00     0.040 A 
ATOM     10  C   UNL     1       0.909   3.933   4.671  1.00  0.00     0.014 A 
ATOM     11  C   UNL     1       0.544   3.156   3.572  1.00  0.00     0.004 A 
ATOM     12  C   UNL     1       0.534   2.026   6.125  1.00  0.00     0.014 A 
ATOM     13  C   UNL     1       0.194   1.807   3.738  1.00  0.00    -0.051 A 
ATOM     14  C   UNL     1       0.177   1.251   5.023  1.00  0.00     0.004 A 
ATOM     15  C   UNL     1      -0.114   0.962   2.537  1.00  0.00     0.044 C 
ENDBRANCH   1   9
BRANCH   6  16
ATOM     16  C   UNL     1       2.423   5.138   9.855  1.00  0.00     0.153 C 
BRANCH  16  17
ATOM     17  C   UNL     1       3.002   4.846  11.212  1.00  0.00    -0.029 A 
ATOM     18  C   UNL     1       3.995   3.886  11.428  1.00  0.00     0.006 A 
ATOM     19  C   UNL     1       2.672   5.728  12.254  1.00  0.00     0.006 A 
ATOM     20  C   UNL     1       4.660   3.830  12.657  1.00  0.00     0.004 A 
ATOM     21  C   UNL     1       3.337   5.674  13.475  1.00  0.00     0.004 A 
ATOM     22  C   UNL     1       4.344   4.731  13.684  1.00  0.00    -0.051 A 
ATOM     23  C   UNL     1       5.147   4.771  14.950  1.00  0.00     0.044 C 
ENDBRANCH  16  17
ENDBRANCH   6  16
TORSDOF 3
ENDMDL
MODEL 8
REMARK VINA RESULT:    -4.827      3.809      7.948
REMARK INTER + INTRA:          -6.145
REMARK INTER:                  -5.737
REMARK INTRA:                  -0.408
REMARK UNBOUND:                -0.472
REMARK SMILES Cc1ccc(CNC(=O)NC(=O)c2ccc(C)cc2)cc1
REMARK SMILES IDX 11 1 12 2 10 3 8 4 9 5 7 6 13 9 19 10 18 11 14 12 16 13
REMARK SMILES IDX 15 14 17 15 6 16 5 17 4 18 20 19 3 20 21 21 2 22 1 23
REMARK H PARENT 10 7 7 8
ROOT
ATOM      1  C   UNL     1       1.227   4.676   6.685  1.00  0.00     0.259 C 
ATOM      2  O   UNL     1       2.037   5.564   6.461  1.00  0.00    -0.269 OA
ATOM      3  N   UNL     1       0.555   4.384   7.876  1.00  0.00    -0.274 N 
ATOM      4  C   UNL     1       0.315   4.995   9.080  1.00  0.00     0.321 C 
ATOM      5  O   UNL     1      -0.470   4.442   9.857  1.00  0.00    -0.248 OA
ATOM      6  N   UNL     1       0.864   6.170   9.440  1.00  0.00    -0.334 N 
ATOM      7  H   UNL     1      -0.056   3.580   7.823  1.00  0.00     0.175 HD
ATOM      8  H   UNL     1       0.520   6.527  10.320  1.00  0.00     0.165 HD
ENDROOT
BRANCH   1   9
ATOM      9  C   UNL     1       0.897   3.783   5.557  1.00  0.00     0.040 A 
ATOM     10  C   UNL     1       1.078   4.186   4.232  1.00  0.00     0.014 A 
ATOM     11  C   UNL     1       0.802   3.288   3.201  1.00  0.00     0.004 A 
ATOM     12  C   UNL     1       0.388   2.515   5.851  1.00  0.00     0.014 A 
ATOM     13  C   UNL     1       0.339   1.995   3.487  1.00  0.00    -0.051 A 
ATOM     14  C   UNL     1       0.119   1.619   4.818  1.00  0.00     0.004 A 
ATOM     15  C   UNL     1       0.128   1.013   2.372  1.00  0.00     0.044 C 
ENDBRANCH   1   9
BRANCH   6  16
ATOM     16  C   UNL     1       1.712   7.019   8.652  1.00  0.00     0.153 C 
BRANCH  16  17
ATOM     17  C   UNL     1       1.609   8.502   8.882  1.00  0.00    -0.029 A 
ATOM     18  C   UNL     1       0.535   9.272   8.424  1.00  0.00     0.006 A 
ATOM     19  C   UNL     1       2.527   9.080   9.773  1.00  0.00     0.006 A 
ATOM     20  C   UNL     1       0.376  10.588   8.872  1.00  0.00     0.004 A 
ATOM     21  C   UNL     1       2.365  10.387  10.222  1.00  0.00     0.004 A 
ATOM     22  C   UNL     1       1.282  11.149   9.783  1.00  0.00    -0.051 A 
ATOM     23  C   UNL     1       1.039  12.505  10.377  1.00  0.00     0.044 C 
ENDBRANCH  16  17
ENDBRANCH   6  16
TORSDOF 3
ENDMDL
MODEL 9
REMARK VINA RESULT:    -4.761      1.751      2.058
REMARK INTER + INTRA:          -6.068
REMARK INTER:                  -5.659
REMARK INTRA:                  -0.409
REMARK UNBOUND:                -0.472
REMARK SMILES Cc1ccc(CNC(=O)NC(=O)c2ccc(C)cc2)cc1
REMARK SMILES IDX 11 1 12 2 10 3 8 4 9 5 7 6 13 9 19 10 18 11 14 12 16 13
REMARK SMILES IDX 15 14 17 15 6 16 5 17 4 18 20 19 3 20 21 21 2 22 1 23
REMARK H PARENT 10 7 7 8
ROOT
ATOM      1  C   UNL     1       2.261   4.861   9.931  1.00  0.00     0.259 C 
ATOM      2  O   UNL     1       2.928   4.927   8.908  1.00  0.00    -0.269 OA
ATOM      3  N   UNL     1       0.869   4.838  10.068  1.00  0.00    -0.274 N 
ATOM      4  C   UNL     1      -0.225   4.646   9.265  1.00  0.00     0.321 C 
ATOM      5  O   UNL     1      -1.331   4.566   9.811  1.00  0.00    -0.248 OA
ATOM      6  N   UNL     1      -0.153   4.512   7.928  1.00  0.00    -0.334 N 
ATOM      7  H   UNL     1       0.546   4.802  11.026  1.00  0.00     0.175 HD
ATOM      8  H   UNL     1      -1.037   4.292   7.492  1.00  0.00     0.165 HD
ENDROOT
BRANCH   1   9
ATOM      9  C   UNL     1       3.007   4.790  11.202  1.00  0.00     0.040 A 
ATOM     10  C   UNL     1       4.029   3.859  11.396  1.00  0.00     0.014 A 
ATOM     11  C   UNL     1       4.741   3.865  12.596  1.00  0.00     0.004 A 
ATOM     12  C   UNL     1       2.656   5.683  12.219  1.00  0.00     0.014 A 
ATOM     13  C   UNL     1       4.431   4.791  13.603  1.00  0.00    -0.051 A 
ATOM     14  C   UNL     1       3.374   5.690  13.414  1.00  0.00     0.004 A 
ATOM     15  C   UNL     1       5.261   4.841  14.852  1.00  0.00     0.044 C 
ENDBRANCH   1   9
BRANCH   6  16
ATOM     16  C   UNL     1       1.030   4.471   7.114  1.00  0.00     0.153 C 
BRANCH  16  17
ATOM     17  C   UNL     1       1.013   3.560   5.918  1.00  0.00    -0.029 A 
ATOM     18  C   UNL     1       1.001   2.165   6.022  1.00  0.00     0.006 A 
ATOM     19  C   UNL     1       0.788   4.149   4.664  1.00  0.00     0.006 A 
ATOM     20  C   UNL     1       0.743   1.382   4.891  1.00  0.00     0.004 A 
ATOM     21  C   UNL     1       0.527   3.369   3.542  1.00  0.00     0.004 A 
ATOM     22  C   UNL     1       0.492   1.978   3.648  1.00  0.00    -0.051 A 
ATOM     23  C   UNL     1       0.076   1.154   2.467  1.00  0.00     0.044 C 
ENDBRANCH  16  17
ENDBRANCH   6  16
TORSDOF 3
ENDMDL
