MODEL 1
REMARK VINA RESULT:    -4.187      0.000      0.000
REMARK INTER + INTRA:          -5.688
REMARK INTER:                  -5.534
REMARK INTRA:                  -0.154
REMARK UNBOUND:                -0.154
REMARK SMILES [H]/N=C\C[C@H]1C[C@@H]1O[C@H]1CO[C@H]2C[C@@H](C3CC3)CCN2C1
REMARK SMILES IDX 7 1 6 2 5 3 8 4 9 5 14 6 13 7 18 8 12 9 19 10 20 11 11 12
REMARK SMILES IDX 21 13 10 14 15 15 16 16 17 17 4 18 3 19 2 20 1 21
REMARK H PARENT
ROOT
ATOM      1  C   UNL     1       2.942   4.705  11.333  1.00  0.00     0.122 C 
ATOM      2  C   UNL     1       3.212   3.256  11.622  1.00  0.00     0.039 C 
ATOM      3  C   UNL     1       4.237   4.294  11.979  1.00  0.00     0.026 C 
ENDROOT
BRANCH   1   4
ATOM      4  O   UNL     1       2.999   5.046   9.934  1.00  0.00    -0.371 OA
BRANCH   4   5
ATOM      5  C   UNL     1       1.955   5.914   9.465  1.00  0.00     0.158 C 
ATOM      6  C   UNL     1       0.505   3.191   5.259  1.00  0.00    -0.003 C 
ATOM      7  C   UNL     1       1.717   4.047   5.649  1.00  0.00     0.052 C 
ATOM      8  C   UNL     1      -0.049   2.496   6.510  1.00  0.00     0.019 C 
ATOM      9  C   UNL     1       1.390   5.004   6.804  1.00  0.00     0.189 C 
ATOM     10  C   UNL     1      -0.320   3.497   7.632  1.00  0.00     0.087 C 
ATOM     11  N   UNL     1       0.886   4.258   7.957  1.00  0.00    -0.276 NA
ATOM     12  O   UNL     1       2.597   5.707   7.105  1.00  0.00    -0.360 OA
ATOM     13  C   UNL     1       0.665   5.163   9.091  1.00  0.00     0.121 C 
ATOM     14  C   UNL     1       2.455   6.619   8.199  1.00  0.00     0.195 C 
BRANCH   6  15
ATOM     15  C   UNL     1       0.864   2.173   4.200  1.00  0.00    -0.008 C 
ATOM     16  C   UNL     1      -0.191   1.653   3.252  1.00  0.00     0.004 C 
ATOM     17  C   UNL     1       0.895   2.553   2.740  1.00  0.00     0.004 C 
ENDBRANCH   6  15
ENDBRANCH   4   5
ENDBRANCH   1   4
BRANCH   3  18
ATOM     18  C   UNL     1       4.489   4.598  13.426  1.00  0.00     0.053 C 
BRANCH  18  19
ATOM     19  C   UNL     1       5.704   3.952  14.040  1.00  0.00     0.074 C 
BRANCH  19  20
ATOM     20  N   UNL     1       5.757   3.389  15.201  1.00  0.00    -0.313 NA
ATOM     21  H   UNL     1       6.300   2.514  15.174  1.00  0.00     0.186 HD
ENDBRANCH  19  20
ENDBRANCH  18  19
ENDBRANCH   3  18
TORSDOF 6
ENDMDL
MODEL 2
REMARK VINA RESULT:    -4.182      1.687      1.854
REMARK INTER + INTRA:          -5.680
REMARK INTER:                  -5.851
REMARK INTRA:                   0.170
REMARK UNBOUND:                -0.154
REMARK SMILES [H]/N=C\C[C@H]1C[C@@H]1O[C@H]1CO[C@H]2C[C@@H](C3CC3)CCN2C1
REMARK SMILES IDX 7 1 6 2 5 3 8 4 9 5 14 6 13 7 18 8 12 9 19 10 20 11 11 12
REMARK SMILES IDX 21 13 10 14 15 15 16 16 17 17 4 18 3 19 2 20 1 21
REMARK H PARENT
ROOT
ATOM      1  C   UNL     1       2.697   4.399  11.683  1.00  0.00     0.122 C 
ATOM      2  C   UNL     1       4.072   4.043  12.174  1.00  0.00     0.039 C 
ATOM      3  C   UNL     1       3.452   5.353  12.568  1.00  0.00     0.026 C 
ENDROOT
BRANCH   1   4
ATOM      4  O   UNL     1       2.641   4.727  10.282  1.00  0.00    -0.371 OA
BRANCH   4   5
ATOM      5  C   UNL     1       1.587   5.625   9.898  1.00  0.00     0.158 C 
ATOM      6  C   UNL     1       0.874   3.952   5.009  1.00  0.00    -0.003 C 
ATOM      7  C   UNL     1       1.954   4.750   5.750  1.00  0.00     0.052 C 
ATOM      8  C   UNL     1       0.241   2.938   5.973  1.00  0.00     0.019 C 
ATOM      9  C   UNL     1       1.414   5.372   7.046  1.00  0.00     0.189 C 
ATOM     10  C   UNL     1      -0.244   3.615   7.255  1.00  0.00     0.087 C 
ATOM     11  N   UNL     1       0.846   4.338   7.910  1.00  0.00    -0.276 NA
ATOM     12  O   UNL     1       2.513   6.044   7.664  1.00  0.00    -0.360 OA
ATOM     13  C   UNL     1       0.418   4.920   9.187  1.00  0.00     0.121 C 
ATOM     14  C   UNL     1       2.167   6.648   8.915  1.00  0.00     0.195 C 
BRANCH   6  15
ATOM     15  C   UNL     1       1.439   3.248   3.796  1.00  0.00    -0.008 C 
ATOM     16  C   UNL     1       0.634   3.158   2.521  1.00  0.00     0.004 C 
ATOM     17  C   UNL     1       1.856   4.029   2.573  1.00  0.00     0.004 C 
ENDBRANCH   6  15
ENDBRANCH   4   5
ENDBRANCH   1   4
BRANCH   3  18
ATOM     18  C   UNL     1       3.030   5.558  13.992  1.00  0.00     0.053 C 
BRANCH  18  19
ATOM     19  C   UNL     1       3.126   6.965  14.520  1.00  0.00     0.074 C 
BRANCH  19  20
ATOM     20  N   UNL     1       2.157   7.816  14.590  1.00  0.00    -0.313 NA
ATOM     21  H   UNL     1       1.239   7.351  14.544  1.00  0.00     0.186 HD
ENDBRANCH  19  20
ENDBRANCH  18  19
ENDBRANCH   3  18
TORSDOF 6
ENDMDL
MODEL 3
REMARK VINA RESULT:    -4.161      3.146      5.194
REMARK INTER + INTRA:          -5.653
REMARK INTER:                  -5.388
REMARK INTRA:                  -0.264
REMARK UNBOUND:                -0.154
REMARK SMILES [H]/N=C\C[C@H]1C[C@@H]1O[C@H]1CO[C@H]2C[C@@H](C3CC3)CCN2C1
REMARK SMILES IDX 7 1 6 2 5 3 8 4 9 5 14 6 13 7 18 8 12 9 19 10 20 11 11 12
REMARK SMILES IDX 21 13 10 14 15 15 16 16 17 17 4 18 3 19 2 20 1 21
REMARK H PARENT
ROOT
ATOM      1  C   UNL     1       1.538   8.868   8.795  1.00  0.00     0.122 C 
ATOM      2  C   UNL     1       1.064   9.547   7.541  1.00  0.00     0.039 C 
ATOM      3  C   UNL     1       0.371   9.816   8.846  1.00  0.00     0.026 C 
ENDROOT
BRANCH   1   4
ATOM      4  O   UNL     1       1.229   7.462   8.855  1.00  0.00    -0.371 OA
BRANCH   4   5
ATOM      5  C   UNL     1       2.350   6.591   9.076  1.00  0.00     0.158 C 
ATOM      6  C   UNL     1       0.926   2.674   5.940  1.00  0.00    -0.003 C 
ATOM      7  C   UNL     1       0.458   3.223   7.293  1.00  0.00     0.052 C 
ATOM      8  C   UNL     1       1.449   3.830   5.076  1.00  0.00     0.019 C 
ATOM      9  C   UNL     1       1.544   4.069   7.971  1.00  0.00     0.189 C 
ATOM     10  C   UNL     1       2.501   4.652   5.821  1.00  0.00     0.087 C 
ATOM     11  N   UNL     1       1.971   5.155   7.088  1.00  0.00    -0.276 NA
ATOM     12  O   UNL     1       0.979   4.559   9.189  1.00  0.00    -0.360 OA
ATOM     13  C   UNL     1       2.939   6.018   7.774  1.00  0.00     0.121 C 
ATOM     14  C   UNL     1       1.872   5.405   9.920  1.00  0.00     0.195 C 
BRANCH   6  15
ATOM     15  C   UNL     1      -0.184   1.937   5.226  1.00  0.00    -0.008 C 
ATOM     16  C   UNL     1       0.092   0.624   4.532  1.00  0.00     0.004 C 
ATOM     17  C   UNL     1      -0.740   0.648   5.781  1.00  0.00     0.004 C 
ENDBRANCH   6  15
ENDBRANCH   4   5
ENDBRANCH   1   4
BRANCH   3  18
ATOM     18  C   UNL     1       0.520  11.165   9.483  1.00  0.00     0.053 C 
BRANCH  18  19
ATOM     19  C   UNL     1      -0.696  11.708  10.186  1.00  0.00     0.074 C 
BRANCH  19  20
ATOM     20  N   UNL     1      -1.211  11.244  11.276  1.00  0.00    -0.313 NA
ATOM     21  H   UNL     1      -1.357  10.226  11.224  1.00  0.00     0.186 HD
ENDBRANCH  19  20
ENDBRANCH  18  19
ENDBRANCH   3  18
TORSDOF 6
ENDMDL
MODEL 4
REMARK VINA RESULT:    -3.960      2.926      8.628
REMARK INTER + INTRA:          -5.386
REMARK INTER:                  -5.218
REMARK INTRA:                  -0.168
REMARK UNBOUND:                -0.154
REMARK SMILES [H]/N=C\C[C@H]1C[C@@H]1O[C@H]1CO[C@H]2C[C@@H](C3CC3)CCN2C1
REMARK SMILES IDX 7 1 6 2 5 3 8 4 9 5 14 6 13 7 18 8 12 9 19 10 20 11 11 12
REMARK SMILES IDX 21 13 10 14 15 15 16 16 17 17 4 18 3 19 2 20 1 21
REMARK H PARENT
ROOT
ATOM      1  C   UNL     1       2.286   5.547   9.163  1.00  0.00     0.122 C 
ATOM      2  C   UNL     1       2.175   6.860   8.442  1.00  0.00     0.039 C 
ATOM      3  C   UNL     1       3.108   5.801   7.929  1.00  0.00     0.026 C 
ENDROOT
BRANCH   1   4
ATOM      4  O   UNL     1       2.977   5.626  10.425  1.00  0.00    -0.371 OA
BRANCH   4   5
ATOM      5  C   UNL     1       2.532   4.705  11.433  1.00  0.00     0.158 C 
ATOM      6  C   UNL     1       6.698   4.904  14.566  1.00  0.00    -0.003 C 
ATOM      7  C   UNL     1       6.388   4.308  13.187  1.00  0.00     0.052 C 
ATOM      8  C   UNL     1       5.873   6.183  14.763  1.00  0.00     0.019 C 
ATOM      9  C   UNL     1       4.880   4.119  12.974  1.00  0.00     0.189 C 
ATOM     10  C   UNL     1       4.387   5.935  14.503  1.00  0.00     0.087 C 
ATOM     11  N   UNL     1       4.175   5.386  13.164  1.00  0.00    -0.276 NA
ATOM     12  O   UNL     1       4.716   3.607  11.650  1.00  0.00    -0.360 OA
ATOM     13  C   UNL     1       2.747   5.224  12.866  1.00  0.00     0.121 C 
ATOM     14  C   UNL     1       3.345   3.413  11.290  1.00  0.00     0.195 C 
BRANCH   6  15
ATOM     15  C   UNL     1       8.173   5.194  14.726  1.00  0.00    -0.008 C 
ATOM     16  C   UNL     1       8.821   5.128  16.089  1.00  0.00     0.004 C 
ATOM     17  C   UNL     1       9.148   4.089  15.056  1.00  0.00     0.004 C 
ENDBRANCH   6  15
ENDBRANCH   4   5
ENDBRANCH   1   4
BRANCH   3  18
ATOM     18  C   UNL     1       2.777   5.102   6.644  1.00  0.00     0.053 C 
BRANCH  18  19
ATOM     19  C   UNL     1       3.907   4.950   5.659  1.00  0.00     0.074 C 
BRANCH  19  20
ATOM     20  N   UNL     1       4.981   5.666   5.622  1.00  0.00    -0.313 NA
ATOM     21  H   UNL     1       4.855   6.564   6.109  1.00  0.00     0.186 HD
ENDBRANCH  19  20
ENDBRANCH  18  19
ENDBRANCH   3  18
TORSDOF 6
ENDMDL
MODEL 5
REMARK VINA RESULT:    -3.852      4.484      7.383
REMARK INTER + INTRA:          -5.244
REMARK INTER:                  -5.116
REMARK INTRA:                  -0.128
REMARK UNBOUND:                -0.154
REMARK SMILES [H]/N=C\C[C@H]1C[C@@H]1O[C@H]1CO[C@H]2C[C@@H](C3CC3)CCN2C1
REMARK SMILES IDX 7 1 6 2 5 3 8 4 9 5 14 6 13 7 18 8 12 9 19 10 20 11 11 12
REMARK SMILES IDX 21 13 10 14 15 15 16 16 17 17 4 18 3 19 2 20 1 21
REMARK H PARENT
ROOT
ATOM      1  C   UNL     1       6.669   8.402  16.174  1.00  0.00     0.122 C 
ATOM      2  C   UNL     1       8.103   7.958  16.249  1.00  0.00     0.039 C 
ATOM      3  C   UNL     1       7.756   9.263  15.591  1.00  0.00     0.026 C 
ENDROOT
BRANCH   1   4
ATOM      4  O   UNL     1       5.870   7.651  15.240  1.00  0.00    -0.371 OA
BRANCH   4   5
ATOM      5  C   UNL     1       4.955   6.710  15.824  1.00  0.00     0.158 C 
ATOM      6  C   UNL     1       2.955   4.733  11.431  1.00  0.00    -0.003 C 
ATOM      7  C   UNL     1       2.842   6.062  12.188  1.00  0.00     0.052 C 
ATOM      8  C   UNL     1       4.359   4.148  11.639  1.00  0.00     0.019 C 
ATOM      9  C   UNL     1       3.246   5.914  13.662  1.00  0.00     0.189 C 
ATOM     10  C   UNL     1       4.713   4.059  13.123  1.00  0.00     0.087 C 
ATOM     11  N   UNL     1       4.599   5.368  13.767  1.00  0.00    -0.276 NA
ATOM     12  O   UNL     1       3.146   7.214  14.245  1.00  0.00    -0.360 OA
ATOM     13  C   UNL     1       5.019   5.317  15.172  1.00  0.00     0.121 C 
ATOM     14  C   UNL     1       3.532   7.241  15.623  1.00  0.00     0.195 C 
BRANCH   6  15
ATOM     15  C   UNL     1       2.666   4.909   9.957  1.00  0.00    -0.008 C 
ATOM     16  C   UNL     1       1.241   4.973   9.460  1.00  0.00     0.004 C 
ATOM     17  C   UNL     1       2.100   6.204   9.429  1.00  0.00     0.004 C 
ENDBRANCH   6  15
ENDBRANCH   4   5
ENDBRANCH   1   4
BRANCH   3  18
ATOM     18  C   UNL     1       8.149  10.543  16.265  1.00  0.00     0.053 C 
BRANCH  18  19
ATOM     19  C   UNL     1       9.533  11.056  15.965  1.00  0.00     0.074 C 
BRANCH  19  20
ATOM     20  N   UNL     1       9.968  11.432  14.808  1.00  0.00    -0.313 NA
ATOM     21  H   UNL     1       9.577  12.344  14.534  1.00  0.00     0.186 HD
ENDBRANCH  19  20
ENDBRANCH  18  19
ENDBRANCH   3  18
TORSDOF 6
ENDMDL
MODEL 6
REMARK VINA RESULT:    -3.794      5.733      7.314
REMARK INTER + INTRA:          -5.168
REMARK INTER:                  -4.760
REMARK INTRA:                  -0.408
REMARK UNBOUND:                -0.154
REMARK SMILES [H]/N=C\C[C@H]1C[C@@H]1O[C@H]1CO[C@H]2C[C@@H](C3CC3)CCN2C1
REMARK SMILES IDX 7 1 6 2 5 3 8 4 9 5 14 6 13 7 18 8 12 9 19 10 20 11 11 12
REMARK SMILES IDX 21 13 10 14 15 15 16 16 17 17 4 18 3 19 2 20 1 21
REMARK H PARENT
ROOT
ATOM      1  C   UNL     1       2.469  12.161  14.484  1.00  0.00     0.122 C 
ATOM      2  C   UNL     1       1.678  11.915  15.737  1.00  0.00     0.039 C 
ATOM      3  C   UNL     1       2.516  10.814  15.152  1.00  0.00     0.026 C 
ENDROOT
BRANCH   1   4
ATOM      4  O   UNL     1       1.666  12.263  13.292  1.00  0.00    -0.371 OA
BRANCH   4   5
ATOM      5  C   UNL     1       2.328  12.817  12.144  1.00  0.00     0.158 C 
ATOM      6  C   UNL     1       1.647   8.831   8.849  1.00  0.00    -0.003 C 
ATOM      7  C   UNL     1       2.510   9.096  10.089  1.00  0.00     0.052 C 
ATOM      8  C   UNL     1       0.320   9.590   8.984  1.00  0.00     0.019 C 
ATOM      9  C   UNL     1       2.673  10.598  10.359  1.00  0.00     0.189 C 
ATOM     10  C   UNL     1       0.551  11.070   9.286  1.00  0.00     0.087 C 
ATOM     11  N   UNL     1       1.364  11.238  10.490  1.00  0.00    -0.276 NA
ATOM     12  O   UNL     1       3.450  10.717  11.552  1.00  0.00    -0.360 OA
ATOM     13  C   UNL     1       1.523  12.653  10.842  1.00  0.00     0.121 C 
ATOM     14  C   UNL     1       3.655  12.074  11.955  1.00  0.00     0.195 C 
BRANCH   6  15
ATOM     15  C   UNL     1       1.396   7.353   8.654  1.00  0.00    -0.008 C 
ATOM     16  C   UNL     1       2.436   6.482   7.989  1.00  0.00     0.004 C 
ATOM     17  C   UNL     1       2.158   6.326   9.456  1.00  0.00     0.004 C 
ENDBRANCH   6  15
ENDBRANCH   4   5
ENDBRANCH   1   4
BRANCH   3  18
ATOM     18  C   UNL     1       3.750  10.375  15.881  1.00  0.00     0.053 C 
BRANCH  18  19
ATOM     19  C   UNL     1       4.702   9.497  15.110  1.00  0.00     0.074 C 
BRANCH  19  20
ATOM     20  N   UNL     1       4.830   9.464  13.826  1.00  0.00    -0.313 NA
ATOM     21  H   UNL     1       4.427  10.302  13.382  1.00  0.00     0.186 HD
ENDBRANCH  19  20
ENDBRANCH  18  19
ENDBRANCH   3  18
TORSDOF 6
ENDMDL
MODEL 7
REMARK VINA RESULT:    -3.776      4.192      7.176
REMARK INTER + INTRA:          -5.144
REMARK INTER:                  -4.683
REMARK INTRA:                  -0.461
REMARK UNBOUND:                -0.154
REMARK SMILES [H]/N=C\C[C@H]1C[C@@H]1O[C@H]1CO[C@H]2C[C@@H](C3CC3)CCN2C1
REMARK SMILES IDX 7 1 6 2 5 3 8 4 9 5 14 6 13 7 18 8 12 9 19 10 20 11 11 12
REMARK SMILES IDX 21 13 10 14 15 15 16 16 17 17 4 18 3 19 2 20 1 21
REMARK H PARENT
ROOT
ATOM      1  C   UNL     1       5.485   8.675  15.999  1.00  0.00     0.122 C 
ATOM      2  C   UNL     1       6.576   9.674  15.736  1.00  0.00     0.039 C 
ATOM      3  C   UNL     1       5.299   9.735  14.949  1.00  0.00     0.026 C 
ENDROOT
BRANCH   1   4
ATOM      4  O   UNL     1       5.780   7.346  15.528  1.00  0.00    -0.371 OA
BRANCH   4   5
ATOM      5  C   UNL     1       4.904   6.311  16.003  1.00  0.00     0.158 C 
ATOM      6  C   UNL     1       3.013   4.716  11.411  1.00  0.00    -0.003 C 
ATOM      7  C   UNL     1       2.839   5.953  12.301  1.00  0.00     0.052 C 
ATOM      8  C   UNL     1       4.440   4.173  11.571  1.00  0.00     0.019 C 
ATOM      9  C   UNL     1       3.242   5.671  13.755  1.00  0.00     0.189 C 
ATOM     10  C   UNL     1       4.790   3.946  13.041  1.00  0.00     0.087 C 
ATOM     11  N   UNL     1       4.617   5.175  13.816  1.00  0.00    -0.276 NA
ATOM     12  O   UNL     1       3.082   6.899  14.468  1.00  0.00    -0.360 OA
ATOM     13  C   UNL     1       5.032   4.997  15.212  1.00  0.00     0.121 C 
ATOM     14  C   UNL     1       3.460   6.799  15.845  1.00  0.00     0.195 C 
BRANCH   6  15
ATOM     15  C   UNL     1       2.724   5.030   9.961  1.00  0.00    -0.008 C 
ATOM     16  C   UNL     1       1.304   5.023   9.446  1.00  0.00     0.004 C 
ATOM     17  C   UNL     1       2.047   6.322   9.569  1.00  0.00     0.004 C 
ENDBRANCH   6  15
ENDBRANCH   4   5
ENDBRANCH   1   4
BRANCH   3  18
ATOM     18  C   UNL     1       4.353  10.875  15.185  1.00  0.00     0.053 C 
BRANCH  18  19
ATOM     19  C   UNL     1       3.012  10.779  14.506  1.00  0.00     0.074 C 
BRANCH  19  20
ATOM     20  N   UNL     1       2.316   9.702  14.351  1.00  0.00    -0.313 NA
ATOM     21  H   UNL     1       2.887   8.933  13.973  1.00  0.00     0.186 HD
ENDBRANCH  19  20
ENDBRANCH  18  19
ENDBRANCH   3  18
TORSDOF 6
ENDMDL
MODEL 8
REMARK VINA RESULT:    -3.688      5.308      8.624
REMARK INTER + INTRA:          -5.027
REMARK INTER:                  -5.140
REMARK INTRA:                   0.113
REMARK UNBOUND:                -0.154
REMARK SMILES [H]/N=C\C[C@H]1C[C@@H]1O[C@H]1CO[C@H]2C[C@@H](C3CC3)CCN2C1
REMARK SMILES IDX 7 1 6 2 5 3 8 4 9 5 14 6 13 7 18 8 12 9 19 10 20 11 11 12
REMARK SMILES IDX 21 13 10 14 15 15 16 16 17 17 4 18 3 19 2 20 1 21
REMARK H PARENT
ROOT
ATOM      1  C   UNL     1       1.923   6.337   8.917  1.00  0.00     0.122 C 
ATOM      2  C   UNL     1       1.939   5.209   9.909  1.00  0.00     0.039 C 
ATOM      3  C   UNL     1       0.763   5.382   8.991  1.00  0.00     0.026 C 
ENDROOT
BRANCH   1   4
ATOM      4  O   UNL     1       1.728   7.636   9.508  1.00  0.00    -0.371 OA
BRANCH   4   5
ATOM      5  C   UNL     1       2.149   8.752   8.706  1.00  0.00     0.158 C 
ATOM      6  C   UNL     1      -0.662  12.486  11.020  1.00  0.00    -0.003 C 
ATOM      7  C   UNL     1      -0.961  11.301  10.093  1.00  0.00     0.052 C 
ATOM      8  C   UNL     1       0.528  12.136  11.923  1.00  0.00     0.019 C 
ATOM      9  C   UNL     1       0.290  10.845   9.330  1.00  0.00     0.189 C 
ATOM     10  C   UNL     1       1.728  11.657  11.106  1.00  0.00     0.087 C 
ATOM     11  N   UNL     1       1.366  10.516  10.265  1.00  0.00    -0.276 NA
ATOM     12  O   UNL     1      -0.100   9.717   8.544  1.00  0.00    -0.360 OA
ATOM     13  C   UNL     1       2.527   9.989   9.540  1.00  0.00     0.121 C 
ATOM     14  C   UNL     1       0.983   9.153   7.798  1.00  0.00     0.195 C 
BRANCH   6  15
ATOM     15  C   UNL     1      -1.869  12.858  11.852  1.00  0.00    -0.008 C 
ATOM     16  C   UNL     1      -1.833  14.073  12.748  1.00  0.00     0.004 C 
ATOM     17  C   UNL     1      -2.693  14.078  11.518  1.00  0.00     0.004 C 
ENDBRANCH   6  15
ENDBRANCH   4   5
ENDBRANCH   1   4
BRANCH   3  18
ATOM     18  C   UNL     1       0.539   4.379   7.900  1.00  0.00     0.053 C 
BRANCH  18  19
ATOM     19  C   UNL     1      -0.851   3.808   7.795  1.00  0.00     0.074 C 
BRANCH  19  20
ATOM     20  N   UNL     1      -1.748   3.824   8.723  1.00  0.00    -0.313 NA
ATOM     21  H   UNL     1      -2.619   3.368   8.418  1.00  0.00     0.186 HD
ENDBRANCH  19  20
ENDBRANCH  18  19
ENDBRANCH   3  18
TORSDOF 6
ENDMDL
MODEL 9
REMARK VINA RESULT:    -3.670      5.141      8.309
REMARK INTER + INTRA:          -5.004
REMARK INTER:                  -4.427
REMARK INTRA:                  -0.577
REMARK UNBOUND:                -0.154
REMARK SMILES [H]/N=C\C[C@H]1C[C@@H]1O[C@H]1CO[C@H]2C[C@@H](C3CC3)CCN2C1
REMARK SMILES IDX 7 1 6 2 5 3 8 4 9 5 14 6 13 7 18 8 12 9 19 10 20 11 11 12
REMARK SMILES IDX 21 13 10 14 15 15 16 16 17 17 4 18 3 19 2 20 1 21
REMARK H PARENT
ROOT
ATOM      1  C   UNL     1       4.445  10.388  15.553  1.00  0.00     0.122 C 
ATOM      2  C   UNL     1       5.225  11.671  15.487  1.00  0.00     0.039 C 
ATOM      3  C   UNL     1       4.912  10.919  14.225  1.00  0.00     0.026 C 
ENDROOT
BRANCH   1   4
ATOM      4  O   UNL     1       5.183   9.279  16.100  1.00  0.00    -0.371 OA
BRANCH   4   5
ATOM      5  C   UNL     1       4.410   8.332  16.855  1.00  0.00     0.158 C 
ATOM      6  C   UNL     1       3.992   4.600  13.236  1.00  0.00    -0.003 C 
ATOM      7  C   UNL     1       3.397   5.997  13.446  1.00  0.00     0.052 C 
ATOM      8  C   UNL     1       5.409   4.558  13.823  1.00  0.00     0.019 C 
ATOM      9  C   UNL     1       3.478   6.437  14.914  1.00  0.00     0.189 C 
ATOM     10  C   UNL     1       5.426   5.039  15.274  1.00  0.00     0.087 C 
ATOM     11  N   UNL     1       4.861   6.383  15.387  1.00  0.00    -0.276 NA
ATOM     12  O   UNL     1       2.941   7.759  14.975  1.00  0.00    -0.360 OA
ATOM     13  C   UNL     1       4.950   6.894  16.759  1.00  0.00     0.121 C 
ATOM     14  C   UNL     1       2.986   8.322  16.290  1.00  0.00     0.195 C 
BRANCH   6  15
ATOM     15  C   UNL     1       4.013   4.220  11.772  1.00  0.00    -0.008 C 
ATOM     16  C   UNL     1       3.075   3.160  11.245  1.00  0.00     0.004 C 
ATOM     17  C   UNL     1       2.871   4.596  10.859  1.00  0.00     0.004 C 
ENDBRANCH   6  15
ENDBRANCH   4   5
ENDBRANCH   1   4
BRANCH   3  18
ATOM     18  C   UNL     1       3.929  11.503  13.256  1.00  0.00     0.053 C 
BRANCH  18  19
ATOM     19  C   UNL     1       3.415  10.575  12.187  1.00  0.00     0.074 C 
BRANCH  19  20
ATOM     20  N   UNL     1       3.162   9.317  12.334  1.00  0.00    -0.313 NA
ATOM     21  H   UNL     1       2.357   9.022  11.762  1.00  0.00     0.186 HD
ENDBRANCH  19  20
ENDBRANCH  18  19
ENDBRANCH   3  18
TORSDOF 6
ENDMDL
