MODEL 1
REMARK VINA RESULT:    -6.155      0.000      0.000
REMARK INTER + INTRA:          -7.615
REMARK INTER:                  -7.234
REMARK INTRA:                  -0.381
REMARK UNBOUND:                -0.381
REMARK SMILES Cc1ccc(CNC(=O)NC(=O)c2ccc(C)cc2)cc1
REMARK SMILES IDX 11 1 12 2 10 3 8 4 9 5 7 6 13 9 19 10 18 11 14 12 16 13
REMARK SMILES IDX 15 14 17 15 6 16 5 17 4 18 20 19 3 20 21 21 2 22 1 23
REMARK H PARENT 10 7 7 8
ROOT
ATOM      1  C   UNL     1       8.416  -3.596   5.379  1.00  0.00     0.259 C 
ATOM      2  O   UNL     1       7.857  -3.169   6.379  1.00  0.00    -0.269 OA
ATOM      3  N   UNL     1       9.712  -4.106   5.251  1.00  0.00    -0.274 N 
ATOM      4  C   UNL     1      10.715  -4.543   6.078  1.00  0.00     0.321 C 
ATOM      5  O   UNL     1      11.704  -5.065   5.553  1.00  0.00    -0.248 OA
ATOM      6  N   UNL     1      10.662  -4.459   7.421  1.00  0.00    -0.334 N 
ATOM      7  H   UNL     1       9.962  -4.380   4.310  1.00  0.00     0.175 HD
ATOM      8  H   UNL     1      11.441  -4.903   7.887  1.00  0.00     0.165 HD
ENDROOT
BRANCH   1   9
ATOM      9  C   UNL     1       7.633  -3.585   4.128  1.00  0.00     0.040 A 
ATOM     10  C   UNL     1       7.735  -2.534   3.215  1.00  0.00     0.014 A 
ATOM     11  C   UNL     1       7.015  -2.593   2.021  1.00  0.00     0.004 A 
ATOM     12  C   UNL     1       6.774  -4.660   3.882  1.00  0.00     0.014 A 
ATOM     13  C   UNL     1       6.189  -3.692   1.741  1.00  0.00    -0.051 A 
ATOM     14  C   UNL     1       6.061  -4.718   2.686  1.00  0.00     0.004 A 
ATOM     15  C   UNL     1       5.488  -3.782   0.418  1.00  0.00     0.044 C 
ENDBRANCH   1   9
BRANCH   6  16
ATOM     16  C   UNL     1       9.572  -3.987   8.227  1.00  0.00     0.153 C 
BRANCH  16  17
ATOM     17  C   UNL     1       9.503  -4.475   9.647  1.00  0.00    -0.029 A 
ATOM     18  C   UNL     1       8.374  -5.105  10.183  1.00  0.00     0.006 A 
ATOM     19  C   UNL     1      10.698  -4.481  10.384  1.00  0.00     0.006 A 
ATOM     20  C   UNL     1       8.455  -5.747  11.423  1.00  0.00     0.004 A 
ATOM     21  C   UNL     1      10.777  -5.125  11.615  1.00  0.00     0.004 A 
ATOM     22  C   UNL     1       9.658  -5.773  12.141  1.00  0.00    -0.051 A 
ATOM     23  C   UNL     1       9.790  -6.578  13.399  1.00  0.00     0.044 C 
ENDBRANCH  16  17
ENDBRANCH   6  16
TORSDOF 3
ENDMDL
MODEL 2
REMARK VINA RESULT:    -6.143      3.233      5.559
REMARK INTER + INTRA:          -7.601
REMARK INTER:                  -7.223
REMARK INTRA:                  -0.379
REMARK UNBOUND:                -0.381
REMARK SMILES Cc1ccc(CNC(=O)NC(=O)c2ccc(C)cc2)cc1
REMARK SMILES IDX 11 1 12 2 10 3 8 4 9 5 7 6 13 9 19 10 18 11 14 12 16 13
REMARK SMILES IDX 15 14 17 15 6 16 5 17 4 18 20 19 3 20 21 21 2 22 1 23
REMARK H PARENT 10 7 7 8
ROOT
ATOM      1  C   UNL     1       8.653  -3.539   5.105  1.00  0.00     0.259 C 
ATOM      2  O   UNL     1       9.226  -3.974   4.117  1.00  0.00    -0.269 OA
ATOM      3  N   UNL     1       8.941  -3.765   6.455  1.00  0.00    -0.274 N 
ATOM      4  C   UNL     1       9.975  -4.274   7.199  1.00  0.00     0.321 C 
ATOM      5  O   UNL     1       9.899  -4.174   8.428  1.00  0.00    -0.248 OA
ATOM      6  N   UNL     1      11.069  -4.843   6.660  1.00  0.00    -0.334 N 
ATOM      7  H   UNL     1       8.307  -3.310   7.098  1.00  0.00     0.175 HD
ATOM      8  H   UNL     1      11.775  -5.089   7.339  1.00  0.00     0.165 HD
ENDROOT
BRANCH   1   9
ATOM      9  C   UNL     1       7.500  -2.650   4.862  1.00  0.00     0.040 A 
ATOM     10  C   UNL     1       6.193  -3.140   4.847  1.00  0.00     0.014 A 
ATOM     11  C   UNL     1       5.132  -2.252   4.666  1.00  0.00     0.004 A 
ATOM     12  C   UNL     1       7.754  -1.293   4.638  1.00  0.00     0.014 A 
ATOM     13  C   UNL     1       5.373  -0.881   4.492  1.00  0.00    -0.051 A 
ATOM     14  C   UNL     1       6.691  -0.409   4.464  1.00  0.00     0.004 A 
ATOM     15  C   UNL     1       4.218   0.072   4.383  1.00  0.00     0.044 C 
ENDBRANCH   1   9
BRANCH   6  16
ATOM     16  C   UNL     1      11.399  -4.964   5.268  1.00  0.00     0.153 C 
BRANCH  16  17
ATOM     17  C   UNL     1      12.850  -5.136   4.916  1.00  0.00    -0.029 A 
ATOM     18  C   UNL     1      13.530  -4.283   4.040  1.00  0.00     0.006 A 
ATOM     19  C   UNL     1      13.589  -6.065   5.666  1.00  0.00     0.006 A 
ATOM     20  C   UNL     1      14.923  -4.347   3.940  1.00  0.00     0.004 A 
ATOM     21  C   UNL     1      14.975  -6.125   5.570  1.00  0.00     0.004 A 
ATOM     22  C   UNL     1      15.656  -5.259   4.713  1.00  0.00    -0.051 A 
ATOM     23  C   UNL     1      17.155  -5.236   4.718  1.00  0.00     0.044 C 
ENDBRANCH  16  17
ENDBRANCH   6  16
TORSDOF 3
ENDMDL
MODEL 3
REMARK VINA RESULT:    -5.784      0.585      8.009
REMARK INTER + INTRA:          -7.179
REMARK INTER:                  -6.688
REMARK INTRA:                  -0.491
REMARK UNBOUND:                -0.381
REMARK SMILES Cc1ccc(CNC(=O)NC(=O)c2ccc(C)cc2)cc1
REMARK SMILES IDX 11 1 12 2 10 3 8 4 9 5 7 6 13 9 19 10 18 11 14 12 16 13
REMARK SMILES IDX 15 14 17 15 6 16 5 17 4 18 20 19 3 20 21 21 2 22 1 23
REMARK H PARENT 10 7 7 8
ROOT
ATOM      1  C   UNL     1       9.220  -4.319   8.161  1.00  0.00     0.259 C 
ATOM      2  O   UNL     1       8.178  -3.750   7.871  1.00  0.00    -0.269 OA
ATOM      3  N   UNL     1      10.293  -4.658   7.330  1.00  0.00    -0.274 N 
ATOM      4  C   UNL     1      10.739  -4.345   6.072  1.00  0.00     0.321 C 
ATOM      5  O   UNL     1      11.850  -4.768   5.735  1.00  0.00    -0.248 OA
ATOM      6  N   UNL     1      10.047  -3.581   5.206  1.00  0.00    -0.334 N 
ATOM      7  H   UNL     1      11.043  -5.150   7.798  1.00  0.00     0.175 HD
ATOM      8  H   UNL     1      10.550  -3.372   4.356  1.00  0.00     0.165 HD
ENDROOT
BRANCH   1   9
ATOM      9  C   UNL     1       9.391  -4.705   9.575  1.00  0.00     0.040 A 
ATOM     10  C   UNL     1       8.338  -5.248  10.314  1.00  0.00     0.014 A 
ATOM     11  C   UNL     1       8.561  -5.646  11.632  1.00  0.00     0.004 A 
ATOM     12  C   UNL     1      10.643  -4.504  10.164  1.00  0.00     0.014 A 
ATOM     13  C   UNL     1       9.828  -5.497  12.216  1.00  0.00    -0.051 A 
ATOM     14  C   UNL     1      10.863  -4.909  11.479  1.00  0.00     0.004 A 
ATOM     15  C   UNL     1      10.074  -6.007  13.605  1.00  0.00     0.044 C 
ENDBRANCH   1   9
BRANCH   6  16
ATOM     16  C   UNL     1       8.798  -2.910   5.434  1.00  0.00     0.153 C 
BRANCH  16  17
ATOM     17  C   UNL     1       7.762  -2.994   4.348  1.00  0.00    -0.029 A 
ATOM     18  C   UNL     1       7.571  -1.987   3.396  1.00  0.00     0.006 A 
ATOM     19  C   UNL     1       7.115  -4.228   4.170  1.00  0.00     0.006 A 
ATOM     20  C   UNL     1       6.766  -2.226   2.276  1.00  0.00     0.004 A 
ATOM     21  C   UNL     1       6.319  -4.466   3.054  1.00  0.00     0.004 A 
ATOM     22  C   UNL     1       6.146  -3.470   2.092  1.00  0.00    -0.051 A 
ATOM     23  C   UNL     1       5.401  -3.781   0.828  1.00  0.00     0.044 C 
ENDBRANCH  16  17
ENDBRANCH   6  16
TORSDOF 3
ENDMDL
MODEL 4
REMARK VINA RESULT:    -5.778      3.131      7.312
REMARK INTER + INTRA:          -7.172
REMARK INTER:                  -6.686
REMARK INTRA:                  -0.486
REMARK UNBOUND:                -0.381
REMARK SMILES Cc1ccc(CNC(=O)NC(=O)c2ccc(C)cc2)cc1
REMARK SMILES IDX 11 1 12 2 10 3 8 4 9 5 7 6 13 9 19 10 18 11 14 12 16 13
REMARK SMILES IDX 15 14 17 15 6 16 5 17 4 18 20 19 3 20 21 21 2 22 1 23
REMARK H PARENT 10 7 7 8
ROOT
ATOM      1  C   UNL     1      11.464  -4.525   5.136  1.00  0.00     0.259 C 
ATOM      2  O   UNL     1      10.824  -4.287   4.122  1.00  0.00    -0.269 OA
ATOM      3  N   UNL     1      11.039  -4.496   6.468  1.00  0.00    -0.274 N 
ATOM      4  C   UNL     1       9.850  -4.452   7.151  1.00  0.00     0.321 C 
ATOM      5  O   UNL     1       9.890  -4.579   8.379  1.00  0.00    -0.248 OA
ATOM      6  N   UNL     1       8.653  -4.308   6.553  1.00  0.00    -0.334 N 
ATOM      7  H   UNL     1      11.761  -4.711   7.142  1.00  0.00     0.175 HD
ATOM      8  H   UNL     1       7.870  -4.381   7.187  1.00  0.00     0.165 HD
ENDROOT
BRANCH   1   9
ATOM      9  C   UNL     1      12.879  -4.902   4.950  1.00  0.00     0.040 A 
ATOM     10  C   UNL     1      13.691  -4.247   4.023  1.00  0.00     0.014 A 
ATOM     11  C   UNL     1      15.036  -4.603   3.920  1.00  0.00     0.004 A 
ATOM     12  C   UNL     1      13.388  -5.947   5.729  1.00  0.00     0.014 A 
ATOM     13  C   UNL     1      15.570  -5.614   4.733  1.00  0.00    -0.051 A 
ATOM     14  C   UNL     1      14.734  -6.294   5.627  1.00  0.00     0.004 A 
ATOM     15  C   UNL     1      17.036  -5.927   4.671  1.00  0.00     0.044 C 
ENDBRANCH   1   9
BRANCH   6  16
ATOM     16  C   UNL     1       8.378  -4.248   5.145  1.00  0.00     0.153 C 
BRANCH  16  17
ATOM     17  C   UNL     1       7.392  -3.214   4.678  1.00  0.00    -0.029 A 
ATOM     18  C   UNL     1       6.040  -3.495   4.454  1.00  0.00     0.006 A 
ATOM     19  C   UNL     1       7.816  -1.875   4.675  1.00  0.00     0.006 A 
ATOM     20  C   UNL     1       5.131  -2.450   4.257  1.00  0.00     0.004 A 
ATOM     21  C   UNL     1       6.911  -0.837   4.483  1.00  0.00     0.004 A 
ATOM     22  C   UNL     1       5.558  -1.115   4.282  1.00  0.00    -0.051 A 
ATOM     23  C   UNL     1       4.571   0.012   4.214  1.00  0.00     0.044 C 
ENDBRANCH  16  17
ENDBRANCH   6  16
TORSDOF 3
ENDMDL
MODEL 5
REMARK VINA RESULT:    -4.394      7.840      8.969
REMARK INTER + INTRA:          -5.546
REMARK INTER:                  -5.052
REMARK INTRA:                  -0.494
REMARK UNBOUND:                -0.381
REMARK SMILES Cc1ccc(CNC(=O)NC(=O)c2ccc(C)cc2)cc1
REMARK SMILES IDX 11 1 12 2 10 3 8 4 9 5 7 6 13 9 19 10 18 11 14 12 16 13
REMARK SMILES IDX 15 14 17 15 6 16 5 17 4 18 20 19 3 20 21 21 2 22 1 23
REMARK H PARENT 10 7 7 8
ROOT
ATOM      1  C   UNL     1      15.553  -6.168  11.177  1.00  0.00     0.259 C 
ATOM      2  O   UNL     1      14.546  -5.572  11.530  1.00  0.00    -0.269 OA
ATOM      3  N   UNL     1      16.527  -6.786  11.968  1.00  0.00    -0.274 N 
ATOM      4  C   UNL     1      16.669  -7.185  13.273  1.00  0.00     0.321 C 
ATOM      5  O   UNL     1      17.672  -7.845  13.564  1.00  0.00    -0.248 OA
ATOM      6  N   UNL     1      15.765  -6.921  14.235  1.00  0.00    -0.334 N 
ATOM      7  H   UNL     1      17.287  -7.200  11.446  1.00  0.00     0.175 HD
ATOM      8  H   UNL     1      15.976  -7.356  15.121  1.00  0.00     0.165 HD
ENDROOT
BRANCH   1   9
ATOM      9  C   UNL     1      15.790  -6.263   9.724  1.00  0.00     0.040 A 
ATOM     10  C   UNL     1      14.857  -6.857   8.872  1.00  0.00     0.014 A 
ATOM     11  C   UNL     1      15.100  -6.876   7.498  1.00  0.00     0.004 A 
ATOM     12  C   UNL     1      16.986  -5.746   9.218  1.00  0.00     0.014 A 
ATOM     13  C   UNL     1      16.274  -6.313   6.975  1.00  0.00    -0.051 A 
ATOM     14  C   UNL     1      17.223  -5.762   7.845  1.00  0.00     0.004 A 
ATOM     15  C   UNL     1      16.482  -6.266   5.490  1.00  0.00     0.044 C 
ENDBRANCH   1   9
BRANCH   6  16
ATOM     16  C   UNL     1      14.496  -6.266  14.088  1.00  0.00     0.153 C 
BRANCH  16  17
ATOM     17  C   UNL     1      13.263  -7.083  14.356  1.00  0.00    -0.029 A 
ATOM     18  C   UNL     1      12.009  -6.514  14.603  1.00  0.00     0.006 A 
ATOM     19  C   UNL     1      13.349  -8.467  14.138  1.00  0.00     0.006 A 
ATOM     20  C   UNL     1      10.864  -7.318  14.605  1.00  0.00     0.004 A 
ATOM     21  C   UNL     1      12.209  -9.265  14.136  1.00  0.00     0.004 A 
ATOM     22  C   UNL     1      10.955  -8.695  14.359  1.00  0.00    -0.051 A 
ATOM     23  C   UNL     1       9.722  -9.536  14.219  1.00  0.00     0.044 C 
ENDBRANCH  16  17
ENDBRANCH   6  16
TORSDOF 3
ENDMDL
MODEL 6
REMARK VINA RESULT:    -4.125      2.092      7.677
REMARK INTER + INTRA:          -5.229
REMARK INTER:                  -5.129
REMARK INTRA:                  -0.100
REMARK UNBOUND:                -0.381
REMARK SMILES Cc1ccc(CNC(=O)NC(=O)c2ccc(C)cc2)cc1
REMARK SMILES IDX 11 1 12 2 10 3 8 4 9 5 7 6 13 9 19 10 18 11 14 12 16 13
REMARK SMILES IDX 15 14 17 15 6 16 5 17 4 18 20 19 3 20 21 21 2 22 1 23
REMARK H PARENT 10 7 7 8
ROOT
ATOM      1  C   UNL     1       9.056  -4.077   7.670  1.00  0.00     0.259 C 
ATOM      2  O   UNL     1       8.993  -2.878   7.436  1.00  0.00    -0.269 OA
ATOM      3  N   UNL     1       8.851  -5.151   6.798  1.00  0.00    -0.274 N 
ATOM      4  C   UNL     1       8.756  -5.354   5.446  1.00  0.00     0.321 C 
ATOM      5  O   UNL     1       8.703  -6.521   5.043  1.00  0.00    -0.248 OA
ATOM      6  N   UNL     1       8.750  -4.356   4.542  1.00  0.00    -0.334 N 
ATOM      7  H   UNL     1       8.936  -6.061   7.231  1.00  0.00     0.175 HD
ATOM      8  H   UNL     1       8.763  -4.675   3.584  1.00  0.00     0.165 HD
ENDROOT
BRANCH   1   9
ATOM      9  C   UNL     1       9.397  -4.463   9.053  1.00  0.00     0.040 A 
ATOM     10  C   UNL     1       8.446  -5.019   9.910  1.00  0.00     0.014 A 
ATOM     11  C   UNL     1       8.829  -5.417  11.191  1.00  0.00     0.004 A 
ATOM     12  C   UNL     1      10.709  -4.250   9.489  1.00  0.00     0.014 A 
ATOM     13  C   UNL     1      10.154  -5.255  11.621  1.00  0.00    -0.051 A 
ATOM     14  C   UNL     1      11.088  -4.655  10.768  1.00  0.00     0.004 A 
ATOM     15  C   UNL     1      10.570  -5.766  12.969  1.00  0.00     0.044 C 
ENDBRANCH   1   9
BRANCH   6  16
ATOM     16  C   UNL     1       8.907  -2.951   4.788  1.00  0.00     0.153 C 
BRANCH  16  17
ATOM     17  C   UNL     1       7.656  -2.118   4.849  1.00  0.00    -0.029 A 
ATOM     18  C   UNL     1       7.631  -0.754   4.540  1.00  0.00     0.006 A 
ATOM     19  C   UNL     1       6.439  -2.797   5.020  1.00  0.00     0.006 A 
ATOM     20  C   UNL     1       6.408  -0.094   4.382  1.00  0.00     0.004 A 
ATOM     21  C   UNL     1       5.223  -2.141   4.858  1.00  0.00     0.004 A 
ATOM     22  C   UNL     1       5.197  -0.785   4.527  1.00  0.00    -0.051 A 
ATOM     23  C   UNL     1       3.888  -0.121   4.220  1.00  0.00     0.044 C 
ENDBRANCH  16  17
ENDBRANCH   6  16
TORSDOF 3
ENDMDL
MODEL 7
REMARK VINA RESULT:    -4.028      4.126      5.491
REMARK INTER + INTRA:          -5.115
REMARK INTER:                  -4.698
REMARK INTRA:                  -0.418
REMARK UNBOUND:                -0.381
REMARK SMILES Cc1ccc(CNC(=O)NC(=O)c2ccc(C)cc2)cc1
REMARK SMILES IDX 11 1 12 2 10 3 8 4 9 5 7 6 13 9 19 10 18 11 14 12 16 13
REMARK SMILES IDX 15 14 17 15 6 16 5 17 4 18 20 19 3 20 21 21 2 22 1 23
REMARK H PARENT 10 7 7 8
ROOT
ATOM      1  C   UNL     1       8.358  -3.341   4.594  1.00  0.00     0.259 C 
ATOM      2  O   UNL     1       9.439  -2.780   4.703  1.00  0.00    -0.269 OA
ATOM      3  N   UNL     1       8.083  -4.712   4.558  1.00  0.00    -0.274 N 
ATOM      4  C   UNL     1       8.736  -5.884   4.840  1.00  0.00     0.321 C 
ATOM      5  O   UNL     1       8.078  -6.929   4.806  1.00  0.00    -0.248 OA
ATOM      6  N   UNL     1      10.037  -5.948   5.177  1.00  0.00    -0.334 N 
ATOM      7  H   UNL     1       7.104  -4.938   4.439  1.00  0.00     0.175 HD
ATOM      8  H   UNL     1      10.345  -6.874   5.437  1.00  0.00     0.165 HD
ENDROOT
BRANCH   1   9
ATOM      9  C   UNL     1       7.170  -2.472   4.491  1.00  0.00     0.040 A 
ATOM     10  C   UNL     1       5.881  -3.005   4.419  1.00  0.00     0.014 A 
ATOM     11  C   UNL     1       4.786  -2.142   4.376  1.00  0.00     0.004 A 
ATOM     12  C   UNL     1       7.369  -1.088   4.458  1.00  0.00     0.014 A 
ATOM     13  C   UNL     1       4.973  -0.752   4.395  1.00  0.00    -0.051 A 
ATOM     14  C   UNL     1       6.272  -0.230   4.421  1.00  0.00     0.004 A 
ATOM     15  C   UNL     1       3.782   0.161   4.433  1.00  0.00     0.044 C 
ENDBRANCH   1   9
BRANCH   6  16
ATOM     16  C   UNL     1      10.946  -4.854   5.374  1.00  0.00     0.153 C 
BRANCH  16  17
ATOM     17  C   UNL     1      12.384  -5.075   4.994  1.00  0.00    -0.029 A 
ATOM     18  C   UNL     1      13.059  -4.277   4.064  1.00  0.00     0.006 A 
ATOM     19  C   UNL     1      13.121  -5.988   5.766  1.00  0.00     0.006 A 
ATOM     20  C   UNL     1      14.448  -4.378   3.932  1.00  0.00     0.004 A 
ATOM     21  C   UNL     1      14.503  -6.083   5.638  1.00  0.00     0.004 A 
ATOM     22  C   UNL     1      15.180  -5.272   4.726  1.00  0.00    -0.051 A 
ATOM     23  C   UNL     1      16.679  -5.284   4.693  1.00  0.00     0.044 C 
ENDBRANCH  16  17
ENDBRANCH   6  16
TORSDOF 3
ENDMDL
MODEL 8
REMARK VINA RESULT:    -4.023      1.872      8.181
REMARK INTER + INTRA:          -5.109
REMARK INTER:                  -4.701
REMARK INTRA:                  -0.408
REMARK UNBOUND:                -0.381
REMARK SMILES Cc1ccc(CNC(=O)NC(=O)c2ccc(C)cc2)cc1
REMARK SMILES IDX 11 1 12 2 10 3 8 4 9 5 7 6 13 9 19 10 18 11 14 12 16 13
REMARK SMILES IDX 15 14 17 15 6 16 5 17 4 18 20 19 3 20 21 21 2 22 1 23
REMARK H PARENT 10 7 7 8
ROOT
ATOM      1  C   UNL     1       9.113  -3.799   7.441  1.00  0.00     0.259 C 
ATOM      2  O   UNL     1       8.513  -4.556   6.691  1.00  0.00    -0.269 OA
ATOM      3  N   UNL     1       9.619  -2.523   7.175  1.00  0.00    -0.274 N 
ATOM      4  C   UNL     1       9.486  -1.562   6.205  1.00  0.00     0.321 C 
ATOM      5  O   UNL     1      10.020  -0.466   6.406  1.00  0.00    -0.248 OA
ATOM      6  N   UNL     1       8.785  -1.742   5.070  1.00  0.00    -0.334 N 
ATOM      7  H   UNL     1      10.101  -2.094   7.954  1.00  0.00     0.175 HD
ATOM      8  H   UNL     1       8.712  -0.911   4.501  1.00  0.00     0.165 HD
ENDROOT
BRANCH   1   9
ATOM      9  C   UNL     1       9.340  -4.276   8.819  1.00  0.00     0.040 A 
ATOM     10  C   UNL     1       8.302  -4.810   9.585  1.00  0.00     0.014 A 
ATOM     11  C   UNL     1       8.576  -5.296  10.863  1.00  0.00     0.004 A 
ATOM     12  C   UNL     1      10.631  -4.171   9.346  1.00  0.00     0.014 A 
ATOM     13  C   UNL     1       9.879  -5.244  11.382  1.00  0.00    -0.051 A 
ATOM     14  C   UNL     1      10.901  -4.664  10.621  1.00  0.00     0.004 A 
ATOM     15  C   UNL     1      10.173  -5.847  12.723  1.00  0.00     0.044 C 
ENDBRANCH   1   9
BRANCH   6  16
ATOM     16  C   UNL     1       8.010  -2.890   4.692  1.00  0.00     0.153 C 
BRANCH  16  17
ATOM     17  C   UNL     1       6.730  -2.642   3.943  1.00  0.00    -0.029 A 
ATOM     18  C   UNL     1       5.698  -1.841   4.441  1.00  0.00     0.006 A 
ATOM     19  C   UNL     1       6.675  -3.068   2.606  1.00  0.00     0.006 A 
ATOM     20  C   UNL     1       4.645  -1.455   3.603  1.00  0.00     0.004 A 
ATOM     21  C   UNL     1       5.630  -2.680   1.773  1.00  0.00     0.004 A 
ATOM     22  C   UNL     1       4.611  -1.861   2.262  1.00  0.00    -0.051 A 
ATOM     23  C   UNL     1       3.566  -1.336   1.323  1.00  0.00     0.044 C 
ENDBRANCH  16  17
ENDBRANCH   6  16
TORSDOF 3
ENDMDL
MODEL 9
REMARK VINA RESULT:    -3.738      7.103     10.255
REMARK INTER + INTRA:          -4.774
REMARK INTER:                  -4.288
REMARK INTRA:                  -0.486
REMARK UNBOUND:                -0.381
REMARK SMILES Cc1ccc(CNC(=O)NC(=O)c2ccc(C)cc2)cc1
REMARK SMILES IDX 11 1 12 2 10 3 8 4 9 5 7 6 13 9 19 10 18 11 14 12 16 13
REMARK SMILES IDX 15 14 17 15 6 16 5 17 4 18 20 19 3 20 21 21 2 22 1 23
REMARK H PARENT 10 7 7 8
ROOT
ATOM      1  C   UNL     1      15.276  -6.817   9.955  1.00  0.00     0.259 C 
ATOM      2  O   UNL     1      15.759  -5.725   9.688  1.00  0.00    -0.269 OA
ATOM      3  N   UNL     1      15.495  -8.048   9.328  1.00  0.00    -0.274 N 
ATOM      4  C   UNL     1      16.392  -8.589   8.443  1.00  0.00     0.321 C 
ATOM      5  O   UNL     1      16.324  -9.804   8.229  1.00  0.00    -0.248 OA
ATOM      6  N   UNL     1      17.352  -7.875   7.827  1.00  0.00    -0.334 N 
ATOM      7  H   UNL     1      14.960  -8.814   9.716  1.00  0.00     0.175 HD
ATOM      8  H   UNL     1      17.984  -8.435   7.273  1.00  0.00     0.165 HD
ENDROOT
BRANCH   1   9
ATOM      9  C   UNL     1      14.334  -6.863  11.090  1.00  0.00     0.040 A 
ATOM     10  C   UNL     1      14.318  -7.939  11.979  1.00  0.00     0.014 A 
ATOM     11  C   UNL     1      13.446  -7.914  13.068  1.00  0.00     0.004 A 
ATOM     12  C   UNL     1      13.447  -5.794  11.251  1.00  0.00     0.014 A 
ATOM     13  C   UNL     1      12.588  -6.822  13.267  1.00  0.00    -0.051 A 
ATOM     14  C   UNL     1      12.582  -5.770  12.344  1.00  0.00     0.004 A 
ATOM     15  C   UNL     1      11.717  -6.770  14.489  1.00  0.00     0.044 C 
ENDBRANCH   1   9
BRANCH   6  16
ATOM     16  C   UNL     1      17.667  -6.486   8.013  1.00  0.00     0.153 C 
BRANCH  16  17
ATOM     17  C   UNL     1      17.377  -5.554   6.869  1.00  0.00    -0.029 A 
ATOM     18  C   UNL     1      16.650  -5.937   5.737  1.00  0.00     0.006 A 
ATOM     19  C   UNL     1      17.673  -4.194   7.057  1.00  0.00     0.006 A 
ATOM     20  C   UNL     1      16.209  -4.969   4.828  1.00  0.00     0.004 A 
ATOM     21  C   UNL     1      17.230  -3.232   6.155  1.00  0.00     0.004 A 
ATOM     22  C   UNL     1      16.485  -3.611   5.037  1.00  0.00    -0.051 A 
ATOM     23  C   UNL     1      15.896  -2.558   4.146  1.00  0.00     0.044 C 
ENDBRANCH  16  17
ENDBRANCH   6  16
TORSDOF 3
ENDMDL
