MODEL 1
REMARK VINA RESULT:    -4.365      0.000      0.000
REMARK INTER + INTRA:          -5.765
REMARK INTER:                  -5.769
REMARK INTRA:                   0.004
REMARK UNBOUND:                 0.004
REMARK SMILES [H]/N=C\C[C@H]1C[C@@H]1O[C@H]1CO[C@H]2C[C@@H](C3CC3)CCN2C1
REMARK SMILES IDX 7 1 6 2 5 3 8 4 9 5 14 6 13 7 18 8 12 9 19 10 20 11 11 12
REMARK SMILES IDX 21 13 10 14 15 15 16 16 17 17 4 18 3 19 2 20 1 21
REMARK H PARENT
ROOT
ATOM      1  C   UNL     1       9.362  -4.204   6.620  1.00  0.00     0.122 C 
ATOM      2  C   UNL     1      10.277  -4.649   5.514  1.00  0.00     0.039 C 
ATOM      3  C   UNL     1       8.883  -5.201   5.600  1.00  0.00     0.026 C 
ENDROOT
BRANCH   1   4
ATOM      4  O   UNL     1       9.711  -4.726   7.916  1.00  0.00    -0.371 OA
BRANCH   4   5
ATOM      5  C   UNL     1       9.492  -3.835   9.022  1.00  0.00     0.158 C 
ATOM      6  C   UNL     1       9.583  -7.341  12.882  1.00  0.00    -0.003 C 
ATOM      7  C   UNL     1       8.610  -6.973  11.755  1.00  0.00     0.052 C 
ATOM      8  C   UNL     1      11.023  -7.091  12.411  1.00  0.00     0.019 C 
ATOM      9  C   UNL     1       8.858  -5.553  11.229  1.00  0.00     0.189 C 
ATOM     10  C   UNL     1      11.194  -5.672  11.869  1.00  0.00     0.087 C 
ATOM     11  N   UNL     1      10.245  -5.407  10.788  1.00  0.00    -0.276 NA
ATOM     12  O   UNL     1       7.930  -5.345  10.163  1.00  0.00    -0.360 OA
ATOM     13  C   UNL     1      10.454  -4.080  10.198  1.00  0.00     0.121 C 
ATOM     14  C   UNL     1       8.069  -4.063   9.542  1.00  0.00     0.195 C 
BRANCH   6  15
ATOM     15  C   UNL     1       9.410  -8.779  13.317  1.00  0.00    -0.008 C 
ATOM     16  C   UNL     1      10.031  -9.268  14.605  1.00  0.00     0.004 C 
ATOM     17  C   UNL     1       8.540  -9.130  14.500  1.00  0.00     0.004 C 
ENDBRANCH   6  15
ENDBRANCH   4   5
ENDBRANCH   1   4
BRANCH   3  18
ATOM     18  C   UNL     1       7.876  -4.797   4.564  1.00  0.00     0.053 C 
BRANCH  18  19
ATOM     19  C   UNL     1       6.917  -5.868   4.114  1.00  0.00     0.074 C 
BRANCH  19  20
ATOM     20  N   UNL     1       7.159  -7.136   4.080  1.00  0.00    -0.313 NA
ATOM     21  H   UNL     1       8.021  -7.372   4.592  1.00  0.00     0.186 HD
ENDBRANCH  19  20
ENDBRANCH  18  19
ENDBRANCH   3  18
TORSDOF 6
ENDMDL
MODEL 2
REMARK VINA RESULT:    -4.323      2.728      8.657
REMARK INTER + INTRA:          -5.708
REMARK INTER:                  -5.452
REMARK INTRA:                  -0.256
REMARK UNBOUND:                 0.004
REMARK SMILES [H]/N=C\C[C@H]1C[C@@H]1O[C@H]1CO[C@H]2C[C@@H](C3CC3)CCN2C1
REMARK SMILES IDX 7 1 6 2 5 3 8 4 9 5 14 6 13 7 18 8 12 9 19 10 20 11 11 12
REMARK SMILES IDX 21 13 10 14 15 15 16 16 17 17 4 18 3 19 2 20 1 21
REMARK H PARENT
ROOT
ATOM      1  C   UNL     1       9.141  -4.658   8.768  1.00  0.00     0.122 C 
ATOM      2  C   UNL     1      10.031  -4.195   9.887  1.00  0.00     0.039 C 
ATOM      3  C   UNL     1       8.615  -4.603  10.177  1.00  0.00     0.026 C 
ENDROOT
BRANCH   1   4
ATOM      4  O   UNL     1       8.719  -3.606   7.880  1.00  0.00    -0.371 OA
BRANCH   4   5
ATOM      5  C   UNL     1       9.725  -3.113   6.980  1.00  0.00     0.158 C 
ATOM      6  C   UNL     1       6.798  -2.705   2.683  1.00  0.00    -0.003 C 
ATOM      7  C   UNL     1       7.393  -3.857   3.500  1.00  0.00     0.052 C 
ATOM      8  C   UNL     1       6.458  -1.539   3.622  1.00  0.00     0.019 C 
ATOM      9  C   UNL     1       8.569  -3.392   4.370  1.00  0.00     0.189 C 
ATOM     10  C   UNL     1       7.659  -1.147   4.482  1.00  0.00     0.087 C 
ATOM     11  N   UNL     1       8.154  -2.294   5.243  1.00  0.00    -0.276 NA
ATOM     12  O   UNL     1       9.005  -4.532   5.112  1.00  0.00    -0.360 OA
ATOM     13  C   UNL     1       9.252  -1.914   6.140  1.00  0.00     0.121 C 
ATOM     14  C   UNL     1      10.084  -4.239   6.005  1.00  0.00     0.195 C 
BRANCH   6  15
ATOM     15  C   UNL     1       5.570  -3.144   1.916  1.00  0.00    -0.008 C 
ATOM     16  C   UNL     1       5.523  -3.017   0.412  1.00  0.00     0.004 C 
ATOM     17  C   UNL     1       5.603  -4.376   1.044  1.00  0.00     0.004 C 
ENDBRANCH   6  15
ENDBRANCH   4   5
ENDBRANCH   1   4
BRANCH   3  18
ATOM     18  C   UNL     1       8.366  -5.869  10.940  1.00  0.00     0.053 C 
BRANCH  18  19
ATOM     19  C   UNL     1       9.111  -6.020  12.241  1.00  0.00     0.074 C 
BRANCH  19  20
ATOM     20  N   UNL     1       8.705  -5.614  13.398  1.00  0.00    -0.313 NA
ATOM     21  H   UNL     1       9.120  -4.706  13.649  1.00  0.00     0.186 HD
ENDBRANCH  19  20
ENDBRANCH  18  19
ENDBRANCH   3  18
TORSDOF 6
ENDMDL
MODEL 3
REMARK VINA RESULT:    -4.309      5.261      8.465
REMARK INTER + INTRA:          -5.690
REMARK INTER:                  -5.427
REMARK INTRA:                  -0.263
REMARK UNBOUND:                 0.004
REMARK SMILES [H]/N=C\C[C@H]1C[C@@H]1O[C@H]1CO[C@H]2C[C@@H](C3CC3)CCN2C1
REMARK SMILES IDX 7 1 6 2 5 3 8 4 9 5 14 6 13 7 18 8 12 9 19 10 20 11 11 12
REMARK SMILES IDX 21 13 10 14 15 15 16 16 17 17 4 18 3 19 2 20 1 21
REMARK H PARENT
ROOT
ATOM      1  C   UNL     1      12.192  -4.454   5.017  1.00  0.00     0.122 C 
ATOM      2  C   UNL     1      12.982  -5.723   5.166  1.00  0.00     0.039 C 
ATOM      3  C   UNL     1      13.294  -4.774   4.045  1.00  0.00     0.026 C 
ENDROOT
BRANCH   1   4
ATOM      4  O   UNL     1      10.843  -4.653   4.552  1.00  0.00    -0.371 OA
BRANCH   4   5
ATOM      5  C   UNL     1       9.925  -5.184   5.522  1.00  0.00     0.158 C 
ATOM      6  C   UNL     1       5.749  -2.305   4.307  1.00  0.00    -0.003 C 
ATOM      7  C   UNL     1       7.097  -2.051   4.994  1.00  0.00     0.052 C 
ATOM      8  C   UNL     1       5.922  -3.396   3.241  1.00  0.00     0.019 C 
ATOM      9  C   UNL     1       7.721  -3.349   5.523  1.00  0.00     0.189 C 
ATOM     10  C   UNL     1       6.579  -4.647   3.823  1.00  0.00     0.087 C 
ATOM     11  N   UNL     1       7.864  -4.324   4.442  1.00  0.00    -0.276 NA
ATOM     12  O   UNL     1       8.981  -2.993   6.095  1.00  0.00    -0.360 OA
ATOM     13  C   UNL     1       8.548  -5.528   4.929  1.00  0.00     0.121 C 
ATOM     14  C   UNL     1       9.704  -4.119   6.601  1.00  0.00     0.195 C 
BRANCH   6  15
ATOM     15  C   UNL     1       5.195  -1.042   3.689  1.00  0.00    -0.008 C 
ATOM     16  C   UNL     1       3.846  -0.511   4.115  1.00  0.00     0.004 C 
ATOM     17  C   UNL     1       5.094   0.233   4.491  1.00  0.00     0.004 C 
ENDBRANCH   6  15
ENDBRANCH   4   5
ENDBRANCH   1   4
BRANCH   3  18
ATOM     18  C   UNL     1      14.580  -4.005   4.080  1.00  0.00     0.053 C 
BRANCH  18  19
ATOM     19  C   UNL     1      15.837  -4.816   4.259  1.00  0.00     0.074 C 
BRANCH  19  20
ATOM     20  N   UNL     1      16.592  -5.262   3.311  1.00  0.00    -0.313 NA
ATOM     21  H   UNL     1      16.433  -4.755   2.429  1.00  0.00     0.186 HD
ENDBRANCH  19  20
ENDBRANCH  18  19
ENDBRANCH   3  18
TORSDOF 6
ENDMDL
MODEL 4
REMARK VINA RESULT:    -3.895      5.157      6.920
REMARK INTER + INTRA:          -5.144
REMARK INTER:                  -4.511
REMARK INTRA:                  -0.633
REMARK UNBOUND:                 0.004
REMARK SMILES [H]/N=C\C[C@H]1C[C@@H]1O[C@H]1CO[C@H]2C[C@@H](C3CC3)CCN2C1
REMARK SMILES IDX 7 1 6 2 5 3 8 4 9 5 14 6 13 7 18 8 12 9 19 10 20 11 11 12
REMARK SMILES IDX 21 13 10 14 15 15 16 16 17 17 4 18 3 19 2 20 1 21
REMARK H PARENT
ROOT
ATOM      1  C   UNL     1      17.305  -7.577   9.623  1.00  0.00     0.122 C 
ATOM      2  C   UNL     1      17.675  -8.661   8.649  1.00  0.00     0.039 C 
ATOM      3  C   UNL     1      16.265  -8.146   8.697  1.00  0.00     0.026 C 
ENDROOT
BRANCH   1   4
ATOM      4  O   UNL     1      17.255  -8.013  10.995  1.00  0.00    -0.371 OA
BRANCH   4   5
ATOM      5  C   UNL     1      17.342  -6.970  11.980  1.00  0.00     0.158 C 
ATOM      6  C   UNL     1      12.285  -6.635  13.213  1.00  0.00    -0.003 C 
ATOM      7  C   UNL     1      13.150  -6.245  12.008  1.00  0.00     0.052 C 
ATOM      8  C   UNL     1      12.869  -7.893  13.871  1.00  0.00     0.019 C 
ATOM      9  C   UNL     1      14.632  -6.122  12.386  1.00  0.00     0.189 C 
ATOM     10  C   UNL     1      14.353  -7.718  14.191  1.00  0.00     0.087 C 
ATOM     11  N   UNL     1      15.110  -7.366  12.989  1.00  0.00    -0.276 NA
ATOM     12  O   UNL     1      15.336  -5.804  11.184  1.00  0.00    -0.360 OA
ATOM     13  C   UNL     1      16.549  -7.280  13.262  1.00  0.00     0.121 C 
ATOM     14  C   UNL     1      16.749  -5.693  11.375  1.00  0.00     0.195 C 
BRANCH   6  15
ATOM     15  C   UNL     1      10.846  -6.866  12.811  1.00  0.00    -0.008 C 
ATOM     16  C   UNL     1       9.726  -6.168  13.546  1.00  0.00     0.004 C 
ATOM     17  C   UNL     1      10.048  -5.778  12.133  1.00  0.00     0.004 C 
ENDBRANCH   6  15
ENDBRANCH   4   5
ENDBRANCH   1   4
BRANCH   3  18
ATOM     18  C   UNL     1      15.749  -7.332   7.549  1.00  0.00     0.053 C 
BRANCH  18  19
ATOM     19  C   UNL     1      14.317  -6.874   7.646  1.00  0.00     0.074 C 
BRANCH  19  20
ATOM     20  N   UNL     1      13.798  -6.215   8.628  1.00  0.00    -0.313 NA
ATOM     21  H   UNL     1      14.357  -5.384   8.865  1.00  0.00     0.186 HD
ENDBRANCH  19  20
ENDBRANCH  18  19
ENDBRANCH   3  18
TORSDOF 6
ENDMDL
MODEL 5
REMARK VINA RESULT:    -3.659      4.246      7.263
REMARK INTER + INTRA:          -4.832
REMARK INTER:                  -4.472
REMARK INTRA:                  -0.360
REMARK UNBOUND:                 0.004
REMARK SMILES [H]/N=C\C[C@H]1C[C@@H]1O[C@H]1CO[C@H]2C[C@@H](C3CC3)CCN2C1
REMARK SMILES IDX 7 1 6 2 5 3 8 4 9 5 14 6 13 7 18 8 12 9 19 10 20 11 11 12
REMARK SMILES IDX 21 13 10 14 15 15 16 16 17 17 4 18 3 19 2 20 1 21
REMARK H PARENT
ROOT
ATOM      1  C   UNL     1      10.247  -7.180  13.621  1.00  0.00     0.122 C 
ATOM      2  C   UNL     1       9.352  -6.136  14.227  1.00  0.00     0.039 C 
ATOM      3  C   UNL     1       9.794  -6.006  12.797  1.00  0.00     0.026 C 
ENDROOT
BRANCH   1   4
ATOM      4  O   UNL     1      11.603  -7.144  14.104  1.00  0.00    -0.371 OA
BRANCH   4   5
ATOM      5  C   UNL     1      12.311  -8.394  14.057  1.00  0.00     0.158 C 
ATOM      6  C   UNL     1      16.261  -6.941  10.977  1.00  0.00    -0.003 C 
ATOM      7  C   UNL     1      14.765  -7.218  10.787  1.00  0.00     0.052 C 
ATOM      8  C   UNL     1      16.497  -6.369  12.382  1.00  0.00     0.019 C 
ATOM      9  C   UNL     1      14.197  -8.085  11.919  1.00  0.00     0.189 C 
ATOM     10  C   UNL     1      15.879  -7.261  13.458  1.00  0.00     0.087 C 
ATOM     11  N   UNL     1      14.450  -7.460  13.217  1.00  0.00    -0.276 NA
ATOM     12  O   UNL     1      12.800  -8.234  11.658  1.00  0.00    -0.360 OA
ATOM     13  C   UNL     1      13.825  -8.242  14.289  1.00  0.00     0.121 C 
ATOM     14  C   UNL     1      12.122  -8.996  12.661  1.00  0.00     0.195 C 
BRANCH   6  15
ATOM     15  C   UNL     1      16.788  -5.994   9.923  1.00  0.00    -0.008 C 
ATOM     16  C   UNL     1      17.674  -6.505   8.811  1.00  0.00     0.004 C 
ATOM     17  C   UNL     1      16.276  -6.053   8.504  1.00  0.00     0.004 C 
ENDBRANCH   6  15
ENDBRANCH   4   5
ENDBRANCH   1   4
BRANCH   3  18
ATOM     18  C   UNL     1       8.783  -6.193  11.705  1.00  0.00     0.053 C 
BRANCH  18  19
ATOM     19  C   UNL     1       8.814  -5.182  10.589  1.00  0.00     0.074 C 
BRANCH  19  20
ATOM     20  N   UNL     1       9.841  -4.883   9.866  1.00  0.00    -0.313 NA
ATOM     21  H   UNL     1       9.596  -4.227   9.111  1.00  0.00     0.186 HD
ENDBRANCH  19  20
ENDBRANCH  18  19
ENDBRANCH   3  18
TORSDOF 6
ENDMDL
MODEL 6
REMARK VINA RESULT:    -3.509      4.915      8.734
REMARK INTER + INTRA:          -4.634
REMARK INTER:                  -4.566
REMARK INTRA:                  -0.068
REMARK UNBOUND:                 0.004
REMARK SMILES [H]/N=C\C[C@H]1C[C@@H]1O[C@H]1CO[C@H]2C[C@@H](C3CC3)CCN2C1
REMARK SMILES IDX 7 1 6 2 5 3 8 4 9 5 14 6 13 7 18 8 12 9 19 10 20 11 11 12
REMARK SMILES IDX 21 13 10 14 15 15 16 16 17 17 4 18 3 19 2 20 1 21
REMARK H PARENT
ROOT
ATOM      1  C   UNL     1      17.053  -6.483   9.489  1.00  0.00     0.122 C 
ATOM      2  C   UNL     1      17.458  -5.453  10.506  1.00  0.00     0.039 C 
ATOM      3  C   UNL     1      16.108  -6.105  10.597  1.00  0.00     0.026 C 
ENDROOT
BRANCH   1   4
ATOM      4  O   UNL     1      16.769  -5.941   8.186  1.00  0.00    -0.371 OA
BRANCH   4   5
ATOM      5  C   UNL     1      16.660  -6.903   7.124  1.00  0.00     0.158 C 
ATOM      6  C   UNL     1      12.337  -5.076   4.849  1.00  0.00    -0.003 C 
ATOM      7  C   UNL     1      12.663  -5.817   6.152  1.00  0.00     0.052 C 
ATOM      8  C   UNL     1      13.512  -4.162   4.477  1.00  0.00     0.019 C 
ATOM      9  C   UNL     1      14.016  -6.538   6.074  1.00  0.00     0.189 C 
ATOM     10  C   UNL     1      14.832  -4.932   4.450  1.00  0.00     0.087 C 
ATOM     11  N   UNL     1      15.079  -5.592   5.732  1.00  0.00    -0.276 NA
ATOM     12  O   UNL     1      14.229  -7.146   7.349  1.00  0.00    -0.360 OA
ATOM     13  C   UNL     1      16.383  -6.264   5.752  1.00  0.00     0.121 C 
ATOM     14  C   UNL     1      15.482  -7.831   7.441  1.00  0.00     0.195 C 
BRANCH   6  15
ATOM     15  C   UNL     1      11.060  -4.276   4.971  1.00  0.00    -0.008 C 
ATOM     16  C   UNL     1       9.723  -4.976   5.037  1.00  0.00     0.004 C 
ATOM     17  C   UNL     1      10.263  -4.281   6.254  1.00  0.00     0.004 C 
ENDBRANCH   6  15
ENDBRANCH   4   5
ENDBRANCH   1   4
BRANCH   3  18
ATOM     18  C   UNL     1      15.838  -7.063  11.719  1.00  0.00     0.053 C 
BRANCH  18  19
ATOM     19  C   UNL     1      14.493  -7.743  11.705  1.00  0.00     0.074 C 
BRANCH  19  20
ATOM     20  N   UNL     1      13.615  -7.665  10.762  1.00  0.00    -0.313 NA
ATOM     21  H   UNL     1      14.057  -7.528   9.841  1.00  0.00     0.186 HD
ENDBRANCH  19  20
ENDBRANCH  18  19
ENDBRANCH   3  18
TORSDOF 6
ENDMDL
MODEL 7
REMARK VINA RESULT:    -3.334      4.916      5.832
REMARK INTER + INTRA:          -4.402
REMARK INTER:                  -4.224
REMARK INTRA:                  -0.179
REMARK UNBOUND:                 0.004
REMARK SMILES [H]/N=C\C[C@H]1C[C@@H]1O[C@H]1CO[C@H]2C[C@@H](C3CC3)CCN2C1
REMARK SMILES IDX 7 1 6 2 5 3 8 4 9 5 14 6 13 7 18 8 12 9 19 10 20 11 11 12
REMARK SMILES IDX 21 13 10 14 15 15 16 16 17 17 4 18 3 19 2 20 1 21
REMARK H PARENT
ROOT
ATOM      1  C   UNL     1      16.129  -7.448   9.189  1.00  0.00     0.122 C 
ATOM      2  C   UNL     1      16.302  -8.599   8.238  1.00  0.00     0.039 C 
ATOM      3  C   UNL     1      15.542  -7.378   7.806  1.00  0.00     0.026 C 
ENDROOT
BRANCH   1   4
ATOM      4  O   UNL     1      15.211  -7.711  10.267  1.00  0.00    -0.371 OA
BRANCH   4   5
ATOM      5  C   UNL     1      15.243  -6.769  11.352  1.00  0.00     0.158 C 
ATOM      6  C   UNL     1      11.036  -8.424  13.952  1.00  0.00    -0.003 C 
ATOM      7  C   UNL     1      11.290  -7.672  12.641  1.00  0.00     0.052 C 
ATOM      8  C   UNL     1      12.189  -9.406  14.206  1.00  0.00     0.019 C 
ATOM      9  C   UNL     1      12.681  -7.023  12.617  1.00  0.00     0.189 C 
ATOM     10  C   UNL     1      13.545  -8.705  14.134  1.00  0.00     0.087 C 
ATOM     11  N   UNL     1      13.718  -8.029  12.849  1.00  0.00    -0.276 NA
ATOM     12  O   UNL     1      12.818  -6.397  11.339  1.00  0.00    -0.360 OA
ATOM     13  C   UNL     1      15.049  -7.425  12.730  1.00  0.00     0.121 C 
ATOM     14  C   UNL     1      14.093  -5.775  11.154  1.00  0.00     0.195 C 
BRANCH   6  15
ATOM     15  C   UNL     1       9.713  -9.155  13.925  1.00  0.00    -0.008 C 
ATOM     16  C   UNL     1       8.500  -8.566  14.605  1.00  0.00     0.004 C 
ATOM     17  C   UNL     1       8.557  -8.632  13.106  1.00  0.00     0.004 C 
ENDBRANCH   6  15
ENDBRANCH   4   5
ENDBRANCH   1   4
BRANCH   3  18
ATOM     18  C   UNL     1      16.145  -6.473   6.774  1.00  0.00     0.053 C 
BRANCH  18  19
ATOM     19  C   UNL     1      15.253  -6.085   5.624  1.00  0.00     0.074 C 
BRANCH  19  20
ATOM     20  N   UNL     1      14.959  -4.879   5.267  1.00  0.00    -0.313 NA
ATOM     21  H   UNL     1      15.318  -4.186   5.939  1.00  0.00     0.186 HD
ENDBRANCH  19  20
ENDBRANCH  18  19
ENDBRANCH   3  18
TORSDOF 6
ENDMDL
MODEL 8
REMARK VINA RESULT:    -3.229      4.402      6.519
REMARK INTER + INTRA:          -4.263
REMARK INTER:                  -4.992
REMARK INTRA:                   0.729
REMARK UNBOUND:                 0.004
REMARK SMILES [H]/N=C\C[C@H]1C[C@@H]1O[C@H]1CO[C@H]2C[C@@H](C3CC3)CCN2C1
REMARK SMILES IDX 7 1 6 2 5 3 8 4 9 5 14 6 13 7 18 8 12 9 19 10 20 11 11 12
REMARK SMILES IDX 21 13 10 14 15 15 16 16 17 17 4 18 3 19 2 20 1 21
REMARK H PARENT
ROOT
ATOM      1  C   UNL     1      15.892  -7.056  11.393  1.00  0.00     0.122 C 
ATOM      2  C   UNL     1      17.226  -7.561  10.921  1.00  0.00     0.039 C 
ATOM      3  C   UNL     1      16.047  -7.576   9.990  1.00  0.00     0.026 C 
ENDROOT
BRANCH   1   4
ATOM      4  O   UNL     1      15.234  -7.925  12.334  1.00  0.00    -0.371 OA
BRANCH   4   5
ATOM      5  C   UNL     1      15.075  -7.396  13.660  1.00  0.00     0.158 C 
ATOM      6  C   UNL     1       9.936  -6.512  13.541  1.00  0.00    -0.003 C 
ATOM      7  C   UNL     1      11.176  -5.873  12.902  1.00  0.00     0.052 C 
ATOM      8  C   UNL     1      10.172  -8.020  13.709  1.00  0.00     0.019 C 
ATOM      9  C   UNL     1      12.457  -6.224  13.671  1.00  0.00     0.189 C 
ATOM     10  C   UNL     1      11.479  -8.301  14.450  1.00  0.00     0.087 C 
ATOM     11  N   UNL     1      12.612  -7.675  13.769  1.00  0.00    -0.276 NA
ATOM     12  O   UNL     1      13.538  -5.616  12.961  1.00  0.00    -0.360 OA
ATOM     13  C   UNL     1      13.885  -8.008  14.419  1.00  0.00     0.121 C 
ATOM     14  C   UNL     1      14.816  -5.890  13.544  1.00  0.00     0.195 C 
BRANCH   6  15
ATOM     15  C   UNL     1       8.694  -6.258  12.717  1.00  0.00    -0.008 C 
ATOM     16  C   UNL     1       8.808  -5.726  11.307  1.00  0.00     0.004 C 
ATOM     17  C   UNL     1       8.354  -7.138  11.539  1.00  0.00     0.004 C 
ENDBRANCH   6  15
ENDBRANCH   4   5
ENDBRANCH   1   4
BRANCH   3  18
ATOM     18  C   UNL     1      16.028  -6.631   8.826  1.00  0.00     0.053 C 
BRANCH  18  19
ATOM     19  C   UNL     1      15.019  -6.924   7.746  1.00  0.00     0.074 C 
BRANCH  19  20
ATOM     20  N   UNL     1      13.897  -7.542   7.906  1.00  0.00    -0.313 NA
ATOM     21  H   UNL     1      13.548  -7.453   8.871  1.00  0.00     0.186 HD
ENDBRANCH  19  20
ENDBRANCH  18  19
ENDBRANCH   3  18
TORSDOF 6
ENDMDL
