MODEL 1
REMARK VINA RESULT:    -5.858      0.000      0.000
REMARK INTER + INTRA:          -7.253
REMARK INTER:                  -6.885
REMARK INTRA:                  -0.368
REMARK UNBOUND:                -0.368
REMARK SMILES Cc1ccc(CNC(=O)NC(=O)c2ccc(C)cc2)cc1
REMARK SMILES IDX 11 1 12 2 10 3 8 4 9 5 7 6 13 9 19 10 18 11 14 12 16 13
REMARK SMILES IDX 15 14 17 15 6 16 5 17 4 18 20 19 3 20 21 21 2 22 1 23
REMARK H PARENT 10 7 7 8
ROOT
ATOM      1  C   UNL     1       9.817   3.426  -1.215  1.00  0.00     0.259 C 
ATOM      2  O   UNL     1       9.374   4.130  -0.319  1.00  0.00    -0.269 OA
ATOM      3  N   UNL     1      10.966   3.615  -1.990  1.00  0.00    -0.274 N 
ATOM      4  C   UNL     1      12.094   4.394  -1.957  1.00  0.00     0.321 C 
ATOM      5  O   UNL     1      12.977   4.160  -2.789  1.00  0.00    -0.248 OA
ATOM      6  N   UNL     1      12.298   5.370  -1.053  1.00  0.00    -0.334 N 
ATOM      7  H   UNL     1      11.117   2.903  -2.693  1.00  0.00     0.175 HD
ATOM      8  H   UNL     1      13.213   5.792  -1.109  1.00  0.00     0.165 HD
ENDROOT
BRANCH   1   9
ATOM      9  C   UNL     1       9.052   2.206  -1.535  1.00  0.00     0.040 A 
ATOM     10  C   UNL     1       8.126   2.179  -2.579  1.00  0.00     0.014 A 
ATOM     11  C   UNL     1       7.465   0.987  -2.877  1.00  0.00     0.004 A 
ATOM     12  C   UNL     1       9.277   1.067  -0.755  1.00  0.00     0.014 A 
ATOM     13  C   UNL     1       7.722  -0.175  -2.133  1.00  0.00    -0.051 A 
ATOM     14  C   UNL     1       8.620  -0.123  -1.060  1.00  0.00     0.004 A 
ATOM     15  C   UNL     1       7.068  -1.468  -2.520  1.00  0.00     0.044 C 
ENDBRANCH   1   9
BRANCH   6  16
ATOM     16  C   UNL     1      11.454   5.732   0.051  1.00  0.00     0.153 C 
BRANCH  16  17
ATOM     17  C   UNL     1      12.075   6.537   1.159  1.00  0.00    -0.029 A 
ATOM     18  C   UNL     1      12.061   6.131   2.498  1.00  0.00     0.006 A 
ATOM     19  C   UNL     1      12.877   7.628   0.789  1.00  0.00     0.006 A 
ATOM     20  C   UNL     1      12.857   6.794   3.438  1.00  0.00     0.004 A 
ATOM     21  C   UNL     1      13.672   8.284   1.724  1.00  0.00     0.004 A 
ATOM     22  C   UNL     1      13.677   7.866   3.056  1.00  0.00    -0.051 A 
ATOM     23  C   UNL     1      14.637   8.487   4.026  1.00  0.00     0.044 C 
ENDBRANCH  16  17
ENDBRANCH   6  16
TORSDOF 3
ENDMDL
MODEL 2
REMARK VINA RESULT:    -5.843      3.265      5.561
REMARK INTER + INTRA:          -7.236
REMARK INTER:                  -6.868
REMARK INTRA:                  -0.368
REMARK UNBOUND:                -0.368
REMARK SMILES Cc1ccc(CNC(=O)NC(=O)c2ccc(C)cc2)cc1
REMARK SMILES IDX 11 1 12 2 10 3 8 4 9 5 7 6 13 9 19 10 18 11 14 12 16 13
REMARK SMILES IDX 15 14 17 15 6 16 5 17 4 18 20 19 3 20 21 21 2 22 1 23
REMARK H PARENT 10 7 7 8
ROOT
ATOM      1  C   UNL     1       9.839   3.403  -1.657  1.00  0.00     0.259 C 
ATOM      2  O   UNL     1      10.295   2.705  -2.552  1.00  0.00    -0.269 OA
ATOM      3  N   UNL     1      10.501   4.337  -0.852  1.00  0.00    -0.274 N 
ATOM      4  C   UNL     1      11.702   4.999  -0.846  1.00  0.00     0.321 C 
ATOM      5  O   UNL     1      11.865   5.882   0.003  1.00  0.00    -0.248 OA
ATOM      6  N   UNL     1      12.689   4.758  -1.728  1.00  0.00    -0.334 N 
ATOM      7  H   UNL     1       9.913   4.779  -0.159  1.00  0.00     0.175 HD
ATOM      8  H   UNL     1      13.473   5.388  -1.643  1.00  0.00     0.165 HD
ENDROOT
BRANCH   1   9
ATOM      9  C   UNL     1       8.398   3.260  -1.376  1.00  0.00     0.040 A 
ATOM     10  C   UNL     1       7.935   2.432  -0.352  1.00  0.00     0.014 A 
ATOM     11  C   UNL     1       6.566   2.369  -0.090  1.00  0.00     0.004 A 
ATOM     12  C   UNL     1       7.499   3.975  -2.174  1.00  0.00     0.014 A 
ATOM     13  C   UNL     1       5.660   3.123  -0.851  1.00  0.00    -0.051 A 
ATOM     14  C   UNL     1       6.133   3.915  -1.904  1.00  0.00     0.004 A 
ATOM     15  C   UNL     1       4.200   3.110  -0.502  1.00  0.00     0.044 C 
ENDBRANCH   1   9
BRANCH   6  16
ATOM     16  C   UNL     1      12.664   3.857  -2.846  1.00  0.00     0.153 C 
BRANCH  16  17
ATOM     17  C   UNL     1      13.689   4.069  -3.926  1.00  0.00    -0.029 A 
ATOM     18  C   UNL     1      13.353   4.257  -5.271  1.00  0.00     0.006 A 
ATOM     19  C   UNL     1      15.014   4.295  -3.520  1.00  0.00     0.006 A 
ATOM     20  C   UNL     1      14.324   4.687  -6.181  1.00  0.00     0.004 A 
ATOM     21  C   UNL     1      15.977   4.728  -4.426  1.00  0.00     0.004 A 
ATOM     22  C   UNL     1      15.638   4.937  -5.763  1.00  0.00    -0.051 A 
ATOM     23  C   UNL     1      16.646   5.533  -6.700  1.00  0.00     0.044 C 
ENDBRANCH  16  17
ENDBRANCH   6  16
TORSDOF 3
ENDMDL
MODEL 3
REMARK VINA RESULT:    -5.811      0.532      8.074
REMARK INTER + INTRA:          -7.199
REMARK INTER:                  -6.724
REMARK INTRA:                  -0.475
REMARK UNBOUND:                -0.368
REMARK SMILES Cc1ccc(CNC(=O)NC(=O)c2ccc(C)cc2)cc1
REMARK SMILES IDX 11 1 12 2 10 3 8 4 9 5 7 6 13 9 19 10 18 11 14 12 16 13
REMARK SMILES IDX 15 14 17 15 6 16 5 17 4 18 20 19 3 20 21 21 2 22 1 23
REMARK H PARENT 10 7 7 8
ROOT
ATOM      1  C   UNL     1      11.477   5.405   0.245  1.00  0.00     0.259 C 
ATOM      2  O   UNL     1      10.350   5.047   0.555  1.00  0.00    -0.269 OA
ATOM      3  N   UNL     1      12.227   5.057  -0.883  1.00  0.00    -0.274 N 
ATOM      4  C   UNL     1      12.010   4.464  -2.100  1.00  0.00     0.321 C 
ATOM      5  O   UNL     1      12.944   4.457  -2.909  1.00  0.00    -0.248 OA
ATOM      6  N   UNL     1      10.833   3.922  -2.465  1.00  0.00    -0.334 N 
ATOM      7  H   UNL     1      13.151   5.466  -0.912  1.00  0.00     0.175 HD
ATOM      8  H   UNL     1      10.812   3.603  -3.423  1.00  0.00     0.165 HD
ENDROOT
BRANCH   1   9
ATOM      9  C   UNL     1      12.153   6.335   1.170  1.00  0.00     0.040 A 
ATOM     10  C   UNL     1      12.122   6.138   2.552  1.00  0.00     0.014 A 
ATOM     11  C   UNL     1      12.820   7.014   3.383  1.00  0.00     0.004 A 
ATOM     12  C   UNL     1      12.825   7.432   0.623  1.00  0.00     0.014 A 
ATOM     13  C   UNL     1      13.541   8.089   2.841  1.00  0.00    -0.051 A 
ATOM     14  C   UNL     1      13.526   8.302   1.457  1.00  0.00     0.004 A 
ATOM     15  C   UNL     1      14.355   8.972   3.741  1.00  0.00     0.044 C 
ENDBRANCH   1   9
BRANCH   6  16
ATOM     16  C   UNL     1       9.604   3.917  -1.724  1.00  0.00     0.153 C 
BRANCH  16  17
ATOM     17  C   UNL     1       8.798   2.648  -1.733  1.00  0.00    -0.029 A 
ATOM     18  C   UNL     1       7.759   2.409  -2.638  1.00  0.00     0.006 A 
ATOM     19  C   UNL     1       9.257   1.588  -0.933  1.00  0.00     0.006 A 
ATOM     20  C   UNL     1       7.212   1.127  -2.755  1.00  0.00     0.004 A 
ATOM     21  C   UNL     1       8.716   0.312  -1.054  1.00  0.00     0.004 A 
ATOM     22  C   UNL     1       7.695   0.068  -1.973  1.00  0.00    -0.051 A 
ATOM     23  C   UNL     1       7.213  -1.335  -2.193  1.00  0.00     0.044 C 
ENDBRANCH  16  17
ENDBRANCH   6  16
TORSDOF 3
ENDMDL
MODEL 4
REMARK VINA RESULT:    -5.799      3.153      7.327
REMARK INTER + INTRA:          -7.183
REMARK INTER:                  -6.709
REMARK INTRA:                  -0.475
REMARK UNBOUND:                -0.368
REMARK SMILES Cc1ccc(CNC(=O)NC(=O)c2ccc(C)cc2)cc1
REMARK SMILES IDX 11 1 12 2 10 3 8 4 9 5 7 6 13 9 19 10 18 11 14 12 16 13
REMARK SMILES IDX 15 14 17 15 6 16 5 17 4 18 20 19 3 20 21 21 2 22 1 23
REMARK H PARENT 10 7 7 8
ROOT
ATOM      1  C   UNL     1      12.391   4.021  -3.063  1.00  0.00     0.259 C 
ATOM      2  O   UNL     1      11.576   3.177  -3.407  1.00  0.00    -0.269 OA
ATOM      3  N   UNL     1      12.385   4.829  -1.922  1.00  0.00    -0.274 N 
ATOM      4  C   UNL     1      11.727   4.880  -0.720  1.00  0.00     0.321 C 
ATOM      5  O   UNL     1      12.116   5.706   0.113  1.00  0.00    -0.248 OA
ATOM      6  N   UNL     1      10.708   4.063  -0.393  1.00  0.00    -0.334 N 
ATOM      7  H   UNL     1      13.162   5.473  -1.863  1.00  0.00     0.175 HD
ATOM      8  H   UNL     1      10.390   4.171   0.559  1.00  0.00     0.165 HD
ENDROOT
BRANCH   1   9
ATOM      9  C   UNL     1      13.547   4.225  -3.956  1.00  0.00     0.040 A 
ATOM     10  C   UNL     1      13.391   4.317  -5.340  1.00  0.00     0.014 A 
ATOM     11  C   UNL     1      14.507   4.563  -6.140  1.00  0.00     0.004 A 
ATOM     12  C   UNL     1      14.816   4.319  -3.376  1.00  0.00     0.014 A 
ATOM     13  C   UNL     1      15.778   4.710  -5.563  1.00  0.00    -0.051 A 
ATOM     14  C   UNL     1      15.928   4.571  -4.178  1.00  0.00     0.004 A 
ATOM     15  C   UNL     1      16.954   5.059  -6.427  1.00  0.00     0.044 C 
ENDBRANCH   1   9
BRANCH   6  16
ATOM     16  C   UNL     1      10.175   2.977  -1.166  1.00  0.00     0.153 C 
BRANCH  16  17
ATOM     17  C   UNL     1       8.679   2.823  -1.198  1.00  0.00    -0.029 A 
ATOM     18  C   UNL     1       7.981   1.968  -0.338  1.00  0.00     0.006 A 
ATOM     19  C   UNL     1       7.956   3.735  -1.983  1.00  0.00     0.006 A 
ATOM     20  C   UNL     1       6.587   2.048  -0.252  1.00  0.00     0.004 A 
ATOM     21  C   UNL     1       6.570   3.816  -1.893  1.00  0.00     0.004 A 
ATOM     22  C   UNL     1       5.874   2.980  -1.019  1.00  0.00    -0.051 A 
ATOM     23  C   UNL     1       4.398   3.168  -0.828  1.00  0.00     0.044 C 
ENDBRANCH  16  17
ENDBRANCH   6  16
TORSDOF 3
ENDMDL
MODEL 5
REMARK VINA RESULT:    -5.627      3.045      7.656
REMARK INTER + INTRA:          -6.982
REMARK INTER:                  -6.493
REMARK INTRA:                  -0.489
REMARK UNBOUND:                -0.368
REMARK SMILES Cc1ccc(CNC(=O)NC(=O)c2ccc(C)cc2)cc1
REMARK SMILES IDX 11 1 12 2 10 3 8 4 9 5 7 6 13 9 19 10 18 11 14 12 16 13
REMARK SMILES IDX 15 14 17 15 6 16 5 17 4 18 20 19 3 20 21 21 2 22 1 23
REMARK H PARENT 10 7 7 8
ROOT
ATOM      1  C   UNL     1      12.803   3.831  -3.096  1.00  0.00     0.259 C 
ATOM      2  O   UNL     1      12.299   2.734  -3.291  1.00  0.00    -0.269 OA
ATOM      3  N   UNL     1      12.500   4.770  -2.104  1.00  0.00    -0.274 N 
ATOM      4  C   UNL     1      11.804   4.806  -0.922  1.00  0.00     0.321 C 
ATOM      5  O   UNL     1      11.886   5.834  -0.241  1.00  0.00    -0.248 OA
ATOM      6  N   UNL     1      11.069   3.779  -0.459  1.00  0.00    -0.334 N 
ATOM      7  H   UNL     1      13.041   5.623  -2.157  1.00  0.00     0.175 HD
ATOM      8  H   UNL     1      10.691   3.933   0.465  1.00  0.00     0.165 HD
ENDROOT
BRANCH   1   9
ATOM      9  C   UNL     1      13.881   4.237  -4.018  1.00  0.00     0.040 A 
ATOM     10  C   UNL     1      15.190   4.423  -3.570  1.00  0.00     0.014 A 
ATOM     11  C   UNL     1      16.186   4.755  -4.489  1.00  0.00     0.004 A 
ATOM     12  C   UNL     1      13.553   4.438  -5.362  1.00  0.00     0.014 A 
ATOM     13  C   UNL     1      15.878   4.909  -5.849  1.00  0.00    -0.051 A 
ATOM     14  C   UNL     1      14.553   4.764  -6.278  1.00  0.00     0.004 A 
ATOM     15  C   UNL     1      16.974   5.183  -6.837  1.00  0.00     0.044 C 
ENDBRANCH   1   9
BRANCH   6  16
ATOM     16  C   UNL     1      10.927   2.473  -1.038  1.00  0.00     0.153 C 
BRANCH  16  17
ATOM     17  C   UNL     1       9.529   1.975  -1.281  1.00  0.00    -0.029 A 
ATOM     18  C   UNL     1       9.040   0.780  -0.743  1.00  0.00     0.006 A 
ATOM     19  C   UNL     1       8.630   2.859  -1.899  1.00  0.00     0.006 A 
ATOM     20  C   UNL     1       7.672   0.493  -0.804  1.00  0.00     0.004 A 
ATOM     21  C   UNL     1       7.269   2.574  -1.955  1.00  0.00     0.004 A 
ATOM     22  C   UNL     1       6.777   1.393  -1.398  1.00  0.00    -0.051 A 
ATOM     23  C   UNL     1       5.296   1.161  -1.341  1.00  0.00     0.044 C 
ENDBRANCH  16  17
ENDBRANCH   6  16
TORSDOF 3
ENDMDL
MODEL 6
REMARK VINA RESULT:    -4.755      8.492     10.763
REMARK INTER + INTRA:          -5.957
REMARK INTER:                  -5.516
REMARK INTRA:                  -0.441
REMARK UNBOUND:                -0.368
REMARK SMILES Cc1ccc(CNC(=O)NC(=O)c2ccc(C)cc2)cc1
REMARK SMILES IDX 11 1 12 2 10 3 8 4 9 5 7 6 13 9 19 10 18 11 14 12 16 13
REMARK SMILES IDX 15 14 17 15 6 16 5 17 4 18 20 19 3 20 21 21 2 22 1 23
REMARK H PARENT 10 7 7 8
ROOT
ATOM      1  C   UNL     1      16.361   5.361  -7.022  1.00  0.00     0.259 C 
ATOM      2  O   UNL     1      16.876   6.463  -6.896  1.00  0.00    -0.269 OA
ATOM      3  N   UNL     1      16.557   4.413  -8.032  1.00  0.00    -0.274 N 
ATOM      4  C   UNL     1      17.451   4.183  -9.046  1.00  0.00     0.321 C 
ATOM      5  O   UNL     1      17.355   3.118  -9.664  1.00  0.00    -0.248 OA
ATOM      6  N   UNL     1      18.437   5.037  -9.376  1.00  0.00    -0.334 N 
ATOM      7  H   UNL     1      15.998   3.577  -7.933  1.00  0.00     0.175 HD
ATOM      8  H   UNL     1      19.062   4.682 -10.086  1.00  0.00     0.165 HD
ENDROOT
BRANCH   1   9
ATOM      9  C   UNL     1      15.404   4.955  -5.975  1.00  0.00     0.040 A 
ATOM     10  C   UNL     1      14.042   4.814  -6.248  1.00  0.00     0.014 A 
ATOM     11  C   UNL     1      13.184   4.378  -5.238  1.00  0.00     0.004 A 
ATOM     12  C   UNL     1      15.899   4.721  -4.688  1.00  0.00     0.014 A 
ATOM     13  C   UNL     1      13.679   4.090  -3.958  1.00  0.00    -0.051 A 
ATOM     14  C   UNL     1      15.039   4.279  -3.685  1.00  0.00     0.004 A 
ATOM     15  C   UNL     1      12.759   3.541  -2.908  1.00  0.00     0.044 C 
ENDBRANCH   1   9
BRANCH   6  16
ATOM     16  C   UNL     1      18.786   6.268  -8.725  1.00  0.00     0.153 C 
BRANCH  16  17
ATOM     17  C   UNL     1      18.602   7.539  -9.507  1.00  0.00    -0.029 A 
ATOM     18  C   UNL     1      18.411   7.562 -10.892  1.00  0.00     0.006 A 
ATOM     19  C   UNL     1      18.407   8.722  -8.775  1.00  0.00     0.006 A 
ATOM     20  C   UNL     1      18.008   8.743 -11.524  1.00  0.00     0.004 A 
ATOM     21  C   UNL     1      18.002   9.895  -9.404  1.00  0.00     0.004 A 
ATOM     22  C   UNL     1      17.789   9.913 -10.783  1.00  0.00    -0.051 A 
ATOM     23  C   UNL     1      17.222  11.141 -11.430  1.00  0.00     0.044 C 
ENDBRANCH  16  17
ENDBRANCH   6  16
TORSDOF 3
ENDMDL
MODEL 7
REMARK VINA RESULT:    -4.728      5.425      8.405
REMARK INTER + INTRA:          -5.925
REMARK INTER:                  -5.508
REMARK INTRA:                  -0.417
REMARK UNBOUND:                -0.368
REMARK SMILES Cc1ccc(CNC(=O)NC(=O)c2ccc(C)cc2)cc1
REMARK SMILES IDX 11 1 12 2 10 3 8 4 9 5 7 6 13 9 19 10 18 11 14 12 16 13
REMARK SMILES IDX 15 14 17 15 6 16 5 17 4 18 20 19 3 20 21 21 2 22 1 23
REMARK H PARENT 10 7 7 8
ROOT
ATOM      1  C   UNL     1      14.172   7.997   4.540  1.00  0.00     0.259 C 
ATOM      2  O   UNL     1      15.350   7.684   4.644  1.00  0.00    -0.269 OA
ATOM      3  N   UNL     1      13.387   8.756   5.415  1.00  0.00    -0.274 N 
ATOM      4  C   UNL     1      13.582   9.589   6.487  1.00  0.00     0.321 C 
ATOM      5  O   UNL     1      12.600  10.199   6.924  1.00  0.00    -0.248 OA
ATOM      6  N   UNL     1      14.781   9.796   7.061  1.00  0.00    -0.334 N 
ATOM      7  H   UNL     1      12.425   8.865   5.124  1.00  0.00     0.175 HD
ATOM      8  H   UNL     1      14.770  10.503   7.782  1.00  0.00     0.165 HD
ENDROOT
BRANCH   1   9
ATOM      9  C   UNL     1      13.467   7.524   3.333  1.00  0.00     0.040 A 
ATOM     10  C   UNL     1      13.631   8.157   2.100  1.00  0.00     0.014 A 
ATOM     11  C   UNL     1      12.985   7.641   0.976  1.00  0.00     0.004 A 
ATOM     12  C   UNL     1      12.616   6.422   3.459  1.00  0.00     0.014 A 
ATOM     13  C   UNL     1      12.170   6.504   1.081  1.00  0.00    -0.051 A 
ATOM     14  C   UNL     1      11.977   5.906   2.333  1.00  0.00     0.004 A 
ATOM     15  C   UNL     1      11.550   5.912  -0.150  1.00  0.00     0.044 C 
ENDBRANCH   1   9
BRANCH   6  16
ATOM     16  C   UNL     1      16.052   9.272   6.647  1.00  0.00     0.153 C 
BRANCH  16  17
ATOM     17  C   UNL     1      16.946  10.181   5.848  1.00  0.00    -0.029 A 
ATOM     18  C   UNL     1      17.974   9.710   5.026  1.00  0.00     0.006 A 
ATOM     19  C   UNL     1      16.583  11.536   5.773  1.00  0.00     0.006 A 
ATOM     20  C   UNL     1      18.607  10.578   4.130  1.00  0.00     0.004 A 
ATOM     21  C   UNL     1      17.210  12.397   4.878  1.00  0.00     0.004 A 
ATOM     22  C   UNL     1      18.222  11.923   4.041  1.00  0.00    -0.051 A 
ATOM     23  C   UNL     1      18.795  12.822   2.987  1.00  0.00     0.044 C 
ENDBRANCH  16  17
ENDBRANCH   6  16
TORSDOF 3
ENDMDL
MODEL 8
REMARK VINA RESULT:    -4.494      2.215      3.848
REMARK INTER + INTRA:          -5.650
REMARK INTER:                  -5.207
REMARK INTRA:                  -0.443
REMARK UNBOUND:                -0.368
REMARK SMILES Cc1ccc(CNC(=O)NC(=O)c2ccc(C)cc2)cc1
REMARK SMILES IDX 11 1 12 2 10 3 8 4 9 5 7 6 13 9 19 10 18 11 14 12 16 13
REMARK SMILES IDX 15 14 17 15 6 16 5 17 4 18 20 19 3 20 21 21 2 22 1 23
REMARK H PARENT 10 7 7 8
ROOT
ATOM      1  C   UNL     1      11.560   5.903   0.529  1.00  0.00     0.259 C 
ATOM      2  O   UNL     1      11.134   6.055   1.665  1.00  0.00    -0.269 OA
ATOM      3  N   UNL     1      12.613   6.569  -0.108  1.00  0.00    -0.274 N 
ATOM      4  C   UNL     1      13.660   7.381   0.246  1.00  0.00     0.321 C 
ATOM      5  O   UNL     1      14.484   7.668  -0.629  1.00  0.00    -0.248 OA
ATOM      6  N   UNL     1      13.849   7.850   1.494  1.00  0.00    -0.334 N 
ATOM      7  H   UNL     1      12.767   6.285  -1.066  1.00  0.00     0.175 HD
ATOM      8  H   UNL     1      14.712   8.361   1.609  1.00  0.00     0.165 HD
ENDROOT
BRANCH   1   9
ATOM      9  C   UNL     1      10.890   4.880  -0.297  1.00  0.00     0.040 A 
ATOM     10  C   UNL     1      11.366   3.569  -0.360  1.00  0.00     0.014 A 
ATOM     11  C   UNL     1      10.668   2.624  -1.113  1.00  0.00     0.004 A 
ATOM     12  C   UNL     1       9.761   5.263  -1.028  1.00  0.00     0.014 A 
ATOM     13  C   UNL     1       9.504   2.985  -1.808  1.00  0.00    -0.051 A 
ATOM     14  C   UNL     1       9.063   4.314  -1.773  1.00  0.00     0.004 A 
ATOM     15  C   UNL     1       8.719   1.939  -2.543  1.00  0.00     0.044 C 
ENDBRANCH   1   9
BRANCH   6  16
ATOM     16  C   UNL     1      13.077   7.554   2.667  1.00  0.00     0.153 C 
BRANCH  16  17
ATOM     17  C   UNL     1      13.831   7.271   3.936  1.00  0.00    -0.029 A 
ATOM     18  C   UNL     1      14.589   6.111   4.131  1.00  0.00     0.006 A 
ATOM     19  C   UNL     1      13.939   8.316   4.868  1.00  0.00     0.006 A 
ATOM     20  C   UNL     1      15.456   6.017   5.226  1.00  0.00     0.004 A 
ATOM     21  C   UNL     1      14.804   8.223   5.953  1.00  0.00     0.004 A 
ATOM     22  C   UNL     1      15.578   7.076   6.136  1.00  0.00    -0.051 A 
ATOM     23  C   UNL     1      16.606   7.040   7.227  1.00  0.00     0.044 C 
ENDBRANCH  16  17
ENDBRANCH   6  16
TORSDOF 3
ENDMDL
MODEL 9
REMARK VINA RESULT:    -4.464      4.814      7.215
REMARK INTER + INTRA:          -5.614
REMARK INTER:                  -5.172
REMARK INTRA:                  -0.443
REMARK UNBOUND:                -0.368
REMARK SMILES Cc1ccc(CNC(=O)NC(=O)c2ccc(C)cc2)cc1
REMARK SMILES IDX 11 1 12 2 10 3 8 4 9 5 7 6 13 9 19 10 18 11 14 12 16 13
REMARK SMILES IDX 15 14 17 15 6 16 5 17 4 18 20 19 3 20 21 21 2 22 1 23
REMARK H PARENT 10 7 7 8
ROOT
ATOM      1  C   UNL     1      12.897   3.887  -3.328  1.00  0.00     0.259 C 
ATOM      2  O   UNL     1      12.871   3.457  -4.473  1.00  0.00    -0.269 OA
ATOM      3  N   UNL     1      13.946   4.522  -2.656  1.00  0.00    -0.274 N 
ATOM      4  C   UNL     1      15.147   5.104  -2.971  1.00  0.00     0.321 C 
ATOM      5  O   UNL     1      15.750   5.699  -2.071  1.00  0.00    -0.248 OA
ATOM      6  N   UNL     1      15.682   5.085  -4.206  1.00  0.00    -0.334 N 
ATOM      7  H   UNL     1      13.737   4.772  -1.698  1.00  0.00     0.175 HD
ATOM      8  H   UNL     1      16.527   5.631  -4.292  1.00  0.00     0.165 HD
ENDROOT
BRANCH   1   9
ATOM      9  C   UNL     1      11.663   3.729  -2.535  1.00  0.00     0.040 A 
ATOM     10  C   UNL     1      10.703   4.741  -2.473  1.00  0.00     0.014 A 
ATOM     11  C   UNL     1       9.528   4.526  -1.752  1.00  0.00     0.004 A 
ATOM     12  C   UNL     1      11.481   2.532  -1.835  1.00  0.00     0.014 A 
ATOM     13  C   UNL     1       9.312   3.308  -1.089  1.00  0.00    -0.051 A 
ATOM     14  C   UNL     1      10.303   2.319  -1.122  1.00  0.00     0.004 A 
ATOM     15  C   UNL     1       8.008   3.060  -0.390  1.00  0.00     0.044 C 
ENDBRANCH   1   9
BRANCH   6  16
ATOM     16  C   UNL     1      15.102   4.544  -5.403  1.00  0.00     0.153 C 
BRANCH  16  17
ATOM     17  C   UNL     1      15.214   5.367  -6.656  1.00  0.00    -0.029 A 
ATOM     18  C   UNL     1      14.527   6.571  -6.842  1.00  0.00     0.006 A 
ATOM     19  C   UNL     1      16.211   5.007  -7.576  1.00  0.00     0.006 A 
ATOM     20  C   UNL     1      14.854   7.406  -7.916  1.00  0.00     0.004 A 
ATOM     21  C   UNL     1      16.539   5.839  -8.642  1.00  0.00     0.004 A 
ATOM     22  C   UNL     1      15.870   7.052  -8.815  1.00  0.00    -0.051 A 
ATOM     23  C   UNL     1      16.323   8.003  -9.882  1.00  0.00     0.044 C 
ENDBRANCH  16  17
ENDBRANCH   6  16
TORSDOF 3
ENDMDL
