MODEL 1
REMARK VINA RESULT:    -3.984      0.000      0.000
REMARK INTER + INTRA:          -5.547
REMARK INTER:                  -5.265
REMARK INTRA:                  -0.282
REMARK UNBOUND:                -0.282
REMARK SMILES [H]/N=C\C[C@H]1C[C@@H]1O[C@H]1CO[C@H]2C[C@@H](C3CC3)CCN2C1
REMARK SMILES IDX 7 1 6 2 5 3 8 4 9 5 14 6 13 7 18 8 12 9 19 10 20 11 11 12
REMARK SMILES IDX 21 13 10 14 15 15 16 16 17 17 4 18 3 19 2 20 1 21
REMARK H PARENT
ROOT
ATOM      1  C   UNL     1      13.161   3.818  -3.724  1.00  0.00     0.122 C 
ATOM      2  C   UNL     1      12.964   2.836  -4.844  1.00  0.00     0.039 C 
ATOM      3  C   UNL     1      13.242   4.279  -5.153  1.00  0.00     0.026 C 
ENDROOT
BRANCH   1   4
ATOM      4  O   UNL     1      11.955   4.143  -3.008  1.00  0.00    -0.371 OA
BRANCH   4   5
ATOM      5  C   UNL     1      12.003   3.939  -1.586  1.00  0.00     0.158 C 
ATOM      6  C   UNL     1       7.053   2.478  -0.835  1.00  0.00    -0.003 C 
ATOM      7  C   UNL     1       7.772   3.791  -1.167  1.00  0.00     0.052 C 
ATOM      8  C   UNL     1       7.822   1.306  -1.461  1.00  0.00     0.019 C 
ATOM      9  C   UNL     1       9.257   3.741  -0.782  1.00  0.00     0.189 C 
ATOM     10  C   UNL     1       9.299   1.333  -1.066  1.00  0.00     0.087 C 
ATOM     11  N   UNL     1       9.915   2.608  -1.433  1.00  0.00    -0.276 NA
ATOM     12  O   UNL     1       9.824   4.991  -1.179  1.00  0.00    -0.360 OA
ATOM     13  C   UNL     1      11.353   2.618  -1.141  1.00  0.00     0.121 C 
ATOM     14  C   UNL     1      11.228   5.078  -0.915  1.00  0.00     0.195 C 
BRANCH   6  15
ATOM     15  C   UNL     1       5.621   2.492  -1.320  1.00  0.00    -0.008 C 
ATOM     16  C   UNL     1       4.492   2.149  -0.376  1.00  0.00     0.004 C 
ATOM     17  C   UNL     1       4.659   3.560  -0.860  1.00  0.00     0.004 C 
ENDBRANCH   6  15
ENDBRANCH   4   5
ENDBRANCH   1   4
BRANCH   3  18
ATOM     18  C   UNL     1      14.564   4.652  -5.754  1.00  0.00     0.053 C 
BRANCH  18  19
ATOM     19  C   UNL     1      14.567   5.852  -6.665  1.00  0.00     0.074 C 
BRANCH  19  20
ATOM     20  N   UNL     1      14.702   7.082  -6.297  1.00  0.00    -0.313 NA
ATOM     21  H   UNL     1      13.881   7.648  -6.553  1.00  0.00     0.186 HD
ENDBRANCH  19  20
ENDBRANCH  18  19
ENDBRANCH   3  18
TORSDOF 6
ENDMDL
MODEL 2
REMARK VINA RESULT:    -3.977      3.046      5.462
REMARK INTER + INTRA:          -5.537
REMARK INTER:                  -5.232
REMARK INTRA:                  -0.305
REMARK UNBOUND:                -0.282
REMARK SMILES [H]/N=C\C[C@H]1C[C@@H]1O[C@H]1CO[C@H]2C[C@@H](C3CC3)CCN2C1
REMARK SMILES IDX 7 1 6 2 5 3 8 4 9 5 14 6 13 7 18 8 12 9 19 10 20 11 11 12
REMARK SMILES IDX 21 13 10 14 15 15 16 16 17 17 4 18 3 19 2 20 1 21
REMARK H PARENT
ROOT
ATOM      1  C   UNL     1      11.613   6.176   0.954  1.00  0.00     0.122 C 
ATOM      2  C   UNL     1      10.637   6.428   2.069  1.00  0.00     0.039 C 
ATOM      3  C   UNL     1      12.048   6.022   2.386  1.00  0.00     0.026 C 
ENDROOT
BRANCH   1   4
ATOM      4  O   UNL     1      11.366   4.960   0.222  1.00  0.00    -0.371 OA
BRANCH   4   5
ATOM      5  C   UNL     1      11.268   5.106  -1.205  1.00  0.00     0.158 C 
ATOM      6  C   UNL     1       7.760   1.359  -2.135  1.00  0.00    -0.003 C 
ATOM      7  C   UNL     1       9.241   1.403  -1.737  1.00  0.00     0.052 C 
ATOM      8  C   UNL     1       7.037   2.572  -1.532  1.00  0.00     0.019 C 
ATOM      9  C   UNL     1       9.884   2.753  -2.086  1.00  0.00     0.189 C 
ATOM     10  C   UNL     1       7.746   3.878  -1.886  1.00  0.00     0.087 C 
ATOM     11  N   UNL     1       9.145   3.848  -1.459  1.00  0.00    -0.276 NA
ATOM     12  O   UNL     1      11.237   2.690  -1.630  1.00  0.00    -0.360 OA
ATOM     13  C   UNL     1       9.816   5.127  -1.714  1.00  0.00     0.121 C 
ATOM     14  C   UNL     1      11.961   3.904  -1.855  1.00  0.00     0.195 C 
BRANCH   6  15
ATOM     15  C   UNL     1       7.104   0.073  -1.687  1.00  0.00    -0.008 C 
ATOM     16  C   UNL     1       6.329  -0.772  -2.671  1.00  0.00     0.004 C 
ATOM     17  C   UNL     1       7.641  -1.266  -2.133  1.00  0.00     0.004 C 
ENDBRANCH   6  15
ENDBRANCH   4   5
ENDBRANCH   1   4
BRANCH   3  18
ATOM     18  C   UNL     1      12.971   7.027   3.008  1.00  0.00     0.053 C 
BRANCH  18  19
ATOM     19  C   UNL     1      13.976   6.489   3.993  1.00  0.00     0.074 C 
BRANCH  19  20
ATOM     20  N   UNL     1      14.002   5.289   4.468  1.00  0.00    -0.313 NA
ATOM     21  H   UNL     1      13.110   4.798   4.310  1.00  0.00     0.186 HD
ENDBRANCH  19  20
ENDBRANCH  18  19
ENDBRANCH   3  18
TORSDOF 6
ENDMDL
MODEL 3
REMARK VINA RESULT:    -3.921      8.235     10.953
REMARK INTER + INTRA:          -5.464
REMARK INTER:                  -5.340
REMARK INTRA:                  -0.123
REMARK UNBOUND:                -0.282
REMARK SMILES [H]/N=C\C[C@H]1C[C@@H]1O[C@H]1CO[C@H]2C[C@@H](C3CC3)CCN2C1
REMARK SMILES IDX 7 1 6 2 5 3 8 4 9 5 14 6 13 7 18 8 12 9 19 10 20 11 11 12
REMARK SMILES IDX 21 13 10 14 15 15 16 16 17 17 4 18 3 19 2 20 1 21
REMARK H PARENT
ROOT
ATOM      1  C   UNL     1      16.220  10.615   5.658  1.00  0.00     0.122 C 
ATOM      2  C   UNL     1      16.147  11.526   6.851  1.00  0.00     0.039 C 
ATOM      3  C   UNL     1      14.886  10.970   6.254  1.00  0.00     0.026 C 
ENDROOT
BRANCH   1   4
ATOM      4  O   UNL     1      16.576  11.282   4.431  1.00  0.00    -0.371 OA
BRANCH   4   5
ATOM      5  C   UNL     1      17.362  10.507   3.511  1.00  0.00     0.158 C 
ATOM      6  C   UNL     1      13.493   7.918   1.160  1.00  0.00    -0.003 C 
ATOM      7  C   UNL     1      14.165   7.875   2.538  1.00  0.00     0.052 C 
ATOM      8  C   UNL     1      13.513   9.359   0.631  1.00  0.00     0.019 C 
ATOM      9  C   UNL     1      15.561   8.511   2.511  1.00  0.00     0.189 C 
ATOM     10  C   UNL     1      14.924   9.946   0.662  1.00  0.00     0.087 C 
ATOM     11  N   UNL     1      15.487   9.884   2.011  1.00  0.00    -0.276 NA
ATOM     12  O   UNL     1      16.063   8.453   3.847  1.00  0.00    -0.360 OA
ATOM     13  C   UNL     1      16.806  10.522   2.076  1.00  0.00     0.121 C 
ATOM     14  C   UNL     1      17.356   9.051   3.987  1.00  0.00     0.195 C 
BRANCH   6  15
ATOM     15  C   UNL     1      12.076   7.394   1.218  1.00  0.00    -0.008 C 
ATOM     16  C   UNL     1      11.713   6.095   0.536  1.00  0.00     0.004 C 
ATOM     17  C   UNL     1      11.736   6.171   2.035  1.00  0.00     0.004 C 
ENDBRANCH   6  15
ENDBRANCH   4   5
ENDBRANCH   1   4
BRANCH   3  18
ATOM     18  C   UNL     1      14.107   9.947   7.026  1.00  0.00     0.053 C 
BRANCH  18  19
ATOM     19  C   UNL     1      12.657  10.267   7.281  1.00  0.00     0.074 C 
BRANCH  19  20
ATOM     20  N   UNL     1      12.045  10.158   8.413  1.00  0.00    -0.313 NA
ATOM     21  H   UNL     1      12.445  10.788   9.123  1.00  0.00     0.186 HD
ENDBRANCH  19  20
ENDBRANCH  18  19
ENDBRANCH   3  18
TORSDOF 6
ENDMDL
MODEL 4
REMARK VINA RESULT:    -3.909      4.989      8.380
REMARK INTER + INTRA:          -5.447
REMARK INTER:                  -5.274
REMARK INTRA:                  -0.173
REMARK UNBOUND:                -0.282
REMARK SMILES [H]/N=C\C[C@H]1C[C@@H]1O[C@H]1CO[C@H]2C[C@@H](C3CC3)CCN2C1
REMARK SMILES IDX 7 1 6 2 5 3 8 4 9 5 14 6 13 7 18 8 12 9 19 10 20 11 11 12
REMARK SMILES IDX 21 13 10 14 15 15 16 16 17 17 4 18 3 19 2 20 1 21
REMARK H PARENT
ROOT
ATOM      1  C   UNL     1      11.068   4.360  -0.861  1.00  0.00     0.122 C 
ATOM      2  C   UNL     1      11.739   3.700  -2.033  1.00  0.00     0.039 C 
ATOM      3  C   UNL     1      11.305   2.874  -0.856  1.00  0.00     0.026 C 
ENDROOT
BRANCH   1   4
ATOM      4  O   UNL     1      11.953   5.156  -0.050  1.00  0.00    -0.371 OA
BRANCH   4   5
ATOM      5  C   UNL     1      11.387   6.365   0.481  1.00  0.00     0.158 C 
ATOM      6  C   UNL     1      14.965   7.366   4.141  1.00  0.00    -0.003 C 
ATOM      7  C   UNL     1      13.842   6.338   3.955  1.00  0.00     0.052 C 
ATOM      8  C   UNL     1      15.548   7.734   2.770  1.00  0.00     0.019 C 
ATOM      9  C   UNL     1      12.796   6.815   2.939  1.00  0.00     0.189 C 
ATOM     10  C   UNL     1      14.453   8.167   1.795  1.00  0.00     0.087 C 
ATOM     11  N   UNL     1      13.433   7.127   1.659  1.00  0.00    -0.276 NA
ATOM     12  O   UNL     1      11.835   5.764   2.817  1.00  0.00    -0.360 OA
ATOM     13  C   UNL     1      12.421   7.491   0.661  1.00  0.00     0.121 C 
ATOM     14  C   UNL     1      10.807   6.053   1.865  1.00  0.00     0.195 C 
BRANCH   6  15
ATOM     15  C   UNL     1      16.050   6.843   5.056  1.00  0.00    -0.008 C 
ATOM     16  C   UNL     1      16.818   7.788   5.948  1.00  0.00     0.004 C 
ATOM     17  C   UNL     1      15.851   6.812   6.552  1.00  0.00     0.004 C 
ENDBRANCH   6  15
ENDBRANCH   4   5
ENDBRANCH   1   4
BRANCH   3  18
ATOM     18  C   UNL     1      10.155   1.925  -1.019  1.00  0.00     0.053 C 
BRANCH  18  19
ATOM     19  C   UNL     1      10.264   0.615  -0.285  1.00  0.00     0.074 C 
BRANCH  19  20
ATOM     20  N   UNL     1      11.360  -0.011  -0.010  1.00  0.00    -0.313 NA
ATOM     21  H   UNL     1      11.329  -0.989  -0.332  1.00  0.00     0.186 HD
ENDBRANCH  19  20
ENDBRANCH  18  19
ENDBRANCH   3  18
TORSDOF 6
ENDMDL
MODEL 5
REMARK VINA RESULT:    -3.898      2.495      8.456
REMARK INTER + INTRA:          -5.434
REMARK INTER:                  -5.269
REMARK INTRA:                  -0.165
REMARK UNBOUND:                -0.282
REMARK SMILES [H]/N=C\C[C@H]1C[C@@H]1O[C@H]1CO[C@H]2C[C@@H](C3CC3)CCN2C1
REMARK SMILES IDX 7 1 6 2 5 3 8 4 9 5 14 6 13 7 18 8 12 9 19 10 20 11 11 12
REMARK SMILES IDX 21 13 10 14 15 15 16 16 17 17 4 18 3 19 2 20 1 21
REMARK H PARENT
ROOT
ATOM      1  C   UNL     1      11.231   4.104  -1.972  1.00  0.00     0.122 C 
ATOM      2  C   UNL     1      10.898   4.988  -0.803  1.00  0.00     0.039 C 
ATOM      3  C   UNL     1      10.002   4.971  -2.008  1.00  0.00     0.026 C 
ENDROOT
BRANCH   1   4
ATOM      4  O   UNL     1      12.360   4.554  -2.745  1.00  0.00    -0.371 OA
BRANCH   4   5
ATOM      5  C   UNL     1      13.203   3.516  -3.272  1.00  0.00     0.158 C 
ATOM      6  C   UNL     1      15.784   6.331  -6.824  1.00  0.00    -0.003 C 
ATOM      7  C   UNL     1      14.360   5.782  -6.682  1.00  0.00     0.052 C 
ATOM      8  C   UNL     1      16.340   6.666  -5.433  1.00  0.00     0.019 C 
ATOM      9  C   UNL     1      14.295   4.616  -5.686  1.00  0.00     0.189 C 
ATOM     10  C   UNL     1      16.214   5.477  -4.480  1.00  0.00     0.087 C 
ATOM     11  N   UNL     1      14.826   5.026  -4.386  1.00  0.00    -0.276 NA
ATOM     12  O   UNL     1      12.923   4.224  -5.605  1.00  0.00    -0.360 OA
ATOM     13  C   UNL     1      14.675   3.942  -3.409  1.00  0.00     0.121 C 
ATOM     14  C   UNL     1      12.699   3.160  -4.675  1.00  0.00     0.195 C 
BRANCH   6  15
ATOM     15  C   UNL     1      15.822   7.550  -7.718  1.00  0.00    -0.008 C 
ATOM     16  C   UNL     1      17.049   7.852  -8.546  1.00  0.00     0.004 C 
ATOM     17  C   UNL     1      15.784   7.409  -9.221  1.00  0.00     0.004 C 
ENDBRANCH   6  15
ENDBRANCH   4   5
ENDBRANCH   1   4
BRANCH   3  18
ATOM     18  C   UNL     1       8.640   4.356  -1.892  1.00  0.00     0.053 C 
BRANCH  18  19
ATOM     19  C   UNL     1       7.519   5.083  -2.589  1.00  0.00     0.074 C 
BRANCH  19  20
ATOM     20  N   UNL     1       7.496   6.342  -2.875  1.00  0.00    -0.313 NA
ATOM     21  H   UNL     1       7.058   6.895  -2.125  1.00  0.00     0.186 HD
ENDBRANCH  19  20
ENDBRANCH  18  19
ENDBRANCH   3  18
TORSDOF 6
ENDMDL
MODEL 6
REMARK VINA RESULT:    -3.624      4.182      7.075
REMARK INTER + INTRA:          -5.071
REMARK INTER:                  -4.509
REMARK INTRA:                  -0.562
REMARK UNBOUND:                -0.282
REMARK SMILES [H]/N=C\C[C@H]1C[C@@H]1O[C@H]1CO[C@H]2C[C@@H](C3CC3)CCN2C1
REMARK SMILES IDX 7 1 6 2 5 3 8 4 9 5 14 6 13 7 18 8 12 9 19 10 20 11 11 12
REMARK SMILES IDX 21 13 10 14 15 15 16 16 17 17 4 18 3 19 2 20 1 21
REMARK H PARENT
ROOT
ATOM      1  C   UNL     1      18.214   7.827  -3.715  1.00  0.00     0.122 C 
ATOM      2  C   UNL     1      18.417   9.307  -3.876  1.00  0.00     0.039 C 
ATOM      3  C   UNL     1      17.295   8.793  -3.020  1.00  0.00     0.026 C 
ENDROOT
BRANCH   1   4
ATOM      4  O   UNL     1      17.695   7.174  -4.889  1.00  0.00    -0.371 OA
BRANCH   4   5
ATOM      5  C   UNL     1      18.000   5.774  -5.006  1.00  0.00     0.158 C 
ATOM      6  C   UNL     1      13.314   3.849  -3.762  1.00  0.00    -0.003 C 
ATOM      7  C   UNL     1      14.455   4.537  -3.004  1.00  0.00     0.052 C 
ATOM      8  C   UNL     1      13.258   4.393  -5.197  1.00  0.00     0.019 C 
ATOM      9  C   UNL     1      15.785   4.440  -3.763  1.00  0.00     0.189 C 
ATOM     10  C   UNL     1      14.619   4.299  -5.884  1.00  0.00     0.087 C 
ATOM     11  N   UNL     1      15.646   4.995  -5.109  1.00  0.00    -0.276 NA
ATOM     12  O   UNL     1      16.752   5.151  -2.987  1.00  0.00    -0.360 OA
ATOM     13  C   UNL     1      16.941   4.987  -5.799  1.00  0.00     0.121 C 
ATOM     14  C   UNL     1      18.047   5.178  -3.595  1.00  0.00     0.195 C 
BRANCH   6  15
ATOM     15  C   UNL     1      11.987   4.046  -3.067  1.00  0.00    -0.008 C 
ATOM     16  C   UNL     1      11.527   3.073  -2.007  1.00  0.00     0.004 C 
ATOM     17  C   UNL     1      11.927   4.466  -1.618  1.00  0.00     0.004 C 
ENDBRANCH   6  15
ENDBRANCH   4   5
ENDBRANCH   1   4
BRANCH   3  18
ATOM     18  C   UNL     1      17.373   8.975  -1.534  1.00  0.00     0.053 C 
BRANCH  18  19
ATOM     19  C   UNL     1      16.337   8.248  -0.718  1.00  0.00     0.074 C 
BRANCH  19  20
ATOM     20  N   UNL     1      15.633   7.239  -1.113  1.00  0.00    -0.313 NA
ATOM     21  H   UNL     1      15.992   6.353  -0.732  1.00  0.00     0.186 HD
ENDBRANCH  19  20
ENDBRANCH  18  19
ENDBRANCH   3  18
TORSDOF 6
ENDMDL
MODEL 7
REMARK VINA RESULT:    -3.615      5.575      7.099
REMARK INTER + INTRA:          -5.060
REMARK INTER:                  -4.591
REMARK INTRA:                  -0.469
REMARK UNBOUND:                -0.282
REMARK SMILES [H]/N=C\C[C@H]1C[C@@H]1O[C@H]1CO[C@H]2C[C@@H](C3CC3)CCN2C1
REMARK SMILES IDX 7 1 6 2 5 3 8 4 9 5 14 6 13 7 18 8 12 9 19 10 20 11 11 12
REMARK SMILES IDX 21 13 10 14 15 15 16 16 17 17 4 18 3 19 2 20 1 21
REMARK H PARENT
ROOT
ATOM      1  C   UNL     1      17.364   8.885   0.842  1.00  0.00     0.122 C 
ATOM      2  C   UNL     1      18.795   8.443   0.967  1.00  0.00     0.039 C 
ATOM      3  C   UNL     1      17.820   7.613   0.182  1.00  0.00     0.026 C 
ENDROOT
BRANCH   1   4
ATOM      4  O   UNL     1      16.598   8.745   2.054  1.00  0.00    -0.371 OA
BRANCH   4   5
ATOM      5  C   UNL     1      15.473   9.630   2.181  1.00  0.00     0.158 C 
ATOM      6  C   UNL     1      11.687   6.269   0.925  1.00  0.00    -0.003 C 
ATOM      7  C   UNL     1      12.803   7.000   0.168  1.00  0.00     0.052 C 
ATOM      8  C   UNL     1      12.157   5.968   2.355  1.00  0.00     0.019 C 
ATOM      9  C   UNL     1      13.299   8.232   0.936  1.00  0.00     0.189 C 
ATOM     10  C   UNL     1      12.671   7.228   3.051  1.00  0.00     0.087 C 
ATOM     11  N   UNL     1      13.743   7.854   2.277  1.00  0.00    -0.276 NA
ATOM     12  O   UNL     1      14.359   8.797   0.160  1.00  0.00    -0.360 OA
ATOM     13  C   UNL     1      14.306   9.016   2.974  1.00  0.00     0.121 C 
ATOM     14  C   UNL     1      14.953   9.944   0.775  1.00  0.00     0.195 C 
BRANCH   6  15
ATOM     15  C   UNL     1      11.281   4.994   0.221  1.00  0.00    -0.008 C 
ATOM     16  C   UNL     1      10.252   5.027  -0.884  1.00  0.00     0.004 C 
ATOM     17  C   UNL     1      11.688   4.738  -1.210  1.00  0.00     0.004 C 
ENDBRANCH   6  15
ENDBRANCH   4   5
ENDBRANCH   1   4
BRANCH   3  18
ATOM     18  C   UNL     1      17.961   7.544  -1.309  1.00  0.00     0.053 C 
BRANCH  18  19
ATOM     19  C   UNL     1      16.876   6.804  -2.047  1.00  0.00     0.074 C 
BRANCH  19  20
ATOM     20  N   UNL     1      15.663   6.631  -1.637  1.00  0.00    -0.313 NA
ATOM     21  H   UNL     1      14.980   6.807  -2.387  1.00  0.00     0.186 HD
ENDBRANCH  19  20
ENDBRANCH  18  19
ENDBRANCH   3  18
TORSDOF 6
ENDMDL
MODEL 8
REMARK VINA RESULT:    -3.315      6.505      9.999
REMARK INTER + INTRA:          -4.662
REMARK INTER:                  -4.433
REMARK INTRA:                  -0.230
REMARK UNBOUND:                -0.282
REMARK SMILES [H]/N=C\C[C@H]1C[C@@H]1O[C@H]1CO[C@H]2C[C@@H](C3CC3)CCN2C1
REMARK SMILES IDX 7 1 6 2 5 3 8 4 9 5 14 6 13 7 18 8 12 9 19 10 20 11 11 12
REMARK SMILES IDX 21 13 10 14 15 15 16 16 17 17 4 18 3 19 2 20 1 21
REMARK H PARENT
ROOT
ATOM      1  C   UNL     1      15.279   8.448  -0.035  1.00  0.00     0.122 C 
ATOM      2  C   UNL     1      14.233   9.527  -0.038  1.00  0.00     0.039 C 
ATOM      3  C   UNL     1      13.943   8.204   0.611  1.00  0.00     0.026 C 
ENDROOT
BRANCH   1   4
ATOM      4  O   UNL     1      15.495   7.835  -1.321  1.00  0.00    -0.371 OA
BRANCH   4   5
ATOM      5  C   UNL     1      16.851   7.457  -1.607  1.00  0.00     0.158 C 
ATOM      6  C   UNL     1      16.703   7.885  -6.803  1.00  0.00    -0.003 C 
ATOM      7  C   UNL     1      16.131   6.913  -5.764  1.00  0.00     0.052 C 
ATOM      8  C   UNL     1      16.772   9.293  -6.195  1.00  0.00     0.019 C 
ATOM      9  C   UNL     1      16.896   6.983  -4.436  1.00  0.00     0.189 C 
ATOM     10  C   UNL     1      17.515   9.289  -4.860  1.00  0.00     0.087 C 
ATOM     11  N   UNL     1      16.898   8.353  -3.920  1.00  0.00    -0.276 NA
ATOM     12  O   UNL     1      16.248   6.075  -3.543  1.00  0.00    -0.360 OA
ATOM     13  C   UNL     1      17.546   8.400  -2.605  1.00  0.00     0.121 C 
ATOM     14  C   UNL     1      16.833   6.060  -2.237  1.00  0.00     0.195 C 
BRANCH   6  15
ATOM     15  C   UNL     1      15.876   7.894  -8.069  1.00  0.00    -0.008 C 
ATOM     16  C   UNL     1      16.549   7.838  -9.421  1.00  0.00     0.004 C 
ATOM     17  C   UNL     1      15.763   6.657  -8.928  1.00  0.00     0.004 C 
ENDBRANCH   6  15
ENDBRANCH   4   5
ENDBRANCH   1   4
BRANCH   3  18
ATOM     18  C   UNL     1      13.826   8.138   2.105  1.00  0.00     0.053 C 
BRANCH  18  19
ATOM     19  C   UNL     1      12.979   7.022   2.658  1.00  0.00     0.074 C 
BRANCH  19  20
ATOM     20  N   UNL     1      11.998   6.443   2.050  1.00  0.00    -0.313 NA
ATOM     21  H   UNL     1      11.993   5.427   2.219  1.00  0.00     0.186 HD
ENDBRANCH  19  20
ENDBRANCH  18  19
ENDBRANCH   3  18
TORSDOF 6
ENDMDL
MODEL 9
REMARK VINA RESULT:    -3.309      6.343      8.051
REMARK INTER + INTRA:          -4.655
REMARK INTER:                  -4.640
REMARK INTRA:                  -0.015
REMARK UNBOUND:                -0.282
REMARK SMILES [H]/N=C\C[C@H]1C[C@@H]1O[C@H]1CO[C@H]2C[C@@H](C3CC3)CCN2C1
REMARK SMILES IDX 7 1 6 2 5 3 8 4 9 5 14 6 13 7 18 8 12 9 19 10 20 11 11 12
REMARK SMILES IDX 21 13 10 14 15 15 16 16 17 17 4 18 3 19 2 20 1 21
REMARK H PARENT
ROOT
ATOM      1  C   UNL     1      17.211  10.008  -0.753  1.00  0.00     0.122 C 
ATOM      2  C   UNL     1      18.454  10.320  -1.537  1.00  0.00     0.039 C 
ATOM      3  C   UNL     1      17.989   8.898  -1.405  1.00  0.00     0.026 C 
ENDROOT
BRANCH   1   4
ATOM      4  O   UNL     1      17.363  10.151   0.672  1.00  0.00    -0.371 OA
BRANCH   4   5
ATOM      5  C   UNL     1      16.405  11.008   1.315  1.00  0.00     0.158 C 
ATOM      6  C   UNL     1      12.700   7.462   2.265  1.00  0.00    -0.003 C 
ATOM      7  C   UNL     1      13.242   8.178   1.022  1.00  0.00     0.052 C 
ATOM      8  C   UNL     1      13.840   7.265   3.275  1.00  0.00     0.019 C 
ATOM      9  C   UNL     1      13.984   9.470   1.387  1.00  0.00     0.189 C 
ATOM     10  C   UNL     1      14.559   8.581   3.569  1.00  0.00     0.087 C 
ATOM     11  N   UNL     1      15.061   9.189   2.337  1.00  0.00    -0.276 NA
ATOM     12  O   UNL     1      14.478  10.017   0.163  1.00  0.00    -0.360 OA
ATOM     13  C   UNL     1      15.829  10.409   2.610  1.00  0.00     0.121 C 
ATOM     14  C   UNL     1      15.233  11.218   0.350  1.00  0.00     0.195 C 
BRANCH   6  15
ATOM     15  C   UNL     1      12.070   6.134   1.911  1.00  0.00    -0.008 C 
ATOM     16  C   UNL     1      10.572   6.016   1.758  1.00  0.00     0.004 C 
ATOM     17  C   UNL     1      11.456   5.908   0.550  1.00  0.00     0.004 C 
ENDBRANCH   6  15
ENDBRANCH   4   5
ENDBRANCH   1   4
BRANCH   3  18
ATOM     18  C   UNL     1      17.440   8.198  -2.612  1.00  0.00     0.053 C 
BRANCH  18  19
ATOM     19  C   UNL     1      17.161   6.725  -2.459  1.00  0.00     0.074 C 
BRANCH  19  20
ATOM     20  N   UNL     1      17.021   6.093  -1.342  1.00  0.00    -0.313 NA
ATOM     21  H   UNL     1      17.553   6.542  -0.582  1.00  0.00     0.186 HD
ENDBRANCH  19  20
ENDBRANCH  18  19
ENDBRANCH   3  18
TORSDOF 6
ENDMDL
