MODEL 1
REMARK VINA RESULT:    -4.257      0.000      0.000
REMARK INTER + INTRA:          -5.881
REMARK INTER:                  -5.625
REMARK INTRA:                  -0.256
REMARK UNBOUND:                -0.256
REMARK SMILES [H]/N=C\C[C@H]1C[C@@H]1O[C@H]1CO[C@H]2C[C@@H](C3CC3)CCN2C1
REMARK SMILES IDX 7 1 6 2 5 3 8 4 9 5 14 6 13 7 18 8 12 9 19 10 20 11 11 12
REMARK SMILES IDX 21 13 10 14 15 15 16 16 17 17 4 18 3 19 2 20 1 21
REMARK H PARENT
ROOT
ATOM      1  C   UNL     1       8.832  -0.765 -12.747  1.00  0.00     0.122 C 
ATOM      2  C   UNL     1       9.199   0.047 -13.958  1.00  0.00     0.039 C 
ATOM      3  C   UNL     1      10.005   0.176 -12.697  1.00  0.00     0.026 C 
ENDROOT
BRANCH   1   4
ATOM      4  O   UNL     1       7.627  -0.328 -12.091  1.00  0.00    -0.371 OA
BRANCH   4   5
ATOM      5  C   UNL     1       6.398  -0.732 -12.717  1.00  0.00     0.158 C 
ATOM      6  C   UNL     1       3.654  -1.831  -8.419  1.00  0.00    -0.003 C 
ATOM      7  C   UNL     1       4.824  -2.478  -9.171  1.00  0.00     0.052 C 
ATOM      8  C   UNL     1       3.731  -0.306  -8.577  1.00  0.00     0.019 C 
ATOM      9  C   UNL     1       4.898  -2.003 -10.628  1.00  0.00     0.189 C 
ATOM     10  C   UNL     1       3.837   0.099 -10.047  1.00  0.00     0.087 C 
ATOM     11  N   UNL     1       4.986  -0.544 -10.685  1.00  0.00    -0.276 NA
ATOM     12  O   UNL     1       6.044  -2.632 -11.205  1.00  0.00    -0.360 OA
ATOM     13  C   UNL     1       5.152  -0.098 -12.073  1.00  0.00     0.121 C 
ATOM     14  C   UNL     1       6.265  -2.251 -12.567  1.00  0.00     0.195 C 
BRANCH   6  15
ATOM     15  C   UNL     1       3.655  -2.214  -6.956  1.00  0.00    -0.008 C 
ATOM     16  C   UNL     1       2.396  -2.735  -6.303  1.00  0.00     0.004 C 
ATOM     17  C   UNL     1       3.555  -3.660  -6.535  1.00  0.00     0.004 C 
ENDBRANCH   6  15
ENDBRANCH   4   5
ENDBRANCH   1   4
BRANCH   3  18
ATOM     18  C   UNL     1      11.404  -0.363 -12.672  1.00  0.00     0.053 C 
BRANCH  18  19
ATOM     19  C   UNL     1      12.306   0.072 -13.797  1.00  0.00     0.074 C 
BRANCH  19  20
ATOM     20  N   UNL     1      12.881   1.223 -13.905  1.00  0.00    -0.313 NA
ATOM     21  H   UNL     1      12.909   1.720 -13.004  1.00  0.00     0.186 HD
ENDBRANCH  19  20
ENDBRANCH  18  19
ENDBRANCH   3  18
TORSDOF 6
ENDMDL
MODEL 2
REMARK VINA RESULT:    -4.183      3.350      5.629
REMARK INTER + INTRA:          -5.784
REMARK INTER:                  -5.613
REMARK INTRA:                  -0.171
REMARK UNBOUND:                -0.256
REMARK SMILES [H]/N=C\C[C@H]1C[C@@H]1O[C@H]1CO[C@H]2C[C@@H](C3CC3)CCN2C1
REMARK SMILES IDX 7 1 6 2 5 3 8 4 9 5 14 6 13 7 18 8 12 9 19 10 20 11 11 12
REMARK SMILES IDX 21 13 10 14 15 15 16 16 17 17 4 18 3 19 2 20 1 21
REMARK H PARENT
ROOT
ATOM      1  C   UNL     1       4.979  -3.571 -14.270  1.00  0.00     0.122 C 
ATOM      2  C   UNL     1       5.678  -4.727 -14.928  1.00  0.00     0.039 C 
ATOM      3  C   UNL     1       4.178  -4.697 -14.864  1.00  0.00     0.026 C 
ENDROOT
BRANCH   1   4
ATOM      4  O   UNL     1       5.099  -3.552 -12.835  1.00  0.00    -0.371 OA
BRANCH   4   5
ATOM      5  C   UNL     1       6.385  -3.160 -12.325  1.00  0.00     0.158 C 
ATOM      6  C   UNL     1       4.781  -0.282  -8.282  1.00  0.00    -0.003 C 
ATOM      7  C   UNL     1       4.789  -0.125  -9.807  1.00  0.00     0.052 C 
ATOM      8  C   UNL     1       4.615  -1.766  -7.926  1.00  0.00     0.019 C 
ATOM      9  C   UNL     1       5.822  -1.046 -10.470  1.00  0.00     0.189 C 
ATOM     10  C   UNL     1       5.651  -2.632  -8.643  1.00  0.00     0.087 C 
ATOM     11  N   UNL     1       5.581  -2.439 -10.092  1.00  0.00    -0.276 NA
ATOM     12  O   UNL     1       5.704  -0.846 -11.880  1.00  0.00    -0.360 OA
ATOM     13  C   UNL     1       6.509  -3.327 -10.801  1.00  0.00     0.121 C 
ATOM     14  C   UNL     1       6.588  -1.674 -12.640  1.00  0.00     0.195 C 
BRANCH   6  15
ATOM     15  C   UNL     1       3.685   0.542  -7.645  1.00  0.00    -0.008 C 
ATOM     16  C   UNL     1       3.919   1.232  -6.322  1.00  0.00     0.004 C 
ATOM     17  C   UNL     1       3.789   2.046  -7.576  1.00  0.00     0.004 C 
ENDBRANCH   6  15
ENDBRANCH   4   5
ENDBRANCH   1   4
BRANCH   3  18
ATOM     18  C   UNL     1       3.401  -4.486 -16.129  1.00  0.00     0.053 C 
BRANCH  18  19
ATOM     19  C   UNL     1       3.726  -5.411 -17.272  1.00  0.00     0.074 C 
BRANCH  19  20
ATOM     20  N   UNL     1       3.129  -6.526 -17.538  1.00  0.00    -0.313 NA
ATOM     21  H   UNL     1       2.180  -6.370 -17.906  1.00  0.00     0.186 HD
ENDBRANCH  19  20
ENDBRANCH  18  19
ENDBRANCH   3  18
TORSDOF 6
ENDMDL
MODEL 3
REMARK VINA RESULT:    -3.792      4.540      7.235
REMARK INTER + INTRA:          -5.267
REMARK INTER:                  -5.211
REMARK INTRA:                  -0.056
REMARK UNBOUND:                -0.256
REMARK SMILES [H]/N=C\C[C@H]1C[C@@H]1O[C@H]1CO[C@H]2C[C@@H](C3CC3)CCN2C1
REMARK SMILES IDX 7 1 6 2 5 3 8 4 9 5 14 6 13 7 18 8 12 9 19 10 20 11 11 12
REMARK SMILES IDX 21 13 10 14 15 15 16 16 17 17 4 18 3 19 2 20 1 21
REMARK H PARENT
ROOT
ATOM      1  C   UNL     1      12.433  -2.910 -17.938  1.00  0.00     0.122 C 
ATOM      2  C   UNL     1      13.729  -2.511 -18.586  1.00  0.00     0.039 C 
ATOM      3  C   UNL     1      13.601  -3.858 -17.934  1.00  0.00     0.026 C 
ENDROOT
BRANCH   1   4
ATOM      4  O   UNL     1      12.157  -2.221 -16.704  1.00  0.00    -0.371 OA
BRANCH   4   5
ATOM      5  C   UNL     1      11.916  -0.809 -16.822  1.00  0.00     0.158 C 
ATOM      6  C   UNL     1       8.463  -0.278 -12.949  1.00  0.00    -0.003 C 
ATOM      7  C   UNL     1       8.453  -0.897 -14.352  1.00  0.00     0.052 C 
ATOM      8  C   UNL     1       9.866  -0.421 -12.341  1.00  0.00     0.019 C 
ATOM      9  C   UNL     1       9.577  -0.332 -15.232  1.00  0.00     0.189 C 
ATOM     10  C   UNL     1      10.940   0.128 -13.280  1.00  0.00     0.087 C 
ATOM     11  N   UNL     1      10.876  -0.526 -14.587  1.00  0.00    -0.276 NA
ATOM     12  O   UNL     1       9.494  -1.012 -16.486  1.00  0.00    -0.360 OA
ATOM     13  C   UNL     1      11.955  -0.072 -15.472  1.00  0.00     0.121 C 
ATOM     14  C   UNL     1      10.514  -0.614 -17.408  1.00  0.00     0.195 C 
BRANCH   6  15
ATOM     15  C   UNL     1       7.428  -0.919 -12.052  1.00  0.00    -0.008 C 
ATOM     16  C   UNL     1       5.971  -0.543 -12.177  1.00  0.00     0.004 C 
ATOM     17  C   UNL     1       6.429  -1.906 -12.606  1.00  0.00     0.004 C 
ENDBRANCH   6  15
ENDBRANCH   4   5
ENDBRANCH   1   4
BRANCH   3  18
ATOM     18  C   UNL     1      13.581  -5.084 -18.797  1.00  0.00     0.053 C 
BRANCH  18  19
ATOM     19  C   UNL     1      14.727  -6.045 -18.616  1.00  0.00     0.074 C 
BRANCH  19  20
ATOM     20  N   UNL     1      14.688  -7.154 -17.955  1.00  0.00    -0.313 NA
ATOM     21  H   UNL     1      13.824  -7.236 -17.402  1.00  0.00     0.186 HD
ENDBRANCH  19  20
ENDBRANCH  18  19
ENDBRANCH   3  18
TORSDOF 6
ENDMDL
MODEL 4
REMARK VINA RESULT:    -3.778      4.274      7.241
REMARK INTER + INTRA:          -5.249
REMARK INTER:                  -4.699
REMARK INTRA:                  -0.550
REMARK UNBOUND:                -0.256
REMARK SMILES [H]/N=C\C[C@H]1C[C@@H]1O[C@H]1CO[C@H]2C[C@@H](C3CC3)CCN2C1
REMARK SMILES IDX 7 1 6 2 5 3 8 4 9 5 14 6 13 7 18 8 12 9 19 10 20 11 11 12
REMARK SMILES IDX 21 13 10 14 15 15 16 16 17 17 4 18 3 19 2 20 1 21
REMARK H PARENT
ROOT
ATOM      1  C   UNL     1      12.299  -1.924 -18.286  1.00  0.00     0.122 C 
ATOM      2  C   UNL     1      12.945  -3.264 -18.501  1.00  0.00     0.039 C 
ATOM      3  C   UNL     1      11.480  -3.181 -18.182  1.00  0.00     0.026 C 
ENDROOT
BRANCH   1   4
ATOM      4  O   UNL     1      12.666  -1.288 -17.047  1.00  0.00    -0.371 OA
BRANCH   4   5
ATOM      5  C   UNL     1      12.336   0.106 -16.945  1.00  0.00     0.158 C 
ATOM      6  C   UNL     1       8.861  -0.193 -13.066  1.00  0.00    -0.003 C 
ATOM      7  C   UNL     1       8.888  -0.583 -14.549  1.00  0.00     0.052 C 
ATOM      8  C   UNL     1      10.270  -0.342 -12.476  1.00  0.00     0.019 C 
ATOM      9  C   UNL     1       9.973   0.181 -15.320  1.00  0.00     0.189 C 
ATOM     10  C   UNL     1      11.307   0.413 -13.308  1.00  0.00     0.087 C 
ATOM     11  N   UNL     1      11.282  -0.029 -14.702  1.00  0.00    -0.276 NA
ATOM     12  O   UNL     1       9.932  -0.297 -16.666  1.00  0.00    -0.360 OA
ATOM     13  C   UNL     1      12.330   0.624 -15.495  1.00  0.00     0.121 C 
ATOM     14  C   UNL     1      10.923   0.304 -17.504  1.00  0.00     0.195 C 
BRANCH   6  15
ATOM     15  C   UNL     1       7.869  -1.030 -12.290  1.00  0.00    -0.008 C 
ATOM     16  C   UNL     1       6.418  -0.619 -12.214  1.00  0.00     0.004 C 
ATOM     17  C   UNL     1       6.810  -1.834 -13.004  1.00  0.00     0.004 C 
ENDBRANCH   6  15
ENDBRANCH   4   5
ENDBRANCH   1   4
BRANCH   3  18
ATOM     18  C   UNL     1      10.483  -3.524 -19.248  1.00  0.00     0.053 C 
BRANCH  18  19
ATOM     19  C   UNL     1       9.040  -3.226 -18.932  1.00  0.00     0.074 C 
BRANCH  19  20
ATOM     20  N   UNL     1       8.599  -2.175 -18.325  1.00  0.00    -0.313 NA
ATOM     21  H   UNL     1       7.570  -2.160 -18.290  1.00  0.00     0.186 HD
ENDBRANCH  19  20
ENDBRANCH  18  19
ENDBRANCH   3  18
TORSDOF 6
ENDMDL
MODEL 5
REMARK VINA RESULT:    -3.503      5.489      8.723
REMARK INTER + INTRA:          -4.885
REMARK INTER:                  -4.529
REMARK INTRA:                  -0.357
REMARK UNBOUND:                -0.256
REMARK SMILES [H]/N=C\C[C@H]1C[C@@H]1O[C@H]1CO[C@H]2C[C@@H](C3CC3)CCN2C1
REMARK SMILES IDX 7 1 6 2 5 3 8 4 9 5 14 6 13 7 18 8 12 9 19 10 20 11 11 12
REMARK SMILES IDX 21 13 10 14 15 15 16 16 17 17 4 18 3 19 2 20 1 21
REMARK H PARENT
ROOT
ATOM      1  C   UNL     1      13.716  -2.661 -18.274  1.00  0.00     0.122 C 
ATOM      2  C   UNL     1      13.614  -3.500 -17.031  1.00  0.00     0.039 C 
ATOM      3  C   UNL     1      13.698  -4.161 -18.377  1.00  0.00     0.026 C 
ENDROOT
BRANCH   1   4
ATOM      4  O   UNL     1      12.497  -1.976 -18.622  1.00  0.00    -0.371 OA
BRANCH   4   5
ATOM      5  C   UNL     1      12.569  -0.541 -18.617  1.00  0.00     0.158 C 
ATOM      6  C   UNL     1      10.770   0.316 -13.796  1.00  0.00    -0.003 C 
ATOM      7  C   UNL     1      10.165  -0.140 -15.130  1.00  0.00     0.052 C 
ATOM      8  C   UNL     1      12.218  -0.185 -13.699  1.00  0.00     0.019 C 
ATOM      9  C   UNL     1      11.046   0.259 -16.322  1.00  0.00     0.189 C 
ATOM     10  C   UNL     1      13.031   0.216 -14.930  1.00  0.00     0.087 C 
ATOM     11  N   UNL     1      12.399  -0.272 -16.156  1.00  0.00    -0.276 NA
ATOM     12  O   UNL     1      10.407  -0.256 -17.492  1.00  0.00    -0.360 OA
ATOM     13  C   UNL     1      13.212   0.029 -17.340  1.00  0.00     0.121 C 
ATOM     14  C   UNL     1      11.141   0.008 -18.692  1.00  0.00     0.195 C 
BRANCH   6  15
ATOM     15  C   UNL     1       9.958  -0.178 -12.621  1.00  0.00    -0.008 C 
ATOM     16  C   UNL     1       8.990   0.745 -11.919  1.00  0.00     0.004 C 
ATOM     17  C   UNL     1       8.469  -0.395 -12.745  1.00  0.00     0.004 C 
ENDBRANCH   6  15
ENDBRANCH   4   5
ENDBRANCH   1   4
BRANCH   3  18
ATOM     18  C   UNL     1      14.946  -4.908 -18.742  1.00  0.00     0.053 C 
BRANCH  18  19
ATOM     19  C   UNL     1      14.810  -6.401 -18.889  1.00  0.00     0.074 C 
BRANCH  19  20
ATOM     20  N   UNL     1      14.654  -7.246 -17.925  1.00  0.00    -0.313 NA
ATOM     21  H   UNL     1      15.351  -7.106 -17.181  1.00  0.00     0.186 HD
ENDBRANCH  19  20
ENDBRANCH  18  19
ENDBRANCH   3  18
TORSDOF 6
ENDMDL
MODEL 6
REMARK VINA RESULT:    -3.482      3.119      4.307
REMARK INTER + INTRA:          -4.858
REMARK INTER:                  -5.658
REMARK INTRA:                   0.800
REMARK UNBOUND:                -0.256
REMARK SMILES [H]/N=C\C[C@H]1C[C@@H]1O[C@H]1CO[C@H]2C[C@@H](C3CC3)CCN2C1
REMARK SMILES IDX 7 1 6 2 5 3 8 4 9 5 14 6 13 7 18 8 12 9 19 10 20 11 11 12
REMARK SMILES IDX 21 13 10 14 15 15 16 16 17 17 4 18 3 19 2 20 1 21
REMARK H PARENT
ROOT
ATOM      1  C   UNL     1       5.341  -3.934 -13.635  1.00  0.00     0.122 C 
ATOM      2  C   UNL     1       4.181  -4.742 -14.144  1.00  0.00     0.039 C 
ATOM      3  C   UNL     1       5.268  -4.315 -15.088  1.00  0.00     0.026 C 
ENDROOT
BRANCH   1   4
ATOM      4  O   UNL     1       5.009  -2.571 -13.309  1.00  0.00    -0.371 OA
BRANCH   4   5
ATOM      5  C   UNL     1       6.095  -1.771 -12.813  1.00  0.00     0.158 C 
ATOM      6  C   UNL     1       5.092  -2.163  -7.710  1.00  0.00    -0.003 C 
ATOM      7  C   UNL     1       4.454  -1.440  -8.902  1.00  0.00     0.052 C 
ATOM      8  C   UNL     1       5.718  -3.480  -8.191  1.00  0.00     0.019 C 
ATOM      9  C   UNL     1       5.442  -1.275 -10.064  1.00  0.00     0.189 C 
ATOM     10  C   UNL     1       6.664  -3.251  -9.369  1.00  0.00     0.087 C 
ATOM     11  N   UNL     1       5.976  -2.576 -10.469  1.00  0.00    -0.276 NA
ATOM     12  O   UNL     1       4.726  -0.636 -11.123  1.00  0.00    -0.360 OA
ATOM     13  C   UNL     1       6.846  -2.427 -11.641  1.00  0.00     0.121 C 
ATOM     14  C   UNL     1       5.516  -0.448 -12.300  1.00  0.00     0.195 C 
BRANCH   6  15
ATOM     15  C   UNL     1       4.083  -2.424  -6.614  1.00  0.00    -0.008 C 
ATOM     16  C   UNL     1       2.603  -2.332  -6.901  1.00  0.00     0.004 C 
ATOM     17  C   UNL     1       3.229  -3.669  -6.629  1.00  0.00     0.004 C 
ENDBRANCH   6  15
ENDBRANCH   4   5
ENDBRANCH   1   4
BRANCH   3  18
ATOM     18  C   UNL     1       6.196  -5.354 -15.645  1.00  0.00     0.053 C 
BRANCH  18  19
ATOM     19  C   UNL     1       7.268  -4.857 -16.579  1.00  0.00     0.074 C 
BRANCH  19  20
ATOM     20  N   UNL     1       7.981  -3.792 -16.415  1.00  0.00    -0.313 NA
ATOM     21  H   UNL     1       7.969  -3.474 -15.436  1.00  0.00     0.186 HD
ENDBRANCH  19  20
ENDBRANCH  18  19
ENDBRANCH   3  18
TORSDOF 6
ENDMDL
MODEL 7
REMARK VINA RESULT:    -3.308      5.250      8.414
REMARK INTER + INTRA:          -4.627
REMARK INTER:                  -4.028
REMARK INTRA:                  -0.600
REMARK UNBOUND:                -0.256
REMARK SMILES [H]/N=C\C[C@H]1C[C@@H]1O[C@H]1CO[C@H]2C[C@@H](C3CC3)CCN2C1
REMARK SMILES IDX 7 1 6 2 5 3 8 4 9 5 14 6 13 7 18 8 12 9 19 10 20 11 11 12
REMARK SMILES IDX 21 13 10 14 15 15 16 16 17 17 4 18 3 19 2 20 1 21
REMARK H PARENT
ROOT
ATOM      1  C   UNL     1      10.488  -3.552 -19.284  1.00  0.00     0.122 C 
ATOM      2  C   UNL     1      10.785  -4.983 -19.633  1.00  0.00     0.039 C 
ATOM      3  C   UNL     1      10.004  -4.662 -18.391  1.00  0.00     0.026 C 
ENDROOT
BRANCH   1   4
ATOM      4  O   UNL     1      11.633  -2.809 -18.826  1.00  0.00    -0.371 OA
BRANCH   4   5
ATOM      5  C   UNL     1      11.586  -1.392 -19.059  1.00  0.00     0.158 C 
ATOM      6  C   UNL     1      10.395   0.158 -14.224  1.00  0.00    -0.003 C 
ATOM      7  C   UNL     1       9.654  -0.552 -15.363  1.00  0.00     0.052 C 
ATOM      8  C   UNL     1      11.879  -0.232 -14.264  1.00  0.00     0.019 C 
ATOM      9  C   UNL     1      10.328  -0.308 -16.720  1.00  0.00     0.189 C 
ATOM     10  C   UNL     1      12.481   0.002 -15.649  1.00  0.00     0.087 C 
ATOM     11  N   UNL     1      11.731  -0.722 -16.675  1.00  0.00    -0.276 NA
ATOM     12  O   UNL     1       9.582  -1.050 -17.687  1.00  0.00    -0.360 OA
ATOM     13  C   UNL     1      12.347  -0.577 -17.999  1.00  0.00     0.121 C 
ATOM     14  C   UNL     1      10.120  -0.950 -19.009  1.00  0.00     0.195 C 
BRANCH   6  15
ATOM     15  C   UNL     1       9.794  -0.178 -12.877  1.00  0.00    -0.008 C 
ATOM     16  C   UNL     1       8.996   0.855 -12.118  1.00  0.00     0.004 C 
ATOM     17  C   UNL     1       8.302  -0.335 -12.714  1.00  0.00     0.004 C 
ENDBRANCH   6  15
ENDBRANCH   4   5
ENDBRANCH   1   4
BRANCH   3  18
ATOM     18  C   UNL     1       8.547  -5.010 -18.339  1.00  0.00     0.053 C 
BRANCH  18  19
ATOM     19  C   UNL     1       7.790  -4.532 -17.127  1.00  0.00     0.074 C 
BRANCH  19  20
ATOM     20  N   UNL     1       8.040  -3.459 -16.454  1.00  0.00    -0.313 NA
ATOM     21  H   UNL     1       7.186  -3.068 -16.032  1.00  0.00     0.186 HD
ENDBRANCH  19  20
ENDBRANCH  18  19
ENDBRANCH   3  18
TORSDOF 6
ENDMDL
MODEL 8
REMARK VINA RESULT:    -3.166      6.245      9.986
REMARK INTER + INTRA:          -4.440
REMARK INTER:                  -4.169
REMARK INTRA:                  -0.270
REMARK UNBOUND:                -0.256
REMARK SMILES [H]/N=C\C[C@H]1C[C@@H]1O[C@H]1CO[C@H]2C[C@@H](C3CC3)CCN2C1
REMARK SMILES IDX 7 1 6 2 5 3 8 4 9 5 14 6 13 7 18 8 12 9 19 10 20 11 11 12
REMARK SMILES IDX 21 13 10 14 15 15 16 16 17 17 4 18 3 19 2 20 1 21
REMARK H PARENT
ROOT
ATOM      1  C   UNL     1       7.977  -4.827 -17.403  1.00  0.00     0.122 C 
ATOM      2  C   UNL     1       7.960  -6.140 -16.674  1.00  0.00     0.039 C 
ATOM      3  C   UNL     1       7.013  -5.047 -16.269  1.00  0.00     0.026 C 
ENDROOT
BRANCH   1   4
ATOM      4  O   UNL     1       9.131  -4.013 -17.120  1.00  0.00    -0.371 OA
BRANCH   4   5
ATOM      5  C   UNL     1       9.771  -3.426 -18.265  1.00  0.00     0.158 C 
ATOM      6  C   UNL     1      13.621  -0.910 -15.804  1.00  0.00    -0.003 C 
ATOM      7  C   UNL     1      12.104  -0.730 -15.944  1.00  0.00     0.052 C 
ATOM      8  C   UNL     1      13.960  -2.407 -15.847  1.00  0.00     0.019 C 
ATOM      9  C   UNL     1      11.555  -1.461 -17.177  1.00  0.00     0.189 C 
ATOM     10  C   UNL     1      13.355  -3.081 -17.078  1.00  0.00     0.087 C 
ATOM     11  N   UNL     1      11.907  -2.880 -17.128  1.00  0.00    -0.276 NA
ATOM     12  O   UNL     1      10.140  -1.259 -17.174  1.00  0.00    -0.360 OA
ATOM     13  C   UNL     1      11.301  -3.594 -18.256  1.00  0.00     0.121 C 
ATOM     14  C   UNL     1       9.478  -1.922 -18.255  1.00  0.00     0.195 C 
BRANCH   6  15
ATOM     15  C   UNL     1      14.139  -0.285 -14.529  1.00  0.00    -0.008 C 
ATOM     16  C   UNL     1      14.866   1.039 -14.568  1.00  0.00     0.004 C 
ATOM     17  C   UNL     1      13.496   0.957 -13.960  1.00  0.00     0.004 C 
ENDBRANCH   6  15
ENDBRANCH   4   5
ENDBRANCH   1   4
BRANCH   3  18
ATOM     18  C   UNL     1       5.549  -5.215 -16.544  1.00  0.00     0.053 C 
BRANCH  18  19
ATOM     19  C   UNL     1       4.609  -4.708 -15.481  1.00  0.00     0.074 C 
BRANCH  19  20
ATOM     20  N   UNL     1       4.933  -3.962 -14.477  1.00  0.00    -0.313 NA
ATOM     21  H   UNL     1       5.043  -4.514 -13.615  1.00  0.00     0.186 HD
ENDBRANCH  19  20
ENDBRANCH  18  19
ENDBRANCH   3  18
TORSDOF 6
ENDMDL
MODEL 9
REMARK VINA RESULT:    -3.107      3.730     10.033
REMARK INTER + INTRA:          -4.363
REMARK INTER:                  -4.152
REMARK INTRA:                  -0.210
REMARK UNBOUND:                -0.256
REMARK SMILES [H]/N=C\C[C@H]1C[C@@H]1O[C@H]1CO[C@H]2C[C@@H](C3CC3)CCN2C1
REMARK SMILES IDX 7 1 6 2 5 3 8 4 9 5 14 6 13 7 18 8 12 9 19 10 20 11 11 12
REMARK SMILES IDX 21 13 10 14 15 15 16 16 17 17 4 18 3 19 2 20 1 21
REMARK H PARENT
ROOT
ATOM      1  C   UNL     1       9.996  -0.297 -12.673  1.00  0.00     0.122 C 
ATOM      2  C   UNL     1       9.085   0.833 -12.282  1.00  0.00     0.039 C 
ATOM      3  C   UNL     1       8.529  -0.362 -13.002  1.00  0.00     0.026 C 
ENDROOT
BRANCH   1   4
ATOM      4  O   UNL     1      10.887   0.017 -13.759  1.00  0.00    -0.371 OA
BRANCH   4   5
ATOM      5  C   UNL     1      12.275   0.139 -13.406  1.00  0.00     0.158 C 
ATOM      6  C   UNL     1      14.348  -2.311 -17.518  1.00  0.00    -0.003 C 
ATOM      7  C   UNL     1      13.560  -2.731 -16.271  1.00  0.00     0.052 C 
ATOM      8  C   UNL     1      13.894  -0.911 -17.957  1.00  0.00     0.019 C 
ATOM      9  C   UNL     1      13.638  -1.673 -15.163  1.00  0.00     0.189 C 
ATOM     10  C   UNL     1      13.964   0.086 -16.800  1.00  0.00     0.087 C 
ATOM     11  N   UNL     1      13.173  -0.378 -15.661  1.00  0.00    -0.276 NA
ATOM     12  O   UNL     1      12.835  -2.152 -14.083  1.00  0.00    -0.360 OA
ATOM     13  C   UNL     1      13.159   0.609 -14.575  1.00  0.00     0.121 C 
ATOM     14  C   UNL     1      12.781  -1.242 -12.979  1.00  0.00     0.195 C 
BRANCH   6  15
ATOM     15  C   UNL     1      14.173  -3.303 -18.645  1.00  0.00    -0.008 C 
ATOM     16  C   UNL     1      15.060  -4.522 -18.734  1.00  0.00     0.004 C 
ATOM     17  C   UNL     1      13.609  -4.679 -18.385  1.00  0.00     0.004 C 
ENDBRANCH   6  15
ENDBRANCH   4   5
ENDBRANCH   1   4
BRANCH   3  18
ATOM     18  C   UNL     1       7.629  -1.304 -12.260  1.00  0.00     0.053 C 
BRANCH  18  19
ATOM     19  C   UNL     1       6.157  -0.983 -12.292  1.00  0.00     0.074 C 
BRANCH  19  20
ATOM     20  N   UNL     1       5.351  -1.026 -11.284  1.00  0.00    -0.313 NA
ATOM     21  H   UNL     1       4.393  -0.760 -11.552  1.00  0.00     0.186 HD
ENDBRANCH  19  20
ENDBRANCH  18  19
ENDBRANCH   3  18
TORSDOF 6
ENDMDL
