MODEL 1
REMARK VINA RESULT:    -5.988      0.000      0.000
REMARK INTER + INTRA:          -7.405
REMARK INTER:                  -7.039
REMARK INTRA:                  -0.366
REMARK UNBOUND:                -0.366
REMARK SMILES Cc1ccc(CNC(=O)NC(=O)c2ccc(C)cc2)cc1
REMARK SMILES IDX 11 1 12 2 10 3 8 4 9 5 7 6 13 9 19 10 18 11 14 12 16 13
REMARK SMILES IDX 15 14 17 15 6 16 5 17 4 18 20 19 3 20 21 21 2 22 1 23
REMARK H PARENT 10 7 7 8
ROOT
ATOM      1  C   UNL     1      -1.728   1.572  -8.531  1.00  0.00     0.259 C 
ATOM      2  O   UNL     1      -2.834   1.057  -8.447  1.00  0.00    -0.269 OA
ATOM      3  N   UNL     1      -1.062   2.036  -9.670  1.00  0.00    -0.274 N 
ATOM      4  C   UNL     1      -1.369   2.329 -10.974  1.00  0.00     0.321 C 
ATOM      5  O   UNL     1      -0.494   2.865 -11.662  1.00  0.00    -0.248 OA
ATOM      6  N   UNL     1      -2.573   2.093 -11.526  1.00  0.00    -0.334 N 
ATOM      7  H   UNL     1      -0.138   2.406  -9.491  1.00  0.00     0.175 HD
ATOM      8  H   UNL     1      -2.665   2.445 -12.468  1.00  0.00     0.165 HD
ENDROOT
BRANCH   1   9
ATOM      9  C   UNL     1      -0.981   1.741  -7.270  1.00  0.00     0.040 A 
ATOM     10  C   UNL     1       0.009   0.835  -6.883  1.00  0.00     0.014 A 
ATOM     11  C   UNL     1       0.725   1.065  -5.708  1.00  0.00     0.004 A 
ATOM     12  C   UNL     1      -1.296   2.837  -6.461  1.00  0.00     0.014 A 
ATOM     13  C   UNL     1       0.452   2.191  -4.916  1.00  0.00    -0.051 A 
ATOM     14  C   UNL     1      -0.574   3.067  -5.291  1.00  0.00     0.004 A 
ATOM     15  C   UNL     1       1.287   2.469  -3.701  1.00  0.00     0.044 C 
ENDBRANCH   1   9
BRANCH   6  16
ATOM     16  C   UNL     1      -3.748   1.579 -10.880  1.00  0.00     0.153 C 
BRANCH  16  17
ATOM     17  C   UNL     1      -5.065   1.787 -11.575  1.00  0.00    -0.029 A 
ATOM     18  C   UNL     1      -6.160   2.409 -10.966  1.00  0.00     0.006 A 
ATOM     19  C   UNL     1      -5.111   1.531 -12.955  1.00  0.00     0.006 A 
ATOM     20  C   UNL     1      -7.266   2.788 -11.734  1.00  0.00     0.004 A 
ATOM     21  C   UNL     1      -6.210   1.913 -13.718  1.00  0.00     0.004 A 
ATOM     22  C   UNL     1      -7.293   2.554 -13.116  1.00  0.00    -0.051 A 
ATOM     23  C   UNL     1      -8.409   3.084 -13.966  1.00  0.00     0.044 C 
ENDBRANCH  16  17
ENDBRANCH   6  16
TORSDOF 3
ENDMDL
MODEL 2
REMARK VINA RESULT:    -5.986      3.248      5.496
REMARK INTER + INTRA:          -7.402
REMARK INTER:                  -7.037
REMARK INTRA:                  -0.364
REMARK UNBOUND:                -0.366
REMARK SMILES Cc1ccc(CNC(=O)NC(=O)c2ccc(C)cc2)cc1
REMARK SMILES IDX 11 1 12 2 10 3 8 4 9 5 7 6 13 9 19 10 18 11 14 12 16 13
REMARK SMILES IDX 15 14 17 15 6 16 5 17 4 18 20 19 3 20 21 21 2 22 1 23
REMARK H PARENT 10 7 7 8
ROOT
ATOM      1  C   UNL     1      -1.314   1.469  -8.646  1.00  0.00     0.259 C 
ATOM      2  O   UNL     1      -0.212   1.982  -8.772  1.00  0.00    -0.269 OA
ATOM      3  N   UNL     1      -2.420   1.550  -9.498  1.00  0.00    -0.274 N 
ATOM      4  C   UNL     1      -2.681   1.950 -10.784  1.00  0.00     0.321 C 
ATOM      5  O   UNL     1      -3.811   1.731 -11.234  1.00  0.00    -0.248 OA
ATOM      6  N   UNL     1      -1.768   2.535 -11.581  1.00  0.00    -0.334 N 
ATOM      7  H   UNL     1      -3.237   1.053  -9.169  1.00  0.00     0.175 HD
ATOM      8  H   UNL     1      -2.092   2.690 -12.525  1.00  0.00     0.165 HD
ENDROOT
BRANCH   1   9
ATOM      9  C   UNL     1      -1.526   0.645  -7.440  1.00  0.00     0.040 A 
ATOM     10  C   UNL     1      -2.194   1.148  -6.322  1.00  0.00     0.014 A 
ATOM     11  C   UNL     1      -2.416   0.315  -5.226  1.00  0.00     0.004 A 
ATOM     12  C   UNL     1      -1.030  -0.663  -7.443  1.00  0.00     0.014 A 
ATOM     13  C   UNL     1      -1.967  -1.015  -5.239  1.00  0.00    -0.051 A 
ATOM     14  C   UNL     1      -1.260  -1.494  -6.348  1.00  0.00     0.004 A 
ATOM     15  C   UNL     1      -2.288  -1.923  -4.088  1.00  0.00     0.044 C 
ENDBRANCH   1   9
BRANCH   6  16
ATOM     16  C   UNL     1      -0.384   2.784 -11.293  1.00  0.00     0.153 C 
BRANCH  16  17
ATOM     17  C   UNL     1       0.518   3.093 -12.455  1.00  0.00    -0.029 A 
ATOM     18  C   UNL     1       1.719   2.416 -12.691  1.00  0.00     0.006 A 
ATOM     19  C   UNL     1       0.017   3.953 -13.446  1.00  0.00     0.006 A 
ATOM     20  C   UNL     1       2.387   2.580 -13.909  1.00  0.00     0.004 A 
ATOM     21  C   UNL     1       0.681   4.112 -14.659  1.00  0.00     0.004 A 
ATOM     22  C   UNL     1       1.867   3.418 -14.905  1.00  0.00    -0.051 A 
ATOM     23  C   UNL     1       2.500   3.489 -16.262  1.00  0.00     0.044 C 
ENDBRANCH  16  17
ENDBRANCH   6  16
TORSDOF 3
ENDMDL
MODEL 3
REMARK VINA RESULT:    -5.941      0.529      8.090
REMARK INTER + INTRA:          -7.350
REMARK INTER:                  -6.881
REMARK INTRA:                  -0.469
REMARK UNBOUND:                -0.366
REMARK SMILES Cc1ccc(CNC(=O)NC(=O)c2ccc(C)cc2)cc1
REMARK SMILES IDX 11 1 12 2 10 3 8 4 9 5 7 6 13 9 19 10 18 11 14 12 16 13
REMARK SMILES IDX 15 14 17 15 6 16 5 17 4 18 20 19 3 20 21 21 2 22 1 23
REMARK H PARENT 10 7 7 8
ROOT
ATOM      1  C   UNL     1      -3.824   1.856 -10.636  1.00  0.00     0.259 C 
ATOM      2  O   UNL     1      -4.001   1.401  -9.515  1.00  0.00    -0.269 OA
ATOM      3  N   UNL     1      -2.631   2.277 -11.231  1.00  0.00    -0.274 N 
ATOM      4  C   UNL     1      -1.285   2.163 -10.995  1.00  0.00     0.321 C 
ATOM      5  O   UNL     1      -0.513   2.580 -11.864  1.00  0.00    -0.248 OA
ATOM      6  N   UNL     1      -0.769   1.599  -9.887  1.00  0.00    -0.334 N 
ATOM      7  H   UNL     1      -2.739   2.640 -12.169  1.00  0.00     0.175 HD
ATOM      8  H   UNL     1       0.237   1.515  -9.904  1.00  0.00     0.165 HD
ENDROOT
BRANCH   1   9
ATOM      9  C   UNL     1      -5.018   1.980 -11.494  1.00  0.00     0.040 A 
ATOM     10  C   UNL     1      -6.223   2.481 -10.997  1.00  0.00     0.014 A 
ATOM     11  C   UNL     1      -7.309   2.630 -11.860  1.00  0.00     0.004 A 
ATOM     12  C   UNL     1      -4.913   1.573 -12.828  1.00  0.00     0.014 A 
ATOM     13  C   UNL     1      -7.199   2.273 -13.212  1.00  0.00    -0.051 A 
ATOM     14  C   UNL     1      -5.999   1.730 -13.687  1.00  0.00     0.004 A 
ATOM     15  C   UNL     1      -8.348   2.518 -14.145  1.00  0.00     0.044 C 
ENDBRANCH   1   9
BRANCH   6  16
ATOM     16  C   UNL     1      -1.482   0.965  -8.814  1.00  0.00     0.153 C 
BRANCH  16  17
ATOM     17  C   UNL     1      -0.989   1.216  -7.416  1.00  0.00    -0.029 A 
ATOM     18  C   UNL     1      -0.059   0.392  -6.774  1.00  0.00     0.006 A 
ATOM     19  C   UNL     1      -1.326   2.446  -6.826  1.00  0.00     0.006 A 
ATOM     20  C   UNL     1       0.538   0.807  -5.579  1.00  0.00     0.004 A 
ATOM     21  C   UNL     1      -0.729   2.860  -5.640  1.00  0.00     0.004 A 
ATOM     22  C   UNL     1       0.217   2.048  -5.011  1.00  0.00    -0.051 A 
ATOM     23  C   UNL     1       0.954   2.561  -3.810  1.00  0.00     0.044 C 
ENDBRANCH  16  17
ENDBRANCH   6  16
TORSDOF 3
ENDMDL
MODEL 4
REMARK VINA RESULT:    -5.916      3.143      7.365
REMARK INTER + INTRA:          -7.320
REMARK INTER:                  -6.851
REMARK INTRA:                  -0.468
REMARK UNBOUND:                -0.366
REMARK SMILES Cc1ccc(CNC(=O)NC(=O)c2ccc(C)cc2)cc1
REMARK SMILES IDX 11 1 12 2 10 3 8 4 9 5 7 6 13 9 19 10 18 11 14 12 16 13
REMARK SMILES IDX 15 14 17 15 6 16 5 17 4 18 20 19 3 20 21 21 2 22 1 23
REMARK H PARENT 10 7 7 8
ROOT
ATOM      1  C   UNL     1      -0.246   2.438 -11.253  1.00  0.00     0.259 C 
ATOM      2  O   UNL     1       0.403   2.311 -10.224  1.00  0.00    -0.269 OA
ATOM      3  N   UNL     1      -1.616   2.240 -11.454  1.00  0.00    -0.274 N 
ATOM      4  C   UNL     1      -2.742   2.092 -10.686  1.00  0.00     0.321 C 
ATOM      5  O   UNL     1      -3.833   2.072 -11.265  1.00  0.00    -0.248 OA
ATOM      6  N   UNL     1      -2.720   1.998  -9.343  1.00  0.00    -0.334 N 
ATOM      7  H   UNL     1      -1.922   2.387 -12.406  1.00  0.00     0.175 HD
ATOM      8  H   UNL     1      -3.637   1.980  -8.922  1.00  0.00     0.165 HD
ENDROOT
BRANCH   1   9
ATOM      9  C   UNL     1       0.498   2.861 -12.454  1.00  0.00     0.040 A 
ATOM     10  C   UNL     1       1.742   2.311 -12.772  1.00  0.00     0.014 A 
ATOM     11  C   UNL     1       2.383   2.704 -13.947  1.00  0.00     0.004 A 
ATOM     12  C   UNL     1      -0.075   3.840 -13.271  1.00  0.00     0.014 A 
ATOM     13  C   UNL     1       1.792   3.648 -14.800  1.00  0.00    -0.051 A 
ATOM     14  C   UNL     1       0.566   4.225 -14.447  1.00  0.00     0.004 A 
ATOM     15  C   UNL     1       2.454   3.997 -16.100  1.00  0.00     0.044 C 
ENDBRANCH   1   9
BRANCH   6  16
ATOM     16  C   UNL     1      -1.580   2.103  -8.476  1.00  0.00     0.153 C 
BRANCH  16  17
ATOM     17  C   UNL     1      -1.518   1.166  -7.302  1.00  0.00    -0.029 A 
ATOM     18  C   UNL     1      -2.050   1.479  -6.047  1.00  0.00     0.006 A 
ATOM     19  C   UNL     1      -1.095  -0.150  -7.551  1.00  0.00     0.006 A 
ATOM     20  C   UNL     1      -2.176   0.483  -5.072  1.00  0.00     0.004 A 
ATOM     21  C   UNL     1      -1.226  -1.140  -6.583  1.00  0.00     0.004 A 
ATOM     22  C   UNL     1      -1.777  -0.835  -5.338  1.00  0.00    -0.051 A 
ATOM     23  C   UNL     1      -2.041  -1.934  -4.352  1.00  0.00     0.044 C 
ENDBRANCH  16  17
ENDBRANCH   6  16
TORSDOF 3
ENDMDL
MODEL 5
REMARK VINA RESULT:    -5.776      1.207      8.081
REMARK INTER + INTRA:          -7.155
REMARK INTER:                  -6.714
REMARK INTRA:                  -0.441
REMARK UNBOUND:                -0.366
REMARK SMILES Cc1ccc(CNC(=O)NC(=O)c2ccc(C)cc2)cc1
REMARK SMILES IDX 11 1 12 2 10 3 8 4 9 5 7 6 13 9 19 10 18 11 14 12 16 13
REMARK SMILES IDX 15 14 17 15 6 16 5 17 4 18 20 19 3 20 21 21 2 22 1 23
REMARK H PARENT 10 7 7 8
ROOT
ATOM      1  C   UNL     1      -4.030   1.705 -10.644  1.00  0.00     0.259 C 
ATOM      2  O   UNL     1      -4.277   1.100  -9.610  1.00  0.00    -0.269 OA
ATOM      3  N   UNL     1      -2.812   2.240 -11.075  1.00  0.00    -0.274 N 
ATOM      4  C   UNL     1      -1.486   2.140 -10.740  1.00  0.00     0.321 C 
ATOM      5  O   UNL     1      -0.664   2.693 -11.479  1.00  0.00    -0.248 OA
ATOM      6  N   UNL     1      -1.037   1.451  -9.674  1.00  0.00    -0.334 N 
ATOM      7  H   UNL     1      -2.859   2.720 -11.964  1.00  0.00     0.175 HD
ATOM      8  H   UNL     1      -0.030   1.403  -9.616  1.00  0.00     0.165 HD
ENDROOT
BRANCH   1   9
ATOM      9  C   UNL     1      -5.154   1.903 -11.578  1.00  0.00     0.040 A 
ATOM     10  C   UNL     1      -6.370   2.441 -11.151  1.00  0.00     0.014 A 
ATOM     11  C   UNL     1      -7.386   2.659 -12.081  1.00  0.00     0.004 A 
ATOM     12  C   UNL     1      -4.973   1.527 -12.913  1.00  0.00     0.014 A 
ATOM     13  C   UNL     1      -7.196   2.334 -13.433  1.00  0.00    -0.051 A 
ATOM     14  C   UNL     1      -5.989   1.752 -13.840  1.00  0.00     0.004 A 
ATOM     15  C   UNL     1      -8.266   2.652 -14.435  1.00  0.00     0.044 C 
ENDBRANCH   1   9
BRANCH   6  16
ATOM     16  C   UNL     1      -1.806   0.658  -8.757  1.00  0.00     0.153 C 
BRANCH  16  17
ATOM     17  C   UNL     1      -1.467   0.770  -7.297  1.00  0.00    -0.029 A 
ATOM     18  C   UNL     1      -2.423   0.670  -6.281  1.00  0.00     0.006 A 
ATOM     19  C   UNL     1      -0.106   0.762  -6.950  1.00  0.00     0.006 A 
ATOM     20  C   UNL     1      -2.018   0.540  -4.948  1.00  0.00     0.004 A 
ATOM     21  C   UNL     1       0.296   0.629  -5.625  1.00  0.00     0.004 A 
ATOM     22  C   UNL     1      -0.657   0.506  -4.612  1.00  0.00    -0.051 A 
ATOM     23  C   UNL     1      -0.216   0.225  -3.207  1.00  0.00     0.044 C 
ENDBRANCH  16  17
ENDBRANCH   6  16
TORSDOF 3
ENDMDL
MODEL 6
REMARK VINA RESULT:    -5.736      3.088      7.803
REMARK INTER + INTRA:          -7.109
REMARK INTER:                  -6.665
REMARK INTRA:                  -0.443
REMARK UNBOUND:                -0.366
REMARK SMILES Cc1ccc(CNC(=O)NC(=O)c2ccc(C)cc2)cc1
REMARK SMILES IDX 11 1 12 2 10 3 8 4 9 5 7 6 13 9 19 10 18 11 14 12 16 13
REMARK SMILES IDX 15 14 17 15 6 16 5 17 4 18 20 19 3 20 21 21 2 22 1 23
REMARK H PARENT 10 7 7 8
ROOT
ATOM      1  C   UNL     1      -0.047   2.590 -11.249  1.00  0.00     0.259 C 
ATOM      2  O   UNL     1       0.643   2.660 -10.241  1.00  0.00    -0.269 OA
ATOM      3  N   UNL     1      -1.384   2.199 -11.369  1.00  0.00    -0.274 N 
ATOM      4  C   UNL     1      -2.458   1.994 -10.542  1.00  0.00     0.321 C 
ATOM      5  O   UNL     1      -3.553   1.772 -11.069  1.00  0.00    -0.248 OA
ATOM      6  N   UNL     1      -2.385   2.051  -9.199  1.00  0.00    -0.334 N 
ATOM      7  H   UNL     1      -1.735   2.201 -12.318  1.00  0.00     0.175 HD
ATOM      8  H   UNL     1      -3.279   1.963  -8.739  1.00  0.00     0.165 HD
ENDROOT
BRANCH   1   9
ATOM      9  C   UNL     1       0.600   2.971 -12.519  1.00  0.00     0.040 A 
ATOM     10  C   UNL     1       1.821   2.417 -12.909  1.00  0.00     0.014 A 
ATOM     11  C   UNL     1       2.368   2.768 -14.143  1.00  0.00     0.004 A 
ATOM     12  C   UNL     1      -0.043   3.914 -13.327  1.00  0.00     0.014 A 
ATOM     13  C   UNL     1       1.705   3.674 -14.985  1.00  0.00    -0.051 A 
ATOM     14  C   UNL     1       0.504   4.256 -14.562  1.00  0.00     0.004 A 
ATOM     15  C   UNL     1       2.263   3.976 -16.345  1.00  0.00     0.044 C 
ENDBRANCH   1   9
BRANCH   6  16
ATOM     16  C   UNL     1      -1.244   2.394  -8.398  1.00  0.00     0.153 C 
BRANCH  16  17
ATOM     17  C   UNL     1      -0.990   1.566  -7.169  1.00  0.00    -0.029 A 
ATOM     18  C   UNL     1       0.293   1.245  -6.716  1.00  0.00     0.006 A 
ATOM     19  C   UNL     1      -2.091   1.292  -6.340  1.00  0.00     0.006 A 
ATOM     20  C   UNL     1       0.468   0.684  -5.446  1.00  0.00     0.004 A 
ATOM     21  C   UNL     1      -1.915   0.738  -5.076  1.00  0.00     0.004 A 
ATOM     22  C   UNL     1      -0.633   0.439  -4.614  1.00  0.00    -0.051 A 
ATOM     23  C   UNL     1      -0.443  -0.028  -3.201  1.00  0.00     0.044 C 
ENDBRANCH  16  17
ENDBRANCH   6  16
TORSDOF 3
ENDMDL
MODEL 7
REMARK VINA RESULT:    -4.483      2.267      3.921
REMARK INTER + INTRA:          -5.635
REMARK INTER:                  -5.197
REMARK INTRA:                  -0.438
REMARK UNBOUND:                -0.366
REMARK SMILES Cc1ccc(CNC(=O)NC(=O)c2ccc(C)cc2)cc1
REMARK SMILES IDX 11 1 12 2 10 3 8 4 9 5 7 6 13 9 19 10 18 11 14 12 16 13
REMARK SMILES IDX 15 14 17 15 6 16 5 17 4 18 20 19 3 20 21 21 2 22 1 23
REMARK H PARENT 10 7 7 8
ROOT
ATOM      1  C   UNL     1      -4.302   1.690 -10.978  1.00  0.00     0.259 C 
ATOM      2  O   UNL     1      -5.415   1.650 -10.472  1.00  0.00    -0.269 OA
ATOM      3  N   UNL     1      -3.958   1.779 -12.331  1.00  0.00    -0.274 N 
ATOM      4  C   UNL     1      -4.579   2.077 -13.517  1.00  0.00     0.321 C 
ATOM      5  O   UNL     1      -3.870   2.183 -14.524  1.00  0.00    -0.248 OA
ATOM      6  N   UNL     1      -5.903   2.287 -13.631  1.00  0.00    -0.334 N 
ATOM      7  H   UNL     1      -2.962   1.775 -12.509  1.00  0.00     0.175 HD
ATOM      8  H   UNL     1      -6.190   2.580 -14.554  1.00  0.00     0.165 HD
ENDROOT
BRANCH   1   9
ATOM      9  C   UNL     1      -3.154   1.644 -10.052  1.00  0.00     0.040 A 
ATOM     10  C   UNL     1      -2.590   2.811  -9.533  1.00  0.00     0.014 A 
ATOM     11  C   UNL     1      -1.539   2.715  -8.620  1.00  0.00     0.004 A 
ATOM     12  C   UNL     1      -2.635   0.391  -9.711  1.00  0.00     0.014 A 
ATOM     13  C   UNL     1      -1.045   1.461  -8.231  1.00  0.00    -0.051 A 
ATOM     14  C   UNL     1      -1.589   0.300  -8.794  1.00  0.00     0.004 A 
ATOM     15  C   UNL     1       0.027   1.372  -7.186  1.00  0.00     0.044 C 
ENDBRANCH   1   9
BRANCH   6  16
ATOM     16  C   UNL     1      -6.880   2.314 -12.579  1.00  0.00     0.153 C 
BRANCH  16  17
ATOM     17  C   UNL     1      -7.915   3.403 -12.627  1.00  0.00    -0.029 A 
ATOM     18  C   UNL     1      -7.613   4.753 -12.422  1.00  0.00     0.006 A 
ATOM     19  C   UNL     1      -9.190   3.058 -13.105  1.00  0.00     0.006 A 
ATOM     20  C   UNL     1      -8.564   5.736 -12.715  1.00  0.00     0.004 A 
ATOM     21  C   UNL     1     -10.133   4.037 -13.401  1.00  0.00     0.004 A 
ATOM     22  C   UNL     1      -9.825   5.386 -13.218  1.00  0.00    -0.051 A 
ATOM     23  C   UNL     1     -10.795   6.437 -13.668  1.00  0.00     0.044 C 
ENDBRANCH  16  17
ENDBRANCH   6  16
TORSDOF 3
ENDMDL
MODEL 8
REMARK VINA RESULT:    -4.155      3.715      7.691
REMARK INTER + INTRA:          -5.250
REMARK INTER:                  -5.127
REMARK INTRA:                  -0.123
REMARK UNBOUND:                -0.366
REMARK SMILES Cc1ccc(CNC(=O)NC(=O)c2ccc(C)cc2)cc1
REMARK SMILES IDX 11 1 12 2 10 3 8 4 9 5 7 6 13 9 19 10 18 11 14 12 16 13
REMARK SMILES IDX 15 14 17 15 6 16 5 17 4 18 20 19 3 20 21 21 2 22 1 23
REMARK H PARENT 10 7 7 8
ROOT
ATOM      1  C   UNL     1      -0.344   2.314 -10.726  1.00  0.00     0.259 C 
ATOM      2  O   UNL     1      -0.452   3.171  -9.861  1.00  0.00    -0.269 OA
ATOM      3  N   UNL     1      -0.733   0.972 -10.682  1.00  0.00    -0.274 N 
ATOM      4  C   UNL     1      -1.521   0.170  -9.895  1.00  0.00     0.321 C 
ATOM      5  O   UNL     1      -1.728  -0.985 -10.280  1.00  0.00    -0.248 OA
ATOM      6  N   UNL     1      -2.097   0.586  -8.752  1.00  0.00    -0.334 N 
ATOM      7  H   UNL     1      -0.519   0.447 -11.520  1.00  0.00     0.175 HD
ATOM      8  H   UNL     1      -2.714  -0.097  -8.336  1.00  0.00     0.165 HD
ENDROOT
BRANCH   1   9
ATOM      9  C   UNL     1       0.275   2.734 -11.998  1.00  0.00     0.040 A 
ATOM     10  C   UNL     1       1.499   2.211 -12.420  1.00  0.00     0.014 A 
ATOM     11  C   UNL     1       2.019   2.599 -13.655  1.00  0.00     0.004 A 
ATOM     12  C   UNL     1      -0.398   3.682 -12.774  1.00  0.00     0.014 A 
ATOM     13  C   UNL     1       1.326   3.511 -14.465  1.00  0.00    -0.051 A 
ATOM     14  C   UNL     1       0.122   4.062 -14.010  1.00  0.00     0.004 A 
ATOM     15  C   UNL     1       1.855   3.853 -15.827  1.00  0.00     0.044 C 
ENDBRANCH   1   9
BRANCH   6  16
ATOM     16  C   UNL     1      -2.070   1.905  -8.186  1.00  0.00     0.153 C 
BRANCH  16  17
ATOM     17  C   UNL     1      -1.080   2.162  -7.084  1.00  0.00    -0.029 A 
ATOM     18  C   UNL     1      -1.265   3.144  -6.105  1.00  0.00     0.006 A 
ATOM     19  C   UNL     1      -0.040   1.232  -6.923  1.00  0.00     0.006 A 
ATOM     20  C   UNL     1      -0.437   3.174  -4.977  1.00  0.00     0.004 A 
ATOM     21  C   UNL     1       0.779   1.260  -5.799  1.00  0.00     0.004 A 
ATOM     22  C   UNL     1       0.581   2.225  -4.811  1.00  0.00    -0.051 A 
ATOM     23  C   UNL     1       1.377   2.163  -3.542  1.00  0.00     0.044 C 
ENDBRANCH  16  17
ENDBRANCH   6  16
TORSDOF 3
ENDMDL
