MODEL 1
REMARK VINA RESULT:    -4.057      0.000      0.000
REMARK INTER + INTRA:          -5.604
REMARK INTER:                  -5.361
REMARK INTRA:                  -0.243
REMARK UNBOUND:                -0.243
REMARK SMILES [H]/N=C\C[C@H]1C[C@@H]1O[C@H]1CO[C@H]2C[C@@H](C3CC3)CCN2C1
REMARK SMILES IDX 7 1 6 2 5 3 8 4 9 5 14 6 13 7 18 8 12 9 19 10 20 11 11 12
REMARK SMILES IDX 21 13 10 14 15 15 16 16 17 17 4 18 3 19 2 20 1 21
REMARK H PARENT
ROOT
ATOM      1  C   UNL     1       0.249   2.325 -11.852  1.00  0.00     0.122 C 
ATOM      2  C   UNL     1       0.291   3.504 -12.783  1.00  0.00     0.039 C 
ATOM      3  C   UNL     1       1.553   2.752 -12.468  1.00  0.00     0.026 C 
ENDROOT
BRANCH   1   4
ATOM      4  O   UNL     1       0.042   2.675 -10.471  1.00  0.00    -0.371 OA
BRANCH   4   5
ATOM      5  C   UNL     1      -1.295   3.071 -10.125  1.00  0.00     0.158 C 
ATOM      6  C   UNL     1      -1.780   0.390  -5.677  1.00  0.00    -0.003 C 
ATOM      7  C   UNL     1      -1.742   0.043  -7.170  1.00  0.00     0.052 C 
ATOM      8  C   UNL     1      -0.892   1.616  -5.418  1.00  0.00     0.019 C 
ATOM      9  C   UNL     1      -2.080   1.256  -8.047  1.00  0.00     0.189 C 
ATOM     10  C   UNL     1      -1.257   2.775  -6.345  1.00  0.00     0.087 C 
ATOM     11  N   UNL     1      -1.178   2.369  -7.748  1.00  0.00    -0.276 NA
ATOM     12  O   UNL     1      -1.967   0.824  -9.404  1.00  0.00    -0.360 OA
ATOM     13  C   UNL     1      -1.441   3.494  -8.652  1.00  0.00     0.121 C 
ATOM     14  C   UNL     1      -2.220   1.870 -10.347  1.00  0.00     0.195 C 
BRANCH   6  15
ATOM     15  C   UNL     1      -1.335  -0.777  -4.824  1.00  0.00    -0.008 C 
ATOM     16  C   UNL     1      -2.133  -1.180  -3.606  1.00  0.00     0.004 C 
ATOM     17  C   UNL     1      -2.115  -2.069  -4.815  1.00  0.00     0.004 C 
ENDBRANCH   6  15
ENDBRANCH   4   5
ENDBRANCH   1   4
BRANCH   3  18
ATOM     18  C   UNL     1       2.191   1.921 -13.540  1.00  0.00     0.053 C 
BRANCH  18  19
ATOM     19  C   UNL     1       2.555   2.640 -14.813  1.00  0.00     0.074 C 
BRANCH  19  20
ATOM     20  N   UNL     1       3.526   3.479 -14.957  1.00  0.00    -0.313 NA
ATOM     21  H   UNL     1       4.240   3.364 -14.224  1.00  0.00     0.186 HD
ENDBRANCH  19  20
ENDBRANCH  18  19
ENDBRANCH   3  18
TORSDOF 6
ENDMDL
MODEL 2
REMARK VINA RESULT:    -4.052      3.285      5.532
REMARK INTER + INTRA:          -5.598
REMARK INTER:                  -5.348
REMARK INTRA:                  -0.249
REMARK UNBOUND:                -0.243
REMARK SMILES [H]/N=C\C[C@H]1C[C@@H]1O[C@H]1CO[C@H]2C[C@@H](C3CC3)CCN2C1
REMARK SMILES IDX 7 1 6 2 5 3 8 4 9 5 14 6 13 7 18 8 12 9 19 10 20 11 11 12
REMARK SMILES IDX 21 13 10 14 15 15 16 16 17 17 4 18 3 19 2 20 1 21
REMARK H PARENT
ROOT
ATOM      1  C   UNL     1      -4.491   2.222 -10.846  1.00  0.00     0.122 C 
ATOM      2  C   UNL     1      -4.975   1.583 -12.117  1.00  0.00     0.039 C 
ATOM      3  C   UNL     1      -5.957   1.948 -11.041  1.00  0.00     0.026 C 
ENDROOT
BRANCH   1   4
ATOM      4  O   UNL     1      -3.778   1.326  -9.973  1.00  0.00    -0.371 OA
BRANCH   4   5
ATOM      5  C   UNL     1      -2.467   0.941 -10.417  1.00  0.00     0.158 C 
ATOM      6  C   UNL     1      -0.007   1.096  -5.820  1.00  0.00    -0.003 C 
ATOM      7  C   UNL     1      -0.571   2.133  -6.799  1.00  0.00     0.052 C 
ATOM      8  C   UNL     1      -0.866  -0.175  -5.875  1.00  0.00     0.019 C 
ATOM      9  C   UNL     1      -0.739   1.552  -8.210  1.00  0.00     0.189 C 
ATOM     10  C   UNL     1      -1.023  -0.681  -7.309  1.00  0.00     0.087 C 
ATOM     11  N   UNL     1      -1.583   0.357  -8.173  1.00  0.00    -0.276 NA
ATOM     12  O   UNL     1      -1.310   2.587  -9.013  1.00  0.00    -0.360 OA
ATOM     13  C   UNL     1      -1.821  -0.141  -9.532  1.00  0.00     0.121 C 
ATOM     14  C   UNL     1      -1.563   2.176 -10.360  1.00  0.00     0.195 C 
BRANCH   6  15
ATOM     15  C   UNL     1       0.050   1.638  -4.410  1.00  0.00    -0.008 C 
ATOM     16  C   UNL     1       1.341   1.598  -3.627  1.00  0.00     0.004 C 
ATOM     17  C   UNL     1       0.795   2.914  -4.101  1.00  0.00     0.004 C 
ENDBRANCH   6  15
ENDBRANCH   4   5
ENDBRANCH   1   4
BRANCH   3  18
ATOM     18  C   UNL     1      -6.912   3.079 -11.282  1.00  0.00     0.053 C 
BRANCH  18  19
ATOM     19  C   UNL     1      -7.766   2.977 -12.519  1.00  0.00     0.074 C 
BRANCH  19  20
ATOM     20  N   UNL     1      -8.925   2.411 -12.594  1.00  0.00    -0.313 NA
ATOM     21  H   UNL     1      -9.642   2.942 -12.081  1.00  0.00     0.186 HD
ENDBRANCH  19  20
ENDBRANCH  18  19
ENDBRANCH   3  18
TORSDOF 6
ENDMDL
MODEL 3
REMARK VINA RESULT:    -4.037      1.431      1.751
REMARK INTER + INTRA:          -5.577
REMARK INTER:                  -5.742
REMARK INTRA:                   0.165
REMARK UNBOUND:                -0.243
REMARK SMILES [H]/N=C\C[C@H]1C[C@@H]1O[C@H]1CO[C@H]2C[C@@H](C3CC3)CCN2C1
REMARK SMILES IDX 7 1 6 2 5 3 8 4 9 5 14 6 13 7 18 8 12 9 19 10 20 11 11 12
REMARK SMILES IDX 21 13 10 14 15 15 16 16 17 17 4 18 3 19 2 20 1 21
REMARK H PARENT
ROOT
ATOM      1  C   UNL     1       0.673   3.366 -11.504  1.00  0.00     0.122 C 
ATOM      2  C   UNL     1       1.585   2.610 -12.430  1.00  0.00     0.039 C 
ATOM      3  C   UNL     1       0.285   3.161 -12.943  1.00  0.00     0.026 C 
ENDROOT
BRANCH   1   4
ATOM      4  O   UNL     1       0.006   2.538 -10.533  1.00  0.00    -0.371 OA
BRANCH   4   5
ATOM      5  C   UNL     1      -1.332   2.938 -10.194  1.00  0.00     0.158 C 
ATOM      6  C   UNL     1      -1.799   0.362  -5.682  1.00  0.00    -0.003 C 
ATOM      7  C   UNL     1      -1.762  -0.021  -7.167  1.00  0.00     0.052 C 
ATOM      8  C   UNL     1      -0.915   1.596  -5.455  1.00  0.00     0.019 C 
ATOM      9  C   UNL     1      -2.107   1.170  -8.071  1.00  0.00     0.189 C 
ATOM     10  C   UNL     1      -1.285   2.732  -6.408  1.00  0.00     0.087 C 
ATOM     11  N   UNL     1      -1.208   2.293  -7.801  1.00  0.00    -0.276 NA
ATOM     12  O   UNL     1      -1.995   0.706  -9.418  1.00  0.00    -0.360 OA
ATOM     13  C   UNL     1      -1.476   3.395  -8.731  1.00  0.00     0.121 C 
ATOM     14  C   UNL     1      -2.253   1.728 -10.386  1.00  0.00     0.195 C 
BRANCH   6  15
ATOM     15  C   UNL     1      -1.348  -0.783  -4.803  1.00  0.00    -0.008 C 
ATOM     16  C   UNL     1      -2.150  -1.170  -3.583  1.00  0.00     0.004 C 
ATOM     17  C   UNL     1      -2.114  -2.083  -4.774  1.00  0.00     0.004 C 
ENDBRANCH   6  15
ENDBRANCH   4   5
ENDBRANCH   1   4
BRANCH   3  18
ATOM     18  C   UNL     1       0.314   4.312 -13.904  1.00  0.00     0.053 C 
BRANCH  18  19
ATOM     19  C   UNL     1      -0.897   4.474 -14.786  1.00  0.00     0.074 C 
BRANCH  19  20
ATOM     20  N   UNL     1      -1.988   3.786 -14.708  1.00  0.00    -0.313 NA
ATOM     21  H   UNL     1      -1.885   2.860 -15.147  1.00  0.00     0.186 HD
ENDBRANCH  19  20
ENDBRANCH  18  19
ENDBRANCH   3  18
TORSDOF 6
ENDMDL
MODEL 4
REMARK VINA RESULT:    -3.811      5.185      8.438
REMARK INTER + INTRA:          -5.279
REMARK INTER:                  -5.045
REMARK INTRA:                  -0.234
REMARK UNBOUND:                -0.243
REMARK SMILES [H]/N=C\C[C@H]1C[C@@H]1O[C@H]1CO[C@H]2C[C@@H](C3CC3)CCN2C1
REMARK SMILES IDX 7 1 6 2 5 3 8 4 9 5 14 6 13 7 18 8 12 9 19 10 20 11 11 12
REMARK SMILES IDX 21 13 10 14 15 15 16 16 17 17 4 18 3 19 2 20 1 21
REMARK H PARENT
ROOT
ATOM      1  C   UNL     1      -2.381   1.979  -9.884  1.00  0.00     0.122 C 
ATOM      2  C   UNL     1      -1.039   2.550 -10.246  1.00  0.00     0.039 C 
ATOM      3  C   UNL     1      -1.818   3.135  -9.103  1.00  0.00     0.026 C 
ENDROOT
BRANCH   1   4
ATOM      4  O   UNL     1      -3.423   2.286 -10.829  1.00  0.00    -0.371 OA
BRANCH   4   5
ATOM      5  C   UNL     1      -4.368   1.232 -11.074  1.00  0.00     0.158 C 
ATOM      6  C   UNL     1      -8.049   4.025 -13.495  1.00  0.00    -0.003 C 
ATOM      7  C   UNL     1      -7.535   3.899 -12.055  1.00  0.00     0.052 C 
ATOM      8  C   UNL     1      -6.887   3.791 -14.471  1.00  0.00     0.019 C 
ATOM      9  C   UNL     1      -6.785   2.578 -11.831  1.00  0.00     0.189 C 
ATOM     10  C   UNL     1      -6.162   2.478 -14.173  1.00  0.00     0.087 C 
ATOM     11  N   UNL     1      -5.688   2.445 -12.789  1.00  0.00    -0.276 NA
ATOM     12  O   UNL     1      -6.319   2.597 -10.481  1.00  0.00    -0.360 OA
ATOM     13  C   UNL     1      -4.915   1.229 -12.512  1.00  0.00     0.121 C 
ATOM     14  C   UNL     1      -5.561   1.434 -10.134  1.00  0.00     0.195 C 
BRANCH   6  15
ATOM     15  C   UNL     1      -8.685   5.374 -13.740  1.00  0.00    -0.008 C 
ATOM     16  C   UNL     1      -9.950   5.484 -14.558  1.00  0.00     0.004 C 
ATOM     17  C   UNL     1      -9.991   5.745 -13.080  1.00  0.00     0.004 C 
ENDBRANCH   6  15
ENDBRANCH   4   5
ENDBRANCH   1   4
BRANCH   3  18
ATOM     18  C   UNL     1      -1.320   2.930  -7.703  1.00  0.00     0.053 C 
BRANCH  18  19
ATOM     19  C   UNL     1      -1.509   4.084  -6.753  1.00  0.00     0.074 C 
BRANCH  19  20
ATOM     20  N   UNL     1      -1.568   5.332  -7.080  1.00  0.00    -0.313 NA
ATOM     21  H   UNL     1      -2.253   5.495  -7.832  1.00  0.00     0.186 HD
ENDBRANCH  19  20
ENDBRANCH  18  19
ENDBRANCH   3  18
TORSDOF 6
ENDMDL
MODEL 5
REMARK VINA RESULT:    -3.499      5.511      7.024
REMARK INTER + INTRA:          -4.867
REMARK INTER:                  -4.508
REMARK INTRA:                  -0.359
REMARK UNBOUND:                -0.243
REMARK SMILES [H]/N=C\C[C@H]1C[C@@H]1O[C@H]1CO[C@H]2C[C@@H](C3CC3)CCN2C1
REMARK SMILES IDX 7 1 6 2 5 3 8 4 9 5 14 6 13 7 18 8 12 9 19 10 20 11 11 12
REMARK SMILES IDX 21 13 10 14 15 15 16 16 17 17 4 18 3 19 2 20 1 21
REMARK H PARENT
ROOT
ATOM      1  C   UNL     1      -5.622   3.990 -16.816  1.00  0.00     0.122 C 
ATOM      2  C   UNL     1      -5.539   5.366 -17.415  1.00  0.00     0.039 C 
ATOM      3  C   UNL     1      -4.434   4.867 -16.528  1.00  0.00     0.026 C 
ENDROOT
BRANCH   1   4
ATOM      4  O   UNL     1      -6.601   3.865 -15.767  1.00  0.00    -0.371 OA
BRANCH   4   5
ATOM      5  C   UNL     1      -7.077   2.532 -15.521  1.00  0.00     0.158 C 
ATOM      6  C   UNL     1      -4.589   1.629 -11.027  1.00  0.00    -0.003 C 
ATOM      7  C   UNL     1      -4.185   1.741 -12.502  1.00  0.00     0.052 C 
ATOM      8  C   UNL     1      -5.775   2.563 -10.753  1.00  0.00     0.019 C 
ATOM      9  C   UNL     1      -5.382   1.523 -13.438  1.00  0.00     0.189 C 
ATOM     10  C   UNL     1      -6.917   2.319 -11.738  1.00  0.00     0.087 C 
ATOM     11  N   UNL     1      -6.457   2.463 -13.119  1.00  0.00    -0.276 NA
ATOM     12  O   UNL     1      -4.896   1.696 -14.770  1.00  0.00    -0.360 OA
ATOM     13  C   UNL     1      -7.560   2.318 -14.075  1.00  0.00     0.121 C 
ATOM     14  C   UNL     1      -5.918   1.559 -15.762  1.00  0.00     0.195 C 
BRANCH   6  15
ATOM     15  C   UNL     1      -3.432   1.956 -10.109  1.00  0.00    -0.008 C 
ATOM     16  C   UNL     1      -2.456   0.879  -9.696  1.00  0.00     0.004 C 
ATOM     17  C   UNL     1      -2.014   1.971 -10.627  1.00  0.00     0.004 C 
ENDBRANCH   6  15
ENDBRANCH   4   5
ENDBRANCH   1   4
BRANCH   3  18
ATOM     18  C   UNL     1      -3.099   4.556 -17.136  1.00  0.00     0.053 C 
BRANCH  18  19
ATOM     19  C   UNL     1      -2.005   4.166 -16.176  1.00  0.00     0.074 C 
BRANCH  19  20
ATOM     20  N   UNL     1      -2.170   3.797 -14.949  1.00  0.00    -0.313 NA
ATOM     21  H   UNL     1      -2.391   4.595 -14.338  1.00  0.00     0.186 HD
ENDBRANCH  19  20
ENDBRANCH  18  19
ENDBRANCH   3  18
TORSDOF 6
ENDMDL
MODEL 6
REMARK VINA RESULT:    -3.427      7.079      8.856
REMARK INTER + INTRA:          -4.772
REMARK INTER:                  -4.506
REMARK INTRA:                  -0.266
REMARK UNBOUND:                -0.243
REMARK SMILES [H]/N=C\C[C@H]1C[C@@H]1O[C@H]1CO[C@H]2C[C@@H](C3CC3)CCN2C1
REMARK SMILES IDX 7 1 6 2 5 3 8 4 9 5 14 6 13 7 18 8 12 9 19 10 20 11 11 12
REMARK SMILES IDX 21 13 10 14 15 15 16 16 17 17 4 18 3 19 2 20 1 21
REMARK H PARENT
ROOT
ATOM      1  C   UNL     1      -1.445   4.147 -15.602  1.00  0.00     0.122 C 
ATOM      2  C   UNL     1      -1.025   5.466 -15.017  1.00  0.00     0.039 C 
ATOM      3  C   UNL     1      -0.331   4.204 -14.591  1.00  0.00     0.026 C 
ENDROOT
BRANCH   1   4
ATOM      4  O   UNL     1      -2.720   3.675 -15.129  1.00  0.00    -0.371 OA
BRANCH   4   5
ATOM      5  C   UNL     1      -3.566   3.074 -16.124  1.00  0.00     0.158 C 
ATOM      6  C   UNL     1      -8.082   5.300 -14.761  1.00  0.00    -0.003 C 
ATOM      7  C   UNL     1      -7.170   4.216 -14.173  1.00  0.00     0.052 C 
ATOM      8  C   UNL     1      -7.225   6.338 -15.499  1.00  0.00     0.019 C 
ATOM      9  C   UNL     1      -6.239   3.617 -15.235  1.00  0.00     0.189 C 
ATOM     10  C   UNL     1      -6.297   5.674 -16.517  1.00  0.00     0.087 C 
ATOM     11  N   UNL     1      -5.450   4.669 -15.875  1.00  0.00    -0.276 NA
ATOM     12  O   UNL     1      -5.414   2.662 -14.564  1.00  0.00    -0.360 OA
ATOM     13  C   UNL     1      -4.493   4.085 -16.822  1.00  0.00     0.121 C 
ATOM     14  C   UNL     1      -4.459   2.041 -15.429  1.00  0.00     0.195 C 
BRANCH   6  15
ATOM     15  C   UNL     1      -8.915   5.965 -13.689  1.00  0.00    -0.008 C 
ATOM     16  C   UNL     1     -10.411   6.091 -13.853  1.00  0.00     0.004 C 
ATOM     17  C   UNL     1      -9.849   5.157 -12.821  1.00  0.00     0.004 C 
ENDBRANCH   6  15
ENDBRANCH   4   5
ENDBRANCH   1   4
BRANCH   3  18
ATOM     18  C   UNL     1       1.088   3.976 -15.018  1.00  0.00     0.053 C 
BRANCH  18  19
ATOM     19  C   UNL     1       1.860   2.944 -14.238  1.00  0.00     0.074 C 
BRANCH  19  20
ATOM     20  N   UNL     1       1.789   1.665 -14.398  1.00  0.00    -0.313 NA
ATOM     21  H   UNL     1       2.491   1.327 -15.072  1.00  0.00     0.186 HD
ENDBRANCH  19  20
ENDBRANCH  18  19
ENDBRANCH   3  18
TORSDOF 6
ENDMDL
MODEL 7
REMARK VINA RESULT:    -3.212      6.532      8.563
REMARK INTER + INTRA:          -4.487
REMARK INTER:                  -4.177
REMARK INTRA:                  -0.310
REMARK UNBOUND:                -0.243
REMARK SMILES [H]/N=C\C[C@H]1C[C@@H]1O[C@H]1CO[C@H]2C[C@@H](C3CC3)CCN2C1
REMARK SMILES IDX 7 1 6 2 5 3 8 4 9 5 14 6 13 7 18 8 12 9 19 10 20 11 11 12
REMARK SMILES IDX 21 13 10 14 15 15 16 16 17 17 4 18 3 19 2 20 1 21
REMARK H PARENT
ROOT
ATOM      1  C   UNL     1      -7.901   4.738 -13.531  1.00  0.00     0.122 C 
ATOM      2  C   UNL     1      -7.620   6.113 -12.993  1.00  0.00     0.039 C 
ATOM      3  C   UNL     1      -8.711   5.913 -14.006  1.00  0.00     0.026 C 
ENDROOT
BRANCH   1   4
ATOM      4  O   UNL     1      -6.892   4.243 -14.432  1.00  0.00    -0.371 OA
BRANCH   4   5
ATOM      5  C   UNL     1      -6.908   2.824 -14.660  1.00  0.00     0.158 C 
ATOM      6  C   UNL     1      -3.784   1.366 -10.746  1.00  0.00    -0.003 C 
ATOM      7  C   UNL     1      -3.600   2.077 -12.092  1.00  0.00     0.052 C 
ATOM      8  C   UNL     1      -5.162   1.720 -10.170  1.00  0.00     0.019 C 
ATOM      9  C   UNL     1      -4.768   1.800 -13.048  1.00  0.00     0.189 C 
ATOM     10  C   UNL     1      -6.276   1.454 -11.182  1.00  0.00     0.087 C 
ATOM     11  N   UNL     1      -6.037   2.182 -12.428  1.00  0.00    -0.276 NA
ATOM     12  O   UNL     1      -4.507   2.547 -14.239  1.00  0.00    -0.360 OA
ATOM     13  C   UNL     1      -7.141   2.006 -13.378  1.00  0.00     0.121 C 
ATOM     14  C   UNL     1      -5.541   2.416 -15.219  1.00  0.00     0.195 C 
BRANCH   6  15
ATOM     15  C   UNL     1      -2.690   1.733  -9.770  1.00  0.00    -0.008 C 
ATOM     16  C   UNL     1      -1.704   0.689  -9.299  1.00  0.00     0.004 C 
ATOM     17  C   UNL     1      -1.247   1.791 -10.211  1.00  0.00     0.004 C 
ENDBRANCH   6  15
ENDBRANCH   4   5
ENDBRANCH   1   4
BRANCH   3  18
ATOM     18  C   UNL     1     -10.139   6.070 -13.577  1.00  0.00     0.053 C 
BRANCH  18  19
ATOM     19  C   UNL     1     -10.843   7.316 -14.049  1.00  0.00     0.074 C 
BRANCH  19  20
ATOM     20  N   UNL     1     -11.269   8.275 -13.296  1.00  0.00    -0.313 NA
ATOM     21  H   UNL     1     -10.671   9.110 -13.371  1.00  0.00     0.186 HD
ENDBRANCH  19  20
ENDBRANCH  18  19
ENDBRANCH   3  18
TORSDOF 6
ENDMDL
MODEL 8
REMARK VINA RESULT:    -3.130      2.332      8.339
REMARK INTER + INTRA:          -4.379
REMARK INTER:                  -4.325
REMARK INTRA:                  -0.054
REMARK UNBOUND:                -0.243
REMARK SMILES [H]/N=C\C[C@H]1C[C@@H]1O[C@H]1CO[C@H]2C[C@@H](C3CC3)CCN2C1
REMARK SMILES IDX 7 1 6 2 5 3 8 4 9 5 14 6 13 7 18 8 12 9 19 10 20 11 11 12
REMARK SMILES IDX 21 13 10 14 15 15 16 16 17 17 4 18 3 19 2 20 1 21
REMARK H PARENT
ROOT
ATOM      1  C   UNL     1      -1.691   2.047 -10.029  1.00  0.00     0.122 C 
ATOM      2  C   UNL     1      -2.872   1.128 -10.166  1.00  0.00     0.039 C 
ATOM      3  C   UNL     1      -1.622   0.645  -9.489  1.00  0.00     0.026 C 
ENDROOT
BRANCH   1   4
ATOM      4  O   UNL     1      -0.995   2.296 -11.265  1.00  0.00    -0.371 OA
BRANCH   4   5
ATOM      5  C   UNL     1       0.006   3.326 -11.216  1.00  0.00     0.158 C 
ATOM      6  C   UNL     1       2.155   2.553 -15.905  1.00  0.00    -0.003 C 
ATOM      7  C   UNL     1       2.150   1.810 -14.564  1.00  0.00     0.052 C 
ATOM      8  C   UNL     1       0.812   3.273 -16.092  1.00  0.00     0.019 C 
ATOM      9  C   UNL     1       1.769   2.736 -13.400  1.00  0.00     0.189 C 
ATOM     10  C   UNL     1       0.476   4.151 -14.887  1.00  0.00     0.087 C 
ATOM     11  N   UNL     1       0.472   3.365 -13.652  1.00  0.00    -0.276 NA
ATOM     12  O   UNL     1       1.753   1.927 -12.223  1.00  0.00    -0.360 OA
ATOM     13  C   UNL     1       0.066   4.175 -12.498  1.00  0.00     0.121 C 
ATOM     14  C   UNL     1       1.373   2.654 -11.050  1.00  0.00     0.195 C 
BRANCH   6  15
ATOM     15  C   UNL     1       2.419   1.613 -17.059  1.00  0.00    -0.008 C 
ATOM     16  C   UNL     1       3.833   1.213 -17.411  1.00  0.00     0.004 C 
ATOM     17  C   UNL     1       2.897   0.202 -16.814  1.00  0.00     0.004 C 
ENDBRANCH   6  15
ENDBRANCH   4   5
ENDBRANCH   1   4
BRANCH   3  18
ATOM     18  C   UNL     1      -1.644   0.403  -8.009  1.00  0.00     0.053 C 
BRANCH  18  19
ATOM     19  C   UNL     1      -0.808  -0.747  -7.509  1.00  0.00     0.074 C 
BRANCH  19  20
ATOM     20  N   UNL     1      -0.920  -1.980  -7.877  1.00  0.00    -0.313 NA
ATOM     21  H   UNL     1      -1.867  -2.188  -8.224  1.00  0.00     0.186 HD
ENDBRANCH  19  20
ENDBRANCH  18  19
ENDBRANCH   3  18
TORSDOF 6
ENDMDL
MODEL 9
REMARK VINA RESULT:    -3.106      5.410      7.139
REMARK INTER + INTRA:          -4.347
REMARK INTER:                  -4.058
REMARK INTRA:                  -0.289
REMARK UNBOUND:                -0.243
REMARK SMILES [H]/N=C\C[C@H]1C[C@@H]1O[C@H]1CO[C@H]2C[C@@H](C3CC3)CCN2C1
REMARK SMILES IDX 7 1 6 2 5 3 8 4 9 5 14 6 13 7 18 8 12 9 19 10 20 11 11 12
REMARK SMILES IDX 21 13 10 14 15 15 16 16 17 17 4 18 3 19 2 20 1 21
REMARK H PARENT
ROOT
ATOM      1  C   UNL     1      -2.872   4.451 -17.182  1.00  0.00     0.122 C 
ATOM      2  C   UNL     1      -2.144   5.745 -17.415  1.00  0.00     0.039 C 
ATOM      3  C   UNL     1      -1.835   4.920 -16.199  1.00  0.00     0.026 C 
ENDROOT
BRANCH   1   4
ATOM      4  O   UNL     1      -4.249   4.614 -16.792  1.00  0.00    -0.371 OA
BRANCH   4   5
ATOM      5  C   UNL     1      -5.109   3.497 -17.071  1.00  0.00     0.158 C 
ATOM      6  C   UNL     1      -6.070   2.005 -12.167  1.00  0.00    -0.003 C 
ATOM      7  C   UNL     1      -4.867   1.948 -13.116  1.00  0.00     0.052 C 
ATOM      8  C   UNL     1      -6.895   3.264 -12.469  1.00  0.00     0.019 C 
ATOM      9  C   UNL     1      -5.294   2.079 -14.585  1.00  0.00     0.189 C 
ATOM     10  C   UNL     1      -7.258   3.352 -13.951  1.00  0.00     0.087 C 
ATOM     11  N   UNL     1      -6.058   3.310 -14.787  1.00  0.00    -0.276 NA
ATOM     12  O   UNL     1      -4.095   2.059 -15.362  1.00  0.00    -0.360 OA
ATOM     13  C   UNL     1      -6.382   3.481 -16.207  1.00  0.00     0.121 C 
ATOM     14  C   UNL     1      -4.333   2.212 -16.765  1.00  0.00     0.195 C 
BRANCH   6  15
ATOM     15  C   UNL     1      -5.635   1.990 -10.719  1.00  0.00    -0.008 C 
ATOM     16  C   UNL     1      -5.729   0.721  -9.906  1.00  0.00     0.004 C 
ATOM     17  C   UNL     1      -4.383   1.260 -10.294  1.00  0.00     0.004 C 
ENDBRANCH   6  15
ENDBRANCH   4   5
ENDBRANCH   1   4
BRANCH   3  18
ATOM     18  C   UNL     1      -0.509   4.225 -16.111  1.00  0.00     0.053 C 
BRANCH  18  19
ATOM     19  C   UNL     1       0.529   4.878 -15.235  1.00  0.00     0.074 C 
BRANCH  19  20
ATOM     20  N   UNL     1       1.771   5.060 -15.540  1.00  0.00    -0.313 NA
ATOM     21  H   UNL     1       1.971   4.771 -16.508  1.00  0.00     0.186 HD
ENDBRANCH  19  20
ENDBRANCH  18  19
ENDBRANCH   3  18
TORSDOF 6
ENDMDL
