MODEL 1
REMARK VINA RESULT:    -6.019      0.000      0.000
REMARK INTER + INTRA:          -7.571
REMARK INTER:                  -7.075
REMARK INTRA:                  -0.496
REMARK UNBOUND:                -0.496
REMARK SMILES Cc1ccc(CNC(=O)NC(=O)c2ccc(C)cc2)cc1
REMARK SMILES IDX 11 1 12 2 10 3 8 4 9 5 7 6 13 9 19 10 18 11 14 12 16 13
REMARK SMILES IDX 15 14 17 15 6 16 5 17 4 18 20 19 3 20 21 21 2 22 1 23
REMARK H PARENT 10 7 7 8
ROOT
ATOM      1  C   UNL     1       5.268  -0.826 -12.497  1.00  0.00     0.259 C 
ATOM      2  O   UNL     1       4.335  -0.790 -11.708  1.00  0.00    -0.269 OA
ATOM      3  N   UNL     1       6.598  -1.188 -12.264  1.00  0.00    -0.274 N 
ATOM      4  C   UNL     1       7.320  -1.817 -11.282  1.00  0.00     0.321 C 
ATOM      5  O   UNL     1       8.505  -2.076 -11.519  1.00  0.00    -0.248 OA
ATOM      6  N   UNL     1       6.799  -2.188 -10.098  1.00  0.00    -0.334 N 
ATOM      7  H   UNL     1       7.198  -1.118 -13.076  1.00  0.00     0.175 HD
ATOM      8  H   UNL     1       7.438  -2.716  -9.521  1.00  0.00     0.165 HD
ENDROOT
BRANCH   1   9
ATOM      9  C   UNL     1       4.969  -0.444 -13.891  1.00  0.00     0.040 A 
ATOM     10  C   UNL     1       4.060   0.573 -14.188  1.00  0.00     0.014 A 
ATOM     11  C   UNL     1       3.849   0.934 -15.519  1.00  0.00     0.004 A 
ATOM     12  C   UNL     1       5.620  -1.137 -14.916  1.00  0.00     0.014 A 
ATOM     13  C   UNL     1       4.537   0.280 -16.553  1.00  0.00    -0.051 A 
ATOM     14  C   UNL     1       5.412  -0.769 -16.244  1.00  0.00     0.004 A 
ATOM     15  C   UNL     1       4.363   0.737 -17.971  1.00  0.00     0.044 C 
ENDBRANCH   1   9
BRANCH   6  16
ATOM     16  C   UNL     1       5.435  -2.076  -9.667  1.00  0.00     0.153 C 
BRANCH  16  17
ATOM     17  C   UNL     1       5.191  -1.577  -8.270  1.00  0.00    -0.029 A 
ATOM     18  C   UNL     1       5.086  -2.427  -7.164  1.00  0.00     0.006 A 
ATOM     19  C   UNL     1       5.285  -0.193  -8.056  1.00  0.00     0.006 A 
ATOM     20  C   UNL     1       5.101  -1.896  -5.870  1.00  0.00     0.004 A 
ATOM     21  C   UNL     1       5.305   0.334  -6.768  1.00  0.00     0.004 A 
ATOM     22  C   UNL     1       5.223  -0.515  -5.663  1.00  0.00    -0.051 A 
ATOM     23  C   UNL     1       5.384   0.048  -4.282  1.00  0.00     0.044 C 
ENDBRANCH  16  17
ENDBRANCH   6  16
TORSDOF 3
ENDMDL
MODEL 2
REMARK VINA RESULT:    -6.009      3.011      5.435
REMARK INTER + INTRA:          -7.559
REMARK INTER:                  -7.067
REMARK INTRA:                  -0.492
REMARK UNBOUND:                -0.496
REMARK SMILES Cc1ccc(CNC(=O)NC(=O)c2ccc(C)cc2)cc1
REMARK SMILES IDX 11 1 12 2 10 3 8 4 9 5 7 6 13 9 19 10 18 11 14 12 16 13
REMARK SMILES IDX 15 14 17 15 6 16 5 17 4 18 20 19 3 20 21 21 2 22 1 23
REMARK H PARENT 10 7 7 8
ROOT
ATOM      1  C   UNL     1       8.208  -2.104 -10.862  1.00  0.00     0.259 C 
ATOM      2  O   UNL     1       8.040  -2.144  -9.651  1.00  0.00    -0.269 OA
ATOM      3  N   UNL     1       7.301  -1.732 -11.860  1.00  0.00    -0.274 N 
ATOM      4  C   UNL     1       6.089  -1.095 -11.941  1.00  0.00     0.321 C 
ATOM      5  O   UNL     1       5.656  -0.828 -13.067  1.00  0.00    -0.248 OA
ATOM      6  N   UNL     1       5.369  -0.724 -10.866  1.00  0.00    -0.334 N 
ATOM      7  H   UNL     1       7.665  -1.799 -12.801  1.00  0.00     0.175 HD
ATOM      8  H   UNL     1       4.543  -0.190 -11.094  1.00  0.00     0.165 HD
ENDROOT
BRANCH   1   9
ATOM      9  C   UNL     1       9.543  -2.491 -11.357  1.00  0.00     0.040 A 
ATOM     10  C   UNL     1      10.281  -3.505 -10.743  1.00  0.00     0.014 A 
ATOM     11  C   UNL     1      11.515  -3.872 -11.278  1.00  0.00     0.004 A 
ATOM     12  C   UNL     1      10.057  -1.807 -12.462  1.00  0.00     0.014 A 
ATOM     13  C   UNL     1      12.018  -3.227 -12.418  1.00  0.00    -0.051 A 
ATOM     14  C   UNL     1      11.288  -2.181 -12.998  1.00  0.00     0.004 A 
ATOM     15  C   UNL     1      13.306  -3.690 -13.032  1.00  0.00     0.044 C 
ENDBRANCH   1   9
BRANCH   6  16
ATOM     16  C   UNL     1       5.735  -0.845  -9.483  1.00  0.00     0.153 C 
BRANCH  16  17
ATOM     17  C   UNL     1       4.675  -1.321  -8.528  1.00  0.00    -0.029 A 
ATOM     18  C   UNL     1       3.778  -0.457  -7.892  1.00  0.00     0.006 A 
ATOM     19  C   UNL     1       4.458  -2.706  -8.447  1.00  0.00     0.006 A 
ATOM     20  C   UNL     1       2.671  -0.975  -7.211  1.00  0.00     0.004 A 
ATOM     21  C   UNL     1       3.354  -3.219  -7.773  1.00  0.00     0.004 A 
ATOM     22  C   UNL     1       2.445  -2.358  -7.158  1.00  0.00    -0.051 A 
ATOM     23  C   UNL     1       1.190  -2.912  -6.554  1.00  0.00     0.044 C 
ENDBRANCH  16  17
ENDBRANCH   6  16
TORSDOF 3
ENDMDL
MODEL 3
REMARK VINA RESULT:    -6.008      0.587      7.954
REMARK INTER + INTRA:          -7.558
REMARK INTER:                  -7.157
REMARK INTRA:                  -0.401
REMARK UNBOUND:                -0.496
REMARK SMILES Cc1ccc(CNC(=O)NC(=O)c2ccc(C)cc2)cc1
REMARK SMILES IDX 11 1 12 2 10 3 8 4 9 5 7 6 13 9 19 10 18 11 14 12 16 13
REMARK SMILES IDX 15 14 17 15 6 16 5 17 4 18 20 19 3 20 21 21 2 22 1 23
REMARK H PARENT 10 7 7 8
ROOT
ATOM      1  C   UNL     1       5.491  -1.353  -9.645  1.00  0.00     0.259 C 
ATOM      2  O   UNL     1       4.430  -1.400 -10.252  1.00  0.00    -0.269 OA
ATOM      3  N   UNL     1       6.789  -1.525 -10.137  1.00  0.00    -0.274 N 
ATOM      4  C   UNL     1       7.413  -1.562 -11.358  1.00  0.00     0.321 C 
ATOM      5  O   UNL     1       8.648  -1.603 -11.369  1.00  0.00    -0.248 OA
ATOM      6  N   UNL     1       6.756  -1.526 -12.532  1.00  0.00    -0.334 N 
ATOM      7  H   UNL     1       7.513  -1.462  -9.434  1.00  0.00     0.175 HD
ATOM      8  H   UNL     1       7.363  -1.474 -13.336  1.00  0.00     0.165 HD
ENDROOT
BRANCH   1   9
ATOM      9  C   UNL     1       5.413  -1.072  -8.199  1.00  0.00     0.040 A 
ATOM     10  C   UNL     1       5.428  -2.102  -7.256  1.00  0.00     0.014 A 
ATOM     11  C   UNL     1       5.406  -1.785  -5.897  1.00  0.00     0.004 A 
ATOM     12  C   UNL     1       5.316   0.262  -7.793  1.00  0.00     0.014 A 
ATOM     13  C   UNL     1       5.361  -0.446  -5.479  1.00  0.00    -0.051 A 
ATOM     14  C   UNL     1       5.301   0.575  -6.435  1.00  0.00     0.004 A 
ATOM     15  C   UNL     1       5.423  -0.119  -4.016  1.00  0.00     0.044 C 
ENDBRANCH   1   9
BRANCH   6  16
ATOM     16  C   UNL     1       5.343  -1.374 -12.740  1.00  0.00     0.153 C 
BRANCH  16  17
ATOM     17  C   UNL     1       4.902  -0.697 -14.008  1.00  0.00    -0.029 A 
ATOM     18  C   UNL     1       4.126   0.467 -14.021  1.00  0.00     0.006 A 
ATOM     19  C   UNL     1       5.475  -1.144 -15.209  1.00  0.00     0.006 A 
ATOM     20  C   UNL     1       3.953   1.179 -15.213  1.00  0.00     0.004 A 
ATOM     21  C   UNL     1       5.306  -0.433 -16.393  1.00  0.00     0.004 A 
ATOM     22  C   UNL     1       4.551   0.742 -16.403  1.00  0.00    -0.051 A 
ATOM     23  C   UNL     1       4.488   1.573 -17.649  1.00  0.00     0.044 C 
ENDBRANCH  16  17
ENDBRANCH   6  16
TORSDOF 3
ENDMDL
MODEL 4
REMARK VINA RESULT:    -5.997      3.104      7.291
REMARK INTER + INTRA:          -7.544
REMARK INTER:                  -7.145
REMARK INTRA:                  -0.399
REMARK UNBOUND:                -0.496
REMARK SMILES Cc1ccc(CNC(=O)NC(=O)c2ccc(C)cc2)cc1
REMARK SMILES IDX 11 1 12 2 10 3 8 4 9 5 7 6 13 9 19 10 18 11 14 12 16 13
REMARK SMILES IDX 15 14 17 15 6 16 5 17 4 18 20 19 3 20 21 21 2 22 1 23
REMARK H PARENT 10 7 7 8
ROOT
ATOM      1  C   UNL     1       5.713  -1.551  -9.525  1.00  0.00     0.259 C 
ATOM      2  O   UNL     1       6.795  -1.519  -8.955  1.00  0.00    -0.269 OA
ATOM      3  N   UNL     1       5.434  -1.372 -10.884  1.00  0.00    -0.274 N 
ATOM      4  C   UNL     1       6.129  -1.342 -12.066  1.00  0.00     0.321 C 
ATOM      5  O   UNL     1       5.476  -1.290 -13.113  1.00  0.00    -0.248 OA
ATOM      6  N   UNL     1       7.472  -1.397 -12.141  1.00  0.00    -0.334 N 
ATOM      7  H   UNL     1       4.451  -1.422 -11.118  1.00  0.00     0.175 HD
ATOM      8  H   UNL     1       7.824  -1.452 -13.086  1.00  0.00     0.165 HD
ENDROOT
BRANCH   1   9
ATOM      9  C   UNL     1       4.531  -1.817  -8.684  1.00  0.00     0.040 A 
ATOM     10  C   UNL     1       3.735  -0.778  -8.197  1.00  0.00     0.014 A 
ATOM     11  C   UNL     1       2.597  -1.082  -7.449  1.00  0.00     0.004 A 
ATOM     12  C   UNL     1       4.229  -3.147  -8.377  1.00  0.00     0.014 A 
ATOM     13  C   UNL     1       2.256  -2.416  -7.180  1.00  0.00    -0.051 A 
ATOM     14  C   UNL     1       3.087  -3.446  -7.635  1.00  0.00     0.004 A 
ATOM     15  C   UNL     1       0.984  -2.728  -6.447  1.00  0.00     0.044 C 
ENDBRANCH   1   9
BRANCH   6  16
ATOM     16  C   UNL     1       8.404  -1.563 -11.062  1.00  0.00     0.153 C 
BRANCH  16  17
ATOM     17  C   UNL     1       9.705  -2.248 -11.373  1.00  0.00    -0.029 A 
ATOM     18  C   UNL     1      10.138  -3.402 -10.713  1.00  0.00     0.006 A 
ATOM     19  C   UNL     1      10.400  -1.820 -12.517  1.00  0.00     0.006 A 
ATOM     20  C   UNL     1      11.230  -4.124 -11.207  1.00  0.00     0.004 A 
ATOM     21  C   UNL     1      11.482  -2.541 -13.010  1.00  0.00     0.004 A 
ATOM     22  C   UNL     1      11.900  -3.706 -12.365  1.00  0.00    -0.051 A 
ATOM     23  C   UNL     1      12.977  -4.549 -12.980  1.00  0.00     0.044 C 
ENDBRANCH  16  17
ENDBRANCH   6  16
TORSDOF 3
ENDMDL
MODEL 5
REMARK VINA RESULT:    -5.686      2.913      5.213
REMARK INTER + INTRA:          -7.178
REMARK INTER:                  -6.758
REMARK INTRA:                  -0.421
REMARK UNBOUND:                -0.496
REMARK SMILES Cc1ccc(CNC(=O)NC(=O)c2ccc(C)cc2)cc1
REMARK SMILES IDX 11 1 12 2 10 3 8 4 9 5 7 6 13 9 19 10 18 11 14 12 16 13
REMARK SMILES IDX 15 14 17 15 6 16 5 17 4 18 20 19 3 20 21 21 2 22 1 23
REMARK H PARENT 10 7 7 8
ROOT
ATOM      1  C   UNL     1       8.494  -2.010 -10.905  1.00  0.00     0.259 C 
ATOM      2  O   UNL     1       8.437  -1.837  -9.696  1.00  0.00    -0.269 OA
ATOM      3  N   UNL     1       7.495  -1.817 -11.865  1.00  0.00    -0.274 N 
ATOM      4  C   UNL     1       6.272  -1.202 -11.945  1.00  0.00     0.321 C 
ATOM      5  O   UNL     1       5.736  -1.135 -13.056  1.00  0.00    -0.248 OA
ATOM      6  N   UNL     1       5.649  -0.646 -10.890  1.00  0.00    -0.334 N 
ATOM      7  H   UNL     1       7.774  -2.050 -12.809  1.00  0.00     0.175 HD
ATOM      8  H   UNL     1       4.798  -0.158 -11.131  1.00  0.00     0.165 HD
ENDROOT
BRANCH   1   9
ATOM      9  C   UNL     1       9.784  -2.482 -11.445  1.00  0.00     0.040 A 
ATOM     10  C   UNL     1      10.489  -3.524 -10.840  1.00  0.00     0.014 A 
ATOM     11  C   UNL     1      11.678  -3.971 -11.417  1.00  0.00     0.004 A 
ATOM     12  C   UNL     1      10.289  -1.850 -12.585  1.00  0.00     0.014 A 
ATOM     13  C   UNL     1      12.168  -3.377 -12.590  1.00  0.00    -0.051 A 
ATOM     14  C   UNL     1      11.474  -2.304 -13.162  1.00  0.00     0.004 A 
ATOM     15  C   UNL     1      13.401  -3.924 -13.245  1.00  0.00     0.044 C 
ENDBRANCH   1   9
BRANCH   6  16
ATOM     16  C   UNL     1       6.140  -0.523  -9.546  1.00  0.00     0.153 C 
BRANCH  16  17
ATOM     17  C   UNL     1       5.156  -0.733  -8.429  1.00  0.00    -0.029 A 
ATOM     18  C   UNL     1       4.429  -1.917  -8.266  1.00  0.00     0.006 A 
ATOM     19  C   UNL     1       5.136   0.224  -7.402  1.00  0.00     0.006 A 
ATOM     20  C   UNL     1       3.717  -2.143  -7.083  1.00  0.00     0.004 A 
ATOM     21  C   UNL     1       4.431  -0.005  -6.224  1.00  0.00     0.004 A 
ATOM     22  C   UNL     1       3.724  -1.195  -6.050  1.00  0.00    -0.051 A 
ATOM     23  C   UNL     1       3.083  -1.491  -4.727  1.00  0.00     0.044 C 
ENDBRANCH  16  17
ENDBRANCH   6  16
TORSDOF 3
ENDMDL
MODEL 6
REMARK VINA RESULT:    -5.283      1.400      7.826
REMARK INTER + INTRA:          -6.705
REMARK INTER:                  -6.214
REMARK INTRA:                  -0.491
REMARK UNBOUND:                -0.496
REMARK SMILES Cc1ccc(CNC(=O)NC(=O)c2ccc(C)cc2)cc1
REMARK SMILES IDX 11 1 12 2 10 3 8 4 9 5 7 6 13 9 19 10 18 11 14 12 16 13
REMARK SMILES IDX 15 14 17 15 6 16 5 17 4 18 20 19 3 20 21 21 2 22 1 23
REMARK H PARENT 10 7 7 8
ROOT
ATOM      1  C   UNL     1       5.112  -1.901  -9.343  1.00  0.00     0.259 C 
ATOM      2  O   UNL     1       4.406  -2.426 -10.191  1.00  0.00    -0.269 OA
ATOM      3  N   UNL     1       6.395  -1.362  -9.483  1.00  0.00    -0.274 N 
ATOM      4  C   UNL     1       7.231  -0.988 -10.504  1.00  0.00     0.321 C 
ATOM      5  O   UNL     1       8.278  -0.404 -10.203  1.00  0.00    -0.248 OA
ATOM      6  N   UNL     1       6.956  -1.195 -11.805  1.00  0.00    -0.334 N 
ATOM      7  H   UNL     1       6.791  -0.999  -8.626  1.00  0.00     0.175 HD
ATOM      8  H   UNL     1       7.631  -0.784 -12.434  1.00  0.00     0.165 HD
ENDROOT
BRANCH   1   9
ATOM      9  C   UNL     1       4.552  -1.809  -7.981  1.00  0.00     0.040 A 
ATOM     10  C   UNL     1       5.337  -2.053  -6.852  1.00  0.00     0.014 A 
ATOM     11  C   UNL     1       4.776  -1.903  -5.584  1.00  0.00     0.004 A 
ATOM     12  C   UNL     1       3.200  -1.475  -7.848  1.00  0.00     0.014 A 
ATOM     13  C   UNL     1       3.434  -1.517  -5.439  1.00  0.00    -0.051 A 
ATOM     14  C   UNL     1       2.646  -1.320  -6.579  1.00  0.00     0.004 A 
ATOM     15  C   UNL     1       2.870  -1.277  -4.070  1.00  0.00     0.044 C 
ENDBRANCH   1   9
BRANCH   6  16
ATOM     16  C   UNL     1       5.760  -1.755 -12.369  1.00  0.00     0.153 C 
BRANCH  16  17
ATOM     17  C   UNL     1       5.139  -1.029 -13.530  1.00  0.00    -0.029 A 
ATOM     18  C   UNL     1       4.239   0.030 -13.375  1.00  0.00     0.006 A 
ATOM     19  C   UNL     1       5.656  -1.299 -14.808  1.00  0.00     0.006 A 
ATOM     20  C   UNL     1       3.886   0.816 -14.477  1.00  0.00     0.004 A 
ATOM     21  C   UNL     1       5.307  -0.514 -15.902  1.00  0.00     0.004 A 
ATOM     22  C   UNL     1       4.427   0.557 -15.744  1.00  0.00    -0.051 A 
ATOM     23  C   UNL     1       4.166   1.479 -16.898  1.00  0.00     0.044 C 
ENDBRANCH  16  17
ENDBRANCH   6  16
TORSDOF 3
ENDMDL
MODEL 7
REMARK VINA RESULT:    -5.276      3.108      7.494
REMARK INTER + INTRA:          -6.696
REMARK INTER:                  -6.204
REMARK INTRA:                  -0.492
REMARK UNBOUND:                -0.496
REMARK SMILES Cc1ccc(CNC(=O)NC(=O)c2ccc(C)cc2)cc1
REMARK SMILES IDX 11 1 12 2 10 3 8 4 9 5 7 6 13 9 19 10 18 11 14 12 16 13
REMARK SMILES IDX 15 14 17 15 6 16 5 17 4 18 20 19 3 20 21 21 2 22 1 23
REMARK H PARENT 10 7 7 8
ROOT
ATOM      1  C   UNL     1       5.607  -0.948  -9.065  1.00  0.00     0.259 C 
ATOM      2  O   UNL     1       6.711  -0.445  -8.908  1.00  0.00    -0.269 OA
ATOM      3  N   UNL     1       5.042  -1.472 -10.232  1.00  0.00    -0.274 N 
ATOM      4  C   UNL     1       5.464  -1.852 -11.480  1.00  0.00     0.321 C 
ATOM      5  O   UNL     1       4.647  -2.417 -12.214  1.00  0.00    -0.248 OA
ATOM      6  N   UNL     1       6.720  -1.668 -11.929  1.00  0.00    -0.334 N 
ATOM      7  H   UNL     1       4.098  -1.817 -10.119  1.00  0.00     0.175 HD
ATOM      8  H   UNL     1       6.892  -2.080 -12.835  1.00  0.00     0.165 HD
ENDROOT
BRANCH   1   9
ATOM      9  C   UNL     1       4.742  -1.026  -7.873  1.00  0.00     0.040 A 
ATOM     10  C   UNL     1       3.350  -1.049  -7.984  1.00  0.00     0.014 A 
ATOM     11  C   UNL     1       2.574  -1.176  -6.831  1.00  0.00     0.004 A 
ATOM     12  C   UNL     1       5.355  -1.069  -6.617  1.00  0.00     0.014 A 
ATOM     13  C   UNL     1       3.182  -1.273  -5.570  1.00  0.00    -0.051 A 
ATOM     14  C   UNL     1       4.577  -1.203  -5.469  1.00  0.00     0.004 A 
ATOM     15  C   UNL     1       2.338  -1.495  -4.350  1.00  0.00     0.044 C 
ENDBRANCH   1   9
BRANCH   6  16
ATOM     16  C   UNL     1       7.838  -1.132 -11.207  1.00  0.00     0.153 C 
BRANCH  16  17
ATOM     17  C   UNL     1       9.141  -1.877 -11.300  1.00  0.00    -0.029 A 
ATOM     18  C   UNL     1       9.485  -2.924 -10.438  1.00  0.00     0.006 A 
ATOM     19  C   UNL     1       9.938  -1.641 -12.432  1.00  0.00     0.006 A 
ATOM     20  C   UNL     1      10.592  -3.731 -10.723  1.00  0.00     0.004 A 
ATOM     21  C   UNL     1      11.036  -2.446 -12.717  1.00  0.00     0.004 A 
ATOM     22  C   UNL     1      11.366  -3.505 -11.870  1.00  0.00    -0.051 A 
ATOM     23  C   UNL     1      12.465  -4.450 -12.257  1.00  0.00     0.044 C 
ENDBRANCH  16  17
ENDBRANCH   6  16
TORSDOF 3
ENDMDL
MODEL 8
REMARK VINA RESULT:    -4.691      3.819      5.021
REMARK INTER + INTRA:          -6.009
REMARK INTER:                  -5.599
REMARK INTRA:                  -0.411
REMARK UNBOUND:                -0.496
REMARK SMILES Cc1ccc(CNC(=O)NC(=O)c2ccc(C)cc2)cc1
REMARK SMILES IDX 11 1 12 2 10 3 8 4 9 5 7 6 13 9 19 10 18 11 14 12 16 13
REMARK SMILES IDX 15 14 17 15 6 16 5 17 4 18 20 19 3 20 21 21 2 22 1 23
REMARK H PARENT 10 7 7 8
ROOT
ATOM      1  C   UNL     1       7.592  -1.625 -10.412  1.00  0.00     0.259 C 
ATOM      2  O   UNL     1       6.761  -2.489 -10.171  1.00  0.00    -0.269 OA
ATOM      3  N   UNL     1       7.504  -0.244 -10.206  1.00  0.00    -0.274 N 
ATOM      4  C   UNL     1       6.701   0.628  -9.518  1.00  0.00     0.321 C 
ATOM      5  O   UNL     1       7.047   1.814  -9.476  1.00  0.00    -0.248 OA
ATOM      6  N   UNL     1       5.584   0.256  -8.865  1.00  0.00    -0.334 N 
ATOM      7  H   UNL     1       8.318   0.275 -10.508  1.00  0.00     0.175 HD
ATOM      8  H   UNL     1       5.154   1.001  -8.337  1.00  0.00     0.165 HD
ENDROOT
BRANCH   1   9
ATOM      9  C   UNL     1       8.868  -2.080 -10.997  1.00  0.00     0.040 A 
ATOM     10  C   UNL     1       9.626  -3.086 -10.394  1.00  0.00     0.014 A 
ATOM     11  C   UNL     1      10.800  -3.520 -11.012  1.00  0.00     0.004 A 
ATOM     12  C   UNL     1       9.306  -1.469 -12.175  1.00  0.00     0.014 A 
ATOM     13  C   UNL     1      11.221  -2.949 -12.222  1.00  0.00    -0.051 A 
ATOM     14  C   UNL     1      10.475  -1.910 -12.792  1.00  0.00     0.004 A 
ATOM     15  C   UNL     1      12.439  -3.484 -12.916  1.00  0.00     0.044 C 
ENDBRANCH   1   9
BRANCH   6  16
ATOM     16  C   UNL     1       5.068  -1.074  -8.702  1.00  0.00     0.153 C 
BRANCH  16  17
ATOM     17  C   UNL     1       4.419  -1.405  -7.387  1.00  0.00    -0.029 A 
ATOM     18  C   UNL     1       5.117  -1.425  -6.175  1.00  0.00     0.006 A 
ATOM     19  C   UNL     1       3.017  -1.488  -7.364  1.00  0.00     0.006 A 
ATOM     20  C   UNL     1       4.418  -1.501  -4.966  1.00  0.00     0.004 A 
ATOM     21  C   UNL     1       2.323  -1.559  -6.161  1.00  0.00     0.004 A 
ATOM     22  C   UNL     1       3.017  -1.556  -4.950  1.00  0.00    -0.051 A 
ATOM     23  C   UNL     1       2.257  -1.494  -3.659  1.00  0.00     0.044 C 
ENDBRANCH  16  17
ENDBRANCH   6  16
TORSDOF 3
ENDMDL
MODEL 9
REMARK VINA RESULT:    -4.529      4.507      8.040
REMARK INTER + INTRA:          -5.819
REMARK INTER:                  -5.335
REMARK INTRA:                  -0.484
REMARK UNBOUND:                -0.496
REMARK SMILES Cc1ccc(CNC(=O)NC(=O)c2ccc(C)cc2)cc1
REMARK SMILES IDX 11 1 12 2 10 3 8 4 9 5 7 6 13 9 19 10 18 11 14 12 16 13
REMARK SMILES IDX 15 14 17 15 6 16 5 17 4 18 20 19 3 20 21 21 2 22 1 23
REMARK H PARENT 10 7 7 8
ROOT
ATOM      1  C   UNL     1       8.656  -1.746 -11.189  1.00  0.00     0.259 C 
ATOM      2  O   UNL     1       9.569  -2.171 -10.494  1.00  0.00    -0.269 OA
ATOM      3  N   UNL     1       8.688  -1.351 -12.530  1.00  0.00    -0.274 N 
ATOM      4  C   UNL     1       9.535  -1.471 -13.602  1.00  0.00     0.321 C 
ATOM      5  O   UNL     1       9.126  -1.084 -14.701  1.00  0.00    -0.248 OA
ATOM      6  N   UNL     1      10.764  -2.012 -13.522  1.00  0.00    -0.334 N 
ATOM      7  H   UNL     1       7.804  -1.011 -12.885  1.00  0.00     0.175 HD
ATOM      8  H   UNL     1      11.226  -2.106 -14.415  1.00  0.00     0.165 HD
ENDROOT
BRANCH   1   9
ATOM      9  C   UNL     1       7.333  -1.633 -10.544  1.00  0.00     0.040 A 
ATOM     10  C   UNL     1       6.377  -2.643 -10.662  1.00  0.00     0.014 A 
ATOM     11  C   UNL     1       5.160  -2.514  -9.991  1.00  0.00     0.004 A 
ATOM     12  C   UNL     1       7.057  -0.474  -9.813  1.00  0.00     0.014 A 
ATOM     13  C   UNL     1       4.893  -1.379  -9.212  1.00  0.00    -0.051 A 
ATOM     14  C   UNL     1       5.843  -0.352  -9.139  1.00  0.00     0.004 A 
ATOM     15  C   UNL     1       3.616  -1.294  -8.429  1.00  0.00     0.044 C 
ENDBRANCH   1   9
BRANCH   6  16
ATOM     16  C   UNL     1      11.385  -2.611 -12.374  1.00  0.00     0.153 C 
BRANCH  16  17
ATOM     17  C   UNL     1      12.058  -3.941 -12.569  1.00  0.00    -0.029 A 
ATOM     18  C   UNL     1      11.516  -5.146 -12.111  1.00  0.00     0.006 A 
ATOM     19  C   UNL     1      13.167  -3.981 -13.430  1.00  0.00     0.006 A 
ATOM     20  C   UNL     1      12.062  -6.364 -12.530  1.00  0.00     0.004 A 
ATOM     21  C   UNL     1      13.706  -5.192 -13.850  1.00  0.00     0.004 A 
ATOM     22  C   UNL     1      13.152  -6.396 -13.411  1.00  0.00    -0.051 A 
ATOM     23  C   UNL     1      13.651  -7.692 -13.976  1.00  0.00     0.044 C 
ENDBRANCH  16  17
ENDBRANCH   6  16
TORSDOF 3
ENDMDL
