MODEL 1
REMARK VINA RESULT:    -4.168      0.000      0.000
REMARK INTER + INTRA:          -5.710
REMARK INTER:                  -5.508
REMARK INTRA:                  -0.202
REMARK UNBOUND:                -0.202
REMARK SMILES [H]/N=C\C[C@H]1C[C@@H]1O[C@H]1CO[C@H]2C[C@@H](C3CC3)CCN2C1
REMARK SMILES IDX 7 1 6 2 5 3 8 4 9 5 14 6 13 7 18 8 12 9 19 10 20 11 11 12
REMARK SMILES IDX 21 13 10 14 15 15 16 16 17 17 4 18 3 19 2 20 1 21
REMARK H PARENT
ROOT
ATOM      1  C   UNL     1      13.124   5.381  16.605  1.00  0.00     0.122 C 
ATOM      2  C   UNL     1      12.886   4.321  17.644  1.00  0.00     0.039 C 
ATOM      3  C   UNL     1      12.630   4.020  16.195  1.00  0.00     0.026 C 
ENDROOT
BRANCH   1   4
ATOM      4  O   UNL     1      12.152   6.443  16.617  1.00  0.00    -0.371 OA
BRANCH   4   5
ATOM      5  C   UNL     1      12.465   7.578  15.793  1.00  0.00     0.158 C 
ATOM      6  C   UNL     1       8.385   7.339  12.551  1.00  0.00    -0.003 C 
ATOM      7  C   UNL     1       9.665   6.523  12.768  1.00  0.00     0.052 C 
ATOM      8  C   UNL     1       7.912   7.907  13.897  1.00  0.00     0.019 C 
ATOM      9  C   UNL     1      10.735   7.328  13.518  1.00  0.00     0.189 C 
ATOM     10  C   UNL     1       9.032   8.667  14.607  1.00  0.00     0.087 C 
ATOM     11  N   UNL     1      10.207   7.815  14.793  1.00  0.00    -0.276 NA
ATOM     12  O   UNL     1      11.851   6.455  13.699  1.00  0.00    -0.360 OA
ATOM     13  C   UNL     1      11.259   8.502  15.550  1.00  0.00     0.121 C 
ATOM     14  C   UNL     1      12.925   7.061  14.425  1.00  0.00     0.195 C 
BRANCH   6  15
ATOM     15  C   UNL     1       7.297   6.506  11.915  1.00  0.00    -0.008 C 
ATOM     16  C   UNL     1       6.646   6.954  10.627  1.00  0.00     0.004 C 
ATOM     17  C   UNL     1       7.549   5.754  10.630  1.00  0.00     0.004 C 
ENDBRANCH   6  15
ENDBRANCH   4   5
ENDBRANCH   1   4
BRANCH   3  18
ATOM     18  C   UNL     1      13.542   3.069  15.479  1.00  0.00     0.053 C 
BRANCH  18  19
ATOM     19  C   UNL     1      13.120   2.660  14.092  1.00  0.00     0.074 C 
BRANCH  19  20
ATOM     20  N   UNL     1      13.447   1.563  13.494  1.00  0.00    -0.313 NA
ATOM     21  H   UNL     1      12.762   0.815  13.670  1.00  0.00     0.186 HD
ENDBRANCH  19  20
ENDBRANCH  18  19
ENDBRANCH   3  18
TORSDOF 6
ENDMDL
MODEL 2
REMARK VINA RESULT:    -3.826      7.902     10.123
REMARK INTER + INTRA:          -5.259
REMARK INTER:                  -5.072
REMARK INTRA:                  -0.187
REMARK UNBOUND:                -0.202
REMARK SMILES [H]/N=C\C[C@H]1C[C@@H]1O[C@H]1CO[C@H]2C[C@@H](C3CC3)CCN2C1
REMARK SMILES IDX 7 1 6 2 5 3 8 4 9 5 14 6 13 7 18 8 12 9 19 10 20 11 11 12
REMARK SMILES IDX 21 13 10 14 15 15 16 16 17 17 4 18 3 19 2 20 1 21
REMARK H PARENT
ROOT
ATOM      1  C   UNL     1       4.777   8.414   9.839  1.00  0.00     0.122 C 
ATOM      2  C   UNL     1       5.418   7.170  10.387  1.00  0.00     0.039 C 
ATOM      3  C   UNL     1       3.924   7.245  10.250  1.00  0.00     0.026 C 
ENDROOT
BRANCH   1   4
ATOM      4  O   UNL     1       4.809   9.536  10.742  1.00  0.00    -0.371 OA
BRANCH   4   5
ATOM      5  C   UNL     1       4.851  10.831  10.119  1.00  0.00     0.158 C 
ATOM      6  C   UNL     1       3.340  13.710  14.197  1.00  0.00    -0.003 C 
ATOM      7  C   UNL     1       2.662  12.726  13.236  1.00  0.00     0.052 C 
ATOM      8  C   UNL     1       4.801  13.290  14.406  1.00  0.00     0.019 C 
ATOM      9  C   UNL     1       3.458  12.560  11.934  1.00  0.00     0.189 C 
ATOM     10  C   UNL     1       5.527  13.110  13.073  1.00  0.00     0.087 C 
ATOM     11  N   UNL     1       4.830  12.143  12.224  1.00  0.00    -0.276 NA
ATOM     12  O   UNL     1       2.758  11.593  11.148  1.00  0.00    -0.360 OA
ATOM     13  C   UNL     1       5.560  11.894  10.977  1.00  0.00     0.121 C 
ATOM     14  C   UNL     1       3.409  11.304   9.907  1.00  0.00     0.195 C 
BRANCH   6  15
ATOM     15  C   UNL     1       2.614  13.783  15.521  1.00  0.00    -0.008 C 
ATOM     16  C   UNL     1       2.571  15.077  16.299  1.00  0.00     0.004 C 
ATOM     17  C   UNL     1       1.321  14.552  15.654  1.00  0.00     0.004 C 
ENDBRANCH   6  15
ENDBRANCH   4   5
ENDBRANCH   1   4
BRANCH   3  18
ATOM     18  C   UNL     1       3.247   6.402   9.211  1.00  0.00     0.053 C 
BRANCH  18  19
ATOM     19  C   UNL     1       2.002   5.675   9.650  1.00  0.00     0.074 C 
BRANCH  19  20
ATOM     20  N   UNL     1       1.716   5.326  10.860  1.00  0.00    -0.313 NA
ATOM     21  H   UNL     1       1.407   4.345  10.909  1.00  0.00     0.186 HD
ENDBRANCH  19  20
ENDBRANCH  18  19
ENDBRANCH   3  18
TORSDOF 6
ENDMDL
MODEL 3
REMARK VINA RESULT:    -3.826      5.303      8.285
REMARK INTER + INTRA:          -5.258
REMARK INTER:                  -5.050
REMARK INTRA:                  -0.208
REMARK UNBOUND:                -0.202
REMARK SMILES [H]/N=C\C[C@H]1C[C@@H]1O[C@H]1CO[C@H]2C[C@@H](C3CC3)CCN2C1
REMARK SMILES IDX 7 1 6 2 5 3 8 4 9 5 14 6 13 7 18 8 12 9 19 10 20 11 11 12
REMARK SMILES IDX 21 13 10 14 15 15 16 16 17 17 4 18 3 19 2 20 1 21
REMARK H PARENT
ROOT
ATOM      1  C   UNL     1       7.556   6.957  10.660  1.00  0.00     0.122 C 
ATOM      2  C   UNL     1       7.821   6.906  12.139  1.00  0.00     0.039 C 
ATOM      3  C   UNL     1       8.528   5.953  11.218  1.00  0.00     0.026 C 
ENDROOT
BRANCH   1   4
ATOM      4  O   UNL     1       6.261   6.457  10.278  1.00  0.00    -0.371 OA
BRANCH   4   5
ATOM      5  C   UNL     1       5.147   7.297  10.622  1.00  0.00     0.158 C 
ATOM      6  C   UNL     1       2.506   6.968   6.136  1.00  0.00    -0.003 C 
ATOM      7  C   UNL     1       3.798   7.651   6.602  1.00  0.00     0.052 C 
ATOM      8  C   UNL     1       2.312   5.661   6.918  1.00  0.00     0.019 C 
ATOM      9  C   UNL     1       3.832   7.823   8.127  1.00  0.00     0.189 C 
ATOM     10  C   UNL     1       2.391   5.896   8.426  1.00  0.00     0.087 C 
ATOM     11  N   UNL     1       3.657   6.531   8.791  1.00  0.00    -0.276 NA
ATOM     12  O   UNL     1       5.091   8.422   8.442  1.00  0.00    -0.360 OA
ATOM     13  C   UNL     1       3.786   6.684  10.244  1.00  0.00     0.121 C 
ATOM     14  C   UNL     1       5.285   8.612   9.847  1.00  0.00     0.195 C 
BRANCH   6  15
ATOM     15  C   UNL     1       2.528   6.698   4.648  1.00  0.00    -0.008 C 
ATOM     16  C   UNL     1       1.332   7.044   3.792  1.00  0.00     0.004 C 
ATOM     17  C   UNL     1       2.602   7.834   3.657  1.00  0.00     0.004 C 
ENDBRANCH   6  15
ENDBRANCH   4   5
ENDBRANCH   1   4
BRANCH   3  18
ATOM     18  C   UNL     1      10.001   6.120  10.991  1.00  0.00     0.053 C 
BRANCH  18  19
ATOM     19  C   UNL     1      10.852   6.272  12.224  1.00  0.00     0.074 C 
BRANCH  19  20
ATOM     20  N   UNL     1      11.001   5.389  13.155  1.00  0.00    -0.313 NA
ATOM     21  H   UNL     1      10.567   5.691  14.038  1.00  0.00     0.186 HD
ENDBRANCH  19  20
ENDBRANCH  18  19
ENDBRANCH   3  18
TORSDOF 6
ENDMDL
MODEL 4
REMARK VINA RESULT:    -3.809      8.260     10.702
REMARK INTER + INTRA:          -5.236
REMARK INTER:                  -5.020
REMARK INTRA:                  -0.216
REMARK UNBOUND:                -0.202
REMARK SMILES [H]/N=C\C[C@H]1C[C@@H]1O[C@H]1CO[C@H]2C[C@@H](C3CC3)CCN2C1
REMARK SMILES IDX 7 1 6 2 5 3 8 4 9 5 14 6 13 7 18 8 12 9 19 10 20 11 11 12
REMARK SMILES IDX 21 13 10 14 15 15 16 16 17 17 4 18 3 19 2 20 1 21
REMARK H PARENT
ROOT
ATOM      1  C   UNL     1       4.172  10.581  10.840  1.00  0.00     0.122 C 
ATOM      2  C   UNL     1       5.150  11.690  11.110  1.00  0.00     0.039 C 
ATOM      3  C   UNL     1       3.693  12.005  10.922  1.00  0.00     0.026 C 
ENDROOT
BRANCH   1   4
ATOM      4  O   UNL     1       4.279  10.012   9.521  1.00  0.00    -0.371 OA
BRANCH   4   5
ATOM      5  C   UNL     1       5.465   9.239   9.275  1.00  0.00     0.158 C 
ATOM      6  C   UNL     1       3.310   5.351   6.545  1.00  0.00    -0.003 C 
ATOM      7  C   UNL     1       3.310   5.794   8.013  1.00  0.00     0.052 C 
ATOM      8  C   UNL     1       3.412   6.589   5.642  1.00  0.00     0.019 C 
ATOM      9  C   UNL     1       4.502   6.705   8.334  1.00  0.00     0.189 C 
ATOM     10  C   UNL     1       4.598   7.470   6.035  1.00  0.00     0.087 C 
ATOM     11  N   UNL     1       4.513   7.864   7.441  1.00  0.00    -0.276 NA
ATOM     12  O   UNL     1       4.369   7.086   9.705  1.00  0.00    -0.360 OA
ATOM     13  C   UNL     1       5.597   8.782   7.811  1.00  0.00     0.121 C 
ATOM     14  C   UNL     1       5.400   7.977  10.142  1.00  0.00     0.195 C 
BRANCH   6  15
ATOM     15  C   UNL     1       2.074   4.548   6.207  1.00  0.00    -0.008 C 
ATOM     16  C   UNL     1       2.195   3.230   5.481  1.00  0.00     0.004 C 
ATOM     17  C   UNL     1       1.775   3.253   6.921  1.00  0.00     0.004 C 
ENDBRANCH   6  15
ENDBRANCH   4   5
ENDBRANCH   1   4
BRANCH   3  18
ATOM     18  C   UNL     1       2.892  12.465  12.103  1.00  0.00     0.053 C 
BRANCH  18  19
ATOM     19  C   UNL     1       3.410  13.681  12.827  1.00  0.00     0.074 C 
BRANCH  19  20
ATOM     20  N   UNL     1       2.944  14.881  12.722  1.00  0.00    -0.313 NA
ATOM     21  H   UNL     1       2.040  14.981  13.206  1.00  0.00     0.186 HD
ENDBRANCH  19  20
ENDBRANCH  18  19
ENDBRANCH   3  18
TORSDOF 6
ENDMDL
MODEL 5
REMARK VINA RESULT:    -3.734      6.183      9.565
REMARK INTER + INTRA:          -5.137
REMARK INTER:                  -4.873
REMARK INTRA:                  -0.264
REMARK UNBOUND:                -0.202
REMARK SMILES [H]/N=C\C[C@H]1C[C@@H]1O[C@H]1CO[C@H]2C[C@@H](C3CC3)CCN2C1
REMARK SMILES IDX 7 1 6 2 5 3 8 4 9 5 14 6 13 7 18 8 12 9 19 10 20 11 11 12
REMARK SMILES IDX 21 13 10 14 15 15 16 16 17 17 4 18 3 19 2 20 1 21
REMARK H PARENT
ROOT
ATOM      1  C   UNL     1       2.897  12.946  13.561  1.00  0.00     0.122 C 
ATOM      2  C   UNL     1       1.628  12.873  14.363  1.00  0.00     0.039 C 
ATOM      3  C   UNL     1       2.934  12.481  14.992  1.00  0.00     0.026 C 
ENDROOT
BRANCH   1   4
ATOM      4  O   UNL     1       3.011  11.928  12.549  1.00  0.00    -0.371 OA
BRANCH   4   5
ATOM      5  C   UNL     1       3.704  12.319  11.352  1.00  0.00     0.158 C 
ATOM      6  C   UNL     1       6.125   7.811  10.341  1.00  0.00    -0.003 C 
ATOM      7  C   UNL     1       6.273   8.928  11.381  1.00  0.00     0.052 C 
ATOM      8  C   UNL     1       4.646   7.673   9.952  1.00  0.00     0.019 C 
ATOM      9  C   UNL     1       5.626  10.237  10.908  1.00  0.00     0.189 C 
ATOM     10  C   UNL     1       4.054   9.016   9.524  1.00  0.00     0.087 C 
ATOM     11  N   UNL     1       4.218  10.019  10.575  1.00  0.00    -0.276 NA
ATOM     12  O   UNL     1       5.787  11.179  11.970  1.00  0.00    -0.360 OA
ATOM     13  C   UNL     1       3.578  11.289  10.215  1.00  0.00     0.121 C 
ATOM     14  C   UNL     1       5.193  12.450  11.686  1.00  0.00     0.195 C 
BRANCH   6  15
ATOM     15  C   UNL     1       6.662   6.496  10.858  1.00  0.00    -0.008 C 
ATOM     16  C   UNL     1       8.080   6.076  10.550  1.00  0.00     0.004 C 
ATOM     17  C   UNL     1       7.704   6.462  11.951  1.00  0.00     0.004 C 
ENDBRANCH   6  15
ENDBRANCH   4   5
ENDBRANCH   1   4
BRANCH   3  18
ATOM     18  C   UNL     1       3.521  13.358  16.057  1.00  0.00     0.053 C 
BRANCH  18  19
ATOM     19  C   UNL     1       4.745  12.829  16.757  1.00  0.00     0.074 C 
BRANCH  19  20
ATOM     20  N   UNL     1       5.597  11.992  16.265  1.00  0.00    -0.313 NA
ATOM     21  H   UNL     1       5.224  11.518  15.430  1.00  0.00     0.186 HD
ENDBRANCH  19  20
ENDBRANCH  18  19
ENDBRANCH   3  18
TORSDOF 6
ENDMDL
MODEL 6
REMARK VINA RESULT:    -3.639      3.327      5.803
REMARK INTER + INTRA:          -5.011
REMARK INTER:                  -4.843
REMARK INTRA:                  -0.168
REMARK UNBOUND:                -0.202
REMARK SMILES [H]/N=C\C[C@H]1C[C@@H]1O[C@H]1CO[C@H]2C[C@@H](C3CC3)CCN2C1
REMARK SMILES IDX 7 1 6 2 5 3 8 4 9 5 14 6 13 7 18 8 12 9 19 10 20 11 11 12
REMARK SMILES IDX 21 13 10 14 15 15 16 16 17 17 4 18 3 19 2 20 1 21
REMARK H PARENT
ROOT
ATOM      1  C   UNL     1      11.988   9.984  14.698  1.00  0.00     0.122 C 
ATOM      2  C   UNL     1      12.982  10.752  13.873  1.00  0.00     0.039 C 
ATOM      3  C   UNL     1      11.892  11.482  14.605  1.00  0.00     0.026 C 
ENDROOT
BRANCH   1   4
ATOM      4  O   UNL     1      11.040   9.228  13.921  1.00  0.00    -0.371 OA
BRANCH   4   5
ATOM      5  C   UNL     1      10.489   8.071  14.571  1.00  0.00     0.158 C 
ATOM      6  C   UNL     1       6.877   6.824  11.020  1.00  0.00    -0.003 C 
ATOM      7  C   UNL     1       7.055   7.935  12.063  1.00  0.00     0.052 C 
ATOM      8  C   UNL     1       8.254   6.400  10.491  1.00  0.00     0.019 C 
ATOM      9  C   UNL     1       8.050   7.533  13.160  1.00  0.00     0.189 C 
ATOM     10  C   UNL     1       9.207   6.046  11.633  1.00  0.00     0.087 C 
ATOM     11  N   UNL     1       9.337   7.161  12.571  1.00  0.00    -0.276 NA
ATOM     12  O   UNL     1       8.166   8.654  14.038  1.00  0.00    -0.360 OA
ATOM     13  C   UNL     1      10.314   6.869  13.625  1.00  0.00     0.121 C 
ATOM     14  C   UNL     1       9.099   8.439  15.101  1.00  0.00     0.195 C 
BRANCH   6  15
ATOM     15  C   UNL     1       5.985   7.269   9.883  1.00  0.00    -0.008 C 
ATOM     16  C   UNL     1       4.485   7.125   9.988  1.00  0.00     0.004 C 
ATOM     17  C   UNL     1       5.109   8.490  10.020  1.00  0.00     0.004 C 
ENDBRANCH   6  15
ENDBRANCH   4   5
ENDBRANCH   1   4
BRANCH   3  18
ATOM     18  C   UNL     1      12.254  12.337  15.782  1.00  0.00     0.053 C 
BRANCH  18  19
ATOM     19  C   UNL     1      12.298  13.823  15.538  1.00  0.00     0.074 C 
BRANCH  19  20
ATOM     20  N   UNL     1      11.669  14.456  14.604  1.00  0.00    -0.313 NA
ATOM     21  H   UNL     1      11.467  13.844  13.801  1.00  0.00     0.186 HD
ENDBRANCH  19  20
ENDBRANCH  18  19
ENDBRANCH   3  18
TORSDOF 6
ENDMDL
MODEL 7
REMARK VINA RESULT:    -3.569      2.648      4.982
REMARK INTER + INTRA:          -4.918
REMARK INTER:                  -4.330
REMARK INTRA:                  -0.588
REMARK UNBOUND:                -0.202
REMARK SMILES [H]/N=C\C[C@H]1C[C@@H]1O[C@H]1CO[C@H]2C[C@@H](C3CC3)CCN2C1
REMARK SMILES IDX 7 1 6 2 5 3 8 4 9 5 14 6 13 7 18 8 12 9 19 10 20 11 11 12
REMARK SMILES IDX 21 13 10 14 15 15 16 16 17 17 4 18 3 19 2 20 1 21
REMARK H PARENT
ROOT
ATOM      1  C   UNL     1      11.602  10.227  15.732  1.00  0.00     0.122 C 
ATOM      2  C   UNL     1      11.829  11.708  15.618  1.00  0.00     0.039 C 
ATOM      3  C   UNL     1      10.700  11.064  14.867  1.00  0.00     0.026 C 
ENDROOT
BRANCH   1   4
ATOM      4  O   UNL     1      12.589   9.428  15.051  1.00  0.00    -0.371 OA
BRANCH   4   5
ATOM      5  C   UNL     1      12.633   8.043  15.430  1.00  0.00     0.158 C 
ATOM      6  C   UNL     1       9.537   6.113  11.703  1.00  0.00    -0.003 C 
ATOM      7  C   UNL     1       9.339   6.961  12.965  1.00  0.00     0.052 C 
ATOM      8  C   UNL     1      10.907   6.431  11.088  1.00  0.00     0.019 C 
ATOM      9  C   UNL     1      10.513   6.811  13.942  1.00  0.00     0.189 C 
ATOM     10  C   UNL     1      12.027   6.297  12.119  1.00  0.00     0.087 C 
ATOM     11  N   UNL     1      11.773   7.149  13.281  1.00  0.00    -0.276 NA
ATOM     12  O   UNL     1      10.238   7.675  15.047  1.00  0.00    -0.360 OA
ATOM     13  C   UNL     1      12.881   7.097  14.241  1.00  0.00     0.121 C 
ATOM     14  C   UNL     1      11.275   7.670  16.033  1.00  0.00     0.195 C 
BRANCH   6  15
ATOM     15  C   UNL     1       8.434   6.352  10.695  1.00  0.00    -0.008 C 
ATOM     16  C   UNL     1       7.330   5.337  10.516  1.00  0.00     0.004 C 
ATOM     17  C   UNL     1       7.028   6.665  11.147  1.00  0.00     0.004 C 
ENDBRANCH   6  15
ENDBRANCH   4   5
ENDBRANCH   1   4
BRANCH   3  18
ATOM     18  C   UNL     1       9.290  11.343  15.294  1.00  0.00     0.053 C 
BRANCH  18  19
ATOM     19  C   UNL     1       8.220  10.498  14.652  1.00  0.00     0.074 C 
BRANCH  19  20
ATOM     20  N   UNL     1       7.761   9.381  15.109  1.00  0.00    -0.313 NA
ATOM     21  H   UNL     1       6.817   9.182  14.748  1.00  0.00     0.186 HD
ENDBRANCH  19  20
ENDBRANCH  18  19
ENDBRANCH   3  18
TORSDOF 6
ENDMDL
MODEL 8
REMARK VINA RESULT:    -3.520      7.057      8.943
REMARK INTER + INTRA:          -4.854
REMARK INTER:                  -4.323
REMARK INTRA:                  -0.531
REMARK UNBOUND:                -0.202
REMARK SMILES [H]/N=C\C[C@H]1C[C@@H]1O[C@H]1CO[C@H]2C[C@@H](C3CC3)CCN2C1
REMARK SMILES IDX 7 1 6 2 5 3 8 4 9 5 14 6 13 7 18 8 12 9 19 10 20 11 11 12
REMARK SMILES IDX 21 13 10 14 15 15 16 16 17 17 4 18 3 19 2 20 1 21
REMARK H PARENT
ROOT
ATOM      1  C   UNL     1       7.404  13.605  16.473  1.00  0.00     0.122 C 
ATOM      2  C   UNL     1       7.943  12.805  17.625  1.00  0.00     0.039 C 
ATOM      3  C   UNL     1       7.547  12.113  16.352  1.00  0.00     0.026 C 
ENDROOT
BRANCH   1   4
ATOM      4  O   UNL     1       6.071  14.110  16.681  1.00  0.00    -0.371 OA
BRANCH   4   5
ATOM      5  C   UNL     1       5.700  15.234  15.867  1.00  0.00     0.158 C 
ATOM      6  C   UNL     1       3.502  12.643  11.910  1.00  0.00    -0.003 C 
ATOM      7  C   UNL     1       4.931  12.859  12.422  1.00  0.00     0.052 C 
ATOM      8  C   UNL     1       2.532  12.640  13.099  1.00  0.00     0.019 C 
ATOM      9  C   UNL     1       5.034  14.102  13.317  1.00  0.00     0.189 C 
ATOM     10  C   UNL     1       2.709  13.885  13.968  1.00  0.00     0.087 C 
ATOM     11  N   UNL     1       4.091  14.008  14.431  1.00  0.00    -0.276 NA
ATOM     12  O   UNL     1       6.389  14.170  13.766  1.00  0.00    -0.360 OA
ATOM     13  C   UNL     1       4.258  15.150  15.337  1.00  0.00     0.121 C 
ATOM     14  C   UNL     1       6.631  15.269  14.651  1.00  0.00     0.195 C 
BRANCH   6  15
ATOM     15  C   UNL     1       3.383  11.357  11.124  1.00  0.00    -0.008 C 
ATOM     16  C   UNL     1       3.514  11.367   9.619  1.00  0.00     0.004 C 
ATOM     17  C   UNL     1       4.591  10.743  10.458  1.00  0.00     0.004 C 
ENDBRANCH   6  15
ENDBRANCH   4   5
ENDBRANCH   1   4
BRANCH   3  18
ATOM     18  C   UNL     1       8.617  11.524  15.482  1.00  0.00     0.053 C 
BRANCH  18  19
ATOM     19  C   UNL     1       8.235  11.246  14.051  1.00  0.00     0.074 C 
BRANCH  19  20
ATOM     20  N   UNL     1       8.378  12.057  13.057  1.00  0.00    -0.313 NA
ATOM     21  H   UNL     1       8.877  11.613  12.273  1.00  0.00     0.186 HD
ENDBRANCH  19  20
ENDBRANCH  18  19
ENDBRANCH   3  18
TORSDOF 6
ENDMDL
MODEL 9
REMARK VINA RESULT:    -3.431      5.830      7.703
REMARK INTER + INTRA:          -4.736
REMARK INTER:                  -4.431
REMARK INTRA:                  -0.305
REMARK UNBOUND:                -0.202
REMARK SMILES [H]/N=C\C[C@H]1C[C@@H]1O[C@H]1CO[C@H]2C[C@@H](C3CC3)CCN2C1
REMARK SMILES IDX 7 1 6 2 5 3 8 4 9 5 14 6 13 7 18 8 12 9 19 10 20 11 11 12
REMARK SMILES IDX 21 13 10 14 15 15 16 16 17 17 4 18 3 19 2 20 1 21
REMARK H PARENT
ROOT
ATOM      1  C   UNL     1       7.462  12.847  16.101  1.00  0.00     0.122 C 
ATOM      2  C   UNL     1       7.282  12.172  17.431  1.00  0.00     0.039 C 
ATOM      3  C   UNL     1       7.923  11.429  16.295  1.00  0.00     0.026 C 
ENDROOT
BRANCH   1   4
ATOM      4  O   UNL     1       6.237  13.032  15.366  1.00  0.00    -0.371 OA
BRANCH   4   5
ATOM      5  C   UNL     1       6.305  13.963  14.273  1.00  0.00     0.158 C 
ATOM      6  C   UNL     1       4.618  10.821  10.467  1.00  0.00    -0.003 C 
ATOM      7  C   UNL     1       5.900  10.948  11.299  1.00  0.00     0.052 C 
ATOM      8  C   UNL     1       3.416  11.251  11.318  1.00  0.00     0.019 C 
ATOM      9  C   UNL     1       6.041  12.344  11.919  1.00  0.00     0.189 C 
ATOM     10  C   UNL     1       3.633  12.633  11.934  1.00  0.00     0.087 C 
ATOM     11  N   UNL     1       4.863  12.665  12.726  1.00  0.00    -0.276 NA
ATOM     12  O   UNL     1       7.237  12.325  12.701  1.00  0.00    -0.360 OA
ATOM     13  C   UNL     1       5.041  13.959  13.395  1.00  0.00     0.121 C 
ATOM     14  C   UNL     1       7.483  13.561  13.379  1.00  0.00     0.195 C 
BRANCH   6  15
ATOM     15  C   UNL     1       4.427   9.412   9.952  1.00  0.00    -0.008 C 
ATOM     16  C   UNL     1       5.245   8.907   8.787  1.00  0.00     0.004 C 
ATOM     17  C   UNL     1       5.490   8.361  10.164  1.00  0.00     0.004 C 
ENDBRANCH   6  15
ENDBRANCH   4   5
ENDBRANCH   1   4
BRANCH   3  18
ATOM     18  C   UNL     1       9.387  11.113  16.367  1.00  0.00     0.053 C 
BRANCH  18  19
ATOM     19  C   UNL     1      10.044  10.701  15.075  1.00  0.00     0.074 C 
BRANCH  19  20
ATOM     20  N   UNL     1       9.614  10.970  13.888  1.00  0.00    -0.313 NA
ATOM     21  H   UNL     1       8.742  10.465  13.677  1.00  0.00     0.186 HD
ENDBRANCH  19  20
ENDBRANCH  18  19
ENDBRANCH   3  18
TORSDOF 6
ENDMDL
