MODEL 1
REMARK VINA RESULT:    -5.943      0.000      0.000
REMARK INTER + INTRA:          -7.370
REMARK INTER:                  -6.985
REMARK INTRA:                  -0.384
REMARK UNBOUND:                -0.384
REMARK SMILES Cc1ccc(CNC(=O)NC(=O)c2ccc(C)cc2)cc1
REMARK SMILES IDX 11 1 12 2 10 3 8 4 9 5 7 6 13 9 19 10 18 11 14 12 16 13
REMARK SMILES IDX 15 14 17 15 6 16 5 17 4 18 20 19 3 20 21 21 2 22 1 23
REMARK H PARENT 10 7 7 8
ROOT
ATOM      1  C   UNL     1       4.584   7.335   8.567  1.00  0.00     0.259 C 
ATOM      2  O   UNL     1       5.044   6.258   8.919  1.00  0.00    -0.269 OA
ATOM      3  N   UNL     1       4.620   8.563   9.236  1.00  0.00    -0.274 N 
ATOM      4  C   UNL     1       5.291   9.121  10.294  1.00  0.00     0.321 C 
ATOM      5  O   UNL     1       5.132  10.329  10.500  1.00  0.00    -0.248 OA
ATOM      6  N   UNL     1       6.128   8.433  11.091  1.00  0.00    -0.334 N 
ATOM      7  H   UNL     1       4.148   9.315   8.752  1.00  0.00     0.175 HD
ATOM      8  H   UNL     1       6.609   9.007  11.769  1.00  0.00     0.165 HD
ENDROOT
BRANCH   1   9
ATOM      9  C   UNL     1       3.899   7.366   7.261  1.00  0.00     0.040 A 
ATOM     10  C   UNL     1       2.508   7.299   7.166  1.00  0.00     0.014 A 
ATOM     11  C   UNL     1       1.903   7.385   5.912  1.00  0.00     0.004 A 
ATOM     12  C   UNL     1       4.687   7.457   6.109  1.00  0.00     0.014 A 
ATOM     13  C   UNL     1       2.681   7.528   4.754  1.00  0.00    -0.051 A 
ATOM     14  C   UNL     1       4.078   7.548   4.858  1.00  0.00     0.004 A 
ATOM     15  C   UNL     1       2.013   7.704   3.422  1.00  0.00     0.044 C 
ENDBRANCH   1   9
BRANCH   6  16
ATOM     16  C   UNL     1       6.530   7.060  10.963  1.00  0.00     0.153 C 
BRANCH  16  17
ATOM     17  C   UNL     1       7.850   6.669  11.565  1.00  0.00    -0.029 A 
ATOM     18  C   UNL     1       8.882   6.081  10.826  1.00  0.00     0.006 A 
ATOM     19  C   UNL     1       8.118   7.110  12.872  1.00  0.00     0.006 A 
ATOM     20  C   UNL     1      10.161   5.962  11.381  1.00  0.00     0.004 A 
ATOM     21  C   UNL     1       9.391   6.996  13.420  1.00  0.00     0.004 A 
ATOM     22  C   UNL     1      10.427   6.430  12.675  1.00  0.00    -0.051 A 
ATOM     23  C   UNL     1      11.824   6.437  13.222  1.00  0.00     0.044 C 
ENDBRANCH  16  17
ENDBRANCH   6  16
TORSDOF 3
ENDMDL
MODEL 2
REMARK VINA RESULT:    -5.927      3.231      5.535
REMARK INTER + INTRA:          -7.351
REMARK INTER:                  -6.963
REMARK INTRA:                  -0.388
REMARK UNBOUND:                -0.384
REMARK SMILES Cc1ccc(CNC(=O)NC(=O)c2ccc(C)cc2)cc1
REMARK SMILES IDX 11 1 12 2 10 3 8 4 9 5 7 6 13 9 19 10 18 11 14 12 16 13
REMARK SMILES IDX 15 14 17 15 6 16 5 17 4 18 20 19 3 20 21 21 2 22 1 23
REMARK H PARENT 10 7 7 8
ROOT
ATOM      1  C   UNL     1       4.258   7.633   8.628  1.00  0.00     0.259 C 
ATOM      2  O   UNL     1       3.831   8.731   8.299  1.00  0.00    -0.269 OA
ATOM      3  N   UNL     1       5.268   7.326   9.545  1.00  0.00    -0.274 N 
ATOM      4  C   UNL     1       5.966   7.967  10.537  1.00  0.00     0.321 C 
ATOM      5  O   UNL     1       6.717   7.285  11.242  1.00  0.00    -0.248 OA
ATOM      6  N   UNL     1       5.851   9.283  10.796  1.00  0.00    -0.334 N 
ATOM      7  H   UNL     1       5.463   6.338   9.636  1.00  0.00     0.175 HD
ATOM      8  H   UNL     1       6.365   9.583  11.612  1.00  0.00     0.165 HD
ENDROOT
BRANCH   1   9
ATOM      9  C   UNL     1       3.632   6.461   7.986  1.00  0.00     0.040 A 
ATOM     10  C   UNL     1       4.216   5.837   6.883  1.00  0.00     0.014 A 
ATOM     11  C   UNL     1       3.615   4.700   6.342  1.00  0.00     0.004 A 
ATOM     12  C   UNL     1       2.424   5.991   8.512  1.00  0.00     0.014 A 
ATOM     13  C   UNL     1       2.430   4.190   6.895  1.00  0.00    -0.051 A 
ATOM     14  C   UNL     1       1.830   4.852   7.973  1.00  0.00     0.004 A 
ATOM     15  C   UNL     1       1.842   2.919   6.357  1.00  0.00     0.044 C 
ENDBRANCH   1   9
BRANCH   6  16
ATOM     16  C   UNL     1       4.966  10.225  10.171  1.00  0.00     0.153 C 
BRANCH  16  17
ATOM     17  C   UNL     1       4.567  11.433  10.972  1.00  0.00    -0.029 A 
ATOM     18  C   UNL     1       3.237  11.744  11.274  1.00  0.00     0.006 A 
ATOM     19  C   UNL     1       5.593  12.148  11.612  1.00  0.00     0.006 A 
ATOM     20  C   UNL     1       2.946  12.735  12.217  1.00  0.00     0.004 A 
ATOM     21  C   UNL     1       5.302  13.131  12.553  1.00  0.00     0.004 A 
ATOM     22  C   UNL     1       3.975  13.426  12.871  1.00  0.00    -0.051 A 
ATOM     23  C   UNL     1       3.675  14.386  13.983  1.00  0.00     0.044 C 
ENDBRANCH  16  17
ENDBRANCH   6  16
TORSDOF 3
ENDMDL
MODEL 3
REMARK VINA RESULT:    -5.899      0.554      7.997
REMARK INTER + INTRA:          -7.319
REMARK INTER:                  -6.825
REMARK INTRA:                  -0.493
REMARK UNBOUND:                -0.384
REMARK SMILES Cc1ccc(CNC(=O)NC(=O)c2ccc(C)cc2)cc1
REMARK SMILES IDX 11 1 12 2 10 3 8 4 9 5 7 6 13 9 19 10 18 11 14 12 16 13
REMARK SMILES IDX 15 14 17 15 6 16 5 17 4 18 20 19 3 20 21 21 2 22 1 23
REMARK H PARENT 10 7 7 8
ROOT
ATOM      1  C   UNL     1       6.723   7.086  10.472  1.00  0.00     0.259 C 
ATOM      2  O   UNL     1       6.330   6.197   9.730  1.00  0.00    -0.269 OA
ATOM      3  N   UNL     1       6.202   8.370  10.654  1.00  0.00    -0.274 N 
ATOM      4  C   UNL     1       5.052   9.050  10.344  1.00  0.00     0.321 C 
ATOM      5  O   UNL     1       4.911  10.183  10.816  1.00  0.00    -0.248 OA
ATOM      6  N   UNL     1       4.066   8.537   9.585  1.00  0.00    -0.334 N 
ATOM      7  H   UNL     1       6.715   8.940  11.313  1.00  0.00     0.175 HD
ATOM      8  H   UNL     1       3.250   9.130   9.522  1.00  0.00     0.165 HD
ENDROOT
BRANCH   1   9
ATOM      9  C   UNL     1       7.905   6.778  11.302  1.00  0.00     0.040 A 
ATOM     10  C   UNL     1       8.994   6.074  10.785  1.00  0.00     0.014 A 
ATOM     11  C   UNL     1      10.110   5.853  11.591  1.00  0.00     0.004 A 
ATOM     12  C   UNL     1       7.903   7.207  12.632  1.00  0.00     0.014 A 
ATOM     13  C   UNL     1      10.139   6.325  12.912  1.00  0.00    -0.051 A 
ATOM     14  C   UNL     1       9.022   6.990  13.433  1.00  0.00     0.004 A 
ATOM     15  C   UNL     1      11.380   6.154  13.739  1.00  0.00     0.044 C 
ENDBRANCH   1   9
BRANCH   6  16
ATOM     16  C   UNL     1       3.984   7.215   9.030  1.00  0.00     0.153 C 
BRANCH  16  17
ATOM     17  C   UNL     1       3.525   7.092   7.604  1.00  0.00    -0.029 A 
ATOM     18  C   UNL     1       2.180   6.957   7.244  1.00  0.00     0.006 A 
ATOM     19  C   UNL     1       4.475   7.336   6.599  1.00  0.00     0.006 A 
ATOM     20  C   UNL     1       1.796   7.090   5.906  1.00  0.00     0.004 A 
ATOM     21  C   UNL     1       4.092   7.473   5.269  1.00  0.00     0.004 A 
ATOM     22  C   UNL     1       2.747   7.361   4.911  1.00  0.00    -0.051 A 
ATOM     23  C   UNL     1       2.328   7.645   3.500  1.00  0.00     0.044 C 
ENDBRANCH  16  17
ENDBRANCH   6  16
TORSDOF 3
ENDMDL
MODEL 4
REMARK VINA RESULT:    -5.851      3.137      7.326
REMARK INTER + INTRA:          -7.261
REMARK INTER:                  -6.766
REMARK INTRA:                  -0.495
REMARK UNBOUND:                -0.384
REMARK SMILES Cc1ccc(CNC(=O)NC(=O)c2ccc(C)cc2)cc1
REMARK SMILES IDX 11 1 12 2 10 3 8 4 9 5 7 6 13 9 19 10 18 11 14 12 16 13
REMARK SMILES IDX 15 14 17 15 6 16 5 17 4 18 20 19 3 20 21 21 2 22 1 23
REMARK H PARENT 10 7 7 8
ROOT
ATOM      1  C   UNL     1       4.487   9.955  10.261  1.00  0.00     0.259 C 
ATOM      2  O   UNL     1       3.735   9.841   9.303  1.00  0.00    -0.269 OA
ATOM      3  N   UNL     1       5.454   9.059  10.726  1.00  0.00    -0.274 N 
ATOM      4  C   UNL     1       6.099   7.938  10.271  1.00  0.00     0.321 C 
ATOM      5  O   UNL     1       7.025   7.491  10.956  1.00  0.00    -0.248 OA
ATOM      6  N   UNL     1       5.796   7.324   9.112  1.00  0.00    -0.334 N 
ATOM      7  H   UNL     1       5.942   9.366  11.557  1.00  0.00     0.175 HD
ATOM      8  H   UNL     1       6.420   6.565   8.879  1.00  0.00     0.165 HD
ENDROOT
BRANCH   1   9
ATOM      9  C   UNL     1       4.379  11.204  11.041  1.00  0.00     0.040 A 
ATOM     10  C   UNL     1       3.138  11.769  11.341  1.00  0.00     0.014 A 
ATOM     11  C   UNL     1       3.084  12.921  12.126  1.00  0.00     0.004 A 
ATOM     12  C   UNL     1       5.561  11.815  11.469  1.00  0.00     0.014 A 
ATOM     13  C   UNL     1       4.262  13.513  12.604  1.00  0.00    -0.051 A 
ATOM     14  C   UNL     1       5.502  12.962  12.258  1.00  0.00     0.004 A 
ATOM     15  C   UNL     1       4.184  14.702  13.517  1.00  0.00     0.044 C 
ENDBRANCH   1   9
BRANCH   6  16
ATOM     16  C   UNL     1       4.836   7.736   8.127  1.00  0.00     0.153 C 
BRANCH  16  17
ATOM     17  C   UNL     1       3.944   6.674   7.546  1.00  0.00    -0.029 A 
ATOM     18  C   UNL     1       4.283   5.931   6.411  1.00  0.00     0.006 A 
ATOM     19  C   UNL     1       2.831   6.282   8.307  1.00  0.00     0.006 A 
ATOM     20  C   UNL     1       3.532   4.802   6.064  1.00  0.00     0.004 A 
ATOM     21  C   UNL     1       2.088   5.157   7.963  1.00  0.00     0.004 A 
ATOM     22  C   UNL     1       2.439   4.401   6.844  1.00  0.00    -0.051 A 
ATOM     23  C   UNL     1       1.719   3.116   6.561  1.00  0.00     0.044 C 
ENDBRANCH  16  17
ENDBRANCH   6  16
TORSDOF 3
ENDMDL
MODEL 5
REMARK VINA RESULT:    -5.683      1.226      8.006
REMARK INTER + INTRA:          -7.064
REMARK INTER:                  -6.610
REMARK INTRA:                  -0.454
REMARK UNBOUND:                -0.384
REMARK SMILES Cc1ccc(CNC(=O)NC(=O)c2ccc(C)cc2)cc1
REMARK SMILES IDX 11 1 12 2 10 3 8 4 9 5 7 6 13 9 19 10 18 11 14 12 16 13
REMARK SMILES IDX 15 14 17 15 6 16 5 17 4 18 20 19 3 20 21 21 2 22 1 23
REMARK H PARENT 10 7 7 8
ROOT
ATOM      1  C   UNL     1       6.740   6.871  10.499  1.00  0.00     0.259 C 
ATOM      2  O   UNL     1       6.314   5.878   9.927  1.00  0.00    -0.269 OA
ATOM      3  N   UNL     1       6.253   8.181  10.459  1.00  0.00    -0.274 N 
ATOM      4  C   UNL     1       5.116   8.827  10.047  1.00  0.00     0.321 C 
ATOM      5  O   UNL     1       5.010  10.029  10.315  1.00  0.00    -0.248 OA
ATOM      6  N   UNL     1       4.106   8.216   9.399  1.00  0.00    -0.334 N 
ATOM      7  H   UNL     1       6.791   8.843  11.003  1.00  0.00     0.175 HD
ATOM      8  H   UNL     1       3.305   8.811   9.242  1.00  0.00     0.165 HD
ENDROOT
BRANCH   1   9
ATOM      9  C   UNL     1       7.926   6.681  11.357  1.00  0.00     0.040 A 
ATOM     10  C   UNL     1       9.071   6.036  10.884  1.00  0.00     0.014 A 
ATOM     11  C   UNL     1      10.186   5.927  11.715  1.00  0.00     0.004 A 
ATOM     12  C   UNL     1       7.871   7.162  12.669  1.00  0.00     0.014 A 
ATOM     13  C   UNL     1      10.159   6.452  13.016  1.00  0.00    -0.051 A 
ATOM     14  C   UNL     1       8.990   7.056  13.493  1.00  0.00     0.004 A 
ATOM     15  C   UNL     1      11.394   6.402  13.867  1.00  0.00     0.044 C 
ENDBRANCH   1   9
BRANCH   6  16
ATOM     16  C   UNL     1       3.984   6.821   9.085  1.00  0.00     0.153 C 
BRANCH  16  17
ATOM     17  C   UNL     1       3.524   6.463   7.699  1.00  0.00    -0.029 A 
ATOM     18  C   UNL     1       4.019   5.363   6.991  1.00  0.00     0.006 A 
ATOM     19  C   UNL     1       2.403   7.145   7.197  1.00  0.00     0.006 A 
ATOM     20  C   UNL     1       3.384   4.944   5.816  1.00  0.00     0.004 A 
ATOM     21  C   UNL     1       1.771   6.725   6.032  1.00  0.00     0.004 A 
ATOM     22  C   UNL     1       2.250   5.613   5.336  1.00  0.00    -0.051 A 
ATOM     23  C   UNL     1       1.482   5.086   4.161  1.00  0.00     0.044 C 
ENDBRANCH  16  17
ENDBRANCH   6  16
TORSDOF 3
ENDMDL
MODEL 6
REMARK VINA RESULT:    -4.567      7.338      9.264
REMARK INTER + INTRA:          -5.752
REMARK INTER:                  -5.362
REMARK INTRA:                  -0.390
REMARK UNBOUND:                -0.384
REMARK SMILES Cc1ccc(CNC(=O)NC(=O)c2ccc(C)cc2)cc1
REMARK SMILES IDX 11 1 12 2 10 3 8 4 9 5 7 6 13 9 19 10 18 11 14 12 16 13
REMARK SMILES IDX 15 14 17 15 6 16 5 17 4 18 20 19 3 20 21 21 2 22 1 23
REMARK H PARENT 10 7 7 8
ROOT
ATOM      1  C   UNL     1       3.459  13.803  13.355  1.00  0.00     0.259 C 
ATOM      2  O   UNL     1       3.681  13.531  14.527  1.00  0.00    -0.269 OA
ATOM      3  N   UNL     1       2.832  14.934  12.822  1.00  0.00    -0.274 N 
ATOM      4  C   UNL     1       2.462  16.183  13.250  1.00  0.00     0.321 C 
ATOM      5  O   UNL     1       2.033  16.975  12.404  1.00  0.00    -0.248 OA
ATOM      6  N   UNL     1       2.571  16.596  14.527  1.00  0.00    -0.334 N 
ATOM      7  H   UNL     1       2.743  14.926  11.815  1.00  0.00     0.175 HD
ATOM      8  H   UNL     1       2.338  17.569  14.661  1.00  0.00     0.165 HD
ENDROOT
BRANCH   1   9
ATOM      9  C   UNL     1       3.912  12.820  12.352  1.00  0.00     0.040 A 
ATOM     10  C   UNL     1       5.269  12.595  12.114  1.00  0.00     0.014 A 
ATOM     11  C   UNL     1       5.649  11.618  11.194  1.00  0.00     0.004 A 
ATOM     12  C   UNL     1       2.939  12.119  11.633  1.00  0.00     0.014 A 
ATOM     13  C   UNL     1       4.680  10.873  10.505  1.00  0.00    -0.051 A 
ATOM     14  C   UNL     1       3.323  11.140  10.719  1.00  0.00     0.004 A 
ATOM     15  C   UNL     1       5.104   9.768   9.582  1.00  0.00     0.044 C 
ENDBRANCH   1   9
BRANCH   6  16
ATOM     16  C   UNL     1       3.136  15.877  15.634  1.00  0.00     0.153 C 
BRANCH  16  17
ATOM     17  C   UNL     1       4.540  16.227  16.040  1.00  0.00    -0.029 A 
ATOM     18  C   UNL     1       5.117  15.800  17.240  1.00  0.00     0.006 A 
ATOM     19  C   UNL     1       5.359  16.829  15.070  1.00  0.00     0.006 A 
ATOM     20  C   UNL     1       6.492  15.952  17.449  1.00  0.00     0.004 A 
ATOM     21  C   UNL     1       6.727  16.975  15.277  1.00  0.00     0.004 A 
ATOM     22  C   UNL     1       7.308  16.528  16.465  1.00  0.00    -0.051 A 
ATOM     23  C   UNL     1       8.798  16.565  16.622  1.00  0.00     0.044 C 
ENDBRANCH  16  17
ENDBRANCH   6  16
TORSDOF 3
ENDMDL
MODEL 7
REMARK VINA RESULT:    -4.495      5.068      9.755
REMARK INTER + INTRA:          -5.668
REMARK INTER:                  -5.089
REMARK INTRA:                  -0.578
REMARK UNBOUND:                -0.384
REMARK SMILES Cc1ccc(CNC(=O)NC(=O)c2ccc(C)cc2)cc1
REMARK SMILES IDX 11 1 12 2 10 3 8 4 9 5 7 6 13 9 19 10 18 11 14 12 16 13
REMARK SMILES IDX 15 14 17 15 6 16 5 17 4 18 20 19 3 20 21 21 2 22 1 23
REMARK H PARENT 10 7 7 8
ROOT
ATOM      1  C   UNL     1      12.100   9.354  14.078  1.00  0.00     0.259 C 
ATOM      2  O   UNL     1      11.274   8.706  14.704  1.00  0.00    -0.269 OA
ATOM      3  N   UNL     1      12.910   8.946  13.014  1.00  0.00    -0.274 N 
ATOM      4  C   UNL     1      12.977   7.893  12.138  1.00  0.00     0.321 C 
ATOM      5  O   UNL     1      13.795   7.966  11.215  1.00  0.00    -0.248 OA
ATOM      6  N   UNL     1      12.183   6.809  12.215  1.00  0.00    -0.334 N 
ATOM      7  H   UNL     1      13.537   9.660  12.669  1.00  0.00     0.175 HD
ATOM      8  H   UNL     1      12.298   6.164  11.446  1.00  0.00     0.165 HD
ENDROOT
BRANCH   1   9
ATOM      9  C   UNL     1      12.278  10.762  14.482  1.00  0.00     0.040 A 
ATOM     10  C   UNL     1      13.511  11.404  14.359  1.00  0.00     0.014 A 
ATOM     11  C   UNL     1      13.618  12.752  14.705  1.00  0.00     0.004 A 
ATOM     12  C   UNL     1      11.171  11.442  15.001  1.00  0.00     0.014 A 
ATOM     13  C   UNL     1      12.501  13.457  15.178  1.00  0.00    -0.051 A 
ATOM     14  C   UNL     1      11.281  12.789  15.339  1.00  0.00     0.004 A 
ATOM     15  C   UNL     1      12.611  14.925  15.465  1.00  0.00     0.044 C 
ENDBRANCH   1   9
BRANCH   6  16
ATOM     16  C   UNL     1      11.108   6.574  13.137  1.00  0.00     0.153 C 
BRANCH  16  17
ATOM     17  C   UNL     1       9.716   6.507  12.572  1.00  0.00    -0.029 A 
ATOM     18  C   UNL     1       8.617   7.131  13.172  1.00  0.00     0.006 A 
ATOM     19  C   UNL     1       9.571   5.971  11.282  1.00  0.00     0.006 A 
ATOM     20  C   UNL     1       7.407   7.236  12.478  1.00  0.00     0.004 A 
ATOM     21  C   UNL     1       8.368   6.080  10.591  1.00  0.00     0.004 A 
ATOM     22  C   UNL     1       7.278   6.723  11.180  1.00  0.00    -0.051 A 
ATOM     23  C   UNL     1       6.032   6.956  10.378  1.00  0.00     0.044 C 
ENDBRANCH  16  17
ENDBRANCH   6  16
TORSDOF 3
ENDMDL
MODEL 8
REMARK VINA RESULT:    -4.234      5.290      9.894
REMARK INTER + INTRA:          -5.362
REMARK INTER:                  -4.904
REMARK INTRA:                  -0.457
REMARK UNBOUND:                -0.384
REMARK SMILES Cc1ccc(CNC(=O)NC(=O)c2ccc(C)cc2)cc1
REMARK SMILES IDX 11 1 12 2 10 3 8 4 9 5 7 6 13 9 19 10 18 11 14 12 16 13
REMARK SMILES IDX 15 14 17 15 6 16 5 17 4 18 20 19 3 20 21 21 2 22 1 23
REMARK H PARENT 10 7 7 8
ROOT
ATOM      1  C   UNL     1      11.558   9.831  14.491  1.00  0.00     0.259 C 
ATOM      2  O   UNL     1      11.358   9.502  13.330  1.00  0.00    -0.269 OA
ATOM      3  N   UNL     1      11.426   9.065  15.653  1.00  0.00    -0.274 N 
ATOM      4  C   UNL     1      11.290   7.741  15.984  1.00  0.00     0.321 C 
ATOM      5  O   UNL     1      11.341   7.441  17.182  1.00  0.00    -0.248 OA
ATOM      6  N   UNL     1      11.136   6.759  15.077  1.00  0.00    -0.334 N 
ATOM      7  H   UNL     1      11.627   9.566  16.508  1.00  0.00     0.175 HD
ATOM      8  H   UNL     1      11.137   5.832  15.477  1.00  0.00     0.165 HD
ENDROOT
BRANCH   1   9
ATOM      9  C   UNL     1      12.003  11.220  14.716  1.00  0.00     0.040 A 
ATOM     10  C   UNL     1      11.123  12.201  15.177  1.00  0.00     0.014 A 
ATOM     11  C   UNL     1      11.602  13.487  15.426  1.00  0.00     0.004 A 
ATOM     12  C   UNL     1      13.339  11.533  14.447  1.00  0.00     0.014 A 
ATOM     13  C   UNL     1      12.953  13.798  15.208  1.00  0.00    -0.051 A 
ATOM     14  C   UNL     1      13.815  12.817  14.703  1.00  0.00     0.004 A 
ATOM     15  C   UNL     1      13.471  15.162  15.560  1.00  0.00     0.044 C 
ENDBRANCH   1   9
BRANCH   6  16
ATOM     16  C   UNL     1      11.154   6.878  13.646  1.00  0.00     0.153 C 
BRANCH  16  17
ATOM     17  C   UNL     1       9.858   6.655  12.919  1.00  0.00    -0.029 A 
ATOM     18  C   UNL     1       8.639   7.187  13.351  1.00  0.00     0.006 A 
ATOM     19  C   UNL     1       9.927   6.066  11.646  1.00  0.00     0.006 A 
ATOM     20  C   UNL     1       7.521   7.149  12.511  1.00  0.00     0.004 A 
ATOM     21  C   UNL     1       8.816   6.033  10.809  1.00  0.00     0.004 A 
ATOM     22  C   UNL     1       7.605   6.584  11.231  1.00  0.00    -0.051 A 
ATOM     23  C   UNL     1       6.454   6.667  10.274  1.00  0.00     0.044 C 
ENDBRANCH  16  17
ENDBRANCH   6  16
TORSDOF 3
ENDMDL
MODEL 9
REMARK VINA RESULT:    -4.105      4.913      7.942
REMARK INTER + INTRA:          -5.209
REMARK INTER:                  -4.701
REMARK INTRA:                  -0.508
REMARK UNBOUND:                -0.384
REMARK SMILES Cc1ccc(CNC(=O)NC(=O)c2ccc(C)cc2)cc1
REMARK SMILES IDX 11 1 12 2 10 3 8 4 9 5 7 6 13 9 19 10 18 11 14 12 16 13
REMARK SMILES IDX 15 14 17 15 6 16 5 17 4 18 20 19 3 20 21 21 2 22 1 23
REMARK H PARENT 10 7 7 8
ROOT
ATOM      1  C   UNL     1      11.092   6.505  13.296  1.00  0.00     0.259 C 
ATOM      2  O   UNL     1      11.972   7.231  12.854  1.00  0.00    -0.269 OA
ATOM      3  N   UNL     1      11.145   5.629  14.385  1.00  0.00    -0.274 N 
ATOM      4  C   UNL     1      11.969   5.391  15.455  1.00  0.00     0.321 C 
ATOM      5  O   UNL     1      11.585   4.582  16.306  1.00  0.00    -0.248 OA
ATOM      6  N   UNL     1      13.150   6.011  15.637  1.00  0.00    -0.334 N 
ATOM      7  H   UNL     1      10.290   5.114  14.548  1.00  0.00     0.175 HD
ATOM      8  H   UNL     1      13.595   5.789  16.516  1.00  0.00     0.165 HD
ENDROOT
BRANCH   1   9
ATOM      9  C   UNL     1       9.789   6.550  12.604  1.00  0.00     0.040 A 
ATOM     10  C   UNL     1       8.669   7.132  13.199  1.00  0.00     0.014 A 
ATOM     11  C   UNL     1       7.472   7.197  12.486  1.00  0.00     0.004 A 
ATOM     12  C   UNL     1       9.703   5.983  11.329  1.00  0.00     0.014 A 
ATOM     13  C   UNL     1       7.389   6.677  11.185  1.00  0.00    -0.051 A 
ATOM     14  C   UNL     1       8.508   6.056  10.617  1.00  0.00     0.004 A 
ATOM     15  C   UNL     1       6.120   6.831  10.399  1.00  0.00     0.044 C 
ENDBRANCH   1   9
BRANCH   6  16
ATOM     16  C   UNL     1      13.728   7.049  14.831  1.00  0.00     0.153 C 
BRANCH  16  17
ATOM     17  C   UNL     1      13.721   8.444  15.393  1.00  0.00    -0.029 A 
ATOM     18  C   UNL     1      13.815   9.589  14.595  1.00  0.00     0.006 A 
ATOM     19  C   UNL     1      13.394   8.588  16.751  1.00  0.00     0.006 A 
ATOM     20  C   UNL     1      13.561  10.849  15.147  1.00  0.00     0.004 A 
ATOM     21  C   UNL     1      13.138   9.842  17.298  1.00  0.00     0.004 A 
ATOM     22  C   UNL     1      13.209  10.983  16.497  1.00  0.00    -0.051 A 
ATOM     23  C   UNL     1      12.798  12.311  17.060  1.00  0.00     0.044 C 
ENDBRANCH  16  17
ENDBRANCH   6  16
TORSDOF 3
ENDMDL
