MODEL 1
REMARK VINA RESULT:    -4.232      0.000      0.000
REMARK INTER + INTRA:          -5.783
REMARK INTER:                  -5.593
REMARK INTRA:                  -0.190
REMARK UNBOUND:                -0.190
REMARK SMILES [H]/N=C\C[C@H]1C[C@@H]1O[C@H]1CO[C@H]2C[C@@H](C3CC3)CCN2C1
REMARK SMILES IDX 7 1 6 2 5 3 8 4 9 5 14 6 13 7 18 8 12 9 19 10 20 11 11 12
REMARK SMILES IDX 21 13 10 14 15 15 16 16 17 17 4 18 3 19 2 20 1 21
REMARK H PARENT
ROOT
ATOM      1  C   UNL     1       8.943  -2.611 -11.099  1.00  0.00     0.122 C 
ATOM      2  C   UNL     1      10.072  -1.932 -11.822  1.00  0.00     0.039 C 
ATOM      3  C   UNL     1      10.368  -2.963 -10.771  1.00  0.00     0.026 C 
ENDROOT
BRANCH   1   4
ATOM      4  O   UNL     1       8.255  -1.765 -10.158  1.00  0.00    -0.371 OA
BRANCH   4   5
ATOM      5  C   UNL     1       7.358  -0.800 -10.732  1.00  0.00     0.158 C 
ATOM      6  C   UNL     1       3.347  -1.414  -7.455  1.00  0.00    -0.003 C 
ATOM      7  C   UNL     1       3.975  -2.235  -8.587  1.00  0.00     0.052 C 
ATOM      8  C   UNL     1       4.443  -0.607  -6.745  1.00  0.00     0.019 C 
ATOM      9  C   UNL     1       4.815  -1.360  -9.527  1.00  0.00     0.189 C 
ATOM     10  C   UNL     1       5.264   0.215  -7.739  1.00  0.00     0.087 C 
ATOM     11  N   UNL     1       5.843  -0.642  -8.773  1.00  0.00    -0.276 NA
ATOM     12  O   UNL     1       5.381  -2.236 -10.504  1.00  0.00    -0.360 OA
ATOM     13  C   UNL     1       6.705   0.119  -9.685  1.00  0.00     0.121 C 
ATOM     14  C   UNL     1       6.230  -1.560 -11.438  1.00  0.00     0.195 C 
BRANCH   6  15
ATOM     15  C   UNL     1       2.615  -2.297  -6.469  1.00  0.00    -0.008 C 
ATOM     16  C   UNL     1       1.319  -1.835  -5.846  1.00  0.00     0.004 C 
ATOM     17  C   UNL     1       1.310  -2.957  -6.843  1.00  0.00     0.004 C 
ENDBRANCH   6  15
ENDBRANCH   4   5
ENDBRANCH   1   4
BRANCH   3  18
ATOM     18  C   UNL     1      10.935  -4.286 -11.191  1.00  0.00     0.053 C 
BRANCH  18  19
ATOM     19  C   UNL     1      12.204  -4.240 -12.002  1.00  0.00     0.074 C 
BRANCH  19  20
ATOM     20  N   UNL     1      13.392  -4.040 -11.537  1.00  0.00    -0.313 NA
ATOM     21  H   UNL     1      13.466  -3.130 -11.060  1.00  0.00     0.186 HD
ENDBRANCH  19  20
ENDBRANCH  18  19
ENDBRANCH   3  18
TORSDOF 6
ENDMDL
MODEL 2
REMARK VINA RESULT:    -4.225      3.313      5.591
REMARK INTER + INTRA:          -5.774
REMARK INTER:                  -5.600
REMARK INTRA:                  -0.174
REMARK UNBOUND:                -0.190
REMARK SMILES [H]/N=C\C[C@H]1C[C@@H]1O[C@H]1CO[C@H]2C[C@@H](C3CC3)CCN2C1
REMARK SMILES IDX 7 1 6 2 5 3 8 4 9 5 14 6 13 7 18 8 12 9 19 10 20 11 11 12
REMARK SMILES IDX 21 13 10 14 15 15 16 16 17 17 4 18 3 19 2 20 1 21
REMARK H PARENT
ROOT
ATOM      1  C   UNL     1       5.055  -0.339 -13.203  1.00  0.00     0.122 C 
ATOM      2  C   UNL     1       5.192  -1.039 -14.526  1.00  0.00     0.039 C 
ATOM      3  C   UNL     1       4.062  -0.075 -14.302  1.00  0.00     0.026 C 
ENDROOT
BRANCH   1   4
ATOM      4  O   UNL     1       4.617  -1.193 -12.129  1.00  0.00    -0.371 OA
BRANCH   4   5
ATOM      5  C   UNL     1       5.581  -2.154 -11.669  1.00  0.00     0.158 C 
ATOM      6  C   UNL     1       4.982  -1.467  -6.534  1.00  0.00    -0.003 C 
ATOM      7  C   UNL     1       5.601  -0.663  -7.685  1.00  0.00     0.052 C 
ATOM      8  C   UNL     1       3.791  -2.278  -7.064  1.00  0.00     0.019 C 
ATOM      9  C   UNL     1       5.937  -1.557  -8.886  1.00  0.00     0.189 C 
ATOM     10  C   UNL     1       4.184  -3.118  -8.279  1.00  0.00     0.087 C 
ATOM     11  N   UNL     1       4.746  -2.278  -9.336  1.00  0.00    -0.276 NA
ATOM     12  O   UNL     1       6.458  -0.696  -9.901  1.00  0.00    -0.360 OA
ATOM     13  C   UNL     1       5.048  -3.056 -10.542  1.00  0.00     0.121 C 
ATOM     14  C   UNL     1       6.785  -1.390 -11.110  1.00  0.00     0.195 C 
BRANCH   6  15
ATOM     15  C   UNL     1       4.548  -0.566  -5.399  1.00  0.00    -0.008 C 
ATOM     16  C   UNL     1       4.771  -0.984  -3.965  1.00  0.00     0.004 C 
ATOM     17  C   UNL     1       5.568   0.148  -4.545  1.00  0.00     0.004 C 
ENDBRANCH   6  15
ENDBRANCH   4   5
ENDBRANCH   1   4
BRANCH   3  18
ATOM     18  C   UNL     1       4.070   1.236 -15.029  1.00  0.00     0.053 C 
BRANCH  18  19
ATOM     19  C   UNL     1       4.016   1.163 -16.533  1.00  0.00     0.074 C 
BRANCH  19  20
ATOM     20  N   UNL     1       2.947   1.208 -17.256  1.00  0.00    -0.313 NA
ATOM     21  H   UNL     1       2.113   1.415 -16.688  1.00  0.00     0.186 HD
ENDBRANCH  19  20
ENDBRANCH  18  19
ENDBRANCH   3  18
TORSDOF 6
ENDMDL
MODEL 3
REMARK VINA RESULT:    -4.119      2.666      8.574
REMARK INTER + INTRA:          -5.634
REMARK INTER:                  -5.471
REMARK INTRA:                  -0.163
REMARK UNBOUND:                -0.190
REMARK SMILES [H]/N=C\C[C@H]1C[C@@H]1O[C@H]1CO[C@H]2C[C@@H](C3CC3)CCN2C1
REMARK SMILES IDX 7 1 6 2 5 3 8 4 9 5 14 6 13 7 18 8 12 9 19 10 20 11 11 12
REMARK SMILES IDX 21 13 10 14 15 15 16 16 17 17 4 18 3 19 2 20 1 21
REMARK H PARENT
ROOT
ATOM      1  C   UNL     1       6.680  -1.823 -10.733  1.00  0.00     0.122 C 
ATOM      2  C   UNL     1       5.475  -1.734 -11.626  1.00  0.00     0.039 C 
ATOM      3  C   UNL     1       5.581  -2.844 -10.620  1.00  0.00     0.026 C 
ENDROOT
BRANCH   1   4
ATOM      4  O   UNL     1       7.881  -2.241 -11.408  1.00  0.00    -0.371 OA
BRANCH   4   5
ATOM      5  C   UNL     1       9.096  -1.623 -10.951  1.00  0.00     0.158 C 
ATOM      6  C   UNL     1      12.512  -4.921 -13.108  1.00  0.00    -0.003 C 
ATOM      7  C   UNL     1      11.520  -4.976 -11.940  1.00  0.00     0.052 C 
ATOM      8  C   UNL     1      11.954  -4.004 -14.205  1.00  0.00     0.019 C 
ATOM      9  C   UNL     1      11.140  -3.573 -11.449  1.00  0.00     0.189 C 
ATOM     10  C   UNL     1      11.563  -2.637 -13.645  1.00  0.00     0.087 C 
ATOM     11  N   UNL     1      10.602  -2.775 -12.551  1.00  0.00    -0.276 NA
ATOM     12  O   UNL     1      10.185  -3.751 -10.401  1.00  0.00    -0.360 OA
ATOM     13  C   UNL     1      10.151  -1.468 -12.060  1.00  0.00     0.121 C 
ATOM     14  C   UNL     1       9.704  -2.515  -9.864  1.00  0.00     0.195 C 
BRANCH   6  15
ATOM     15  C   UNL     1      12.795  -6.300 -13.661  1.00  0.00    -0.008 C 
ATOM     16  C   UNL     1      14.142  -6.618 -14.267  1.00  0.00     0.004 C 
ATOM     17  C   UNL     1      13.748  -7.235 -12.957  1.00  0.00     0.004 C 
ENDBRANCH   6  15
ENDBRANCH   4   5
ENDBRANCH   1   4
BRANCH   3  18
ATOM     18  C   UNL     1       4.664  -2.840  -9.434  1.00  0.00     0.053 C 
BRANCH  18  19
ATOM     19  C   UNL     1       4.101  -4.176  -9.023  1.00  0.00     0.074 C 
BRANCH  19  20
ATOM     20  N   UNL     1       3.909  -5.189  -9.800  1.00  0.00    -0.313 NA
ATOM     21  H   UNL     1       3.322  -4.941 -10.609  1.00  0.00     0.186 HD
ENDBRANCH  19  20
ENDBRANCH  18  19
ENDBRANCH   3  18
TORSDOF 6
ENDMDL
MODEL 4
REMARK VINA RESULT:    -3.852      4.954      7.367
REMARK INTER + INTRA:          -5.281
REMARK INTER:                  -5.002
REMARK INTRA:                  -0.279
REMARK UNBOUND:                -0.190
REMARK SMILES [H]/N=C\C[C@H]1C[C@@H]1O[C@H]1CO[C@H]2C[C@@H](C3CC3)CCN2C1
REMARK SMILES IDX 7 1 6 2 5 3 8 4 9 5 14 6 13 7 18 8 12 9 19 10 20 11 11 12
REMARK SMILES IDX 21 13 10 14 15 15 16 16 17 17 4 18 3 19 2 20 1 21
REMARK H PARENT
ROOT
ATOM      1  C   UNL     1       4.568   2.086 -16.140  1.00  0.00     0.122 C 
ATOM      2  C   UNL     1       4.460   3.584 -16.086  1.00  0.00     0.039 C 
ATOM      3  C   UNL     1       5.721   2.942 -16.588  1.00  0.00     0.026 C 
ENDROOT
BRANCH   1   4
ATOM      4  O   UNL     1       4.694   1.459 -14.849  1.00  0.00    -0.371 OA
BRANCH   4   5
ATOM      5  C   UNL     1       4.163   0.128 -14.752  1.00  0.00     0.158 C 
ATOM      6  C   UNL     1       7.536  -1.811 -11.279  1.00  0.00    -0.003 C 
ATOM      7  C   UNL     1       7.592  -1.411 -12.758  1.00  0.00     0.052 C 
ATOM      8  C   UNL     1       6.543  -0.901 -10.544  1.00  0.00     0.019 C 
ATOM      9  C   UNL     1       6.194  -1.372 -13.390  1.00  0.00     0.189 C 
ATOM     10  C   UNL     1       5.183  -0.879 -11.242  1.00  0.00     0.087 C 
ATOM     11  N   UNL     1       5.319  -0.471 -12.640  1.00  0.00    -0.276 NA
ATOM     12  O   UNL     1       6.369  -0.947 -14.743  1.00  0.00    -0.360 OA
ATOM     13  C   UNL     1       4.014  -0.361 -13.300  1.00  0.00     0.121 C 
ATOM     14  C   UNL     1       5.134  -0.825 -15.456  1.00  0.00     0.195 C 
BRANCH   6  15
ATOM     15  C   UNL     1       8.902  -1.737 -10.633  1.00  0.00    -0.008 C 
ATOM     16  C   UNL     1       9.738  -2.985 -10.471  1.00  0.00     0.004 C 
ATOM     17  C   UNL     1      10.156  -1.927 -11.451  1.00  0.00     0.004 C 
ENDBRANCH   6  15
ENDBRANCH   4   5
ENDBRANCH   1   4
BRANCH   3  18
ATOM     18  C   UNL     1       6.061   3.049 -18.045  1.00  0.00     0.053 C 
BRANCH  18  19
ATOM     19  C   UNL     1       7.484   2.730 -18.422  1.00  0.00     0.074 C 
BRANCH  19  20
ATOM     20  N   UNL     1       8.363   2.170 -17.660  1.00  0.00    -0.313 NA
ATOM     21  H   UNL     1       9.267   2.059 -18.140  1.00  0.00     0.186 HD
ENDBRANCH  19  20
ENDBRANCH  18  19
ENDBRANCH   3  18
TORSDOF 6
ENDMDL
MODEL 5
REMARK VINA RESULT:    -3.830      5.618      8.456
REMARK INTER + INTRA:          -5.252
REMARK INTER:                  -5.016
REMARK INTRA:                  -0.236
REMARK UNBOUND:                -0.190
REMARK SMILES [H]/N=C\C[C@H]1C[C@@H]1O[C@H]1CO[C@H]2C[C@@H](C3CC3)CCN2C1
REMARK SMILES IDX 7 1 6 2 5 3 8 4 9 5 14 6 13 7 18 8 12 9 19 10 20 11 11 12
REMARK SMILES IDX 21 13 10 14 15 15 16 16 17 17 4 18 3 19 2 20 1 21
REMARK H PARENT
ROOT
ATOM      1  C   UNL     1      12.754  -3.670 -17.036  1.00  0.00     0.122 C 
ATOM      2  C   UNL     1      12.226  -3.850 -18.431  1.00  0.00     0.039 C 
ATOM      3  C   UNL     1      11.276  -3.577 -17.300  1.00  0.00     0.026 C 
ENDROOT
BRANCH   1   4
ATOM      4  O   UNL     1      13.225  -4.887 -16.425  1.00  0.00    -0.371 OA
BRANCH   4   5
ATOM      5  C   UNL     1      14.244  -4.724 -15.425  1.00  0.00     0.158 C 
ATOM      6  C   UNL     1      11.169  -3.790 -11.317  1.00  0.00    -0.003 C 
ATOM      7  C   UNL     1      11.587  -3.017 -12.574  1.00  0.00     0.052 C 
ATOM      8  C   UNL     1      11.120  -5.290 -11.637  1.00  0.00     0.019 C 
ATOM      9  C   UNL     1      12.885  -3.571 -13.178  1.00  0.00     0.189 C 
ATOM     10  C   UNL     1      12.428  -5.770 -12.265  1.00  0.00     0.087 C 
ATOM     11  N   UNL     1      12.746  -4.998 -13.466  1.00  0.00    -0.276 NA
ATOM     12  O   UNL     1      13.145  -2.808 -14.358  1.00  0.00    -0.360 OA
ATOM     13  C   UNL     1      13.953  -5.503 -14.130  1.00  0.00     0.121 C 
ATOM     14  C   UNL     1      14.317  -3.239 -15.057  1.00  0.00     0.195 C 
BRANCH   6  15
ATOM     15  C   UNL     1       9.832  -3.315 -10.793  1.00  0.00    -0.008 C 
ATOM     16  C   UNL     1       9.766  -2.319  -9.660  1.00  0.00     0.004 C 
ATOM     17  C   UNL     1       9.360  -1.903 -11.044  1.00  0.00     0.004 C 
ENDBRANCH   6  15
ENDBRANCH   4   5
ENDBRANCH   1   4
BRANCH   3  18
ATOM     18  C   UNL     1      10.580  -2.251 -17.240  1.00  0.00     0.053 C 
BRANCH  18  19
ATOM     19  C   UNL     1      10.466  -1.620 -15.876  1.00  0.00     0.074 C 
BRANCH  19  20
ATOM     20  N   UNL     1      11.254  -0.719 -15.391  1.00  0.00    -0.313 NA
ATOM     21  H   UNL     1      11.546  -0.948 -14.430  1.00  0.00     0.186 HD
ENDBRANCH  19  20
ENDBRANCH  18  19
ENDBRANCH   3  18
TORSDOF 6
ENDMDL
MODEL 6
REMARK VINA RESULT:    -3.726      3.717      6.160
REMARK INTER + INTRA:          -5.114
REMARK INTER:                  -4.770
REMARK INTRA:                  -0.343
REMARK UNBOUND:                -0.190
REMARK SMILES [H]/N=C\C[C@H]1C[C@@H]1O[C@H]1CO[C@H]2C[C@@H](C3CC3)CCN2C1
REMARK SMILES IDX 7 1 6 2 5 3 8 4 9 5 14 6 13 7 18 8 12 9 19 10 20 11 11 12
REMARK SMILES IDX 21 13 10 14 15 15 16 16 17 17 4 18 3 19 2 20 1 21
REMARK H PARENT
ROOT
ATOM      1  C   UNL     1      12.353  -5.536 -13.546  1.00  0.00     0.122 C 
ATOM      2  C   UNL     1      11.475  -6.754 -13.599  1.00  0.00     0.039 C 
ATOM      3  C   UNL     1      12.818  -6.769 -14.272  1.00  0.00     0.026 C 
ENDROOT
BRANCH   1   4
ATOM      4  O   UNL     1      11.891  -4.443 -14.363  1.00  0.00    -0.371 OA
BRANCH   4   5
ATOM      5  C   UNL     1      12.388  -3.145 -14.000  1.00  0.00     0.158 C 
ATOM      6  C   UNL     1       8.401  -1.585 -11.021  1.00  0.00    -0.003 C 
ATOM      7  C   UNL     1       8.633  -1.797 -12.522  1.00  0.00     0.052 C 
ATOM      8  C   UNL     1       9.238  -2.599 -10.230  1.00  0.00     0.019 C 
ATOM      9  C   UNL     1      10.127  -1.785 -12.875  1.00  0.00     0.189 C 
ATOM     10  C   UNL     1      10.707  -2.561 -10.652  1.00  0.00     0.087 C 
ATOM     11  N   UNL     1      10.844  -2.790 -12.090  1.00  0.00    -0.276 NA
ATOM     12  O   UNL     1      10.217  -2.036 -14.278  1.00  0.00    -0.360 OA
ATOM     13  C   UNL     1      12.253  -2.842 -12.497  1.00  0.00     0.121 C 
ATOM     14  C   UNL     1      11.566  -2.093 -14.752  1.00  0.00     0.195 C 
BRANCH   6  15
ATOM     15  C   UNL     1       6.937  -1.711 -10.663  1.00  0.00    -0.008 C 
ATOM     16  C   UNL     1       6.216  -0.572  -9.981  1.00  0.00     0.004 C 
ATOM     17  C   UNL     1       5.888  -0.919 -11.404  1.00  0.00     0.004 C 
ENDBRANCH   6  15
ENDBRANCH   4   5
ENDBRANCH   1   4
BRANCH   3  18
ATOM     18  C   UNL     1      13.910  -7.619 -13.694  1.00  0.00     0.053 C 
BRANCH  18  19
ATOM     19  C   UNL     1      14.265  -8.863 -14.466  1.00  0.00     0.074 C 
BRANCH  19  20
ATOM     20  N   UNL     1      14.180 -10.075 -14.029  1.00  0.00    -0.313 NA
ATOM     21  H   UNL     1      14.879 -10.264 -13.296  1.00  0.00     0.186 HD
ENDBRANCH  19  20
ENDBRANCH  18  19
ENDBRANCH   3  18
TORSDOF 6
ENDMDL
MODEL 7
REMARK VINA RESULT:    -3.657      3.371      5.248
REMARK INTER + INTRA:          -5.023
REMARK INTER:                  -5.343
REMARK INTRA:                   0.320
REMARK UNBOUND:                -0.190
REMARK SMILES [H]/N=C\C[C@H]1C[C@@H]1O[C@H]1CO[C@H]2C[C@@H](C3CC3)CCN2C1
REMARK SMILES IDX 7 1 6 2 5 3 8 4 9 5 14 6 13 7 18 8 12 9 19 10 20 11 11 12
REMARK SMILES IDX 21 13 10 14 15 15 16 16 17 17 4 18 3 19 2 20 1 21
REMARK H PARENT
ROOT
ATOM      1  C   UNL     1       4.841  -0.627 -13.247  1.00  0.00     0.122 C 
ATOM      2  C   UNL     1       3.352  -0.589 -13.439  1.00  0.00     0.039 C 
ATOM      3  C   UNL     1       4.209   0.496 -14.024  1.00  0.00     0.026 C 
ENDROOT
BRANCH   1   4
ATOM      4  O   UNL     1       5.268  -0.322 -11.906  1.00  0.00    -0.371 OA
BRANCH   4   5
ATOM      5  C   UNL     1       6.343  -1.131 -11.399  1.00  0.00     0.158 C 
ATOM      6  C   UNL     1       4.144  -2.633  -6.914  1.00  0.00    -0.003 C 
ATOM      7  C   UNL     1       4.730  -1.328  -7.467  1.00  0.00     0.052 C 
ATOM      8  C   UNL     1       3.514  -3.433  -8.063  1.00  0.00     0.019 C 
ATOM      9  C   UNL     1       5.680  -1.584  -8.645  1.00  0.00     0.189 C 
ATOM     10  C   UNL     1       4.498  -3.623  -9.217  1.00  0.00     0.087 C 
ATOM     11  N   UNL     1       4.996  -2.334  -9.698  1.00  0.00    -0.276 NA
ATOM     12  O   UNL     1       6.121  -0.304  -9.099  1.00  0.00    -0.360 OA
ATOM     13  C   UNL     1       5.874  -2.495 -10.862  1.00  0.00     0.121 C 
ATOM     14  C   UNL     1       6.993  -0.381 -10.232  1.00  0.00     0.195 C 
BRANCH   6  15
ATOM     15  C   UNL     1       3.124  -2.368  -5.830  1.00  0.00    -0.008 C 
ATOM     16  C   UNL     1       3.361  -1.281  -4.808  1.00  0.00     0.004 C 
ATOM     17  C   UNL     1       2.289  -1.111  -5.845  1.00  0.00     0.004 C 
ENDBRANCH   6  15
ENDBRANCH   4   5
ENDBRANCH   1   4
BRANCH   3  18
ATOM     18  C   UNL     1       4.373   0.571 -15.512  1.00  0.00     0.053 C 
BRANCH  18  19
ATOM     19  C   UNL     1       4.464   1.953 -16.104  1.00  0.00     0.074 C 
BRANCH  19  20
ATOM     20  N   UNL     1       5.531   2.504 -16.580  1.00  0.00    -0.313 NA
ATOM     21  H   UNL     1       5.332   3.040 -17.437  1.00  0.00     0.186 HD
ENDBRANCH  19  20
ENDBRANCH  18  19
ENDBRANCH   3  18
TORSDOF 6
ENDMDL
MODEL 8
REMARK VINA RESULT:    -3.557      3.683      5.119
REMARK INTER + INTRA:          -4.891
REMARK INTER:                  -4.767
REMARK INTRA:                  -0.124
REMARK UNBOUND:                -0.190
REMARK SMILES [H]/N=C\C[C@H]1C[C@@H]1O[C@H]1CO[C@H]2C[C@@H](C3CC3)CCN2C1
REMARK SMILES IDX 7 1 6 2 5 3 8 4 9 5 14 6 13 7 18 8 12 9 19 10 20 11 11 12
REMARK SMILES IDX 21 13 10 14 15 15 16 16 17 17 4 18 3 19 2 20 1 21
REMARK H PARENT
ROOT
ATOM      1  C   UNL     1      11.517  -5.246 -11.773  1.00  0.00     0.122 C 
ATOM      2  C   UNL     1      11.143  -6.676 -12.043  1.00  0.00     0.039 C 
ATOM      3  C   UNL     1      12.023  -5.936 -13.010  1.00  0.00     0.026 C 
ENDROOT
BRANCH   1   4
ATOM      4  O   UNL     1      10.435  -4.312 -11.953  1.00  0.00    -0.371 OA
BRANCH   4   5
ATOM      5  C   UNL     1      10.654  -2.999 -11.412  1.00  0.00     0.158 C 
ATOM      6  C   UNL     1       5.877  -1.040 -12.156  1.00  0.00    -0.003 C 
ATOM      7  C   UNL     1       7.066  -1.406 -13.053  1.00  0.00     0.052 C 
ATOM      8  C   UNL     1       5.835  -1.995 -10.954  1.00  0.00     0.019 C 
ATOM      9  C   UNL     1       8.379  -1.471 -12.260  1.00  0.00     0.189 C 
ATOM     10  C   UNL     1       7.181  -2.040 -10.230  1.00  0.00     0.087 C 
ATOM     11  N   UNL     1       8.257  -2.414 -11.148  1.00  0.00    -0.276 NA
ATOM     12  O   UNL     1       9.395  -1.862 -13.185  1.00  0.00    -0.360 OA
ATOM     13  C   UNL     1       9.541  -2.546 -10.450  1.00  0.00     0.121 C 
ATOM     14  C   UNL     1      10.682  -2.003 -12.576  1.00  0.00     0.195 C 
BRANCH   6  15
ATOM     15  C   UNL     1       4.572  -1.089 -12.918  1.00  0.00    -0.008 C 
ATOM     16  C   UNL     1       4.056   0.140 -13.629  1.00  0.00     0.004 C 
ATOM     17  C   UNL     1       4.554  -1.031 -14.426  1.00  0.00     0.004 C 
ENDBRANCH   6  15
ENDBRANCH   4   5
ENDBRANCH   1   4
BRANCH   3  18
ATOM     18  C   UNL     1      13.467  -6.324 -13.121  1.00  0.00     0.053 C 
BRANCH  18  19
ATOM     19  C   UNL     1      13.779  -7.472 -14.046  1.00  0.00     0.074 C 
BRANCH  19  20
ATOM     20  N   UNL     1      14.167  -8.650 -13.686  1.00  0.00    -0.313 NA
ATOM     21  H   UNL     1      13.388  -9.323 -13.686  1.00  0.00     0.186 HD
ENDBRANCH  19  20
ENDBRANCH  18  19
ENDBRANCH   3  18
TORSDOF 6
ENDMDL
MODEL 9
REMARK VINA RESULT:    -3.358      4.121      6.790
REMARK INTER + INTRA:          -4.628
REMARK INTER:                  -4.739
REMARK INTRA:                   0.111
REMARK UNBOUND:                -0.190
REMARK SMILES [H]/N=C\C[C@H]1C[C@@H]1O[C@H]1CO[C@H]2C[C@@H](C3CC3)CCN2C1
REMARK SMILES IDX 7 1 6 2 5 3 8 4 9 5 14 6 13 7 18 8 12 9 19 10 20 11 11 12
REMARK SMILES IDX 21 13 10 14 15 15 16 16 17 17 4 18 3 19 2 20 1 21
REMARK H PARENT
ROOT
ATOM      1  C   UNL     1      11.898  -4.371 -16.721  1.00  0.00     0.122 C 
ATOM      2  C   UNL     1      13.356  -4.090 -16.951  1.00  0.00     0.039 C 
ATOM      3  C   UNL     1      12.881  -5.507 -16.799  1.00  0.00     0.026 C 
ENDROOT
BRANCH   1   4
ATOM      4  O   UNL     1      11.431  -4.011 -15.407  1.00  0.00    -0.371 OA
BRANCH   4   5
ATOM      5  C   UNL     1      12.128  -2.924 -14.777  1.00  0.00     0.158 C 
ATOM      6  C   UNL     1       8.665  -1.838 -11.032  1.00  0.00    -0.003 C 
ATOM      7  C   UNL     1       8.733  -1.650 -12.552  1.00  0.00     0.052 C 
ATOM      8  C   UNL     1       9.425  -3.113 -10.643  1.00  0.00     0.019 C 
ATOM      9  C   UNL     1      10.178  -1.698 -13.068  1.00  0.00     0.189 C 
ATOM     10  C   UNL     1      10.843  -3.114 -11.215  1.00  0.00     0.087 C 
ATOM     11  N   UNL     1      10.821  -2.950 -12.669  1.00  0.00    -0.276 NA
ATOM     12  O   UNL     1      10.110  -1.559 -14.488  1.00  0.00    -0.360 OA
ATOM     13  C   UNL     1      12.168  -3.036 -13.243  1.00  0.00     0.121 C 
ATOM     14  C   UNL     1      11.392  -1.624 -15.120  1.00  0.00     0.195 C 
BRANCH   6  15
ATOM     15  C   UNL     1       7.235  -1.903 -10.545  1.00  0.00    -0.008 C 
ATOM     16  C   UNL     1       6.573  -0.681  -9.952  1.00  0.00     0.004 C 
ATOM     17  C   UNL     1       6.130  -1.195 -11.291  1.00  0.00     0.004 C 
ENDBRANCH   6  15
ENDBRANCH   4   5
ENDBRANCH   1   4
BRANCH   3  18
ATOM     18  C   UNL     1      12.898  -6.410 -17.996  1.00  0.00     0.053 C 
BRANCH  18  19
ATOM     19  C   UNL     1      14.250  -6.909 -18.435  1.00  0.00     0.074 C 
BRANCH  19  20
ATOM     20  N   UNL     1      14.657  -8.134 -18.388  1.00  0.00    -0.313 NA
ATOM     21  H   UNL     1      14.084  -8.748 -18.984  1.00  0.00     0.186 HD
ENDBRANCH  19  20
ENDBRANCH  18  19
ENDBRANCH   3  18
TORSDOF 6
ENDMDL
