MODEL 1
REMARK VINA RESULT:    -4.025      0.000      0.000
REMARK INTER + INTRA:          -5.513
REMARK INTER:                  -5.319
REMARK INTRA:                  -0.194
REMARK UNBOUND:                -0.194
REMARK SMILES [H]/N=C\C[C@H]1C[C@@H]1O[C@H]1CO[C@H]2C[C@@H](C3CC3)CCN2C1
REMARK SMILES IDX 7 1 6 2 5 3 8 4 9 5 14 6 13 7 18 8 12 9 19 10 20 11 11 12
REMARK SMILES IDX 21 13 10 14 15 15 16 16 17 17 4 18 3 19 2 20 1 21
REMARK H PARENT
ROOT
ATOM      1  C   UNL     1      -2.475 -11.818  -2.541  1.00  0.00     0.122 C 
ATOM      2  C   UNL     1      -2.490 -11.627  -4.031  1.00  0.00     0.039 C 
ATOM      3  C   UNL     1      -3.450 -10.859  -3.168  1.00  0.00     0.026 C 
ENDROOT
BRANCH   1   4
ATOM      4  O   UNL     1      -3.005 -13.084  -2.106  1.00  0.00    -0.371 OA
BRANCH   4   5
ATOM      5  C   UNL     1      -2.450 -13.602  -0.886  1.00  0.00     0.158 C 
ATOM      6  C   UNL     1      -6.245 -16.965   0.335  1.00  0.00    -0.003 C 
ATOM      7  C   UNL     1      -6.088 -15.439   0.334  1.00  0.00     0.052 C 
ATOM      8  C   UNL     1      -5.406 -17.563  -0.803  1.00  0.00     0.019 C 
ATOM      9  C   UNL     1      -4.612 -15.019   0.357  1.00  0.00     0.189 C 
ATOM     10  C   UNL     1      -3.958 -17.078  -0.743  1.00  0.00     0.087 C 
ATOM     11  N   UNL     1      -3.893 -15.617  -0.767  1.00  0.00    -0.276 NA
ATOM     12  O   UNL     1      -4.594 -13.591   0.307  1.00  0.00    -0.360 OA
ATOM     13  C   UNL     1      -2.507 -15.138  -0.798  1.00  0.00     0.121 C 
ATOM     14  C   UNL     1      -3.270 -13.048   0.284  1.00  0.00     0.195 C 
BRANCH   6  15
ATOM     15  C   UNL     1      -7.694 -17.373   0.197  1.00  0.00    -0.008 C 
ATOM     16  C   UNL     1      -8.204 -18.623   0.876  1.00  0.00     0.004 C 
ATOM     17  C   UNL     1      -8.641 -17.274   1.369  1.00  0.00     0.004 C 
ENDBRANCH   6  15
ENDBRANCH   4   5
ENDBRANCH   1   4
BRANCH   3  18
ATOM     18  C   UNL     1      -3.262  -9.380  -3.011  1.00  0.00     0.053 C 
BRANCH  18  19
ATOM     19  C   UNL     1      -4.481  -8.525  -3.242  1.00  0.00     0.074 C 
BRANCH  19  20
ATOM     20  N   UNL     1      -5.554  -8.888  -3.863  1.00  0.00    -0.313 NA
ATOM     21  H   UNL     1      -6.402  -8.605  -3.353  1.00  0.00     0.186 HD
ENDBRANCH  19  20
ENDBRANCH  18  19
ENDBRANCH   3  18
TORSDOF 6
ENDMDL
MODEL 2
REMARK VINA RESULT:    -4.010      5.425      8.442
REMARK INTER + INTRA:          -5.493
REMARK INTER:                  -5.350
REMARK INTRA:                  -0.143
REMARK UNBOUND:                -0.194
REMARK SMILES [H]/N=C\C[C@H]1C[C@@H]1O[C@H]1CO[C@H]2C[C@@H](C3CC3)CCN2C1
REMARK SMILES IDX 7 1 6 2 5 3 8 4 9 5 14 6 13 7 18 8 12 9 19 10 20 11 11 12
REMARK SMILES IDX 21 13 10 14 15 15 16 16 17 17 4 18 3 19 2 20 1 21
REMARK H PARENT
ROOT
ATOM      1  C   UNL     1      -1.815 -11.755  -3.208  1.00  0.00     0.122 C 
ATOM      2  C   UNL     1      -1.867 -12.275  -1.799  1.00  0.00     0.039 C 
ATOM      3  C   UNL     1      -0.663 -11.511  -2.271  1.00  0.00     0.026 C 
ENDROOT
BRANCH   1   4
ATOM      4  O   UNL     1      -1.629 -12.778  -4.204  1.00  0.00    -0.371 OA
BRANCH   4   5
ATOM      5  C   UNL     1      -2.204 -12.501  -5.492  1.00  0.00     0.158 C 
ATOM      6  C   UNL     1       0.615 -15.836  -8.344  1.00  0.00    -0.003 C 
ATOM      7  C   UNL     1       0.880 -14.506  -7.629  1.00  0.00     0.052 C 
ATOM      8  C   UNL     1      -0.444 -16.629  -7.565  1.00  0.00     0.019 C 
ATOM      9  C   UNL     1      -0.418 -13.729  -7.370  1.00  0.00     0.189 C 
ATOM     10  C   UNL     1      -1.696 -15.788  -7.311  1.00  0.00     0.087 C 
ATOM     11  N   UNL     1      -1.361 -14.549  -6.610  1.00  0.00    -0.276 NA
ATOM     12  O   UNL     1      -0.050 -12.542  -6.665  1.00  0.00    -0.360 OA
ATOM     13  C   UNL     1      -2.562 -13.772  -6.282  1.00  0.00     0.121 C 
ATOM     14  C   UNL     1      -1.172 -11.726  -6.317  1.00  0.00     0.195 C 
BRANCH   6  15
ATOM     15  C   UNL     1       1.881 -16.648  -8.494  1.00  0.00    -0.008 C 
ATOM     16  C   UNL     1       2.028 -17.632  -9.630  1.00  0.00     0.004 C 
ATOM     17  C   UNL     1       2.847 -16.375  -9.621  1.00  0.00     0.004 C 
ENDBRANCH   6  15
ENDBRANCH   4   5
ENDBRANCH   1   4
BRANCH   3  18
ATOM     18  C   UNL     1      -0.414 -10.137  -1.723  1.00  0.00     0.053 C 
BRANCH  18  19
ATOM     19  C   UNL     1       0.997  -9.840  -1.288  1.00  0.00     0.074 C 
BRANCH  19  20
ATOM     20  N   UNL     1       1.870 -10.710  -0.902  1.00  0.00    -0.313 NA
ATOM     21  H   UNL     1       1.610 -11.663  -1.191  1.00  0.00     0.186 HD
ENDBRANCH  19  20
ENDBRANCH  18  19
ENDBRANCH   3  18
TORSDOF 6
ENDMDL
MODEL 3
REMARK VINA RESULT:    -3.995      5.146      8.357
REMARK INTER + INTRA:          -5.474
REMARK INTER:                  -5.230
REMARK INTRA:                  -0.244
REMARK UNBOUND:                -0.194
REMARK SMILES [H]/N=C\C[C@H]1C[C@@H]1O[C@H]1CO[C@H]2C[C@@H](C3CC3)CCN2C1
REMARK SMILES IDX 7 1 6 2 5 3 8 4 9 5 14 6 13 7 18 8 12 9 19 10 20 11 11 12
REMARK SMILES IDX 21 13 10 14 15 15 16 16 17 17 4 18 3 19 2 20 1 21
REMARK H PARENT
ROOT
ATOM      1  C   UNL     1      -1.216 -12.748  -5.322  1.00  0.00     0.122 C 
ATOM      2  C   UNL     1      -2.051 -13.640  -6.195  1.00  0.00     0.039 C 
ATOM      3  C   UNL     1      -0.897 -12.882  -6.785  1.00  0.00     0.026 C 
ENDROOT
BRANCH   1   4
ATOM      4  O   UNL     1      -1.880 -11.536  -4.915  1.00  0.00    -0.371 OA
BRANCH   4   5
ATOM      5  C   UNL     1      -2.883 -11.691  -3.897  1.00  0.00     0.158 C 
ATOM      6  C   UNL     1      -1.568  -7.643  -0.882  1.00  0.00    -0.003 C 
ATOM      7  C   UNL     1      -0.969  -9.019  -1.195  1.00  0.00     0.052 C 
ATOM      8  C   UNL     1      -2.300  -7.114  -2.124  1.00  0.00     0.019 C 
ATOM      9  C   UNL     1      -2.022  -9.984  -1.759  1.00  0.00     0.189 C 
ATOM     10  C   UNL     1      -3.307  -8.133  -2.655  1.00  0.00     0.087 C 
ATOM     11  N   UNL     1      -2.655  -9.410  -2.946  1.00  0.00    -0.276 NA
ATOM     12  O   UNL     1      -1.341 -11.206  -2.051  1.00  0.00    -0.360 OA
ATOM     13  C   UNL     1      -3.591 -10.372  -3.538  1.00  0.00     0.121 C 
ATOM     14  C   UNL     1      -2.195 -12.199  -2.626  1.00  0.00     0.195 C 
BRANCH   6  15
ATOM     15  C   UNL     1      -0.506  -6.664  -0.435  1.00  0.00    -0.008 C 
ATOM     16  C   UNL     1      -0.715  -5.822   0.801  1.00  0.00     0.004 C 
ATOM     17  C   UNL     1       0.308  -6.921   0.810  1.00  0.00     0.004 C 
ENDBRANCH   6  15
ENDBRANCH   4   5
ENDBRANCH   1   4
BRANCH   3  18
ATOM     18  C   UNL     1       0.320 -13.638  -7.227  1.00  0.00     0.053 C 
BRANCH  18  19
ATOM     19  C   UNL     1       0.091 -14.750  -8.217  1.00  0.00     0.074 C 
BRANCH  19  20
ATOM     20  N   UNL     1      -0.217 -14.603  -9.463  1.00  0.00    -0.313 NA
ATOM     21  H   UNL     1      -1.236 -14.538  -9.598  1.00  0.00     0.186 HD
ENDBRANCH  19  20
ENDBRANCH  18  19
ENDBRANCH   3  18
TORSDOF 6
ENDMDL
MODEL 4
REMARK VINA RESULT:    -3.970      2.731      8.583
REMARK INTER + INTRA:          -5.442
REMARK INTER:                  -5.216
REMARK INTRA:                  -0.226
REMARK UNBOUND:                -0.194
REMARK SMILES [H]/N=C\C[C@H]1C[C@@H]1O[C@H]1CO[C@H]2C[C@@H](C3CC3)CCN2C1
REMARK SMILES IDX 7 1 6 2 5 3 8 4 9 5 14 6 13 7 18 8 12 9 19 10 20 11 11 12
REMARK SMILES IDX 21 13 10 14 15 15 16 16 17 17 4 18 3 19 2 20 1 21
REMARK H PARENT
ROOT
ATOM      1  C   UNL     1      -3.433 -13.443  -1.060  1.00  0.00     0.122 C 
ATOM      2  C   UNL     1      -2.838 -14.785  -0.738  1.00  0.00     0.039 C 
ATOM      3  C   UNL     1      -3.785 -14.134   0.229  1.00  0.00     0.026 C 
ENDROOT
BRANCH   1   4
ATOM      4  O   UNL     1      -2.498 -12.351  -0.971  1.00  0.00    -0.371 OA
BRANCH   4   5
ATOM      5  C   UNL     1      -1.498 -12.306  -2.002  1.00  0.00     0.158 C 
ATOM      6  C   UNL     1      -1.380  -7.147  -2.756  1.00  0.00    -0.003 C 
ATOM      7  C   UNL     1      -2.361  -8.281  -3.074  1.00  0.00     0.052 C 
ATOM      8  C   UNL     1      -0.636  -7.470  -1.453  1.00  0.00     0.019 C 
ATOM      9  C   UNL     1      -1.670  -9.651  -3.073  1.00  0.00     0.189 C 
ATOM     10  C   UNL     1       0.000  -8.859  -1.503  1.00  0.00     0.087 C 
ATOM     11  N   UNL     1      -1.002  -9.884  -1.792  1.00  0.00    -0.276 NA
ATOM     12  O   UNL     1      -2.685 -10.622  -3.333  1.00  0.00    -0.360 OA
ATOM     13  C   UNL     1      -0.423 -11.232  -1.757  1.00  0.00     0.121 C 
ATOM     14  C   UNL     1      -2.191 -11.965  -3.324  1.00  0.00     0.195 C 
BRANCH   6  15
ATOM     15  C   UNL     1      -2.087  -5.815  -2.647  1.00  0.00    -0.008 C 
ATOM     16  C   UNL     1      -1.575  -4.613  -3.405  1.00  0.00     0.004 C 
ATOM     17  C   UNL     1      -2.869  -5.256  -3.811  1.00  0.00     0.004 C 
ENDBRANCH   6  15
ENDBRANCH   4   5
ENDBRANCH   1   4
BRANCH   3  18
ATOM     18  C   UNL     1      -5.149 -14.726   0.421  1.00  0.00     0.053 C 
BRANCH  18  19
ATOM     19  C   UNL     1      -5.195 -16.176   0.828  1.00  0.00     0.074 C 
BRANCH  19  20
ATOM     20  N   UNL     1      -5.477 -16.624   2.006  1.00  0.00    -0.313 NA
ATOM     21  H   UNL     1      -6.387 -17.105   2.021  1.00  0.00     0.186 HD
ENDBRANCH  19  20
ENDBRANCH  18  19
ENDBRANCH   3  18
TORSDOF 6
ENDMDL
MODEL 5
REMARK VINA RESULT:    -3.695      2.018      7.184
REMARK INTER + INTRA:          -5.077
REMARK INTER:                  -4.872
REMARK INTRA:                  -0.205
REMARK UNBOUND:                -0.194
REMARK SMILES [H]/N=C\C[C@H]1C[C@@H]1O[C@H]1CO[C@H]2C[C@@H](C3CC3)CCN2C1
REMARK SMILES IDX 7 1 6 2 5 3 8 4 9 5 14 6 13 7 18 8 12 9 19 10 20 11 11 12
REMARK SMILES IDX 21 13 10 14 15 15 16 16 17 17 4 18 3 19 2 20 1 21
REMARK H PARENT
ROOT
ATOM      1  C   UNL     1      -6.256 -15.878   0.244  1.00  0.00     0.122 C 
ATOM      2  C   UNL     1      -7.703 -15.558   0.489  1.00  0.00     0.039 C 
ATOM      3  C   UNL     1      -7.310 -16.380  -0.704  1.00  0.00     0.026 C 
ENDROOT
BRANCH   1   4
ATOM      4  O   UNL     1      -5.473 -14.753  -0.199  1.00  0.00    -0.371 OA
BRANCH   4   5
ATOM      5  C   UNL     1      -4.117 -14.717   0.275  1.00  0.00     0.158 C 
ATOM      6  C   UNL     1      -1.915 -12.368  -3.829  1.00  0.00    -0.003 C 
ATOM      7  C   UNL     1      -2.499 -13.757  -3.541  1.00  0.00     0.052 C 
ATOM      8  C   UNL     1      -2.680 -11.317  -3.012  1.00  0.00     0.019 C 
ATOM      9  C   UNL     1      -2.553 -14.051  -2.035  1.00  0.00     0.189 C 
ATOM     10  C   UNL     1      -2.727 -11.686  -1.530  1.00  0.00     0.087 C 
ATOM     11  N   UNL     1      -3.312 -13.013  -1.339  1.00  0.00    -0.276 NA
ATOM     12  O   UNL     1      -3.152 -15.341  -1.893  1.00  0.00    -0.360 OA
ATOM     13  C   UNL     1      -3.444 -13.346   0.084  1.00  0.00     0.121 C 
ATOM     14  C   UNL     1      -3.304 -15.739  -0.527  1.00  0.00     0.195 C 
BRANCH   6  15
ATOM     15  C   UNL     1      -1.970 -12.038  -5.303  1.00  0.00    -0.008 C 
ATOM     16  C   UNL     1      -0.812 -12.387  -6.208  1.00  0.00     0.004 C 
ATOM     17  C   UNL     1      -2.110 -13.131  -6.336  1.00  0.00     0.004 C 
ENDBRANCH   6  15
ENDBRANCH   4   5
ENDBRANCH   1   4
BRANCH   3  18
ATOM     18  C   UNL     1      -7.668 -17.836  -0.734  1.00  0.00     0.053 C 
BRANCH  18  19
ATOM     19  C   UNL     1      -7.273 -18.594  -1.975  1.00  0.00     0.074 C 
BRANCH  19  20
ATOM     20  N   UNL     1      -6.427 -18.198  -2.867  1.00  0.00    -0.313 NA
ATOM     21  H   UNL     1      -6.860 -18.138  -3.800  1.00  0.00     0.186 HD
ENDBRANCH  19  20
ENDBRANCH  18  19
ENDBRANCH   3  18
TORSDOF 6
ENDMDL
MODEL 6
REMARK VINA RESULT:    -3.483      2.546      7.395
REMARK INTER + INTRA:          -4.797
REMARK INTER:                  -4.484
REMARK INTRA:                  -0.313
REMARK UNBOUND:                -0.194
REMARK SMILES [H]/N=C\C[C@H]1C[C@@H]1O[C@H]1CO[C@H]2C[C@@H](C3CC3)CCN2C1
REMARK SMILES IDX 7 1 6 2 5 3 8 4 9 5 14 6 13 7 18 8 12 9 19 10 20 11 11 12
REMARK SMILES IDX 21 13 10 14 15 15 16 16 17 17 4 18 3 19 2 20 1 21
REMARK H PARENT
ROOT
ATOM      1  C   UNL     1      -6.904 -17.122  -0.311  1.00  0.00     0.122 C 
ATOM      2  C   UNL     1      -8.099 -16.571  -1.037  1.00  0.00     0.039 C 
ATOM      3  C   UNL     1      -8.195 -17.894  -0.333  1.00  0.00     0.026 C 
ENDROOT
BRANCH   1   4
ATOM      4  O   UNL     1      -5.856 -17.594  -1.178  1.00  0.00    -0.371 OA
BRANCH   4   5
ATOM      5  C   UNL     1      -4.585 -17.821  -0.547  1.00  0.00     0.158 C 
ATOM      6  C   UNL     1      -2.443 -13.141  -1.395  1.00  0.00    -0.003 C 
ATOM      7  C   UNL     1      -2.789 -14.363  -2.255  1.00  0.00     0.052 C 
ATOM      8  C   UNL     1      -3.467 -13.014  -0.258  1.00  0.00     0.019 C 
ATOM      9  C   UNL     1      -2.941 -15.632  -1.406  1.00  0.00     0.189 C 
ATOM     10  C   UNL     1      -3.596 -14.320   0.525  1.00  0.00     0.087 C 
ATOM     11  N   UNL     1      -3.946 -15.430  -0.362  1.00  0.00    -0.276 NA
ATOM     12  O   UNL     1      -3.305 -16.683  -2.304  1.00  0.00    -0.360 OA
ATOM     13  C   UNL     1      -4.158 -16.674   0.387  1.00  0.00     0.121 C 
ATOM     14  C   UNL     1      -3.522 -17.934  -1.644  1.00  0.00     0.195 C 
BRANCH   6  15
ATOM     15  C   UNL     1      -2.407 -11.874  -2.220  1.00  0.00    -0.008 C 
ATOM     16  C   UNL     1      -1.117 -11.103  -2.379  1.00  0.00     0.004 C 
ATOM     17  C   UNL     1      -1.698 -11.839  -3.552  1.00  0.00     0.004 C 
ENDBRANCH   6  15
ENDBRANCH   4   5
ENDBRANCH   1   4
BRANCH   3  18
ATOM     18  C   UNL     1      -9.035 -17.998   0.905  1.00  0.00     0.053 C 
BRANCH  18  19
ATOM     19  C   UNL     1     -10.385 -18.647   0.742  1.00  0.00     0.074 C 
BRANCH  19  20
ATOM     20  N   UNL     1     -11.526 -18.045   0.797  1.00  0.00    -0.313 NA
ATOM     21  H   UNL     1     -11.414 -17.021   0.820  1.00  0.00     0.186 HD
ENDBRANCH  19  20
ENDBRANCH  18  19
ENDBRANCH   3  18
TORSDOF 6
ENDMDL
MODEL 7
REMARK VINA RESULT:    -3.474      6.438      9.204
REMARK INTER + INTRA:          -4.785
REMARK INTER:                  -4.467
REMARK INTRA:                  -0.318
REMARK UNBOUND:                -0.194
REMARK SMILES [H]/N=C\C[C@H]1C[C@@H]1O[C@H]1CO[C@H]2C[C@@H](C3CC3)CCN2C1
REMARK SMILES IDX 7 1 6 2 5 3 8 4 9 5 14 6 13 7 18 8 12 9 19 10 20 11 11 12
REMARK SMILES IDX 21 13 10 14 15 15 16 16 17 17 4 18 3 19 2 20 1 21
REMARK H PARENT
ROOT
ATOM      1  C   UNL     1       1.129 -16.440  -7.907  1.00  0.00     0.122 C 
ATOM      2  C   UNL     1       2.361 -16.606  -7.063  1.00  0.00     0.039 C 
ATOM      3  C   UNL     1       2.176 -17.449  -8.292  1.00  0.00     0.026 C 
ENDROOT
BRANCH   1   4
ATOM      4  O   UNL     1      -0.072 -16.956  -7.302  1.00  0.00    -0.371 OA
BRANCH   4   5
ATOM      5  C   UNL     1      -1.304 -16.499  -7.882  1.00  0.00     0.158 C 
ATOM      6  C   UNL     1      -2.130 -12.363  -4.815  1.00  0.00    -0.003 C 
ATOM      7  C   UNL     1      -2.201 -13.885  -4.648  1.00  0.00     0.052 C 
ATOM      8  C   UNL     1      -1.028 -12.014  -5.825  1.00  0.00     0.019 C 
ATOM      9  C   UNL     1      -2.341 -14.601  -5.998  1.00  0.00     0.189 C 
ATOM     10  C   UNL     1      -1.205 -12.784  -7.133  1.00  0.00     0.087 C 
ATOM     11  N   UNL     1      -1.244 -14.226  -6.891  1.00  0.00    -0.276 NA
ATOM     12  O   UNL     1      -2.350 -16.002  -5.719  1.00  0.00    -0.360 OA
ATOM     13  C   UNL     1      -1.326 -14.983  -8.145  1.00  0.00     0.121 C 
ATOM     14  C   UNL     1      -2.438 -16.808  -6.898  1.00  0.00     0.195 C 
BRANCH   6  15
ATOM     15  C   UNL     1      -1.879 -11.671  -3.494  1.00  0.00    -0.008 C 
ATOM     16  C   UNL     1      -2.904 -10.721  -2.922  1.00  0.00     0.004 C 
ATOM     17  C   UNL     1      -2.664 -12.047  -2.262  1.00  0.00     0.004 C 
ENDBRANCH   6  15
ENDBRANCH   4   5
ENDBRANCH   1   4
BRANCH   3  18
ATOM     18  C   UNL     1       3.060 -17.207  -9.479  1.00  0.00     0.053 C 
BRANCH  18  19
ATOM     19  C   UNL     1       4.118 -18.245  -9.745  1.00  0.00     0.074 C 
BRANCH  19  20
ATOM     20  N   UNL     1       5.395 -18.052  -9.707  1.00  0.00    -0.313 NA
ATOM     21  H   UNL     1       5.902 -18.757 -10.260  1.00  0.00     0.186 HD
ENDBRANCH  19  20
ENDBRANCH  18  19
ENDBRANCH   3  18
TORSDOF 6
ENDMDL
MODEL 8
REMARK VINA RESULT:    -3.458      3.012      8.350
REMARK INTER + INTRA:          -4.764
REMARK INTER:                  -4.852
REMARK INTRA:                   0.088
REMARK UNBOUND:                -0.194
REMARK SMILES [H]/N=C\C[C@H]1C[C@@H]1O[C@H]1CO[C@H]2C[C@@H](C3CC3)CCN2C1
REMARK SMILES IDX 7 1 6 2 5 3 8 4 9 5 14 6 13 7 18 8 12 9 19 10 20 11 11 12
REMARK SMILES IDX 21 13 10 14 15 15 16 16 17 17 4 18 3 19 2 20 1 21
REMARK H PARENT
ROOT
ATOM      1  C   UNL     1      -3.054 -13.441  -0.882  1.00  0.00     0.122 C 
ATOM      2  C   UNL     1      -3.072 -13.241   0.607  1.00  0.00     0.039 C 
ATOM      3  C   UNL     1      -4.205 -13.961  -0.065  1.00  0.00     0.026 C 
ENDROOT
BRANCH   1   4
ATOM      4  O   UNL     1      -3.292 -12.238  -1.639  1.00  0.00    -0.371 OA
BRANCH   4   5
ATOM      5  C   UNL     1      -2.501 -12.088  -2.829  1.00  0.00     0.158 C 
ATOM      6  C   UNL     1      -0.270  -7.507  -1.714  1.00  0.00    -0.003 C 
ATOM      7  C   UNL     1      -1.674  -7.977  -2.115  1.00  0.00     0.052 C 
ATOM      8  C   UNL     1       0.413  -8.602  -0.883  1.00  0.00     0.019 C 
ATOM      9  C   UNL     1      -1.643  -9.351  -2.796  1.00  0.00     0.189 C 
ATOM     10  C   UNL     1       0.380  -9.951  -1.601  1.00  0.00     0.087 C 
ATOM     11  N   UNL     1      -0.992 -10.335  -1.930  1.00  0.00    -0.276 NA
ATOM     12  O   UNL     1      -3.000  -9.699  -3.077  1.00  0.00    -0.360 OA
ATOM     13  C   UNL     1      -1.048 -11.668  -2.542  1.00  0.00     0.121 C 
ATOM     14  C   UNL     1      -3.134 -10.987  -3.686  1.00  0.00     0.195 C 
BRANCH   6  15
ATOM     15  C   UNL     1      -0.319  -6.207  -0.943  1.00  0.00    -0.008 C 
ATOM     16  C   UNL     1      -1.000  -4.995  -1.532  1.00  0.00     0.004 C 
ATOM     17  C   UNL     1      -1.616  -5.702  -0.360  1.00  0.00     0.004 C 
ENDBRANCH   6  15
ENDBRANCH   4   5
ENDBRANCH   1   4
BRANCH   3  18
ATOM     18  C   UNL     1      -4.366 -15.435   0.161  1.00  0.00     0.053 C 
BRANCH  18  19
ATOM     19  C   UNL     1      -5.759 -15.912   0.481  1.00  0.00     0.074 C 
BRANCH  19  20
ATOM     20  N   UNL     1      -6.848 -15.242   0.301  1.00  0.00    -0.313 NA
ATOM     21  H   UNL     1      -7.289 -15.468  -0.602  1.00  0.00     0.186 HD
ENDBRANCH  19  20
ENDBRANCH  18  19
ENDBRANCH   3  18
TORSDOF 6
ENDMDL
MODEL 9
REMARK VINA RESULT:    -3.308      5.213      7.759
REMARK INTER + INTRA:          -4.566
REMARK INTER:                  -4.441
REMARK INTRA:                  -0.124
REMARK UNBOUND:                -0.194
REMARK SMILES [H]/N=C\C[C@H]1C[C@@H]1O[C@H]1CO[C@H]2C[C@@H](C3CC3)CCN2C1
REMARK SMILES IDX 7 1 6 2 5 3 8 4 9 5 14 6 13 7 18 8 12 9 19 10 20 11 11 12
REMARK SMILES IDX 21 13 10 14 15 15 16 16 17 17 4 18 3 19 2 20 1 21
REMARK H PARENT
ROOT
ATOM      1  C   UNL     1       1.121 -14.439  -7.741  1.00  0.00     0.122 C 
ATOM      2  C   UNL     1       2.509 -14.898  -7.393  1.00  0.00     0.039 C 
ATOM      3  C   UNL     1       1.446 -15.907  -7.722  1.00  0.00     0.026 C 
ENDROOT
BRANCH   1   4
ATOM      4  O   UNL     1       0.372 -13.930  -6.620  1.00  0.00    -0.371 OA
BRANCH   4   5
ATOM      5  C   UNL     1      -0.876 -13.297  -6.946  1.00  0.00     0.158 C 
ATOM      6  C   UNL     1      -2.701 -12.633  -2.105  1.00  0.00    -0.003 C 
ATOM      7  C   UNL     1      -2.496 -13.825  -3.047  1.00  0.00     0.052 C 
ATOM      8  C   UNL     1      -1.610 -11.585  -2.367  1.00  0.00     0.019 C 
ATOM      9  C   UNL     1      -2.394 -13.382  -4.513  1.00  0.00     0.189 C 
ATOM     10  C   UNL     1      -1.538 -11.213  -3.848  1.00  0.00     0.087 C 
ATOM     11  N   UNL     1      -1.322 -12.399  -4.676  1.00  0.00    -0.276 NA
ATOM     12  O   UNL     1      -2.159 -14.563  -5.282  1.00  0.00    -0.360 OA
ATOM     13  C   UNL     1      -1.163 -12.049  -6.092  1.00  0.00     0.121 C 
ATOM     14  C   UNL     1      -2.003 -14.300  -6.680  1.00  0.00     0.195 C 
BRANCH   6  15
ATOM     15  C   UNL     1      -2.687 -13.062  -0.655  1.00  0.00    -0.008 C 
ATOM     16  C   UNL     1      -3.964 -13.490   0.027  1.00  0.00     0.004 C 
ATOM     17  C   UNL     1      -2.902 -14.507  -0.274  1.00  0.00     0.004 C 
ENDBRANCH   6  15
ENDBRANCH   4   5
ENDBRANCH   1   4
BRANCH   3  18
ATOM     18  C   UNL     1       1.547 -16.676  -9.005  1.00  0.00     0.053 C 
BRANCH  18  19
ATOM     19  C   UNL     1       2.533 -17.814  -9.024  1.00  0.00     0.074 C 
BRANCH  19  20
ATOM     20  N   UNL     1       3.795 -17.719  -9.282  1.00  0.00    -0.313 NA
ATOM     21  H   UNL     1       4.250 -18.643  -9.301  1.00  0.00     0.186 HD
ENDBRANCH  19  20
ENDBRANCH  18  19
ENDBRANCH   3  18
TORSDOF 6
ENDMDL
