MODEL 1
REMARK VINA RESULT:    -6.031      0.000      0.000
REMARK INTER + INTRA:          -7.476
REMARK INTER:                  -7.089
REMARK INTRA:                  -0.387
REMARK UNBOUND:                -0.387
REMARK SMILES Cc1ccc(CNC(=O)NC(=O)c2ccc(C)cc2)cc1
REMARK SMILES IDX 11 1 12 2 10 3 8 4 9 5 7 6 13 9 19 10 18 11 14 12 16 13
REMARK SMILES IDX 15 14 17 15 6 16 5 17 4 18 20 19 3 20 21 21 2 22 1 23
REMARK H PARENT 10 7 7 8
ROOT
ATOM      1  C   UNL     1      -1.773 -10.335  -2.678  1.00  0.00     0.259 C 
ATOM      2  O   UNL     1      -1.760 -10.060  -3.869  1.00  0.00    -0.269 OA
ATOM      3  N   UNL     1      -2.154 -11.531  -2.060  1.00  0.00    -0.274 N 
ATOM      4  C   UNL     1      -2.402 -12.828  -2.429  1.00  0.00     0.321 C 
ATOM      5  O   UNL     1      -2.593 -13.653  -1.530  1.00  0.00    -0.248 OA
ATOM      6  N   UNL     1      -2.418 -13.248  -3.708  1.00  0.00    -0.334 N 
ATOM      7  H   UNL     1      -2.101 -11.514  -1.050  1.00  0.00     0.175 HD
ATOM      8  H   UNL     1      -2.530 -14.246  -3.806  1.00  0.00     0.165 HD
ENDROOT
BRANCH   1   9
ATOM      9  C   UNL     1      -1.326  -9.278  -1.750  1.00  0.00     0.040 A 
ATOM     10  C   UNL     1      -2.240  -8.471  -1.070  1.00  0.00     0.014 A 
ATOM     11  C   UNL     1      -1.770  -7.520  -0.164  1.00  0.00     0.004 A 
ATOM     12  C   UNL     1       0.050  -9.100  -1.573  1.00  0.00     0.014 A 
ATOM     13  C   UNL     1      -0.394  -7.368   0.060  1.00  0.00    -0.051 A 
ATOM     14  C   UNL     1       0.514  -8.153  -0.661  1.00  0.00     0.004 A 
ATOM     15  C   UNL     1       0.091  -6.401   1.100  1.00  0.00     0.044 C 
ENDBRANCH   1   9
BRANCH   6  16
ATOM     16  C   UNL     1      -2.122 -12.481  -4.885  1.00  0.00     0.153 C 
BRANCH  16  17
ATOM     17  C   UNL     1      -1.627 -13.232  -6.090  1.00  0.00    -0.029 A 
ATOM     18  C   UNL     1      -0.411 -12.946  -6.721  1.00  0.00     0.006 A 
ATOM     19  C   UNL     1      -2.323 -14.396  -6.453  1.00  0.00     0.006 A 
ATOM     20  C   UNL     1       0.104 -13.827  -7.678  1.00  0.00     0.004 A 
ATOM     21  C   UNL     1      -1.807 -15.273  -7.402  1.00  0.00     0.004 A 
ATOM     22  C   UNL     1      -0.583 -15.001  -8.016  1.00  0.00    -0.051 A 
ATOM     23  C   UNL     1       0.030 -16.017  -8.932  1.00  0.00     0.044 C 
ENDBRANCH  16  17
ENDBRANCH   6  16
TORSDOF 3
ENDMDL
MODEL 2
REMARK VINA RESULT:    -6.023      3.255      5.556
REMARK INTER + INTRA:          -7.466
REMARK INTER:                  -7.084
REMARK INTRA:                  -0.382
REMARK UNBOUND:                -0.387
REMARK SMILES Cc1ccc(CNC(=O)NC(=O)c2ccc(C)cc2)cc1
REMARK SMILES IDX 11 1 12 2 10 3 8 4 9 5 7 6 13 9 19 10 18 11 14 12 16 13
REMARK SMILES IDX 15 14 17 15 6 16 5 17 4 18 20 19 3 20 21 21 2 22 1 23
REMARK H PARENT 10 7 7 8
ROOT
ATOM      1  C   UNL     1      -2.092 -10.386  -2.361  1.00  0.00     0.259 C 
ATOM      2  O   UNL     1      -2.125 -10.687  -1.176  1.00  0.00    -0.269 OA
ATOM      3  N   UNL     1      -2.009 -11.227  -3.476  1.00  0.00    -0.274 N 
ATOM      4  C   UNL     1      -2.162 -12.561  -3.752  1.00  0.00     0.321 C 
ATOM      5  O   UNL     1      -2.136 -12.908  -4.938  1.00  0.00    -0.248 OA
ATOM      6  N   UNL     1      -2.368 -13.498  -2.808  1.00  0.00    -0.334 N 
ATOM      7  H   UNL     1      -1.973 -10.741  -4.362  1.00  0.00     0.175 HD
ATOM      8  H   UNL     1      -2.547 -14.419  -3.181  1.00  0.00     0.165 HD
ENDROOT
BRANCH   1   9
ATOM      9  C   UNL     1      -2.151  -8.946  -2.679  1.00  0.00     0.040 A 
ATOM     10  C   UNL     1      -0.998  -8.221  -2.989  1.00  0.00     0.014 A 
ATOM     11  C   UNL     1      -1.111  -6.874  -3.334  1.00  0.00     0.004 A 
ATOM     12  C   UNL     1      -3.400  -8.319  -2.656  1.00  0.00     0.014 A 
ATOM     13  C   UNL     1      -2.366  -6.248  -3.364  1.00  0.00    -0.051 A 
ATOM     14  C   UNL     1      -3.508  -6.975  -3.007  1.00  0.00     0.004 A 
ATOM     15  C   UNL     1      -2.479  -4.823  -3.819  1.00  0.00     0.044 C 
ENDBRANCH   1   9
BRANCH   6  16
ATOM     16  C   UNL     1      -2.534 -13.297  -1.396  1.00  0.00     0.153 C 
BRANCH  16  17
ATOM     17  C   UNL     1      -3.281 -14.354  -0.632  1.00  0.00    -0.029 A 
ATOM     18  C   UNL     1      -4.406 -14.079   0.152  1.00  0.00     0.006 A 
ATOM     19  C   UNL     1      -2.950 -15.693  -0.896  1.00  0.00     0.006 A 
ATOM     20  C   UNL     1      -5.194 -15.127   0.639  1.00  0.00     0.004 A 
ATOM     21  C   UNL     1      -3.737 -16.735  -0.416  1.00  0.00     0.004 A 
ATOM     22  C   UNL     1      -4.873 -16.460   0.348  1.00  0.00    -0.051 A 
ATOM     23  C   UNL     1      -5.789 -17.579   0.744  1.00  0.00     0.044 C 
ENDBRANCH  16  17
ENDBRANCH   6  16
TORSDOF 3
ENDMDL
MODEL 3
REMARK VINA RESULT:    -5.928      3.136      7.294
REMARK INTER + INTRA:          -7.355
REMARK INTER:                  -6.858
REMARK INTRA:                  -0.497
REMARK UNBOUND:                -0.387
REMARK SMILES Cc1ccc(CNC(=O)NC(=O)c2ccc(C)cc2)cc1
REMARK SMILES IDX 11 1 12 2 10 3 8 4 9 5 7 6 13 9 19 10 18 11 14 12 16 13
REMARK SMILES IDX 15 14 17 15 6 16 5 17 4 18 20 19 3 20 21 21 2 22 1 23
REMARK H PARENT 10 7 7 8
ROOT
ATOM      1  C   UNL     1      -2.899 -12.925  -1.446  1.00  0.00     0.259 C 
ATOM      2  O   UNL     1      -2.757 -11.927  -0.754  1.00  0.00    -0.269 OA
ATOM      3  N   UNL     1      -2.606 -13.098  -2.803  1.00  0.00    -0.274 N 
ATOM      4  C   UNL     1      -1.901 -12.442  -3.779  1.00  0.00     0.321 C 
ATOM      5  O   UNL     1      -1.763 -13.010  -4.867  1.00  0.00    -0.248 OA
ATOM      6  N   UNL     1      -1.331 -11.235  -3.601  1.00  0.00    -0.334 N 
ATOM      7  H   UNL     1      -2.831 -14.015  -3.164  1.00  0.00     0.175 HD
ATOM      8  H   UNL     1      -0.776 -10.929  -4.387  1.00  0.00     0.165 HD
ENDROOT
BRANCH   1   9
ATOM      9  C   UNL     1      -3.448 -14.120  -0.778  1.00  0.00     0.040 A 
ATOM     10  C   UNL     1      -4.487 -14.023   0.150  1.00  0.00     0.014 A 
ATOM     11  C   UNL     1      -5.009 -15.186   0.716  1.00  0.00     0.004 A 
ATOM     12  C   UNL     1      -2.892 -15.364  -1.094  1.00  0.00     0.014 A 
ATOM     13  C   UNL     1      -4.493 -16.443   0.367  1.00  0.00    -0.051 A 
ATOM     14  C   UNL     1      -3.421 -16.523  -0.531  1.00  0.00     0.004 A 
ATOM     15  C   UNL     1      -5.121 -17.688   0.919  1.00  0.00     0.044 C 
ENDBRANCH   1   9
BRANCH   6  16
ATOM     16  C   UNL     1      -1.283 -10.458  -2.395  1.00  0.00     0.153 C 
BRANCH  16  17
ATOM     17  C   UNL     1      -1.571  -8.987  -2.511  1.00  0.00    -0.029 A 
ATOM     18  C   UNL     1      -0.582  -8.033  -2.772  1.00  0.00     0.006 A 
ATOM     19  C   UNL     1      -2.920  -8.599  -2.565  1.00  0.00     0.006 A 
ATOM     20  C   UNL     1      -0.943  -6.723  -3.105  1.00  0.00     0.004 A 
ATOM     21  C   UNL     1      -3.278  -7.297  -2.902  1.00  0.00     0.004 A 
ATOM     22  C   UNL     1      -2.292  -6.350  -3.185  1.00  0.00    -0.051 A 
ATOM     23  C   UNL     1      -2.689  -4.991  -3.679  1.00  0.00     0.044 C 
ENDBRANCH  16  17
ENDBRANCH   6  16
TORSDOF 3
ENDMDL
MODEL 4
REMARK VINA RESULT:    -5.894      0.560      7.983
REMARK INTER + INTRA:          -7.315
REMARK INTER:                  -6.817
REMARK INTRA:                  -0.497
REMARK UNBOUND:                -0.387
REMARK SMILES Cc1ccc(CNC(=O)NC(=O)c2ccc(C)cc2)cc1
REMARK SMILES IDX 11 1 12 2 10 3 8 4 9 5 7 6 13 9 19 10 18 11 14 12 16 13
REMARK SMILES IDX 15 14 17 15 6 16 5 17 4 18 20 19 3 20 21 21 2 22 1 23
REMARK H PARENT 10 7 7 8
ROOT
ATOM      1  C   UNL     1      -1.634 -12.294  -4.707  1.00  0.00     0.259 C 
ATOM      2  O   UNL     1      -1.430 -11.098  -4.860  1.00  0.00    -0.269 OA
ATOM      3  N   UNL     1      -2.072 -12.968  -3.562  1.00  0.00    -0.274 N 
ATOM      4  C   UNL     1      -2.637 -12.650  -2.354  1.00  0.00     0.321 C 
ATOM      5  O   UNL     1      -3.018 -13.582  -1.636  1.00  0.00    -0.248 OA
ATOM      6  N   UNL     1      -2.824 -11.387  -1.928  1.00  0.00    -0.334 N 
ATOM      7  H   UNL     1      -2.147 -13.970  -3.671  1.00  0.00     0.175 HD
ATOM      8  H   UNL     1      -3.330 -11.322  -1.057  1.00  0.00     0.165 HD
ENDROOT
BRANCH   1   9
ATOM      9  C   UNL     1      -1.396 -13.160  -5.877  1.00  0.00     0.040 A 
ATOM     10  C   UNL     1      -0.307 -12.953  -6.726  1.00  0.00     0.014 A 
ATOM     11  C   UNL     1      -0.093 -13.830  -7.790  1.00  0.00     0.004 A 
ATOM     12  C   UNL     1      -2.300 -14.199  -6.121  1.00  0.00     0.014 A 
ATOM     13  C   UNL     1      -0.966 -14.906  -8.013  1.00  0.00    -0.051 A 
ATOM     14  C   UNL     1      -2.079 -15.076  -7.181  1.00  0.00     0.004 A 
ATOM     15  C   UNL     1      -0.675 -15.889  -9.108  1.00  0.00     0.044 C 
ENDBRANCH   1   9
BRANCH   6  16
ATOM     16  C   UNL     1      -2.552 -10.172  -2.644  1.00  0.00     0.153 C 
BRANCH  16  17
ATOM     17  C   UNL     1      -1.868  -9.066  -1.890  1.00  0.00    -0.029 A 
ATOM     18  C   UNL     1      -2.563  -8.099  -1.156  1.00  0.00     0.006 A 
ATOM     19  C   UNL     1      -0.472  -9.146  -1.756  1.00  0.00     0.006 A 
ATOM     20  C   UNL     1      -1.870  -7.248  -0.288  1.00  0.00     0.004 A 
ATOM     21  C   UNL     1       0.214  -8.303  -0.888  1.00  0.00     0.004 A 
ATOM     22  C   UNL     1      -0.481  -7.353  -0.138  1.00  0.00    -0.051 A 
ATOM     23  C   UNL     1       0.248  -6.544   0.893  1.00  0.00     0.044 C 
ENDBRANCH  16  17
ENDBRANCH   6  16
TORSDOF 3
ENDMDL
MODEL 5
REMARK VINA RESULT:    -5.786      3.075      7.727
REMARK INTER + INTRA:          -7.188
REMARK INTER:                  -6.722
REMARK INTRA:                  -0.466
REMARK UNBOUND:                -0.387
REMARK SMILES Cc1ccc(CNC(=O)NC(=O)c2ccc(C)cc2)cc1
REMARK SMILES IDX 11 1 12 2 10 3 8 4 9 5 7 6 13 9 19 10 18 11 14 12 16 13
REMARK SMILES IDX 15 14 17 15 6 16 5 17 4 18 20 19 3 20 21 21 2 22 1 23
REMARK H PARENT 10 7 7 8
ROOT
ATOM      1  C   UNL     1      -2.835 -12.922  -1.228  1.00  0.00     0.259 C 
ATOM      2  O   UNL     1      -2.536 -12.050  -0.425  1.00  0.00    -0.269 OA
ATOM      3  N   UNL     1      -2.697 -12.915  -2.620  1.00  0.00    -0.274 N 
ATOM      4  C   UNL     1      -2.038 -12.176  -3.569  1.00  0.00     0.321 C 
ATOM      5  O   UNL     1      -2.062 -12.586  -4.734  1.00  0.00    -0.248 OA
ATOM      6  N   UNL     1      -1.350 -11.053  -3.292  1.00  0.00    -0.334 N 
ATOM      7  H   UNL     1      -3.037 -13.750  -3.077  1.00  0.00     0.175 HD
ATOM      8  H   UNL     1      -0.852 -10.675  -4.085  1.00  0.00     0.165 HD
ENDROOT
BRANCH   1   9
ATOM      9  C   UNL     1      -3.417 -14.160  -0.674  1.00  0.00     0.040 A 
ATOM     10  C   UNL     1      -4.495 -14.123   0.214  1.00  0.00     0.014 A 
ATOM     11  C   UNL     1      -5.045 -15.321   0.670  1.00  0.00     0.004 A 
ATOM     12  C   UNL     1      -2.854 -15.380  -1.058  1.00  0.00     0.014 A 
ATOM     13  C   UNL     1      -4.520 -16.552   0.250  1.00  0.00    -0.051 A 
ATOM     14  C   UNL     1      -3.411 -16.574  -0.605  1.00  0.00     0.004 A 
ATOM     15  C   UNL     1      -5.176 -17.831   0.682  1.00  0.00     0.044 C 
ENDBRANCH   1   9
BRANCH   6  16
ATOM     16  C   UNL     1      -1.112 -10.467  -2.003  1.00  0.00     0.153 C 
BRANCH  16  17
ATOM     17  C   UNL     1      -1.344  -8.988  -1.864  1.00  0.00    -0.029 A 
ATOM     18  C   UNL     1      -2.015  -8.419  -0.776  1.00  0.00     0.006 A 
ATOM     19  C   UNL     1      -0.672  -8.144  -2.763  1.00  0.00     0.006 A 
ATOM     20  C   UNL     1      -1.988  -7.034  -0.584  1.00  0.00     0.004 A 
ATOM     21  C   UNL     1      -0.642  -6.767  -2.568  1.00  0.00     0.004 A 
ATOM     22  C   UNL     1      -1.292  -6.200  -1.470  1.00  0.00    -0.051 A 
ATOM     23  C   UNL     1      -1.139  -4.735  -1.192  1.00  0.00     0.044 C 
ENDBRANCH  16  17
ENDBRANCH   6  16
TORSDOF 3
ENDMDL
MODEL 6
REMARK VINA RESULT:    -5.740      1.268      7.975
REMARK INTER + INTRA:          -7.134
REMARK INTER:                  -6.669
REMARK INTRA:                  -0.465
REMARK UNBOUND:                -0.387
REMARK SMILES Cc1ccc(CNC(=O)NC(=O)c2ccc(C)cc2)cc1
REMARK SMILES IDX 11 1 12 2 10 3 8 4 9 5 7 6 13 9 19 10 18 11 14 12 16 13
REMARK SMILES IDX 15 14 17 15 6 16 5 17 4 18 20 19 3 20 21 21 2 22 1 23
REMARK H PARENT 10 7 7 8
ROOT
ATOM      1  C   UNL     1      -1.667 -12.193  -4.919  1.00  0.00     0.259 C 
ATOM      2  O   UNL     1      -1.632 -11.007  -5.214  1.00  0.00    -0.269 OA
ATOM      3  N   UNL     1      -1.923 -12.778  -3.674  1.00  0.00    -0.274 N 
ATOM      4  C   UNL     1      -2.426 -12.393  -2.458  1.00  0.00     0.321 C 
ATOM      5  O   UNL     1      -2.625 -13.274  -1.615  1.00  0.00    -0.248 OA
ATOM      6  N   UNL     1      -2.740 -11.121  -2.151  1.00  0.00    -0.334 N 
ATOM      7  H   UNL     1      -1.876 -13.788  -3.671  1.00  0.00     0.175 HD
ATOM      8  H   UNL     1      -3.179 -11.017  -1.248  1.00  0.00     0.165 HD
ENDROOT
BRANCH   1   9
ATOM      9  C   UNL     1      -1.413 -13.154  -6.010  1.00  0.00     0.040 A 
ATOM     10  C   UNL     1      -0.303 -13.027  -6.847  1.00  0.00     0.014 A 
ATOM     11  C   UNL     1      -0.076 -13.990  -7.831  1.00  0.00     0.004 A 
ATOM     12  C   UNL     1      -2.323 -14.200  -6.189  1.00  0.00     0.014 A 
ATOM     13  C   UNL     1      -0.956 -15.072  -7.986  1.00  0.00    -0.051 A 
ATOM     14  C   UNL     1      -2.089 -15.163  -7.169  1.00  0.00     0.004 A 
ATOM     15  C   UNL     1      -0.652 -16.143  -8.992  1.00  0.00     0.044 C 
ENDBRANCH   1   9
BRANCH   6  16
ATOM     16  C   UNL     1      -2.684  -9.973  -3.012  1.00  0.00     0.153 C 
BRANCH  16  17
ATOM     17  C   UNL     1      -2.034  -8.732  -2.466  1.00  0.00    -0.029 A 
ATOM     18  C   UNL     1      -1.177  -7.925  -3.221  1.00  0.00     0.006 A 
ATOM     19  C   UNL     1      -2.482  -8.267  -1.219  1.00  0.00     0.006 A 
ATOM     20  C   UNL     1      -0.799  -6.666  -2.742  1.00  0.00     0.004 A 
ATOM     21  C   UNL     1      -2.109  -7.013  -0.746  1.00  0.00     0.004 A 
ATOM     22  C   UNL     1      -1.272  -6.196  -1.508  1.00  0.00    -0.051 A 
ATOM     23  C   UNL     1      -0.988  -4.796  -1.055  1.00  0.00     0.044 C 
ENDBRANCH  16  17
ENDBRANCH   6  16
TORSDOF 3
ENDMDL
MODEL 7
REMARK VINA RESULT:    -4.729      5.432     10.778
REMARK INTER + INTRA:          -5.945
REMARK INTER:                  -5.411
REMARK INTRA:                  -0.535
REMARK UNBOUND:                -0.387
REMARK SMILES Cc1ccc(CNC(=O)NC(=O)c2ccc(C)cc2)cc1
REMARK SMILES IDX 11 1 12 2 10 3 8 4 9 5 7 6 13 9 19 10 18 11 14 12 16 13
REMARK SMILES IDX 15 14 17 15 6 16 5 17 4 18 20 19 3 20 21 21 2 22 1 23
REMARK H PARENT 10 7 7 8
ROOT
ATOM      1  C   UNL     1       1.374 -17.615 -10.122  1.00  0.00     0.259 C 
ATOM      2  O   UNL     1       1.065 -17.846  -8.962  1.00  0.00    -0.269 OA
ATOM      3  N   UNL     1       0.621 -16.988 -11.120  1.00  0.00    -0.274 N 
ATOM      4  C   UNL     1      -0.518 -16.229 -11.204  1.00  0.00     0.321 C 
ATOM      5  O   UNL     1      -0.795 -15.730 -12.300  1.00  0.00    -0.248 OA
ATOM      6  N   UNL     1      -1.324 -15.978 -10.156  1.00  0.00    -0.334 N 
ATOM      7  H   UNL     1       1.085 -16.929 -12.017  1.00  0.00     0.175 HD
ATOM      8  H   UNL     1      -2.073 -15.333 -10.364  1.00  0.00     0.165 HD
ENDROOT
BRANCH   1   9
ATOM      9  C   UNL     1       2.722 -18.043 -10.545  1.00  0.00     0.040 A 
ATOM     10  C   UNL     1       2.940 -18.634 -11.791  1.00  0.00     0.014 A 
ATOM     11  C   UNL     1       4.240 -18.974 -12.167  1.00  0.00     0.004 A 
ATOM     12  C   UNL     1       3.782 -17.846  -9.655  1.00  0.00     0.014 A 
ATOM     13  C   UNL     1       5.318 -18.733 -11.303  1.00  0.00    -0.051 A 
ATOM     14  C   UNL     1       5.079 -18.182 -10.038  1.00  0.00     0.004 A 
ATOM     15  C   UNL     1       6.718 -19.026 -11.756  1.00  0.00     0.044 C 
ENDBRANCH   1   9
BRANCH   6  16
ATOM     16  C   UNL     1      -1.131 -16.372  -8.789  1.00  0.00     0.153 C 
BRANCH  16  17
ATOM     17  C   UNL     1      -1.113 -15.281  -7.754  1.00  0.00    -0.029 A 
ATOM     18  C   UNL     1      -0.171 -14.248  -7.749  1.00  0.00     0.006 A 
ATOM     19  C   UNL     1      -2.218 -15.196  -6.891  1.00  0.00     0.006 A 
ATOM     20  C   UNL     1      -0.351 -13.140  -6.913  1.00  0.00     0.004 A 
ATOM     21  C   UNL     1      -2.398 -14.092  -6.063  1.00  0.00     0.004 A 
ATOM     22  C   UNL     1      -1.470 -13.049  -6.075  1.00  0.00    -0.051 A 
ATOM     23  C   UNL     1      -1.743 -11.805  -5.284  1.00  0.00     0.044 C 
ENDBRANCH  16  17
ENDBRANCH   6  16
TORSDOF 3
ENDMDL
MODEL 8
REMARK VINA RESULT:    -4.570      2.148      3.780
REMARK INTER + INTRA:          -5.759
REMARK INTER:                  -5.324
REMARK INTRA:                  -0.435
REMARK UNBOUND:                -0.387
REMARK SMILES Cc1ccc(CNC(=O)NC(=O)c2ccc(C)cc2)cc1
REMARK SMILES IDX 11 1 12 2 10 3 8 4 9 5 7 6 13 9 19 10 18 11 14 12 16 13
REMARK SMILES IDX 15 14 17 15 6 16 5 17 4 18 20 19 3 20 21 21 2 22 1 23
REMARK H PARENT 10 7 7 8
ROOT
ATOM      1  C   UNL     1      -1.747 -12.474  -5.304  1.00  0.00     0.259 C 
ATOM      2  O   UNL     1      -1.071 -12.057  -6.234  1.00  0.00    -0.269 OA
ATOM      3  N   UNL     1      -2.453 -13.677  -5.206  1.00  0.00    -0.274 N 
ATOM      4  C   UNL     1      -2.511 -14.875  -5.870  1.00  0.00     0.321 C 
ATOM      5  O   UNL     1      -3.197 -15.774  -5.372  1.00  0.00    -0.248 OA
ATOM      6  N   UNL     1      -1.840 -15.128  -7.009  1.00  0.00    -0.334 N 
ATOM      7  H   UNL     1      -2.961 -13.792  -4.339  1.00  0.00     0.175 HD
ATOM      8  H   UNL     1      -1.920 -16.084  -7.324  1.00  0.00     0.165 HD
ENDROOT
BRANCH   1   9
ATOM      9  C   UNL     1      -1.839 -11.607  -4.113  1.00  0.00     0.040 A 
ATOM     10  C   UNL     1      -0.872 -11.648  -3.107  1.00  0.00     0.014 A 
ATOM     11  C   UNL     1      -0.973 -10.772  -2.026  1.00  0.00     0.004 A 
ATOM     12  C   UNL     1      -2.932 -10.740  -4.014  1.00  0.00     0.014 A 
ATOM     13  C   UNL     1      -2.038  -9.863  -1.943  1.00  0.00    -0.051 A 
ATOM     14  C   UNL     1      -3.025  -9.863  -2.936  1.00  0.00     0.004 A 
ATOM     15  C   UNL     1      -2.087  -8.870  -0.819  1.00  0.00     0.044 C 
ENDBRANCH   1   9
BRANCH   6  16
ATOM     16  C   UNL     1      -0.916 -14.266  -7.690  1.00  0.00     0.153 C 
BRANCH  16  17
ATOM     17  C   UNL     1       0.329 -14.896  -8.253  1.00  0.00    -0.029 A 
ATOM     18  C   UNL     1       1.426 -15.256  -7.463  1.00  0.00     0.006 A 
ATOM     19  C   UNL     1       0.285 -15.324  -9.589  1.00  0.00     0.006 A 
ATOM     20  C   UNL     1       2.444 -16.051  -8.000  1.00  0.00     0.004 A 
ATOM     21  C   UNL     1       1.296 -16.119 -10.121  1.00  0.00     0.004 A 
ATOM     22  C   UNL     1       2.380 -16.498  -9.327  1.00  0.00    -0.051 A 
ATOM     23  C   UNL     1       3.392 -17.464  -9.866  1.00  0.00     0.044 C 
ENDBRANCH  16  17
ENDBRANCH   6  16
TORSDOF 3
ENDMDL
