MODEL 1
REMARK VINA RESULT:    -4.019      0.000      0.000
REMARK INTER + INTRA:          -5.542
REMARK INTER:                  -5.312
REMARK INTRA:                  -0.230
REMARK UNBOUND:                -0.230
REMARK SMILES [H]/N=C\C[C@H]1C[C@@H]1O[C@H]1CO[C@H]2C[C@@H](C3CC3)CCN2C1
REMARK SMILES IDX 7 1 6 2 5 3 8 4 9 5 14 6 13 7 18 8 12 9 19 10 20 11 11 12
REMARK SMILES IDX 21 13 10 14 15 15 16 16 17 17 4 18 3 19 2 20 1 21
REMARK H PARENT
ROOT
ATOM      1  C   UNL     1       1.507   2.729  12.858  1.00  0.00     0.122 C 
ATOM      2  C   UNL     1       1.256   3.903  13.761  1.00  0.00     0.039 C 
ATOM      3  C   UNL     1       0.162   2.906  13.508  1.00  0.00     0.026 C 
ENDROOT
BRANCH   1   4
ATOM      4  O   UNL     1       1.598   3.072  11.461  1.00  0.00    -0.371 OA
BRANCH   4   5
ATOM      5  C   UNL     1       2.805   3.744  11.066  1.00  0.00     0.158 C 
ATOM      6  C   UNL     1       3.635   1.271   6.550  1.00  0.00    -0.003 C 
ATOM      7  C   UNL     1       3.740   0.908   8.036  1.00  0.00     0.052 C 
ATOM      8  C   UNL     1       2.499   2.285   6.354  1.00  0.00     0.019 C 
ATOM      9  C   UNL     1       3.856   2.157   8.921  1.00  0.00     0.189 C 
ATOM     10  C   UNL     1       2.655   3.486   7.286  1.00  0.00     0.087 C 
ATOM     11  N   UNL     1       2.728   3.057   8.683  1.00  0.00    -0.276 NA
ATOM     12  O   UNL     1       3.900   1.697  10.273  1.00  0.00    -0.360 OA
ATOM     13  C   UNL     1       2.790   4.203   9.597  1.00  0.00     0.121 C 
ATOM     14  C   UNL     1       3.971   2.763  11.225  1.00  0.00     0.195 C 
BRANCH   6  15
ATOM     15  C   UNL     1       3.407   0.046   5.694  1.00  0.00    -0.008 C 
ATOM     16  C   UNL     1       4.270  -0.211   4.481  1.00  0.00     0.004 C 
ATOM     17  C   UNL     1       4.401  -1.091   5.690  1.00  0.00     0.004 C 
ENDBRANCH   6  15
ENDBRANCH   4   5
ENDBRANCH   1   4
BRANCH   3  18
ATOM     18  C   UNL     1      -0.265   1.997  14.621  1.00  0.00     0.053 C 
BRANCH  18  19
ATOM     19  C   UNL     1      -0.599   2.660  15.932  1.00  0.00     0.074 C 
BRANCH  19  20
ATOM     20  N   UNL     1      -1.774   3.042  16.309  1.00  0.00    -0.313 NA
ATOM     21  H   UNL     1      -2.203   2.367  16.956  1.00  0.00     0.186 HD
ENDBRANCH  19  20
ENDBRANCH  18  19
ENDBRANCH   3  18
TORSDOF 6
ENDMDL
MODEL 2
REMARK VINA RESULT:    -3.942      3.286      5.509
REMARK INTER + INTRA:          -5.439
REMARK INTER:                  -5.212
REMARK INTRA:                  -0.227
REMARK UNBOUND:                -0.230
REMARK SMILES [H]/N=C\C[C@H]1C[C@@H]1O[C@H]1CO[C@H]2C[C@@H](C3CC3)CCN2C1
REMARK SMILES IDX 7 1 6 2 5 3 8 4 9 5 14 6 13 7 18 8 12 9 19 10 20 11 11 12
REMARK SMILES IDX 21 13 10 14 15 15 16 16 17 17 4 18 3 19 2 20 1 21
REMARK H PARENT
ROOT
ATOM      1  C   UNL     1       6.095   3.615  11.639  1.00  0.00     0.122 C 
ATOM      2  C   UNL     1       6.803   3.032  12.829  1.00  0.00     0.039 C 
ATOM      3  C   UNL     1       7.597   3.645  11.711  1.00  0.00     0.026 C 
ENDROOT
BRANCH   1   4
ATOM      4  O   UNL     1       5.511   2.631  10.763  1.00  0.00    -0.371 OA
BRANCH   4   5
ATOM      5  C   UNL     1       4.345   1.963  11.273  1.00  0.00     0.158 C 
ATOM      6  C   UNL     1       1.695   1.497   6.804  1.00  0.00    -0.003 C 
ATOM      7  C   UNL     1       2.055   2.647   7.753  1.00  0.00     0.052 C 
ATOM      8  C   UNL     1       2.824   0.456   6.818  1.00  0.00     0.019 C 
ATOM      9  C   UNL     1       2.419   2.137   9.154  1.00  0.00     0.189 C 
ATOM     10  C   UNL     1       3.161   0.016   8.242  1.00  0.00     0.087 C 
ATOM     11  N   UNL     1       3.510   1.166   9.076  1.00  0.00    -0.276 NA
ATOM     12  O   UNL     1       2.777   3.285   9.926  1.00  0.00    -0.360 OA
ATOM     13  C   UNL     1       3.921   0.752  10.423  1.00  0.00     0.121 C 
ATOM     14  C   UNL     1       3.181   2.959  11.260  1.00  0.00     0.195 C 
BRANCH   6  15
ATOM     15  C   UNL     1       1.449   1.994   5.398  1.00  0.00    -0.008 C 
ATOM     16  C   UNL     1       0.137   1.708   4.705  1.00  0.00     0.004 C 
ATOM     17  C   UNL     1       0.466   3.109   5.133  1.00  0.00     0.004 C 
ENDBRANCH   6  15
ENDBRANCH   4   5
ENDBRANCH   1   4
BRANCH   3  18
ATOM     18  C   UNL     1       8.316   4.938  11.954  1.00  0.00     0.053 C 
BRANCH  18  19
ATOM     19  C   UNL     1       9.108   5.029  13.233  1.00  0.00     0.074 C 
BRANCH  19  20
ATOM     20  N   UNL     1      10.393   4.952  13.335  1.00  0.00    -0.313 NA
ATOM     21  H   UNL     1      10.829   5.884  13.359  1.00  0.00     0.186 HD
ENDBRANCH  19  20
ENDBRANCH  18  19
ENDBRANCH   3  18
TORSDOF 6
ENDMDL
MODEL 3
REMARK VINA RESULT:    -3.908      5.197      8.431
REMARK INTER + INTRA:          -5.395
REMARK INTER:                  -5.251
REMARK INTRA:                  -0.143
REMARK UNBOUND:                -0.230
REMARK SMILES [H]/N=C\C[C@H]1C[C@@H]1O[C@H]1CO[C@H]2C[C@@H](C3CC3)CCN2C1
REMARK SMILES IDX 7 1 6 2 5 3 8 4 9 5 14 6 13 7 18 8 12 9 19 10 20 11 11 12
REMARK SMILES IDX 21 13 10 14 15 15 16 16 17 17 4 18 3 19 2 20 1 21
REMARK H PARENT
ROOT
ATOM      1  C   UNL     1       4.034   2.970  10.816  1.00  0.00     0.122 C 
ATOM      2  C   UNL     1       2.615   3.346  11.138  1.00  0.00     0.039 C 
ATOM      3  C   UNL     1       3.304   3.969   9.959  1.00  0.00     0.026 C 
ENDROOT
BRANCH   1   4
ATOM      4  O   UNL     1       5.005   3.500  11.738  1.00  0.00    -0.371 OA
BRANCH   4   5
ATOM      5  C   UNL     1       6.177   2.692  11.935  1.00  0.00     0.158 C 
ATOM      6  C   UNL     1       9.332   6.353  13.896  1.00  0.00    -0.003 C 
ATOM      7  C   UNL     1       8.744   6.035  12.516  1.00  0.00     0.052 C 
ATOM      8  C   UNL     1       8.334   5.931  14.983  1.00  0.00     0.019 C 
ATOM      9  C   UNL     1       8.289   4.572  12.414  1.00  0.00     0.189 C 
ATOM     10  C   UNL     1       7.896   4.477  14.805  1.00  0.00     0.087 C 
ATOM     11  N   UNL     1       7.330   4.261  13.474  1.00  0.00    -0.276 NA
ATOM     12  O   UNL     1       7.723   4.410  11.112  1.00  0.00    -0.360 OA
ATOM     13  C   UNL     1       6.825   2.892  13.317  1.00  0.00     0.121 C 
ATOM     14  C   UNL     1       7.215   3.092  10.882  1.00  0.00     0.195 C 
BRANCH   6  15
ATOM     15  C   UNL     1       9.672   7.820  14.029  1.00  0.00    -0.008 C 
ATOM     16  C   UNL     1      10.758   8.270  14.978  1.00  0.00     0.004 C 
ATOM     17  C   UNL     1      10.976   8.364  13.495  1.00  0.00     0.004 C 
ENDBRANCH   6  15
ENDBRANCH   4   5
ENDBRANCH   1   4
BRANCH   3  18
ATOM     18  C   UNL     1       2.859   3.595   8.576  1.00  0.00     0.053 C 
BRANCH  18  19
ATOM     19  C   UNL     1       2.545   4.738   7.646  1.00  0.00     0.074 C 
BRANCH  19  20
ATOM     20  N   UNL     1       2.428   5.979   7.984  1.00  0.00    -0.313 NA
ATOM     21  H   UNL     1       2.242   6.579   7.168  1.00  0.00     0.186 HD
ENDBRANCH  19  20
ENDBRANCH  18  19
ENDBRANCH   3  18
TORSDOF 6
ENDMDL
MODEL 4
REMARK VINA RESULT:    -3.758      1.489      1.764
REMARK INTER + INTRA:          -5.196
REMARK INTER:                  -5.357
REMARK INTRA:                   0.160
REMARK UNBOUND:                -0.230
REMARK SMILES [H]/N=C\C[C@H]1C[C@@H]1O[C@H]1CO[C@H]2C[C@@H](C3CC3)CCN2C1
REMARK SMILES IDX 7 1 6 2 5 3 8 4 9 5 14 6 13 7 18 8 12 9 19 10 20 11 11 12
REMARK SMILES IDX 21 13 10 14 15 15 16 16 17 17 4 18 3 19 2 20 1 21
REMARK H PARENT
ROOT
ATOM      1  C   UNL     1       0.938   3.685  12.372  1.00  0.00     0.122 C 
ATOM      2  C   UNL     1       0.302   2.729  13.342  1.00  0.00     0.039 C 
ATOM      3  C   UNL     1       1.474   3.563  13.772  1.00  0.00     0.026 C 
ENDROOT
BRANCH   1   4
ATOM      4  O   UNL     1       1.700   3.046  11.331  1.00  0.00    -0.371 OA
BRANCH   4   5
ATOM      5  C   UNL     1       2.896   3.733  10.928  1.00  0.00     0.158 C 
ATOM      6  C   UNL     1       3.702   1.301   6.385  1.00  0.00    -0.003 C 
ATOM      7  C   UNL     1       3.827   0.928   7.867  1.00  0.00     0.052 C 
ATOM      8  C   UNL     1       2.554   2.304   6.209  1.00  0.00     0.019 C 
ATOM      9  C   UNL     1       3.940   2.171   8.760  1.00  0.00     0.189 C 
ATOM     10  C   UNL     1       2.708   3.500   7.148  1.00  0.00     0.087 C 
ATOM     11  N   UNL     1       2.800   3.062   8.541  1.00  0.00    -0.276 NA
ATOM     12  O   UNL     1       4.003   1.702  10.108  1.00  0.00    -0.360 OA
ATOM     13  C   UNL     1       2.861   4.202   9.463  1.00  0.00     0.121 C 
ATOM     14  C   UNL     1       4.073   2.762  11.067  1.00  0.00     0.195 C 
BRANCH   6  15
ATOM     15  C   UNL     1       3.477   0.079   5.523  1.00  0.00    -0.008 C 
ATOM     16  C   UNL     1       4.439  -0.257   4.408  1.00  0.00     0.004 C 
ATOM     17  C   UNL     1       4.384  -1.123   5.632  1.00  0.00     0.004 C 
ENDBRANCH   6  15
ENDBRANCH   4   5
ENDBRANCH   1   4
BRANCH   3  18
ATOM     18  C   UNL     1       1.256   4.666  14.764  1.00  0.00     0.053 C 
BRANCH  18  19
ATOM     19  C   UNL     1       2.375   4.914  15.742  1.00  0.00     0.074 C 
BRANCH  19  20
ATOM     20  N   UNL     1       3.622   4.633  15.553  1.00  0.00    -0.313 NA
ATOM     21  H   UNL     1       4.137   5.436  15.165  1.00  0.00     0.186 HD
ENDBRANCH  19  20
ENDBRANCH  18  19
ENDBRANCH   3  18
TORSDOF 6
ENDMDL
MODEL 5
REMARK VINA RESULT:    -3.453      1.145      1.541
REMARK INTER + INTRA:          -4.793
REMARK INTER:                  -5.250
REMARK INTRA:                   0.457
REMARK UNBOUND:                -0.230
REMARK SMILES [H]/N=C\C[C@H]1C[C@@H]1O[C@H]1CO[C@H]2C[C@@H](C3CC3)CCN2C1
REMARK SMILES IDX 7 1 6 2 5 3 8 4 9 5 14 6 13 7 18 8 12 9 19 10 20 11 11 12
REMARK SMILES IDX 21 13 10 14 15 15 16 16 17 17 4 18 3 19 2 20 1 21
REMARK H PARENT
ROOT
ATOM      1  C   UNL     1       1.286   3.141  12.657  1.00  0.00     0.122 C 
ATOM      2  C   UNL     1      -0.198   3.104  12.419  1.00  0.00     0.039 C 
ATOM      3  C   UNL     1       0.378   2.481  13.659  1.00  0.00     0.026 C 
ENDROOT
BRANCH   1   4
ATOM      4  O   UNL     1       2.040   2.267  11.796  1.00  0.00    -0.371 OA
BRANCH   4   5
ATOM      5  C   UNL     1       3.367   2.712  11.470  1.00  0.00     0.158 C 
ATOM      6  C   UNL     1       2.980   2.584   6.270  1.00  0.00    -0.003 C 
ATOM      7  C   UNL     1       3.074   1.541   7.391  1.00  0.00     0.052 C 
ATOM      8  C   UNL     1       2.231   3.820   6.789  1.00  0.00     0.019 C 
ATOM      9  C   UNL     1       3.665   2.137   8.676  1.00  0.00     0.189 C 
ATOM     10  C   UNL     1       2.847   4.342   8.087  1.00  0.00     0.087 C 
ATOM     11  N   UNL     1       2.883   3.295   9.108  1.00  0.00    -0.276 NA
ATOM     12  O   UNL     1       3.659   1.092   9.651  1.00  0.00    -0.360 OA
ATOM     13  C   UNL     1       3.391   3.804  10.387  1.00  0.00     0.121 C 
ATOM     14  C   UNL     1       4.151   1.513  10.927  1.00  0.00     0.195 C 
BRANCH   6  15
ATOM     15  C   UNL     1       2.294   2.023   5.046  1.00  0.00    -0.008 C 
ATOM     16  C   UNL     1       2.335   0.540   4.760  1.00  0.00     0.004 C 
ATOM     17  C   UNL     1       1.044   1.186   5.175  1.00  0.00     0.004 C 
ENDBRANCH   6  15
ENDBRANCH   4   5
ENDBRANCH   1   4
BRANCH   3  18
ATOM     18  C   UNL     1       0.119   3.130  14.986  1.00  0.00     0.053 C 
BRANCH  18  19
ATOM     19  C   UNL     1      -0.927   2.478  15.853  1.00  0.00     0.074 C 
BRANCH  19  20
ATOM     20  N   UNL     1      -1.876   3.087  16.481  1.00  0.00    -0.313 NA
ATOM     21  H   UNL     1      -2.503   2.423  16.958  1.00  0.00     0.186 HD
ENDBRANCH  19  20
ENDBRANCH  18  19
ENDBRANCH   3  18
TORSDOF 6
ENDMDL
MODEL 6
REMARK VINA RESULT:    -3.321      6.915      8.385
REMARK INTER + INTRA:          -4.619
REMARK INTER:                  -5.227
REMARK INTRA:                   0.608
REMARK UNBOUND:                -0.230
REMARK SMILES [H]/N=C\C[C@H]1C[C@@H]1O[C@H]1CO[C@H]2C[C@@H](C3CC3)CCN2C1
REMARK SMILES IDX 7 1 6 2 5 3 8 4 9 5 14 6 13 7 18 8 12 9 19 10 20 11 11 12
REMARK SMILES IDX 21 13 10 14 15 15 16 16 17 17 4 18 3 19 2 20 1 21
REMARK H PARENT
ROOT
ATOM      1  C   UNL     1       8.021   7.569  16.251  1.00  0.00     0.122 C 
ATOM      2  C   UNL     1       7.461   8.462  17.322  1.00  0.00     0.039 C 
ATOM      3  C   UNL     1       8.698   7.655  17.591  1.00  0.00     0.026 C 
ENDROOT
BRANCH   1   4
ATOM      4  O   UNL     1       7.234   6.389  16.000  1.00  0.00    -0.371 OA
BRANCH   4   5
ATOM      5  C   UNL     1       7.949   5.144  16.059  1.00  0.00     0.158 C 
ATOM      6  C   UNL     1       6.045   2.942  11.731  1.00  0.00    -0.003 C 
ATOM      7  C   UNL     1       5.503   3.263  13.129  1.00  0.00     0.052 C 
ATOM      8  C   UNL     1       7.075   4.006  11.329  1.00  0.00     0.019 C 
ATOM      9  C   UNL     1       6.635   3.455  14.149  1.00  0.00     0.189 C 
ATOM     10  C   UNL     1       8.153   4.173  12.400  1.00  0.00     0.087 C 
ATOM     11  N   UNL     1       7.558   4.496  13.696  1.00  0.00    -0.276 NA
ATOM     12  O   UNL     1       6.013   3.793  15.390  1.00  0.00    -0.360 OA
ATOM     13  C   UNL     1       8.584   4.745  14.715  1.00  0.00     0.121 C 
ATOM     14  C   UNL     1       6.955   4.042  16.439  1.00  0.00     0.195 C 
BRANCH   6  15
ATOM     15  C   UNL     1       4.933   2.866  10.709  1.00  0.00    -0.008 C 
ATOM     16  C   UNL     1       4.051   1.643  10.629  1.00  0.00     0.004 C 
ATOM     17  C   UNL     1       3.486   2.939  11.134  1.00  0.00     0.004 C 
ENDBRANCH   6  15
ENDBRANCH   4   5
ENDBRANCH   1   4
BRANCH   3  18
ATOM     18  C   UNL     1      10.012   8.363  17.730  1.00  0.00     0.053 C 
BRANCH  18  19
ATOM     19  C   UNL     1      11.241   7.492  17.737  1.00  0.00     0.074 C 
BRANCH  19  20
ATOM     20  N   UNL     1      11.336   6.320  18.271  1.00  0.00    -0.313 NA
ATOM     21  H   UNL     1      11.975   6.321  19.079  1.00  0.00     0.186 HD
ENDBRANCH  19  20
ENDBRANCH  18  19
ENDBRANCH   3  18
TORSDOF 6
ENDMDL
MODEL 7
REMARK VINA RESULT:    -3.235      6.833      8.825
REMARK INTER + INTRA:          -4.505
REMARK INTER:                  -4.222
REMARK INTRA:                  -0.283
REMARK UNBOUND:                -0.230
REMARK SMILES [H]/N=C\C[C@H]1C[C@@H]1O[C@H]1CO[C@H]2C[C@@H](C3CC3)CCN2C1
REMARK SMILES IDX 7 1 6 2 5 3 8 4 9 5 14 6 13 7 18 8 12 9 19 10 20 11 11 12
REMARK SMILES IDX 21 13 10 14 15 15 16 16 17 17 4 18 3 19 2 20 1 21
REMARK H PARENT
ROOT
ATOM      1  C   UNL     1       3.073   4.759  16.324  1.00  0.00     0.122 C 
ATOM      2  C   UNL     1       2.321   5.909  15.715  1.00  0.00     0.039 C 
ATOM      3  C   UNL     1       1.930   4.497  15.382  1.00  0.00     0.026 C 
ENDROOT
BRANCH   1   4
ATOM      4  O   UNL     1       4.400   4.579  15.794  1.00  0.00    -0.371 OA
BRANCH   4   5
ATOM      5  C   UNL     1       5.397   4.170  16.745  1.00  0.00     0.158 C 
ATOM      6  C   UNL     1       9.217   7.423  15.321  1.00  0.00    -0.003 C 
ATOM      7  C   UNL     1       8.563   6.170  14.727  1.00  0.00     0.052 C 
ATOM      8  C   UNL     1       8.168   8.214  16.116  1.00  0.00     0.019 C 
ATOM      9  C   UNL     1       7.836   5.344  15.797  1.00  0.00     0.189 C 
ATOM     10  C   UNL     1       7.458   7.328  17.139  1.00  0.00     0.087 C 
ATOM     11  N   UNL     1       6.846   6.168  16.491  1.00  0.00    -0.276 NA
ATOM     12  O   UNL     1       7.234   4.239  15.121  1.00  0.00    -0.360 OA
ATOM     13  C   UNL     1       6.086   5.354  17.447  1.00  0.00     0.121 C 
ATOM     14  C   UNL     1       6.481   3.391  15.993  1.00  0.00     0.195 C 
BRANCH   6  15
ATOM     15  C   UNL     1       9.834   8.290  14.247  1.00  0.00    -0.008 C 
ATOM     16  C   UNL     1      11.243   8.811  14.401  1.00  0.00     0.004 C 
ATOM     17  C   UNL     1      10.943   7.763  13.369  1.00  0.00     0.004 C 
ENDBRANCH   6  15
ENDBRANCH   4   5
ENDBRANCH   1   4
BRANCH   3  18
ATOM     18  C   UNL     1       0.629   3.962  15.902  1.00  0.00     0.053 C 
BRANCH  18  19
ATOM     19  C   UNL     1      -0.034   2.897  15.068  1.00  0.00     0.074 C 
BRANCH  19  20
ATOM     20  N   UNL     1       0.163   2.689  13.809  1.00  0.00    -0.313 NA
ATOM     21  H   UNL     1       0.223   1.683  13.595  1.00  0.00     0.186 HD
ENDBRANCH  19  20
ENDBRANCH  18  19
ENDBRANCH   3  18
TORSDOF 6
ENDMDL
MODEL 8
REMARK VINA RESULT:    -2.966      5.491      8.086
REMARK INTER + INTRA:          -4.149
REMARK INTER:                  -4.098
REMARK INTRA:                  -0.051
REMARK UNBOUND:                -0.230
REMARK SMILES [H]/N=C\C[C@H]1C[C@@H]1O[C@H]1CO[C@H]2C[C@@H](C3CC3)CCN2C1
REMARK SMILES IDX 7 1 6 2 5 3 8 4 9 5 14 6 13 7 18 8 12 9 19 10 20 11 11 12
REMARK SMILES IDX 21 13 10 14 15 15 16 16 17 17 4 18 3 19 2 20 1 21
REMARK H PARENT
ROOT
ATOM      1  C   UNL     1       4.068   3.400  11.154  1.00  0.00     0.122 C 
ATOM      2  C   UNL     1       3.868   1.915  11.271  1.00  0.00     0.039 C 
ATOM      3  C   UNL     1       2.890   2.855  11.915  1.00  0.00     0.026 C 
ENDROOT
BRANCH   1   4
ATOM      4  O   UNL     1       5.163   3.908  11.939  1.00  0.00    -0.371 OA
BRANCH   4   5
ATOM      5  C   UNL     1       6.288   3.026  12.078  1.00  0.00     0.158 C 
ATOM      6  C   UNL     1       9.637   6.366  14.276  1.00  0.00    -0.003 C 
ATOM      7  C   UNL     1       9.034   6.175  12.879  1.00  0.00     0.052 C 
ATOM      8  C   UNL     1       8.617   5.925  15.334  1.00  0.00     0.019 C 
ATOM      9  C   UNL     1       8.500   4.751  12.678  1.00  0.00     0.189 C 
ATOM     10  C   UNL     1       8.100   4.513  15.058  1.00  0.00     0.087 C 
ATOM     11  N   UNL     1       7.524   4.420  13.717  1.00  0.00    -0.276 NA
ATOM     12  O   UNL     1       7.926   4.710  11.370  1.00  0.00    -0.360 OA
ATOM     13  C   UNL     1       6.945   3.095  13.468  1.00  0.00     0.121 C 
ATOM     14  C   UNL     1       7.348   3.440  11.052  1.00  0.00     0.195 C 
BRANCH   6  15
ATOM     15  C   UNL     1      10.057   7.800  14.508  1.00  0.00    -0.008 C 
ATOM     16  C   UNL     1      11.426   8.115  15.065  1.00  0.00     0.004 C 
ATOM     17  C   UNL     1      11.105   8.450  13.637  1.00  0.00     0.004 C 
ENDBRANCH   6  15
ENDBRANCH   4   5
ENDBRANCH   1   4
BRANCH   3  18
ATOM     18  C   UNL     1       1.506   2.966  11.347  1.00  0.00     0.053 C 
BRANCH  18  19
ATOM     19  C   UNL     1       0.377   2.990  12.344  1.00  0.00     0.074 C 
BRANCH  19  20
ATOM     20  N   UNL     1       0.304   2.285  13.423  1.00  0.00    -0.313 NA
ATOM     21  H   UNL     1      -0.610   2.391  13.885  1.00  0.00     0.186 HD
ENDBRANCH  19  20
ENDBRANCH  18  19
ENDBRANCH   3  18
TORSDOF 6
ENDMDL
MODEL 9
REMARK VINA RESULT:    -2.955      9.844     11.570
REMARK INTER + INTRA:          -4.135
REMARK INTER:                  -4.282
REMARK INTRA:                   0.147
REMARK UNBOUND:                -0.230
REMARK SMILES [H]/N=C\C[C@H]1C[C@@H]1O[C@H]1CO[C@H]2C[C@@H](C3CC3)CCN2C1
REMARK SMILES IDX 7 1 6 2 5 3 8 4 9 5 14 6 13 7 18 8 12 9 19 10 20 11 11 12
REMARK SMILES IDX 21 13 10 14 15 15 16 16 17 17 4 18 3 19 2 20 1 21
REMARK H PARENT
ROOT
ATOM      1  C   UNL     1      10.852   8.431  17.031  1.00  0.00     0.122 C 
ATOM      2  C   UNL     1       9.992   8.961  18.143  1.00  0.00     0.039 C 
ATOM      3  C   UNL     1      11.121   9.794  17.607  1.00  0.00     0.026 C 
ENDROOT
BRANCH   1   4
ATOM      4  O   UNL     1      11.745   7.374  17.431  1.00  0.00    -0.371 OA
BRANCH   4   5
ATOM      5  C   UNL     1      12.674   6.934  16.427  1.00  0.00     0.158 C 
ATOM      6  C   UNL     1       9.248   5.428  12.794  1.00  0.00    -0.003 C 
ATOM      7  C   UNL     1       9.709   4.896  14.156  1.00  0.00     0.052 C 
ATOM      8  C   UNL     1       9.319   6.962  12.798  1.00  0.00     0.019 C 
ATOM      9  C   UNL     1      11.081   5.458  14.553  1.00  0.00     0.189 C 
ATOM     10  C   UNL     1      10.698   7.456  13.234  1.00  0.00     0.087 C 
ATOM     11  N   UNL     1      11.055   6.921  14.548  1.00  0.00    -0.276 NA
ATOM     12  O   UNL     1      11.380   4.932  15.848  1.00  0.00    -0.360 OA
ATOM     13  C   UNL     1      12.337   7.455  15.019  1.00  0.00     0.121 C 
ATOM     14  C   UNL     1      12.625   5.404  16.371  1.00  0.00     0.195 C 
BRANCH   6  15
ATOM     15  C   UNL     1       7.849   4.962  12.461  1.00  0.00    -0.008 C 
ATOM     16  C   UNL     1       7.633   3.840  11.473  1.00  0.00     0.004 C 
ATOM     17  C   UNL     1       7.349   3.617  12.930  1.00  0.00     0.004 C 
ENDBRANCH   6  15
ENDBRANCH   4   5
ENDBRANCH   1   4
BRANCH   3  18
ATOM     18  C   UNL     1      10.802  11.026  16.814  1.00  0.00     0.053 C 
BRANCH  18  19
ATOM     19  C   UNL     1      11.976  11.752  16.211  1.00  0.00     0.074 C 
BRANCH  19  20
ATOM     20  N   UNL     1      13.118  11.229  15.913  1.00  0.00    -0.313 NA
ATOM     21  H   UNL     1      13.379  10.484  16.574  1.00  0.00     0.186 HD
ENDBRANCH  19  20
ENDBRANCH  18  19
ENDBRANCH   3  18
TORSDOF 6
ENDMDL
