MODEL 1
REMARK VINA RESULT:    -6.097      0.000      0.000
REMARK INTER + INTRA:          -7.533
REMARK INTER:                  -7.167
REMARK INTRA:                  -0.366
REMARK UNBOUND:                -0.366
REMARK SMILES Cc1ccc(CNC(=O)NC(=O)c2ccc(C)cc2)cc1
REMARK SMILES IDX 11 1 12 2 10 3 8 4 9 5 7 6 13 9 19 10 18 11 14 12 16 13
REMARK SMILES IDX 15 14 17 15 6 16 5 17 4 18 20 19 3 20 21 21 2 22 1 23
REMARK H PARENT 10 7 7 8
ROOT
ATOM      1  C   UNL     1       0.375   7.182  -9.442  1.00  0.00     0.259 C 
ATOM      2  O   UNL     1      -0.808   7.046  -9.723  1.00  0.00    -0.269 OA
ATOM      3  N   UNL     1       1.356   7.914 -10.117  1.00  0.00    -0.274 N 
ATOM      4  C   UNL     1       1.410   8.876 -11.094  1.00  0.00     0.321 C 
ATOM      5  O   UNL     1       2.509   9.389 -11.333  1.00  0.00    -0.248 OA
ATOM      6  N   UNL     1       0.332   9.305 -11.776  1.00  0.00    -0.334 N 
ATOM      7  H   UNL     1       2.277   7.859  -9.703  1.00  0.00     0.175 HD
ATOM      8  H   UNL     1       0.526  10.076 -12.399  1.00  0.00     0.165 HD
ENDROOT
BRANCH   1   9
ATOM      9  C   UNL     1       0.849   6.491  -8.227  1.00  0.00     0.040 A 
ATOM     10  C   UNL     1       1.542   5.281  -8.301  1.00  0.00     0.014 A 
ATOM     11  C   UNL     1       2.016   4.692  -7.129  1.00  0.00     0.004 A 
ATOM     12  C   UNL     1       0.578   7.080  -6.989  1.00  0.00     0.014 A 
ATOM     13  C   UNL     1       1.795   5.302  -5.885  1.00  0.00    -0.051 A 
ATOM     14  C   UNL     1       1.059   6.492  -5.821  1.00  0.00     0.004 A 
ATOM     15  C   UNL     1       2.384   4.701  -4.643  1.00  0.00     0.044 C 
ENDBRANCH   1   9
BRANCH   6  16
ATOM     16  C   UNL     1      -1.037   8.920 -11.584  1.00  0.00     0.153 C 
BRANCH  16  17
ATOM     17  C   UNL     1      -2.094   9.814 -12.169  1.00  0.00    -0.029 A 
ATOM     18  C   UNL     1      -3.149  10.342 -11.417  1.00  0.00     0.006 A 
ATOM     19  C   UNL     1      -1.880  10.298 -13.470  1.00  0.00     0.006 A 
ATOM     20  C   UNL     1      -3.955  11.351 -11.954  1.00  0.00     0.004 A 
ATOM     21  C   UNL     1      -2.679  11.305 -14.001  1.00  0.00     0.004 A 
ATOM     22  C   UNL     1      -3.718  11.848 -13.243  1.00  0.00    -0.051 A 
ATOM     23  C   UNL     1      -4.484  13.025 -13.770  1.00  0.00     0.044 C 
ENDBRANCH  16  17
ENDBRANCH   6  16
TORSDOF 3
ENDMDL
MODEL 2
REMARK VINA RESULT:    -6.090      0.525      8.089
REMARK INTER + INTRA:          -7.524
REMARK INTER:                  -7.053
REMARK INTRA:                  -0.471
REMARK UNBOUND:                -0.366
REMARK SMILES Cc1ccc(CNC(=O)NC(=O)c2ccc(C)cc2)cc1
REMARK SMILES IDX 11 1 12 2 10 3 8 4 9 5 7 6 13 9 19 10 18 11 14 12 16 13
REMARK SMILES IDX 15 14 17 15 6 16 5 17 4 18 20 19 3 20 21 21 2 22 1 23
REMARK H PARENT 10 7 7 8
ROOT
ATOM      1  C   UNL     1      -1.105   9.062 -11.238  1.00  0.00     0.259 C 
ATOM      2  O   UNL     1      -1.612   8.198 -10.537  1.00  0.00    -0.269 OA
ATOM      3  N   UNL     1       0.250   9.348 -11.432  1.00  0.00    -0.274 N 
ATOM      4  C   UNL     1       1.458   8.746 -11.187  1.00  0.00     0.321 C 
ATOM      5  O   UNL     1       2.471   9.283 -11.649  1.00  0.00    -0.248 OA
ATOM      6  N   UNL     1       1.591   7.595 -10.502  1.00  0.00    -0.334 N 
ATOM      7  H   UNL     1       0.427  10.130 -12.048  1.00  0.00     0.175 HD
ATOM      8  H   UNL     1       2.536   7.239 -10.483  1.00  0.00     0.165 HD
ENDROOT
BRANCH   1   9
ATOM      9  C   UNL     1      -2.031   9.927 -11.993  1.00  0.00     0.040 A 
ATOM     10  C   UNL     1      -3.196  10.430 -11.411  1.00  0.00     0.014 A 
ATOM     11  C   UNL     1      -4.013  11.287 -12.148  1.00  0.00     0.004 A 
ATOM     12  C   UNL     1      -1.713  10.228 -13.321  1.00  0.00     0.014 A 
ATOM     13  C   UNL     1      -3.676  11.637 -13.464  1.00  0.00    -0.051 A 
ATOM     14  C   UNL     1      -2.529  11.090 -14.051  1.00  0.00     0.004 A 
ATOM     15  C   UNL     1      -4.520  12.626 -14.213  1.00  0.00     0.044 C 
ENDBRANCH   1   9
BRANCH   6  16
ATOM     16  C   UNL     1       0.546   6.763  -9.976  1.00  0.00     0.153 C 
BRANCH  16  17
ATOM     17  C   UNL     1       0.765   6.156  -8.618  1.00  0.00    -0.029 A 
ATOM     18  C   UNL     1       1.347   4.898  -8.430  1.00  0.00     0.006 A 
ATOM     19  C   UNL     1       0.566   6.985  -7.502  1.00  0.00     0.006 A 
ATOM     20  C   UNL     1       1.743   4.494  -7.150  1.00  0.00     0.004 A 
ATOM     21  C   UNL     1       0.964   6.584  -6.231  1.00  0.00     0.004 A 
ATOM     22  C   UNL     1       1.566   5.339  -6.045  1.00  0.00    -0.051 A 
ATOM     23  C   UNL     1       2.115   4.974  -4.699  1.00  0.00     0.044 C 
ENDBRANCH  16  17
ENDBRANCH   6  16
TORSDOF 3
ENDMDL
MODEL 3
REMARK VINA RESULT:    -6.079      3.168      7.333
REMARK INTER + INTRA:          -7.512
REMARK INTER:                  -7.040
REMARK INTRA:                  -0.472
REMARK UNBOUND:                -0.366
REMARK SMILES Cc1ccc(CNC(=O)NC(=O)c2ccc(C)cc2)cc1
REMARK SMILES IDX 11 1 12 2 10 3 8 4 9 5 7 6 13 9 19 10 18 11 14 12 16 13
REMARK SMILES IDX 15 14 17 15 6 16 5 17 4 18 20 19 3 20 21 21 2 22 1 23
REMARK H PARENT 10 7 7 8
ROOT
ATOM      1  C   UNL     1       2.602   8.785 -11.177  1.00  0.00     0.259 C 
ATOM      2  O   UNL     1       2.946   7.990 -10.313  1.00  0.00    -0.269 OA
ATOM      3  N   UNL     1       1.309   9.129 -11.584  1.00  0.00    -0.274 N 
ATOM      4  C   UNL     1       0.026   8.974 -11.124  1.00  0.00     0.321 C 
ATOM      5  O   UNL     1      -0.875   9.564 -11.729  1.00  0.00    -0.248 OA
ATOM      6  N   UNL     1      -0.292   8.243 -10.039  1.00  0.00    -0.334 N 
ATOM      7  H   UNL     1       1.275   9.801 -12.339  1.00  0.00     0.175 HD
ATOM      8  H   UNL     1      -1.267   8.300  -9.782  1.00  0.00     0.165 HD
ENDROOT
BRANCH   1   9
ATOM      9  C   UNL     1       3.681   9.490 -11.894  1.00  0.00     0.040 A 
ATOM     10  C   UNL     1       4.830   8.820 -12.320  1.00  0.00     0.014 A 
ATOM     11  C   UNL     1       5.800   9.518 -13.041  1.00  0.00     0.004 A 
ATOM     12  C   UNL     1       3.527  10.859 -12.132  1.00  0.00     0.014 A 
ATOM     13  C   UNL     1       5.630  10.880 -13.330  1.00  0.00    -0.051 A 
ATOM     14  C   UNL     1       4.495  11.550 -12.857  1.00  0.00     0.004 A 
ATOM     15  C   UNL     1       6.641  11.595 -14.178  1.00  0.00     0.044 C 
ENDBRANCH   1   9
BRANCH   6  16
ATOM     16  C   UNL     1       0.605   7.570  -9.143  1.00  0.00     0.153 C 
BRANCH  16  17
ATOM     17  C   UNL     1       0.198   6.207  -8.655  1.00  0.00    -0.029 A 
ATOM     18  C   UNL     1      -0.531   6.003  -7.479  1.00  0.00     0.006 A 
ATOM     19  C   UNL     1       0.384   5.127  -9.534  1.00  0.00     0.006 A 
ATOM     20  C   UNL     1      -1.083   4.747  -7.206  1.00  0.00     0.004 A 
ATOM     21  C   UNL     1      -0.170   3.880  -9.264  1.00  0.00     0.004 A 
ATOM     22  C   UNL     1      -0.917   3.681  -8.102  1.00  0.00    -0.051 A 
ATOM     23  C   UNL     1      -1.623   2.376  -7.887  1.00  0.00     0.044 C 
ENDBRANCH  16  17
ENDBRANCH   6  16
TORSDOF 3
ENDMDL
MODEL 4
REMARK VINA RESULT:    -6.074      3.269      5.550
REMARK INTER + INTRA:          -7.505
REMARK INTER:                  -7.135
REMARK INTRA:                  -0.370
REMARK UNBOUND:                -0.366
REMARK SMILES Cc1ccc(CNC(=O)NC(=O)c2ccc(C)cc2)cc1
REMARK SMILES IDX 11 1 12 2 10 3 8 4 9 5 7 6 13 9 19 10 18 11 14 12 16 13
REMARK SMILES IDX 15 14 17 15 6 16 5 17 4 18 20 19 3 20 21 21 2 22 1 23
REMARK H PARENT 10 7 7 8
ROOT
ATOM      1  C   UNL     1       0.760   7.042  -9.572  1.00  0.00     0.259 C 
ATOM      2  O   UNL     1       1.937   7.208  -9.286  1.00  0.00    -0.269 OA
ATOM      3  N   UNL     1      -0.068   7.841 -10.367  1.00  0.00    -0.274 N 
ATOM      4  C   UNL     1       0.073   8.868 -11.264  1.00  0.00     0.321 C 
ATOM      5  O   UNL     1      -0.934   9.232 -11.882  1.00  0.00    -0.248 OA
ATOM      6  N   UNL     1       1.246   9.473 -11.525  1.00  0.00    -0.334 N 
ATOM      7  H   UNL     1      -1.021   7.509 -10.442  1.00  0.00     0.175 HD
ATOM      8  H   UNL     1       1.198  10.150 -12.272  1.00  0.00     0.165 HD
ENDROOT
BRANCH   1   9
ATOM      9  C   UNL     1       0.108   5.840  -9.017  1.00  0.00     0.040 A 
ATOM     10  C   UNL     1      -0.685   5.906  -7.870  1.00  0.00     0.014 A 
ATOM     11  C   UNL     1      -1.324   4.752  -7.414  1.00  0.00     0.004 A 
ATOM     12  C   UNL     1       0.313   4.621  -9.672  1.00  0.00     0.014 A 
ATOM     13  C   UNL     1      -1.167   3.535  -8.093  1.00  0.00    -0.051 A 
ATOM     14  C   UNL     1      -0.332   3.473  -9.216  1.00  0.00     0.004 A 
ATOM     15  C   UNL     1      -1.927   2.323  -7.640  1.00  0.00     0.044 C 
ENDBRANCH   1   9
BRANCH   6  16
ATOM     16  C   UNL     1       2.540   9.138 -11.000  1.00  0.00     0.153 C 
BRANCH  16  17
ATOM     17  C   UNL     1       3.741   9.628 -11.760  1.00  0.00    -0.029 A 
ATOM     18  C   UNL     1       4.730   8.773 -12.259  1.00  0.00     0.006 A 
ATOM     19  C   UNL     1       3.745  10.975 -12.157  1.00  0.00     0.006 A 
ATOM     20  C   UNL     1       5.686   9.258 -13.157  1.00  0.00     0.004 A 
ATOM     21  C   UNL     1       4.694  11.455 -13.054  1.00  0.00     0.004 A 
ATOM     22  C   UNL     1       5.668  10.598 -13.570  1.00  0.00    -0.051 A 
ATOM     23  C   UNL     1       6.598  11.089 -14.638  1.00  0.00     0.044 C 
ENDBRANCH  16  17
ENDBRANCH   6  16
TORSDOF 3
ENDMDL
MODEL 5
REMARK VINA RESULT:    -5.844      0.984      8.002
REMARK INTER + INTRA:          -7.235
REMARK INTER:                  -6.761
REMARK INTRA:                  -0.474
REMARK UNBOUND:                -0.366
REMARK SMILES Cc1ccc(CNC(=O)NC(=O)c2ccc(C)cc2)cc1
REMARK SMILES IDX 11 1 12 2 10 3 8 4 9 5 7 6 13 9 19 10 18 11 14 12 16 13
REMARK SMILES IDX 15 14 17 15 6 16 5 17 4 18 20 19 3 20 21 21 2 22 1 23
REMARK H PARENT 10 7 7 8
ROOT
ATOM      1  C   UNL     1      -1.297   9.140 -11.590  1.00  0.00     0.259 C 
ATOM      2  O   UNL     1      -1.841   8.144 -11.134  1.00  0.00    -0.269 OA
ATOM      3  N   UNL     1       0.059   9.482 -11.574  1.00  0.00    -0.274 N 
ATOM      4  C   UNL     1       1.257   8.864 -11.323  1.00  0.00     0.321 C 
ATOM      5  O   UNL     1       2.291   9.500 -11.555  1.00  0.00    -0.248 OA
ATOM      6  N   UNL     1       1.362   7.600 -10.870  1.00  0.00    -0.334 N 
ATOM      7  H   UNL     1       0.269  10.376 -11.998  1.00  0.00     0.175 HD
ATOM      8  H   UNL     1       2.313   7.265 -10.819  1.00  0.00     0.165 HD
ENDROOT
BRANCH   1   9
ATOM      9  C   UNL     1      -2.172  10.125 -12.254  1.00  0.00     0.040 A 
ATOM     10  C   UNL     1      -1.964  10.505 -13.581  1.00  0.00     0.014 A 
ATOM     11  C   UNL     1      -2.849  11.400 -14.183  1.00  0.00     0.004 A 
ATOM     12  C   UNL     1      -3.221  10.677 -11.513  1.00  0.00     0.014 A 
ATOM     13  C   UNL     1      -3.935  11.920 -13.464  1.00  0.00    -0.051 A 
ATOM     14  C   UNL     1      -4.107  11.565 -12.120  1.00  0.00     0.004 A 
ATOM     15  C   UNL     1      -4.926  12.814 -14.149  1.00  0.00     0.044 C 
ENDBRANCH   1   9
BRANCH   6  16
ATOM     16  C   UNL     1       0.301   6.662 -10.637  1.00  0.00     0.153 C 
BRANCH  16  17
ATOM     17  C   UNL     1       0.313   5.917  -9.331  1.00  0.00    -0.029 A 
ATOM     18  C   UNL     1       0.339   4.521  -9.249  1.00  0.00     0.006 A 
ATOM     19  C   UNL     1       0.518   6.670  -8.163  1.00  0.00     0.006 A 
ATOM     20  C   UNL     1       0.591   3.897  -8.023  1.00  0.00     0.004 A 
ATOM     21  C   UNL     1       0.773   6.047  -6.946  1.00  0.00     0.004 A 
ATOM     22  C   UNL     1       0.823   4.655  -6.867  1.00  0.00    -0.051 A 
ATOM     23  C   UNL     1       1.234   3.998  -5.583  1.00  0.00     0.044 C 
ENDBRANCH  16  17
ENDBRANCH   6  16
TORSDOF 3
ENDMDL
MODEL 6
REMARK VINA RESULT:    -5.816      1.196      8.049
REMARK INTER + INTRA:          -7.203
REMARK INTER:                  -6.800
REMARK INTRA:                  -0.403
REMARK UNBOUND:                -0.366
REMARK SMILES Cc1ccc(CNC(=O)NC(=O)c2ccc(C)cc2)cc1
REMARK SMILES IDX 11 1 12 2 10 3 8 4 9 5 7 6 13 9 19 10 18 11 14 12 16 13
REMARK SMILES IDX 15 14 17 15 6 16 5 17 4 18 20 19 3 20 21 21 2 22 1 23
REMARK H PARENT 10 7 7 8
ROOT
ATOM      1  C   UNL     1      -1.324   9.105 -11.507  1.00  0.00     0.259 C 
ATOM      2  O   UNL     1      -1.853   8.125 -11.000  1.00  0.00    -0.269 OA
ATOM      3  N   UNL     1       0.028   9.461 -11.521  1.00  0.00    -0.274 N 
ATOM      4  C   UNL     1       1.235   8.868 -11.254  1.00  0.00     0.321 C 
ATOM      5  O   UNL     1       2.259   9.504 -11.526  1.00  0.00    -0.248 OA
ATOM      6  N   UNL     1       1.358   7.629 -10.744  1.00  0.00    -0.334 N 
ATOM      7  H   UNL     1       0.223  10.337 -11.989  1.00  0.00     0.175 HD
ATOM      8  H   UNL     1       2.313   7.305 -10.687  1.00  0.00     0.165 HD
ENDROOT
BRANCH   1   9
ATOM      9  C   UNL     1      -2.217  10.048 -12.208  1.00  0.00     0.040 A 
ATOM     10  C   UNL     1      -3.337  10.594 -11.578  1.00  0.00     0.014 A 
ATOM     11  C   UNL     1      -4.122  11.522 -12.264  1.00  0.00     0.004 A 
ATOM     12  C   UNL     1      -1.914  10.379 -13.532  1.00  0.00     0.014 A 
ATOM     13  C   UNL     1      -3.796  11.900 -13.575  1.00  0.00    -0.051 A 
ATOM     14  C   UNL     1      -2.696  11.311 -14.210  1.00  0.00     0.004 A 
ATOM     15  C   UNL     1      -4.600  12.961 -14.268  1.00  0.00     0.044 C 
ENDBRANCH   1   9
BRANCH   6  16
ATOM     16  C   UNL     1       0.310   6.691 -10.456  1.00  0.00     0.153 C 
BRANCH  16  17
ATOM     17  C   UNL     1       0.477   5.820  -9.243  1.00  0.00    -0.029 A 
ATOM     18  C   UNL     1       0.636   6.332  -7.951  1.00  0.00     0.006 A 
ATOM     19  C   UNL     1       0.250   4.443  -9.404  1.00  0.00     0.006 A 
ATOM     20  C   UNL     1       0.545   5.481  -6.844  1.00  0.00     0.004 A 
ATOM     21  C   UNL     1       0.155   3.599  -8.302  1.00  0.00     0.004 A 
ATOM     22  C   UNL     1       0.291   4.113  -7.011  1.00  0.00    -0.051 A 
ATOM     23  C   UNL     1       0.050   3.222  -5.829  1.00  0.00     0.044 C 
ENDBRANCH  16  17
ENDBRANCH   6  16
TORSDOF 3
ENDMDL
MODEL 7
REMARK VINA RESULT:    -4.591      4.789      7.191
REMARK INTER + INTRA:          -5.762
REMARK INTER:                  -5.314
REMARK INTRA:                  -0.448
REMARK UNBOUND:                -0.366
REMARK SMILES Cc1ccc(CNC(=O)NC(=O)c2ccc(C)cc2)cc1
REMARK SMILES IDX 11 1 12 2 10 3 8 4 9 5 7 6 13 9 19 10 18 11 14 12 16 13
REMARK SMILES IDX 15 14 17 15 6 16 5 17 4 18 20 19 3 20 21 21 2 22 1 23
REMARK H PARENT 10 7 7 8
ROOT
ATOM      1  C   UNL     1       2.991   9.194 -11.240  1.00  0.00     0.259 C 
ATOM      2  O   UNL     1       4.152   8.822 -11.145  1.00  0.00    -0.269 OA
ATOM      3  N   UNL     1       2.482  10.314 -11.903  1.00  0.00    -0.274 N 
ATOM      4  C   UNL     1       2.919  11.232 -12.824  1.00  0.00     0.321 C 
ATOM      5  O   UNL     1       2.089  12.027 -13.280  1.00  0.00    -0.248 OA
ATOM      6  N   UNL     1       4.186  11.290 -13.274  1.00  0.00    -0.334 N 
ATOM      7  H   UNL     1       1.480  10.427 -11.823  1.00  0.00     0.175 HD
ATOM      8  H   UNL     1       4.325  11.965 -14.012  1.00  0.00     0.165 HD
ENDROOT
BRANCH   1   9
ATOM      9  C   UNL     1       1.974   8.357 -10.575  1.00  0.00     0.040 A 
ATOM     10  C   UNL     1       1.276   7.368 -11.272  1.00  0.00     0.014 A 
ATOM     11  C   UNL     1       0.361   6.566 -10.588  1.00  0.00     0.004 A 
ATOM     12  C   UNL     1       1.718   8.586  -9.220  1.00  0.00     0.014 A 
ATOM     13  C   UNL     1       0.136   6.754  -9.216  1.00  0.00    -0.051 A 
ATOM     14  C   UNL     1       0.808   7.779  -8.540  1.00  0.00     0.004 A 
ATOM     15  C   UNL     1      -0.787   5.830  -8.478  1.00  0.00     0.044 C 
ENDBRANCH   1   9
BRANCH   6  16
ATOM     16  C   UNL     1       5.269  10.403 -12.956  1.00  0.00     0.153 C 
BRANCH  16  17
ATOM     17  C   UNL     1       6.123   9.921 -14.096  1.00  0.00    -0.029 A 
ATOM     18  C   UNL     1       5.636   9.105 -15.122  1.00  0.00     0.006 A 
ATOM     19  C   UNL     1       7.399  10.492 -14.231  1.00  0.00     0.006 A 
ATOM     20  C   UNL     1       6.406   8.890 -16.271  1.00  0.00     0.004 A 
ATOM     21  C   UNL     1       8.161  10.282 -15.375  1.00  0.00     0.004 A 
ATOM     22  C   UNL     1       7.667   9.487 -16.410  1.00  0.00    -0.051 A 
ATOM     23  C   UNL     1       8.434   9.378 -17.694  1.00  0.00     0.044 C 
ENDBRANCH  16  17
ENDBRANCH   6  16
TORSDOF 3
ENDMDL
MODEL 8
REMARK VINA RESULT:    -4.582      2.196      3.831
REMARK INTER + INTRA:          -5.752
REMARK INTER:                  -5.299
REMARK INTRA:                  -0.453
REMARK UNBOUND:                -0.366
REMARK SMILES Cc1ccc(CNC(=O)NC(=O)c2ccc(C)cc2)cc1
REMARK SMILES IDX 11 1 12 2 10 3 8 4 9 5 7 6 13 9 19 10 18 11 14 12 16 13
REMARK SMILES IDX 15 14 17 15 6 16 5 17 4 18 20 19 3 20 21 21 2 22 1 23
REMARK H PARENT 10 7 7 8
ROOT
ATOM      1  C   UNL     1      -1.417   9.180 -11.709  1.00  0.00     0.259 C 
ATOM      2  O   UNL     1      -2.618   9.171 -11.474  1.00  0.00    -0.269 OA
ATOM      3  N   UNL     1      -0.727   9.866 -12.713  1.00  0.00    -0.274 N 
ATOM      4  C   UNL     1      -0.973  10.884 -13.598  1.00  0.00     0.321 C 
ATOM      5  O   UNL     1      -0.021  11.311 -14.260  1.00  0.00    -0.248 OA
ATOM      6  N   UNL     1      -2.181  11.455 -13.758  1.00  0.00    -0.334 N 
ATOM      7  H   UNL     1       0.271   9.699 -12.722  1.00  0.00     0.175 HD
ATOM      8  H   UNL     1      -2.177  12.247 -14.385  1.00  0.00     0.165 HD
ENDROOT
BRANCH   1   9
ATOM      9  C   UNL     1      -0.565   8.367 -10.820  1.00  0.00     0.040 A 
ATOM     10  C   UNL     1       0.081   8.928  -9.717  1.00  0.00     0.014 A 
ATOM     11  C   UNL     1       0.834   8.108  -8.876  1.00  0.00     0.004 A 
ATOM     12  C   UNL     1      -0.413   7.009 -11.118  1.00  0.00     0.014 A 
ATOM     13  C   UNL     1       0.950   6.734  -9.137  1.00  0.00    -0.051 A 
ATOM     14  C   UNL     1       0.335   6.193 -10.272  1.00  0.00     0.004 A 
ATOM     15  C   UNL     1       1.693   5.852  -8.177  1.00  0.00     0.044 C 
ENDBRANCH   1   9
BRANCH   6  16
ATOM     16  C   UNL     1      -3.383  11.182 -13.022  1.00  0.00     0.153 C 
BRANCH  16  17
ATOM     17  C   UNL     1      -4.176  12.363 -12.534  1.00  0.00    -0.029 A 
ATOM     18  C   UNL     1      -3.692  13.266 -11.581  1.00  0.00     0.006 A 
ATOM     19  C   UNL     1      -5.358  12.675 -13.226  1.00  0.00     0.006 A 
ATOM     20  C   UNL     1      -4.370  14.467 -11.348  1.00  0.00     0.004 A 
ATOM     21  C   UNL     1      -6.028  13.872 -12.996  1.00  0.00     0.004 A 
ATOM     22  C   UNL     1      -5.534  14.784 -12.062  1.00  0.00    -0.051 A 
ATOM     23  C   UNL     1      -6.184  16.128 -11.922  1.00  0.00     0.044 C 
ENDBRANCH  16  17
ENDBRANCH   6  16
TORSDOF 3
ENDMDL
MODEL 9
REMARK VINA RESULT:    -4.490      2.537      3.953
REMARK INTER + INTRA:          -5.643
REMARK INTER:                  -5.291
REMARK INTRA:                  -0.353
REMARK UNBOUND:                -0.366
REMARK SMILES Cc1ccc(CNC(=O)NC(=O)c2ccc(C)cc2)cc1
REMARK SMILES IDX 11 1 12 2 10 3 8 4 9 5 7 6 13 9 19 10 18 11 14 12 16 13
REMARK SMILES IDX 15 14 17 15 6 16 5 17 4 18 20 19 3 20 21 21 2 22 1 23
REMARK H PARENT 10 7 7 8
ROOT
ATOM      1  C   UNL     1      -0.365   8.865 -11.197  1.00  0.00     0.259 C 
ATOM      2  O   UNL     1       0.476   9.419 -11.891  1.00  0.00    -0.269 OA
ATOM      3  N   UNL     1      -1.745   9.089 -11.147  1.00  0.00    -0.274 N 
ATOM      4  C   UNL     1      -2.694   9.733 -11.898  1.00  0.00     0.321 C 
ATOM      5  O   UNL     1      -3.878   9.582 -11.577  1.00  0.00    -0.248 OA
ATOM      6  N   UNL     1      -2.406  10.487 -12.975  1.00  0.00    -0.334 N 
ATOM      7  H   UNL     1      -2.236   8.518 -10.472  1.00  0.00     0.175 HD
ATOM      8  H   UNL     1      -3.222  10.820 -13.468  1.00  0.00     0.165 HD
ENDROOT
BRANCH   1   9
ATOM      9  C   UNL     1       0.121   7.812 -10.285  1.00  0.00     0.040 A 
ATOM     10  C   UNL     1       0.577   8.114  -9.001  1.00  0.00     0.014 A 
ATOM     11  C   UNL     1       0.978   7.079  -8.156  1.00  0.00     0.004 A 
ATOM     12  C   UNL     1       0.120   6.492 -10.746  1.00  0.00     0.014 A 
ATOM     13  C   UNL     1       0.931   5.746  -8.591  1.00  0.00    -0.051 A 
ATOM     14  C   UNL     1       0.514   5.460  -9.897  1.00  0.00     0.004 A 
ATOM     15  C   UNL     1       1.284   4.638  -7.643  1.00  0.00     0.044 C 
ENDBRANCH   1   9
BRANCH   6  16
ATOM     16  C   UNL     1      -1.120  10.705 -13.573  1.00  0.00     0.153 C 
BRANCH  16  17
ATOM     17  C   UNL     1      -1.093  11.218 -14.986  1.00  0.00    -0.029 A 
ATOM     18  C   UNL     1      -2.016  10.820 -15.959  1.00  0.00     0.006 A 
ATOM     19  C   UNL     1      -0.235  12.294 -15.264  1.00  0.00     0.006 A 
ATOM     20  C   UNL     1      -2.089  11.507 -17.176  1.00  0.00     0.004 A 
ATOM     21  C   UNL     1      -0.312  12.979 -16.472  1.00  0.00     0.004 A 
ATOM     22  C   UNL     1      -1.248  12.597 -17.436  1.00  0.00    -0.051 A 
ATOM     23  C   UNL     1      -1.417  13.425 -18.674  1.00  0.00     0.044 C 
ENDBRANCH  16  17
ENDBRANCH   6  16
TORSDOF 3
ENDMDL
