MODEL 1
REMARK VINA RESULT:    -4.270      0.000      0.000
REMARK INTER + INTRA:          -5.856
REMARK INTER:                  -5.643
REMARK INTRA:                  -0.213
REMARK UNBOUND:                -0.213
REMARK SMILES [H]/N=C\C[C@H]1C[C@@H]1O[C@H]1CO[C@H]2C[C@@H](C3CC3)CCN2C1
REMARK SMILES IDX 7 1 6 2 5 3 8 4 9 5 14 6 13 7 18 8 12 9 19 10 20 11 11 12
REMARK SMILES IDX 21 13 10 14 15 15 16 16 17 17 4 18 3 19 2 20 1 21
REMARK H PARENT
ROOT
ATOM      1  C   UNL     1      -1.669   9.687 -11.334  1.00  0.00     0.122 C 
ATOM      2  C   UNL     1      -1.930   9.931 -12.793  1.00  0.00     0.039 C 
ATOM      3  C   UNL     1      -3.067   9.969 -11.813  1.00  0.00     0.026 C 
ENDROOT
BRANCH   1   4
ATOM      4  O   UNL     1      -1.361   8.317 -11.013  1.00  0.00    -0.371 OA
BRANCH   4   5
ATOM      5  C   UNL     1      -0.086   7.844 -11.477  1.00  0.00     0.158 C 
ATOM      6  C   UNL     1       1.280   5.047  -7.292  1.00  0.00    -0.003 C 
ATOM      7  C   UNL     1       1.161   6.539  -7.624  1.00  0.00     0.052 C 
ATOM      8  C   UNL     1       0.222   4.265  -8.082  1.00  0.00     0.019 C 
ATOM      9  C   UNL     1       1.197   6.791  -9.138  1.00  0.00     0.189 C 
ATOM     10  C   UNL     1       0.289   4.585  -9.575  1.00  0.00     0.087 C 
ATOM     11  N   UNL     1       0.148   6.022  -9.808  1.00  0.00    -0.276 NA
ATOM     12  O   UNL     1       1.032   8.198  -9.322  1.00  0.00    -0.360 OA
ATOM     13  C   UNL     1       0.123   6.337 -11.241  1.00  0.00     0.121 C 
ATOM     14  C   UNL     1       1.008   8.583 -10.700  1.00  0.00     0.195 C 
BRANCH   6  15
ATOM     15  C   UNL     1       1.129   4.795  -5.809  1.00  0.00    -0.008 C 
ATOM     16  C   UNL     1       2.095   3.885  -5.086  1.00  0.00     0.004 C 
ATOM     17  C   UNL     1       2.122   5.363  -4.823  1.00  0.00     0.004 C 
ENDBRANCH   6  15
ENDBRANCH   4   5
ENDBRANCH   1   4
BRANCH   3  18
ATOM     18  C   UNL     1      -3.720  11.284 -11.508  1.00  0.00     0.053 C 
BRANCH  18  19
ATOM     19  C   UNL     1      -4.275  12.041 -12.686  1.00  0.00     0.074 C 
BRANCH  19  20
ATOM     20  N   UNL     1      -5.490  11.980 -13.121  1.00  0.00    -0.313 NA
ATOM     21  H   UNL     1      -6.151  12.414 -12.462  1.00  0.00     0.186 HD
ENDBRANCH  19  20
ENDBRANCH  18  19
ENDBRANCH   3  18
TORSDOF 6
ENDMDL
MODEL 2
REMARK VINA RESULT:    -4.216      3.342      5.583
REMARK INTER + INTRA:          -5.784
REMARK INTER:                  -5.610
REMARK INTRA:                  -0.174
REMARK UNBOUND:                -0.213
REMARK SMILES [H]/N=C\C[C@H]1C[C@@H]1O[C@H]1CO[C@H]2C[C@@H](C3CC3)CCN2C1
REMARK SMILES IDX 7 1 6 2 5 3 8 4 9 5 14 6 13 7 18 8 12 9 19 10 20 11 11 12
REMARK SMILES IDX 21 13 10 14 15 15 16 16 17 17 4 18 3 19 2 20 1 21
REMARK H PARENT
ROOT
ATOM      1  C   UNL     1       3.204   8.780 -11.636  1.00  0.00     0.122 C 
ATOM      2  C   UNL     1       3.557  10.220 -11.886  1.00  0.00     0.039 C 
ATOM      3  C   UNL     1       4.642   9.183 -11.818  1.00  0.00     0.026 C 
ENDROOT
BRANCH   1   4
ATOM      4  O   UNL     1       2.777   8.506 -10.289  1.00  0.00    -0.371 OA
BRANCH   4   5
ATOM      5  C   UNL     1       1.506   9.064  -9.915  1.00  0.00     0.158 C 
ATOM      6  C   UNL     1      -0.570   4.846  -7.657  1.00  0.00    -0.003 C 
ATOM      7  C   UNL     1      -0.248   5.276  -9.093  1.00  0.00     0.052 C 
ATOM      8  C   UNL     1       0.463   5.458  -6.700  1.00  0.00     0.019 C 
ATOM      9  C   UNL     1      -0.109   6.800  -9.214  1.00  0.00     0.189 C 
ATOM     10  C   UNL     1       0.577   6.970  -6.894  1.00  0.00     0.087 C 
ATOM     11  N   UNL     1       0.904   7.296  -8.282  1.00  0.00    -0.276 NA
ATOM     12  O   UNL     1       0.234   7.073 -10.574  1.00  0.00    -0.360 OA
ATOM     13  C   UNL     1       1.103   8.738  -8.467  1.00  0.00     0.121 C 
ATOM     14  C   UNL     1       0.435   8.465 -10.833  1.00  0.00     0.195 C 
BRANCH   6  15
ATOM     15  C   UNL     1      -0.593   3.340  -7.521  1.00  0.00    -0.008 C 
ATOM     16  C   UNL     1      -1.691   2.660  -6.738  1.00  0.00     0.004 C 
ATOM     17  C   UNL     1      -1.638   2.515  -8.231  1.00  0.00     0.004 C 
ENDBRANCH   6  15
ENDBRANCH   4   5
ENDBRANCH   1   4
BRANCH   3  18
ATOM     18  C   UNL     1       5.377   8.817 -13.073  1.00  0.00     0.053 C 
BRANCH  18  19
ATOM     19  C   UNL     1       6.156   9.924 -13.735  1.00  0.00     0.074 C 
BRANCH  19  20
ATOM     20  N   UNL     1       7.337  10.324 -13.400  1.00  0.00    -0.313 NA
ATOM     21  H   UNL     1       7.903   9.556 -13.013  1.00  0.00     0.186 HD
ENDBRANCH  19  20
ENDBRANCH  18  19
ENDBRANCH   3  18
TORSDOF 6
ENDMDL
MODEL 3
REMARK VINA RESULT:    -3.959      5.437      8.644
REMARK INTER + INTRA:          -5.444
REMARK INTER:                  -5.393
REMARK INTRA:                  -0.052
REMARK UNBOUND:                -0.213
REMARK SMILES [H]/N=C\C[C@H]1C[C@@H]1O[C@H]1CO[C@H]2C[C@@H](C3CC3)CCN2C1
REMARK SMILES IDX 7 1 6 2 5 3 8 4 9 5 14 6 13 7 18 8 12 9 19 10 20 11 11 12
REMARK SMILES IDX 21 13 10 14 15 15 16 16 17 17 4 18 3 19 2 20 1 21
REMARK H PARENT
ROOT
ATOM      1  C   UNL     1       1.744   8.194 -10.770  1.00  0.00     0.122 C 
ATOM      2  C   UNL     1       0.395   8.523 -10.197  1.00  0.00     0.039 C 
ATOM      3  C   UNL     1       0.519   7.477 -11.269  1.00  0.00     0.026 C 
ENDROOT
BRANCH   1   4
ATOM      4  O   UNL     1       2.285   9.219 -11.626  1.00  0.00    -0.371 OA
BRANCH   4   5
ATOM      5  C   UNL     1       3.464   9.877 -11.136  1.00  0.00     0.158 C 
ATOM      6  C   UNL     1       6.100  10.208 -15.624  1.00  0.00    -0.003 C 
ATOM      7  C   UNL     1       5.725   9.084 -14.651  1.00  0.00     0.052 C 
ATOM      8  C   UNL     1       4.989  11.268 -15.627  1.00  0.00     0.019 C 
ATOM      9  C   UNL     1       5.377   9.628 -13.259  1.00  0.00     0.189 C 
ATOM     10  C   UNL     1       4.667  11.742 -14.210  1.00  0.00     0.087 C 
ATOM     11  N   UNL     1       4.301  10.616 -13.351  1.00  0.00    -0.276 NA
ATOM     12  O   UNL     1       5.003   8.502 -12.462  1.00  0.00    -0.360 OA
ATOM     13  C   UNL     1       3.905  11.063 -12.012  1.00  0.00     0.121 C 
ATOM     14  C   UNL     1       4.611   8.861 -11.134  1.00  0.00     0.195 C 
BRANCH   6  15
ATOM     15  C   UNL     1       6.331   9.678 -17.021  1.00  0.00    -0.008 C 
ATOM     16  C   UNL     1       7.186  10.450 -17.999  1.00  0.00     0.004 C 
ATOM     17  C   UNL     1       7.684   9.151 -17.435  1.00  0.00     0.004 C 
ENDBRANCH   6  15
ENDBRANCH   4   5
ENDBRANCH   1   4
BRANCH   3  18
ATOM     18  C   UNL     1       0.286   6.040 -10.911  1.00  0.00     0.053 C 
BRANCH  18  19
ATOM     19  C   UNL     1       0.179   5.076 -12.064  1.00  0.00     0.074 C 
BRANCH  19  20
ATOM     20  N   UNL     1       0.102   3.790 -11.972  1.00  0.00    -0.313 NA
ATOM     21  H   UNL     1       0.615   3.437 -11.151  1.00  0.00     0.186 HD
ENDBRANCH  19  20
ENDBRANCH  18  19
ENDBRANCH   3  18
TORSDOF 6
ENDMDL
MODEL 4
REMARK VINA RESULT:    -3.899      2.693      8.613
REMARK INTER + INTRA:          -5.366
REMARK INTER:                  -5.295
REMARK INTRA:                  -0.071
REMARK UNBOUND:                -0.213
REMARK SMILES [H]/N=C\C[C@H]1C[C@@H]1O[C@H]1CO[C@H]2C[C@@H](C3CC3)CCN2C1
REMARK SMILES IDX 7 1 6 2 5 3 8 4 9 5 14 6 13 7 18 8 12 9 19 10 20 11 11 12
REMARK SMILES IDX 21 13 10 14 15 15 16 16 17 17 4 18 3 19 2 20 1 21
REMARK H PARENT
ROOT
ATOM      1  C   UNL     1       0.103   8.399 -10.529  1.00  0.00     0.122 C 
ATOM      2  C   UNL     1       1.585   8.607 -10.393  1.00  0.00     0.039 C 
ATOM      3  C   UNL     1       0.692   8.775  -9.197  1.00  0.00     0.026 C 
ENDROOT
BRANCH   1   4
ATOM      4  O   UNL     1      -0.572   9.445 -11.254  1.00  0.00    -0.371 OA
BRANCH   4   5
ATOM      5  C   UNL     1      -1.650   9.015 -12.102  1.00  0.00     0.158 C 
ATOM      6  C   UNL     1      -4.137  13.575 -12.580  1.00  0.00    -0.003 C 
ATOM      7  C   UNL     1      -3.946  12.539 -11.465  1.00  0.00     0.052 C 
ATOM      8  C   UNL     1      -2.883  13.603 -13.465  1.00  0.00     0.019 C 
ATOM      9  C   UNL     1      -3.544  11.168 -12.024  1.00  0.00     0.189 C 
ATOM     10  C   UNL     1      -2.517  12.204 -13.960  1.00  0.00     0.087 C 
ATOM     11  N   UNL     1      -2.334  11.283 -12.838  1.00  0.00    -0.276 NA
ATOM     12  O   UNL     1      -3.353  10.308 -10.898  1.00  0.00    -0.360 OA
ATOM     13  C   UNL     1      -1.898   9.958 -13.292  1.00  0.00     0.121 C 
ATOM     14  C   UNL     1      -2.933   8.990 -11.265  1.00  0.00     0.195 C 
BRANCH   6  15
ATOM     15  C   UNL     1      -4.421  14.949 -12.017  1.00  0.00    -0.008 C 
ATOM     16  C   UNL     1      -5.063  16.010 -12.880  1.00  0.00     0.004 C 
ATOM     17  C   UNL     1      -5.837  15.398 -11.749  1.00  0.00     0.004 C 
ENDBRANCH   6  15
ENDBRANCH   4   5
ENDBRANCH   1   4
BRANCH   3  18
ATOM     18  C   UNL     1       0.762   7.766  -8.090  1.00  0.00     0.053 C 
BRANCH  18  19
ATOM     19  C   UNL     1       0.784   8.316  -6.688  1.00  0.00     0.074 C 
BRANCH  19  20
ATOM     20  N   UNL     1       0.893   9.562  -6.365  1.00  0.00    -0.313 NA
ATOM     21  H   UNL     1       1.783   9.962  -6.691  1.00  0.00     0.186 HD
ENDBRANCH  19  20
ENDBRANCH  18  19
ENDBRANCH   3  18
TORSDOF 6
ENDMDL
MODEL 5
REMARK VINA RESULT:    -3.863      5.838      8.733
REMARK INTER + INTRA:          -5.318
REMARK INTER:                  -5.242
REMARK INTRA:                  -0.076
REMARK UNBOUND:                -0.213
REMARK SMILES [H]/N=C\C[C@H]1C[C@@H]1O[C@H]1CO[C@H]2C[C@@H](C3CC3)CCN2C1
REMARK SMILES IDX 7 1 6 2 5 3 8 4 9 5 14 6 13 7 18 8 12 9 19 10 20 11 11 12
REMARK SMILES IDX 21 13 10 14 15 15 16 16 17 17 4 18 3 19 2 20 1 21
REMARK H PARENT
ROOT
ATOM      1  C   UNL     1      -6.107  14.853 -15.679  1.00  0.00     0.122 C 
ATOM      2  C   UNL     1      -7.484  15.221 -16.156  1.00  0.00     0.039 C 
ATOM      3  C   UNL     1      -7.219  13.841 -15.624  1.00  0.00     0.026 C 
ENDROOT
BRANCH   1   4
ATOM      4  O   UNL     1      -5.142  14.693 -16.736  1.00  0.00    -0.371 OA
BRANCH   4   5
ATOM      5  C   UNL     1      -3.816  15.160 -16.441  1.00  0.00     0.158 C 
ATOM      6  C   UNL     1      -2.088  10.998 -13.815  1.00  0.00    -0.003 C 
ATOM      7  C   UNL     1      -3.081  12.134 -13.541  1.00  0.00     0.052 C 
ATOM      8  C   UNL     1      -2.099  10.664 -15.313  1.00  0.00     0.019 C 
ATOM      9  C   UNL     1      -2.828  13.343 -14.453  1.00  0.00     0.189 C 
ATOM     10  C   UNL     1      -1.876  11.914 -16.165  1.00  0.00     0.087 C 
ATOM     11  N   UNL     1      -2.873  12.940 -15.859  1.00  0.00    -0.276 NA
ATOM     12  O   UNL     1      -3.834  14.308 -14.140  1.00  0.00    -0.360 OA
ATOM     13  C   UNL     1      -2.726  14.112 -16.729  1.00  0.00     0.121 C 
ATOM     14  C   UNL     1      -3.749  15.488 -14.945  1.00  0.00     0.195 C 
BRANCH   6  15
ATOM     15  C   UNL     1      -2.413   9.769 -12.995  1.00  0.00    -0.008 C 
ATOM     16  C   UNL     1      -1.483   9.318 -11.894  1.00  0.00     0.004 C 
ATOM     17  C   UNL     1      -2.826   9.891 -11.549  1.00  0.00     0.004 C 
ENDBRANCH   6  15
ENDBRANCH   4   5
ENDBRANCH   1   4
BRANCH   3  18
ATOM     18  C   UNL     1      -7.815  13.445 -14.306  1.00  0.00     0.053 C 
BRANCH  18  19
ATOM     19  C   UNL     1      -8.721  12.242 -14.320  1.00  0.00     0.074 C 
BRANCH  19  20
ATOM     20  N   UNL     1      -9.655  11.986 -13.464  1.00  0.00    -0.313 NA
ATOM     21  H   UNL     1     -10.460  12.618 -13.581  1.00  0.00     0.186 HD
ENDBRANCH  19  20
ENDBRANCH  18  19
ENDBRANCH   3  18
TORSDOF 6
ENDMDL
MODEL 6
REMARK VINA RESULT:    -3.855      5.730      7.249
REMARK INTER + INTRA:          -5.307
REMARK INTER:                  -4.772
REMARK INTRA:                  -0.535
REMARK UNBOUND:                -0.213
REMARK SMILES [H]/N=C\C[C@H]1C[C@@H]1O[C@H]1CO[C@H]2C[C@@H](C3CC3)CCN2C1
REMARK SMILES IDX 7 1 6 2 5 3 8 4 9 5 14 6 13 7 18 8 12 9 19 10 20 11 11 12
REMARK SMILES IDX 21 13 10 14 15 15 16 16 17 17 4 18 3 19 2 20 1 21
REMARK H PARENT
ROOT
ATOM      1  C   UNL     1       3.652  13.479 -16.127  1.00  0.00     0.122 C 
ATOM      2  C   UNL     1       3.370  13.502 -17.603  1.00  0.00     0.039 C 
ATOM      3  C   UNL     1       2.420  12.808 -16.669  1.00  0.00     0.026 C 
ENDROOT
BRANCH   1   4
ATOM      4  O   UNL     1       4.744  12.618 -15.751  1.00  0.00    -0.371 OA
BRANCH   4   5
ATOM      5  C   UNL     1       5.433  12.982 -14.544  1.00  0.00     0.158 C 
ATOM      6  C   UNL     1       3.455   9.338 -11.380  1.00  0.00    -0.003 C 
ATOM      7  C   UNL     1       2.930  10.614 -12.049  1.00  0.00     0.052 C 
ATOM      8  C   UNL     1       4.504   8.683 -12.289  1.00  0.00     0.019 C 
ATOM      9  C   UNL     1       4.072  11.552 -12.464  1.00  0.00     0.189 C 
ATOM     10  C   UNL     1       5.592   9.677 -12.693  1.00  0.00     0.087 C 
ATOM     11  N   UNL     1       5.013  10.854 -13.340  1.00  0.00    -0.276 NA
ATOM     12  O   UNL     1       3.466  12.672 -13.111  1.00  0.00    -0.360 OA
ATOM     13  C   UNL     1       6.051  11.778 -13.811  1.00  0.00     0.121 C 
ATOM     14  C   UNL     1       4.420  13.625 -13.592  1.00  0.00     0.195 C 
BRANCH   6  15
ATOM     15  C   UNL     1       2.335   8.369 -11.077  1.00  0.00    -0.008 C 
ATOM     16  C   UNL     1       1.578   8.459  -9.773  1.00  0.00     0.004 C 
ATOM     17  C   UNL     1       0.897   8.829 -11.059  1.00  0.00     0.004 C 
ENDBRANCH   6  15
ENDBRANCH   4   5
ENDBRANCH   1   4
BRANCH   3  18
ATOM     18  C   UNL     1       1.066  13.407 -16.432  1.00  0.00     0.053 C 
BRANCH  18  19
ATOM     19  C   UNL     1       0.297  12.869 -15.254  1.00  0.00     0.074 C 
BRANCH  19  20
ATOM     20  N   UNL     1       0.768  12.102 -14.328  1.00  0.00    -0.313 NA
ATOM     21  H   UNL     1       1.361  12.625 -13.667  1.00  0.00     0.186 HD
ENDBRANCH  19  20
ENDBRANCH  18  19
ENDBRANCH   3  18
TORSDOF 6
ENDMDL
MODEL 7
REMARK VINA RESULT:    -3.848      4.180      7.095
REMARK INTER + INTRA:          -5.297
REMARK INTER:                  -4.710
REMARK INTRA:                  -0.588
REMARK UNBOUND:                -0.213
REMARK SMILES [H]/N=C\C[C@H]1C[C@@H]1O[C@H]1CO[C@H]2C[C@@H](C3CC3)CCN2C1
REMARK SMILES IDX 7 1 6 2 5 3 8 4 9 5 14 6 13 7 18 8 12 9 19 10 20 11 11 12
REMARK SMILES IDX 21 13 10 14 15 15 16 16 17 17 4 18 3 19 2 20 1 21
REMARK H PARENT
ROOT
ATOM      1  C   UNL     1      -1.298  14.415 -15.639  1.00  0.00     0.122 C 
ATOM      2  C   UNL     1      -0.847  15.837 -15.462  1.00  0.00     0.039 C 
ATOM      3  C   UNL     1      -0.079  14.722 -14.812  1.00  0.00     0.026 C 
ENDROOT
BRANCH   1   4
ATOM      4  O   UNL     1      -2.500  14.087 -14.917  1.00  0.00    -0.371 OA
BRANCH   4   5
ATOM      5  C   UNL     1      -3.244  12.969 -15.429  1.00  0.00     0.158 C 
ATOM      6  C   UNL     1      -1.860   9.413 -11.872  1.00  0.00    -0.003 C 
ATOM      7  C   UNL     1      -1.170  10.121 -13.044  1.00  0.00     0.052 C 
ATOM      8  C   UNL     1      -2.892  10.361 -11.245  1.00  0.00     0.019 C 
ATOM      9  C   UNL     1      -2.185  10.691 -14.044  1.00  0.00     0.189 C 
ATOM     10  C   UNL     1      -3.850  10.919 -12.297  1.00  0.00     0.087 C 
ATOM     11  N   UNL     1      -3.116  11.593 -13.367  1.00  0.00    -0.276 NA
ATOM     12  O   UNL     1      -1.430  11.360 -15.057  1.00  0.00    -0.360 OA
ATOM     13  C   UNL     1      -4.025  12.211 -14.340  1.00  0.00     0.121 C 
ATOM     14  C   UNL     1      -2.252  11.981 -16.050  1.00  0.00     0.195 C 
BRANCH   6  15
ATOM     15  C   UNL     1      -0.861   8.954 -10.835  1.00  0.00    -0.008 C 
ATOM     16  C   UNL     1      -0.265   7.568 -10.909  1.00  0.00     0.004 C 
ATOM     17  C   UNL     1       0.594   8.767 -11.191  1.00  0.00     0.004 C 
ENDBRANCH   6  15
ENDBRANCH   4   5
ENDBRANCH   1   4
BRANCH   3  18
ATOM     18  C   UNL     1       1.288  14.384 -15.327  1.00  0.00     0.053 C 
BRANCH  18  19
ATOM     19  C   UNL     1       1.939  13.160 -14.738  1.00  0.00     0.074 C 
BRANCH  19  20
ATOM     20  N   UNL     1       1.322  12.146 -14.229  1.00  0.00    -0.313 NA
ATOM     21  H   UNL     1       0.762  11.648 -14.935  1.00  0.00     0.186 HD
ENDBRANCH  19  20
ENDBRANCH  18  19
ENDBRANCH   3  18
TORSDOF 6
ENDMDL
MODEL 8
REMARK VINA RESULT:    -3.427      6.708      8.889
REMARK INTER + INTRA:          -4.741
REMARK INTER:                  -4.511
REMARK INTRA:                  -0.230
REMARK UNBOUND:                -0.213
REMARK SMILES [H]/N=C\C[C@H]1C[C@@H]1O[C@H]1CO[C@H]2C[C@@H](C3CC3)CCN2C1
REMARK SMILES IDX 7 1 6 2 5 3 8 4 9 5 14 6 13 7 18 8 12 9 19 10 20 11 11 12
REMARK SMILES IDX 21 13 10 14 15 15 16 16 17 17 4 18 3 19 2 20 1 21
REMARK H PARENT
ROOT
ATOM      1  C   UNL     1      -0.680  12.104 -15.005  1.00  0.00     0.122 C 
ATOM      2  C   UNL     1      -1.391  11.074 -15.837  1.00  0.00     0.039 C 
ATOM      3  C   UNL     1      -1.569  11.086 -14.346  1.00  0.00     0.026 C 
ENDROOT
BRANCH   1   4
ATOM      4  O   UNL     1       0.740  11.889 -14.892  1.00  0.00    -0.371 OA
BRANCH   4   5
ATOM      5  C   UNL     1       1.552  13.074 -14.943  1.00  0.00     0.158 C 
ATOM      6  C   UNL     1       5.924  10.946 -16.830  1.00  0.00    -0.003 C 
ATOM      7  C   UNL     1       5.179  10.919 -15.490  1.00  0.00     0.052 C 
ATOM      8  C   UNL     1       4.908  11.077 -17.973  1.00  0.00     0.019 C 
ATOM      9  C   UNL     1       4.224  12.111 -15.344  1.00  0.00     0.189 C 
ATOM     10  C   UNL     1       3.966  12.261 -17.751  1.00  0.00     0.087 C 
ATOM     11  N   UNL     1       3.282  12.150 -16.463  1.00  0.00    -0.276 NA
ATOM     12  O   UNL     1       3.560  11.952 -14.089  1.00  0.00    -0.360 OA
ATOM     13  C   UNL     1       2.310  13.233 -16.272  1.00  0.00     0.121 C 
ATOM     14  C   UNL     1       2.600  12.981 -13.829  1.00  0.00     0.195 C 
BRANCH   6  15
ATOM     15  C   UNL     1       6.776   9.712 -17.017  1.00  0.00    -0.008 C 
ATOM     16  C   UNL     1       8.239   9.839 -17.371  1.00  0.00     0.004 C 
ATOM     17  C   UNL     1       7.841   9.347 -16.010  1.00  0.00     0.004 C 
ENDBRANCH   6  15
ENDBRANCH   4   5
ENDBRANCH   1   4
BRANCH   3  18
ATOM     18  C   UNL     1      -2.894  11.496 -13.776  1.00  0.00     0.053 C 
BRANCH  18  19
ATOM     19  C   UNL     1      -3.238  10.937 -12.420  1.00  0.00     0.074 C 
BRANCH  19  20
ATOM     20  N   UNL     1      -3.509  11.628 -11.363  1.00  0.00    -0.313 NA
ATOM     21  H   UNL     1      -3.225  11.136 -10.504  1.00  0.00     0.186 HD
ENDBRANCH  19  20
ENDBRANCH  18  19
ENDBRANCH   3  18
TORSDOF 6
ENDMDL
MODEL 9
REMARK VINA RESULT:    -3.369      6.267     10.027
REMARK INTER + INTRA:          -4.665
REMARK INTER:                  -4.422
REMARK INTRA:                  -0.243
REMARK UNBOUND:                -0.213
REMARK SMILES [H]/N=C\C[C@H]1C[C@@H]1O[C@H]1CO[C@H]2C[C@@H](C3CC3)CCN2C1
REMARK SMILES IDX 7 1 6 2 5 3 8 4 9 5 14 6 13 7 18 8 12 9 19 10 20 11 11 12
REMARK SMILES IDX 21 13 10 14 15 15 16 16 17 17 4 18 3 19 2 20 1 21
REMARK H PARENT
ROOT
ATOM      1  C   UNL     1       3.058  12.880 -13.837  1.00  0.00     0.122 C 
ATOM      2  C   UNL     1       3.783  13.409 -12.632  1.00  0.00     0.039 C 
ATOM      3  C   UNL     1       3.530  11.935 -12.766  1.00  0.00     0.026 C 
ENDROOT
BRANCH   1   4
ATOM      4  O   UNL     1       1.650  13.183 -13.855  1.00  0.00    -0.371 OA
BRANCH   4   5
ATOM      5  C   UNL     1       1.140  13.690 -15.099  1.00  0.00     0.158 C 
ATOM      6  C   UNL     1      -3.858  14.266 -13.724  1.00  0.00    -0.003 C 
ATOM      7  C   UNL     1      -2.929  13.081 -14.019  1.00  0.00     0.052 C 
ATOM      8  C   UNL     1      -3.042  15.407 -13.101  1.00  0.00     0.019 C 
ATOM      9  C   UNL     1      -1.711  13.506 -14.851  1.00  0.00     0.189 C 
ATOM     10  C   UNL     1      -1.826  15.757 -13.959  1.00  0.00     0.087 C 
ATOM     11  N   UNL     1      -0.984  14.582 -14.178  1.00  0.00    -0.276 NA
ATOM     12  O   UNL     1      -0.905  12.338 -15.020  1.00  0.00    -0.360 OA
ATOM     13  C   UNL     1       0.232  14.920 -14.927  1.00  0.00     0.121 C 
ATOM     14  C   UNL     1       0.298  12.589 -15.752  1.00  0.00     0.195 C 
BRANCH   6  15
ATOM     15  C   UNL     1      -4.994  13.866 -12.810  1.00  0.00    -0.008 C 
ATOM     16  C   UNL     1      -6.404  13.766 -13.343  1.00  0.00     0.004 C 
ATOM     17  C   UNL     1      -5.663  12.520 -12.951  1.00  0.00     0.004 C 
ENDBRANCH   6  15
ENDBRANCH   4   5
ENDBRANCH   1   4
BRANCH   3  18
ATOM     18  C   UNL     1       4.688  11.019 -13.024  1.00  0.00     0.053 C 
BRANCH  18  19
ATOM     19  C   UNL     1       4.606   9.650 -12.401  1.00  0.00     0.074 C 
BRANCH  19  20
ATOM     20  N   UNL     1       5.047   8.553 -12.922  1.00  0.00    -0.313 NA
ATOM     21  H   UNL     1       5.408   7.910 -12.203  1.00  0.00     0.186 HD
ENDBRANCH  19  20
ENDBRANCH  18  19
ENDBRANCH   3  18
TORSDOF 6
ENDMDL
