MODEL 1
REMARK VINA RESULT:    -6.168      0.000      0.000
REMARK INTER + INTRA:          -7.631
REMARK INTER:                  -7.250
REMARK INTRA:                  -0.381
REMARK UNBOUND:                -0.381
REMARK SMILES Cc1ccc(CNC(=O)NC(=O)c2ccc(C)cc2)cc1
REMARK SMILES IDX 11 1 12 2 10 3 8 4 9 5 7 6 13 9 19 10 18 11 14 12 16 13
REMARK SMILES IDX 15 14 17 15 6 16 5 17 4 18 20 19 3 20 21 21 2 22 1 23
REMARK H PARENT 10 7 7 8
ROOT
ATOM      1  C   UNL     1       5.989   7.467   3.940  1.00  0.00     0.259 C 
ATOM      2  O   UNL     1       5.187   7.897   4.757  1.00  0.00    -0.269 OA
ATOM      3  N   UNL     1       7.248   7.972   3.600  1.00  0.00    -0.274 N 
ATOM      4  C   UNL     1       8.149   8.873   4.106  1.00  0.00     0.321 C 
ATOM      5  O   UNL     1       9.256   8.945   3.562  1.00  0.00    -0.248 OA
ATOM      6  N   UNL     1       7.901   9.653   5.175  1.00  0.00    -0.334 N 
ATOM      7  H   UNL     1       7.722   7.453   2.873  1.00  0.00     0.175 HD
ATOM      8  H   UNL     1       8.696  10.198   5.474  1.00  0.00     0.165 HD
ENDROOT
BRANCH   1   9
ATOM      9  C   UNL     1       5.595   6.250   3.205  1.00  0.00     0.040 A 
ATOM     10  C   UNL     1       5.154   6.308   1.882  1.00  0.00     0.014 A 
ATOM     11  C   UNL     1       4.843   5.124   1.212  1.00  0.00     0.004 A 
ATOM     12  C   UNL     1       5.668   5.025   3.877  1.00  0.00     0.014 A 
ATOM     13  C   UNL     1       4.962   3.886   1.861  1.00  0.00    -0.051 A 
ATOM     14  C   UNL     1       5.362   3.845   3.202  1.00  0.00     0.004 A 
ATOM     15  C   UNL     1       4.706   2.618   1.102  1.00  0.00     0.044 C 
ENDBRANCH   1   9
BRANCH   6  16
ATOM     16  C   UNL     1       6.731   9.652   6.007  1.00  0.00     0.153 C 
BRANCH  16  17
ATOM     17  C   UNL     1       6.880  10.182   7.406  1.00  0.00    -0.029 A 
ATOM     18  C   UNL     1       6.518   9.451   8.542  1.00  0.00     0.006 A 
ATOM     19  C   UNL     1       7.606  11.374   7.569  1.00  0.00     0.006 A 
ATOM     20  C   UNL     1       6.901   9.896   9.812  1.00  0.00     0.004 A 
ATOM     21  C   UNL     1       7.990  11.812   8.832  1.00  0.00     0.004 A 
ATOM     22  C   UNL     1       7.649  11.071   9.965  1.00  0.00    -0.051 A 
ATOM     23  C   UNL     1       8.183  11.478  11.306  1.00  0.00     0.044 C 
ENDBRANCH  16  17
ENDBRANCH   6  16
TORSDOF 3
ENDMDL
MODEL 2
REMARK VINA RESULT:    -6.153      3.261      5.537
REMARK INTER + INTRA:          -7.613
REMARK INTER:                  -7.226
REMARK INTRA:                  -0.387
REMARK UNBOUND:                -0.381
REMARK SMILES Cc1ccc(CNC(=O)NC(=O)c2ccc(C)cc2)cc1
REMARK SMILES IDX 11 1 12 2 10 3 8 4 9 5 7 6 13 9 19 10 18 11 14 12 16 13
REMARK SMILES IDX 15 14 17 15 6 16 5 17 4 18 20 19 3 20 21 21 2 22 1 23
REMARK H PARENT 10 7 7 8
ROOT
ATOM      1  C   UNL     1       6.054   7.621   3.545  1.00  0.00     0.259 C 
ATOM      2  O   UNL     1       6.883   7.186   2.758  1.00  0.00    -0.269 OA
ATOM      3  N   UNL     1       6.253   8.436   4.663  1.00  0.00    -0.274 N 
ATOM      4  C   UNL     1       7.252   9.221   5.181  1.00  0.00     0.321 C 
ATOM      5  O   UNL     1       6.981   9.919   6.164  1.00  0.00    -0.248 OA
ATOM      6  N   UNL     1       8.490   9.291   4.658  1.00  0.00    -0.334 N 
ATOM      7  H   UNL     1       5.409   8.650   5.179  1.00  0.00     0.175 HD
ATOM      8  H   UNL     1       9.081   9.979   5.102  1.00  0.00     0.165 HD
ENDROOT
BRANCH   1   9
ATOM      9  C   UNL     1       4.648   7.250   3.295  1.00  0.00     0.040 A 
ATOM     10  C   UNL     1       4.015   6.254   4.040  1.00  0.00     0.014 A 
ATOM     11  C   UNL     1       2.668   5.974   3.803  1.00  0.00     0.004 A 
ATOM     12  C   UNL     1       3.961   7.924   2.280  1.00  0.00     0.014 A 
ATOM     13  C   UNL     1       1.956   6.681   2.822  1.00  0.00    -0.051 A 
ATOM     14  C   UNL     1       2.615   7.646   2.052  1.00  0.00     0.004 A 
ATOM     15  C   UNL     1       0.489   6.428   2.638  1.00  0.00     0.044 C 
ENDBRANCH   1   9
BRANCH   6  16
ATOM     16  C   UNL     1       8.976   8.649   3.469  1.00  0.00     0.153 C 
BRANCH  16  17
ATOM     17  C   UNL     1      10.133   9.296   2.760  1.00  0.00    -0.029 A 
ATOM     18  C   UNL     1      10.072   9.719   1.428  1.00  0.00     0.006 A 
ATOM     19  C   UNL     1      11.238   9.671   3.541  1.00  0.00     0.006 A 
ATOM     20  C   UNL     1      11.087  10.525   0.902  1.00  0.00     0.004 A 
ATOM     21  C   UNL     1      12.245  10.476   3.018  1.00  0.00     0.004 A 
ATOM     22  C   UNL     1      12.173  10.919   1.696  1.00  0.00    -0.051 A 
ATOM     23  C   UNL     1      13.189  11.896   1.185  1.00  0.00     0.044 C 
ENDBRANCH  16  17
ENDBRANCH   6  16
TORSDOF 3
ENDMDL
MODEL 3
REMARK VINA RESULT:    -5.978      3.157      7.315
REMARK INTER + INTRA:          -7.408
REMARK INTER:                  -6.917
REMARK INTRA:                  -0.491
REMARK UNBOUND:                -0.381
REMARK SMILES Cc1ccc(CNC(=O)NC(=O)c2ccc(C)cc2)cc1
REMARK SMILES IDX 11 1 12 2 10 3 8 4 9 5 7 6 13 9 19 10 18 11 14 12 16 13
REMARK SMILES IDX 15 14 17 15 6 16 5 17 4 18 20 19 3 20 21 21 2 22 1 23
REMARK H PARENT 10 7 7 8
ROOT
ATOM      1  C   UNL     1       8.605   8.844   3.125  1.00  0.00     0.259 C 
ATOM      2  O   UNL     1       8.084   8.032   2.373  1.00  0.00    -0.269 OA
ATOM      3  N   UNL     1       8.157   9.297   4.370  1.00  0.00    -0.274 N 
ATOM      4  C   UNL     1       7.226   8.929   5.307  1.00  0.00     0.321 C 
ATOM      5  O   UNL     1       7.227   9.535   6.384  1.00  0.00    -0.248 OA
ATOM      6  N   UNL     1       6.342   7.931   5.126  1.00  0.00    -0.334 N 
ATOM      7  H   UNL     1       8.752   9.994   4.799  1.00  0.00     0.175 HD
ATOM      8  H   UNL     1       5.784   7.729   5.943  1.00  0.00     0.165 HD
ENDROOT
BRANCH   1   9
ATOM      9  C   UNL     1       9.882   9.434   2.678  1.00  0.00     0.040 A 
ATOM     10  C   UNL     1      10.093   9.788   1.344  1.00  0.00     0.014 A 
ATOM     11  C   UNL     1      11.297  10.391   0.979  1.00  0.00     0.004 A 
ATOM     12  C   UNL     1      10.886   9.625   3.632  1.00  0.00     0.014 A 
ATOM     13  C   UNL     1      12.291  10.634   1.938  1.00  0.00    -0.051 A 
ATOM     14  C   UNL     1      12.085  10.234   3.264  1.00  0.00     0.004 A 
ATOM     15  C   UNL     1      13.545  11.360   1.546  1.00  0.00     0.044 C 
ENDBRANCH   1   9
BRANCH   6  16
ATOM     16  C   UNL     1       6.242   7.042   4.003  1.00  0.00     0.153 C 
BRANCH  16  17
ATOM     17  C   UNL     1       4.864   6.740   3.482  1.00  0.00    -0.029 A 
ATOM     18  C   UNL     1       4.043   5.748   4.028  1.00  0.00     0.006 A 
ATOM     19  C   UNL     1       4.317   7.638   2.552  1.00  0.00     0.006 A 
ATOM     20  C   UNL     1       2.694   5.677   3.663  1.00  0.00     0.004 A 
ATOM     21  C   UNL     1       2.974   7.570   2.194  1.00  0.00     0.004 A 
ATOM     22  C   UNL     1       2.148   6.594   2.755  1.00  0.00    -0.051 A 
ATOM     23  C   UNL     1       0.676   6.614   2.469  1.00  0.00     0.044 C 
ENDBRANCH  16  17
ENDBRANCH   6  16
TORSDOF 3
ENDMDL
MODEL 4
REMARK VINA RESULT:    -5.781      1.235      7.980
REMARK INTER + INTRA:          -7.176
REMARK INTER:                  -6.754
REMARK INTRA:                  -0.422
REMARK UNBOUND:                -0.381
REMARK SMILES Cc1ccc(CNC(=O)NC(=O)c2ccc(C)cc2)cc1
REMARK SMILES IDX 11 1 12 2 10 3 8 4 9 5 7 6 13 9 19 10 18 11 14 12 16 13
REMARK SMILES IDX 15 14 17 15 6 16 5 17 4 18 20 19 3 20 21 21 2 22 1 23
REMARK H PARENT 10 7 7 8
ROOT
ATOM      1  C   UNL     1       6.637   9.362   6.279  1.00  0.00     0.259 C 
ATOM      2  O   UNL     1       5.483   8.990   6.125  1.00  0.00    -0.269 OA
ATOM      3  N   UNL     1       7.722   9.236   5.404  1.00  0.00    -0.274 N 
ATOM      4  C   UNL     1       7.928   8.929   4.084  1.00  0.00     0.321 C 
ATOM      5  O   UNL     1       9.073   9.060   3.637  1.00  0.00    -0.248 OA
ATOM      6  N   UNL     1       6.950   8.526   3.252  1.00  0.00    -0.334 N 
ATOM      7  H   UNL     1       8.592   9.604   5.764  1.00  0.00     0.175 HD
ATOM      8  H   UNL     1       7.249   8.423   2.293  1.00  0.00     0.165 HD
ENDROOT
BRANCH   1   9
ATOM      9  C   UNL     1       6.948  10.042   7.551  1.00  0.00     0.040 A 
ATOM     10  C   UNL     1       6.576   9.493   8.780  1.00  0.00     0.014 A 
ATOM     11  C   UNL     1       6.938  10.147   9.958  1.00  0.00     0.004 A 
ATOM     12  C   UNL     1       7.625  11.264   7.494  1.00  0.00     0.014 A 
ATOM     13  C   UNL     1       7.662  11.348   9.913  1.00  0.00    -0.051 A 
ATOM     14  C   UNL     1       7.990  11.910   8.673  1.00  0.00     0.004 A 
ATOM     15  C   UNL     1       8.118  11.994  11.188  1.00  0.00     0.044 C 
ENDBRANCH   1   9
BRANCH   6  16
ATOM     16  C   UNL     1       5.548   8.410   3.539  1.00  0.00     0.153 C 
BRANCH  16  17
ATOM     17  C   UNL     1       4.820   7.230   2.957  1.00  0.00    -0.029 A 
ATOM     18  C   UNL     1       5.038   5.914   3.379  1.00  0.00     0.006 A 
ATOM     19  C   UNL     1       3.734   7.499   2.108  1.00  0.00     0.006 A 
ATOM     20  C   UNL     1       4.167   4.896   2.976  1.00  0.00     0.004 A 
ATOM     21  C   UNL     1       2.866   6.487   1.712  1.00  0.00     0.004 A 
ATOM     22  C   UNL     1       3.069   5.177   2.151  1.00  0.00    -0.051 A 
ATOM     23  C   UNL     1       2.053   4.122   1.833  1.00  0.00     0.044 C 
ENDBRANCH  16  17
ENDBRANCH   6  16
TORSDOF 3
ENDMDL
MODEL 5
REMARK VINA RESULT:    -5.398      1.332      1.610
REMARK INTER + INTRA:          -6.725
REMARK INTER:                  -6.247
REMARK INTRA:                  -0.479
REMARK UNBOUND:                -0.381
REMARK SMILES Cc1ccc(CNC(=O)NC(=O)c2ccc(C)cc2)cc1
REMARK SMILES IDX 11 1 12 2 10 3 8 4 9 5 7 6 13 9 19 10 18 11 14 12 16 13
REMARK SMILES IDX 15 14 17 15 6 16 5 17 4 18 20 19 3 20 21 21 2 22 1 23
REMARK H PARENT 10 7 7 8
ROOT
ATOM      1  C   UNL     1       5.362   7.654   3.622  1.00  0.00     0.259 C 
ATOM      2  O   UNL     1       4.775   8.596   4.136  1.00  0.00    -0.269 OA
ATOM      3  N   UNL     1       6.739   7.445   3.496  1.00  0.00    -0.274 N 
ATOM      4  C   UNL     1       7.895   7.964   4.021  1.00  0.00     0.321 C 
ATOM      5  O   UNL     1       8.956   7.394   3.745  1.00  0.00    -0.248 OA
ATOM      6  N   UNL     1       7.927   9.032   4.839  1.00  0.00    -0.334 N 
ATOM      7  H   UNL     1       6.989   6.595   3.008  1.00  0.00     0.175 HD
ATOM      8  H   UNL     1       8.845   9.235   5.207  1.00  0.00     0.165 HD
ENDROOT
BRANCH   1   9
ATOM      9  C   UNL     1       4.522   6.581   3.056  1.00  0.00     0.040 A 
ATOM     10  C   UNL     1       3.552   5.934   3.823  1.00  0.00     0.014 A 
ATOM     11  C   UNL     1       2.746   4.962   3.230  1.00  0.00     0.004 A 
ATOM     12  C   UNL     1       4.729   6.220   1.721  1.00  0.00     0.014 A 
ATOM     13  C   UNL     1       2.911   4.629   1.877  1.00  0.00    -0.051 A 
ATOM     14  C   UNL     1       3.918   5.253   1.130  1.00  0.00     0.004 A 
ATOM     15  C   UNL     1       1.982   3.644   1.232  1.00  0.00     0.044 C 
ENDBRANCH   1   9
BRANCH   6  16
ATOM     16  C   UNL     1       6.811   9.769   5.362  1.00  0.00     0.153 C 
BRANCH  16  17
ATOM     17  C   UNL     1       6.831  10.102   6.828  1.00  0.00    -0.029 A 
ATOM     18  C   UNL     1       6.345   9.237   7.814  1.00  0.00     0.006 A 
ATOM     19  C   UNL     1       7.559  11.237   7.220  1.00  0.00     0.006 A 
ATOM     20  C   UNL     1       6.609   9.495   9.163  1.00  0.00     0.004 A 
ATOM     21  C   UNL     1       7.824  11.490   8.562  1.00  0.00     0.004 A 
ATOM     22  C   UNL     1       7.360  10.615   9.545  1.00  0.00    -0.051 A 
ATOM     23  C   UNL     1       7.767  10.821  10.974  1.00  0.00     0.044 C 
ENDBRANCH  16  17
ENDBRANCH   6  16
TORSDOF 3
ENDMDL
MODEL 6
REMARK VINA RESULT:    -5.069      1.883      8.177
REMARK INTER + INTRA:          -6.339
REMARK INTER:                  -5.922
REMARK INTRA:                  -0.417
REMARK UNBOUND:                -0.381
REMARK SMILES Cc1ccc(CNC(=O)NC(=O)c2ccc(C)cc2)cc1
REMARK SMILES IDX 11 1 12 2 10 3 8 4 9 5 7 6 13 9 19 10 18 11 14 12 16 13
REMARK SMILES IDX 15 14 17 15 6 16 5 17 4 18 20 19 3 20 21 21 2 22 1 23
REMARK H PARENT 10 7 7 8
ROOT
ATOM      1  C   UNL     1       6.384   8.955   5.412  1.00  0.00     0.259 C 
ATOM      2  O   UNL     1       6.612   7.754   5.368  1.00  0.00    -0.269 OA
ATOM      3  N   UNL     1       5.851   9.782   4.418  1.00  0.00    -0.274 N 
ATOM      4  C   UNL     1       5.196   9.635   3.222  1.00  0.00     0.321 C 
ATOM      5  O   UNL     1       4.751  10.655   2.683  1.00  0.00    -0.248 OA
ATOM      6  N   UNL     1       4.991   8.446   2.626  1.00  0.00    -0.334 N 
ATOM      7  H   UNL     1       5.774  10.755   4.682  1.00  0.00     0.175 HD
ATOM      8  H   UNL     1       4.419   8.500   1.796  1.00  0.00     0.165 HD
ENDROOT
BRANCH   1   9
ATOM      9  C   UNL     1       6.703   9.642   6.678  1.00  0.00     0.040 A 
ATOM     10  C   UNL     1       6.288   9.131   7.909  1.00  0.00     0.014 A 
ATOM     11  C   UNL     1       6.659   9.788   9.083  1.00  0.00     0.004 A 
ATOM     12  C   UNL     1       7.434  10.833   6.613  1.00  0.00     0.014 A 
ATOM     13  C   UNL     1       7.436  10.955   9.031  1.00  0.00    -0.051 A 
ATOM     14  C   UNL     1       7.807  11.482   7.788  1.00  0.00     0.004 A 
ATOM     15  C   UNL     1       7.898  11.601  10.303  1.00  0.00     0.044 C 
ENDBRANCH   1   9
BRANCH   6  16
ATOM     16  C   UNL     1       5.331   7.145   3.129  1.00  0.00     0.153 C 
BRANCH  16  17
ATOM     17  C   UNL     1       4.390   6.015   2.811  1.00  0.00    -0.029 A 
ATOM     18  C   UNL     1       3.224   5.764   3.542  1.00  0.00     0.006 A 
ATOM     19  C   UNL     1       4.596   5.327   1.605  1.00  0.00     0.006 A 
ATOM     20  C   UNL     1       2.275   4.859   3.056  1.00  0.00     0.004 A 
ATOM     21  C   UNL     1       3.649   4.431   1.120  1.00  0.00     0.004 A 
ATOM     22  C   UNL     1       2.474   4.196   1.837  1.00  0.00    -0.051 A 
ATOM     23  C   UNL     1       1.400   3.336   1.241  1.00  0.00     0.044 C 
ENDBRANCH  16  17
ENDBRANCH   6  16
TORSDOF 3
ENDMDL
MODEL 7
REMARK VINA RESULT:    -5.058      3.889      7.839
REMARK INTER + INTRA:          -6.326
REMARK INTER:                  -5.910
REMARK INTRA:                  -0.416
REMARK UNBOUND:                -0.381
REMARK SMILES Cc1ccc(CNC(=O)NC(=O)c2ccc(C)cc2)cc1
REMARK SMILES IDX 11 1 12 2 10 3 8 4 9 5 7 6 13 9 19 10 18 11 14 12 16 13
REMARK SMILES IDX 15 14 17 15 6 16 5 17 4 18 20 19 3 20 21 21 2 22 1 23
REMARK H PARENT 10 7 7 8
ROOT
ATOM      1  C   UNL     1       8.098   8.251   3.363  1.00  0.00     0.259 C 
ATOM      2  O   UNL     1       7.046   8.725   2.958  1.00  0.00    -0.269 OA
ATOM      3  N   UNL     1       8.299   7.131   4.175  1.00  0.00    -0.274 N 
ATOM      4  C   UNL     1       7.570   6.056   4.617  1.00  0.00     0.321 C 
ATOM      5  O   UNL     1       8.169   5.174   5.240  1.00  0.00    -0.248 OA
ATOM      6  N   UNL     1       6.253   5.903   4.382  1.00  0.00    -0.334 N 
ATOM      7  H   UNL     1       9.267   6.945   4.398  1.00  0.00     0.175 HD
ATOM      8  H   UNL     1       5.884   5.018   4.700  1.00  0.00     0.165 HD
ENDROOT
BRANCH   1   9
ATOM      9  C   UNL     1       9.336   8.938   2.946  1.00  0.00     0.040 A 
ATOM     10  C   UNL     1       9.568   9.274   1.611  1.00  0.00     0.014 A 
ATOM     11  C   UNL     1      10.729   9.970   1.273  1.00  0.00     0.004 A 
ATOM     12  C   UNL     1      10.282   9.241   3.930  1.00  0.00     0.014 A 
ATOM     13  C   UNL     1      11.660  10.324   2.260  1.00  0.00    -0.051 A 
ATOM     14  C   UNL     1      11.437   9.942   3.589  1.00  0.00     0.004 A 
ATOM     15  C   UNL     1      12.861  11.146   1.894  1.00  0.00     0.044 C 
ENDBRANCH   1   9
BRANCH   6  16
ATOM     16  C   UNL     1       5.399   6.750   3.599  1.00  0.00     0.153 C 
BRANCH  16  17
ATOM     17  C   UNL     1       4.307   6.086   2.807  1.00  0.00    -0.029 A 
ATOM     18  C   UNL     1       4.529   5.464   1.574  1.00  0.00     0.006 A 
ATOM     19  C   UNL     1       3.068   5.908   3.443  1.00  0.00     0.006 A 
ATOM     20  C   UNL     1       3.534   4.661   1.005  1.00  0.00     0.004 A 
ATOM     21  C   UNL     1       2.081   5.105   2.879  1.00  0.00     0.004 A 
ATOM     22  C   UNL     1       2.310   4.466   1.659  1.00  0.00    -0.051 A 
ATOM     23  C   UNL     1       1.297   3.496   1.128  1.00  0.00     0.044 C 
ENDBRANCH  16  17
ENDBRANCH   6  16
TORSDOF 3
ENDMDL
MODEL 8
REMARK VINA RESULT:    -4.731      5.786     10.311
REMARK INTER + INTRA:          -5.942
REMARK INTER:                  -5.503
REMARK INTRA:                  -0.438
REMARK UNBOUND:                -0.381
REMARK SMILES Cc1ccc(CNC(=O)NC(=O)c2ccc(C)cc2)cc1
REMARK SMILES IDX 11 1 12 2 10 3 8 4 9 5 7 6 13 9 19 10 18 11 14 12 16 13
REMARK SMILES IDX 15 14 17 15 6 16 5 17 4 18 20 19 3 20 21 21 2 22 1 23
REMARK H PARENT 10 7 7 8
ROOT
ATOM      1  C   UNL     1      13.277  13.198   5.875  1.00  0.00     0.259 C 
ATOM      2  O   UNL     1      13.766  12.106   5.624  1.00  0.00    -0.269 OA
ATOM      3  N   UNL     1      13.002  14.256   5.002  1.00  0.00    -0.274 N 
ATOM      4  C   UNL     1      12.916  14.456   3.649  1.00  0.00     0.321 C 
ATOM      5  O   UNL     1      12.500  15.552   3.256  1.00  0.00    -0.248 OA
ATOM      6  N   UNL     1      13.229  13.518   2.736  1.00  0.00    -0.334 N 
ATOM      7  H   UNL     1      12.614  15.076   5.450  1.00  0.00     0.175 HD
ATOM      8  H   UNL     1      13.028  13.793   1.785  1.00  0.00     0.165 HD
ENDROOT
BRANCH   1   9
ATOM      9  C   UNL     1      12.917  13.453   7.283  1.00  0.00     0.040 A 
ATOM     10  C   UNL     1      13.342  14.605   7.947  1.00  0.00     0.014 A 
ATOM     11  C   UNL     1      12.933  14.828   9.262  1.00  0.00     0.004 A 
ATOM     12  C   UNL     1      12.138  12.498   7.945  1.00  0.00     0.014 A 
ATOM     13  C   UNL     1      12.108  13.901   9.917  1.00  0.00    -0.051 A 
ATOM     14  C   UNL     1      11.726  12.728   9.256  1.00  0.00     0.004 A 
ATOM     15  C   UNL     1      11.607  14.195  11.301  1.00  0.00     0.044 C 
ENDBRANCH   1   9
BRANCH   6  16
ATOM     16  C   UNL     1      13.627  12.160   2.977  1.00  0.00     0.153 C 
BRANCH  16  17
ATOM     17  C   UNL     1      12.613  11.084   2.705  1.00  0.00    -0.029 A 
ATOM     18  C   UNL     1      12.066  10.279   3.709  1.00  0.00     0.006 A 
ATOM     19  C   UNL     1      12.049  11.042   1.420  1.00  0.00     0.006 A 
ATOM     20  C   UNL     1      10.960   9.469   3.432  1.00  0.00     0.004 A 
ATOM     21  C   UNL     1      10.946  10.240   1.147  1.00  0.00     0.004 A 
ATOM     22  C   UNL     1      10.385   9.453   2.154  1.00  0.00    -0.051 A 
ATOM     23  C   UNL     1       9.117   8.699   1.887  1.00  0.00     0.044 C 
ENDBRANCH  16  17
ENDBRANCH   6  16
TORSDOF 3
ENDMDL
MODEL 9
REMARK VINA RESULT:    -4.705      5.650      8.780
REMARK INTER + INTRA:          -5.912
REMARK INTER:                  -5.681
REMARK INTRA:                  -0.231
REMARK UNBOUND:                -0.381
REMARK SMILES Cc1ccc(CNC(=O)NC(=O)c2ccc(C)cc2)cc1
REMARK SMILES IDX 11 1 12 2 10 3 8 4 9 5 7 6 13 9 19 10 18 11 14 12 16 13
REMARK SMILES IDX 15 14 17 15 6 16 5 17 4 18 20 19 3 20 21 21 2 22 1 23
REMARK H PARENT 10 7 7 8
ROOT
ATOM      1  C   UNL     1       9.834  12.919   9.530  1.00  0.00     0.259 C 
ATOM      2  O   UNL     1      10.952  12.429   9.604  1.00  0.00    -0.269 OA
ATOM      3  N   UNL     1       9.429  14.224   9.828  1.00  0.00    -0.274 N 
ATOM      4  C   UNL     1      10.019  15.441  10.054  1.00  0.00     0.321 C 
ATOM      5  O   UNL     1       9.280  16.426  10.156  1.00  0.00    -0.248 OA
ATOM      6  N   UNL     1      11.351  15.619  10.138  1.00  0.00    -0.334 N 
ATOM      7  H   UNL     1       8.439  14.390   9.709  1.00  0.00     0.175 HD
ATOM      8  H   UNL     1      11.627  16.587  10.221  1.00  0.00     0.165 HD
ENDROOT
BRANCH   1   9
ATOM      9  C   UNL     1       8.754  12.031   9.060  1.00  0.00     0.040 A 
ATOM     10  C   UNL     1       8.386  11.981   7.714  1.00  0.00     0.014 A 
ATOM     11  C   UNL     1       7.394  11.087   7.309  1.00  0.00     0.004 A 
ATOM     12  C   UNL     1       8.096  11.239  10.007  1.00  0.00     0.014 A 
ATOM     13  C   UNL     1       6.764  10.251   8.243  1.00  0.00    -0.051 A 
ATOM     14  C   UNL     1       7.110  10.343   9.597  1.00  0.00     0.004 A 
ATOM     15  C   UNL     1       5.761   9.236   7.780  1.00  0.00     0.044 C 
ENDBRANCH   1   9
BRANCH   6  16
ATOM     16  C   UNL     1      12.379  14.636   9.947  1.00  0.00     0.153 C 
BRANCH  16  17
ATOM     17  C   UNL     1      13.114  14.653   8.635  1.00  0.00    -0.029 A 
ATOM     18  C   UNL     1      14.501  14.811   8.539  1.00  0.00     0.006 A 
ATOM     19  C   UNL     1      12.392  14.285   7.488  1.00  0.00     0.006 A 
ATOM     20  C   UNL     1      15.149  14.579   7.321  1.00  0.00     0.004 A 
ATOM     21  C   UNL     1      13.038  14.049   6.279  1.00  0.00     0.004 A 
ATOM     22  C   UNL     1      14.425  14.184   6.187  1.00  0.00    -0.051 A 
ATOM     23  C   UNL     1      15.126  13.796   4.920  1.00  0.00     0.044 C 
ENDBRANCH  16  17
ENDBRANCH   6  16
TORSDOF 3
ENDMDL
