MODEL 1
REMARK VINA RESULT:    -4.056      0.000      0.000
REMARK INTER + INTRA:          -5.604
REMARK INTER:                  -5.360
REMARK INTRA:                  -0.244
REMARK UNBOUND:                -0.244
REMARK SMILES [H]/N=C\C[C@H]1C[C@@H]1O[C@H]1CO[C@H]2C[C@@H](C3CC3)CCN2C1
REMARK SMILES IDX 7 1 6 2 5 3 8 4 9 5 14 6 13 7 18 8 12 9 19 10 20 11 11 12
REMARK SMILES IDX 21 13 10 14 15 15 16 16 17 17 4 18 3 19 2 20 1 21
REMARK H PARENT
ROOT
ATOM      1  C   UNL     1       6.891   9.311   6.923  1.00  0.00     0.122 C 
ATOM      2  C   UNL     1       7.113  10.738   7.336  1.00  0.00     0.039 C 
ATOM      3  C   UNL     1       6.339   9.812   8.230  1.00  0.00     0.026 C 
ENDROOT
BRANCH   1   4
ATOM      4  O   UNL     1       5.949   9.151   5.845  1.00  0.00    -0.371 OA
BRANCH   4   5
ATOM      5  C   UNL     1       6.442   9.487   4.537  1.00  0.00     0.158 C 
ATOM      6  C   UNL     1       4.556   5.391   1.916  1.00  0.00    -0.003 C 
ATOM      7  C   UNL     1       5.678   5.620   2.936  1.00  0.00     0.052 C 
ATOM      8  C   UNL     1       3.405   6.365   2.200  1.00  0.00     0.019 C 
ATOM      9  C   UNL     1       6.105   7.093   2.993  1.00  0.00     0.189 C 
ATOM     10  C   UNL     1       3.901   7.809   2.278  1.00  0.00     0.087 C 
ATOM     11  N   UNL     1       4.953   7.947   3.285  1.00  0.00    -0.276 NA
ATOM     12  O   UNL     1       7.112   7.187   4.002  1.00  0.00    -0.360 OA
ATOM     13  C   UNL     1       5.380   9.343   3.433  1.00  0.00     0.121 C 
ATOM     14  C   UNL     1       7.585   8.524   4.198  1.00  0.00     0.195 C 
BRANCH   6  15
ATOM     15  C   UNL     1       4.062   3.962   1.945  1.00  0.00    -0.008 C 
ATOM     16  C   UNL     1       3.873   3.192   0.659  1.00  0.00     0.004 C 
ATOM     17  C   UNL     1       4.983   2.818   1.598  1.00  0.00     0.004 C 
ENDBRANCH   6  15
ENDBRANCH   4   5
ENDBRANCH   1   4
BRANCH   3  18
ATOM     18  C   UNL     1       6.951   9.373   9.526  1.00  0.00     0.053 C 
BRANCH  18  19
ATOM     19  C   UNL     1       7.403  10.471  10.455  1.00  0.00     0.074 C 
BRANCH  19  20
ATOM     20  N   UNL     1       6.636  11.192  11.203  1.00  0.00    -0.313 NA
ATOM     21  H   UNL     1       7.074  11.392  12.114  1.00  0.00     0.186 HD
ENDBRANCH  19  20
ENDBRANCH  18  19
ENDBRANCH   3  18
TORSDOF 6
ENDMDL
MODEL 2
REMARK VINA RESULT:    -4.024      3.285      5.513
REMARK INTER + INTRA:          -5.562
REMARK INTER:                  -5.330
REMARK INTRA:                  -0.232
REMARK UNBOUND:                -0.244
REMARK SMILES [H]/N=C\C[C@H]1C[C@@H]1O[C@H]1CO[C@H]2C[C@@H](C3CC3)CCN2C1
REMARK SMILES IDX 7 1 6 2 5 3 8 4 9 5 14 6 13 7 18 8 12 9 19 10 20 11 11 12
REMARK SMILES IDX 21 13 10 14 15 15 16 16 17 17 4 18 3 19 2 20 1 21
REMARK H PARENT
ROOT
ATOM      1  C   UNL     1       9.198   9.326   2.711  1.00  0.00     0.122 C 
ATOM      2  C   UNL     1      10.605   9.259   3.236  1.00  0.00     0.039 C 
ATOM      3  C   UNL     1      10.357   9.256   1.754  1.00  0.00     0.026 C 
ENDROOT
BRANCH   1   4
ATOM      4  O   UNL     1       8.443   8.115   2.899  1.00  0.00    -0.371 OA
BRANCH   4   5
ATOM      5  C   UNL     1       8.030   7.845   4.248  1.00  0.00     0.158 C 
ATOM      6  C   UNL     1       3.269   5.962   3.249  1.00  0.00    -0.003 C 
ATOM      7  C   UNL     1       3.935   7.343   3.207  1.00  0.00     0.052 C 
ATOM      8  C   UNL     1       4.307   4.887   2.898  1.00  0.00     0.019 C 
ATOM      9  C   UNL     1       5.203   7.391   4.071  1.00  0.00     0.189 C 
ATOM     10  C   UNL     1       5.557   5.011   3.769  1.00  0.00     0.087 C 
ATOM     11  N   UNL     1       6.141   6.347   3.658  1.00  0.00    -0.276 NA
ATOM     12  O   UNL     1       5.754   8.700   3.915  1.00  0.00    -0.360 OA
ATOM     13  C   UNL     1       7.390   6.456   4.421  1.00  0.00     0.121 C 
ATOM     14  C   UNL     1       6.974   8.884   4.640  1.00  0.00     0.195 C 
BRANCH   6  15
ATOM     15  C   UNL     1       2.088   5.887   2.309  1.00  0.00    -0.008 C 
ATOM     16  C   UNL     1       0.762   5.347   2.790  1.00  0.00     0.004 C 
ATOM     17  C   UNL     1       0.904   6.809   2.478  1.00  0.00     0.004 C 
ENDBRANCH   6  15
ENDBRANCH   4   5
ENDBRANCH   1   4
BRANCH   3  18
ATOM     18  C   UNL     1      10.748  10.459   0.950  1.00  0.00     0.053 C 
BRANCH  18  19
ATOM     19  C   UNL     1      12.181  10.906   1.073  1.00  0.00     0.074 C 
BRANCH  19  20
ATOM     20  N   UNL     1      13.114  10.709   0.202  1.00  0.00    -0.313 NA
ATOM     21  H   UNL     1      12.959   9.841  -0.329  1.00  0.00     0.186 HD
ENDBRANCH  19  20
ENDBRANCH  18  19
ENDBRANCH   3  18
TORSDOF 6
ENDMDL
MODEL 3
REMARK VINA RESULT:    -3.873      3.514      6.121
REMARK INTER + INTRA:          -5.363
REMARK INTER:                  -5.226
REMARK INTRA:                  -0.138
REMARK UNBOUND:                -0.244
REMARK SMILES [H]/N=C\C[C@H]1C[C@@H]1O[C@H]1CO[C@H]2C[C@@H](C3CC3)CCN2C1
REMARK SMILES IDX 7 1 6 2 5 3 8 4 9 5 14 6 13 7 18 8 12 9 19 10 20 11 11 12
REMARK SMILES IDX 21 13 10 14 15 15 16 16 17 17 4 18 3 19 2 20 1 21
REMARK H PARENT
ROOT
ATOM      1  C   UNL     1      10.226  11.271  11.056  1.00  0.00     0.122 C 
ATOM      2  C   UNL     1      11.184  10.186  11.460  1.00  0.00     0.039 C 
ATOM      3  C   UNL     1      11.522  11.623  11.733  1.00  0.00     0.026 C 
ENDROOT
BRANCH   1   4
ATOM      4  O   UNL     1      10.159  11.496   9.635  1.00  0.00    -0.371 OA
BRANCH   4   5
ATOM      5  C   UNL     1       9.148  12.421   9.201  1.00  0.00     0.158 C 
ATOM      6  C   UNL     1       6.648   9.324   5.831  1.00  0.00    -0.003 C 
ATOM      7  C   UNL     1       7.998  10.051   5.861  1.00  0.00     0.052 C 
ATOM      8  C   UNL     1       6.263   8.910   7.258  1.00  0.00     0.019 C 
ATOM      9  C   UNL     1       8.000  11.208   6.870  1.00  0.00     0.189 C 
ATOM     10  C   UNL     1       6.318  10.098   8.218  1.00  0.00     0.087 C 
ATOM     11  N   UNL     1       7.640  10.723   8.202  1.00  0.00    -0.276 NA
ATOM     12  O   UNL     1       9.312  11.772   6.841  1.00  0.00    -0.360 OA
ATOM     13  C   UNL     1       7.736  11.811   9.182  1.00  0.00     0.121 C 
ATOM     14  C   UNL     1       9.479  12.849   7.768  1.00  0.00     0.195 C 
BRANCH   6  15
ATOM     15  C   UNL     1       6.688   8.117   4.920  1.00  0.00    -0.008 C 
ATOM     16  C   UNL     1       5.948   8.129   3.603  1.00  0.00     0.004 C 
ATOM     17  C   UNL     1       7.449   8.156   3.617  1.00  0.00     0.004 C 
ENDBRANCH   6  15
ENDBRANCH   4   5
ENDBRANCH   1   4
BRANCH   3  18
ATOM     18  C   UNL     1      11.526  12.113  13.151  1.00  0.00     0.053 C 
BRANCH  18  19
ATOM     19  C   UNL     1      11.713  13.595  13.344  1.00  0.00     0.074 C 
BRANCH  19  20
ATOM     20  N   UNL     1      11.307  14.520  12.539  1.00  0.00    -0.313 NA
ATOM     21  H   UNL     1      11.310  14.201  11.560  1.00  0.00     0.186 HD
ENDBRANCH  19  20
ENDBRANCH  18  19
ENDBRANCH   3  18
TORSDOF 6
ENDMDL
MODEL 4
REMARK VINA RESULT:    -3.849      5.175      8.413
REMARK INTER + INTRA:          -5.331
REMARK INTER:                  -5.161
REMARK INTRA:                  -0.170
REMARK UNBOUND:                -0.244
REMARK SMILES [H]/N=C\C[C@H]1C[C@@H]1O[C@H]1CO[C@H]2C[C@@H](C3CC3)CCN2C1
REMARK SMILES IDX 7 1 6 2 5 3 8 4 9 5 14 6 13 7 18 8 12 9 19 10 20 11 11 12
REMARK SMILES IDX 21 13 10 14 15 15 16 16 17 17 4 18 3 19 2 20 1 21
REMARK H PARENT
ROOT
ATOM      1  C   UNL     1       7.230   8.625   3.821  1.00  0.00     0.122 C 
ATOM      2  C   UNL     1       6.341   9.279   4.840  1.00  0.00     0.039 C 
ATOM      3  C   UNL     1       5.959   9.302   3.388  1.00  0.00     0.026 C 
ENDROOT
BRANCH   1   4
ATOM      4  O   UNL     1       8.457   9.335   3.569  1.00  0.00    -0.371 OA
BRANCH   4   5
ATOM      5  C   UNL     1       9.569   8.525   3.154  1.00  0.00     0.158 C 
ATOM      6  C   UNL     1      12.549  12.277   1.096  1.00  0.00    -0.003 C 
ATOM      7  C   UNL     1      11.249  11.567   0.700  1.00  0.00     0.052 C 
ATOM      8  C   UNL     1      12.634  12.366   2.626  1.00  0.00     0.019 C 
ATOM      9  C   UNL     1      11.097  10.217   1.414  1.00  0.00     0.189 C 
ATOM     10  C   UNL     1      12.441  10.996   3.276  1.00  0.00     0.087 C 
ATOM     11  N   UNL     1      11.173  10.395   2.864  1.00  0.00    -0.276 NA
ATOM     12  O   UNL     1       9.839   9.677   1.005  1.00  0.00    -0.360 OA
ATOM     13  C   UNL     1      10.933   9.119   3.547  1.00  0.00     0.121 C 
ATOM     14  C   UNL     1       9.539   8.423   1.626  1.00  0.00     0.195 C 
BRANCH   6  15
ATOM     15  C   UNL     1      12.638  13.655   0.478  1.00  0.00    -0.008 C 
ATOM     16  C   UNL     1      13.982  14.254   0.139  1.00  0.00     0.004 C 
ATOM     17  C   UNL     1      13.054  13.832  -0.962  1.00  0.00     0.004 C 
ENDBRANCH   6  15
ENDBRANCH   4   5
ENDBRANCH   1   4
BRANCH   3  18
ATOM     18  C   UNL     1       4.785   8.487   2.933  1.00  0.00     0.053 C 
BRANCH  18  19
ATOM     19  C   UNL     1       3.725   9.222   2.154  1.00  0.00     0.074 C 
BRANCH  19  20
ATOM     20  N   UNL     1       3.614  10.505   2.052  1.00  0.00    -0.313 NA
ATOM     21  H   UNL     1       2.640  10.813   2.181  1.00  0.00     0.186 HD
ENDBRANCH  19  20
ENDBRANCH  18  19
ENDBRANCH   3  18
TORSDOF 6
ENDMDL
MODEL 5
REMARK VINA RESULT:    -3.809      3.649      5.121
REMARK INTER + INTRA:          -5.278
REMARK INTER:                  -5.109
REMARK INTRA:                  -0.169
REMARK UNBOUND:                -0.244
REMARK SMILES [H]/N=C\C[C@H]1C[C@@H]1O[C@H]1CO[C@H]2C[C@@H](C3CC3)CCN2C1
REMARK SMILES IDX 7 1 6 2 5 3 8 4 9 5 14 6 13 7 18 8 12 9 19 10 20 11 11 12
REMARK SMILES IDX 21 13 10 14 15 15 16 16 17 17 4 18 3 19 2 20 1 21
REMARK H PARENT
ROOT
ATOM      1  C   UNL     1       7.875   9.678  10.706  1.00  0.00     0.122 C 
ATOM      2  C   UNL     1       8.108   8.545  11.666  1.00  0.00     0.039 C 
ATOM      3  C   UNL     1       9.272   9.344  11.153  1.00  0.00     0.026 C 
ENDROOT
BRANCH   1   4
ATOM      4  O   UNL     1       7.504   9.256   9.379  1.00  0.00    -0.371 OA
BRANCH   4   5
ATOM      5  C   UNL     1       6.623  10.143   8.671  1.00  0.00     0.158 C 
ATOM      6  C   UNL     1       8.020   8.906   3.800  1.00  0.00    -0.003 C 
ATOM      7  C   UNL     1       8.658   9.674   4.964  1.00  0.00     0.052 C 
ATOM      8  C   UNL     1       7.135   7.783   4.358  1.00  0.00     0.019 C 
ATOM      9  C   UNL     1       7.607  10.150   5.976  1.00  0.00     0.189 C 
ATOM     10  C   UNL     1       6.135   8.317   5.384  1.00  0.00     0.087 C 
ATOM     11  N   UNL     1       6.823   9.018   6.468  1.00  0.00    -0.276 NA
ATOM     12  O   UNL     1       8.320  10.806   7.027  1.00  0.00    -0.360 OA
ATOM     13  C   UNL     1       5.884   9.461   7.506  1.00  0.00     0.121 C 
ATOM     14  C   UNL     1       7.466  11.275   8.075  1.00  0.00     0.195 C 
BRANCH   6  15
ATOM     15  C   UNL     1       9.067   8.342   2.867  1.00  0.00    -0.008 C 
ATOM     16  C   UNL     1       9.619   9.184   1.740  1.00  0.00     0.004 C 
ATOM     17  C   UNL     1      10.492   8.840   2.912  1.00  0.00     0.004 C 
ENDBRANCH   6  15
ENDBRANCH   4   5
ENDBRANCH   1   4
BRANCH   3  18
ATOM     18  C   UNL     1      10.001  10.254  12.096  1.00  0.00     0.053 C 
BRANCH  18  19
ATOM     19  C   UNL     1      11.288  10.849  11.586  1.00  0.00     0.074 C 
BRANCH  19  20
ATOM     20  N   UNL     1      11.725  10.781  10.372  1.00  0.00    -0.313 NA
ATOM     21  H   UNL     1      12.679  10.395  10.333  1.00  0.00     0.186 HD
ENDBRANCH  19  20
ENDBRANCH  18  19
ENDBRANCH   3  18
TORSDOF 6
ENDMDL
MODEL 6
REMARK VINA RESULT:    -3.683      8.872     10.608
REMARK INTER + INTRA:          -5.112
REMARK INTER:                  -4.766
REMARK INTRA:                  -0.346
REMARK UNBOUND:                -0.244
REMARK SMILES [H]/N=C\C[C@H]1C[C@@H]1O[C@H]1CO[C@H]2C[C@@H](C3CC3)CCN2C1
REMARK SMILES IDX 7 1 6 2 5 3 8 4 9 5 14 6 13 7 18 8 12 9 19 10 20 11 11 12
REMARK SMILES IDX 21 13 10 14 15 15 16 16 17 17 4 18 3 19 2 20 1 21
REMARK H PARENT
ROOT
ATOM      1  C   UNL     1       8.261  12.310  13.036  1.00  0.00     0.122 C 
ATOM      2  C   UNL     1       6.898  11.707  13.224  1.00  0.00     0.039 C 
ATOM      3  C   UNL     1       7.872  11.074  12.272  1.00  0.00     0.026 C 
ENDROOT
BRANCH   1   4
ATOM      4  O   UNL     1       8.258  13.549  12.301  1.00  0.00    -0.371 OA
BRANCH   4   5
ATOM      5  C   UNL     1       9.234  14.518  12.718  1.00  0.00     0.158 C 
ATOM      6  C   UNL     1      12.185  14.556   8.417  1.00  0.00    -0.003 C 
ATOM      7  C   UNL     1      11.941  13.578   9.573  1.00  0.00     0.052 C 
ATOM      8  C   UNL     1      10.897  15.342   8.137  1.00  0.00     0.019 C 
ATOM      9  C   UNL     1      11.358  14.285  10.804  1.00  0.00     0.189 C 
ATOM     10  C   UNL     1      10.351  15.992   9.408  1.00  0.00     0.087 C 
ATOM     11  N   UNL     1      10.127  14.993  10.452  1.00  0.00    -0.276 NA
ATOM     12  O   UNL     1      11.133  13.273  11.788  1.00  0.00    -0.360 OA
ATOM     13  C   UNL     1       9.522  15.588  11.649  1.00  0.00     0.121 C 
ATOM     14  C   UNL     1      10.550  13.782  12.991  1.00  0.00     0.195 C 
BRANCH   6  15
ATOM     15  C   UNL     1      12.650  13.838   7.171  1.00  0.00    -0.008 C 
ATOM     16  C   UNL     1      14.053  14.044   6.649  1.00  0.00     0.004 C 
ATOM     17  C   UNL     1      13.668  12.725   7.254  1.00  0.00     0.004 C 
ENDBRANCH   6  15
ENDBRANCH   4   5
ENDBRANCH   1   4
BRANCH   3  18
ATOM     18  C   UNL     1       8.475   9.747  12.624  1.00  0.00     0.053 C 
BRANCH  18  19
ATOM     19  C   UNL     1       9.088   8.971  11.487  1.00  0.00     0.074 C 
BRANCH  19  20
ATOM     20  N   UNL     1      10.333   8.984  11.147  1.00  0.00    -0.313 NA
ATOM     21  H   UNL     1      10.853   8.208  11.580  1.00  0.00     0.186 HD
ENDBRANCH  19  20
ENDBRANCH  18  19
ENDBRANCH   3  18
TORSDOF 6
ENDMDL
MODEL 7
REMARK VINA RESULT:    -3.601      5.933      8.976
REMARK INTER + INTRA:          -5.004
REMARK INTER:                  -4.786
REMARK INTRA:                  -0.217
REMARK UNBOUND:                -0.244
REMARK SMILES [H]/N=C\C[C@H]1C[C@@H]1O[C@H]1CO[C@H]2C[C@@H](C3CC3)CCN2C1
REMARK SMILES IDX 7 1 6 2 5 3 8 4 9 5 14 6 13 7 18 8 12 9 19 10 20 11 11 12
REMARK SMILES IDX 21 13 10 14 15 15 16 16 17 17 4 18 3 19 2 20 1 21
REMARK H PARENT
ROOT
ATOM      1  C   UNL     1      11.546  14.469  10.062  1.00  0.00     0.122 C 
ATOM      2  C   UNL     1      12.962  14.744   9.642  1.00  0.00     0.039 C 
ATOM      3  C   UNL     1      12.162  13.687   8.935  1.00  0.00     0.026 C 
ENDROOT
BRANCH   1   4
ATOM      4  O   UNL     1      11.430  13.793  11.329  1.00  0.00    -0.371 OA
BRANCH   4   5
ATOM      5  C   UNL     1      10.220  14.052  12.060  1.00  0.00     0.158 C 
ATOM      6  C   UNL     1       7.195  10.401   9.887  1.00  0.00    -0.003 C 
ATOM      7  C   UNL     1       7.794  11.740   9.440  1.00  0.00     0.052 C 
ATOM      8  C   UNL     1       8.154   9.721  10.874  1.00  0.00     0.019 C 
ATOM      9  C   UNL     1       8.185  12.618  10.637  1.00  0.00     0.189 C 
ATOM     10  C   UNL     1       8.530  10.658  12.022  1.00  0.00     0.087 C 
ATOM     11  N   UNL     1       9.110  11.901  11.514  1.00  0.00    -0.276 NA
ATOM     12  O   UNL     1       8.767  13.806  10.099  1.00  0.00    -0.360 OA
ATOM     13  C   UNL     1       9.557  12.774  12.605  1.00  0.00     0.121 C 
ATOM     14  C   UNL     1       9.220  14.714  11.108  1.00  0.00     0.195 C 
BRANCH   6  15
ATOM     15  C   UNL     1       6.918   9.496   8.708  1.00  0.00    -0.008 C 
ATOM     16  C   UNL     1       5.597   9.574   7.979  1.00  0.00     0.004 C 
ATOM     17  C   UNL     1       6.851  10.051   7.306  1.00  0.00     0.004 C 
ENDBRANCH   6  15
ENDBRANCH   4   5
ENDBRANCH   1   4
BRANCH   3  18
ATOM     18  C   UNL     1      11.728  13.928   7.521  1.00  0.00     0.053 C 
BRANCH  18  19
ATOM     19  C   UNL     1      10.707  12.970   6.964  1.00  0.00     0.074 C 
BRANCH  19  20
ATOM     20  N   UNL     1       9.528  13.281   6.541  1.00  0.00    -0.313 NA
ATOM     21  H   UNL     1       9.553  14.095   5.910  1.00  0.00     0.186 HD
ENDBRANCH  19  20
ENDBRANCH  18  19
ENDBRANCH   3  18
TORSDOF 6
ENDMDL
MODEL 8
REMARK VINA RESULT:    -3.598      7.332     11.060
REMARK INTER + INTRA:          -4.999
REMARK INTER:                  -4.665
REMARK INTRA:                  -0.335
REMARK UNBOUND:                -0.244
REMARK SMILES [H]/N=C\C[C@H]1C[C@@H]1O[C@H]1CO[C@H]2C[C@@H](C3CC3)CCN2C1
REMARK SMILES IDX 7 1 6 2 5 3 8 4 9 5 14 6 13 7 18 8 12 9 19 10 20 11 11 12
REMARK SMILES IDX 21 13 10 14 15 15 16 16 17 17 4 18 3 19 2 20 1 21
REMARK H PARENT
ROOT
ATOM      1  C   UNL     1      13.020  12.404   1.198  1.00  0.00     0.122 C 
ATOM      2  C   UNL     1      13.338  11.479   0.058  1.00  0.00     0.039 C 
ATOM      3  C   UNL     1      12.652  10.948   1.284  1.00  0.00     0.026 C 
ENDROOT
BRANCH   1   4
ATOM      4  O   UNL     1      14.173  12.823   1.953  1.00  0.00    -0.371 OA
BRANCH   4   5
ATOM      5  C   UNL     1      14.182  14.203   2.355  1.00  0.00     0.158 C 
ATOM      6  C   UNL     1      13.032  13.557   7.401  1.00  0.00    -0.003 C 
ATOM      7  C   UNL     1      12.269  13.437   6.077  1.00  0.00     0.052 C 
ATOM      8  C   UNL     1      14.500  13.168   7.178  1.00  0.00     0.019 C 
ATOM      9  C   UNL     1      12.958  14.217   4.949  1.00  0.00     0.189 C 
ATOM     10  C   UNL     1      15.117  13.954   6.021  1.00  0.00     0.087 C 
ATOM     11  N   UNL     1      14.343  13.773   4.793  1.00  0.00    -0.276 NA
ATOM     12  O   UNL     1      12.187  13.993   3.767  1.00  0.00    -0.360 OA
ATOM     13  C   UNL     1      14.970  14.451   3.653  1.00  0.00     0.121 C 
ATOM     14  C   UNL     1      12.734  14.634   2.611  1.00  0.00     0.195 C 
BRANCH   6  15
ATOM     15  C   UNL     1      12.413  12.695   8.479  1.00  0.00    -0.008 C 
ATOM     16  C   UNL     1      11.864  13.324   9.738  1.00  0.00     0.004 C 
ATOM     17  C   UNL     1      10.925  12.723   8.732  1.00  0.00     0.004 C 
ENDBRANCH   6  15
ENDBRANCH   4   5
ENDBRANCH   1   4
BRANCH   3  18
ATOM     18  C   UNL     1      11.217  10.524   1.188  1.00  0.00     0.053 C 
BRANCH  18  19
ATOM     19  C   UNL     1      10.679   9.724   2.345  1.00  0.00     0.074 C 
BRANCH  19  20
ATOM     20  N   UNL     1      10.779  10.038   3.594  1.00  0.00    -0.313 NA
ATOM     21  H   UNL     1      10.182   9.441   4.185  1.00  0.00     0.186 HD
ENDBRANCH  19  20
ENDBRANCH  18  19
ENDBRANCH   3  18
TORSDOF 6
ENDMDL
MODEL 9
REMARK VINA RESULT:    -3.531      7.805     10.594
REMARK INTER + INTRA:          -4.911
REMARK INTER:                  -4.293
REMARK INTRA:                  -0.618
REMARK UNBOUND:                -0.244
REMARK SMILES [H]/N=C\C[C@H]1C[C@@H]1O[C@H]1CO[C@H]2C[C@@H](C3CC3)CCN2C1
REMARK SMILES IDX 7 1 6 2 5 3 8 4 9 5 14 6 13 7 18 8 12 9 19 10 20 11 11 12
REMARK SMILES IDX 21 13 10 14 15 15 16 16 17 17 4 18 3 19 2 20 1 21
REMARK H PARENT
ROOT
ATOM      1  C   UNL     1      13.835  13.627   6.875  1.00  0.00     0.122 C 
ATOM      2  C   UNL     1      15.169  13.035   6.515  1.00  0.00     0.039 C 
ATOM      3  C   UNL     1      13.958  12.152   6.605  1.00  0.00     0.026 C 
ENDROOT
BRANCH   1   4
ATOM      4  O   UNL     1      13.722  14.022   8.256  1.00  0.00    -0.371 OA
BRANCH   4   5
ATOM      5  C   UNL     1      12.596  14.858   8.570  1.00  0.00     0.158 C 
ATOM      6  C   UNL     1      10.102  11.622  11.813  1.00  0.00    -0.003 C 
ATOM      7  C   UNL     1      10.352  11.685  10.301  1.00  0.00     0.052 C 
ATOM      8  C   UNL     1      11.303  12.229  12.551  1.00  0.00     0.019 C 
ATOM      9  C   UNL     1      10.717  13.103   9.842  1.00  0.00     0.189 C 
ATOM     10  C   UNL     1      11.635  13.625  12.025  1.00  0.00     0.087 C 
ATOM     11  N   UNL     1      11.878  13.596  10.582  1.00  0.00    -0.276 NA
ATOM     12  O   UNL     1      10.970  13.026   8.438  1.00  0.00    -0.360 OA
ATOM     13  C   UNL     1      12.284  14.912  10.076  1.00  0.00     0.121 C 
ATOM     14  C   UNL     1      11.363  14.279   7.869  1.00  0.00     0.195 C 
BRANCH   6  15
ATOM     15  C   UNL     1       9.855  10.204  12.276  1.00  0.00    -0.008 C 
ATOM     16  C   UNL     1       8.513   9.809  12.844  1.00  0.00     0.004 C 
ATOM     17  C   UNL     1       8.940   9.286  11.503  1.00  0.00     0.004 C 
ENDBRANCH   6  15
ENDBRANCH   4   5
ENDBRANCH   1   4
BRANCH   3  18
ATOM     18  C   UNL     1      13.392  11.565   5.347  1.00  0.00     0.053 C 
BRANCH  18  19
ATOM     19  C   UNL     1      12.082  10.832   5.484  1.00  0.00     0.074 C 
BRANCH  19  20
ATOM     20  N   UNL     1      11.001  11.305   6.009  1.00  0.00    -0.313 NA
ATOM     21  H   UNL     1      10.246  10.606   6.017  1.00  0.00     0.186 HD
ENDBRANCH  19  20
ENDBRANCH  18  19
ENDBRANCH   3  18
TORSDOF 6
ENDMDL
