MODEL 1
REMARK VINA RESULT:    -6.154      0.000      0.000
REMARK INTER + INTRA:          -7.617
REMARK INTER:                  -7.233
REMARK INTRA:                  -0.384
REMARK UNBOUND:                -0.384
REMARK SMILES Cc1ccc(CNC(=O)NC(=O)c2ccc(C)cc2)cc1
REMARK SMILES IDX 11 1 12 2 10 3 8 4 9 5 7 6 13 9 19 10 18 11 14 12 16 13
REMARK SMILES IDX 15 14 17 15 6 16 5 17 4 18 20 19 3 20 21 21 2 22 1 23
REMARK H PARENT 10 7 7 8
ROOT
ATOM      1  C   UNL     1       5.541   9.509  -2.853  1.00  0.00     0.259 C 
ATOM      2  O   UNL     1       6.602   8.927  -3.026  1.00  0.00    -0.269 OA
ATOM      3  N   UNL     1       5.297  10.885  -2.788  1.00  0.00    -0.274 N 
ATOM      4  C   UNL     1       5.959  12.046  -3.093  1.00  0.00     0.321 C 
ATOM      5  O   UNL     1       5.326  13.105  -3.013  1.00  0.00    -0.248 OA
ATOM      6  N   UNL     1       7.241  12.087  -3.500  1.00  0.00    -0.334 N 
ATOM      7  H   UNL     1       4.331  11.129  -2.614  1.00  0.00     0.175 HD
ATOM      8  H   UNL     1       7.554  13.010  -3.767  1.00  0.00     0.165 HD
ENDROOT
BRANCH   1   9
ATOM      9  C   UNL     1       4.342   8.663  -2.694  1.00  0.00     0.040 A 
ATOM     10  C   UNL     1       3.834   8.351  -1.432  1.00  0.00     0.014 A 
ATOM     11  C   UNL     1       2.668   7.591  -1.333  1.00  0.00     0.004 A 
ATOM     12  C   UNL     1       3.726   8.173  -3.850  1.00  0.00     0.014 A 
ATOM     13  C   UNL     1       2.013   7.138  -2.488  1.00  0.00    -0.051 A 
ATOM     14  C   UNL     1       2.558   7.420  -3.747  1.00  0.00     0.004 A 
ATOM     15  C   UNL     1       0.715   6.395  -2.368  1.00  0.00     0.044 C 
ENDBRANCH   1   9
BRANCH   6  16
ATOM     16  C   UNL     1       8.115  10.978  -3.757  1.00  0.00     0.153 C 
BRANCH  16  17
ATOM     17  C   UNL     1       9.253  11.202  -4.713  1.00  0.00    -0.029 A 
ATOM     18  C   UNL     1       9.441  10.439  -5.870  1.00  0.00     0.006 A 
ATOM     19  C   UNL     1      10.025  12.362  -4.533  1.00  0.00     0.006 A 
ATOM     20  C   UNL     1      10.367  10.847  -6.836  1.00  0.00     0.004 A 
ATOM     21  C   UNL     1      10.942  12.769  -5.496  1.00  0.00     0.004 A 
ATOM     22  C   UNL     1      11.114  12.020  -6.662  1.00  0.00    -0.051 A 
ATOM     23  C   UNL     1      12.001  12.539  -7.753  1.00  0.00     0.044 C 
ENDBRANCH  16  17
ENDBRANCH   6  16
TORSDOF 3
ENDMDL
MODEL 2
REMARK VINA RESULT:    -6.145      3.250      5.582
REMARK INTER + INTRA:          -7.606
REMARK INTER:                  -7.220
REMARK INTRA:                  -0.386
REMARK UNBOUND:                -0.384
REMARK SMILES Cc1ccc(CNC(=O)NC(=O)c2ccc(C)cc2)cc1
REMARK SMILES IDX 11 1 12 2 10 3 8 4 9 5 7 6 13 9 19 10 18 11 14 12 16 13
REMARK SMILES IDX 15 14 17 15 6 16 5 17 4 18 20 19 3 20 21 21 2 22 1 23
REMARK H PARENT 10 7 7 8
ROOT
ATOM      1  C   UNL     1       5.334   9.699  -2.562  1.00  0.00     0.259 C 
ATOM      2  O   UNL     1       4.273  10.290  -2.419  1.00  0.00    -0.269 OA
ATOM      3  N   UNL     1       6.528  10.167  -3.121  1.00  0.00    -0.274 N 
ATOM      4  C   UNL     1       7.077  11.373  -3.476  1.00  0.00     0.321 C 
ATOM      5  O   UNL     1       8.261  11.382  -3.829  1.00  0.00    -0.248 OA
ATOM      6  N   UNL     1       6.405  12.538  -3.430  1.00  0.00    -0.334 N 
ATOM      7  H   UNL     1       7.271   9.482  -3.150  1.00  0.00     0.175 HD
ATOM      8  H   UNL     1       6.975  13.345  -3.640  1.00  0.00     0.165 HD
ENDROOT
BRANCH   1   9
ATOM      9  C   UNL     1       5.384   8.305  -2.082  1.00  0.00     0.040 A 
ATOM     10  C   UNL     1       5.184   7.229  -2.949  1.00  0.00     0.014 A 
ATOM     11  C   UNL     1       5.293   5.927  -2.459  1.00  0.00     0.004 A 
ATOM     12  C   UNL     1       5.632   8.087  -0.723  1.00  0.00     0.014 A 
ATOM     13  C   UNL     1       5.593   5.697  -1.108  1.00  0.00    -0.051 A 
ATOM     14  C   UNL     1       5.746   6.785  -0.240  1.00  0.00     0.004 A 
ATOM     15  C   UNL     1       5.790   4.293  -0.616  1.00  0.00     0.044 C 
ENDBRANCH   1   9
BRANCH   6  16
ATOM     16  C   UNL     1       5.069  12.761  -2.955  1.00  0.00     0.153 C 
BRANCH  16  17
ATOM     17  C   UNL     1       4.738  14.136  -2.443  1.00  0.00    -0.029 A 
ATOM     18  C   UNL     1       4.302  14.380  -1.137  1.00  0.00     0.006 A 
ATOM     19  C   UNL     1       5.089  15.226  -3.257  1.00  0.00     0.006 A 
ATOM     20  C   UNL     1       4.244  15.691  -0.652  1.00  0.00     0.004 A 
ATOM     21  C   UNL     1       5.035  16.529  -2.771  1.00  0.00     0.004 A 
ATOM     22  C   UNL     1       4.622  16.772  -1.460  1.00  0.00    -0.051 A 
ATOM     23  C   UNL     1       4.698  18.162  -0.904  1.00  0.00     0.044 C 
ENDBRANCH  16  17
ENDBRANCH   6  16
TORSDOF 3
ENDMDL
MODEL 3
REMARK VINA RESULT:    -6.020      3.152      7.282
REMARK INTER + INTRA:          -7.460
REMARK INTER:                  -6.970
REMARK INTRA:                  -0.490
REMARK UNBOUND:                -0.384
REMARK SMILES Cc1ccc(CNC(=O)NC(=O)c2ccc(C)cc2)cc1
REMARK SMILES IDX 11 1 12 2 10 3 8 4 9 5 7 6 13 9 19 10 18 11 14 12 16 13
REMARK SMILES IDX 15 14 17 15 6 16 5 17 4 18 20 19 3 20 21 21 2 22 1 23
REMARK H PARENT 10 7 7 8
ROOT
ATOM      1  C   UNL     1       5.147  12.579  -2.466  1.00  0.00     0.259 C 
ATOM      2  O   UNL     1       4.274  11.799  -2.112  1.00  0.00    -0.269 OA
ATOM      3  N   UNL     1       6.378  12.301  -3.068  1.00  0.00    -0.274 N 
ATOM      4  C   UNL     1       6.988  11.238  -3.684  1.00  0.00     0.321 C 
ATOM      5  O   UNL     1       8.080  11.438  -4.226  1.00  0.00    -0.248 OA
ATOM      6  N   UNL     1       6.447  10.007  -3.753  1.00  0.00    -0.334 N 
ATOM      7  H   UNL     1       6.946  13.117  -3.252  1.00  0.00     0.175 HD
ATOM      8  H   UNL     1       6.980   9.359  -4.313  1.00  0.00     0.165 HD
ENDROOT
BRANCH   1   9
ATOM      9  C   UNL     1       4.882  14.014  -2.242  1.00  0.00     0.040 A 
ATOM     10  C   UNL     1       4.281  14.468  -1.066  1.00  0.00     0.014 A 
ATOM     11  C   UNL     1       4.099  15.838  -0.877  1.00  0.00     0.004 A 
ATOM     12  C   UNL     1       5.244  14.914  -3.249  1.00  0.00     0.014 A 
ATOM     13  C   UNL     1       4.506  16.753  -1.859  1.00  0.00    -0.051 A 
ATOM     14  C   UNL     1       5.065  16.282  -3.053  1.00  0.00     0.004 A 
ATOM     15  C   UNL     1       4.381  18.227  -1.604  1.00  0.00     0.044 C 
ENDBRANCH   1   9
BRANCH   6  16
ATOM     16  C   UNL     1       5.155   9.591  -3.285  1.00  0.00     0.153 C 
BRANCH  16  17
ATOM     17  C   UNL     1       5.075   8.278  -2.557  1.00  0.00    -0.029 A 
ATOM     18  C   UNL     1       4.850   7.059  -3.204  1.00  0.00     0.006 A 
ATOM     19  C   UNL     1       5.452   8.269  -1.204  1.00  0.00     0.006 A 
ATOM     20  C   UNL     1       5.026   5.856  -2.512  1.00  0.00     0.004 A 
ATOM     21  C   UNL     1       5.631   7.071  -0.518  1.00  0.00     0.004 A 
ATOM     22  C   UNL     1       5.429   5.853  -1.170  1.00  0.00    -0.051 A 
ATOM     23  C   UNL     1       5.757   4.572  -0.464  1.00  0.00     0.044 C 
ENDBRANCH  16  17
ENDBRANCH   6  16
TORSDOF 3
ENDMDL
MODEL 4
REMARK VINA RESULT:    -5.922      0.589      7.964
REMARK INTER + INTRA:          -7.345
REMARK INTER:                  -6.833
REMARK INTRA:                  -0.512
REMARK UNBOUND:                -0.384
REMARK SMILES Cc1ccc(CNC(=O)NC(=O)c2ccc(C)cc2)cc1
REMARK SMILES IDX 11 1 12 2 10 3 8 4 9 5 7 6 13 9 19 10 18 11 14 12 16 13
REMARK SMILES IDX 15 14 17 15 6 16 5 17 4 18 20 19 3 20 21 21 2 22 1 23
REMARK H PARENT 10 7 7 8
ROOT
ATOM      1  C   UNL     1       7.859  10.769  -4.090  1.00  0.00     0.259 C 
ATOM      2  O   UNL     1       7.756   9.582  -3.816  1.00  0.00    -0.269 OA
ATOM      3  N   UNL     1       6.997  11.821  -3.762  1.00  0.00    -0.274 N 
ATOM      4  C   UNL     1       5.949  12.043  -2.906  1.00  0.00     0.321 C 
ATOM      5  O   UNL     1       5.520  13.198  -2.812  1.00  0.00    -0.248 OA
ATOM      6  N   UNL     1       5.390  11.080  -2.149  1.00  0.00    -0.334 N 
ATOM      7  H   UNL     1       7.283  12.722  -4.122  1.00  0.00     0.175 HD
ATOM      8  H   UNL     1       4.687  11.423  -1.510  1.00  0.00     0.165 HD
ENDROOT
BRANCH   1   9
ATOM      9  C   UNL     1       9.047  11.167  -4.869  1.00  0.00     0.040 A 
ATOM     10  C   UNL     1       9.477  10.426  -5.971  1.00  0.00     0.014 A 
ATOM     11  C   UNL     1      10.575  10.871  -6.708  1.00  0.00     0.004 A 
ATOM     12  C   UNL     1       9.742  12.312  -4.467  1.00  0.00     0.014 A 
ATOM     13  C   UNL     1      11.248  12.047  -6.344  1.00  0.00    -0.051 A 
ATOM     14  C   UNL     1      10.835  12.756  -5.210  1.00  0.00     0.004 A 
ATOM     15  C   UNL     1      12.373  12.557  -7.196  1.00  0.00     0.044 C 
ENDBRANCH   1   9
BRANCH   6  16
ATOM     16  C   UNL     1       5.801   9.710  -2.030  1.00  0.00     0.153 C 
BRANCH  16  17
ATOM     17  C   UNL     1       4.734   8.657  -2.144  1.00  0.00    -0.029 A 
ATOM     18  C   UNL     1       4.151   8.038  -1.034  1.00  0.00     0.006 A 
ATOM     19  C   UNL     1       4.164   8.454  -3.412  1.00  0.00     0.006 A 
ATOM     20  C   UNL     1       3.005   7.251  -1.193  1.00  0.00     0.004 A 
ATOM     21  C   UNL     1       3.021   7.675  -3.567  1.00  0.00     0.004 A 
ATOM     22  C   UNL     1       2.426   7.075  -2.457  1.00  0.00    -0.051 A 
ATOM     23  C   UNL     1       1.121   6.353  -2.614  1.00  0.00     0.044 C 
ENDBRANCH  16  17
ENDBRANCH   6  16
TORSDOF 3
ENDMDL
MODEL 5
REMARK VINA RESULT:    -5.067      1.299      1.492
REMARK INTER + INTRA:          -6.339
REMARK INTER:                  -5.878
REMARK INTRA:                  -0.461
REMARK UNBOUND:                -0.384
REMARK SMILES Cc1ccc(CNC(=O)NC(=O)c2ccc(C)cc2)cc1
REMARK SMILES IDX 11 1 12 2 10 3 8 4 9 5 7 6 13 9 19 10 18 11 14 12 16 13
REMARK SMILES IDX 15 14 17 15 6 16 5 17 4 18 20 19 3 20 21 21 2 22 1 23
REMARK H PARENT 10 7 7 8
ROOT
ATOM      1  C   UNL     1       5.689   9.113  -2.173  1.00  0.00     0.259 C 
ATOM      2  O   UNL     1       6.888   8.951  -1.996  1.00  0.00    -0.269 OA
ATOM      3  N   UNL     1       5.018  10.250  -2.634  1.00  0.00    -0.274 N 
ATOM      4  C   UNL     1       5.335  11.432  -3.252  1.00  0.00     0.321 C 
ATOM      5  O   UNL     1       4.402  12.148  -3.633  1.00  0.00    -0.248 OA
ATOM      6  N   UNL     1       6.598  11.834  -3.488  1.00  0.00    -0.334 N 
ATOM      7  H   UNL     1       4.013  10.152  -2.677  1.00  0.00     0.175 HD
ATOM      8  H   UNL     1       6.660  12.685  -4.028  1.00  0.00     0.165 HD
ENDROOT
BRANCH   1   9
ATOM      9  C   UNL     1       4.815   7.963  -1.868  1.00  0.00     0.040 A 
ATOM     10  C   UNL     1       3.426   8.096  -1.826  1.00  0.00     0.014 A 
ATOM     11  C   UNL     1       2.639   6.970  -1.586  1.00  0.00     0.004 A 
ATOM     12  C   UNL     1       5.420   6.728  -1.613  1.00  0.00     0.014 A 
ATOM     13  C   UNL     1       3.233   5.716  -1.381  1.00  0.00    -0.051 A 
ATOM     14  C   UNL     1       4.629   5.605  -1.380  1.00  0.00     0.004 A 
ATOM     15  C   UNL     1       2.371   4.500  -1.208  1.00  0.00     0.044 C 
ENDBRANCH   1   9
BRANCH   6  16
ATOM     16  C   UNL     1       7.810  11.112  -3.224  1.00  0.00     0.153 C 
BRANCH  16  17
ATOM     17  C   UNL     1       8.888  11.167  -4.270  1.00  0.00    -0.029 A 
ATOM     18  C   UNL     1       8.964  10.264  -5.336  1.00  0.00     0.006 A 
ATOM     19  C   UNL     1       9.718  12.299  -4.280  1.00  0.00     0.006 A 
ATOM     20  C   UNL     1       9.837  10.510  -6.401  1.00  0.00     0.004 A 
ATOM     21  C   UNL     1      10.583  12.545  -5.342  1.00  0.00     0.004 A 
ATOM     22  C   UNL     1      10.642  11.658  -6.418  1.00  0.00    -0.051 A 
ATOM     23  C   UNL     1      11.473  12.001  -7.618  1.00  0.00     0.044 C 
ENDBRANCH  16  17
ENDBRANCH   6  16
TORSDOF 3
ENDMDL
MODEL 6
REMARK VINA RESULT:    -4.630      5.165      8.156
REMARK INTER + INTRA:          -5.826
REMARK INTER:                  -5.379
REMARK INTRA:                  -0.447
REMARK UNBOUND:                -0.384
REMARK SMILES Cc1ccc(CNC(=O)NC(=O)c2ccc(C)cc2)cc1
REMARK SMILES IDX 11 1 12 2 10 3 8 4 9 5 7 6 13 9 19 10 18 11 14 12 16 13
REMARK SMILES IDX 15 14 17 15 6 16 5 17 4 18 20 19 3 20 21 21 2 22 1 23
REMARK H PARENT 10 7 7 8
ROOT
ATOM      1  C   UNL     1      11.700  12.077  -7.619  1.00  0.00     0.259 C 
ATOM      2  O   UNL     1      11.328  12.968  -8.369  1.00  0.00    -0.269 OA
ATOM      3  N   UNL     1      12.868  11.310  -7.681  1.00  0.00    -0.274 N 
ATOM      4  C   UNL     1      14.072  11.350  -8.336  1.00  0.00     0.321 C 
ATOM      5  O   UNL     1      14.932  10.525  -8.006  1.00  0.00    -0.248 OA
ATOM      6  N   UNL     1      14.372  12.252  -9.289  1.00  0.00    -0.334 N 
ATOM      7  H   UNL     1      12.948  10.612  -6.954  1.00  0.00     0.175 HD
ATOM      8  H   UNL     1      15.328  12.201  -9.610  1.00  0.00     0.165 HD
ENDROOT
BRANCH   1   9
ATOM      9  C   UNL     1      10.813  11.756  -6.484  1.00  0.00     0.040 A 
ATOM     10  C   UNL     1      10.740  12.581  -5.360  1.00  0.00     0.014 A 
ATOM     11  C   UNL     1       9.847  12.264  -4.336  1.00  0.00     0.004 A 
ATOM     12  C   UNL     1      10.044  10.590  -6.561  1.00  0.00     0.014 A 
ATOM     13  C   UNL     1       9.034  11.124  -4.427  1.00  0.00    -0.051 A 
ATOM     14  C   UNL     1       9.149  10.281  -5.539  1.00  0.00     0.004 A 
ATOM     15  C   UNL     1       8.020  10.843  -3.358  1.00  0.00     0.044 C 
ENDBRANCH   1   9
BRANCH   6  16
ATOM     16  C   UNL     1      13.564  13.348  -9.742  1.00  0.00     0.153 C 
BRANCH  16  17
ATOM     17  C   UNL     1      13.960  14.728  -9.296  1.00  0.00    -0.029 A 
ATOM     18  C   UNL     1      13.440  15.894  -9.868  1.00  0.00     0.006 A 
ATOM     19  C   UNL     1      14.721  14.831  -8.120  1.00  0.00     0.006 A 
ATOM     20  C   UNL     1      13.660  17.133  -9.256  1.00  0.00     0.004 A 
ATOM     21  C   UNL     1      14.935  16.062  -7.510  1.00  0.00     0.004 A 
ATOM     22  C   UNL     1      14.398  17.224  -8.067  1.00  0.00    -0.051 A 
ATOM     23  C   UNL     1      14.517  18.524  -7.331  1.00  0.00     0.044 C 
ENDBRANCH  16  17
ENDBRANCH   6  16
TORSDOF 3
ENDMDL
MODEL 7
REMARK VINA RESULT:    -4.550      2.134      3.774
REMARK INTER + INTRA:          -5.732
REMARK INTER:                  -5.292
REMARK INTRA:                  -0.440
REMARK UNBOUND:                -0.384
REMARK SMILES Cc1ccc(CNC(=O)NC(=O)c2ccc(C)cc2)cc1
REMARK SMILES IDX 11 1 12 2 10 3 8 4 9 5 7 6 13 9 19 10 18 11 14 12 16 13
REMARK SMILES IDX 15 14 17 15 6 16 5 17 4 18 20 19 3 20 21 21 2 22 1 23
REMARK H PARENT 10 7 7 8
ROOT
ATOM      1  C   UNL     1       8.435  10.889  -4.134  1.00  0.00     0.259 C 
ATOM      2  O   UNL     1       9.123  10.064  -4.719  1.00  0.00    -0.269 OA
ATOM      3  N   UNL     1       8.675  12.254  -3.947  1.00  0.00    -0.274 N 
ATOM      4  C   UNL     1       9.509  13.216  -4.457  1.00  0.00     0.321 C 
ATOM      5  O   UNL     1       9.314  14.386  -4.113  1.00  0.00    -0.248 OA
ATOM      6  N   UNL     1      10.501  12.954  -5.329  1.00  0.00    -0.334 N 
ATOM      7  H   UNL     1       7.966  12.732  -3.406  1.00  0.00     0.175 HD
ATOM      8  H   UNL     1      10.967  13.781  -5.674  1.00  0.00     0.165 HD
ENDROOT
BRANCH   1   9
ATOM      9  C   UNL     1       7.176  10.399  -3.543  1.00  0.00     0.040 A 
ATOM     10  C   UNL     1       5.974  10.437  -4.253  1.00  0.00     0.014 A 
ATOM     11  C   UNL     1       4.819   9.913  -3.671  1.00  0.00     0.004 A 
ATOM     12  C   UNL     1       7.214   9.897  -2.238  1.00  0.00     0.014 A 
ATOM     13  C   UNL     1       4.858   9.360  -2.383  1.00  0.00    -0.051 A 
ATOM     14  C   UNL     1       6.060   9.369  -1.664  1.00  0.00     0.004 A 
ATOM     15  C   UNL     1       3.628   8.724  -1.805  1.00  0.00     0.044 C 
ENDBRANCH   1   9
BRANCH   6  16
ATOM     16  C   UNL     1      10.828  11.693  -5.931  1.00  0.00     0.153 C 
BRANCH  16  17
ATOM     17  C   UNL     1      11.156  11.693  -7.398  1.00  0.00    -0.029 A 
ATOM     18  C   UNL     1      10.199  11.910  -8.395  1.00  0.00     0.006 A 
ATOM     19  C   UNL     1      12.515  11.684  -7.753  1.00  0.00     0.006 A 
ATOM     20  C   UNL     1      10.602  12.137  -9.715  1.00  0.00     0.004 A 
ATOM     21  C   UNL     1      12.915  11.915  -9.065  1.00  0.00     0.004 A 
ATOM     22  C   UNL     1      11.962  12.154 -10.057  1.00  0.00    -0.051 A 
ATOM     23  C   UNL     1      12.406  12.537 -11.437  1.00  0.00     0.044 C 
ENDBRANCH  16  17
ENDBRANCH   6  16
TORSDOF 3
ENDMDL
MODEL 8
REMARK VINA RESULT:    -4.486      3.898      7.823
REMARK INTER + INTRA:          -5.657
REMARK INTER:                  -5.250
REMARK INTRA:                  -0.406
REMARK UNBOUND:                -0.384
REMARK SMILES Cc1ccc(CNC(=O)NC(=O)c2ccc(C)cc2)cc1
REMARK SMILES IDX 11 1 12 2 10 3 8 4 9 5 7 6 13 9 19 10 18 11 14 12 16 13
REMARK SMILES IDX 15 14 17 15 6 16 5 17 4 18 20 19 3 20 21 21 2 22 1 23
REMARK H PARENT 10 7 7 8
ROOT
ATOM      1  C   UNL     1       5.015  11.845  -2.752  1.00  0.00     0.259 C 
ATOM      2  O   UNL     1       5.455  11.176  -1.827  1.00  0.00    -0.269 OA
ATOM      3  N   UNL     1       4.618  11.424  -4.025  1.00  0.00    -0.274 N 
ATOM      4  C   UNL     1       4.330  10.242  -4.657  1.00  0.00     0.321 C 
ATOM      5  O   UNL     1       3.866  10.302  -5.801  1.00  0.00    -0.248 OA
ATOM      6  N   UNL     1       4.498   9.034  -4.089  1.00  0.00    -0.334 N 
ATOM      7  H   UNL     1       4.305  12.170  -4.632  1.00  0.00     0.175 HD
ATOM      8  H   UNL     1       4.159   8.268  -4.653  1.00  0.00     0.165 HD
ENDROOT
BRANCH   1   9
ATOM      9  C   UNL     1       4.871  13.293  -2.509  1.00  0.00     0.040 A 
ATOM     10  C   UNL     1       4.275  13.781  -1.345  1.00  0.00     0.014 A 
ATOM     11  C   UNL     1       4.209  15.159  -1.136  1.00  0.00     0.004 A 
ATOM     12  C   UNL     1       5.344  14.173  -3.488  1.00  0.00     0.014 A 
ATOM     13  C   UNL     1       4.728  16.049  -2.088  1.00  0.00    -0.051 A 
ATOM     14  C   UNL     1       5.282  15.548  -3.272  1.00  0.00     0.004 A 
ATOM     15  C   UNL     1       4.726  17.524  -1.810  1.00  0.00     0.044 C 
ENDBRANCH   1   9
BRANCH   6  16
ATOM     16  C   UNL     1       4.922   8.748  -2.747  1.00  0.00     0.153 C 
BRANCH  16  17
ATOM     17  C   UNL     1       4.315   7.549  -2.072  1.00  0.00    -0.029 A 
ATOM     18  C   UNL     1       2.963   7.472  -1.724  1.00  0.00     0.006 A 
ATOM     19  C   UNL     1       5.105   6.391  -1.987  1.00  0.00     0.006 A 
ATOM     20  C   UNL     1       2.412   6.249  -1.324  1.00  0.00     0.004 A 
ATOM     21  C   UNL     1       4.555   5.175  -1.594  1.00  0.00     0.004 A 
ATOM     22  C   UNL     1       3.200   5.092  -1.268  1.00  0.00    -0.051 A 
ATOM     23  C   UNL     1       2.587   3.754  -0.979  1.00  0.00     0.044 C 
ENDBRANCH  16  17
ENDBRANCH   6  16
TORSDOF 3
ENDMDL
MODEL 9
REMARK VINA RESULT:    -4.274      5.080      8.269
REMARK INTER + INTRA:          -5.408
REMARK INTER:                  -4.924
REMARK INTRA:                  -0.484
REMARK UNBOUND:                -0.384
REMARK SMILES Cc1ccc(CNC(=O)NC(=O)c2ccc(C)cc2)cc1
REMARK SMILES IDX 11 1 12 2 10 3 8 4 9 5 7 6 13 9 19 10 18 11 14 12 16 13
REMARK SMILES IDX 15 14 17 15 6 16 5 17 4 18 20 19 3 20 21 21 2 22 1 23
REMARK H PARENT 10 7 7 8
ROOT
ATOM      1  C   UNL     1      12.068  12.571  -7.075  1.00  0.00     0.259 C 
ATOM      2  O   UNL     1      12.136  13.786  -7.197  1.00  0.00    -0.269 OA
ATOM      3  N   UNL     1      12.857  11.586  -7.676  1.00  0.00    -0.274 N 
ATOM      4  C   UNL     1      14.042  11.516  -8.362  1.00  0.00     0.321 C 
ATOM      5  O   UNL     1      14.488  10.393  -8.623  1.00  0.00    -0.248 OA
ATOM      6  N   UNL     1      14.752  12.597  -8.734  1.00  0.00    -0.334 N 
ATOM      7  H   UNL     1      12.595  10.639  -7.437  1.00  0.00     0.175 HD
ATOM      8  H   UNL     1      15.643  12.374  -9.154  1.00  0.00     0.165 HD
ENDROOT
BRANCH   1   9
ATOM      9  C   UNL     1      11.021  12.056  -6.172  1.00  0.00     0.040 A 
ATOM     10  C   UNL     1      10.660  12.740  -5.010  1.00  0.00     0.014 A 
ATOM     11  C   UNL     1       9.628  12.241  -4.215  1.00  0.00     0.004 A 
ATOM     12  C   UNL     1      10.398  10.850  -6.509  1.00  0.00     0.014 A 
ATOM     13  C   UNL     1       8.962  11.059  -4.572  1.00  0.00    -0.051 A 
ATOM     14  C   UNL     1       9.364  10.359  -5.716  1.00  0.00     0.004 A 
ATOM     15  C   UNL     1       7.799  10.581  -3.753  1.00  0.00     0.044 C 
ENDBRANCH   1   9
BRANCH   6  16
ATOM     16  C   UNL     1      14.468  13.974  -8.442  1.00  0.00     0.153 C 
BRANCH  16  17
ATOM     17  C   UNL     1      14.066  14.854  -9.593  1.00  0.00    -0.029 A 
ATOM     18  C   UNL     1      13.778  14.359 -10.869  1.00  0.00     0.006 A 
ATOM     19  C   UNL     1      13.771  16.196  -9.303  1.00  0.00     0.006 A 
ATOM     20  C   UNL     1      13.181  15.189 -11.824  1.00  0.00     0.004 A 
ATOM     21  C   UNL     1      13.173  17.020 -10.252  1.00  0.00     0.004 A 
ATOM     22  C   UNL     1      12.863  16.520 -11.518  1.00  0.00    -0.051 A 
ATOM     23  C   UNL     1      12.096  17.372 -12.485  1.00  0.00     0.044 C 
ENDBRANCH  16  17
ENDBRANCH   6  16
TORSDOF 3
ENDMDL
