MODEL 1
REMARK VINA RESULT:    -4.141      0.000      0.000
REMARK INTER + INTRA:          -5.709
REMARK INTER:                  -5.472
REMARK INTRA:                  -0.236
REMARK UNBOUND:                -0.236
REMARK SMILES [H]/N=C\C[C@H]1C[C@@H]1O[C@H]1CO[C@H]2C[C@@H](C3CC3)CCN2C1
REMARK SMILES IDX 7 1 6 2 5 3 8 4 9 5 14 6 13 7 18 8 12 9 19 10 20 11 11 12
REMARK SMILES IDX 21 13 10 14 15 15 16 16 17 17 4 18 3 19 2 20 1 21
REMARK H PARENT
ROOT
ATOM      1  C   UNL     1       8.376  10.915  -4.804  1.00  0.00     0.122 C 
ATOM      2  C   UNL     1       9.616  11.695  -4.472  1.00  0.00     0.039 C 
ATOM      3  C   UNL     1       9.698  10.516  -5.398  1.00  0.00     0.026 C 
ENDROOT
BRANCH   1   4
ATOM      4  O   UNL     1       7.885  10.104  -3.720  1.00  0.00    -0.371 OA
BRANCH   4   5
ATOM      5  C   UNL     1       7.240  10.819  -2.653  1.00  0.00     0.158 C 
ATOM      6  C   UNL     1       3.301   7.517  -1.765  1.00  0.00    -0.003 C 
ATOM      7  C   UNL     1       3.671   8.513  -2.871  1.00  0.00     0.052 C 
ATOM      8  C   UNL     1       4.584   6.924  -1.166  1.00  0.00     0.019 C 
ATOM      9  C   UNL     1       4.675   9.565  -2.378  1.00  0.00     0.189 C 
ATOM     10  C   UNL     1       5.554   8.021  -0.728  1.00  0.00     0.087 C 
ATOM     11  N   UNL     1       5.871   8.916  -1.841  1.00  0.00    -0.276 NA
ATOM     12  O   UNL     1       4.975  10.399  -3.498  1.00  0.00    -0.360 OA
ATOM     13  C   UNL     1       6.868   9.922  -1.459  1.00  0.00     0.121 C 
ATOM     14  C   UNL     1       5.938  11.415  -3.198  1.00  0.00     0.195 C 
BRANCH   6  15
ATOM     15  C   UNL     1       2.402   6.419  -2.286  1.00  0.00    -0.008 C 
ATOM     16  C   UNL     1       1.136   6.054  -1.547  1.00  0.00     0.004 C 
ATOM     17  C   UNL     1       1.052   6.741  -2.879  1.00  0.00     0.004 C 
ENDBRANCH   6  15
ENDBRANCH   4   5
ENDBRANCH   1   4
BRANCH   3  18
ATOM     18  C   UNL     1       9.975  10.752  -6.853  1.00  0.00     0.053 C 
BRANCH  18  19
ATOM     19  C   UNL     1      11.178  11.601  -7.173  1.00  0.00     0.074 C 
BRANCH  19  20
ATOM     20  N   UNL     1      12.393  11.179  -7.291  1.00  0.00    -0.313 NA
ATOM     21  H   UNL     1      12.755  11.326  -8.244  1.00  0.00     0.186 HD
ENDBRANCH  19  20
ENDBRANCH  18  19
ENDBRANCH   3  18
TORSDOF 6
ENDMDL
MODEL 2
REMARK VINA RESULT:    -4.139      3.311      5.557
REMARK INTER + INTRA:          -5.706
REMARK INTER:                  -5.447
REMARK INTRA:                  -0.259
REMARK UNBOUND:                -0.236
REMARK SMILES [H]/N=C\C[C@H]1C[C@@H]1O[C@H]1CO[C@H]2C[C@@H](C3CC3)CCN2C1
REMARK SMILES IDX 7 1 6 2 5 3 8 4 9 5 14 6 13 7 18 8 12 9 19 10 20 11 11 12
REMARK SMILES IDX 21 13 10 14 15 15 16 16 17 17 4 18 3 19 2 20 1 21
REMARK H PARENT
ROOT
ATOM      1  C   UNL     1       5.071  13.312  -2.078  1.00  0.00     0.122 C 
ATOM      2  C   UNL     1       4.858  14.517  -2.950  1.00  0.00     0.039 C 
ATOM      3  C   UNL     1       4.110  14.389  -1.654  1.00  0.00     0.026 C 
ENDROOT
BRANCH   1   4
ATOM      4  O   UNL     1       4.492  12.100  -2.599  1.00  0.00    -0.371 OA
BRANCH   4   5
ATOM      5  C   UNL     1       5.193  11.504  -3.703  1.00  0.00     0.158 C 
ATOM      6  C   UNL     1       4.906   6.515  -2.208  1.00  0.00    -0.003 C 
ATOM      7  C   UNL     1       5.680   7.756  -1.748  1.00  0.00     0.052 C 
ATOM      8  C   UNL     1       3.537   6.944  -2.754  1.00  0.00     0.019 C 
ATOM      9  C   UNL     1       5.752   8.823  -2.850  1.00  0.00     0.189 C 
ATOM     10  C   UNL     1       3.676   8.030  -3.820  1.00  0.00     0.087 C 
ATOM     11  N   UNL     1       4.408   9.185  -3.299  1.00  0.00    -0.276 NA
ATOM     12  O   UNL     1       6.450   9.938  -2.293  1.00  0.00    -0.360 OA
ATOM     13  C   UNL     1       4.475  10.271  -4.282  1.00  0.00     0.121 C 
ATOM     14  C   UNL     1       6.564  11.038  -3.201  1.00  0.00     0.195 C 
BRANCH   6  15
ATOM     15  C   UNL     1       4.740   5.517  -1.084  1.00  0.00    -0.008 C 
ATOM     16  C   UNL     1       5.150   4.076  -1.275  1.00  0.00     0.004 C 
ATOM     17  C   UNL     1       5.942   4.963  -0.358  1.00  0.00     0.004 C 
ENDBRANCH   6  15
ENDBRANCH   4   5
ENDBRANCH   1   4
BRANCH   3  18
ATOM     18  C   UNL     1       4.458  15.308  -0.521  1.00  0.00     0.053 C 
BRANCH  18  19
ATOM     19  C   UNL     1       4.429  16.783  -0.827  1.00  0.00     0.074 C 
BRANCH  19  20
ATOM     20  N   UNL     1       3.369  17.512  -0.943  1.00  0.00    -0.313 NA
ATOM     21  H   UNL     1       3.038  17.549  -1.917  1.00  0.00     0.186 HD
ENDBRANCH  19  20
ENDBRANCH  18  19
ENDBRANCH   3  18
TORSDOF 6
ENDMDL
MODEL 3
REMARK VINA RESULT:    -4.052      2.739      8.581
REMARK INTER + INTRA:          -5.591
REMARK INTER:                  -5.544
REMARK INTRA:                  -0.048
REMARK UNBOUND:                -0.236
REMARK SMILES [H]/N=C\C[C@H]1C[C@@H]1O[C@H]1CO[C@H]2C[C@@H](C3CC3)CCN2C1
REMARK SMILES IDX 7 1 6 2 5 3 8 4 9 5 14 6 13 7 18 8 12 9 19 10 20 11 11 12
REMARK SMILES IDX 21 13 10 14 15 15 16 16 17 17 4 18 3 19 2 20 1 21
REMARK H PARENT
ROOT
ATOM      1  C   UNL     1       6.435  10.732  -3.435  1.00  0.00     0.122 C 
ATOM      2  C   UNL     1       5.291  11.653  -3.116  1.00  0.00     0.039 C 
ATOM      3  C   UNL     1       5.118  10.571  -4.142  1.00  0.00     0.026 C 
ENDROOT
BRANCH   1   4
ATOM      4  O   UNL     1       7.497  11.353  -4.184  1.00  0.00    -0.371 OA
BRANCH   4   5
ATOM      5  C   UNL     1       8.825  10.913  -3.857  1.00  0.00     0.158 C 
ATOM      6  C   UNL     1      11.258  12.471  -8.199  1.00  0.00    -0.003 C 
ATOM      7  C   UNL     1      10.269  11.358  -7.834  1.00  0.00     0.052 C 
ATOM      8  C   UNL     1      10.987  13.700  -7.319  1.00  0.00     0.019 C 
ATOM      9  C   UNL     1      10.274  11.062  -6.328  1.00  0.00     0.189 C 
ATOM     10  C   UNL     1      10.972  13.332  -5.836  1.00  0.00     0.087 C 
ATOM     11  N   UNL     1       9.991  12.280  -5.568  1.00  0.00    -0.276 NA
ATOM     12  O   UNL     1       9.289  10.051  -6.106  1.00  0.00    -0.360 OA
ATOM     13  C   UNL     1       9.902  11.977  -4.135  1.00  0.00     0.121 C 
ATOM     14  C   UNL     1       9.152   9.695  -4.727  1.00  0.00     0.195 C 
BRANCH   6  15
ATOM     15  C   UNL     1      11.167  12.836  -9.663  1.00  0.00    -0.008 C 
ATOM     16  C   UNL     1      12.308  13.555 -10.344  1.00  0.00     0.004 C 
ATOM     17  C   UNL     1      12.012  12.125 -10.692  1.00  0.00     0.004 C 
ENDBRANCH   6  15
ENDBRANCH   4   5
ENDBRANCH   1   4
BRANCH   3  18
ATOM     18  C   UNL     1       4.228   9.406  -3.826  1.00  0.00     0.053 C 
BRANCH  18  19
ATOM     19  C   UNL     1       3.561   8.739  -5.001  1.00  0.00     0.074 C 
BRANCH  19  20
ATOM     20  N   UNL     1       2.919   9.339  -5.947  1.00  0.00    -0.313 NA
ATOM     21  H   UNL     1       3.218   9.010  -6.876  1.00  0.00     0.186 HD
ENDBRANCH  19  20
ENDBRANCH  18  19
ENDBRANCH   3  18
TORSDOF 6
ENDMDL
MODEL 4
REMARK VINA RESULT:    -3.909      0.892      0.976
REMARK INTER + INTRA:          -5.402
REMARK INTER:                  -5.070
REMARK INTRA:                  -0.332
REMARK UNBOUND:                -0.236
REMARK SMILES [H]/N=C\C[C@H]1C[C@@H]1O[C@H]1CO[C@H]2C[C@@H](C3CC3)CCN2C1
REMARK SMILES IDX 7 1 6 2 5 3 8 4 9 5 14 6 13 7 18 8 12 9 19 10 20 11 11 12
REMARK SMILES IDX 21 13 10 14 15 15 16 16 17 17 4 18 3 19 2 20 1 21
REMARK H PARENT
ROOT
ATOM      1  C   UNL     1       8.824  10.850  -4.418  1.00  0.00     0.122 C 
ATOM      2  C   UNL     1       9.568   9.573  -4.692  1.00  0.00     0.039 C 
ATOM      3  C   UNL     1       9.335  10.556  -5.803  1.00  0.00     0.026 C 
ENDROOT
BRANCH   1   4
ATOM      4  O   UNL     1       7.412  10.671  -4.201  1.00  0.00    -0.371 OA
BRANCH   4   5
ATOM      5  C   UNL     1       6.897  11.228  -2.980  1.00  0.00     0.158 C 
ATOM      6  C   UNL     1       3.388   7.538  -1.851  1.00  0.00    -0.003 C 
ATOM      7  C   UNL     1       3.507   8.659  -2.891  1.00  0.00     0.052 C 
ATOM      8  C   UNL     1       4.789   7.003  -1.519  1.00  0.00     0.019 C 
ATOM      9  C   UNL     1       4.502   9.742  -2.450  1.00  0.00     0.189 C 
ATOM     10  C   UNL     1       5.738   8.133  -1.122  1.00  0.00     0.087 C 
ATOM     11  N   UNL     1       5.810   9.150  -2.171  1.00  0.00    -0.276 NA
ATOM     12  O   UNL     1       4.561  10.698  -3.510  1.00  0.00    -0.360 OA
ATOM     13  C   UNL     1       6.784  10.197  -1.843  1.00  0.00     0.121 C 
ATOM     14  C   UNL     1       5.487  11.759  -3.256  1.00  0.00     0.195 C 
BRANCH   6  15
ATOM     15  C   UNL     1       2.496   6.420  -2.341  1.00  0.00    -0.008 C 
ATOM     16  C   UNL     1       1.291   5.996  -1.534  1.00  0.00     0.004 C 
ATOM     17  C   UNL     1       1.101   6.707  -2.842  1.00  0.00     0.004 C 
ENDBRANCH   6  15
ENDBRANCH   4   5
ENDBRANCH   1   4
BRANCH   3  18
ATOM     18  C   UNL     1      10.501  11.319  -6.355  1.00  0.00     0.053 C 
BRANCH  18  19
ATOM     19  C   UNL     1      10.620  11.360  -7.856  1.00  0.00     0.074 C 
BRANCH  19  20
ATOM     20  N   UNL     1       9.655  11.191  -8.697  1.00  0.00    -0.313 NA
ATOM     21  H   UNL     1       9.835  11.680  -9.585  1.00  0.00     0.186 HD
ENDBRANCH  19  20
ENDBRANCH  18  19
ENDBRANCH   3  18
TORSDOF 6
ENDMDL
MODEL 5
REMARK VINA RESULT:    -3.772      4.114      6.564
REMARK INTER + INTRA:          -5.222
REMARK INTER:                  -4.949
REMARK INTRA:                  -0.273
REMARK UNBOUND:                -0.236
REMARK SMILES [H]/N=C\C[C@H]1C[C@@H]1O[C@H]1CO[C@H]2C[C@@H](C3CC3)CCN2C1
REMARK SMILES IDX 7 1 6 2 5 3 8 4 9 5 14 6 13 7 18 8 12 9 19 10 20 11 11 12
REMARK SMILES IDX 21 13 10 14 15 15 16 16 17 17 4 18 3 19 2 20 1 21
REMARK H PARENT
ROOT
ATOM      1  C   UNL     1      11.005  15.424  -8.045  1.00  0.00     0.122 C 
ATOM      2  C   UNL     1      10.457  14.872  -9.332  1.00  0.00     0.039 C 
ATOM      3  C   UNL     1      10.207  16.307  -8.965  1.00  0.00     0.026 C 
ENDROOT
BRANCH   1   4
ATOM      4  O   UNL     1      10.330  14.944  -6.867  1.00  0.00    -0.371 OA
BRANCH   4   5
ATOM      5  C   UNL     1      11.184  14.464  -5.816  1.00  0.00     0.158 C 
ATOM      6  C   UNL     1       8.019  10.823  -3.834  1.00  0.00    -0.003 C 
ATOM      7  C   UNL     1       8.061  12.356  -3.840  1.00  0.00     0.052 C 
ATOM      8  C   UNL     1       8.617  10.294  -5.145  1.00  0.00     0.019 C 
ATOM      9  C   UNL     1       9.469  12.886  -4.143  1.00  0.00     0.189 C 
ATOM     10  C   UNL     1      10.002  10.885  -5.405  1.00  0.00     0.087 C 
ATOM     11  N   UNL     1       9.954  12.347  -5.414  1.00  0.00    -0.276 NA
ATOM     12  O   UNL     1       9.373  14.312  -4.167  1.00  0.00    -0.360 OA
ATOM     13  C   UNL     1      11.259  12.929  -5.749  1.00  0.00     0.121 C 
ATOM     14  C   UNL     1      10.615  14.951  -4.479  1.00  0.00     0.195 C 
BRANCH   6  15
ATOM     15  C   UNL     1       6.609  10.309  -3.648  1.00  0.00    -0.008 C 
ATOM     16  C   UNL     1       6.138   9.846  -2.289  1.00  0.00     0.004 C 
ATOM     17  C   UNL     1       5.587  11.112  -2.880  1.00  0.00     0.004 C 
ENDBRANCH   6  15
ENDBRANCH   4   5
ENDBRANCH   1   4
BRANCH   3  18
ATOM     18  C   UNL     1      10.887  17.387  -9.753  1.00  0.00     0.053 C 
BRANCH  18  19
ATOM     19  C   UNL     1      10.013  18.524 -10.216  1.00  0.00     0.074 C 
BRANCH  19  20
ATOM     20  N   UNL     1       8.803  18.419 -10.656  1.00  0.00    -0.313 NA
ATOM     21  H   UNL     1       8.164  18.069  -9.929  1.00  0.00     0.186 HD
ENDBRANCH  19  20
ENDBRANCH  18  19
ENDBRANCH   3  18
TORSDOF 6
ENDMDL
MODEL 6
REMARK VINA RESULT:    -3.570      5.521      8.469
REMARK INTER + INTRA:          -4.954
REMARK INTER:                  -4.389
REMARK INTRA:                  -0.565
REMARK UNBOUND:                -0.236
REMARK SMILES [H]/N=C\C[C@H]1C[C@@H]1O[C@H]1CO[C@H]2C[C@@H](C3CC3)CCN2C1
REMARK SMILES IDX 7 1 6 2 5 3 8 4 9 5 14 6 13 7 18 8 12 9 19 10 20 11 11 12
REMARK SMILES IDX 21 13 10 14 15 15 16 16 17 17 4 18 3 19 2 20 1 21
REMARK H PARENT
ROOT
ATOM      1  C   UNL     1      11.494  17.073  -7.196  1.00  0.00     0.122 C 
ATOM      2  C   UNL     1      10.561  18.171  -7.622  1.00  0.00     0.039 C 
ATOM      3  C   UNL     1      10.062  17.067  -6.735  1.00  0.00     0.026 C 
ENDROOT
BRANCH   1   4
ATOM      4  O   UNL     1      11.836  16.151  -8.249  1.00  0.00    -0.371 OA
BRANCH   4   5
ATOM      5  C   UNL     1      12.962  15.299  -7.985  1.00  0.00     0.158 C 
ATOM      6  C   UNL     1      10.386  11.121  -6.220  1.00  0.00    -0.003 C 
ATOM      7  C   UNL     1      10.697  12.525  -5.688  1.00  0.00     0.052 C 
ATOM      8  C   UNL     1      10.243  11.178  -7.748  1.00  0.00     0.019 C 
ATOM      9  C   UNL     1      11.900  13.153  -6.405  1.00  0.00     0.189 C 
ATOM     10  C   UNL     1      11.455  11.844  -8.398  1.00  0.00     0.087 C 
ATOM     11  N   UNL     1      11.673  13.183  -7.850  1.00  0.00    -0.276 NA
ATOM     12  O   UNL     1      12.062  14.464  -5.861  1.00  0.00    -0.360 OA
ATOM     13  C   UNL     1      12.780  13.869  -8.525  1.00  0.00     0.121 C 
ATOM     14  C   UNL     1      13.134  15.194  -6.466  1.00  0.00     0.195 C 
BRANCH   6  15
ATOM     15  C   UNL     1       9.133  10.554  -5.591  1.00  0.00    -0.008 C 
ATOM     16  C   UNL     1       9.230   9.522  -4.493  1.00  0.00     0.004 C 
ATOM     17  C   UNL     1       8.751  10.908  -4.174  1.00  0.00     0.004 C 
ENDBRANCH   6  15
ENDBRANCH   4   5
ENDBRANCH   1   4
BRANCH   3  18
ATOM     18  C   UNL     1       9.727  17.378  -5.307  1.00  0.00     0.053 C 
BRANCH  18  19
ATOM     19  C   UNL     1       9.372  16.202  -4.435  1.00  0.00     0.074 C 
BRANCH  19  20
ATOM     20  N   UNL     1      10.194  15.528  -3.701  1.00  0.00    -0.313 NA
ATOM     21  H   UNL     1      11.111  15.992  -3.633  1.00  0.00     0.186 HD
ENDBRANCH  19  20
ENDBRANCH  18  19
ENDBRANCH   3  18
TORSDOF 6
ENDMDL
MODEL 7
REMARK VINA RESULT:    -3.529      3.543      4.980
REMARK INTER + INTRA:          -4.900
REMARK INTER:                  -4.772
REMARK INTRA:                  -0.129
REMARK UNBOUND:                -0.236
REMARK SMILES [H]/N=C\C[C@H]1C[C@@H]1O[C@H]1CO[C@H]2C[C@@H](C3CC3)CCN2C1
REMARK SMILES IDX 7 1 6 2 5 3 8 4 9 5 14 6 13 7 18 8 12 9 19 10 20 11 11 12
REMARK SMILES IDX 21 13 10 14 15 15 16 16 17 17 4 18 3 19 2 20 1 21
REMARK H PARENT
ROOT
ATOM      1  C   UNL     1      10.401  11.374  -7.792  1.00  0.00     0.122 C 
ATOM      2  C   UNL     1      10.119  10.890  -9.187  1.00  0.00     0.039 C 
ATOM      3  C   UNL     1       9.907  12.336  -8.838  1.00  0.00     0.026 C 
ENDROOT
BRANCH   1   4
ATOM      4  O   UNL     1       9.439  10.936  -6.814  1.00  0.00    -0.371 OA
BRANCH   4   5
ATOM      5  C   UNL     1       9.960  10.699  -5.496  1.00  0.00     0.158 C 
ATOM      6  C   UNL     1       5.745  12.048  -2.734  1.00  0.00    -0.003 C 
ATOM      7  C   UNL     1       6.806  12.793  -3.554  1.00  0.00     0.052 C 
ATOM      8  C   UNL     1       5.506  10.664  -3.353  1.00  0.00     0.019 C 
ATOM      9  C   UNL     1       8.081  11.957  -3.731  1.00  0.00     0.189 C 
ATOM     10  C   UNL     1       6.816   9.898  -3.533  1.00  0.00     0.087 C 
ATOM     11  N   UNL     1       7.764  10.666  -4.340  1.00  0.00    -0.276 NA
ATOM     12  O   UNL     1       8.967  12.730  -4.542  1.00  0.00    -0.360 OA
ATOM     13  C   UNL     1       8.994   9.908  -4.595  1.00  0.00     0.121 C 
ATOM     14  C   UNL     1      10.197  12.057  -4.827  1.00  0.00     0.195 C 
BRANCH   6  15
ATOM     15  C   UNL     1       4.452  12.828  -2.661  1.00  0.00    -0.008 C 
ATOM     16  C   UNL     1       4.202  13.787  -1.521  1.00  0.00     0.004 C 
ATOM     17  C   UNL     1       4.431  14.317  -2.907  1.00  0.00     0.004 C 
ENDBRANCH   6  15
ENDBRANCH   4   5
ENDBRANCH   1   4
BRANCH   3  18
ATOM     18  C   UNL     1      10.832  13.365  -9.415  1.00  0.00     0.053 C 
BRANCH  18  19
ATOM     19  C   UNL     1      10.716  14.757  -8.849  1.00  0.00     0.074 C 
BRANCH  19  20
ATOM     20  N   UNL     1       9.615  15.373  -8.575  1.00  0.00    -0.313 NA
ATOM     21  H   UNL     1       8.844  15.061  -9.182  1.00  0.00     0.186 HD
ENDBRANCH  19  20
ENDBRANCH  18  19
ENDBRANCH   3  18
TORSDOF 6
ENDMDL
MODEL 8
REMARK VINA RESULT:    -3.430      3.296      5.335
REMARK INTER + INTRA:          -4.769
REMARK INTER:                  -5.373
REMARK INTRA:                   0.604
REMARK UNBOUND:                -0.236
REMARK SMILES [H]/N=C\C[C@H]1C[C@@H]1O[C@H]1CO[C@H]2C[C@@H](C3CC3)CCN2C1
REMARK SMILES IDX 7 1 6 2 5 3 8 4 9 5 14 6 13 7 18 8 12 9 19 10 20 11 11 12
REMARK SMILES IDX 21 13 10 14 15 15 16 16 17 17 4 18 3 19 2 20 1 21
REMARK H PARENT
ROOT
ATOM      1  C   UNL     1       4.898  13.296  -2.375  1.00  0.00     0.122 C 
ATOM      2  C   UNL     1       3.447  13.502  -2.044  1.00  0.00     0.039 C 
ATOM      3  C   UNL     1       4.490  14.386  -1.422  1.00  0.00     0.026 C 
ENDROOT
BRANCH   1   4
ATOM      4  O   UNL     1       5.471  12.110  -1.792  1.00  0.00    -0.371 OA
BRANCH   4   5
ATOM      5  C   UNL     1       6.378  11.381  -2.634  1.00  0.00     0.158 C 
ATOM      6  C   UNL     1       3.495   7.097  -3.367  1.00  0.00    -0.003 C 
ATOM      7  C   UNL     1       4.287   7.702  -2.201  1.00  0.00     0.052 C 
ATOM      8  C   UNL     1       2.924   8.228  -4.233  1.00  0.00     0.019 C 
ATOM      9  C   UNL     1       5.338   8.708  -2.688  1.00  0.00     0.189 C 
ATOM     10  C   UNL     1       4.014   9.213  -4.655  1.00  0.00     0.087 C 
ATOM     11  N   UNL     1       4.707   9.758  -3.488  1.00  0.00    -0.276 NA
ATOM     12  O   UNL     1       5.973   9.233  -1.520  1.00  0.00    -0.360 OA
ATOM     13  C   UNL     1       5.698  10.770  -3.872  1.00  0.00     0.121 C 
ATOM     14  C   UNL     1       6.962  10.224  -1.817  1.00  0.00     0.195 C 
BRANCH   6  15
ATOM     15  C   UNL     1       2.386   6.194  -2.875  1.00  0.00    -0.008 C 
ATOM     16  C   UNL     1       1.824   6.363  -1.483  1.00  0.00     0.004 C 
ATOM     17  C   UNL     1       0.987   6.724  -2.676  1.00  0.00     0.004 C 
ENDBRANCH   6  15
ENDBRANCH   4   5
ENDBRANCH   1   4
BRANCH   3  18
ATOM     18  C   UNL     1       4.567  15.823  -1.841  1.00  0.00     0.053 C 
BRANCH  18  19
ATOM     19  C   UNL     1       4.173  16.841  -0.803  1.00  0.00     0.074 C 
BRANCH  19  20
ATOM     20  N   UNL     1       3.359  17.828  -0.980  1.00  0.00    -0.313 NA
ATOM     21  H   UNL     1       3.447  18.227  -1.925  1.00  0.00     0.186 HD
ENDBRANCH  19  20
ENDBRANCH  18  19
ENDBRANCH   3  18
TORSDOF 6
ENDMDL
MODEL 9
REMARK VINA RESULT:    -3.344      4.220      7.182
REMARK INTER + INTRA:          -4.655
REMARK INTER:                  -4.226
REMARK INTRA:                  -0.429
REMARK UNBOUND:                -0.236
REMARK SMILES [H]/N=C\C[C@H]1C[C@@H]1O[C@H]1CO[C@H]2C[C@@H](C3CC3)CCN2C1
REMARK SMILES IDX 7 1 6 2 5 3 8 4 9 5 14 6 13 7 18 8 12 9 19 10 20 11 11 12
REMARK SMILES IDX 21 13 10 14 15 15 16 16 17 17 4 18 3 19 2 20 1 21
REMARK H PARENT
ROOT
ATOM      1  C   UNL     1      10.957  16.614  -6.892  1.00  0.00     0.122 C 
ATOM      2  C   UNL     1      10.136  17.405  -7.870  1.00  0.00     0.039 C 
ATOM      3  C   UNL     1       9.567  17.055  -6.525  1.00  0.00     0.026 C 
ENDROOT
BRANCH   1   4
ATOM      4  O   UNL     1      11.120  15.228  -7.249  1.00  0.00    -0.371 OA
BRANCH   4   5
ATOM      5  C   UNL     1      12.080  14.496  -6.469  1.00  0.00     0.158 C 
ATOM      6  C   UNL     1       8.863  10.955  -4.392  1.00  0.00    -0.003 C 
ATOM      7  C   UNL     1       9.116  12.455  -4.199  1.00  0.00     0.052 C 
ATOM      8  C   UNL     1       9.128  10.579  -5.856  1.00  0.00     0.019 C 
ATOM      9  C   UNL     1      10.503  12.869  -4.710  1.00  0.00     0.189 C 
ATOM     10  C   UNL     1      10.509  11.048  -6.312  1.00  0.00     0.087 C 
ATOM     11  N   UNL     1      10.664  12.489  -6.114  1.00  0.00    -0.276 NA
ATOM     12  O   UNL     1      10.603  14.282  -4.521  1.00  0.00    -0.360 OA
ATOM     13  C   UNL     1      11.952  12.970  -6.626  1.00  0.00     0.121 C 
ATOM     14  C   UNL     1      11.842  14.823  -4.991  1.00  0.00     0.195 C 
BRANCH   6  15
ATOM     15  C   UNL     1       7.455  10.575  -3.993  1.00  0.00    -0.008 C 
ATOM     16  C   UNL     1       7.122  10.282  -2.548  1.00  0.00     0.004 C 
ATOM     17  C   UNL     1       6.591  11.526  -3.200  1.00  0.00     0.004 C 
ENDBRANCH   6  15
ENDBRANCH   4   5
ENDBRANCH   1   4
BRANCH   3  18
ATOM     18  C   UNL     1       9.362  18.146  -5.516  1.00  0.00     0.053 C 
BRANCH  18  19
ATOM     19  C   UNL     1       8.884  17.712  -4.155  1.00  0.00     0.074 C 
BRANCH  19  20
ATOM     20  N   UNL     1       9.404  16.778  -3.431  1.00  0.00    -0.313 NA
ATOM     21  H   UNL     1      10.329  16.494  -3.785  1.00  0.00     0.186 HD
ENDBRANCH  19  20
ENDBRANCH  18  19
ENDBRANCH   3  18
TORSDOF 6
ENDMDL
