MODEL 1
REMARK VINA RESULT:    -6.054      0.000      0.000
REMARK INTER + INTRA:          -7.497
REMARK INTER:                  -7.116
REMARK INTRA:                  -0.381
REMARK UNBOUND:                -0.381
REMARK SMILES Cc1ccc(CNC(=O)NC(=O)c2ccc(C)cc2)cc1
REMARK SMILES IDX 11 1 12 2 10 3 8 4 9 5 7 6 13 9 19 10 18 11 14 12 16 13
REMARK SMILES IDX 15 14 17 15 6 16 5 17 4 18 20 19 3 20 21 21 2 22 1 23
REMARK H PARENT 10 7 7 8
ROOT
ATOM      1  C   UNL     1      -6.653  10.193   0.866  1.00  0.00     0.259 C 
ATOM      2  O   UNL     1      -6.615  10.080   2.083  1.00  0.00    -0.269 OA
ATOM      3  N   UNL     1      -7.472  11.018   0.088  1.00  0.00    -0.274 N 
ATOM      4  C   UNL     1      -8.297  12.097   0.279  1.00  0.00     0.321 C 
ATOM      5  O   UNL     1      -8.760  12.649  -0.724  1.00  0.00    -0.248 OA
ATOM      6  N   UNL     1      -8.599  12.597   1.492  1.00  0.00    -0.334 N 
ATOM      7  H   UNL     1      -7.336  10.921  -0.909  1.00  0.00     0.175 HD
ATOM      8  H   UNL     1      -9.148  13.444   1.457  1.00  0.00     0.165 HD
ENDROOT
BRANCH   1   9
ATOM      9  C   UNL     1      -5.711   9.358   0.095  1.00  0.00     0.040 A 
ATOM     10  C   UNL     1      -6.113   8.154  -0.486  1.00  0.00     0.014 A 
ATOM     11  C   UNL     1      -5.201   7.426  -1.250  1.00  0.00     0.004 A 
ATOM     12  C   UNL     1      -4.392   9.804  -0.034  1.00  0.00     0.014 A 
ATOM     13  C   UNL     1      -3.890   7.890  -1.428  1.00  0.00    -0.051 A 
ATOM     14  C   UNL     1      -3.486   9.077  -0.803  1.00  0.00     0.004 A 
ATOM     15  C   UNL     1      -2.946   7.140  -2.321  1.00  0.00     0.044 C 
ENDBRANCH   1   9
BRANCH   6  16
ATOM     16  C   UNL     1      -8.090  12.174   2.766  1.00  0.00     0.153 C 
BRANCH  16  17
ATOM     17  C   UNL     1      -8.115  13.176   3.886  1.00  0.00    -0.029 A 
ATOM     18  C   UNL     1      -6.975  13.544   4.607  1.00  0.00     0.006 A 
ATOM     19  C   UNL     1      -9.296  13.916   4.061  1.00  0.00     0.006 A 
ATOM     20  C   UNL     1      -7.015  14.647   5.466  1.00  0.00     0.004 A 
ATOM     21  C   UNL     1      -9.333  15.016   4.912  1.00  0.00     0.004 A 
ATOM     22  C   UNL     1      -8.189  15.398   5.615  1.00  0.00    -0.051 A 
ATOM     23  C   UNL     1      -8.201  16.662   6.420  1.00  0.00     0.044 C 
ENDBRANCH  16  17
ENDBRANCH   6  16
TORSDOF 3
ENDMDL
MODEL 2
REMARK VINA RESULT:    -6.043      3.239      5.535
REMARK INTER + INTRA:          -7.484
REMARK INTER:                  -7.100
REMARK INTRA:                  -0.384
REMARK UNBOUND:                -0.381
REMARK SMILES Cc1ccc(CNC(=O)NC(=O)c2ccc(C)cc2)cc1
REMARK SMILES IDX 11 1 12 2 10 3 8 4 9 5 7 6 13 9 19 10 18 11 14 12 16 13
REMARK SMILES IDX 15 14 17 15 6 16 5 17 4 18 20 19 3 20 21 21 2 22 1 23
REMARK H PARENT 10 7 7 8
ROOT
ATOM      1  C   UNL     1      -6.880  10.076   0.546  1.00  0.00     0.259 C 
ATOM      2  O   UNL     1      -6.930  10.219  -0.668  1.00  0.00    -0.269 OA
ATOM      3  N   UNL     1      -7.291  10.960   1.549  1.00  0.00    -0.274 N 
ATOM      4  C   UNL     1      -8.052  12.096   1.649  1.00  0.00     0.321 C 
ATOM      5  O   UNL     1      -8.298  12.523   2.782  1.00  0.00    -0.248 OA
ATOM      6  N   UNL     1      -8.563  12.745   0.586  1.00  0.00    -0.334 N 
ATOM      7  H   UNL     1      -7.127  10.627   2.490  1.00  0.00     0.175 HD
ATOM      8  H   UNL     1      -9.171  13.513   0.833  1.00  0.00     0.165 HD
ENDROOT
BRANCH   1   9
ATOM      9  C   UNL     1      -6.318   8.804   1.038  1.00  0.00     0.040 A 
ATOM     10  C   UNL     1      -4.995   8.712   1.473  1.00  0.00     0.014 A 
ATOM     11  C   UNL     1      -4.524   7.501   1.980  1.00  0.00     0.004 A 
ATOM     12  C   UNL     1      -7.150   7.680   1.052  1.00  0.00     0.014 A 
ATOM     13  C   UNL     1      -5.366   6.381   2.046  1.00  0.00    -0.051 A 
ATOM     14  C   UNL     1      -6.677   6.474   1.565  1.00  0.00     0.004 A 
ATOM     15  C   UNL     1      -4.871   5.110   2.672  1.00  0.00     0.044 C 
ENDBRANCH   1   9
BRANCH   6  16
ATOM     16  C   UNL     1      -8.484  12.362  -0.795  1.00  0.00     0.153 C 
BRANCH  16  17
ATOM     17  C   UNL     1      -9.558  12.874  -1.715  1.00  0.00    -0.029 A 
ATOM     18  C   UNL     1     -10.376  12.032  -2.476  1.00  0.00     0.006 A 
ATOM     19  C   UNL     1      -9.878  14.239  -1.634  1.00  0.00     0.006 A 
ATOM     20  C   UNL     1     -11.505  12.549  -3.121  1.00  0.00     0.004 A 
ATOM     21  C   UNL     1     -11.004  14.750  -2.272  1.00  0.00     0.004 A 
ATOM     22  C   UNL     1     -11.833  13.907  -3.013  1.00  0.00    -0.051 A 
ATOM     23  C   UNL     1     -13.115  14.439  -3.580  1.00  0.00     0.044 C 
ENDBRANCH  16  17
ENDBRANCH   6  16
TORSDOF 3
ENDMDL
MODEL 3
REMARK VINA RESULT:    -5.960      0.549      8.012
REMARK INTER + INTRA:          -7.387
REMARK INTER:                  -6.897
REMARK INTRA:                  -0.489
REMARK UNBOUND:                -0.381
REMARK SMILES Cc1ccc(CNC(=O)NC(=O)c2ccc(C)cc2)cc1
REMARK SMILES IDX 11 1 12 2 10 3 8 4 9 5 7 6 13 9 19 10 18 11 14 12 16 13
REMARK SMILES IDX 15 14 17 15 6 16 5 17 4 18 20 19 3 20 21 21 2 22 1 23
REMARK H PARENT 10 7 7 8
ROOT
ATOM      1  C   UNL     1      -7.608  12.240   2.661  1.00  0.00     0.259 C 
ATOM      2  O   UNL     1      -6.915  11.282   2.975  1.00  0.00    -0.269 OA
ATOM      3  N   UNL     1      -8.173  12.540   1.418  1.00  0.00    -0.274 N 
ATOM      4  C   UNL     1      -8.409  11.897   0.230  1.00  0.00     0.321 C 
ATOM      5  O   UNL     1      -9.082  12.491  -0.620  1.00  0.00    -0.248 OA
ATOM      6  N   UNL     1      -7.974  10.653  -0.042  1.00  0.00    -0.334 N 
ATOM      7  H   UNL     1      -8.693  13.408   1.395  1.00  0.00     0.175 HD
ATOM      8  H   UNL     1      -8.304  10.291  -0.925  1.00  0.00     0.165 HD
ENDROOT
BRANCH   1   9
ATOM      9  C   UNL     1      -7.901  13.220   3.724  1.00  0.00     0.040 A 
ATOM     10  C   UNL     1      -6.931  13.599   4.653  1.00  0.00     0.014 A 
ATOM     11  C   UNL     1      -7.239  14.569   5.607  1.00  0.00     0.004 A 
ATOM     12  C   UNL     1      -9.190  13.760   3.782  1.00  0.00     0.014 A 
ATOM     13  C   UNL     1      -8.514  15.154   5.642  1.00  0.00    -0.051 A 
ATOM     14  C   UNL     1      -9.492  14.733   4.733  1.00  0.00     0.004 A 
ATOM     15  C   UNL     1      -8.804  16.255   6.619  1.00  0.00     0.044 C 
ENDBRANCH   1   9
BRANCH   6  16
ATOM     16  C   UNL     1      -7.272   9.759   0.835  1.00  0.00     0.153 C 
BRANCH  16  17
ATOM     17  C   UNL     1      -6.112   8.996   0.259  1.00  0.00    -0.029 A 
ATOM     18  C   UNL     1      -6.245   7.735  -0.331  1.00  0.00     0.006 A 
ATOM     19  C   UNL     1      -4.893   9.681   0.128  1.00  0.00     0.006 A 
ATOM     20  C   UNL     1      -5.183   7.187  -1.058  1.00  0.00     0.004 A 
ATOM     21  C   UNL     1      -3.840   9.137  -0.600  1.00  0.00     0.004 A 
ATOM     22  C   UNL     1      -3.979   7.889  -1.208  1.00  0.00    -0.051 A 
ATOM     23  C   UNL     1      -2.891   7.373  -2.102  1.00  0.00     0.044 C 
ENDBRANCH  16  17
ENDBRANCH   6  16
TORSDOF 3
ENDMDL
MODEL 4
REMARK VINA RESULT:    -5.941      3.134      7.308
REMARK INTER + INTRA:          -7.364
REMARK INTER:                  -6.872
REMARK INTRA:                  -0.492
REMARK UNBOUND:                -0.381
REMARK SMILES Cc1ccc(CNC(=O)NC(=O)c2ccc(C)cc2)cc1
REMARK SMILES IDX 11 1 12 2 10 3 8 4 9 5 7 6 13 9 19 10 18 11 14 12 16 13
REMARK SMILES IDX 15 14 17 15 6 16 5 17 4 18 20 19 3 20 21 21 2 22 1 23
REMARK H PARENT 10 7 7 8
ROOT
ATOM      1  C   UNL     1      -8.689  11.895  -0.741  1.00  0.00     0.259 C 
ATOM      2  O   UNL     1      -8.062  11.005  -1.298  1.00  0.00    -0.269 OA
ATOM      3  N   UNL     1      -8.627  12.306   0.594  1.00  0.00    -0.274 N 
ATOM      4  C   UNL     1      -7.799  12.127   1.672  1.00  0.00     0.321 C 
ATOM      5  O   UNL     1      -8.024  12.796   2.686  1.00  0.00    -0.248 OA
ATOM      6  N   UNL     1      -6.745  11.289   1.670  1.00  0.00    -0.334 N 
ATOM      7  H   UNL     1      -9.263  13.056   0.830  1.00  0.00     0.175 HD
ATOM      8  H   UNL     1      -6.186  11.336   2.510  1.00  0.00     0.165 HD
ENDROOT
BRANCH   1   9
ATOM      9  C   UNL     1      -9.642  12.653  -1.575  1.00  0.00     0.040 A 
ATOM     10  C   UNL     1     -10.438  12.018  -2.531  1.00  0.00     0.014 A 
ATOM     11  C   UNL     1     -11.362  12.768  -3.258  1.00  0.00     0.004 A 
ATOM     12  C   UNL     1      -9.725  14.036  -1.386  1.00  0.00     0.014 A 
ATOM     13  C   UNL     1     -11.489  14.148  -3.040  1.00  0.00    -0.051 A 
ATOM     14  C   UNL     1     -10.654  14.780  -2.110  1.00  0.00     0.004 A 
ATOM     15  C   UNL     1     -12.545  14.926  -3.769  1.00  0.00     0.044 C 
ENDBRANCH   1   9
BRANCH   6  16
ATOM     16  C   UNL     1      -6.252  10.506   0.573  1.00  0.00     0.153 C 
BRANCH  16  17
ATOM     17  C   UNL     1      -5.860   9.083   0.862  1.00  0.00    -0.029 A 
ATOM     18  C   UNL     1      -4.567   8.709   1.241  1.00  0.00     0.006 A 
ATOM     19  C   UNL     1      -6.895   8.138   0.955  1.00  0.00     0.006 A 
ATOM     20  C   UNL     1      -4.326   7.419   1.727  1.00  0.00     0.004 A 
ATOM     21  C   UNL     1      -6.654   6.857   1.443  1.00  0.00     0.004 A 
ATOM     22  C   UNL     1      -5.368   6.490   1.843  1.00  0.00    -0.051 A 
ATOM     23  C   UNL     1      -5.146   5.158   2.494  1.00  0.00     0.044 C 
ENDBRANCH  16  17
ENDBRANCH   6  16
TORSDOF 3
ENDMDL
MODEL 5
REMARK VINA RESULT:    -5.658      1.112      7.901
REMARK INTER + INTRA:          -7.031
REMARK INTER:                  -6.537
REMARK INTRA:                  -0.495
REMARK UNBOUND:                -0.381
REMARK SMILES Cc1ccc(CNC(=O)NC(=O)c2ccc(C)cc2)cc1
REMARK SMILES IDX 11 1 12 2 10 3 8 4 9 5 7 6 13 9 19 10 18 11 14 12 16 13
REMARK SMILES IDX 15 14 17 15 6 16 5 17 4 18 20 19 3 20 21 21 2 22 1 23
REMARK H PARENT 10 7 7 8
ROOT
ATOM      1  C   UNL     1      -7.929  12.281   2.930  1.00  0.00     0.259 C 
ATOM      2  O   UNL     1      -7.584  11.207   3.402  1.00  0.00    -0.269 OA
ATOM      3  N   UNL     1      -8.172  12.612   1.593  1.00  0.00    -0.274 N 
ATOM      4  C   UNL     1      -8.363  11.955   0.405  1.00  0.00     0.321 C 
ATOM      5  O   UNL     1      -8.696  12.628  -0.576  1.00  0.00    -0.248 OA
ATOM      6  N   UNL     1      -8.236  10.622   0.263  1.00  0.00    -0.334 N 
ATOM      7  H   UNL     1      -8.428  13.579   1.443  1.00  0.00     0.175 HD
ATOM      8  H   UNL     1      -8.494  10.285  -0.653  1.00  0.00     0.165 HD
ENDROOT
BRANCH   1   9
ATOM      9  C   UNL     1      -8.128  13.388   3.884  1.00  0.00     0.040 A 
ATOM     10  C   UNL     1      -9.344  14.070   3.965  1.00  0.00     0.014 A 
ATOM     11  C   UNL     1      -9.501  15.076   4.920  1.00  0.00     0.004 A 
ATOM     12  C   UNL     1      -7.056  13.746   4.708  1.00  0.00     0.014 A 
ATOM     13  C   UNL     1      -8.449  15.407   5.786  1.00  0.00    -0.051 A 
ATOM     14  C   UNL     1      -7.220  14.746   5.664  1.00  0.00     0.004 A 
ATOM     15  C   UNL     1      -8.661  16.431   6.862  1.00  0.00     0.044 C 
ENDBRANCH   1   9
BRANCH   6  16
ATOM     16  C   UNL     1      -7.961   9.654   1.287  1.00  0.00     0.153 C 
BRANCH  16  17
ATOM     17  C   UNL     1      -6.808   8.717   1.058  1.00  0.00    -0.029 A 
ATOM     18  C   UNL     1      -6.948   7.325   1.040  1.00  0.00     0.006 A 
ATOM     19  C   UNL     1      -5.593   9.282   0.640  1.00  0.00     0.006 A 
ATOM     20  C   UNL     1      -5.896   6.522   0.587  1.00  0.00     0.004 A 
ATOM     21  C   UNL     1      -4.549   8.482   0.185  1.00  0.00     0.004 A 
ATOM     22  C   UNL     1      -4.696   7.095   0.145  1.00  0.00    -0.051 A 
ATOM     23  C   UNL     1      -3.621   6.253  -0.474  1.00  0.00     0.044 C 
ENDBRANCH  16  17
ENDBRANCH   6  16
TORSDOF 3
ENDMDL
MODEL 6
REMARK VINA RESULT:    -5.652      2.999      7.601
REMARK INTER + INTRA:          -7.025
REMARK INTER:                  -6.532
REMARK INTRA:                  -0.493
REMARK UNBOUND:                -0.381
REMARK SMILES Cc1ccc(CNC(=O)NC(=O)c2ccc(C)cc2)cc1
REMARK SMILES IDX 11 1 12 2 10 3 8 4 9 5 7 6 13 9 19 10 18 11 14 12 16 13
REMARK SMILES IDX 15 14 17 15 6 16 5 17 4 18 20 19 3 20 21 21 2 22 1 23
REMARK H PARENT 10 7 7 8
ROOT
ATOM      1  C   UNL     1      -8.673  12.288  -0.974  1.00  0.00     0.259 C 
ATOM      2  O   UNL     1      -7.831  11.728  -1.663  1.00  0.00    -0.269 OA
ATOM      3  N   UNL     1      -8.745  12.378   0.420  1.00  0.00    -0.274 N 
ATOM      4  C   UNL     1      -7.923  12.152   1.494  1.00  0.00     0.321 C 
ATOM      5  O   UNL     1      -8.331  12.491   2.610  1.00  0.00    -0.248 OA
ATOM      6  N   UNL     1      -6.694  11.612   1.390  1.00  0.00    -0.334 N 
ATOM      7  H   UNL     1      -9.553  12.880   0.764  1.00  0.00     0.175 HD
ATOM      8  H   UNL     1      -6.184  11.591   2.261  1.00  0.00     0.165 HD
ENDROOT
BRANCH   1   9
ATOM      9  C   UNL     1      -9.765  12.973  -1.692  1.00  0.00     0.040 A 
ATOM     10  C   UNL     1     -10.012  14.335  -1.513  1.00  0.00     0.014 A 
ATOM     11  C   UNL     1     -11.022  14.950  -2.254  1.00  0.00     0.004 A 
ATOM     12  C   UNL     1     -10.557  12.214  -2.560  1.00  0.00     0.014 A 
ATOM     13  C   UNL     1     -11.789  14.208  -3.165  1.00  0.00    -0.051 A 
ATOM     14  C   UNL     1     -11.561  12.834  -3.302  1.00  0.00     0.004 A 
ATOM     15  C   UNL     1     -12.814  14.900  -4.016  1.00  0.00     0.044 C 
ENDBRANCH   1   9
BRANCH   6  16
ATOM     16  C   UNL     1      -5.996  11.247   0.189  1.00  0.00     0.153 C 
BRANCH  16  17
ATOM     17  C   UNL     1      -5.472   9.841   0.096  1.00  0.00    -0.029 A 
ATOM     18  C   UNL     1      -4.124   9.542  -0.126  1.00  0.00     0.006 A 
ATOM     19  C   UNL     1      -6.347   8.803   0.457  1.00  0.00     0.006 A 
ATOM     20  C   UNL     1      -3.661   8.232   0.037  1.00  0.00     0.004 A 
ATOM     21  C   UNL     1      -5.884   7.502   0.624  1.00  0.00     0.004 A 
ATOM     22  C   UNL     1      -4.534   7.207   0.425  1.00  0.00    -0.051 A 
ATOM     23  C   UNL     1      -4.021   5.833   0.740  1.00  0.00     0.044 C 
ENDBRANCH  16  17
ENDBRANCH   6  16
TORSDOF 3
ENDMDL
MODEL 7
REMARK VINA RESULT:    -5.486      7.820     10.479
REMARK INTER + INTRA:          -6.830
REMARK INTER:                  -6.517
REMARK INTRA:                  -0.312
REMARK UNBOUND:                -0.381
REMARK SMILES Cc1ccc(CNC(=O)NC(=O)c2ccc(C)cc2)cc1
REMARK SMILES IDX 11 1 12 2 10 3 8 4 9 5 7 6 13 9 19 10 18 11 14 12 16 13
REMARK SMILES IDX 15 14 17 15 6 16 5 17 4 18 20 19 3 20 21 21 2 22 1 23
REMARK H PARENT 10 7 7 8
ROOT
ATOM      1  C   UNL     1     -12.913  14.512  -3.298  1.00  0.00     0.259 C 
ATOM      2  O   UNL     1     -12.992  15.732  -3.276  1.00  0.00    -0.269 OA
ATOM      3  N   UNL     1     -13.846  13.582  -3.765  1.00  0.00    -0.274 N 
ATOM      4  C   UNL     1     -14.985  13.586  -4.528  1.00  0.00     0.321 C 
ATOM      5  O   UNL     1     -15.470  12.493  -4.840  1.00  0.00    -0.248 OA
ATOM      6  N   UNL     1     -15.578  14.708  -4.976  1.00  0.00    -0.334 N 
ATOM      7  H   UNL     1     -13.563  12.617  -3.657  1.00  0.00     0.175 HD
ATOM      8  H   UNL     1     -16.357  14.538  -5.595  1.00  0.00     0.165 HD
ENDROOT
BRANCH   1   9
ATOM      9  C   UNL     1     -11.668  13.923  -2.768  1.00  0.00     0.040 A 
ATOM     10  C   UNL     1     -10.752  14.686  -2.042  1.00  0.00     0.014 A 
ATOM     11  C   UNL     1      -9.615  14.072  -1.516  1.00  0.00     0.004 A 
ATOM     12  C   UNL     1     -11.424  12.569  -3.019  1.00  0.00     0.014 A 
ATOM     13  C   UNL     1      -9.386  12.703  -1.718  1.00  0.00    -0.051 A 
ATOM     14  C   UNL     1     -10.290  11.958  -2.486  1.00  0.00     0.004 A 
ATOM     15  C   UNL     1      -8.204  12.040  -1.075  1.00  0.00     0.044 C 
ENDBRANCH   1   9
BRANCH   6  16
ATOM     16  C   UNL     1     -15.124  16.061  -4.817  1.00  0.00     0.153 C 
BRANCH  16  17
ATOM     17  C   UNL     1     -14.312  16.652  -5.935  1.00  0.00    -0.029 A 
ATOM     18  C   UNL     1     -13.769  17.940  -5.887  1.00  0.00     0.006 A 
ATOM     19  C   UNL     1     -13.917  15.788  -6.969  1.00  0.00     0.006 A 
ATOM     20  C   UNL     1     -12.830  18.341  -6.843  1.00  0.00     0.004 A 
ATOM     21  C   UNL     1     -12.979  16.186  -7.917  1.00  0.00     0.004 A 
ATOM     22  C   UNL     1     -12.420  17.463  -7.856  1.00  0.00    -0.051 A 
ATOM     23  C   UNL     1     -11.312  17.834  -8.796  1.00  0.00     0.044 C 
ENDBRANCH  16  17
ENDBRANCH   6  16
TORSDOF 3
ENDMDL
MODEL 8
REMARK VINA RESULT:    -4.919      5.104      7.924
REMARK INTER + INTRA:          -6.163
REMARK INTER:                  -6.335
REMARK INTRA:                   0.172
REMARK UNBOUND:                -0.381
REMARK SMILES Cc1ccc(CNC(=O)NC(=O)c2ccc(C)cc2)cc1
REMARK SMILES IDX 11 1 12 2 10 3 8 4 9 5 7 6 13 9 19 10 18 11 14 12 16 13
REMARK SMILES IDX 15 14 17 15 6 16 5 17 4 18 20 19 3 20 21 21 2 22 1 23
REMARK H PARENT 10 7 7 8
ROOT
ATOM      1  C   UNL     1      -7.985  16.179   6.276  1.00  0.00     0.259 C 
ATOM      2  O   UNL     1      -8.191  17.275   5.773  1.00  0.00    -0.269 OA
ATOM      3  N   UNL     1      -7.784  15.858   7.622  1.00  0.00    -0.274 N 
ATOM      4  C   UNL     1      -7.952  16.460   8.843  1.00  0.00     0.321 C 
ATOM      5  O   UNL     1      -7.778  15.768   9.852  1.00  0.00    -0.248 OA
ATOM      6  N   UNL     1      -8.322  17.745   8.995  1.00  0.00    -0.334 N 
ATOM      7  H   UNL     1      -7.609  14.877   7.795  1.00  0.00     0.175 HD
ATOM      8  H   UNL     1      -8.485  18.010   9.956  1.00  0.00     0.165 HD
ENDROOT
BRANCH   1   9
ATOM      9  C   UNL     1      -7.943  15.027   5.355  1.00  0.00     0.040 A 
ATOM     10  C   UNL     1      -6.753  14.343   5.099  1.00  0.00     0.014 A 
ATOM     11  C   UNL     1      -6.772  13.227   4.262  1.00  0.00     0.004 A 
ATOM     12  C   UNL     1      -9.134  14.638   4.736  1.00  0.00     0.014 A 
ATOM     13  C   UNL     1      -7.972  12.797   3.676  1.00  0.00    -0.051 A 
ATOM     14  C   UNL     1      -9.150  13.518   3.906  1.00  0.00     0.004 A 
ATOM     15  C   UNL     1      -7.992  11.546   2.847  1.00  0.00     0.044 C 
ENDBRANCH   1   9
BRANCH   6  16
ATOM     16  C   UNL     1      -8.670  18.684   7.966  1.00  0.00     0.153 C 
BRANCH  16  17
ATOM     17  C   UNL     1     -10.083  18.651   7.453  1.00  0.00    -0.029 A 
ATOM     18  C   UNL     1     -10.445  19.114   6.184  1.00  0.00     0.006 A 
ATOM     19  C   UNL     1     -11.025  17.932   8.207  1.00  0.00     0.006 A 
ATOM     20  C   UNL     1     -11.719  18.838   5.675  1.00  0.00     0.004 A 
ATOM     21  C   UNL     1     -12.289  17.654   7.698  1.00  0.00     0.004 A 
ATOM     22  C   UNL     1     -12.644  18.096   6.422  1.00  0.00    -0.051 A 
ATOM     23  C   UNL     1     -13.955  17.675   5.829  1.00  0.00     0.044 C 
ENDBRANCH  16  17
ENDBRANCH   6  16
TORSDOF 3
ENDMDL
