MODEL 1
REMARK VINA RESULT:    -4.731      0.000      0.000
REMARK INTER + INTRA:          -6.435
REMARK INTER:                  -6.252
REMARK INTRA:                  -0.183
REMARK UNBOUND:                -0.183
REMARK SMILES [H]/N=C\C[C@H]1C[C@@H]1O[C@H]1CO[C@H]2C[C@@H](C3CC3)CCN2C1
REMARK SMILES IDX 7 1 6 2 5 3 8 4 9 5 14 6 13 7 18 8 12 9 19 10 20 11 11 12
REMARK SMILES IDX 21 13 10 14 15 15 16 16 17 17 4 18 3 19 2 20 1 21
REMARK H PARENT
ROOT
ATOM      1  C   UNL     1     -14.086  17.503  -5.687  1.00  0.00     0.122 C 
ATOM      2  C   UNL     1     -13.471  18.238  -6.845  1.00  0.00     0.039 C 
ATOM      3  C   UNL     1     -13.210  16.770  -6.666  1.00  0.00     0.026 C 
ENDROOT
BRANCH   1   4
ATOM      4  O   UNL     1     -13.499  17.822  -4.411  1.00  0.00    -0.371 OA
BRANCH   4   5
ATOM      5  C   UNL     1     -14.177  17.283  -3.265  1.00  0.00     0.158 C 
ATOM      6  C   UNL     1     -10.399  14.136  -1.527  1.00  0.00    -0.003 C 
ATOM      7  C   UNL     1     -11.368  14.136  -2.715  1.00  0.00     0.052 C 
ATOM      8  C   UNL     1     -10.037  15.584  -1.167  1.00  0.00     0.019 C 
ATOM      9  C   UNL     1     -12.582  15.039  -2.460  1.00  0.00     0.189 C 
ATOM     10  C   UNL     1     -11.288  16.437  -0.959  1.00  0.00     0.087 C 
ATOM     11  N   UNL     1     -12.149  16.400  -2.142  1.00  0.00    -0.276 NA
ATOM     12  O   UNL     1     -13.381  14.994  -3.644  1.00  0.00    -0.360 OA
ATOM     13  C   UNL     1     -13.311  17.282  -1.993  1.00  0.00     0.121 C 
ATOM     14  C   UNL     1     -14.542  15.826  -3.569  1.00  0.00     0.195 C 
BRANCH   6  15
ATOM     15  C   UNL     1      -9.151  13.337  -1.828  1.00  0.00    -0.008 C 
ATOM     16  C   UNL     1      -8.731  12.205  -0.921  1.00  0.00     0.004 C 
ATOM     17  C   UNL     1      -9.244  11.906  -2.299  1.00  0.00     0.004 C 
ENDBRANCH   6  15
ENDBRANCH   4   5
ENDBRANCH   1   4
BRANCH   3  18
ATOM     18  C   UNL     1     -13.812  15.801  -7.640  1.00  0.00     0.053 C 
BRANCH  18  19
ATOM     19  C   UNL     1     -13.055  14.517  -7.856  1.00  0.00     0.074 C 
BRANCH  19  20
ATOM     20  N   UNL     1     -13.127  13.762  -8.902  1.00  0.00    -0.313 NA
ATOM     21  H   UNL     1     -13.419  14.294  -9.734  1.00  0.00     0.186 HD
ENDBRANCH  19  20
ENDBRANCH  18  19
ENDBRANCH   3  18
TORSDOF 6
ENDMDL
MODEL 2
REMARK VINA RESULT:    -4.335      8.931     12.082
REMARK INTER + INTRA:          -5.912
REMARK INTER:                  -5.761
REMARK INTRA:                  -0.151
REMARK UNBOUND:                -0.183
REMARK SMILES [H]/N=C\C[C@H]1C[C@@H]1O[C@H]1CO[C@H]2C[C@@H](C3CC3)CCN2C1
REMARK SMILES IDX 7 1 6 2 5 3 8 4 9 5 14 6 13 7 18 8 12 9 19 10 20 11 11 12
REMARK SMILES IDX 21 13 10 14 15 15 16 16 17 17 4 18 3 19 2 20 1 21
REMARK H PARENT
ROOT
ATOM      1  C   UNL     1     -10.731  18.122   9.040  1.00  0.00     0.122 C 
ATOM      2  C   UNL     1     -11.566  17.640  10.193  1.00  0.00     0.039 C 
ATOM      3  C   UNL     1     -10.350  16.865   9.774  1.00  0.00     0.026 C 
ENDROOT
BRANCH   1   4
ATOM      4  O   UNL     1     -11.355  17.952   7.753  1.00  0.00    -0.371 OA
BRANCH   4   5
ATOM      5  C   UNL     1     -10.702  18.612   6.656  1.00  0.00     0.158 C 
ATOM      6  C   UNL     1      -9.005  14.393   4.102  1.00  0.00    -0.003 C 
ATOM      7  C   UNL     1      -8.630  15.114   5.402  1.00  0.00     0.052 C 
ATOM      8  C   UNL     1     -10.513  14.544   3.854  1.00  0.00     0.019 C 
ATOM      9  C   UNL     1      -9.122  16.568   5.410  1.00  0.00     0.189 C 
ATOM     10  C   UNL     1     -10.943  16.010   3.909  1.00  0.00     0.087 C 
ATOM     11  N   UNL     1     -10.567  16.619   5.184  1.00  0.00    -0.276 NA
ATOM     12  O   UNL     1      -8.758  17.116   6.678  1.00  0.00    -0.360 OA
ATOM     13  C   UNL     1     -11.050  18.001   5.287  1.00  0.00     0.121 C 
ATOM     14  C   UNL     1      -9.189  18.470   6.848  1.00  0.00     0.195 C 
BRANCH   6  15
ATOM     15  C   UNL     1      -8.619  12.932   4.147  1.00  0.00    -0.008 C 
ATOM     16  C   UNL     1      -7.912  12.292   2.975  1.00  0.00     0.004 C 
ATOM     17  C   UNL     1      -7.172  12.517   4.261  1.00  0.00     0.004 C 
ENDBRANCH   6  15
ENDBRANCH   4   5
ENDBRANCH   1   4
BRANCH   3  18
ATOM     18  C   UNL     1      -9.151  16.851  10.675  1.00  0.00     0.053 C 
BRANCH  18  19
ATOM     19  C   UNL     1      -7.942  16.113  10.163  1.00  0.00     0.074 C 
BRANCH  19  20
ATOM     20  N   UNL     1      -7.467  15.012  10.644  1.00  0.00    -0.313 NA
ATOM     21  H   UNL     1      -7.474  14.257   9.943  1.00  0.00     0.186 HD
ENDBRANCH  19  20
ENDBRANCH  18  19
ENDBRANCH   3  18
TORSDOF 6
ENDMDL
MODEL 3
REMARK VINA RESULT:    -4.230      3.360      5.962
REMARK INTER + INTRA:          -5.773
REMARK INTER:                  -5.629
REMARK INTRA:                  -0.144
REMARK UNBOUND:                -0.183
REMARK SMILES [H]/N=C\C[C@H]1C[C@@H]1O[C@H]1CO[C@H]2C[C@@H](C3CC3)CCN2C1
REMARK SMILES IDX 7 1 6 2 5 3 8 4 9 5 14 6 13 7 18 8 12 9 19 10 20 11 11 12
REMARK SMILES IDX 21 13 10 14 15 15 16 16 17 17 4 18 3 19 2 20 1 21
REMARK H PARENT
ROOT
ATOM      1  C   UNL     1     -14.415  16.786  -0.427  1.00  0.00     0.122 C 
ATOM      2  C   UNL     1     -15.653  16.171   0.161  1.00  0.00     0.039 C 
ATOM      3  C   UNL     1     -14.705  16.933   1.042  1.00  0.00     0.026 C 
ENDROOT
BRANCH   1   4
ATOM      4  O   UNL     1     -13.401  15.831  -0.792  1.00  0.00    -0.371 OA
BRANCH   4   5
ATOM      5  C   UNL     1     -12.501  16.249  -1.831  1.00  0.00     0.158 C 
ATOM      6  C   UNL     1      -8.913  12.498  -1.313  1.00  0.00    -0.003 C 
ATOM      7  C   UNL     1      -9.337  13.731  -0.506  1.00  0.00     0.052 C 
ATOM      8  C   UNL     1     -10.140  11.910  -2.024  1.00  0.00     0.019 C 
ATOM      9  C   UNL     1     -10.104  14.742  -1.370  1.00  0.00     0.189 C 
ATOM     10  C   UNL     1     -10.877  12.973  -2.838  1.00  0.00     0.087 C 
ATOM     11  N   UNL     1     -11.263  14.104  -1.994  1.00  0.00    -0.276 NA
ATOM     12  O   UNL     1     -10.482  15.814  -0.505  1.00  0.00    -0.360 OA
ATOM     13  C   UNL     1     -12.047  15.094  -2.741  1.00  0.00     0.121 C 
ATOM     14  C   UNL     1     -11.245  16.826  -1.169  1.00  0.00     0.195 C 
BRANCH   6  15
ATOM     15  C   UNL     1      -8.260  11.456  -0.433  1.00  0.00    -0.008 C 
ATOM     16  C   UNL     1      -6.796  11.565  -0.079  1.00  0.00     0.004 C 
ATOM     17  C   UNL     1      -7.838  11.790   0.978  1.00  0.00     0.004 C 
ENDBRANCH   6  15
ENDBRANCH   4   5
ENDBRANCH   1   4
BRANCH   3  18
ATOM     18  C   UNL     1     -15.135  18.257   1.599  1.00  0.00     0.053 C 
BRANCH  18  19
ATOM     19  C   UNL     1     -15.300  18.329   3.094  1.00  0.00     0.074 C 
BRANCH  19  20
ATOM     20  N   UNL     1     -15.669  17.359   3.863  1.00  0.00    -0.313 NA
ATOM     21  H   UNL     1     -14.873  16.765   4.133  1.00  0.00     0.186 HD
ENDBRANCH  19  20
ENDBRANCH  18  19
ENDBRANCH   3  18
TORSDOF 6
ENDMDL
MODEL 4
REMARK VINA RESULT:    -4.218      2.513      4.789
REMARK INTER + INTRA:          -5.756
REMARK INTER:                  -5.479
REMARK INTRA:                  -0.277
REMARK UNBOUND:                -0.183
REMARK SMILES [H]/N=C\C[C@H]1C[C@@H]1O[C@H]1CO[C@H]2C[C@@H](C3CC3)CCN2C1
REMARK SMILES IDX 7 1 6 2 5 3 8 4 9 5 14 6 13 7 18 8 12 9 19 10 20 11 11 12
REMARK SMILES IDX 21 13 10 14 15 15 16 16 17 17 4 18 3 19 2 20 1 21
REMARK H PARENT
ROOT
ATOM      1  C   UNL     1     -14.401  17.896  -1.272  1.00  0.00     0.122 C 
ATOM      2  C   UNL     1     -14.962  18.293   0.065  1.00  0.00     0.039 C 
ATOM      3  C   UNL     1     -13.792  17.353  -0.008  1.00  0.00     0.026 C 
ENDROOT
BRANCH   1   4
ATOM      4  O   UNL     1     -15.245  16.998  -2.019  1.00  0.00    -0.371 OA
BRANCH   4   5
ATOM      5  C   UNL     1     -14.928  16.868  -3.414  1.00  0.00     0.158 C 
ATOM      6  C   UNL     1     -11.462  12.985  -3.070  1.00  0.00    -0.003 C 
ATOM      7  C   UNL     1     -11.481  14.475  -2.709  1.00  0.00     0.052 C 
ATOM      8  C   UNL     1     -12.872  12.403  -2.896  1.00  0.00     0.019 C 
ATOM      9  C   UNL     1     -12.571  15.234  -3.479  1.00  0.00     0.189 C 
ATOM     10  C   UNL     1     -13.912  13.223  -3.659  1.00  0.00     0.087 C 
ATOM     11  N   UNL     1     -13.880  14.625  -3.244  1.00  0.00    -0.276 NA
ATOM     12  O   UNL     1     -12.521  16.589  -3.027  1.00  0.00    -0.360 OA
ATOM     13  C   UNL     1     -14.931  15.408  -3.903  1.00  0.00     0.121 C 
ATOM     14  C   UNL     1     -13.515  17.419  -3.636  1.00  0.00     0.195 C 
BRANCH   6  15
ATOM     15  C   UNL     1     -10.465  12.222  -2.227  1.00  0.00    -0.008 C 
ATOM     16  C   UNL     1      -9.074  11.949  -2.749  1.00  0.00     0.004 C 
ATOM     17  C   UNL     1      -9.271  12.919  -1.621  1.00  0.00     0.004 C 
ENDBRANCH   6  15
ENDBRANCH   4   5
ENDBRANCH   1   4
BRANCH   3  18
ATOM     18  C   UNL     1     -12.446  17.831   0.448  1.00  0.00     0.053 C 
BRANCH  18  19
ATOM     19  C   UNL     1     -11.383  16.775   0.605  1.00  0.00     0.074 C 
BRANCH  19  20
ATOM     20  N   UNL     1     -10.200  16.810   0.087  1.00  0.00    -0.313 NA
ATOM     21  H   UNL     1     -10.052  16.034  -0.574  1.00  0.00     0.186 HD
ENDBRANCH  19  20
ENDBRANCH  18  19
ENDBRANCH   3  18
TORSDOF 6
ENDMDL
MODEL 5
REMARK VINA RESULT:    -4.175      8.437     10.878
REMARK INTER + INTRA:          -5.700
REMARK INTER:                  -5.472
REMARK INTRA:                  -0.228
REMARK UNBOUND:                -0.183
REMARK SMILES [H]/N=C\C[C@H]1C[C@@H]1O[C@H]1CO[C@H]2C[C@@H](C3CC3)CCN2C1
REMARK SMILES IDX 7 1 6 2 5 3 8 4 9 5 14 6 13 7 18 8 12 9 19 10 20 11 11 12
REMARK SMILES IDX 21 13 10 14 15 15 16 16 17 17 4 18 3 19 2 20 1 21
REMARK H PARENT
ROOT
ATOM      1  C   UNL     1      -7.493  12.810   3.211  1.00  0.00     0.122 C 
ATOM      2  C   UNL     1      -8.723  13.330   3.901  1.00  0.00     0.039 C 
ATOM      3  C   UNL     1      -7.428  13.223   4.656  1.00  0.00     0.026 C 
ENDROOT
BRANCH   1   4
ATOM      4  O   UNL     1      -7.523  11.395   2.946  1.00  0.00    -0.371 OA
BRANCH   4   5
ATOM      5  C   UNL     1      -8.387  10.983   1.874  1.00  0.00     0.158 C 
ATOM      6  C   UNL     1      -5.109   7.752  -0.578  1.00  0.00    -0.003 C 
ATOM      7  C   UNL     1      -5.230   9.271  -0.406  1.00  0.00     0.052 C 
ATOM      8  C   UNL     1      -5.634   7.055   0.685  1.00  0.00     0.019 C 
ATOM      9  C   UNL     1      -6.652   9.687  -0.007  1.00  0.00     0.189 C 
ATOM     10  C   UNL     1      -7.038   7.538   1.047  1.00  0.00     0.087 C 
ATOM     11  N   UNL     1      -7.065   8.991   1.211  1.00  0.00    -0.276 NA
ATOM     12  O   UNL     1      -6.628  11.105   0.167  1.00  0.00    -0.360 OA
ATOM     13  C   UNL     1      -8.385   9.462   1.644  1.00  0.00     0.121 C 
ATOM     14  C   UNL     1      -7.889  11.640   0.582  1.00  0.00     0.195 C 
BRANCH   6  15
ATOM     15  C   UNL     1      -3.682   7.337  -0.859  1.00  0.00    -0.008 C 
ATOM     16  C   UNL     1      -3.375   6.357  -1.967  1.00  0.00     0.004 C 
ATOM     17  C   UNL     1      -2.975   7.797  -2.111  1.00  0.00     0.004 C 
ENDBRANCH   6  15
ENDBRANCH   4   5
ENDBRANCH   1   4
BRANCH   3  18
ATOM     18  C   UNL     1      -6.712  14.480   5.051  1.00  0.00     0.053 C 
BRANCH  18  19
ATOM     19  C   UNL     1      -7.499  15.463   5.879  1.00  0.00     0.074 C 
BRANCH  19  20
ATOM     20  N   UNL     1      -7.857  15.300   7.110  1.00  0.00    -0.313 NA
ATOM     21  H   UNL     1      -7.117  15.595   7.762  1.00  0.00     0.186 HD
ENDBRANCH  19  20
ENDBRANCH  18  19
ENDBRANCH   3  18
TORSDOF 6
ENDMDL
MODEL 6
REMARK VINA RESULT:    -4.142      5.540      8.561
REMARK INTER + INTRA:          -5.656
REMARK INTER:                  -5.405
REMARK INTRA:                  -0.252
REMARK UNBOUND:                -0.183
REMARK SMILES [H]/N=C\C[C@H]1C[C@@H]1O[C@H]1CO[C@H]2C[C@@H](C3CC3)CCN2C1
REMARK SMILES IDX 7 1 6 2 5 3 8 4 9 5 14 6 13 7 18 8 12 9 19 10 20 11 11 12
REMARK SMILES IDX 21 13 10 14 15 15 16 16 17 17 4 18 3 19 2 20 1 21
REMARK H PARENT
ROOT
ATOM      1  C   UNL     1      -9.322  12.065  -1.169  1.00  0.00     0.122 C 
ATOM      2  C   UNL     1      -9.412  13.482  -1.662  1.00  0.00     0.039 C 
ATOM      3  C   UNL     1      -9.869  12.354  -2.541  1.00  0.00     0.026 C 
ENDROOT
BRANCH   1   4
ATOM      4  O   UNL     1      -7.979  11.550  -1.106  1.00  0.00    -0.371 OA
BRANCH   4   5
ATOM      5  C   UNL     1      -7.171  12.057  -0.032  1.00  0.00     0.158 C 
ATOM      6  C   UNL     1      -4.806   7.614   1.335  1.00  0.00    -0.003 C 
ATOM      7  C   UNL     1      -6.220   8.191   1.469  1.00  0.00     0.052 C 
ATOM      8  C   UNL     1      -4.167   8.132   0.039  1.00  0.00     0.019 C 
ATOM      9  C   UNL     1      -6.226   9.721   1.338  1.00  0.00     0.189 C 
ATOM     10  C   UNL     1      -4.236   9.657  -0.046  1.00  0.00     0.087 C 
ATOM     11  N   UNL     1      -5.616  10.126   0.071  1.00  0.00    -0.276 NA
ATOM     12  O   UNL     1      -7.590  10.134   1.433  1.00  0.00    -0.360 OA
ATOM     13  C   UNL     1      -5.709  11.581  -0.096  1.00  0.00     0.121 C 
ATOM     14  C   UNL     1      -7.759  11.547   1.288  1.00  0.00     0.195 C 
BRANCH   6  15
ATOM     15  C   UNL     1      -4.820   6.102   1.351  1.00  0.00    -0.008 C 
ATOM     16  C   UNL     1      -4.035   5.341   2.393  1.00  0.00     0.004 C 
ATOM     17  C   UNL     1      -5.535   5.347   2.446  1.00  0.00     0.004 C 
ENDBRANCH   6  15
ENDBRANCH   4   5
ENDBRANCH   1   4
BRANCH   3  18
ATOM     18  C   UNL     1     -11.334  12.197  -2.819  1.00  0.00     0.053 C 
BRANCH  18  19
ATOM     19  C   UNL     1     -12.073  13.446  -3.223  1.00  0.00     0.074 C 
BRANCH  19  20
ATOM     20  N   UNL     1     -12.116  13.949  -4.412  1.00  0.00    -0.313 NA
ATOM     21  H   UNL     1     -11.729  13.301  -5.113  1.00  0.00     0.186 HD
ENDBRANCH  19  20
ENDBRANCH  18  19
ENDBRANCH   3  18
TORSDOF 6
ENDMDL
MODEL 7
REMARK VINA RESULT:    -4.000      3.733      8.099
REMARK INTER + INTRA:          -5.469
REMARK INTER:                  -5.458
REMARK INTRA:                  -0.011
REMARK UNBOUND:                -0.183
REMARK SMILES [H]/N=C\C[C@H]1C[C@@H]1O[C@H]1CO[C@H]2C[C@@H](C3CC3)CCN2C1
REMARK SMILES IDX 7 1 6 2 5 3 8 4 9 5 14 6 13 7 18 8 12 9 19 10 20 11 11 12
REMARK SMILES IDX 21 13 10 14 15 15 16 16 17 17 4 18 3 19 2 20 1 21
REMARK H PARENT
ROOT
ATOM      1  C   UNL     1      -7.988  11.290   0.449  1.00  0.00     0.122 C 
ATOM      2  C   UNL     1      -7.936  11.391   1.948  1.00  0.00     0.039 C 
ATOM      3  C   UNL     1      -8.444  10.135   1.298  1.00  0.00     0.026 C 
ENDROOT
BRANCH   1   4
ATOM      4  O   UNL     1      -9.020  12.092  -0.157  1.00  0.00    -0.371 OA
BRANCH   4   5
ATOM      5  C   UNL     1      -8.678  12.693  -1.416  1.00  0.00     0.158 C 
ATOM      6  C   UNL     1     -13.493  13.792  -3.093  1.00  0.00    -0.003 C 
ATOM      7  C   UNL     1     -12.657  12.519  -2.914  1.00  0.00     0.052 C 
ATOM      8  C   UNL     1     -13.104  14.811  -2.014  1.00  0.00     0.019 C 
ATOM      9  C   UNL     1     -11.154  12.828  -2.858  1.00  0.00     0.189 C 
ATOM     10  C   UNL     1     -11.594  15.048  -1.988  1.00  0.00     0.087 C 
ATOM     11  N   UNL     1     -10.871  13.792  -1.795  1.00  0.00    -0.276 NA
ATOM     12  O   UNL     1     -10.488  11.582  -2.645  1.00  0.00    -0.360 OA
ATOM     13  C   UNL     1      -9.425  14.013  -1.681  1.00  0.00     0.121 C 
ATOM     14  C   UNL     1      -9.068  11.718  -2.532  1.00  0.00     0.195 C 
BRANCH   6  15
ATOM     15  C   UNL     1     -14.975  13.495  -3.033  1.00  0.00    -0.008 C 
ATOM     16  C   UNL     1     -15.977  14.500  -3.549  1.00  0.00     0.004 C 
ATOM     17  C   UNL     1     -15.759  13.214  -4.292  1.00  0.00     0.004 C 
ENDBRANCH   6  15
ENDBRANCH   4   5
ENDBRANCH   1   4
BRANCH   3  18
ATOM     18  C   UNL     1      -7.617   8.887   1.383  1.00  0.00     0.053 C 
BRANCH  18  19
ATOM     19  C   UNL     1      -8.376   7.586   1.417  1.00  0.00     0.074 C 
BRANCH  19  20
ATOM     20  N   UNL     1      -9.454   7.356   2.089  1.00  0.00    -0.313 NA
ATOM     21  H   UNL     1      -9.267   6.779   2.921  1.00  0.00     0.186 HD
ENDBRANCH  19  20
ENDBRANCH  18  19
ENDBRANCH   3  18
TORSDOF 6
ENDMDL
MODEL 8
REMARK VINA RESULT:    -3.866      4.197      7.827
REMARK INTER + INTRA:          -5.292
REMARK INTER:                  -5.041
REMARK INTRA:                  -0.251
REMARK UNBOUND:                -0.183
REMARK SMILES [H]/N=C\C[C@H]1C[C@@H]1O[C@H]1CO[C@H]2C[C@@H](C3CC3)CCN2C1
REMARK SMILES IDX 7 1 6 2 5 3 8 4 9 5 14 6 13 7 18 8 12 9 19 10 20 11 11 12
REMARK SMILES IDX 21 13 10 14 15 15 16 16 17 17 4 18 3 19 2 20 1 21
REMARK H PARENT
ROOT
ATOM      1  C   UNL     1     -12.741  17.345   2.543  1.00  0.00     0.122 C 
ATOM      2  C   UNL     1     -11.479  16.607   2.887  1.00  0.00     0.039 C 
ATOM      3  C   UNL     1     -11.408  18.028   2.406  1.00  0.00     0.026 C 
ENDROOT
BRANCH   1   4
ATOM      4  O   UNL     1     -13.367  16.902   1.323  1.00  0.00    -0.371 OA
BRANCH   4   5
ATOM      5  C   UNL     1     -14.743  17.283   1.159  1.00  0.00     0.158 C 
ATOM      6  C   UNL     1     -15.078  16.791  -4.023  1.00  0.00    -0.003 C 
ATOM      7  C   UNL     1     -14.410  17.774  -3.054  1.00  0.00     0.052 C 
ATOM      8  C   UNL     1     -15.095  15.391  -3.394  1.00  0.00     0.019 C 
ATOM      9  C   UNL     1     -15.048  17.722  -1.659  1.00  0.00     0.189 C 
ATOM     10  C   UNL     1     -15.710  15.414  -1.995  1.00  0.00     0.087 C 
ATOM     11  N   UNL     1     -15.006  16.359  -1.129  1.00  0.00    -0.276 NA
ATOM     12  O   UNL     1     -14.317  18.638  -0.841  1.00  0.00    -0.360 OA
ATOM     13  C   UNL     1     -15.530  16.330   0.242  1.00  0.00     0.121 C 
ATOM     14  C   UNL     1     -14.779  18.671   0.513  1.00  0.00     0.195 C 
BRANCH   6  15
ATOM     15  C   UNL     1     -14.373  16.764  -5.360  1.00  0.00    -0.008 C 
ATOM     16  C   UNL     1     -14.969  17.473  -6.553  1.00  0.00     0.004 C 
ATOM     17  C   UNL     1     -13.719  18.006  -5.915  1.00  0.00     0.004 C 
ENDBRANCH   6  15
ENDBRANCH   4   5
ENDBRANCH   1   4
BRANCH   3  18
ATOM     18  C   UNL     1     -11.006  19.102   3.372  1.00  0.00     0.053 C 
BRANCH  18  19
ATOM     19  C   UNL     1      -9.593  19.038   3.891  1.00  0.00     0.074 C 
BRANCH  19  20
ATOM     20  N   UNL     1      -8.546  18.732   3.199  1.00  0.00    -0.313 NA
ATOM     21  H   UNL     1      -8.103  19.568   2.792  1.00  0.00     0.186 HD
ENDBRANCH  19  20
ENDBRANCH  18  19
ENDBRANCH   3  18
TORSDOF 6
ENDMDL
MODEL 9
REMARK VINA RESULT:    -3.737      3.137      4.650
REMARK INTER + INTRA:          -5.122
REMARK INTER:                  -5.043
REMARK INTRA:                  -0.079
REMARK UNBOUND:                -0.183
REMARK SMILES [H]/N=C\C[C@H]1C[C@@H]1O[C@H]1CO[C@H]2C[C@@H](C3CC3)CCN2C1
REMARK SMILES IDX 7 1 6 2 5 3 8 4 9 5 14 6 13 7 18 8 12 9 19 10 20 11 11 12
REMARK SMILES IDX 21 13 10 14 15 15 16 16 17 17 4 18 3 19 2 20 1 21
REMARK H PARENT
ROOT
ATOM      1  C   UNL     1     -13.299  15.855  -4.117  1.00  0.00     0.122 C 
ATOM      2  C   UNL     1     -12.922  14.416  -4.330  1.00  0.00     0.039 C 
ATOM      3  C   UNL     1     -13.965  15.054  -5.203  1.00  0.00     0.026 C 
ENDROOT
BRANCH   1   4
ATOM      4  O   UNL     1     -14.070  16.088  -2.923  1.00  0.00    -0.371 OA
BRANCH   4   5
ATOM      5  C   UNL     1     -14.545  17.433  -2.746  1.00  0.00     0.158 C 
ATOM      6  C   UNL     1     -13.129  18.114   2.228  1.00  0.00    -0.003 C 
ATOM      7  C   UNL     1     -14.206  17.306   1.493  1.00  0.00     0.052 C 
ATOM      8  C   UNL     1     -11.879  18.217   1.342  1.00  0.00     0.019 C 
ATOM      9  C   UNL     1     -14.478  17.863   0.090  1.00  0.00     0.189 C 
ATOM     10  C   UNL     1     -12.224  18.745  -0.050  1.00  0.00     0.087 C 
ATOM     11  N   UNL     1     -13.241  17.911  -0.690  1.00  0.00    -0.276 NA
ATOM     12  O   UNL     1     -15.455  17.008  -0.507  1.00  0.00    -0.360 OA
ATOM     13  C   UNL     1     -13.520  18.353  -2.061  1.00  0.00     0.121 C 
ATOM     14  C   UNL     1     -15.786  17.385  -1.847  1.00  0.00     0.195 C 
BRANCH   6  15
ATOM     15  C   UNL     1     -12.784  17.494   3.563  1.00  0.00    -0.008 C 
ATOM     16  C   UNL     1     -12.795  18.331   4.820  1.00  0.00     0.004 C 
ATOM     17  C   UNL     1     -13.846  17.279   4.614  1.00  0.00     0.004 C 
ENDBRANCH   6  15
ENDBRANCH   4   5
ENDBRANCH   1   4
BRANCH   3  18
ATOM     18  C   UNL     1     -13.643  15.321  -6.643  1.00  0.00     0.053 C 
BRANCH  18  19
ATOM     19  C   UNL     1     -13.173  14.139  -7.450  1.00  0.00     0.074 C 
BRANCH  19  20
ATOM     20  N   UNL     1     -12.355  14.181  -8.448  1.00  0.00    -0.313 NA
ATOM     21  H   UNL     1     -12.370  15.100  -8.914  1.00  0.00     0.186 HD
ENDBRANCH  19  20
ENDBRANCH  18  19
ENDBRANCH   3  18
TORSDOF 6
ENDMDL
