MODEL 1
REMARK VINA RESULT:    -3.998      0.000      0.000
REMARK INTER + INTRA:          -5.401
REMARK INTER:                  -5.283
REMARK INTRA:                  -0.118
REMARK UNBOUND:                -0.118
REMARK SMILES [H]/N=C\C[C@H]1C[C@@H]1O[C@H]1CO[C@H]2C[C@@H](C3CC3)CCN2C1
REMARK SMILES IDX 7 1 6 2 5 3 8 4 9 5 14 6 13 7 18 8 12 9 19 10 20 11 11 12
REMARK SMILES IDX 21 13 10 14 15 15 16 16 17 17 4 18 3 19 2 20 1 21
REMARK H PARENT
ROOT
ATOM      1  C   UNL     1       9.078  -2.527   5.598  1.00  0.00     0.122 C 
ATOM      2  C   UNL     1       9.817  -2.916   4.349  1.00  0.00     0.039 C 
ATOM      3  C   UNL     1       8.541  -3.620   4.715  1.00  0.00     0.026 C 
ENDROOT
BRANCH   1   4
ATOM      4  O   UNL     1       9.725  -2.942   6.816  1.00  0.00    -0.371 OA
BRANCH   4   5
ATOM      5  C   UNL     1       9.582  -2.046   7.931  1.00  0.00     0.158 C 
ATOM      6  C   UNL     1      10.780  -5.370  11.767  1.00  0.00    -0.003 C 
ATOM      7  C   UNL     1       9.591  -5.169  10.820  1.00  0.00     0.052 C 
ATOM      8  C   UNL     1      12.074  -4.958  11.052  1.00  0.00     0.019 C 
ATOM      9  C   UNL     1       9.559  -3.748  10.239  1.00  0.00     0.189 C 
ATOM     10  C   UNL     1      11.965  -3.550  10.468  1.00  0.00     0.087 C 
ATOM     11  N   UNL     1      10.821  -3.446   9.563  1.00  0.00    -0.276 NA
ATOM     12  O   UNL     1       8.446  -3.697   9.345  1.00  0.00    -0.360 OA
ATOM     13  C   UNL     1      10.753  -2.125   8.926  1.00  0.00     0.121 C 
ATOM     14  C   UNL     1       8.310  -2.432   8.692  1.00  0.00     0.195 C 
BRANCH   6  15
ATOM     15  C   UNL     1      10.871  -6.801  12.247  1.00  0.00    -0.008 C 
ATOM     16  C   UNL     1      11.558  -7.127  13.552  1.00  0.00     0.004 C 
ATOM     17  C   UNL     1      10.068  -7.272  13.435  1.00  0.00     0.004 C 
ENDBRANCH   6  15
ENDBRANCH   4   5
ENDBRANCH   1   4
BRANCH   3  18
ATOM     18  C   UNL     1       7.317  -3.385   3.881  1.00  0.00     0.053 C 
BRANCH  18  19
ATOM     19  C   UNL     1       6.493  -4.602   3.551  1.00  0.00     0.074 C 
BRANCH  19  20
ATOM     20  N   UNL     1       6.909  -5.824   3.562  1.00  0.00    -0.313 NA
ATOM     21  H   UNL     1       6.148  -6.483   3.780  1.00  0.00     0.186 HD
ENDBRANCH  19  20
ENDBRANCH  18  19
ENDBRANCH   3  18
TORSDOF 6
ENDMDL
MODEL 2
REMARK VINA RESULT:    -3.938      5.221      8.444
REMARK INTER + INTRA:          -5.322
REMARK INTER:                  -5.109
REMARK INTRA:                  -0.213
REMARK UNBOUND:                -0.118
REMARK SMILES [H]/N=C\C[C@H]1C[C@@H]1O[C@H]1CO[C@H]2C[C@@H](C3CC3)CCN2C1
REMARK SMILES IDX 7 1 6 2 5 3 8 4 9 5 14 6 13 7 18 8 12 9 19 10 20 11 11 12
REMARK SMILES IDX 21 13 10 14 15 15 16 16 17 17 4 18 3 19 2 20 1 21
REMARK H PARENT
ROOT
ATOM      1  C   UNL     1      11.670  -2.446   3.600  1.00  0.00     0.122 C 
ATOM      2  C   UNL     1      12.645  -3.581   3.741  1.00  0.00     0.039 C 
ATOM      3  C   UNL     1      12.670  -2.720   2.510  1.00  0.00     0.026 C 
ENDROOT
BRANCH   1   4
ATOM      4  O   UNL     1      10.314  -2.865   3.351  1.00  0.00    -0.371 OA
BRANCH   4   5
ATOM      5  C   UNL     1       9.636  -3.464   4.467  1.00  0.00     0.158 C 
ATOM      6  C   UNL     1       5.016  -1.103   3.937  1.00  0.00    -0.003 C 
ATOM      7  C   UNL     1       6.420  -0.680   4.385  1.00  0.00     0.052 C 
ATOM      8  C   UNL     1       5.133  -2.200   2.869  1.00  0.00     0.019 C 
ATOM      9  C   UNL     1       7.267  -1.885   4.817  1.00  0.00     0.189 C 
ATOM     10  C   UNL     1       6.015  -3.353   3.348  1.00  0.00     0.087 C 
ATOM     11  N   UNL     1       7.340  -2.870   3.738  1.00  0.00    -0.276 NA
ATOM     12  O   UNL     1       8.556  -1.375   5.165  1.00  0.00    -0.360 OA
ATOM     13  C   UNL     1       8.227  -3.976   4.117  1.00  0.00     0.121 C 
ATOM     14  C   UNL     1       9.476  -2.398   5.556  1.00  0.00     0.195 C 
BRANCH   6  15
ATOM     15  C   UNL     1       4.226   0.072   3.406  1.00  0.00    -0.008 C 
ATOM     16  C   UNL     1       2.819   0.328   3.891  1.00  0.00     0.004 C 
ATOM     17  C   UNL     1       3.926   1.263   4.284  1.00  0.00     0.004 C 
ENDBRANCH   6  15
ENDBRANCH   4   5
ENDBRANCH   1   4
BRANCH   3  18
ATOM     18  C   UNL     1      13.828  -1.792   2.296  1.00  0.00     0.053 C 
BRANCH  18  19
ATOM     19  C   UNL     1      15.200  -2.402   2.408  1.00  0.00     0.074 C 
BRANCH  19  20
ATOM     20  N   UNL     1      15.901  -2.873   1.431  1.00  0.00    -0.313 NA
ATOM     21  H   UNL     1      15.924  -2.224   0.632  1.00  0.00     0.186 HD
ENDBRANCH  19  20
ENDBRANCH  18  19
ENDBRANCH   3  18
TORSDOF 6
ENDMDL
MODEL 3
REMARK VINA RESULT:    -3.890      2.726      8.634
REMARK INTER + INTRA:          -5.259
REMARK INTER:                  -5.044
REMARK INTRA:                  -0.216
REMARK UNBOUND:                -0.118
REMARK SMILES [H]/N=C\C[C@H]1C[C@@H]1O[C@H]1CO[C@H]2C[C@@H](C3CC3)CCN2C1
REMARK SMILES IDX 7 1 6 2 5 3 8 4 9 5 14 6 13 7 18 8 12 9 19 10 20 11 11 12
REMARK SMILES IDX 21 13 10 14 15 15 16 16 17 17 4 18 3 19 2 20 1 21
REMARK H PARENT
ROOT
ATOM      1  C   UNL     1       9.332  -3.007   7.835  1.00  0.00     0.122 C 
ATOM      2  C   UNL     1      10.382  -2.383   8.710  1.00  0.00     0.039 C 
ATOM      3  C   UNL     1       9.101  -2.879   9.316  1.00  0.00     0.026 C 
ENDROOT
BRANCH   1   4
ATOM      4  O   UNL     1       8.638  -2.068   6.991  1.00  0.00    -0.371 OA
BRANCH   4   5
ATOM      5  C   UNL     1       9.421  -1.487   5.936  1.00  0.00     0.158 C 
ATOM      6  C   UNL     1       5.806  -1.499   2.177  1.00  0.00    -0.003 C 
ATOM      7  C   UNL     1       6.653  -2.560   2.889  1.00  0.00     0.052 C 
ATOM      8  C   UNL     1       5.494  -0.358   3.156  1.00  0.00     0.019 C 
ATOM      9  C   UNL     1       7.894  -1.948   3.552  1.00  0.00     0.189 C 
ATOM     10  C   UNL     1       6.766   0.184   3.806  1.00  0.00     0.087 C 
ATOM     11  N   UNL     1       7.506  -0.884   4.479  1.00  0.00    -0.276 NA
ATOM     12  O   UNL     1       8.572  -3.016   4.216  1.00  0.00    -0.360 OA
ATOM     13  C   UNL     1       8.685  -0.366   5.182  1.00  0.00     0.121 C 
ATOM     14  C   UNL     1       9.742  -2.586   4.919  1.00  0.00     0.195 C 
BRANCH   6  15
ATOM     15  C   UNL     1       4.528  -2.089   1.624  1.00  0.00    -0.008 C 
ATOM     16  C   UNL     1       4.165  -1.898   0.170  1.00  0.00     0.004 C 
ATOM     17  C   UNL     1       4.565  -3.257   0.668  1.00  0.00     0.004 C 
ENDBRANCH   6  15
ENDBRANCH   4   5
ENDBRANCH   1   4
BRANCH   3  18
ATOM     18  C   UNL     1       9.135  -4.094  10.194  1.00  0.00     0.053 C 
BRANCH  18  19
ATOM     19  C   UNL     1      10.109  -4.059  11.343  1.00  0.00     0.074 C 
BRANCH  19  20
ATOM     20  N   UNL     1       9.801  -3.962  12.593  1.00  0.00    -0.313 NA
ATOM     21  H   UNL     1       8.867  -4.350  12.786  1.00  0.00     0.186 HD
ENDBRANCH  19  20
ENDBRANCH  18  19
ENDBRANCH   3  18
TORSDOF 6
ENDMDL
MODEL 4
REMARK VINA RESULT:    -3.671      3.388      7.636
REMARK INTER + INTRA:          -4.970
REMARK INTER:                  -4.940
REMARK INTRA:                  -0.031
REMARK UNBOUND:                -0.118
REMARK SMILES [H]/N=C\C[C@H]1C[C@@H]1O[C@H]1CO[C@H]2C[C@@H](C3CC3)CCN2C1
REMARK SMILES IDX 7 1 6 2 5 3 8 4 9 5 14 6 13 7 18 8 12 9 19 10 20 11 11 12
REMARK SMILES IDX 21 13 10 14 15 15 16 16 17 17 4 18 3 19 2 20 1 21
REMARK H PARENT
ROOT
ATOM      1  C   UNL     1      14.795  -5.831  10.514  1.00  0.00     0.122 C 
ATOM      2  C   UNL     1      15.272  -6.106  11.913  1.00  0.00     0.039 C 
ATOM      3  C   UNL     1      14.992  -7.248  10.979  1.00  0.00     0.026 C 
ENDROOT
BRANCH   1   4
ATOM      4  O   UNL     1      13.436  -5.360  10.439  1.00  0.00    -0.371 OA
BRANCH   4   5
ATOM      5  C   UNL     1      13.186  -4.089  11.061  1.00  0.00     0.158 C 
ATOM      6  C   UNL     1       9.448  -2.371   7.855  1.00  0.00    -0.003 C 
ATOM      7  C   UNL     1      10.964  -2.582   7.761  1.00  0.00     0.052 C 
ATOM      8  C   UNL     1       8.846  -3.430   8.790  1.00  0.00     0.019 C 
ATOM      9  C   UNL     1      11.619  -2.636   9.148  1.00  0.00     0.189 C 
ATOM     10  C   UNL     1       9.563  -3.456  10.139  1.00  0.00     0.087 C 
ATOM     11  N   UNL     1      10.998  -3.679   9.965  1.00  0.00    -0.276 NA
ATOM     12  O   UNL     1      13.010  -2.879   8.933  1.00  0.00    -0.360 OA
ATOM     13  C   UNL     1      11.688  -3.793  11.254  1.00  0.00     0.121 C 
ATOM     14  C   UNL     1      13.753  -2.994  10.151  1.00  0.00     0.195 C 
BRANCH   6  15
ATOM     15  C   UNL     1       8.794  -2.433   6.493  1.00  0.00    -0.008 C 
ATOM     16  C   UNL     1       8.894  -1.262   5.543  1.00  0.00     0.004 C 
ATOM     17  C   UNL     1       9.627  -2.537   5.238  1.00  0.00     0.004 C 
ENDBRANCH   6  15
ENDBRANCH   4   5
ENDBRANCH   1   4
BRANCH   3  18
ATOM     18  C   UNL     1      16.140  -8.061  10.461  1.00  0.00     0.053 C 
BRANCH  18  19
ATOM     19  C   UNL     1      16.129  -9.527  10.808  1.00  0.00     0.074 C 
BRANCH  19  20
ATOM     20  N   UNL     1      15.975 -10.502   9.974  1.00  0.00    -0.313 NA
ATOM     21  H   UNL     1      16.050 -11.417  10.442  1.00  0.00     0.186 HD
ENDBRANCH  19  20
ENDBRANCH  18  19
ENDBRANCH   3  18
TORSDOF 6
ENDMDL
MODEL 5
REMARK VINA RESULT:    -3.543      3.647      6.836
REMARK INTER + INTRA:          -4.801
REMARK INTER:                  -4.150
REMARK INTRA:                  -0.651
REMARK UNBOUND:                -0.118
REMARK SMILES [H]/N=C\C[C@H]1C[C@@H]1O[C@H]1CO[C@H]2C[C@@H](C3CC3)CCN2C1
REMARK SMILES IDX 7 1 6 2 5 3 8 4 9 5 14 6 13 7 18 8 12 9 19 10 20 11 11 12
REMARK SMILES IDX 21 13 10 14 15 15 16 16 17 17 4 18 3 19 2 20 1 21
REMARK H PARENT
ROOT
ATOM      1  C   UNL     1      15.593  -5.444  11.011  1.00  0.00     0.122 C 
ATOM      2  C   UNL     1      16.480  -6.433  10.309  1.00  0.00     0.039 C 
ATOM      3  C   UNL     1      15.524  -5.588   9.516  1.00  0.00     0.026 C 
ENDROOT
BRANCH   1   4
ATOM      4  O   UNL     1      14.525  -6.047  11.767  1.00  0.00    -0.371 OA
BRANCH   4   5
ATOM      5  C   UNL     1      13.956  -5.225  12.799  1.00  0.00     0.158 C 
ATOM      6  C   UNL     1       9.670  -3.652  10.277  1.00  0.00    -0.003 C 
ATOM      7  C   UNL     1      11.172  -3.353  10.183  1.00  0.00     0.052 C 
ATOM      8  C   UNL     1       9.469  -5.105  10.729  1.00  0.00     0.019 C 
ATOM      9  C   UNL     1      11.906  -3.711  11.482  1.00  0.00     0.189 C 
ATOM     10  C   UNL     1      10.253  -5.406  12.006  1.00  0.00     0.087 C 
ATOM     11  N   UNL     1      11.675  -5.114  11.829  1.00  0.00    -0.276 NA
ATOM     12  O   UNL     1      13.290  -3.435  11.259  1.00  0.00    -0.360 OA
ATOM     13  C   UNL     1      12.454  -5.479  13.018  1.00  0.00     0.121 C 
ATOM     14  C   UNL     1      14.114  -3.759  12.383  1.00  0.00     0.195 C 
BRANCH   6  15
ATOM     15  C   UNL     1       8.972  -3.405   8.958  1.00  0.00    -0.008 C 
ATOM     16  C   UNL     1       8.210  -2.122   8.726  1.00  0.00     0.004 C 
ATOM     17  C   UNL     1       9.493  -2.372   7.989  1.00  0.00     0.004 C 
ENDBRANCH   6  15
ENDBRANCH   4   5
ENDBRANCH   1   4
BRANCH   3  18
ATOM     18  C   UNL     1      16.072  -4.512   8.627  1.00  0.00     0.053 C 
BRANCH  18  19
ATOM     19  C   UNL     1      15.059  -3.597   7.988  1.00  0.00     0.074 C 
BRANCH  19  20
ATOM     20  N   UNL     1      14.385  -2.675   8.590  1.00  0.00    -0.313 NA
ATOM     21  H   UNL     1      13.497  -3.038   8.965  1.00  0.00     0.186 HD
ENDBRANCH  19  20
ENDBRANCH  18  19
ENDBRANCH   3  18
TORSDOF 6
ENDMDL
MODEL 6
REMARK VINA RESULT:    -3.407      5.444      8.537
REMARK INTER + INTRA:          -4.621
REMARK INTER:                  -4.788
REMARK INTRA:                   0.168
REMARK UNBOUND:                -0.118
REMARK SMILES [H]/N=C\C[C@H]1C[C@@H]1O[C@H]1CO[C@H]2C[C@@H](C3CC3)CCN2C1
REMARK SMILES IDX 7 1 6 2 5 3 8 4 9 5 14 6 13 7 18 8 12 9 19 10 20 11 11 12
REMARK SMILES IDX 21 13 10 14 15 15 16 16 17 17 4 18 3 19 2 20 1 21
REMARK H PARENT
ROOT
ATOM      1  C   UNL     1      11.600  -2.855   3.439  1.00  0.00     0.122 C 
ATOM      2  C   UNL     1      11.720  -3.077   1.958  1.00  0.00     0.039 C 
ATOM      3  C   UNL     1      12.736  -2.234   2.673  1.00  0.00     0.026 C 
ENDROOT
BRANCH   1   4
ATOM      4  O   UNL     1      10.521  -1.979   3.816  1.00  0.00    -0.371 OA
BRANCH   4   5
ATOM      5  C   UNL     1       9.843  -2.321   5.036  1.00  0.00     0.158 C 
ATOM      6  C   UNL     1       4.956  -2.418   3.217  1.00  0.00    -0.003 C 
ATOM      7  C   UNL     1       5.994  -1.330   3.520  1.00  0.00     0.052 C 
ATOM      8  C   UNL     1       5.677  -3.693   2.759  1.00  0.00     0.019 C 
ATOM      9  C   UNL     1       7.070  -1.825   4.495  1.00  0.00     0.189 C 
ATOM     10  C   UNL     1       6.758  -4.113   3.755  1.00  0.00     0.087 C 
ATOM     11  N   UNL     1       7.716  -3.030   3.974  1.00  0.00    -0.276 NA
ATOM     12  O   UNL     1       7.996  -0.750   4.662  1.00  0.00    -0.360 OA
ATOM     13  C   UNL     1       8.808  -3.446   4.861  1.00  0.00     0.121 C 
ATOM     14  C   UNL     1       9.089  -1.080   5.525  1.00  0.00     0.195 C 
BRANCH   6  15
ATOM     15  C   UNL     1       3.965  -1.962   2.170  1.00  0.00    -0.008 C 
ATOM     16  C   UNL     1       3.263  -0.632   2.310  1.00  0.00     0.004 C 
ATOM     17  C   UNL     1       4.294  -0.823   1.236  1.00  0.00     0.004 C 
ENDBRANCH   6  15
ENDBRANCH   4   5
ENDBRANCH   1   4
BRANCH   3  18
ATOM     18  C   UNL     1      14.132  -2.757   2.834  1.00  0.00     0.053 C 
BRANCH  18  19
ATOM     19  C   UNL     1      15.245  -1.808   2.474  1.00  0.00     0.074 C 
BRANCH  19  20
ATOM     20  N   UNL     1      15.137  -0.528   2.346  1.00  0.00    -0.313 NA
ATOM     21  H   UNL     1      14.152  -0.235   2.278  1.00  0.00     0.186 HD
ENDBRANCH  19  20
ENDBRANCH  18  19
ENDBRANCH   3  18
TORSDOF 6
ENDMDL
MODEL 7
REMARK VINA RESULT:    -3.217      3.963      7.824
REMARK INTER + INTRA:          -4.370
REMARK INTER:                  -3.970
REMARK INTRA:                  -0.400
REMARK UNBOUND:                -0.118
REMARK SMILES [H]/N=C\C[C@H]1C[C@@H]1O[C@H]1CO[C@H]2C[C@@H](C3CC3)CCN2C1
REMARK SMILES IDX 7 1 6 2 5 3 8 4 9 5 14 6 13 7 18 8 12 9 19 10 20 11 11 12
REMARK SMILES IDX 21 13 10 14 15 15 16 16 17 17 4 18 3 19 2 20 1 21
REMARK H PARENT
ROOT
ATOM      1  C   UNL     1      14.616  -7.287  12.315  1.00  0.00     0.122 C 
ATOM      2  C   UNL     1      14.161  -7.934  11.037  1.00  0.00     0.039 C 
ATOM      3  C   UNL     1      15.588  -8.079  11.483  1.00  0.00     0.026 C 
ENDROOT
BRANCH   1   4
ATOM      4  O   UNL     1      14.724  -5.853  12.241  1.00  0.00    -0.371 OA
BRANCH   4   5
ATOM      5  C   UNL     1      14.021  -5.126  13.262  1.00  0.00     0.158 C 
ATOM      6  C   UNL     1       9.786  -3.811  10.516  1.00  0.00    -0.003 C 
ATOM      7  C   UNL     1      11.259  -3.384  10.535  1.00  0.00     0.052 C 
ATOM      8  C   UNL     1       9.683  -5.294  10.901  1.00  0.00     0.019 C 
ATOM      9  C   UNL     1      11.937  -3.734  11.867  1.00  0.00     0.189 C 
ATOM     10  C   UNL     1      10.406  -5.581  12.216  1.00  0.00     0.087 C 
ATOM     11  N   UNL     1      11.806  -5.164  12.146  1.00  0.00    -0.276 NA
ATOM     12  O   UNL     1      13.304  -3.334  11.747  1.00  0.00    -0.360 OA
ATOM     13  C   UNL     1      12.536  -5.513  13.370  1.00  0.00     0.121 C 
ATOM     14  C   UNL     1      14.080  -3.635  12.911  1.00  0.00     0.195 C 
BRANCH   6  15
ATOM     15  C   UNL     1       9.155  -3.568   9.164  1.00  0.00    -0.008 C 
ATOM     16  C   UNL     1       8.278  -2.359   8.937  1.00  0.00     0.004 C 
ATOM     17  C   UNL     1       9.627  -2.437   8.282  1.00  0.00     0.004 C 
ENDBRANCH   6  15
ENDBRANCH   4   5
ENDBRANCH   1   4
BRANCH   3  18
ATOM     18  C   UNL     1      16.069  -9.419  11.954  1.00  0.00     0.053 C 
BRANCH  18  19
ATOM     19  C   UNL     1      16.587 -10.352  10.890  1.00  0.00     0.074 C 
BRANCH  19  20
ATOM     20  N   UNL     1      15.975 -10.670   9.799  1.00  0.00    -0.313 NA
ATOM     21  H   UNL     1      14.955 -10.560   9.889  1.00  0.00     0.186 HD
ENDBRANCH  19  20
ENDBRANCH  18  19
ENDBRANCH   3  18
TORSDOF 6
ENDMDL
MODEL 8
REMARK VINA RESULT:    -3.135      2.746      3.889
REMARK INTER + INTRA:          -4.261
REMARK INTER:                  -3.963
REMARK INTRA:                  -0.298
REMARK UNBOUND:                -0.118
REMARK SMILES [H]/N=C\C[C@H]1C[C@@H]1O[C@H]1CO[C@H]2C[C@@H](C3CC3)CCN2C1
REMARK SMILES IDX 7 1 6 2 5 3 8 4 9 5 14 6 13 7 18 8 12 9 19 10 20 11 11 12
REMARK SMILES IDX 21 13 10 14 15 15 16 16 17 17 4 18 3 19 2 20 1 21
REMARK H PARENT
ROOT
ATOM      1  C   UNL     1       9.107  -3.083   8.620  1.00  0.00     0.122 C 
ATOM      2  C   UNL     1       9.291  -1.594   8.540  1.00  0.00     0.039 C 
ATOM      3  C   UNL     1       9.556  -2.447   7.333  1.00  0.00     0.026 C 
ENDROOT
BRANCH   1   4
ATOM      4  O   UNL     1      10.118  -3.759   9.392  1.00  0.00    -0.371 OA
BRANCH   4   5
ATOM      5  C   UNL     1       9.713  -4.188  10.703  1.00  0.00     0.158 C 
ATOM      6  C   UNL     1      14.154  -6.492  12.178  1.00  0.00    -0.003 C 
ATOM      7  C   UNL     1      13.027  -6.811  11.188  1.00  0.00     0.052 C 
ATOM      8  C   UNL     1      14.337  -4.970  12.265  1.00  0.00     0.019 C 
ATOM      9  C   UNL     1      11.740  -6.045  11.522  1.00  0.00     0.189 C 
ATOM     10  C   UNL     1      13.014  -4.265  12.566  1.00  0.00     0.087 C 
ATOM     11  N   UNL     1      12.001  -4.606  11.568  1.00  0.00    -0.276 NA
ATOM     12  O   UNL     1      10.788  -6.385  10.513  1.00  0.00    -0.360 OA
ATOM     13  C   UNL     1      10.752  -3.869  11.793  1.00  0.00     0.121 C 
ATOM     14  C   UNL     1       9.537  -5.710  10.672  1.00  0.00     0.195 C 
BRANCH   6  15
ATOM     15  C   UNL     1      15.450  -7.160  11.779  1.00  0.00    -0.008 C 
ATOM     16  C   UNL     1      15.920  -8.405  12.495  1.00  0.00     0.004 C 
ATOM     17  C   UNL     1      15.447  -8.495  11.073  1.00  0.00     0.004 C 
ENDBRANCH   6  15
ENDBRANCH   4   5
ENDBRANCH   1   4
BRANCH   3  18
ATOM     18  C   UNL     1       8.620  -2.364   6.165  1.00  0.00     0.053 C 
BRANCH  18  19
ATOM     19  C   UNL     1       9.038  -1.452   5.040  1.00  0.00     0.074 C 
BRANCH  19  20
ATOM     20  N   UNL     1       9.030  -0.161   5.069  1.00  0.00    -0.313 NA
ATOM     21  H   UNL     1       8.601   0.197   5.934  1.00  0.00     0.186 HD
ENDBRANCH  19  20
ENDBRANCH  18  19
ENDBRANCH   3  18
TORSDOF 6
ENDMDL
MODEL 9
REMARK VINA RESULT:    -3.085      1.974      7.161
REMARK INTER + INTRA:          -4.195
REMARK INTER:                  -3.922
REMARK INTRA:                  -0.273
REMARK UNBOUND:                -0.118
REMARK SMILES [H]/N=C\C[C@H]1C[C@@H]1O[C@H]1CO[C@H]2C[C@@H](C3CC3)CCN2C1
REMARK SMILES IDX 7 1 6 2 5 3 8 4 9 5 14 6 13 7 18 8 12 9 19 10 20 11 11 12
REMARK SMILES IDX 21 13 10 14 15 15 16 16 17 17 4 18 3 19 2 20 1 21
REMARK H PARENT
ROOT
ATOM      1  C   UNL     1       9.564  -5.011  10.908  1.00  0.00     0.122 C 
ATOM      2  C   UNL     1       8.988  -6.373  11.173  1.00  0.00     0.039 C 
ATOM      3  C   UNL     1      10.442  -6.229  10.825  1.00  0.00     0.026 C 
ENDROOT
BRANCH   1   4
ATOM      4  O   UNL     1       9.147  -4.430   9.657  1.00  0.00    -0.371 OA
BRANCH   4   5
ATOM      5  C   UNL     1       9.210  -2.997   9.588  1.00  0.00     0.158 C 
ATOM      6  C   UNL     1      10.472  -2.509   4.551  1.00  0.00    -0.003 C 
ATOM      7  C   UNL     1      11.192  -2.971   5.824  1.00  0.00     0.052 C 
ATOM      8  C   UNL     1       8.983  -2.867   4.652  1.00  0.00     0.019 C 
ATOM      9  C   UNL     1      10.506  -2.441   7.090  1.00  0.00     0.189 C 
ATOM     10  C   UNL     1       8.369  -2.341   5.949  1.00  0.00     0.087 C 
ATOM     11  N   UNL     1       9.099  -2.841   7.114  1.00  0.00    -0.276 NA
ATOM     12  O   UNL     1      11.233  -2.971   8.200  1.00  0.00    -0.360 OA
ATOM     13  C   UNL     1       8.471  -2.415   8.370  1.00  0.00     0.121 C 
ATOM     14  C   UNL     1      10.682  -2.589   9.465  1.00  0.00     0.195 C 
BRANCH   6  15
ATOM     15  C   UNL     1      11.083  -3.126   3.313  1.00  0.00    -0.008 C 
ATOM     16  C   UNL     1      12.094  -2.357   2.495  1.00  0.00     0.004 C 
ATOM     17  C   UNL     1      12.532  -3.549   3.294  1.00  0.00     0.004 C 
ENDBRANCH   6  15
ENDBRANCH   4   5
ENDBRANCH   1   4
BRANCH   3  18
ATOM     18  C   UNL     1      11.471  -6.492  11.884  1.00  0.00     0.053 C 
BRANCH  18  19
ATOM     19  C   UNL     1      12.837  -6.902  11.397  1.00  0.00     0.074 C 
BRANCH  19  20
ATOM     20  N   UNL     1      13.176  -7.094  10.166  1.00  0.00    -0.313 NA
ATOM     21  H   UNL     1      13.802  -7.906  10.067  1.00  0.00     0.186 HD
ENDBRANCH  19  20
ENDBRANCH  18  19
ENDBRANCH   3  18
TORSDOF 6
ENDMDL
