MODEL 1
REMARK VINA RESULT:    -5.835      0.000      0.000
REMARK INTER + INTRA:          -7.234
REMARK INTER:                  -6.858
REMARK INTRA:                  -0.376
REMARK UNBOUND:                -0.376
REMARK SMILES Cc1ccc(CNC(=O)NC(=O)c2ccc(C)cc2)cc1
REMARK SMILES IDX 11 1 12 2 10 3 8 4 9 5 7 6 13 9 19 10 18 11 14 12 16 13
REMARK SMILES IDX 15 14 17 15 6 16 5 17 4 18 20 19 3 20 21 21 2 22 1 23
REMARK H PARENT 10 7 7 8
ROOT
ATOM      1  C   UNL     1       8.137  -1.979   4.251  1.00  0.00     0.259 C 
ATOM      2  O   UNL     1       8.613  -2.346   3.187  1.00  0.00    -0.269 OA
ATOM      3  N   UNL     1       8.641  -2.155   5.544  1.00  0.00    -0.274 N 
ATOM      4  C   UNL     1       9.826  -2.524   6.127  1.00  0.00     0.321 C 
ATOM      5  O   UNL     1       9.916  -2.425   7.356  1.00  0.00    -0.248 OA
ATOM      6  N   UNL     1      10.895  -2.955   5.433  1.00  0.00    -0.334 N 
ATOM      7  H   UNL     1       8.053  -1.779   6.276  1.00  0.00     0.175 HD
ATOM      8  H   UNL     1      11.717  -3.104   6.001  1.00  0.00     0.165 HD
ENDROOT
BRANCH   1   9
ATOM      9  C   UNL     1       6.858  -1.245   4.184  1.00  0.00     0.040 A 
ATOM     10  C   UNL     1       5.636  -1.890   4.382  1.00  0.00     0.014 A 
ATOM     11  C   UNL     1       4.458  -1.144   4.361  1.00  0.00     0.004 A 
ATOM     12  C   UNL     1       6.902   0.126   3.909  1.00  0.00     0.014 A 
ATOM     13  C   UNL     1       4.495   0.240   4.137  1.00  0.00    -0.051 A 
ATOM     14  C   UNL     1       5.723   0.868   3.896  1.00  0.00     0.004 A 
ATOM     15  C   UNL     1       3.228   1.041   4.202  1.00  0.00     0.044 C 
ENDBRANCH   1   9
BRANCH   6  16
ATOM     16  C   UNL     1      11.036  -3.044   4.007  1.00  0.00     0.153 C 
BRANCH  16  17
ATOM     17  C   UNL     1      12.432  -3.058   3.450  1.00  0.00    -0.029 A 
ATOM     18  C   UNL     1      12.874  -2.158   2.475  1.00  0.00     0.006 A 
ATOM     19  C   UNL     1      13.375  -3.873   4.098  1.00  0.00     0.006 A 
ATOM     20  C   UNL     1      14.238  -2.064   2.175  1.00  0.00     0.004 A 
ATOM     21  C   UNL     1      14.731  -3.775   3.802  1.00  0.00     0.004 A 
ATOM     22  C   UNL     1      15.175  -2.862   2.845  1.00  0.00    -0.051 A 
ATOM     23  C   UNL     1      16.647  -2.666   2.633  1.00  0.00     0.044 C 
ENDBRANCH  16  17
ENDBRANCH   6  16
TORSDOF 3
ENDMDL
MODEL 2
REMARK VINA RESULT:    -5.810      3.228      5.518
REMARK INTER + INTRA:          -7.205
REMARK INTER:                  -6.826
REMARK INTRA:                  -0.379
REMARK UNBOUND:                -0.376
REMARK SMILES Cc1ccc(CNC(=O)NC(=O)c2ccc(C)cc2)cc1
REMARK SMILES IDX 11 1 12 2 10 3 8 4 9 5 7 6 13 9 19 10 18 11 14 12 16 13
REMARK SMILES IDX 15 14 17 15 6 16 5 17 4 18 20 19 3 20 21 21 2 22 1 23
REMARK H PARENT 10 7 7 8
ROOT
ATOM      1  C   UNL     1       7.937  -2.089   4.604  1.00  0.00     0.259 C 
ATOM      2  O   UNL     1       7.498  -1.721   5.685  1.00  0.00    -0.269 OA
ATOM      3  N   UNL     1       9.251  -2.424   4.261  1.00  0.00    -0.274 N 
ATOM      4  C   UNL     1      10.427  -2.706   4.908  1.00  0.00     0.321 C 
ATOM      5  O   UNL     1      11.377  -3.102   4.224  1.00  0.00    -0.248 OA
ATOM      6  N   UNL     1      10.586  -2.603   6.240  1.00  0.00    -0.334 N 
ATOM      7  H   UNL     1       9.376  -2.681   3.291  1.00  0.00     0.175 HD
ATOM      8  H   UNL     1      11.484  -2.929   6.569  1.00  0.00     0.165 HD
ENDROOT
BRANCH   1   9
ATOM      9  C   UNL     1       6.963  -2.209   3.502  1.00  0.00     0.040 A 
ATOM     10  C   UNL     1       6.797  -1.188   2.564  1.00  0.00     0.014 A 
ATOM     11  C   UNL     1       5.902  -1.368   1.509  1.00  0.00     0.004 A 
ATOM     12  C   UNL     1       6.200  -3.377   3.423  1.00  0.00     0.014 A 
ATOM     13  C   UNL     1       5.169  -2.558   1.392  1.00  0.00    -0.051 A 
ATOM     14  C   UNL     1       5.312  -3.556   2.364  1.00  0.00     0.004 A 
ATOM     15  C   UNL     1       4.275  -2.771   0.206  1.00  0.00     0.044 C 
ENDBRANCH   1   9
BRANCH   6  16
ATOM     16  C   UNL     1       9.591  -2.265   7.218  1.00  0.00     0.153 C 
BRANCH  16  17
ATOM     17  C   UNL     1       9.831  -2.717   8.632  1.00  0.00    -0.029 A 
ATOM     18  C   UNL     1       8.922  -3.505   9.346  1.00  0.00     0.006 A 
ATOM     19  C   UNL     1      11.113  -2.509   9.165  1.00  0.00     0.006 A 
ATOM     20  C   UNL     1       9.304  -4.090  10.558  1.00  0.00     0.004 A 
ATOM     21  C   UNL     1      11.494  -3.097  10.367  1.00  0.00     0.004 A 
ATOM     22  C   UNL     1      10.595  -3.901  11.070  1.00  0.00    -0.051 A 
ATOM     23  C   UNL     1      11.057  -4.639  12.291  1.00  0.00     0.044 C 
ENDBRANCH  16  17
ENDBRANCH   6  16
TORSDOF 3
ENDMDL
MODEL 3
REMARK VINA RESULT:    -5.627      1.221      7.992
REMARK INTER + INTRA:          -6.990
REMARK INTER:                  -6.522
REMARK INTRA:                  -0.468
REMARK UNBOUND:                -0.376
REMARK SMILES Cc1ccc(CNC(=O)NC(=O)c2ccc(C)cc2)cc1
REMARK SMILES IDX 11 1 12 2 10 3 8 4 9 5 7 6 13 9 19 10 18 11 14 12 16 13
REMARK SMILES IDX 15 14 17 15 6 16 5 17 4 18 20 19 3 20 21 21 2 22 1 23
REMARK H PARENT 10 7 7 8
ROOT
ATOM      1  C   UNL     1      10.945  -2.709   3.740  1.00  0.00     0.259 C 
ATOM      2  O   UNL     1      10.179  -2.768   2.789  1.00  0.00    -0.269 OA
ATOM      3  N   UNL     1      10.649  -2.510   5.092  1.00  0.00    -0.274 N 
ATOM      4  C   UNL     1       9.543  -2.542   5.903  1.00  0.00     0.321 C 
ATOM      5  O   UNL     1       9.722  -2.437   7.121  1.00  0.00    -0.248 OA
ATOM      6  N   UNL     1       8.289  -2.710   5.444  1.00  0.00    -0.334 N 
ATOM      7  H   UNL     1      11.460  -2.477   5.696  1.00  0.00     0.175 HD
ATOM      8  H   UNL     1       7.597  -2.797   6.174  1.00  0.00     0.165 HD
ENDROOT
BRANCH   1   9
ATOM      9  C   UNL     1      12.381  -2.873   3.442  1.00  0.00     0.040 A 
ATOM     10  C   UNL     1      13.009  -2.118   2.450  1.00  0.00     0.014 A 
ATOM     11  C   UNL     1      14.380  -2.270   2.240  1.00  0.00     0.004 A 
ATOM     12  C   UNL     1      13.102  -3.817   4.180  1.00  0.00     0.014 A 
ATOM     13  C   UNL     1      15.123  -3.177   3.011  1.00  0.00    -0.051 A 
ATOM     14  C   UNL     1      14.472  -3.960   3.972  1.00  0.00     0.004 A 
ATOM     15  C   UNL     1      16.610  -3.267   2.832  1.00  0.00     0.044 C 
ENDBRANCH   1   9
BRANCH   6  16
ATOM     16  C   UNL     1       7.876  -2.952   4.090  1.00  0.00     0.153 C 
BRANCH  16  17
ATOM     17  C   UNL     1       6.742  -2.123   3.556  1.00  0.00    -0.029 A 
ATOM     18  C   UNL     1       6.736  -1.574   2.270  1.00  0.00     0.006 A 
ATOM     19  C   UNL     1       5.560  -2.085   4.315  1.00  0.00     0.006 A 
ATOM     20  C   UNL     1       5.561  -1.023   1.749  1.00  0.00     0.004 A 
ATOM     21  C   UNL     1       4.391  -1.541   3.794  1.00  0.00     0.004 A 
ATOM     22  C   UNL     1       4.378  -1.014   2.501  1.00  0.00    -0.051 A 
ATOM     23  C   UNL     1       3.084  -0.555   1.899  1.00  0.00     0.044 C 
ENDBRANCH  16  17
ENDBRANCH   6  16
TORSDOF 3
ENDMDL
MODEL 4
REMARK VINA RESULT:    -5.581      3.065      7.752
REMARK INTER + INTRA:          -6.935
REMARK INTER:                  -6.471
REMARK INTRA:                  -0.464
REMARK UNBOUND:                -0.376
REMARK SMILES Cc1ccc(CNC(=O)NC(=O)c2ccc(C)cc2)cc1
REMARK SMILES IDX 11 1 12 2 10 3 8 4 9 5 7 6 13 9 19 10 18 11 14 12 16 13
REMARK SMILES IDX 15 14 17 15 6 16 5 17 4 18 20 19 3 20 21 21 2 22 1 23
REMARK H PARENT 10 7 7 8
ROOT
ATOM      1  C   UNL     1       9.186  -2.488   7.273  1.00  0.00     0.259 C 
ATOM      2  O   UNL     1       8.098  -1.929   7.265  1.00  0.00    -0.269 OA
ATOM      3  N   UNL     1      10.008  -2.819   6.191  1.00  0.00    -0.274 N 
ATOM      4  C   UNL     1      10.107  -2.504   4.860  1.00  0.00     0.321 C 
ATOM      5  O   UNL     1      11.095  -2.918   4.245  1.00  0.00    -0.248 OA
ATOM      6  N   UNL     1       9.205  -1.748   4.205  1.00  0.00    -0.334 N 
ATOM      7  H   UNL     1      10.859  -3.302   6.447  1.00  0.00     0.175 HD
ATOM      8  H   UNL     1       9.467  -1.537   3.253  1.00  0.00     0.165 HD
ENDROOT
BRANCH   1   9
ATOM      9  C   UNL     1       9.724  -2.868   8.594  1.00  0.00     0.040 A 
ATOM     10  C   UNL     1       8.957  -3.589   9.512  1.00  0.00     0.014 A 
ATOM     11  C   UNL     1       9.527  -3.971  10.727  1.00  0.00     0.004 A 
ATOM     12  C   UNL     1      11.029  -2.479   8.908  1.00  0.00     0.014 A 
ATOM     13  C   UNL     1      10.853  -3.630  11.030  1.00  0.00    -0.051 A 
ATOM     14  C   UNL     1      11.596  -2.869  10.120  1.00  0.00     0.004 A 
ATOM     15  C   UNL     1      11.478  -4.121  12.303  1.00  0.00     0.044 C 
ENDBRANCH   1   9
BRANCH   6  16
ATOM     16  C   UNL     1       8.053  -1.089   4.752  1.00  0.00     0.153 C 
BRANCH  16  17
ATOM     17  C   UNL     1       6.755  -1.241   4.008  1.00  0.00    -0.029 A 
ATOM     18  C   UNL     1       5.524  -1.420   4.649  1.00  0.00     0.006 A 
ATOM     19  C   UNL     1       6.769  -0.979   2.629  1.00  0.00     0.006 A 
ATOM     20  C   UNL     1       4.334  -1.313   3.922  1.00  0.00     0.004 A 
ATOM     21  C   UNL     1       5.585  -0.868   1.907  1.00  0.00     0.004 A 
ATOM     22  C   UNL     1       4.355  -1.024   2.550  1.00  0.00    -0.051 A 
ATOM     23  C   UNL     1       3.085  -0.767   1.796  1.00  0.00     0.044 C 
ENDBRANCH  16  17
ENDBRANCH   6  16
TORSDOF 3
ENDMDL
MODEL 5
REMARK VINA RESULT:    -4.386      4.733      7.114
REMARK INTER + INTRA:          -5.531
REMARK INTER:                  -5.091
REMARK INTRA:                  -0.440
REMARK UNBOUND:                -0.376
REMARK SMILES Cc1ccc(CNC(=O)NC(=O)c2ccc(C)cc2)cc1
REMARK SMILES IDX 11 1 12 2 10 3 8 4 9 5 7 6 13 9 19 10 18 11 14 12 16 13
REMARK SMILES IDX 15 14 17 15 6 16 5 17 4 18 20 19 3 20 21 21 2 22 1 23
REMARK H PARENT 10 7 7 8
ROOT
ATOM      1  C   UNL     1       9.463  -2.398   7.643  1.00  0.00     0.259 C 
ATOM      2  O   UNL     1       8.658  -2.515   8.557  1.00  0.00    -0.269 OA
ATOM      3  N   UNL     1      10.860  -2.417   7.699  1.00  0.00    -0.274 N 
ATOM      4  C   UNL     1      11.833  -2.773   8.597  1.00  0.00     0.321 C 
ATOM      5  O   UNL     1      13.005  -2.767   8.205  1.00  0.00    -0.248 OA
ATOM      6  N   UNL     1      11.576  -3.155   9.862  1.00  0.00    -0.334 N 
ATOM      7  H   UNL     1      11.315  -2.277   6.807  1.00  0.00     0.175 HD
ATOM      8  H   UNL     1      12.392  -3.468  10.367  1.00  0.00     0.165 HD
ENDROOT
BRANCH   1   9
ATOM      9  C   UNL     1       8.903  -2.216   6.290  1.00  0.00     0.040 A 
ATOM     10  C   UNL     1       8.585  -3.308   5.481  1.00  0.00     0.014 A 
ATOM     11  C   UNL     1       8.009  -3.087   4.230  1.00  0.00     0.004 A 
ATOM     12  C   UNL     1       8.704  -0.910   5.832  1.00  0.00     0.014 A 
ATOM     13  C   UNL     1       7.758  -1.782   3.781  1.00  0.00    -0.051 A 
ATOM     14  C   UNL     1       8.123  -0.694   4.584  1.00  0.00     0.004 A 
ATOM     15  C   UNL     1       7.061  -1.564   2.471  1.00  0.00     0.044 C 
ENDBRANCH   1   9
BRANCH   6  16
ATOM     16  C   UNL     1      10.291  -3.330  10.479  1.00  0.00     0.153 C 
BRANCH  16  17
ATOM     17  C   UNL     1      10.109  -4.532  11.364  1.00  0.00    -0.029 A 
ATOM     18  C   UNL     1       9.865  -5.816  10.866  1.00  0.00     0.006 A 
ATOM     19  C   UNL     1      10.408  -4.379  12.728  1.00  0.00     0.006 A 
ATOM     20  C   UNL     1       9.945  -6.924  11.717  1.00  0.00     0.004 A 
ATOM     21  C   UNL     1      10.492  -5.481  13.571  1.00  0.00     0.004 A 
ATOM     22  C   UNL     1      10.271  -6.765  13.071  1.00  0.00    -0.051 A 
ATOM     23  C   UNL     1      10.498  -7.955  13.954  1.00  0.00     0.044 C 
ENDBRANCH  16  17
ENDBRANCH   6  16
TORSDOF 3
ENDMDL
MODEL 6
REMARK VINA RESULT:    -3.876      6.892     10.827
REMARK INTER + INTRA:          -4.932
REMARK INTER:                  -4.423
REMARK INTRA:                  -0.509
REMARK UNBOUND:                -0.376
REMARK SMILES Cc1ccc(CNC(=O)NC(=O)c2ccc(C)cc2)cc1
REMARK SMILES IDX 11 1 12 2 10 3 8 4 9 5 7 6 13 9 19 10 18 11 14 12 16 13
REMARK SMILES IDX 15 14 17 15 6 16 5 17 4 18 20 19 3 20 21 21 2 22 1 23
REMARK H PARENT 10 7 7 8
ROOT
ATOM      1  C   UNL     1      12.955  -5.838  11.695  1.00  0.00     0.259 C 
ATOM      2  O   UNL     1      12.174  -6.006  10.770  1.00  0.00    -0.269 OA
ATOM      3  N   UNL     1      13.027  -4.772  12.598  1.00  0.00    -0.274 N 
ATOM      4  C   UNL     1      12.241  -3.717  12.984  1.00  0.00     0.321 C 
ATOM      5  O   UNL     1      12.618  -3.045  13.950  1.00  0.00    -0.248 OA
ATOM      6  N   UNL     1      11.076  -3.399  12.389  1.00  0.00    -0.334 N 
ATOM      7  H   UNL     1      13.779  -4.845  13.270  1.00  0.00     0.175 HD
ATOM      8  H   UNL     1      10.577  -2.650  12.847  1.00  0.00     0.165 HD
ENDROOT
BRANCH   1   9
ATOM      9  C   UNL     1      13.963  -6.894  11.909  1.00  0.00     0.040 A 
ATOM     10  C   UNL     1      14.139  -7.491  13.158  1.00  0.00     0.014 A 
ATOM     11  C   UNL     1      15.068  -8.522  13.299  1.00  0.00     0.004 A 
ATOM     12  C   UNL     1      14.750  -7.281  10.819  1.00  0.00     0.014 A 
ATOM     13  C   UNL     1      15.826  -8.953  12.199  1.00  0.00    -0.051 A 
ATOM     14  C   UNL     1      15.672  -8.316  10.962  1.00  0.00     0.004 A 
ATOM     15  C   UNL     1      16.759 -10.119  12.347  1.00  0.00     0.044 C 
ENDBRANCH   1   9
BRANCH   6  16
ATOM     16  C   UNL     1      10.413  -4.105  11.330  1.00  0.00     0.153 C 
BRANCH  16  17
ATOM     17  C   UNL     1      10.107  -3.336  10.074  1.00  0.00    -0.029 A 
ATOM     18  C   UNL     1      11.097  -2.758   9.273  1.00  0.00     0.006 A 
ATOM     19  C   UNL     1       8.789  -3.390   9.592  1.00  0.00     0.006 A 
ATOM     20  C   UNL     1      10.772  -2.268   8.003  1.00  0.00     0.004 A 
ATOM     21  C   UNL     1       8.469  -2.907   8.327  1.00  0.00     0.004 A 
ATOM     22  C   UNL     1       9.460  -2.351   7.517  1.00  0.00    -0.051 A 
ATOM     23  C   UNL     1       9.133  -1.960   6.107  1.00  0.00     0.044 C 
ENDBRANCH  16  17
ENDBRANCH   6  16
TORSDOF 3
ENDMDL
MODEL 7
REMARK VINA RESULT:    -3.784      3.664      7.736
REMARK INTER + INTRA:          -4.823
REMARK INTER:                  -4.647
REMARK INTRA:                  -0.176
REMARK UNBOUND:                -0.376
REMARK SMILES Cc1ccc(CNC(=O)NC(=O)c2ccc(C)cc2)cc1
REMARK SMILES IDX 11 1 12 2 10 3 8 4 9 5 7 6 13 9 19 10 18 11 14 12 16 13
REMARK SMILES IDX 15 14 17 15 6 16 5 17 4 18 20 19 3 20 21 21 2 22 1 23
REMARK H PARENT 10 7 7 8
ROOT
ATOM      1  C   UNL     1       9.038  -2.445   6.723  1.00  0.00     0.259 C 
ATOM      2  O   UNL     1       8.791  -1.264   6.527  1.00  0.00    -0.269 OA
ATOM      3  N   UNL     1       8.813  -3.539   5.881  1.00  0.00    -0.274 N 
ATOM      4  C   UNL     1       8.506  -3.755   4.562  1.00  0.00     0.321 C 
ATOM      5  O   UNL     1       8.523  -4.921   4.153  1.00  0.00    -0.248 OA
ATOM      6  N   UNL     1       8.219  -2.768   3.693  1.00  0.00    -0.334 N 
ATOM      7  H   UNL     1       9.083  -4.430   6.274  1.00  0.00     0.175 HD
ATOM      8  H   UNL     1       8.100  -3.086   2.742  1.00  0.00     0.165 HD
ENDROOT
BRANCH   1   9
ATOM      9  C   UNL     1       9.664  -2.783   8.016  1.00  0.00     0.040 A 
ATOM     10  C   UNL     1      10.966  -2.384   8.322  1.00  0.00     0.014 A 
ATOM     11  C   UNL     1      11.496  -2.681   9.577  1.00  0.00     0.004 A 
ATOM     12  C   UNL     1       8.915  -3.527   8.934  1.00  0.00     0.014 A 
ATOM     13  C   UNL     1      10.734  -3.382  10.524  1.00  0.00    -0.051 A 
ATOM     14  C   UNL     1       9.446  -3.816  10.189  1.00  0.00     0.004 A 
ATOM     15  C   UNL     1      11.286  -3.620  11.899  1.00  0.00     0.044 C 
ENDBRANCH   1   9
BRANCH   6  16
ATOM     16  C   UNL     1       8.245  -1.353   3.934  1.00  0.00     0.153 C 
BRANCH  16  17
ATOM     17  C   UNL     1       6.928  -0.670   4.179  1.00  0.00    -0.029 A 
ATOM     18  C   UNL     1       6.693   0.671   3.860  1.00  0.00     0.006 A 
ATOM     19  C   UNL     1       5.842  -1.481   4.546  1.00  0.00     0.006 A 
ATOM     20  C   UNL     1       5.389   1.178   3.886  1.00  0.00     0.004 A 
ATOM     21  C   UNL     1       4.546  -0.977   4.567  1.00  0.00     0.004 A 
ATOM     22  C   UNL     1       4.307   0.356   4.227  1.00  0.00    -0.051 A 
ATOM     23  C   UNL     1       2.896   0.853   4.119  1.00  0.00     0.044 C 
ENDBRANCH  16  17
ENDBRANCH   6  16
TORSDOF 3
ENDMDL
MODEL 8
REMARK VINA RESULT:    -3.594      7.336      9.207
REMARK INTER + INTRA:          -4.601
REMARK INTER:                  -4.023
REMARK INTRA:                  -0.578
REMARK UNBOUND:                -0.376
REMARK SMILES Cc1ccc(CNC(=O)NC(=O)c2ccc(C)cc2)cc1
REMARK SMILES IDX 11 1 12 2 10 3 8 4 9 5 7 6 13 9 19 10 18 11 14 12 16 13
REMARK SMILES IDX 15 14 17 15 6 16 5 17 4 18 20 19 3 20 21 21 2 22 1 23
REMARK H PARENT 10 7 7 8
ROOT
ATOM      1  C   UNL     1      11.574  -4.425  11.698  1.00  0.00     0.259 C 
ATOM      2  O   UNL     1      11.403  -5.634  11.774  1.00  0.00    -0.269 OA
ATOM      3  N   UNL     1      12.346  -3.597  12.519  1.00  0.00    -0.274 N 
ATOM      4  C   UNL     1      13.320  -3.741  13.474  1.00  0.00     0.321 C 
ATOM      5  O   UNL     1      13.871  -2.716  13.890  1.00  0.00    -0.248 OA
ATOM      6  N   UNL     1      13.721  -4.933  13.955  1.00  0.00    -0.334 N 
ATOM      7  H   UNL     1      12.316  -2.618  12.270  1.00  0.00     0.175 HD
ATOM      8  H   UNL     1      14.505  -4.872  14.588  1.00  0.00     0.165 HD
ENDROOT
BRANCH   1   9
ATOM      9  C   UNL     1      10.886  -3.728  10.594  1.00  0.00     0.040 A 
ATOM     10  C   UNL     1      11.566  -2.843   9.756  1.00  0.00     0.014 A 
ATOM     11  C   UNL     1      10.885  -2.248   8.693  1.00  0.00     0.004 A 
ATOM     12  C   UNL     1       9.521  -3.974  10.412  1.00  0.00     0.014 A 
ATOM     13  C   UNL     1       9.528  -2.528   8.470  1.00  0.00    -0.051 A 
ATOM     14  C   UNL     1       8.847  -3.382   9.346  1.00  0.00     0.004 A 
ATOM     15  C   UNL     1       8.833  -1.947   7.275  1.00  0.00     0.044 C 
ENDBRANCH   1   9
BRANCH   6  16
ATOM     16  C   UNL     1      13.289  -6.236  13.536  1.00  0.00     0.153 C 
BRANCH  16  17
ATOM     17  C   UNL     1      14.328  -7.154  12.955  1.00  0.00    -0.029 A 
ATOM     18  C   UNL     1      14.805  -8.287  13.623  1.00  0.00     0.006 A 
ATOM     19  C   UNL     1      14.665  -6.970  11.604  1.00  0.00     0.006 A 
ATOM     20  C   UNL     1      15.584  -9.226  12.939  1.00  0.00     0.004 A 
ATOM     21  C   UNL     1      15.436  -7.908  10.924  1.00  0.00     0.004 A 
ATOM     22  C   UNL     1      15.894  -9.050  11.583  1.00  0.00    -0.051 A 
ATOM     23  C   UNL     1      16.605 -10.119  10.809  1.00  0.00     0.044 C 
ENDBRANCH  16  17
ENDBRANCH   6  16
TORSDOF 3
ENDMDL
MODEL 9
REMARK VINA RESULT:    -3.519      4.502      8.705
REMARK INTER + INTRA:          -4.512
REMARK INTER:                  -4.147
REMARK INTRA:                  -0.365
REMARK UNBOUND:                -0.376
REMARK SMILES Cc1ccc(CNC(=O)NC(=O)c2ccc(C)cc2)cc1
REMARK SMILES IDX 11 1 12 2 10 3 8 4 9 5 7 6 13 9 19 10 18 11 14 12 16 13
REMARK SMILES IDX 15 14 17 15 6 16 5 17 4 18 20 19 3 20 21 21 2 22 1 23
REMARK H PARENT 10 7 7 8
ROOT
ATOM      1  C   UNL     1      12.187  -2.932   9.143  1.00  0.00     0.259 C 
ATOM      2  O   UNL     1      12.411  -2.581   7.993  1.00  0.00    -0.269 OA
ATOM      3  N   UNL     1      10.957  -3.056   9.798  1.00  0.00    -0.274 N 
ATOM      4  C   UNL     1       9.629  -3.093   9.459  1.00  0.00     0.321 C 
ATOM      5  O   UNL     1       8.817  -3.360  10.352  1.00  0.00    -0.248 OA
ATOM      6  N   UNL     1       9.173  -2.885   8.210  1.00  0.00    -0.334 N 
ATOM      7  H   UNL     1      11.026  -3.345  10.764  1.00  0.00     0.175 HD
ATOM      8  H   UNL     1       8.179  -3.032   8.110  1.00  0.00     0.165 HD
ENDROOT
BRANCH   1   9
ATOM      9  C   UNL     1      13.360  -3.282   9.967  1.00  0.00     0.040 A 
ATOM     10  C   UNL     1      14.661  -3.041   9.521  1.00  0.00     0.014 A 
ATOM     11  C   UNL     1      15.737  -3.340  10.357  1.00  0.00     0.004 A 
ATOM     12  C   UNL     1      13.135  -3.873  11.214  1.00  0.00     0.014 A 
ATOM     13  C   UNL     1      15.519  -3.885  11.631  1.00  0.00    -0.051 A 
ATOM     14  C   UNL     1      14.212  -4.164  12.048  1.00  0.00     0.004 A 
ATOM     15  C   UNL     1      16.681  -4.122  12.551  1.00  0.00     0.044 C 
ENDBRANCH   1   9
BRANCH   6  16
ATOM     16  C   UNL     1       9.946  -2.665   7.021  1.00  0.00     0.153 C 
BRANCH  16  17
ATOM     17  C   UNL     1       9.193  -2.394   5.748  1.00  0.00    -0.029 A 
ATOM     18  C   UNL     1       8.612  -3.405   4.975  1.00  0.00     0.006 A 
ATOM     19  C   UNL     1       8.890  -1.055   5.452  1.00  0.00     0.006 A 
ATOM     20  C   UNL     1       7.726  -3.075   3.943  1.00  0.00     0.004 A 
ATOM     21  C   UNL     1       8.006  -0.729   4.429  1.00  0.00     0.004 A 
ATOM     22  C   UNL     1       7.408  -1.738   3.672  1.00  0.00    -0.051 A 
ATOM     23  C   UNL     1       6.354  -1.384   2.665  1.00  0.00     0.044 C 
ENDBRANCH  16  17
ENDBRANCH   6  16
TORSDOF 3
ENDMDL
