MODEL 1
REMARK VINA RESULT:    -4.134      0.000      0.000
REMARK INTER + INTRA:          -5.774
REMARK INTER:                  -5.464
REMARK INTRA:                  -0.311
REMARK UNBOUND:                -0.311
REMARK SMILES [H]/N=C\C[C@H]1C[C@@H]1O[C@H]1CO[C@H]2C[C@@H](C3CC3)CCN2C1
REMARK SMILES IDX 7 1 6 2 5 3 8 4 9 5 14 6 13 7 18 8 12 9 19 10 20 11 11 12
REMARK SMILES IDX 21 13 10 14 15 15 16 16 17 17 4 18 3 19 2 20 1 21
REMARK H PARENT
ROOT
ATOM      1  C   UNL     1      17.934  -8.436  -9.196  1.00  0.00     0.122 C 
ATOM      2  C   UNL     1      18.235  -9.903  -9.070  1.00  0.00     0.039 C 
ATOM      3  C   UNL     1      16.822  -9.444  -9.288  1.00  0.00     0.026 C 
ENDROOT
BRANCH   1   4
ATOM      4  O   UNL     1      18.042  -7.706  -7.958  1.00  0.00    -0.371 OA
BRANCH   4   5
ATOM      5  C   UNL     1      18.304  -6.300  -8.090  1.00  0.00     0.158 C 
ATOM      6  C   UNL     1      14.273  -4.494  -5.315  1.00  0.00    -0.003 C 
ATOM      7  C   UNL     1      14.454  -5.156  -6.686  1.00  0.00     0.052 C 
ATOM      8  C   UNL     1      15.334  -5.036  -4.346  1.00  0.00     0.019 C 
ATOM      9  C   UNL     1      15.894  -5.023  -7.198  1.00  0.00     0.189 C 
ATOM     10  C   UNL     1      16.741  -4.906  -4.929  1.00  0.00     0.087 C 
ATOM     11  N   UNL     1      16.835  -5.578  -6.224  1.00  0.00    -0.276 NA
ATOM     12  O   UNL     1      15.949  -5.712  -8.449  1.00  0.00    -0.360 OA
ATOM     13  C   UNL     1      18.202  -5.537  -6.756  1.00  0.00     0.121 C 
ATOM     14  C   UNL     1      17.254  -5.706  -9.035  1.00  0.00     0.195 C 
BRANCH   6  15
ATOM     15  C   UNL     1      12.884  -4.726  -4.765  1.00  0.00    -0.008 C 
ATOM     16  C   UNL     1      12.125  -3.598  -4.107  1.00  0.00     0.004 C 
ATOM     17  C   UNL     1      11.675  -4.124  -5.439  1.00  0.00     0.004 C 
ENDBRANCH   6  15
ENDBRANCH   4   5
ENDBRANCH   1   4
BRANCH   3  18
ATOM     18  C   UNL     1      16.162  -9.723 -10.605  1.00  0.00     0.053 C 
BRANCH  18  19
ATOM     19  C   UNL     1      14.781 -10.323 -10.545  1.00  0.00     0.074 C 
BRANCH  19  20
ATOM     20  N   UNL     1      14.501 -11.553 -10.271  1.00  0.00    -0.313 NA
ATOM     21  H   UNL     1      14.155 -11.658  -9.306  1.00  0.00     0.186 HD
ENDBRANCH  19  20
ENDBRANCH  18  19
ENDBRANCH   3  18
TORSDOF 6
ENDMDL
MODEL 2
REMARK VINA RESULT:    -4.040      4.489      8.689
REMARK INTER + INTRA:          -5.649
REMARK INTER:                  -5.434
REMARK INTRA:                  -0.216
REMARK UNBOUND:                -0.311
REMARK SMILES [H]/N=C\C[C@H]1C[C@@H]1O[C@H]1CO[C@H]2C[C@@H](C3CC3)CCN2C1
REMARK SMILES IDX 7 1 6 2 5 3 8 4 9 5 14 6 13 7 18 8 12 9 19 10 20 11 11 12
REMARK SMILES IDX 21 13 10 14 15 15 16 16 17 17 4 18 3 19 2 20 1 21
REMARK H PARENT
ROOT
ATOM      1  C   UNL     1      11.435  -2.649  -2.523  1.00  0.00     0.122 C 
ATOM      2  C   UNL     1      12.024  -1.716  -1.502  1.00  0.00     0.039 C 
ATOM      3  C   UNL     1      11.002  -1.209  -2.478  1.00  0.00     0.026 C 
ENDROOT
BRANCH   1   4
ATOM      4  O   UNL     1      12.345  -3.016  -3.577  1.00  0.00    -0.371 OA
BRANCH   4   5
ATOM      5  C   UNL     1      12.171  -4.337  -4.114  1.00  0.00     0.158 C 
ATOM      6  C   UNL     1      14.894  -3.755  -8.524  1.00  0.00    -0.003 C 
ATOM      7  C   UNL     1      13.544  -3.259  -7.994  1.00  0.00     0.052 C 
ATOM      8  C   UNL     1      15.878  -3.897  -7.354  1.00  0.00     0.019 C 
ATOM      9  C   UNL     1      13.026  -4.134  -6.844  1.00  0.00     0.189 C 
ATOM     10  C   UNL     1      15.290  -4.750  -6.230  1.00  0.00     0.087 C 
ATOM     11  N   UNL     1      14.015  -4.201  -5.768  1.00  0.00    -0.276 NA
ATOM     12  O   UNL     1      11.797  -3.551  -6.408  1.00  0.00    -0.360 OA
ATOM     13  C   UNL     1      13.480  -4.959  -4.632  1.00  0.00     0.121 C 
ATOM     14  C   UNL     1      11.209  -4.244  -5.303  1.00  0.00     0.195 C 
BRANCH   6  15
ATOM     15  C   UNL     1      15.453  -2.825  -9.577  1.00  0.00    -0.008 C 
ATOM     16  C   UNL     1      16.214  -3.378 -10.759  1.00  0.00     0.004 C 
ATOM     17  C   UNL     1      14.854  -2.776 -10.962  1.00  0.00     0.004 C 
ENDBRANCH   6  15
ENDBRANCH   4   5
ENDBRANCH   1   4
BRANCH   3  18
ATOM     18  C   UNL     1       9.636  -0.846  -1.977  1.00  0.00     0.053 C 
BRANCH  18  19
ATOM     19  C   UNL     1       9.082   0.473  -2.450  1.00  0.00     0.074 C 
BRANCH  19  20
ATOM     20  N   UNL     1       9.759   1.428  -2.995  1.00  0.00    -0.313 NA
ATOM     21  H   UNL     1       9.157   2.222  -3.252  1.00  0.00     0.186 HD
ENDBRANCH  19  20
ENDBRANCH  18  19
ENDBRANCH   3  18
TORSDOF 6
ENDMDL
MODEL 3
REMARK VINA RESULT:    -4.011      8.732     10.889
REMARK INTER + INTRA:          -5.612
REMARK INTER:                  -5.382
REMARK INTRA:                  -0.229
REMARK UNBOUND:                -0.311
REMARK SMILES [H]/N=C\C[C@H]1C[C@@H]1O[C@H]1CO[C@H]2C[C@@H](C3CC3)CCN2C1
REMARK SMILES IDX 7 1 6 2 5 3 8 4 9 5 14 6 13 7 18 8 12 9 19 10 20 11 11 12
REMARK SMILES IDX 21 13 10 14 15 15 16 16 17 17 4 18 3 19 2 20 1 21
REMARK H PARENT
ROOT
ATOM      1  C   UNL     1      13.638  -2.127  -0.093  1.00  0.00     0.122 C 
ATOM      2  C   UNL     1      14.890  -1.367  -0.429  1.00  0.00     0.039 C 
ATOM      3  C   UNL     1      14.458  -1.502   1.003  1.00  0.00     0.026 C 
ENDROOT
BRANCH   1   4
ATOM      4  O   UNL     1      12.422  -1.446  -0.457  1.00  0.00    -0.371 OA
BRANCH   4   5
ATOM      5  C   UNL     1      12.109  -1.443  -1.859  1.00  0.00     0.158 C 
ATOM      6  C   UNL     1       7.036  -2.610  -1.531  1.00  0.00    -0.003 C 
ATOM      7  C   UNL     1       8.353  -3.368  -1.324  1.00  0.00     0.052 C 
ATOM      8  C   UNL     1       7.229  -1.140  -1.135  1.00  0.00     0.019 C 
ATOM      9  C   UNL     1       9.526  -2.678  -2.034  1.00  0.00     0.189 C 
ATOM     10  C   UNL     1       8.431  -0.522  -1.849  1.00  0.00     0.087 C 
ATOM     11  N   UNL     1       9.648  -1.291  -1.586  1.00  0.00    -0.276 NA
ATOM     12  O   UNL     1      10.694  -3.444  -1.732  1.00  0.00    -0.360 OA
ATOM     13  C   UNL     1      10.826  -0.662  -2.193  1.00  0.00     0.121 C 
ATOM     14  C   UNL     1      11.887  -2.894  -2.300  1.00  0.00     0.195 C 
BRANCH   6  15
ATOM     15  C   UNL     1       5.908  -3.230  -0.738  1.00  0.00    -0.008 C 
ATOM     16  C   UNL     1       4.555  -3.446  -1.374  1.00  0.00     0.004 C 
ATOM     17  C   UNL     1       5.423  -4.626  -1.045  1.00  0.00     0.004 C 
ENDBRANCH   6  15
ENDBRANCH   4   5
ENDBRANCH   1   4
BRANCH   3  18
ATOM     18  C   UNL     1      15.266  -2.364   1.927  1.00  0.00     0.053 C 
BRANCH  18  19
ATOM     19  C   UNL     1      16.732  -2.036   2.031  1.00  0.00     0.074 C 
BRANCH  19  20
ATOM     20  N   UNL     1      17.236  -0.986   2.590  1.00  0.00    -0.313 NA
ATOM     21  H   UNL     1      17.509  -1.169   3.566  1.00  0.00     0.186 HD
ENDBRANCH  19  20
ENDBRANCH  18  19
ENDBRANCH   3  18
TORSDOF 6
ENDMDL
MODEL 4
REMARK VINA RESULT:    -3.990      5.591      8.759
REMARK INTER + INTRA:          -5.584
REMARK INTER:                  -5.382
REMARK INTRA:                  -0.201
REMARK UNBOUND:                -0.311
REMARK SMILES [H]/N=C\C[C@H]1C[C@@H]1O[C@H]1CO[C@H]2C[C@@H](C3CC3)CCN2C1
REMARK SMILES IDX 7 1 6 2 5 3 8 4 9 5 14 6 13 7 18 8 12 9 19 10 20 11 11 12
REMARK SMILES IDX 21 13 10 14 15 15 16 16 17 17 4 18 3 19 2 20 1 21
REMARK H PARENT
ROOT
ATOM      1  C   UNL     1      12.242  -3.490  -4.641  1.00  0.00     0.122 C 
ATOM      2  C   UNL     1      13.262  -4.582  -4.803  1.00  0.00     0.039 C 
ATOM      3  C   UNL     1      12.257  -4.329  -5.890  1.00  0.00     0.026 C 
ENDROOT
BRANCH   1   4
ATOM      4  O   UNL     1      11.212  -3.787  -3.678  1.00  0.00    -0.371 OA
BRANCH   4   5
ATOM      5  C   UNL     1      11.637  -3.816  -2.306  1.00  0.00     0.158 C 
ATOM      6  C   UNL     1       7.547  -1.384  -0.170  1.00  0.00    -0.003 C 
ATOM      7  C   UNL     1       8.737  -0.970  -1.043  1.00  0.00     0.052 C 
ATOM      8  C   UNL     1       7.137  -2.821  -0.519  1.00  0.00     0.019 C 
ATOM      9  C   UNL     1       9.885  -1.985  -0.961  1.00  0.00     0.189 C 
ATOM     10  C   UNL     1       8.330  -3.774  -0.452  1.00  0.00     0.087 C 
ATOM     11  N   UNL     1       9.412  -3.321  -1.325  1.00  0.00    -0.276 NA
ATOM     12  O   UNL     1      10.907  -1.519  -1.844  1.00  0.00    -0.360 OA
ATOM     13  C   UNL     1      10.530  -4.271  -1.338  1.00  0.00     0.121 C 
ATOM     14  C   UNL     1      12.039  -2.393  -1.902  1.00  0.00     0.195 C 
BRANCH   6  15
ATOM     15  C   UNL     1       6.377  -0.441  -0.343  1.00  0.00    -0.008 C 
ATOM     16  C   UNL     1       5.642   0.093   0.863  1.00  0.00     0.004 C 
ATOM     17  C   UNL     1       6.494   1.015   0.039  1.00  0.00     0.004 C 
ENDBRANCH   6  15
ENDBRANCH   4   5
ENDBRANCH   1   4
BRANCH   3  18
ATOM     18  C   UNL     1      12.724  -3.741  -7.188  1.00  0.00     0.053 C 
BRANCH  18  19
ATOM     19  C   UNL     1      13.838  -4.475  -7.889  1.00  0.00     0.074 C 
BRANCH  19  20
ATOM     20  N   UNL     1      13.695  -5.339  -8.839  1.00  0.00    -0.313 NA
ATOM     21  H   UNL     1      13.660  -6.302  -8.474  1.00  0.00     0.186 HD
ENDBRANCH  19  20
ENDBRANCH  18  19
ENDBRANCH   3  18
TORSDOF 6
ENDMDL
MODEL 5
REMARK VINA RESULT:    -3.786      2.012      6.924
REMARK INTER + INTRA:          -5.314
REMARK INTER:                  -5.331
REMARK INTRA:                   0.016
REMARK UNBOUND:                -0.311
REMARK SMILES [H]/N=C\C[C@H]1C[C@@H]1O[C@H]1CO[C@H]2C[C@@H](C3CC3)CCN2C1
REMARK SMILES IDX 7 1 6 2 5 3 8 4 9 5 14 6 13 7 18 8 12 9 19 10 20 11 11 12
REMARK SMILES IDX 21 13 10 14 15 15 16 16 17 17 4 18 3 19 2 20 1 21
REMARK H PARENT
ROOT
ATOM      1  C   UNL     1      13.610  -4.064  -7.003  1.00  0.00     0.122 C 
ATOM      2  C   UNL     1      12.420  -4.102  -6.086  1.00  0.00     0.039 C 
ATOM      3  C   UNL     1      13.639  -4.917  -5.764  1.00  0.00     0.026 C 
ENDROOT
BRANCH   1   4
ATOM      4  O   UNL     1      13.410  -4.751  -8.253  1.00  0.00    -0.371 OA
BRANCH   4   5
ATOM      5  C   UNL     1      14.219  -4.291  -9.348  1.00  0.00     0.158 C 
ATOM      6  C   UNL     1      16.629  -8.777 -10.478  1.00  0.00    -0.003 C 
ATOM      7  C   UNL     1      16.704  -7.745  -9.347  1.00  0.00     0.052 C 
ATOM      8  C   UNL     1      15.190  -8.844 -11.009  1.00  0.00     0.019 C 
ATOM      9  C   UNL     1      16.131  -6.387  -9.775  1.00  0.00     0.189 C 
ATOM     10  C   UNL     1      14.668  -7.458 -11.385  1.00  0.00     0.087 C 
ATOM     11  N   UNL     1      14.755  -6.540 -10.249  1.00  0.00    -0.276 NA
ATOM     12  O   UNL     1      16.212  -5.531  -8.634  1.00  0.00    -0.360 OA
ATOM     13  C   UNL     1      14.178  -5.229 -10.568  1.00  0.00     0.121 C 
ATOM     14  C   UNL     1      15.674  -4.227  -8.872  1.00  0.00     0.195 C 
BRANCH   6  15
ATOM     15  C   UNL     1      17.089 -10.141 -10.016  1.00  0.00    -0.008 C 
ATOM     16  C   UNL     1      18.559 -10.489 -10.007  1.00  0.00     0.004 C 
ATOM     17  C   UNL     1      17.826 -10.307  -8.709  1.00  0.00     0.004 C 
ENDBRANCH   6  15
ENDBRANCH   4   5
ENDBRANCH   1   4
BRANCH   3  18
ATOM     18  C   UNL     1      14.490  -4.521  -4.594  1.00  0.00     0.053 C 
BRANCH  18  19
ATOM     19  C   UNL     1      15.958  -4.841  -4.699  1.00  0.00     0.074 C 
BRANCH  19  20
ATOM     20  N   UNL     1      16.634  -5.575  -3.879  1.00  0.00    -0.313 NA
ATOM     21  H   UNL     1      16.823  -5.082  -2.995  1.00  0.00     0.186 HD
ENDBRANCH  19  20
ENDBRANCH  18  19
ENDBRANCH   3  18
TORSDOF 6
ENDMDL
MODEL 6
REMARK VINA RESULT:    -3.514      4.903      6.714
REMARK INTER + INTRA:          -4.955
REMARK INTER:                  -4.690
REMARK INTRA:                  -0.265
REMARK UNBOUND:                -0.311
REMARK SMILES [H]/N=C\C[C@H]1C[C@@H]1O[C@H]1CO[C@H]2C[C@@H](C3CC3)CCN2C1
REMARK SMILES IDX 7 1 6 2 5 3 8 4 9 5 14 6 13 7 18 8 12 9 19 10 20 11 11 12
REMARK SMILES IDX 21 13 10 14 15 15 16 16 17 17 4 18 3 19 2 20 1 21
REMARK H PARENT
ROOT
ATOM      1  C   UNL     1      13.411  -3.390  -7.992  1.00  0.00     0.122 C 
ATOM      2  C   UNL     1      13.374  -2.235  -8.952  1.00  0.00     0.039 C 
ATOM      3  C   UNL     1      14.609  -2.492  -8.136  1.00  0.00     0.026 C 
ENDROOT
BRANCH   1   4
ATOM      4  O   UNL     1      12.601  -3.202  -6.816  1.00  0.00    -0.371 OA
BRANCH   4   5
ATOM      5  C   UNL     1      12.328  -4.391  -6.055  1.00  0.00     0.158 C 
ATOM      6  C   UNL     1      12.704  -2.359  -1.266  1.00  0.00    -0.003 C 
ATOM      7  C   UNL     1      13.686  -2.711  -2.390  1.00  0.00     0.052 C 
ATOM      8  C   UNL     1      11.364  -1.927  -1.880  1.00  0.00     0.019 C 
ATOM      9  C   UNL     1      13.089  -3.730  -3.370  1.00  0.00     0.189 C 
ATOM     10  C   UNL     1      10.843  -2.968  -2.870  1.00  0.00     0.087 C 
ATOM     11  N   UNL     1      11.827  -3.233  -3.918  1.00  0.00    -0.276 NA
ATOM     12  O   UNL     1      14.070  -3.941  -4.387  1.00  0.00    -0.360 OA
ATOM     13  C   UNL     1      11.308  -4.166  -4.925  1.00  0.00     0.121 C 
ATOM     14  C   UNL     1      13.636  -4.850  -5.404  1.00  0.00     0.195 C 
BRANCH   6  15
ATOM     15  C   UNL     1      13.252  -1.271  -0.371  1.00  0.00    -0.008 C 
ATOM     16  C   UNL     1      13.875  -1.619   0.961  1.00  0.00     0.004 C 
ATOM     17  C   UNL     1      14.739  -1.119  -0.160  1.00  0.00     0.004 C 
ENDBRANCH   6  15
ENDBRANCH   4   5
ENDBRANCH   1   4
BRANCH   3  18
ATOM     18  C   UNL     1      15.845  -2.986  -8.824  1.00  0.00     0.053 C 
BRANCH  18  19
ATOM     19  C   UNL     1      17.158  -2.520  -8.251  1.00  0.00     0.074 C 
BRANCH  19  20
ATOM     20  N   UNL     1      17.382  -2.224  -7.014  1.00  0.00    -0.313 NA
ATOM     21  H   UNL     1      18.391  -2.183  -6.810  1.00  0.00     0.186 HD
ENDBRANCH  19  20
ENDBRANCH  18  19
ENDBRANCH   3  18
TORSDOF 6
ENDMDL
MODEL 7
REMARK VINA RESULT:    -3.508      2.604      7.553
REMARK INTER + INTRA:          -4.946
REMARK INTER:                  -4.844
REMARK INTRA:                  -0.102
REMARK UNBOUND:                -0.311
REMARK SMILES [H]/N=C\C[C@H]1C[C@@H]1O[C@H]1CO[C@H]2C[C@@H](C3CC3)CCN2C1
REMARK SMILES IDX 7 1 6 2 5 3 8 4 9 5 14 6 13 7 18 8 12 9 19 10 20 11 11 12
REMARK SMILES IDX 21 13 10 14 15 15 16 16 17 17 4 18 3 19 2 20 1 21
REMARK H PARENT
ROOT
ATOM      1  C   UNL     1      12.335  -3.886  -6.060  1.00  0.00     0.122 C 
ATOM      2  C   UNL     1      11.141  -4.651  -5.563  1.00  0.00     0.039 C 
ATOM      3  C   UNL     1      12.223  -4.245  -4.603  1.00  0.00     0.026 C 
ENDROOT
BRANCH   1   4
ATOM      4  O   UNL     1      13.248  -4.673  -6.849  1.00  0.00    -0.371 OA
BRANCH   4   5
ATOM      5  C   UNL     1      14.163  -3.925  -7.666  1.00  0.00     0.158 C 
ATOM      6  C   UNL     1      16.015  -7.849 -10.561  1.00  0.00    -0.003 C 
ATOM      7  C   UNL     1      16.169  -7.390  -9.106  1.00  0.00     0.052 C 
ATOM      8  C   UNL     1      14.607  -7.491 -11.060  1.00  0.00     0.019 C 
ATOM      9  C   UNL     1      15.801  -5.910  -8.934  1.00  0.00     0.189 C 
ATOM     10  C   UNL     1      14.292  -6.014 -10.828  1.00  0.00     0.087 C 
ATOM     11  N   UNL     1      14.443  -5.661  -9.417  1.00  0.00    -0.276 NA
ATOM     12  O   UNL     1      15.938  -5.614  -7.542  1.00  0.00    -0.360 OA
ATOM     13  C   UNL     1      14.059  -4.268  -9.163  1.00  0.00     0.121 C 
ATOM     14  C   UNL     1      15.589  -4.265  -7.219  1.00  0.00     0.195 C 
BRANCH   6  15
ATOM     15  C   UNL     1      16.267  -9.332 -10.705  1.00  0.00    -0.008 C 
ATOM     16  C   UNL     1      17.661  -9.847 -10.977  1.00  0.00     0.004 C 
ATOM     17  C   UNL     1      17.021 -10.095  -9.642  1.00  0.00     0.004 C 
ENDBRANCH   6  15
ENDBRANCH   4   5
ENDBRANCH   1   4
BRANCH   3  18
ATOM     18  C   UNL     1      11.931  -3.185  -3.584  1.00  0.00     0.053 C 
BRANCH  18  19
ATOM     19  C   UNL     1      11.186  -3.632  -2.353  1.00  0.00     0.074 C 
BRANCH  19  20
ATOM     20  N   UNL     1      11.552  -3.430  -1.131  1.00  0.00    -0.313 NA
ATOM     21  H   UNL     1      12.330  -2.757  -1.074  1.00  0.00     0.186 HD
ENDBRANCH  19  20
ENDBRANCH  18  19
ENDBRANCH   3  18
TORSDOF 6
ENDMDL
MODEL 8
REMARK VINA RESULT:    -3.330      1.984      2.546
REMARK INTER + INTRA:          -4.711
REMARK INTER:                  -4.940
REMARK INTRA:                   0.229
REMARK UNBOUND:                -0.311
REMARK SMILES [H]/N=C\C[C@H]1C[C@@H]1O[C@H]1CO[C@H]2C[C@@H](C3CC3)CCN2C1
REMARK SMILES IDX 7 1 6 2 5 3 8 4 9 5 14 6 13 7 18 8 12 9 19 10 20 11 11 12
REMARK SMILES IDX 21 13 10 14 15 15 16 16 17 17 4 18 3 19 2 20 1 21
REMARK H PARENT
ROOT
ATOM      1  C   UNL     1      15.572  -7.570 -10.772  1.00  0.00     0.122 C 
ATOM      2  C   UNL     1      16.943  -7.090 -11.158  1.00  0.00     0.039 C 
ATOM      3  C   UNL     1      16.792  -8.307 -10.291  1.00  0.00     0.026 C 
ENDROOT
BRANCH   1   4
ATOM      4  O   UNL     1      14.904  -6.731  -9.811  1.00  0.00    -0.371 OA
BRANCH   4   5
ATOM      5  C   UNL     1      15.428  -5.399  -9.682  1.00  0.00     0.158 C 
ATOM      6  C   UNL     1      13.289  -4.157  -5.090  1.00  0.00    -0.003 C 
ATOM      7  C   UNL     1      12.779  -4.347  -6.524  1.00  0.00     0.052 C 
ATOM      8  C   UNL     1      14.470  -5.105  -4.842  1.00  0.00     0.019 C 
ATOM      9  C   UNL     1      13.910  -4.220  -7.553  1.00  0.00     0.189 C 
ATOM     10  C   UNL     1      15.544  -4.953  -5.919  1.00  0.00     0.087 C 
ATOM     11  N   UNL     1      14.983  -5.168  -7.252  1.00  0.00    -0.276 NA
ATOM     12  O   UNL     1      13.326  -4.460  -8.835  1.00  0.00    -0.360 OA
ATOM     13  C   UNL     1      16.018  -5.111  -8.290  1.00  0.00     0.121 C 
ATOM     14  C   UNL     1      14.278  -4.411  -9.902  1.00  0.00     0.195 C 
BRANCH   6  15
ATOM     15  C   UNL     1      12.194  -4.396  -4.076  1.00  0.00    -0.008 C 
ATOM     16  C   UNL     1      11.908  -3.370  -3.005  1.00  0.00     0.004 C 
ATOM     17  C   UNL     1      10.917  -3.591  -4.111  1.00  0.00     0.004 C 
ENDBRANCH   6  15
ENDBRANCH   4   5
ENDBRANCH   1   4
BRANCH   3  18
ATOM     18  C   UNL     1      17.136  -9.651 -10.859  1.00  0.00     0.053 C 
BRANCH  18  19
ATOM     19  C   UNL     1      18.355 -10.325 -10.284  1.00  0.00     0.074 C 
BRANCH  19  20
ATOM     20  N   UNL     1      18.371 -11.454  -9.657  1.00  0.00    -0.313 NA
ATOM     21  H   UNL     1      17.879 -12.189 -10.186  1.00  0.00     0.186 HD
ENDBRANCH  19  20
ENDBRANCH  18  19
ENDBRANCH   3  18
TORSDOF 6
ENDMDL
MODEL 9
REMARK VINA RESULT:    -3.202      4.229      8.393
REMARK INTER + INTRA:          -4.542
REMARK INTER:                  -4.513
REMARK INTRA:                  -0.029
REMARK UNBOUND:                -0.311
REMARK SMILES [H]/N=C\C[C@H]1C[C@@H]1O[C@H]1CO[C@H]2C[C@@H](C3CC3)CCN2C1
REMARK SMILES IDX 7 1 6 2 5 3 8 4 9 5 14 6 13 7 18 8 12 9 19 10 20 11 11 12
REMARK SMILES IDX 21 13 10 14 15 15 16 16 17 17 4 18 3 19 2 20 1 21
REMARK H PARENT
ROOT
ATOM      1  C   UNL     1      11.962  -2.458  -2.842  1.00  0.00     0.122 C 
ATOM      2  C   UNL     1      11.588  -3.553  -1.884  1.00  0.00     0.039 C 
ATOM      3  C   UNL     1      12.584  -2.507  -1.473  1.00  0.00     0.026 C 
ENDROOT
BRANCH   1   4
ATOM      4  O   UNL     1      12.786  -2.894  -3.940  1.00  0.00    -0.371 OA
BRANCH   4   5
ATOM      5  C   UNL     1      12.532  -4.226  -4.414  1.00  0.00     0.158 C 
ATOM      6  C   UNL     1      15.178  -3.978  -8.902  1.00  0.00    -0.003 C 
ATOM      7  C   UNL     1      13.867  -3.390  -8.366  1.00  0.00     0.052 C 
ATOM      8  C   UNL     1      16.180  -4.120  -7.748  1.00  0.00     0.019 C 
ATOM      9  C   UNL     1      13.333  -4.187  -7.168  1.00  0.00     0.189 C 
ATOM     10  C   UNL     1      15.575  -4.892  -6.575  1.00  0.00     0.087 C 
ATOM     11  N   UNL     1      14.342  -4.258  -6.111  1.00  0.00    -0.276 NA
ATOM     12  O   UNL     1      12.145  -3.522  -6.732  1.00  0.00    -0.360 OA
ATOM     13  C   UNL     1      13.795  -4.937  -4.931  1.00  0.00     0.121 C 
ATOM     14  C   UNL     1      11.549  -4.135  -5.586  1.00  0.00     0.195 C 
BRANCH   6  15
ATOM     15  C   UNL     1      15.759  -3.125 -10.007  1.00  0.00    -0.008 C 
ATOM     16  C   UNL     1      16.214  -3.756 -11.301  1.00  0.00     0.004 C 
ATOM     17  C   UNL     1      14.991  -2.885 -11.284  1.00  0.00     0.004 C 
ENDBRANCH   6  15
ENDBRANCH   4   5
ENDBRANCH   1   4
BRANCH   3  18
ATOM     18  C   UNL     1      12.194  -1.503  -0.430  1.00  0.00     0.053 C 
BRANCH  18  19
ATOM     19  C   UNL     1      13.267  -1.113   0.553  1.00  0.00     0.074 C 
BRANCH  19  20
ATOM     20  N   UNL     1      14.231  -1.869   0.962  1.00  0.00    -0.313 NA
ATOM     21  H   UNL     1      14.566  -2.493   0.215  1.00  0.00     0.186 HD
ENDBRANCH  19  20
ENDBRANCH  18  19
ENDBRANCH   3  18
TORSDOF 6
ENDMDL
