MODEL 1
REMARK VINA RESULT:    -6.003      0.000      0.000
REMARK INTER + INTRA:          -7.435
REMARK INTER:                  -7.055
REMARK INTRA:                  -0.380
REMARK UNBOUND:                -0.380
REMARK SMILES Cc1ccc(CNC(=O)NC(=O)c2ccc(C)cc2)cc1
REMARK SMILES IDX 11 1 12 2 10 3 8 4 9 5 7 6 13 9 19 10 18 11 14 12 16 13
REMARK SMILES IDX 15 14 17 15 6 16 5 17 4 18 20 19 3 20 21 21 2 22 1 23
REMARK H PARENT 10 7 7 8
ROOT
ATOM      1  C   UNL     1      -6.951  -1.975   6.979  1.00  0.00     0.259 C 
ATOM      2  O   UNL     1      -6.502  -3.067   7.299  1.00  0.00    -0.269 OA
ATOM      3  N   UNL     1      -8.235  -1.461   7.188  1.00  0.00    -0.274 N 
ATOM      4  C   UNL     1      -9.338  -1.766   7.944  1.00  0.00     0.321 C 
ATOM      5  O   UNL     1     -10.271  -0.956   7.949  1.00  0.00    -0.248 OA
ATOM      6  N   UNL     1      -9.441  -2.877   8.696  1.00  0.00    -0.334 N 
ATOM      7  H   UNL     1      -8.379  -0.534   6.811  1.00  0.00     0.175 HD
ATOM      8  H   UNL     1     -10.279  -2.911   9.259  1.00  0.00     0.165 HD
ENDROOT
BRANCH   1   9
ATOM      9  C   UNL     1      -6.027  -1.059   6.283  1.00  0.00     0.040 A 
ATOM     10  C   UNL     1      -6.025  -0.946   4.892  1.00  0.00     0.014 A 
ATOM     11  C   UNL     1      -5.170  -0.028   4.281  1.00  0.00     0.004 A 
ATOM     12  C   UNL     1      -5.141  -0.306   7.059  1.00  0.00     0.014 A 
ATOM     13  C   UNL     1      -4.313   0.770   5.054  1.00  0.00    -0.051 A 
ATOM     14  C   UNL     1      -4.293   0.615   6.445  1.00  0.00     0.004 A 
ATOM     15  C   UNL     1      -3.462   1.811   4.390  1.00  0.00     0.044 C 
ENDBRANCH   1   9
BRANCH   6  16
ATOM     16  C   UNL     1      -8.441  -3.885   8.911  1.00  0.00     0.153 C 
BRANCH  16  17
ATOM     17  C   UNL     1      -8.553  -4.712  10.161  1.00  0.00    -0.029 A 
ATOM     18  C   UNL     1      -7.521  -4.821  11.099  1.00  0.00     0.006 A 
ATOM     19  C   UNL     1      -9.823  -5.217  10.488  1.00  0.00     0.006 A 
ATOM     20  C   UNL     1      -7.768  -5.403  12.347  1.00  0.00     0.004 A 
ATOM     21  C   UNL     1     -10.068  -5.790  11.731  1.00  0.00     0.004 A 
ATOM     22  C   UNL     1      -9.045  -5.879  12.676  1.00  0.00    -0.051 A 
ATOM     23  C   UNL     1      -9.353  -6.371  14.059  1.00  0.00     0.044 C 
ENDBRANCH  16  17
ENDBRANCH   6  16
TORSDOF 3
ENDMDL
MODEL 2
REMARK VINA RESULT:    -5.960      3.249      5.543
REMARK INTER + INTRA:          -7.385
REMARK INTER:                  -7.011
REMARK INTRA:                  -0.374
REMARK UNBOUND:                -0.380
REMARK SMILES Cc1ccc(CNC(=O)NC(=O)c2ccc(C)cc2)cc1
REMARK SMILES IDX 11 1 12 2 10 3 8 4 9 5 7 6 13 9 19 10 18 11 14 12 16 13
REMARK SMILES IDX 15 14 17 15 6 16 5 17 4 18 20 19 3 20 21 21 2 22 1 23
REMARK H PARENT 10 7 7 8
ROOT
ATOM      1  C   UNL     1      -7.200  -1.752   6.648  1.00  0.00     0.259 C 
ATOM      2  O   UNL     1      -7.687  -0.676   6.330  1.00  0.00    -0.269 OA
ATOM      3  N   UNL     1      -7.609  -2.637   7.650  1.00  0.00    -0.274 N 
ATOM      4  C   UNL     1      -8.709  -2.826   8.448  1.00  0.00     0.321 C 
ATOM      5  O   UNL     1      -8.743  -3.845   9.145  1.00  0.00    -0.248 OA
ATOM      6  N   UNL     1      -9.756  -1.981   8.484  1.00  0.00    -0.334 N 
ATOM      7  H   UNL     1      -7.031  -3.462   7.740  1.00  0.00     0.175 HD
ATOM      8  H   UNL     1     -10.521  -2.306   9.056  1.00  0.00     0.165 HD
ENDROOT
BRANCH   1   9
ATOM      9  C   UNL     1      -6.023  -2.198   5.877  1.00  0.00     0.040 A 
ATOM     10  C   UNL     1      -4.725  -2.010   6.356  1.00  0.00     0.014 A 
ATOM     11  C   UNL     1      -3.646  -2.495   5.616  1.00  0.00     0.004 A 
ATOM     12  C   UNL     1      -6.242  -2.812   4.640  1.00  0.00     0.014 A 
ATOM     13  C   UNL     1      -3.858  -3.159   4.399  1.00  0.00    -0.051 A 
ATOM     14  C   UNL     1      -5.162  -3.300   3.907  1.00  0.00     0.004 A 
ATOM     15  C   UNL     1      -2.695  -3.749   3.657  1.00  0.00     0.044 C 
ENDBRANCH   1   9
BRANCH   6  16
ATOM     16  C   UNL     1      -9.961  -0.806   7.685  1.00  0.00     0.153 C 
BRANCH  16  17
ATOM     17  C   UNL     1     -11.373  -0.308   7.542  1.00  0.00    -0.029 A 
ATOM     18  C   UNL     1     -11.979  -0.078   6.302  1.00  0.00     0.006 A 
ATOM     19  C   UNL     1     -12.165  -0.278   8.701  1.00  0.00     0.006 A 
ATOM     20  C   UNL     1     -13.358   0.150   6.229  1.00  0.00     0.004 A 
ATOM     21  C   UNL     1     -13.536  -0.056   8.626  1.00  0.00     0.004 A 
ATOM     22  C   UNL     1     -14.147   0.151   7.388  1.00  0.00    -0.051 A 
ATOM     23  C   UNL     1     -15.640   0.252   7.304  1.00  0.00     0.044 C 
ENDBRANCH  16  17
ENDBRANCH   6  16
TORSDOF 3
ENDMDL
MODEL 3
REMARK VINA RESULT:    -5.888      0.548      8.004
REMARK INTER + INTRA:          -7.301
REMARK INTER:                  -6.806
REMARK INTRA:                  -0.496
REMARK UNBOUND:                -0.380
REMARK SMILES Cc1ccc(CNC(=O)NC(=O)c2ccc(C)cc2)cc1
REMARK SMILES IDX 11 1 12 2 10 3 8 4 9 5 7 6 13 9 19 10 18 11 14 12 16 13
REMARK SMILES IDX 15 14 17 15 6 16 5 17 4 18 20 19 3 20 21 21 2 22 1 23
REMARK H PARENT 10 7 7 8
ROOT
ATOM      1  C   UNL     1      -8.078  -3.559   9.049  1.00  0.00     0.259 C 
ATOM      2  O   UNL     1      -6.990  -3.741   8.520  1.00  0.00    -0.269 OA
ATOM      3  N   UNL     1      -9.067  -2.627   8.720  1.00  0.00    -0.274 N 
ATOM      4  C   UNL     1      -9.364  -1.792   7.673  1.00  0.00     0.321 C 
ATOM      5  O   UNL     1     -10.447  -1.198   7.704  1.00  0.00    -0.248 OA
ATOM      6  N   UNL     1      -8.557  -1.613   6.611  1.00  0.00    -0.334 N 
ATOM      7  H   UNL     1      -9.880  -2.652   9.321  1.00  0.00     0.175 HD
ATOM      8  H   UNL     1      -8.958  -1.034   5.888  1.00  0.00     0.165 HD
ENDROOT
BRANCH   1   9
ATOM      9  C   UNL     1      -8.412  -4.436  10.188  1.00  0.00     0.040 A 
ATOM     10  C   UNL     1      -7.465  -4.757  11.162  1.00  0.00     0.014 A 
ATOM     11  C   UNL     1      -7.842  -5.546  12.249  1.00  0.00     0.004 A 
ATOM     12  C   UNL     1      -9.712  -4.946  10.265  1.00  0.00     0.014 A 
ATOM     13  C   UNL     1      -9.158  -6.021  12.362  1.00  0.00    -0.051 A 
ATOM     14  C   UNL     1     -10.086  -5.729  11.355  1.00  0.00     0.004 A 
ATOM     15  C   UNL     1      -9.570  -6.797  13.578  1.00  0.00     0.044 C 
ENDBRANCH   1   9
BRANCH   6  16
ATOM     16  C   UNL     1      -7.316  -2.280   6.332  1.00  0.00     0.153 C 
BRANCH  16  17
ATOM     17  C   UNL     1      -6.173  -1.433   5.846  1.00  0.00    -0.029 A 
ATOM     18  C   UNL     1      -5.927  -1.187   4.491  1.00  0.00     0.006 A 
ATOM     19  C   UNL     1      -5.461  -0.699   6.809  1.00  0.00     0.006 A 
ATOM     20  C   UNL     1      -5.004  -0.206   4.114  1.00  0.00     0.004 A 
ATOM     21  C   UNL     1      -4.547   0.280   6.432  1.00  0.00     0.004 A 
ATOM     22  C   UNL     1      -4.318   0.543   5.080  1.00  0.00    -0.051 A 
ATOM     23  C   UNL     1      -3.437   1.690   4.686  1.00  0.00     0.044 C 
ENDBRANCH  16  17
ENDBRANCH   6  16
TORSDOF 3
ENDMDL
MODEL 4
REMARK VINA RESULT:    -5.845      3.140      7.322
REMARK INTER + INTRA:          -7.250
REMARK INTER:                  -6.756
REMARK INTRA:                  -0.494
REMARK UNBOUND:                -0.380
REMARK SMILES Cc1ccc(CNC(=O)NC(=O)c2ccc(C)cc2)cc1
REMARK SMILES IDX 11 1 12 2 10 3 8 4 9 5 7 6 13 9 19 10 18 11 14 12 16 13
REMARK SMILES IDX 15 14 17 15 6 16 5 17 4 18 20 19 3 20 21 21 2 22 1 23
REMARK H PARENT 10 7 7 8
ROOT
ATOM      1  C   UNL     1      -9.904  -1.002   7.273  1.00  0.00     0.259 C 
ATOM      2  O   UNL     1      -9.157  -0.406   6.511  1.00  0.00    -0.269 OA
ATOM      3  N   UNL     1      -9.622  -2.091   8.103  1.00  0.00    -0.274 N 
ATOM      4  C   UNL     1      -8.512  -2.741   8.581  1.00  0.00     0.321 C 
ATOM      5  O   UNL     1      -8.684  -3.617   9.435  1.00  0.00    -0.248 OA
ATOM      6  N   UNL     1      -7.256  -2.452   8.192  1.00  0.00    -0.334 N 
ATOM      7  H   UNL     1     -10.415  -2.430   8.632  1.00  0.00     0.175 HD
ATOM      8  H   UNL     1      -6.547  -2.960   8.700  1.00  0.00     0.165 HD
ENDROOT
BRANCH   1   9
ATOM      9  C   UNL     1     -11.296  -0.517   7.346  1.00  0.00     0.040 A 
ATOM     10  C   UNL     1     -12.003  -0.159   6.197  1.00  0.00     0.014 A 
ATOM     11  C   UNL     1     -13.334   0.243   6.310  1.00  0.00     0.004 A 
ATOM     12  C   UNL     1     -11.893  -0.419   8.607  1.00  0.00     0.014 A 
ATOM     13  C   UNL     1     -13.958   0.296   7.566  1.00  0.00    -0.051 A 
ATOM     14  C   UNL     1     -13.224  -0.023   8.715  1.00  0.00     0.004 A 
ATOM     15  C   UNL     1     -15.413   0.648   7.663  1.00  0.00     0.044 C 
ENDBRANCH   1   9
BRANCH   6  16
ATOM     16  C   UNL     1      -6.833  -1.411   7.298  1.00  0.00     0.153 C 
BRANCH  16  17
ATOM     17  C   UNL     1      -5.804  -1.768   6.262  1.00  0.00    -0.029 A 
ATOM     18  C   UNL     1      -4.428  -1.626   6.472  1.00  0.00     0.006 A 
ATOM     19  C   UNL     1      -6.249  -2.464   5.127  1.00  0.00     0.006 A 
ATOM     20  C   UNL     1      -3.521  -2.196   5.573  1.00  0.00     0.004 A 
ATOM     21  C   UNL     1      -5.345  -3.034   4.235  1.00  0.00     0.004 A 
ATOM     22  C   UNL     1      -3.972  -2.913   4.456  1.00  0.00    -0.051 A 
ATOM     23  C   UNL     1      -3.010  -3.645   3.569  1.00  0.00     0.044 C 
ENDBRANCH  16  17
ENDBRANCH   6  16
TORSDOF 3
ENDMDL
MODEL 5
REMARK VINA RESULT:    -5.108      5.145      8.457
REMARK INTER + INTRA:          -6.384
REMARK INTER:                  -5.870
REMARK INTRA:                  -0.514
REMARK UNBOUND:                -0.380
REMARK SMILES Cc1ccc(CNC(=O)NC(=O)c2ccc(C)cc2)cc1
REMARK SMILES IDX 11 1 12 2 10 3 8 4 9 5 7 6 13 9 19 10 18 11 14 12 16 13
REMARK SMILES IDX 15 14 17 15 6 16 5 17 4 18 20 19 3 20 21 21 2 22 1 23
REMARK H PARENT 10 7 7 8
ROOT
ATOM      1  C   UNL     1      -9.309  -6.666  13.520  1.00  0.00     0.259 C 
ATOM      2  O   UNL     1     -10.426  -6.509  13.992  1.00  0.00    -0.269 OA
ATOM      3  N   UNL     1      -8.279  -7.500  13.966  1.00  0.00    -0.274 N 
ATOM      4  C   UNL     1      -8.132  -8.553  14.832  1.00  0.00     0.321 C 
ATOM      5  O   UNL     1      -7.040  -9.132  14.851  1.00  0.00    -0.248 OA
ATOM      6  N   UNL     1      -9.117  -9.002  15.632  1.00  0.00    -0.334 N 
ATOM      7  H   UNL     1      -7.429  -7.443  13.421  1.00  0.00     0.175 HD
ATOM      8  H   UNL     1      -8.875  -9.838  16.146  1.00  0.00     0.165 HD
ENDROOT
BRANCH   1   9
ATOM      9  C   UNL     1      -8.985  -5.880  12.313  1.00  0.00     0.040 A 
ATOM     10  C   UNL     1      -7.726  -5.304  12.136  1.00  0.00     0.014 A 
ATOM     11  C   UNL     1      -7.450  -4.615  10.955  1.00  0.00     0.004 A 
ATOM     12  C   UNL     1      -9.983  -5.721  11.347  1.00  0.00     0.014 A 
ATOM     13  C   UNL     1      -8.427  -4.493   9.956  1.00  0.00    -0.051 A 
ATOM     14  C   UNL     1      -9.700  -5.037  10.166  1.00  0.00     0.004 A 
ATOM     15  C   UNL     1      -8.088  -3.823   8.657  1.00  0.00     0.044 C 
ENDBRANCH   1   9
BRANCH   6  16
ATOM     16  C   UNL     1     -10.476  -8.544  15.690  1.00  0.00     0.153 C 
BRANCH  16  17
ATOM     17  C   UNL     1     -11.551  -9.524  15.312  1.00  0.00    -0.029 A 
ATOM     18  C   UNL     1     -11.814 -10.688  16.041  1.00  0.00     0.006 A 
ATOM     19  C   UNL     1     -12.453  -9.134  14.308  1.00  0.00     0.006 A 
ATOM     20  C   UNL     1     -12.973 -11.429  15.784  1.00  0.00     0.004 A 
ATOM     21  C   UNL     1     -13.607  -9.869  14.057  1.00  0.00     0.004 A 
ATOM     22  C   UNL     1     -13.882 -11.018  14.800  1.00  0.00    -0.051 A 
ATOM     23  C   UNL     1     -15.192 -11.725  14.616  1.00  0.00     0.044 C 
ENDBRANCH  16  17
ENDBRANCH   6  16
TORSDOF 3
ENDMDL
MODEL 6
REMARK VINA RESULT:    -4.575      5.461     11.436
REMARK INTER + INTRA:          -5.757
REMARK INTER:                  -5.295
REMARK INTRA:                  -0.463
REMARK UNBOUND:                -0.380
REMARK SMILES Cc1ccc(CNC(=O)NC(=O)c2ccc(C)cc2)cc1
REMARK SMILES IDX 11 1 12 2 10 3 8 4 9 5 7 6 13 9 19 10 18 11 14 12 16 13
REMARK SMILES IDX 15 14 17 15 6 16 5 17 4 18 20 19 3 20 21 21 2 22 1 23
REMARK H PARENT 10 7 7 8
ROOT
ATOM      1  C   UNL     1     -11.416  -8.622  14.200  1.00  0.00     0.259 C 
ATOM      2  O   UNL     1     -11.661  -7.481  13.835  1.00  0.00    -0.269 OA
ATOM      3  N   UNL     1     -10.173  -9.244  14.354  1.00  0.00    -0.274 N 
ATOM      4  C   UNL     1      -8.855  -8.872  14.416  1.00  0.00     0.321 C 
ATOM      5  O   UNL     1      -8.027  -9.742  14.707  1.00  0.00    -0.248 OA
ATOM      6  N   UNL     1      -8.426  -7.614  14.207  1.00  0.00    -0.334 N 
ATOM      7  H   UNL     1     -10.224 -10.210  14.649  1.00  0.00     0.175 HD
ATOM      8  H   UNL     1      -7.438  -7.488  14.374  1.00  0.00     0.165 HD
ENDROOT
BRANCH   1   9
ATOM      9  C   UNL     1     -12.576  -9.473  14.531  1.00  0.00     0.040 A 
ATOM     10  C   UNL     1     -12.454 -10.567  15.389  1.00  0.00     0.014 A 
ATOM     11  C   UNL     1     -13.589 -11.310  15.715  1.00  0.00     0.004 A 
ATOM     12  C   UNL     1     -13.809  -9.156  13.954  1.00  0.00     0.014 A 
ATOM     13  C   UNL     1     -14.841 -10.969  15.182  1.00  0.00    -0.051 A 
ATOM     14  C   UNL     1     -14.941  -9.897  14.287  1.00  0.00     0.004 A 
ATOM     15  C   UNL     1     -16.065 -11.725  15.608  1.00  0.00     0.044 C 
ENDBRANCH   1   9
BRANCH   6  16
ATOM     16  C   UNL     1      -9.224  -6.446  13.962  1.00  0.00     0.153 C 
BRANCH  16  17
ATOM     17  C   UNL     1      -8.949  -5.674  12.702  1.00  0.00    -0.029 A 
ATOM     18  C   UNL     1      -7.706  -5.100  12.414  1.00  0.00     0.006 A 
ATOM     19  C   UNL     1      -9.924  -5.722  11.692  1.00  0.00     0.006 A 
ATOM     20  C   UNL     1      -7.443  -4.608  11.131  1.00  0.00     0.004 A 
ATOM     21  C   UNL     1      -9.659  -5.237  10.416  1.00  0.00     0.004 A 
ATOM     22  C   UNL     1      -8.412  -4.684  10.121  1.00  0.00    -0.051 A 
ATOM     23  C   UNL     1      -8.089  -4.291   8.710  1.00  0.00     0.044 C 
ENDBRANCH  16  17
ENDBRANCH   6  16
TORSDOF 3
ENDMDL
MODEL 7
REMARK VINA RESULT:    -4.364      5.150     10.981
REMARK INTER + INTRA:          -5.509
REMARK INTER:                  -4.938
REMARK INTRA:                  -0.571
REMARK UNBOUND:                -0.380
REMARK SMILES Cc1ccc(CNC(=O)NC(=O)c2ccc(C)cc2)cc1
REMARK SMILES IDX 11 1 12 2 10 3 8 4 9 5 7 6 13 9 19 10 18 11 14 12 16 13
REMARK SMILES IDX 15 14 17 15 6 16 5 17 4 18 20 19 3 20 21 21 2 22 1 23
REMARK H PARENT 10 7 7 8
ROOT
ATOM      1  C   UNL     1     -11.015  -8.107  14.525  1.00  0.00     0.259 C 
ATOM      2  O   UNL     1     -10.021  -8.450  13.901  1.00  0.00    -0.269 OA
ATOM      3  N   UNL     1     -11.260  -6.900  15.188  1.00  0.00    -0.274 N 
ATOM      4  C   UNL     1     -10.717  -5.642  15.235  1.00  0.00     0.321 C 
ATOM      5  O   UNL     1     -11.328  -4.777  15.871  1.00  0.00    -0.248 OA
ATOM      6  N   UNL     1      -9.579  -5.298  14.603  1.00  0.00    -0.334 N 
ATOM      7  H   UNL     1     -12.155  -6.855  15.657  1.00  0.00     0.175 HD
ATOM      8  H   UNL     1      -9.361  -4.314  14.665  1.00  0.00     0.165 HD
ENDROOT
BRANCH   1   9
ATOM      9  C   UNL     1     -12.120  -9.083  14.596  1.00  0.00     0.040 A 
ATOM     10  C   UNL     1     -12.008 -10.256  15.344  1.00  0.00     0.014 A 
ATOM     11  C   UNL     1     -13.099 -11.123  15.423  1.00  0.00     0.004 A 
ATOM     12  C   UNL     1     -13.290  -8.803  13.882  1.00  0.00     0.014 A 
ATOM     13  C   UNL     1     -14.295 -10.826  14.753  1.00  0.00    -0.051 A 
ATOM     14  C   UNL     1     -14.378  -9.669  13.969  1.00  0.00     0.004 A 
ATOM     15  C   UNL     1     -15.485 -11.724  14.917  1.00  0.00     0.044 C 
ENDBRANCH   1   9
BRANCH   6  16
ATOM     16  C   UNL     1      -8.778  -6.114  13.735  1.00  0.00     0.153 C 
BRANCH  16  17
ATOM     17  C   UNL     1      -8.680  -5.698  12.293  1.00  0.00    -0.029 A 
ATOM     18  C   UNL     1      -9.783  -5.657  11.434  1.00  0.00     0.006 A 
ATOM     19  C   UNL     1      -7.467  -5.132  11.869  1.00  0.00     0.006 A 
ATOM     20  C   UNL     1      -9.674  -5.037  10.185  1.00  0.00     0.004 A 
ATOM     21  C   UNL     1      -7.362  -4.511  10.628  1.00  0.00     0.004 A 
ATOM     22  C   UNL     1      -8.468  -4.449   9.779  1.00  0.00    -0.051 A 
ATOM     23  C   UNL     1      -8.383  -3.660   8.506  1.00  0.00     0.044 C 
ENDBRANCH  16  17
ENDBRANCH   6  16
TORSDOF 3
ENDMDL
MODEL 8
REMARK VINA RESULT:    -4.059      1.921      8.145
REMARK INTER + INTRA:          -5.150
REMARK INTER:                  -4.741
REMARK INTRA:                  -0.409
REMARK UNBOUND:                -0.380
REMARK SMILES Cc1ccc(CNC(=O)NC(=O)c2ccc(C)cc2)cc1
REMARK SMILES IDX 11 1 12 2 10 3 8 4 9 5 7 6 13 9 19 10 18 11 14 12 16 13
REMARK SMILES IDX 15 14 17 15 6 16 5 17 4 18 20 19 3 20 21 21 2 22 1 23
REMARK H PARENT 10 7 7 8
ROOT
ATOM      1  C   UNL     1      -7.902  -3.298   8.124  1.00  0.00     0.259 C 
ATOM      2  O   UNL     1      -7.251  -2.277   8.296  1.00  0.00    -0.269 OA
ATOM      3  N   UNL     1      -8.317  -3.879   6.921  1.00  0.00    -0.274 N 
ATOM      4  C   UNL     1      -8.028  -3.760   5.586  1.00  0.00     0.321 C 
ATOM      5  O   UNL     1      -8.534  -4.582   4.815  1.00  0.00    -0.248 OA
ATOM      6  N   UNL     1      -7.205  -2.822   5.083  1.00  0.00    -0.334 N 
ATOM      7  H   UNL     1      -8.870  -4.718   7.033  1.00  0.00     0.175 HD
ATOM      8  H   UNL     1      -7.029  -2.923   4.094  1.00  0.00     0.165 HD
ENDROOT
BRANCH   1   9
ATOM      9  C   UNL     1      -8.313  -4.032   9.336  1.00  0.00     0.040 A 
ATOM     10  C   UNL     1      -9.640  -4.413   9.542  1.00  0.00     0.014 A 
ATOM     11  C   UNL     1      -9.970  -5.152  10.678  1.00  0.00     0.004 A 
ATOM     12  C   UNL     1      -7.331  -4.333  10.285  1.00  0.00     0.014 A 
ATOM     13  C   UNL     1      -8.983  -5.504  11.611  1.00  0.00    -0.051 A 
ATOM     14  C   UNL     1      -7.664  -5.077  11.415  1.00  0.00     0.004 A 
ATOM     15  C   UNL     1      -9.339  -6.371  12.783  1.00  0.00     0.044 C 
ENDBRANCH   1   9
BRANCH   6  16
ATOM     16  C   UNL     1      -6.441  -1.847   5.809  1.00  0.00     0.153 C 
BRANCH  16  17
ATOM     17  C   UNL     1      -5.063  -1.529   5.297  1.00  0.00    -0.029 A 
ATOM     18  C   UNL     1      -4.107  -2.511   5.017  1.00  0.00     0.006 A 
ATOM     19  C   UNL     1      -4.818  -0.207   4.889  1.00  0.00     0.006 A 
ATOM     20  C   UNL     1      -2.941  -2.174   4.321  1.00  0.00     0.004 A 
ATOM     21  C   UNL     1      -3.660   0.125   4.193  1.00  0.00     0.004 A 
ATOM     22  C   UNL     1      -2.716  -0.858   3.894  1.00  0.00    -0.051 A 
ATOM     23  C   UNL     1      -1.541  -0.519   3.026  1.00  0.00     0.044 C 
ENDBRANCH  16  17
ENDBRANCH   6  16
TORSDOF 3
ENDMDL
MODEL 9
REMARK VINA RESULT:    -3.648      2.867      8.989
REMARK INTER + INTRA:          -4.668
REMARK INTER:                  -4.304
REMARK INTRA:                  -0.364
REMARK UNBOUND:                -0.380
REMARK SMILES Cc1ccc(CNC(=O)NC(=O)c2ccc(C)cc2)cc1
REMARK SMILES IDX 11 1 12 2 10 3 8 4 9 5 7 6 13 9 19 10 18 11 14 12 16 13
REMARK SMILES IDX 15 14 17 15 6 16 5 17 4 18 20 19 3 20 21 21 2 22 1 23
REMARK H PARENT 10 7 7 8
ROOT
ATOM      1  C   UNL     1     -10.859  -4.955  10.854  1.00  0.00     0.259 C 
ATOM      2  O   UNL     1     -11.175  -4.312   9.863  1.00  0.00    -0.269 OA
ATOM      3  N   UNL     1      -9.586  -5.371  11.258  1.00  0.00    -0.274 N 
ATOM      4  C   UNL     1      -8.281  -5.091  10.943  1.00  0.00     0.321 C 
ATOM      5  O   UNL     1      -7.401  -5.594  11.649  1.00  0.00    -0.248 OA
ATOM      6  N   UNL     1      -7.917  -4.280   9.933  1.00  0.00    -0.334 N 
ATOM      7  H   UNL     1      -9.577  -5.915  12.110  1.00  0.00     0.175 HD
ATOM      8  H   UNL     1      -6.923  -4.108   9.887  1.00  0.00     0.165 HD
ENDROOT
BRANCH   1   9
ATOM      9  C   UNL     1     -11.953  -5.351  11.761  1.00  0.00     0.040 A 
ATOM     10  C   UNL     1     -13.292  -5.181  11.405  1.00  0.00     0.014 A 
ATOM     11  C   UNL     1     -14.292  -5.619  12.274  1.00  0.00     0.004 A 
ATOM     12  C   UNL     1     -11.612  -5.899  13.002  1.00  0.00     0.014 A 
ATOM     13  C   UNL     1     -13.959  -6.218  13.498  1.00  0.00    -0.051 A 
ATOM     14  C   UNL     1     -12.613  -6.341  13.863  1.00  0.00     0.004 A 
ATOM     15  C   UNL     1     -15.043  -6.760  14.383  1.00  0.00     0.044 C 
ENDBRANCH   1   9
BRANCH   6  16
ATOM     16  C   UNL     1      -8.774  -3.521   9.066  1.00  0.00     0.153 C 
BRANCH  16  17
ATOM     17  C   UNL     1      -8.115  -2.683   8.006  1.00  0.00    -0.029 A 
ATOM     18  C   UNL     1      -7.488  -1.463   8.277  1.00  0.00     0.006 A 
ATOM     19  C   UNL     1      -7.950  -3.264   6.738  1.00  0.00     0.006 A 
ATOM     20  C   UNL     1      -6.691  -0.854   7.302  1.00  0.00     0.004 A 
ATOM     21  C   UNL     1      -7.153  -2.660   5.771  1.00  0.00     0.004 A 
ATOM     22  C   UNL     1      -6.508  -1.453   6.048  1.00  0.00    -0.051 A 
ATOM     23  C   UNL     1      -5.544  -0.881   5.052  1.00  0.00     0.044 C 
ENDBRANCH  16  17
ENDBRANCH   6  16
TORSDOF 3
ENDMDL
