MODEL 1
REMARK VINA RESULT:    -3.886      0.000      0.000
REMARK INTER + INTRA:          -5.374
REMARK INTER:                  -5.135
REMARK INTRA:                  -0.239
REMARK UNBOUND:                -0.239
REMARK SMILES [H]/N=C\C[C@H]1C[C@@H]1O[C@H]1CO[C@H]2C[C@@H](C3CC3)CCN2C1
REMARK SMILES IDX 7 1 6 2 5 3 8 4 9 5 14 6 13 7 18 8 12 9 19 10 20 11 11 12
REMARK SMILES IDX 21 13 10 14 15 15 16 16 17 17 4 18 3 19 2 20 1 21
REMARK H PARENT
ROOT
ATOM      1  C   UNL     1      -8.049  -3.884   9.802  1.00  0.00     0.122 C 
ATOM      2  C   UNL     1      -9.060  -4.952  10.111  1.00  0.00     0.039 C 
ATOM      3  C   UNL     1      -7.676  -5.041  10.688  1.00  0.00     0.026 C 
ENDROOT
BRANCH   1   4
ATOM      4  O   UNL     1      -7.551  -3.919   8.451  1.00  0.00    -0.371 OA
BRANCH   4   5
ATOM      5  C   UNL     1      -8.442  -3.403   7.449  1.00  0.00     0.158 C 
ATOM      6  C   UNL     1      -5.030  -0.482   4.798  1.00  0.00    -0.003 C 
ATOM      7  C   UNL     1      -5.724  -0.394   6.163  1.00  0.00     0.052 C 
ATOM      8  C   UNL     1      -4.796  -1.956   4.441  1.00  0.00     0.019 C 
ATOM      9  C   UNL     1      -6.991  -1.259   6.215  1.00  0.00     0.189 C 
ATOM     10  C   UNL     1      -6.087  -2.768   4.546  1.00  0.00     0.087 C 
ATOM     11  N   UNL     1      -6.675  -2.647   5.880  1.00  0.00    -0.276 NA
ATOM     12  O   UNL     1      -7.517  -1.132   7.537  1.00  0.00    -0.360 OA
ATOM     13  C   UNL     1      -7.868  -3.490   6.024  1.00  0.00     0.121 C 
ATOM     14  C   UNL     1      -8.692  -1.922   7.750  1.00  0.00     0.195 C 
BRANCH   6  15
ATOM     15  C   UNL     1      -3.724   0.280   4.789  1.00  0.00    -0.008 C 
ATOM     16  C   UNL     1      -3.399   1.225   3.656  1.00  0.00     0.004 C 
ATOM     17  C   UNL     1      -3.697   1.771   5.023  1.00  0.00     0.004 C 
ENDBRANCH   6  15
ENDBRANCH   4   5
ENDBRANCH   1   4
BRANCH   3  18
ATOM     18  C   UNL     1      -7.488  -4.834  12.161  1.00  0.00     0.053 C 
BRANCH  18  19
ATOM     19  C   UNL     1      -8.379  -5.645  13.066  1.00  0.00     0.074 C 
BRANCH  19  20
ATOM     20  N   UNL     1      -8.379  -6.932  13.175  1.00  0.00    -0.313 NA
ATOM     21  H   UNL     1      -9.324  -7.299  13.353  1.00  0.00     0.186 HD
ENDBRANCH  19  20
ENDBRANCH  18  19
ENDBRANCH   3  18
TORSDOF 6
ENDMDL
MODEL 2
REMARK VINA RESULT:    -3.850      5.367      8.369
REMARK INTER + INTRA:          -5.327
REMARK INTER:                  -5.121
REMARK INTRA:                  -0.206
REMARK UNBOUND:                -0.239
REMARK SMILES [H]/N=C\C[C@H]1C[C@@H]1O[C@H]1CO[C@H]2C[C@@H](C3CC3)CCN2C1
REMARK SMILES IDX 7 1 6 2 5 3 8 4 9 5 14 6 13 7 18 8 12 9 19 10 20 11 11 12
REMARK SMILES IDX 21 13 10 14 15 15 16 16 17 17 4 18 3 19 2 20 1 21
REMARK H PARENT
ROOT
ATOM      1  C   UNL     1     -11.047  -9.361  15.392  1.00  0.00     0.122 C 
ATOM      2  C   UNL     1     -11.278 -10.820  15.115  1.00  0.00     0.039 C 
ATOM      3  C   UNL     1      -9.988 -10.173  14.697  1.00  0.00     0.026 C 
ENDROOT
BRANCH   1   4
ATOM      4  O   UNL     1     -11.827  -8.476  14.565  1.00  0.00    -0.371 OA
BRANCH   4   5
ATOM      5  C   UNL     1     -11.872  -7.106  14.996  1.00  0.00     0.158 C 
ATOM      6  C   UNL     1      -9.624  -4.904  10.836  1.00  0.00    -0.003 C 
ATOM      7  C   UNL     1      -9.152  -5.771  12.009  1.00  0.00     0.052 C 
ATOM      8  C   UNL     1     -11.066  -5.285  10.472  1.00  0.00     0.019 C 
ATOM      9  C   UNL     1     -10.131  -5.715  13.190  1.00  0.00     0.189 C 
ATOM     10  C   UNL     1     -11.981  -5.242  11.695  1.00  0.00     0.087 C 
ATOM     11  N   UNL     1     -11.473  -6.108  12.759  1.00  0.00    -0.276 NA
ATOM     12  O   UNL     1      -9.612  -6.590  14.193  1.00  0.00    -0.360 OA
ATOM     13  C   UNL     1     -12.385  -6.145  13.908  1.00  0.00     0.121 C 
ATOM     14  C   UNL     1     -10.447  -6.671  15.352  1.00  0.00     0.195 C 
BRANCH   6  15
ATOM     15  C   UNL     1      -8.717  -5.053   9.636  1.00  0.00    -0.008 C 
ATOM     16  C   UNL     1      -8.093  -3.836   8.994  1.00  0.00     0.004 C 
ATOM     17  C   UNL     1      -7.232  -4.803   9.752  1.00  0.00     0.004 C 
ENDBRANCH   6  15
ENDBRANCH   4   5
ENDBRANCH   1   4
BRANCH   3  18
ATOM     18  C   UNL     1      -8.725 -10.540  15.417  1.00  0.00     0.053 C 
BRANCH  18  19
ATOM     19  C   UNL     1      -7.479  -9.806  14.992  1.00  0.00     0.074 C 
BRANCH  19  20
ATOM     20  N   UNL     1      -6.267 -10.234  15.121  1.00  0.00    -0.313 NA
ATOM     21  H   UNL     1      -6.178 -10.890  15.910  1.00  0.00     0.186 HD
ENDBRANCH  19  20
ENDBRANCH  18  19
ENDBRANCH   3  18
TORSDOF 6
ENDMDL
MODEL 3
REMARK VINA RESULT:    -3.825      3.298      5.511
REMARK INTER + INTRA:          -5.293
REMARK INTER:                  -5.068
REMARK INTRA:                  -0.225
REMARK UNBOUND:                -0.239
REMARK SMILES [H]/N=C\C[C@H]1C[C@@H]1O[C@H]1CO[C@H]2C[C@@H](C3CC3)CCN2C1
REMARK SMILES IDX 7 1 6 2 5 3 8 4 9 5 14 6 13 7 18 8 12 9 19 10 20 11 11 12
REMARK SMILES IDX 21 13 10 14 15 15 16 16 17 17 4 18 3 19 2 20 1 21
REMARK H PARENT
ROOT
ATOM      1  C   UNL     1     -10.694  -0.838   7.135  1.00  0.00     0.122 C 
ATOM      2  C   UNL     1     -11.505  -0.110   8.170  1.00  0.00     0.039 C 
ATOM      3  C   UNL     1     -11.688   0.210   6.714  1.00  0.00     0.026 C 
ENDROOT
BRANCH   1   4
ATOM      4  O   UNL     1      -9.305  -0.459   7.103  1.00  0.00    -0.371 OA
BRANCH   4   5
ATOM      5  C   UNL     1      -8.494  -0.987   8.165  1.00  0.00     0.158 C 
ATOM      6  C   UNL     1      -4.222  -2.124   5.398  1.00  0.00    -0.003 C 
ATOM      7  C   UNL     1      -5.635  -2.705   5.524  1.00  0.00     0.052 C 
ATOM      8  C   UNL     1      -4.276  -0.606   5.618  1.00  0.00     0.019 C 
ATOM      9  C   UNL     1      -6.308  -2.287   6.839  1.00  0.00     0.189 C 
ATOM     10  C   UNL     1      -4.987  -0.255   6.925  1.00  0.00     0.087 C 
ATOM     11  N   UNL     1      -6.332  -0.829   6.959  1.00  0.00    -0.276 NA
ATOM     12  O   UNL     1      -7.624  -2.845   6.820  1.00  0.00    -0.360 OA
ATOM     13  C   UNL     1      -7.060  -0.430   8.168  1.00  0.00     0.121 C 
ATOM     14  C   UNL     1      -8.393  -2.505   7.977  1.00  0.00     0.195 C 
BRANCH   6  15
ATOM     15  C   UNL     1      -3.608  -2.444   4.054  1.00  0.00    -0.008 C 
ATOM     16  C   UNL     1      -2.190  -2.955   3.964  1.00  0.00     0.004 C 
ATOM     17  C   UNL     1      -3.335  -3.872   3.648  1.00  0.00     0.004 C 
ENDBRANCH   6  15
ENDBRANCH   4   5
ENDBRANCH   1   4
BRANCH   3  18
ATOM     18  C   UNL     1     -12.966  -0.189   6.037  1.00  0.00     0.053 C 
BRANCH  18  19
ATOM     19  C   UNL     1     -14.240   0.267   6.699  1.00  0.00     0.074 C 
BRANCH  19  20
ATOM     20  N   UNL     1     -14.943   1.296   6.360  1.00  0.00    -0.313 NA
ATOM     21  H   UNL     1     -15.585   1.079   5.586  1.00  0.00     0.186 HD
ENDBRANCH  19  20
ENDBRANCH  18  19
ENDBRANCH   3  18
TORSDOF 6
ENDMDL
MODEL 4
REMARK VINA RESULT:    -3.625      6.367     11.357
REMARK INTER + INTRA:          -5.029
REMARK INTER:                  -5.095
REMARK INTRA:                   0.066
REMARK UNBOUND:                -0.239
REMARK SMILES [H]/N=C\C[C@H]1C[C@@H]1O[C@H]1CO[C@H]2C[C@@H](C3CC3)CCN2C1
REMARK SMILES IDX 7 1 6 2 5 3 8 4 9 5 14 6 13 7 18 8 12 9 19 10 20 11 11 12
REMARK SMILES IDX 21 13 10 14 15 15 16 16 17 17 4 18 3 19 2 20 1 21
REMARK H PARENT
ROOT
ATOM      1  C   UNL     1      -8.611  -5.509  12.450  1.00  0.00     0.122 C 
ATOM      2  C   UNL     1      -7.719  -4.942  11.382  1.00  0.00     0.039 C 
ATOM      3  C   UNL     1      -8.977  -5.668  10.999  1.00  0.00     0.026 C 
ENDROOT
BRANCH   1   4
ATOM      4  O   UNL     1      -8.072  -6.670  13.110  1.00  0.00    -0.371 OA
BRANCH   4   5
ATOM      5  C   UNL     1      -8.209  -6.689  14.541  1.00  0.00     0.158 C 
ATOM      6  C   UNL     1     -11.566 -10.660  14.954  1.00  0.00    -0.003 C 
ATOM      7  C   UNL     1     -11.639  -9.205  14.473  1.00  0.00     0.052 C 
ATOM      8  C   UNL     1     -10.170 -11.225  14.652  1.00  0.00     0.019 C 
ATOM      9  C   UNL     1     -10.487  -8.361  15.035  1.00  0.00     0.189 C 
ATOM     10  C   UNL     1      -9.070 -10.321  15.207  1.00  0.00     0.087 C 
ATOM     11  N   UNL     1      -9.198  -8.960  14.687  1.00  0.00    -0.276 NA
ATOM     12  O   UNL     1     -10.635  -7.050  14.485  1.00  0.00    -0.360 OA
ATOM     13  C   UNL     1      -8.099  -8.101  15.142  1.00  0.00     0.121 C 
ATOM     14  C   UNL     1      -9.600  -6.151  14.893  1.00  0.00     0.195 C 
BRANCH   6  15
ATOM     15  C   UNL     1     -12.634 -11.512  14.308  1.00  0.00    -0.008 C 
ATOM     16  C   UNL     1     -13.962 -11.725  14.998  1.00  0.00     0.004 C 
ATOM     17  C   UNL     1     -13.892 -10.887  13.754  1.00  0.00     0.004 C 
ENDBRANCH   6  15
ENDBRANCH   4   5
ENDBRANCH   1   4
BRANCH   3  18
ATOM     18  C   UNL     1     -10.117  -4.888  10.418  1.00  0.00     0.053 C 
BRANCH  18  19
ATOM     19  C   UNL     1     -11.497  -5.288  10.871  1.00  0.00     0.074 C 
BRANCH  19  20
ATOM     20  N   UNL     1     -12.597  -5.078  10.227  1.00  0.00    -0.313 NA
ATOM     21  H   UNL     1     -12.419  -4.830   9.243  1.00  0.00     0.186 HD
ENDBRANCH  19  20
ENDBRANCH  18  19
ENDBRANCH   3  18
TORSDOF 6
ENDMDL
MODEL 5
REMARK VINA RESULT:    -3.506      5.549      8.507
REMARK INTER + INTRA:          -4.873
REMARK INTER:                  -4.245
REMARK INTRA:                  -0.628
REMARK UNBOUND:                -0.239
REMARK SMILES [H]/N=C\C[C@H]1C[C@@H]1O[C@H]1CO[C@H]2C[C@@H](C3CC3)CCN2C1
REMARK SMILES IDX 7 1 6 2 5 3 8 4 9 5 14 6 13 7 18 8 12 9 19 10 20 11 11 12
REMARK SMILES IDX 21 13 10 14 15 15 16 16 17 17 4 18 3 19 2 20 1 21
REMARK H PARENT
ROOT
ATOM      1  C   UNL     1     -13.740  -4.725  14.478  1.00  0.00     0.122 C 
ATOM      2  C   UNL     1     -14.493  -3.489  14.883  1.00  0.00     0.039 C 
ATOM      3  C   UNL     1     -13.687  -3.494  13.615  1.00  0.00     0.026 C 
ENDROOT
BRANCH   1   4
ATOM      4  O   UNL     1     -12.579  -4.997  15.286  1.00  0.00    -0.371 OA
BRANCH   4   5
ATOM      5  C   UNL     1     -12.055  -6.331  15.189  1.00  0.00     0.158 C 
ATOM      6  C   UNL     1      -8.172  -5.404  11.832  1.00  0.00    -0.003 C 
ATOM      7  C   UNL     1      -9.702  -5.471  11.751  1.00  0.00     0.052 C 
ATOM      8  C   UNL     1      -7.760  -4.884  13.217  1.00  0.00     0.019 C 
ATOM      9  C   UNL     1     -10.301  -6.263  12.920  1.00  0.00     0.189 C 
ATOM     10  C   UNL     1      -8.416  -5.693  14.335  1.00  0.00     0.087 C 
ATOM     11  N   UNL     1      -9.873  -5.692  14.197  1.00  0.00    -0.276 NA
ATOM     12  O   UNL     1     -11.720  -6.216  12.761  1.00  0.00    -0.360 OA
ATOM     13  C   UNL     1     -10.522  -6.391  15.311  1.00  0.00     0.121 C 
ATOM     14  C   UNL     1     -12.424  -6.888  13.810  1.00  0.00     0.195 C 
BRANCH   6  15
ATOM     15  C   UNL     1      -7.596  -4.528  10.743  1.00  0.00    -0.008 C 
ATOM     16  C   UNL     1      -6.977  -5.147   9.512  1.00  0.00     0.004 C 
ATOM     17  C   UNL     1      -8.280  -4.410   9.403  1.00  0.00     0.004 C 
ENDBRANCH   6  15
ENDBRANCH   4   5
ENDBRANCH   1   4
BRANCH   3  18
ATOM     18  C   UNL     1     -14.404  -3.462  12.299  1.00  0.00     0.053 C 
BRANCH  18  19
ATOM     19  C   UNL     1     -13.540  -3.545  11.067  1.00  0.00     0.074 C 
BRANCH  19  20
ATOM     20  N   UNL     1     -13.040  -4.624  10.564  1.00  0.00    -0.313 NA
ATOM     21  H   UNL     1     -12.711  -5.268  11.297  1.00  0.00     0.186 HD
ENDBRANCH  19  20
ENDBRANCH  18  19
ENDBRANCH   3  18
TORSDOF 6
ENDMDL
MODEL 6
REMARK VINA RESULT:    -3.466      4.425      7.065
REMARK INTER + INTRA:          -4.819
REMARK INTER:                  -4.631
REMARK INTRA:                  -0.189
REMARK UNBOUND:                -0.239
REMARK SMILES [H]/N=C\C[C@H]1C[C@@H]1O[C@H]1CO[C@H]2C[C@@H](C3CC3)CCN2C1
REMARK SMILES IDX 7 1 6 2 5 3 8 4 9 5 14 6 13 7 18 8 12 9 19 10 20 11 11 12
REMARK SMILES IDX 21 13 10 14 15 15 16 16 17 17 4 18 3 19 2 20 1 21
REMARK H PARENT
ROOT
ATOM      1  C   UNL     1     -12.404  -4.554  14.849  1.00  0.00     0.122 C 
ATOM      2  C   UNL     1     -12.214  -3.436  15.835  1.00  0.00     0.039 C 
ATOM      3  C   UNL     1     -13.387  -3.416  14.897  1.00  0.00     0.026 C 
ENDROOT
BRANCH   1   4
ATOM      4  O   UNL     1     -11.460  -4.544  13.761  1.00  0.00    -0.371 OA
BRANCH   4   5
ATOM      5  C   UNL     1     -11.349  -5.773  13.026  1.00  0.00     0.158 C 
ATOM      6  C   UNL     1      -8.288  -4.094   9.151  1.00  0.00    -0.003 C 
ATOM      7  C   UNL     1      -9.753  -3.896   9.557  1.00  0.00     0.052 C 
ATOM      8  C   UNL     1      -7.431  -4.273  10.412  1.00  0.00     0.019 C 
ATOM      9  C   UNL     1     -10.241  -5.011  10.492  1.00  0.00     0.189 C 
ATOM     10  C   UNL     1      -7.989  -5.373  11.315  1.00  0.00     0.087 C 
ATOM     11  N   UNL     1      -9.381  -5.101  11.672  1.00  0.00    -0.276 NA
ATOM     12  O   UNL     1     -11.592  -4.695  10.835  1.00  0.00    -0.360 OA
ATOM     13  C   UNL     1      -9.905  -6.102  12.608  1.00  0.00     0.121 C 
ATOM     14  C   UNL     1     -12.174  -5.636  11.742  1.00  0.00     0.195 C 
BRANCH   6  15
ATOM     15  C   UNL     1      -7.780  -2.935   8.324  1.00  0.00    -0.008 C 
ATOM     16  C   UNL     1      -7.874  -2.972   6.817  1.00  0.00     0.004 C 
ATOM     17  C   UNL     1      -8.739  -2.024   7.596  1.00  0.00     0.004 C 
ENDBRANCH   6  15
ENDBRANCH   4   5
ENDBRANCH   1   4
BRANCH   3  18
ATOM     18  C   UNL     1     -14.764  -3.631  15.451  1.00  0.00     0.053 C 
BRANCH  18  19
ATOM     19  C   UNL     1     -15.656  -2.418  15.509  1.00  0.00     0.074 C 
BRANCH  19  20
ATOM     20  N   UNL     1     -15.270  -1.189  15.410  1.00  0.00    -0.313 NA
ATOM     21  H   UNL     1     -16.061  -0.556  15.226  1.00  0.00     0.186 HD
ENDBRANCH  19  20
ENDBRANCH  18  19
ENDBRANCH   3  18
TORSDOF 6
ENDMDL
MODEL 7
REMARK VINA RESULT:    -3.455      3.959     10.793
REMARK INTER + INTRA:          -4.805
REMARK INTER:                  -4.768
REMARK INTRA:                  -0.036
REMARK UNBOUND:                -0.239
REMARK SMILES [H]/N=C\C[C@H]1C[C@@H]1O[C@H]1CO[C@H]2C[C@@H](C3CC3)CCN2C1
REMARK SMILES IDX 7 1 6 2 5 3 8 4 9 5 14 6 13 7 18 8 12 9 19 10 20 11 11 12
REMARK SMILES IDX 21 13 10 14 15 15 16 16 17 17 4 18 3 19 2 20 1 21
REMARK H PARENT
ROOT
ATOM      1  C   UNL     1      -7.854  -4.764  11.123  1.00  0.00     0.122 C 
ATOM      2  C   UNL     1      -7.067  -5.236   9.934  1.00  0.00     0.039 C 
ATOM      3  C   UNL     1      -8.489  -4.786   9.760  1.00  0.00     0.026 C 
ENDROOT
BRANCH   1   4
ATOM      4  O   UNL     1      -8.237  -5.816  12.029  1.00  0.00    -0.371 OA
BRANCH   4   5
ATOM      5  C   UNL     1      -8.584  -5.394  13.358  1.00  0.00     0.158 C 
ATOM      6  C   UNL     1     -10.372  -9.942  15.182  1.00  0.00    -0.003 C 
ATOM      7  C   UNL     1     -10.868  -8.886  14.186  1.00  0.00     0.052 C 
ATOM      8  C   UNL     1      -8.838  -9.997  15.140  1.00  0.00     0.019 C 
ATOM      9  C   UNL     1     -10.187  -7.529  14.407  1.00  0.00     0.189 C 
ATOM     10  C   UNL     1      -8.224  -8.611  15.332  1.00  0.00     0.087 C 
ATOM     11  N   UNL     1      -8.733  -7.670  14.334  1.00  0.00    -0.276 NA
ATOM     12  O   UNL     1     -10.692  -6.650  13.400  1.00  0.00    -0.360 OA
ATOM     13  C   UNL     1      -8.087  -6.357  14.450  1.00  0.00     0.121 C 
ATOM     14  C   UNL     1     -10.113  -5.343  13.456  1.00  0.00     0.195 C 
BRANCH   6  15
ATOM     15  C   UNL     1     -10.961 -11.303  14.888  1.00  0.00    -0.008 C 
ATOM     16  C   UNL     1     -12.264 -11.725  15.524  1.00  0.00     0.004 C 
ATOM     17  C   UNL     1     -12.209 -11.441  14.051  1.00  0.00     0.004 C 
ENDBRANCH   6  15
ENDBRANCH   4   5
ENDBRANCH   1   4
BRANCH   3  18
ATOM     18  C   UNL     1      -8.761  -3.503   9.032  1.00  0.00     0.053 C 
BRANCH  18  19
ATOM     19  C   UNL     1      -7.850  -3.187   7.875  1.00  0.00     0.074 C 
BRANCH  19  20
ATOM     20  N   UNL     1      -8.215  -3.017   6.648  1.00  0.00    -0.313 NA
ATOM     21  H   UNL     1      -8.796  -3.799   6.313  1.00  0.00     0.186 HD
ENDBRANCH  19  20
ENDBRANCH  18  19
ENDBRANCH   3  18
TORSDOF 6
ENDMDL
MODEL 8
REMARK VINA RESULT:    -3.435      3.547      5.004
REMARK INTER + INTRA:          -4.779
REMARK INTER:                  -4.572
REMARK INTRA:                  -0.206
REMARK UNBOUND:                -0.239
REMARK SMILES [H]/N=C\C[C@H]1C[C@@H]1O[C@H]1CO[C@H]2C[C@@H](C3CC3)CCN2C1
REMARK SMILES IDX 7 1 6 2 5 3 8 4 9 5 14 6 13 7 18 8 12 9 19 10 20 11 11 12
REMARK SMILES IDX 21 13 10 14 15 15 16 16 17 17 4 18 3 19 2 20 1 21
REMARK H PARENT
ROOT
ATOM      1  C   UNL     1      -7.991  -4.953  13.384  1.00  0.00     0.122 C 
ATOM      2  C   UNL     1      -7.231  -4.333  14.522  1.00  0.00     0.039 C 
ATOM      3  C   UNL     1      -8.706  -4.082  14.381  1.00  0.00     0.026 C 
ENDROOT
BRANCH   1   4
ATOM      4  O   UNL     1      -7.708  -4.365  12.100  1.00  0.00    -0.371 OA
BRANCH   4   5
ATOM      5  C   UNL     1      -7.909  -5.226  10.967  1.00  0.00     0.158 C 
ATOM      6  C   UNL     1      -9.366  -1.619   7.492  1.00  0.00    -0.003 C 
ATOM      7  C   UNL     1      -9.999  -2.275   8.725  1.00  0.00     0.052 C 
ATOM      8  C   UNL     1      -7.847  -1.524   7.693  1.00  0.00     0.019 C 
ATOM      9  C   UNL     1      -9.328  -3.613   9.066  1.00  0.00     0.189 C 
ATOM     10  C   UNL     1      -7.246  -2.879   8.063  1.00  0.00     0.087 C 
ATOM     11  N   UNL     1      -7.889  -3.428   9.257  1.00  0.00    -0.276 NA
ATOM     12  O   UNL     1      -9.967  -4.100  10.248  1.00  0.00    -0.360 OA
ATOM     13  C   UNL     1      -7.266  -4.688   9.676  1.00  0.00     0.121 C 
ATOM     14  C   UNL     1      -9.416  -5.336  10.713  1.00  0.00     0.195 C 
BRANCH   6  15
ATOM     15  C   UNL     1      -9.953  -0.250   7.229  1.00  0.00    -0.008 C 
ATOM     16  C   UNL     1     -11.199  -0.103   6.389  1.00  0.00     0.004 C 
ATOM     17  C   UNL     1     -11.257   0.167   7.864  1.00  0.00     0.004 C 
ENDBRANCH   6  15
ENDBRANCH   4   5
ENDBRANCH   1   4
BRANCH   3  18
ATOM     18  C   UNL     1      -9.645  -4.690  15.379  1.00  0.00     0.053 C 
BRANCH  18  19
ATOM     19  C   UNL     1     -11.022  -4.084  15.454  1.00  0.00     0.074 C 
BRANCH  19  20
ATOM     20  N   UNL     1     -11.576  -3.350  14.547  1.00  0.00    -0.313 NA
ATOM     21  H   UNL     1     -12.021  -2.515  14.954  1.00  0.00     0.186 HD
ENDBRANCH  19  20
ENDBRANCH  18  19
ENDBRANCH   3  18
TORSDOF 6
ENDMDL
MODEL 9
REMARK VINA RESULT:    -3.051      5.192      8.664
REMARK INTER + INTRA:          -4.271
REMARK INTER:                  -4.446
REMARK INTRA:                   0.174
REMARK UNBOUND:                -0.239
REMARK SMILES [H]/N=C\C[C@H]1C[C@@H]1O[C@H]1CO[C@H]2C[C@@H](C3CC3)CCN2C1
REMARK SMILES IDX 7 1 6 2 5 3 8 4 9 5 14 6 13 7 18 8 12 9 19 10 20 11 11 12
REMARK SMILES IDX 21 13 10 14 15 15 16 16 17 17 4 18 3 19 2 20 1 21
REMARK H PARENT
ROOT
ATOM      1  C   UNL     1     -10.916  -9.735  14.536  1.00  0.00     0.122 C 
ATOM      2  C   UNL     1     -10.795 -11.111  13.945  1.00  0.00     0.039 C 
ATOM      3  C   UNL     1     -11.168 -10.947  15.391  1.00  0.00     0.026 C 
ENDROOT
BRANCH   1   4
ATOM      4  O   UNL     1      -9.655  -9.064  14.725  1.00  0.00    -0.371 OA
BRANCH   4   5
ATOM      5  C   UNL     1      -9.733  -7.750  15.303  1.00  0.00     0.158 C 
ATOM      6  C   UNL     1      -9.126  -4.941  10.950  1.00  0.00    -0.003 C 
ATOM      7  C   UNL     1      -8.221  -5.812  11.830  1.00  0.00     0.052 C 
ATOM      8  C   UNL     1     -10.554  -5.504  10.977  1.00  0.00     0.019 C 
ATOM      9  C   UNL     1      -8.798  -5.988  13.242  1.00  0.00     0.189 C 
ATOM     10  C   UNL     1     -11.055  -5.687  12.410  1.00  0.00     0.087 C 
ATOM     11  N   UNL     1     -10.150  -6.543  13.176  1.00  0.00    -0.276 NA
ATOM     12  O   UNL     1      -7.899  -6.848  13.946  1.00  0.00    -0.360 OA
ATOM     13  C   UNL     1     -10.661  -6.800  14.526  1.00  0.00     0.121 C 
ATOM     14  C   UNL     1      -8.329  -7.136  15.280  1.00  0.00     0.195 C 
BRANCH   6  15
ATOM     15  C   UNL     1      -8.613  -4.866   9.530  1.00  0.00    -0.008 C 
ATOM     16  C   UNL     1      -8.178  -3.543   8.945  1.00  0.00     0.004 C 
ATOM     17  C   UNL     1      -7.154  -4.597   9.248  1.00  0.00     0.004 C 
ENDBRANCH   6  15
ENDBRANCH   4   5
ENDBRANCH   1   4
BRANCH   3  18
ATOM     18  C   UNL     1     -12.562 -11.289  15.825  1.00  0.00     0.053 C 
BRANCH  18  19
ATOM     19  C   UNL     1     -13.510 -11.725  14.739  1.00  0.00     0.074 C 
BRANCH  19  20
ATOM     20  N   UNL     1     -14.794 -11.594  14.757  1.00  0.00    -0.313 NA
ATOM     21  H   UNL     1     -15.239 -12.099  13.978  1.00  0.00     0.186 HD
ENDBRANCH  19  20
ENDBRANCH  18  19
ENDBRANCH   3  18
TORSDOF 6
ENDMDL
