MODEL 1
REMARK VINA RESULT:    -4.171      0.000      0.000
REMARK INTER + INTRA:          -5.991
REMARK INTER:                  -5.513
REMARK INTRA:                  -0.479
REMARK UNBOUND:                -0.479
REMARK SMILES [H]/N=C\C[C@H]1C[C@@H]1O[C@H]1CO[C@H]2C[C@@H](C3CC3)CCN2C1
REMARK SMILES IDX 7 1 6 2 5 3 8 4 9 5 14 6 13 7 18 8 12 9 19 10 20 11 11 12
REMARK SMILES IDX 21 13 10 14 15 15 16 16 17 17 4 18 3 19 2 20 1 21
REMARK H PARENT
ROOT
ATOM      1  C   UNL     1     -18.012   7.120  -9.874  1.00  0.00     0.122 C 
ATOM      2  C   UNL     1     -18.505   5.998 -10.745  1.00  0.00     0.039 C 
ATOM      3  C   UNL     1     -17.447   5.735  -9.711  1.00  0.00     0.026 C 
ENDROOT
BRANCH   1   4
ATOM      4  O   UNL     1     -17.185   8.077 -10.562  1.00  0.00    -0.371 OA
BRANCH   4   5
ATOM      5  C   UNL     1     -16.945   9.307  -9.859  1.00  0.00     0.158 C 
ATOM      6  C   UNL     1     -12.470   8.008  -7.516  1.00  0.00    -0.003 C 
ATOM      7  C   UNL     1     -13.946   7.629  -7.351  1.00  0.00     0.052 C 
ATOM      8  C   UNL     1     -12.183   8.300  -8.996  1.00  0.00     0.019 C 
ATOM      9  C   UNL     1     -14.877   8.678  -7.973  1.00  0.00     0.189 C 
ATOM     10  C   UNL     1     -13.165   9.325  -9.563  1.00  0.00     0.087 C 
ATOM     11  N   UNL     1     -14.547   8.882  -9.383  1.00  0.00    -0.276 NA
ATOM     12  O   UNL     1     -16.211   8.196  -7.798  1.00  0.00    -0.360 OA
ATOM     13  C   UNL     1     -15.498   9.813 -10.000  1.00  0.00     0.121 C 
ATOM     14  C   UNL     1     -17.199   9.061  -8.368  1.00  0.00     0.195 C 
BRANCH   6  15
ATOM     15  C   UNL     1     -11.556   6.918  -7.004  1.00  0.00    -0.008 C 
ATOM     16  C   UNL     1     -11.031   6.964  -5.588  1.00  0.00     0.004 C 
ATOM     17  C   UNL     1     -12.039   5.922  -5.977  1.00  0.00     0.004 C 
ENDBRANCH   6  15
ENDBRANCH   4   5
ENDBRANCH   1   4
BRANCH   3  18
ATOM     18  C   UNL     1     -17.796   4.913  -8.507  1.00  0.00     0.053 C 
BRANCH  18  19
ATOM     19  C   UNL     1     -16.746   4.829  -7.430  1.00  0.00     0.074 C 
BRANCH  19  20
ATOM     20  N   UNL     1     -16.684   5.568  -6.373  1.00  0.00    -0.313 NA
ATOM     21  H   UNL     1     -17.620   5.772  -5.997  1.00  0.00     0.186 HD
ENDBRANCH  19  20
ENDBRANCH  18  19
ENDBRANCH   3  18
TORSDOF 6
ENDMDL
MODEL 2
REMARK VINA RESULT:    -3.953      5.698      8.621
REMARK INTER + INTRA:          -5.703
REMARK INTER:                  -5.442
REMARK INTRA:                  -0.260
REMARK UNBOUND:                -0.479
REMARK SMILES [H]/N=C\C[C@H]1C[C@@H]1O[C@H]1CO[C@H]2C[C@@H](C3CC3)CCN2C1
REMARK SMILES IDX 7 1 6 2 5 3 8 4 9 5 14 6 13 7 18 8 12 9 19 10 20 11 11 12
REMARK SMILES IDX 21 13 10 14 15 15 16 16 17 17 4 18 3 19 2 20 1 21
REMARK H PARENT
ROOT
ATOM      1  C   UNL     1     -11.598   5.717  -6.380  1.00  0.00     0.122 C 
ATOM      2  C   UNL     1     -12.884   6.405  -6.017  1.00  0.00     0.039 C 
ATOM      3  C   UNL     1     -11.705   7.215  -6.475  1.00  0.00     0.026 C 
ENDROOT
BRANCH   1   4
ATOM      4  O   UNL     1     -10.873   5.194  -5.250  1.00  0.00    -0.371 OA
BRANCH   4   5
ATOM      5  C   UNL     1     -11.425   4.007  -4.657  1.00  0.00     0.158 C 
ATOM      6  C   UNL     1      -7.002   1.314  -4.036  1.00  0.00    -0.003 C 
ATOM      7  C   UNL     1      -7.881   1.722  -5.224  1.00  0.00     0.052 C 
ATOM      8  C   UNL     1      -7.071   2.402  -2.955  1.00  0.00     0.019 C 
ATOM      9  C   UNL     1      -9.308   2.076  -4.782  1.00  0.00     0.189 C 
ATOM     10  C   UNL     1      -8.517   2.731  -2.585  1.00  0.00     0.087 C 
ATOM     11  N   UNL     1      -9.282   3.129  -3.767  1.00  0.00    -0.276 NA
ATOM     12  O   UNL     1     -10.011   2.481  -5.958  1.00  0.00    -0.360 OA
ATOM     13  C   UNL     1     -10.648   3.532  -3.416  1.00  0.00     0.121 C 
ATOM     14  C   UNL     1     -11.359   2.881  -5.694  1.00  0.00     0.195 C 
BRANCH   6  15
ATOM     15  C   UNL     1      -5.570   1.077  -4.460  1.00  0.00    -0.008 C 
ATOM     16  C   UNL     1      -4.897  -0.245  -4.175  1.00  0.00     0.004 C 
ATOM     17  C   UNL     1      -5.244   0.127  -5.587  1.00  0.00     0.004 C 
ENDBRANCH   6  15
ENDBRANCH   4   5
ENDBRANCH   1   4
BRANCH   3  18
ATOM     18  C   UNL     1     -11.760   7.885  -7.815  1.00  0.00     0.053 C 
BRANCH  18  19
ATOM     19  C   UNL     1     -12.945   8.782  -8.063  1.00  0.00     0.074 C 
BRANCH  19  20
ATOM     20  N   UNL     1     -13.110   9.969  -7.580  1.00  0.00    -0.313 NA
ATOM     21  H   UNL     1     -14.006  10.053  -7.079  1.00  0.00     0.186 HD
ENDBRANCH  19  20
ENDBRANCH  18  19
ENDBRANCH   3  18
TORSDOF 6
ENDMDL
MODEL 3
REMARK VINA RESULT:    -3.933      7.012      8.489
REMARK INTER + INTRA:          -5.676
REMARK INTER:                  -5.488
REMARK INTRA:                  -0.188
REMARK UNBOUND:                -0.479
REMARK SMILES [H]/N=C\C[C@H]1C[C@@H]1O[C@H]1CO[C@H]2C[C@@H](C3CC3)CCN2C1
REMARK SMILES IDX 7 1 6 2 5 3 8 4 9 5 14 6 13 7 18 8 12 9 19 10 20 11 11 12
REMARK SMILES IDX 21 13 10 14 15 15 16 16 17 17 4 18 3 19 2 20 1 21
REMARK H PARENT
ROOT
ATOM      1  C   UNL     1     -13.047   1.104  -5.670  1.00  0.00     0.122 C 
ATOM      2  C   UNL     1     -13.874   0.900  -6.907  1.00  0.00     0.039 C 
ATOM      3  C   UNL     1     -13.695  -0.228  -5.932  1.00  0.00     0.026 C 
ENDROOT
BRANCH   1   4
ATOM      4  O   UNL     1     -11.631   1.192  -5.919  1.00  0.00    -0.371 OA
BRANCH   4   5
ATOM      5  C   UNL     1     -11.186   2.407  -6.545  1.00  0.00     0.158 C 
ATOM      6  C   UNL     1      -6.925   3.261  -3.661  1.00  0.00    -0.003 C 
ATOM      7  C   UNL     1      -8.440   3.351  -3.436  1.00  0.00     0.052 C 
ATOM      8  C   UNL     1      -6.626   2.132  -4.657  1.00  0.00     0.019 C 
ATOM      9  C   UNL     1      -9.206   3.467  -4.761  1.00  0.00     0.189 C 
ATOM     10  C   UNL     1      -7.445   2.287  -5.939  1.00  0.00     0.087 C 
ATOM     11  N   UNL     1      -8.876   2.346  -5.641  1.00  0.00    -0.276 NA
ATOM     12  O   UNL     1     -10.596   3.496  -4.427  1.00  0.00    -0.360 OA
ATOM     13  C   UNL     1      -9.681   2.407  -6.867  1.00  0.00     0.121 C 
ATOM     14  C   UNL     1     -11.446   3.565  -5.576  1.00  0.00     0.195 C 
BRANCH   6  15
ATOM     15  C   UNL     1      -6.185   3.032  -2.362  1.00  0.00    -0.008 C 
ATOM     16  C   UNL     1      -4.874   3.735  -2.097  1.00  0.00     0.004 C 
ATOM     17  C   UNL     1      -6.098   4.120  -1.319  1.00  0.00     0.004 C 
ENDBRANCH   6  15
ENDBRANCH   4   5
ENDBRANCH   1   4
BRANCH   3  18
ATOM     18  C   UNL     1     -14.868  -0.672  -5.110  1.00  0.00     0.053 C 
BRANCH  18  19
ATOM     19  C   UNL     1     -16.097  -1.089  -5.875  1.00  0.00     0.074 C 
BRANCH  19  20
ATOM     20  N   UNL     1     -16.300  -2.247  -6.410  1.00  0.00    -0.313 NA
ATOM     21  H   UNL     1     -17.267  -2.345  -6.748  1.00  0.00     0.186 HD
ENDBRANCH  19  20
ENDBRANCH  18  19
ENDBRANCH   3  18
TORSDOF 6
ENDMDL
MODEL 4
REMARK VINA RESULT:    -3.871      3.690      6.818
REMARK INTER + INTRA:          -5.594
REMARK INTER:                  -5.420
REMARK INTRA:                  -0.174
REMARK UNBOUND:                -0.479
REMARK SMILES [H]/N=C\C[C@H]1C[C@@H]1O[C@H]1CO[C@H]2C[C@@H](C3CC3)CCN2C1
REMARK SMILES IDX 7 1 6 2 5 3 8 4 9 5 14 6 13 7 18 8 12 9 19 10 20 11 11 12
REMARK SMILES IDX 21 13 10 14 15 15 16 16 17 17 4 18 3 19 2 20 1 21
REMARK H PARENT
ROOT
ATOM      1  C   UNL     1     -10.838   3.677  -5.761  1.00  0.00     0.122 C 
ATOM      2  C   UNL     1     -11.204   2.263  -6.117  1.00  0.00     0.039 C 
ATOM      3  C   UNL     1      -9.971   2.888  -6.704  1.00  0.00     0.026 C 
ENDROOT
BRANCH   1   4
ATOM      4  O   UNL     1     -11.695   4.672  -6.353  1.00  0.00    -0.371 OA
BRANCH   4   5
ATOM      5  C   UNL     1     -11.957   5.827  -5.540  1.00  0.00     0.158 C 
ATOM      6  C   UNL     1     -13.838   8.981  -9.244  1.00  0.00    -0.003 C 
ATOM      7  C   UNL     1     -12.458   8.423  -8.874  1.00  0.00     0.052 C 
ATOM      8  C   UNL     1     -14.916   7.951  -8.881  1.00  0.00     0.019 C 
ATOM      9  C   UNL     1     -12.407   7.952  -7.414  1.00  0.00     0.189 C 
ATOM     10  C   UNL     1     -14.789   7.498  -7.426  1.00  0.00     0.087 C 
ATOM     11  N   UNL     1     -13.455   6.963  -7.160  1.00  0.00    -0.276 NA
ATOM     12  O   UNL     1     -11.100   7.415  -7.203  1.00  0.00    -0.360 OA
ATOM     13  C   UNL     1     -13.344   6.444  -5.792  1.00  0.00     0.121 C 
ATOM     14  C   UNL     1     -10.914   6.896  -5.882  1.00  0.00     0.195 C 
BRANCH   6  15
ATOM     15  C   UNL     1     -13.916   9.337 -10.711  1.00  0.00    -0.008 C 
ATOM     16  C   UNL     1     -14.787  10.481 -11.174  1.00  0.00     0.004 C 
ATOM     17  C   UNL     1     -13.293  10.609 -11.233  1.00  0.00     0.004 C 
ENDBRANCH   6  15
ENDBRANCH   4   5
ENDBRANCH   1   4
BRANCH   3  18
ATOM     18  C   UNL     1      -8.625   2.396  -6.260  1.00  0.00     0.053 C 
BRANCH  18  19
ATOM     19  C   UNL     1      -7.601   2.189  -7.345  1.00  0.00     0.074 C 
BRANCH  19  20
ATOM     20  N   UNL     1      -7.850   2.039  -8.603  1.00  0.00    -0.313 NA
ATOM     21  H   UNL     1      -8.469   2.781  -8.959  1.00  0.00     0.186 HD
ENDBRANCH  19  20
ENDBRANCH  18  19
ENDBRANCH   3  18
TORSDOF 6
ENDMDL
MODEL 5
REMARK VINA RESULT:    -3.544      2.790      4.789
REMARK INTER + INTRA:          -5.161
REMARK INTER:                  -4.934
REMARK INTRA:                  -0.227
REMARK UNBOUND:                -0.479
REMARK SMILES [H]/N=C\C[C@H]1C[C@@H]1O[C@H]1CO[C@H]2C[C@@H](C3CC3)CCN2C1
REMARK SMILES IDX 7 1 6 2 5 3 8 4 9 5 14 6 13 7 18 8 12 9 19 10 20 11 11 12
REMARK SMILES IDX 21 13 10 14 15 15 16 16 17 17 4 18 3 19 2 20 1 21
REMARK H PARENT
ROOT
ATOM      1  C   UNL     1     -16.811   3.276  -8.194  1.00  0.00     0.122 C 
ATOM      2  C   UNL     1     -17.166   2.316  -9.294  1.00  0.00     0.039 C 
ATOM      3  C   UNL     1     -15.849   2.187  -8.583  1.00  0.00     0.026 C 
ENDROOT
BRANCH   1   4
ATOM      4  O   UNL     1     -16.500   4.606  -8.654  1.00  0.00    -0.371 OA
BRANCH   4   5
ATOM      5  C   UNL     1     -17.186   5.672  -7.978  1.00  0.00     0.158 C 
ATOM      6  C   UNL     1     -15.679   9.629 -11.023  1.00  0.00    -0.003 C 
ATOM      7  C   UNL     1     -15.009   8.734  -9.973  1.00  0.00     0.052 C 
ATOM      8  C   UNL     1     -16.760   8.826 -11.759  1.00  0.00     0.019 C 
ATOM      9  C   UNL     1     -16.038   8.073  -9.046  1.00  0.00     0.189 C 
ATOM     10  C   UNL     1     -17.731   8.167 -10.780  1.00  0.00     0.087 C 
ATOM     11  N   UNL     1     -17.017   7.317  -9.827  1.00  0.00    -0.276 NA
ATOM     12  O   UNL     1     -15.304   7.236  -8.151  1.00  0.00    -0.360 OA
ATOM     13  C   UNL     1     -17.943   6.609  -8.935  1.00  0.00     0.121 C 
ATOM     14  C   UNL     1     -16.143   6.518  -7.241  1.00  0.00     0.195 C 
BRANCH   6  15
ATOM     15  C   UNL     1     -14.671  10.186 -12.002  1.00  0.00    -0.008 C 
ATOM     16  C   UNL     1     -14.532  11.678 -12.190  1.00  0.00     0.004 C 
ATOM     17  C   UNL     1     -13.435  10.904 -11.517  1.00  0.00     0.004 C 
ENDBRANCH   6  15
ENDBRANCH   4   5
ENDBRANCH   1   4
BRANCH   3  18
ATOM     18  C   UNL     1     -15.626   1.016  -7.674  1.00  0.00     0.053 C 
BRANCH  18  19
ATOM     19  C   UNL     1     -14.267   0.923  -7.029  1.00  0.00     0.074 C 
BRANCH  19  20
ATOM     20  N   UNL     1     -13.587   1.911  -6.550  1.00  0.00    -0.313 NA
ATOM     21  H   UNL     1     -12.976   2.332  -7.263  1.00  0.00     0.186 HD
ENDBRANCH  19  20
ENDBRANCH  18  19
ENDBRANCH   3  18
TORSDOF 6
ENDMDL
MODEL 6
REMARK VINA RESULT:    -3.512      1.522      2.056
REMARK INTER + INTRA:          -5.120
REMARK INTER:                  -4.775
REMARK INTRA:                  -0.346
REMARK UNBOUND:                -0.479
REMARK SMILES [H]/N=C\C[C@H]1C[C@@H]1O[C@H]1CO[C@H]2C[C@@H](C3CC3)CCN2C1
REMARK SMILES IDX 7 1 6 2 5 3 8 4 9 5 14 6 13 7 18 8 12 9 19 10 20 11 11 12
REMARK SMILES IDX 21 13 10 14 15 15 16 16 17 17 4 18 3 19 2 20 1 21
REMARK H PARENT
ROOT
ATOM      1  C   UNL     1     -17.812   6.499  -9.334  1.00  0.00     0.122 C 
ATOM      2  C   UNL     1     -18.133   6.021 -10.722  1.00  0.00     0.039 C 
ATOM      3  C   UNL     1     -17.597   5.056  -9.703  1.00  0.00     0.026 C 
ENDROOT
BRANCH   1   4
ATOM      4  O   UNL     1     -16.636   7.327  -9.256  1.00  0.00    -0.371 OA
BRANCH   4   5
ATOM      5  C   UNL     1     -16.541   8.159  -8.088  1.00  0.00     0.158 C 
ATOM      6  C   UNL     1     -12.156   6.179  -6.073  1.00  0.00    -0.003 C 
ATOM      7  C   UNL     1     -13.607   5.707  -6.221  1.00  0.00     0.052 C 
ATOM      8  C   UNL     1     -11.789   7.074  -7.265  1.00  0.00     0.019 C 
ATOM      9  C   UNL     1     -14.570   6.882  -6.441  1.00  0.00     0.189 C 
ATOM     10  C   UNL     1     -12.803   8.202  -7.450  1.00  0.00     0.087 C 
ATOM     11  N   UNL     1     -14.157   7.669  -7.603  1.00  0.00    -0.276 NA
ATOM     12  O   UNL     1     -15.872   6.318  -6.610  1.00  0.00    -0.360 OA
ATOM     13  C   UNL     1     -15.131   8.735  -7.868  1.00  0.00     0.121 C 
ATOM     14  C   UNL     1     -16.879   7.302  -6.864  1.00  0.00     0.195 C 
BRANCH   6  15
ATOM     15  C   UNL     1     -11.200   5.012  -5.971  1.00  0.00    -0.008 C 
ATOM     16  C   UNL     1     -11.027   4.278  -4.662  1.00  0.00     0.004 C 
ATOM     17  C   UNL     1     -11.715   3.602  -5.812  1.00  0.00     0.004 C 
ENDBRANCH   6  15
ENDBRANCH   4   5
ENDBRANCH   1   4
BRANCH   3  18
ATOM     18  C   UNL     1     -18.505   3.994  -9.160  1.00  0.00     0.053 C 
BRANCH  18  19
ATOM     19  C   UNL     1     -18.089   3.366  -7.855  1.00  0.00     0.074 C 
BRANCH  19  20
ATOM     20  N   UNL     1     -17.773   4.001  -6.776  1.00  0.00    -0.313 NA
ATOM     21  H   UNL     1     -16.845   3.720  -6.428  1.00  0.00     0.186 HD
ENDBRANCH  19  20
ENDBRANCH  18  19
ENDBRANCH   3  18
TORSDOF 6
ENDMDL
MODEL 7
REMARK VINA RESULT:    -3.343      2.471      4.703
REMARK INTER + INTRA:          -4.896
REMARK INTER:                  -4.582
REMARK INTRA:                  -0.314
REMARK UNBOUND:                -0.479
REMARK SMILES [H]/N=C\C[C@H]1C[C@@H]1O[C@H]1CO[C@H]2C[C@@H](C3CC3)CCN2C1
REMARK SMILES IDX 7 1 6 2 5 3 8 4 9 5 14 6 13 7 18 8 12 9 19 10 20 11 11 12
REMARK SMILES IDX 21 13 10 14 15 15 16 16 17 17 4 18 3 19 2 20 1 21
REMARK H PARENT
ROOT
ATOM      1  C   UNL     1     -13.998   8.641  -9.884  1.00  0.00     0.122 C 
ATOM      2  C   UNL     1     -13.462   8.105 -11.181  1.00  0.00     0.039 C 
ATOM      3  C   UNL     1     -14.459   9.228 -11.190  1.00  0.00     0.026 C 
ENDROOT
BRANCH   1   4
ATOM      4  O   UNL     1     -14.915   7.754  -9.216  1.00  0.00    -0.371 OA
BRANCH   4   5
ATOM      5  C   UNL     1     -15.214   8.086  -7.850  1.00  0.00     0.158 C 
ATOM      6  C   UNL     1     -11.594   5.144  -5.517  1.00  0.00    -0.003 C 
ATOM      7  C   UNL     1     -12.911   4.883  -6.259  1.00  0.00     0.052 C 
ATOM      8  C   UNL     1     -10.911   6.381  -6.117  1.00  0.00     0.019 C 
ATOM      9  C   UNL     1     -13.801   6.132  -6.297  1.00  0.00     0.189 C 
ATOM     10  C   UNL     1     -11.860   7.578  -6.157  1.00  0.00     0.087 C 
ATOM     11  N   UNL     1     -13.080   7.255  -6.897  1.00  0.00    -0.276 NA
ATOM     12  O   UNL     1     -14.966   5.782  -7.046  1.00  0.00    -0.360 OA
ATOM     13  C   UNL     1     -13.963   8.420  -7.019  1.00  0.00     0.121 C 
ATOM     14  C   UNL     1     -15.882   6.870  -7.200  1.00  0.00     0.195 C 
BRANCH   6  15
ATOM     15  C   UNL     1     -10.674   3.946  -5.582  1.00  0.00    -0.008 C 
ATOM     16  C   UNL     1     -10.324   3.183  -4.326  1.00  0.00     0.004 C 
ATOM     17  C   UNL     1     -11.206   2.550  -5.363  1.00  0.00     0.004 C 
ENDBRANCH   6  15
ENDBRANCH   4   5
ENDBRANCH   1   4
BRANCH   3  18
ATOM     18  C   UNL     1     -14.007  10.597 -11.604  1.00  0.00     0.053 C 
BRANCH  18  19
ATOM     19  C   UNL     1     -14.422  11.046 -12.981  1.00  0.00     0.074 C 
BRANCH  19  20
ATOM     20  N   UNL     1     -15.578  10.854 -13.524  1.00  0.00    -0.313 NA
ATOM     21  H   UNL     1     -15.956  11.722 -13.929  1.00  0.00     0.186 HD
ENDBRANCH  19  20
ENDBRANCH  18  19
ENDBRANCH   3  18
TORSDOF 6
ENDMDL
MODEL 8
REMARK VINA RESULT:    -3.199      2.050      2.722
REMARK INTER + INTRA:          -4.706
REMARK INTER:                  -5.564
REMARK INTRA:                   0.858
REMARK UNBOUND:                -0.479
REMARK SMILES [H]/N=C\C[C@H]1C[C@@H]1O[C@H]1CO[C@H]2C[C@@H](C3CC3)CCN2C1
REMARK SMILES IDX 7 1 6 2 5 3 8 4 9 5 14 6 13 7 18 8 12 9 19 10 20 11 11 12
REMARK SMILES IDX 21 13 10 14 15 15 16 16 17 17 4 18 3 19 2 20 1 21
REMARK H PARENT
ROOT
ATOM      1  C   UNL     1     -16.304   9.667  -9.965  1.00  0.00     0.122 C 
ATOM      2  C   UNL     1     -17.117   8.859  -8.994  1.00  0.00     0.039 C 
ATOM      3  C   UNL     1     -17.437   8.811 -10.460  1.00  0.00     0.026 C 
ENDROOT
BRANCH   1   4
ATOM      4  O   UNL     1     -16.548  11.085  -9.899  1.00  0.00    -0.371 OA
BRANCH   4   5
ATOM      5  C   UNL     1     -15.378  11.912  -9.796  1.00  0.00     0.158 C 
ATOM      6  C   UNL     1     -12.019   8.303  -8.092  1.00  0.00    -0.003 C 
ATOM      7  C   UNL     1     -13.210   9.064  -7.496  1.00  0.00     0.052 C 
ATOM      8  C   UNL     1     -12.256   8.085  -9.593  1.00  0.00     0.019 C 
ATOM      9  C   UNL     1     -13.512  10.351  -8.276  1.00  0.00     0.189 C 
ATOM     10  C   UNL     1     -12.585   9.397 -10.304  1.00  0.00     0.087 C 
ATOM     11  N   UNL     1     -13.741  10.049  -9.689  1.00  0.00    -0.276 NA
ATOM     12  O   UNL     1     -14.659  10.941  -7.661  1.00  0.00    -0.360 OA
ATOM     13  C   UNL     1     -14.124  11.267 -10.414  1.00  0.00     0.121 C 
ATOM     14  C   UNL     1     -15.087  12.143  -8.310  1.00  0.00     0.195 C 
BRANCH   6  15
ATOM     15  C   UNL     1     -11.797   6.982  -7.391  1.00  0.00    -0.008 C 
ATOM     16  C   UNL     1     -11.184   6.942  -6.012  1.00  0.00     0.004 C 
ATOM     17  C   UNL     1     -12.632   6.591  -6.196  1.00  0.00     0.004 C 
ENDBRANCH   6  15
ENDBRANCH   4   5
ENDBRANCH   1   4
BRANCH   3  18
ATOM     18  C   UNL     1     -17.155   7.552 -11.225  1.00  0.00     0.053 C 
BRANCH  18  19
ATOM     19  C   UNL     1     -17.864   6.311 -10.749  1.00  0.00     0.074 C 
BRANCH  19  20
ATOM     20  N   UNL     1     -17.894   5.174 -11.361  1.00  0.00    -0.313 NA
ATOM     21  H   UNL     1     -16.948   4.796 -11.507  1.00  0.00     0.186 HD
ENDBRANCH  19  20
ENDBRANCH  18  19
ENDBRANCH   3  18
TORSDOF 6
ENDMDL
MODEL 9
REMARK VINA RESULT:    -3.029      2.991      6.278
REMARK INTER + INTRA:          -4.481
REMARK INTER:                  -4.288
REMARK INTRA:                  -0.193
REMARK UNBOUND:                -0.479
REMARK SMILES [H]/N=C\C[C@H]1C[C@@H]1O[C@H]1CO[C@H]2C[C@@H](C3CC3)CCN2C1
REMARK SMILES IDX 7 1 6 2 5 3 8 4 9 5 14 6 13 7 18 8 12 9 19 10 20 11 11 12
REMARK SMILES IDX 21 13 10 14 15 15 16 16 17 17 4 18 3 19 2 20 1 21
REMARK H PARENT
ROOT
ATOM      1  C   UNL     1     -14.848  10.544 -10.898  1.00  0.00     0.122 C 
ATOM      2  C   UNL     1     -13.369  10.404 -11.124  1.00  0.00     0.039 C 
ATOM      3  C   UNL     1     -14.282  10.672 -12.286  1.00  0.00     0.026 C 
ENDROOT
BRANCH   1   4
ATOM      4  O   UNL     1     -15.514   9.306 -10.585  1.00  0.00    -0.371 OA
BRANCH   4   5
ATOM      5  C   UNL     1     -16.906   9.420 -10.247  1.00  0.00     0.158 C 
ATOM      6  C   UNL     1     -17.625   4.646  -8.273  1.00  0.00    -0.003 C 
ATOM      7  C   UNL     1     -17.410   5.235  -9.673  1.00  0.00     0.052 C 
ATOM      8  C   UNL     1     -16.865   5.494  -7.244  1.00  0.00     0.019 C 
ATOM      9  C   UNL     1     -17.752   6.730  -9.720  1.00  0.00     0.189 C 
ATOM     10  C   UNL     1     -17.224   6.975  -7.366  1.00  0.00     0.087 C 
ATOM     11  N   UNL     1     -16.974   7.464  -8.722  1.00  0.00    -0.276 NA
ATOM     12  O   UNL     1     -17.471   7.171 -11.050  1.00  0.00    -0.360 OA
ATOM     13  C   UNL     1     -17.231   8.904  -8.834  1.00  0.00     0.121 C 
ATOM     14  C   UNL     1     -17.708   8.570 -11.238  1.00  0.00     0.195 C 
BRANCH   6  15
ATOM     15  C   UNL     1     -17.179   3.203  -8.204  1.00  0.00    -0.008 C 
ATOM     16  C   UNL     1     -18.147   2.123  -7.779  1.00  0.00     0.004 C 
ATOM     17  C   UNL     1     -17.680   2.189  -9.205  1.00  0.00     0.004 C 
ENDBRANCH   6  15
ENDBRANCH   4   5
ENDBRANCH   1   4
BRANCH   3  18
ATOM     18  C   UNL     1     -14.227  12.010 -12.960  1.00  0.00     0.053 C 
BRANCH  18  19
ATOM     19  C   UNL     1     -13.627  12.037 -14.342  1.00  0.00     0.074 C 
BRANCH  19  20
ATOM     20  N   UNL     1     -12.367  11.996 -14.621  1.00  0.00    -0.313 NA
ATOM     21  H   UNL     1     -12.176  11.381 -15.425  1.00  0.00     0.186 HD
ENDBRANCH  19  20
ENDBRANCH  18  19
ENDBRANCH   3  18
TORSDOF 6
ENDMDL
