MODEL 1
REMARK VINA RESULT:    -6.134      0.000      0.000
REMARK INTER + INTRA:          -7.591
REMARK INTER:                  -7.209
REMARK INTRA:                  -0.381
REMARK UNBOUND:                -0.381
REMARK SMILES Cc1ccc(CNC(=O)NC(=O)c2ccc(C)cc2)cc1
REMARK SMILES IDX 11 1 12 2 10 3 8 4 9 5 7 6 13 9 19 10 18 11 14 12 16 13
REMARK SMILES IDX 15 14 17 15 6 16 5 17 4 18 20 19 3 20 21 21 2 22 1 23
REMARK H PARENT 10 7 7 8
ROOT
ATOM      1  C   UNL     1      -9.589   3.051  -5.098  1.00  0.00     0.259 C 
ATOM      2  O   UNL     1      -9.476   4.229  -4.789  1.00  0.00    -0.269 OA
ATOM      3  N   UNL     1     -10.731   2.363  -5.520  1.00  0.00    -0.274 N 
ATOM      4  C   UNL     1     -11.991   2.668  -5.967  1.00  0.00     0.321 C 
ATOM      5  O   UNL     1     -12.691   1.741  -6.386  1.00  0.00    -0.248 OA
ATOM      6  N   UNL     1     -12.486   3.919  -5.998  1.00  0.00    -0.334 N 
ATOM      7  H   UNL     1     -10.582   1.379  -5.701  1.00  0.00     0.175 HD
ATOM      8  H   UNL     1     -13.395   3.986  -6.434  1.00  0.00     0.165 HD
ENDROOT
BRANCH   1   9
ATOM      9  C   UNL     1      -8.366   2.229  -5.028  1.00  0.00     0.040 A 
ATOM     10  C   UNL     1      -8.101   1.411  -3.928  1.00  0.00     0.014 A 
ATOM     11  C   UNL     1      -6.957   0.612  -3.930  1.00  0.00     0.004 A 
ATOM     12  C   UNL     1      -7.467   2.297  -6.096  1.00  0.00     0.014 A 
ATOM     13  C   UNL     1      -6.075   0.633  -5.021  1.00  0.00    -0.051 A 
ATOM     14  C   UNL     1      -6.329   1.492  -6.097  1.00  0.00     0.004 A 
ATOM     15  C   UNL     1      -4.895  -0.294  -5.046  1.00  0.00     0.044 C 
ENDBRANCH   1   9
BRANCH   6  16
ATOM     16  C   UNL     1     -11.809   5.139  -5.658  1.00  0.00     0.153 C 
BRANCH  16  17
ATOM     17  C   UNL     1     -12.324   6.409  -6.275  1.00  0.00    -0.029 A 
ATOM     18  C   UNL     1     -11.534   7.249  -7.067  1.00  0.00     0.006 A 
ATOM     19  C   UNL     1     -13.709   6.637  -6.218  1.00  0.00     0.006 A 
ATOM     20  C   UNL     1     -12.127   8.279  -7.805  1.00  0.00     0.004 A 
ATOM     21  C   UNL     1     -14.299   7.658  -6.956  1.00  0.00     0.004 A 
ATOM     22  C   UNL     1     -13.514   8.482  -7.764  1.00  0.00    -0.051 A 
ATOM     23  C   UNL     1     -14.172   9.489  -8.659  1.00  0.00     0.044 C 
ENDBRANCH  16  17
ENDBRANCH   6  16
TORSDOF 3
ENDMDL
MODEL 2
REMARK VINA RESULT:    -6.113      3.254      5.541
REMARK INTER + INTRA:          -7.567
REMARK INTER:                  -7.194
REMARK INTRA:                  -0.373
REMARK UNBOUND:                -0.381
REMARK SMILES Cc1ccc(CNC(=O)NC(=O)c2ccc(C)cc2)cc1
REMARK SMILES IDX 11 1 12 2 10 3 8 4 9 5 7 6 13 9 19 10 18 11 14 12 16 13
REMARK SMILES IDX 15 14 17 15 6 16 5 17 4 18 20 19 3 20 21 21 2 22 1 23
REMARK H PARENT 10 7 7 8
ROOT
ATOM      1  C   UNL     1      -9.741   2.701  -4.902  1.00  0.00     0.259 C 
ATOM      2  O   UNL     1      -9.887   1.524  -5.200  1.00  0.00    -0.269 OA
ATOM      3  N   UNL     1     -10.522   3.801  -5.273  1.00  0.00    -0.274 N 
ATOM      4  C   UNL     1     -11.754   4.027  -5.829  1.00  0.00     0.321 C 
ATOM      5  O   UNL     1     -12.157   5.194  -5.875  1.00  0.00    -0.248 OA
ATOM      6  N   UNL     1     -12.552   3.048  -6.295  1.00  0.00    -0.334 N 
ATOM      7  H   UNL     1     -10.188   4.687  -4.918  1.00  0.00     0.175 HD
ATOM      8  H   UNL     1     -13.461   3.371  -6.593  1.00  0.00     0.165 HD
ENDROOT
BRANCH   1   9
ATOM      9  C   UNL     1      -8.595   3.025  -4.031  1.00  0.00     0.040 A 
ATOM     10  C   UNL     1      -7.407   3.540  -4.552  1.00  0.00     0.014 A 
ATOM     11  C   UNL     1      -6.370   3.881  -3.683  1.00  0.00     0.004 A 
ATOM     12  C   UNL     1      -8.729   2.795  -2.658  1.00  0.00     0.014 A 
ATOM     13  C   UNL     1      -6.513   3.702  -2.299  1.00  0.00    -0.051 A 
ATOM     14  C   UNL     1      -7.693   3.142  -1.793  1.00  0.00     0.004 A 
ATOM     15  C   UNL     1      -5.423   4.152  -1.371  1.00  0.00     0.044 C 
ENDBRANCH   1   9
BRANCH   6  16
ATOM     16  C   UNL     1     -12.322   1.632  -6.242  1.00  0.00     0.153 C 
BRANCH  16  17
ATOM     17  C   UNL     1     -13.519   0.733  -6.379  1.00  0.00    -0.029 A 
ATOM     18  C   UNL     1     -13.838  -0.261  -5.448  1.00  0.00     0.006 A 
ATOM     19  C   UNL     1     -14.457   1.057  -7.372  1.00  0.00     0.006 A 
ATOM     20  C   UNL     1     -15.083  -0.897  -5.500  1.00  0.00     0.004 A 
ATOM     21  C   UNL     1     -15.697   0.428  -7.421  1.00  0.00     0.004 A 
ATOM     22  C   UNL     1     -16.025  -0.548  -6.478  1.00  0.00    -0.051 A 
ATOM     23  C   UNL     1     -17.411  -1.120  -6.455  1.00  0.00     0.044 C 
ENDBRANCH  16  17
ENDBRANCH   6  16
TORSDOF 3
ENDMDL
MODEL 3
REMARK VINA RESULT:    -6.102      0.549      8.016
REMARK INTER + INTRA:          -7.554
REMARK INTER:                  -7.067
REMARK INTRA:                  -0.487
REMARK UNBOUND:                -0.381
REMARK SMILES Cc1ccc(CNC(=O)NC(=O)c2ccc(C)cc2)cc1
REMARK SMILES IDX 11 1 12 2 10 3 8 4 9 5 7 6 13 9 19 10 18 11 14 12 16 13
REMARK SMILES IDX 15 14 17 15 6 16 5 17 4 18 20 19 3 20 21 21 2 22 1 23
REMARK H PARENT 10 7 7 8
ROOT
ATOM      1  C   UNL     1     -11.447   5.082  -5.984  1.00  0.00     0.259 C 
ATOM      2  O   UNL     1     -10.349   5.281  -5.484  1.00  0.00    -0.269 OA
ATOM      3  N   UNL     1     -12.112   3.868  -6.182  1.00  0.00    -0.274 N 
ATOM      4  C   UNL     1     -12.001   2.570  -5.753  1.00  0.00     0.321 C 
ATOM      5  O   UNL     1     -12.903   1.785  -6.062  1.00  0.00    -0.248 OA
ATOM      6  N   UNL     1     -10.984   2.122  -4.993  1.00  0.00    -0.334 N 
ATOM      7  H   UNL     1     -13.010   3.954  -6.640  1.00  0.00     0.175 HD
ATOM      8  H   UNL     1     -11.094   1.165  -4.690  1.00  0.00     0.165 HD
ENDROOT
BRANCH   1   9
ATOM      9  C   UNL     1     -12.188   6.272  -6.445  1.00  0.00     0.040 A 
ATOM     10  C   UNL     1     -11.543   7.324  -7.099  1.00  0.00     0.014 A 
ATOM     11  C   UNL     1     -12.294   8.404  -7.562  1.00  0.00     0.004 A 
ATOM     12  C   UNL     1     -13.564   6.324  -6.201  1.00  0.00     0.014 A 
ATOM     13  C   UNL     1     -13.683   8.441  -7.369  1.00  0.00    -0.051 A 
ATOM     14  C   UNL     1     -14.311   7.402  -6.672  1.00  0.00     0.004 A 
ATOM     15  C   UNL     1     -14.488   9.568  -7.947  1.00  0.00     0.044 C 
ENDBRANCH   1   9
BRANCH   6  16
ATOM     16  C   UNL     1      -9.900   2.885  -4.442  1.00  0.00     0.153 C 
BRANCH  16  17
ATOM     17  C   UNL     1      -8.526   2.278  -4.507  1.00  0.00    -0.029 A 
ATOM     18  C   UNL     1      -8.017   1.432  -3.516  1.00  0.00     0.006 A 
ATOM     19  C   UNL     1      -7.823   2.406  -5.716  1.00  0.00     0.006 A 
ATOM     20  C   UNL     1      -6.840   0.712  -3.747  1.00  0.00     0.004 A 
ATOM     21  C   UNL     1      -6.655   1.686  -5.946  1.00  0.00     0.004 A 
ATOM     22  C   UNL     1      -6.159   0.824  -4.966  1.00  0.00    -0.051 A 
ATOM     23  C   UNL     1      -4.979  -0.049  -5.275  1.00  0.00     0.044 C 
ENDBRANCH  16  17
ENDBRANCH   6  16
TORSDOF 3
ENDMDL
MODEL 4
REMARK VINA RESULT:    -6.072      3.134      7.290
REMARK INTER + INTRA:          -7.518
REMARK INTER:                  -7.026
REMARK INTRA:                  -0.492
REMARK UNBOUND:                -0.381
REMARK SMILES Cc1ccc(CNC(=O)NC(=O)c2ccc(C)cc2)cc1
REMARK SMILES IDX 11 1 12 2 10 3 8 4 9 5 7 6 13 9 19 10 18 11 14 12 16 13
REMARK SMILES IDX 15 14 17 15 6 16 5 17 4 18 20 19 3 20 21 21 2 22 1 23
REMARK H PARENT 10 7 7 8
ROOT
ATOM      1  C   UNL     1     -12.256   1.618  -5.804  1.00  0.00     0.259 C 
ATOM      2  O   UNL     1     -11.269   0.976  -5.476  1.00  0.00    -0.269 OA
ATOM      3  N   UNL     1     -12.399   3.004  -5.928  1.00  0.00    -0.274 N 
ATOM      4  C   UNL     1     -11.583   4.105  -5.987  1.00  0.00     0.321 C 
ATOM      5  O   UNL     1     -12.108   5.194  -6.244  1.00  0.00    -0.248 OA
ATOM      6  N   UNL     1     -10.250   4.054  -5.813  1.00  0.00    -0.334 N 
ATOM      7  H   UNL     1     -13.326   3.306  -6.195  1.00  0.00     0.175 HD
ATOM      8  H   UNL     1      -9.784   4.936  -5.973  1.00  0.00     0.165 HD
ENDROOT
BRANCH   1   9
ATOM      9  C   UNL     1     -13.472   0.844  -6.122  1.00  0.00     0.040 A 
ATOM     10  C   UNL     1     -13.853  -0.259  -5.356  1.00  0.00     0.014 A 
ATOM     11  C   UNL     1     -15.038  -0.928  -5.664  1.00  0.00     0.004 A 
ATOM     12  C   UNL     1     -14.235   1.243  -7.224  1.00  0.00     0.014 A 
ATOM     13  C   UNL     1     -15.838  -0.504  -6.736  1.00  0.00    -0.051 A 
ATOM     14  C   UNL     1     -15.421   0.576  -7.523  1.00  0.00     0.004 A 
ATOM     15  C   UNL     1     -17.151  -1.180  -7.000  1.00  0.00     0.044 C 
ENDBRANCH   1   9
BRANCH   6  16
ATOM     16  C   UNL     1      -9.437   2.888  -5.610  1.00  0.00     0.153 C 
BRANCH  16  17
ATOM     17  C   UNL     1      -8.371   2.965  -4.553  1.00  0.00    -0.029 A 
ATOM     18  C   UNL     1      -7.064   3.389  -4.816  1.00  0.00     0.006 A 
ATOM     19  C   UNL     1      -8.776   2.803  -3.218  1.00  0.00     0.006 A 
ATOM     20  C   UNL     1      -6.193   3.669  -3.758  1.00  0.00     0.004 A 
ATOM     21  C   UNL     1      -7.910   3.086  -2.167  1.00  0.00     0.004 A 
ATOM     22  C   UNL     1      -6.613   3.531  -2.428  1.00  0.00    -0.051 A 
ATOM     23  C   UNL     1      -5.735   3.964  -1.292  1.00  0.00     0.044 C 
ENDBRANCH  16  17
ENDBRANCH   6  16
TORSDOF 3
ENDMDL
MODEL 5
REMARK VINA RESULT:    -5.833      1.245      8.006
REMARK INTER + INTRA:          -7.237
REMARK INTER:                  -6.778
REMARK INTRA:                  -0.459
REMARK UNBOUND:                -0.381
REMARK SMILES Cc1ccc(CNC(=O)NC(=O)c2ccc(C)cc2)cc1
REMARK SMILES IDX 11 1 12 2 10 3 8 4 9 5 7 6 13 9 19 10 18 11 14 12 16 13
REMARK SMILES IDX 15 14 17 15 6 16 5 17 4 18 20 19 3 20 21 21 2 22 1 23
REMARK H PARENT 10 7 7 8
ROOT
ATOM      1  C   UNL     1     -11.431   5.316  -5.864  1.00  0.00     0.259 C 
ATOM      2  O   UNL     1     -10.453   5.624  -5.197  1.00  0.00    -0.269 OA
ATOM      3  N   UNL     1     -11.903   4.040  -6.187  1.00  0.00    -0.274 N 
ATOM      4  C   UNL     1     -11.696   2.748  -5.775  1.00  0.00     0.321 C 
ATOM      5  O   UNL     1     -12.437   1.874  -6.237  1.00  0.00    -0.248 OA
ATOM      6  N   UNL     1     -10.755   2.394  -4.880  1.00  0.00    -0.334 N 
ATOM      7  H   UNL     1     -12.726   4.036  -6.775  1.00  0.00     0.175 HD
ATOM      8  H   UNL     1     -10.789   1.419  -4.619  1.00  0.00     0.165 HD
ENDROOT
BRANCH   1   9
ATOM      9  C   UNL     1     -12.238   6.426  -6.405  1.00  0.00     0.040 A 
ATOM     10  C   UNL     1     -11.651   7.471  -7.121  1.00  0.00     0.014 A 
ATOM     11  C   UNL     1     -12.461   8.472  -7.658  1.00  0.00     0.004 A 
ATOM     12  C   UNL     1     -13.617   6.409  -6.174  1.00  0.00     0.014 A 
ATOM     13  C   UNL     1     -13.852   8.436  -7.477  1.00  0.00    -0.051 A 
ATOM     14  C   UNL     1     -14.423   7.407  -6.718  1.00  0.00     0.004 A 
ATOM     15  C   UNL     1     -14.717   9.472  -8.132  1.00  0.00     0.044 C 
ENDBRANCH   1   9
BRANCH   6  16
ATOM     16  C   UNL     1      -9.869   3.258  -4.153  1.00  0.00     0.153 C 
BRANCH  16  17
ATOM     17  C   UNL     1      -8.420   2.863  -4.089  1.00  0.00    -0.029 A 
ATOM     18  C   UNL     1      -7.373   3.790  -4.136  1.00  0.00     0.006 A 
ATOM     19  C   UNL     1      -8.131   1.530  -3.757  1.00  0.00     0.006 A 
ATOM     20  C   UNL     1      -6.068   3.388  -3.831  1.00  0.00     0.004 A 
ATOM     21  C   UNL     1      -6.833   1.132  -3.449  1.00  0.00     0.004 A 
ATOM     22  C   UNL     1      -5.792   2.061  -3.473  1.00  0.00    -0.051 A 
ATOM     23  C   UNL     1      -4.425   1.656  -3.008  1.00  0.00     0.044 C 
ENDBRANCH  16  17
ENDBRANCH   6  16
TORSDOF 3
ENDMDL
MODEL 6
REMARK VINA RESULT:    -5.114      3.188      5.112
REMARK INTER + INTRA:          -6.393
REMARK INTER:                  -5.917
REMARK INTRA:                  -0.476
REMARK UNBOUND:                -0.381
REMARK SMILES Cc1ccc(CNC(=O)NC(=O)c2ccc(C)cc2)cc1
REMARK SMILES IDX 11 1 12 2 10 3 8 4 9 5 7 6 13 9 19 10 18 11 14 12 16 13
REMARK SMILES IDX 15 14 17 15 6 16 5 17 4 18 20 19 3 20 21 21 2 22 1 23
REMARK H PARENT 10 7 7 8
ROOT
ATOM      1  C   UNL     1      -9.258   2.376  -5.311  1.00  0.00     0.259 C 
ATOM      2  O   UNL     1      -9.507   1.488  -6.114  1.00  0.00    -0.269 OA
ATOM      3  N   UNL     1     -10.026   3.497  -4.978  1.00  0.00    -0.274 N 
ATOM      4  C   UNL     1     -11.314   3.932  -5.159  1.00  0.00     0.321 C 
ATOM      5  O   UNL     1     -11.658   4.964  -4.573  1.00  0.00    -0.248 OA
ATOM      6  N   UNL     1     -12.221   3.281  -5.911  1.00  0.00    -0.334 N 
ATOM      7  H   UNL     1      -9.599   4.108  -4.295  1.00  0.00     0.175 HD
ATOM      8  H   UNL     1     -13.146   3.685  -5.873  1.00  0.00     0.165 HD
ENDROOT
BRANCH   1   9
ATOM      9  C   UNL     1      -7.981   2.266  -4.579  1.00  0.00     0.040 A 
ATOM     10  C   UNL     1      -7.533   1.043  -4.076  1.00  0.00     0.014 A 
ATOM     11  C   UNL     1      -6.295   0.979  -3.437  1.00  0.00     0.004 A 
ATOM     12  C   UNL     1      -7.228   3.430  -4.394  1.00  0.00     0.014 A 
ATOM     13  C   UNL     1      -5.507   2.131  -3.292  1.00  0.00    -0.051 A 
ATOM     14  C   UNL     1      -5.989   3.360  -3.761  1.00  0.00     0.004 A 
ATOM     15  C   UNL     1      -4.142   2.030  -2.679  1.00  0.00     0.044 C 
ENDBRANCH   1   9
BRANCH   6  16
ATOM     16  C   UNL     1     -12.060   2.024  -6.585  1.00  0.00     0.153 C 
BRANCH  16  17
ATOM     17  C   UNL     1     -13.180   1.028  -6.465  1.00  0.00    -0.029 A 
ATOM     18  C   UNL     1     -13.298   0.139  -5.392  1.00  0.00     0.006 A 
ATOM     19  C   UNL     1     -14.252   1.154  -7.363  1.00  0.00     0.006 A 
ATOM     20  C   UNL     1     -14.479  -0.589  -5.213  1.00  0.00     0.004 A 
ATOM     21  C   UNL     1     -15.428   0.433  -7.182  1.00  0.00     0.004 A 
ATOM     22  C   UNL     1     -15.556  -0.438  -6.099  1.00  0.00    -0.051 A 
ATOM     23  C   UNL     1     -16.872  -1.105  -5.834  1.00  0.00     0.044 C 
ENDBRANCH  16  17
ENDBRANCH   6  16
TORSDOF 3
ENDMDL
MODEL 7
REMARK VINA RESULT:    -5.100      4.771      7.537
REMARK INTER + INTRA:          -6.376
REMARK INTER:                  -5.958
REMARK INTRA:                  -0.418
REMARK UNBOUND:                -0.381
REMARK SMILES Cc1ccc(CNC(=O)NC(=O)c2ccc(C)cc2)cc1
REMARK SMILES IDX 11 1 12 2 10 3 8 4 9 5 7 6 13 9 19 10 18 11 14 12 16 13
REMARK SMILES IDX 15 14 17 15 6 16 5 17 4 18 20 19 3 20 21 21 2 22 1 23
REMARK H PARENT 10 7 7 8
ROOT
ATOM      1  C   UNL     1     -14.801   8.726  -7.345  1.00  0.00     0.259 C 
ATOM      2  O   UNL     1     -14.448   9.893  -7.450  1.00  0.00    -0.269 OA
ATOM      3  N   UNL     1     -16.071   8.175  -7.537  1.00  0.00    -0.274 N 
ATOM      4  C   UNL     1     -17.267   8.554  -8.091  1.00  0.00     0.321 C 
ATOM      5  O   UNL     1     -18.151   7.697  -8.190  1.00  0.00    -0.248 OA
ATOM      6  N   UNL     1     -17.512   9.793  -8.556  1.00  0.00    -0.334 N 
ATOM      7  H   UNL     1     -16.123   7.179  -7.371  1.00  0.00     0.175 HD
ATOM      8  H   UNL     1     -18.409   9.887  -9.011  1.00  0.00     0.165 HD
ENDROOT
BRANCH   1   9
ATOM      9  C   UNL     1     -13.757   7.752  -6.971  1.00  0.00     0.040 A 
ATOM     10  C   UNL     1     -12.410   7.983  -7.256  1.00  0.00     0.014 A 
ATOM     11  C   UNL     1     -11.454   7.058  -6.836  1.00  0.00     0.004 A 
ATOM     12  C   UNL     1     -14.156   6.578  -6.324  1.00  0.00     0.014 A 
ATOM     13  C   UNL     1     -11.839   5.901  -6.140  1.00  0.00    -0.051 A 
ATOM     14  C   UNL     1     -13.197   5.660  -5.901  1.00  0.00     0.004 A 
ATOM     15  C   UNL     1     -10.793   4.959  -5.621  1.00  0.00     0.044 C 
ENDBRANCH   1   9
BRANCH   6  16
ATOM     16  C   UNL     1     -16.597  10.897  -8.632  1.00  0.00     0.153 C 
BRANCH  16  17
ATOM     17  C   UNL     1     -16.002  11.208  -9.977  1.00  0.00    -0.029 A 
ATOM     18  C   UNL     1     -15.414  12.440 -10.286  1.00  0.00     0.006 A 
ATOM     19  C   UNL     1     -15.849  10.140 -10.876  1.00  0.00     0.006 A 
ATOM     20  C   UNL     1     -14.669  12.585 -11.461  1.00  0.00     0.004 A 
ATOM     21  C   UNL     1     -15.103  10.284 -12.041  1.00  0.00     0.004 A 
ATOM     22  C   UNL     1     -14.497  11.506 -12.339  1.00  0.00    -0.051 A 
ATOM     23  C   UNL     1     -13.585  11.612 -13.524  1.00  0.00     0.044 C 
ENDBRANCH  16  17
ENDBRANCH   6  16
TORSDOF 3
ENDMDL
MODEL 8
REMARK VINA RESULT:    -4.787      2.248      3.955
REMARK INTER + INTRA:          -6.008
REMARK INTER:                  -5.571
REMARK INTRA:                  -0.437
REMARK UNBOUND:                -0.381
REMARK SMILES Cc1ccc(CNC(=O)NC(=O)c2ccc(C)cc2)cc1
REMARK SMILES IDX 11 1 12 2 10 3 8 4 9 5 7 6 13 9 19 10 18 11 14 12 16 13
REMARK SMILES IDX 15 14 17 15 6 16 5 17 4 18 20 19 3 20 21 21 2 22 1 23
REMARK H PARENT 10 7 7 8
ROOT
ATOM      1  C   UNL     1     -11.833   5.739  -5.944  1.00  0.00     0.259 C 
ATOM      2  O   UNL     1     -11.226   6.782  -6.140  1.00  0.00    -0.269 OA
ATOM      3  N   UNL     1     -13.210   5.500  -6.011  1.00  0.00    -0.274 N 
ATOM      4  C   UNL     1     -14.325   6.133  -6.498  1.00  0.00     0.321 C 
ATOM      5  O   UNL     1     -15.391   5.509  -6.482  1.00  0.00    -0.248 OA
ATOM      6  N   UNL     1     -14.309   7.377  -7.013  1.00  0.00    -0.334 N 
ATOM      7  H   UNL     1     -13.481   4.553  -5.785  1.00  0.00     0.175 HD
ATOM      8  H   UNL     1     -15.194   7.665  -7.406  1.00  0.00     0.165 HD
ENDROOT
BRANCH   1   9
ATOM      9  C   UNL     1     -11.021   4.558  -5.592  1.00  0.00     0.040 A 
ATOM     10  C   UNL     1     -10.454   3.745  -6.575  1.00  0.00     0.014 A 
ATOM     11  C   UNL     1      -9.650   2.670  -6.193  1.00  0.00     0.004 A 
ATOM     12  C   UNL     1     -10.838   4.268  -4.236  1.00  0.00     0.014 A 
ATOM     13  C   UNL     1      -9.417   2.401  -4.836  1.00  0.00    -0.051 A 
ATOM     14  C   UNL     1     -10.029   3.197  -3.860  1.00  0.00     0.004 A 
ATOM     15  C   UNL     1      -8.483   1.295  -4.444  1.00  0.00     0.044 C 
ENDBRANCH   1   9
BRANCH   6  16
ATOM     16  C   UNL     1     -13.170   8.226  -7.219  1.00  0.00     0.153 C 
BRANCH  16  17
ATOM     17  C   UNL     1     -13.101   8.986  -8.514  1.00  0.00    -0.029 A 
ATOM     18  C   UNL     1     -12.863   8.371  -9.748  1.00  0.00     0.006 A 
ATOM     19  C   UNL     1     -13.500  10.332  -8.493  1.00  0.00     0.006 A 
ATOM     20  C   UNL     1     -13.049   9.088 -10.935  1.00  0.00     0.004 A 
ATOM     21  C   UNL     1     -13.689  11.042  -9.674  1.00  0.00     0.004 A 
ATOM     22  C   UNL     1     -13.475  10.423 -10.906  1.00  0.00    -0.051 A 
ATOM     23  C   UNL     1     -13.812  11.153 -12.172  1.00  0.00     0.044 C 
ENDBRANCH  16  17
ENDBRANCH   6  16
TORSDOF 3
ENDMDL
MODEL 9
REMARK VINA RESULT:    -4.776      4.864      7.647
REMARK INTER + INTRA:          -5.995
REMARK INTER:                  -6.107
REMARK INTRA:                   0.111
REMARK UNBOUND:                -0.381
REMARK SMILES Cc1ccc(CNC(=O)NC(=O)c2ccc(C)cc2)cc1
REMARK SMILES IDX 11 1 12 2 10 3 8 4 9 5 7 6 13 9 19 10 18 11 14 12 16 13
REMARK SMILES IDX 15 14 17 15 6 16 5 17 4 18 20 19 3 20 21 21 2 22 1 23
REMARK H PARENT 10 7 7 8
ROOT
ATOM      1  C   UNL     1     -13.990   8.925  -8.201  1.00  0.00     0.259 C 
ATOM      2  O   UNL     1     -13.977   8.761  -9.413  1.00  0.00    -0.269 OA
ATOM      3  N   UNL     1     -14.597   9.946  -7.463  1.00  0.00    -0.274 N 
ATOM      4  C   UNL     1     -15.526  10.933  -7.672  1.00  0.00     0.321 C 
ATOM      5  O   UNL     1     -15.912  11.575  -6.689  1.00  0.00    -0.248 OA
ATOM      6  N   UNL     1     -16.055  11.213  -8.877  1.00  0.00    -0.334 N 
ATOM      7  H   UNL     1     -14.451   9.882  -6.464  1.00  0.00     0.175 HD
ATOM      8  H   UNL     1     -16.788  11.908  -8.848  1.00  0.00     0.165 HD
ENDROOT
BRANCH   1   9
ATOM      9  C   UNL     1     -13.278   7.919  -7.390  1.00  0.00     0.040 A 
ATOM     10  C   UNL     1     -13.968   7.013  -6.583  1.00  0.00     0.014 A 
ATOM     11  C   UNL     1     -13.255   6.046  -5.875  1.00  0.00     0.004 A 
ATOM     12  C   UNL     1     -11.881   7.900  -7.446  1.00  0.00     0.014 A 
ATOM     13  C   UNL     1     -11.856   5.985  -5.964  1.00  0.00    -0.051 A 
ATOM     14  C   UNL     1     -11.172   6.928  -6.742  1.00  0.00     0.004 A 
ATOM     15  C   UNL     1     -11.110   4.887  -5.265  1.00  0.00     0.044 C 
ENDBRANCH   1   9
BRANCH   6  16
ATOM     16  C   UNL     1     -15.824  10.526 -10.117  1.00  0.00     0.153 C 
BRANCH  16  17
ATOM     17  C   UNL     1     -16.675   9.321 -10.406  1.00  0.00    -0.029 A 
ATOM     18  C   UNL     1     -16.613   8.614 -11.611  1.00  0.00     0.006 A 
ATOM     19  C   UNL     1     -17.400   8.773  -9.335  1.00  0.00     0.006 A 
ATOM     20  C   UNL     1     -17.245   7.372 -11.728  1.00  0.00     0.004 A 
ATOM     21  C   UNL     1     -18.025   7.536  -9.451  1.00  0.00     0.004 A 
ATOM     22  C   UNL     1     -17.944   6.819 -10.646  1.00  0.00    -0.051 A 
ATOM     23  C   UNL     1     -18.502   5.429 -10.717  1.00  0.00     0.044 C 
ENDBRANCH  16  17
ENDBRANCH   6  16
TORSDOF 3
ENDMDL
