MODEL 1
REMARK VINA RESULT:    -4.099      0.000      0.000
REMARK INTER + INTRA:          -5.653
REMARK INTER:                  -5.417
REMARK INTRA:                  -0.236
REMARK UNBOUND:                -0.236
REMARK SMILES [H]/N=C\C[C@H]1C[C@@H]1O[C@H]1CO[C@H]2C[C@@H](C3CC3)CCN2C1
REMARK SMILES IDX 7 1 6 2 5 3 8 4 9 5 14 6 13 7 18 8 12 9 19 10 20 11 11 12
REMARK SMILES IDX 21 13 10 14 15 15 16 16 17 17 4 18 3 19 2 20 1 21
REMARK H PARENT
ROOT
ATOM      1  C   UNL     1      10.501  -2.600  -7.709  1.00  0.00     0.122 C 
ATOM      2  C   UNL     1      11.174  -3.762  -8.386  1.00  0.00     0.039 C 
ATOM      3  C   UNL     1      10.215  -2.899  -9.155  1.00  0.00     0.026 C 
ENDROOT
BRANCH   1   4
ATOM      4  O   UNL     1       9.488  -2.981  -6.759  1.00  0.00    -0.371 OA
BRANCH   4   5
ATOM      5  C   UNL     1       9.969  -3.602  -5.556  1.00  0.00     0.158 C 
ATOM      6  C   UNL     1       6.590  -1.497  -2.186  1.00  0.00    -0.003 C 
ATOM      7  C   UNL     1       7.793  -0.994  -2.993  1.00  0.00     0.052 C 
ATOM      8  C   UNL     1       5.873  -2.599  -2.977  1.00  0.00     0.019 C 
ATOM      9  C   UNL     1       8.708  -2.147  -3.429  1.00  0.00     0.189 C 
ATOM     10  C   UNL     1       6.844  -3.697  -3.411  1.00  0.00     0.087 C 
ATOM     11  N   UNL     1       7.949  -3.140  -4.189  1.00  0.00    -0.276 NA
ATOM     12  O   UNL     1       9.757  -1.564  -4.205  1.00  0.00    -0.360 OA
ATOM     13  C   UNL     1       8.844  -4.192  -4.687  1.00  0.00     0.121 C 
ATOM     14  C   UNL     1      10.677  -2.532  -4.718  1.00  0.00     0.195 C 
BRANCH   6  15
ATOM     15  C   UNL     1       5.634  -0.373  -1.856  1.00  0.00    -0.008 C 
ATOM     16  C   UNL     1       5.335  -0.021  -0.418  1.00  0.00     0.004 C 
ATOM     17  C   UNL     1       6.137   0.923  -1.266  1.00  0.00     0.004 C 
ENDBRANCH   6  15
ENDBRANCH   4   5
ENDBRANCH   1   4
BRANCH   3  18
ATOM     18  C   UNL     1      10.748  -2.003 -10.233  1.00  0.00     0.053 C 
BRANCH  18  19
ATOM     19  C   UNL     1      11.665  -2.645 -11.240  1.00  0.00     0.074 C 
BRANCH  19  20
ATOM     20  N   UNL     1      11.330  -3.049 -12.420  1.00  0.00    -0.313 NA
ATOM     21  H   UNL     1      10.419  -3.530 -12.412  1.00  0.00     0.186 HD
ENDBRANCH  19  20
ENDBRANCH  18  19
ENDBRANCH   3  18
TORSDOF 6
ENDMDL
MODEL 2
REMARK VINA RESULT:    -4.046      3.185      5.434
REMARK INTER + INTRA:          -5.582
REMARK INTER:                  -5.280
REMARK INTRA:                  -0.302
REMARK UNBOUND:                -0.236
REMARK SMILES [H]/N=C\C[C@H]1C[C@@H]1O[C@H]1CO[C@H]2C[C@@H](C3CC3)CCN2C1
REMARK SMILES IDX 7 1 6 2 5 3 8 4 9 5 14 6 13 7 18 8 12 9 19 10 20 11 11 12
REMARK SMILES IDX 21 13 10 14 15 15 16 16 17 17 4 18 3 19 2 20 1 21
REMARK H PARENT
ROOT
ATOM      1  C   UNL     1      12.633  -2.743  -3.131  1.00  0.00     0.122 C 
ATOM      2  C   UNL     1      12.562  -2.427  -1.663  1.00  0.00     0.039 C 
ATOM      3  C   UNL     1      13.176  -3.718  -2.123  1.00  0.00     0.026 C 
ENDROOT
BRANCH   1   4
ATOM      4  O   UNL     1      11.361  -3.069  -3.723  1.00  0.00    -0.371 OA
BRANCH   4   5
ATOM      5  C   UNL     1      10.989  -2.281  -4.865  1.00  0.00     0.158 C 
ATOM      6  C   UNL     1       5.859  -1.978  -3.970  1.00  0.00    -0.003 C 
ATOM      7  C   UNL     1       6.832  -3.073  -4.425  1.00  0.00     0.052 C 
ATOM      8  C   UNL     1       6.583  -1.023  -3.011  1.00  0.00     0.019 C 
ATOM      9  C   UNL     1       8.130  -2.482  -4.992  1.00  0.00     0.189 C 
ATOM     10  C   UNL     1       7.883  -0.498  -3.620  1.00  0.00     0.087 C 
ATOM     11  N   UNL     1       8.761  -1.601  -4.009  1.00  0.00    -0.276 NA
ATOM     12  O   UNL     1       8.967  -3.589  -5.335  1.00  0.00    -0.360 OA
ATOM     13  C   UNL     1      10.049  -1.113  -4.516  1.00  0.00     0.121 C 
ATOM     14  C   UNL     1      10.242  -3.189  -5.847  1.00  0.00     0.195 C 
BRANCH   6  15
ATOM     15  C   UNL     1       4.633  -2.565  -3.310  1.00  0.00    -0.008 C 
ATOM     16  C   UNL     1       3.268  -2.377  -3.928  1.00  0.00     0.004 C 
ATOM     17  C   UNL     1       3.906  -3.736  -3.928  1.00  0.00     0.004 C 
ENDBRANCH   6  15
ENDBRANCH   4   5
ENDBRANCH   1   4
BRANCH   3  18
ATOM     18  C   UNL     1      14.657  -3.911  -1.979  1.00  0.00     0.053 C 
BRANCH  18  19
ATOM     19  C   UNL     1      15.115  -5.294  -1.597  1.00  0.00     0.074 C 
BRANCH  19  20
ATOM     20  N   UNL     1      15.558  -6.196  -2.409  1.00  0.00    -0.313 NA
ATOM     21  H   UNL     1      15.101  -7.105  -2.252  1.00  0.00     0.186 HD
ENDBRANCH  19  20
ENDBRANCH  18  19
ENDBRANCH   3  18
TORSDOF 6
ENDMDL
MODEL 3
REMARK VINA RESULT:    -3.849      3.755      5.222
REMARK INTER + INTRA:          -5.322
REMARK INTER:                  -5.043
REMARK INTRA:                  -0.279
REMARK UNBOUND:                -0.236
REMARK SMILES [H]/N=C\C[C@H]1C[C@@H]1O[C@H]1CO[C@H]2C[C@@H](C3CC3)CCN2C1
REMARK SMILES IDX 7 1 6 2 5 3 8 4 9 5 14 6 13 7 18 8 12 9 19 10 20 11 11 12
REMARK SMILES IDX 21 13 10 14 15 15 16 16 17 17 4 18 3 19 2 20 1 21
REMARK H PARENT
ROOT
ATOM      1  C   UNL     1      11.808  -1.582 -11.263  1.00  0.00     0.122 C 
ATOM      2  C   UNL     1      11.638  -0.247 -11.931  1.00  0.00     0.039 C 
ATOM      3  C   UNL     1      12.975  -0.639 -11.371  1.00  0.00     0.026 C 
ENDROOT
BRANCH   1   4
ATOM      4  O   UNL     1      11.174  -1.678  -9.974  1.00  0.00    -0.371 OA
BRANCH   4   5
ATOM      5  C   UNL     1      10.638  -2.970  -9.641  1.00  0.00     0.158 C 
ATOM      6  C   UNL     1      11.473  -2.862  -4.494  1.00  0.00    -0.003 C 
ATOM      7  C   UNL     1      12.348  -3.001  -5.746  1.00  0.00     0.052 C 
ATOM      8  C   UNL     1      10.266  -1.970  -4.815  1.00  0.00     0.019 C 
ATOM      9  C   UNL     1      11.534  -3.464  -6.961  1.00  0.00     0.189 C 
ATOM     10  C   UNL     1       9.520  -2.464  -6.054  1.00  0.00     0.087 C 
ATOM     11  N   UNL     1      10.417  -2.551  -7.206  1.00  0.00    -0.276 NA
ATOM     12  O   UNL     1      12.439  -3.511  -8.066  1.00  0.00    -0.360 OA
ATOM     13  C   UNL     1       9.698  -2.941  -8.423  1.00  0.00     0.121 C 
ATOM     14  C   UNL     1      11.808  -3.895  -9.291  1.00  0.00     0.195 C 
BRANCH   6  15
ATOM     15  C   UNL     1      12.256  -2.298  -3.330  1.00  0.00    -0.008 C 
ATOM     16  C   UNL     1      12.717  -3.200  -2.210  1.00  0.00     0.004 C 
ATOM     17  C   UNL     1      13.722  -2.612  -3.158  1.00  0.00     0.004 C 
ENDBRANCH   6  15
ENDBRANCH   4   5
ENDBRANCH   1   4
BRANCH   3  18
ATOM     18  C   UNL     1      14.100  -0.935 -12.317  1.00  0.00     0.053 C 
BRANCH  18  19
ATOM     19  C   UNL     1      15.417  -1.309 -11.689  1.00  0.00     0.074 C 
BRANCH  19  20
ATOM     20  N   UNL     1      15.629  -1.497 -10.429  1.00  0.00    -0.313 NA
ATOM     21  H   UNL     1      14.869  -1.108  -9.854  1.00  0.00     0.186 HD
ENDBRANCH  19  20
ENDBRANCH  18  19
ENDBRANCH   3  18
TORSDOF 6
ENDMDL
MODEL 4
REMARK VINA RESULT:    -3.832      4.955      7.379
REMARK INTER + INTRA:          -5.300
REMARK INTER:                  -5.029
REMARK INTRA:                  -0.271
REMARK UNBOUND:                -0.236
REMARK SMILES [H]/N=C\C[C@H]1C[C@@H]1O[C@H]1CO[C@H]2C[C@@H](C3CC3)CCN2C1
REMARK SMILES IDX 7 1 6 2 5 3 8 4 9 5 14 6 13 7 18 8 12 9 19 10 20 11 11 12
REMARK SMILES IDX 21 13 10 14 15 15 16 16 17 17 4 18 3 19 2 20 1 21
REMARK H PARENT
ROOT
ATOM      1  C   UNL     1      15.317  -5.268  -1.767  1.00  0.00     0.122 C 
ATOM      2  C   UNL     1      15.204  -6.524  -0.949  1.00  0.00     0.039 C 
ATOM      3  C   UNL     1      15.719  -6.592  -2.358  1.00  0.00     0.026 C 
ENDROOT
BRANCH   1   4
ATOM      4  O   UNL     1      14.052  -4.729  -2.193  1.00  0.00    -0.371 OA
BRANCH   4   5
ATOM      5  C   UNL     1      13.970  -3.295  -2.230  1.00  0.00     0.158 C 
ATOM      6  C   UNL     1      10.676  -2.800  -6.243  1.00  0.00    -0.003 C 
ATOM      7  C   UNL     1      12.145  -3.204  -6.072  1.00  0.00     0.052 C 
ATOM      8  C   UNL     1       9.881  -3.241  -5.006  1.00  0.00     0.019 C 
ATOM      9  C   UNL     1      12.724  -2.698  -4.744  1.00  0.00     0.189 C 
ATOM     10  C   UNL     1      10.528  -2.735  -3.717  1.00  0.00     0.087 C 
ATOM     11  N   UNL     1      11.919  -3.177  -3.620  1.00  0.00    -0.276 NA
ATOM     12  O   UNL     1      14.071  -3.171  -4.678  1.00  0.00    -0.360 OA
ATOM     13  C   UNL     1      12.527  -2.772  -2.348  1.00  0.00     0.121 C 
ATOM     14  C   UNL     1      14.734  -2.805  -3.464  1.00  0.00     0.195 C 
BRANCH   6  15
ATOM     15  C   UNL     1      10.079  -3.397  -7.498  1.00  0.00    -0.008 C 
ATOM     16  C   UNL     1       9.883  -2.546  -8.730  1.00  0.00     0.004 C 
ATOM     17  C   UNL     1      10.928  -3.624  -8.726  1.00  0.00     0.004 C 
ENDBRANCH   6  15
ENDBRANCH   4   5
ENDBRANCH   1   4
BRANCH   3  18
ATOM     18  C   UNL     1      17.166  -6.909  -2.588  1.00  0.00     0.053 C 
BRANCH  18  19
ATOM     19  C   UNL     1      17.616  -6.961  -4.025  1.00  0.00     0.074 C 
BRANCH  19  20
ATOM     20  N   UNL     1      16.926  -6.584  -5.049  1.00  0.00    -0.313 NA
ATOM     21  H   UNL     1      16.172  -5.935  -4.781  1.00  0.00     0.186 HD
ENDBRANCH  19  20
ENDBRANCH  18  19
ENDBRANCH   3  18
TORSDOF 6
ENDMDL
MODEL 5
REMARK VINA RESULT:    -3.247      4.164      7.103
REMARK INTER + INTRA:          -4.527
REMARK INTER:                  -4.049
REMARK INTRA:                  -0.479
REMARK UNBOUND:                -0.236
REMARK SMILES [H]/N=C\C[C@H]1C[C@@H]1O[C@H]1CO[C@H]2C[C@@H](C3CC3)CCN2C1
REMARK SMILES IDX 7 1 6 2 5 3 8 4 9 5 14 6 13 7 18 8 12 9 19 10 20 11 11 12
REMARK SMILES IDX 21 13 10 14 15 15 16 16 17 17 4 18 3 19 2 20 1 21
REMARK H PARENT
ROOT
ATOM      1  C   UNL     1      16.427  -3.470 -10.442  1.00  0.00     0.122 C 
ATOM      2  C   UNL     1      17.416  -2.347 -10.303  1.00  0.00     0.039 C 
ATOM      3  C   UNL     1      16.891  -3.038  -9.078  1.00  0.00     0.026 C 
ENDROOT
BRANCH   1   4
ATOM      4  O   UNL     1      15.109  -3.045 -10.839  1.00  0.00    -0.371 OA
BRANCH   4   5
ATOM      5  C   UNL     1      14.202  -4.099 -11.202  1.00  0.00     0.158 C 
ATOM      6  C   UNL     1      10.504  -3.213  -7.632  1.00  0.00    -0.003 C 
ATOM      7  C   UNL     1      11.930  -3.776  -7.619  1.00  0.00     0.052 C 
ATOM      8  C   UNL     1      10.387  -2.151  -8.734  1.00  0.00     0.019 C 
ATOM      9  C   UNL     1      12.362  -4.267  -9.008  1.00  0.00     0.189 C 
ATOM     10  C   UNL     1      10.864  -2.692 -10.082  1.00  0.00     0.087 C 
ATOM     11  N   UNL     1      12.236  -3.191  -9.991  1.00  0.00    -0.276 NA
ATOM     12  O   UNL     1      13.710  -4.721  -8.880  1.00  0.00    -0.360 OA
ATOM     13  C   UNL     1      12.738  -3.633 -11.297  1.00  0.00     0.121 C 
ATOM     14  C   UNL     1      14.267  -5.178 -10.116  1.00  0.00     0.195 C 
BRANCH   6  15
ATOM     15  C   UNL     1      10.126  -2.628  -6.290  1.00  0.00    -0.008 C 
ATOM     16  C   UNL     1       9.565  -3.512  -5.201  1.00  0.00     0.004 C 
ATOM     17  C   UNL     1      10.942  -2.932  -5.056  1.00  0.00     0.004 C 
ENDBRANCH   6  15
ENDBRANCH   4   5
ENDBRANCH   1   4
BRANCH   3  18
ATOM     18  C   UNL     1      17.816  -3.911  -8.284  1.00  0.00     0.053 C 
BRANCH  18  19
ATOM     19  C   UNL     1      17.173  -4.788  -7.240  1.00  0.00     0.074 C 
BRANCH  19  20
ATOM     20  N   UNL     1      15.906  -4.895  -7.018  1.00  0.00    -0.313 NA
ATOM     21  H   UNL     1      15.476  -3.980  -6.820  1.00  0.00     0.186 HD
ENDBRANCH  19  20
ENDBRANCH  18  19
ENDBRANCH   3  18
TORSDOF 6
ENDMDL
MODEL 6
REMARK VINA RESULT:    -3.166      5.018      8.298
REMARK INTER + INTRA:          -4.420
REMARK INTER:                  -4.317
REMARK INTRA:                  -0.103
REMARK UNBOUND:                -0.236
REMARK SMILES [H]/N=C\C[C@H]1C[C@@H]1O[C@H]1CO[C@H]2C[C@@H](C3CC3)CCN2C1
REMARK SMILES IDX 7 1 6 2 5 3 8 4 9 5 14 6 13 7 18 8 12 9 19 10 20 11 11 12
REMARK SMILES IDX 21 13 10 14 15 15 16 16 17 17 4 18 3 19 2 20 1 21
REMARK H PARENT
ROOT
ATOM      1  C   UNL     1      10.559  -2.570  -4.933  1.00  0.00     0.122 C 
ATOM      2  C   UNL     1       9.907  -3.544  -5.873  1.00  0.00     0.039 C 
ATOM      3  C   UNL     1       9.251  -3.214  -4.562  1.00  0.00     0.026 C 
ENDROOT
BRANCH   1   4
ATOM      4  O   UNL     1      11.738  -3.082  -4.282  1.00  0.00    -0.371 OA
BRANCH   4   5
ATOM      5  C   UNL     1      12.461  -2.137  -3.477  1.00  0.00     0.158 C 
ATOM      6  C   UNL     1      16.586  -5.105  -2.301  1.00  0.00    -0.003 C 
ATOM      7  C   UNL     1      15.108  -5.067  -1.893  1.00  0.00     0.052 C 
ATOM      8  C   UNL     1      16.724  -4.624  -3.752  1.00  0.00     0.019 C 
ATOM      9  C   UNL     1      14.479  -3.692  -2.159  1.00  0.00     0.189 C 
ATOM     10  C   UNL     1      16.048  -3.268  -3.958  1.00  0.00     0.087 C 
ATOM     11  N   UNL     1      14.640  -3.320  -3.564  1.00  0.00    -0.276 NA
ATOM     12  O   UNL     1      13.103  -3.794  -1.785  1.00  0.00    -0.360 OA
ATOM     13  C   UNL     1      13.955  -2.052  -3.837  1.00  0.00     0.121 C 
ATOM     14  C   UNL     1      12.370  -2.587  -2.015  1.00  0.00     0.195 C 
BRANCH   6  15
ATOM     15  C   UNL     1      17.169  -6.491  -2.144  1.00  0.00    -0.008 C 
ATOM     16  C   UNL     1      17.824  -6.901  -0.845  1.00  0.00     0.004 C 
ATOM     17  C   UNL     1      16.511  -7.510  -1.245  1.00  0.00     0.004 C 
ENDBRANCH   6  15
ENDBRANCH   4   5
ENDBRANCH   1   4
BRANCH   3  18
ATOM     18  C   UNL     1       7.986  -2.410  -4.565  1.00  0.00     0.053 C 
BRANCH  18  19
ATOM     19  C   UNL     1       6.875  -2.913  -3.680  1.00  0.00     0.074 C 
BRANCH  19  20
ATOM     20  N   UNL     1       6.631  -4.150  -3.400  1.00  0.00    -0.313 NA
ATOM     21  H   UNL     1       5.666  -4.412  -3.646  1.00  0.00     0.186 HD
ENDBRANCH  19  20
ENDBRANCH  18  19
ENDBRANCH   3  18
TORSDOF 6
ENDMDL
MODEL 7
REMARK VINA RESULT:    -3.149      5.133      7.689
REMARK INTER + INTRA:          -4.398
REMARK INTER:                  -4.778
REMARK INTRA:                   0.380
REMARK UNBOUND:                -0.236
REMARK SMILES [H]/N=C\C[C@H]1C[C@@H]1O[C@H]1CO[C@H]2C[C@@H](C3CC3)CCN2C1
REMARK SMILES IDX 7 1 6 2 5 3 8 4 9 5 14 6 13 7 18 8 12 9 19 10 20 11 11 12
REMARK SMILES IDX 21 13 10 14 15 15 16 16 17 17 4 18 3 19 2 20 1 21
REMARK H PARENT
ROOT
ATOM      1  C   UNL     1      10.558  -3.212  -4.919  1.00  0.00     0.122 C 
ATOM      2  C   UNL     1      10.400  -1.753  -5.239  1.00  0.00     0.039 C 
ATOM      3  C   UNL     1      10.674  -2.736  -6.341  1.00  0.00     0.026 C 
ENDROOT
BRANCH   1   4
ATOM      4  O   UNL     1      11.789  -3.536  -4.245  1.00  0.00    -0.371 OA
BRANCH   4   5
ATOM      5  C   UNL     1      12.391  -2.461  -3.504  1.00  0.00     0.158 C 
ATOM      6  C   UNL     1      16.765  -4.885  -2.022  1.00  0.00    -0.003 C 
ATOM      7  C   UNL     1      15.281  -4.970  -1.646  1.00  0.00     0.052 C 
ATOM      8  C   UNL     1      16.892  -4.504  -3.504  1.00  0.00     0.019 C 
ATOM      9  C   UNL     1      14.521  -3.693  -2.030  1.00  0.00     0.189 C 
ATOM     10  C   UNL     1      16.086  -3.246  -3.828  1.00  0.00     0.087 C 
ATOM     11  N   UNL     1      14.681  -3.415  -3.458  1.00  0.00    -0.276 NA
ATOM     12  O   UNL     1      13.154  -3.909  -1.676  1.00  0.00    -0.360 OA
ATOM     13  C   UNL     1      13.877  -2.249  -3.842  1.00  0.00     0.121 C 
ATOM     14  C   UNL     1      12.307  -2.806  -2.013  1.00  0.00     0.195 C 
BRANCH   6  15
ATOM     15  C   UNL     1      17.483  -6.186  -1.746  1.00  0.00    -0.008 C 
ATOM     16  C   UNL     1      17.589  -6.716  -0.335  1.00  0.00     0.004 C 
ATOM     17  C   UNL     1      16.717  -7.420  -1.334  1.00  0.00     0.004 C 
ENDBRANCH   6  15
ENDBRANCH   4   5
ENDBRANCH   1   4
BRANCH   3  18
ATOM     18  C   UNL     1       9.588  -3.039  -7.330  1.00  0.00     0.053 C 
BRANCH  18  19
ATOM     19  C   UNL     1       9.920  -2.794  -8.779  1.00  0.00     0.074 C 
BRANCH  19  20
ATOM     20  N   UNL     1      11.102  -2.611  -9.265  1.00  0.00    -0.313 NA
ATOM     21  H   UNL     1      11.832  -2.970  -8.633  1.00  0.00     0.186 HD
ENDBRANCH  19  20
ENDBRANCH  18  19
ENDBRANCH   3  18
TORSDOF 6
ENDMDL
MODEL 8
REMARK VINA RESULT:    -3.136      5.546      8.522
REMARK INTER + INTRA:          -4.381
REMARK INTER:                  -4.045
REMARK INTRA:                  -0.336
REMARK UNBOUND:                -0.236
REMARK SMILES [H]/N=C\C[C@H]1C[C@@H]1O[C@H]1CO[C@H]2C[C@@H](C3CC3)CCN2C1
REMARK SMILES IDX 7 1 6 2 5 3 8 4 9 5 14 6 13 7 18 8 12 9 19 10 20 11 11 12
REMARK SMILES IDX 21 13 10 14 15 15 16 16 17 17 4 18 3 19 2 20 1 21
REMARK H PARENT
ROOT
ATOM      1  C   UNL     1      16.534  -3.857 -11.627  1.00  0.00     0.122 C 
ATOM      2  C   UNL     1      17.825  -3.396 -11.011  1.00  0.00     0.039 C 
ATOM      3  C   UNL     1      16.583  -3.482 -10.171  1.00  0.00     0.026 C 
ENDROOT
BRANCH   1   4
ATOM      4  O   UNL     1      15.934  -2.900 -12.520  1.00  0.00    -0.371 OA
BRANCH   4   5
ATOM      5  C   UNL     1      14.900  -3.413 -13.375  1.00  0.00     0.158 C 
ATOM      6  C   UNL     1      10.807  -2.531 -10.264  1.00  0.00    -0.003 C 
ATOM      7  C   UNL     1      11.985  -3.513 -10.277  1.00  0.00     0.052 C 
ATOM      8  C   UNL     1      11.249  -1.198 -10.884  1.00  0.00     0.019 C 
ATOM      9  C   UNL     1      12.599  -3.647 -11.677  1.00  0.00     0.189 C 
ATOM     10  C   UNL     1      11.883  -1.405 -12.260  1.00  0.00     0.087 C 
ATOM     11  N   UNL     1      13.008  -2.337 -12.183  1.00  0.00    -0.276 NA
ATOM     12  O   UNL     1      13.706  -4.543 -11.554  1.00  0.00    -0.360 OA
ATOM     13  C   UNL     1      13.681  -2.479 -13.479  1.00  0.00     0.121 C 
ATOM     14  C   UNL     1      14.408  -4.739 -12.785  1.00  0.00     0.195 C 
BRANCH   6  15
ATOM     15  C   UNL     1      10.279  -2.316  -8.864  1.00  0.00    -0.008 C 
ATOM     16  C   UNL     1       9.042  -3.044  -8.394  1.00  0.00     0.004 C 
ATOM     17  C   UNL     1      10.382  -3.404  -7.823  1.00  0.00     0.004 C 
ENDBRANCH   6  15
ENDBRANCH   4   5
ENDBRANCH   1   4
BRANCH   3  18
ATOM     18  C   UNL     1      16.493  -4.542  -9.114  1.00  0.00     0.053 C 
BRANCH  18  19
ATOM     19  C   UNL     1      15.394  -4.376  -8.097  1.00  0.00     0.074 C 
BRANCH  19  20
ATOM     20  N   UNL     1      14.327  -5.099  -8.011  1.00  0.00    -0.313 NA
ATOM     21  H   UNL     1      13.498  -4.595  -8.358  1.00  0.00     0.186 HD
ENDBRANCH  19  20
ENDBRANCH  18  19
ENDBRANCH   3  18
TORSDOF 6
ENDMDL
