MODEL 1
REMARK VINA RESULT:    -4.229      0.000      0.000
REMARK INTER + INTRA:          -5.738
REMARK INTER:                  -5.589
REMARK INTRA:                  -0.149
REMARK UNBOUND:                -0.149
REMARK SMILES [H]/N=C\C[C@H]1C[C@@H]1O[C@H]1CO[C@H]2C[C@@H](C3CC3)CCN2C1
REMARK SMILES IDX 7 1 6 2 5 3 8 4 9 5 14 6 13 7 18 8 12 9 19 10 20 11 11 12
REMARK SMILES IDX 21 13 10 14 15 15 16 16 17 17 4 18 3 19 2 20 1 21
REMARK H PARENT
ROOT
ATOM      1  C   UNL     1     -18.823  -5.573  10.080  1.00  0.00     0.122 C 
ATOM      2  C   UNL     1     -19.018  -7.062  10.043  1.00  0.00     0.039 C 
ATOM      3  C   UNL     1     -17.632  -6.491  10.125  1.00  0.00     0.026 C 
ENDROOT
BRANCH   1   4
ATOM      4  O   UNL     1     -19.083  -4.915   8.825  1.00  0.00    -0.371 OA
BRANCH   4   5
ATOM      5  C   UNL     1     -19.057  -3.479   8.861  1.00  0.00     0.158 C 
ATOM      6  C   UNL     1     -15.308  -2.675   5.324  1.00  0.00    -0.003 C 
ATOM      7  C   UNL     1     -15.366  -3.201   6.764  1.00  0.00     0.052 C 
ATOM      8  C   UNL     1     -16.601  -3.060   4.592  1.00  0.00     0.019 C 
ATOM      9  C   UNL     1     -16.647  -2.757   7.482  1.00  0.00     0.189 C 
ATOM     10  C   UNL     1     -17.839  -2.621   5.374  1.00  0.00     0.087 C 
ATOM     11  N   UNL     1     -17.827  -3.178   6.727  1.00  0.00    -0.276 NA
ATOM     12  O   UNL     1     -16.608  -3.341   8.785  1.00  0.00    -0.360 OA
ATOM     13  C   UNL     1     -19.051  -2.837   7.462  1.00  0.00     0.121 C 
ATOM     14  C   UNL     1     -17.769  -3.044   9.568  1.00  0.00     0.195 C 
BRANCH   6  15
ATOM     15  C   UNL     1     -14.101  -3.209   4.586  1.00  0.00    -0.008 C 
ATOM     16  C   UNL     1     -13.171  -2.265   3.861  1.00  0.00     0.004 C 
ATOM     17  C   UNL     1     -12.706  -2.962   5.106  1.00  0.00     0.004 C 
ENDBRANCH   6  15
ENDBRANCH   4   5
ENDBRANCH   1   4
BRANCH   3  18
ATOM     18  C   UNL     1     -16.852  -6.655  11.395  1.00  0.00     0.053 C 
BRANCH  18  19
ATOM     19  C   UNL     1     -15.426  -6.171  11.369  1.00  0.00     0.074 C 
BRANCH  19  20
ATOM     20  N   UNL     1     -14.375  -6.916  11.287  1.00  0.00    -0.313 NA
ATOM     21  H   UNL     1     -14.604  -7.912  11.420  1.00  0.00     0.186 HD
ENDBRANCH  19  20
ENDBRANCH  18  19
ENDBRANCH   3  18
TORSDOF 6
ENDMDL
MODEL 2
REMARK VINA RESULT:    -4.105      3.732      8.069
REMARK INTER + INTRA:          -5.574
REMARK INTER:                  -5.452
REMARK INTRA:                  -0.122
REMARK UNBOUND:                -0.149
REMARK SMILES [H]/N=C\C[C@H]1C[C@@H]1O[C@H]1CO[C@H]2C[C@@H](C3CC3)CCN2C1
REMARK SMILES IDX 7 1 6 2 5 3 8 4 9 5 14 6 13 7 18 8 12 9 19 10 20 11 11 12
REMARK SMILES IDX 21 13 10 14 15 15 16 16 17 17 4 18 3 19 2 20 1 21
REMARK H PARENT
ROOT
ATOM      1  C   UNL     1     -12.432  -1.266   2.835  1.00  0.00     0.122 C 
ATOM      2  C   UNL     1     -12.783  -0.071   1.993  1.00  0.00     0.039 C 
ATOM      3  C   UNL     1     -11.660   0.016   2.987  1.00  0.00     0.026 C 
ENDROOT
BRANCH   1   4
ATOM      4  O   UNL     1     -13.397  -1.563   3.863  1.00  0.00    -0.371 OA
BRANCH   4   5
ATOM      5  C   UNL     1     -13.463  -2.939   4.271  1.00  0.00     0.158 C 
ATOM      6  C   UNL     1     -15.620  -2.258   8.971  1.00  0.00    -0.003 C 
ATOM      7  C   UNL     1     -14.244  -1.997   8.346  1.00  0.00     0.052 C 
ATOM      8  C   UNL     1     -16.706  -2.078   7.901  1.00  0.00     0.019 C 
ATOM      9  C   UNL     1     -14.023  -2.840   7.083  1.00  0.00     0.189 C 
ATOM     10  C   UNL     1     -16.409  -2.917   6.658  1.00  0.00     0.087 C 
ATOM     11  N   UNL     1     -15.090  -2.596   6.113  1.00  0.00    -0.276 NA
ATOM     12  O   UNL     1     -12.739  -2.479   6.570  1.00  0.00    -0.360 OA
ATOM     13  C   UNL     1     -14.826  -3.329   4.870  1.00  0.00     0.121 C 
ATOM     14  C   UNL     1     -12.407  -3.164   5.359  1.00  0.00     0.195 C 
BRANCH   6  15
ATOM     15  C   UNL     1     -15.877  -1.343  10.147  1.00  0.00    -0.008 C 
ATOM     16  C   UNL     1     -16.849  -1.747  11.231  1.00  0.00     0.004 C 
ATOM     17  C   UNL     1     -15.378  -1.697  11.527  1.00  0.00     0.004 C 
ENDBRANCH   6  15
ENDBRANCH   4   5
ENDBRANCH   1   4
BRANCH   3  18
ATOM     18  C   UNL     1     -10.250   0.113   2.484  1.00  0.00     0.053 C 
BRANCH  18  19
ATOM     19  C   UNL     1      -9.391   1.180   3.111  1.00  0.00     0.074 C 
BRANCH  19  20
ATOM     20  N   UNL     1      -9.817   2.263   3.672  1.00  0.00    -0.313 NA
ATOM     21  H   UNL     1     -10.759   2.140   4.068  1.00  0.00     0.186 HD
ENDBRANCH  19  20
ENDBRANCH  18  19
ENDBRANCH   3  18
TORSDOF 6
ENDMDL
MODEL 3
REMARK VINA RESULT:    -4.060      8.321     10.735
REMARK INTER + INTRA:          -5.514
REMARK INTER:                  -5.267
REMARK INTRA:                  -0.247
REMARK UNBOUND:                -0.149
REMARK SMILES [H]/N=C\C[C@H]1C[C@@H]1O[C@H]1CO[C@H]2C[C@@H](C3CC3)CCN2C1
REMARK SMILES IDX 7 1 6 2 5 3 8 4 9 5 14 6 13 7 18 8 12 9 19 10 20 11 11 12
REMARK SMILES IDX 21 13 10 14 15 15 16 16 17 17 4 18 3 19 2 20 1 21
REMARK H PARENT
ROOT
ATOM      1  C   UNL     1     -14.121  -0.121   0.611  1.00  0.00     0.122 C 
ATOM      2  C   UNL     1     -15.274   0.719   1.082  1.00  0.00     0.039 C 
ATOM      3  C   UNL     1     -14.845   0.775  -0.356  1.00  0.00     0.026 C 
ENDROOT
BRANCH   1   4
ATOM      4  O   UNL     1     -12.835   0.335   1.073  1.00  0.00    -0.371 OA
BRANCH   4   5
ATOM      5  C   UNL     1     -12.542   0.067   2.454  1.00  0.00     0.158 C 
ATOM      6  C   UNL     1      -7.763  -1.939   1.866  1.00  0.00    -0.003 C 
ATOM      7  C   UNL     1      -9.194  -2.404   1.568  1.00  0.00     0.052 C 
ATOM      8  C   UNL     1      -7.681  -0.415   1.701  1.00  0.00     0.019 C 
ATOM      9  C   UNL     1     -10.229  -1.628   2.394  1.00  0.00     0.189 C 
ATOM     10  C   UNL     1      -8.758   0.295   2.520  1.00  0.00     0.087 C 
ATOM     11  N   UNL     1     -10.091  -0.190   2.165  1.00  0.00    -0.276 NA
ATOM     12  O   UNL     1     -11.514  -2.114   2.000  1.00  0.00    -0.360 OA
ATOM     13  C   UNL     1     -11.142   0.543   2.880  1.00  0.00     0.121 C 
ATOM     14  C   UNL     1     -12.592  -1.450   2.665  1.00  0.00     0.195 C 
BRANCH   6  15
ATOM     15  C   UNL     1      -6.759  -2.625   0.968  1.00  0.00    -0.008 C 
ATOM     16  C   UNL     1      -5.587  -3.370   1.563  1.00  0.00     0.004 C 
ATOM     17  C   UNL     1      -6.693  -4.131   0.891  1.00  0.00     0.004 C 
ENDBRANCH   6  15
ENDBRANCH   4   5
ENDBRANCH   1   4
BRANCH   3  18
ATOM     18  C   UNL     1     -15.741   0.188  -1.405  1.00  0.00     0.053 C 
BRANCH  18  19
ATOM     19  C   UNL     1     -17.132   0.760  -1.489  1.00  0.00     0.074 C 
BRANCH  19  20
ATOM     20  N   UNL     1     -17.507   1.731  -2.253  1.00  0.00    -0.313 NA
ATOM     21  H   UNL     1     -18.141   1.407  -2.997  1.00  0.00     0.186 HD
ENDBRANCH  19  20
ENDBRANCH  18  19
ENDBRANCH   3  18
TORSDOF 6
ENDMDL
MODEL 4
REMARK VINA RESULT:    -3.996      5.418      8.393
REMARK INTER + INTRA:          -5.431
REMARK INTER:                  -5.209
REMARK INTRA:                  -0.221
REMARK UNBOUND:                -0.149
REMARK SMILES [H]/N=C\C[C@H]1C[C@@H]1O[C@H]1CO[C@H]2C[C@@H](C3CC3)CCN2C1
REMARK SMILES IDX 7 1 6 2 5 3 8 4 9 5 14 6 13 7 18 8 12 9 19 10 20 11 11 12
REMARK SMILES IDX 21 13 10 14 15 15 16 16 17 17 4 18 3 19 2 20 1 21
REMARK H PARENT
ROOT
ATOM      1  C   UNL     1     -13.229  -2.159   4.730  1.00  0.00     0.122 C 
ATOM      2  C   UNL     1     -14.424  -3.038   4.970  1.00  0.00     0.039 C 
ATOM      3  C   UNL     1     -13.306  -3.004   5.972  1.00  0.00     0.026 C 
ENDROOT
BRANCH   1   4
ATOM      4  O   UNL     1     -12.356  -2.628   3.684  1.00  0.00    -0.371 OA
BRANCH   4   5
ATOM      5  C   UNL     1     -12.777  -2.326   2.344  1.00  0.00     0.158 C 
ATOM      6  C   UNL     1      -8.233  -0.576   0.474  1.00  0.00    -0.003 C 
ATOM      7  C   UNL     1      -9.293  -0.053   1.451  1.00  0.00     0.052 C 
ATOM      8  C   UNL     1      -8.170  -2.107   0.566  1.00  0.00     0.019 C 
ATOM      9  C   UNL     1     -10.646  -0.748   1.249  1.00  0.00     0.189 C 
ATOM     10  C   UNL     1      -9.553  -2.734   0.391  1.00  0.00     0.087 C 
ATOM     11  N   UNL     1     -10.499  -2.198   1.369  1.00  0.00    -0.276 NA
ATOM     12  O   UNL     1     -11.531  -0.215   2.237  1.00  0.00    -0.360 OA
ATOM     13  C   UNL     1     -11.808  -2.853   1.271  1.00  0.00     0.121 C 
ATOM     14  C   UNL     1     -12.835  -0.802   2.196  1.00  0.00     0.195 C 
BRANCH   6  15
ATOM     15  C   UNL     1      -6.875   0.028   0.753  1.00  0.00    -0.008 C 
ATOM     16  C   UNL     1      -5.994   0.484  -0.386  1.00  0.00     0.004 C 
ATOM     17  C   UNL     1      -6.622   1.499   0.525  1.00  0.00     0.004 C 
ENDBRANCH   6  15
ENDBRANCH   4   5
ENDBRANCH   1   4
BRANCH   3  18
ATOM     18  C   UNL     1     -13.546  -2.365   7.307  1.00  0.00     0.053 C 
BRANCH  18  19
ATOM     19  C   UNL     1     -14.749  -2.852   8.073  1.00  0.00     0.074 C 
BRANCH  19  20
ATOM     20  N   UNL     1     -14.772  -3.853   8.889  1.00  0.00    -0.313 NA
ATOM     21  H   UNL     1     -14.107  -3.726   9.664  1.00  0.00     0.186 HD
ENDBRANCH  19  20
ENDBRANCH  18  19
ENDBRANCH   3  18
TORSDOF 6
ENDMDL
MODEL 5
REMARK VINA RESULT:    -3.921      4.125      5.955
REMARK INTER + INTRA:          -5.331
REMARK INTER:                  -5.056
REMARK INTRA:                  -0.275
REMARK UNBOUND:                -0.149
REMARK SMILES [H]/N=C\C[C@H]1C[C@@H]1O[C@H]1CO[C@H]2C[C@@H](C3CC3)CCN2C1
REMARK SMILES IDX 7 1 6 2 5 3 8 4 9 5 14 6 13 7 18 8 12 9 19 10 20 11 11 12
REMARK SMILES IDX 21 13 10 14 15 15 16 16 17 17 4 18 3 19 2 20 1 21
REMARK H PARENT
ROOT
ATOM      1  C   UNL     1     -14.504  -2.040   8.424  1.00  0.00     0.122 C 
ATOM      2  C   UNL     1     -13.993  -1.194   9.555  1.00  0.00     0.039 C 
ATOM      3  C   UNL     1     -15.313  -0.871   8.916  1.00  0.00     0.026 C 
ENDROOT
BRANCH   1   4
ATOM      4  O   UNL     1     -13.793  -1.856   7.185  1.00  0.00    -0.371 OA
BRANCH   4   5
ATOM      5  C   UNL     1     -13.693  -3.021   6.349  1.00  0.00     0.158 C 
ATOM      6  C   UNL     1     -13.573  -0.645   1.707  1.00  0.00    -0.003 C 
ATOM      7  C   UNL     1     -14.636  -0.903   2.782  1.00  0.00     0.052 C 
ATOM      8  C   UNL     1     -12.202  -0.482   2.378  1.00  0.00     0.019 C 
ATOM      9  C   UNL     1     -14.247  -2.069   3.700  1.00  0.00     0.189 C 
ATOM     10  C   UNL     1     -11.891  -1.658   3.304  1.00  0.00     0.087 C 
ATOM     11  N   UNL     1     -12.940  -1.825   4.310  1.00  0.00    -0.276 NA
ATOM     12  O   UNL     1     -15.282  -2.182   4.679  1.00  0.00    -0.360 OA
ATOM     13  C   UNL     1     -12.613  -2.894   5.260  1.00  0.00     0.121 C 
ATOM     14  C   UNL     1     -15.036  -3.214   5.638  1.00  0.00     0.195 C 
BRANCH   6  15
ATOM     15  C   UNL     1     -13.907   0.575   0.878  1.00  0.00    -0.008 C 
ATOM     16  C   UNL     1     -14.401   0.422  -0.541  1.00  0.00     0.004 C 
ATOM     17  C   UNL     1     -15.338   0.905   0.528  1.00  0.00     0.004 C 
ENDBRANCH   6  15
ENDBRANCH   4   5
ENDBRANCH   1   4
BRANCH   3  18
ATOM     18  C   UNL     1     -16.573  -1.099   9.697  1.00  0.00     0.053 C 
BRANCH  18  19
ATOM     19  C   UNL     1     -17.853  -0.650   9.041  1.00  0.00     0.074 C 
BRANCH  19  20
ATOM     20  N   UNL     1     -17.945   0.061   7.967  1.00  0.00    -0.313 NA
ATOM     21  H   UNL     1     -18.027   1.065   8.182  1.00  0.00     0.186 HD
ENDBRANCH  19  20
ENDBRANCH  18  19
ENDBRANCH   3  18
TORSDOF 6
ENDMDL
MODEL 6
REMARK VINA RESULT:    -3.875      1.765      2.250
REMARK INTER + INTRA:          -5.271
REMARK INTER:                  -5.576
REMARK INTRA:                   0.306
REMARK UNBOUND:                -0.149
REMARK SMILES [H]/N=C\C[C@H]1C[C@@H]1O[C@H]1CO[C@H]2C[C@@H](C3CC3)CCN2C1
REMARK SMILES IDX 7 1 6 2 5 3 8 4 9 5 14 6 13 7 18 8 12 9 19 10 20 11 11 12
REMARK SMILES IDX 21 13 10 14 15 15 16 16 17 17 4 18 3 19 2 20 1 21
REMARK H PARENT
ROOT
ATOM      1  C   UNL     1     -16.811  -5.687  10.681  1.00  0.00     0.122 C 
ATOM      2  C   UNL     1     -18.268  -5.319  10.644  1.00  0.00     0.039 C 
ATOM      3  C   UNL     1     -17.802  -6.596  10.006  1.00  0.00     0.026 C 
ENDROOT
BRANCH   1   4
ATOM      4  O   UNL     1     -15.981  -4.885   9.820  1.00  0.00    -0.371 OA
BRANCH   4   5
ATOM      5  C   UNL     1     -16.376  -3.510   9.684  1.00  0.00     0.158 C 
ATOM      6  C   UNL     1     -14.234  -2.536   5.029  1.00  0.00    -0.003 C 
ATOM      7  C   UNL     1     -13.712  -2.758   6.454  1.00  0.00     0.052 C 
ATOM      8  C   UNL     1     -15.508  -3.368   4.820  1.00  0.00     0.019 C 
ATOM      9  C   UNL     1     -14.801  -2.509   7.506  1.00  0.00     0.189 C 
ATOM     10  C   UNL     1     -16.536  -3.099   5.918  1.00  0.00     0.087 C 
ATOM     11  N   UNL     1     -15.967  -3.352   7.242  1.00  0.00    -0.276 NA
ATOM     12  O   UNL     1     -14.213  -2.790   8.777  1.00  0.00    -0.360 OA
ATOM     13  C   UNL     1     -16.968  -3.182   8.302  1.00  0.00     0.121 C 
ATOM     14  C   UNL     1     -15.130  -2.636   9.865  1.00  0.00     0.195 C 
BRANCH   6  15
ATOM     15  C   UNL     1     -13.192  -2.893   3.994  1.00  0.00    -0.008 C 
ATOM     16  C   UNL     1     -12.882  -1.941   2.862  1.00  0.00     0.004 C 
ATOM     17  C   UNL     1     -11.869  -2.167   3.946  1.00  0.00     0.004 C 
ENDBRANCH   6  15
ENDBRANCH   4   5
ENDBRANCH   1   4
BRANCH   3  18
ATOM     18  C   UNL     1     -18.180  -7.903  10.635  1.00  0.00     0.053 C 
BRANCH  18  19
ATOM     19  C   UNL     1     -17.625  -9.142   9.982  1.00  0.00     0.074 C 
BRANCH  19  20
ATOM     20  N   UNL     1     -16.848 -10.010  10.541  1.00  0.00    -0.313 NA
ATOM     21  H   UNL     1     -17.018 -10.959  10.180  1.00  0.00     0.186 HD
ENDBRANCH  19  20
ENDBRANCH  18  19
ENDBRANCH   3  18
TORSDOF 6
ENDMDL
MODEL 7
REMARK VINA RESULT:    -3.791      7.615     10.061
REMARK INTER + INTRA:          -5.160
REMARK INTER:                  -5.270
REMARK INTRA:                   0.110
REMARK UNBOUND:                -0.149
REMARK SMILES [H]/N=C\C[C@H]1C[C@@H]1O[C@H]1CO[C@H]2C[C@@H](C3CC3)CCN2C1
REMARK SMILES IDX 7 1 6 2 5 3 8 4 9 5 14 6 13 7 18 8 12 9 19 10 20 11 11 12
REMARK SMILES IDX 21 13 10 14 15 15 16 16 17 17 4 18 3 19 2 20 1 21
REMARK H PARENT
ROOT
ATOM      1  C   UNL     1     -13.973   1.016   0.969  1.00  0.00     0.122 C 
ATOM      2  C   UNL     1     -14.765   0.651  -0.255  1.00  0.00     0.039 C 
ATOM      3  C   UNL     1     -15.334   0.392   1.111  1.00  0.00     0.026 C 
ENDROOT
BRANCH   1   4
ATOM      4  O   UNL     1     -12.841   0.159   1.213  1.00  0.00    -0.371 OA
BRANCH   4   5
ATOM      5  C   UNL     1     -12.452   0.024   2.590  1.00  0.00     0.158 C 
ATOM      6  C   UNL     1      -7.656  -1.892   1.865  1.00  0.00    -0.003 C 
ATOM      7  C   UNL     1      -9.086  -2.422   1.705  1.00  0.00     0.052 C 
ATOM      8  C   UNL     1      -7.636  -0.388   1.561  1.00  0.00     0.019 C 
ATOM      9  C   UNL     1     -10.092  -1.605   2.526  1.00  0.00     0.189 C 
ATOM     10  C   UNL     1      -8.682   0.363   2.385  1.00  0.00     0.087 C 
ATOM     11  N   UNL     1     -10.018  -0.190   2.163  1.00  0.00    -0.276 NA
ATOM     12  O   UNL     1     -11.382  -2.159   2.262  1.00  0.00    -0.360 OA
ATOM     13  C   UNL     1     -11.045   0.575   2.879  1.00  0.00     0.121 C 
ATOM     14  C   UNL     1     -12.438  -1.468   2.937  1.00  0.00     0.195 C 
BRANCH   6  15
ATOM     15  C   UNL     1      -6.688  -2.628   0.966  1.00  0.00    -0.008 C 
ATOM     16  C   UNL     1      -5.553  -3.429   1.560  1.00  0.00     0.004 C 
ATOM     17  C   UNL     1      -6.696  -4.136   0.891  1.00  0.00     0.004 C 
ENDBRANCH   6  15
ENDBRANCH   4   5
ENDBRANCH   1   4
BRANCH   3  18
ATOM     18  C   UNL     1     -16.497   1.213   1.581  1.00  0.00     0.053 C 
BRANCH  18  19
ATOM     19  C   UNL     1     -17.373   0.586   2.634  1.00  0.00     0.074 C 
BRANCH  19  20
ATOM     20  N   UNL     1     -17.566   1.040   3.828  1.00  0.00    -0.313 NA
ATOM     21  H   UNL     1     -18.567   1.187   4.021  1.00  0.00     0.186 HD
ENDBRANCH  19  20
ENDBRANCH  18  19
ENDBRANCH   3  18
TORSDOF 6
ENDMDL
MODEL 8
REMARK VINA RESULT:    -3.696      6.195     10.199
REMARK INTER + INTRA:          -5.034
REMARK INTER:                  -4.993
REMARK INTRA:                  -0.041
REMARK UNBOUND:                -0.149
REMARK SMILES [H]/N=C\C[C@H]1C[C@@H]1O[C@H]1CO[C@H]2C[C@@H](C3CC3)CCN2C1
REMARK SMILES IDX 7 1 6 2 5 3 8 4 9 5 14 6 13 7 18 8 12 9 19 10 20 11 11 12
REMARK SMILES IDX 21 13 10 14 15 15 16 16 17 17 4 18 3 19 2 20 1 21
REMARK H PARENT
ROOT
ATOM      1  C   UNL     1     -16.855  -0.104  -2.268  1.00  0.00     0.122 C 
ATOM      2  C   UNL     1     -17.619  -1.283  -2.800  1.00  0.00     0.039 C 
ATOM      3  C   UNL     1     -18.351  -0.161  -2.121  1.00  0.00     0.026 C 
ENDROOT
BRANCH   1   4
ATOM      4  O   UNL     1     -16.080  -0.390  -1.088  1.00  0.00    -0.371 OA
BRANCH   4   5
ATOM      5  C   UNL     1     -15.483   0.750  -0.448  1.00  0.00     0.158 C 
ATOM      6  C   UNL     1     -13.184  -1.708   3.538  1.00  0.00    -0.003 C 
ATOM      7  C   UNL     1     -14.625  -1.353   3.150  1.00  0.00     0.052 C 
ATOM      8  C   UNL     1     -12.364  -1.960   2.265  1.00  0.00     0.019 C 
ATOM      9  C   UNL     1     -14.675  -0.203   2.134  1.00  0.00     0.189 C 
ATOM     10  C   UNL     1     -12.484  -0.796   1.283  1.00  0.00     0.087 C 
ATOM     11  N   UNL     1     -13.884  -0.534   0.949  1.00  0.00    -0.276 NA
ATOM     12  O   UNL     1     -16.053   0.003   1.818  1.00  0.00    -0.360 OA
ATOM     13  C   UNL     1     -14.011   0.524  -0.059  1.00  0.00     0.121 C 
ATOM     14  C   UNL     1     -16.257   1.030   0.844  1.00  0.00     0.195 C 
BRANCH   6  15
ATOM     15  C   UNL     1     -13.135  -2.913   4.449  1.00  0.00    -0.008 C 
ATOM     16  C   UNL     1     -12.799  -2.752   5.912  1.00  0.00     0.004 C 
ATOM     17  C   UNL     1     -14.193  -3.129   5.503  1.00  0.00     0.004 C 
ENDBRANCH   6  15
ENDBRANCH   4   5
ENDBRANCH   1   4
BRANCH   3  18
ATOM     18  C   UNL     1     -19.226   0.738  -2.942  1.00  0.00     0.053 C 
BRANCH  18  19
ATOM     19  C   UNL     1     -19.619   2.047  -2.308  1.00  0.00     0.074 C 
BRANCH  19  20
ATOM     20  N   UNL     1     -19.068   2.580  -1.269  1.00  0.00    -0.313 NA
ATOM     21  H   UNL     1     -19.017   1.915  -0.484  1.00  0.00     0.186 HD
ENDBRANCH  19  20
ENDBRANCH  18  19
ENDBRANCH   3  18
TORSDOF 6
ENDMDL
MODEL 9
REMARK VINA RESULT:    -3.647      7.908     10.022
REMARK INTER + INTRA:          -4.969
REMARK INTER:                  -5.001
REMARK INTRA:                   0.032
REMARK UNBOUND:                -0.149
REMARK SMILES [H]/N=C\C[C@H]1C[C@@H]1O[C@H]1CO[C@H]2C[C@@H](C3CC3)CCN2C1
REMARK SMILES IDX 7 1 6 2 5 3 8 4 9 5 14 6 13 7 18 8 12 9 19 10 20 11 11 12
REMARK SMILES IDX 21 13 10 14 15 15 16 16 17 17 4 18 3 19 2 20 1 21
REMARK H PARENT
ROOT
ATOM      1  C   UNL     1     -12.632  -1.171   1.807  1.00  0.00     0.122 C 
ATOM      2  C   UNL     1     -12.623  -2.359   2.726  1.00  0.00     0.039 C 
ATOM      3  C   UNL     1     -12.162  -2.509   1.305  1.00  0.00     0.026 C 
ENDROOT
BRANCH   1   4
ATOM      4  O   UNL     1     -13.949  -0.755   1.398  1.00  0.00    -0.371 OA
BRANCH   4   5
ATOM      5  C   UNL     1     -14.115   0.656   1.184  1.00  0.00     0.158 C 
ATOM      6  C   UNL     1     -18.570   0.520  -1.524  1.00  0.00    -0.003 C 
ATOM      7  C   UNL     1     -17.107   0.152  -1.798  1.00  0.00     0.052 C 
ATOM      8  C   UNL     1     -18.887   0.273  -0.043  1.00  0.00     0.019 C 
ATOM      9  C   UNL     1     -16.150   0.857  -0.827  1.00  0.00     0.189 C 
ATOM     10  C   UNL     1     -17.880   0.973   0.869  1.00  0.00     0.087 C 
ATOM     11  N   UNL     1     -16.513   0.554   0.558  1.00  0.00    -0.276 NA
ATOM     12  O   UNL     1     -14.834   0.403  -1.148  1.00  0.00    -0.360 OA
ATOM     13  C   UNL     1     -15.542   1.151   1.481  1.00  0.00     0.121 C 
ATOM     14  C   UNL     1     -13.828   0.952  -0.291  1.00  0.00     0.195 C 
BRANCH   6  15
ATOM     15  C   UNL     1     -19.514  -0.264  -2.408  1.00  0.00    -0.008 C 
ATOM     16  C   UNL     1     -19.506  -0.060  -3.904  1.00  0.00     0.004 C 
ATOM     17  C   UNL     1     -18.997  -1.347  -3.323  1.00  0.00     0.004 C 
ENDBRANCH   6  15
ENDBRANCH   4   5
ENDBRANCH   1   4
BRANCH   3  18
ATOM     18  C   UNL     1     -10.706  -2.745   1.034  1.00  0.00     0.053 C 
BRANCH  18  19
ATOM     19  C   UNL     1     -10.382  -3.818   0.028  1.00  0.00     0.074 C 
BRANCH  19  20
ATOM     20  N   UNL     1     -11.084  -4.877  -0.204  1.00  0.00    -0.313 NA
ATOM     21  H   UNL     1     -11.787  -5.034   0.532  1.00  0.00     0.186 HD
ENDBRANCH  19  20
ENDBRANCH  18  19
ENDBRANCH   3  18
TORSDOF 6
ENDMDL
