MODEL 1
REMARK VINA RESULT:    -6.025      0.000      0.000
REMARK INTER + INTRA:          -7.585
REMARK INTER:                  -7.081
REMARK INTRA:                  -0.503
REMARK UNBOUND:                -0.503
REMARK SMILES Cc1ccc(CNC(=O)NC(=O)c2ccc(C)cc2)cc1
REMARK SMILES IDX 11 1 12 2 10 3 8 4 9 5 7 6 13 9 19 10 18 11 14 12 16 13
REMARK SMILES IDX 15 14 17 15 6 16 5 17 4 18 20 19 3 20 21 21 2 22 1 23
REMARK H PARENT 10 7 7 8
ROOT
ATOM      1  C   UNL     1     -12.895  -2.064   4.022  1.00  0.00     0.259 C 
ATOM      2  O   UNL     1     -11.727  -2.426   4.014  1.00  0.00    -0.269 OA
ATOM      3  N   UNL     1     -13.577  -1.290   3.078  1.00  0.00    -0.274 N 
ATOM      4  C   UNL     1     -13.384  -0.858   1.790  1.00  0.00     0.321 C 
ATOM      5  O   UNL     1     -14.321  -0.278   1.233  1.00  0.00    -0.248 OA
ATOM      6  N   UNL     1     -12.246  -1.061   1.101  1.00  0.00    -0.334 N 
ATOM      7  H   UNL     1     -14.542  -1.099   3.313  1.00  0.00     0.175 HD
ATOM      8  H   UNL     1     -12.294  -0.759   0.138  1.00  0.00     0.165 HD
ENDROOT
BRANCH   1   9
ATOM      9  C   UNL     1     -13.713  -2.495   5.171  1.00  0.00     0.040 A 
ATOM     10  C   UNL     1     -13.198  -2.503   6.469  1.00  0.00     0.014 A 
ATOM     11  C   UNL     1     -14.026  -2.868   7.531  1.00  0.00     0.004 A 
ATOM     12  C   UNL     1     -15.027  -2.906   4.925  1.00  0.00     0.014 A 
ATOM     13  C   UNL     1     -15.362  -3.232   7.300  1.00  0.00    -0.051 A 
ATOM     14  C   UNL     1     -15.852  -3.264   5.989  1.00  0.00     0.004 A 
ATOM     15  C   UNL     1     -16.262  -3.541   8.460  1.00  0.00     0.044 C 
ENDBRANCH   1   9
BRANCH   6  16
ATOM     16  C   UNL     1     -11.086  -1.796   1.521  1.00  0.00     0.153 C 
BRANCH  16  17
ATOM     17  C   UNL     1      -9.743  -1.169   1.266  1.00  0.00    -0.029 A 
ATOM     18  C   UNL     1      -9.068  -1.280   0.046  1.00  0.00     0.006 A 
ATOM     19  C   UNL     1      -9.261  -0.268   2.229  1.00  0.00     0.006 A 
ATOM     20  C   UNL     1      -7.947  -0.482  -0.208  1.00  0.00     0.004 A 
ATOM     21  C   UNL     1      -8.149   0.528   1.973  1.00  0.00     0.004 A 
ATOM     22  C   UNL     1      -7.488   0.436   0.747  1.00  0.00    -0.051 A 
ATOM     23  C   UNL     1      -6.379   1.392   0.428  1.00  0.00     0.044 C 
ENDBRANCH  16  17
ENDBRANCH   6  16
TORSDOF 3
ENDMDL
MODEL 2
REMARK VINA RESULT:    -6.016      2.991      5.427
REMARK INTER + INTRA:          -7.574
REMARK INTER:                  -7.068
REMARK INTRA:                  -0.506
REMARK UNBOUND:                -0.503
REMARK SMILES Cc1ccc(CNC(=O)NC(=O)c2ccc(C)cc2)cc1
REMARK SMILES IDX 11 1 12 2 10 3 8 4 9 5 7 6 13 9 19 10 18 11 14 12 16 13
REMARK SMILES IDX 15 14 17 15 6 16 5 17 4 18 20 19 3 20 21 21 2 22 1 23
REMARK H PARENT 10 7 7 8
ROOT
ATOM      1  C   UNL     1     -13.635  -0.228   1.033  1.00  0.00     0.259 C 
ATOM      2  O   UNL     1     -12.598   0.073   0.459  1.00  0.00    -0.269 OA
ATOM      3  N   UNL     1     -13.803  -0.982   2.198  1.00  0.00    -0.274 N 
ATOM      4  C   UNL     1     -13.023  -1.447   3.226  1.00  0.00     0.321 C 
ATOM      5  O   UNL     1     -13.593  -1.988   4.179  1.00  0.00    -0.248 OA
ATOM      6  N   UNL     1     -11.684  -1.316   3.261  1.00  0.00    -0.334 N 
ATOM      7  H   UNL     1     -14.767  -1.118   2.472  1.00  0.00     0.175 HD
ATOM      8  H   UNL     1     -11.267  -1.633   4.125  1.00  0.00     0.165 HD
ENDROOT
BRANCH   1   9
ATOM      9  C   UNL     1     -14.890   0.266   0.433  1.00  0.00     0.040 A 
ATOM     10  C   UNL     1     -15.085   0.267  -0.949  1.00  0.00     0.014 A 
ATOM     11  C   UNL     1     -16.308   0.695  -1.466  1.00  0.00     0.004 A 
ATOM     12  C   UNL     1     -15.884   0.745   1.292  1.00  0.00     0.014 A 
ATOM     13  C   UNL     1     -17.332   1.128  -0.610  1.00  0.00    -0.051 A 
ATOM     14  C   UNL     1     -17.106   1.165   0.772  1.00  0.00     0.004 A 
ATOM     15  C   UNL     1     -18.669   1.504  -1.175  1.00  0.00     0.044 C 
ENDBRANCH   1   9
BRANCH   6  16
ATOM     16  C   UNL     1     -10.845  -0.635   2.316  1.00  0.00     0.153 C 
BRANCH  16  17
ATOM     17  C   UNL     1      -9.594  -1.340   1.870  1.00  0.00    -0.029 A 
ATOM     18  C   UNL     1      -8.391  -1.285   2.582  1.00  0.00     0.006 A 
ATOM     19  C   UNL     1      -9.714  -2.256   0.812  1.00  0.00     0.006 A 
ATOM     20  C   UNL     1      -7.341  -2.148   2.251  1.00  0.00     0.004 A 
ATOM     21  C   UNL     1      -8.671  -3.117   0.487  1.00  0.00     0.004 A 
ATOM     22  C   UNL     1      -7.479  -3.078   1.211  1.00  0.00    -0.051 A 
ATOM     23  C   UNL     1      -6.415  -4.101   0.945  1.00  0.00     0.044 C 
ENDBRANCH  16  17
ENDBRANCH   6  16
TORSDOF 3
ENDMDL
MODEL 3
REMARK VINA RESULT:    -5.976      3.147      7.324
REMARK INTER + INTRA:          -7.528
REMARK INTER:                  -7.136
REMARK INTRA:                  -0.392
REMARK UNBOUND:                -0.503
REMARK SMILES Cc1ccc(CNC(=O)NC(=O)c2ccc(C)cc2)cc1
REMARK SMILES IDX 11 1 12 2 10 3 8 4 9 5 7 6 13 9 19 10 18 11 14 12 16 13
REMARK SMILES IDX 15 14 17 15 6 16 5 17 4 18 20 19 3 20 21 21 2 22 1 23
REMARK H PARENT 10 7 7 8
ROOT
ATOM      1  C   UNL     1     -11.091  -1.143   1.694  1.00  0.00     0.259 C 
ATOM      2  O   UNL     1     -11.280  -0.188   0.953  1.00  0.00    -0.269 OA
ATOM      3  N   UNL     1     -11.941  -1.676   2.669  1.00  0.00    -0.274 N 
ATOM      4  C   UNL     1     -13.261  -1.576   3.025  1.00  0.00     0.321 C 
ATOM      5  O   UNL     1     -13.678  -2.343   3.900  1.00  0.00    -0.248 OA
ATOM      6  N   UNL     1     -14.124  -0.715   2.454  1.00  0.00    -0.334 N 
ATOM      7  H   UNL     1     -11.554  -2.461   3.175  1.00  0.00     0.175 HD
ATOM      8  H   UNL     1     -15.077  -0.827   2.768  1.00  0.00     0.165 HD
ENDROOT
BRANCH   1   9
ATOM      9  C   UNL     1      -9.800  -1.843   1.554  1.00  0.00     0.040 A 
ATOM     10  C   UNL     1      -8.766  -1.656   2.473  1.00  0.00     0.014 A 
ATOM     11  C   UNL     1      -7.583  -2.380   2.328  1.00  0.00     0.004 A 
ATOM     12  C   UNL     1      -9.634  -2.702   0.462  1.00  0.00     0.014 A 
ATOM     13  C   UNL     1      -7.426  -3.283   1.266  1.00  0.00    -0.051 A 
ATOM     14  C   UNL     1      -8.453  -3.428   0.325  1.00  0.00     0.004 A 
ATOM     15  C   UNL     1      -6.182  -4.117   1.172  1.00  0.00     0.044 C 
ENDBRANCH   1   9
BRANCH   6  16
ATOM     16  C   UNL     1     -13.873   0.180   1.360  1.00  0.00     0.153 C 
BRANCH  16  17
ATOM     17  C   UNL     1     -15.046   0.567   0.503  1.00  0.00    -0.029 A 
ATOM     18  C   UNL     1     -15.083   0.358  -0.880  1.00  0.00     0.006 A 
ATOM     19  C   UNL     1     -16.223   0.959   1.161  1.00  0.00     0.006 A 
ATOM     20  C   UNL     1     -16.284   0.514  -1.580  1.00  0.00     0.004 A 
ATOM     21  C   UNL     1     -17.418   1.110   0.465  1.00  0.00     0.004 A 
ATOM     22  C   UNL     1     -17.461   0.879  -0.911  1.00  0.00    -0.051 A 
ATOM     23  C   UNL     1     -18.778   0.909  -1.628  1.00  0.00     0.044 C 
ENDBRANCH  16  17
ENDBRANCH   6  16
TORSDOF 3
ENDMDL
MODEL 4
REMARK VINA RESULT:    -5.968      0.559      7.990
REMARK INTER + INTRA:          -7.518
REMARK INTER:                  -7.138
REMARK INTRA:                  -0.380
REMARK UNBOUND:                -0.503
REMARK SMILES Cc1ccc(CNC(=O)NC(=O)c2ccc(C)cc2)cc1
REMARK SMILES IDX 11 1 12 2 10 3 8 4 9 5 7 6 13 9 19 10 18 11 14 12 16 13
REMARK SMILES IDX 15 14 17 15 6 16 5 17 4 18 20 19 3 20 21 21 2 22 1 23
REMARK H PARENT 10 7 7 8
ROOT
ATOM      1  C   UNL     1     -10.931  -1.280   2.181  1.00  0.00     0.259 C 
ATOM      2  O   UNL     1     -10.768  -2.197   2.974  1.00  0.00    -0.269 OA
ATOM      3  N   UNL     1     -12.129  -0.723   1.720  1.00  0.00    -0.274 N 
ATOM      4  C   UNL     1     -13.455  -0.747   2.066  1.00  0.00     0.321 C 
ATOM      5  O   UNL     1     -14.218   0.018   1.465  1.00  0.00    -0.248 OA
ATOM      6  N   UNL     1     -13.958  -1.531   3.038  1.00  0.00    -0.334 N 
ATOM      7  H   UNL     1     -12.010   0.019   1.043  1.00  0.00     0.175 HD
ATOM      8  H   UNL     1     -14.936  -1.367   3.227  1.00  0.00     0.165 HD
ENDROOT
BRANCH   1   9
ATOM      9  C   UNL     1      -9.712  -0.662   1.626  1.00  0.00     0.040 A 
ATOM     10  C   UNL     1      -9.311  -0.896   0.309  1.00  0.00     0.014 A 
ATOM     11  C   UNL     1      -8.180  -0.247  -0.187  1.00  0.00     0.004 A 
ATOM     12  C   UNL     1      -8.956   0.166   2.462  1.00  0.00     0.014 A 
ATOM     13  C   UNL     1      -7.444   0.626   0.628  1.00  0.00    -0.051 A 
ATOM     14  C   UNL     1      -7.831   0.817   1.961  1.00  0.00     0.004 A 
ATOM     15  C   UNL     1      -6.281   1.381   0.056  1.00  0.00     0.044 C 
ENDBRANCH   1   9
BRANCH   6  16
ATOM     16  C   UNL     1     -13.236  -2.406   3.917  1.00  0.00     0.153 C 
BRANCH  16  17
ATOM     17  C   UNL     1     -13.891  -2.766   5.222  1.00  0.00    -0.029 A 
ATOM     18  C   UNL     1     -13.260  -2.613   6.461  1.00  0.00     0.006 A 
ATOM     19  C   UNL     1     -15.263  -3.066   5.193  1.00  0.00     0.006 A 
ATOM     20  C   UNL     1     -13.998  -2.735   7.643  1.00  0.00     0.004 A 
ATOM     21  C   UNL     1     -15.997  -3.181   6.369  1.00  0.00     0.004 A 
ATOM     22  C   UNL     1     -15.373  -3.007   7.605  1.00  0.00    -0.051 A 
ATOM     23  C   UNL     1     -16.196  -2.997   8.857  1.00  0.00     0.044 C 
ENDBRANCH  16  17
ENDBRANCH   6  16
TORSDOF 3
ENDMDL
MODEL 5
REMARK VINA RESULT:    -5.610      0.997      1.360
REMARK INTER + INTRA:          -7.097
REMARK INTER:                  -6.627
REMARK INTRA:                  -0.470
REMARK UNBOUND:                -0.503
REMARK SMILES Cc1ccc(CNC(=O)NC(=O)c2ccc(C)cc2)cc1
REMARK SMILES IDX 11 1 12 2 10 3 8 4 9 5 7 6 13 9 19 10 18 11 14 12 16 13
REMARK SMILES IDX 15 14 17 15 6 16 5 17 4 18 20 19 3 20 21 21 2 22 1 23
REMARK H PARENT 10 7 7 8
ROOT
ATOM      1  C   UNL     1     -12.791  -2.170   4.019  1.00  0.00     0.259 C 
ATOM      2  O   UNL     1     -11.719  -2.754   3.948  1.00  0.00    -0.269 OA
ATOM      3  N   UNL     1     -13.308  -1.183   3.174  1.00  0.00    -0.274 N 
ATOM      4  C   UNL     1     -13.037  -0.669   1.932  1.00  0.00     0.321 C 
ATOM      5  O   UNL     1     -13.842   0.140   1.458  1.00  0.00    -0.248 OA
ATOM      6  N   UNL     1     -11.966  -1.022   1.198  1.00  0.00    -0.334 N 
ATOM      7  H   UNL     1     -14.215  -0.830   3.451  1.00  0.00     0.175 HD
ATOM      8  H   UNL     1     -11.957  -0.619   0.272  1.00  0.00     0.165 HD
ENDROOT
BRANCH   1   9
ATOM      9  C   UNL     1     -13.675  -2.545   5.140  1.00  0.00     0.040 A 
ATOM     10  C   UNL     1     -13.220  -2.537   6.460  1.00  0.00     0.014 A 
ATOM     11  C   UNL     1     -14.107  -2.849   7.491  1.00  0.00     0.004 A 
ATOM     12  C   UNL     1     -14.989  -2.920   4.843  1.00  0.00     0.014 A 
ATOM     13  C   UNL     1     -15.442  -3.176   7.207  1.00  0.00    -0.051 A 
ATOM     14  C   UNL     1     -15.873  -3.224   5.876  1.00  0.00     0.004 A 
ATOM     15  C   UNL     1     -16.404  -3.426   8.331  1.00  0.00     0.044 C 
ENDBRANCH   1   9
BRANCH   6  16
ATOM     16  C   UNL     1     -10.975  -2.012   1.514  1.00  0.00     0.153 C 
BRANCH  16  17
ATOM     17  C   UNL     1      -9.532  -1.618   1.358  1.00  0.00    -0.029 A 
ATOM     18  C   UNL     1      -8.571  -1.829   2.352  1.00  0.00     0.006 A 
ATOM     19  C   UNL     1      -9.109  -1.217   0.080  1.00  0.00     0.006 A 
ATOM     20  C   UNL     1      -7.213  -1.665   2.059  1.00  0.00     0.004 A 
ATOM     21  C   UNL     1      -7.758  -1.060  -0.211  1.00  0.00     0.004 A 
ATOM     22  C   UNL     1      -6.797  -1.292   0.774  1.00  0.00    -0.051 A 
ATOM     23  C   UNL     1      -5.342  -1.254   0.415  1.00  0.00     0.044 C 
ENDBRANCH  16  17
ENDBRANCH   6  16
TORSDOF 3
ENDMDL
MODEL 6
REMARK VINA RESULT:    -5.606      2.952      5.124
REMARK INTER + INTRA:          -7.093
REMARK INTER:                  -6.622
REMARK INTRA:                  -0.472
REMARK UNBOUND:                -0.503
REMARK SMILES Cc1ccc(CNC(=O)NC(=O)c2ccc(C)cc2)cc1
REMARK SMILES IDX 11 1 12 2 10 3 8 4 9 5 7 6 13 9 19 10 18 11 14 12 16 13
REMARK SMILES IDX 15 14 17 15 6 16 5 17 4 18 20 19 3 20 21 21 2 22 1 23
REMARK H PARENT 10 7 7 8
ROOT
ATOM      1  C   UNL     1     -13.534  -0.131   0.964  1.00  0.00     0.259 C 
ATOM      2  O   UNL     1     -12.539   0.396   0.489  1.00  0.00    -0.269 OA
ATOM      3  N   UNL     1     -13.616  -1.107   1.963  1.00  0.00    -0.274 N 
ATOM      4  C   UNL     1     -12.792  -1.658   2.911  1.00  0.00     0.321 C 
ATOM      5  O   UNL     1     -13.298  -2.434   3.728  1.00  0.00    -0.248 OA
ATOM      6  N   UNL     1     -11.480  -1.375   3.012  1.00  0.00    -0.334 N 
ATOM      7  H   UNL     1     -14.558  -1.407   2.177  1.00  0.00     0.175 HD
ATOM      8  H   UNL     1     -11.034  -1.796   3.814  1.00  0.00     0.165 HD
ENDROOT
BRANCH   1   9
ATOM      9  C   UNL     1     -14.836   0.312   0.429  1.00  0.00     0.040 A 
ATOM     10  C   UNL     1     -15.099   0.306  -0.943  1.00  0.00     0.014 A 
ATOM     11  C   UNL     1     -16.362   0.683  -1.398  1.00  0.00     0.004 A 
ATOM     12  C   UNL     1     -15.806   0.747   1.336  1.00  0.00     0.014 A 
ATOM     13  C   UNL     1     -17.359   1.073  -0.492  1.00  0.00    -0.051 A 
ATOM     14  C   UNL     1     -17.069   1.117   0.877  1.00  0.00     0.004 A 
ATOM     15  C   UNL     1     -18.738   1.394  -0.990  1.00  0.00     0.044 C 
ENDBRANCH   1   9
BRANCH   6  16
ATOM     16  C   UNL     1     -10.725  -0.432   2.236  1.00  0.00     0.153 C 
BRANCH  16  17
ATOM     17  C   UNL     1      -9.423  -0.904   1.651  1.00  0.00    -0.029 A 
ATOM     18  C   UNL     1      -9.070  -0.702   0.313  1.00  0.00     0.006 A 
ATOM     19  C   UNL     1      -8.450  -1.377   2.546  1.00  0.00     0.006 A 
ATOM     20  C   UNL     1      -7.759  -0.947  -0.110  1.00  0.00     0.004 A 
ATOM     21  C   UNL     1      -7.145  -1.615   2.126  1.00  0.00     0.004 A 
ATOM     22  C   UNL     1      -6.785  -1.392   0.795  1.00  0.00    -0.051 A 
ATOM     23  C   UNL     1      -5.349  -1.519   0.384  1.00  0.00     0.044 C 
ENDBRANCH  16  17
ENDBRANCH   6  16
TORSDOF 3
ENDMDL
MODEL 7
REMARK VINA RESULT:    -5.161      3.056      7.485
REMARK INTER + INTRA:          -6.569
REMARK INTER:                  -6.045
REMARK INTRA:                  -0.524
REMARK UNBOUND:                -0.503
REMARK SMILES Cc1ccc(CNC(=O)NC(=O)c2ccc(C)cc2)cc1
REMARK SMILES IDX 11 1 12 2 10 3 8 4 9 5 7 6 13 9 19 10 18 11 14 12 16 13
REMARK SMILES IDX 15 14 17 15 6 16 5 17 4 18 20 19 3 20 21 21 2 22 1 23
REMARK H PARENT 10 7 7 8
ROOT
ATOM      1  C   UNL     1     -10.643  -0.746   1.941  1.00  0.00     0.259 C 
ATOM      2  O   UNL     1     -11.028   0.405   1.786  1.00  0.00    -0.269 OA
ATOM      3  N   UNL     1     -11.346  -1.842   2.451  1.00  0.00    -0.274 N 
ATOM      4  C   UNL     1     -12.648  -2.171   2.729  1.00  0.00     0.321 C 
ATOM      5  O   UNL     1     -12.886  -3.338   3.059  1.00  0.00    -0.248 OA
ATOM      6  N   UNL     1     -13.672  -1.303   2.631  1.00  0.00    -0.334 N 
ATOM      7  H   UNL     1     -10.805  -2.696   2.504  1.00  0.00     0.175 HD
ATOM      8  H   UNL     1     -14.577  -1.723   2.786  1.00  0.00     0.165 HD
ENDROOT
BRANCH   1   9
ATOM      9  C   UNL     1      -9.254  -1.038   1.538  1.00  0.00     0.040 A 
ATOM     10  C   UNL     1      -8.804  -0.786   0.241  1.00  0.00     0.014 A 
ATOM     11  C   UNL     1      -7.468  -1.029  -0.079  1.00  0.00     0.004 A 
ATOM     12  C   UNL     1      -8.394  -1.586   2.495  1.00  0.00     0.014 A 
ATOM     13  C   UNL     1      -6.584  -1.530   0.888  1.00  0.00    -0.051 A 
ATOM     14  C   UNL     1      -7.059  -1.821   2.172  1.00  0.00     0.004 A 
ATOM     15  C   UNL     1      -5.132  -1.706   0.552  1.00  0.00     0.044 C 
ENDBRANCH   1   9
BRANCH   6  16
ATOM     16  C   UNL     1     -13.627   0.056   2.170  1.00  0.00     0.153 C 
BRANCH  16  17
ATOM     17  C   UNL     1     -14.579   0.443   1.072  1.00  0.00    -0.029 A 
ATOM     18  C   UNL     1     -14.300   0.249  -0.285  1.00  0.00     0.006 A 
ATOM     19  C   UNL     1     -15.879   0.818   1.450  1.00  0.00     0.006 A 
ATOM     20  C   UNL     1     -15.313   0.404  -1.237  1.00  0.00     0.004 A 
ATOM     21  C   UNL     1     -16.886   0.967   0.503  1.00  0.00     0.004 A 
ATOM     22  C   UNL     1     -16.614   0.751  -0.849  1.00  0.00    -0.051 A 
ATOM     23  C   UNL     1     -17.735   0.779  -1.845  1.00  0.00     0.044 C 
ENDBRANCH  16  17
ENDBRANCH   6  16
TORSDOF 3
ENDMDL
MODEL 8
REMARK VINA RESULT:    -4.647      3.826      5.023
REMARK INTER + INTRA:          -5.965
REMARK INTER:                  -5.532
REMARK INTRA:                  -0.433
REMARK UNBOUND:                -0.503
REMARK SMILES Cc1ccc(CNC(=O)NC(=O)c2ccc(C)cc2)cc1
REMARK SMILES IDX 11 1 12 2 10 3 8 4 9 5 7 6 13 9 19 10 18 11 14 12 16 13
REMARK SMILES IDX 15 14 17 15 6 16 5 17 4 18 20 19 3 20 21 21 2 22 1 23
REMARK H PARENT 10 7 7 8
ROOT
ATOM      1  C   UNL     1     -12.950  -0.304   1.361  1.00  0.00     0.259 C 
ATOM      2  O   UNL     1     -12.485  -1.345   0.918  1.00  0.00    -0.269 OA
ATOM      3  N   UNL     1     -12.432   0.532   2.355  1.00  0.00    -0.274 N 
ATOM      4  C   UNL     1     -11.243   0.705   3.015  1.00  0.00     0.321 C 
ATOM      5  O   UNL     1     -11.140   1.683   3.764  1.00  0.00    -0.248 OA
ATOM      6  N   UNL     1     -10.182  -0.110   2.865  1.00  0.00    -0.334 N 
ATOM      7  H   UNL     1     -13.011   1.333   2.570  1.00  0.00     0.175 HD
ATOM      8  H   UNL     1      -9.356   0.204   3.353  1.00  0.00     0.165 HD
ENDROOT
BRANCH   1   9
ATOM      9  C   UNL     1     -14.226   0.151   0.776  1.00  0.00     0.040 A 
ATOM     10  C   UNL     1     -14.418   0.197  -0.606  1.00  0.00     0.014 A 
ATOM     11  C   UNL     1     -15.660   0.584  -1.111  1.00  0.00     0.004 A 
ATOM     12  C   UNL     1     -15.244   0.546   1.649  1.00  0.00     0.014 A 
ATOM     13  C   UNL     1     -16.705   0.933  -0.242  1.00  0.00    -0.051 A 
ATOM     14  C   UNL     1     -16.484   0.927   1.141  1.00  0.00     0.004 A 
ATOM     15  C   UNL     1     -18.058   1.265  -0.798  1.00  0.00     0.044 C 
ENDBRANCH   1   9
BRANCH   6  16
ATOM     16  C   UNL     1     -10.057  -1.229   1.975  1.00  0.00     0.153 C 
BRANCH  16  17
ATOM     17  C   UNL     1      -8.727  -1.432   1.304  1.00  0.00    -0.029 A 
ATOM     18  C   UNL     1      -8.330  -0.724   0.166  1.00  0.00     0.006 A 
ATOM     19  C   UNL     1      -7.777  -2.213   1.983  1.00  0.00     0.006 A 
ATOM     20  C   UNL     1      -7.000  -0.780  -0.266  1.00  0.00     0.004 A 
ATOM     21  C   UNL     1      -6.454  -2.264   1.555  1.00  0.00     0.004 A 
ATOM     22  C   UNL     1      -6.052  -1.539   0.432  1.00  0.00    -0.051 A 
ATOM     23  C   UNL     1      -4.600  -1.491   0.062  1.00  0.00     0.044 C 
ENDBRANCH  16  17
ENDBRANCH   6  16
TORSDOF 3
ENDMDL
MODEL 9
REMARK VINA RESULT:    -4.176      2.017      8.066
REMARK INTER + INTRA:          -5.412
REMARK INTER:                  -4.870
REMARK INTRA:                  -0.543
REMARK UNBOUND:                -0.503
REMARK SMILES Cc1ccc(CNC(=O)NC(=O)c2ccc(C)cc2)cc1
REMARK SMILES IDX 11 1 12 2 10 3 8 4 9 5 7 6 13 9 19 10 18 11 14 12 16 13
REMARK SMILES IDX 15 14 17 15 6 16 5 17 4 18 20 19 3 20 21 21 2 22 1 23
REMARK H PARENT 10 7 7 8
ROOT
ATOM      1  C   UNL     1     -13.587  -2.581   4.006  1.00  0.00     0.259 C 
ATOM      2  O   UNL     1     -13.201  -3.334   4.889  1.00  0.00    -0.269 OA
ATOM      3  N   UNL     1     -14.893  -2.177   3.710  1.00  0.00    -0.274 N 
ATOM      4  C   UNL     1     -16.124  -2.208   4.312  1.00  0.00     0.321 C 
ATOM      5  O   UNL     1     -17.048  -1.601   3.760  1.00  0.00    -0.248 OA
ATOM      6  N   UNL     1     -16.367  -2.834   5.479  1.00  0.00    -0.334 N 
ATOM      7  H   UNL     1     -14.968  -1.560   2.911  1.00  0.00     0.175 HD
ATOM      8  H   UNL     1     -17.302  -2.690   5.831  1.00  0.00     0.165 HD
ENDROOT
BRANCH   1   9
ATOM      9  C   UNL     1     -12.551  -2.008   3.126  1.00  0.00     0.040 A 
ATOM     10  C   UNL     1     -12.009  -0.744   3.367  1.00  0.00     0.014 A 
ATOM     11  C   UNL     1     -10.993  -0.266   2.539  1.00  0.00     0.004 A 
ATOM     12  C   UNL     1     -12.127  -2.766   2.030  1.00  0.00     0.014 A 
ATOM     13  C   UNL     1     -10.524  -1.041   1.467  1.00  0.00    -0.051 A 
ATOM     14  C   UNL     1     -11.108  -2.287   1.209  1.00  0.00     0.004 A 
ATOM     15  C   UNL     1      -9.374  -0.550   0.638  1.00  0.00     0.044 C 
ENDBRANCH   1   9
BRANCH   6  16
ATOM     16  C   UNL     1     -15.421  -3.502   6.327  1.00  0.00     0.153 C 
BRANCH  16  17
ATOM     17  C   UNL     1     -15.303  -3.017   7.745  1.00  0.00    -0.029 A 
ATOM     18  C   UNL     1     -14.608  -1.855   8.099  1.00  0.00     0.006 A 
ATOM     19  C   UNL     1     -16.102  -3.650   8.711  1.00  0.00     0.006 A 
ATOM     20  C   UNL     1     -14.736  -1.328   9.389  1.00  0.00     0.004 A 
ATOM     21  C   UNL     1     -16.233  -3.122   9.991  1.00  0.00     0.004 A 
ATOM     22  C   UNL     1     -15.558  -1.950  10.339  1.00  0.00    -0.051 A 
ATOM     23  C   UNL     1     -15.812  -1.316  11.673  1.00  0.00     0.044 C 
ENDBRANCH  16  17
ENDBRANCH   6  16
TORSDOF 3
ENDMDL
