MODEL 1
REMARK VINA RESULT:    -3.359      0.000      0.000
REMARK INTER + INTRA:          -4.816
REMARK INTER:                  -4.439
REMARK INTRA:                  -0.378
REMARK UNBOUND:                -0.378
REMARK SMILES [H]/N=C\C[C@H]1C[C@@H]1O[C@H]1CO[C@H]2C[C@@H](C3CC3)CCN2C1
REMARK SMILES IDX 7 1 6 2 5 3 8 4 9 5 14 6 13 7 18 8 12 9 19 10 20 11 11 12
REMARK SMILES IDX 21 13 10 14 15 15 16 16 17 17 4 18 3 19 2 20 1 21
REMARK H PARENT
ROOT
ATOM      1  C   UNL     1      11.568  17.565   5.860  1.00  0.00     0.122 C 
ATOM      2  C   UNL     1      11.464  18.621   4.797  1.00  0.00     0.039 C 
ATOM      3  C   UNL     1      10.416  17.550   4.893  1.00  0.00     0.026 C 
ENDROOT
BRANCH   1   4
ATOM      4  O   UNL     1      12.614  16.602   5.630  1.00  0.00    -0.371 OA
BRANCH   4   5
ATOM      5  C   UNL     1      13.022  15.844   6.781  1.00  0.00     0.158 C 
ATOM      6  C   UNL     1      10.263  11.510   5.881  1.00  0.00    -0.003 C 
ATOM      7  C   UNL     1       9.944  12.942   6.326  1.00  0.00     0.052 C 
ATOM      8  C   UNL     1      11.471  11.530   4.934  1.00  0.00     0.019 C 
ATOM      9  C   UNL     1      11.179  13.649   6.901  1.00  0.00     0.189 C 
ATOM     10  C   UNL     1      12.653  12.276   5.551  1.00  0.00     0.087 C 
ATOM     11  N   UNL     1      12.273  13.637   5.929  1.00  0.00    -0.276 NA
ATOM     12  O   UNL     1      10.772  14.978   7.233  1.00  0.00    -0.360 OA
ATOM     13  C   UNL     1      13.419  14.396   6.443  1.00  0.00     0.121 C 
ATOM     14  C   UNL     1      11.839  15.778   7.752  1.00  0.00     0.195 C 
BRANCH   6  15
ATOM     15  C   UNL     1       9.074  10.858   5.212  1.00  0.00    -0.008 C 
ATOM     16  C   UNL     1       8.244   9.838   5.955  1.00  0.00     0.004 C 
ATOM     17  C   UNL     1       7.666  11.189   5.645  1.00  0.00     0.004 C 
ENDBRANCH   6  15
ENDBRANCH   4   5
ENDBRANCH   1   4
BRANCH   3  18
ATOM     18  C   UNL     1       9.038  17.921   5.354  1.00  0.00     0.053 C 
BRANCH  18  19
ATOM     19  C   UNL     1       7.919  17.020   4.901  1.00  0.00     0.074 C 
BRANCH  19  20
ATOM     20  N   UNL     1       7.744  15.792   5.259  1.00  0.00    -0.313 NA
ATOM     21  H   UNL     1       8.277  15.564   6.110  1.00  0.00     0.186 HD
ENDBRANCH  19  20
ENDBRANCH  18  19
ENDBRANCH   3  18
TORSDOF 6
ENDMDL
MODEL 2
REMARK VINA RESULT:    -3.309      3.653      6.980
REMARK INTER + INTRA:          -4.751
REMARK INTER:                  -4.480
REMARK INTRA:                  -0.271
REMARK UNBOUND:                -0.378
REMARK SMILES [H]/N=C\C[C@H]1C[C@@H]1O[C@H]1CO[C@H]2C[C@@H](C3CC3)CCN2C1
REMARK SMILES IDX 7 1 6 2 5 3 8 4 9 5 14 6 13 7 18 8 12 9 19 10 20 11 11 12
REMARK SMILES IDX 21 13 10 14 15 15 16 16 17 17 4 18 3 19 2 20 1 21
REMARK H PARENT
ROOT
ATOM      1  C   UNL     1       5.663  10.501   3.929  1.00  0.00     0.122 C 
ATOM      2  C   UNL     1       4.794  11.323   3.019  1.00  0.00     0.039 C 
ATOM      3  C   UNL     1       5.655  10.233   2.448  1.00  0.00     0.026 C 
ENDROOT
BRANCH   1   4
ATOM      4  O   UNL     1       6.804  11.210   4.449  1.00  0.00    -0.371 OA
BRANCH   4   5
ATOM      5  C   UNL     1       7.207  10.843   5.779  1.00  0.00     0.158 C 
ATOM      6  C   UNL     1      11.758  13.386   5.947  1.00  0.00    -0.003 C 
ATOM      7  C   UNL     1      11.223  12.138   5.234  1.00  0.00     0.052 C 
ATOM      8  C   UNL     1      10.620  14.403   6.111  1.00  0.00     0.019 C 
ATOM      9  C   UNL     1       9.976  11.575   5.931  1.00  0.00     0.189 C 
ATOM     10  C   UNL     1       9.398  13.772   6.778  1.00  0.00     0.087 C 
ATOM     11  N   UNL     1       8.939  12.602   6.030  1.00  0.00    -0.276 NA
ATOM     12  O   UNL     1       9.548  10.453   5.156  1.00  0.00    -0.360 OA
ATOM     13  C   UNL     1       7.716  12.036   6.609  1.00  0.00     0.121 C 
ATOM     14  C   UNL     1       8.360   9.840   5.668  1.00  0.00     0.195 C 
BRANCH   6  15
ATOM     15  C   UNL     1      12.915  14.002   5.193  1.00  0.00    -0.008 C 
ATOM     16  C   UNL     1      14.194  14.357   5.914  1.00  0.00     0.004 C 
ATOM     17  C   UNL     1      14.179  13.216   4.940  1.00  0.00     0.004 C 
ENDBRANCH   6  15
ENDBRANCH   4   5
ENDBRANCH   1   4
BRANCH   3  18
ATOM     18  C   UNL     1       5.000   8.997   1.908  1.00  0.00     0.053 C 
BRANCH  18  19
ATOM     19  C   UNL     1       5.597   8.423   0.649  1.00  0.00     0.074 C 
BRANCH  19  20
ATOM     20  N   UNL     1       6.331   9.061  -0.200  1.00  0.00    -0.313 NA
ATOM     21  H   UNL     1       6.410   8.552  -1.092  1.00  0.00     0.186 HD
ENDBRANCH  19  20
ENDBRANCH  18  19
ENDBRANCH   3  18
TORSDOF 6
ENDMDL
MODEL 3
REMARK VINA RESULT:    -3.265      6.185      8.436
REMARK INTER + INTRA:          -4.692
REMARK INTER:                  -4.784
REMARK INTRA:                   0.092
REMARK UNBOUND:                -0.378
REMARK SMILES [H]/N=C\C[C@H]1C[C@@H]1O[C@H]1CO[C@H]2C[C@@H](C3CC3)CCN2C1
REMARK SMILES IDX 7 1 6 2 5 3 8 4 9 5 14 6 13 7 18 8 12 9 19 10 20 11 11 12
REMARK SMILES IDX 21 13 10 14 15 15 16 16 17 17 4 18 3 19 2 20 1 21
REMARK H PARENT
ROOT
ATOM      1  C   UNL     1       4.058  13.296   1.722  1.00  0.00     0.122 C 
ATOM      2  C   UNL     1       2.985  14.242   2.183  1.00  0.00     0.039 C 
ATOM      3  C   UNL     1       4.425  14.537   2.490  1.00  0.00     0.026 C 
ENDROOT
BRANCH   1   4
ATOM      4  O   UNL     1       4.097  12.053   2.448  1.00  0.00    -0.371 OA
BRANCH   4   5
ATOM      5  C   UNL     1       5.397  11.457   2.587  1.00  0.00     0.158 C 
ATOM      6  C   UNL     1       3.922   6.491   3.190  1.00  0.00    -0.003 C 
ATOM      7  C   UNL     1       3.872   7.763   4.045  1.00  0.00     0.052 C 
ATOM      8  C   UNL     1       3.783   6.869   1.708  1.00  0.00     0.019 C 
ATOM      9  C   UNL     1       4.887   8.810   3.568  1.00  0.00     0.189 C 
ATOM     10  C   UNL     1       4.798   7.939   1.307  1.00  0.00     0.087 C 
ATOM     11  N   UNL     1       4.672   9.124   2.155  1.00  0.00    -0.276 NA
ATOM     12  O   UNL     1       4.714   9.956   4.404  1.00  0.00    -0.360 OA
ATOM     13  C   UNL     1       5.580  10.194   1.728  1.00  0.00     0.121 C 
ATOM     14  C   UNL     1       5.577  11.042   4.051  1.00  0.00     0.195 C 
BRANCH   6  15
ATOM     15  C   UNL     1       2.844   5.509   3.591  1.00  0.00    -0.008 C 
ATOM     16  C   UNL     1       3.210   4.118   4.050  1.00  0.00     0.004 C 
ATOM     17  C   UNL     1       2.661   5.109   5.035  1.00  0.00     0.004 C 
ENDBRANCH   6  15
ENDBRANCH   4   5
ENDBRANCH   1   4
BRANCH   3  18
ATOM     18  C   UNL     1       5.096  15.684   1.797  1.00  0.00     0.053 C 
BRANCH  18  19
ATOM     19  C   UNL     1       6.175  16.393   2.573  1.00  0.00     0.074 C 
BRANCH  19  20
ATOM     20  N   UNL     1       6.971  15.849   3.433  1.00  0.00    -0.313 NA
ATOM     21  H   UNL     1       6.676  14.892   3.670  1.00  0.00     0.186 HD
ENDBRANCH  19  20
ENDBRANCH  18  19
ENDBRANCH   3  18
TORSDOF 6
ENDMDL
MODEL 4
REMARK VINA RESULT:    -3.151      5.802      8.897
REMARK INTER + INTRA:          -4.542
REMARK INTER:                  -4.282
REMARK INTRA:                  -0.260
REMARK UNBOUND:                -0.378
REMARK SMILES [H]/N=C\C[C@H]1C[C@@H]1O[C@H]1CO[C@H]2C[C@@H](C3CC3)CCN2C1
REMARK SMILES IDX 7 1 6 2 5 3 8 4 9 5 14 6 13 7 18 8 12 9 19 10 20 11 11 12
REMARK SMILES IDX 21 13 10 14 15 15 16 16 17 17 4 18 3 19 2 20 1 21
REMARK H PARENT
ROOT
ATOM      1  C   UNL     1       7.478  10.785   5.656  1.00  0.00     0.122 C 
ATOM      2  C   UNL     1       8.414   9.717   6.148  1.00  0.00     0.039 C 
ATOM      3  C   UNL     1       8.945  10.860   5.331  1.00  0.00     0.026 C 
ENDROOT
BRANCH   1   4
ATOM      4  O   UNL     1       6.604  10.356   4.595  1.00  0.00    -0.371 OA
BRANCH   4   5
ATOM      5  C   UNL     1       5.345  11.044   4.513  1.00  0.00     0.158 C 
ATOM      6  C   UNL     1       2.613   7.383   1.995  1.00  0.00    -0.003 C 
ATOM      7  C   UNL     1       3.734   8.364   1.628  1.00  0.00     0.052 C 
ATOM      8  C   UNL     1       2.772   6.957   3.461  1.00  0.00     0.019 C 
ATOM      9  C   UNL     1       3.810   9.537   2.615  1.00  0.00     0.189 C 
ATOM     10  C   UNL     1       2.876   8.169   4.387  1.00  0.00     0.087 C 
ATOM     11  N   UNL     1       3.978   9.043   3.982  1.00  0.00    -0.276 NA
ATOM     12  O   UNL     1       4.910  10.349   2.200  1.00  0.00    -0.360 OA
ATOM     13  C   UNL     1       4.146  10.166   4.912  1.00  0.00     0.121 C 
ATOM     14  C   UNL     1       5.131  11.473   3.057  1.00  0.00     0.195 C 
BRANCH   6  15
ATOM     15  C   UNL     1       2.616   6.173   1.088  1.00  0.00    -0.008 C 
ATOM     16  C   UNL     1       1.461   5.922   0.147  1.00  0.00     0.004 C 
ATOM     17  C   UNL     1       2.799   6.325  -0.403  1.00  0.00     0.004 C 
ENDBRANCH   6  15
ENDBRANCH   4   5
ENDBRANCH   1   4
BRANCH   3  18
ATOM     18  C   UNL     1       9.814  11.886   5.995  1.00  0.00     0.053 C 
BRANCH  18  19
ATOM     19  C   UNL     1      11.294  11.605   5.995  1.00  0.00     0.074 C 
BRANCH  19  20
ATOM     20  N   UNL     1      12.062  11.586   7.033  1.00  0.00    -0.313 NA
ATOM     21  H   UNL     1      12.042  12.485   7.537  1.00  0.00     0.186 HD
ENDBRANCH  19  20
ENDBRANCH  18  19
ENDBRANCH   3  18
TORSDOF 6
ENDMDL
MODEL 5
REMARK VINA RESULT:    -3.136      7.292      8.734
REMARK INTER + INTRA:          -4.522
REMARK INTER:                  -4.261
REMARK INTRA:                  -0.261
REMARK UNBOUND:                -0.378
REMARK SMILES [H]/N=C\C[C@H]1C[C@@H]1O[C@H]1CO[C@H]2C[C@@H](C3CC3)CCN2C1
REMARK SMILES IDX 7 1 6 2 5 3 8 4 9 5 14 6 13 7 18 8 12 9 19 10 20 11 11 12
REMARK SMILES IDX 21 13 10 14 15 15 16 16 17 17 4 18 3 19 2 20 1 21
REMARK H PARENT
ROOT
ATOM      1  C   UNL     1       3.945  13.397   2.039  1.00  0.00     0.122 C 
ATOM      2  C   UNL     1       2.713  13.624   1.208  1.00  0.00     0.039 C 
ATOM      3  C   UNL     1       2.864  14.320   2.531  1.00  0.00     0.026 C 
ENDROOT
BRANCH   1   4
ATOM      4  O   UNL     1       4.008  12.094   2.650  1.00  0.00    -0.371 OA
BRANCH   4   5
ATOM      5  C   UNL     1       5.321  11.516   2.741  1.00  0.00     0.158 C 
ATOM      6  C   UNL     1       3.940   6.504   3.166  1.00  0.00    -0.003 C 
ATOM      7  C   UNL     1       3.884   7.739   4.073  1.00  0.00     0.052 C 
ATOM      8  C   UNL     1       3.767   6.940   1.704  1.00  0.00     0.019 C 
ATOM      9  C   UNL     1       4.873   8.823   3.622  1.00  0.00     0.189 C 
ATOM     10  C   UNL     1       4.757   8.043   1.329  1.00  0.00     0.087 C 
ATOM     11  N   UNL     1       4.627   9.190   2.227  1.00  0.00    -0.276 NA
ATOM     12  O   UNL     1       4.696   9.931   4.507  1.00  0.00    -0.360 OA
ATOM     13  C   UNL     1       5.509  10.292   1.828  1.00  0.00     0.121 C 
ATOM     14  C   UNL     1       5.534  11.045   4.184  1.00  0.00     0.195 C 
BRANCH   6  15
ATOM     15  C   UNL     1       2.886   5.489   3.545  1.00  0.00    -0.008 C 
ATOM     16  C   UNL     1       3.287   4.145   4.105  1.00  0.00     0.004 C 
ATOM     17  C   UNL     1       2.620   5.154   4.993  1.00  0.00     0.004 C 
ENDBRANCH   6  15
ENDBRANCH   4   5
ENDBRANCH   1   4
BRANCH   3  18
ATOM     18  C   UNL     1       3.087  15.802   2.551  1.00  0.00     0.053 C 
BRANCH  18  19
ATOM     19  C   UNL     1       2.118  16.611   3.373  1.00  0.00     0.074 C 
BRANCH  19  20
ATOM     20  N   UNL     1       2.163  16.774   4.654  1.00  0.00    -0.313 NA
ATOM     21  H   UNL     1       3.080  17.132   4.958  1.00  0.00     0.186 HD
ENDBRANCH  19  20
ENDBRANCH  18  19
ENDBRANCH   3  18
TORSDOF 6
ENDMDL
MODEL 6
REMARK VINA RESULT:    -2.706      3.182      5.302
REMARK INTER + INTRA:          -3.954
REMARK INTER:                  -4.334
REMARK INTRA:                   0.380
REMARK UNBOUND:                -0.378
REMARK SMILES [H]/N=C\C[C@H]1C[C@@H]1O[C@H]1CO[C@H]2C[C@@H](C3CC3)CCN2C1
REMARK SMILES IDX 7 1 6 2 5 3 8 4 9 5 14 6 13 7 18 8 12 9 19 10 20 11 11 12
REMARK SMILES IDX 21 13 10 14 15 15 16 16 17 17 4 18 3 19 2 20 1 21
REMARK H PARENT
ROOT
ATOM      1  C   UNL     1      14.192  13.031   9.276  1.00  0.00     0.122 C 
ATOM      2  C   UNL     1      14.125  14.525   9.424  1.00  0.00     0.039 C 
ATOM      3  C   UNL     1      13.527  13.641  10.480  1.00  0.00     0.026 C 
ENDROOT
BRANCH   1   4
ATOM      4  O   UNL     1      13.321  12.502   8.258  1.00  0.00    -0.371 OA
BRANCH   4   5
ATOM      5  C   UNL     1      13.223  13.287   7.058  1.00  0.00     0.158 C 
ATOM      6  C   UNL     1       8.434  11.850   5.574  1.00  0.00    -0.003 C 
ATOM      7  C   UNL     1       9.816  11.187   5.615  1.00  0.00     0.052 C 
ATOM      8  C   UNL     1       8.311  12.839   6.742  1.00  0.00     0.019 C 
ATOM      9  C   UNL     1      10.944  12.226   5.676  1.00  0.00     0.189 C 
ATOM     10  C   UNL     1       9.481  13.822   6.766  1.00  0.00     0.087 C 
ATOM     11  N   UNL     1      10.759  13.113   6.824  1.00  0.00    -0.276 NA
ATOM     12  O   UNL     1      12.169  11.494   5.757  1.00  0.00    -0.360 OA
ATOM     13  C   UNL     1      11.888  14.043   6.936  1.00  0.00     0.121 C 
ATOM     14  C   UNL     1      13.320  12.338   5.859  1.00  0.00     0.195 C 
BRANCH   6  15
ATOM     15  C   UNL     1       7.325  10.824   5.628  1.00  0.00    -0.008 C 
ATOM     16  C   UNL     1       6.084  10.995   4.784  1.00  0.00     0.004 C 
ATOM     17  C   UNL     1       7.063   9.904   4.460  1.00  0.00     0.004 C 
ENDBRANCH   6  15
ENDBRANCH   4   5
ENDBRANCH   1   4
BRANCH   3  18
ATOM     18  C   UNL     1      14.186  13.569  11.825  1.00  0.00     0.053 C 
BRANCH  18  19
ATOM     19  C   UNL     1      13.677  12.503  12.760  1.00  0.00     0.074 C 
BRANCH  19  20
ATOM     20  N   UNL     1      12.436  12.235  12.999  1.00  0.00    -0.313 NA
ATOM     21  H   UNL     1      11.821  12.584  12.250  1.00  0.00     0.186 HD
ENDBRANCH  19  20
ENDBRANCH  18  19
ENDBRANCH   3  18
TORSDOF 6
ENDMDL
MODEL 7
REMARK VINA RESULT:    -2.652      2.312      6.213
REMARK INTER + INTRA:          -3.882
REMARK INTER:                  -3.631
REMARK INTRA:                  -0.251
REMARK UNBOUND:                -0.378
REMARK SMILES [H]/N=C\C[C@H]1C[C@@H]1O[C@H]1CO[C@H]2C[C@@H](C3CC3)CCN2C1
REMARK SMILES IDX 7 1 6 2 5 3 8 4 9 5 14 6 13 7 18 8 12 9 19 10 20 11 11 12
REMARK SMILES IDX 21 13 10 14 15 15 16 16 17 17 4 18 3 19 2 20 1 21
REMARK H PARENT
ROOT
ATOM      1  C   UNL     1       8.647  10.864   5.224  1.00  0.00     0.122 C 
ATOM      2  C   UNL     1       7.691  10.461   6.312  1.00  0.00     0.039 C 
ATOM      3  C   UNL     1       7.177  11.151   5.080  1.00  0.00     0.026 C 
ENDROOT
BRANCH   1   4
ATOM      4  O   UNL     1       9.491  11.980   5.568  1.00  0.00    -0.371 OA
BRANCH   4   5
ATOM      5  C   UNL     1      10.864  11.657   5.840  1.00  0.00     0.158 C 
ATOM      6  C   UNL     1      12.859  16.471   5.612  1.00  0.00    -0.003 C 
ATOM      7  C   UNL     1      12.309  15.461   4.597  1.00  0.00     0.052 C 
ATOM      8  C   UNL     1      12.112  16.311   6.943  1.00  0.00     0.019 C 
ATOM      9  C   UNL     1      12.322  14.031   5.153  1.00  0.00     0.189 C 
ATOM     10  C   UNL     1      12.133  14.860   7.424  1.00  0.00     0.087 C 
ATOM     11  N   UNL     1      11.576  13.965   6.410  1.00  0.00    -0.276 NA
ATOM     12  O   UNL     1      11.749  13.196   4.145  1.00  0.00    -0.360 OA
ATOM     13  C   UNL     1      11.508  12.580   6.890  1.00  0.00     0.121 C 
ATOM     14  C   UNL     1      11.658  11.823   4.539  1.00  0.00     0.195 C 
BRANCH   6  15
ATOM     15  C   UNL     1      12.738  17.890   5.103  1.00  0.00    -0.008 C 
ATOM     16  C   UNL     1      13.923  18.575   4.463  1.00  0.00     0.004 C 
ATOM     17  C   UNL     1      12.742  18.184   3.622  1.00  0.00     0.004 C 
ENDBRANCH   6  15
ENDBRANCH   4   5
ENDBRANCH   1   4
BRANCH   3  18
ATOM     18  C   UNL     1       6.348  10.372   4.104  1.00  0.00     0.053 C 
BRANCH  18  19
ATOM     19  C   UNL     1       5.001  10.953   3.762  1.00  0.00     0.074 C 
BRANCH  19  20
ATOM     20  N   UNL     1       4.788  11.984   3.014  1.00  0.00    -0.313 NA
ATOM     21  H   UNL     1       3.984  11.839   2.387  1.00  0.00     0.186 HD
ENDBRANCH  19  20
ENDBRANCH  18  19
ENDBRANCH   3  18
TORSDOF 6
ENDMDL
MODEL 8
REMARK VINA RESULT:    -2.598      2.239      4.475
REMARK INTER + INTRA:          -3.811
REMARK INTER:                  -3.568
REMARK INTRA:                  -0.243
REMARK UNBOUND:                -0.378
REMARK SMILES [H]/N=C\C[C@H]1C[C@@H]1O[C@H]1CO[C@H]2C[C@@H](C3CC3)CCN2C1
REMARK SMILES IDX 7 1 6 2 5 3 8 4 9 5 14 6 13 7 18 8 12 9 19 10 20 11 11 12
REMARK SMILES IDX 21 13 10 14 15 15 16 16 17 17 4 18 3 19 2 20 1 21
REMARK H PARENT
ROOT
ATOM      1  C   UNL     1      12.570  17.604   8.566  1.00  0.00     0.122 C 
ATOM      2  C   UNL     1      13.464  17.850   9.748  1.00  0.00     0.039 C 
ATOM      3  C   UNL     1      13.087  16.445   9.374  1.00  0.00     0.026 C 
ENDROOT
BRANCH   1   4
ATOM      4  O   UNL     1      11.195  17.977   8.781  1.00  0.00    -0.371 OA
BRANCH   4   5
ATOM      5  C   UNL     1      10.398  18.115   7.594  1.00  0.00     0.158 C 
ATOM      6  C   UNL     1      11.101  13.338   5.620  1.00  0.00    -0.003 C 
ATOM      7  C   UNL     1      11.961  14.597   5.781  1.00  0.00     0.052 C 
ATOM      8  C   UNL     1      10.111  13.246   6.790  1.00  0.00     0.019 C 
ATOM      9  C   UNL     1      11.102  15.854   5.974  1.00  0.00     0.189 C 
ATOM     10  C   UNL     1       9.312  14.539   6.949  1.00  0.00     0.087 C 
ATOM     11  N   UNL     1      10.203  15.687   7.117  1.00  0.00    -0.276 NA
ATOM     12  O   UNL     1      12.007  16.944   6.159  1.00  0.00    -0.360 OA
ATOM     13  C   UNL     1       9.451  16.924   7.358  1.00  0.00     0.121 C 
ATOM     14  C   UNL     1      11.343  18.190   6.391  1.00  0.00     0.195 C 
BRANCH   6  15
ATOM     15  C   UNL     1      11.952  12.091   5.545  1.00  0.00    -0.008 C 
ATOM     16  C   UNL     1      12.229  11.434   4.213  1.00  0.00     0.004 C 
ATOM     17  C   UNL     1      13.337  12.134   4.946  1.00  0.00     0.004 C 
ENDBRANCH   6  15
ENDBRANCH   4   5
ENDBRANCH   1   4
BRANCH   3  18
ATOM     18  C   UNL     1      14.138  15.538   8.808  1.00  0.00     0.053 C 
BRANCH  18  19
ATOM     19  C   UNL     1      13.955  14.065   9.064  1.00  0.00     0.074 C 
BRANCH  19  20
ATOM     20  N   UNL     1      12.825  13.442   9.126  1.00  0.00    -0.313 NA
ATOM     21  H   UNL     1      12.033  14.072   8.937  1.00  0.00     0.186 HD
ENDBRANCH  19  20
ENDBRANCH  18  19
ENDBRANCH   3  18
TORSDOF 6
ENDMDL
MODEL 9
REMARK VINA RESULT:    -2.305      3.655      7.066
REMARK INTER + INTRA:          -3.424
REMARK INTER:                  -3.294
REMARK INTRA:                  -0.129
REMARK UNBOUND:                -0.378
REMARK SMILES [H]/N=C\C[C@H]1C[C@@H]1O[C@H]1CO[C@H]2C[C@@H](C3CC3)CCN2C1
REMARK SMILES IDX 7 1 6 2 5 3 8 4 9 5 14 6 13 7 18 8 12 9 19 10 20 11 11 12
REMARK SMILES IDX 21 13 10 14 15 15 16 16 17 17 4 18 3 19 2 20 1 21
REMARK H PARENT
ROOT
ATOM      1  C   UNL     1       5.582  10.917   4.057  1.00  0.00     0.122 C 
ATOM      2  C   UNL     1       5.250  11.178   2.615  1.00  0.00     0.039 C 
ATOM      3  C   UNL     1       5.286   9.768   3.131  1.00  0.00     0.026 C 
ENDROOT
BRANCH   1   4
ATOM      4  O   UNL     1       6.966  11.136   4.390  1.00  0.00    -0.371 OA
BRANCH   4   5
ATOM      5  C   UNL     1       7.337  10.811   5.739  1.00  0.00     0.158 C 
ATOM      6  C   UNL     1      11.724  13.617   6.041  1.00  0.00    -0.003 C 
ATOM      7  C   UNL     1      11.290  12.330   5.328  1.00  0.00     0.052 C 
ATOM      8  C   UNL     1      10.524  14.568   6.147  1.00  0.00     0.019 C 
ATOM      9  C   UNL     1      10.052  11.704   5.985  1.00  0.00     0.189 C 
ATOM     10  C   UNL     1       9.316  13.875   6.777  1.00  0.00     0.087 C 
ATOM     11  N   UNL     1       8.954  12.671   6.029  1.00  0.00    -0.276 NA
ATOM     12  O   UNL     1       9.719  10.550   5.212  1.00  0.00    -0.360 OA
ATOM     13  C   UNL     1       7.744  12.041   6.569  1.00  0.00     0.121 C 
ATOM     14  C   UNL     1       8.550   9.876   5.687  1.00  0.00     0.195 C 
BRANCH   6  15
ATOM     15  C   UNL     1      12.872  14.289   5.322  1.00  0.00    -0.008 C 
ATOM     16  C   UNL     1      14.195  14.496   6.022  1.00  0.00     0.004 C 
ATOM     17  C   UNL     1      14.090  13.501   4.903  1.00  0.00     0.004 C 
ENDBRANCH   6  15
ENDBRANCH   4   5
ENDBRANCH   1   4
BRANCH   3  18
ATOM     18  C   UNL     1       4.000   9.008   3.257  1.00  0.00     0.053 C 
BRANCH  18  19
ATOM     19  C   UNL     1       4.111   7.505   3.240  1.00  0.00     0.074 C 
BRANCH  19  20
ATOM     20  N   UNL     1       5.176   6.821   3.498  1.00  0.00    -0.313 NA
ATOM     21  H   UNL     1       5.958   7.429   3.781  1.00  0.00     0.186 HD
ENDBRANCH  19  20
ENDBRANCH  18  19
ENDBRANCH   3  18
TORSDOF 6
ENDMDL
