MODEL 1
REMARK VINA RESULT:    -4.850      0.000      0.000
REMARK INTER + INTRA:          -6.158
REMARK INTER:                  -5.700
REMARK INTRA:                  -0.458
REMARK UNBOUND:                -0.458
REMARK SMILES Cc1ccc(CNC(=O)NC(=O)c2ccc(C)cc2)cc1
REMARK SMILES IDX 11 1 12 2 10 3 8 4 9 5 7 6 13 9 19 10 18 11 14 12 16 13
REMARK SMILES IDX 15 14 17 15 6 16 5 17 4 18 20 19 3 20 21 21 2 22 1 23
REMARK H PARENT 10 7 7 8
ROOT
ATOM      1  C   UNL     1       6.880  10.849   4.803  1.00  0.00     0.259 C 
ATOM      2  O   UNL     1       6.628   9.688   5.093  1.00  0.00    -0.269 OA
ATOM      3  N   UNL     1       6.184  11.710   3.949  1.00  0.00    -0.274 N 
ATOM      4  C   UNL     1       4.959  11.755   3.335  1.00  0.00     0.321 C 
ATOM      5  O   UNL     1       4.654  12.794   2.739  1.00  0.00    -0.248 OA
ATOM      6  N   UNL     1       4.069  10.746   3.374  1.00  0.00    -0.334 N 
ATOM      7  H   UNL     1       6.601  12.626   3.849  1.00  0.00     0.175 HD
ATOM      8  H   UNL     1       3.181  10.970   2.947  1.00  0.00     0.165 HD
ENDROOT
BRANCH   1   9
ATOM      9  C   UNL     1       8.075  11.442   5.435  1.00  0.00     0.040 A 
ATOM     10  C   UNL     1       9.328  10.834   5.338  1.00  0.00     0.014 A 
ATOM     11  C   UNL     1      10.437  11.460   5.907  1.00  0.00     0.004 A 
ATOM     12  C   UNL     1       7.917  12.636   6.146  1.00  0.00     0.014 A 
ATOM     13  C   UNL     1      10.298  12.684   6.578  1.00  0.00    -0.051 A 
ATOM     14  C   UNL     1       9.029  13.261   6.707  1.00  0.00     0.004 A 
ATOM     15  C   UNL     1      11.513  13.386   7.110  1.00  0.00     0.044 C 
ENDBRANCH   1   9
BRANCH   6  16
ATOM     16  C   UNL     1       4.180   9.507   4.091  1.00  0.00     0.153 C 
BRANCH  16  17
ATOM     17  C   UNL     1       3.816   8.249   3.353  1.00  0.00    -0.029 A 
ATOM     18  C   UNL     1       4.565   7.070   3.438  1.00  0.00     0.006 A 
ATOM     19  C   UNL     1       2.559   8.210   2.728  1.00  0.00     0.006 A 
ATOM     20  C   UNL     1       4.048   5.874   2.927  1.00  0.00     0.004 A 
ATOM     21  C   UNL     1       2.045   7.020   2.225  1.00  0.00     0.004 A 
ATOM     22  C   UNL     1       2.781   5.838   2.329  1.00  0.00    -0.051 A 
ATOM     23  C   UNL     1       2.162   4.539   1.910  1.00  0.00     0.044 C 
ENDBRANCH  16  17
ENDBRANCH   6  16
TORSDOF 3
ENDMDL
MODEL 2
REMARK VINA RESULT:    -4.839      2.854      5.054
REMARK INTER + INTRA:          -6.146
REMARK INTER:                  -5.686
REMARK INTRA:                  -0.460
REMARK UNBOUND:                -0.458
REMARK SMILES Cc1ccc(CNC(=O)NC(=O)c2ccc(C)cc2)cc1
REMARK SMILES IDX 11 1 12 2 10 3 8 4 9 5 7 6 13 9 19 10 18 11 14 12 16 13
REMARK SMILES IDX 15 14 17 15 6 16 5 17 4 18 20 19 3 20 21 21 2 22 1 23
REMARK H PARENT 10 7 7 8
ROOT
ATOM      1  C   UNL     1       4.302  12.618   2.611  1.00  0.00     0.259 C 
ATOM      2  O   UNL     1       3.650  11.893   1.873  1.00  0.00    -0.269 OA
ATOM      3  N   UNL     1       5.238  12.260   3.587  1.00  0.00    -0.274 N 
ATOM      4  C   UNL     1       5.949  11.144   3.947  1.00  0.00     0.321 C 
ATOM      5  O   UNL     1       6.813  11.272   4.821  1.00  0.00    -0.248 OA
ATOM      6  N   UNL     1       5.775   9.935   3.381  1.00  0.00    -0.334 N 
ATOM      7  H   UNL     1       5.636  13.041   4.090  1.00  0.00     0.175 HD
ATOM      8  H   UNL     1       6.435   9.239   3.698  1.00  0.00     0.165 HD
ENDROOT
BRANCH   1   9
ATOM      9  C   UNL     1       4.091  14.071   2.465  1.00  0.00     0.040 A 
ATOM     10  C   UNL     1       2.815  14.633   2.544  1.00  0.00     0.014 A 
ATOM     11  C   UNL     1       2.671  16.017   2.453  1.00  0.00     0.004 A 
ATOM     12  C   UNL     1       5.210  14.877   2.236  1.00  0.00     0.014 A 
ATOM     13  C   UNL     1       3.793  16.840   2.275  1.00  0.00    -0.051 A 
ATOM     14  C   UNL     1       5.062  16.260   2.152  1.00  0.00     0.004 A 
ATOM     15  C   UNL     1       3.631  18.332   2.263  1.00  0.00     0.044 C 
ENDBRANCH   1   9
BRANCH   6  16
ATOM     16  C   UNL     1       4.907   9.596   2.289  1.00  0.00     0.153 C 
BRANCH  16  17
ATOM     17  C   UNL     1       4.065   8.359   2.435  1.00  0.00    -0.029 A 
ATOM     18  C   UNL     1       2.712   8.310   2.083  1.00  0.00     0.006 A 
ATOM     19  C   UNL     1       4.731   7.160   2.739  1.00  0.00     0.006 A 
ATOM     20  C   UNL     1       2.051   7.079   2.014  1.00  0.00     0.004 A 
ATOM     21  C   UNL     1       4.073   5.937   2.666  1.00  0.00     0.004 A 
ATOM     22  C   UNL     1       2.729   5.884   2.292  1.00  0.00    -0.051 A 
ATOM     23  C   UNL     1       2.068   4.555   2.083  1.00  0.00     0.044 C 
ENDBRANCH  16  17
ENDBRANCH   6  16
TORSDOF 3
ENDMDL
MODEL 3
REMARK VINA RESULT:    -4.758      1.165      8.052
REMARK INTER + INTRA:          -6.050
REMARK INTER:                  -5.689
REMARK INTRA:                  -0.361
REMARK UNBOUND:                -0.458
REMARK SMILES Cc1ccc(CNC(=O)NC(=O)c2ccc(C)cc2)cc1
REMARK SMILES IDX 11 1 12 2 10 3 8 4 9 5 7 6 13 9 19 10 18 11 14 12 16 13
REMARK SMILES IDX 15 14 17 15 6 16 5 17 4 18 20 19 3 20 21 21 2 22 1 23
REMARK H PARENT 10 7 7 8
ROOT
ATOM      1  C   UNL     1       4.792   9.469   3.311  1.00  0.00     0.259 C 
ATOM      2  O   UNL     1       5.502   8.965   4.170  1.00  0.00    -0.269 OA
ATOM      3  N   UNL     1       4.579  10.824   3.035  1.00  0.00    -0.274 N 
ATOM      4  C   UNL     1       5.157  12.026   3.355  1.00  0.00     0.321 C 
ATOM      5  O   UNL     1       4.737  13.035   2.779  1.00  0.00    -0.248 OA
ATOM      6  N   UNL     1       6.168  12.155   4.234  1.00  0.00    -0.334 N 
ATOM      7  H   UNL     1       3.925  10.999   2.284  1.00  0.00     0.175 HD
ATOM      8  H   UNL     1       6.537  13.093   4.294  1.00  0.00     0.165 HD
ENDROOT
BRANCH   1   9
ATOM      9  C   UNL     1       4.054   8.539   2.434  1.00  0.00     0.040 A 
ATOM     10  C   UNL     1       2.709   8.240   2.658  1.00  0.00     0.014 A 
ATOM     11  C   UNL     1       2.040   7.396   1.772  1.00  0.00     0.004 A 
ATOM     12  C   UNL     1       4.745   7.955   1.368  1.00  0.00     0.014 A 
ATOM     13  C   UNL     1       2.710   6.845   0.669  1.00  0.00    -0.051 A 
ATOM     14  C   UNL     1       4.071   7.118   0.481  1.00  0.00     0.004 A 
ATOM     15  C   UNL     1       1.956   6.009  -0.322  1.00  0.00     0.044 C 
ENDBRANCH   1   9
BRANCH   6  16
ATOM     16  C   UNL     1       6.864  11.109   4.929  1.00  0.00     0.153 C 
BRANCH  16  17
ATOM     17  C   UNL     1       8.172  11.465   5.580  1.00  0.00    -0.029 A 
ATOM     18  C   UNL     1       9.357  10.759   5.348  1.00  0.00     0.006 A 
ATOM     19  C   UNL     1       8.232  12.682   6.279  1.00  0.00     0.006 A 
ATOM     20  C   UNL     1      10.579  11.280   5.788  1.00  0.00     0.004 A 
ATOM     21  C   UNL     1       9.448  13.200   6.712  1.00  0.00     0.004 A 
ATOM     22  C   UNL     1      10.634  12.508   6.461  1.00  0.00    -0.051 A 
ATOM     23  C   UNL     1      11.949  13.139   6.809  1.00  0.00     0.044 C 
ENDBRANCH  16  17
ENDBRANCH   6  16
TORSDOF 3
ENDMDL
MODEL 4
REMARK VINA RESULT:    -4.735      3.054      7.819
REMARK INTER + INTRA:          -6.023
REMARK INTER:                  -5.662
REMARK INTRA:                  -0.361
REMARK UNBOUND:                -0.458
REMARK SMILES Cc1ccc(CNC(=O)NC(=O)c2ccc(C)cc2)cc1
REMARK SMILES IDX 11 1 12 2 10 3 8 4 9 5 7 6 13 9 19 10 18 11 14 12 16 13
REMARK SMILES IDX 15 14 17 15 6 16 5 17 4 18 20 19 3 20 21 21 2 22 1 23
REMARK H PARENT 10 7 7 8
ROOT
ATOM      1  C   UNL     1       4.332   9.712   3.088  1.00  0.00     0.259 C 
ATOM      2  O   UNL     1       3.648  10.285   2.251  1.00  0.00    -0.269 OA
ATOM      3  N   UNL     1       5.435  10.196   3.797  1.00  0.00    -0.274 N 
ATOM      4  C   UNL     1       6.024  11.409   4.052  1.00  0.00     0.321 C 
ATOM      5  O   UNL     1       6.949  11.436   4.870  1.00  0.00    -0.248 OA
ATOM      6  N   UNL     1       5.627  12.563   3.483  1.00  0.00    -0.334 N 
ATOM      7  H   UNL     1       5.854   9.524   4.426  1.00  0.00     0.175 HD
ATOM      8  H   UNL     1       6.105  13.377   3.841  1.00  0.00     0.165 HD
ENDROOT
BRANCH   1   9
ATOM      9  C   UNL     1       3.954   8.323   3.411  1.00  0.00     0.040 A 
ATOM     10  C   UNL     1       4.626   7.236   2.849  1.00  0.00     0.014 A 
ATOM     11  C   UNL     1       4.268   5.941   3.226  1.00  0.00     0.004 A 
ATOM     12  C   UNL     1       2.890   8.121   4.296  1.00  0.00     0.014 A 
ATOM     13  C   UNL     1       3.236   5.729   4.153  1.00  0.00    -0.051 A 
ATOM     14  C   UNL     1       2.539   6.826   4.674  1.00  0.00     0.004 A 
ATOM     15  C   UNL     1       2.919   4.336   4.611  1.00  0.00     0.044 C 
ENDBRANCH   1   9
BRANCH   6  16
ATOM     16  C   UNL     1       4.518  12.765   2.595  1.00  0.00     0.153 C 
BRANCH  16  17
ATOM     17  C   UNL     1       4.069  14.182   2.365  1.00  0.00    -0.029 A 
ATOM     18  C   UNL     1       2.742  14.597   2.520  1.00  0.00     0.006 A 
ATOM     19  C   UNL     1       5.068  15.153   2.193  1.00  0.00     0.006 A 
ATOM     20  C   UNL     1       2.432  15.961   2.528  1.00  0.00     0.004 A 
ATOM     21  C   UNL     1       4.759  16.510   2.206  1.00  0.00     0.004 A 
ATOM     22  C   UNL     1       3.438  16.926   2.384  1.00  0.00    -0.051 A 
ATOM     23  C   UNL     1       3.134  18.387   2.533  1.00  0.00     0.044 C 
ENDBRANCH  16  17
ENDBRANCH   6  16
TORSDOF 3
ENDMDL
MODEL 5
REMARK VINA RESULT:    -3.982      4.813     11.028
REMARK INTER + INTRA:          -5.138
REMARK INTER:                  -4.649
REMARK INTRA:                  -0.489
REMARK UNBOUND:                -0.458
REMARK SMILES Cc1ccc(CNC(=O)NC(=O)c2ccc(C)cc2)cc1
REMARK SMILES IDX 11 1 12 2 10 3 8 4 9 5 7 6 13 9 19 10 18 11 14 12 16 13
REMARK SMILES IDX 15 14 17 15 6 16 5 17 4 18 20 19 3 20 21 21 2 22 1 23
REMARK H PARENT 10 7 7 8
ROOT
ATOM      1  C   UNL     1      11.456  12.771   6.446  1.00  0.00     0.259 C 
ATOM      2  O   UNL     1      11.699  13.898   6.035  1.00  0.00    -0.269 OA
ATOM      3  N   UNL     1      12.276  11.915   7.188  1.00  0.00    -0.274 N 
ATOM      4  C   UNL     1      13.438  12.000   7.912  1.00  0.00     0.321 C 
ATOM      5  O   UNL     1      13.784  11.005   8.558  1.00  0.00    -0.248 OA
ATOM      6  N   UNL     1      14.195  13.111   7.977  1.00  0.00    -0.334 N 
ATOM      7  H   UNL     1      11.861  11.016   7.395  1.00  0.00     0.175 HD
ATOM      8  H   UNL     1      14.970  13.037   8.620  1.00  0.00     0.165 HD
ENDROOT
BRANCH   1   9
ATOM      9  C   UNL     1      10.122  12.226   6.131  1.00  0.00     0.040 A 
ATOM     10  C   UNL     1       8.960  12.962   6.370  1.00  0.00     0.014 A 
ATOM     11  C   UNL     1       7.724  12.426   6.007  1.00  0.00     0.004 A 
ATOM     12  C   UNL     1      10.049  10.939   5.589  1.00  0.00     0.014 A 
ATOM     13  C   UNL     1       7.645  11.157   5.414  1.00  0.00    -0.051 A 
ATOM     14  C   UNL     1       8.814  10.410   5.222  1.00  0.00     0.004 A 
ATOM     15  C   UNL     1       6.318  10.630   4.952  1.00  0.00     0.044 C 
ENDBRANCH   1   9
BRANCH   6  16
ATOM     16  C   UNL     1      13.921  14.393   7.393  1.00  0.00     0.153 C 
BRANCH  16  17
ATOM     17  C   UNL     1      13.882  15.578   8.317  1.00  0.00    -0.029 A 
ATOM     18  C   UNL     1      13.690  16.889   7.870  1.00  0.00     0.006 A 
ATOM     19  C   UNL     1      13.825  15.317   9.696  1.00  0.00     0.006 A 
ATOM     20  C   UNL     1      13.423  17.910   8.788  1.00  0.00     0.004 A 
ATOM     21  C   UNL     1      13.555  16.332  10.608  1.00  0.00     0.004 A 
ATOM     22  C   UNL     1      13.341  17.637  10.160  1.00  0.00    -0.051 A 
ATOM     23  C   UNL     1      12.916  18.695  11.134  1.00  0.00     0.044 C 
ENDBRANCH  16  17
ENDBRANCH   6  16
TORSDOF 3
ENDMDL
MODEL 6
REMARK VINA RESULT:    -3.750      5.127     11.216
REMARK INTER + INTRA:          -4.866
REMARK INTER:                  -4.380
REMARK INTRA:                  -0.485
REMARK UNBOUND:                -0.458
REMARK SMILES Cc1ccc(CNC(=O)NC(=O)c2ccc(C)cc2)cc1
REMARK SMILES IDX 11 1 12 2 10 3 8 4 9 5 7 6 13 9 19 10 18 11 14 12 16 13
REMARK SMILES IDX 15 14 17 15 6 16 5 17 4 18 20 19 3 20 21 21 2 22 1 23
REMARK H PARENT 10 7 7 8
ROOT
ATOM      1  C   UNL     1      11.455  13.626   7.070  1.00  0.00     0.259 C 
ATOM      2  O   UNL     1      11.625  13.571   8.280  1.00  0.00    -0.269 OA
ATOM      3  N   UNL     1      12.186  14.340   6.115  1.00  0.00    -0.274 N 
ATOM      4  C   UNL     1      13.387  14.997   6.042  1.00  0.00     0.321 C 
ATOM      5  O   UNL     1      13.752  15.403   4.933  1.00  0.00    -0.248 OA
ATOM      6  N   UNL     1      14.195  15.192   7.101  1.00  0.00    -0.334 N 
ATOM      7  H   UNL     1      11.840  14.245   5.170  1.00  0.00     0.175 HD
ATOM      8  H   UNL     1      15.080  15.616   6.864  1.00  0.00     0.165 HD
ENDROOT
BRANCH   1   9
ATOM      9  C   UNL     1      10.336  12.834   6.524  1.00  0.00     0.040 A 
ATOM     10  C   UNL     1      10.554  11.614   5.880  1.00  0.00     0.014 A 
ATOM     11  C   UNL     1       9.460  10.876   5.427  1.00  0.00     0.004 A 
ATOM     12  C   UNL     1       9.042  13.344   6.662  1.00  0.00     0.014 A 
ATOM     13  C   UNL     1       8.154  11.355   5.607  1.00  0.00    -0.051 A 
ATOM     14  C   UNL     1       7.952  12.600   6.213  1.00  0.00     0.004 A 
ATOM     15  C   UNL     1       6.985  10.511   5.190  1.00  0.00     0.044 C 
ENDBRANCH   1   9
BRANCH   6  16
ATOM     16  C   UNL     1      14.011  14.715   8.442  1.00  0.00     0.153 C 
BRANCH  16  17
ATOM     17  C   UNL     1      13.866  15.745   9.527  1.00  0.00    -0.029 A 
ATOM     18  C   UNL     1      13.505  17.073   9.276  1.00  0.00     0.006 A 
ATOM     19  C   UNL     1      13.892  15.289  10.855  1.00  0.00     0.006 A 
ATOM     20  C   UNL     1      13.153  17.915  10.336  1.00  0.00     0.004 A 
ATOM     21  C   UNL     1      13.538  16.126  11.908  1.00  0.00     0.004 A 
ATOM     22  C   UNL     1      13.155  17.444  11.657  1.00  0.00    -0.051 A 
ATOM     23  C   UNL     1      12.644  18.296  12.780  1.00  0.00     0.044 C 
ENDBRANCH  16  17
ENDBRANCH   6  16
TORSDOF 3
ENDMDL
MODEL 7
REMARK VINA RESULT:    -3.686      5.108     10.494
REMARK INTER + INTRA:          -4.790
REMARK INTER:                  -4.722
REMARK INTRA:                  -0.068
REMARK UNBOUND:                -0.458
REMARK SMILES Cc1ccc(CNC(=O)NC(=O)c2ccc(C)cc2)cc1
REMARK SMILES IDX 11 1 12 2 10 3 8 4 9 5 7 6 13 9 19 10 18 11 14 12 16 13
REMARK SMILES IDX 15 14 17 15 6 16 5 17 4 18 20 19 3 20 21 21 2 22 1 23
REMARK H PARENT 10 7 7 8
ROOT
ATOM      1  C   UNL     1      11.173  14.166   6.784  1.00  0.00     0.259 C 
ATOM      2  O   UNL     1      11.037  14.831   7.802  1.00  0.00    -0.269 OA
ATOM      3  N   UNL     1      12.227  14.177   5.865  1.00  0.00    -0.274 N 
ATOM      4  C   UNL     1      13.510  14.656   5.801  1.00  0.00     0.321 C 
ATOM      5  O   UNL     1      14.195  14.331   4.825  1.00  0.00    -0.248 OA
ATOM      6  N   UNL     1      14.065  15.429   6.753  1.00  0.00    -0.334 N 
ATOM      7  H   UNL     1      12.104  13.548   5.082  1.00  0.00     0.175 HD
ATOM      8  H   UNL     1      15.043  15.626   6.598  1.00  0.00     0.165 HD
ENDROOT
BRANCH   1   9
ATOM      9  C   UNL     1      10.091  13.213   6.468  1.00  0.00     0.040 A 
ATOM     10  C   UNL     1       8.750  13.535   6.688  1.00  0.00     0.014 A 
ATOM     11  C   UNL     1       7.760  12.623   6.325  1.00  0.00     0.004 A 
ATOM     12  C   UNL     1      10.446  11.966   5.946  1.00  0.00     0.014 A 
ATOM     13  C   UNL     1       8.103  11.389   5.752  1.00  0.00    -0.051 A 
ATOM     14  C   UNL     1       9.453  11.060   5.578  1.00  0.00     0.004 A 
ATOM     15  C   UNL     1       7.024  10.455   5.289  1.00  0.00     0.044 C 
ENDBRANCH   1   9
BRANCH   6  16
ATOM     16  C   UNL     1      13.484  15.831   8.002  1.00  0.00     0.153 C 
BRANCH  16  17
ATOM     17  C   UNL     1      13.799  14.994   9.211  1.00  0.00    -0.029 A 
ATOM     18  C   UNL     1      13.821  15.509  10.511  1.00  0.00     0.006 A 
ATOM     19  C   UNL     1      13.863  13.603   9.031  1.00  0.00     0.006 A 
ATOM     20  C   UNL     1      13.882  14.641  11.607  1.00  0.00     0.004 A 
ATOM     21  C   UNL     1      13.918  12.741  10.121  1.00  0.00     0.004 A 
ATOM     22  C   UNL     1      13.918  13.252  11.420  1.00  0.00    -0.051 A 
ATOM     23  C   UNL     1      13.838  12.314  12.587  1.00  0.00     0.044 C 
ENDBRANCH  16  17
ENDBRANCH   6  16
TORSDOF 3
ENDMDL
MODEL 8
REMARK VINA RESULT:    -3.067      6.899      9.394
REMARK INTER + INTRA:          -4.063
REMARK INTER:                  -3.695
REMARK INTRA:                  -0.368
REMARK UNBOUND:                -0.458
REMARK SMILES Cc1ccc(CNC(=O)NC(=O)c2ccc(C)cc2)cc1
REMARK SMILES IDX 11 1 12 2 10 3 8 4 9 5 7 6 13 9 19 10 18 11 14 12 16 13
REMARK SMILES IDX 15 14 17 15 6 16 5 17 4 18 20 19 3 20 21 21 2 22 1 23
REMARK H PARENT 10 7 7 8
ROOT
ATOM      1  C   UNL     1       8.438  17.731   5.010  1.00  0.00     0.259 C 
ATOM      2  O   UNL     1       8.378  17.259   6.136  1.00  0.00    -0.269 OA
ATOM      3  N   UNL     1       9.551  18.238   4.332  1.00  0.00    -0.274 N 
ATOM      4  C   UNL     1      10.915  18.219   4.467  1.00  0.00     0.321 C 
ATOM      5  O   UNL     1      11.589  18.694   3.546  1.00  0.00    -0.248 OA
ATOM      6  N   UNL     1      11.551  17.687   5.527  1.00  0.00    -0.334 N 
ATOM      7  H   UNL     1       9.348  18.597   3.408  1.00  0.00     0.175 HD
ATOM      8  H   UNL     1      12.556  17.675   5.435  1.00  0.00     0.165 HD
ENDROOT
BRANCH   1   9
ATOM      9  C   UNL     1       7.177  17.774   4.244  1.00  0.00     0.040 A 
ATOM     10  C   UNL     1       6.977  16.964   3.125  1.00  0.00     0.014 A 
ATOM     11  C   UNL     1       5.749  17.002   2.464  1.00  0.00     0.004 A 
ATOM     12  C   UNL     1       6.183  18.661   4.666  1.00  0.00     0.014 A 
ATOM     13  C   UNL     1       4.725  17.851   2.911  1.00  0.00    -0.051 A 
ATOM     14  C   UNL     1       4.955  18.691   4.007  1.00  0.00     0.004 A 
ATOM     15  C   UNL     1       3.383  17.818   2.242  1.00  0.00     0.044 C 
ENDBRANCH   1   9
BRANCH   6  16
ATOM     16  C   UNL     1      10.966  17.000   6.644  1.00  0.00     0.153 C 
BRANCH  16  17
ATOM     17  C   UNL     1      10.993  15.497   6.620  1.00  0.00    -0.029 A 
ATOM     18  C   UNL     1       9.990  14.706   7.190  1.00  0.00     0.006 A 
ATOM     19  C   UNL     1      11.961  14.884   5.807  1.00  0.00     0.006 A 
ATOM     20  C   UNL     1       9.947  13.333   6.926  1.00  0.00     0.004 A 
ATOM     21  C   UNL     1      11.914  13.519   5.542  1.00  0.00     0.004 A 
ATOM     22  C   UNL     1      10.900  12.733   6.092  1.00  0.00    -0.051 A 
ATOM     23  C   UNL     1      10.777  11.293   5.691  1.00  0.00     0.044 C 
ENDBRANCH  16  17
ENDBRANCH   6  16
TORSDOF 3
ENDMDL
MODEL 9
REMARK VINA RESULT:    -2.955      7.272      9.630
REMARK INTER + INTRA:          -3.931
REMARK INTER:                  -3.585
REMARK INTRA:                  -0.346
REMARK UNBOUND:                -0.458
REMARK SMILES Cc1ccc(CNC(=O)NC(=O)c2ccc(C)cc2)cc1
REMARK SMILES IDX 11 1 12 2 10 3 8 4 9 5 7 6 13 9 19 10 18 11 14 12 16 13
REMARK SMILES IDX 15 14 17 15 6 16 5 17 4 18 20 19 3 20 21 21 2 22 1 23
REMARK H PARENT 10 7 7 8
ROOT
ATOM      1  C   UNL     1       8.118  16.854   4.664  1.00  0.00     0.259 C 
ATOM      2  O   UNL     1       8.077  15.803   5.288  1.00  0.00    -0.269 OA
ATOM      3  N   UNL     1       9.193  17.735   4.502  1.00  0.00    -0.274 N 
ATOM      4  C   UNL     1      10.549  17.725   4.702  1.00  0.00     0.321 C 
ATOM      5  O   UNL     1      11.196  18.695   4.293  1.00  0.00    -0.248 OA
ATOM      6  N   UNL     1      11.208  16.709   5.290  1.00  0.00    -0.334 N 
ATOM      7  H   UNL     1       8.978  18.558   3.956  1.00  0.00     0.175 HD
ATOM      8  H   UNL     1      12.212  16.817   5.284  1.00  0.00     0.165 HD
ENDROOT
BRANCH   1   9
ATOM      9  C   UNL     1       6.877  17.265   3.979  1.00  0.00     0.040 A 
ATOM     10  C   UNL     1       6.449  16.635   2.809  1.00  0.00     0.014 A 
ATOM     11  C   UNL     1       5.242  17.023   2.226  1.00  0.00     0.004 A 
ATOM     12  C   UNL     1       6.138  18.315   4.533  1.00  0.00     0.014 A 
ATOM     13  C   UNL     1       4.467  18.040   2.802  1.00  0.00    -0.051 A 
ATOM     14  C   UNL     1       4.930  18.694   3.951  1.00  0.00     0.004 A 
ATOM     15  C   UNL     1       3.132  18.387   2.212  1.00  0.00     0.044 C 
ENDBRANCH   1   9
BRANCH   6  16
ATOM     16  C   UNL     1      10.666  15.457   5.738  1.00  0.00     0.153 C 
BRANCH  16  17
ATOM     17  C   UNL     1      11.643  14.393   6.155  1.00  0.00    -0.029 A 
ATOM     18  C   UNL     1      12.834  14.672   6.832  1.00  0.00     0.006 A 
ATOM     19  C   UNL     1      11.226  13.056   6.039  1.00  0.00     0.006 A 
ATOM     20  C   UNL     1      13.576  13.632   7.402  1.00  0.00     0.004 A 
ATOM     21  C   UNL     1      11.962  12.024   6.610  1.00  0.00     0.004 A 
ATOM     22  C   UNL     1      13.140  12.304   7.306  1.00  0.00    -0.051 A 
ATOM     23  C   UNL     1      13.852  11.203   8.033  1.00  0.00     0.044 C 
ENDBRANCH  16  17
ENDBRANCH   6  16
TORSDOF 3
ENDMDL
