MODEL 1
REMARK VINA RESULT:    -5.223      0.000      0.000
REMARK INTER + INTRA:          -6.501
REMARK INTER:                  -6.139
REMARK INTRA:                  -0.362
REMARK UNBOUND:                -0.362
REMARK SMILES Cc1ccc(CNC(=O)NC(=O)c2ccc(C)cc2)cc1
REMARK SMILES IDX 11 1 12 2 10 3 8 4 9 5 7 6 13 9 19 10 18 11 14 12 16 13
REMARK SMILES IDX 15 14 17 15 6 16 5 17 4 18 20 19 3 20 21 21 2 22 1 23
REMARK H PARENT 10 7 7 8
ROOT
ATOM      1  C   UNL     1       3.384  -0.825   8.731  1.00  0.00     0.259 C 
ATOM      2  O   UNL     1       4.488  -0.730   8.213  1.00  0.00    -0.269 OA
ATOM      3  N   UNL     1       3.059  -1.211  10.035  1.00  0.00    -0.274 N 
ATOM      4  C   UNL     1       3.707  -1.387  11.231  1.00  0.00     0.321 C 
ATOM      5  O   UNL     1       3.016  -1.617  12.229  1.00  0.00    -0.248 OA
ATOM      6  N   UNL     1       5.042  -1.291  11.375  1.00  0.00    -0.334 N 
ATOM      7  H   UNL     1       2.067  -1.234  10.228  1.00  0.00     0.175 HD
ATOM      8  H   UNL     1       5.354  -1.361  12.333  1.00  0.00     0.165 HD
ENDROOT
BRANCH   1   9
ATOM      9  C   UNL     1       2.225  -0.484   7.883  1.00  0.00     0.040 A 
ATOM     10  C   UNL     1       1.390  -1.473   7.360  1.00  0.00     0.014 A 
ATOM     11  C   UNL     1       0.276  -1.100   6.607  1.00  0.00     0.004 A 
ATOM     12  C   UNL     1       1.986   0.866   7.609  1.00  0.00     0.014 A 
ATOM     13  C   UNL     1      -0.002   0.254   6.370  1.00  0.00    -0.051 A 
ATOM     14  C   UNL     1       0.869   1.234   6.862  1.00  0.00     0.004 A 
ATOM     15  C   UNL     1      -1.249   0.642   5.631  1.00  0.00     0.044 C 
ENDBRANCH   1   9
BRANCH   6  16
ATOM     16  C   UNL     1       6.008  -0.933  10.375  1.00  0.00     0.153 C 
BRANCH  16  17
ATOM     17  C   UNL     1       7.385  -0.561  10.848  1.00  0.00    -0.029 A 
ATOM     18  C   UNL     1       8.029   0.622  10.470  1.00  0.00     0.006 A 
ATOM     19  C   UNL     1       7.946  -1.340  11.874  1.00  0.00     0.006 A 
ATOM     20  C   UNL     1       9.197   1.025  11.127  1.00  0.00     0.004 A 
ATOM     21  C   UNL     1       9.104  -0.936  12.529  1.00  0.00     0.004 A 
ATOM     22  C   UNL     1       9.734   0.256  12.169  1.00  0.00    -0.051 A 
ATOM     23  C   UNL     1      10.901   0.750  12.971  1.00  0.00     0.044 C 
ENDBRANCH  16  17
ENDBRANCH   6  16
TORSDOF 3
ENDMDL
MODEL 2
REMARK VINA RESULT:    -5.170      3.261      5.494
REMARK INTER + INTRA:          -6.438
REMARK INTER:                  -6.070
REMARK INTRA:                  -0.369
REMARK UNBOUND:                -0.362
REMARK SMILES Cc1ccc(CNC(=O)NC(=O)c2ccc(C)cc2)cc1
REMARK SMILES IDX 11 1 12 2 10 3 8 4 9 5 7 6 13 9 19 10 18 11 14 12 16 13
REMARK SMILES IDX 15 14 17 15 6 16 5 17 4 18 20 19 3 20 21 21 2 22 1 23
REMARK H PARENT 10 7 7 8
ROOT
ATOM      1  C   UNL     1       2.868  -1.082   8.981  1.00  0.00     0.259 C 
ATOM      2  O   UNL     1       1.797  -1.142   9.569  1.00  0.00    -0.269 OA
ATOM      3  N   UNL     1       4.153  -0.950   9.516  1.00  0.00    -0.274 N 
ATOM      4  C   UNL     1       4.758  -1.066  10.742  1.00  0.00     0.321 C 
ATOM      5  O   UNL     1       5.991  -0.999  10.781  1.00  0.00    -0.248 OA
ATOM      6  N   UNL     1       4.083  -1.277  11.887  1.00  0.00    -0.334 N 
ATOM      7  H   UNL     1       4.890  -0.900   8.825  1.00  0.00     0.175 HD
ATOM      8  H   UNL     1       4.680  -1.425  12.689  1.00  0.00     0.165 HD
ENDROOT
BRANCH   1   9
ATOM      9  C   UNL     1       2.820  -1.164   7.509  1.00  0.00     0.040 A 
ATOM     10  C   UNL     1       2.938  -0.024   6.712  1.00  0.00     0.014 A 
ATOM     11  C   UNL     1       2.939  -0.158   5.323  1.00  0.00     0.004 A 
ATOM     12  C   UNL     1       2.643  -2.423   6.927  1.00  0.00     0.014 A 
ATOM     13  C   UNL     1       2.815  -1.423   4.729  1.00  0.00    -0.051 A 
ATOM     14  C   UNL     1       2.652  -2.553   5.539  1.00  0.00     0.004 A 
ATOM     15  C   UNL     1       2.903  -1.559   3.238  1.00  0.00     0.044 C 
ENDBRANCH   1   9
BRANCH   6  16
ATOM     16  C   UNL     1       2.672  -1.487  12.047  1.00  0.00     0.153 C 
BRANCH  16  17
ATOM     17  C   UNL     1       2.210  -2.126  13.327  1.00  0.00    -0.029 A 
ATOM     18  C   UNL     1       1.417  -3.277  13.363  1.00  0.00     0.006 A 
ATOM     19  C   UNL     1       2.780  -1.657  14.522  1.00  0.00     0.006 A 
ATOM     20  C   UNL     1       1.223  -3.956  14.571  1.00  0.00     0.004 A 
ATOM     21  C   UNL     1       2.591  -2.336  15.722  1.00  0.00     0.004 A 
ATOM     22  C   UNL     1       1.818  -3.498  15.755  1.00  0.00    -0.051 A 
ATOM     23  C   UNL     1       1.733  -4.296  17.021  1.00  0.00     0.044 C 
ENDBRANCH  16  17
ENDBRANCH   6  16
TORSDOF 3
ENDMDL
MODEL 3
REMARK VINA RESULT:    -4.995      0.555      8.066
REMARK INTER + INTRA:          -6.233
REMARK INTER:                  -5.740
REMARK INTRA:                  -0.493
REMARK UNBOUND:                -0.362
REMARK SMILES Cc1ccc(CNC(=O)NC(=O)c2ccc(C)cc2)cc1
REMARK SMILES IDX 11 1 12 2 10 3 8 4 9 5 7 6 13 9 19 10 18 11 14 12 16 13
REMARK SMILES IDX 15 14 17 15 6 16 5 17 4 18 20 19 3 20 21 21 2 22 1 23
REMARK H PARENT 10 7 7 8
ROOT
ATOM      1  C   UNL     1       5.844  -0.723  10.339  1.00  0.00     0.259 C 
ATOM      2  O   UNL     1       5.732  -0.628   9.125  1.00  0.00    -0.269 OA
ATOM      3  N   UNL     1       4.871  -1.061  11.284  1.00  0.00    -0.274 N 
ATOM      4  C   UNL     1       3.614  -1.610  11.292  1.00  0.00     0.321 C 
ATOM      5  O   UNL     1       3.114  -1.883  12.389  1.00  0.00    -0.248 OA
ATOM      6  N   UNL     1       2.916  -1.890  10.175  1.00  0.00    -0.334 N 
ATOM      7  H   UNL     1       5.198  -1.053  12.241  1.00  0.00     0.175 HD
ATOM      8  H   UNL     1       2.045  -2.369  10.349  1.00  0.00     0.165 HD
ENDROOT
BRANCH   1   9
ATOM      9  C   UNL     1       7.181  -0.451  10.902  1.00  0.00     0.040 A 
ATOM     10  C   UNL     1       7.923   0.664  10.511  1.00  0.00     0.014 A 
ATOM     11  C   UNL     1       9.159   0.908  11.110  1.00  0.00     0.004 A 
ATOM     12  C   UNL     1       7.693  -1.352  11.841  1.00  0.00     0.014 A 
ATOM     13  C   UNL     1       9.659   0.038  12.090  1.00  0.00    -0.051 A 
ATOM     14  C   UNL     1       8.925  -1.102  12.441  1.00  0.00     0.004 A 
ATOM     15  C   UNL     1      10.949   0.359  12.785  1.00  0.00     0.044 C 
ENDBRANCH   1   9
BRANCH   6  16
ATOM     16  C   UNL     1       3.350  -1.748   8.814  1.00  0.00     0.153 C 
BRANCH  16  17
ATOM     17  C   UNL     1       2.377  -1.143   7.840  1.00  0.00    -0.029 A 
ATOM     18  C   UNL     1       1.422  -1.895   7.148  1.00  0.00     0.006 A 
ATOM     19  C   UNL     1       2.300   0.259   7.795  1.00  0.00     0.006 A 
ATOM     20  C   UNL     1       0.397  -1.250   6.447  1.00  0.00     0.004 A 
ATOM     21  C   UNL     1       1.278   0.899   7.101  1.00  0.00     0.004 A 
ATOM     22  C   UNL     1       0.311   0.149   6.429  1.00  0.00    -0.051 A 
ATOM     23  C   UNL     1      -0.861   0.843   5.802  1.00  0.00     0.044 C 
ENDBRANCH  16  17
ENDBRANCH   6  16
TORSDOF 3
ENDMDL
MODEL 4
REMARK VINA RESULT:    -4.853      3.124      7.396
REMARK INTER + INTRA:          -6.066
REMARK INTER:                  -5.559
REMARK INTRA:                  -0.507
REMARK UNBOUND:                -0.362
REMARK SMILES Cc1ccc(CNC(=O)NC(=O)c2ccc(C)cc2)cc1
REMARK SMILES IDX 11 1 12 2 10 3 8 4 9 5 7 6 13 9 19 10 18 11 14 12 16 13
REMARK SMILES IDX 15 14 17 15 6 16 5 17 4 18 20 19 3 20 21 21 2 22 1 23
REMARK H PARENT 10 7 7 8
ROOT
ATOM      1  C   UNL     1       2.704  -1.727  11.789  1.00  0.00     0.259 C 
ATOM      2  O   UNL     1       1.781  -1.578  11.000  1.00  0.00    -0.269 OA
ATOM      3  N   UNL     1       4.065  -1.468  11.603  1.00  0.00    -0.274 N 
ATOM      4  C   UNL     1       4.855  -0.797  10.705  1.00  0.00     0.321 C 
ATOM      5  O   UNL     1       6.056  -0.681  10.973  1.00  0.00    -0.248 OA
ATOM      6  N   UNL     1       4.387  -0.236   9.575  1.00  0.00    -0.334 N 
ATOM      7  H   UNL     1       4.645  -1.692  12.400  1.00  0.00     0.175 HD
ATOM      8  H   UNL     1       5.079   0.294   9.066  1.00  0.00     0.165 HD
ENDROOT
BRANCH   1   9
ATOM      9  C   UNL     1       2.353  -2.245  13.126  1.00  0.00     0.040 A 
ATOM     10  C   UNL     1       1.503  -3.341  13.282  1.00  0.00     0.014 A 
ATOM     11  C   UNL     1       1.242  -3.828  14.563  1.00  0.00     0.004 A 
ATOM     12  C   UNL     1       2.892  -1.599  14.242  1.00  0.00     0.014 A 
ATOM     13  C   UNL     1       1.820  -3.219  15.687  1.00  0.00    -0.051 A 
ATOM     14  C   UNL     1       2.634  -2.092  15.520  1.00  0.00     0.004 A 
ATOM     15  C   UNL     1       1.598  -3.805  17.051  1.00  0.00     0.044 C 
ENDBRANCH   1   9
BRANCH   6  16
ATOM     16  C   UNL     1       3.023  -0.165   9.132  1.00  0.00     0.153 C 
BRANCH  16  17
ATOM     17  C   UNL     1       2.743  -0.520   7.698  1.00  0.00    -0.029 A 
ATOM     18  C   UNL     1       2.795   0.412   6.657  1.00  0.00     0.006 A 
ATOM     19  C   UNL     1       2.634  -1.884   7.383  1.00  0.00     0.006 A 
ATOM     20  C   UNL     1       2.764  -0.021   5.327  1.00  0.00     0.004 A 
ATOM     21  C   UNL     1       2.608  -2.314   6.060  1.00  0.00     0.004 A 
ATOM     22  C   UNL     1       2.683  -1.387   5.020  1.00  0.00    -0.051 A 
ATOM     23  C   UNL     1       2.793  -1.867   3.604  1.00  0.00     0.044 C 
ENDBRANCH  16  17
ENDBRANCH   6  16
TORSDOF 3
ENDMDL
MODEL 5
REMARK VINA RESULT:    -3.590      2.386      4.085
REMARK INTER + INTRA:          -4.581
REMARK INTER:                  -4.196
REMARK INTRA:                  -0.385
REMARK UNBOUND:                -0.362
REMARK SMILES Cc1ccc(CNC(=O)NC(=O)c2ccc(C)cc2)cc1
REMARK SMILES IDX 11 1 12 2 10 3 8 4 9 5 7 6 13 9 19 10 18 11 14 12 16 13
REMARK SMILES IDX 15 14 17 15 6 16 5 17 4 18 20 19 3 20 21 21 2 22 1 23
REMARK H PARENT 10 7 7 8
ROOT
ATOM      1  C   UNL     1       6.666  -0.608  10.396  1.00  0.00     0.259 C 
ATOM      2  O   UNL     1       7.259   0.335   9.892  1.00  0.00    -0.269 OA
ATOM      3  N   UNL     1       7.116  -1.504  11.371  1.00  0.00    -0.274 N 
ATOM      4  C   UNL     1       8.151  -1.593  12.266  1.00  0.00     0.321 C 
ATOM      5  O   UNL     1       8.124  -2.518  13.084  1.00  0.00    -0.248 OA
ATOM      6  N   UNL     1       9.168  -0.712  12.316  1.00  0.00    -0.334 N 
ATOM      7  H   UNL     1       6.447  -2.222  11.617  1.00  0.00     0.175 HD
ATOM      8  H   UNL     1       9.803  -0.868  13.086  1.00  0.00     0.165 HD
ENDROOT
BRANCH   1   9
ATOM      9  C   UNL     1       5.287  -0.847   9.930  1.00  0.00     0.040 A 
ATOM     10  C   UNL     1       4.275  -1.225  10.814  1.00  0.00     0.014 A 
ATOM     11  C   UNL     1       2.974  -1.388  10.336  1.00  0.00     0.004 A 
ATOM     12  C   UNL     1       5.017  -0.689   8.567  1.00  0.00     0.014 A 
ATOM     13  C   UNL     1       2.683  -1.182   8.979  1.00  0.00    -0.051 A 
ATOM     14  C   UNL     1       3.716  -0.846   8.094  1.00  0.00     0.004 A 
ATOM     15  C   UNL     1       1.266  -1.278   8.496  1.00  0.00     0.044 C 
ENDBRANCH   1   9
BRANCH   6  16
ATOM     16  C   UNL     1       9.334   0.480  11.534  1.00  0.00     0.153 C 
BRANCH  16  17
ATOM     17  C   UNL     1      10.268   1.531  12.068  1.00  0.00    -0.029 A 
ATOM     18  C   UNL     1       9.925   2.884  12.153  1.00  0.00     0.006 A 
ATOM     19  C   UNL     1      11.443   1.088  12.697  1.00  0.00     0.006 A 
ATOM     20  C   UNL     1      10.735   3.767  12.875  1.00  0.00     0.004 A 
ATOM     21  C   UNL     1      12.245   1.966  13.419  1.00  0.00     0.004 A 
ATOM     22  C   UNL     1      11.892   3.313  13.523  1.00  0.00    -0.051 A 
ATOM     23  C   UNL     1      12.685   4.221  14.414  1.00  0.00     0.044 C 
ENDBRANCH  16  17
ENDBRANCH   6  16
TORSDOF 3
ENDMDL
MODEL 6
REMARK VINA RESULT:    -3.549      4.798      7.152
REMARK INTER + INTRA:          -4.533
REMARK INTER:                  -4.100
REMARK INTRA:                  -0.433
REMARK UNBOUND:                -0.362
REMARK SMILES Cc1ccc(CNC(=O)NC(=O)c2ccc(C)cc2)cc1
REMARK SMILES IDX 11 1 12 2 10 3 8 4 9 5 7 6 13 9 19 10 18 11 14 12 16 13
REMARK SMILES IDX 15 14 17 15 6 16 5 17 4 18 20 19 3 20 21 21 2 22 1 23
REMARK H PARENT 10 7 7 8
ROOT
ATOM      1  C   UNL     1       2.435  -1.585  12.313  1.00  0.00     0.259 C 
ATOM      2  O   UNL     1       1.340  -2.089  12.520  1.00  0.00    -0.269 OA
ATOM      3  N   UNL     1       3.440  -1.268  13.232  1.00  0.00    -0.274 N 
ATOM      4  C   UNL     1       3.745  -1.553  14.538  1.00  0.00     0.321 C 
ATOM      5  O   UNL     1       4.840  -1.173  14.967  1.00  0.00    -0.248 OA
ATOM      6  N   UNL     1       2.933  -2.246  15.358  1.00  0.00    -0.334 N 
ATOM      7  H   UNL     1       4.257  -0.834  12.824  1.00  0.00     0.175 HD
ATOM      8  H   UNL     1       3.340  -2.445  16.261  1.00  0.00     0.165 HD
ENDROOT
BRANCH   1   9
ATOM      9  C   UNL     1       2.761  -1.266  10.910  1.00  0.00     0.040 A 
ATOM     10  C   UNL     1       3.186  -2.253  10.018  1.00  0.00     0.014 A 
ATOM     11  C   UNL     1       3.432  -1.912   8.688  1.00  0.00     0.004 A 
ATOM     12  C   UNL     1       2.639   0.063  10.493  1.00  0.00     0.014 A 
ATOM     13  C   UNL     1       3.262  -0.591   8.248  1.00  0.00    -0.051 A 
ATOM     14  C   UNL     1       2.879   0.398   9.162  1.00  0.00     0.004 A 
ATOM     15  C   UNL     1       3.449  -0.258   6.797  1.00  0.00     0.044 C 
ENDBRANCH   1   9
BRANCH   6  16
ATOM     16  C   UNL     1       1.677  -2.861  15.033  1.00  0.00     0.153 C 
BRANCH  16  17
ATOM     17  C   UNL     1       1.384  -4.199  15.652  1.00  0.00    -0.029 A 
ATOM     18  C   UNL     1       1.651  -5.413  15.010  1.00  0.00     0.006 A 
ATOM     19  C   UNL     1       1.024  -4.215  17.010  1.00  0.00     0.006 A 
ATOM     20  C   UNL     1       1.582  -6.613  15.725  1.00  0.00     0.004 A 
ATOM     21  C   UNL     1       0.961  -5.409  17.721  1.00  0.00     0.004 A 
ATOM     22  C   UNL     1       1.249  -6.618  17.087  1.00  0.00    -0.051 A 
ATOM     23  C   UNL     1       1.313  -7.882  17.892  1.00  0.00     0.044 C 
ENDBRANCH  16  17
ENDBRANCH   6  16
TORSDOF 3
ENDMDL
MODEL 7
REMARK VINA RESULT:    -2.719      1.824      8.237
REMARK INTER + INTRA:          -3.558
REMARK INTER:                  -3.145
REMARK INTRA:                  -0.412
REMARK UNBOUND:                -0.362
REMARK SMILES Cc1ccc(CNC(=O)NC(=O)c2ccc(C)cc2)cc1
REMARK SMILES IDX 11 1 12 2 10 3 8 4 9 5 7 6 13 9 19 10 18 11 14 12 16 13
REMARK SMILES IDX 15 14 17 15 6 16 5 17 4 18 20 19 3 20 21 21 2 22 1 23
REMARK H PARENT 10 7 7 8
ROOT
ATOM      1  C   UNL     1       5.179  -1.006   9.797  1.00  0.00     0.259 C 
ATOM      2  O   UNL     1       4.457  -0.043   9.586  1.00  0.00    -0.269 OA
ATOM      3  N   UNL     1       4.943  -2.356   9.517  1.00  0.00    -0.274 N 
ATOM      4  C   UNL     1       4.065  -3.096   8.768  1.00  0.00     0.321 C 
ATOM      5  O   UNL     1       4.276  -4.310   8.671  1.00  0.00    -0.248 OA
ATOM      6  N   UNL     1       3.012  -2.568   8.117  1.00  0.00    -0.334 N 
ATOM      7  H   UNL     1       5.687  -2.978   9.805  1.00  0.00     0.175 HD
ATOM      8  H   UNL     1       2.514  -3.232   7.542  1.00  0.00     0.165 HD
ENDROOT
BRANCH   1   9
ATOM      9  C   UNL     1       6.484  -0.728  10.427  1.00  0.00     0.040 A 
ATOM     10  C   UNL     1       7.267   0.358  10.031  1.00  0.00     0.014 A 
ATOM     11  C   UNL     1       8.469   0.612  10.692  1.00  0.00     0.004 A 
ATOM     12  C   UNL     1       6.924  -1.591  11.436  1.00  0.00     0.014 A 
ATOM     13  C   UNL     1       8.895  -0.218  11.741  1.00  0.00    -0.051 A 
ATOM     14  C   UNL     1       8.122  -1.330  12.098  1.00  0.00     0.004 A 
ATOM     15  C   UNL     1      10.146   0.117  12.497  1.00  0.00     0.044 C 
ENDBRANCH   1   9
BRANCH   6  16
ATOM     16  C   UNL     1       2.651  -1.182   8.014  1.00  0.00     0.153 C 
BRANCH  16  17
ATOM     17  C   UNL     1       2.061  -0.717   6.712  1.00  0.00    -0.029 A 
ATOM     18  C   UNL     1       2.785  -0.682   5.515  1.00  0.00     0.006 A 
ATOM     19  C   UNL     1       0.672  -0.514   6.671  1.00  0.00     0.006 A 
ATOM     20  C   UNL     1       2.121  -0.473   4.302  1.00  0.00     0.004 A 
ATOM     21  C   UNL     1       0.013  -0.311   5.463  1.00  0.00     0.004 A 
ATOM     22  C   UNL     1       0.730  -0.299   4.266  1.00  0.00    -0.051 A 
ATOM     23  C   UNL     1      -0.004  -0.217   2.962  1.00  0.00     0.044 C 
ENDBRANCH  16  17
ENDBRANCH   6  16
TORSDOF 3
ENDMDL
MODEL 8
REMARK VINA RESULT:    -2.549      2.756      9.100
REMARK INTER + INTRA:          -3.358
REMARK INTER:                  -2.984
REMARK INTRA:                  -0.375
REMARK UNBOUND:                -0.362
REMARK SMILES Cc1ccc(CNC(=O)NC(=O)c2ccc(C)cc2)cc1
REMARK SMILES IDX 11 1 12 2 10 3 8 4 9 5 7 6 13 9 19 10 18 11 14 12 16 13
REMARK SMILES IDX 15 14 17 15 6 16 5 17 4 18 20 19 3 20 21 21 2 22 1 23
REMARK H PARENT 10 7 7 8
ROOT
ATOM      1  C   UNL     1       8.536  -0.965  12.809  1.00  0.00     0.259 C 
ATOM      2  O   UNL     1       7.691  -1.846  12.728  1.00  0.00    -0.269 OA
ATOM      3  N   UNL     1       8.861   0.025  11.877  1.00  0.00    -0.274 N 
ATOM      4  C   UNL     1       8.316   0.562  10.738  1.00  0.00     0.321 C 
ATOM      5  O   UNL     1       8.866   1.558  10.255  1.00  0.00    -0.248 OA
ATOM      6  N   UNL     1       7.208   0.082  10.145  1.00  0.00    -0.334 N 
ATOM      7  H   UNL     1       9.617   0.634  12.161  1.00  0.00     0.175 HD
ATOM      8  H   UNL     1       6.888   0.641   9.367  1.00  0.00     0.165 HD
ENDROOT
BRANCH   1   9
ATOM      9  C   UNL     1       9.328  -0.922  14.054  1.00  0.00     0.040 A 
ATOM     10  C   UNL     1       9.014  -1.735  15.145  1.00  0.00     0.014 A 
ATOM     11  C   UNL     1       9.823  -1.697  16.281  1.00  0.00     0.004 A 
ATOM     12  C   UNL     1      10.405  -0.033  14.116  1.00  0.00     0.014 A 
ATOM     13  C   UNL     1      10.937  -0.846  16.333  1.00  0.00    -0.051 A 
ATOM     14  C   UNL     1      11.215  -0.003  15.250  1.00  0.00     0.004 A 
ATOM     15  C   UNL     1      11.846  -0.879  17.527  1.00  0.00     0.044 C 
ENDBRANCH   1   9
BRANCH   6  16
ATOM     16  C   UNL     1       6.367  -0.991  10.597  1.00  0.00     0.153 C 
BRANCH  16  17
ATOM     17  C   UNL     1       4.972  -1.054  10.041  1.00  0.00    -0.029 A 
ATOM     18  C   UNL     1       4.131   0.061   9.958  1.00  0.00     0.006 A 
ATOM     19  C   UNL     1       4.592  -2.240   9.391  1.00  0.00     0.006 A 
ATOM     20  C   UNL     1       2.946  -0.009   9.217  1.00  0.00     0.004 A 
ATOM     21  C   UNL     1       3.416  -2.307   8.651  1.00  0.00     0.004 A 
ATOM     22  C   UNL     1       2.587  -1.188   8.549  1.00  0.00    -0.051 A 
ATOM     23  C   UNL     1       1.396  -1.227   7.639  1.00  0.00     0.044 C 
ENDBRANCH  16  17
ENDBRANCH   6  16
TORSDOF 3
ENDMDL
MODEL 9
REMARK VINA RESULT:    -2.397      2.576      8.722
REMARK INTER + INTRA:          -3.179
REMARK INTER:                  -2.738
REMARK INTRA:                  -0.440
REMARK UNBOUND:                -0.362
REMARK SMILES Cc1ccc(CNC(=O)NC(=O)c2ccc(C)cc2)cc1
REMARK SMILES IDX 11 1 12 2 10 3 8 4 9 5 7 6 13 9 19 10 18 11 14 12 16 13
REMARK SMILES IDX 15 14 17 15 6 16 5 17 4 18 20 19 3 20 21 21 2 22 1 23
REMARK H PARENT 10 7 7 8
ROOT
ATOM      1  C   UNL     1       8.732   0.788  11.982  1.00  0.00     0.259 C 
ATOM      2  O   UNL     1       7.975   1.280  11.158  1.00  0.00    -0.269 OA
ATOM      3  N   UNL     1       8.752  -0.518  12.483  1.00  0.00    -0.274 N 
ATOM      4  C   UNL     1       8.205  -1.734  12.163  1.00  0.00     0.321 C 
ATOM      5  O   UNL     1       8.587  -2.721  12.802  1.00  0.00    -0.248 OA
ATOM      6  N   UNL     1       7.305  -1.909  11.178  1.00  0.00    -0.334 N 
ATOM      7  H   UNL     1       9.465  -0.687  13.180  1.00  0.00     0.175 HD
ATOM      8  H   UNL     1       7.065  -2.876  11.013  1.00  0.00     0.165 HD
ENDROOT
BRANCH   1   9
ATOM      9  C   UNL     1       9.777   1.673  12.532  1.00  0.00     0.040 A 
ATOM     10  C   UNL     1       9.981   2.958  12.026  1.00  0.00     0.014 A 
ATOM     11  C   UNL     1      10.946   3.778  12.612  1.00  0.00     0.004 A 
ATOM     12  C   UNL     1      10.569   1.186  13.576  1.00  0.00     0.014 A 
ATOM     13  C   UNL     1      11.710   3.317  13.695  1.00  0.00    -0.051 A 
ATOM     14  C   UNL     1      11.526   2.011  14.163  1.00  0.00     0.004 A 
ATOM     15  C   UNL     1      12.683   4.240  14.369  1.00  0.00     0.044 C 
ENDBRANCH   1   9
BRANCH   6  16
ATOM     16  C   UNL     1       6.811  -0.925  10.258  1.00  0.00     0.153 C 
BRANCH  16  17
ATOM     17  C   UNL     1       5.355  -0.995   9.887  1.00  0.00    -0.029 A 
ATOM     18  C   UNL     1       4.543   0.137   9.762  1.00  0.00     0.006 A 
ATOM     19  C   UNL     1       4.862  -2.235   9.448  1.00  0.00     0.006 A 
ATOM     20  C   UNL     1       3.274   0.028   9.185  1.00  0.00     0.004 A 
ATOM     21  C   UNL     1       3.601  -2.341   8.870  1.00  0.00     0.004 A 
ATOM     22  C   UNL     1       2.800  -1.208   8.724  1.00  0.00    -0.051 A 
ATOM     23  C   UNL     1       1.503  -1.308   7.978  1.00  0.00     0.044 C 
ENDBRANCH  16  17
ENDBRANCH   6  16
TORSDOF 3
ENDMDL
