MODEL 1
REMARK VINA RESULT:    -3.725      0.000      0.000
REMARK INTER + INTRA:          -5.139
REMARK INTER:                  -4.923
REMARK INTRA:                  -0.216
REMARK UNBOUND:                -0.216
REMARK SMILES [H]/N=C\C[C@H]1C[C@@H]1O[C@H]1CO[C@H]2C[C@@H](C3CC3)CCN2C1
REMARK SMILES IDX 7 1 6 2 5 3 8 4 9 5 14 6 13 7 18 8 12 9 19 10 20 11 11 12
REMARK SMILES IDX 21 13 10 14 15 15 16 16 17 17 4 18 3 19 2 20 1 21
REMARK H PARENT
ROOT
ATOM      1  C   UNL     1       4.353  -0.878  10.038  1.00  0.00     0.122 C 
ATOM      2  C   UNL     1       3.129  -1.023  10.897  1.00  0.00     0.039 C 
ATOM      3  C   UNL     1       3.320   0.215  10.069  1.00  0.00     0.026 C 
ENDROOT
BRANCH   1   4
ATOM      4  O   UNL     1       5.565  -0.641  10.780  1.00  0.00    -0.371 OA
BRANCH   4   5
ATOM      5  C   UNL     1       6.756  -1.223  10.224  1.00  0.00     0.158 C 
ATOM      6  C   UNL     1      10.293   1.586  12.832  1.00  0.00    -0.003 C 
ATOM      7  C   UNL     1       9.300   1.853  11.694  1.00  0.00     0.052 C 
ATOM      8  C   UNL     1       9.705   0.532  13.781  1.00  0.00     0.019 C 
ATOM      9  C   UNL     1       8.869   0.556  10.997  1.00  0.00     0.189 C 
ATOM     10  C   UNL     1       9.265  -0.719  13.022  1.00  0.00     0.087 C 
ATOM     11  N   UNL     1       8.306  -0.383  11.969  1.00  0.00    -0.276 NA
ATOM     12  O   UNL     1       7.918   0.925   9.997  1.00  0.00    -0.360 OA
ATOM     13  C   UNL     1       7.808  -1.583  11.288  1.00  0.00     0.121 C 
ATOM     14  C   UNL     1       7.393  -0.197   9.281  1.00  0.00     0.195 C 
BRANCH   6  15
ATOM     15  C   UNL     1      10.625   2.853  13.587  1.00  0.00    -0.008 C 
ATOM     16  C   UNL     1      12.035   3.109  14.065  1.00  0.00     0.004 C 
ATOM     17  C   UNL     1      11.463   3.936  12.951  1.00  0.00     0.004 C 
ENDBRANCH   6  15
ENDBRANCH   4   5
ENDBRANCH   1   4
BRANCH   3  18
ATOM     18  C   UNL     1       2.427   0.444   8.886  1.00  0.00     0.053 C 
BRANCH  18  19
ATOM     19  C   UNL     1       2.088   1.878   8.575  1.00  0.00     0.074 C 
BRANCH  19  20
ATOM     20  N   UNL     1       1.889   2.814   9.442  1.00  0.00    -0.313 NA
ATOM     21  H   UNL     1       1.075   2.612  10.040  1.00  0.00     0.186 HD
ENDBRANCH  19  20
ENDBRANCH  18  19
ENDBRANCH   3  18
TORSDOF 6
ENDMDL
MODEL 2
REMARK VINA RESULT:    -3.326      5.491      8.418
REMARK INTER + INTRA:          -4.612
REMARK INTER:                  -4.340
REMARK INTRA:                  -0.272
REMARK UNBOUND:                -0.216
REMARK SMILES [H]/N=C\C[C@H]1C[C@@H]1O[C@H]1CO[C@H]2C[C@@H](C3CC3)CCN2C1
REMARK SMILES IDX 7 1 6 2 5 3 8 4 9 5 14 6 13 7 18 8 12 9 19 10 20 11 11 12
REMARK SMILES IDX 21 13 10 14 15 15 16 16 17 17 4 18 3 19 2 20 1 21
REMARK H PARENT
ROOT
ATOM      1  C   UNL     1       3.495  -1.261  10.473  1.00  0.00     0.122 C 
ATOM      2  C   UNL     1       4.861  -1.540   9.911  1.00  0.00     0.039 C 
ATOM      3  C   UNL     1       3.662  -2.256   9.357  1.00  0.00     0.026 C 
ENDROOT
BRANCH   1   4
ATOM      4  O   UNL     1       3.281  -1.800  11.791  1.00  0.00    -0.371 OA
BRANCH   4   5
ATOM      5  C   UNL     1       2.198  -1.214  12.532  1.00  0.00     0.158 C 
ATOM      6  C   UNL     1       1.916  -4.703  16.398  1.00  0.00    -0.003 C 
ATOM      7  C   UNL     1       1.557  -4.685  14.907  1.00  0.00     0.052 C 
ATOM      8  C   UNL     1       3.134  -3.801  16.638  1.00  0.00     0.019 C 
ATOM      9  C   UNL     1       1.389  -3.253  14.379  1.00  0.00     0.189 C 
ATOM     10  C   UNL     1       2.916  -2.403  16.060  1.00  0.00     0.087 C 
ATOM     11  N   UNL     1       2.598  -2.470  14.634  1.00  0.00    -0.276 NA
ATOM     12  O   UNL     1       1.105  -3.364  12.983  1.00  0.00    -0.360 OA
ATOM     13  C   UNL     1       2.472  -1.133  14.044  1.00  0.00     0.121 C 
ATOM     14  C   UNL     1       0.959  -2.094  12.340  1.00  0.00     0.195 C 
BRANCH   6  15
ATOM     15  C   UNL     1       2.192  -6.108  16.885  1.00  0.00    -0.008 C 
ATOM     16  C   UNL     1       1.277  -6.760  17.895  1.00  0.00     0.004 C 
ATOM     17  C   UNL     1       1.300  -7.257  16.479  1.00  0.00     0.004 C 
ENDBRANCH   6  15
ENDBRANCH   4   5
ENDBRANCH   1   4
BRANCH   3  18
ATOM     18  C   UNL     1       3.194  -1.924   7.972  1.00  0.00     0.053 C 
BRANCH  18  19
ATOM     19  C   UNL     1       2.809  -3.091   7.101  1.00  0.00     0.074 C 
BRANCH  19  20
ATOM     20  N   UNL     1       3.434  -4.219   7.027  1.00  0.00    -0.313 NA
ATOM     21  H   UNL     1       2.840  -4.956   6.623  1.00  0.00     0.186 HD
ENDBRANCH  19  20
ENDBRANCH  18  19
ENDBRANCH   3  18
TORSDOF 6
ENDMDL
MODEL 3
REMARK VINA RESULT:    -3.224      5.081      8.432
REMARK INTER + INTRA:          -4.478
REMARK INTER:                  -4.179
REMARK INTRA:                  -0.298
REMARK UNBOUND:                -0.216
REMARK SMILES [H]/N=C\C[C@H]1C[C@@H]1O[C@H]1CO[C@H]2C[C@@H](C3CC3)CCN2C1
REMARK SMILES IDX 7 1 6 2 5 3 8 4 9 5 14 6 13 7 18 8 12 9 19 10 20 11 11 12
REMARK SMILES IDX 21 13 10 14 15 15 16 16 17 17 4 18 3 19 2 20 1 21
REMARK H PARENT
ROOT
ATOM      1  C   UNL     1       2.082  -1.925  12.666  1.00  0.00     0.122 C 
ATOM      2  C   UNL     1       0.589  -2.094  12.672  1.00  0.00     0.039 C 
ATOM      3  C   UNL     1       1.470  -3.203  13.172  1.00  0.00     0.026 C 
ENDROOT
BRANCH   1   4
ATOM      4  O   UNL     1       2.673  -1.970  11.353  1.00  0.00    -0.371 OA
BRANCH   4   5
ATOM      5  C   UNL     1       3.540  -0.872  11.026  1.00  0.00     0.158 C 
ATOM      6  C   UNL     1       2.562  -0.598   5.910  1.00  0.00    -0.003 C 
ATOM      7  C   UNL     1       3.318  -1.561   6.834  1.00  0.00     0.052 C 
ATOM      8  C   UNL     1       1.374   0.008   6.671  1.00  0.00     0.019 C 
ATOM      9  C   UNL     1       3.700  -0.895   8.162  1.00  0.00     0.189 C 
ATOM     10  C   UNL     1       1.817   0.624   7.998  1.00  0.00     0.087 C 
ATOM     11  N   UNL     1       2.511  -0.361   8.827  1.00  0.00    -0.276 NA
ATOM     12  O   UNL     1       4.351  -1.894   8.949  1.00  0.00    -0.360 OA
ATOM     13  C   UNL     1       2.865   0.190  10.139  1.00  0.00     0.121 C 
ATOM     14  C   UNL     1       4.736  -1.425  10.244  1.00  0.00     0.195 C 
BRANCH   6  15
ATOM     15  C   UNL     1       2.089  -1.292   4.653  1.00  0.00    -0.008 C 
ATOM     16  C   UNL     1       2.608  -0.861   3.301  1.00  0.00     0.004 C 
ATOM     17  C   UNL     1       3.015  -2.189   3.869  1.00  0.00     0.004 C 
ENDBRANCH   6  15
ENDBRANCH   4   5
ENDBRANCH   1   4
BRANCH   3  18
ATOM     18  C   UNL     1       1.481  -3.517  14.639  1.00  0.00     0.053 C 
BRANCH  18  19
ATOM     19  C   UNL     1       1.551  -4.976  15.007  1.00  0.00     0.074 C 
BRANCH  19  20
ATOM     20  N   UNL     1       2.630  -5.675  15.132  1.00  0.00    -0.313 NA
ATOM     21  H   UNL     1       3.425  -5.234  14.649  1.00  0.00     0.186 HD
ENDBRANCH  19  20
ENDBRANCH  18  19
ENDBRANCH   3  18
TORSDOF 6
ENDMDL
MODEL 4
REMARK VINA RESULT:    -3.214      2.606      8.463
REMARK INTER + INTRA:          -4.464
REMARK INTER:                  -4.180
REMARK INTRA:                  -0.283
REMARK UNBOUND:                -0.216
REMARK SMILES [H]/N=C\C[C@H]1C[C@@H]1O[C@H]1CO[C@H]2C[C@@H](C3CC3)CCN2C1
REMARK SMILES IDX 7 1 6 2 5 3 8 4 9 5 14 6 13 7 18 8 12 9 19 10 20 11 11 12
REMARK SMILES IDX 21 13 10 14 15 15 16 16 17 17 4 18 3 19 2 20 1 21
REMARK H PARENT
ROOT
ATOM      1  C   UNL     1       6.926  -0.603  10.297  1.00  0.00     0.122 C 
ATOM      2  C   UNL     1       7.846  -0.306   9.147  1.00  0.00     0.039 C 
ATOM      3  C   UNL     1       7.805   0.617  10.332  1.00  0.00     0.026 C 
ENDROOT
BRANCH   1   4
ATOM      4  O   UNL     1       5.532  -0.385  10.006  1.00  0.00    -0.371 OA
BRANCH   4   5
ATOM      5  C   UNL     1       4.649  -1.462  10.359  1.00  0.00     0.158 C 
ATOM      6  C   UNL     1       1.007  -0.720   6.700  1.00  0.00    -0.003 C 
ATOM      7  C   UNL     1       1.438   0.001   7.982  1.00  0.00     0.052 C 
ATOM      8  C   UNL     1       2.235  -1.372   6.047  1.00  0.00     0.019 C 
ATOM      9  C   UNL     1       2.227  -0.924   8.919  1.00  0.00     0.189 C 
ATOM     10  C   UNL     1       2.995  -2.251   7.040  1.00  0.00     0.087 C 
ATOM     11  N   UNL     1       3.386  -1.486   8.224  1.00  0.00    -0.276 NA
ATOM     12  O   UNL     1       2.610  -0.133  10.046  1.00  0.00    -0.360 OA
ATOM     13  C   UNL     1       4.191  -2.293   9.147  1.00  0.00     0.121 C 
ATOM     14  C   UNL     1       3.394  -0.859  10.999  1.00  0.00     0.195 C 
BRANCH   6  15
ATOM     15  C   UNL     1       0.330   0.224   5.732  1.00  0.00    -0.008 C 
ATOM     16  C   UNL     1      -1.078  -0.048   5.259  1.00  0.00     0.004 C 
ATOM     17  C   UNL     1      -0.810   1.105   6.182  1.00  0.00     0.004 C 
ENDBRANCH   6  15
ENDBRANCH   4   5
ENDBRANCH   1   4
BRANCH   3  18
ATOM     18  C   UNL     1       8.988   0.670  11.252  1.00  0.00     0.053 C 
BRANCH  18  19
ATOM     19  C   UNL     1       9.352   2.028  11.792  1.00  0.00     0.074 C 
BRANCH  19  20
ATOM     20  N   UNL     1       8.963   2.524  12.919  1.00  0.00    -0.313 NA
ATOM     21  H   UNL     1       9.693   2.446  13.641  1.00  0.00     0.186 HD
ENDBRANCH  19  20
ENDBRANCH  18  19
ENDBRANCH   3  18
TORSDOF 6
ENDMDL
MODEL 5
REMARK VINA RESULT:    -2.727      1.869      2.245
REMARK INTER + INTRA:          -3.820
REMARK INTER:                  -3.873
REMARK INTRA:                   0.053
REMARK UNBOUND:                -0.216
REMARK SMILES [H]/N=C\C[C@H]1C[C@@H]1O[C@H]1CO[C@H]2C[C@@H](C3CC3)CCN2C1
REMARK SMILES IDX 7 1 6 2 5 3 8 4 9 5 14 6 13 7 18 8 12 9 19 10 20 11 11 12
REMARK SMILES IDX 21 13 10 14 15 15 16 16 17 17 4 18 3 19 2 20 1 21
REMARK H PARENT
ROOT
ATOM      1  C   UNL     1       4.122  -0.568  10.337  1.00  0.00     0.122 C 
ATOM      2  C   UNL     1       4.038  -1.978   9.823  1.00  0.00     0.039 C 
ATOM      3  C   UNL     1       3.468  -1.636  11.170  1.00  0.00     0.026 C 
ENDROOT
BRANCH   1   4
ATOM      4  O   UNL     1       5.447  -0.164  10.730  1.00  0.00    -0.371 OA
BRANCH   4   5
ATOM      5  C   UNL     1       6.524  -0.902  10.128  1.00  0.00     0.158 C 
ATOM      6  C   UNL     1      10.493   1.201  12.779  1.00  0.00    -0.003 C 
ATOM      7  C   UNL     1       9.540   1.670  11.672  1.00  0.00     0.052 C 
ATOM      8  C   UNL     1       9.759   0.212  13.695  1.00  0.00     0.019 C 
ATOM      9  C   UNL     1       8.901   0.488  10.932  1.00  0.00     0.189 C 
ATOM     10  C   UNL     1       9.117  -0.921  12.894  1.00  0.00     0.087 C 
ATOM     11  N   UNL     1       8.210  -0.392  11.875  1.00  0.00    -0.276 NA
ATOM     12  O   UNL     1       8.007   1.045   9.966  1.00  0.00    -0.360 OA
ATOM     13  C   UNL     1       7.520  -1.468  11.155  1.00  0.00     0.121 C 
ATOM     14  C   UNL     1       7.302   0.052   9.215  1.00  0.00     0.195 C 
BRANCH   6  15
ATOM     15  C   UNL     1      11.031   2.365  13.578  1.00  0.00    -0.008 C 
ATOM     16  C   UNL     1      12.474   2.789  13.434  1.00  0.00     0.004 C 
ATOM     17  C   UNL     1      11.380   3.671  12.905  1.00  0.00     0.004 C 
ENDBRANCH   6  15
ENDBRANCH   4   5
ENDBRANCH   1   4
BRANCH   3  18
ATOM     18  C   UNL     1       1.980  -1.647  11.354  1.00  0.00     0.053 C 
BRANCH  18  19
ATOM     19  C   UNL     1       1.472  -2.230  12.647  1.00  0.00     0.074 C 
BRANCH  19  20
ATOM     20  N   UNL     1       2.183  -2.478  13.696  1.00  0.00    -0.313 NA
ATOM     21  H   UNL     1       3.106  -2.860  13.448  1.00  0.00     0.186 HD
ENDBRANCH  19  20
ENDBRANCH  18  19
ENDBRANCH   3  18
TORSDOF 6
ENDMDL
MODEL 6
REMARK VINA RESULT:    -2.448      4.969      8.381
REMARK INTER + INTRA:          -3.452
REMARK INTER:                  -3.669
REMARK INTRA:                   0.217
REMARK UNBOUND:                -0.216
REMARK SMILES [H]/N=C\C[C@H]1C[C@@H]1O[C@H]1CO[C@H]2C[C@@H](C3CC3)CCN2C1
REMARK SMILES IDX 7 1 6 2 5 3 8 4 9 5 14 6 13 7 18 8 12 9 19 10 20 11 11 12
REMARK SMILES IDX 21 13 10 14 15 15 16 16 17 17 4 18 3 19 2 20 1 21
REMARK H PARENT
ROOT
ATOM      1  C   UNL     1       3.736  -1.705  10.304  1.00  0.00     0.122 C 
ATOM      2  C   UNL     1       3.540  -0.217  10.224  1.00  0.00     0.039 C 
ATOM      3  C   UNL     1       4.904  -0.779  10.507  1.00  0.00     0.026 C 
ENDROOT
BRANCH   1   4
ATOM      4  O   UNL     1       3.177  -2.308  11.486  1.00  0.00    -0.371 OA
BRANCH   4   5
ATOM      5  C   UNL     1       2.179  -1.530  12.167  1.00  0.00     0.158 C 
ATOM      6  C   UNL     1       1.776  -4.394  16.507  1.00  0.00    -0.003 C 
ATOM      7  C   UNL     1       1.356  -4.557  15.040  1.00  0.00     0.052 C 
ATOM      8  C   UNL     1       3.074  -3.578  16.575  1.00  0.00     0.019 C 
ATOM      9  C   UNL     1       1.284  -3.206  14.315  1.00  0.00     0.189 C 
ATOM     10  C   UNL     1       2.947  -2.263  15.807  1.00  0.00     0.087 C 
ATOM     11  N   UNL     1       2.564  -2.504  14.416  1.00  0.00    -0.276 NA
ATOM     12  O   UNL     1       0.932  -3.489  12.959  1.00  0.00    -0.360 OA
ATOM     13  C   UNL     1       2.523  -1.258  13.642  1.00  0.00     0.121 C 
ATOM     14  C   UNL     1       0.864  -2.316  12.143  1.00  0.00     0.195 C 
BRANCH   6  15
ATOM     15  C   UNL     1       1.955  -5.734  17.184  1.00  0.00    -0.008 C 
ATOM     16  C   UNL     1       0.796  -6.392  17.895  1.00  0.00     0.004 C 
ATOM     17  C   UNL     1       1.319  -6.980  16.616  1.00  0.00     0.004 C 
ENDBRANCH   6  15
ENDBRANCH   4   5
ENDBRANCH   1   4
BRANCH   3  18
ATOM     18  C   UNL     1       5.969  -0.665   9.458  1.00  0.00     0.053 C 
BRANCH  18  19
ATOM     19  C   UNL     1       7.359  -0.356   9.951  1.00  0.00     0.074 C 
BRANCH  19  20
ATOM     20  N   UNL     1       7.798   0.808  10.297  1.00  0.00    -0.313 NA
ATOM     21  H   UNL     1       8.637   1.072   9.761  1.00  0.00     0.186 HD
ENDBRANCH  19  20
ENDBRANCH  18  19
ENDBRANCH   3  18
TORSDOF 6
ENDMDL
MODEL 7
REMARK VINA RESULT:    -2.233      2.540      7.534
REMARK INTER + INTRA:          -3.167
REMARK INTER:                  -3.896
REMARK INTRA:                   0.729
REMARK UNBOUND:                -0.216
REMARK SMILES [H]/N=C\C[C@H]1C[C@@H]1O[C@H]1CO[C@H]2C[C@@H](C3CC3)CCN2C1
REMARK SMILES IDX 7 1 6 2 5 3 8 4 9 5 14 6 13 7 18 8 12 9 19 10 20 11 11 12
REMARK SMILES IDX 21 13 10 14 15 15 16 16 17 17 4 18 3 19 2 20 1 21
REMARK H PARENT
ROOT
ATOM      1  C   UNL     1      10.136   1.541  15.187  1.00  0.00     0.122 C 
ATOM      2  C   UNL     1      11.466   0.876  15.400  1.00  0.00     0.039 C 
ATOM      3  C   UNL     1      11.360   2.065  14.488  1.00  0.00     0.026 C 
ENDROOT
BRANCH   1   4
ATOM      4  O   UNL     1       9.216   0.772  14.388  1.00  0.00    -0.371 OA
BRANCH   4   5
ATOM      5  C   UNL     1       9.792  -0.330  13.669  1.00  0.00     0.158 C 
ATOM      6  C   UNL     1       6.005  -1.035  10.153  1.00  0.00    -0.003 C 
ATOM      7  C   UNL     1       6.170  -1.291  11.656  1.00  0.00     0.052 C 
ATOM      8  C   UNL     1       6.819   0.205   9.757  1.00  0.00     0.019 C 
ATOM      9  C   UNL     1       7.647  -1.356  12.064  1.00  0.00     0.189 C 
ATOM     10  C   UNL     1       8.271   0.091  10.222  1.00  0.00     0.087 C 
ATOM     11  N   UNL     1       8.342  -0.132  11.666  1.00  0.00    -0.276 NA
ATOM     12  O   UNL     1       7.672  -1.550  13.480  1.00  0.00    -0.360 OA
ATOM     13  C   UNL     1       9.730  -0.156  12.141  1.00  0.00     0.121 C 
ATOM     14  C   UNL     1       8.997  -1.593  14.017  1.00  0.00     0.195 C 
BRANCH   6  15
ATOM     15  C   UNL     1       4.552  -0.858   9.776  1.00  0.00    -0.008 C 
ATOM     16  C   UNL     1       3.752  -2.026   9.248  1.00  0.00     0.004 C 
ATOM     17  C   UNL     1       3.455  -1.473  10.612  1.00  0.00     0.004 C 
ENDBRANCH   6  15
ENDBRANCH   4   5
ENDBRANCH   1   4
BRANCH   3  18
ATOM     18  C   UNL     1      11.976   3.364  14.913  1.00  0.00     0.053 C 
BRANCH  18  19
ATOM     19  C   UNL     1      12.344   4.320  13.809  1.00  0.00     0.074 C 
BRANCH  19  20
ATOM     20  N   UNL     1      12.348   5.609  13.892  1.00  0.00    -0.313 NA
ATOM     21  H   UNL     1      13.285   5.998  13.715  1.00  0.00     0.186 HD
ENDBRANCH  19  20
ENDBRANCH  18  19
ENDBRANCH   3  18
TORSDOF 6
ENDMDL
MODEL 8
REMARK VINA RESULT:    -2.077      4.471      7.443
REMARK INTER + INTRA:          -2.961
REMARK INTER:                  -2.743
REMARK INTRA:                  -0.218
REMARK UNBOUND:                -0.216
REMARK SMILES [H]/N=C\C[C@H]1C[C@@H]1O[C@H]1CO[C@H]2C[C@@H](C3CC3)CCN2C1
REMARK SMILES IDX 7 1 6 2 5 3 8 4 9 5 14 6 13 7 18 8 12 9 19 10 20 11 11 12
REMARK SMILES IDX 21 13 10 14 15 15 16 16 17 17 4 18 3 19 2 20 1 21
REMARK H PARENT
ROOT
ATOM      1  C   UNL     1       1.484  -4.525  14.940  1.00  0.00     0.122 C 
ATOM      2  C   UNL     1       1.415  -6.026  14.920  1.00  0.00     0.039 C 
ATOM      3  C   UNL     1       2.616  -5.339  15.504  1.00  0.00     0.026 C 
ENDROOT
BRANCH   1   4
ATOM      4  O   UNL     1       1.699  -3.930  13.647  1.00  0.00    -0.371 OA
BRANCH   4   5
ATOM      5  C   UNL     1       1.257  -2.569  13.509  1.00  0.00     0.158 C 
ATOM      6  C   UNL     1       4.978  -0.860  10.278  1.00  0.00    -0.003 C 
ATOM      7  C   UNL     1       4.905  -1.253  11.759  1.00  0.00     0.052 C 
ATOM      8  C   UNL     1       3.985  -1.714   9.477  1.00  0.00     0.019 C 
ATOM      9  C   UNL     1       3.466  -1.203  12.291  1.00  0.00     0.189 C 
ATOM     10  C   UNL     1       2.581  -1.649  10.077  1.00  0.00     0.087 C 
ATOM     11  N   UNL     1       2.593  -2.056  11.483  1.00  0.00    -0.276 NA
ATOM     12  O   UNL     1       3.519  -1.630  13.653  1.00  0.00    -0.360 OA
ATOM     13  C   UNL     1       1.240  -2.082  12.049  1.00  0.00     0.121 C 
ATOM     14  C   UNL     1       2.232  -1.672  14.278  1.00  0.00     0.195 C 
BRANCH   6  15
ATOM     15  C   UNL     1       6.378  -1.020   9.731  1.00  0.00    -0.008 C 
ATOM     16  C   UNL     1       7.347   0.139   9.759  1.00  0.00     0.004 C 
ATOM     17  C   UNL     1       7.572  -1.045  10.654  1.00  0.00     0.004 C 
ENDBRANCH   6  15
ENDBRANCH   4   5
ENDBRANCH   1   4
BRANCH   3  18
ATOM     18  C   UNL     1       2.840  -5.399  16.986  1.00  0.00     0.053 C 
BRANCH  18  19
ATOM     19  C   UNL     1       4.187  -4.938  17.476  1.00  0.00     0.074 C 
BRANCH  19  20
ATOM     20  N   UNL     1       5.229  -4.727  16.741  1.00  0.00    -0.313 NA
ATOM     21  H   UNL     1       5.913  -5.492  16.824  1.00  0.00     0.186 HD
ENDBRANCH  19  20
ENDBRANCH  18  19
ENDBRANCH   3  18
TORSDOF 6
ENDMDL
