MODEL 1
REMARK VINA RESULT:    -6.012      0.000      0.000
REMARK INTER + INTRA:          -7.435
REMARK INTER:                  -7.067
REMARK INTRA:                  -0.368
REMARK UNBOUND:                -0.368
REMARK SMILES Cc1ccc(CNC(=O)NC(=O)c2ccc(C)cc2)cc1
REMARK SMILES IDX 11 1 12 2 10 3 8 4 9 5 7 6 13 9 19 10 18 11 14 12 16 13
REMARK SMILES IDX 15 14 17 15 6 16 5 17 4 18 20 19 3 20 21 21 2 22 1 23
REMARK H PARENT 10 7 7 8
ROOT
ATOM      1  C   UNL     1       4.062   6.818  -6.975  1.00  0.00     0.259 C 
ATOM      2  O   UNL     1       5.115   6.597  -6.393  1.00  0.00    -0.269 OA
ATOM      3  N   UNL     1       3.761   7.836  -7.884  1.00  0.00    -0.274 N 
ATOM      4  C   UNL     1       4.444   8.759  -8.635  1.00  0.00     0.321 C 
ATOM      5  O   UNL     1       3.798   9.424  -9.452  1.00  0.00    -0.248 OA
ATOM      6  N   UNL     1       5.773   8.953  -8.547  1.00  0.00    -0.334 N 
ATOM      7  H   UNL     1       2.807   7.828  -8.219  1.00  0.00     0.175 HD
ATOM      8  H   UNL     1       6.134   9.606  -9.227  1.00  0.00     0.165 HD
ENDROOT
BRANCH   1   9
ATOM      9  C   UNL     1       2.947   5.892  -6.696  1.00  0.00     0.040 A 
ATOM     10  C   UNL     1       1.960   6.202  -5.759  1.00  0.00     0.014 A 
ATOM     11  C   UNL     1       0.897   5.319  -5.568  1.00  0.00     0.004 A 
ATOM     12  C   UNL     1       2.908   4.682  -7.397  1.00  0.00     0.014 A 
ATOM     13  C   UNL     1       0.821   4.126  -6.303  1.00  0.00    -0.051 A 
ATOM     14  C   UNL     1       1.840   3.806  -7.207  1.00  0.00     0.004 A 
ATOM     15  C   UNL     1      -0.372   3.228  -6.148  1.00  0.00     0.044 C 
ENDBRANCH   1   9
BRANCH   6  16
ATOM     16  C   UNL     1       6.714   8.222  -7.746  1.00  0.00     0.153 C 
BRANCH  16  17
ATOM     17  C   UNL     1       8.165   8.319  -8.126  1.00  0.00    -0.029 A 
ATOM     18  C   UNL     1       8.966   7.199  -8.371  1.00  0.00     0.006 A 
ATOM     19  C   UNL     1       8.662   9.592  -8.448  1.00  0.00     0.006 A 
ATOM     20  C   UNL     1      10.230   7.356  -8.951  1.00  0.00     0.004 A 
ATOM     21  C   UNL     1       9.917   9.747  -9.029  1.00  0.00     0.004 A 
ATOM     22  C   UNL     1      10.708   8.628  -9.295  1.00  0.00    -0.051 A 
ATOM     23  C   UNL     1      11.996   8.792 -10.045  1.00  0.00     0.044 C 
ENDBRANCH  16  17
ENDBRANCH   6  16
TORSDOF 3
ENDMDL
MODEL 2
REMARK VINA RESULT:    -6.009      3.240      5.518
REMARK INTER + INTRA:          -7.431
REMARK INTER:                  -7.059
REMARK INTRA:                  -0.372
REMARK UNBOUND:                -0.368
REMARK SMILES Cc1ccc(CNC(=O)NC(=O)c2ccc(C)cc2)cc1
REMARK SMILES IDX 11 1 12 2 10 3 8 4 9 5 7 6 13 9 19 10 18 11 14 12 16 13
REMARK SMILES IDX 15 14 17 15 6 16 5 17 4 18 20 19 3 20 21 21 2 22 1 23
REMARK H PARENT 10 7 7 8
ROOT
ATOM      1  C   UNL     1       3.732   7.062  -6.991  1.00  0.00     0.259 C 
ATOM      2  O   UNL     1       2.697   7.293  -7.601  1.00  0.00    -0.269 OA
ATOM      3  N   UNL     1       5.037   7.458  -7.300  1.00  0.00    -0.274 N 
ATOM      4  C   UNL     1       5.653   8.354  -8.135  1.00  0.00     0.321 C 
ATOM      5  O   UNL     1       6.873   8.506  -8.012  1.00  0.00    -0.248 OA
ATOM      6  N   UNL     1       4.997   9.091  -9.050  1.00  0.00    -0.334 N 
ATOM      7  H   UNL     1       5.738   7.124  -6.652  1.00  0.00     0.175 HD
ATOM      8  H   UNL     1       5.581   9.764  -9.525  1.00  0.00     0.165 HD
ENDROOT
BRANCH   1   9
ATOM      9  C   UNL     1       3.606   6.262  -5.758  1.00  0.00     0.040 A 
ATOM     10  C   UNL     1       3.835   4.885  -5.756  1.00  0.00     0.014 A 
ATOM     11  C   UNL     1       3.756   4.179  -4.555  1.00  0.00     0.004 A 
ATOM     12  C   UNL     1       3.242   6.923  -4.581  1.00  0.00     0.014 A 
ATOM     13  C   UNL     1       3.442   4.842  -3.359  1.00  0.00    -0.051 A 
ATOM     14  C   UNL     1       3.170   6.216  -3.382  1.00  0.00     0.004 A 
ATOM     15  C   UNL     1       3.444   4.086  -2.063  1.00  0.00     0.044 C 
ENDBRANCH   1   9
BRANCH   6  16
ATOM     16  C   UNL     1       3.581   9.143  -9.282  1.00  0.00     0.153 C 
BRANCH  16  17
ATOM     17  C   UNL     1       3.044  10.348 -10.003  1.00  0.00    -0.029 A 
ATOM     18  C   UNL     1       2.033  11.161  -9.481  1.00  0.00     0.006 A 
ATOM     19  C   UNL     1       3.741  10.779 -11.143  1.00  0.00     0.006 A 
ATOM     20  C   UNL     1       1.747  12.393 -10.080  1.00  0.00     0.004 A 
ATOM     21  C   UNL     1       3.458  12.006 -11.735  1.00  0.00     0.004 A 
ATOM     22  C   UNL     1       2.465  12.829 -11.202  1.00  0.00    -0.051 A 
ATOM     23  C   UNL     1       2.263  14.205 -11.761  1.00  0.00     0.044 C 
ENDBRANCH  16  17
ENDBRANCH   6  16
TORSDOF 3
ENDMDL
MODEL 3
REMARK VINA RESULT:    -5.938      0.534      8.082
REMARK INTER + INTRA:          -7.347
REMARK INTER:                  -6.877
REMARK INTRA:                  -0.470
REMARK UNBOUND:                -0.368
REMARK SMILES Cc1ccc(CNC(=O)NC(=O)c2ccc(C)cc2)cc1
REMARK SMILES IDX 11 1 12 2 10 3 8 4 9 5 7 6 13 9 19 10 18 11 14 12 16 13
REMARK SMILES IDX 15 14 17 15 6 16 5 17 4 18 20 19 3 20 21 21 2 22 1 23
REMARK H PARENT 10 7 7 8
ROOT
ATOM      1  C   UNL     1       6.706   7.859  -7.914  1.00  0.00     0.259 C 
ATOM      2  O   UNL     1       6.550   7.001  -7.057  1.00  0.00    -0.269 OA
ATOM      3  N   UNL     1       5.736   8.599  -8.599  1.00  0.00    -0.274 N 
ATOM      4  C   UNL     1       4.396   8.867  -8.481  1.00  0.00     0.321 C 
ATOM      5  O   UNL     1       3.912   9.712  -9.242  1.00  0.00    -0.248 OA
ATOM      6  N   UNL     1       3.598   8.284  -7.567  1.00  0.00    -0.334 N 
ATOM      7  H   UNL     1       6.109   9.241  -9.285  1.00  0.00     0.175 HD
ATOM      8  H   UNL     1       2.658   8.652  -7.554  1.00  0.00     0.165 HD
ENDROOT
BRANCH   1   9
ATOM      9  C   UNL     1       8.098   8.175  -8.288  1.00  0.00     0.040 A 
ATOM     10  C   UNL     1       9.047   7.169  -8.478  1.00  0.00     0.014 A 
ATOM     11  C   UNL     1      10.337   7.514  -8.882  1.00  0.00     0.004 A 
ATOM     12  C   UNL     1       8.448   9.521  -8.440  1.00  0.00     0.014 A 
ATOM     13  C   UNL     1      10.684   8.857  -9.089  1.00  0.00    -0.051 A 
ATOM     14  C   UNL     1       9.736   9.860  -8.850  1.00  0.00     0.004 A 
ATOM     15  C   UNL     1      12.049   9.205  -9.604  1.00  0.00     0.044 C 
ENDBRANCH   1   9
BRANCH   6  16
ATOM     16  C   UNL     1       3.977   7.363  -6.533  1.00  0.00     0.153 C 
BRANCH  16  17
ATOM     17  C   UNL     1       3.051   6.210  -6.262  1.00  0.00    -0.029 A 
ATOM     18  C   UNL     1       2.024   6.262  -5.314  1.00  0.00     0.006 A 
ATOM     19  C   UNL     1       3.100   5.124  -7.151  1.00  0.00     0.006 A 
ATOM     20  C   UNL     1       1.053   5.256  -5.278  1.00  0.00     0.004 A 
ATOM     21  C   UNL     1       2.131   4.126  -7.118  1.00  0.00     0.004 A 
ATOM     22  C   UNL     1       1.092   4.189  -6.187  1.00  0.00    -0.051 A 
ATOM     23  C   UNL     1      -0.021   3.186  -6.248  1.00  0.00     0.044 C 
ENDBRANCH  16  17
ENDBRANCH   6  16
TORSDOF 3
ENDMDL
MODEL 4
REMARK VINA RESULT:    -5.931      3.147      7.359
REMARK INTER + INTRA:          -7.340
REMARK INTER:                  -6.869
REMARK INTRA:                  -0.471
REMARK UNBOUND:                -0.368
REMARK SMILES Cc1ccc(CNC(=O)NC(=O)c2ccc(C)cc2)cc1
REMARK SMILES IDX 11 1 12 2 10 3 8 4 9 5 7 6 13 9 19 10 18 11 14 12 16 13
REMARK SMILES IDX 15 14 17 15 6 16 5 17 4 18 20 19 3 20 21 21 2 22 1 23
REMARK H PARENT 10 7 7 8
ROOT
ATOM      1  C   UNL     1       3.419   9.330  -8.908  1.00  0.00     0.259 C 
ATOM      2  O   UNL     1       2.495   8.675  -8.447  1.00  0.00    -0.269 OA
ATOM      3  N   UNL     1       4.794   9.155  -8.723  1.00  0.00    -0.274 N 
ATOM      4  C   UNL     1       5.635   8.186  -8.238  1.00  0.00     0.321 C 
ATOM      5  O   UNL     1       6.851   8.364  -8.373  1.00  0.00    -0.248 OA
ATOM      6  N   UNL     1       5.207   7.050  -7.658  1.00  0.00    -0.334 N 
ATOM      7  H   UNL     1       5.369   9.841  -9.193  1.00  0.00     0.175 HD
ATOM      8  H   UNL     1       5.949   6.403  -7.434  1.00  0.00     0.165 HD
ENDROOT
BRANCH   1   9
ATOM      9  C   UNL     1       3.055  10.459  -9.786  1.00  0.00     0.040 A 
ATOM     10  C   UNL     1       2.005  11.321  -9.466  1.00  0.00     0.014 A 
ATOM     11  C   UNL     1       1.732  12.406 -10.299  1.00  0.00     0.004 A 
ATOM     12  C   UNL     1       3.792  10.641 -10.961  1.00  0.00     0.014 A 
ATOM     13  C   UNL     1       2.499  12.628 -11.454  1.00  0.00    -0.051 A 
ATOM     14  C   UNL     1       3.520  11.730 -11.787  1.00  0.00     0.004 A 
ATOM     15  C   UNL     1       2.248  13.845 -12.294  1.00  0.00     0.044 C 
ENDBRANCH   1   9
BRANCH   6  16
ATOM     16  C   UNL     1       3.851   6.605  -7.499  1.00  0.00     0.153 C 
BRANCH  16  17
ATOM     17  C   UNL     1       3.489   5.950  -6.195  1.00  0.00    -0.029 A 
ATOM     18  C   UNL     1       3.561   4.568  -5.989  1.00  0.00     0.006 A 
ATOM     19  C   UNL     1       3.275   6.791  -5.090  1.00  0.00     0.006 A 
ATOM     20  C   UNL     1       3.445   4.047  -4.696  1.00  0.00     0.004 A 
ATOM     21  C   UNL     1       3.165   6.271  -3.805  1.00  0.00     0.004 A 
ATOM     22  C   UNL     1       3.259   4.894  -3.595  1.00  0.00    -0.051 A 
ATOM     23  C   UNL     1       3.277   4.356  -2.195  1.00  0.00     0.044 C 
ENDBRANCH  16  17
ENDBRANCH   6  16
TORSDOF 3
ENDMDL
MODEL 5
REMARK VINA RESULT:    -5.731      3.261      5.429
REMARK INTER + INTRA:          -7.104
REMARK INTER:                  -6.735
REMARK INTRA:                  -0.369
REMARK UNBOUND:                -0.368
REMARK SMILES Cc1ccc(CNC(=O)NC(=O)c2ccc(C)cc2)cc1
REMARK SMILES IDX 11 1 12 2 10 3 8 4 9 5 7 6 13 9 19 10 18 11 14 12 16 13
REMARK SMILES IDX 15 14 17 15 6 16 5 17 4 18 20 19 3 20 21 21 2 22 1 23
REMARK H PARENT 10 7 7 8
ROOT
ATOM      1  C   UNL     1       3.769   7.134  -6.966  1.00  0.00     0.259 C 
ATOM      2  O   UNL     1       2.718   7.370  -7.546  1.00  0.00    -0.269 OA
ATOM      3  N   UNL     1       5.068   7.514  -7.317  1.00  0.00    -0.274 N 
ATOM      4  C   UNL     1       5.666   8.398  -8.178  1.00  0.00     0.321 C 
ATOM      5  O   UNL     1       6.891   8.539  -8.094  1.00  0.00    -0.248 OA
ATOM      6  N   UNL     1       4.990   9.133  -9.080  1.00  0.00    -0.334 N 
ATOM      7  H   UNL     1       5.785   7.180  -6.688  1.00  0.00     0.175 HD
ATOM      8  H   UNL     1       5.565   9.797  -9.578  1.00  0.00     0.165 HD
ENDROOT
BRANCH   1   9
ATOM      9  C   UNL     1       3.673   6.346  -5.722  1.00  0.00     0.040 A 
ATOM     10  C   UNL     1       3.262   6.927  -4.521  1.00  0.00     0.014 A 
ATOM     11  C   UNL     1       3.137   6.131  -3.383  1.00  0.00     0.004 A 
ATOM     12  C   UNL     1       4.015   4.991  -5.775  1.00  0.00     0.014 A 
ATOM     13  C   UNL     1       3.428   4.759  -3.438  1.00  0.00    -0.051 A 
ATOM     14  C   UNL     1       3.882   4.197  -4.637  1.00  0.00     0.004 A 
ATOM     15  C   UNL     1       3.207   3.900  -2.228  1.00  0.00     0.044 C 
ENDBRANCH   1   9
BRANCH   6  16
ATOM     16  C   UNL     1       3.568   9.196  -9.269  1.00  0.00     0.153 C 
BRANCH  16  17
ATOM     17  C   UNL     1       3.022  10.390 -10.003  1.00  0.00    -0.029 A 
ATOM     18  C   UNL     1       2.013  11.208  -9.485  1.00  0.00     0.006 A 
ATOM     19  C   UNL     1       3.709  10.806 -11.155  1.00  0.00     0.006 A 
ATOM     20  C   UNL     1       1.719  12.430 -10.100  1.00  0.00     0.004 A 
ATOM     21  C   UNL     1       3.419  12.023 -11.762  1.00  0.00     0.004 A 
ATOM     22  C   UNL     1       2.428  12.852 -11.233  1.00  0.00    -0.051 A 
ATOM     23  C   UNL     1       2.218  14.219 -11.811  1.00  0.00     0.044 C 
ENDBRANCH  16  17
ENDBRANCH   6  16
TORSDOF 3
ENDMDL
MODEL 6
REMARK VINA RESULT:    -4.384      4.211      5.243
REMARK INTER + INTRA:          -5.521
REMARK INTER:                  -5.175
REMARK INTRA:                  -0.346
REMARK UNBOUND:                -0.368
REMARK SMILES Cc1ccc(CNC(=O)NC(=O)c2ccc(C)cc2)cc1
REMARK SMILES IDX 11 1 12 2 10 3 8 4 9 5 7 6 13 9 19 10 18 11 14 12 16 13
REMARK SMILES IDX 15 14 17 15 6 16 5 17 4 18 20 19 3 20 21 21 2 22 1 23
REMARK H PARENT 10 7 7 8
ROOT
ATOM      1  C   UNL     1       4.081   9.025  -8.710  1.00  0.00     0.259 C 
ATOM      2  O   UNL     1       5.182   9.215  -9.207  1.00  0.00    -0.269 OA
ATOM      3  N   UNL     1       2.889   9.722  -8.931  1.00  0.00    -0.274 N 
ATOM      4  C   UNL     1       2.396  10.624  -9.839  1.00  0.00     0.321 C 
ATOM      5  O   UNL     1       1.197  10.915  -9.766  1.00  0.00    -0.248 OA
ATOM      6  N   UNL     1       3.138  11.180 -10.815  1.00  0.00    -0.334 N 
ATOM      7  H   UNL     1       2.105   9.392  -8.385  1.00  0.00     0.175 HD
ATOM      8  H   UNL     1       2.607  11.756 -11.452  1.00  0.00     0.165 HD
ENDROOT
BRANCH   1   9
ATOM      9  C   UNL     1       3.972   7.910  -7.750  1.00  0.00     0.040 A 
ATOM     10  C   UNL     1       4.185   8.103  -6.383  1.00  0.00     0.014 A 
ATOM     11  C   UNL     1       4.020   7.030  -5.507  1.00  0.00     0.004 A 
ATOM     12  C   UNL     1       3.655   6.643  -8.248  1.00  0.00     0.014 A 
ATOM     13  C   UNL     1       3.651   5.766  -5.991  1.00  0.00    -0.051 A 
ATOM     14  C   UNL     1       3.485   5.575  -7.368  1.00  0.00     0.004 A 
ATOM     15  C   UNL     1       3.395   4.644  -5.028  1.00  0.00     0.044 C 
ENDBRANCH   1   9
BRANCH   6  16
ATOM     16  C   UNL     1       4.510  10.903 -11.137  1.00  0.00     0.153 C 
BRANCH  16  17
ATOM     17  C   UNL     1       5.025  11.411 -12.455  1.00  0.00    -0.029 A 
ATOM     18  C   UNL     1       4.304  11.302 -13.649  1.00  0.00     0.006 A 
ATOM     19  C   UNL     1       6.181  12.208 -12.430  1.00  0.00     0.006 A 
ATOM     20  C   UNL     1       4.724  12.002 -14.786  1.00  0.00     0.004 A 
ATOM     21  C   UNL     1       6.594  12.907 -13.560  1.00  0.00     0.004 A 
ATOM     22  C   UNL     1       5.863  12.818 -14.746  1.00  0.00    -0.051 A 
ATOM     23  C   UNL     1       6.237  13.680 -15.914  1.00  0.00     0.044 C 
ENDBRANCH  16  17
ENDBRANCH   6  16
TORSDOF 3
ENDMDL
MODEL 7
REMARK VINA RESULT:    -4.355      2.546      3.969
REMARK INTER + INTRA:          -5.487
REMARK INTER:                  -5.139
REMARK INTRA:                  -0.348
REMARK UNBOUND:                -0.368
REMARK SMILES Cc1ccc(CNC(=O)NC(=O)c2ccc(C)cc2)cc1
REMARK SMILES IDX 11 1 12 2 10 3 8 4 9 5 7 6 13 9 19 10 18 11 14 12 16 13
REMARK SMILES IDX 15 14 17 15 6 16 5 17 4 18 20 19 3 20 21 21 2 22 1 23
REMARK H PARENT 10 7 7 8
ROOT
ATOM      1  C   UNL     1       6.033   8.155  -8.054  1.00  0.00     0.259 C 
ATOM      2  O   UNL     1       5.805   9.189  -8.667  1.00  0.00    -0.269 OA
ATOM      3  N   UNL     1       7.257   7.506  -7.859  1.00  0.00    -0.274 N 
ATOM      4  C   UNL     1       8.590   7.792  -8.004  1.00  0.00     0.321 C 
ATOM      5  O   UNL     1       9.403   6.964  -7.580  1.00  0.00    -0.248 OA
ATOM      6  N   UNL     1       9.052   8.931  -8.553  1.00  0.00    -0.334 N 
ATOM      7  H   UNL     1       7.192   6.646  -7.330  1.00  0.00     0.175 HD
ATOM      8  H   UNL     1      10.056   9.026  -8.508  1.00  0.00     0.165 HD
ENDROOT
BRANCH   1   9
ATOM      9  C   UNL     1       4.876   7.491  -7.424  1.00  0.00     0.040 A 
ATOM     10  C   UNL     1       4.124   6.535  -8.109  1.00  0.00     0.014 A 
ATOM     11  C   UNL     1       3.071   5.895  -7.453  1.00  0.00     0.004 A 
ATOM     12  C   UNL     1       4.545   7.852  -6.114  1.00  0.00     0.014 A 
ATOM     13  C   UNL     1       2.763   6.213  -6.122  1.00  0.00    -0.051 A 
ATOM     14  C   UNL     1       3.496   7.206  -5.462  1.00  0.00     0.004 A 
ATOM     15  C   UNL     1       1.684   5.457  -5.405  1.00  0.00     0.044 C 
ENDBRANCH   1   9
BRANCH   6  16
ATOM     16  C   UNL     1       8.286  10.056  -9.009  1.00  0.00     0.153 C 
BRANCH  16  17
ATOM     17  C   UNL     1       9.027  11.342  -9.252  1.00  0.00    -0.029 A 
ATOM     18  C   UNL     1      10.023  11.822  -8.395  1.00  0.00     0.006 A 
ATOM     19  C   UNL     1       8.847  11.963 -10.499  1.00  0.00     0.006 A 
ATOM     20  C   UNL     1      10.836  12.888  -8.796  1.00  0.00     0.004 A 
ATOM     21  C   UNL     1       9.660  13.019 -10.897  1.00  0.00     0.004 A 
ATOM     22  C   UNL     1      10.669  13.484 -10.053  1.00  0.00    -0.051 A 
ATOM     23  C   UNL     1      11.626  14.528 -10.546  1.00  0.00     0.044 C 
ENDBRANCH  16  17
ENDBRANCH   6  16
TORSDOF 3
ENDMDL
MODEL 8
REMARK VINA RESULT:    -4.351      6.102      9.912
REMARK INTER + INTRA:          -5.482
REMARK INTER:                  -5.122
REMARK INTRA:                  -0.360
REMARK UNBOUND:                -0.368
REMARK SMILES Cc1ccc(CNC(=O)NC(=O)c2ccc(C)cc2)cc1
REMARK SMILES IDX 11 1 12 2 10 3 8 4 9 5 7 6 13 9 19 10 18 11 14 12 16 13
REMARK SMILES IDX 15 14 17 15 6 16 5 17 4 18 20 19 3 20 21 21 2 22 1 23
REMARK H PARENT 10 7 7 8
ROOT
ATOM      1  C   UNL     1       6.956  11.952 -11.966  1.00  0.00     0.259 C 
ATOM      2  O   UNL     1       6.295  11.219 -11.243  1.00  0.00    -0.269 OA
ATOM      3  N   UNL     1       6.691  12.359 -13.277  1.00  0.00    -0.274 N 
ATOM      4  C   UNL     1       5.628  12.355 -14.144  1.00  0.00     0.321 C 
ATOM      5  O   UNL     1       5.760  12.954 -15.216  1.00  0.00    -0.248 OA
ATOM      6  N   UNL     1       4.450  11.762 -13.874  1.00  0.00    -0.334 N 
ATOM      7  H   UNL     1       7.401  12.955 -13.680  1.00  0.00     0.175 HD
ATOM      8  H   UNL     1       3.744  11.923 -14.578  1.00  0.00     0.165 HD
ENDROOT
BRANCH   1   9
ATOM      9  C   UNL     1       8.204  12.493 -11.394  1.00  0.00     0.040 A 
ATOM     10  C   UNL     1       8.883  11.830 -10.370  1.00  0.00     0.014 A 
ATOM     11  C   UNL     1      10.087  12.353  -9.897  1.00  0.00     0.004 A 
ATOM     12  C   UNL     1       8.690  13.701 -11.903  1.00  0.00     0.014 A 
ATOM     13  C   UNL     1      10.610  13.537 -10.437  1.00  0.00    -0.051 A 
ATOM     14  C   UNL     1       9.897  14.216 -11.433  1.00  0.00     0.004 A 
ATOM     15  C   UNL     1      11.947  14.041  -9.978  1.00  0.00     0.044 C 
ENDBRANCH   1   9
BRANCH   6  16
ATOM     16  C   UNL     1       4.056  11.108 -12.658  1.00  0.00     0.153 C 
BRANCH  16  17
ATOM     17  C   UNL     1       3.234  11.904 -11.683  1.00  0.00    -0.029 A 
ATOM     18  C   UNL     1       2.674  11.350 -10.527  1.00  0.00     0.006 A 
ATOM     19  C   UNL     1       3.214  13.298 -11.845  1.00  0.00     0.006 A 
ATOM     20  C   UNL     1       2.129  12.184  -9.544  1.00  0.00     0.004 A 
ATOM     21  C   UNL     1       2.677  14.127 -10.865  1.00  0.00     0.004 A 
ATOM     22  C   UNL     1       2.138  13.577  -9.701  1.00  0.00    -0.051 A 
ATOM     23  C   UNL     1       1.687  14.480  -8.592  1.00  0.00     0.044 C 
ENDBRANCH  16  17
ENDBRANCH   6  16
TORSDOF 3
ENDMDL
MODEL 9
REMARK VINA RESULT:    -4.322      6.795      8.214
REMARK INTER + INTRA:          -5.449
REMARK INTER:                  -4.926
REMARK INTRA:                  -0.523
REMARK UNBOUND:                -0.368
REMARK SMILES Cc1ccc(CNC(=O)NC(=O)c2ccc(C)cc2)cc1
REMARK SMILES IDX 11 1 12 2 10 3 8 4 9 5 7 6 13 9 19 10 18 11 14 12 16 13
REMARK SMILES IDX 15 14 17 15 6 16 5 17 4 18 20 19 3 20 21 21 2 22 1 23
REMARK H PARENT 10 7 7 8
ROOT
ATOM      1  C   UNL     1       8.338  12.013 -10.838  1.00  0.00     0.259 C 
ATOM      2  O   UNL     1       8.075  10.965 -10.266  1.00  0.00    -0.269 OA
ATOM      3  N   UNL     1       9.292  12.978 -10.500  1.00  0.00    -0.274 N 
ATOM      4  C   UNL     1      10.380  13.082  -9.672  1.00  0.00     0.321 C 
ATOM      5  O   UNL     1      11.074  14.100  -9.761  1.00  0.00    -0.248 OA
ATOM      6  N   UNL     1      10.743  12.125  -8.797  1.00  0.00    -0.334 N 
ATOM      7  H   UNL     1       9.311  13.780 -11.117  1.00  0.00     0.175 HD
ATOM      8  H   UNL     1      11.614  12.316  -8.324  1.00  0.00     0.165 HD
ENDROOT
BRANCH   1   9
ATOM      9  C   UNL     1       7.557  12.318 -12.052  1.00  0.00     0.040 A 
ATOM     10  C   UNL     1       6.202  11.994 -12.147  1.00  0.00     0.014 A 
ATOM     11  C   UNL     1       5.493  12.349 -13.295  1.00  0.00     0.004 A 
ATOM     12  C   UNL     1       8.216  12.937 -13.118  1.00  0.00     0.014 A 
ATOM     13  C   UNL     1       6.133  13.018 -14.349  1.00  0.00    -0.051 A 
ATOM     14  C   UNL     1       7.503  13.296 -14.260  1.00  0.00     0.004 A 
ATOM     15  C   UNL     1       5.338  13.468 -15.539  1.00  0.00     0.044 C 
ENDBRANCH   1   9
BRANCH   6  16
ATOM     16  C   UNL     1      10.141  10.835  -8.611  1.00  0.00     0.153 C 
BRANCH  16  17
ATOM     17  C   UNL     1      10.908   9.639  -9.103  1.00  0.00    -0.029 A 
ATOM     18  C   UNL     1      10.328   8.378  -9.275  1.00  0.00     0.006 A 
ATOM     19  C   UNL     1      12.200   9.865  -9.605  1.00  0.00     0.006 A 
ATOM     20  C   UNL     1      11.023   7.374  -9.958  1.00  0.00     0.004 A 
ATOM     21  C   UNL     1      12.888   8.868 -10.288  1.00  0.00     0.004 A 
ATOM     22  C   UNL     1      12.301   7.616 -10.480  1.00  0.00    -0.051 A 
ATOM     23  C   UNL     1      12.991   6.595 -11.334  1.00  0.00     0.044 C 
ENDBRANCH  16  17
ENDBRANCH   6  16
TORSDOF 3
ENDMDL
