MODEL 1
REMARK VINA RESULT:    -4.062      0.000      0.000
REMARK INTER + INTRA:          -5.610
REMARK INTER:                  -5.368
REMARK INTRA:                  -0.242
REMARK UNBOUND:                -0.242
REMARK SMILES [H]/N=C\C[C@H]1C[C@@H]1O[C@H]1CO[C@H]2C[C@@H](C3CC3)CCN2C1
REMARK SMILES IDX 7 1 6 2 5 3 8 4 9 5 14 6 13 7 18 8 12 9 19 10 20 11 11 12
REMARK SMILES IDX 21 13 10 14 15 15 16 16 17 17 4 18 3 19 2 20 1 21
REMARK H PARENT
ROOT
ATOM      1  C   UNL     1       3.162   9.944  -9.072  1.00  0.00     0.122 C 
ATOM      2  C   UNL     1       3.302  10.313 -10.521  1.00  0.00     0.039 C 
ATOM      3  C   UNL     1       2.073  10.719  -9.761  1.00  0.00     0.026 C 
ENDROOT
BRANCH   1   4
ATOM      4  O   UNL     1       2.912   8.543  -8.844  1.00  0.00    -0.371 OA
BRANCH   4   5
ATOM      5  C   UNL     1       4.048   7.678  -8.999  1.00  0.00     0.158 C 
ATOM      6  C   UNL     1       3.327   4.679  -4.792  1.00  0.00    -0.003 C 
ATOM      7  C   UNL     1       3.773   6.124  -5.048  1.00  0.00     0.052 C 
ATOM      8  C   UNL     1       2.321   4.260  -5.873  1.00  0.00     0.019 C 
ATOM      9  C   UNL     1       4.280   6.319  -6.483  1.00  0.00     0.189 C 
ATOM     10  C   UNL     1       2.872   4.511  -7.277  1.00  0.00     0.087 C 
ATOM     11  N   UNL     1       3.256   5.912  -7.446  1.00  0.00    -0.276 NA
ATOM     12  O   UNL     1       4.619   7.701  -6.613  1.00  0.00    -0.360 OA
ATOM     13  C   UNL     1       3.706   6.189  -8.815  1.00  0.00     0.121 C 
ATOM     14  C   UNL     1       5.077   8.045  -7.924  1.00  0.00     0.195 C 
BRANCH   6  15
ATOM     15  C   UNL     1       2.724   4.519  -3.415  1.00  0.00    -0.008 C 
ATOM     16  C   UNL     1       3.166   3.391  -2.514  1.00  0.00     0.004 C 
ATOM     17  C   UNL     1       3.538   4.805  -2.176  1.00  0.00     0.004 C 
ENDBRANCH   6  15
ENDBRANCH   4   5
ENDBRANCH   1   4
BRANCH   3  18
ATOM     18  C   UNL     1       1.860  12.169  -9.444  1.00  0.00     0.053 C 
BRANCH  18  19
ATOM     19  C   UNL     1       1.934  13.123 -10.607  1.00  0.00     0.074 C 
BRANCH  19  20
ATOM     20  N   UNL     1       0.973  13.391 -11.428  1.00  0.00    -0.313 NA
ATOM     21  H   UNL     1       0.710  14.386 -11.393  1.00  0.00     0.186 HD
ENDBRANCH  19  20
ENDBRANCH  18  19
ENDBRANCH   3  18
TORSDOF 6
ENDMDL
MODEL 2
REMARK VINA RESULT:    -3.940      3.172      5.422
REMARK INTER + INTRA:          -5.449
REMARK INTER:                  -5.153
REMARK INTRA:                  -0.296
REMARK UNBOUND:                -0.242
REMARK SMILES [H]/N=C\C[C@H]1C[C@@H]1O[C@H]1CO[C@H]2C[C@@H](C3CC3)CCN2C1
REMARK SMILES IDX 7 1 6 2 5 3 8 4 9 5 14 6 13 7 18 8 12 9 19 10 20 11 11 12
REMARK SMILES IDX 21 13 10 14 15 15 16 16 17 17 4 18 3 19 2 20 1 21
REMARK H PARENT
ROOT
ATOM      1  C   UNL     1       7.727   8.006  -7.843  1.00  0.00     0.122 C 
ATOM      2  C   UNL     1       8.551   7.123  -6.950  1.00  0.00     0.039 C 
ATOM      3  C   UNL     1       8.826   7.160  -8.426  1.00  0.00     0.026 C 
ENDROOT
BRANCH   1   4
ATOM      4  O   UNL     1       6.379   7.541  -8.046  1.00  0.00    -0.371 OA
BRANCH   4   5
ATOM      5  C   UNL     1       5.344   8.491  -7.744  1.00  0.00     0.158 C 
ATOM      6  C   UNL     1       1.801   5.196  -5.795  1.00  0.00    -0.003 C 
ATOM      7  C   UNL     1       2.362   5.507  -7.188  1.00  0.00     0.052 C 
ATOM      8  C   UNL     1       2.899   5.415  -4.745  1.00  0.00     0.019 C 
ATOM      9  C   UNL     1       3.012   6.897  -7.243  1.00  0.00     0.189 C 
ATOM     10  C   UNL     1       3.529   6.801  -4.876  1.00  0.00     0.087 C 
ATOM     11  N   UNL     1       4.055   7.012  -6.224  1.00  0.00    -0.276 NA
ATOM     12  O   UNL     1       3.534   7.052  -8.564  1.00  0.00    -0.360 OA
ATOM     13  C   UNL     1       4.740   8.305  -6.341  1.00  0.00     0.121 C 
ATOM     14  C   UNL     1       4.210   8.298  -8.757  1.00  0.00     0.195 C 
BRANCH   6  15
ATOM     15  C   UNL     1       1.264   3.785  -5.716  1.00  0.00    -0.008 C 
ATOM     16  C   UNL     1      -0.137   3.527  -5.215  1.00  0.00     0.004 C 
ATOM     17  C   UNL     1       0.189   3.312  -6.664  1.00  0.00     0.004 C 
ENDBRANCH   6  15
ENDBRANCH   4   5
ENDBRANCH   1   4
BRANCH   3  18
ATOM     18  C   UNL     1      10.092   7.798  -8.913  1.00  0.00     0.053 C 
BRANCH  18  19
ATOM     19  C   UNL     1      10.729   7.171 -10.127  1.00  0.00     0.074 C 
BRANCH  19  20
ATOM     20  N   UNL     1      10.276   7.230 -11.335  1.00  0.00    -0.313 NA
ATOM     21  H   UNL     1      10.715   6.520 -11.939  1.00  0.00     0.186 HD
ENDBRANCH  19  20
ENDBRANCH  18  19
ENDBRANCH   3  18
TORSDOF 6
ENDMDL
MODEL 3
REMARK VINA RESULT:    -3.731      4.233      7.198
REMARK INTER + INTRA:          -5.173
REMARK INTER:                  -4.636
REMARK INTRA:                  -0.537
REMARK UNBOUND:                -0.242
REMARK SMILES [H]/N=C\C[C@H]1C[C@@H]1O[C@H]1CO[C@H]2C[C@@H](C3CC3)CCN2C1
REMARK SMILES IDX 7 1 6 2 5 3 8 4 9 5 14 6 13 7 18 8 12 9 19 10 20 11 11 12
REMARK SMILES IDX 21 13 10 14 15 15 16 16 17 17 4 18 3 19 2 20 1 21
REMARK H PARENT
ROOT
ATOM      1  C   UNL     1       6.075  14.647 -12.742  1.00  0.00     0.122 C 
ATOM      2  C   UNL     1       6.841  15.817 -12.193  1.00  0.00     0.039 C 
ATOM      3  C   UNL     1       7.204  14.421 -11.774  1.00  0.00     0.026 C 
ENDROOT
BRANCH   1   4
ATOM      4  O   UNL     1       4.740  14.521 -12.215  1.00  0.00    -0.371 OA
BRANCH   4   5
ATOM      5  C   UNL     1       3.832  13.739 -13.009  1.00  0.00     0.158 C 
ATOM      6  C   UNL     1       3.025   9.829  -9.653  1.00  0.00    -0.003 C 
ATOM      7  C   UNL     1       4.185  10.289 -10.545  1.00  0.00     0.052 C 
ATOM      8  C   UNL     1       2.231  11.055  -9.180  1.00  0.00     0.019 C 
ATOM      9  C   UNL     1       3.702  11.199 -11.683  1.00  0.00     0.189 C 
ATOM     10  C   UNL     1       1.811  11.936 -10.356  1.00  0.00     0.087 C 
ATOM     11  N   UNL     1       2.973  12.347 -11.144  1.00  0.00    -0.276 NA
ATOM     12  O   UNL     1       4.867  11.597 -12.409  1.00  0.00    -0.360 OA
ATOM     13  C   UNL     1       2.596  13.264 -12.225  1.00  0.00     0.121 C 
ATOM     14  C   UNL     1       4.575  12.489 -13.490  1.00  0.00     0.195 C 
BRANCH   6  15
ATOM     15  C   UNL     1       3.519   9.028  -8.470  1.00  0.00    -0.008 C 
ATOM     16  C   UNL     1       3.772   7.544  -8.604  1.00  0.00     0.004 C 
ATOM     17  C   UNL     1       4.928   8.487  -8.436  1.00  0.00     0.004 C 
ENDBRANCH   6  15
ENDBRANCH   4   5
ENDBRANCH   1   4
BRANCH   3  18
ATOM     18  C   UNL     1       8.499  13.833 -12.248  1.00  0.00     0.053 C 
BRANCH  18  19
ATOM     19  C   UNL     1       8.651  12.342 -12.093  1.00  0.00     0.074 C 
BRANCH  19  20
ATOM     20  N   UNL     1       7.751  11.457 -12.366  1.00  0.00    -0.313 NA
ATOM     21  H   UNL     1       8.104  10.748 -13.024  1.00  0.00     0.186 HD
ENDBRANCH  19  20
ENDBRANCH  18  19
ENDBRANCH   3  18
TORSDOF 6
ENDMDL
MODEL 4
REMARK VINA RESULT:    -3.694      5.763      7.231
REMARK INTER + INTRA:          -5.124
REMARK INTER:                  -4.749
REMARK INTRA:                  -0.375
REMARK UNBOUND:                -0.242
REMARK SMILES [H]/N=C\C[C@H]1C[C@@H]1O[C@H]1CO[C@H]2C[C@@H](C3CC3)CCN2C1
REMARK SMILES IDX 7 1 6 2 5 3 8 4 9 5 14 6 13 7 18 8 12 9 19 10 20 11 11 12
REMARK SMILES IDX 21 13 10 14 15 15 16 16 17 17 4 18 3 19 2 20 1 21
REMARK H PARENT
ROOT
ATOM      1  C   UNL     1      10.441  11.987 -12.390  1.00  0.00     0.122 C 
ATOM      2  C   UNL     1      10.297  11.818 -13.876  1.00  0.00     0.039 C 
ATOM      3  C   UNL     1       9.088  12.114 -13.035  1.00  0.00     0.026 C 
ENDROOT
BRANCH   1   4
ATOM      4  O   UNL     1      10.705  10.761 -11.682  1.00  0.00    -0.371 OA
BRANCH   4   5
ATOM      5  C   UNL     1      11.206  10.914 -10.344  1.00  0.00     0.158 C 
ATOM      6  C   UNL     1       7.579   8.136  -7.828  1.00  0.00    -0.003 C 
ATOM      7  C   UNL     1       7.628   9.499  -8.529  1.00  0.00     0.052 C 
ATOM      8  C   UNL     1       8.538   7.168  -8.534  1.00  0.00     0.019 C 
ATOM      9  C   UNL     1       9.065  10.023  -8.656  1.00  0.00     0.189 C 
ATOM     10  C   UNL     1       9.940   7.762  -8.659  1.00  0.00     0.087 C 
ATOM     11  N   UNL     1       9.904   9.049  -9.354  1.00  0.00    -0.276 NA
ATOM     12  O   UNL     1       8.986  11.265  -9.360  1.00  0.00    -0.360 OA
ATOM     13  C   UNL     1      11.251   9.592  -9.558  1.00  0.00     0.121 C 
ATOM     14  C   UNL     1      10.267  11.861  -9.589  1.00  0.00     0.195 C 
BRANCH   6  15
ATOM     15  C   UNL     1       6.176   7.573  -7.808  1.00  0.00    -0.008 C 
ATOM     16  C   UNL     1       5.175   8.052  -6.782  1.00  0.00     0.004 C 
ATOM     17  C   UNL     1       4.997   8.417  -8.227  1.00  0.00     0.004 C 
ENDBRANCH   6  15
ENDBRANCH   4   5
ENDBRANCH   1   4
BRANCH   3  18
ATOM     18  C   UNL     1       8.431  13.456 -13.156  1.00  0.00     0.053 C 
BRANCH  18  19
ATOM     19  C   UNL     1       7.557  13.876 -12.002  1.00  0.00     0.074 C 
BRANCH  19  20
ATOM     20  N   UNL     1       7.367  13.208 -10.914  1.00  0.00    -0.313 NA
ATOM     21  H   UNL     1       6.394  13.284 -10.587  1.00  0.00     0.186 HD
ENDBRANCH  19  20
ENDBRANCH  18  19
ENDBRANCH   3  18
TORSDOF 6
ENDMDL
MODEL 5
REMARK VINA RESULT:    -3.657      7.054      8.569
REMARK INTER + INTRA:          -5.076
REMARK INTER:                  -4.407
REMARK INTRA:                  -0.668
REMARK UNBOUND:                -0.242
REMARK SMILES [H]/N=C\C[C@H]1C[C@@H]1O[C@H]1CO[C@H]2C[C@@H](C3CC3)CCN2C1
REMARK SMILES IDX 7 1 6 2 5 3 8 4 9 5 14 6 13 7 18 8 12 9 19 10 20 11 11 12
REMARK SMILES IDX 21 13 10 14 15 15 16 16 17 17 4 18 3 19 2 20 1 21
REMARK H PARENT
ROOT
ATOM      1  C   UNL     1      11.026  12.368 -12.846  1.00  0.00     0.122 C 
ATOM      2  C   UNL     1      10.508  12.491 -14.252  1.00  0.00     0.039 C 
ATOM      3  C   UNL     1       9.601  12.002 -13.159  1.00  0.00     0.026 C 
ENDROOT
BRANCH   1   4
ATOM      4  O   UNL     1      11.945  11.276 -12.653  1.00  0.00    -0.371 OA
BRANCH   4   5
ATOM      5  C   UNL     1      12.720  11.326 -11.444  1.00  0.00     0.158 C 
ATOM      6  C   UNL     1       9.880   8.039  -8.557  1.00  0.00    -0.003 C 
ATOM      7  C   UNL     1       9.705   9.468  -9.086  1.00  0.00     0.052 C 
ATOM      8  C   UNL     1      10.707   7.224  -9.560  1.00  0.00     0.019 C 
ATOM      9  C   UNL     1      11.051  10.108  -9.455  1.00  0.00     0.189 C 
ATOM     10  C   UNL     1      12.016   7.930  -9.911  1.00  0.00     0.087 C 
ATOM     11  N   UNL     1      11.763   9.276 -10.425  1.00  0.00    -0.276 NA
ATOM     12  O   UNL     1      10.757  11.406  -9.974  1.00  0.00    -0.360 OA
ATOM     13  C   UNL     1      13.003   9.936 -10.848  1.00  0.00     0.121 C 
ATOM     14  C   UNL     1      11.925  12.116 -10.400  1.00  0.00     0.195 C 
BRANCH   6  15
ATOM     15  C   UNL     1       8.546   7.375  -8.303  1.00  0.00    -0.008 C 
ATOM     16  C   UNL     1       8.031   7.207  -6.893  1.00  0.00     0.004 C 
ATOM     17  C   UNL     1       7.361   8.177  -7.823  1.00  0.00     0.004 C 
ENDBRANCH   6  15
ENDBRANCH   4   5
ENDBRANCH   1   4
BRANCH   3  18
ATOM     18  C   UNL     1       8.476  12.881 -12.700  1.00  0.00     0.053 C 
BRANCH  18  19
ATOM     19  C   UNL     1       7.701  12.399 -11.502  1.00  0.00     0.074 C 
BRANCH  19  20
ATOM     20  N   UNL     1       8.083  12.477 -10.271  1.00  0.00    -0.313 NA
ATOM     21  H   UNL     1       8.397  11.564  -9.912  1.00  0.00     0.186 HD
ENDBRANCH  19  20
ENDBRANCH  18  19
ENDBRANCH   3  18
TORSDOF 6
ENDMDL
MODEL 6
REMARK VINA RESULT:    -3.655      5.532      8.574
REMARK INTER + INTRA:          -5.073
REMARK INTER:                  -4.405
REMARK INTRA:                  -0.668
REMARK UNBOUND:                -0.242
REMARK SMILES [H]/N=C\C[C@H]1C[C@@H]1O[C@H]1CO[C@H]2C[C@@H](C3CC3)CCN2C1
REMARK SMILES IDX 7 1 6 2 5 3 8 4 9 5 14 6 13 7 18 8 12 9 19 10 20 11 11 12
REMARK SMILES IDX 21 13 10 14 15 15 16 16 17 17 4 18 3 19 2 20 1 21
REMARK H PARENT
ROOT
ATOM      1  C   UNL     1       6.530  15.177 -13.286  1.00  0.00     0.122 C 
ATOM      2  C   UNL     1       7.695  15.981 -12.781  1.00  0.00     0.039 C 
ATOM      3  C   UNL     1       7.309  14.706 -12.088  1.00  0.00     0.026 C 
ENDROOT
BRANCH   1   4
ATOM      4  O   UNL     1       5.246  15.776 -13.026  1.00  0.00    -0.371 OA
BRANCH   4   5
ATOM      5  C   UNL     1       4.166  15.309 -13.850  1.00  0.00     0.158 C 
ATOM      6  C   UNL     1       2.149  11.784 -10.578  1.00  0.00    -0.003 C 
ATOM      7  C   UNL     1       3.415  11.886 -11.438  1.00  0.00     0.052 C 
ATOM      8  C   UNL     1       1.746  13.186 -10.100  1.00  0.00     0.019 C 
ATOM      9  C   UNL     1       3.253  12.910 -12.570  1.00  0.00     0.189 C 
ATOM     10  C   UNL     1       1.636  14.164 -11.270  1.00  0.00     0.087 C 
ATOM     11  N   UNL     1       2.886  14.218 -12.026  1.00  0.00    -0.276 NA
ATOM     12  O   UNL     1       4.501  12.949 -13.266  1.00  0.00    -0.360 OA
ATOM     13  C   UNL     1       2.826  15.216 -13.100  1.00  0.00     0.121 C 
ATOM     14  C   UNL     1       4.514  13.898 -14.337  1.00  0.00     0.195 C 
BRANCH   6  15
ATOM     15  C   UNL     1       2.353  10.860  -9.398  1.00  0.00    -0.008 C 
ATOM     16  C   UNL     1       1.719   9.489  -9.384  1.00  0.00     0.004 C 
ATOM     17  C   UNL     1       3.208   9.622  -9.524  1.00  0.00     0.004 C 
ENDBRANCH   6  15
ENDBRANCH   4   5
ENDBRANCH   1   4
BRANCH   3  18
ATOM     18  C   UNL     1       8.216  13.517 -12.197  1.00  0.00     0.053 C 
BRANCH  18  19
ATOM     19  C   UNL     1       7.649  12.201 -11.732  1.00  0.00     0.074 C 
BRANCH  19  20
ATOM     20  N   UNL     1       6.853  11.439 -12.406  1.00  0.00    -0.313 NA
ATOM     21  H   UNL     1       5.898  11.822 -12.438  1.00  0.00     0.186 HD
ENDBRANCH  19  20
ENDBRANCH  18  19
ENDBRANCH   3  18
TORSDOF 6
ENDMDL
MODEL 7
REMARK VINA RESULT:    -3.645      5.238      8.456
REMARK INTER + INTRA:          -5.059
REMARK INTER:                  -5.032
REMARK INTRA:                  -0.027
REMARK UNBOUND:                -0.242
REMARK SMILES [H]/N=C\C[C@H]1C[C@@H]1O[C@H]1CO[C@H]2C[C@@H](C3CC3)CCN2C1
REMARK SMILES IDX 7 1 6 2 5 3 8 4 9 5 14 6 13 7 18 8 12 9 19 10 20 11 11 12
REMARK SMILES IDX 21 13 10 14 15 15 16 16 17 17 4 18 3 19 2 20 1 21
REMARK H PARENT
ROOT
ATOM      1  C   UNL     1       5.157   7.883  -7.786  1.00  0.00     0.122 C 
ATOM      2  C   UNL     1       3.970   8.242  -8.635  1.00  0.00     0.039 C 
ATOM      3  C   UNL     1       4.336   6.800  -8.430  1.00  0.00     0.026 C 
ENDROOT
BRANCH   1   4
ATOM      4  O   UNL     1       6.427   8.179  -8.398  1.00  0.00    -0.371 OA
BRANCH   4   5
ATOM      5  C   UNL     1       7.508   8.438  -7.487  1.00  0.00     0.158 C 
ATOM      6  C   UNL     1      11.486   7.888 -10.815  1.00  0.00    -0.003 C 
ATOM      7  C   UNL     1      10.486   6.946 -10.134  1.00  0.00     0.052 C 
ATOM      8  C   UNL     1      10.812   9.242 -11.074  1.00  0.00     0.019 C 
ATOM      9  C   UNL     1       9.863   7.583  -8.885  1.00  0.00     0.189 C 
ATOM     10  C   UNL     1      10.183   9.806  -9.800  1.00  0.00     0.087 C 
ATOM     11  N   UNL     1       9.230   8.858  -9.224  1.00  0.00    -0.276 NA
ATOM     12  O   UNL     1       8.923   6.638  -8.369  1.00  0.00    -0.360 OA
ATOM     13  C   UNL     1       8.553   9.419  -8.049  1.00  0.00     0.121 C 
ATOM     14  C   UNL     1       8.228   7.113  -7.212  1.00  0.00     0.195 C 
BRANCH   6  15
ATOM     15  C   UNL     1      12.011   7.301 -12.106  1.00  0.00    -0.008 C 
ATOM     16  C   UNL     1      13.263   7.854 -12.744  1.00  0.00     0.004 C 
ATOM     17  C   UNL     1      13.281   6.486 -12.126  1.00  0.00     0.004 C 
ENDBRANCH   6  15
ENDBRANCH   4   5
ENDBRANCH   1   4
BRANCH   3  18
ATOM     18  C   UNL     1       3.439   5.935  -7.595  1.00  0.00     0.053 C 
BRANCH  18  19
ATOM     19  C   UNL     1       3.082   4.591  -8.175  1.00  0.00     0.074 C 
BRANCH  19  20
ATOM     20  N   UNL     1       3.269   4.220  -9.397  1.00  0.00    -0.313 NA
ATOM     21  H   UNL     1       4.253   4.331  -9.682  1.00  0.00     0.186 HD
ENDBRANCH  19  20
ENDBRANCH  18  19
ENDBRANCH   3  18
TORSDOF 6
ENDMDL
MODEL 8
REMARK VINA RESULT:    -3.323      5.592      8.968
REMARK INTER + INTRA:          -4.634
REMARK INTER:                  -4.335
REMARK INTRA:                  -0.300
REMARK UNBOUND:                -0.242
REMARK SMILES [H]/N=C\C[C@H]1C[C@@H]1O[C@H]1CO[C@H]2C[C@@H](C3CC3)CCN2C1
REMARK SMILES IDX 7 1 6 2 5 3 8 4 9 5 14 6 13 7 18 8 12 9 19 10 20 11 11 12
REMARK SMILES IDX 21 13 10 14 15 15 16 16 17 17 4 18 3 19 2 20 1 21
REMARK H PARENT
ROOT
ATOM      1  C   UNL     1       7.772  13.963 -14.548  1.00  0.00     0.122 C 
ATOM      2  C   UNL     1       8.887  14.887 -14.148  1.00  0.00     0.039 C 
ATOM      3  C   UNL     1       8.888  13.463 -13.673  1.00  0.00     0.026 C 
ENDROOT
BRANCH   1   4
ATOM      4  O   UNL     1       6.517  14.241 -13.897  1.00  0.00    -0.371 OA
BRANCH   4   5
ATOM      5  C   UNL     1       5.341  13.943 -14.667  1.00  0.00     0.158 C 
ATOM      6  C   UNL     1       2.519  11.651 -10.926  1.00  0.00    -0.003 C 
ATOM      7  C   UNL     1       3.754  11.277 -11.755  1.00  0.00     0.052 C 
ATOM      8  C   UNL     1       2.503  13.168 -10.694  1.00  0.00     0.019 C 
ATOM      9  C   UNL     1       3.850  12.108 -13.042  1.00  0.00     0.189 C 
ATOM     10  C   UNL     1       2.636  13.936 -12.009  1.00  0.00     0.087 C 
ATOM     11  N   UNL     1       3.846  13.537 -12.728  1.00  0.00    -0.276 NA
ATOM     12  O   UNL     1       5.054  11.707 -13.698  1.00  0.00    -0.360 OA
ATOM     13  C   UNL     1       4.034  14.327 -13.950  1.00  0.00     0.121 C 
ATOM     14  C   UNL     1       5.300  12.430 -14.908  1.00  0.00     0.195 C 
BRANCH   6  15
ATOM     15  C   UNL     1       2.491  10.911  -9.608  1.00  0.00    -0.008 C 
ATOM     16  C   UNL     1       1.682   9.644  -9.459  1.00  0.00     0.004 C 
ATOM     17  C   UNL     1       3.182   9.578  -9.453  1.00  0.00     0.004 C 
ENDBRANCH   6  15
ENDBRANCH   4   5
ENDBRANCH   1   4
BRANCH   3  18
ATOM     18  C   UNL     1       9.912  12.514 -14.221  1.00  0.00     0.053 C 
BRANCH  18  19
ATOM     19  C   UNL     1      10.346  11.400 -13.305  1.00  0.00     0.074 C 
BRANCH  19  20
ATOM     20  N   UNL     1       9.636  10.374 -12.971  1.00  0.00    -0.313 NA
ATOM     21  H   UNL     1       9.307  10.441 -11.997  1.00  0.00     0.186 HD
ENDBRANCH  19  20
ENDBRANCH  18  19
ENDBRANCH   3  18
TORSDOF 6
ENDMDL
MODEL 9
REMARK VINA RESULT:    -3.215      6.932     10.307
REMARK INTER + INTRA:          -4.491
REMARK INTER:                  -4.130
REMARK INTRA:                  -0.361
REMARK UNBOUND:                -0.242
REMARK SMILES [H]/N=C\C[C@H]1C[C@@H]1O[C@H]1CO[C@H]2C[C@@H](C3CC3)CCN2C1
REMARK SMILES IDX 7 1 6 2 5 3 8 4 9 5 14 6 13 7 18 8 12 9 19 10 20 11 11 12
REMARK SMILES IDX 21 13 10 14 15 15 16 16 17 17 4 18 3 19 2 20 1 21
REMARK H PARENT
ROOT
ATOM      1  C   UNL     1      10.883  12.595  -8.670  1.00  0.00     0.122 C 
ATOM      2  C   UNL     1      10.744  12.554  -7.174  1.00  0.00     0.039 C 
ATOM      3  C   UNL     1       9.711  11.893  -8.040  1.00  0.00     0.026 C 
ENDROOT
BRANCH   1   4
ATOM      4  O   UNL     1      10.624  13.888  -9.248  1.00  0.00    -0.371 OA
BRANCH   4   5
ATOM      5  C   UNL     1      10.985  14.031 -10.632  1.00  0.00     0.158 C 
ATOM      6  C   UNL     1       6.271  13.317 -12.748  1.00  0.00    -0.003 C 
ATOM      7  C   UNL     1       7.312  12.426 -12.059  1.00  0.00     0.052 C 
ATOM      8  C   UNL     1       6.331  14.727 -12.144  1.00  0.00     0.019 C 
ATOM      9  C   UNL     1       8.710  13.059 -12.084  1.00  0.00     0.189 C 
ATOM     10  C   UNL     1       7.753  15.286 -12.168  1.00  0.00     0.087 C 
ATOM     11  N   UNL     1       8.679  14.389 -11.476  1.00  0.00    -0.276 NA
ATOM     12  O   UNL     1       9.576  12.167 -11.379  1.00  0.00    -0.360 OA
ATOM     13  C   UNL     1      10.033  14.953 -11.415  1.00  0.00     0.121 C 
ATOM     14  C   UNL     1      10.920  12.648 -11.287  1.00  0.00     0.195 C 
BRANCH   6  15
ATOM     15  C   UNL     1       4.878  12.743 -12.620  1.00  0.00    -0.008 C 
ATOM     16  C   UNL     1       4.177  12.166 -13.827  1.00  0.00     0.004 C 
ATOM     17  C   UNL     1       4.642  11.256 -12.727  1.00  0.00     0.004 C 
ENDBRANCH   6  15
ENDBRANCH   4   5
ENDBRANCH   1   4
BRANCH   3  18
ATOM     18  C   UNL     1       9.628  10.395  -8.058  1.00  0.00     0.053 C 
BRANCH  18  19
ATOM     19  C   UNL     1       8.449   9.802  -8.785  1.00  0.00     0.074 C 
BRANCH  19  20
ATOM     20  N   UNL     1       7.647  10.438  -9.572  1.00  0.00    -0.313 NA
ATOM     21  H   UNL     1       6.967  11.004  -9.045  1.00  0.00     0.186 HD
ENDBRANCH  19  20
ENDBRANCH  18  19
ENDBRANCH   3  18
TORSDOF 6
ENDMDL
