MODEL 1
REMARK VINA RESULT:    -5.445      0.000      0.000
REMARK INTER + INTRA:          -6.770
REMARK INTER:                  -6.400
REMARK INTRA:                  -0.370
REMARK UNBOUND:                -0.370
REMARK SMILES Cc1ccc(CNC(=O)NC(=O)c2ccc(C)cc2)cc1
REMARK SMILES IDX 11 1 12 2 10 3 8 4 9 5 7 6 13 9 19 10 18 11 14 12 16 13
REMARK SMILES IDX 15 14 17 15 6 16 5 17 4 18 20 19 3 20 21 21 2 22 1 23
REMARK H PARENT 10 7 7 8
ROOT
ATOM      1  C   UNL     1       5.086   9.298  -2.404  1.00  0.00     0.259 C 
ATOM      2  O   UNL     1       5.334   9.369  -1.209  1.00  0.00    -0.269 OA
ATOM      3  N   UNL     1       5.186  10.296  -3.380  1.00  0.00    -0.274 N 
ATOM      4  C   UNL     1       5.757  11.536  -3.505  1.00  0.00     0.321 C 
ATOM      5  O   UNL     1       5.736  12.067  -4.621  1.00  0.00    -0.248 OA
ATOM      6  N   UNL     1       6.360  12.184  -2.491  1.00  0.00    -0.334 N 
ATOM      7  H   UNL     1       4.902  10.004  -4.305  1.00  0.00     0.175 HD
ATOM      8  H   UNL     1       6.805  13.047  -2.768  1.00  0.00     0.165 HD
ENDROOT
BRANCH   1   9
ATOM      9  C   UNL     1       4.620   7.991  -2.906  1.00  0.00     0.040 A 
ATOM     10  C   UNL     1       3.261   7.719  -3.076  1.00  0.00     0.014 A 
ATOM     11  C   UNL     1       2.871   6.487  -3.603  1.00  0.00     0.004 A 
ATOM     12  C   UNL     1       5.582   7.021  -3.203  1.00  0.00     0.014 A 
ATOM     13  C   UNL     1       3.831   5.526  -3.953  1.00  0.00    -0.051 A 
ATOM     14  C   UNL     1       5.188   5.795  -3.736  1.00  0.00     0.004 A 
ATOM     15  C   UNL     1       3.401   4.241  -4.597  1.00  0.00     0.044 C 
ENDBRANCH   1   9
BRANCH   6  16
ATOM     16  C   UNL     1       6.585  11.706  -1.156  1.00  0.00     0.153 C 
BRANCH  16  17
ATOM     17  C   UNL     1       7.644  12.398  -0.344  1.00  0.00    -0.029 A 
ATOM     18  C   UNL     1       8.650  11.711   0.342  1.00  0.00     0.006 A 
ATOM     19  C   UNL     1       7.735  13.795  -0.463  1.00  0.00     0.006 A 
ATOM     20  C   UNL     1       9.738  12.412   0.875  1.00  0.00     0.004 A 
ATOM     21  C   UNL     1       8.819  14.490   0.063  1.00  0.00     0.004 A 
ATOM     22  C   UNL     1       9.836  13.803   0.728  1.00  0.00    -0.051 A 
ATOM     23  C   UNL     1      11.064  14.540   1.170  1.00  0.00     0.044 C 
ENDBRANCH  16  17
ENDBRANCH   6  16
TORSDOF 3
ENDMDL
MODEL 2
REMARK VINA RESULT:    -5.420      3.230      5.498
REMARK INTER + INTRA:          -6.741
REMARK INTER:                  -6.370
REMARK INTRA:                  -0.371
REMARK UNBOUND:                -0.370
REMARK SMILES Cc1ccc(CNC(=O)NC(=O)c2ccc(C)cc2)cc1
REMARK SMILES IDX 11 1 12 2 10 3 8 4 9 5 7 6 13 9 19 10 18 11 14 12 16 13
REMARK SMILES IDX 15 14 17 15 6 16 5 17 4 18 20 19 3 20 21 21 2 22 1 23
REMARK H PARENT 10 7 7 8
ROOT
ATOM      1  C   UNL     1       4.818   9.399  -2.710  1.00  0.00     0.259 C 
ATOM      2  O   UNL     1       4.586   9.368  -3.910  1.00  0.00    -0.269 OA
ATOM      3  N   UNL     1       5.636  10.283  -1.999  1.00  0.00    -0.274 N 
ATOM      4  C   UNL     1       6.255  11.487  -2.216  1.00  0.00     0.321 C 
ATOM      5  O   UNL     1       6.803  12.032  -1.251  1.00  0.00    -0.248 OA
ATOM      6  N   UNL     1       6.269  12.113  -3.407  1.00  0.00    -0.334 N 
ATOM      7  H   UNL     1       5.689  10.095  -1.007  1.00  0.00     0.175 HD
ATOM      8  H   UNL     1       6.692  13.030  -3.380  1.00  0.00     0.165 HD
ENDROOT
BRANCH   1   9
ATOM      9  C   UNL     1       4.151   8.376  -1.881  1.00  0.00     0.040 A 
ATOM     10  C   UNL     1       4.814   7.212  -1.488  1.00  0.00     0.014 A 
ATOM     11  C   UNL     1       4.159   6.299  -0.661  1.00  0.00     0.004 A 
ATOM     12  C   UNL     1       2.824   8.601  -1.503  1.00  0.00     0.014 A 
ATOM     13  C   UNL     1       2.845   6.540  -0.233  1.00  0.00    -0.051 A 
ATOM     14  C   UNL     1       2.176   7.689  -0.671  1.00  0.00     0.004 A 
ATOM     15  C   UNL     1       2.185   5.591   0.725  1.00  0.00     0.044 C 
ENDBRANCH   1   9
BRANCH   6  16
ATOM     16  C   UNL     1       5.612  11.707  -4.617  1.00  0.00     0.153 C 
BRANCH  16  17
ATOM     17  C   UNL     1       5.397  12.758  -5.671  1.00  0.00    -0.029 A 
ATOM     18  C   UNL     1       4.158  12.986  -6.280  1.00  0.00     0.006 A 
ATOM     19  C   UNL     1       6.438  13.676  -5.886  1.00  0.00     0.006 A 
ATOM     20  C   UNL     1       3.965  14.126  -7.068  1.00  0.00     0.004 A 
ATOM     21  C   UNL     1       6.243  14.811  -6.666  1.00  0.00     0.004 A 
ATOM     22  C   UNL     1       5.001  15.052  -7.256  1.00  0.00    -0.051 A 
ATOM     23  C   UNL     1       4.760  16.343  -7.979  1.00  0.00     0.044 C 
ENDBRANCH  16  17
ENDBRANCH   6  16
TORSDOF 3
ENDMDL
MODEL 3
REMARK VINA RESULT:    -5.284      1.217      8.015
REMARK INTER + INTRA:          -6.581
REMARK INTER:                  -6.115
REMARK INTRA:                  -0.466
REMARK UNBOUND:                -0.370
REMARK SMILES Cc1ccc(CNC(=O)NC(=O)c2ccc(C)cc2)cc1
REMARK SMILES IDX 11 1 12 2 10 3 8 4 9 5 7 6 13 9 19 10 18 11 14 12 16 13
REMARK SMILES IDX 15 14 17 15 6 16 5 17 4 18 20 19 3 20 21 21 2 22 1 23
REMARK H PARENT 10 7 7 8
ROOT
ATOM      1  C   UNL     1       6.742  11.386  -1.038  1.00  0.00     0.259 C 
ATOM      2  O   UNL     1       6.243  10.533  -0.317  1.00  0.00    -0.269 OA
ATOM      3  N   UNL     1       6.506  11.634  -2.394  1.00  0.00    -0.274 N 
ATOM      4  C   UNL     1       5.579  11.283  -3.342  1.00  0.00     0.321 C 
ATOM      5  O   UNL     1       5.646  11.840  -4.442  1.00  0.00    -0.248 OA
ATOM      6  N   UNL     1       4.593  10.393  -3.125  1.00  0.00    -0.334 N 
ATOM      7  H   UNL     1       7.059  12.386  -2.782  1.00  0.00     0.175 HD
ATOM      8  H   UNL     1       3.944  10.310  -3.894  1.00  0.00     0.165 HD
ENDROOT
BRANCH   1   9
ATOM      9  C   UNL     1       7.725  12.288  -0.409  1.00  0.00     0.040 A 
ATOM     10  C   UNL     1       8.768  11.794   0.377  1.00  0.00     0.014 A 
ATOM     11  C   UNL     1       9.704  12.682   0.907  1.00  0.00     0.004 A 
ATOM     12  C   UNL     1       7.581  13.663  -0.616  1.00  0.00     0.014 A 
ATOM     13  C   UNL     1       9.598  14.060   0.663  1.00  0.00    -0.051 A 
ATOM     14  C   UNL     1       8.522  14.546  -0.089  1.00  0.00     0.004 A 
ATOM     15  C   UNL     1      10.659  14.992   1.169  1.00  0.00     0.044 C 
ENDBRANCH   1   9
BRANCH   6  16
ATOM     16  C   UNL     1       4.277   9.717  -1.898  1.00  0.00     0.153 C 
BRANCH  16  17
ATOM     17  C   UNL     1       4.041   8.234  -1.969  1.00  0.00    -0.029 A 
ATOM     18  C   UNL     1       4.457   7.346  -0.972  1.00  0.00     0.006 A 
ATOM     19  C   UNL     1       3.184   7.767  -2.979  1.00  0.00     0.006 A 
ATOM     20  C   UNL     1       4.000   6.023  -0.977  1.00  0.00     0.004 A 
ATOM     21  C   UNL     1       2.726   6.453  -2.981  1.00  0.00     0.004 A 
ATOM     22  C   UNL     1       3.122   5.572  -1.973  1.00  0.00    -0.051 A 
ATOM     23  C   UNL     1       2.518   4.202  -1.905  1.00  0.00     0.044 C 
ENDBRANCH  16  17
ENDBRANCH   6  16
TORSDOF 3
ENDMDL
MODEL 4
REMARK VINA RESULT:    -5.263      3.047      7.769
REMARK INTER + INTRA:          -6.557
REMARK INTER:                  -6.090
REMARK INTRA:                  -0.467
REMARK UNBOUND:                -0.370
REMARK SMILES Cc1ccc(CNC(=O)NC(=O)c2ccc(C)cc2)cc1
REMARK SMILES IDX 11 1 12 2 10 3 8 4 9 5 7 6 13 9 19 10 18 11 14 12 16 13
REMARK SMILES IDX 15 14 17 15 6 16 5 17 4 18 20 19 3 20 21 21 2 22 1 23
REMARK H PARENT 10 7 7 8
ROOT
ATOM      1  C   UNL     1       5.253  11.615  -4.677  1.00  0.00     0.259 C 
ATOM      2  O   UNL     1       4.829  10.563  -5.135  1.00  0.00    -0.269 OA
ATOM      3  N   UNL     1       5.735  11.880  -3.392  1.00  0.00    -0.274 N 
ATOM      4  C   UNL     1       6.142  11.164  -2.295  1.00  0.00     0.321 C 
ATOM      5  O   UNL     1       6.648  11.790  -1.357  1.00  0.00    -0.248 OA
ATOM      6  N   UNL     1       6.047   9.824  -2.204  1.00  0.00    -0.334 N 
ATOM      7  H   UNL     1       6.012  12.840  -3.240  1.00  0.00     0.175 HD
ATOM      8  H   UNL     1       6.469   9.443  -1.369  1.00  0.00     0.165 HD
ENDROOT
BRANCH   1   9
ATOM      9  C   UNL     1       5.271  12.773  -5.592  1.00  0.00     0.040 A 
ATOM     10  C   UNL     1       4.156  13.111  -6.361  1.00  0.00     0.014 A 
ATOM     11  C   UNL     1       4.202  14.246  -7.171  1.00  0.00     0.004 A 
ATOM     12  C   UNL     1       6.446  13.527  -5.674  1.00  0.00     0.014 A 
ATOM     13  C   UNL     1       5.359  15.038  -7.222  1.00  0.00    -0.051 A 
ATOM     14  C   UNL     1       6.486  14.663  -6.480  1.00  0.00     0.004 A 
ATOM     15  C   UNL     1       5.364  16.301  -8.032  1.00  0.00     0.044 C 
ENDBRANCH   1   9
BRANCH   6  16
ATOM     16  C   UNL     1       5.592   8.908  -3.210  1.00  0.00     0.153 C 
BRANCH  16  17
ATOM     17  C   UNL     1       4.597   7.861  -2.791  1.00  0.00    -0.029 A 
ATOM     18  C   UNL     1       3.550   7.430  -3.613  1.00  0.00     0.006 A 
ATOM     19  C   UNL     1       4.870   7.150  -1.611  1.00  0.00     0.006 A 
ATOM     20  C   UNL     1       2.811   6.294  -3.267  1.00  0.00     0.004 A 
ATOM     21  C   UNL     1       4.137   6.017  -1.271  1.00  0.00     0.004 A 
ATOM     22  C   UNL     1       3.107   5.573  -2.102  1.00  0.00    -0.051 A 
ATOM     23  C   UNL     1       2.416   4.278  -1.799  1.00  0.00     0.044 C 
ENDBRANCH  16  17
ENDBRANCH   6  16
TORSDOF 3
ENDMDL
MODEL 5
REMARK VINA RESULT:    -5.051      5.387      8.420
REMARK INTER + INTRA:          -6.308
REMARK INTER:                  -6.030
REMARK INTRA:                  -0.278
REMARK UNBOUND:                -0.370
REMARK SMILES Cc1ccc(CNC(=O)NC(=O)c2ccc(C)cc2)cc1
REMARK SMILES IDX 11 1 12 2 10 3 8 4 9 5 7 6 13 9 19 10 18 11 14 12 16 13
REMARK SMILES IDX 15 14 17 15 6 16 5 17 4 18 20 19 3 20 21 21 2 22 1 23
REMARK H PARENT 10 7 7 8
ROOT
ATOM      1  C   UNL     1      11.084  14.795   0.852  1.00  0.00     0.259 C 
ATOM      2  O   UNL     1      10.914  16.003   0.928  1.00  0.00    -0.269 OA
ATOM      3  N   UNL     1      12.256  14.060   1.062  1.00  0.00    -0.274 N 
ATOM      4  C   UNL     1      13.496  14.266   1.611  1.00  0.00     0.321 C 
ATOM      5  O   UNL     1      14.238  13.285   1.732  1.00  0.00    -0.248 OA
ATOM      6  N   UNL     1      13.927  15.463   2.047  1.00  0.00    -0.334 N 
ATOM      7  H   UNL     1      12.155  13.064   0.919  1.00  0.00     0.175 HD
ATOM      8  H   UNL     1      14.828  15.430   2.503  1.00  0.00     0.165 HD
ENDROOT
BRANCH   1   9
ATOM      9  C   UNL     1       9.904  13.983   0.498  1.00  0.00     0.040 A 
ATOM     10  C   UNL     1       8.767  14.561  -0.070  1.00  0.00     0.014 A 
ATOM     11  C   UNL     1       7.696  13.745  -0.437  1.00  0.00     0.004 A 
ATOM     12  C   UNL     1       9.951  12.609   0.753  1.00  0.00     0.014 A 
ATOM     13  C   UNL     1       7.754  12.358  -0.233  1.00  0.00    -0.051 A 
ATOM     14  C   UNL     1       8.882  11.797   0.379  1.00  0.00     0.004 A 
ATOM     15  C   UNL     1       6.631  11.485  -0.710  1.00  0.00     0.044 C 
ENDBRANCH   1   9
BRANCH   6  16
ATOM     16  C   UNL     1      13.192  16.696   2.094  1.00  0.00     0.153 C 
BRANCH  16  17
ATOM     17  C   UNL     1      12.482  17.027   3.378  1.00  0.00    -0.029 A 
ATOM     18  C   UNL     1      11.688  18.167   3.538  1.00  0.00     0.006 A 
ATOM     19  C   UNL     1      12.456  16.036   4.373  1.00  0.00     0.006 A 
ATOM     20  C   UNL     1      10.867  18.295   4.664  1.00  0.00     0.004 A 
ATOM     21  C   UNL     1      11.635  16.162   5.489  1.00  0.00     0.004 A 
ATOM     22  C   UNL     1      10.825  17.289   5.639  1.00  0.00    -0.051 A 
ATOM     23  C   UNL     1       9.845  17.352   6.772  1.00  0.00     0.044 C 
ENDBRANCH  16  17
ENDBRANCH   6  16
TORSDOF 3
ENDMDL
MODEL 6
REMARK VINA RESULT:    -3.975      6.479      7.874
REMARK INTER + INTRA:          -5.043
REMARK INTER:                  -4.661
REMARK INTRA:                  -0.382
REMARK UNBOUND:                -0.370
REMARK SMILES Cc1ccc(CNC(=O)NC(=O)c2ccc(C)cc2)cc1
REMARK SMILES IDX 11 1 12 2 10 3 8 4 9 5 7 6 13 9 19 10 18 11 14 12 16 13
REMARK SMILES IDX 15 14 17 15 6 16 5 17 4 18 20 19 3 20 21 21 2 22 1 23
REMARK H PARENT 10 7 7 8
ROOT
ATOM      1  C   UNL     1       6.805  16.524  -5.961  1.00  0.00     0.259 C 
ATOM      2  O   UNL     1       6.243  16.279  -4.903  1.00  0.00    -0.269 OA
ATOM      3  N   UNL     1       8.143  16.864  -6.184  1.00  0.00    -0.274 N 
ATOM      4  C   UNL     1       9.324  16.837  -5.488  1.00  0.00     0.321 C 
ATOM      5  O   UNL     1      10.360  17.109  -6.105  1.00  0.00    -0.248 OA
ATOM      6  N   UNL     1       9.415  16.502  -4.187  1.00  0.00    -0.334 N 
ATOM      7  H   UNL     1       8.372  17.043  -7.152  1.00  0.00     0.175 HD
ATOM      8  H   UNL     1      10.364  16.447  -3.846  1.00  0.00     0.165 HD
ENDROOT
BRANCH   1   9
ATOM      9  C   UNL     1       5.977  16.451  -7.181  1.00  0.00     0.040 A 
ATOM     10  C   UNL     1       4.802  15.699  -7.219  1.00  0.00     0.014 A 
ATOM     11  C   UNL     1       4.025  15.703  -8.378  1.00  0.00     0.004 A 
ATOM     12  C   UNL     1       6.407  17.156  -8.309  1.00  0.00     0.014 A 
ATOM     13  C   UNL     1       4.421  16.449  -9.499  1.00  0.00    -0.051 A 
ATOM     14  C   UNL     1       5.625  17.163  -9.462  1.00  0.00     0.004 A 
ATOM     15  C   UNL     1       3.533  16.511 -10.706  1.00  0.00     0.044 C 
ENDBRANCH   1   9
BRANCH   6  16
ATOM     16  C   UNL     1       8.359  16.057  -3.322  1.00  0.00     0.153 C 
BRANCH  16  17
ATOM     17  C   UNL     1       8.754  15.493  -1.985  1.00  0.00    -0.029 A 
ATOM     18  C   UNL     1       7.925  14.653  -1.236  1.00  0.00     0.006 A 
ATOM     19  C   UNL     1      10.091  15.657  -1.588  1.00  0.00     0.006 A 
ATOM     20  C   UNL     1       8.437  13.972  -0.126  1.00  0.00     0.004 A 
ATOM     21  C   UNL     1      10.600  14.975  -0.487  1.00  0.00     0.004 A 
ATOM     22  C   UNL     1       9.780  14.118   0.248  1.00  0.00    -0.051 A 
ATOM     23  C   UNL     1      10.370  13.285   1.346  1.00  0.00     0.044 C 
ENDBRANCH  16  17
ENDBRANCH   6  16
TORSDOF 3
ENDMDL
MODEL 7
REMARK VINA RESULT:    -3.964      7.218      8.996
REMARK INTER + INTRA:          -5.030
REMARK INTER:                  -4.479
REMARK INTRA:                  -0.551
REMARK UNBOUND:                -0.370
REMARK SMILES Cc1ccc(CNC(=O)NC(=O)c2ccc(C)cc2)cc1
REMARK SMILES IDX 11 1 12 2 10 3 8 4 9 5 7 6 13 9 19 10 18 11 14 12 16 13
REMARK SMILES IDX 15 14 17 15 6 16 5 17 4 18 20 19 3 20 21 21 2 22 1 23
REMARK H PARENT 10 7 7 8
ROOT
ATOM      1  C   UNL     1      11.489  15.667  -0.489  1.00  0.00     0.259 C 
ATOM      2  O   UNL     1      12.007  16.673  -0.023  1.00  0.00    -0.269 OA
ATOM      3  N   UNL     1      11.778  14.327  -0.215  1.00  0.00    -0.274 N 
ATOM      4  C   UNL     1      12.470  13.612   0.728  1.00  0.00     0.321 C 
ATOM      5  O   UNL     1      12.374  12.380   0.699  1.00  0.00    -0.248 OA
ATOM      6  N   UNL     1      13.217  14.180   1.693  1.00  0.00    -0.334 N 
ATOM      7  H   UNL     1      11.227  13.665  -0.745  1.00  0.00     0.175 HD
ATOM      8  H   UNL     1      13.591  13.520   2.359  1.00  0.00     0.165 HD
ENDROOT
BRANCH   1   9
ATOM      9  C   UNL     1      10.408  15.876  -1.472  1.00  0.00     0.040 A 
ATOM     10  C   UNL     1      10.599  16.667  -2.607  1.00  0.00     0.014 A 
ATOM     11  C   UNL     1       9.564  16.792  -3.534  1.00  0.00     0.004 A 
ATOM     12  C   UNL     1       9.175  15.262  -1.232  1.00  0.00     0.014 A 
ATOM     13  C   UNL     1       8.340  16.137  -3.329  1.00  0.00    -0.051 A 
ATOM     14  C   UNL     1       8.147  15.384  -2.164  1.00  0.00     0.004 A 
ATOM     15  C   UNL     1       7.268  16.213  -4.376  1.00  0.00     0.044 C 
ENDBRANCH   1   9
BRANCH   6  16
ATOM     16  C   UNL     1      13.377  15.580   1.966  1.00  0.00     0.153 C 
BRANCH  16  17
ATOM     17  C   UNL     1      12.740  16.116   3.218  1.00  0.00    -0.029 A 
ATOM     18  C   UNL     1      12.254  17.423   3.328  1.00  0.00     0.006 A 
ATOM     19  C   UNL     1      12.441  15.193   4.233  1.00  0.00     0.006 A 
ATOM     20  C   UNL     1      11.462  17.786   4.423  1.00  0.00     0.004 A 
ATOM     21  C   UNL     1      11.649  15.554   5.319  1.00  0.00     0.004 A 
ATOM     22  C   UNL     1      11.144  16.851   5.419  1.00  0.00    -0.051 A 
ATOM     23  C   UNL     1      10.182  17.191   6.517  1.00  0.00     0.044 C 
ENDBRANCH  16  17
ENDBRANCH   6  16
TORSDOF 3
ENDMDL
MODEL 8
REMARK VINA RESULT:    -3.836      7.203      9.030
REMARK INTER + INTRA:          -4.879
REMARK INTER:                  -4.329
REMARK INTRA:                  -0.550
REMARK UNBOUND:                -0.370
REMARK SMILES Cc1ccc(CNC(=O)NC(=O)c2ccc(C)cc2)cc1
REMARK SMILES IDX 11 1 12 2 10 3 8 4 9 5 7 6 13 9 19 10 18 11 14 12 16 13
REMARK SMILES IDX 15 14 17 15 6 16 5 17 4 18 20 19 3 20 21 21 2 22 1 23
REMARK H PARENT 10 7 7 8
ROOT
ATOM      1  C   UNL     1      10.897  16.892  -1.366  1.00  0.00     0.259 C 
ATOM      2  O   UNL     1      10.753  17.985  -0.836  1.00  0.00    -0.269 OA
ATOM      3  N   UNL     1      11.901  15.942  -1.154  1.00  0.00    -0.274 N 
ATOM      4  C   UNL     1      12.885  15.696  -0.230  1.00  0.00     0.321 C 
ATOM      5  O   UNL     1      13.507  14.633  -0.325  1.00  0.00    -0.248 OA
ATOM      6  N   UNL     1      13.181  16.532   0.781  1.00  0.00    -0.334 N 
ATOM      7  H   UNL     1      11.821  15.115  -1.731  1.00  0.00     0.175 HD
ATOM      8  H   UNL     1      13.870  16.166   1.423  1.00  0.00     0.165 HD
ENDROOT
BRANCH   1   9
ATOM      9  C   UNL     1       9.883  16.504  -2.365  1.00  0.00     0.040 A 
ATOM     10  C   UNL     1       9.904  17.018  -3.662  1.00  0.00     0.014 A 
ATOM     11  C   UNL     1       8.955  16.581  -4.587  1.00  0.00     0.004 A 
ATOM     12  C   UNL     1       8.886  15.604  -1.972  1.00  0.00     0.014 A 
ATOM     13  C   UNL     1       7.982  15.639  -4.218  1.00  0.00    -0.051 A 
ATOM     14  C   UNL     1       7.944  15.166  -2.901  1.00  0.00     0.004 A 
ATOM     15  C   UNL     1       7.022  15.116  -5.246  1.00  0.00     0.044 C 
ENDBRANCH   1   9
BRANCH   6  16
ATOM     16  C   UNL     1      12.517  17.756   1.130  1.00  0.00     0.153 C 
BRANCH  16  17
ATOM     17  C   UNL     1      11.916  17.848   2.505  1.00  0.00    -0.029 A 
ATOM     18  C   UNL     1      10.605  18.277   2.738  1.00  0.00     0.006 A 
ATOM     19  C   UNL     1      12.642  17.277   3.563  1.00  0.00     0.006 A 
ATOM     20  C   UNL     1      10.029  18.111   4.002  1.00  0.00     0.004 A 
ATOM     21  C   UNL     1      12.066  17.109   4.819  1.00  0.00     0.004 A 
ATOM     22  C   UNL     1      10.750  17.516   5.046  1.00  0.00    -0.051 A 
ATOM     23  C   UNL     1      10.095  17.206   6.359  1.00  0.00     0.044 C 
ENDBRANCH  16  17
ENDBRANCH   6  16
TORSDOF 3
ENDMDL
MODEL 9
REMARK VINA RESULT:    -3.694      6.194      9.993
REMARK INTER + INTRA:          -4.712
REMARK INTER:                  -4.190
REMARK INTRA:                  -0.522
REMARK UNBOUND:                -0.370
REMARK SMILES Cc1ccc(CNC(=O)NC(=O)c2ccc(C)cc2)cc1
REMARK SMILES IDX 11 1 12 2 10 3 8 4 9 5 7 6 13 9 19 10 18 11 14 12 16 13
REMARK SMILES IDX 15 14 17 15 6 16 5 17 4 18 20 19 3 20 21 21 2 22 1 23
REMARK H PARENT 10 7 7 8
ROOT
ATOM      1  C   UNL     1      10.014  15.678   1.003  1.00  0.00     0.259 C 
ATOM      2  O   UNL     1       9.570  16.655   0.416  1.00  0.00    -0.269 OA
ATOM      3  N   UNL     1       9.598  14.345   0.923  1.00  0.00    -0.274 N 
ATOM      4  C   UNL     1       8.810  13.577   0.104  1.00  0.00     0.321 C 
ATOM      5  O   UNL     1       8.799  12.357   0.300  1.00  0.00    -0.248 OA
ATOM      6  N   UNL     1       8.081  14.077  -0.911  1.00  0.00    -0.334 N 
ATOM      7  H   UNL     1      10.108  13.712   1.525  1.00  0.00     0.175 HD
ATOM      8  H   UNL     1       7.625  13.371  -1.470  1.00  0.00     0.165 HD
ENDROOT
BRANCH   1   9
ATOM      9  C   UNL     1      11.145  15.916   1.920  1.00  0.00     0.040 A 
ATOM     10  C   UNL     1      12.025  14.891   2.271  1.00  0.00     0.014 A 
ATOM     11  C   UNL     1      13.111  15.176   3.100  1.00  0.00     0.004 A 
ATOM     12  C   UNL     1      11.310  17.204   2.439  1.00  0.00     0.014 A 
ATOM     13  C   UNL     1      13.315  16.477   3.584  1.00  0.00    -0.051 A 
ATOM     14  C   UNL     1      12.399  17.485   3.261  1.00  0.00     0.004 A 
ATOM     15  C   UNL     1      14.533  16.786   4.404  1.00  0.00     0.044 C 
ENDBRANCH   1   9
BRANCH   6  16
ATOM     16  C   UNL     1       8.035  15.437  -1.369  1.00  0.00     0.153 C 
BRANCH  16  17
ATOM     17  C   UNL     1       8.462  15.701  -2.786  1.00  0.00    -0.029 A 
ATOM     18  C   UNL     1       7.824  15.135  -3.895  1.00  0.00     0.006 A 
ATOM     19  C   UNL     1       9.403  16.723  -2.994  1.00  0.00     0.006 A 
ATOM     20  C   UNL     1       8.109  15.604  -5.182  1.00  0.00     0.004 A 
ATOM     21  C   UNL     1       9.682  17.191  -4.274  1.00  0.00     0.004 A 
ATOM     22  C   UNL     1       9.029  16.642  -5.379  1.00  0.00    -0.051 A 
ATOM     23  C   UNL     1       9.233  17.245  -6.736  1.00  0.00     0.044 C 
ENDBRANCH  16  17
ENDBRANCH   6  16
TORSDOF 3
ENDMDL
