MODEL 1
REMARK VINA RESULT:    -6.065      0.000      0.000
REMARK INTER + INTRA:          -7.612
REMARK INTER:                  -7.129
REMARK INTRA:                  -0.482
REMARK UNBOUND:                -0.482
REMARK SMILES Cc1ccc(CNC(=O)NC(=O)c2ccc(C)cc2)cc1
REMARK SMILES IDX 11 1 12 2 10 3 8 4 9 5 7 6 13 9 19 10 18 11 14 12 16 13
REMARK SMILES IDX 15 14 17 15 6 16 5 17 4 18 20 19 3 20 21 21 2 22 1 23
REMARK H PARENT 10 7 7 8
ROOT
ATOM      1  C   UNL     1       4.354 -10.930  -1.756  1.00  0.00     0.259 C 
ATOM      2  O   UNL     1       3.462 -10.100  -1.858  1.00  0.00    -0.269 OA
ATOM      3  N   UNL     1       5.700 -10.733  -1.433  1.00  0.00    -0.274 N 
ATOM      4  C   UNL     1       6.481  -9.735  -0.910  1.00  0.00     0.321 C 
ATOM      5  O   UNL     1       7.656 -10.007  -0.642  1.00  0.00    -0.248 OA
ATOM      6  N   UNL     1       6.027  -8.495  -0.648  1.00  0.00    -0.334 N 
ATOM      7  H   UNL     1       6.257 -11.578  -1.432  1.00  0.00     0.175 HD
ATOM      8  H   UNL     1       6.703  -7.904  -0.186  1.00  0.00     0.165 HD
ENDROOT
BRANCH   1   9
ATOM      9  C   UNL     1       3.979 -12.337  -1.999  1.00  0.00     0.040 A 
ATOM     10  C   UNL     1       3.111 -12.690  -3.034  1.00  0.00     0.014 A 
ATOM     11  C   UNL     1       2.827 -14.038  -3.257  1.00  0.00     0.004 A 
ATOM     12  C   UNL     1       4.514 -13.314  -1.154  1.00  0.00     0.014 A 
ATOM     13  C   UNL     1       3.399 -15.030  -2.448  1.00  0.00    -0.051 A 
ATOM     14  C   UNL     1       4.232 -14.659  -1.386  1.00  0.00     0.004 A 
ATOM     15  C   UNL     1       3.151 -16.478  -2.754  1.00  0.00     0.044 C 
ENDBRANCH   1   9
BRANCH   6  16
ATOM     16  C   UNL     1       4.684  -8.006  -0.786  1.00  0.00     0.153 C 
BRANCH  16  17
ATOM     17  C   UNL     1       4.507  -6.631  -1.367  1.00  0.00    -0.029 A 
ATOM     18  C   UNL     1       4.525  -5.467  -0.593  1.00  0.00     0.006 A 
ATOM     19  C   UNL     1       4.536  -6.516  -2.767  1.00  0.00     0.006 A 
ATOM     20  C   UNL     1       4.597  -4.215  -1.213  1.00  0.00     0.004 A 
ATOM     21  C   UNL     1       4.612  -5.270  -3.382  1.00  0.00     0.004 A 
ATOM     22  C   UNL     1       4.654  -4.108  -2.609  1.00  0.00    -0.051 A 
ATOM     23  C   UNL     1       4.874  -2.782  -3.274  1.00  0.00     0.044 C 
ENDBRANCH  16  17
ENDBRANCH   6  16
TORSDOF 3
ENDMDL
MODEL 2
REMARK VINA RESULT:    -6.064      3.037      5.469
REMARK INTER + INTRA:          -7.611
REMARK INTER:                  -7.128
REMARK INTRA:                  -0.482
REMARK UNBOUND:                -0.482
REMARK SMILES Cc1ccc(CNC(=O)NC(=O)c2ccc(C)cc2)cc1
REMARK SMILES IDX 11 1 12 2 10 3 8 4 9 5 7 6 13 9 19 10 18 11 14 12 16 13
REMARK SMILES IDX 15 14 17 15 6 16 5 17 4 18 20 19 3 20 21 21 2 22 1 23
REMARK H PARENT 10 7 7 8
ROOT
ATOM      1  C   UNL     1       7.420  -9.313  -0.645  1.00  0.00     0.259 C 
ATOM      2  O   UNL     1       7.300  -8.097  -0.695  1.00  0.00    -0.269 OA
ATOM      3  N   UNL     1       6.465 -10.298  -0.917  1.00  0.00    -0.274 N 
ATOM      4  C   UNL     1       5.234 -10.378  -1.516  1.00  0.00     0.321 C 
ATOM      5  O   UNL     1       4.751 -11.503  -1.685  1.00  0.00    -0.248 OA
ATOM      6  N   UNL     1       4.547  -9.306  -1.951  1.00  0.00    -0.334 N 
ATOM      7  H   UNL     1       6.794 -11.246  -0.786  1.00  0.00     0.175 HD
ATOM      8  H   UNL     1       3.698  -9.540  -2.446  1.00  0.00     0.165 HD
ENDROOT
BRANCH   1   9
ATOM      9  C   UNL     1       8.745  -9.832  -0.253  1.00  0.00     0.040 A 
ATOM     10  C   UNL     1       9.493  -9.226   0.758  1.00  0.00     0.014 A 
ATOM     11  C   UNL     1      10.717  -9.784   1.130  1.00  0.00     0.004 A 
ATOM     12  C   UNL     1       9.239 -10.950  -0.931  1.00  0.00     0.014 A 
ATOM     13  C   UNL     1      11.198 -10.937   0.492  1.00  0.00    -0.051 A 
ATOM     14  C   UNL     1      10.459 -11.508  -0.552  1.00  0.00     0.004 A 
ATOM     15  C   UNL     1      12.474 -11.572   0.960  1.00  0.00     0.044 C 
ENDBRANCH   1   9
BRANCH   6  16
ATOM     16  C   UNL     1       4.970  -7.934  -1.947  1.00  0.00     0.153 C 
BRANCH  16  17
ATOM     17  C   UNL     1       3.953  -6.900  -1.549  1.00  0.00    -0.029 A 
ATOM     18  C   UNL     1       3.070  -6.309  -2.459  1.00  0.00     0.006 A 
ATOM     19  C   UNL     1       3.755  -6.688  -0.175  1.00  0.00     0.006 A 
ATOM     20  C   UNL     1       1.996  -5.542  -1.994  1.00  0.00     0.004 A 
ATOM     21  C   UNL     1       2.684  -5.928   0.285  1.00  0.00     0.004 A 
ATOM     22  C   UNL     1       1.788  -5.357  -0.620  1.00  0.00    -0.051 A 
ATOM     23  C   UNL     1       0.563  -4.658  -0.112  1.00  0.00     0.044 C 
ENDBRANCH  16  17
ENDBRANCH   6  16
TORSDOF 3
ENDMDL
MODEL 3
REMARK VINA RESULT:    -6.035      0.523      8.050
REMARK INTER + INTRA:          -7.576
REMARK INTER:                  -7.204
REMARK INTRA:                  -0.372
REMARK UNBOUND:                -0.482
REMARK SMILES Cc1ccc(CNC(=O)NC(=O)c2ccc(C)cc2)cc1
REMARK SMILES IDX 11 1 12 2 10 3 8 4 9 5 7 6 13 9 19 10 18 11 14 12 16 13
REMARK SMILES IDX 15 14 17 15 6 16 5 17 4 18 20 19 3 20 21 21 2 22 1 23
REMARK H PARENT 10 7 7 8
ROOT
ATOM      1  C   UNL     1       4.670  -8.084  -1.525  1.00  0.00     0.259 C 
ATOM      2  O   UNL     1       3.579  -8.635  -1.495  1.00  0.00    -0.269 OA
ATOM      3  N   UNL     1       5.932  -8.625  -1.263  1.00  0.00    -0.274 N 
ATOM      4  C   UNL     1       6.493  -9.870  -1.126  1.00  0.00     0.321 C 
ATOM      5  O   UNL     1       7.722  -9.937  -1.025  1.00  0.00    -0.248 OA
ATOM      6  N   UNL     1       5.780 -11.011  -1.128  1.00  0.00    -0.334 N 
ATOM      7  H   UNL     1       6.693  -7.962  -1.331  1.00  0.00     0.175 HD
ATOM      8  H   UNL     1       6.348 -11.846  -1.105  1.00  0.00     0.165 HD
ENDROOT
BRANCH   1   9
ATOM      9  C   UNL     1       4.678  -6.654  -1.891  1.00  0.00     0.040 A 
ATOM     10  C   UNL     1       4.780  -5.655  -0.921  1.00  0.00     0.014 A 
ATOM     11  C   UNL     1       4.836  -4.319  -1.319  1.00  0.00     0.004 A 
ATOM     12  C   UNL     1       4.572  -6.322  -3.245  1.00  0.00     0.014 A 
ATOM     13  C   UNL     1       4.783  -3.978  -2.679  1.00  0.00    -0.051 A 
ATOM     14  C   UNL     1       4.635  -4.987  -3.638  1.00  0.00     0.004 A 
ATOM     15  C   UNL     1       4.930  -2.544  -3.095  1.00  0.00     0.044 C 
ENDBRANCH   1   9
BRANCH   6  16
ATOM     16  C   UNL     1       4.367 -11.161  -1.336  1.00  0.00     0.153 C 
BRANCH  16  17
ATOM     17  C   UNL     1       3.871 -12.519  -1.751  1.00  0.00    -0.029 A 
ATOM     18  C   UNL     1       3.071 -12.727  -2.879  1.00  0.00     0.006 A 
ATOM     19  C   UNL     1       4.415 -13.632  -1.090  1.00  0.00     0.006 A 
ATOM     20  C   UNL     1       2.845 -14.026  -3.347  1.00  0.00     0.004 A 
ATOM     21  C   UNL     1       4.193 -14.923  -1.559  1.00  0.00     0.004 A 
ATOM     22  C   UNL     1       3.414 -15.131  -2.698  1.00  0.00    -0.051 A 
ATOM     23  C   UNL     1       3.294 -16.510  -3.274  1.00  0.00     0.044 C 
ENDBRANCH  16  17
ENDBRANCH   6  16
TORSDOF 3
ENDMDL
MODEL 4
REMARK VINA RESULT:    -6.034      3.174      7.322
REMARK INTER + INTRA:          -7.574
REMARK INTER:                  -7.199
REMARK INTRA:                  -0.375
REMARK UNBOUND:                -0.482
REMARK SMILES Cc1ccc(CNC(=O)NC(=O)c2ccc(C)cc2)cc1
REMARK SMILES IDX 11 1 12 2 10 3 8 4 9 5 7 6 13 9 19 10 18 11 14 12 16 13
REMARK SMILES IDX 15 14 17 15 6 16 5 17 4 18 20 19 3 20 21 21 2 22 1 23
REMARK H PARENT 10 7 7 8
ROOT
ATOM      1  C   UNL     1       5.005  -7.916  -1.205  1.00  0.00     0.259 C 
ATOM      2  O   UNL     1       6.107  -7.385  -1.243  1.00  0.00    -0.269 OA
ATOM      3  N   UNL     1       4.683  -9.272  -1.318  1.00  0.00    -0.274 N 
ATOM      4  C   UNL     1       5.336 -10.476  -1.269  1.00  0.00     0.321 C 
ATOM      5  O   UNL     1       4.648 -11.503  -1.280  1.00  0.00    -0.248 OA
ATOM      6  N   UNL     1       6.674 -10.594  -1.180  1.00  0.00    -0.334 N 
ATOM      7  H   UNL     1       3.692  -9.469  -1.278  1.00  0.00     0.175 HD
ATOM      8  H   UNL     1       6.992 -11.546  -1.067  1.00  0.00     0.165 HD
ENDROOT
BRANCH   1   9
ATOM      9  C   UNL     1       3.848  -7.021  -1.011  1.00  0.00     0.040 A 
ATOM     10  C   UNL     1       3.040  -6.633  -2.081  1.00  0.00     0.014 A 
ATOM     11  C   UNL     1       1.926  -5.829  -1.840  1.00  0.00     0.004 A 
ATOM     12  C   UNL     1       3.583  -6.562   0.283  1.00  0.00     0.014 A 
ATOM     13  C   UNL     1       1.621  -5.406  -0.538  1.00  0.00    -0.051 A 
ATOM     14  C   UNL     1       2.465  -5.764   0.520  1.00  0.00     0.004 A 
ATOM     15  C   UNL     1       0.373  -4.612  -0.284  1.00  0.00     0.044 C 
ENDBRANCH   1   9
BRANCH   6  16
ATOM     16  C   UNL     1       7.640  -9.539  -1.051  1.00  0.00     0.153 C 
BRANCH  16  17
ATOM     17  C   UNL     1       8.981  -9.899  -0.474  1.00  0.00    -0.029 A 
ATOM     18  C   UNL     1       9.532  -9.253   0.638  1.00  0.00     0.006 A 
ATOM     19  C   UNL     1       9.594 -11.069  -0.952  1.00  0.00     0.006 A 
ATOM     20  C   UNL     1      10.660  -9.787   1.269  1.00  0.00     0.004 A 
ATOM     21  C   UNL     1      10.713 -11.601  -0.320  1.00  0.00     0.004 A 
ATOM     22  C   UNL     1      11.250 -10.970   0.803  1.00  0.00    -0.051 A 
ATOM     23  C   UNL     1      12.369 -11.624   1.558  1.00  0.00     0.044 C 
ENDBRANCH  16  17
ENDBRANCH   6  16
TORSDOF 3
ENDMDL
MODEL 5
REMARK VINA RESULT:    -5.486      0.608      7.928
REMARK INTER + INTRA:          -6.931
REMARK INTER:                  -6.541
REMARK INTRA:                  -0.390
REMARK UNBOUND:                -0.482
REMARK SMILES Cc1ccc(CNC(=O)NC(=O)c2ccc(C)cc2)cc1
REMARK SMILES IDX 11 1 12 2 10 3 8 4 9 5 7 6 13 9 19 10 18 11 14 12 16 13
REMARK SMILES IDX 15 14 17 15 6 16 5 17 4 18 20 19 3 20 21 21 2 22 1 23
REMARK H PARENT 10 7 7 8
ROOT
ATOM      1  C   UNL     1       4.739  -8.122  -1.507  1.00  0.00     0.259 C 
ATOM      2  O   UNL     1       3.678  -8.729  -1.538  1.00  0.00    -0.269 OA
ATOM      3  N   UNL     1       6.009  -8.595  -1.159  1.00  0.00    -0.274 N 
ATOM      4  C   UNL     1       6.622  -9.807  -0.971  1.00  0.00     0.321 C 
ATOM      5  O   UNL     1       7.844  -9.809  -0.792  1.00  0.00    -0.248 OA
ATOM      6  N   UNL     1       5.969 -10.984  -1.002  1.00  0.00    -0.334 N 
ATOM      7  H   UNL     1       6.737  -7.894  -1.188  1.00  0.00     0.175 HD
ATOM      8  H   UNL     1       6.577 -11.787  -0.932  1.00  0.00     0.165 HD
ENDROOT
BRANCH   1   9
ATOM      9  C   UNL     1       4.697  -6.698  -1.891  1.00  0.00     0.040 A 
ATOM     10  C   UNL     1       4.673  -5.685  -0.931  1.00  0.00     0.014 A 
ATOM     11  C   UNL     1       4.687  -4.352  -1.342  1.00  0.00     0.004 A 
ATOM     12  C   UNL     1       4.674  -6.386  -3.254  1.00  0.00     0.014 A 
ATOM     13  C   UNL     1       4.716  -4.028  -2.706  1.00  0.00    -0.051 A 
ATOM     14  C   UNL     1       4.694  -5.053  -3.660  1.00  0.00     0.004 A 
ATOM     15  C   UNL     1       4.816  -2.592  -3.131  1.00  0.00     0.044 C 
ENDBRANCH   1   9
BRANCH   6  16
ATOM     16  C   UNL     1       4.582 -11.209  -1.295  1.00  0.00     0.153 C 
BRANCH  16  17
ATOM     17  C   UNL     1       4.216 -12.518  -1.937  1.00  0.00    -0.029 A 
ATOM     18  C   UNL     1       4.434 -13.756  -1.323  1.00  0.00     0.006 A 
ATOM     19  C   UNL     1       3.437 -12.467  -3.104  1.00  0.00     0.006 A 
ATOM     20  C   UNL     1       3.858 -14.914  -1.858  1.00  0.00     0.004 A 
ATOM     21  C   UNL     1       2.861 -13.618  -3.632  1.00  0.00     0.004 A 
ATOM     22  C   UNL     1       3.058 -14.851  -3.008  1.00  0.00    -0.051 A 
ATOM     23  C   UNL     1       2.323 -16.060  -3.504  1.00  0.00     0.044 C 
ENDBRANCH  16  17
ENDBRANCH   6  16
TORSDOF 3
ENDMDL
MODEL 6
REMARK VINA RESULT:    -5.065      3.120      7.569
REMARK INTER + INTRA:          -6.436
REMARK INTER:                  -5.935
REMARK INTRA:                  -0.501
REMARK UNBOUND:                -0.482
REMARK SMILES Cc1ccc(CNC(=O)NC(=O)c2ccc(C)cc2)cc1
REMARK SMILES IDX 11 1 12 2 10 3 8 4 9 5 7 6 13 9 19 10 18 11 14 12 16 13
REMARK SMILES IDX 15 14 17 15 6 16 5 17 4 18 20 19 3 20 21 21 2 22 1 23
REMARK H PARENT 10 7 7 8
ROOT
ATOM      1  C   UNL     1       4.998  -7.463  -1.749  1.00  0.00     0.259 C 
ATOM      2  O   UNL     1       6.108  -7.357  -2.251  1.00  0.00    -0.269 OA
ATOM      3  N   UNL     1       4.379  -8.603  -1.227  1.00  0.00    -0.274 N 
ATOM      4  C   UNL     1       4.742  -9.870  -0.849  1.00  0.00     0.321 C 
ATOM      5  O   UNL     1       3.891 -10.567  -0.285  1.00  0.00    -0.248 OA
ATOM      6  N   UNL     1       5.975 -10.377  -1.032  1.00  0.00    -0.334 N 
ATOM      7  H   UNL     1       3.441  -8.447  -0.882  1.00  0.00     0.175 HD
ATOM      8  H   UNL     1       6.105 -11.291  -0.622  1.00  0.00     0.165 HD
ENDROOT
BRANCH   1   9
ATOM      9  C   UNL     1       4.189  -6.232  -1.670  1.00  0.00     0.040 A 
ATOM     10  C   UNL     1       4.753  -5.013  -1.289  1.00  0.00     0.014 A 
ATOM     11  C   UNL     1       3.960  -3.865  -1.279  1.00  0.00     0.004 A 
ATOM     12  C   UNL     1       2.829  -6.319  -1.982  1.00  0.00     0.014 A 
ATOM     13  C   UNL     1       2.606  -3.932  -1.641  1.00  0.00    -0.051 A 
ATOM     14  C   UNL     1       2.042  -5.169  -1.977  1.00  0.00     0.004 A 
ATOM     15  C   UNL     1       1.788  -2.676  -1.707  1.00  0.00     0.044 C 
ENDBRANCH   1   9
BRANCH   6  16
ATOM     16  C   UNL     1       7.127  -9.707  -1.567  1.00  0.00     0.153 C 
BRANCH  16  17
ATOM     17  C   UNL     1       8.413  -9.825  -0.797  1.00  0.00    -0.029 A 
ATOM     18  C   UNL     1       8.767  -8.952   0.237  1.00  0.00     0.006 A 
ATOM     19  C   UNL     1       9.177 -10.987  -0.996  1.00  0.00     0.006 A 
ATOM     20  C   UNL     1       9.851  -9.255   1.068  1.00  0.00     0.004 A 
ATOM     21  C   UNL     1      10.251 -11.289  -0.165  1.00  0.00     0.004 A 
ATOM     22  C   UNL     1      10.592 -10.430   0.881  1.00  0.00    -0.051 A 
ATOM     23  C   UNL     1      11.661 -10.831   1.853  1.00  0.00     0.044 C 
ENDBRANCH  16  17
ENDBRANCH   6  16
TORSDOF 3
ENDMDL
MODEL 7
REMARK VINA RESULT:    -4.522      3.886      5.065
REMARK INTER + INTRA:          -5.798
REMARK INTER:                  -5.379
REMARK INTRA:                  -0.419
REMARK UNBOUND:                -0.482
REMARK SMILES Cc1ccc(CNC(=O)NC(=O)c2ccc(C)cc2)cc1
REMARK SMILES IDX 11 1 12 2 10 3 8 4 9 5 7 6 13 9 19 10 18 11 14 12 16 13
REMARK SMILES IDX 15 14 17 15 6 16 5 17 4 18 20 19 3 20 21 21 2 22 1 23
REMARK H PARENT 10 7 7 8
ROOT
ATOM      1  C   UNL     1       6.847  -8.916  -1.059  1.00  0.00     0.259 C 
ATOM      2  O   UNL     1       6.049  -8.578  -0.197  1.00  0.00    -0.269 OA
ATOM      3  N   UNL     1       6.723  -8.829  -2.449  1.00  0.00    -0.274 N 
ATOM      4  C   UNL     1       5.911  -8.198  -3.357  1.00  0.00     0.321 C 
ATOM      5  O   UNL     1       6.221  -8.269  -4.551  1.00  0.00    -0.248 OA
ATOM      6  N   UNL     1       4.822  -7.486  -3.012  1.00  0.00    -0.334 N 
ATOM      7  H   UNL     1       7.514  -9.196  -2.963  1.00  0.00     0.175 HD
ATOM      8  H   UNL     1       4.382  -7.014  -3.788  1.00  0.00     0.165 HD
ENDROOT
BRANCH   1   9
ATOM      9  C   UNL     1       8.122  -9.492  -0.590  1.00  0.00     0.040 A 
ATOM     10  C   UNL     1       8.884  -8.865   0.397  1.00  0.00     0.014 A 
ATOM     11  C   UNL     1      10.057  -9.474   0.846  1.00  0.00     0.004 A 
ATOM     12  C   UNL     1       8.555 -10.689  -1.169  1.00  0.00     0.014 A 
ATOM     13  C   UNL     1      10.473 -10.701   0.308  1.00  0.00    -0.051 A 
ATOM     14  C   UNL     1       9.723 -11.297  -0.713  1.00  0.00     0.004 A 
ATOM     15  C   UNL     1      11.689 -11.385   0.860  1.00  0.00     0.044 C 
ENDBRANCH   1   9
BRANCH   6  16
ATOM     16  C   UNL     1       4.349  -7.194  -1.688  1.00  0.00     0.153 C 
BRANCH  16  17
ATOM     17  C   UNL     1       3.735  -5.842  -1.458  1.00  0.00    -0.029 A 
ATOM     18  C   UNL     1       4.491  -4.673  -1.320  1.00  0.00     0.006 A 
ATOM     19  C   UNL     1       2.342  -5.735  -1.600  1.00  0.00     0.006 A 
ATOM     20  C   UNL     1       3.861  -3.424  -1.350  1.00  0.00     0.004 A 
ATOM     21  C   UNL     1       1.717  -4.493  -1.634  1.00  0.00     0.004 A 
ATOM     22  C   UNL     1       2.473  -3.325  -1.520  1.00  0.00    -0.051 A 
ATOM     23  C   UNL     1       1.811  -1.992  -1.695  1.00  0.00     0.044 C 
ENDBRANCH  16  17
ENDBRANCH   6  16
TORSDOF 3
ENDMDL
MODEL 8
REMARK VINA RESULT:    -4.505      4.112      8.172
REMARK INTER + INTRA:          -5.777
REMARK INTER:                  -5.426
REMARK INTRA:                  -0.351
REMARK UNBOUND:                -0.482
REMARK SMILES Cc1ccc(CNC(=O)NC(=O)c2ccc(C)cc2)cc1
REMARK SMILES IDX 11 1 12 2 10 3 8 4 9 5 7 6 13 9 19 10 18 11 14 12 16 13
REMARK SMILES IDX 15 14 17 15 6 16 5 17 4 18 20 19 3 20 21 21 2 22 1 23
REMARK H PARENT 10 7 7 8
ROOT
ATOM      1  C   UNL     1       6.766  -9.607  -0.913  1.00  0.00     0.259 C 
ATOM      2  O   UNL     1       6.561 -10.761  -1.260  1.00  0.00    -0.269 OA
ATOM      3  N   UNL     1       7.904  -9.062  -0.311  1.00  0.00    -0.274 N 
ATOM      4  C   UNL     1       9.208  -9.427  -0.094  1.00  0.00     0.321 C 
ATOM      5  O   UNL     1       9.971  -8.577   0.378  1.00  0.00    -0.248 OA
ATOM      6  N   UNL     1       9.701 -10.643  -0.396  1.00  0.00    -0.334 N 
ATOM      7  H   UNL     1       7.831  -8.077  -0.094  1.00  0.00     0.175 HD
ATOM      8  H   UNL     1      10.698 -10.724  -0.255  1.00  0.00     0.165 HD
ENDROOT
BRANCH   1   9
ATOM      9  C   UNL     1       5.678  -8.641  -1.159  1.00  0.00     0.040 A 
ATOM     10  C   UNL     1       4.733  -8.343  -0.175  1.00  0.00     0.014 A 
ATOM     11  C   UNL     1       3.754  -7.383  -0.435  1.00  0.00     0.004 A 
ATOM     12  C   UNL     1       5.612  -8.031  -2.415  1.00  0.00     0.014 A 
ATOM     13  C   UNL     1       3.711  -6.728  -1.675  1.00  0.00    -0.051 A 
ATOM     14  C   UNL     1       4.636  -7.068  -2.669  1.00  0.00     0.004 A 
ATOM     15  C   UNL     1       2.705  -5.639  -1.909  1.00  0.00     0.044 C 
ENDBRANCH   1   9
BRANCH   6  16
ATOM     16  C   UNL     1       9.019 -11.729  -1.040  1.00  0.00     0.153 C 
BRANCH  16  17
ATOM     17  C   UNL     1       9.866 -12.815  -1.643  1.00  0.00    -0.029 A 
ATOM     18  C   UNL     1      11.045 -12.559  -2.351  1.00  0.00     0.006 A 
ATOM     19  C   UNL     1       9.560 -14.140  -1.291  1.00  0.00     0.006 A 
ATOM     20  C   UNL     1      11.909 -13.610  -2.676  1.00  0.00     0.004 A 
ATOM     21  C   UNL     1      10.423 -15.184  -1.611  1.00  0.00     0.004 A 
ATOM     22  C   UNL     1      11.610 -14.927  -2.297  1.00  0.00    -0.051 A 
ATOM     23  C   UNL     1      12.596 -16.035  -2.516  1.00  0.00     0.044 C 
ENDBRANCH  16  17
ENDBRANCH   6  16
TORSDOF 3
ENDMDL
MODEL 9
REMARK VINA RESULT:    -4.313      4.729      8.127
REMARK INTER + INTRA:          -5.552
REMARK INTER:                  -5.110
REMARK INTRA:                  -0.442
REMARK UNBOUND:                -0.482
REMARK SMILES Cc1ccc(CNC(=O)NC(=O)c2ccc(C)cc2)cc1
REMARK SMILES IDX 11 1 12 2 10 3 8 4 9 5 7 6 13 9 19 10 18 11 14 12 16 13
REMARK SMILES IDX 15 14 17 15 6 16 5 17 4 18 20 19 3 20 21 21 2 22 1 23
REMARK H PARENT 10 7 7 8
ROOT
ATOM      1  C   UNL     1       8.003  -9.427  -0.771  1.00  0.00     0.259 C 
ATOM      2  O   UNL     1       8.826  -8.677  -0.265  1.00  0.00    -0.269 OA
ATOM      3  N   UNL     1       8.154 -10.766  -1.145  1.00  0.00    -0.274 N 
ATOM      4  C   UNL     1       9.046 -11.785  -0.929  1.00  0.00     0.321 C 
ATOM      5  O   UNL     1       8.744 -12.909  -1.343  1.00  0.00    -0.248 OA
ATOM      6  N   UNL     1      10.208 -11.628  -0.268  1.00  0.00    -0.334 N 
ATOM      7  H   UNL     1       7.332 -11.176  -1.568  1.00  0.00     0.175 HD
ATOM      8  H   UNL     1      10.710 -12.492  -0.119  1.00  0.00     0.165 HD
ENDROOT
BRANCH   1   9
ATOM      9  C   UNL     1       6.663  -8.864  -1.024  1.00  0.00     0.040 A 
ATOM     10  C   UNL     1       5.667  -8.887  -0.046  1.00  0.00     0.014 A 
ATOM     11  C   UNL     1       4.432  -8.295  -0.313  1.00  0.00     0.004 A 
ATOM     12  C   UNL     1       6.412  -8.308  -2.282  1.00  0.00     0.014 A 
ATOM     13  C   UNL     1       4.187  -7.689  -1.555  1.00  0.00    -0.051 A 
ATOM     14  C   UNL     1       5.179  -7.712  -2.543  1.00  0.00     0.004 A 
ATOM     15  C   UNL     1       2.886  -6.982  -1.796  1.00  0.00     0.044 C 
ENDBRANCH   1   9
BRANCH   6  16
ATOM     16  C   UNL     1      10.696 -10.442   0.377  1.00  0.00     0.153 C 
BRANCH  16  17
ATOM     17  C   UNL     1      11.323 -10.604   1.734  1.00  0.00    -0.029 A 
ATOM     18  C   UNL     1      10.589 -10.923   2.881  1.00  0.00     0.006 A 
ATOM     19  C   UNL     1      12.726 -10.639   1.795  1.00  0.00     0.006 A 
ATOM     20  C   UNL     1      11.252 -11.295   4.056  1.00  0.00     0.004 A 
ATOM     21  C   UNL     1      13.384 -11.014   2.962  1.00  0.00     0.004 A 
ATOM     22  C   UNL     1      12.652 -11.355   4.101  1.00  0.00    -0.051 A 
ATOM     23  C   UNL     1      13.363 -11.888   5.308  1.00  0.00     0.044 C 
ENDBRANCH  16  17
ENDBRANCH   6  16
TORSDOF 3
ENDMDL
