MODEL 1
REMARK VINA RESULT:    -4.154      0.000      0.000
REMARK INTER + INTRA:          -5.710
REMARK INTER:                  -5.489
REMARK INTRA:                  -0.221
REMARK UNBOUND:                -0.221
REMARK SMILES [H]/N=C\C[C@H]1C[C@@H]1O[C@H]1CO[C@H]2C[C@@H](C3CC3)CCN2C1
REMARK SMILES IDX 7 1 6 2 5 3 8 4 9 5 14 6 13 7 18 8 12 9 19 10 20 11 11 12
REMARK SMILES IDX 21 13 10 14 15 15 16 16 17 17 4 18 3 19 2 20 1 21
REMARK H PARENT
ROOT
ATOM      1  C   UNL     1       4.103 -11.604  -2.191  1.00  0.00     0.122 C 
ATOM      2  C   UNL     1       4.115 -12.868  -1.378  1.00  0.00     0.039 C 
ATOM      3  C   UNL     1       3.030 -12.640  -2.392  1.00  0.00     0.026 C 
ENDROOT
BRANCH   1   4
ATOM      4  O   UNL     1       3.732 -10.429  -1.445  1.00  0.00    -0.371 OA
BRANCH   4   5
ATOM      5  C   UNL     1       4.717  -9.950  -0.515  1.00  0.00     0.158 C 
ATOM      6  C   UNL     1       4.343  -4.849  -1.538  1.00  0.00    -0.003 C 
ATOM      7  C   UNL     1       4.909  -6.076  -2.263  1.00  0.00     0.052 C 
ATOM      8  C   UNL     1       3.131  -5.272  -0.696  1.00  0.00     0.019 C 
ATOM      9  C   UNL     1       5.194  -7.231  -1.293  1.00  0.00     0.189 C 
ATOM     10  C   UNL     1       3.471  -6.446   0.223  1.00  0.00     0.087 C 
ATOM     11  N   UNL     1       3.986  -7.579  -0.546  1.00  0.00    -0.276 NA
ATOM     12  O   UNL     1       5.669  -8.322  -2.084  1.00  0.00    -0.360 OA
ATOM     13  C   UNL     1       4.235  -8.744   0.311  1.00  0.00     0.121 C 
ATOM     14  C   UNL     1       5.944  -9.495  -1.313  1.00  0.00     0.195 C 
BRANCH   6  15
ATOM     15  C   UNL     1       3.957  -3.758  -2.511  1.00  0.00    -0.008 C 
ATOM     16  C   UNL     1       4.369  -2.327  -2.256  1.00  0.00     0.004 C 
ATOM     17  C   UNL     1       4.997  -3.096  -3.382  1.00  0.00     0.004 C 
ENDBRANCH   6  15
ENDBRANCH   4   5
ENDBRANCH   1   4
BRANCH   3  18
ATOM     18  C   UNL     1       3.012 -13.477  -3.636  1.00  0.00     0.053 C 
BRANCH  18  19
ATOM     19  C   UNL     1       2.941 -14.969  -3.435  1.00  0.00     0.074 C 
BRANCH  19  20
ATOM     20  N   UNL     1       1.862 -15.675  -3.373  1.00  0.00    -0.313 NA
ATOM     21  H   UNL     1       1.076 -15.208  -3.848  1.00  0.00     0.186 HD
ENDBRANCH  19  20
ENDBRANCH  18  19
ENDBRANCH   3  18
TORSDOF 6
ENDMDL
MODEL 2
REMARK VINA RESULT:    -4.131      3.315      5.586
REMARK INTER + INTRA:          -5.680
REMARK INTER:                  -5.450
REMARK INTRA:                  -0.230
REMARK UNBOUND:                -0.221
REMARK SMILES [H]/N=C\C[C@H]1C[C@@H]1O[C@H]1CO[C@H]2C[C@@H](C3CC3)CCN2C1
REMARK SMILES IDX 7 1 6 2 5 3 8 4 9 5 14 6 13 7 18 8 12 9 19 10 20 11 11 12
REMARK SMILES IDX 21 13 10 14 15 15 16 16 17 17 4 18 3 19 2 20 1 21
REMARK H PARENT
ROOT
ATOM      1  C   UNL     1       8.088  -9.509  -0.140  1.00  0.00     0.122 C 
ATOM      2  C   UNL     1       9.173 -10.266  -0.853  1.00  0.00     0.039 C 
ATOM      3  C   UNL     1       9.532  -9.186   0.128  1.00  0.00     0.026 C 
ENDROOT
BRANCH   1   4
ATOM      4  O   UNL     1       7.367  -8.587  -0.980  1.00  0.00    -0.371 OA
BRANCH   4   5
ATOM      5  C   UNL     1       6.454  -9.185  -1.915  1.00  0.00     0.158 C 
ATOM      6  C   UNL     1       2.610  -5.672  -1.612  1.00  0.00    -0.003 C 
ATOM      7  C   UNL     1       3.168  -6.771  -0.699  1.00  0.00     0.052 C 
ATOM      8  C   UNL     1       3.752  -5.080  -2.450  1.00  0.00     0.019 C 
ATOM      9  C   UNL     1       3.970  -7.815  -1.489  1.00  0.00     0.189 C 
ATOM     10  C   UNL     1       4.531  -6.173  -3.182  1.00  0.00     0.087 C 
ATOM     11  N   UNL     1       5.045  -7.169  -2.243  1.00  0.00    -0.276 NA
ATOM     12  O   UNL     1       4.473  -8.752  -0.534  1.00  0.00    -0.360 OA
ATOM     13  C   UNL     1       5.868  -8.177  -2.920  1.00  0.00     0.121 C 
ATOM     14  C   UNL     1       5.281  -9.774  -1.125  1.00  0.00     0.195 C 
BRANCH   6  15
ATOM     15  C   UNL     1       1.919  -4.588  -0.816  1.00  0.00    -0.008 C 
ATOM     16  C   UNL     1       0.525  -4.139  -1.186  1.00  0.00     0.004 C 
ATOM     17  C   UNL     1       0.749  -4.913   0.081  1.00  0.00     0.004 C 
ENDBRANCH   6  15
ENDBRANCH   4   5
ENDBRANCH   1   4
BRANCH   3  18
ATOM     18  C   UNL     1      10.163  -9.571   1.433  1.00  0.00     0.053 C 
BRANCH  18  19
ATOM     19  C   UNL     1      11.350 -10.495   1.353  1.00  0.00     0.074 C 
BRANCH  19  20
ATOM     20  N   UNL     1      12.590 -10.136   1.346  1.00  0.00    -0.313 NA
ATOM     21  H   UNL     1      13.221 -10.949   1.382  1.00  0.00     0.186 HD
ENDBRANCH  19  20
ENDBRANCH  18  19
ENDBRANCH   3  18
TORSDOF 6
ENDMDL
MODEL 3
REMARK VINA RESULT:    -3.981      5.210      8.397
REMARK INTER + INTRA:          -5.482
REMARK INTER:                  -5.265
REMARK INTRA:                  -0.217
REMARK UNBOUND:                -0.221
REMARK SMILES [H]/N=C\C[C@H]1C[C@@H]1O[C@H]1CO[C@H]2C[C@@H](C3CC3)CCN2C1
REMARK SMILES IDX 7 1 6 2 5 3 8 4 9 5 14 6 13 7 18 8 12 9 19 10 20 11 11 12
REMARK SMILES IDX 21 13 10 14 15 15 16 16 17 17 4 18 3 19 2 20 1 21
REMARK H PARENT
ROOT
ATOM      1  C   UNL     1       5.851  -9.119  -0.913  1.00  0.00     0.122 C 
ATOM      2  C   UNL     1       4.609  -9.965  -0.923  1.00  0.00     0.039 C 
ATOM      3  C   UNL     1       4.781  -8.899   0.121  1.00  0.00     0.026 C 
ENDROOT
BRANCH   1   4
ATOM      4  O   UNL     1       7.034  -9.817  -0.479  1.00  0.00    -0.371 OA
BRANCH   4   5
ATOM      5  C   UNL     1       8.250  -9.454  -1.152  1.00  0.00     0.158 C 
ATOM      6  C   UNL     1      11.657 -11.434   2.266  1.00  0.00    -0.003 C 
ATOM      7  C   UNL     1      10.703 -10.233   2.236  1.00  0.00     0.052 C 
ATOM      8  C   UNL     1      11.048 -12.586   1.454  1.00  0.00     0.019 C 
ATOM      9  C   UNL     1      10.313  -9.851   0.802  1.00  0.00     0.189 C 
ATOM     10  C   UNL     1      10.651 -12.131   0.050  1.00  0.00     0.087 C 
ATOM     11  N   UNL     1       9.727 -10.998   0.109  1.00  0.00    -0.276 NA
ATOM     12  O   UNL     1       9.394  -8.761   0.905  1.00  0.00    -0.360 OA
ATOM     13  C   UNL     1       9.268 -10.606  -1.228  1.00  0.00     0.121 C 
ATOM     14  C   UNL     1       8.908  -8.316  -0.365  1.00  0.00     0.195 C 
BRANCH   6  15
ATOM     15  C   UNL     1      11.947 -11.877   3.682  1.00  0.00    -0.008 C 
ATOM     16  C   UNL     1      13.328 -12.354   4.065  1.00  0.00     0.004 C 
ATOM     17  C   UNL     1      12.818 -11.043   4.590  1.00  0.00     0.004 C 
ENDBRANCH   6  15
ENDBRANCH   4   5
ENDBRANCH   1   4
BRANCH   3  18
ATOM     18  C   UNL     1       3.913  -7.678   0.062  1.00  0.00     0.053 C 
BRANCH  18  19
ATOM     19  C   UNL     1       3.450  -7.125   1.385  1.00  0.00     0.074 C 
BRANCH  19  20
ATOM     20  N   UNL     1       3.148  -7.819   2.431  1.00  0.00    -0.313 NA
ATOM     21  H   UNL     1       3.984  -8.058   2.983  1.00  0.00     0.186 HD
ENDBRANCH  19  20
ENDBRANCH  18  19
ENDBRANCH   3  18
TORSDOF 6
ENDMDL
MODEL 4
REMARK VINA RESULT:    -3.898      4.871      7.383
REMARK INTER + INTRA:          -5.372
REMARK INTER:                  -5.102
REMARK INTRA:                  -0.270
REMARK UNBOUND:                -0.221
REMARK SMILES [H]/N=C\C[C@H]1C[C@@H]1O[C@H]1CO[C@H]2C[C@@H](C3CC3)CCN2C1
REMARK SMILES IDX 7 1 6 2 5 3 8 4 9 5 14 6 13 7 18 8 12 9 19 10 20 11 11 12
REMARK SMILES IDX 21 13 10 14 15 15 16 16 17 17 4 18 3 19 2 20 1 21
REMARK H PARENT
ROOT
ATOM      1  C   UNL     1      10.739 -10.268   2.301  1.00  0.00     0.122 C 
ATOM      2  C   UNL     1      10.756  -9.931   3.765  1.00  0.00     0.039 C 
ATOM      3  C   UNL     1      10.475 -11.339   3.325  1.00  0.00     0.026 C 
ENDROOT
BRANCH   1   4
ATOM      4  O   UNL     1       9.594  -9.756   1.593  1.00  0.00    -0.371 OA
BRANCH   4   5
ATOM      5  C   UNL     1       9.806  -9.460   0.204  1.00  0.00     0.158 C 
ATOM      6  C   UNL     1       5.023 -10.547  -1.569  1.00  0.00    -0.003 C 
ATOM      7  C   UNL     1       6.215 -11.362  -1.054  1.00  0.00     0.052 C 
ATOM      8  C   UNL     1       4.984  -9.193  -0.845  1.00  0.00     0.019 C 
ATOM      9  C   UNL     1       7.527 -10.570  -1.137  1.00  0.00     0.189 C 
ATOM     10  C   UNL     1       6.328  -8.472  -0.936  1.00  0.00     0.087 C 
ATOM     11  N   UNL     1       7.407  -9.307  -0.409  1.00  0.00    -0.276 NA
ATOM     12  O   UNL     1       8.546 -11.409  -0.591  1.00  0.00    -0.360 OA
ATOM     13  C   UNL     1       8.690  -8.595  -0.409  1.00  0.00     0.121 C 
ATOM     14  C   UNL     1       9.833 -10.784  -0.567  1.00  0.00     0.195 C 
BRANCH   6  15
ATOM     15  C   UNL     1       3.719 -11.288  -1.379  1.00  0.00    -0.008 C 
ATOM     16  C   UNL     1       3.072 -12.006  -2.540  1.00  0.00     0.004 C 
ATOM     17  C   UNL     1       3.675 -12.797  -1.416  1.00  0.00     0.004 C 
ENDBRANCH   6  15
ENDBRANCH   4   5
ENDBRANCH   1   4
BRANCH   3  18
ATOM     18  C   UNL     1      11.500 -12.401   3.589  1.00  0.00     0.053 C 
BRANCH  18  19
ATOM     19  C   UNL     1      11.082 -13.818   3.295  1.00  0.00     0.074 C 
BRANCH  19  20
ATOM     20  N   UNL     1       9.881 -14.214   3.028  1.00  0.00    -0.313 NA
ATOM     21  H   UNL     1       9.239 -13.419   2.903  1.00  0.00     0.186 HD
ENDBRANCH  19  20
ENDBRANCH  18  19
ENDBRANCH   3  18
TORSDOF 6
ENDMDL
MODEL 5
REMARK VINA RESULT:    -3.820      5.622      7.089
REMARK INTER + INTRA:          -5.269
REMARK INTER:                  -4.780
REMARK INTRA:                  -0.489
REMARK UNBOUND:                -0.221
REMARK SMILES [H]/N=C\C[C@H]1C[C@@H]1O[C@H]1CO[C@H]2C[C@@H](C3CC3)CCN2C1
REMARK SMILES IDX 7 1 6 2 5 3 8 4 9 5 14 6 13 7 18 8 12 9 19 10 20 11 11 12
REMARK SMILES IDX 21 13 10 14 15 15 16 16 17 17 4 18 3 19 2 20 1 21
REMARK H PARENT
ROOT
ATOM      1  C   UNL     1      10.833 -15.238   0.685  1.00  0.00     0.122 C 
ATOM      2  C   UNL     1      10.378 -16.161   1.780  1.00  0.00     0.039 C 
ATOM      3  C   UNL     1       9.400 -15.694   0.741  1.00  0.00     0.026 C 
ENDROOT
BRANCH   1   4
ATOM      4  O   UNL     1      11.099 -13.892   1.124  1.00  0.00    -0.371 OA
BRANCH   4   5
ATOM      5  C   UNL     1      11.831 -13.072   0.199  1.00  0.00     0.158 C 
ATOM      6  C   UNL     1       8.172  -9.471  -0.721  1.00  0.00    -0.003 C 
ATOM      7  C   UNL     1       8.384 -10.942  -1.096  1.00  0.00     0.052 C 
ATOM      8  C   UNL     1       8.786  -9.207   0.662  1.00  0.00     0.019 C 
ATOM      9  C   UNL     1       9.857 -11.355  -0.976  1.00  0.00     0.189 C 
ATOM     10  C   UNL     1      10.241  -9.671   0.725  1.00  0.00     0.087 C 
ATOM     11  N   UNL     1      10.355 -11.086   0.373  1.00  0.00    -0.276 NA
ATOM     12  O   UNL     1       9.920 -12.745  -1.304  1.00  0.00    -0.360 OA
ATOM     13  C   UNL     1      11.733 -11.569   0.513  1.00  0.00     0.121 C 
ATOM     14  C   UNL     1      11.240 -13.286  -1.198  1.00  0.00     0.195 C 
BRANCH   6  15
ATOM     15  C   UNL     1       6.706  -9.101  -0.730  1.00  0.00    -0.008 C 
ATOM     16  C   UNL     1       6.045  -8.632  -2.005  1.00  0.00     0.004 C 
ATOM     17  C   UNL     1       5.693  -9.973  -1.430  1.00  0.00     0.004 C 
ENDBRANCH   6  15
ENDBRANCH   4   5
ENDBRANCH   1   4
BRANCH   3  18
ATOM     18  C   UNL     1       8.881 -16.678  -0.264  1.00  0.00     0.053 C 
BRANCH  18  19
ATOM     19  C   UNL     1       8.121 -16.102  -1.430  1.00  0.00     0.074 C 
BRANCH  19  20
ATOM     20  N   UNL     1       8.517 -15.136  -2.189  1.00  0.00    -0.313 NA
ATOM     21  H   UNL     1       7.770 -14.444  -2.345  1.00  0.00     0.186 HD
ENDBRANCH  19  20
ENDBRANCH  18  19
ENDBRANCH   3  18
TORSDOF 6
ENDMDL
MODEL 6
REMARK VINA RESULT:    -3.678      6.610      8.665
REMARK INTER + INTRA:          -5.082
REMARK INTER:                  -4.753
REMARK INTRA:                  -0.329
REMARK UNBOUND:                -0.221
REMARK SMILES [H]/N=C\C[C@H]1C[C@@H]1O[C@H]1CO[C@H]2C[C@@H](C3CC3)CCN2C1
REMARK SMILES IDX 7 1 6 2 5 3 8 4 9 5 14 6 13 7 18 8 12 9 19 10 20 11 11 12
REMARK SMILES IDX 21 13 10 14 15 15 16 16 17 17 4 18 3 19 2 20 1 21
REMARK H PARENT
ROOT
ATOM      1  C   UNL     1      11.342 -11.899   2.941  1.00  0.00     0.122 C 
ATOM      2  C   UNL     1      10.481 -11.888   4.173  1.00  0.00     0.039 C 
ATOM      3  C   UNL     1      11.808 -12.592   4.192  1.00  0.00     0.026 C 
ENDROOT
BRANCH   1   4
ATOM      4  O   UNL     1      10.845 -12.741   1.884  1.00  0.00    -0.371 OA
BRANCH   4   5
ATOM      5  C   UNL     1      11.377 -12.474   0.576  1.00  0.00     0.158 C 
ATOM      6  C   UNL     1       7.608  -9.324  -1.178  1.00  0.00    -0.003 C 
ATOM      7  C   UNL     1       7.740 -10.825  -0.891  1.00  0.00     0.052 C 
ATOM      8  C   UNL     1       8.485  -8.540  -0.192  1.00  0.00     0.019 C 
ATOM      9  C   UNL     1       9.208 -11.273  -0.866  1.00  0.00     0.189 C 
ATOM     10  C   UNL     1       9.924  -9.057  -0.190  1.00  0.00     0.087 C 
ATOM     11  N   UNL     1       9.965 -10.488   0.110  1.00  0.00    -0.276 NA
ATOM     12  O   UNL     1       9.204 -12.666  -0.546  1.00  0.00    -0.360 OA
ATOM     13  C   UNL     1      11.344 -10.982   0.200  1.00  0.00     0.121 C 
ATOM     14  C   UNL     1      10.519 -13.222  -0.449  1.00  0.00     0.195 C 
BRANCH   6  15
ATOM     15  C   UNL     1       6.170  -8.867  -1.088  1.00  0.00    -0.008 C 
ATOM     16  C   UNL     1       5.432  -8.420  -2.328  1.00  0.00     0.004 C 
ATOM     17  C   UNL     1       5.053  -9.709  -1.658  1.00  0.00     0.004 C 
ENDBRANCH   6  15
ENDBRANCH   4   5
ENDBRANCH   1   4
BRANCH   3  18
ATOM     18  C   UNL     1      12.926 -12.013   5.006  1.00  0.00     0.053 C 
BRANCH  18  19
ATOM     19  C   UNL     1      13.225 -12.702   6.312  1.00  0.00     0.074 C 
BRANCH  19  20
ATOM     20  N   UNL     1      13.186 -12.156   7.482  1.00  0.00    -0.313 NA
ATOM     21  H   UNL     1      13.273 -11.131   7.426  1.00  0.00     0.186 HD
ENDBRANCH  19  20
ENDBRANCH  18  19
ENDBRANCH   3  18
TORSDOF 6
ENDMDL
MODEL 7
REMARK VINA RESULT:    -3.542      1.937      2.288
REMARK INTER + INTRA:          -4.902
REMARK INTER:                  -5.105
REMARK INTRA:                   0.203
REMARK UNBOUND:                -0.221
REMARK SMILES [H]/N=C\C[C@H]1C[C@@H]1O[C@H]1CO[C@H]2C[C@@H](C3CC3)CCN2C1
REMARK SMILES IDX 7 1 6 2 5 3 8 4 9 5 14 6 13 7 18 8 12 9 19 10 20 11 11 12
REMARK SMILES IDX 21 13 10 14 15 15 16 16 17 17 4 18 3 19 2 20 1 21
REMARK H PARENT
ROOT
ATOM      1  C   UNL     1       3.858 -11.465  -1.333  1.00  0.00     0.122 C 
ATOM      2  C   UNL     1       2.787 -12.242  -2.046  1.00  0.00     0.039 C 
ATOM      3  C   UNL     1       4.137 -12.861  -1.820  1.00  0.00     0.026 C 
ENDROOT
BRANCH   1   4
ATOM      4  O   UNL     1       4.417 -10.388  -2.108  1.00  0.00    -0.371 OA
BRANCH   4   5
ATOM      5  C   UNL     1       5.544  -9.720  -1.519  1.00  0.00     0.158 C 
ATOM      6  C   UNL     1       3.271  -5.151  -0.439  1.00  0.00    -0.003 C 
ATOM      7  C   UNL     1       3.738  -5.873  -1.709  1.00  0.00     0.052 C 
ATOM      8  C   UNL     1       2.803  -6.189   0.591  1.00  0.00     0.019 C 
ATOM      9  C   UNL     1       4.777  -6.958  -1.399  1.00  0.00     0.189 C 
ATOM     10  C   UNL     1       3.868  -7.259   0.829  1.00  0.00     0.087 C 
ATOM     11  N   UNL     1       4.244  -7.911  -0.425  1.00  0.00    -0.276 NA
ATOM     12  O   UNL     1       5.097  -7.585  -2.643  1.00  0.00    -0.360 OA
ATOM     13  C   UNL     1       5.202  -9.000  -0.202  1.00  0.00     0.121 C 
ATOM     14  C   UNL     1       6.037  -8.656  -2.505  1.00  0.00     0.195 C 
BRANCH   6  15
ATOM     15  C   UNL     1       2.166  -4.163  -0.737  1.00  0.00    -0.008 C 
ATOM     16  C   UNL     1       2.436  -2.951  -1.597  1.00  0.00     0.004 C 
ATOM     17  C   UNL     1       1.571  -4.061  -2.120  1.00  0.00     0.004 C 
ENDBRANCH   6  15
ENDBRANCH   4   5
ENDBRANCH   1   4
BRANCH   3  18
ATOM     18  C   UNL     1       4.264 -13.991  -0.843  1.00  0.00     0.053 C 
BRANCH  18  19
ATOM     19  C   UNL     1       5.643 -14.572  -0.672  1.00  0.00     0.074 C 
BRANCH  19  20
ATOM     20  N   UNL     1       6.754 -13.917  -0.737  1.00  0.00    -0.313 NA
ATOM     21  H   UNL     1       6.917 -13.539  -1.681  1.00  0.00     0.186 HD
ENDBRANCH  19  20
ENDBRANCH  18  19
ENDBRANCH   3  18
TORSDOF 6
ENDMDL
MODEL 8
REMARK VINA RESULT:    -3.327      6.914      8.834
REMARK INTER + INTRA:          -4.617
REMARK INTER:                  -4.384
REMARK INTRA:                  -0.233
REMARK UNBOUND:                -0.221
REMARK SMILES [H]/N=C\C[C@H]1C[C@@H]1O[C@H]1CO[C@H]2C[C@@H](C3CC3)CCN2C1
REMARK SMILES IDX 7 1 6 2 5 3 8 4 9 5 14 6 13 7 18 8 12 9 19 10 20 11 11 12
REMARK SMILES IDX 21 13 10 14 15 15 16 16 17 17 4 18 3 19 2 20 1 21
REMARK H PARENT
ROOT
ATOM      1  C   UNL     1       6.307 -15.150  -0.605  1.00  0.00     0.122 C 
ATOM      2  C   UNL     1       5.245 -15.138   0.458  1.00  0.00     0.039 C 
ATOM      3  C   UNL     1       4.999 -14.451  -0.854  1.00  0.00     0.026 C 
ENDROOT
BRANCH   1   4
ATOM      4  O   UNL     1       7.441 -14.312  -0.312  1.00  0.00    -0.371 OA
BRANCH   4   5
ATOM      5  C   UNL     1       8.693 -14.749  -0.865  1.00  0.00     0.158 C 
ATOM      6  C   UNL     1      11.831 -13.248   3.022  1.00  0.00    -0.003 C 
ATOM      7  C   UNL     1      11.029 -12.541   1.922  1.00  0.00     0.052 C 
ATOM      8  C   UNL     1      11.088 -14.520   3.453  1.00  0.00     0.019 C 
ATOM      9  C   UNL     1      10.690 -13.490   0.765  1.00  0.00     0.189 C 
ATOM     10  C   UNL     1      10.750 -15.404   2.252  1.00  0.00     0.087 C 
ATOM     11  N   UNL     1       9.971 -14.663   1.260  1.00  0.00    -0.276 NA
ATOM     12  O   UNL     1       9.910 -12.736  -0.166  1.00  0.00    -0.360 OA
ATOM     13  C   UNL     1       9.564 -15.521   0.142  1.00  0.00     0.121 C 
ATOM     14  C   UNL     1       9.483 -13.508  -1.293  1.00  0.00     0.195 C 
BRANCH   6  15
ATOM     15  C   UNL     1      12.063 -12.341   4.209  1.00  0.00    -0.008 C 
ATOM     16  C   UNL     1      13.468 -12.006   4.651  1.00  0.00     0.004 C 
ATOM     17  C   UNL     1      12.610 -10.946   4.023  1.00  0.00     0.004 C 
ENDBRANCH   6  15
ENDBRANCH   4   5
ENDBRANCH   1   4
BRANCH   3  18
ATOM     18  C   UNL     1       3.997 -15.036  -1.804  1.00  0.00     0.053 C 
BRANCH  18  19
ATOM     19  C   UNL     1       3.417 -14.093  -2.826  1.00  0.00     0.074 C 
BRANCH  19  20
ATOM     20  N   UNL     1       3.742 -14.036  -4.074  1.00  0.00    -0.313 NA
ATOM     21  H   UNL     1       3.104 -13.426  -4.605  1.00  0.00     0.186 HD
ENDBRANCH  19  20
ENDBRANCH  18  19
ENDBRANCH   3  18
TORSDOF 6
ENDMDL
MODEL 9
REMARK VINA RESULT:    -3.220      7.091      8.458
REMARK INTER + INTRA:          -4.476
REMARK INTER:                  -4.543
REMARK INTRA:                   0.067
REMARK UNBOUND:                -0.221
REMARK SMILES [H]/N=C\C[C@H]1C[C@@H]1O[C@H]1CO[C@H]2C[C@@H](C3CC3)CCN2C1
REMARK SMILES IDX 7 1 6 2 5 3 8 4 9 5 14 6 13 7 18 8 12 9 19 10 20 11 11 12
REMARK SMILES IDX 21 13 10 14 15 15 16 16 17 17 4 18 3 19 2 20 1 21
REMARK H PARENT
ROOT
ATOM      1  C   UNL     1      11.015 -15.090   1.803  1.00  0.00     0.122 C 
ATOM      2  C   UNL     1      12.505 -15.263   1.726  1.00  0.00     0.039 C 
ATOM      3  C   UNL     1      11.832 -15.151   3.064  1.00  0.00     0.026 C 
ENDROOT
BRANCH   1   4
ATOM      4  O   UNL     1      10.554 -13.787   1.397  1.00  0.00    -0.371 OA
BRANCH   4   5
ATOM      5  C   UNL     1      11.300 -13.169   0.336  1.00  0.00     0.158 C 
ATOM      6  C   UNL     1       7.917  -9.399  -0.907  1.00  0.00    -0.003 C 
ATOM      7  C   UNL     1       7.979 -10.920  -1.085  1.00  0.00     0.052 C 
ATOM      8  C   UNL     1       8.629  -9.011   0.397  1.00  0.00     0.019 C 
ATOM      9  C   UNL     1       9.416 -11.449  -0.976  1.00  0.00     0.189 C 
ATOM     10  C   UNL     1      10.040  -9.595   0.458  1.00  0.00     0.087 C 
ATOM     11  N   UNL     1      10.011 -11.049   0.299  1.00  0.00    -0.276 NA
ATOM     12  O   UNL     1       9.341 -12.869  -1.111  1.00  0.00    -0.360 OA
ATOM     13  C   UNL     1      11.349 -11.635   0.443  1.00  0.00     0.121 C 
ATOM     14  C   UNL     1      10.614 -13.512  -0.991  1.00  0.00     0.195 C 
BRANCH   6  15
ATOM     15  C   UNL     1       6.490  -8.899  -0.902  1.00  0.00    -0.008 C 
ATOM     16  C   UNL     1       5.802  -8.540  -2.198  1.00  0.00     0.004 C 
ATOM     17  C   UNL     1       5.368  -9.757  -1.433  1.00  0.00     0.004 C 
ENDBRANCH   6  15
ENDBRANCH   4   5
ENDBRANCH   1   4
BRANCH   3  18
ATOM     18  C   UNL     1      11.768 -16.360   3.949  1.00  0.00     0.053 C 
BRANCH  18  19
ATOM     19  C   UNL     1      12.975 -16.620   4.812  1.00  0.00     0.074 C 
BRANCH  19  20
ATOM     20  N   UNL     1      14.182 -16.805   4.391  1.00  0.00    -0.313 NA
ATOM     21  H   UNL     1      14.446 -17.800   4.422  1.00  0.00     0.186 HD
ENDBRANCH  19  20
ENDBRANCH  18  19
ENDBRANCH   3  18
TORSDOF 6
ENDMDL
