MODEL 1
REMARK VINA RESULT:    -4.099      0.000      0.000
REMARK INTER + INTRA:          -5.585
REMARK INTER:                  -5.417
REMARK INTRA:                  -0.168
REMARK UNBOUND:                -0.168
REMARK SMILES [H]/N=C\C[C@H]1C[C@@H]1O[C@H]1CO[C@H]2C[C@@H](C3CC3)CCN2C1
REMARK SMILES IDX 7 1 6 2 5 3 8 4 9 5 14 6 13 7 18 8 12 9 19 10 20 11 11 12
REMARK SMILES IDX 21 13 10 14 15 15 16 16 17 17 4 18 3 19 2 20 1 21
REMARK H PARENT
ROOT
ATOM      1  C   UNL     1      -9.306  -2.980  -1.930  1.00  0.00     0.122 C 
ATOM      2  C   UNL     1      -8.759  -4.378  -2.000  1.00  0.00     0.039 C 
ATOM      3  C   UNL     1      -8.118  -3.281  -2.802  1.00  0.00     0.026 C 
ENDROOT
BRANCH   1   4
ATOM      4  O   UNL     1     -10.571  -2.811  -2.598  1.00  0.00    -0.371 OA
BRANCH   4   5
ATOM      5  C   UNL     1     -11.471  -1.869  -1.992  1.00  0.00     0.158 C 
ATOM      6  C   UNL     1     -14.722  -1.193  -6.014  1.00  0.00    -0.003 C 
ATOM      7  C   UNL     1     -13.283  -0.779  -5.683  1.00  0.00     0.052 C 
ATOM      8  C   UNL     1     -15.022  -2.550  -5.362  1.00  0.00     0.019 C 
ATOM      9  C   UNL     1     -13.010  -0.821  -4.174  1.00  0.00     0.189 C 
ATOM     10  C   UNL     1     -14.698  -2.536  -3.869  1.00  0.00     0.087 C 
ATOM     11  N   UNL     1     -13.305  -2.151  -3.639  1.00  0.00    -0.276 NA
ATOM     12  O   UNL     1     -11.638  -0.464  -3.996  1.00  0.00    -0.360 OA
ATOM     13  C   UNL     1     -12.954  -2.217  -2.216  1.00  0.00     0.121 C 
ATOM     14  C   UNL     1     -11.224  -0.497  -2.627  1.00  0.00     0.195 C 
BRANCH   6  15
ATOM     15  C   UNL     1     -14.951  -1.259  -7.507  1.00  0.00    -0.008 C 
ATOM     16  C   UNL     1     -16.313  -0.953  -8.085  1.00  0.00     0.004 C 
ATOM     17  C   UNL     1     -15.175  -0.002  -8.312  1.00  0.00     0.004 C 
ENDBRANCH   6  15
ENDBRANCH   4   5
ENDBRANCH   1   4
BRANCH   3  18
ATOM     18  C   UNL     1      -6.753  -2.798  -2.413  1.00  0.00     0.053 C 
BRANCH  18  19
ATOM     19  C   UNL     1      -5.802  -2.509  -3.545  1.00  0.00     0.074 C 
BRANCH  19  20
ATOM     20  N   UNL     1      -5.820  -3.064  -4.710  1.00  0.00    -0.313 NA
ATOM     21  H   UNL     1      -5.415  -2.449  -5.430  1.00  0.00     0.186 HD
ENDBRANCH  19  20
ENDBRANCH  18  19
ENDBRANCH   3  18
TORSDOF 6
ENDMDL
MODEL 2
REMARK VINA RESULT:    -4.079      5.486      8.441
REMARK INTER + INTRA:          -5.558
REMARK INTER:                  -5.422
REMARK INTRA:                  -0.136
REMARK UNBOUND:                -0.168
REMARK SMILES [H]/N=C\C[C@H]1C[C@@H]1O[C@H]1CO[C@H]2C[C@@H](C3CC3)CCN2C1
REMARK SMILES IDX 7 1 6 2 5 3 8 4 9 5 14 6 13 7 18 8 12 9 19 10 20 11 11 12
REMARK SMILES IDX 21 13 10 14 15 15 16 16 17 17 4 18 3 19 2 20 1 21
REMARK H PARENT
ROOT
ATOM      1  C   UNL     1      -8.965  -4.019  -1.538  1.00  0.00     0.122 C 
ATOM      2  C   UNL     1      -9.847  -2.804  -1.603  1.00  0.00     0.039 C 
ATOM      3  C   UNL     1      -9.177  -3.176  -0.311  1.00  0.00     0.026 C 
ENDROOT
BRANCH   1   4
ATOM      4  O   UNL     1      -9.680  -5.268  -1.594  1.00  0.00    -0.371 OA
BRANCH   4   5
ATOM      5  C   UNL     1      -9.010  -6.336  -2.283  1.00  0.00     0.158 C 
ATOM      6  C   UNL     1     -11.808 -10.333  -0.440  1.00  0.00    -0.003 C 
ATOM      7  C   UNL     1     -10.752  -9.377   0.128  1.00  0.00     0.052 C 
ATOM      8  C   UNL     1     -12.640  -9.598  -1.500  1.00  0.00     0.019 C 
ATOM      9  C   UNL     1      -9.916  -8.726  -0.982  1.00  0.00     0.189 C 
ATOM     10  C   UNL     1     -11.748  -8.945  -2.555  1.00  0.00     0.087 C 
ATOM     11  N   UNL     1     -10.784  -8.036  -1.936  1.00  0.00    -0.276 NA
ATOM     12  O   UNL     1      -9.007  -7.831  -0.338  1.00  0.00    -0.360 OA
ATOM     13  C   UNL     1      -9.978  -7.334  -2.942  1.00  0.00     0.121 C 
ATOM     14  C   UNL     1      -8.179  -7.115  -1.259  1.00  0.00     0.195 C 
BRANCH   6  15
ATOM     15  C   UNL     1     -12.701 -10.884   0.649  1.00  0.00    -0.008 C 
ATOM     16  C   UNL     1     -13.351 -12.238   0.492  1.00  0.00     0.004 C 
ATOM     17  C   UNL     1     -12.256 -12.047   1.501  1.00  0.00     0.004 C 
ENDBRANCH   6  15
ENDBRANCH   4   5
ENDBRANCH   1   4
BRANCH   3  18
ATOM     18  C   UNL     1      -8.070  -2.307   0.210  1.00  0.00     0.053 C 
BRANCH  18  19
ATOM     19  C   UNL     1      -7.996  -2.149   1.706  1.00  0.00     0.074 C 
BRANCH  19  20
ATOM     20  N   UNL     1      -9.003  -2.076   2.511  1.00  0.00    -0.313 NA
ATOM     21  H   UNL     1      -9.049  -2.892   3.137  1.00  0.00     0.186 HD
ENDBRANCH  19  20
ENDBRANCH  18  19
ENDBRANCH   3  18
TORSDOF 6
ENDMDL
MODEL 3
REMARK VINA RESULT:    -4.073      2.705      8.635
REMARK INTER + INTRA:          -5.551
REMARK INTER:                  -5.318
REMARK INTRA:                  -0.233
REMARK UNBOUND:                -0.168
REMARK SMILES [H]/N=C\C[C@H]1C[C@@H]1O[C@H]1CO[C@H]2C[C@@H](C3CC3)CCN2C1
REMARK SMILES IDX 7 1 6 2 5 3 8 4 9 5 14 6 13 7 18 8 12 9 19 10 20 11 11 12
REMARK SMILES IDX 21 13 10 14 15 15 16 16 17 17 4 18 3 19 2 20 1 21
REMARK H PARENT
ROOT
ATOM      1  C   UNL     1     -11.091  -1.965  -2.896  1.00  0.00     0.122 C 
ATOM      2  C   UNL     1     -12.534  -2.079  -2.495  1.00  0.00     0.039 C 
ATOM      3  C   UNL     1     -12.046  -0.842  -3.193  1.00  0.00     0.026 C 
ENDROOT
BRANCH   1   4
ATOM      4  O   UNL     1     -10.188  -1.768  -1.791  1.00  0.00    -0.371 OA
BRANCH   4   5
ATOM      5  C   UNL     1      -9.938  -2.928  -0.980  1.00  0.00     0.158 C 
ATOM      6  C   UNL     1      -4.809  -2.300  -0.274  1.00  0.00    -0.003 C 
ATOM      7  C   UNL     1      -5.715  -2.704  -1.443  1.00  0.00     0.052 C 
ATOM      8  C   UNL     1      -5.555  -1.304   0.625  1.00  0.00     0.019 C 
ATOM      9  C   UNL     1      -7.083  -3.203  -0.958  1.00  0.00     0.189 C 
ATOM     10  C   UNL     1      -6.921  -1.845   1.044  1.00  0.00     0.087 C 
ATOM     11  N   UNL     1      -7.730  -2.189  -0.125  1.00  0.00    -0.276 NA
ATOM     12  O   UNL     1      -7.847  -3.503  -2.128  1.00  0.00    -0.360 OA
ATOM     13  C   UNL     1      -9.076  -2.628   0.259  1.00  0.00     0.121 C 
ATOM     14  C   UNL     1      -9.174  -3.948  -1.831  1.00  0.00     0.195 C 
BRANCH   6  15
ATOM     15  C   UNL     1      -3.507  -1.704  -0.761  1.00  0.00    -0.008 C 
ATOM     16  C   UNL     1      -2.188  -2.215  -0.233  1.00  0.00     0.004 C 
ATOM     17  C   UNL     1      -2.581  -2.493  -1.655  1.00  0.00     0.004 C 
ENDBRANCH   6  15
ENDBRANCH   4   5
ENDBRANCH   1   4
BRANCH   3  18
ATOM     18  C   UNL     1     -12.490  -0.581  -4.602  1.00  0.00     0.053 C 
BRANCH  18  19
ATOM     19  C   UNL     1     -13.970  -0.685  -4.864  1.00  0.00     0.074 C 
BRANCH  19  20
ATOM     20  N   UNL     1     -14.813   0.293  -4.845  1.00  0.00    -0.313 NA
ATOM     21  H   UNL     1     -14.368   1.183  -5.110  1.00  0.00     0.186 HD
ENDBRANCH  19  20
ENDBRANCH  18  19
ENDBRANCH   3  18
TORSDOF 6
ENDMDL
MODEL 4
REMARK VINA RESULT:    -4.059      5.210      8.438
REMARK INTER + INTRA:          -5.531
REMARK INTER:                  -5.324
REMARK INTRA:                  -0.207
REMARK UNBOUND:                -0.168
REMARK SMILES [H]/N=C\C[C@H]1C[C@@H]1O[C@H]1CO[C@H]2C[C@@H](C3CC3)CCN2C1
REMARK SMILES IDX 7 1 6 2 5 3 8 4 9 5 14 6 13 7 18 8 12 9 19 10 20 11 11 12
REMARK SMILES IDX 21 13 10 14 15 15 16 16 17 17 4 18 3 19 2 20 1 21
REMARK H PARENT
ROOT
ATOM      1  C   UNL     1      -9.385  -6.267  -1.354  1.00  0.00     0.122 C 
ATOM      2  C   UNL     1      -9.859  -7.170  -2.458  1.00  0.00     0.039 C 
ATOM      3  C   UNL     1      -9.075  -7.739  -1.310  1.00  0.00     0.026 C 
ENDROOT
BRANCH   1   4
ATOM      4  O   UNL     1      -8.306  -5.392  -1.734  1.00  0.00    -0.371 OA
BRANCH   4   5
ATOM      5  C   UNL     1      -8.670  -4.293  -2.585  1.00  0.00     0.158 C 
ATOM      6  C   UNL     1      -5.800  -0.570  -0.325  1.00  0.00    -0.003 C 
ATOM      7  C   UNL     1      -7.069  -1.350   0.038  1.00  0.00     0.052 C 
ATOM      8  C   UNL     1      -4.874  -1.466  -1.159  1.00  0.00     0.019 C 
ATOM      9  C   UNL     1      -7.738  -1.959  -1.202  1.00  0.00     0.189 C 
ATOM     10  C   UNL     1      -5.609  -2.067  -2.357  1.00  0.00     0.087 C 
ATOM     11  N   UNL     1      -6.794  -2.809  -1.926  1.00  0.00    -0.276 NA
ATOM     12  O   UNL     1      -8.872  -2.693  -0.736  1.00  0.00    -0.360 OA
ATOM     13  C   UNL     1      -7.462  -3.465  -3.056  1.00  0.00     0.121 C 
ATOM     14  C   UNL     1      -9.582  -3.355  -1.787  1.00  0.00     0.195 C 
BRANCH   6  15
ATOM     15  C   UNL     1      -5.084  -0.070   0.909  1.00  0.00    -0.008 C 
ATOM     16  C   UNL     1      -4.549   1.342   0.963  1.00  0.00     0.004 C 
ATOM     17  C   UNL     1      -5.725   0.956   1.813  1.00  0.00     0.004 C 
ENDBRANCH   6  15
ENDBRANCH   4   5
ENDBRANCH   1   4
BRANCH   3  18
ATOM     18  C   UNL     1      -9.772  -8.629  -0.325  1.00  0.00     0.053 C 
BRANCH  18  19
ATOM     19  C   UNL     1     -10.534  -9.793  -0.902  1.00  0.00     0.074 C 
BRANCH  19  20
ATOM     20  N   UNL     1     -10.084 -10.995  -1.048  1.00  0.00    -0.313 NA
ATOM     21  H   UNL     1     -10.085 -11.283  -2.037  1.00  0.00     0.186 HD
ENDBRANCH  19  20
ENDBRANCH  18  19
ENDBRANCH   3  18
TORSDOF 6
ENDMDL
MODEL 5
REMARK VINA RESULT:    -3.922      5.063      8.271
REMARK INTER + INTRA:          -5.351
REMARK INTER:                  -5.576
REMARK INTRA:                   0.225
REMARK UNBOUND:                -0.168
REMARK SMILES [H]/N=C\C[C@H]1C[C@@H]1O[C@H]1CO[C@H]2C[C@@H](C3CC3)CCN2C1
REMARK SMILES IDX 7 1 6 2 5 3 8 4 9 5 14 6 13 7 18 8 12 9 19 10 20 11 11 12
REMARK SMILES IDX 21 13 10 14 15 15 16 16 17 17 4 18 3 19 2 20 1 21
REMARK H PARENT
ROOT
ATOM      1  C   UNL     1      -8.699  -6.705  -2.178  1.00  0.00     0.122 C 
ATOM      2  C   UNL     1      -9.205  -7.700  -1.172  1.00  0.00     0.039 C 
ATOM      3  C   UNL     1     -10.132  -7.163  -2.225  1.00  0.00     0.026 C 
ENDROOT
BRANCH   1   4
ATOM      4  O   UNL     1      -8.460  -5.393  -1.636  1.00  0.00    -0.371 OA
BRANCH   4   5
ATOM      5  C   UNL     1      -8.808  -4.295  -2.495  1.00  0.00     0.158 C 
ATOM      6  C   UNL     1      -5.807  -0.621  -0.327  1.00  0.00    -0.003 C 
ATOM      7  C   UNL     1      -7.091  -1.364   0.066  1.00  0.00     0.052 C 
ATOM      8  C   UNL     1      -4.918  -1.552  -1.163  1.00  0.00     0.019 C 
ATOM      9  C   UNL     1      -7.794  -1.969  -1.156  1.00  0.00     0.189 C 
ATOM     10  C   UNL     1      -5.687  -2.147  -2.342  1.00  0.00     0.087 C 
ATOM     11  N   UNL     1      -6.884  -2.853  -1.884  1.00  0.00    -0.276 NA
ATOM     12  O   UNL     1      -8.940  -2.668  -0.664  1.00  0.00    -0.360 OA
ATOM     13  C   UNL     1      -7.586  -3.504  -2.996  1.00  0.00     0.121 C 
ATOM     14  C   UNL     1      -9.683  -3.323  -1.696  1.00  0.00     0.195 C 
BRANCH   6  15
ATOM     15  C   UNL     1      -5.059  -0.125   0.890  1.00  0.00    -0.008 C 
ATOM     16  C   UNL     1      -4.558   1.298   0.951  1.00  0.00     0.004 C 
ATOM     17  C   UNL     1      -5.692   0.868   1.835  1.00  0.00     0.004 C 
ENDBRANCH   6  15
ENDBRANCH   4   5
ENDBRANCH   1   4
BRANCH   3  18
ATOM     18  C   UNL     1     -10.597  -8.078  -3.318  1.00  0.00     0.053 C 
BRANCH  18  19
ATOM     19  C   UNL     1     -12.038  -7.937  -3.736  1.00  0.00     0.074 C 
BRANCH  19  20
ATOM     20  N   UNL     1     -12.500  -7.081  -4.585  1.00  0.00    -0.313 NA
ATOM     21  H   UNL     1     -13.329  -7.443  -5.076  1.00  0.00     0.186 HD
ENDBRANCH  19  20
ENDBRANCH  18  19
ENDBRANCH   3  18
TORSDOF 6
ENDMDL
MODEL 6
REMARK VINA RESULT:    -3.848      3.254      7.636
REMARK INTER + INTRA:          -5.253
REMARK INTER:                  -5.144
REMARK INTRA:                  -0.110
REMARK UNBOUND:                -0.168
REMARK SMILES [H]/N=C\C[C@H]1C[C@@H]1O[C@H]1CO[C@H]2C[C@@H](C3CC3)CCN2C1
REMARK SMILES IDX 7 1 6 2 5 3 8 4 9 5 14 6 13 7 18 8 12 9 19 10 20 11 11 12
REMARK SMILES IDX 21 13 10 14 15 15 16 16 17 17 4 18 3 19 2 20 1 21
REMARK H PARENT
ROOT
ATOM      1  C   UNL     1     -16.397  -4.322  -6.410  1.00  0.00     0.122 C 
ATOM      2  C   UNL     1     -16.617  -3.655  -7.738  1.00  0.00     0.039 C 
ATOM      3  C   UNL     1     -15.960  -5.004  -7.678  1.00  0.00     0.026 C 
ENDROOT
BRANCH   1   4
ATOM      4  O   UNL     1     -15.360  -3.717  -5.614  1.00  0.00    -0.371 OA
BRANCH   4   5
ATOM      5  C   UNL     1     -15.814  -2.877  -4.540  1.00  0.00     0.158 C 
ATOM      6  C   UNL     1     -11.208  -1.933  -2.282  1.00  0.00    -0.003 C 
ATOM      7  C   UNL     1     -12.150  -3.139  -2.394  1.00  0.00     0.052 C 
ATOM      8  C   UNL     1     -11.312  -1.087  -3.559  1.00  0.00     0.019 C 
ATOM      9  C   UNL     1     -13.581  -2.712  -2.747  1.00  0.00     0.189 C 
ATOM     10  C   UNL     1     -12.764  -0.726  -3.872  1.00  0.00     0.087 C 
ATOM     11  N   UNL     1     -13.591  -1.928  -3.981  1.00  0.00    -0.276 NA
ATOM     12  O   UNL     1     -14.347  -3.913  -2.868  1.00  0.00    -0.360 OA
ATOM     13  C   UNL     1     -14.969  -1.603  -4.367  1.00  0.00     0.121 C 
ATOM     14  C   UNL     1     -15.709  -3.673  -3.235  1.00  0.00     0.195 C 
BRANCH   6  15
ATOM     15  C   UNL     1      -9.778  -2.366  -2.048  1.00  0.00    -0.008 C 
ATOM     16  C   UNL     1      -9.319  -2.770  -0.666  1.00  0.00     0.004 C 
ATOM     17  C   UNL     1      -9.446  -3.807  -1.744  1.00  0.00     0.004 C 
ENDBRANCH   6  15
ENDBRANCH   4   5
ENDBRANCH   1   4
BRANCH   3  18
ATOM     18  C   UNL     1     -16.708  -6.199  -8.188  1.00  0.00     0.053 C 
BRANCH  18  19
ATOM     19  C   UNL     1     -16.646  -6.439  -9.674  1.00  0.00     0.074 C 
BRANCH  19  20
ATOM     20  N   UNL     1     -15.682  -7.019 -10.309  1.00  0.00    -0.313 NA
ATOM     21  H   UNL     1     -15.663  -8.032 -10.125  1.00  0.00     0.186 HD
ENDBRANCH  19  20
ENDBRANCH  18  19
ENDBRANCH   3  18
TORSDOF 6
ENDMDL
MODEL 7
REMARK VINA RESULT:    -3.754      5.030      8.700
REMARK INTER + INTRA:          -5.129
REMARK INTER:                  -4.712
REMARK INTRA:                  -0.417
REMARK UNBOUND:                -0.168
REMARK SMILES [H]/N=C\C[C@H]1C[C@@H]1O[C@H]1CO[C@H]2C[C@@H](C3CC3)CCN2C1
REMARK SMILES IDX 7 1 6 2 5 3 8 4 9 5 14 6 13 7 18 8 12 9 19 10 20 11 11 12
REMARK SMILES IDX 21 13 10 14 15 15 16 16 17 17 4 18 3 19 2 20 1 21
REMARK H PARENT
ROOT
ATOM      1  C   UNL     1     -15.059  -9.175  -2.986  1.00  0.00     0.122 C 
ATOM      2  C   UNL     1     -16.269  -8.993  -2.114  1.00  0.00     0.039 C 
ATOM      3  C   UNL     1     -15.644  -7.804  -2.786  1.00  0.00     0.026 C 
ENDROOT
BRANCH   1   4
ATOM      4  O   UNL     1     -13.852  -9.474  -2.261  1.00  0.00    -0.371 OA
BRANCH   4   5
ATOM      5  C   UNL     1     -12.767  -9.992  -3.049  1.00  0.00     0.158 C 
ATOM      6  C   UNL     1      -9.172  -6.394  -1.893  1.00  0.00    -0.003 C 
ATOM      7  C   UNL     1     -10.453  -6.436  -2.735  1.00  0.00     0.052 C 
ATOM      8  C   UNL     1      -9.320  -7.343  -0.696  1.00  0.00     0.019 C 
ATOM      9  C   UNL     1     -10.837  -7.871  -3.119  1.00  0.00     0.189 C 
ATOM     10  C   UNL     1      -9.736  -8.745  -1.142  1.00  0.00     0.087 C 
ATOM     11  N   UNL     1     -10.974  -8.700  -1.921  1.00  0.00    -0.276 NA
ATOM     12  O   UNL     1     -12.059  -7.785  -3.854  1.00  0.00    -0.360 OA
ATOM     13  C   UNL     1     -11.433 -10.046  -2.283  1.00  0.00     0.121 C 
ATOM     14  C   UNL     1     -12.566  -9.063  -4.250  1.00  0.00     0.195 C 
BRANCH   6  15
ATOM     15  C   UNL     1      -8.862  -4.991  -1.423  1.00  0.00    -0.008 C 
ATOM     16  C   UNL     1      -8.158  -4.017  -2.338  1.00  0.00     0.004 C 
ATOM     17  C   UNL     1      -9.603  -3.804  -1.990  1.00  0.00     0.004 C 
ENDBRANCH   6  15
ENDBRANCH   4   5
ENDBRANCH   1   4
BRANCH   3  18
ATOM     18  C   UNL     1     -16.384  -7.127  -3.901  1.00  0.00     0.053 C 
BRANCH  18  19
ATOM     19  C   UNL     1     -15.612  -6.097  -4.684  1.00  0.00     0.074 C 
BRANCH  19  20
ATOM     20  N   UNL     1     -14.349  -6.139  -4.950  1.00  0.00    -0.313 NA
ATOM     21  H   UNL     1     -14.024  -7.104  -5.099  1.00  0.00     0.186 HD
ENDBRANCH  19  20
ENDBRANCH  18  19
ENDBRANCH   3  18
TORSDOF 6
ENDMDL
MODEL 8
REMARK VINA RESULT:    -3.753      3.150      7.039
REMARK INTER + INTRA:          -5.127
REMARK INTER:                  -4.745
REMARK INTRA:                  -0.383
REMARK UNBOUND:                -0.168
REMARK SMILES [H]/N=C\C[C@H]1C[C@@H]1O[C@H]1CO[C@H]2C[C@@H](C3CC3)CCN2C1
REMARK SMILES IDX 7 1 6 2 5 3 8 4 9 5 14 6 13 7 18 8 12 9 19 10 20 11 11 12
REMARK SMILES IDX 21 13 10 14 15 15 16 16 17 17 4 18 3 19 2 20 1 21
REMARK H PARENT
ROOT
ATOM      1  C   UNL     1     -16.490  -4.997  -5.305  1.00  0.00     0.122 C 
ATOM      2  C   UNL     1     -16.401  -5.799  -6.573  1.00  0.00     0.039 C 
ATOM      3  C   UNL     1     -15.614  -6.218  -5.364  1.00  0.00     0.026 C 
ENDROOT
BRANCH   1   4
ATOM      4  O   UNL     1     -15.823  -3.722  -5.370  1.00  0.00    -0.371 OA
BRANCH   4   5
ATOM      5  C   UNL     1     -16.179  -2.784  -4.341  1.00  0.00     0.158 C 
ATOM      6  C   UNL     1     -11.411  -1.866  -2.435  1.00  0.00    -0.003 C 
ATOM      7  C   UNL     1     -12.403  -3.035  -2.397  1.00  0.00     0.052 C 
ATOM      8  C   UNL     1     -11.562  -1.116  -3.766  1.00  0.00     0.019 C 
ATOM      9  C   UNL     1     -13.836  -2.577  -2.699  1.00  0.00     0.189 C 
ATOM     10  C   UNL     1     -13.015  -0.719  -4.022  1.00  0.00     0.087 C 
ATOM     11  N   UNL     1     -13.892  -1.889  -3.989  1.00  0.00    -0.276 NA
ATOM     12  O   UNL     1     -14.652  -3.750  -2.681  1.00  0.00    -0.360 OA
ATOM     13  C   UNL     1     -15.277  -1.537  -4.319  1.00  0.00     0.121 C 
ATOM     14  C   UNL     1     -16.025  -3.482  -2.986  1.00  0.00     0.195 C 
BRANCH   6  15
ATOM     15  C   UNL     1      -9.987  -2.340  -2.251  1.00  0.00    -0.008 C 
ATOM     16  C   UNL     1      -9.466  -2.675  -0.873  1.00  0.00     0.004 C 
ATOM     17  C   UNL     1      -9.691  -3.771  -1.874  1.00  0.00     0.004 C 
ENDBRANCH   6  15
ENDBRANCH   4   5
ENDBRANCH   1   4
BRANCH   3  18
ATOM     18  C   UNL     1     -16.010  -7.468  -4.637  1.00  0.00     0.053 C 
BRANCH  18  19
ATOM     19  C   UNL     1     -15.449  -7.637  -3.249  1.00  0.00     0.074 C 
BRANCH  19  20
ATOM     20  N   UNL     1     -14.848  -6.725  -2.559  1.00  0.00    -0.313 NA
ATOM     21  H   UNL     1     -14.560  -7.077  -1.635  1.00  0.00     0.186 HD
ENDBRANCH  19  20
ENDBRANCH  18  19
ENDBRANCH   3  18
TORSDOF 6
ENDMDL
MODEL 9
REMARK VINA RESULT:    -3.489      6.173      9.287
REMARK INTER + INTRA:          -4.779
REMARK INTER:                  -4.602
REMARK INTRA:                  -0.177
REMARK UNBOUND:                -0.168
REMARK SMILES [H]/N=C\C[C@H]1C[C@@H]1O[C@H]1CO[C@H]2C[C@@H](C3CC3)CCN2C1
REMARK SMILES IDX 7 1 6 2 5 3 8 4 9 5 14 6 13 7 18 8 12 9 19 10 20 11 11 12
REMARK SMILES IDX 21 13 10 14 15 15 16 16 17 17 4 18 3 19 2 20 1 21
REMARK H PARENT
ROOT
ATOM      1  C   UNL     1     -13.834 -10.083  -1.030  1.00  0.00     0.122 C 
ATOM      2  C   UNL     1     -14.319  -9.662   0.328  1.00  0.00     0.039 C 
ATOM      3  C   UNL     1     -15.277 -10.275  -0.652  1.00  0.00     0.026 C 
ENDROOT
BRANCH   1   4
ATOM      4  O   UNL     1     -13.539  -8.985  -1.915  1.00  0.00    -0.371 OA
BRANCH   4   5
ATOM      5  C   UNL     1     -12.624  -9.279  -2.983  1.00  0.00     0.158 C 
ATOM      6  C   UNL     1      -8.994  -5.689  -1.914  1.00  0.00    -0.003 C 
ATOM      7  C   UNL     1     -10.420  -5.675  -2.479  1.00  0.00     0.052 C 
ATOM      8  C   UNL     1      -8.858  -6.841  -0.908  1.00  0.00     0.019 C 
ATOM      9  C   UNL     1     -10.825  -7.046  -3.039  1.00  0.00     0.189 C 
ATOM     10  C   UNL     1      -9.309  -8.169  -1.516  1.00  0.00     0.087 C 
ATOM     11  N   UNL     1     -10.682  -8.078  -2.012  1.00  0.00    -0.276 NA
ATOM     12  O   UNL     1     -12.175  -6.920  -3.489  1.00  0.00    -0.360 OA
ATOM     13  C   UNL     1     -11.160  -9.370  -2.520  1.00  0.00     0.121 C 
ATOM     14  C   UNL     1     -12.708  -8.142  -4.008  1.00  0.00     0.195 C 
BRANCH   6  15
ATOM     15  C   UNL     1      -8.642  -4.371  -1.262  1.00  0.00    -0.008 C 
ATOM     16  C   UNL     1      -7.907  -3.306  -2.042  1.00  0.00     0.004 C 
ATOM     17  C   UNL     1      -9.345  -3.097  -1.665  1.00  0.00     0.004 C 
ENDBRANCH   6  15
ENDBRANCH   4   5
ENDBRANCH   1   4
BRANCH   3  18
ATOM     18  C   UNL     1     -15.812 -11.650  -0.384  1.00  0.00     0.053 C 
BRANCH  18  19
ATOM     19  C   UNL     1     -16.791 -12.192  -1.391  1.00  0.00     0.074 C 
BRANCH  19  20
ATOM     20  N   UNL     1     -16.799 -11.932  -2.656  1.00  0.00    -0.313 NA
ATOM     21  H   UNL     1     -17.571 -11.299  -2.909  1.00  0.00     0.186 HD
ENDBRANCH  19  20
ENDBRANCH  18  19
ENDBRANCH   3  18
TORSDOF 6
ENDMDL
