MODEL 1
REMARK VINA RESULT:    -5.968      0.000      0.000
REMARK INTER + INTRA:          -7.380
REMARK INTER:                  -7.014
REMARK INTRA:                  -0.365
REMARK UNBOUND:                -0.365
REMARK SMILES Cc1ccc(CNC(=O)NC(=O)c2ccc(C)cc2)cc1
REMARK SMILES IDX 11 1 12 2 10 3 8 4 9 5 7 6 13 9 19 10 18 11 14 12 16 13
REMARK SMILES IDX 15 14 17 15 6 16 5 17 4 18 20 19 3 20 21 21 2 22 1 23
REMARK H PARENT 10 7 7 8
ROOT
ATOM      1  C   UNL     1      -7.911  -2.596  -1.399  1.00  0.00     0.259 C 
ATOM      2  O   UNL     1      -8.521  -1.537  -1.345  1.00  0.00    -0.269 OA
ATOM      3  N   UNL     1      -8.417  -3.890  -1.562  1.00  0.00    -0.274 N 
ATOM      4  C   UNL     1      -9.598  -4.476  -1.938  1.00  0.00     0.321 C 
ATOM      5  O   UNL     1      -9.606  -5.702  -2.093  1.00  0.00    -0.248 OA
ATOM      6  N   UNL     1     -10.730  -3.786  -2.174  1.00  0.00    -0.334 N 
ATOM      7  H   UNL     1      -7.714  -4.617  -1.554  1.00  0.00     0.175 HD
ATOM      8  H   UNL     1     -11.487  -4.354  -2.525  1.00  0.00     0.165 HD
ENDROOT
BRANCH   1   9
ATOM      9  C   UNL     1      -6.442  -2.520  -1.282  1.00  0.00     0.040 A 
ATOM     10  C   UNL     1      -5.792  -2.806  -0.080  1.00  0.00     0.014 A 
ATOM     11  C   UNL     1      -4.398  -2.771  -0.032  1.00  0.00     0.004 A 
ATOM     12  C   UNL     1      -5.712  -2.143  -2.413  1.00  0.00     0.014 A 
ATOM     13  C   UNL     1      -3.654  -2.445  -1.176  1.00  0.00    -0.051 A 
ATOM     14  C   UNL     1      -4.320  -2.116  -2.363  1.00  0.00     0.004 A 
ATOM     15  C   UNL     1      -2.155  -2.495  -1.130  1.00  0.00     0.044 C 
ENDBRANCH   1   9
BRANCH   6  16
ATOM     16  C   UNL     1     -10.907  -2.362  -2.153  1.00  0.00     0.153 C 
BRANCH  16  17
ATOM     17  C   UNL     1     -12.135  -1.809  -2.823  1.00  0.00    -0.029 A 
ATOM     18  C   UNL     1     -12.089  -0.794  -3.784  1.00  0.00     0.006 A 
ATOM     19  C   UNL     1     -13.343  -2.496  -2.618  1.00  0.00     0.006 A 
ATOM     20  C   UNL     1     -13.227  -0.494  -4.540  1.00  0.00     0.004 A 
ATOM     21  C   UNL     1     -14.473  -2.199  -3.374  1.00  0.00     0.004 A 
ATOM     22  C   UNL     1     -14.422  -1.202  -4.349  1.00  0.00    -0.051 A 
ATOM     23  C   UNL     1     -15.600  -0.984  -5.251  1.00  0.00     0.044 C 
ENDBRANCH  16  17
ENDBRANCH   6  16
TORSDOF 3
ENDMDL
MODEL 2
REMARK VINA RESULT:    -5.957      3.279      5.551
REMARK INTER + INTRA:          -7.368
REMARK INTER:                  -7.002
REMARK INTRA:                  -0.365
REMARK UNBOUND:                -0.365
REMARK SMILES Cc1ccc(CNC(=O)NC(=O)c2ccc(C)cc2)cc1
REMARK SMILES IDX 11 1 12 2 10 3 8 4 9 5 7 6 13 9 19 10 18 11 14 12 16 13
REMARK SMILES IDX 15 14 17 15 6 16 5 17 4 18 20 19 3 20 21 21 2 22 1 23
REMARK H PARENT 10 7 7 8
ROOT
ATOM      1  C   UNL     1      -7.766  -3.008  -1.127  1.00  0.00     0.259 C 
ATOM      2  O   UNL     1      -7.180  -4.078  -1.199  1.00  0.00    -0.269 OA
ATOM      3  N   UNL     1      -9.039  -2.673  -1.599  1.00  0.00    -0.274 N 
ATOM      4  C   UNL     1     -10.154  -3.327  -2.056  1.00  0.00     0.321 C 
ATOM      5  O   UNL     1     -11.170  -2.654  -2.263  1.00  0.00    -0.248 OA
ATOM      6  N   UNL     1     -10.206  -4.657  -2.260  1.00  0.00    -0.334 N 
ATOM      7  H   UNL     1      -9.303  -1.710  -1.440  1.00  0.00     0.175 HD
ATOM      8  H   UNL     1     -11.124  -4.993  -2.515  1.00  0.00     0.165 HD
ENDROOT
BRANCH   1   9
ATOM      9  C   UNL     1      -7.053  -1.909  -0.448  1.00  0.00     0.040 A 
ATOM     10  C   UNL     1      -6.367  -0.931  -1.170  1.00  0.00     0.014 A 
ATOM     11  C   UNL     1      -5.752   0.119  -0.486  1.00  0.00     0.004 A 
ATOM     12  C   UNL     1      -7.077  -1.875   0.950  1.00  0.00     0.014 A 
ATOM     13  C   UNL     1      -5.814   0.190   0.914  1.00  0.00    -0.051 A 
ATOM     14  C   UNL     1      -6.467  -0.822   1.629  1.00  0.00     0.004 A 
ATOM     15  C   UNL     1      -5.221   1.369   1.629  1.00  0.00     0.044 C 
ENDBRANCH   1   9
BRANCH   6  16
ATOM     16  C   UNL     1      -9.183  -5.625  -1.987  1.00  0.00     0.153 C 
BRANCH  16  17
ATOM     17  C   UNL     1      -9.599  -7.069  -1.921  1.00  0.00    -0.029 A 
ATOM     18  C   UNL     1      -9.300  -7.901  -0.837  1.00  0.00     0.006 A 
ATOM     19  C   UNL     1     -10.502  -7.523  -2.896  1.00  0.00     0.006 A 
ATOM     20  C   UNL     1      -9.915  -9.152  -0.724  1.00  0.00     0.004 A 
ATOM     21  C   UNL     1     -11.116  -8.766  -2.780  1.00  0.00     0.004 A 
ATOM     22  C   UNL     1     -10.836  -9.587  -1.687  1.00  0.00    -0.051 A 
ATOM     23  C   UNL     1     -11.605 -10.861  -1.500  1.00  0.00     0.044 C 
ENDBRANCH  16  17
ENDBRANCH   6  16
TORSDOF 3
ENDMDL
MODEL 3
REMARK VINA RESULT:    -5.875      0.530      8.063
REMARK INTER + INTRA:          -7.270
REMARK INTER:                  -6.784
REMARK INTRA:                  -0.486
REMARK UNBOUND:                -0.365
REMARK SMILES Cc1ccc(CNC(=O)NC(=O)c2ccc(C)cc2)cc1
REMARK SMILES IDX 11 1 12 2 10 3 8 4 9 5 7 6 13 9 19 10 18 11 14 12 16 13
REMARK SMILES IDX 15 14 17 15 6 16 5 17 4 18 20 19 3 20 21 21 2 22 1 23
REMARK H PARENT 10 7 7 8
ROOT
ATOM      1  C   UNL     1     -10.593  -2.276  -2.383  1.00  0.00     0.259 C 
ATOM      2  O   UNL     1      -9.858  -1.378  -1.999  1.00  0.00    -0.269 OA
ATOM      3  N   UNL     1     -10.383  -3.658  -2.340  1.00  0.00    -0.274 N 
ATOM      4  C   UNL     1      -9.527  -4.534  -1.722  1.00  0.00     0.321 C 
ATOM      5  O   UNL     1      -9.760  -5.742  -1.841  1.00  0.00    -0.248 OA
ATOM      6  N   UNL     1      -8.476  -4.147  -0.976  1.00  0.00    -0.334 N 
ATOM      7  H   UNL     1     -11.132  -4.207  -2.741  1.00  0.00     0.175 HD
ATOM      8  H   UNL     1      -7.998  -4.911  -0.521  1.00  0.00     0.165 HD
ENDROOT
BRANCH   1   9
ATOM      9  C   UNL     1     -11.884  -1.868  -2.970  1.00  0.00     0.040 A 
ATOM     10  C   UNL     1     -11.965  -0.826  -3.895  1.00  0.00     0.014 A 
ATOM     11  C   UNL     1     -13.200  -0.510  -4.463  1.00  0.00     0.004 A 
ATOM     12  C   UNL     1     -13.034  -2.553  -2.568  1.00  0.00     0.014 A 
ATOM     13  C   UNL     1     -14.353  -1.226  -4.104  1.00  0.00    -0.051 A 
ATOM     14  C   UNL     1     -14.265  -2.239  -3.142  1.00  0.00     0.004 A 
ATOM     15  C   UNL     1     -15.657  -0.932  -4.786  1.00  0.00     0.044 C 
ENDBRANCH   1   9
BRANCH   6  16
ATOM     16  C   UNL     1      -8.095  -2.807  -0.629  1.00  0.00     0.153 C 
BRANCH  16  17
ATOM     17  C   UNL     1      -6.633  -2.464  -0.707  1.00  0.00    -0.029 A 
ATOM     18  C   UNL     1      -5.762  -2.582   0.381  1.00  0.00     0.006 A 
ATOM     19  C   UNL     1      -6.097  -2.220  -1.982  1.00  0.00     0.006 A 
ATOM     20  C   UNL     1      -4.380  -2.481   0.186  1.00  0.00     0.004 A 
ATOM     21  C   UNL     1      -4.722  -2.125  -2.176  1.00  0.00     0.004 A 
ATOM     22  C   UNL     1      -3.851  -2.265  -1.094  1.00  0.00    -0.051 A 
ATOM     23  C   UNL     1      -2.371  -2.299  -1.333  1.00  0.00     0.044 C 
ENDBRANCH  16  17
ENDBRANCH   6  16
TORSDOF 3
ENDMDL
MODEL 4
REMARK VINA RESULT:    -5.866      3.171      7.343
REMARK INTER + INTRA:          -7.260
REMARK INTER:                  -6.774
REMARK INTRA:                  -0.486
REMARK UNBOUND:                -0.365
REMARK SMILES Cc1ccc(CNC(=O)NC(=O)c2ccc(C)cc2)cc1
REMARK SMILES IDX 11 1 12 2 10 3 8 4 9 5 7 6 13 9 19 10 18 11 14 12 16 13
REMARK SMILES IDX 15 14 17 15 6 16 5 17 4 18 20 19 3 20 21 21 2 22 1 23
REMARK H PARENT 10 7 7 8
ROOT
ATOM      1  C   UNL     1      -9.115  -5.527  -1.612  1.00  0.00     0.259 C 
ATOM      2  O   UNL     1      -7.943  -5.391  -1.291  1.00  0.00    -0.269 OA
ATOM      3  N   UNL     1     -10.055  -4.542  -1.931  1.00  0.00    -0.274 N 
ATOM      4  C   UNL     1     -10.058  -3.206  -2.239  1.00  0.00     0.321 C 
ATOM      5  O   UNL     1     -11.127  -2.704  -2.605  1.00  0.00    -0.248 OA
ATOM      6  N   UNL     1      -8.960  -2.429  -2.194  1.00  0.00    -0.334 N 
ATOM      7  H   UNL     1     -10.977  -4.899  -2.146  1.00  0.00     0.175 HD
ATOM      8  H   UNL     1      -9.111  -1.490  -2.533  1.00  0.00     0.165 HD
ENDROOT
BRANCH   1   9
ATOM      9  C   UNL     1      -9.624  -6.910  -1.684  1.00  0.00     0.040 A 
ATOM     10  C   UNL     1      -9.332  -7.846  -0.690  1.00  0.00     0.014 A 
ATOM     11  C   UNL     1      -9.880  -9.126  -0.775  1.00  0.00     0.004 A 
ATOM     12  C   UNL     1     -10.408  -7.265  -2.787  1.00  0.00     0.014 A 
ATOM     13  C   UNL     1     -10.709  -9.477  -1.851  1.00  0.00    -0.051 A 
ATOM     14  C   UNL     1     -10.958  -8.543  -2.864  1.00  0.00     0.004 A 
ATOM     15  C   UNL     1     -11.358 -10.829  -1.883  1.00  0.00     0.044 C 
ENDBRANCH   1   9
BRANCH   6  16
ATOM     16  C   UNL     1      -7.614  -2.832  -1.899  1.00  0.00     0.153 C 
BRANCH  16  17
ATOM     17  C   UNL     1      -6.810  -1.942  -0.993  1.00  0.00    -0.029 A 
ATOM     18  C   UNL     1      -6.010  -0.895  -1.463  1.00  0.00     0.006 A 
ATOM     19  C   UNL     1      -7.049  -2.045   0.387  1.00  0.00     0.006 A 
ATOM     20  C   UNL     1      -5.483   0.041  -0.567  1.00  0.00     0.004 A 
ATOM     21  C   UNL     1      -6.529  -1.111   1.277  1.00  0.00     0.004 A 
ATOM     22  C   UNL     1      -5.749  -0.053   0.806  1.00  0.00    -0.051 A 
ATOM     23  C   UNL     1      -5.308   1.023   1.753  1.00  0.00     0.044 C 
ENDBRANCH  16  17
ENDBRANCH   6  16
TORSDOF 3
ENDMDL
MODEL 5
REMARK VINA RESULT:    -5.665      3.292      5.459
REMARK INTER + INTRA:          -7.024
REMARK INTER:                  -6.657
REMARK INTRA:                  -0.367
REMARK UNBOUND:                -0.365
REMARK SMILES Cc1ccc(CNC(=O)NC(=O)c2ccc(C)cc2)cc1
REMARK SMILES IDX 11 1 12 2 10 3 8 4 9 5 7 6 13 9 19 10 18 11 14 12 16 13
REMARK SMILES IDX 15 14 17 15 6 16 5 17 4 18 20 19 3 20 21 21 2 22 1 23
REMARK H PARENT 10 7 7 8
ROOT
ATOM      1  C   UNL     1      -7.843  -3.019  -1.100  1.00  0.00     0.259 C 
ATOM      2  O   UNL     1      -7.242  -4.082  -1.155  1.00  0.00    -0.269 OA
ATOM      3  N   UNL     1      -9.107  -2.700  -1.608  1.00  0.00    -0.274 N 
ATOM      4  C   UNL     1     -10.201  -3.368  -2.094  1.00  0.00     0.321 C 
ATOM      5  O   UNL     1     -11.219  -2.707  -2.329  1.00  0.00    -0.248 OA
ATOM      6  N   UNL     1     -10.232  -4.698  -2.298  1.00  0.00    -0.334 N 
ATOM      7  H   UNL     1      -9.387  -1.740  -1.457  1.00  0.00     0.175 HD
ATOM      8  H   UNL     1     -11.138  -5.047  -2.577  1.00  0.00     0.165 HD
ENDROOT
BRANCH   1   9
ATOM      9  C   UNL     1      -7.163  -1.911  -0.403  1.00  0.00     0.040 A 
ATOM     10  C   UNL     1      -7.115  -1.847   0.991  1.00  0.00     0.014 A 
ATOM     11  C   UNL     1      -6.415  -0.808   1.604  1.00  0.00     0.004 A 
ATOM     12  C   UNL     1      -6.567  -0.913  -1.181  1.00  0.00     0.014 A 
ATOM     13  C   UNL     1      -5.770   0.170   0.832  1.00  0.00    -0.051 A 
ATOM     14  C   UNL     1      -5.863   0.119  -0.564  1.00  0.00     0.004 A 
ATOM     15  C   UNL     1      -4.950   1.231   1.505  1.00  0.00     0.044 C 
ENDBRANCH   1   9
BRANCH   6  16
ATOM     16  C   UNL     1      -9.204  -5.654  -1.995  1.00  0.00     0.153 C 
BRANCH  16  17
ATOM     17  C   UNL     1      -9.610  -7.100  -1.912  1.00  0.00    -0.029 A 
ATOM     18  C   UNL     1      -9.297  -7.919  -0.822  1.00  0.00     0.006 A 
ATOM     19  C   UNL     1     -10.516  -7.570  -2.877  1.00  0.00     0.006 A 
ATOM     20  C   UNL     1      -9.903  -9.173  -0.693  1.00  0.00     0.004 A 
ATOM     21  C   UNL     1     -11.121  -8.816  -2.745  1.00  0.00     0.004 A 
ATOM     22  C   UNL     1     -10.828  -9.625  -1.646  1.00  0.00    -0.051 A 
ATOM     23  C   UNL     1     -11.586 -10.902  -1.441  1.00  0.00     0.044 C 
ENDBRANCH  16  17
ENDBRANCH   6  16
TORSDOF 3
ENDMDL
MODEL 6
REMARK VINA RESULT:    -5.616      3.034      7.682
REMARK INTER + INTRA:          -6.966
REMARK INTER:                  -6.468
REMARK INTRA:                  -0.498
REMARK UNBOUND:                -0.365
REMARK SMILES Cc1ccc(CNC(=O)NC(=O)c2ccc(C)cc2)cc1
REMARK SMILES IDX 11 1 12 2 10 3 8 4 9 5 7 6 13 9 19 10 18 11 14 12 16 13
REMARK SMILES IDX 15 14 17 15 6 16 5 17 4 18 20 19 3 20 21 21 2 22 1 23
REMARK H PARENT 10 7 7 8
ROOT
ATOM      1  C   UNL     1      -9.122  -5.823  -1.987  1.00  0.00     0.259 C 
ATOM      2  O   UNL     1      -7.906  -5.812  -2.112  1.00  0.00    -0.269 OA
ATOM      3  N   UNL     1     -10.004  -4.741  -1.907  1.00  0.00    -0.274 N 
ATOM      4  C   UNL     1      -9.977  -3.391  -2.152  1.00  0.00     0.321 C 
ATOM      5  O   UNL     1     -11.046  -2.775  -2.085  1.00  0.00    -0.248 OA
ATOM      6  N   UNL     1      -8.860  -2.718  -2.486  1.00  0.00    -0.334 N 
ATOM      7  H   UNL     1     -10.973  -5.001  -1.782  1.00  0.00     0.175 HD
ATOM      8  H   UNL     1      -9.024  -1.749  -2.717  1.00  0.00     0.165 HD
ENDROOT
BRANCH   1   9
ATOM      9  C   UNL     1      -9.766  -7.148  -1.911  1.00  0.00     0.040 A 
ATOM     10  C   UNL     1     -10.634  -7.594  -2.910  1.00  0.00     0.014 A 
ATOM     11  C   UNL     1     -11.177  -8.876  -2.821  1.00  0.00     0.004 A 
ATOM     12  C   UNL     1      -9.488  -7.951  -0.800  1.00  0.00     0.014 A 
ATOM     13  C   UNL     1     -10.864  -9.709  -1.737  1.00  0.00    -0.051 A 
ATOM     14  C   UNL     1     -10.028  -9.233  -0.719  1.00  0.00     0.004 A 
ATOM     15  C   UNL     1     -11.389 -11.115  -1.699  1.00  0.00     0.044 C 
ENDBRANCH   1   9
BRANCH   6  16
ATOM     16  C   UNL     1      -7.549  -3.256  -2.717  1.00  0.00     0.153 C 
BRANCH  16  17
ATOM     17  C   UNL     1      -6.412  -2.662  -1.933  1.00  0.00    -0.029 A 
ATOM     18  C   UNL     1      -5.322  -2.023  -2.532  1.00  0.00     0.006 A 
ATOM     19  C   UNL     1      -6.571  -2.569  -0.540  1.00  0.00     0.006 A 
ATOM     20  C   UNL     1      -4.426  -1.285  -1.751  1.00  0.00     0.004 A 
ATOM     21  C   UNL     1      -5.682  -1.831   0.235  1.00  0.00     0.004 A 
ATOM     22  C   UNL     1      -4.607  -1.174  -0.365  1.00  0.00    -0.051 A 
ATOM     23  C   UNL     1      -3.737  -0.271   0.456  1.00  0.00     0.044 C 
ENDBRANCH  16  17
ENDBRANCH   6  16
TORSDOF 3
ENDMDL
MODEL 7
REMARK VINA RESULT:    -4.705      1.263      1.480
REMARK INTER + INTRA:          -5.896
REMARK INTER:                  -5.485
REMARK INTRA:                  -0.410
REMARK UNBOUND:                -0.365
REMARK SMILES Cc1ccc(CNC(=O)NC(=O)c2ccc(C)cc2)cc1
REMARK SMILES IDX 11 1 12 2 10 3 8 4 9 5 7 6 13 9 19 10 18 11 14 12 16 13
REMARK SMILES IDX 15 14 17 15 6 16 5 17 4 18 20 19 3 20 21 21 2 22 1 23
REMARK H PARENT 10 7 7 8
ROOT
ATOM      1  C   UNL     1      -7.756  -2.261  -0.640  1.00  0.00     0.259 C 
ATOM      2  O   UNL     1      -8.650  -1.492  -0.316  1.00  0.00    -0.269 OA
ATOM      3  N   UNL     1      -7.854  -3.486  -1.307  1.00  0.00    -0.274 N 
ATOM      4  C   UNL     1      -8.796  -4.175  -2.027  1.00  0.00     0.321 C 
ATOM      5  O   UNL     1      -8.439  -5.215  -2.592  1.00  0.00    -0.248 OA
ATOM      6  N   UNL     1     -10.069  -3.763  -2.174  1.00  0.00    -0.334 N 
ATOM      7  H   UNL     1      -6.970  -3.957  -1.446  1.00  0.00     0.175 HD
ATOM      8  H   UNL     1     -10.612  -4.336  -2.804  1.00  0.00     0.165 HD
ENDROOT
BRANCH   1   9
ATOM      9  C   UNL     1      -6.380  -1.858  -0.292  1.00  0.00     0.040 A 
ATOM     10  C   UNL     1      -5.279  -2.631  -0.664  1.00  0.00     0.014 A 
ATOM     11  C   UNL     1      -3.993  -2.183  -0.359  1.00  0.00     0.004 A 
ATOM     12  C   UNL     1      -6.205  -0.675   0.432  1.00  0.00     0.014 A 
ATOM     13  C   UNL     1      -3.805  -0.970   0.322  1.00  0.00    -0.051 A 
ATOM     14  C   UNL     1      -4.919  -0.227   0.729  1.00  0.00     0.004 A 
ATOM     15  C   UNL     1      -2.416  -0.460   0.567  1.00  0.00     0.044 C 
ENDBRANCH   1   9
BRANCH   6  16
ATOM     16  C   UNL     1     -10.656  -2.545  -1.693  1.00  0.00     0.153 C 
BRANCH  16  17
ATOM     17  C   UNL     1     -11.782  -1.957  -2.497  1.00  0.00    -0.029 A 
ATOM     18  C   UNL     1     -11.595  -0.951  -3.451  1.00  0.00     0.006 A 
ATOM     19  C   UNL     1     -13.028  -2.601  -2.426  1.00  0.00     0.006 A 
ATOM     20  C   UNL     1     -12.631  -0.618  -4.330  1.00  0.00     0.004 A 
ATOM     21  C   UNL     1     -14.056  -2.273  -3.304  1.00  0.00     0.004 A 
ATOM     22  C   UNL     1     -13.863  -1.285  -4.271  1.00  0.00    -0.051 A 
ATOM     23  C   UNL     1     -14.926  -1.035  -5.299  1.00  0.00     0.044 C 
ENDBRANCH  16  17
ENDBRANCH   6  16
TORSDOF 3
ENDMDL
MODEL 8
REMARK VINA RESULT:    -4.430      5.272      9.952
REMARK INTER + INTRA:          -5.573
REMARK INTER:                  -4.994
REMARK INTRA:                  -0.578
REMARK UNBOUND:                -0.365
REMARK SMILES Cc1ccc(CNC(=O)NC(=O)c2ccc(C)cc2)cc1
REMARK SMILES IDX 11 1 12 2 10 3 8 4 9 5 7 6 13 9 19 10 18 11 14 12 16 13
REMARK SMILES IDX 15 14 17 15 6 16 5 17 4 18 20 19 3 20 21 21 2 22 1 23
REMARK H PARENT 10 7 7 8
ROOT
ATOM      1  C   UNL     1     -16.126  -3.896  -6.703  1.00  0.00     0.259 C 
ATOM      2  O   UNL     1     -16.408  -3.699  -5.530  1.00  0.00    -0.269 OA
ATOM      3  N   UNL     1     -15.605  -3.000  -7.641  1.00  0.00    -0.274 N 
ATOM      4  C   UNL     1     -15.014  -1.762  -7.640  1.00  0.00     0.321 C 
ATOM      5  O   UNL     1     -14.551  -1.347  -8.708  1.00  0.00    -0.248 OA
ATOM      6  N   UNL     1     -14.888  -0.999  -6.539  1.00  0.00    -0.334 N 
ATOM      7  H   UNL     1     -15.474  -3.391  -8.565  1.00  0.00     0.175 HD
ATOM      8  H   UNL     1     -14.353  -0.155  -6.689  1.00  0.00     0.165 HD
ENDROOT
BRANCH   1   9
ATOM      9  C   UNL     1     -16.357  -5.260  -7.217  1.00  0.00     0.040 A 
ATOM     10  C   UNL     1     -16.629  -5.493  -8.567  1.00  0.00     0.014 A 
ATOM     11  C   UNL     1     -16.788  -6.805  -9.015  1.00  0.00     0.004 A 
ATOM     12  C   UNL     1     -16.301  -6.322  -6.309  1.00  0.00     0.014 A 
ATOM     13  C   UNL     1     -16.683  -7.881  -8.122  1.00  0.00    -0.051 A 
ATOM     14  C   UNL     1     -16.454  -7.631  -6.763  1.00  0.00     0.004 A 
ATOM     15  C   UNL     1     -16.771  -9.289  -8.634  1.00  0.00     0.044 C 
ENDBRANCH   1   9
BRANCH   6  16
ATOM     16  C   UNL     1     -15.260  -1.333  -5.194  1.00  0.00     0.153 C 
BRANCH  16  17
ATOM     17  C   UNL     1     -14.158  -1.416  -4.174  1.00  0.00    -0.029 A 
ATOM     18  C   UNL     1     -14.121  -2.387  -3.167  1.00  0.00     0.006 A 
ATOM     19  C   UNL     1     -13.025  -0.613  -4.384  1.00  0.00     0.006 A 
ATOM     20  C   UNL     1     -12.960  -2.562  -2.406  1.00  0.00     0.004 A 
ATOM     21  C   UNL     1     -11.870  -0.792  -3.629  1.00  0.00     0.004 A 
ATOM     22  C   UNL     1     -11.824  -1.775  -2.640  1.00  0.00    -0.051 A 
ATOM     23  C   UNL     1     -10.534  -2.052  -1.928  1.00  0.00     0.044 C 
ENDBRANCH  16  17
ENDBRANCH   6  16
TORSDOF 3
ENDMDL
MODEL 9
REMARK VINA RESULT:    -4.401      2.199      3.802
REMARK INTER + INTRA:          -5.539
REMARK INTER:                  -5.102
REMARK INTRA:                  -0.437
REMARK UNBOUND:                -0.365
REMARK SMILES Cc1ccc(CNC(=O)NC(=O)c2ccc(C)cc2)cc1
REMARK SMILES IDX 11 1 12 2 10 3 8 4 9 5 7 6 13 9 19 10 18 11 14 12 16 13
REMARK SMILES IDX 15 14 17 15 6 16 5 17 4 18 20 19 3 20 21 21 2 22 1 23
REMARK H PARENT 10 7 7 8
ROOT
ATOM      1  C   UNL     1     -11.147  -2.051  -2.366  1.00  0.00     0.259 C 
ATOM      2  O   UNL     1     -11.329  -0.894  -2.716  1.00  0.00    -0.269 OA
ATOM      3  N   UNL     1     -12.057  -3.113  -2.347  1.00  0.00    -0.274 N 
ATOM      4  C   UNL     1     -13.297  -3.394  -2.861  1.00  0.00     0.321 C 
ATOM      5  O   UNL     1     -13.727  -4.545  -2.724  1.00  0.00    -0.248 OA
ATOM      6  N   UNL     1     -14.047  -2.498  -3.528  1.00  0.00    -0.334 N 
ATOM      7  H   UNL     1     -11.678  -3.981  -1.993  1.00  0.00     0.175 HD
ATOM      8  H   UNL     1     -14.895  -2.885  -3.916  1.00  0.00     0.165 HD
ENDROOT
BRANCH   1   9
ATOM      9  C   UNL     1      -9.789  -2.396  -1.904  1.00  0.00     0.040 A 
ATOM     10  C   UNL     1      -8.795  -2.797  -2.799  1.00  0.00     0.014 A 
ATOM     11  C   UNL     1      -7.511  -3.062  -2.322  1.00  0.00     0.004 A 
ATOM     12  C   UNL     1      -9.522  -2.318  -0.534  1.00  0.00     0.014 A 
ATOM     13  C   UNL     1      -7.220  -2.936  -0.955  1.00  0.00    -0.051 A 
ATOM     14  C   UNL     1      -8.236  -2.577  -0.062  1.00  0.00     0.004 A 
ATOM     15  C   UNL     1      -5.815  -3.142  -0.469  1.00  0.00     0.044 C 
ENDBRANCH   1   9
BRANCH   6  16
ATOM     16  C   UNL     1     -13.694  -1.153  -3.884  1.00  0.00     0.153 C 
BRANCH  16  17
ATOM     17  C   UNL     1     -14.066  -0.684  -5.264  1.00  0.00    -0.029 A 
ATOM     18  C   UNL     1     -13.414  -1.125  -6.420  1.00  0.00     0.006 A 
ATOM     19  C   UNL     1     -15.249   0.060  -5.393  1.00  0.00     0.006 A 
ATOM     20  C   UNL     1     -13.956  -0.843  -7.679  1.00  0.00     0.004 A 
ATOM     21  C   UNL     1     -15.790   0.335  -6.646  1.00  0.00     0.004 A 
ATOM     22  C   UNL     1     -15.153  -0.124  -7.800  1.00  0.00    -0.051 A 
ATOM     23  C   UNL     1     -15.813   0.058  -9.134  1.00  0.00     0.044 C 
ENDBRANCH  16  17
ENDBRANCH   6  16
TORSDOF 3
ENDMDL
