MODEL 1
REMARK VINA RESULT:    -5.980      0.000      0.000
REMARK INTER + INTRA:          -7.414
REMARK INTER:                  -7.028
REMARK INTRA:                  -0.386
REMARK UNBOUND:                -0.386
REMARK SMILES Cc1ccc(CNC(=O)NC(=O)c2ccc(C)cc2)cc1
REMARK SMILES IDX 11 1 12 2 10 3 8 4 9 5 7 6 13 9 19 10 18 11 14 12 16 13
REMARK SMILES IDX 15 14 17 15 6 16 5 17 4 18 20 19 3 20 21 21 2 22 1 23
REMARK H PARENT 10 7 7 8
ROOT
ATOM      1  C   UNL     1       4.959  -8.525  -1.130  1.00  0.00     0.259 C 
ATOM      2  O   UNL     1       3.926  -9.065  -1.499  1.00  0.00    -0.269 OA
ATOM      3  N   UNL     1       6.142  -9.116  -0.674  1.00  0.00    -0.274 N 
ATOM      4  C   UNL     1       6.715 -10.362  -0.668  1.00  0.00     0.321 C 
ATOM      5  O   UNL     1       7.881 -10.455  -0.271  1.00  0.00    -0.248 OA
ATOM      6  N   UNL     1       6.086 -11.472  -1.096  1.00  0.00    -0.334 N 
ATOM      7  H   UNL     1       6.859  -8.457  -0.402  1.00  0.00     0.175 HD
ATOM      8  H   UNL     1       6.673 -12.294  -1.107  1.00  0.00     0.165 HD
ENDROOT
BRANCH   1   9
ATOM      9  C   UNL     1       4.983  -7.050  -1.167  1.00  0.00     0.040 A 
ATOM     10  C   UNL     1       4.691  -6.288  -0.034  1.00  0.00     0.014 A 
ATOM     11  C   UNL     1       4.778  -4.897  -0.105  1.00  0.00     0.004 A 
ATOM     12  C   UNL     1       5.303  -6.429  -2.379  1.00  0.00     0.014 A 
ATOM     13  C   UNL     1       5.148  -4.266  -1.302  1.00  0.00    -0.051 A 
ATOM     14  C   UNL     1       5.395  -5.040  -2.442  1.00  0.00     0.004 A 
ATOM     15  C   UNL     1       5.320  -2.776  -1.338  1.00  0.00     0.044 C 
ENDBRANCH   1   9
BRANCH   6  16
ATOM     16  C   UNL     1       4.780 -11.567  -1.686  1.00  0.00     0.153 C 
BRANCH  16  17
ATOM     17  C   UNL     1       4.520 -12.732  -2.601  1.00  0.00    -0.029 A 
ATOM     18  C   UNL     1       4.113 -12.581  -3.931  1.00  0.00     0.006 A 
ATOM     19  C   UNL     1       4.908 -14.004  -2.150  1.00  0.00     0.006 A 
ATOM     20  C   UNL     1       4.121 -13.682  -4.794  1.00  0.00     0.004 A 
ATOM     21  C   UNL     1       4.920 -15.097  -3.011  1.00  0.00     0.004 A 
ATOM     22  C   UNL     1       4.536 -14.943  -4.344  1.00  0.00    -0.051 A 
ATOM     23  C   UNL     1       4.683 -16.092  -5.295  1.00  0.00     0.044 C 
ENDBRANCH  16  17
ENDBRANCH   6  16
TORSDOF 3
ENDMDL
MODEL 2
REMARK VINA RESULT:    -5.968      3.220      5.529
REMARK INTER + INTRA:          -7.401
REMARK INTER:                  -7.012
REMARK INTRA:                  -0.389
REMARK UNBOUND:                -0.386
REMARK SMILES Cc1ccc(CNC(=O)NC(=O)c2ccc(C)cc2)cc1
REMARK SMILES IDX 11 1 12 2 10 3 8 4 9 5 7 6 13 9 19 10 18 11 14 12 16 13
REMARK SMILES IDX 15 14 17 15 6 16 5 17 4 18 20 19 3 20 21 21 2 22 1 23
REMARK H PARENT 10 7 7 8
ROOT
ATOM      1  C   UNL     1       5.245  -8.416  -0.767  1.00  0.00     0.259 C 
ATOM      2  O   UNL     1       6.301  -7.926  -0.394  1.00  0.00    -0.269 OA
ATOM      3  N   UNL     1       4.999  -9.708  -1.243  1.00  0.00    -0.274 N 
ATOM      4  C   UNL     1       5.646 -10.917  -1.271  1.00  0.00     0.321 C 
ATOM      5  O   UNL     1       5.013 -11.896  -1.682  1.00  0.00    -0.248 OA
ATOM      6  N   UNL     1       6.912 -11.094  -0.850  1.00  0.00    -0.334 N 
ATOM      7  H   UNL     1       4.040  -9.877  -1.514  1.00  0.00     0.175 HD
ATOM      8  H   UNL     1       7.211 -12.059  -0.857  1.00  0.00     0.165 HD
ENDROOT
BRANCH   1   9
ATOM      9  C   UNL     1       4.055  -7.545  -0.711  1.00  0.00     0.040 A 
ATOM     10  C   UNL     1       3.606  -6.852  -1.837  1.00  0.00     0.014 A 
ATOM     11  C   UNL     1       2.447  -6.082  -1.748  1.00  0.00     0.004 A 
ATOM     12  C   UNL     1       3.388  -7.423   0.512  1.00  0.00     0.014 A 
ATOM     13  C   UNL     1       1.740  -5.994  -0.540  1.00  0.00    -0.051 A 
ATOM     14  C   UNL     1       2.226  -6.657   0.594  1.00  0.00     0.004 A 
ATOM     15  C   UNL     1       0.449  -5.231  -0.483  1.00  0.00     0.044 C 
ENDBRANCH   1   9
BRANCH   6  16
ATOM     16  C   UNL     1       7.779 -10.122  -0.248  1.00  0.00     0.153 C 
BRANCH  16  17
ATOM     17  C   UNL     1       8.855 -10.631   0.670  1.00  0.00    -0.029 A 
ATOM     18  C   UNL     1       8.981 -10.221   2.001  1.00  0.00     0.006 A 
ATOM     19  C   UNL     1       9.624 -11.716   0.219  1.00  0.00     0.006 A 
ATOM     20  C   UNL     1       9.843 -10.904   2.866  1.00  0.00     0.004 A 
ATOM     21  C   UNL     1      10.478 -12.398   1.081  1.00  0.00     0.004 A 
ATOM     22  C   UNL     1      10.587 -12.004   2.416  1.00  0.00    -0.051 A 
ATOM     23  C   UNL     1      11.401 -12.826   3.368  1.00  0.00     0.044 C 
ENDBRANCH  16  17
ENDBRANCH   6  16
TORSDOF 3
ENDMDL
MODEL 3
REMARK VINA RESULT:    -5.958      3.123      7.344
REMARK INTER + INTRA:          -7.389
REMARK INTER:                  -6.886
REMARK INTRA:                  -0.503
REMARK UNBOUND:                -0.386
REMARK SMILES Cc1ccc(CNC(=O)NC(=O)c2ccc(C)cc2)cc1
REMARK SMILES IDX 11 1 12 2 10 3 8 4 9 5 7 6 13 9 19 10 18 11 14 12 16 13
REMARK SMILES IDX 15 14 17 15 6 16 5 17 4 18 20 19 3 20 21 21 2 22 1 23
REMARK H PARENT 10 7 7 8
ROOT
ATOM      1  C   UNL     1       7.449  -9.973   0.186  1.00  0.00     0.259 C 
ATOM      2  O   UNL     1       7.321  -8.766   0.338  1.00  0.00    -0.269 OA
ATOM      3  N   UNL     1       6.649 -10.852  -0.550  1.00  0.00    -0.274 N 
ATOM      4  C   UNL     1       5.664 -10.772  -1.501  1.00  0.00     0.321 C 
ATOM      5  O   UNL     1       5.284 -11.825  -2.023  1.00  0.00    -0.248 OA
ATOM      6  N   UNL     1       5.119  -9.612  -1.911  1.00  0.00    -0.334 N 
ATOM      7  H   UNL     1       6.944 -11.819  -0.508  1.00  0.00     0.175 HD
ATOM      8  H   UNL     1       4.470  -9.716  -2.678  1.00  0.00     0.165 HD
ENDROOT
BRANCH   1   9
ATOM      9  C   UNL     1       8.600 -10.604   0.859  1.00  0.00     0.040 A 
ATOM     10  C   UNL     1       8.973 -10.245   2.156  1.00  0.00     0.014 A 
ATOM     11  C   UNL     1      10.036 -10.907   2.770  1.00  0.00     0.004 A 
ATOM     12  C   UNL     1       9.320 -11.575   0.156  1.00  0.00     0.014 A 
ATOM     13  C   UNL     1      10.732 -11.919   2.092  1.00  0.00    -0.051 A 
ATOM     14  C   UNL     1      10.377 -12.239   0.776  1.00  0.00     0.004 A 
ATOM     15  C   UNL     1      11.817 -12.680   2.796  1.00  0.00     0.044 C 
ENDBRANCH   1   9
BRANCH   6  16
ATOM     16  C   UNL     1       5.486  -8.282  -1.513  1.00  0.00     0.153 C 
BRANCH  16  17
ATOM     17  C   UNL     1       4.372  -7.332  -1.173  1.00  0.00    -0.029 A 
ATOM     18  C   UNL     1       3.777  -6.485  -2.114  1.00  0.00     0.006 A 
ATOM     19  C   UNL     1       3.777  -7.464   0.092  1.00  0.00     0.006 A 
ATOM     20  C   UNL     1       2.595  -5.806  -1.796  1.00  0.00     0.004 A 
ATOM     21  C   UNL     1       2.600  -6.792   0.405  1.00  0.00     0.004 A 
ATOM     22  C   UNL     1       1.993  -5.965  -0.541  1.00  0.00    -0.051 A 
ATOM     23  C   UNL     1       0.656  -5.355  -0.244  1.00  0.00     0.044 C 
ENDBRANCH  16  17
ENDBRANCH   6  16
TORSDOF 3
ENDMDL
MODEL 4
REMARK VINA RESULT:    -5.951      0.560      7.981
REMARK INTER + INTRA:          -7.380
REMARK INTER:                  -6.882
REMARK INTRA:                  -0.499
REMARK UNBOUND:                -0.386
REMARK SMILES Cc1ccc(CNC(=O)NC(=O)c2ccc(C)cc2)cc1
REMARK SMILES IDX 11 1 12 2 10 3 8 4 9 5 7 6 13 9 19 10 18 11 14 12 16 13
REMARK SMILES IDX 15 14 17 15 6 16 5 17 4 18 20 19 3 20 21 21 2 22 1 23
REMARK H PARENT 10 7 7 8
ROOT
ATOM      1  C   UNL     1       4.859 -11.236  -2.109  1.00  0.00     0.259 C 
ATOM      2  O   UNL     1       3.977 -10.401  -2.252  1.00  0.00    -0.269 OA
ATOM      3  N   UNL     1       6.048 -11.136  -1.379  1.00  0.00    -0.274 N 
ATOM      4  C   UNL     1       6.586 -10.309  -0.427  1.00  0.00     0.321 C 
ATOM      5  O   UNL     1       7.657 -10.648   0.088  1.00  0.00    -0.248 OA
ATOM      6  N   UNL     1       5.997  -9.173  -0.009  1.00  0.00    -0.334 N 
ATOM      7  H   UNL     1       6.637 -11.957  -1.427  1.00  0.00     0.175 HD
ATOM      8  H   UNL     1       6.478  -8.724   0.757  1.00  0.00     0.165 HD
ENDROOT
BRANCH   1   9
ATOM      9  C   UNL     1       4.659 -12.531  -2.786  1.00  0.00     0.040 A 
ATOM     10  C   UNL     1       4.148 -12.604  -4.083  1.00  0.00     0.014 A 
ATOM     11  C   UNL     1       4.025 -13.848  -4.701  1.00  0.00     0.004 A 
ATOM     12  C   UNL     1       4.990 -13.696  -2.086  1.00  0.00     0.014 A 
ATOM     13  C   UNL     1       4.404 -15.019  -4.027  1.00  0.00    -0.051 A 
ATOM     14  C   UNL     1       4.872 -14.937  -2.710  1.00  0.00     0.004 A 
ATOM     15  C   UNL     1       4.346 -16.341  -4.735  1.00  0.00     0.044 C 
ENDBRANCH   1   9
BRANCH   6  16
ATOM     16  C   UNL     1       4.715  -8.657  -0.397  1.00  0.00     0.153 C 
BRANCH  16  17
ATOM     17  C   UNL     1       4.631  -7.190  -0.718  1.00  0.00    -0.029 A 
ATOM     18  C   UNL     1       4.325  -6.216   0.238  1.00  0.00     0.006 A 
ATOM     19  C   UNL     1       5.086  -6.781  -1.982  1.00  0.00     0.006 A 
ATOM     20  C   UNL     1       4.498  -4.861  -0.063  1.00  0.00     0.004 A 
ATOM     21  C   UNL     1       5.261  -5.433  -2.279  1.00  0.00     0.004 A 
ATOM     22  C   UNL     1       4.978  -4.461  -1.318  1.00  0.00    -0.051 A 
ATOM     23  C   UNL     1       5.300  -3.024  -1.599  1.00  0.00     0.044 C 
ENDBRANCH  16  17
ENDBRANCH   6  16
TORSDOF 3
ENDMDL
MODEL 5
REMARK VINA RESULT:    -5.162      6.782      8.650
REMARK INTER + INTRA:          -6.453
REMARK INTER:                  -6.348
REMARK INTRA:                  -0.105
REMARK UNBOUND:                -0.386
REMARK SMILES Cc1ccc(CNC(=O)NC(=O)c2ccc(C)cc2)cc1
REMARK SMILES IDX 11 1 12 2 10 3 8 4 9 5 7 6 13 9 19 10 18 11 14 12 16 13
REMARK SMILES IDX 15 14 17 15 6 16 5 17 4 18 20 19 3 20 21 21 2 22 1 23
REMARK H PARENT 10 7 7 8
ROOT
ATOM      1  C   UNL     1      10.622 -12.235   2.800  1.00  0.00     0.259 C 
ATOM      2  O   UNL     1      10.309 -13.409   2.942  1.00  0.00    -0.269 OA
ATOM      3  N   UNL     1      11.659 -11.526   3.414  1.00  0.00    -0.274 N 
ATOM      4  C   UNL     1      12.788 -11.807   4.140  1.00  0.00     0.321 C 
ATOM      5  O   UNL     1      13.550 -10.870   4.400  1.00  0.00    -0.248 OA
ATOM      6  N   UNL     1      13.119 -13.045   4.551  1.00  0.00    -0.334 N 
ATOM      7  H   UNL     1      11.708 -10.550   3.153  1.00  0.00     0.175 HD
ATOM      8  H   UNL     1      14.023 -13.096   4.999  1.00  0.00     0.165 HD
ENDROOT
BRANCH   1   9
ATOM      9  C   UNL     1       9.811 -11.445   1.855  1.00  0.00     0.040 A 
ATOM     10  C   UNL     1       9.680 -11.820   0.516  1.00  0.00     0.014 A 
ATOM     11  C   UNL     1       8.860 -11.071  -0.327  1.00  0.00     0.004 A 
ATOM     12  C   UNL     1       9.176 -10.295   2.335  1.00  0.00     0.014 A 
ATOM     13  C   UNL     1       8.177  -9.945   0.158  1.00  0.00    -0.051 A 
ATOM     14  C   UNL     1       8.353  -9.553   1.490  1.00  0.00     0.004 A 
ATOM     15  C   UNL     1       7.233  -9.200  -0.739  1.00  0.00     0.044 C 
ENDBRANCH   1   9
BRANCH   6  16
ATOM     16  C   UNL     1      12.434 -14.274   4.269  1.00  0.00     0.153 C 
BRANCH  16  17
ATOM     17  C   UNL     1      12.813 -15.002   3.010  1.00  0.00    -0.029 A 
ATOM     18  C   UNL     1      12.120 -16.121   2.536  1.00  0.00     0.006 A 
ATOM     19  C   UNL     1      13.770 -14.396   2.180  1.00  0.00     0.006 A 
ATOM     20  C   UNL     1      12.366 -16.604   1.247  1.00  0.00     0.004 A 
ATOM     21  C   UNL     1      14.011 -14.874   0.895  1.00  0.00     0.004 A 
ATOM     22  C   UNL     1      13.303 -15.977   0.414  1.00  0.00    -0.051 A 
ATOM     23  C   UNL     1      13.470 -16.399  -1.015  1.00  0.00     0.044 C 
ENDBRANCH  16  17
ENDBRANCH   6  16
TORSDOF 3
ENDMDL
MODEL 6
REMARK VINA RESULT:    -4.745      5.429      8.856
REMARK INTER + INTRA:          -5.964
REMARK INTER:                  -5.443
REMARK INTRA:                  -0.521
REMARK UNBOUND:                -0.386
REMARK SMILES Cc1ccc(CNC(=O)NC(=O)c2ccc(C)cc2)cc1
REMARK SMILES IDX 11 1 12 2 10 3 8 4 9 5 7 6 13 9 19 10 18 11 14 12 16 13
REMARK SMILES IDX 15 14 17 15 6 16 5 17 4 18 20 19 3 20 21 21 2 22 1 23
REMARK H PARENT 10 7 7 8
ROOT
ATOM      1  C   UNL     1       8.968 -16.712  -2.129  1.00  0.00     0.259 C 
ATOM      2  O   UNL     1       7.949 -16.824  -1.462  1.00  0.00    -0.269 OA
ATOM      3  N   UNL     1       9.133 -16.871  -3.509  1.00  0.00    -0.274 N 
ATOM      4  C   UNL     1       8.336 -16.956  -4.621  1.00  0.00     0.321 C 
ATOM      5  O   UNL     1       8.891 -16.960  -5.725  1.00  0.00    -0.248 OA
ATOM      6  N   UNL     1       6.992 -17.004  -4.572  1.00  0.00    -0.334 N 
ATOM      7  H   UNL     1      10.083 -16.747  -3.832  1.00  0.00     0.175 HD
ATOM      8  H   UNL     1       6.550 -16.977  -5.480  1.00  0.00     0.165 HD
ENDROOT
BRANCH   1   9
ATOM      9  C   UNL     1      10.199 -16.355  -1.399  1.00  0.00     0.040 A 
ATOM     10  C   UNL     1      11.323 -17.184  -1.417  1.00  0.00     0.014 A 
ATOM     11  C   UNL     1      12.482 -16.779  -0.755  1.00  0.00     0.004 A 
ATOM     12  C   UNL     1      10.211 -15.158  -0.676  1.00  0.00     0.014 A 
ATOM     13  C   UNL     1      12.520 -15.555  -0.070  1.00  0.00    -0.051 A 
ATOM     14  C   UNL     1      11.373 -14.755  -0.021  1.00  0.00     0.004 A 
ATOM     15  C   UNL     1      13.800 -15.095   0.565  1.00  0.00     0.044 C 
ENDBRANCH   1   9
BRANCH   6  16
ATOM     16  C   UNL     1       6.154 -16.907  -3.411  1.00  0.00     0.153 C 
BRANCH  16  17
ATOM     17  C   UNL     1       5.369 -15.637  -3.230  1.00  0.00    -0.029 A 
ATOM     18  C   UNL     1       5.387 -14.891  -2.047  1.00  0.00     0.006 A 
ATOM     19  C   UNL     1       4.769 -15.084  -4.373  1.00  0.00     0.006 A 
ATOM     20  C   UNL     1       4.835 -13.605  -2.022  1.00  0.00     0.004 A 
ATOM     21  C   UNL     1       4.225 -13.804  -4.348  1.00  0.00     0.004 A 
ATOM     22  C   UNL     1       4.262 -13.049  -3.174  1.00  0.00    -0.051 A 
ATOM     23  C   UNL     1       3.798 -11.623  -3.194  1.00  0.00     0.044 C 
ENDBRANCH  16  17
ENDBRANCH   6  16
TORSDOF 3
ENDMDL
MODEL 7
REMARK VINA RESULT:    -4.505      4.628      7.022
REMARK INTER + INTRA:          -5.682
REMARK INTER:                  -5.195
REMARK INTRA:                  -0.486
REMARK UNBOUND:                -0.386
REMARK SMILES Cc1ccc(CNC(=O)NC(=O)c2ccc(C)cc2)cc1
REMARK SMILES IDX 11 1 12 2 10 3 8 4 9 5 7 6 13 9 19 10 18 11 14 12 16 13
REMARK SMILES IDX 15 14 17 15 6 16 5 17 4 18 20 19 3 20 21 21 2 22 1 23
REMARK H PARENT 10 7 7 8
ROOT
ATOM      1  C   UNL     1       8.030 -10.297  -0.075  1.00  0.00     0.259 C 
ATOM      2  O   UNL     1       8.826  -9.699   0.634  1.00  0.00    -0.269 OA
ATOM      3  N   UNL     1       8.119 -11.594  -0.591  1.00  0.00    -0.274 N 
ATOM      4  C   UNL     1       8.874 -12.719  -0.379  1.00  0.00     0.321 C 
ATOM      5  O   UNL     1       8.542 -13.752  -0.970  1.00  0.00    -0.248 OA
ATOM      6  N   UNL     1       9.928 -12.762   0.457  1.00  0.00    -0.334 N 
ATOM      7  H   UNL     1       7.339 -11.865  -1.176  1.00  0.00     0.175 HD
ATOM      8  H   UNL     1      10.323 -13.684   0.567  1.00  0.00     0.165 HD
ENDROOT
BRANCH   1   9
ATOM      9  C   UNL     1       6.800  -9.571  -0.446  1.00  0.00     0.040 A 
ATOM     10  C   UNL     1       5.612  -9.740   0.268  1.00  0.00     0.014 A 
ATOM     11  C   UNL     1       4.489  -8.992  -0.087  1.00  0.00     0.004 A 
ATOM     12  C   UNL     1       6.853  -8.706  -1.543  1.00  0.00     0.014 A 
ATOM     13  C   UNL     1       4.546  -8.083  -1.154  1.00  0.00    -0.051 A 
ATOM     14  C   UNL     1       5.731  -7.956  -1.890  1.00  0.00     0.004 A 
ATOM     15  C   UNL     1       3.357  -7.225  -1.469  1.00  0.00     0.044 C 
ENDBRANCH   1   9
BRANCH   6  16
ATOM     16  C   UNL     1      10.412 -11.713   1.310  1.00  0.00     0.153 C 
BRANCH  16  17
ATOM     17  C   UNL     1      10.698 -12.067   2.743  1.00  0.00    -0.029 A 
ATOM     18  C   UNL     1       9.760 -11.916   3.769  1.00  0.00     0.006 A 
ATOM     19  C   UNL     1      11.884 -12.772   3.007  1.00  0.00     0.006 A 
ATOM     20  C   UNL     1       9.999 -12.483   5.026  1.00  0.00     0.004 A 
ATOM     21  C   UNL     1      12.118 -13.339   4.256  1.00  0.00     0.004 A 
ATOM     22  C   UNL     1      11.172 -13.208   5.273  1.00  0.00    -0.051 A 
ATOM     23  C   UNL     1      11.370 -13.938   6.569  1.00  0.00     0.044 C 
ENDBRANCH  16  17
ENDBRANCH   6  16
TORSDOF 3
ENDMDL
MODEL 8
REMARK VINA RESULT:    -4.348      4.985      8.392
REMARK INTER + INTRA:          -5.496
REMARK INTER:                  -5.143
REMARK INTRA:                  -0.353
REMARK UNBOUND:                -0.386
REMARK SMILES Cc1ccc(CNC(=O)NC(=O)c2ccc(C)cc2)cc1
REMARK SMILES IDX 11 1 12 2 10 3 8 4 9 5 7 6 13 9 19 10 18 11 14 12 16 13
REMARK SMILES IDX 15 14 17 15 6 16 5 17 4 18 20 19 3 20 21 21 2 22 1 23
REMARK H PARENT 10 7 7 8
ROOT
ATOM      1  C   UNL     1      10.101 -11.858   1.730  1.00  0.00     0.259 C 
ATOM      2  O   UNL     1       9.432 -10.892   2.069  1.00  0.00    -0.269 OA
ATOM      3  N   UNL     1       9.916 -12.712   0.638  1.00  0.00    -0.274 N 
ATOM      4  C   UNL     1       9.187 -12.727  -0.524  1.00  0.00     0.321 C 
ATOM      5  O   UNL     1       9.408 -13.639  -1.327  1.00  0.00    -0.248 OA
ATOM      6  N   UNL     1       8.273 -11.791  -0.841  1.00  0.00    -0.334 N 
ATOM      7  H   UNL     1      10.592 -13.461   0.575  1.00  0.00     0.175 HD
ATOM      8  H   UNL     1       7.887 -11.899  -1.768  1.00  0.00     0.165 HD
ENDROOT
BRANCH   1   9
ATOM      9  C   UNL     1      11.270 -12.180   2.572  1.00  0.00     0.040 A 
ATOM     10  C   UNL     1      11.426 -11.626   3.843  1.00  0.00     0.014 A 
ATOM     11  C   UNL     1      12.520 -12.002   4.623  1.00  0.00     0.004 A 
ATOM     12  C   UNL     1      12.229 -13.058   2.056  1.00  0.00     0.014 A 
ATOM     13  C   UNL     1      13.461 -12.921   4.135  1.00  0.00    -0.051 A 
ATOM     14  C   UNL     1      13.317 -13.435   2.841  1.00  0.00     0.004 A 
ATOM     15  C   UNL     1      14.584 -13.379   5.018  1.00  0.00     0.044 C 
ENDBRANCH   1   9
BRANCH   6  16
ATOM     16  C   UNL     1       7.942 -10.605  -0.104  1.00  0.00     0.153 C 
BRANCH  16  17
ATOM     17  C   UNL     1       6.711  -9.851  -0.527  1.00  0.00    -0.029 A 
ATOM     18  C   UNL     1       5.509  -9.890   0.187  1.00  0.00     0.006 A 
ATOM     19  C   UNL     1       6.856  -8.913  -1.562  1.00  0.00     0.006 A 
ATOM     20  C   UNL     1       4.485  -8.986  -0.118  1.00  0.00     0.004 A 
ATOM     21  C   UNL     1       5.838  -8.013  -1.861  1.00  0.00     0.004 A 
ATOM     22  C   UNL     1       4.647  -8.035  -1.134  1.00  0.00    -0.051 A 
ATOM     23  C   UNL     1       3.614  -6.974  -1.370  1.00  0.00     0.044 C 
ENDBRANCH  16  17
ENDBRANCH   6  16
TORSDOF 3
ENDMDL
MODEL 9
REMARK VINA RESULT:    -4.147      2.475      4.284
REMARK INTER + INTRA:          -5.260
REMARK INTER:                  -4.839
REMARK INTRA:                  -0.421
REMARK UNBOUND:                -0.386
REMARK SMILES Cc1ccc(CNC(=O)NC(=O)c2ccc(C)cc2)cc1
REMARK SMILES IDX 11 1 12 2 10 3 8 4 9 5 7 6 13 9 19 10 18 11 14 12 16 13
REMARK SMILES IDX 15 14 17 15 6 16 5 17 4 18 20 19 3 20 21 21 2 22 1 23
REMARK H PARENT 10 7 7 8
ROOT
ATOM      1  C   UNL     1       4.924 -12.617  -2.026  1.00  0.00     0.259 C 
ATOM      2  O   UNL     1       4.120 -12.789  -2.932  1.00  0.00    -0.269 OA
ATOM      3  N   UNL     1       5.704 -13.564  -1.356  1.00  0.00    -0.274 N 
ATOM      4  C   UNL     1       6.079 -14.872  -1.527  1.00  0.00     0.321 C 
ATOM      5  O   UNL     1       6.924 -15.332  -0.751  1.00  0.00    -0.248 OA
ATOM      6  N   UNL     1       5.602 -15.661  -2.507  1.00  0.00    -0.334 N 
ATOM      7  H   UNL     1       6.284 -13.182  -0.621  1.00  0.00     0.175 HD
ATOM      8  H   UNL     1       6.042 -16.569  -2.549  1.00  0.00     0.165 HD
ENDROOT
BRANCH   1   9
ATOM      9  C   UNL     1       5.114 -11.227  -1.568  1.00  0.00     0.040 A 
ATOM     10  C   UNL     1       6.313 -10.810  -0.987  1.00  0.00     0.014 A 
ATOM     11  C   UNL     1       6.465  -9.473  -0.618  1.00  0.00     0.004 A 
ATOM     12  C   UNL     1       4.051 -10.332  -1.726  1.00  0.00     0.014 A 
ATOM     13  C   UNL     1       5.423  -8.555  -0.820  1.00  0.00    -0.051 A 
ATOM     14  C   UNL     1       4.210  -8.996  -1.362  1.00  0.00     0.004 A 
ATOM     15  C   UNL     1       5.633  -7.105  -0.496  1.00  0.00     0.044 C 
ENDBRANCH   1   9
BRANCH   6  16
ATOM     16  C   UNL     1       4.703 -15.297  -3.565  1.00  0.00     0.153 C 
BRANCH  16  17
ATOM     17  C   UNL     1       4.944 -15.908  -4.917  1.00  0.00    -0.029 A 
ATOM     18  C   UNL     1       3.961 -15.981  -5.909  1.00  0.00     0.006 A 
ATOM     19  C   UNL     1       6.271 -16.222  -5.253  1.00  0.00     0.006 A 
ATOM     20  C   UNL     1       4.310 -16.337  -7.216  1.00  0.00     0.004 A 
ATOM     21  C   UNL     1       6.618 -16.572  -6.555  1.00  0.00     0.004 A 
ATOM     22  C   UNL     1       5.641 -16.622  -7.551  1.00  0.00    -0.051 A 
ATOM     23  C   UNL     1       6.044 -16.865  -8.974  1.00  0.00     0.044 C 
ENDBRANCH  16  17
ENDBRANCH   6  16
TORSDOF 3
ENDMDL
