MODEL 1
REMARK VINA RESULT:    -6.164      0.000      0.000
REMARK INTER + INTRA:          -7.635
REMARK INTER:                  -7.245
REMARK INTRA:                  -0.389
REMARK UNBOUND:                -0.389
REMARK SMILES Cc1ccc(CNC(=O)NC(=O)c2ccc(C)cc2)cc1
REMARK SMILES IDX 11 1 12 2 10 3 8 4 9 5 7 6 13 9 19 10 18 11 14 12 16 13
REMARK SMILES IDX 15 14 17 15 6 16 5 17 4 18 20 19 3 20 21 21 2 22 1 23
REMARK H PARENT 10 7 7 8
ROOT
ATOM      1  C   UNL     1       4.489   0.899 -10.328  1.00  0.00     0.259 C 
ATOM      2  O   UNL     1       4.106   2.058 -10.247  1.00  0.00    -0.269 OA
ATOM      3  N   UNL     1       4.871   0.181 -11.466  1.00  0.00    -0.274 N 
ATOM      4  C   UNL     1       5.197   0.448 -12.770  1.00  0.00     0.321 C 
ATOM      5  O   UNL     1       5.627  -0.485 -13.457  1.00  0.00    -0.248 OA
ATOM      6  N   UNL     1       5.102   1.671 -13.326  1.00  0.00    -0.334 N 
ATOM      7  H   UNL     1       5.131  -0.779 -11.285  1.00  0.00     0.175 HD
ATOM      8  H   UNL     1       5.462   1.718 -14.268  1.00  0.00     0.165 HD
ENDROOT
BRANCH   1   9
ATOM      9  C   UNL     1       4.570   0.140  -9.065  1.00  0.00     0.040 A 
ATOM     10  C   UNL     1       3.561  -0.745  -8.681  1.00  0.00     0.014 A 
ATOM     11  C   UNL     1       3.707  -1.479  -7.504  1.00  0.00     0.004 A 
ATOM     12  C   UNL     1       5.690   0.337  -8.252  1.00  0.00     0.014 A 
ATOM     13  C   UNL     1       4.851  -1.328  -6.707  1.00  0.00    -0.051 A 
ATOM     14  C   UNL     1       5.835  -0.404  -7.080  1.00  0.00     0.004 A 
ATOM     15  C   UNL     1       5.032  -2.186  -5.490  1.00  0.00     0.044 C 
ENDBRANCH   1   9
BRANCH   6  16
ATOM     16  C   UNL     1       4.729   2.899 -12.682  1.00  0.00     0.153 C 
BRANCH  16  17
ATOM     17  C   UNL     1       5.259   4.176 -13.273  1.00  0.00    -0.029 A 
ATOM     18  C   UNL     1       6.050   5.079 -12.554  1.00  0.00     0.006 A 
ATOM     19  C   UNL     1       5.122   4.349 -14.659  1.00  0.00     0.006 A 
ATOM     20  C   UNL     1       6.708   6.118 -13.221  1.00  0.00     0.004 A 
ATOM     21  C   UNL     1       5.781   5.380 -15.322  1.00  0.00     0.004 A 
ATOM     22  C   UNL     1       6.588   6.268 -14.609  1.00  0.00    -0.051 A 
ATOM     23  C   UNL     1       7.401   7.288 -15.348  1.00  0.00     0.044 C 
ENDBRANCH  16  17
ENDBRANCH   6  16
TORSDOF 3
ENDMDL
MODEL 2
REMARK VINA RESULT:    -6.153      3.226      5.494
REMARK INTER + INTRA:          -7.621
REMARK INTER:                  -7.243
REMARK INTRA:                  -0.378
REMARK UNBOUND:                -0.389
REMARK SMILES Cc1ccc(CNC(=O)NC(=O)c2ccc(C)cc2)cc1
REMARK SMILES IDX 11 1 12 2 10 3 8 4 9 5 7 6 13 9 19 10 18 11 14 12 16 13
REMARK SMILES IDX 15 14 17 15 6 16 5 17 4 18 20 19 3 20 21 21 2 22 1 23
REMARK H PARENT 10 7 7 8
ROOT
ATOM      1  C   UNL     1       4.356   0.573 -10.441  1.00  0.00     0.259 C 
ATOM      2  O   UNL     1       4.713  -0.589 -10.574  1.00  0.00    -0.269 OA
ATOM      3  N   UNL     1       4.588   1.662 -11.286  1.00  0.00    -0.274 N 
ATOM      4  C   UNL     1       5.020   1.875 -12.570  1.00  0.00     0.321 C 
ATOM      5  O   UNL     1       4.958   3.027 -13.012  1.00  0.00    -0.248 OA
ATOM      6  N   UNL     1       5.475   0.896 -13.373  1.00  0.00    -0.334 N 
ATOM      7  H   UNL     1       4.208   2.538 -10.951  1.00  0.00     0.175 HD
ATOM      8  H   UNL     1       5.673   1.202 -14.315  1.00  0.00     0.165 HD
ENDROOT
BRANCH   1   9
ATOM      9  C   UNL     1       3.568   0.887  -9.233  1.00  0.00     0.040 A 
ATOM     10  C   UNL     1       4.151   1.502  -8.124  1.00  0.00     0.014 A 
ATOM     11  C   UNL     1       3.354   1.828  -7.025  1.00  0.00     0.004 A 
ATOM     12  C   UNL     1       2.213   0.542  -9.225  1.00  0.00     0.014 A 
ATOM     13  C   UNL     1       1.982   1.533  -7.028  1.00  0.00    -0.051 A 
ATOM     14  C   UNL     1       1.420   0.875  -8.128  1.00  0.00     0.004 A 
ATOM     15  C   UNL     1       1.124   1.965  -5.876  1.00  0.00     0.044 C 
ENDBRANCH   1   9
BRANCH   6  16
ATOM     16  C   UNL     1       5.532  -0.511 -13.094  1.00  0.00     0.153 C 
BRANCH  16  17
ATOM     17  C   UNL     1       5.577  -1.446 -14.271  1.00  0.00    -0.029 A 
ATOM     18  C   UNL     1       4.676  -2.502 -14.442  1.00  0.00     0.006 A 
ATOM     19  C   UNL     1       6.429  -1.103 -15.333  1.00  0.00     0.006 A 
ATOM     20  C   UNL     1       4.617  -3.181 -15.664  1.00  0.00     0.004 A 
ATOM     21  C   UNL     1       6.366  -1.775 -16.549  1.00  0.00     0.004 A 
ATOM     22  C   UNL     1       5.452  -2.815 -16.729  1.00  0.00    -0.051 A 
ATOM     23  C   UNL     1       5.296  -3.440 -18.082  1.00  0.00     0.044 C 
ENDBRANCH  16  17
ENDBRANCH   6  16
TORSDOF 3
ENDMDL
MODEL 3
REMARK VINA RESULT:    -6.128      3.108      7.293
REMARK INTER + INTRA:          -7.593
REMARK INTER:                  -7.105
REMARK INTRA:                  -0.488
REMARK UNBOUND:                -0.389
REMARK SMILES Cc1ccc(CNC(=O)NC(=O)c2ccc(C)cc2)cc1
REMARK SMILES IDX 11 1 12 2 10 3 8 4 9 5 7 6 13 9 19 10 18 11 14 12 16 13
REMARK SMILES IDX 15 14 17 15 6 16 5 17 4 18 20 19 3 20 21 21 2 22 1 23
REMARK H PARENT 10 7 7 8
ROOT
ATOM      1  C   UNL     1       5.054  -0.565 -12.969  1.00  0.00     0.259 C 
ATOM      2  O   UNL     1       4.841  -1.188 -11.939  1.00  0.00    -0.269 OA
ATOM      3  N   UNL     1       5.099   0.820 -13.161  1.00  0.00    -0.274 N 
ATOM      4  C   UNL     1       5.176   1.948 -12.385  1.00  0.00     0.321 C 
ATOM      5  O   UNL     1       5.336   3.030 -12.961  1.00  0.00    -0.248 OA
ATOM      6  N   UNL     1       5.117   1.933 -11.041  1.00  0.00    -0.334 N 
ATOM      7  H   UNL     1       5.272   1.103 -14.116  1.00  0.00     0.175 HD
ATOM      8  H   UNL     1       5.275   2.835 -10.616  1.00  0.00     0.165 HD
ENDROOT
BRANCH   1   9
ATOM      9  C   UNL     1       5.304  -1.363 -14.185  1.00  0.00     0.040 A 
ATOM     10  C   UNL     1       4.594  -2.536 -14.444  1.00  0.00     0.014 A 
ATOM     11  C   UNL     1       4.828  -3.229 -15.632  1.00  0.00     0.004 A 
ATOM     12  C   UNL     1       6.284  -0.914 -15.075  1.00  0.00     0.014 A 
ATOM     13  C   UNL     1       5.772  -2.759 -16.557  1.00  0.00    -0.051 A 
ATOM     14  C   UNL     1       6.510  -1.605 -16.264  1.00  0.00     0.004 A 
ATOM     15  C   UNL     1       5.951  -3.467 -17.867  1.00  0.00     0.044 C 
ENDBRANCH   1   9
BRANCH   6  16
ATOM     16  C   UNL     1       5.039   0.786 -10.181  1.00  0.00     0.153 C 
BRANCH  16  17
ATOM     17  C   UNL     1       4.090   0.859  -9.017  1.00  0.00    -0.029 A 
ATOM     18  C   UNL     1       4.451   1.375  -7.768  1.00  0.00     0.006 A 
ATOM     19  C   UNL     1       2.735   0.590  -9.275  1.00  0.00     0.006 A 
ATOM     20  C   UNL     1       3.467   1.638  -6.809  1.00  0.00     0.004 A 
ATOM     21  C   UNL     1       1.758   0.857  -8.322  1.00  0.00     0.004 A 
ATOM     22  C   UNL     1       2.114   1.393  -7.083  1.00  0.00    -0.051 A 
ATOM     23  C   UNL     1       1.044   1.804  -6.117  1.00  0.00     0.044 C 
ENDBRANCH  16  17
ENDBRANCH   6  16
TORSDOF 3
ENDMDL
MODEL 4
REMARK VINA RESULT:    -6.101      0.563      7.992
REMARK INTER + INTRA:          -7.560
REMARK INTER:                  -7.071
REMARK INTRA:                  -0.489
REMARK UNBOUND:                -0.389
REMARK SMILES Cc1ccc(CNC(=O)NC(=O)c2ccc(C)cc2)cc1
REMARK SMILES IDX 11 1 12 2 10 3 8 4 9 5 7 6 13 9 19 10 18 11 14 12 16 13
REMARK SMILES IDX 15 14 17 15 6 16 5 17 4 18 20 19 3 20 21 21 2 22 1 23
REMARK H PARENT 10 7 7 8
ROOT
ATOM      1  C   UNL     1       5.126   2.901 -12.302  1.00  0.00     0.259 C 
ATOM      2  O   UNL     1       4.715   3.129 -11.173  1.00  0.00    -0.269 OA
ATOM      3  N   UNL     1       5.314   1.668 -12.934  1.00  0.00    -0.274 N 
ATOM      4  C   UNL     1       4.949   0.361 -12.734  1.00  0.00     0.321 C 
ATOM      5  O   UNL     1       5.211  -0.450 -13.628  1.00  0.00    -0.248 OA
ATOM      6  N   UNL     1       4.299  -0.070 -11.637  1.00  0.00    -0.334 N 
ATOM      7  H   UNL     1       5.689   1.732 -13.871  1.00  0.00     0.175 HD
ATOM      8  H   UNL     1       4.027  -1.042 -11.682  1.00  0.00     0.165 HD
ENDROOT
BRANCH   1   9
ATOM      9  C   UNL     1       5.472   4.075 -13.128  1.00  0.00     0.040 A 
ATOM     10  C   UNL     1       6.090   5.198 -12.574  1.00  0.00     0.014 A 
ATOM     11  C   UNL     1       6.446   6.261 -13.404  1.00  0.00     0.004 A 
ATOM     12  C   UNL     1       5.156   4.036 -14.489  1.00  0.00     0.014 A 
ATOM     13  C   UNL     1       6.180   6.210 -14.781  1.00  0.00    -0.051 A 
ATOM     14  C   UNL     1       5.519   5.098 -15.316  1.00  0.00     0.004 A 
ATOM     15  C   UNL     1       6.645   7.324 -15.673  1.00  0.00     0.044 C 
ENDBRANCH   1   9
BRANCH   6  16
ATOM     16  C   UNL     1       3.813   0.718 -10.540  1.00  0.00     0.153 C 
BRANCH  16  17
ATOM     17  C   UNL     1       4.028   0.177  -9.154  1.00  0.00    -0.029 A 
ATOM     18  C   UNL     1       3.117  -0.670  -8.514  1.00  0.00     0.006 A 
ATOM     19  C   UNL     1       5.295   0.369  -8.578  1.00  0.00     0.006 A 
ATOM     20  C   UNL     1       3.481  -1.328  -7.335  1.00  0.00     0.004 A 
ATOM     21  C   UNL     1       5.657  -0.291  -7.407  1.00  0.00     0.004 A 
ATOM     22  C   UNL     1       4.756  -1.153  -6.781  1.00  0.00    -0.051 A 
ATOM     23  C   UNL     1       5.203  -1.963  -5.600  1.00  0.00     0.044 C 
ENDBRANCH  16  17
ENDBRANCH   6  16
TORSDOF 3
ENDMDL
MODEL 5
REMARK VINA RESULT:    -5.740      2.999      7.556
REMARK INTER + INTRA:          -7.136
REMARK INTER:                  -6.647
REMARK INTRA:                  -0.490
REMARK UNBOUND:                -0.389
REMARK SMILES Cc1ccc(CNC(=O)NC(=O)c2ccc(C)cc2)cc1
REMARK SMILES IDX 11 1 12 2 10 3 8 4 9 5 7 6 13 9 19 10 18 11 14 12 16 13
REMARK SMILES IDX 15 14 17 15 6 16 5 17 4 18 20 19 3 20 21 21 2 22 1 23
REMARK H PARENT 10 7 7 8
ROOT
ATOM      1  C   UNL     1       5.445  -0.696 -13.233  1.00  0.00     0.259 C 
ATOM      2  O   UNL     1       5.654  -1.339 -12.214  1.00  0.00    -0.269 OA
ATOM      3  N   UNL     1       5.136   0.662 -13.363  1.00  0.00    -0.274 N 
ATOM      4  C   UNL     1       5.170   1.788 -12.582  1.00  0.00     0.321 C 
ATOM      5  O   UNL     1       4.933   2.872 -13.127  1.00  0.00    -0.248 OA
ATOM      6  N   UNL     1       5.476   1.776 -11.271  1.00  0.00    -0.334 N 
ATOM      7  H   UNL     1       4.984   0.965 -14.316  1.00  0.00     0.175 HD
ATOM      8  H   UNL     1       5.541   2.696 -10.860  1.00  0.00     0.165 HD
ENDROOT
BRANCH   1   9
ATOM      9  C   UNL     1       5.530  -1.433 -14.508  1.00  0.00     0.040 A 
ATOM     10  C   UNL     1       6.399  -1.032 -15.524  1.00  0.00     0.014 A 
ATOM     11  C   UNL     1       6.483  -1.792 -16.692  1.00  0.00     0.004 A 
ATOM     12  C   UNL     1       4.704  -2.549 -14.678  1.00  0.00     0.014 A 
ATOM     13  C   UNL     1       5.696  -2.943 -16.851  1.00  0.00    -0.051 A 
ATOM     14  C   UNL     1       4.796  -3.308 -15.843  1.00  0.00     0.004 A 
ATOM     15  C   UNL     1       5.859  -3.795 -18.074  1.00  0.00     0.044 C 
ENDBRANCH   1   9
BRANCH   6  16
ATOM     16  C   UNL     1       5.880   0.650 -10.476  1.00  0.00     0.153 C 
BRANCH  16  17
ATOM     17  C   UNL     1       5.088   0.365  -9.231  1.00  0.00    -0.029 A 
ATOM     18  C   UNL     1       5.670   0.263  -7.963  1.00  0.00     0.006 A 
ATOM     19  C   UNL     1       3.688   0.416  -9.333  1.00  0.00     0.006 A 
ATOM     20  C   UNL     1       4.861   0.238  -6.821  1.00  0.00     0.004 A 
ATOM     21  C   UNL     1       2.886   0.395  -8.197  1.00  0.00     0.004 A 
ATOM     22  C   UNL     1       3.466   0.317  -6.930  1.00  0.00    -0.051 A 
ATOM     23  C   UNL     1       2.603   0.434  -5.709  1.00  0.00     0.044 C 
ENDBRANCH  16  17
ENDBRANCH   6  16
TORSDOF 3
ENDMDL
MODEL 6
REMARK VINA RESULT:    -5.306      3.143      5.052
REMARK INTER + INTRA:          -6.626
REMARK INTER:                  -6.118
REMARK INTRA:                  -0.509
REMARK UNBOUND:                -0.389
REMARK SMILES Cc1ccc(CNC(=O)NC(=O)c2ccc(C)cc2)cc1
REMARK SMILES IDX 11 1 12 2 10 3 8 4 9 5 7 6 13 9 19 10 18 11 14 12 16 13
REMARK SMILES IDX 15 14 17 15 6 16 5 17 4 18 20 19 3 20 21 21 2 22 1 23
REMARK H PARENT 10 7 7 8
ROOT
ATOM      1  C   UNL     1       4.776   0.415  -9.973  1.00  0.00     0.259 C 
ATOM      2  O   UNL     1       5.663  -0.377 -10.257  1.00  0.00    -0.269 OA
ATOM      3  N   UNL     1       4.244   1.449 -10.751  1.00  0.00    -0.274 N 
ATOM      4  C   UNL     1       4.265   1.843 -12.064  1.00  0.00     0.321 C 
ATOM      5  O   UNL     1       3.527   2.777 -12.394  1.00  0.00    -0.248 OA
ATOM      6  N   UNL     1       5.019   1.249 -13.007  1.00  0.00    -0.334 N 
ATOM      7  H   UNL     1       3.524   1.990 -10.289  1.00  0.00     0.175 HD
ATOM      8  H   UNL     1       4.856   1.601 -13.939  1.00  0.00     0.165 HD
ENDROOT
BRANCH   1   9
ATOM      9  C   UNL     1       4.168   0.275  -8.636  1.00  0.00     0.040 A 
ATOM     10  C   UNL     1       3.826  -0.976  -8.119  1.00  0.00     0.014 A 
ATOM     11  C   UNL     1       3.302  -1.063  -6.829  1.00  0.00     0.004 A 
ATOM     12  C   UNL     1       3.933   1.438  -7.896  1.00  0.00     0.014 A 
ATOM     13  C   UNL     1       3.112   0.094  -6.058  1.00  0.00    -0.051 A 
ATOM     14  C   UNL     1       3.416   1.346  -6.605  1.00  0.00     0.004 A 
ATOM     15  C   UNL     1       2.628  -0.023  -4.642  1.00  0.00     0.044 C 
ENDBRANCH   1   9
BRANCH   6  16
ATOM     16  C   UNL     1       5.859   0.093 -12.858  1.00  0.00     0.153 C 
BRANCH  16  17
ATOM     17  C   UNL     1       5.688  -1.017 -13.857  1.00  0.00    -0.029 A 
ATOM     18  C   UNL     1       4.702  -2.003 -13.742  1.00  0.00     0.006 A 
ATOM     19  C   UNL     1       6.417  -0.924 -15.054  1.00  0.00     0.006 A 
ATOM     20  C   UNL     1       4.439  -2.859 -14.816  1.00  0.00     0.004 A 
ATOM     21  C   UNL     1       6.151  -1.773 -16.123  1.00  0.00     0.004 A 
ATOM     22  C   UNL     1       5.152  -2.742 -16.017  1.00  0.00    -0.051 A 
ATOM     23  C   UNL     1       4.780  -3.558 -17.219  1.00  0.00     0.044 C 
ENDBRANCH  16  17
ENDBRANCH   6  16
TORSDOF 3
ENDMDL
MODEL 7
REMARK VINA RESULT:    -5.257      5.224      8.426
REMARK INTER + INTRA:          -6.569
REMARK INTER:                  -6.077
REMARK INTRA:                  -0.491
REMARK UNBOUND:                -0.389
REMARK SMILES Cc1ccc(CNC(=O)NC(=O)c2ccc(C)cc2)cc1
REMARK SMILES IDX 11 1 12 2 10 3 8 4 9 5 7 6 13 9 19 10 18 11 14 12 16 13
REMARK SMILES IDX 15 14 17 15 6 16 5 17 4 18 20 19 3 20 21 21 2 22 1 23
REMARK H PARENT 10 7 7 8
ROOT
ATOM      1  C   UNL     1       7.159   7.248 -14.892  1.00  0.00     0.259 C 
ATOM      2  O   UNL     1       8.059   7.003 -15.682  1.00  0.00    -0.269 OA
ATOM      3  N   UNL     1       6.663   8.492 -14.489  1.00  0.00    -0.274 N 
ATOM      4  C   UNL     1       6.745   9.798 -14.900  1.00  0.00     0.321 C 
ATOM      5  O   UNL     1       6.022  10.624 -14.333  1.00  0.00    -0.248 OA
ATOM      6  N   UNL     1       7.544  10.214 -15.900  1.00  0.00    -0.334 N 
ATOM      7  H   UNL     1       5.922   8.442 -13.802  1.00  0.00     0.175 HD
ATOM      8  H   UNL     1       7.425  11.188 -16.137  1.00  0.00     0.165 HD
ENDROOT
BRANCH   1   9
ATOM      9  C   UNL     1       6.489   6.088 -14.274  1.00  0.00     0.040 A 
ATOM     10  C   UNL     1       6.606   5.822 -12.908  1.00  0.00     0.014 A 
ATOM     11  C   UNL     1       5.912   4.744 -12.359  1.00  0.00     0.004 A 
ATOM     12  C   UNL     1       5.732   5.250 -15.099  1.00  0.00     0.014 A 
ATOM     13  C   UNL     1       5.108   3.927 -13.169  1.00  0.00    -0.051 A 
ATOM     14  C   UNL     1       5.035   4.178 -14.545  1.00  0.00     0.004 A 
ATOM     15  C   UNL     1       4.301   2.824 -12.550  1.00  0.00     0.044 C 
ENDBRANCH   1   9
BRANCH   6  16
ATOM     16  C   UNL     1       8.377   9.409 -16.749  1.00  0.00     0.153 C 
BRANCH  16  17
ATOM     17  C   UNL     1       9.861   9.638 -16.676  1.00  0.00    -0.029 A 
ATOM     18  C   UNL     1      10.627   9.326 -15.548  1.00  0.00     0.006 A 
ATOM     19  C   UNL     1      10.518   9.980 -17.869  1.00  0.00     0.006 A 
ATOM     20  C   UNL     1      12.023   9.335 -15.626  1.00  0.00     0.004 A 
ATOM     21  C   UNL     1      11.907   9.983 -17.946  1.00  0.00     0.004 A 
ATOM     22  C   UNL     1      12.672   9.650 -16.827  1.00  0.00    -0.051 A 
ATOM     23  C   UNL     1      14.161   9.523 -16.957  1.00  0.00     0.044 C 
ENDBRANCH  16  17
ENDBRANCH   6  16
TORSDOF 3
ENDMDL
MODEL 8
REMARK VINA RESULT:    -5.082      5.358      8.673
REMARK INTER + INTRA:          -6.363
REMARK INTER:                  -5.909
REMARK INTRA:                  -0.454
REMARK UNBOUND:                -0.389
REMARK SMILES Cc1ccc(CNC(=O)NC(=O)c2ccc(C)cc2)cc1
REMARK SMILES IDX 11 1 12 2 10 3 8 4 9 5 7 6 13 9 19 10 18 11 14 12 16 13
REMARK SMILES IDX 15 14 17 15 6 16 5 17 4 18 20 19 3 20 21 21 2 22 1 23
REMARK H PARENT 10 7 7 8
ROOT
ATOM      1  C   UNL     1       6.726   7.082 -16.169  1.00  0.00     0.259 C 
ATOM      2  O   UNL     1       7.661   6.726 -16.872  1.00  0.00    -0.269 OA
ATOM      3  N   UNL     1       5.970   8.256 -16.245  1.00  0.00    -0.274 N 
ATOM      4  C   UNL     1       5.768   9.275 -17.141  1.00  0.00     0.321 C 
ATOM      5  O   UNL     1       4.882  10.097 -16.885  1.00  0.00    -0.248 OA
ATOM      6  N   UNL     1       6.461   9.406 -18.288  1.00  0.00    -0.334 N 
ATOM      7  H   UNL     1       5.256   8.340 -15.534  1.00  0.00     0.175 HD
ATOM      8  H   UNL     1       6.133  10.158 -18.877  1.00  0.00     0.165 HD
ENDROOT
BRANCH   1   9
ATOM      9  C   UNL     1       6.322   6.159 -15.091  1.00  0.00     0.040 A 
ATOM     10  C   UNL     1       6.672   6.396 -13.760  1.00  0.00     0.014 A 
ATOM     11  C   UNL     1       6.222   5.524 -12.769  1.00  0.00     0.004 A 
ATOM     12  C   UNL     1       5.579   5.027 -15.439  1.00  0.00     0.014 A 
ATOM     13  C   UNL     1       5.432   4.413 -13.102  1.00  0.00    -0.051 A 
ATOM     14  C   UNL     1       5.126   4.162 -14.445  1.00  0.00     0.004 A 
ATOM     15  C   UNL     1       4.886   3.532 -12.017  1.00  0.00     0.044 C 
ENDBRANCH   1   9
BRANCH   6  16
ATOM     16  C   UNL     1       7.451   8.513 -18.820  1.00  0.00     0.153 C 
BRANCH  16  17
ATOM     17  C   UNL     1       8.872   9.001 -18.856  1.00  0.00    -0.029 A 
ATOM     18  C   UNL     1       9.250  10.281 -18.437  1.00  0.00     0.006 A 
ATOM     19  C   UNL     1       9.872   8.053 -19.125  1.00  0.00     0.006 A 
ATOM     20  C   UNL     1      10.604  10.591 -18.268  1.00  0.00     0.004 A 
ATOM     21  C   UNL     1      11.218   8.360 -18.952  1.00  0.00     0.004 A 
ATOM     22  C   UNL     1      11.595   9.630 -18.512  1.00  0.00    -0.051 A 
ATOM     23  C   UNL     1      13.035   9.909 -18.197  1.00  0.00     0.044 C 
ENDBRANCH  16  17
ENDBRANCH   6  16
TORSDOF 3
ENDMDL
MODEL 9
REMARK VINA RESULT:    -4.604      4.867      7.799
REMARK INTER + INTRA:          -5.801
REMARK INTER:                  -5.231
REMARK INTRA:                  -0.570
REMARK UNBOUND:                -0.389
REMARK SMILES Cc1ccc(CNC(=O)NC(=O)c2ccc(C)cc2)cc1
REMARK SMILES IDX 11 1 12 2 10 3 8 4 9 5 7 6 13 9 19 10 18 11 14 12 16 13
REMARK SMILES IDX 15 14 17 15 6 16 5 17 4 18 20 19 3 20 21 21 2 22 1 23
REMARK H PARENT 10 7 7 8
ROOT
ATOM      1  C   UNL     1       6.300   6.901 -15.347  1.00  0.00     0.259 C 
ATOM      2  O   UNL     1       6.497   7.967 -14.780  1.00  0.00    -0.269 OA
ATOM      3  N   UNL     1       6.381   6.607 -16.711  1.00  0.00    -0.274 N 
ATOM      4  C   UNL     1       6.885   7.191 -17.845  1.00  0.00     0.321 C 
ATOM      5  O   UNL     1       6.877   6.524 -18.885  1.00  0.00    -0.248 OA
ATOM      6  N   UNL     1       7.411   8.430 -17.874  1.00  0.00    -0.334 N 
ATOM      7  H   UNL     1       6.151   5.651 -16.946  1.00  0.00     0.175 HD
ATOM      8  H   UNL     1       7.816   8.679 -18.765  1.00  0.00     0.165 HD
ENDROOT
BRANCH   1   9
ATOM      9  C   UNL     1       5.929   5.757 -14.491  1.00  0.00     0.040 A 
ATOM     10  C   UNL     1       6.233   5.738 -13.129  1.00  0.00     0.014 A 
ATOM     11  C   UNL     1       5.815   4.659 -12.350  1.00  0.00     0.004 A 
ATOM     12  C   UNL     1       5.266   4.680 -15.087  1.00  0.00     0.014 A 
ATOM     13  C   UNL     1       5.104   3.596 -12.928  1.00  0.00    -0.051 A 
ATOM     14  C   UNL     1       4.845   3.606 -14.304  1.00  0.00     0.004 A 
ATOM     15  C   UNL     1       4.589   2.484 -12.063  1.00  0.00     0.044 C 
ENDBRANCH   1   9
BRANCH   6  16
ATOM     16  C   UNL     1       7.609   9.323 -16.768  1.00  0.00     0.153 C 
BRANCH  16  17
ATOM     17  C   UNL     1       9.026   9.591 -16.343  1.00  0.00    -0.029 A 
ATOM     18  C   UNL     1       9.683   8.845 -15.360  1.00  0.00     0.006 A 
ATOM     19  C   UNL     1       9.771  10.492 -17.122  1.00  0.00     0.006 A 
ATOM     20  C   UNL     1      11.064   8.983 -15.181  1.00  0.00     0.004 A 
ATOM     21  C   UNL     1      11.145  10.624 -16.947  1.00  0.00     0.004 A 
ATOM     22  C   UNL     1      11.805   9.863 -15.981  1.00  0.00    -0.051 A 
ATOM     23  C   UNL     1      13.301   9.912 -15.893  1.00  0.00     0.044 C 
ENDBRANCH  16  17
ENDBRANCH   6  16
TORSDOF 3
ENDMDL
