MODEL 1
REMARK VINA RESULT:    -4.098      0.000      0.000
REMARK INTER + INTRA:          -5.639
REMARK INTER:                  -5.416
REMARK INTRA:                  -0.222
REMARK UNBOUND:                -0.222
REMARK SMILES [H]/N=C\C[C@H]1C[C@@H]1O[C@H]1CO[C@H]2C[C@@H](C3CC3)CCN2C1
REMARK SMILES IDX 7 1 6 2 5 3 8 4 9 5 14 6 13 7 18 8 12 9 19 10 20 11 11 12
REMARK SMILES IDX 21 13 10 14 15 15 16 16 17 17 4 18 3 19 2 20 1 21
REMARK H PARENT
ROOT
ATOM      1  C   UNL     1      11.670   5.832  -2.094  1.00  0.00     0.122 C 
ATOM      2  C   UNL     1      12.412   6.802  -2.969  1.00  0.00     0.039 C 
ATOM      3  C   UNL     1      11.714   7.291  -1.732  1.00  0.00     0.026 C 
ENDROOT
BRANCH   1   4
ATOM      4  O   UNL     1      10.441   5.346  -2.667  1.00  0.00    -0.371 OA
BRANCH   4   5
ATOM      5  C   UNL     1      10.588   4.460  -3.788  1.00  0.00     0.158 C 
ATOM      6  C   UNL     1       6.804   1.070  -2.607  1.00  0.00    -0.003 C 
ATOM      7  C   UNL     1       8.196   1.397  -2.055  1.00  0.00     0.052 C 
ATOM      8  C   UNL     1       6.162   2.351  -3.157  1.00  0.00     0.019 C 
ATOM      9  C   UNL     1       9.059   2.136  -3.087  1.00  0.00     0.189 C 
ATOM     10  C   UNL     1       7.084   3.055  -4.152  1.00  0.00     0.087 C 
ATOM     11  N   UNL     1       8.382   3.349  -3.544  1.00  0.00    -0.276 NA
ATOM     12  O   UNL     1      10.304   2.425  -2.447  1.00  0.00    -0.360 OA
ATOM     13  C   UNL     1       9.249   4.102  -4.458  1.00  0.00     0.121 C 
ATOM     14  C   UNL     1      11.208   3.153  -3.284  1.00  0.00     0.195 C 
BRANCH   6  15
ATOM     15  C   UNL     1       5.921   0.446  -1.550  1.00  0.00    -0.008 C 
ATOM     16  C   UNL     1       5.222  -0.867  -1.816  1.00  0.00     0.004 C 
ATOM     17  C   UNL     1       6.349  -0.808  -0.826  1.00  0.00     0.004 C 
ENDBRANCH   6  15
ENDBRANCH   4   5
ENDBRANCH   1   4
BRANCH   3  18
ATOM     18  C   UNL     1      12.538   7.757  -0.569  1.00  0.00     0.053 C 
BRANCH  18  19
ATOM     19  C   UNL     1      13.604   8.777  -0.874  1.00  0.00     0.074 C 
BRANCH  19  20
ATOM     20  N   UNL     1      13.484  10.057  -0.749  1.00  0.00    -0.313 NA
ATOM     21  H   UNL     1      13.380  10.519  -1.664  1.00  0.00     0.186 HD
ENDBRANCH  19  20
ENDBRANCH  18  19
ENDBRANCH   3  18
TORSDOF 6
ENDMDL
MODEL 2
REMARK VINA RESULT:    -4.087      3.317      5.527
REMARK INTER + INTRA:          -5.624
REMARK INTER:                  -5.401
REMARK INTRA:                  -0.223
REMARK UNBOUND:                -0.222
REMARK SMILES [H]/N=C\C[C@H]1C[C@@H]1O[C@H]1CO[C@H]2C[C@@H](C3CC3)CCN2C1
REMARK SMILES IDX 7 1 6 2 5 3 8 4 9 5 14 6 13 7 18 8 12 9 19 10 20 11 11 12
REMARK SMILES IDX 21 13 10 14 15 15 16 16 17 17 4 18 3 19 2 20 1 21
REMARK H PARENT
ROOT
ATOM      1  C   UNL     1      12.586   1.809  -4.674  1.00  0.00     0.122 C 
ATOM      2  C   UNL     1      13.962   1.487  -4.162  1.00  0.00     0.039 C 
ATOM      3  C   UNL     1      13.311   0.589  -5.174  1.00  0.00     0.026 C 
ENDROOT
BRANCH   1   4
ATOM      4  O   UNL     1      11.536   1.587  -3.714  1.00  0.00    -0.371 OA
BRANCH   4   5
ATOM      5  C   UNL     1      11.495   2.511  -2.615  1.00  0.00     0.158 C 
ATOM      6  C   UNL     1       6.319   2.892  -2.102  1.00  0.00    -0.003 C 
ATOM      7  C   UNL     1       7.361   3.381  -3.115  1.00  0.00     0.052 C 
ATOM      8  C   UNL     1       6.774   1.549  -1.514  1.00  0.00     0.019 C 
ATOM      9  C   UNL     1       8.773   3.407  -2.513  1.00  0.00     0.189 C 
ATOM     10  C   UNL     1       8.197   1.634  -0.963  1.00  0.00     0.087 C 
ATOM     11  N   UNL     1       9.131   2.088  -1.994  1.00  0.00    -0.276 NA
ATOM     12  O   UNL     1       9.654   3.830  -3.556  1.00  0.00    -0.360 OA
ATOM     13  C   UNL     1      10.515   2.091  -1.506  1.00  0.00     0.121 C 
ATOM     14  C   UNL     1      11.025   3.867  -3.150  1.00  0.00     0.195 C 
BRANCH   6  15
ATOM     15  C   UNL     1       4.951   2.759  -2.733  1.00  0.00    -0.008 C 
ATOM     16  C   UNL     1       3.750   3.421  -2.099  1.00  0.00     0.004 C 
ATOM     17  C   UNL     1       4.289   3.941  -3.400  1.00  0.00     0.004 C 
ENDBRANCH   6  15
ENDBRANCH   4   5
ENDBRANCH   1   4
BRANCH   3  18
ATOM     18  C   UNL     1      13.855   0.553  -6.571  1.00  0.00     0.053 C 
BRANCH  18  19
ATOM     19  C   UNL     1      15.343   0.352  -6.701  1.00  0.00     0.074 C 
BRANCH  19  20
ATOM     20  N   UNL     1      15.932  -0.746  -7.041  1.00  0.00    -0.313 NA
ATOM     21  H   UNL     1      16.090  -0.792  -8.058  1.00  0.00     0.186 HD
ENDBRANCH  19  20
ENDBRANCH  18  19
ENDBRANCH   3  18
TORSDOF 6
ENDMDL
MODEL 3
REMARK VINA RESULT:    -3.858      2.714      8.705
REMARK INTER + INTRA:          -5.321
REMARK INTER:                  -5.140
REMARK INTRA:                  -0.181
REMARK UNBOUND:                -0.222
REMARK SMILES [H]/N=C\C[C@H]1C[C@@H]1O[C@H]1CO[C@H]2C[C@@H](C3CC3)CCN2C1
REMARK SMILES IDX 7 1 6 2 5 3 8 4 9 5 14 6 13 7 18 8 12 9 19 10 20 11 11 12
REMARK SMILES IDX 21 13 10 14 15 15 16 16 17 17 4 18 3 19 2 20 1 21
REMARK H PARENT
ROOT
ATOM      1  C   UNL     1      10.878   3.902  -2.837  1.00  0.00     0.122 C 
ATOM      2  C   UNL     1      11.479   2.571  -3.190  1.00  0.00     0.039 C 
ATOM      3  C   UNL     1      10.776   2.750  -1.875  1.00  0.00     0.026 C 
ENDROOT
BRANCH   1   4
ATOM      4  O   UNL     1      11.847   4.920  -2.524  1.00  0.00    -0.371 OA
BRANCH   4   5
ATOM      5  C   UNL     1      11.507   6.251  -2.945  1.00  0.00     0.158 C 
ATOM      6  C   UNL     1      15.076   8.880  -0.197  1.00  0.00    -0.003 C 
ATOM      7  C   UNL     1      13.783   8.121   0.124  1.00  0.00     0.052 C 
ATOM      8  C   UNL     1      15.768   8.218  -1.396  1.00  0.00     0.019 C 
ATOM      9  C   UNL     1      12.886   7.973  -1.112  1.00  0.00     0.189 C 
ATOM     10  C   UNL     1      14.814   8.069  -2.580  1.00  0.00     0.087 C 
ATOM     11  N   UNL     1      13.618   7.319  -2.198  1.00  0.00    -0.276 NA
ATOM     12  O   UNL     1      11.746   7.217  -0.702  1.00  0.00    -0.360 OA
ATOM     13  C   UNL     1      12.731   7.093  -3.345  1.00  0.00     0.121 C 
ATOM     14  C   UNL     1      10.828   6.963  -1.770  1.00  0.00     0.195 C 
BRANCH   6  15
ATOM     15  C   UNL     1      16.005   8.923   0.995  1.00  0.00    -0.008 C 
ATOM     16  C   UNL     1      16.884  10.128   1.236  1.00  0.00     0.004 C 
ATOM     17  C   UNL     1      15.731   9.849   2.156  1.00  0.00     0.004 C 
ENDBRANCH   6  15
ENDBRANCH   4   5
ENDBRANCH   1   4
BRANCH   3  18
ATOM     18  C   UNL     1       9.461   2.064  -1.654  1.00  0.00     0.053 C 
BRANCH  18  19
ATOM     19  C   UNL     1       9.202   1.554  -0.260  1.00  0.00     0.074 C 
BRANCH  19  20
ATOM     20  N   UNL     1      10.095   1.121   0.566  1.00  0.00    -0.313 NA
ATOM     21  H   UNL     1       9.743   0.332   1.126  1.00  0.00     0.186 HD
ENDBRANCH  19  20
ENDBRANCH  18  19
ENDBRANCH   3  18
TORSDOF 6
ENDMDL
MODEL 4
REMARK VINA RESULT:    -3.854      5.280      8.524
REMARK INTER + INTRA:          -5.316
REMARK INTER:                  -5.153
REMARK INTRA:                  -0.163
REMARK UNBOUND:                -0.222
REMARK SMILES [H]/N=C\C[C@H]1C[C@@H]1O[C@H]1CO[C@H]2C[C@@H](C3CC3)CCN2C1
REMARK SMILES IDX 7 1 6 2 5 3 8 4 9 5 14 6 13 7 18 8 12 9 19 10 20 11 11 12
REMARK SMILES IDX 21 13 10 14 15 15 16 16 17 17 4 18 3 19 2 20 1 21
REMARK H PARENT
ROOT
ATOM      1  C   UNL     1      11.040   2.917  -3.476  1.00  0.00     0.122 C 
ATOM      2  C   UNL     1      10.823   4.370  -3.156  1.00  0.00     0.039 C 
ATOM      3  C   UNL     1       9.988   3.702  -4.210  1.00  0.00     0.026 C 
ENDROOT
BRANCH   1   4
ATOM      4  O   UNL     1      12.262   2.650  -4.191  1.00  0.00    -0.371 OA
BRANCH   4   5
ATOM      5  C   UNL     1      12.936   1.433  -3.832  1.00  0.00     0.158 C 
ATOM      6  C   UNL     1      16.243   1.155  -7.856  1.00  0.00    -0.003 C 
ATOM      7  C   UNL     1      14.735   0.957  -7.658  1.00  0.00     0.052 C 
ATOM      8  C   UNL     1      16.747   2.226  -6.879  1.00  0.00     0.019 C 
ATOM      9  C   UNL     1      14.385   0.678  -6.190  1.00  0.00     0.189 C 
ATOM     10  C   UNL     1      16.336   1.907  -5.441  1.00  0.00     0.087 C 
ATOM     11  N   UNL     1      14.886   1.753  -5.333  1.00  0.00    -0.276 NA
ATOM     12  O   UNL     1      12.962   0.559  -6.125  1.00  0.00    -0.360 OA
ATOM     13  C   UNL     1      14.468   1.533  -3.944  1.00  0.00     0.121 C 
ATOM     14  C   UNL     1      12.480   0.333  -4.797  1.00  0.00     0.195 C 
BRANCH   6  15
ATOM     15  C   UNL     1      16.569   1.541  -9.281  1.00  0.00    -0.008 C 
ATOM     16  C   UNL     1      17.888   1.138  -9.899  1.00  0.00     0.004 C 
ATOM     17  C   UNL     1      16.615   0.500 -10.374  1.00  0.00     0.004 C 
ENDBRANCH   6  15
ENDBRANCH   4   5
ENDBRANCH   1   4
BRANCH   3  18
ATOM     18  C   UNL     1       8.534   3.456  -3.937  1.00  0.00     0.053 C 
BRANCH  18  19
ATOM     19  C   UNL     1       7.590   3.697  -5.086  1.00  0.00     0.074 C 
BRANCH  19  20
ATOM     20  N   UNL     1       7.831   4.428  -6.123  1.00  0.00    -0.313 NA
ATOM     21  H   UNL     1       8.319   5.298  -5.869  1.00  0.00     0.186 HD
ENDBRANCH  19  20
ENDBRANCH  18  19
ENDBRANCH   3  18
TORSDOF 6
ENDMDL
MODEL 5
REMARK VINA RESULT:    -3.161      1.685      2.191
REMARK INTER + INTRA:          -4.399
REMARK INTER:                  -5.001
REMARK INTRA:                   0.602
REMARK UNBOUND:                -0.222
REMARK SMILES [H]/N=C\C[C@H]1C[C@@H]1O[C@H]1CO[C@H]2C[C@@H](C3CC3)CCN2C1
REMARK SMILES IDX 7 1 6 2 5 3 8 4 9 5 14 6 13 7 18 8 12 9 19 10 20 11 11 12
REMARK SMILES IDX 21 13 10 14 15 15 16 16 17 17 4 18 3 19 2 20 1 21
REMARK H PARENT
ROOT
ATOM      1  C   UNL     1      11.533   5.926  -2.486  1.00  0.00     0.122 C 
ATOM      2  C   UNL     1      10.658   7.104  -2.163  1.00  0.00     0.039 C 
ATOM      3  C   UNL     1      12.022   6.993  -1.545  1.00  0.00     0.026 C 
ENDROOT
BRANCH   1   4
ATOM      4  O   UNL     1      11.098   4.689  -1.888  1.00  0.00    -0.371 OA
BRANCH   4   5
ATOM      5  C   UNL     1      11.275   3.515  -2.697  1.00  0.00     0.158 C 
ATOM      6  C   UNL     1       6.258   2.486  -3.687  1.00  0.00    -0.003 C 
ATOM      7  C   UNL     1       7.180   2.383  -2.466  1.00  0.00     0.052 C 
ATOM      8  C   UNL     1       6.698   3.672  -4.557  1.00  0.00     0.019 C 
ATOM      9  C   UNL     1       8.660   2.348  -2.870  1.00  0.00     0.189 C 
ATOM     10  C   UNL     1       8.187   3.595  -4.895  1.00  0.00     0.087 C 
ATOM     11  N   UNL     1       8.996   3.519  -3.679  1.00  0.00    -0.276 NA
ATOM     12  O   UNL     1       9.414   2.300  -1.657  1.00  0.00    -0.360 OA
ATOM     13  C   UNL     1      10.431   3.533  -3.984  1.00  0.00     0.121 C 
ATOM     14  C   UNL     1      10.828   2.300  -1.876  1.00  0.00     0.195 C 
BRANCH   6  15
ATOM     15  C   UNL     1       4.810   2.635  -3.279  1.00  0.00    -0.008 C 
ATOM     16  C   UNL     1       4.453   3.211  -1.929  1.00  0.00     0.004 C 
ATOM     17  C   UNL     1       4.172   3.999  -3.175  1.00  0.00     0.004 C 
ENDBRANCH   6  15
ENDBRANCH   4   5
ENDBRANCH   1   4
BRANCH   3  18
ATOM     18  C   UNL     1      13.095   7.948  -1.976  1.00  0.00     0.053 C 
BRANCH  18  19
ATOM     19  C   UNL     1      13.973   8.500  -0.884  1.00  0.00     0.074 C 
BRANCH  19  20
ATOM     20  N   UNL     1      14.999   7.910  -0.367  1.00  0.00    -0.313 NA
ATOM     21  H   UNL     1      15.511   8.532   0.276  1.00  0.00     0.186 HD
ENDBRANCH  19  20
ENDBRANCH  18  19
ENDBRANCH   3  18
TORSDOF 6
ENDMDL
MODEL 6
REMARK VINA RESULT:    -3.039      3.374      5.266
REMARK INTER + INTRA:          -4.239
REMARK INTER:                  -4.592
REMARK INTRA:                   0.353
REMARK UNBOUND:                -0.222
REMARK SMILES [H]/N=C\C[C@H]1C[C@@H]1O[C@H]1CO[C@H]2C[C@@H](C3CC3)CCN2C1
REMARK SMILES IDX 7 1 6 2 5 3 8 4 9 5 14 6 13 7 18 8 12 9 19 10 20 11 11 12
REMARK SMILES IDX 21 13 10 14 15 15 16 16 17 17 4 18 3 19 2 20 1 21
REMARK H PARENT
ROOT
ATOM      1  C   UNL     1      12.821   1.931  -4.755  1.00  0.00     0.122 C 
ATOM      2  C   UNL     1      13.713   0.949  -4.049  1.00  0.00     0.039 C 
ATOM      3  C   UNL     1      13.175   0.626  -5.414  1.00  0.00     0.026 C 
ENDROOT
BRANCH   1   4
ATOM      4  O   UNL     1      11.499   2.033  -4.193  1.00  0.00    -0.371 OA
BRANCH   4   5
ATOM      5  C   UNL     1      11.250   3.207  -3.403  1.00  0.00     0.158 C 
ATOM      6  C   UNL     1       6.755   1.732  -1.205  1.00  0.00    -0.003 C 
ATOM      7  C   UNL     1       7.202   2.169  -2.606  1.00  0.00     0.052 C 
ATOM      8  C   UNL     1       7.907   0.989  -0.514  1.00  0.00     0.019 C 
ATOM      9  C   UNL     1       8.518   2.957  -2.564  1.00  0.00     0.189 C 
ATOM     10  C   UNL     1       9.195   1.812  -0.537  1.00  0.00     0.087 C 
ATOM     11  N   UNL     1       9.562   2.172  -1.907  1.00  0.00    -0.276 NA
ATOM     12  O   UNL     1       8.852   3.266  -3.919  1.00  0.00    -0.360 OA
ATOM     13  C   UNL     1      10.843   2.887  -1.953  1.00  0.00     0.121 C 
ATOM     14  C   UNL     1      10.089   3.975  -4.043  1.00  0.00     0.195 C 
BRANCH   6  15
ATOM     15  C   UNL     1       5.521   0.861  -1.263  1.00  0.00    -0.008 C 
ATOM     16  C   UNL     1       4.253   1.374  -1.905  1.00  0.00     0.004 C 
ATOM     17  C   UNL     1       5.041   0.285  -2.573  1.00  0.00     0.004 C 
ENDBRANCH   6  15
ENDBRANCH   4   5
ENDBRANCH   1   4
BRANCH   3  18
ATOM     18  C   UNL     1      14.118   0.599  -6.579  1.00  0.00     0.053 C 
BRANCH  18  19
ATOM     19  C   UNL     1      15.582   0.480  -6.248  1.00  0.00     0.074 C 
BRANCH  19  20
ATOM     20  N   UNL     1      16.397  -0.401  -6.725  1.00  0.00    -0.313 NA
ATOM     21  H   UNL     1      16.321  -0.474  -7.750  1.00  0.00     0.186 HD
ENDBRANCH  19  20
ENDBRANCH  18  19
ENDBRANCH   3  18
TORSDOF 6
ENDMDL
MODEL 7
REMARK VINA RESULT:    -2.842      8.746     10.163
REMARK INTER + INTRA:          -3.979
REMARK INTER:                  -3.487
REMARK INTRA:                  -0.492
REMARK UNBOUND:                -0.222
REMARK SMILES [H]/N=C\C[C@H]1C[C@@H]1O[C@H]1CO[C@H]2C[C@@H](C3CC3)CCN2C1
REMARK SMILES IDX 7 1 6 2 5 3 8 4 9 5 14 6 13 7 18 8 12 9 19 10 20 11 11 12
REMARK SMILES IDX 21 13 10 14 15 15 16 16 17 17 4 18 3 19 2 20 1 21
REMARK H PARENT
ROOT
ATOM      1  C   UNL     1      15.808  11.294  -0.096  1.00  0.00     0.122 C 
ATOM      2  C   UNL     1      14.372  11.664   0.150  1.00  0.00     0.039 C 
ATOM      3  C   UNL     1      14.761  10.219   0.015  1.00  0.00     0.026 C 
ENDROOT
BRANCH   1   4
ATOM      4  O   UNL     1      16.274  11.605  -1.423  1.00  0.00    -0.371 OA
BRANCH   4   5
ATOM      5  C   UNL     1      17.696  11.521  -1.616  1.00  0.00     0.158 C 
ATOM      6  C   UNL     1      17.864   7.032  -4.266  1.00  0.00    -0.003 C 
ATOM      7  C   UNL     1      17.589   7.441  -2.814  1.00  0.00     0.052 C 
ATOM      8  C   UNL     1      17.371   8.141  -5.207  1.00  0.00     0.019 C 
ATOM      9  C   UNL     1      18.157   8.830  -2.495  1.00  0.00     0.189 C 
ATOM     10  C   UNL     1      17.945   9.502  -4.815  1.00  0.00     0.087 C 
ATOM     11  N   UNL     1      17.623   9.825  -3.425  1.00  0.00    -0.276 NA
ATOM     12  O   UNL     1      17.801   9.116  -1.141  1.00  0.00    -0.360 OA
ATOM     13  C   UNL     1      18.092  11.167  -3.060  1.00  0.00     0.121 C 
ATOM     14  C   UNL     1      18.234  10.410  -0.709  1.00  0.00     0.195 C 
BRANCH   6  15
ATOM     15  C   UNL     1      17.205   5.715  -4.607  1.00  0.00    -0.008 C 
ATOM     16  C   UNL     1      17.885   4.739  -5.539  1.00  0.00     0.004 C 
ATOM     17  C   UNL     1      17.759   4.414  -4.079  1.00  0.00     0.004 C 
ENDBRANCH   6  15
ENDBRANCH   4   5
ENDBRANCH   1   4
BRANCH   3  18
ATOM     18  C   UNL     1      14.711   9.337   1.227  1.00  0.00     0.053 C 
BRANCH  18  19
ATOM     19  C   UNL     1      14.949   7.868   0.991  1.00  0.00     0.074 C 
BRANCH  19  20
ATOM     20  N   UNL     1      16.080   7.324   0.686  1.00  0.00    -0.313 NA
ATOM     21  H   UNL     1      16.083   6.315   0.891  1.00  0.00     0.186 HD
ENDBRANCH  19  20
ENDBRANCH  18  19
ENDBRANCH   3  18
TORSDOF 6
ENDMDL
MODEL 8
REMARK VINA RESULT:    -2.735      3.577      8.905
REMARK INTER + INTRA:          -3.837
REMARK INTER:                  -3.853
REMARK INTRA:                   0.017
REMARK UNBOUND:                -0.222
REMARK SMILES [H]/N=C\C[C@H]1C[C@@H]1O[C@H]1CO[C@H]2C[C@@H](C3CC3)CCN2C1
REMARK SMILES IDX 7 1 6 2 5 3 8 4 9 5 14 6 13 7 18 8 12 9 19 10 20 11 11 12
REMARK SMILES IDX 21 13 10 14 15 15 16 16 17 17 4 18 3 19 2 20 1 21
REMARK H PARENT
ROOT
ATOM      1  C   UNL     1      11.087   3.860  -2.493  1.00  0.00     0.122 C 
ATOM      2  C   UNL     1      10.498   4.004  -3.868  1.00  0.00     0.039 C 
ATOM      3  C   UNL     1      11.639   3.055  -3.637  1.00  0.00     0.026 C 
ENDROOT
BRANCH   1   4
ATOM      4  O   UNL     1      11.867   4.994  -2.067  1.00  0.00    -0.371 OA
BRANCH   4   5
ATOM      5  C   UNL     1      11.516   6.250  -2.671  1.00  0.00     0.158 C 
ATOM      6  C   UNL     1      15.226   9.217  -0.518  1.00  0.00    -0.003 C 
ATOM      7  C   UNL     1      13.944   8.534  -0.028  1.00  0.00     0.052 C 
ATOM      8  C   UNL     1      15.859   8.370  -1.631  1.00  0.00     0.019 C 
ATOM      9  C   UNL     1      12.991   8.212  -1.186  1.00  0.00     0.189 C 
ATOM     10  C   UNL     1      14.850   8.056  -2.736  1.00  0.00     0.087 C 
ATOM     11  N   UNL     1      13.667   7.390  -2.190  1.00  0.00    -0.276 NA
ATOM     12  O   UNL     1      11.865   7.542  -0.615  1.00  0.00    -0.360 OA
ATOM     13  C   UNL     1      12.727   7.003  -3.249  1.00  0.00     0.121 C 
ATOM     14  C   UNL     1      10.897   7.142  -1.590  1.00  0.00     0.195 C 
BRANCH   6  15
ATOM     15  C   UNL     1      16.209   9.429   0.611  1.00  0.00    -0.008 C 
ATOM     16  C   UNL     1      16.638  10.824   0.999  1.00  0.00     0.004 C 
ATOM     17  C   UNL     1      15.763  10.028   1.923  1.00  0.00     0.004 C 
ENDBRANCH   6  15
ENDBRANCH   4   5
ENDBRANCH   1   4
BRANCH   3  18
ATOM     18  C   UNL     1      11.384   1.580  -3.715  1.00  0.00     0.053 C 
BRANCH  18  19
ATOM     19  C   UNL     1      12.464   0.750  -4.359  1.00  0.00     0.074 C 
BRANCH  19  20
ATOM     20  N   UNL     1      12.881   0.862  -5.576  1.00  0.00    -0.313 NA
ATOM     21  H   UNL     1      13.905   0.766  -5.637  1.00  0.00     0.186 HD
ENDBRANCH  19  20
ENDBRANCH  18  19
ENDBRANCH   3  18
TORSDOF 6
ENDMDL
MODEL 9
REMARK VINA RESULT:    -2.619      5.828      8.766
REMARK INTER + INTRA:          -3.684
REMARK INTER:                  -4.066
REMARK INTRA:                   0.382
REMARK UNBOUND:                -0.222
REMARK SMILES [H]/N=C\C[C@H]1C[C@@H]1O[C@H]1CO[C@H]2C[C@@H](C3CC3)CCN2C1
REMARK SMILES IDX 7 1 6 2 5 3 8 4 9 5 14 6 13 7 18 8 12 9 19 10 20 11 11 12
REMARK SMILES IDX 21 13 10 14 15 15 16 16 17 17 4 18 3 19 2 20 1 21
REMARK H PARENT
ROOT
ATOM      1  C   UNL     1      17.166  10.407  -2.658  1.00  0.00     0.122 C 
ATOM      2  C   UNL     1      18.295  10.468  -3.649  1.00  0.00     0.039 C 
ATOM      3  C   UNL     1      17.647   9.151  -3.333  1.00  0.00     0.026 C 
ENDROOT
BRANCH   1   4
ATOM      4  O   UNL     1      17.574  10.601  -1.291  1.00  0.00    -0.371 OA
BRANCH   4   5
ATOM      5  C   UNL     1      16.657  11.341  -0.470  1.00  0.00     0.158 C 
ATOM      6  C   UNL     1      12.716   7.924  -0.422  1.00  0.00    -0.003 C 
ATOM      7  C   UNL     1      13.330   8.878  -1.454  1.00  0.00     0.052 C 
ATOM      8  C   UNL     1      13.817   7.418   0.520  1.00  0.00     0.019 C 
ATOM      9  C   UNL     1      14.144   9.995  -0.785  1.00  0.00     0.189 C 
ATOM     10  C   UNL     1      14.611   8.576   1.125  1.00  0.00     0.087 C 
ATOM     11  N   UNL     1      15.178   9.425   0.078  1.00  0.00    -0.276 NA
ATOM     12  O   UNL     1      14.699  10.783  -1.839  1.00  0.00    -0.360 OA
ATOM     13  C   UNL     1      16.015  10.491   0.641  1.00  0.00     0.121 C 
ATOM     14  C   UNL     1      15.523  11.852  -1.364  1.00  0.00     0.195 C 
BRANCH   6  15
ATOM     15  C   UNL     1      12.012   6.764  -1.088  1.00  0.00    -0.008 C 
ATOM     16  C   UNL     1      10.719   6.983  -1.837  1.00  0.00     0.004 C 
ATOM     17  C   UNL     1      11.971   6.645  -2.593  1.00  0.00     0.004 C 
ENDBRANCH   6  15
ENDBRANCH   4   5
ENDBRANCH   1   4
BRANCH   3  18
ATOM     18  C   UNL     1      16.804   8.486  -4.380  1.00  0.00     0.053 C 
BRANCH  18  19
ATOM     19  C   UNL     1      16.342   7.085  -4.073  1.00  0.00     0.074 C 
BRANCH  19  20
ATOM     20  N   UNL     1      15.651   6.327  -4.857  1.00  0.00    -0.313 NA
ATOM     21  H   UNL     1      16.252   5.812  -5.515  1.00  0.00     0.186 HD
ENDBRANCH  19  20
ENDBRANCH  18  19
ENDBRANCH   3  18
TORSDOF 6
ENDMDL
