MODEL 1
REMARK VINA RESULT:    -5.742      0.000      0.000
REMARK INTER + INTRA:          -7.119
REMARK INTER:                  -6.749
REMARK INTRA:                  -0.370
REMARK UNBOUND:                -0.370
REMARK SMILES Cc1ccc(CNC(=O)NC(=O)c2ccc(C)cc2)cc1
REMARK SMILES IDX 11 1 12 2 10 3 8 4 9 5 7 6 13 9 19 10 18 11 14 12 16 13
REMARK SMILES IDX 15 14 17 15 6 16 5 17 4 18 20 19 3 20 21 21 2 22 1 23
REMARK H PARENT 10 7 7 8
ROOT
ATOM      1  C   UNL     1       9.322   2.773  -2.913  1.00  0.00     0.259 C 
ATOM      2  O   UNL     1       9.699   1.624  -3.095  1.00  0.00    -0.269 OA
ATOM      3  N   UNL     1      10.089   3.935  -2.779  1.00  0.00    -0.274 N 
ATOM      4  C   UNL     1      11.383   4.326  -3.007  1.00  0.00     0.321 C 
ATOM      5  O   UNL     1      11.650   5.527  -2.882  1.00  0.00    -0.248 OA
ATOM      6  N   UNL     1      12.361   3.482  -3.385  1.00  0.00    -0.334 N 
ATOM      7  H   UNL     1       9.549   4.774  -2.612  1.00  0.00     0.175 HD
ATOM      8  H   UNL     1      13.236   3.940  -3.595  1.00  0.00     0.165 HD
ENDROOT
BRANCH   1   9
ATOM      9  C   UNL     1       7.864   2.984  -2.825  1.00  0.00     0.040 A 
ATOM     10  C   UNL     1       7.210   3.041  -1.593  1.00  0.00     0.014 A 
ATOM     11  C   UNL     1       5.839   3.295  -1.558  1.00  0.00     0.004 A 
ATOM     12  C   UNL     1       7.147   3.120  -4.017  1.00  0.00     0.014 A 
ATOM     13  C   UNL     1       5.119   3.484  -2.747  1.00  0.00    -0.051 A 
ATOM     14  C   UNL     1       5.778   3.380  -3.977  1.00  0.00     0.004 A 
ATOM     15  C   UNL     1       3.662   3.841  -2.689  1.00  0.00     0.044 C 
ENDBRANCH   1   9
BRANCH   6  16
ATOM     16  C   UNL     1      12.243   2.082  -3.683  1.00  0.00     0.153 C 
BRANCH  16  17
ATOM     17  C   UNL     1      13.341   1.455  -4.496  1.00  0.00    -0.029 A 
ATOM     18  C   UNL     1      13.103   0.707  -5.653  1.00  0.00     0.006 A 
ATOM     19  C   UNL     1      14.661   1.821  -4.184  1.00  0.00     0.006 A 
ATOM     20  C   UNL     1      14.166   0.357  -6.492  1.00  0.00     0.004 A 
ATOM     21  C   UNL     1      15.717   1.477  -5.022  1.00  0.00     0.004 A 
ATOM     22  C   UNL     1      15.478   0.750  -6.189  1.00  0.00    -0.051 A 
ATOM     23  C   UNL     1      16.600   0.502  -7.152  1.00  0.00     0.044 C 
ENDBRANCH  16  17
ENDBRANCH   6  16
TORSDOF 3
ENDMDL
MODEL 2
REMARK VINA RESULT:    -5.738      3.172      5.421
REMARK INTER + INTRA:          -7.114
REMARK INTER:                  -6.741
REMARK INTRA:                  -0.373
REMARK UNBOUND:                -0.370
REMARK SMILES Cc1ccc(CNC(=O)NC(=O)c2ccc(C)cc2)cc1
REMARK SMILES IDX 11 1 12 2 10 3 8 4 9 5 7 6 13 9 19 10 18 11 14 12 16 13
REMARK SMILES IDX 15 14 17 15 6 16 5 17 4 18 20 19 3 20 21 21 2 22 1 23
REMARK H PARENT 10 7 7 8
ROOT
ATOM      1  C   UNL     1       9.268   2.993  -2.806  1.00  0.00     0.259 C 
ATOM      2  O   UNL     1       8.937   4.162  -2.665  1.00  0.00    -0.269 OA
ATOM      3  N   UNL     1      10.483   2.477  -3.267  1.00  0.00    -0.274 N 
ATOM      4  C   UNL     1      11.756   2.932  -3.496  1.00  0.00     0.321 C 
ATOM      5  O   UNL     1      12.619   2.099  -3.791  1.00  0.00    -0.248 OA
ATOM      6  N   UNL     1      12.115   4.225  -3.386  1.00  0.00    -0.334 N 
ATOM      7  H   UNL     1      10.515   1.467  -3.317  1.00  0.00     0.175 HD
ATOM      8  H   UNL     1      13.106   4.383  -3.503  1.00  0.00     0.165 HD
ENDROOT
BRANCH   1   9
ATOM      9  C   UNL     1       8.266   1.974  -2.440  1.00  0.00     0.040 A 
ATOM     10  C   UNL     1       7.395   1.436  -3.389  1.00  0.00     0.014 A 
ATOM     11  C   UNL     1       6.499   0.437  -3.006  1.00  0.00     0.004 A 
ATOM     12  C   UNL     1       8.205   1.563  -1.105  1.00  0.00     0.014 A 
ATOM     13  C   UNL     1       6.466  -0.020  -1.680  1.00  0.00    -0.051 A 
ATOM     14  C   UNL     1       7.313   0.560  -0.728  1.00  0.00     0.004 A 
ATOM     15  C   UNL     1       5.557  -1.153  -1.303  1.00  0.00     0.044 C 
ENDBRANCH   1   9
BRANCH   6  16
ATOM     16  C   UNL     1      11.300   5.327  -2.959  1.00  0.00     0.153 C 
BRANCH  16  17
ATOM     17  C   UNL     1      12.008   6.556  -2.459  1.00  0.00    -0.029 A 
ATOM     18  C   UNL     1      11.756   7.127  -1.208  1.00  0.00     0.006 A 
ATOM     19  C   UNL     1      13.111   7.009  -3.202  1.00  0.00     0.006 A 
ATOM     20  C   UNL     1      12.609   8.115  -0.704  1.00  0.00     0.004 A 
ATOM     21  C   UNL     1      13.961   7.988  -2.698  1.00  0.00     0.004 A 
ATOM     22  C   UNL     1      13.723   8.543  -1.439  1.00  0.00    -0.051 A 
ATOM     23  C   UNL     1      14.719   9.495  -0.847  1.00  0.00     0.044 C 
ENDBRANCH  16  17
ENDBRANCH   6  16
TORSDOF 3
ENDMDL
MODEL 3
REMARK VINA RESULT:    -5.322      2.953      7.578
REMARK INTER + INTRA:          -6.625
REMARK INTER:                  -6.146
REMARK INTRA:                  -0.479
REMARK UNBOUND:                -0.370
REMARK SMILES Cc1ccc(CNC(=O)NC(=O)c2ccc(C)cc2)cc1
REMARK SMILES IDX 11 1 12 2 10 3 8 4 9 5 7 6 13 9 19 10 18 11 14 12 16 13
REMARK SMILES IDX 15 14 17 15 6 16 5 17 4 18 20 19 3 20 21 21 2 22 1 23
REMARK H PARENT 10 7 7 8
ROOT
ATOM      1  C   UNL     1      11.275   5.582  -2.754  1.00  0.00     0.259 C 
ATOM      2  O   UNL     1      10.095   5.864  -2.905  1.00  0.00    -0.269 OA
ATOM      3  N   UNL     1      11.912   4.352  -2.942  1.00  0.00    -0.274 N 
ATOM      4  C   UNL     1      11.632   3.146  -3.531  1.00  0.00     0.321 C 
ATOM      5  O   UNL     1      12.547   2.318  -3.605  1.00  0.00    -0.248 OA
ATOM      6  N   UNL     1      10.432   2.834  -4.055  1.00  0.00    -0.334 N 
ATOM      7  H   UNL     1      12.901   4.358  -2.732  1.00  0.00     0.175 HD
ATOM      8  H   UNL     1      10.414   1.941  -4.528  1.00  0.00     0.165 HD
ENDROOT
BRANCH   1   9
ATOM      9  C   UNL     1      12.165   6.677  -2.321  1.00  0.00     0.040 A 
ATOM     10  C   UNL     1      11.966   7.340  -1.108  1.00  0.00     0.014 A 
ATOM     11  C   UNL     1      12.865   8.332  -0.716  1.00  0.00     0.004 A 
ATOM     12  C   UNL     1      13.218   7.040  -3.165  1.00  0.00     0.014 A 
ATOM     13  C   UNL     1      13.955   8.669  -1.533  1.00  0.00    -0.051 A 
ATOM     14  C   UNL     1      14.117   8.028  -2.767  1.00  0.00     0.004 A 
ATOM     15  C   UNL     1      14.960   9.678  -1.059  1.00  0.00     0.044 C 
ENDBRANCH   1   9
BRANCH   6  16
ATOM     16  C   UNL     1       9.278   3.680  -4.165  1.00  0.00     0.153 C 
BRANCH  16  17
ATOM     17  C   UNL     1       8.006   3.200  -3.523  1.00  0.00    -0.029 A 
ATOM     18  C   UNL     1       6.781   3.152  -4.197  1.00  0.00     0.006 A 
ATOM     19  C   UNL     1       8.114   2.582  -2.266  1.00  0.00     0.006 A 
ATOM     20  C   UNL     1       5.696   2.476  -3.629  1.00  0.00     0.004 A 
ATOM     21  C   UNL     1       7.035   1.906  -1.705  1.00  0.00     0.004 A 
ATOM     22  C   UNL     1       5.819   1.838  -2.387  1.00  0.00    -0.051 A 
ATOM     23  C   UNL     1       4.708   0.993  -1.840  1.00  0.00     0.044 C 
ENDBRANCH  16  17
ENDBRANCH   6  16
TORSDOF 3
ENDMDL
MODEL 4
REMARK VINA RESULT:    -5.296      0.974      8.012
REMARK INTER + INTRA:          -6.594
REMARK INTER:                  -6.110
REMARK INTRA:                  -0.484
REMARK UNBOUND:                -0.370
REMARK SMILES Cc1ccc(CNC(=O)NC(=O)c2ccc(C)cc2)cc1
REMARK SMILES IDX 11 1 12 2 10 3 8 4 9 5 7 6 13 9 19 10 18 11 14 12 16 13
REMARK SMILES IDX 15 14 17 15 6 16 5 17 4 18 20 19 3 20 21 21 2 22 1 23
REMARK H PARENT 10 7 7 8
ROOT
ATOM      1  C   UNL     1      12.300   1.880  -3.979  1.00  0.00     0.259 C 
ATOM      2  O   UNL     1      11.521   1.006  -3.624  1.00  0.00    -0.269 OA
ATOM      3  N   UNL     1      12.229   3.259  -3.759  1.00  0.00    -0.274 N 
ATOM      4  C   UNL     1      11.525   4.122  -2.959  1.00  0.00     0.321 C 
ATOM      5  O   UNL     1      11.861   5.311  -2.964  1.00  0.00    -0.248 OA
ATOM      6  N   UNL     1      10.517   3.737  -2.155  1.00  0.00    -0.334 N 
ATOM      7  H   UNL     1      12.986   3.786  -4.172  1.00  0.00     0.175 HD
ATOM      8  H   UNL     1      10.160   4.477  -1.568  1.00  0.00     0.165 HD
ENDROOT
BRANCH   1   9
ATOM      9  C   UNL     1      13.484   1.438  -4.742  1.00  0.00     0.040 A 
ATOM     10  C   UNL     1      13.360   0.642  -5.882  1.00  0.00     0.014 A 
ATOM     11  C   UNL     1      14.504   0.294  -6.600  1.00  0.00     0.004 A 
ATOM     12  C   UNL     1      14.745   1.835  -4.285  1.00  0.00     0.014 A 
ATOM     13  C   UNL     1      15.770   0.730  -6.180  1.00  0.00    -0.051 A 
ATOM     14  C   UNL     1      15.884   1.489  -5.009  1.00  0.00     0.004 A 
ATOM     15  C   UNL     1      16.980   0.418  -7.009  1.00  0.00     0.044 C 
ENDBRANCH   1   9
BRANCH   6  16
ATOM     16  C   UNL     1      10.042   2.402  -1.923  1.00  0.00     0.153 C 
BRANCH  16  17
ATOM     17  C   UNL     1       8.565   2.162  -2.062  1.00  0.00    -0.029 A 
ATOM     18  C   UNL     1       7.789   1.572  -1.058  1.00  0.00     0.006 A 
ATOM     19  C   UNL     1       7.918   2.749  -3.162  1.00  0.00     0.006 A 
ATOM     20  C   UNL     1       6.393   1.596  -1.147  1.00  0.00     0.004 A 
ATOM     21  C   UNL     1       6.530   2.776  -3.246  1.00  0.00     0.004 A 
ATOM     22  C   UNL     1       5.754   2.208  -2.234  1.00  0.00    -0.051 A 
ATOM     23  C   UNL     1       4.263   2.363  -2.266  1.00  0.00     0.044 C 
ENDBRANCH  16  17
ENDBRANCH   6  16
TORSDOF 3
ENDMDL
MODEL 5
REMARK VINA RESULT:    -4.827      8.278     10.710
REMARK INTER + INTRA:          -6.044
REMARK INTER:                  -5.561
REMARK INTRA:                  -0.483
REMARK UNBOUND:                -0.370
REMARK SMILES Cc1ccc(CNC(=O)NC(=O)c2ccc(C)cc2)cc1
REMARK SMILES IDX 11 1 12 2 10 3 8 4 9 5 7 6 13 9 19 10 18 11 14 12 16 13
REMARK SMILES IDX 15 14 17 15 6 16 5 17 4 18 20 19 3 20 21 21 2 22 1 23
REMARK H PARENT 10 7 7 8
ROOT
ATOM      1  C   UNL     1      14.542   9.171  -0.907  1.00  0.00     0.259 C 
ATOM      2  O   UNL     1      15.355   8.694  -0.128  1.00  0.00    -0.269 OA
ATOM      3  N   UNL     1      14.395  10.501  -1.312  1.00  0.00    -0.274 N 
ATOM      4  C   UNL     1      15.119  11.665  -1.254  1.00  0.00     0.321 C 
ATOM      5  O   UNL     1      14.685  12.642  -1.872  1.00  0.00    -0.248 OA
ATOM      6  N   UNL     1      16.282  11.784  -0.588  1.00  0.00    -0.334 N 
ATOM      7  H   UNL     1      13.629  10.660  -1.954  1.00  0.00     0.175 HD
ATOM      8  H   UNL     1      16.733  12.679  -0.713  1.00  0.00     0.165 HD
ENDROOT
BRANCH   1   9
ATOM      9  C   UNL     1      13.580   8.232  -1.516  1.00  0.00     0.040 A 
ATOM     10  C   UNL     1      13.801   7.682  -2.780  1.00  0.00     0.014 A 
ATOM     11  C   UNL     1      12.890   6.758  -3.292  1.00  0.00     0.004 A 
ATOM     12  C   UNL     1      12.428   7.910  -0.792  1.00  0.00     0.014 A 
ATOM     13  C   UNL     1      11.757   6.389  -2.551  1.00  0.00    -0.051 A 
ATOM     14  C   UNL     1      11.524   6.982  -1.304  1.00  0.00     0.004 A 
ATOM     15  C   UNL     1      10.832   5.331  -3.078  1.00  0.00     0.044 C 
ENDBRANCH   1   9
BRANCH   6  16
ATOM     16  C   UNL     1      17.007  10.754   0.102  1.00  0.00     0.153 C 
BRANCH  16  17
ATOM     17  C   UNL     1      17.437  11.041   1.514  1.00  0.00    -0.029 A 
ATOM     18  C   UNL     1      18.038  12.243   1.899  1.00  0.00     0.006 A 
ATOM     19  C   UNL     1      17.021  10.141   2.508  1.00  0.00     0.006 A 
ATOM     20  C   UNL     1      18.194  12.544   3.257  1.00  0.00     0.004 A 
ATOM     21  C   UNL     1      17.172  10.444   3.858  1.00  0.00     0.004 A 
ATOM     22  C   UNL     1      17.751  11.654   4.244  1.00  0.00    -0.051 A 
ATOM     23  C   UNL     1      17.784  12.031   5.695  1.00  0.00     0.044 C 
ENDBRANCH  16  17
ENDBRANCH   6  16
TORSDOF 3
ENDMDL
MODEL 6
REMARK VINA RESULT:    -4.226      4.921      7.248
REMARK INTER + INTRA:          -5.337
REMARK INTER:                  -4.904
REMARK INTRA:                  -0.433
REMARK UNBOUND:                -0.370
REMARK SMILES Cc1ccc(CNC(=O)NC(=O)c2ccc(C)cc2)cc1
REMARK SMILES IDX 11 1 12 2 10 3 8 4 9 5 7 6 13 9 19 10 18 11 14 12 16 13
REMARK SMILES IDX 15 14 17 15 6 16 5 17 4 18 20 19 3 20 21 21 2 22 1 23
REMARK H PARENT 10 7 7 8
ROOT
ATOM      1  C   UNL     1      11.592   6.014  -2.558  1.00  0.00     0.259 C 
ATOM      2  O   UNL     1      11.189   6.838  -1.750  1.00  0.00    -0.269 OA
ATOM      3  N   UNL     1      12.729   6.068  -3.371  1.00  0.00    -0.274 N 
ATOM      4  C   UNL     1      13.879   6.811  -3.457  1.00  0.00     0.321 C 
ATOM      5  O   UNL     1      14.737   6.447  -4.268  1.00  0.00    -0.248 OA
ATOM      6  N   UNL     1      14.129   7.886  -2.687  1.00  0.00    -0.334 N 
ATOM      7  H   UNL     1      12.845   5.269  -3.980  1.00  0.00     0.175 HD
ATOM      8  H   UNL     1      15.055   8.269  -2.813  1.00  0.00     0.165 HD
ENDROOT
BRANCH   1   9
ATOM      9  C   UNL     1      10.787   4.786  -2.707  1.00  0.00     0.040 A 
ATOM     10  C   UNL     1      10.965   3.692  -1.859  1.00  0.00     0.014 A 
ATOM     11  C   UNL     1      10.145   2.573  -2.004  1.00  0.00     0.004 A 
ATOM     12  C   UNL     1       9.838   4.744  -3.732  1.00  0.00     0.014 A 
ATOM     13  C   UNL     1       9.154   2.541  -2.997  1.00  0.00    -0.051 A 
ATOM     14  C   UNL     1       9.016   3.627  -3.870  1.00  0.00     0.004 A 
ATOM     15  C   UNL     1       8.224   1.367  -3.087  1.00  0.00     0.044 C 
ENDBRANCH   1   9
BRANCH   6  16
ATOM     16  C   UNL     1      13.320   8.409  -1.623  1.00  0.00     0.153 C 
BRANCH  16  17
ATOM     17  C   UNL     1      14.030   8.869  -0.379  1.00  0.00    -0.029 A 
ATOM     18  C   UNL     1      14.617   7.988   0.535  1.00  0.00     0.006 A 
ATOM     19  C   UNL     1      14.285  10.245  -0.256  1.00  0.00     0.006 A 
ATOM     20  C   UNL     1      15.463   8.479   1.535  1.00  0.00     0.004 A 
ATOM     21  C   UNL     1      15.131  10.731   0.736  1.00  0.00     0.004 A 
ATOM     22  C   UNL     1      15.736   9.850   1.634  1.00  0.00    -0.051 A 
ATOM     23  C   UNL     1      16.750  10.367   2.610  1.00  0.00     0.044 C 
ENDBRANCH  16  17
ENDBRANCH   6  16
TORSDOF 3
ENDMDL
MODEL 7
REMARK VINA RESULT:    -4.196      2.329      4.124
REMARK INTER + INTRA:          -5.302
REMARK INTER:                  -4.868
REMARK INTRA:                  -0.434
REMARK UNBOUND:                -0.370
REMARK SMILES Cc1ccc(CNC(=O)NC(=O)c2ccc(C)cc2)cc1
REMARK SMILES IDX 11 1 12 2 10 3 8 4 9 5 7 6 13 9 19 10 18 11 14 12 16 13
REMARK SMILES IDX 15 14 17 15 6 16 5 17 4 18 20 19 3 20 21 21 2 22 1 23
REMARK H PARENT 10 7 7 8
ROOT
ATOM      1  C   UNL     1      12.711   1.676  -4.190  1.00  0.00     0.259 C 
ATOM      2  O   UNL     1      12.624   0.695  -4.915  1.00  0.00    -0.269 OA
ATOM      3  N   UNL     1      13.858   2.371  -3.792  1.00  0.00    -0.274 N 
ATOM      4  C   UNL     1      15.177   2.444  -4.159  1.00  0.00     0.321 C 
ATOM      5  O   UNL     1      15.873   3.316  -3.627  1.00  0.00    -0.248 OA
ATOM      6  N   UNL     1      15.738   1.642  -5.083  1.00  0.00    -0.334 N 
ATOM      7  H   UNL     1      13.680   3.145  -3.166  1.00  0.00     0.175 HD
ATOM      8  H   UNL     1      16.695   1.880  -5.301  1.00  0.00     0.165 HD
ENDROOT
BRANCH   1   9
ATOM      9  C   UNL     1      11.447   2.219  -3.657  1.00  0.00     0.040 A 
ATOM     10  C   UNL     1      10.659   3.097  -4.405  1.00  0.00     0.014 A 
ATOM     11  C   UNL     1       9.445   3.542  -3.880  1.00  0.00     0.004 A 
ATOM     12  C   UNL     1      11.057   1.834  -2.371  1.00  0.00     0.014 A 
ATOM     13  C   UNL     1       9.020   3.121  -2.611  1.00  0.00    -0.051 A 
ATOM     14  C   UNL     1       9.841   2.276  -1.854  1.00  0.00     0.004 A 
ATOM     15  C   UNL     1       7.675   3.540  -2.097  1.00  0.00     0.044 C 
ENDBRANCH   1   9
BRANCH   6  16
ATOM     16  C   UNL     1      15.089   0.644  -5.886  1.00  0.00     0.153 C 
BRANCH  16  17
ATOM     17  C   UNL     1      15.490   0.556  -7.333  1.00  0.00    -0.029 A 
ATOM     18  C   UNL     1      15.093   1.493  -8.293  1.00  0.00     0.006 A 
ATOM     19  C   UNL     1      16.471  -0.390  -7.672  1.00  0.00     0.006 A 
ATOM     20  C   UNL     1      15.689   1.493  -9.559  1.00  0.00     0.004 A 
ATOM     21  C   UNL     1      17.066  -0.385  -8.930  1.00  0.00     0.004 A 
ATOM     22  C   UNL     1      16.688   0.563  -9.881  1.00  0.00    -0.051 A 
ATOM     23  C   UNL     1      17.430   0.647 -11.181  1.00  0.00     0.044 C 
ENDBRANCH  16  17
ENDBRANCH   6  16
TORSDOF 3
ENDMDL
MODEL 8
REMARK VINA RESULT:    -4.124      3.828      7.825
REMARK INTER + INTRA:          -5.217
REMARK INTER:                  -4.804
REMARK INTRA:                  -0.413
REMARK UNBOUND:                -0.370
REMARK SMILES Cc1ccc(CNC(=O)NC(=O)c2ccc(C)cc2)cc1
REMARK SMILES IDX 11 1 12 2 10 3 8 4 9 5 7 6 13 9 19 10 18 11 14 12 16 13
REMARK SMILES IDX 15 14 17 15 6 16 5 17 4 18 20 19 3 20 21 21 2 22 1 23
REMARK H PARENT 10 7 7 8
ROOT
ATOM      1  C   UNL     1      10.651   4.811  -2.857  1.00  0.00     0.259 C 
ATOM      2  O   UNL     1      10.438   3.995  -1.970  1.00  0.00    -0.269 OA
ATOM      3  N   UNL     1      10.162   4.827  -4.167  1.00  0.00    -0.274 N 
ATOM      4  C   UNL     1       9.178   4.202  -4.889  1.00  0.00     0.321 C 
ATOM      5  O   UNL     1       8.966   4.606  -6.037  1.00  0.00    -0.248 OA
ATOM      6  N   UNL     1       8.420   3.202  -4.403  1.00  0.00    -0.334 N 
ATOM      7  H   UNL     1      10.498   5.599  -4.727  1.00  0.00     0.175 HD
ATOM      8  H   UNL     1       7.684   2.908  -5.029  1.00  0.00     0.165 HD
ENDROOT
BRANCH   1   9
ATOM      9  C   UNL     1      11.538   5.940  -2.516  1.00  0.00     0.040 A 
ATOM     10  C   UNL     1      11.340   6.698  -1.361  1.00  0.00     0.014 A 
ATOM     11  C   UNL     1      12.236   7.723  -1.054  1.00  0.00     0.004 A 
ATOM     12  C   UNL     1      12.586   6.239  -3.392  1.00  0.00     0.014 A 
ATOM     13  C   UNL     1      13.321   7.997  -1.899  1.00  0.00    -0.051 A 
ATOM     14  C   UNL     1      13.482   7.259  -3.078  1.00  0.00     0.004 A 
ATOM     15  C   UNL     1      14.323   9.045  -1.512  1.00  0.00     0.044 C 
ENDBRANCH   1   9
BRANCH   6  16
ATOM     16  C   UNL     1       8.433   2.659  -3.074  1.00  0.00     0.153 C 
BRANCH  16  17
ATOM     17  C   UNL     1       7.112   2.251  -2.483  1.00  0.00    -0.029 A 
ATOM     18  C   UNL     1       6.065   3.151  -2.258  1.00  0.00     0.006 A 
ATOM     19  C   UNL     1       6.863   0.874  -2.355  1.00  0.00     0.006 A 
ATOM     20  C   UNL     1       4.790   2.675  -1.935  1.00  0.00     0.004 A 
ATOM     21  C   UNL     1       5.593   0.402  -2.039  1.00  0.00     0.004 A 
ATOM     22  C   UNL     1       4.542   1.299  -1.836  1.00  0.00    -0.051 A 
ATOM     23  C   UNL     1       3.151   0.778  -1.632  1.00  0.00     0.044 C 
ENDBRANCH  16  17
ENDBRANCH   6  16
TORSDOF 3
ENDMDL
MODEL 9
REMARK VINA RESULT:    -3.981      1.855      8.164
REMARK INTER + INTRA:          -5.049
REMARK INTER:                  -4.649
REMARK INTRA:                  -0.399
REMARK UNBOUND:                -0.370
REMARK SMILES Cc1ccc(CNC(=O)NC(=O)c2ccc(C)cc2)cc1
REMARK SMILES IDX 11 1 12 2 10 3 8 4 9 5 7 6 13 9 19 10 18 11 14 12 16 13
REMARK SMILES IDX 15 14 17 15 6 16 5 17 4 18 20 19 3 20 21 21 2 22 1 23
REMARK H PARENT 10 7 7 8
ROOT
ATOM      1  C   UNL     1      11.404   2.168  -3.474  1.00  0.00     0.259 C 
ATOM      2  O   UNL     1      10.472   2.584  -4.148  1.00  0.00    -0.269 OA
ATOM      3  N   UNL     1      11.471   1.990  -2.088  1.00  0.00    -0.274 N 
ATOM      4  C   UNL     1      10.601   1.951  -1.028  1.00  0.00     0.321 C 
ATOM      5  O   UNL     1      11.055   1.623   0.074  1.00  0.00    -0.248 OA
ATOM      6  N   UNL     1       9.287   2.220  -1.134  1.00  0.00    -0.334 N 
ATOM      7  H   UNL     1      12.362   1.650  -1.754  1.00  0.00     0.175 HD
ATOM      8  H   UNL     1       8.770   2.063  -0.281  1.00  0.00     0.165 HD
ENDROOT
BRANCH   1   9
ATOM      9  C   UNL     1      12.630   1.792  -4.202  1.00  0.00     0.040 A 
ATOM     10  C   UNL     1      13.889   2.228  -3.784  1.00  0.00     0.014 A 
ATOM     11  C   UNL     1      15.024   1.804  -4.474  1.00  0.00     0.004 A 
ATOM     12  C   UNL     1      12.499   0.985  -5.337  1.00  0.00     0.014 A 
ATOM     13  C   UNL     1      14.907   0.952  -5.583  1.00  0.00    -0.051 A 
ATOM     14  C   UNL     1      13.636   0.558  -6.020  1.00  0.00     0.004 A 
ATOM     15  C   UNL     1      16.141   0.436  -6.263  1.00  0.00     0.044 C 
ENDBRANCH   1   9
BRANCH   6  16
ATOM     16  C   UNL     1       8.546   2.516  -2.328  1.00  0.00     0.153 C 
BRANCH  16  17
ATOM     17  C   UNL     1       7.129   2.020  -2.401  1.00  0.00    -0.029 A 
ATOM     18  C   UNL     1       6.786   0.668  -2.295  1.00  0.00     0.006 A 
ATOM     19  C   UNL     1       6.108   2.984  -2.363  1.00  0.00     0.006 A 
ATOM     20  C   UNL     1       5.448   0.296  -2.129  1.00  0.00     0.004 A 
ATOM     21  C   UNL     1       4.778   2.613  -2.193  1.00  0.00     0.004 A 
ATOM     22  C   UNL     1       4.437   1.266  -2.064  1.00  0.00    -0.051 A 
ATOM     23  C   UNL     1       3.022   0.885  -1.745  1.00  0.00     0.044 C 
ENDBRANCH  16  17
ENDBRANCH   6  16
TORSDOF 3
ENDMDL
