MODEL 1
REMARK VINA RESULT:    -6.259      0.000      0.000
REMARK INTER + INTRA:          -7.855
REMARK INTER:                  -7.356
REMARK INTRA:                  -0.499
REMARK UNBOUND:                -0.499
REMARK SMILES Cc1ccc(CNC(=O)NC(=O)c2ccc(C)cc2)cc1
REMARK SMILES IDX 11 1 12 2 10 3 8 4 9 5 7 6 13 9 19 10 18 11 14 12 16 13
REMARK SMILES IDX 15 14 17 15 6 16 5 17 4 18 20 19 3 20 21 21 2 22 1 23
REMARK H PARENT 10 7 7 8
ROOT
ATOM      1  C   UNL     1       4.125  10.025   5.740  1.00  0.00     0.259 C 
ATOM      2  O   UNL     1       4.415   9.084   5.015  1.00  0.00    -0.269 OA
ATOM      3  N   UNL     1       2.901  10.315   6.352  1.00  0.00    -0.274 N 
ATOM      4  C   UNL     1       1.718   9.669   6.607  1.00  0.00     0.321 C 
ATOM      5  O   UNL     1       0.892  10.248   7.321  1.00  0.00    -0.248 OA
ATOM      6  N   UNL     1       1.429   8.437   6.150  1.00  0.00    -0.334 N 
ATOM      7  H   UNL     1       2.897  11.169   6.893  1.00  0.00     0.175 HD
ATOM      8  H   UNL     1       0.555   8.069   6.498  1.00  0.00     0.165 HD
ENDROOT
BRANCH   1   9
ATOM      9  C   UNL     1       5.200  10.994   6.025  1.00  0.00     0.040 A 
ATOM     10  C   UNL     1       6.105  11.389   5.038  1.00  0.00     0.014 A 
ATOM     11  C   UNL     1       7.072  12.348   5.341  1.00  0.00     0.004 A 
ATOM     12  C   UNL     1       5.295  11.507   7.323  1.00  0.00     0.014 A 
ATOM     13  C   UNL     1       7.143  12.908   6.625  1.00  0.00    -0.051 A 
ATOM     14  C   UNL     1       6.258  12.470   7.619  1.00  0.00     0.004 A 
ATOM     15  C   UNL     1       8.132  13.999   6.911  1.00  0.00     0.044 C 
ENDBRANCH   1   9
BRANCH   6  16
ATOM     16  C   UNL     1       2.281   7.558   5.400  1.00  0.00     0.153 C 
BRANCH  16  17
ATOM     17  C   UNL     1       1.675   6.851   4.220  1.00  0.00    -0.029 A 
ATOM     18  C   UNL     1       1.038   5.610   4.318  1.00  0.00     0.006 A 
ATOM     19  C   UNL     1       1.569   7.575   3.021  1.00  0.00     0.006 A 
ATOM     20  C   UNL     1       0.289   5.120   3.243  1.00  0.00     0.004 A 
ATOM     21  C   UNL     1       0.820   7.089   1.954  1.00  0.00     0.004 A 
ATOM     22  C   UNL     1       0.165   5.861   2.059  1.00  0.00    -0.051 A 
ATOM     23  C   UNL     1      -0.750   5.412   0.959  1.00  0.00     0.044 C 
ENDBRANCH  16  17
ENDBRANCH   6  16
TORSDOF 3
ENDMDL
MODEL 2
REMARK VINA RESULT:    -6.258      3.061      5.562
REMARK INTER + INTRA:          -7.855
REMARK INTER:                  -7.355
REMARK INTRA:                  -0.499
REMARK UNBOUND:                -0.499
REMARK SMILES Cc1ccc(CNC(=O)NC(=O)c2ccc(C)cc2)cc1
REMARK SMILES IDX 11 1 12 2 10 3 8 4 9 5 7 6 13 9 19 10 18 11 14 12 16 13
REMARK SMILES IDX 15 14 17 15 6 16 5 17 4 18 20 19 3 20 21 21 2 22 1 23
REMARK H PARENT 10 7 7 8
ROOT
ATOM      1  C   UNL     1       0.655   9.575   6.916  1.00  0.00     0.259 C 
ATOM      2  O   UNL     1       0.122   8.695   6.255  1.00  0.00    -0.269 OA
ATOM      3  N   UNL     1       1.976  10.032   6.862  1.00  0.00    -0.274 N 
ATOM      4  C   UNL     1       3.051   9.924   6.018  1.00  0.00     0.321 C 
ATOM      5  O   UNL     1       4.045  10.615   6.265  1.00  0.00    -0.248 OA
ATOM      6  N   UNL     1       3.066   9.134   4.928  1.00  0.00    -0.334 N 
ATOM      7  H   UNL     1       2.193  10.761   7.529  1.00  0.00     0.175 HD
ATOM      8  H   UNL     1       3.899   9.233   4.365  1.00  0.00     0.165 HD
ENDROOT
BRANCH   1   9
ATOM      9  C   UNL     1      -0.194  10.262   7.908  1.00  0.00     0.040 A 
ATOM     10  C   UNL     1      -1.127   9.563   8.676  1.00  0.00     0.014 A 
ATOM     11  C   UNL     1      -1.870  10.248   9.639  1.00  0.00     0.004 A 
ATOM     12  C   UNL     1      -0.043  11.644   8.056  1.00  0.00     0.014 A 
ATOM     13  C   UNL     1      -1.690  11.626   9.831  1.00  0.00    -0.051 A 
ATOM     14  C   UNL     1      -0.783  12.323   9.023  1.00  0.00     0.004 A 
ATOM     15  C   UNL     1      -2.434  12.331  10.926  1.00  0.00     0.044 C 
ENDBRANCH   1   9
BRANCH   6  16
ATOM     16  C   UNL     1       1.991   8.337   4.409  1.00  0.00     0.153 C 
BRANCH  16  17
ATOM     17  C   UNL     1       2.317   6.935   3.976  1.00  0.00    -0.029 A 
ATOM     18  C   UNL     1       2.740   6.614   2.682  1.00  0.00     0.006 A 
ATOM     19  C   UNL     1       2.397   5.955   4.979  1.00  0.00     0.006 A 
ATOM     20  C   UNL     1       3.257   5.343   2.409  1.00  0.00     0.004 A 
ATOM     21  C   UNL     1       2.915   4.693   4.707  1.00  0.00     0.004 A 
ATOM     22  C   UNL     1       3.359   4.379   3.422  1.00  0.00    -0.051 A 
ATOM     23  C   UNL     1       4.041   3.067   3.171  1.00  0.00     0.044 C 
ENDBRANCH  16  17
ENDBRANCH   6  16
TORSDOF 3
ENDMDL
MODEL 3
REMARK VINA RESULT:    -6.230      3.189      7.240
REMARK INTER + INTRA:          -7.821
REMARK INTER:                  -7.430
REMARK INTRA:                  -0.391
REMARK UNBOUND:                -0.499
REMARK SMILES Cc1ccc(CNC(=O)NC(=O)c2ccc(C)cc2)cc1
REMARK SMILES IDX 11 1 12 2 10 3 8 4 9 5 7 6 13 9 19 10 18 11 14 12 16 13
REMARK SMILES IDX 15 14 17 15 6 16 5 17 4 18 20 19 3 20 21 21 2 22 1 23
REMARK H PARENT 10 7 7 8
ROOT
ATOM      1  C   UNL     1       1.961   7.868   5.038  1.00  0.00     0.259 C 
ATOM      2  O   UNL     1       0.744   7.983   5.086  1.00  0.00    -0.269 OA
ATOM      3  N   UNL     1       2.943   8.759   5.481  1.00  0.00    -0.274 N 
ATOM      4  C   UNL     1       3.015   9.873   6.278  1.00  0.00     0.321 C 
ATOM      5  O   UNL     1       4.138  10.316   6.544  1.00  0.00    -0.248 OA
ATOM      6  N   UNL     1       1.937  10.482   6.804  1.00  0.00    -0.334 N 
ATOM      7  H   UNL     1       3.892   8.452   5.312  1.00  0.00     0.175 HD
ATOM      8  H   UNL     1       2.164  11.236   7.437  1.00  0.00     0.165 HD
ENDROOT
BRANCH   1   9
ATOM      9  C   UNL     1       2.483   6.624   4.439  1.00  0.00     0.040 A 
ATOM     10  C   UNL     1       2.934   6.586   3.118  1.00  0.00     0.014 A 
ATOM     11  C   UNL     1       3.468   5.401   2.612  1.00  0.00     0.004 A 
ATOM     12  C   UNL     1       2.509   5.473   5.232  1.00  0.00     0.014 A 
ATOM     13  C   UNL     1       3.546   4.254   3.416  1.00  0.00    -0.051 A 
ATOM     14  C   UNL     1       3.049   4.293   4.724  1.00  0.00     0.004 A 
ATOM     15  C   UNL     1       4.201   3.013   2.885  1.00  0.00     0.044 C 
ENDBRANCH   1   9
BRANCH   6  16
ATOM     16  C   UNL     1       0.564  10.073   6.706  1.00  0.00     0.153 C 
BRANCH  16  17
ATOM     17  C   UNL     1      -0.361  10.493   7.814  1.00  0.00    -0.029 A 
ATOM     18  C   UNL     1      -1.092   9.583   8.585  1.00  0.00     0.006 A 
ATOM     19  C   UNL     1      -0.318  11.839   8.213  1.00  0.00     0.006 A 
ATOM     20  C   UNL     1      -1.742  10.013   9.747  1.00  0.00     0.004 A 
ATOM     21  C   UNL     1      -0.961  12.265   9.371  1.00  0.00     0.004 A 
ATOM     22  C   UNL     1      -1.671  11.353  10.154  1.00  0.00    -0.051 A 
ATOM     23  C   UNL     1      -2.244  11.791  11.468  1.00  0.00     0.044 C 
ENDBRANCH  16  17
ENDBRANCH   6  16
TORSDOF 3
ENDMDL
MODEL 4
REMARK VINA RESULT:    -6.210      0.554      7.986
REMARK INTER + INTRA:          -7.798
REMARK INTER:                  -7.413
REMARK INTRA:                  -0.385
REMARK UNBOUND:                -0.499
REMARK SMILES Cc1ccc(CNC(=O)NC(=O)c2ccc(C)cc2)cc1
REMARK SMILES IDX 11 1 12 2 10 3 8 4 9 5 7 6 13 9 19 10 18 11 14 12 16 13
REMARK SMILES IDX 15 14 17 15 6 16 5 17 4 18 20 19 3 20 21 21 2 22 1 23
REMARK H PARENT 10 7 7 8
ROOT
ATOM      1  C   UNL     1       2.331   8.031   4.761  1.00  0.00     0.259 C 
ATOM      2  O   UNL     1       3.546   7.909   4.693  1.00  0.00    -0.269 OA
ATOM      3  N   UNL     1       1.579   8.831   5.627  1.00  0.00    -0.274 N 
ATOM      4  C   UNL     1       1.797   9.876   6.487  1.00  0.00     0.321 C 
ATOM      5  O   UNL     1       0.808  10.420   6.991  1.00  0.00    -0.248 OA
ATOM      6  N   UNL     1       3.020  10.354   6.783  1.00  0.00    -0.334 N 
ATOM      7  H   UNL     1       0.578   8.748   5.507  1.00  0.00     0.175 HD
ATOM      8  H   UNL     1       3.005  11.180   7.364  1.00  0.00     0.165 HD
ENDROOT
BRANCH   1   9
ATOM      9  C   UNL     1       1.533   7.240   3.805  1.00  0.00     0.040 A 
ATOM     10  C   UNL     1       0.915   6.047   4.185  1.00  0.00     0.014 A 
ATOM     11  C   UNL     1       0.127   5.361   3.260  1.00  0.00     0.004 A 
ATOM     12  C   UNL     1       1.418   7.714   2.494  1.00  0.00     0.014 A 
ATOM     13  C   UNL     1      -0.038   5.856   1.958  1.00  0.00    -0.051 A 
ATOM     14  C   UNL     1       0.625   7.029   1.576  1.00  0.00     0.004 A 
ATOM     15  C   UNL     1      -0.955   5.152   1.002  1.00  0.00     0.044 C 
ENDBRANCH   1   9
BRANCH   6  16
ATOM     16  C   UNL     1       4.279   9.939   6.232  1.00  0.00     0.153 C 
BRANCH  16  17
ATOM     17  C   UNL     1       5.402  10.939   6.248  1.00  0.00    -0.029 A 
ATOM     18  C   UNL     1       6.090  11.332   5.095  1.00  0.00     0.006 A 
ATOM     19  C   UNL     1       5.613  11.650   7.440  1.00  0.00     0.006 A 
ATOM     20  C   UNL     1       6.953  12.433   5.136  1.00  0.00     0.004 A 
ATOM     21  C   UNL     1       6.467  12.748   7.478  1.00  0.00     0.004 A 
ATOM     22  C   UNL     1       7.137  13.155   6.323  1.00  0.00    -0.051 A 
ATOM     23  C   UNL     1       7.946  14.418   6.341  1.00  0.00     0.044 C 
ENDBRANCH  16  17
ENDBRANCH   6  16
TORSDOF 3
ENDMDL
MODEL 5
REMARK VINA RESULT:    -5.896      1.450      2.158
REMARK INTER + INTRA:          -7.428
REMARK INTER:                  -6.921
REMARK INTRA:                  -0.508
REMARK UNBOUND:                -0.499
REMARK SMILES Cc1ccc(CNC(=O)NC(=O)c2ccc(C)cc2)cc1
REMARK SMILES IDX 11 1 12 2 10 3 8 4 9 5 7 6 13 9 19 10 18 11 14 12 16 13
REMARK SMILES IDX 15 14 17 15 6 16 5 17 4 18 20 19 3 20 21 21 2 22 1 23
REMARK H PARENT 10 7 7 8
ROOT
ATOM      1  C   UNL     1       4.444  10.098   6.164  1.00  0.00     0.259 C 
ATOM      2  O   UNL     1       4.892   8.991   5.901  1.00  0.00    -0.269 OA
ATOM      3  N   UNL     1       3.117  10.472   6.397  1.00  0.00    -0.274 N 
ATOM      4  C   UNL     1       1.921   9.855   6.659  1.00  0.00     0.321 C 
ATOM      5  O   UNL     1       0.957  10.571   6.950  1.00  0.00    -0.248 OA
ATOM      6  N   UNL     1       1.754   8.519   6.645  1.00  0.00    -0.334 N 
ATOM      7  H   UNL     1       2.987  11.459   6.575  1.00  0.00     0.175 HD
ATOM      8  H   UNL     1       0.837   8.221   6.943  1.00  0.00     0.165 HD
ENDROOT
BRANCH   1   9
ATOM      9  C   UNL     1       5.420  11.201   6.257  1.00  0.00     0.040 A 
ATOM     10  C   UNL     1       5.668  11.854   7.465  1.00  0.00     0.014 A 
ATOM     11  C   UNL     1       6.638  12.855   7.515  1.00  0.00     0.004 A 
ATOM     12  C   UNL     1       6.091  11.584   5.091  1.00  0.00     0.014 A 
ATOM     13  C   UNL     1       7.354  13.211   6.362  1.00  0.00    -0.051 A 
ATOM     14  C   UNL     1       7.063  12.580   5.146  1.00  0.00     0.004 A 
ATOM     15  C   UNL     1       8.452  14.230   6.450  1.00  0.00     0.044 C 
ENDBRANCH   1   9
BRANCH   6  16
ATOM     16  C   UNL     1       2.757   7.513   6.437  1.00  0.00     0.153 C 
BRANCH  16  17
ATOM     17  C   UNL     1       2.573   6.588   5.266  1.00  0.00    -0.029 A 
ATOM     18  C   UNL     1       2.493   7.037   3.944  1.00  0.00     0.006 A 
ATOM     19  C   UNL     1       2.701   5.211   5.509  1.00  0.00     0.006 A 
ATOM     20  C   UNL     1       2.565   6.121   2.888  1.00  0.00     0.004 A 
ATOM     21  C   UNL     1       2.777   4.302   4.458  1.00  0.00     0.004 A 
ATOM     22  C   UNL     1       2.720   4.750   3.138  1.00  0.00    -0.051 A 
ATOM     23  C   UNL     1       2.941   3.782   2.015  1.00  0.00     0.044 C 
ENDBRANCH  16  17
ENDBRANCH   6  16
TORSDOF 3
ENDMDL
MODEL 6
REMARK VINA RESULT:    -5.872      2.955      5.378
REMARK INTER + INTRA:          -7.401
REMARK INTER:                  -6.893
REMARK INTRA:                  -0.507
REMARK UNBOUND:                -0.499
REMARK SMILES Cc1ccc(CNC(=O)NC(=O)c2ccc(C)cc2)cc1
REMARK SMILES IDX 11 1 12 2 10 3 8 4 9 5 7 6 13 9 19 10 18 11 14 12 16 13
REMARK SMILES IDX 15 14 17 15 6 16 5 17 4 18 20 19 3 20 21 21 2 22 1 23
REMARK H PARENT 10 7 7 8
ROOT
ATOM      1  C   UNL     1       0.411  10.062   6.925  1.00  0.00     0.259 C 
ATOM      2  O   UNL     1      -0.242   9.619   5.991  1.00  0.00    -0.269 OA
ATOM      3  N   UNL     1       1.800  10.156   7.055  1.00  0.00    -0.274 N 
ATOM      4  C   UNL     1       2.902  10.062   6.244  1.00  0.00     0.321 C 
ATOM      5  O   UNL     1       4.000  10.353   6.732  1.00  0.00    -0.248 OA
ATOM      6  N   UNL     1       2.844   9.702   4.948  1.00  0.00    -0.334 N 
ATOM      7  H   UNL     1       2.112  10.542   7.936  1.00  0.00     0.175 HD
ATOM      8  H   UNL     1       3.731   9.765   4.469  1.00  0.00     0.165 HD
ENDROOT
BRANCH   1   9
ATOM      9  C   UNL     1      -0.351  10.575   8.080  1.00  0.00     0.040 A 
ATOM     10  C   UNL     1      -0.341  11.931   8.414  1.00  0.00     0.014 A 
ATOM     11  C   UNL     1      -1.119  12.377   9.483  1.00  0.00     0.004 A 
ATOM     12  C   UNL     1      -1.084   9.661   8.842  1.00  0.00     0.014 A 
ATOM     13  C   UNL     1      -1.899  11.475  10.221  1.00  0.00    -0.051 A 
ATOM     14  C   UNL     1      -1.865  10.112   9.904  1.00  0.00     0.004 A 
ATOM     15  C   UNL     1      -2.796  11.983  11.313  1.00  0.00     0.044 C 
ENDBRANCH   1   9
BRANCH   6  16
ATOM     16  C   UNL     1       1.672   9.426   4.167  1.00  0.00     0.153 C 
BRANCH  16  17
ATOM     17  C   UNL     1       1.547   8.052   3.571  1.00  0.00    -0.029 A 
ATOM     18  C   UNL     1       1.549   6.883   4.339  1.00  0.00     0.006 A 
ATOM     19  C   UNL     1       1.206   7.970   2.211  1.00  0.00     0.006 A 
ATOM     20  C   UNL     1       1.190   5.662   3.757  1.00  0.00     0.004 A 
ATOM     21  C   UNL     1       0.845   6.756   1.634  1.00  0.00     0.004 A 
ATOM     22  C   UNL     1       0.824   5.593   2.406  1.00  0.00    -0.051 A 
ATOM     23  C   UNL     1       0.302   4.318   1.812  1.00  0.00     0.044 C 
ENDBRANCH  16  17
ENDBRANCH   6  16
TORSDOF 3
ENDMDL
MODEL 7
REMARK VINA RESULT:    -5.270      7.943     10.732
REMARK INTER + INTRA:          -6.693
REMARK INTER:                  -6.359
REMARK INTRA:                  -0.335
REMARK UNBOUND:                -0.499
REMARK SMILES Cc1ccc(CNC(=O)NC(=O)c2ccc(C)cc2)cc1
REMARK SMILES IDX 11 1 12 2 10 3 8 4 9 5 7 6 13 9 19 10 18 11 14 12 16 13
REMARK SMILES IDX 15 14 17 15 6 16 5 17 4 18 20 19 3 20 21 21 2 22 1 23
REMARK H PARENT 10 7 7 8
ROOT
ATOM      1  C   UNL     1      -1.960  11.991  11.310  1.00  0.00     0.259 C 
ATOM      2  O   UNL     1      -1.951  13.206  11.450  1.00  0.00    -0.269 OA
ATOM      3  N   UNL     1      -2.424  11.012  12.195  1.00  0.00    -0.274 N 
ATOM      4  C   UNL     1      -3.194  10.953  13.328  1.00  0.00     0.321 C 
ATOM      5  O   UNL     1      -3.498   9.834  13.757  1.00  0.00    -0.248 OA
ATOM      6  N   UNL     1      -3.655  12.041  13.972  1.00  0.00    -0.334 N 
ATOM      7  H   UNL     1      -2.306  10.063  11.865  1.00  0.00     0.175 HD
ATOM      8  H   UNL     1      -4.277  11.826  14.738  1.00  0.00     0.165 HD
ENDROOT
BRANCH   1   9
ATOM      9  C   UNL     1      -1.418  11.468  10.042  1.00  0.00     0.040 A 
ATOM     10  C   UNL     1      -0.718  12.289   9.156  1.00  0.00     0.014 A 
ATOM     11  C   UNL     1      -0.178  11.737   7.993  1.00  0.00     0.004 A 
ATOM     12  C   UNL     1      -1.631  10.118   9.743  1.00  0.00     0.014 A 
ATOM     13  C   UNL     1      -0.342  10.373   7.710  1.00  0.00    -0.051 A 
ATOM     14  C   UNL     1      -1.084   9.570   8.585  1.00  0.00     0.004 A 
ATOM     15  C   UNL     1       0.316   9.777   6.500  1.00  0.00     0.044 C 
ENDBRANCH   1   9
BRANCH   6  16
ATOM     16  C   UNL     1      -3.507  13.416  13.586  1.00  0.00     0.153 C 
BRANCH  16  17
ATOM     17  C   UNL     1      -4.643  14.046  12.830  1.00  0.00    -0.029 A 
ATOM     18  C   UNL     1      -4.664  15.398  12.471  1.00  0.00     0.006 A 
ATOM     19  C   UNL     1      -5.612  13.186  12.290  1.00  0.00     0.006 A 
ATOM     20  C   UNL     1      -5.624  15.868  11.569  1.00  0.00     0.004 A 
ATOM     21  C   UNL     1      -6.563  13.653  11.388  1.00  0.00     0.004 A 
ATOM     22  C   UNL     1      -6.571  14.997  11.012  1.00  0.00    -0.051 A 
ATOM     23  C   UNL     1      -7.509  15.462   9.938  1.00  0.00     0.044 C 
ENDBRANCH  16  17
ENDBRANCH   6  16
TORSDOF 3
ENDMDL
MODEL 8
REMARK VINA RESULT:    -4.784      3.040      7.430
REMARK INTER + INTRA:          -6.122
REMARK INTER:                  -5.563
REMARK INTRA:                  -0.559
REMARK UNBOUND:                -0.499
REMARK SMILES Cc1ccc(CNC(=O)NC(=O)c2ccc(C)cc2)cc1
REMARK SMILES IDX 11 1 12 2 10 3 8 4 9 5 7 6 13 9 19 10 18 11 14 12 16 13
REMARK SMILES IDX 15 14 17 15 6 16 5 17 4 18 20 19 3 20 21 21 2 22 1 23
REMARK H PARENT 10 7 7 8
ROOT
ATOM      1  C   UNL     1       1.201   9.982   6.953  1.00  0.00     0.259 C 
ATOM      2  O   UNL     1       1.576  10.877   6.209  1.00  0.00    -0.269 OA
ATOM      3  N   UNL     1       1.667   8.666   7.045  1.00  0.00    -0.274 N 
ATOM      4  C   UNL     1       2.748   7.942   6.612  1.00  0.00     0.321 C 
ATOM      5  O   UNL     1       2.868   6.786   7.032  1.00  0.00    -0.248 OA
ATOM      6  N   UNL     1       3.691   8.432   5.786  1.00  0.00    -0.334 N 
ATOM      7  H   UNL     1       1.182   8.099   7.728  1.00  0.00     0.175 HD
ATOM      8  H   UNL     1       4.464   7.802   5.632  1.00  0.00     0.165 HD
ENDROOT
BRANCH   1   9
ATOM      9  C   UNL     1       0.115  10.317   7.893  1.00  0.00     0.040 A 
ATOM     10  C   UNL     1      -0.734   9.334   8.405  1.00  0.00     0.014 A 
ATOM     11  C   UNL     1      -1.714   9.691   9.332  1.00  0.00     0.004 A 
ATOM     12  C   UNL     1      -0.050  11.657   8.256  1.00  0.00     0.014 A 
ATOM     13  C   UNL     1      -1.854  11.026   9.742  1.00  0.00    -0.051 A 
ATOM     14  C   UNL     1      -1.026  12.009   9.187  1.00  0.00     0.004 A 
ATOM     15  C   UNL     1      -2.855  11.380  10.802  1.00  0.00     0.044 C 
ENDBRANCH   1   9
BRANCH   6  16
ATOM     16  C   UNL     1       3.795   9.769   5.272  1.00  0.00     0.153 C 
BRANCH  16  17
ATOM     17  C   UNL     1       4.936  10.612   5.768  1.00  0.00    -0.029 A 
ATOM     18  C   UNL     1       5.903  11.163   4.920  1.00  0.00     0.006 A 
ATOM     19  C   UNL     1       4.895  11.026   7.109  1.00  0.00     0.006 A 
ATOM     20  C   UNL     1       6.792  12.128   5.406  1.00  0.00     0.004 A 
ATOM     21  C   UNL     1       5.776  11.989   7.589  1.00  0.00     0.004 A 
ATOM     22  C   UNL     1       6.727  12.556   6.739  1.00  0.00    -0.051 A 
ATOM     23  C   UNL     1       7.579  13.689   7.228  1.00  0.00     0.044 C 
ENDBRANCH  16  17
ENDBRANCH   6  16
TORSDOF 3
ENDMDL
MODEL 9
REMARK VINA RESULT:    -4.734      7.729     10.986
REMARK INTER + INTRA:          -6.063
REMARK INTER:                  -6.341
REMARK INTRA:                   0.278
REMARK UNBOUND:                -0.499
REMARK SMILES Cc1ccc(CNC(=O)NC(=O)c2ccc(C)cc2)cc1
REMARK SMILES IDX 11 1 12 2 10 3 8 4 9 5 7 6 13 9 19 10 18 11 14 12 16 13
REMARK SMILES IDX 15 14 17 15 6 16 5 17 4 18 20 19 3 20 21 21 2 22 1 23
REMARK H PARENT 10 7 7 8
ROOT
ATOM      1  C   UNL     1      -2.912  11.300  11.314  1.00  0.00     0.259 C 
ATOM      2  O   UNL     1      -2.390  11.489  12.404  1.00  0.00    -0.269 OA
ATOM      3  N   UNL     1      -4.268  11.342  10.973  1.00  0.00    -0.274 N 
ATOM      4  C   UNL     1      -5.439  11.791  11.529  1.00  0.00     0.321 C 
ATOM      5  O   UNL     1      -6.454  11.764  10.825  1.00  0.00    -0.248 OA
ATOM      6  N   UNL     1      -5.530  12.281  12.779  1.00  0.00    -0.334 N 
ATOM      7  H   UNL     1      -4.461  11.129  10.004  1.00  0.00     0.175 HD
ATOM      8  H   UNL     1      -6.442  12.648  13.006  1.00  0.00     0.165 HD
ENDROOT
BRANCH   1   9
ATOM      9  C   UNL     1      -2.005  10.990  10.192  1.00  0.00     0.040 A 
ATOM     10  C   UNL     1      -1.803   9.678   9.760  1.00  0.00     0.014 A 
ATOM     11  C   UNL     1      -0.977   9.439   8.662  1.00  0.00     0.004 A 
ATOM     12  C   UNL     1      -1.341  12.053   9.571  1.00  0.00     0.014 A 
ATOM     13  C   UNL     1      -0.346  10.504   8.000  1.00  0.00    -0.051 A 
ATOM     14  C   UNL     1      -0.521  11.811   8.471  1.00  0.00     0.004 A 
ATOM     15  C   UNL     1       0.470  10.239   6.769  1.00  0.00     0.044 C 
ENDBRANCH   1   9
BRANCH   6  16
ATOM     16  C   UNL     1      -4.463  12.494  13.716  1.00  0.00     0.153 C 
BRANCH  16  17
ATOM     17  C   UNL     1      -3.639  13.741  13.551  1.00  0.00    -0.029 A 
ATOM     18  C   UNL     1      -2.395  13.921  14.165  1.00  0.00     0.006 A 
ATOM     19  C   UNL     1      -4.052  14.661  12.573  1.00  0.00     0.006 A 
ATOM     20  C   UNL     1      -1.575  14.989  13.785  1.00  0.00     0.004 A 
ATOM     21  C   UNL     1      -3.233  15.719  12.193  1.00  0.00     0.004 A 
ATOM     22  C   UNL     1      -1.982  15.886  12.788  1.00  0.00    -0.051 A 
ATOM     23  C   UNL     1      -1.052  16.945  12.276  1.00  0.00     0.044 C 
ENDBRANCH  16  17
ENDBRANCH   6  16
TORSDOF 3
ENDMDL
