MODEL 1
REMARK VINA RESULT:    -4.389      0.000      0.000
REMARK INTER + INTRA:          -6.064
REMARK INTER:                  -5.801
REMARK INTRA:                  -0.263
REMARK UNBOUND:                -0.263
REMARK SMILES [H]/N=C\C[C@H]1C[C@@H]1O[C@H]1CO[C@H]2C[C@@H](C3CC3)CCN2C1
REMARK SMILES IDX 7 1 6 2 5 3 8 4 9 5 14 6 13 7 18 8 12 9 19 10 20 11 11 12
REMARK SMILES IDX 21 13 10 14 15 15 16 16 17 17 4 18 3 19 2 20 1 21
REMARK H PARENT
ROOT
ATOM      1  C   UNL     1      -4.327  14.805  12.559  1.00  0.00     0.122 C 
ATOM      2  C   UNL     1      -5.464  15.675  12.102  1.00  0.00     0.039 C 
ATOM      3  C   UNL     1      -5.390  14.243  11.656  1.00  0.00     0.026 C 
ENDROOT
BRANCH   1   4
ATOM      4  O   UNL     1      -3.062  15.123  11.947  1.00  0.00    -0.371 OA
BRANCH   4   5
ATOM      5  C   UNL     1      -1.905  14.564  12.589  1.00  0.00     0.158 C 
ATOM      6  C   UNL     1      -0.159  11.633   8.644  1.00  0.00    -0.003 C 
ATOM      7  C   UNL     1      -1.341  11.570   9.620  1.00  0.00     0.052 C 
ATOM      8  C   UNL     1       0.182  13.102   8.354  1.00  0.00     0.019 C 
ATOM      9  C   UNL     1      -1.087  12.413  10.877  1.00  0.00     0.189 C 
ATOM     10  C   UNL     1       0.388  13.892   9.646  1.00  0.00     0.087 C 
ATOM     11  N   UNL     1      -0.787  13.797  10.511  1.00  0.00    -0.276 NA
ATOM     12  O   UNL     1      -2.264  12.313  11.680  1.00  0.00    -0.360 OA
ATOM     13  C   UNL     1      -0.639  14.622  11.716  1.00  0.00     0.121 C 
ATOM     14  C   UNL     1      -2.190  13.087  12.882  1.00  0.00     0.195 C 
BRANCH   6  15
ATOM     15  C   UNL     1      -0.461  10.895   7.359  1.00  0.00    -0.008 C 
ATOM     16  C   UNL     1       0.417   9.750   6.912  1.00  0.00     0.004 C 
ATOM     17  C   UNL     1      -0.981   9.478   7.385  1.00  0.00     0.004 C 
ENDBRANCH   6  15
ENDBRANCH   4   5
ENDBRANCH   1   4
BRANCH   3  18
ATOM     18  C   UNL     1      -6.393  13.263  12.188  1.00  0.00     0.053 C 
BRANCH  18  19
ATOM     19  C   UNL     1      -6.538  11.975  11.420  1.00  0.00     0.074 C 
BRANCH  19  20
ATOM     20  N   UNL     1      -7.533  11.156  11.497  1.00  0.00    -0.313 NA
ATOM     21  H   UNL     1      -8.349  11.590  11.951  1.00  0.00     0.186 HD
ENDBRANCH  19  20
ENDBRANCH  18  19
ENDBRANCH   3  18
TORSDOF 6
ENDMDL
MODEL 2
REMARK VINA RESULT:    -4.324      5.420      8.409
REMARK INTER + INTRA:          -5.977
REMARK INTER:                  -5.721
REMARK INTRA:                  -0.257
REMARK UNBOUND:                -0.263
REMARK SMILES [H]/N=C\C[C@H]1C[C@@H]1O[C@H]1CO[C@H]2C[C@@H](C3CC3)CCN2C1
REMARK SMILES IDX 7 1 6 2 5 3 8 4 9 5 14 6 13 7 18 8 12 9 19 10 20 11 11 12
REMARK SMILES IDX 21 13 10 14 15 15 16 16 17 17 4 18 3 19 2 20 1 21
REMARK H PARENT
ROOT
ATOM      1  C   UNL     1       0.212   9.745   7.625  1.00  0.00     0.122 C 
ATOM      2  C   UNL     1      -0.310  11.141   7.814  1.00  0.00     0.039 C 
ATOM      3  C   UNL     1      -1.160   9.966   8.201  1.00  0.00     0.026 C 
ENDROOT
BRANCH   1   4
ATOM      4  O   UNL     1       0.272   9.322   6.249  1.00  0.00    -0.371 OA
BRANCH   4   5
ATOM      5  C   UNL     1       1.359   9.865   5.481  1.00  0.00     0.158 C 
ATOM      6  C   UNL     1       2.782   5.527   2.959  1.00  0.00    -0.003 C 
ATOM      7  C   UNL     1       2.890   6.047   4.398  1.00  0.00     0.052 C 
ATOM      8  C   UNL     1       1.495   6.069   2.319  1.00  0.00     0.019 C 
ATOM      9  C   UNL     1       2.753   7.574   4.465  1.00  0.00     0.189 C 
ATOM     10  C   UNL     1       1.404   7.589   2.450  1.00  0.00     0.087 C 
ATOM     11  N   UNL     1       1.496   8.001   3.850  1.00  0.00    -0.276 NA
ATOM     12  O   UNL     1       2.823   7.930   5.847  1.00  0.00    -0.360 OA
ATOM     13  C   UNL     1       1.322   9.450   4.000  1.00  0.00     0.121 C 
ATOM     14  C   UNL     1       2.670   9.335   6.071  1.00  0.00     0.195 C 
BRANCH   6  15
ATOM     15  C   UNL     1       2.803   4.016   2.911  1.00  0.00    -0.008 C 
ATOM     16  C   UNL     1       3.717   3.295   1.948  1.00  0.00     0.004 C 
ATOM     17  C   UNL     1       3.994   3.243   3.423  1.00  0.00     0.004 C 
ENDBRANCH   6  15
ENDBRANCH   4   5
ENDBRANCH   1   4
BRANCH   3  18
ATOM     18  C   UNL     1      -1.420   9.704   9.654  1.00  0.00     0.053 C 
BRANCH  18  19
ATOM     19  C   UNL     1      -2.047  10.832  10.432  1.00  0.00     0.074 C 
BRANCH  19  20
ATOM     20  N   UNL     1      -3.300  11.142  10.440  1.00  0.00    -0.313 NA
ATOM     21  H   UNL     1      -3.873  10.399  10.865  1.00  0.00     0.186 HD
ENDBRANCH  19  20
ENDBRANCH  18  19
ENDBRANCH   3  18
TORSDOF 6
ENDMDL
MODEL 3
REMARK VINA RESULT:    -4.308      8.436     10.910
REMARK INTER + INTRA:          -5.956
REMARK INTER:                  -5.712
REMARK INTRA:                  -0.244
REMARK UNBOUND:                -0.263
REMARK SMILES [H]/N=C\C[C@H]1C[C@@H]1O[C@H]1CO[C@H]2C[C@@H](C3CC3)CCN2C1
REMARK SMILES IDX 7 1 6 2 5 3 8 4 9 5 14 6 13 7 18 8 12 9 19 10 20 11 11 12
REMARK SMILES IDX 21 13 10 14 15 15 16 16 17 17 4 18 3 19 2 20 1 21
REMARK H PARENT
ROOT
ATOM      1  C   UNL     1       4.675  10.620   5.655  1.00  0.00     0.122 C 
ATOM      2  C   UNL     1       5.410  11.074   6.886  1.00  0.00     0.039 C 
ATOM      3  C   UNL     1       6.128  11.002   5.569  1.00  0.00     0.026 C 
ENDROOT
BRANCH   1   4
ATOM      4  O   UNL     1       4.376   9.212   5.636  1.00  0.00    -0.371 OA
BRANCH   4   5
ATOM      5  C   UNL     1       3.301   8.795   6.494  1.00  0.00     0.158 C 
ATOM      6  C   UNL     1       0.856   5.591   3.184  1.00  0.00    -0.003 C 
ATOM      7  C   UNL     1       1.029   7.109   3.317  1.00  0.00     0.052 C 
ATOM      8  C   UNL     1       2.116   4.888   3.707  1.00  0.00     0.019 C 
ATOM      9  C   UNL     1       1.424   7.514   4.743  1.00  0.00     0.189 C 
ATOM     10  C   UNL     1       2.474   5.361   5.116  1.00  0.00     0.087 C 
ATOM     11  N   UNL     1       2.641   6.813   5.155  1.00  0.00    -0.276 NA
ATOM     12  O   UNL     1       1.601   8.932   4.731  1.00  0.00    -0.360 OA
ATOM     13  C   UNL     1       3.070   7.273   6.480  1.00  0.00     0.121 C 
ATOM     14  C   UNL     1       2.012   9.457   5.997  1.00  0.00     0.195 C 
BRANCH   6  15
ATOM     15  C   UNL     1       0.579   5.188   1.753  1.00  0.00    -0.008 C 
ATOM     16  C   UNL     1      -0.565   4.256   1.430  1.00  0.00     0.004 C 
ATOM     17  C   UNL     1      -0.642   5.700   1.027  1.00  0.00     0.004 C 
ENDBRANCH   6  15
ENDBRANCH   4   5
ENDBRANCH   1   4
BRANCH   3  18
ATOM     18  C   UNL     1       6.535  12.276   4.892  1.00  0.00     0.053 C 
BRANCH  18  19
ATOM     19  C   UNL     1       7.419  13.200   5.689  1.00  0.00     0.074 C 
BRANCH  19  20
ATOM     20  N   UNL     1       8.704  13.117   5.793  1.00  0.00    -0.313 NA
ATOM     21  H   UNL     1       9.087  13.873   6.378  1.00  0.00     0.186 HD
ENDBRANCH  19  20
ENDBRANCH  18  19
ENDBRANCH   3  18
TORSDOF 6
ENDMDL
MODEL 4
REMARK VINA RESULT:    -4.180      3.675      8.138
REMARK INTER + INTRA:          -5.787
REMARK INTER:                  -5.558
REMARK INTRA:                  -0.229
REMARK UNBOUND:                -0.263
REMARK SMILES [H]/N=C\C[C@H]1C[C@@H]1O[C@H]1CO[C@H]2C[C@@H](C3CC3)CCN2C1
REMARK SMILES IDX 7 1 6 2 5 3 8 4 9 5 14 6 13 7 18 8 12 9 19 10 20 11 11 12
REMARK SMILES IDX 21 13 10 14 15 15 16 16 17 17 4 18 3 19 2 20 1 21
REMARK H PARENT
ROOT
ATOM      1  C   UNL     1       1.865   8.895   6.184  1.00  0.00     0.122 C 
ATOM      2  C   UNL     1       3.366   8.947   6.227  1.00  0.00     0.039 C 
ATOM      3  C   UNL     1       2.649   7.681   6.600  1.00  0.00     0.026 C 
ENDROOT
BRANCH   1   4
ATOM      4  O   UNL     1       1.221   9.639   7.235  1.00  0.00    -0.371 OA
BRANCH   4   5
ATOM      5  C   UNL     1       0.009  10.316   6.863  1.00  0.00     0.158 C 
ATOM      6  C   UNL     1      -1.829  11.313  11.641  1.00  0.00    -0.003 C 
ATOM      7  C   UNL     1      -1.674  10.066  10.763  1.00  0.00     0.052 C 
ATOM      8  C   UNL     1      -0.685  12.292  11.340  1.00  0.00     0.019 C 
ATOM      9  C   UNL     1      -1.536  10.429   9.278  1.00  0.00     0.189 C 
ATOM     10  C   UNL     1      -0.580  12.584   9.844  1.00  0.00     0.087 C 
ATOM     11  N   UNL     1      -0.415  11.348   9.079  1.00  0.00    -0.276 NA
ATOM     12  O   UNL     1      -1.352   9.200   8.573  1.00  0.00    -0.360 OA
ATOM     13  C   UNL     1      -0.225  11.618   7.650  1.00  0.00     0.121 C 
ATOM     14  C   UNL     1      -1.169   9.383   7.165  1.00  0.00     0.195 C 
BRANCH   6  15
ATOM     15  C   UNL     1      -1.851  10.958  13.111  1.00  0.00    -0.008 C 
ATOM     16  C   UNL     1      -2.781  11.679  14.058  1.00  0.00     0.004 C 
ATOM     17  C   UNL     1      -3.033  10.239  13.716  1.00  0.00     0.004 C 
ENDBRANCH   6  15
ENDBRANCH   4   5
ENDBRANCH   1   4
BRANCH   3  18
ATOM     18  C   UNL     1       2.747   6.495   5.688  1.00  0.00     0.053 C 
BRANCH  18  19
ATOM     19  C   UNL     1       2.990   5.164   6.351  1.00  0.00     0.074 C 
BRANCH  19  20
ATOM     20  N   UNL     1       3.596   4.977   7.476  1.00  0.00    -0.313 NA
ATOM     21  H   UNL     1       3.062   5.370   8.264  1.00  0.00     0.186 HD
ENDBRANCH  19  20
ENDBRANCH  18  19
ENDBRANCH   3  18
TORSDOF 6
ENDMDL
MODEL 5
REMARK VINA RESULT:    -4.146      4.242      6.154
REMARK INTER + INTRA:          -5.742
REMARK INTER:                  -5.460
REMARK INTRA:                  -0.282
REMARK UNBOUND:                -0.263
REMARK SMILES [H]/N=C\C[C@H]1C[C@@H]1O[C@H]1CO[C@H]2C[C@@H](C3CC3)CCN2C1
REMARK SMILES IDX 7 1 6 2 5 3 8 4 9 5 14 6 13 7 18 8 12 9 19 10 20 11 11 12
REMARK SMILES IDX 21 13 10 14 15 15 16 16 17 17 4 18 3 19 2 20 1 21
REMARK H PARENT
ROOT
ATOM      1  C   UNL     1      -1.552  10.050  10.777  1.00  0.00     0.122 C 
ATOM      2  C   UNL     1      -1.739   9.001  11.837  1.00  0.00     0.039 C 
ATOM      3  C   UNL     1      -0.745  10.109  12.046  1.00  0.00     0.026 C 
ENDROOT
BRANCH   1   4
ATOM      4  O   UNL     1      -0.870   9.580   9.600  1.00  0.00    -0.371 OA
BRANCH   4   5
ATOM      5  C   UNL     1      -1.234  10.230   8.371  1.00  0.00     0.158 C 
ATOM      6  C   UNL     1       3.369   9.940   5.935  1.00  0.00    -0.003 C 
ATOM      7  C   UNL     1       2.795  10.747   7.106  1.00  0.00     0.052 C 
ATOM      8  C   UNL     1       2.705   8.556   5.899  1.00  0.00     0.019 C 
ATOM      9  C   UNL     1       1.261  10.789   7.072  1.00  0.00     0.189 C 
ATOM     10  C   UNL     1       1.181   8.667   5.901  1.00  0.00     0.087 C 
ATOM     11  N   UNL     1       0.713   9.433   7.056  1.00  0.00    -0.276 NA
ATOM     12  O   UNL     1       0.846  11.522   8.226  1.00  0.00    -0.360 OA
ATOM     13  C   UNL     1      -0.752   9.475   7.120  1.00  0.00     0.121 C 
ATOM     14  C   UNL     1      -0.577  11.613   8.350  1.00  0.00     0.195 C 
BRANCH   6  15
ATOM     15  C   UNL     1       4.871   9.806   6.038  1.00  0.00    -0.008 C 
ATOM     16  C   UNL     1       5.775  10.713   5.237  1.00  0.00     0.004 C 
ATOM     17  C   UNL     1       5.697  10.864   6.728  1.00  0.00     0.004 C 
ENDBRANCH   6  15
ENDBRANCH   4   5
ENDBRANCH   1   4
BRANCH   3  18
ATOM     18  C   UNL     1      -1.033  11.159  13.077  1.00  0.00     0.053 C 
BRANCH  18  19
ATOM     19  C   UNL     1       0.140  11.989  13.527  1.00  0.00     0.074 C 
BRANCH  19  20
ATOM     20  N   UNL     1       1.349  11.895  13.084  1.00  0.00    -0.313 NA
ATOM     21  H   UNL     1       2.038  12.169  13.798  1.00  0.00     0.186 HD
ENDBRANCH  19  20
ENDBRANCH  18  19
ENDBRANCH   3  18
TORSDOF 6
ENDMDL
MODEL 6
REMARK VINA RESULT:    -4.092      6.362     10.012
REMARK INTER + INTRA:          -5.671
REMARK INTER:                  -5.393
REMARK INTRA:                  -0.278
REMARK UNBOUND:                -0.263
REMARK SMILES [H]/N=C\C[C@H]1C[C@@H]1O[C@H]1CO[C@H]2C[C@@H](C3CC3)CCN2C1
REMARK SMILES IDX 7 1 6 2 5 3 8 4 9 5 14 6 13 7 18 8 12 9 19 10 20 11 11 12
REMARK SMILES IDX 21 13 10 14 15 15 16 16 17 17 4 18 3 19 2 20 1 21
REMARK H PARENT
ROOT
ATOM      1  C   UNL     1       6.902  13.371   4.778  1.00  0.00     0.122 C 
ATOM      2  C   UNL     1       6.890  14.199   3.524  1.00  0.00     0.039 C 
ATOM      3  C   UNL     1       6.239  14.721   4.773  1.00  0.00     0.026 C 
ENDROOT
BRANCH   1   4
ATOM      4  O   UNL     1       6.032  12.225   4.733  1.00  0.00    -0.371 OA
BRANCH   4   5
ATOM      5  C   UNL     1       6.333  11.181   5.673  1.00  0.00     0.158 C 
ATOM      6  C   UNL     1       1.465   9.599   6.674  1.00  0.00    -0.003 C 
ATOM      7  C   UNL     1       2.312  10.830   7.019  1.00  0.00     0.052 C 
ATOM      8  C   UNL     1       1.881   9.066   5.296  1.00  0.00     0.019 C 
ATOM      9  C   UNL     1       3.814  10.542   6.888  1.00  0.00     0.189 C 
ATOM     10  C   UNL     1       3.390   8.833   5.221  1.00  0.00     0.087 C 
ATOM     11  N   UNL     1       4.125  10.056   5.544  1.00  0.00    -0.276 NA
ATOM     12  O   UNL     1       4.492  11.764   7.186  1.00  0.00    -0.360 OA
ATOM     13  C   UNL     1       5.573   9.873   5.391  1.00  0.00     0.121 C 
ATOM     14  C   UNL     1       5.914  11.659   7.067  1.00  0.00     0.195 C 
BRANCH   6  15
ATOM     15  C   UNL     1      -0.013   9.920   6.695  1.00  0.00    -0.008 C 
ATOM     16  C   UNL     1      -0.855   9.567   7.898  1.00  0.00     0.004 C 
ATOM     17  C   UNL     1      -0.556  11.006   7.592  1.00  0.00     0.004 C 
ENDBRANCH   6  15
ENDBRANCH   4   5
ENDBRANCH   1   4
BRANCH   3  18
ATOM     18  C   UNL     1       6.869  15.876   5.493  1.00  0.00     0.053 C 
BRANCH  18  19
ATOM     19  C   UNL     1       5.928  16.800   6.222  1.00  0.00     0.074 C 
BRANCH  19  20
ATOM     20  N   UNL     1       4.649  16.656   6.318  1.00  0.00    -0.313 NA
ATOM     21  H   UNL     1       4.399  15.935   7.011  1.00  0.00     0.186 HD
ENDBRANCH  19  20
ENDBRANCH  18  19
ENDBRANCH   3  18
TORSDOF 6
ENDMDL
MODEL 7
REMARK VINA RESULT:    -4.077      9.060     12.242
REMARK INTER + INTRA:          -5.651
REMARK INTER:                  -5.424
REMARK INTRA:                  -0.227
REMARK UNBOUND:                -0.263
REMARK SMILES [H]/N=C\C[C@H]1C[C@@H]1O[C@H]1CO[C@H]2C[C@@H](C3CC3)CCN2C1
REMARK SMILES IDX 7 1 6 2 5 3 8 4 9 5 14 6 13 7 18 8 12 9 19 10 20 11 11 12
REMARK SMILES IDX 21 13 10 14 15 15 16 16 17 17 4 18 3 19 2 20 1 21
REMARK H PARENT
ROOT
ATOM      1  C   UNL     1      10.478  15.949   8.781  1.00  0.00     0.122 C 
ATOM      2  C   UNL     1      11.688  15.523   9.563  1.00  0.00     0.039 C 
ATOM      3  C   UNL     1      11.254  14.729   8.364  1.00  0.00     0.026 C 
ENDROOT
BRANCH   1   4
ATOM      4  O   UNL     1       9.228  15.718   9.459  1.00  0.00    -0.371 OA
BRANCH   4   5
ATOM      5  C   UNL     1       8.084  16.377   8.892  1.00  0.00     0.158 C 
ATOM      6  C   UNL     1       5.475  12.163   7.270  1.00  0.00    -0.003 C 
ATOM      7  C   UNL     1       6.740  12.908   6.828  1.00  0.00     0.052 C 
ATOM      8  C   UNL     1       5.323  12.279   8.793  1.00  0.00     0.019 C 
ATOM      9  C   UNL     1       6.762  14.351   7.350  1.00  0.00     0.189 C 
ATOM     10  C   UNL     1       5.388  13.736   9.251  1.00  0.00     0.087 C 
ATOM     11  N   UNL     1       6.630  14.369   8.807  1.00  0.00    -0.276 NA
ATOM     12  O   UNL     1       7.998  14.923   6.917  1.00  0.00    -0.360 OA
ATOM     13  C   UNL     1       6.748  15.741   9.313  1.00  0.00     0.121 C 
ATOM     14  C   UNL     1       8.180  16.270   7.366  1.00  0.00     0.195 C 
BRANCH   6  15
ATOM     15  C   UNL     1       5.511  10.711   6.849  1.00  0.00    -0.008 C 
ATOM     16  C   UNL     1       4.441  10.151   5.943  1.00  0.00     0.004 C 
ATOM     17  C   UNL     1       5.840  10.325   5.427  1.00  0.00     0.004 C 
ENDBRANCH   6  15
ENDBRANCH   4   5
ENDBRANCH   1   4
BRANCH   3  18
ATOM     18  C   UNL     1      12.102  14.759   7.128  1.00  0.00     0.053 C 
BRANCH  18  19
ATOM     19  C   UNL     1      11.575  13.996   5.940  1.00  0.00     0.074 C 
BRANCH  19  20
ATOM     20  N   UNL     1      12.024  12.866   5.505  1.00  0.00    -0.313 NA
ATOM     21  H   UNL     1      12.001  12.142   6.237  1.00  0.00     0.186 HD
ENDBRANCH  19  20
ENDBRANCH  18  19
ENDBRANCH   3  18
TORSDOF 6
ENDMDL
MODEL 8
REMARK VINA RESULT:    -3.900      8.157     10.254
REMARK INTER + INTRA:          -5.417
REMARK INTER:                  -5.211
REMARK INTRA:                  -0.206
REMARK UNBOUND:                -0.263
REMARK SMILES [H]/N=C\C[C@H]1C[C@@H]1O[C@H]1CO[C@H]2C[C@@H](C3CC3)CCN2C1
REMARK SMILES IDX 7 1 6 2 5 3 8 4 9 5 14 6 13 7 18 8 12 9 19 10 20 11 11 12
REMARK SMILES IDX 21 13 10 14 15 15 16 16 17 17 4 18 3 19 2 20 1 21
REMARK H PARENT
ROOT
ATOM      1  C   UNL     1       2.876   9.306   5.405  1.00  0.00     0.122 C 
ATOM      2  C   UNL     1       1.435   9.506   5.780  1.00  0.00     0.039 C 
ATOM      3  C   UNL     1       1.846   9.545   4.336  1.00  0.00     0.026 C 
ENDROOT
BRANCH   1   4
ATOM      4  O   UNL     1       3.729  10.418   5.739  1.00  0.00    -0.371 OA
BRANCH   4   5
ATOM      5  C   UNL     1       5.027  10.072   6.250  1.00  0.00     0.158 C 
ATOM      6  C   UNL     1       7.062  14.867   6.528  1.00  0.00    -0.003 C 
ATOM      7  C   UNL     1       6.701  13.890   5.402  1.00  0.00     0.052 C 
ATOM      8  C   UNL     1       6.081  14.680   7.694  1.00  0.00     0.019 C 
ATOM      9  C   UNL     1       6.602  12.446   5.910  1.00  0.00     0.189 C 
ATOM     10  C   UNL     1       6.003  13.217   8.129  1.00  0.00     0.087 C 
ATOM     11  N   UNL     1       5.636  12.356   7.006  1.00  0.00    -0.276 NA
ATOM     12  O   UNL     1       6.219  11.644   4.791  1.00  0.00    -0.360 OA
ATOM     13  C   UNL     1       5.472  10.960   7.426  1.00  0.00     0.121 C 
ATOM     14  C   UNL     1       6.048  10.263   5.123  1.00  0.00     0.195 C 
BRANCH   6  15
ATOM     15  C   UNL     1       7.046  16.300   6.046  1.00  0.00    -0.008 C 
ATOM     16  C   UNL     1       8.310  16.945   5.526  1.00  0.00     0.004 C 
ATOM     17  C   UNL     1       7.191  16.624   4.578  1.00  0.00     0.004 C 
ENDBRANCH   6  15
ENDBRANCH   4   5
ENDBRANCH   1   4
BRANCH   3  18
ATOM     18  C   UNL     1       1.424   8.428   3.429  1.00  0.00     0.053 C 
BRANCH  18  19
ATOM     19  C   UNL     1       1.031   8.818   2.029  1.00  0.00     0.074 C 
BRANCH  19  20
ATOM     20  N   UNL     1       0.564   9.966   1.666  1.00  0.00    -0.313 NA
ATOM     21  H   UNL     1       0.593  10.649   2.436  1.00  0.00     0.186 HD
ENDBRANCH  19  20
ENDBRANCH  18  19
ENDBRANCH   3  18
TORSDOF 6
ENDMDL
MODEL 9
REMARK VINA RESULT:    -3.844      1.935      2.504
REMARK INTER + INTRA:          -5.343
REMARK INTER:                  -5.576
REMARK INTRA:                   0.233
REMARK UNBOUND:                -0.263
REMARK SMILES [H]/N=C\C[C@H]1C[C@@H]1O[C@H]1CO[C@H]2C[C@@H](C3CC3)CCN2C1
REMARK SMILES IDX 7 1 6 2 5 3 8 4 9 5 14 6 13 7 18 8 12 9 19 10 20 11 11 12
REMARK SMILES IDX 21 13 10 14 15 15 16 16 17 17 4 18 3 19 2 20 1 21
REMARK H PARENT
ROOT
ATOM      1  C   UNL     1      -5.056  13.037  12.388  1.00  0.00     0.122 C 
ATOM      2  C   UNL     1      -6.211  12.602  11.531  1.00  0.00     0.039 C 
ATOM      3  C   UNL     1      -6.290  13.893  12.294  1.00  0.00     0.026 C 
ENDROOT
BRANCH   1   4
ATOM      4  O   UNL     1      -4.898  12.266  13.595  1.00  0.00    -0.371 OA
BRANCH   4   5
ATOM      5  C   UNL     1      -3.559  12.189  14.110  1.00  0.00     0.158 C 
ATOM      6  C   UNL     1      -1.045  11.300   9.627  1.00  0.00    -0.003 C 
ATOM      7  C   UNL     1      -1.971  10.493  10.546  1.00  0.00     0.052 C 
ATOM      8  C   UNL     1      -1.440  12.782   9.684  1.00  0.00     0.019 C 
ATOM      9  C   UNL     1      -2.014  11.075  11.965  1.00  0.00     0.189 C 
ATOM     10  C   UNL     1      -1.497  13.290  11.124  1.00  0.00     0.087 C 
ATOM     11  N   UNL     1      -2.414  12.482  11.928  1.00  0.00    -0.276 NA
ATOM     12  O   UNL     1      -2.936  10.275  12.707  1.00  0.00    -0.360 OA
ATOM     13  C   UNL     1      -2.546  13.009  13.291  1.00  0.00     0.121 C 
ATOM     14  C   UNL     1      -3.110  10.725  14.054  1.00  0.00     0.195 C 
BRANCH   6  15
ATOM     15  C   UNL     1      -1.095  10.792   8.204  1.00  0.00    -0.008 C 
ATOM     16  C   UNL     1       0.125  10.162   7.574  1.00  0.00     0.004 C 
ATOM     17  C   UNL     1      -1.065   9.311   7.910  1.00  0.00     0.004 C 
ENDBRANCH   6  15
ENDBRANCH   4   5
ENDBRANCH   1   4
BRANCH   3  18
ATOM     18  C   UNL     1      -6.254  15.188  11.538  1.00  0.00     0.053 C 
BRANCH  18  19
ATOM     19  C   UNL     1      -6.873  15.173  10.164  1.00  0.00     0.074 C 
BRANCH  19  20
ATOM     20  N   UNL     1      -8.135  15.248   9.901  1.00  0.00    -0.313 NA
ATOM     21  H   UNL     1      -8.674  14.543  10.423  1.00  0.00     0.186 HD
ENDBRANCH  19  20
ENDBRANCH  18  19
ENDBRANCH   3  18
TORSDOF 6
ENDMDL
