MODEL 1
REMARK VINA RESULT:    -4.163      0.000      0.000
REMARK INTER + INTRA:          -5.717
REMARK INTER:                  -5.501
REMARK INTRA:                  -0.216
REMARK UNBOUND:                -0.216
REMARK SMILES [H]/N=C\C[C@H]1C[C@@H]1O[C@H]1CO[C@H]2C[C@@H](C3CC3)CCN2C1
REMARK SMILES IDX 7 1 6 2 5 3 8 4 9 5 14 6 13 7 18 8 12 9 19 10 20 11 11 12
REMARK SMILES IDX 21 13 10 14 15 15 16 16 17 17 4 18 3 19 2 20 1 21
REMARK H PARENT
ROOT
ATOM      1  C   UNL     1      12.842  -2.716   9.910  1.00  0.00     0.122 C 
ATOM      2  C   UNL     1      12.278  -2.664  11.301  1.00  0.00     0.039 C 
ATOM      3  C   UNL     1      12.935  -3.920  10.806  1.00  0.00     0.026 C 
ENDROOT
BRANCH   1   4
ATOM      4  O   UNL     1      11.844  -2.760   8.872  1.00  0.00    -0.371 OA
BRANCH   4   5
ATOM      5  C   UNL     1      12.139  -1.991   7.695  1.00  0.00     0.158 C 
ATOM      6  C   UNL     1       9.985  -5.143   4.141  1.00  0.00    -0.003 C 
ATOM      7  C   UNL     1      11.235  -5.181   5.029  1.00  0.00     0.052 C 
ATOM      8  C   UNL     1       8.866  -4.389   4.873  1.00  0.00     0.019 C 
ATOM      9  C   UNL     1      11.635  -3.779   5.509  1.00  0.00     0.189 C 
ATOM     10  C   UNL     1       9.338  -3.018   5.355  1.00  0.00     0.087 C 
ATOM     11  N   UNL     1      10.520  -3.142   6.209  1.00  0.00    -0.276 NA
ATOM     12  O   UNL     1      12.774  -3.948   6.357  1.00  0.00    -0.360 OA
ATOM     13  C   UNL     1      10.934  -1.842   6.750  1.00  0.00     0.121 C 
ATOM     14  C   UNL     1      13.242  -2.717   6.917  1.00  0.00     0.195 C 
BRANCH   6  15
ATOM     15  C   UNL     1       9.530  -6.535   3.765  1.00  0.00    -0.008 C 
ATOM     16  C   UNL     1      10.036  -7.189   2.500  1.00  0.00     0.004 C 
ATOM     17  C   UNL     1      10.480  -7.706   3.838  1.00  0.00     0.004 C 
ENDBRANCH   6  15
ENDBRANCH   4   5
ENDBRANCH   1   4
BRANCH   3  18
ATOM     18  C   UNL     1      14.255  -4.328  11.390  1.00  0.00     0.053 C 
BRANCH  18  19
ATOM     19  C   UNL     1      14.853  -5.604  10.857  1.00  0.00     0.074 C 
BRANCH  19  20
ATOM     20  N   UNL     1      14.553  -6.171   9.736  1.00  0.00    -0.313 NA
ATOM     21  H   UNL     1      13.616  -6.597   9.766  1.00  0.00     0.186 HD
ENDBRANCH  19  20
ENDBRANCH  18  19
ENDBRANCH   3  18
TORSDOF 6
ENDMDL
MODEL 2
REMARK VINA RESULT:    -4.125      3.668      7.292
REMARK INTER + INTRA:          -5.666
REMARK INTER:                  -5.391
REMARK INTRA:                  -0.275
REMARK UNBOUND:                -0.216
REMARK SMILES [H]/N=C\C[C@H]1C[C@@H]1O[C@H]1CO[C@H]2C[C@@H](C3CC3)CCN2C1
REMARK SMILES IDX 7 1 6 2 5 3 8 4 9 5 14 6 13 7 18 8 12 9 19 10 20 11 11 12
REMARK SMILES IDX 21 13 10 14 15 15 16 16 17 17 4 18 3 19 2 20 1 21
REMARK H PARENT
ROOT
ATOM      1  C   UNL     1      13.066  -8.714   1.187  1.00  0.00     0.122 C 
ATOM      2  C   UNL     1      13.455  -8.623  -0.261  1.00  0.00     0.039 C 
ATOM      3  C   UNL     1      14.359  -8.053   0.794  1.00  0.00     0.026 C 
ENDROOT
BRANCH   1   4
ATOM      4  O   UNL     1      11.982  -7.842   1.560  1.00  0.00    -0.371 OA
BRANCH   4   5
ATOM      5  C   UNL     1      11.085  -8.359   2.556  1.00  0.00     0.158 C 
ATOM      6  C   UNL     1      10.177  -3.936   5.167  1.00  0.00    -0.003 C 
ATOM      7  C   UNL     1      11.359  -4.903   5.021  1.00  0.00     0.052 C 
ATOM      8  C   UNL     1       9.384  -3.903   3.853  1.00  0.00     0.019 C 
ATOM      9  C   UNL     1      10.908  -6.284   4.529  1.00  0.00     0.189 C 
ATOM     10  C   UNL     1       8.995  -5.311   3.400  1.00  0.00     0.087 C 
ATOM     11  N   UNL     1      10.176  -6.163   3.267  1.00  0.00    -0.276 NA
ATOM     12  O   UNL     1      12.090  -7.075   4.389  1.00  0.00    -0.360 OA
ATOM     13  C   UNL     1       9.829  -7.491   2.750  1.00  0.00     0.121 C 
ATOM     14  C   UNL     1      11.828  -8.392   3.896  1.00  0.00     0.195 C 
BRANCH   6  15
ATOM     15  C   UNL     1      10.640  -2.546   5.541  1.00  0.00    -0.008 C 
ATOM     16  C   UNL     1      10.654  -2.110   6.987  1.00  0.00     0.004 C 
ATOM     17  C   UNL     1      11.949  -2.335   6.264  1.00  0.00     0.004 C 
ENDBRANCH   6  15
ENDBRANCH   4   5
ENDBRANCH   1   4
BRANCH   3  18
ATOM     18  C   UNL     1      15.668  -8.728   1.072  1.00  0.00     0.053 C 
BRANCH  18  19
ATOM     19  C   UNL     1      16.625  -7.983   1.966  1.00  0.00     0.074 C 
BRANCH  19  20
ATOM     20  N   UNL     1      16.310  -7.323   3.031  1.00  0.00    -0.313 NA
ATOM     21  H   UNL     1      15.968  -6.379   2.805  1.00  0.00     0.186 HD
ENDBRANCH  19  20
ENDBRANCH  18  19
ENDBRANCH   3  18
TORSDOF 6
ENDMDL
MODEL 3
REMARK VINA RESULT:    -4.085      5.023      7.283
REMARK INTER + INTRA:          -5.614
REMARK INTER:                  -5.438
REMARK INTRA:                  -0.177
REMARK UNBOUND:                -0.216
REMARK SMILES [H]/N=C\C[C@H]1C[C@@H]1O[C@H]1CO[C@H]2C[C@@H](C3CC3)CCN2C1
REMARK SMILES IDX 7 1 6 2 5 3 8 4 9 5 14 6 13 7 18 8 12 9 19 10 20 11 11 12
REMARK SMILES IDX 21 13 10 14 15 15 16 16 17 17 4 18 3 19 2 20 1 21
REMARK H PARENT
ROOT
ATOM      1  C   UNL     1      10.376  -6.569   3.165  1.00  0.00     0.122 C 
ATOM      2  C   UNL     1      11.029  -7.641   3.992  1.00  0.00     0.039 C 
ATOM      3  C   UNL     1      10.503  -7.967   2.623  1.00  0.00     0.026 C 
ENDROOT
BRANCH   1   4
ATOM      4  O   UNL     1       9.073  -6.176   3.635  1.00  0.00    -0.371 OA
BRANCH   4   5
ATOM      5  C   UNL     1       9.060  -5.386   4.836  1.00  0.00     0.158 C 
ATOM      6  C   UNL     1       5.605  -1.770   3.355  1.00  0.00    -0.003 C 
ATOM      7  C   UNL     1       7.060  -2.107   3.006  1.00  0.00     0.052 C 
ATOM      8  C   UNL     1       4.850  -3.064   3.688  1.00  0.00     0.019 C 
ATOM      9  C   UNL     1       7.726  -2.957   4.097  1.00  0.00     0.189 C 
ATOM     10  C   UNL     1       5.581  -3.879   4.754  1.00  0.00     0.087 C 
ATOM     11  N   UNL     1       6.952  -4.175   4.338  1.00  0.00    -0.276 NA
ATOM     12  O   UNL     1       9.049  -3.243   3.641  1.00  0.00    -0.360 OA
ATOM     13  C   UNL     1       7.640  -5.030   5.312  1.00  0.00     0.121 C 
ATOM     14  C   UNL     1       9.787  -4.069   4.547  1.00  0.00     0.195 C 
BRANCH   6  15
ATOM     15  C   UNL     1       4.921  -1.031   2.227  1.00  0.00    -0.008 C 
ATOM     16  C   UNL     1       3.946   0.084   2.525  1.00  0.00     0.004 C 
ATOM     17  C   UNL     1       5.279   0.401   1.911  1.00  0.00     0.004 C 
ENDBRANCH   6  15
ENDBRANCH   4   5
ENDBRANCH   1   4
BRANCH   3  18
ATOM     18  C   UNL     1      11.478  -8.265   1.523  1.00  0.00     0.053 C 
BRANCH  18  19
ATOM     19  C   UNL     1      12.445  -9.392   1.777  1.00  0.00     0.074 C 
BRANCH  19  20
ATOM     20  N   UNL     1      12.165 -10.653   1.740  1.00  0.00    -0.313 NA
ATOM     21  H   UNL     1      12.205 -11.078   2.677  1.00  0.00     0.186 HD
ENDBRANCH  19  20
ENDBRANCH  18  19
ENDBRANCH   3  18
TORSDOF 6
ENDMDL
MODEL 4
REMARK VINA RESULT:    -4.083      3.757      5.257
REMARK INTER + INTRA:          -5.612
REMARK INTER:                  -5.388
REMARK INTRA:                  -0.224
REMARK UNBOUND:                -0.216
REMARK SMILES [H]/N=C\C[C@H]1C[C@@H]1O[C@H]1CO[C@H]2C[C@@H](C3CC3)CCN2C1
REMARK SMILES IDX 7 1 6 2 5 3 8 4 9 5 14 6 13 7 18 8 12 9 19 10 20 11 11 12
REMARK SMILES IDX 21 13 10 14 15 15 16 16 17 17 4 18 3 19 2 20 1 21
REMARK H PARENT
ROOT
ATOM      1  C   UNL     1      10.815  -3.028   6.408  1.00  0.00     0.122 C 
ATOM      2  C   UNL     1      12.265  -2.685   6.217  1.00  0.00     0.039 C 
ATOM      3  C   UNL     1      11.442  -1.926   7.218  1.00  0.00     0.026 C 
ENDROOT
BRANCH   1   4
ATOM      4  O   UNL     1       9.967  -2.623   5.316  1.00  0.00    -0.371 OA
BRANCH   4   5
ATOM      5  C   UNL     1      10.071  -3.419   4.124  1.00  0.00     0.158 C 
ATOM      6  C   UNL     1       5.027  -3.501   2.797  1.00  0.00    -0.003 C 
ATOM      7  C   UNL     1       5.885  -4.146   3.892  1.00  0.00     0.052 C 
ATOM      8  C   UNL     1       5.607  -2.124   2.443  1.00  0.00     0.019 C 
ATOM      9  C   UNL     1       7.372  -4.172   3.511  1.00  0.00     0.189 C 
ATOM     10  C   UNL     1       7.095  -2.214   2.107  1.00  0.00     0.087 C 
ATOM     11  N   UNL     1       7.844  -2.821   3.207  1.00  0.00    -0.276 NA
ATOM     12  O   UNL     1       8.068  -4.747   4.618  1.00  0.00    -0.360 OA
ATOM     13  C   UNL     1       9.286  -2.835   2.936  1.00  0.00     0.121 C 
ATOM     14  C   UNL     1       9.484  -4.802   4.422  1.00  0.00     0.195 C 
BRANCH   6  15
ATOM     15  C   UNL     1       3.583  -3.375   3.225  1.00  0.00    -0.008 C 
ATOM     16  C   UNL     1       2.469  -3.763   2.281  1.00  0.00     0.004 C 
ATOM     17  C   UNL     1       2.746  -4.602   3.495  1.00  0.00     0.004 C 
ENDBRANCH   6  15
ENDBRANCH   4   5
ENDBRANCH   1   4
BRANCH   3  18
ATOM     18  C   UNL     1      11.712  -2.122   8.680  1.00  0.00     0.053 C 
BRANCH  18  19
ATOM     19  C   UNL     1      13.148  -1.988   9.116  1.00  0.00     0.074 C 
BRANCH  19  20
ATOM     20  N   UNL     1      13.807  -0.883   9.221  1.00  0.00    -0.313 NA
ATOM     21  H   UNL     1      14.686  -1.013   9.742  1.00  0.00     0.186 HD
ENDBRANCH  19  20
ENDBRANCH  18  19
ENDBRANCH   3  18
TORSDOF 6
ENDMDL
MODEL 5
REMARK VINA RESULT:    -4.014      2.662      3.994
REMARK INTER + INTRA:          -5.520
REMARK INTER:                  -4.993
REMARK INTRA:                  -0.528
REMARK UNBOUND:                -0.216
REMARK SMILES [H]/N=C\C[C@H]1C[C@@H]1O[C@H]1CO[C@H]2C[C@@H](C3CC3)CCN2C1
REMARK SMILES IDX 7 1 6 2 5 3 8 4 9 5 14 6 13 7 18 8 12 9 19 10 20 11 11 12
REMARK SMILES IDX 21 13 10 14 15 15 16 16 17 17 4 18 3 19 2 20 1 21
REMARK H PARENT
ROOT
ATOM      1  C   UNL     1      16.308  -5.311   8.542  1.00  0.00     0.122 C 
ATOM      2  C   UNL     1      16.292  -6.514   9.442  1.00  0.00     0.039 C 
ATOM      3  C   UNL     1      15.603  -6.567   8.108  1.00  0.00     0.026 C 
ENDROOT
BRANCH   1   4
ATOM      4  O   UNL     1      15.474  -4.228   8.995  1.00  0.00    -0.371 OA
BRANCH   4   5
ATOM      5  C   UNL     1      15.653  -2.978   8.308  1.00  0.00     0.158 C 
ATOM      6  C   UNL     1      11.019  -2.722   5.928  1.00  0.00    -0.003 C 
ATOM      7  C   UNL     1      12.293  -3.560   5.764  1.00  0.00     0.052 C 
ATOM      8  C   UNL     1      10.830  -2.371   7.411  1.00  0.00     0.019 C 
ATOM      9  C   UNL     1      13.510  -2.878   6.404  1.00  0.00     0.189 C 
ATOM     10  C   UNL     1      12.087  -1.727   7.996  1.00  0.00     0.087 C 
ATOM     11  N   UNL     1      13.251  -2.595   7.816  1.00  0.00    -0.276 NA
ATOM     12  O   UNL     1      14.615  -3.766   6.229  1.00  0.00    -0.360 OA
ATOM     13  C   UNL     1      14.449  -2.031   8.449  1.00  0.00     0.121 C 
ATOM     14  C   UNL     1      15.825  -3.277   6.815  1.00  0.00     0.195 C 
BRANCH   6  15
ATOM     15  C   UNL     1       9.804  -3.450   5.397  1.00  0.00    -0.008 C 
ATOM     16  C   UNL     1       9.347  -3.235   3.974  1.00  0.00     0.004 C 
ATOM     17  C   UNL     1       9.948  -4.551   4.374  1.00  0.00     0.004 C 
ENDBRANCH   6  15
ENDBRANCH   4   5
ENDBRANCH   1   4
BRANCH   3  18
ATOM     18  C   UNL     1      16.185  -7.424   7.023  1.00  0.00     0.053 C 
BRANCH  18  19
ATOM     19  C   UNL     1      15.576  -7.270   5.654  1.00  0.00     0.074 C 
BRANCH  19  20
ATOM     20  N   UNL     1      15.504  -6.173   4.976  1.00  0.00    -0.313 NA
ATOM     21  H   UNL     1      16.316  -5.564   5.152  1.00  0.00     0.186 HD
ENDBRANCH  19  20
ENDBRANCH  18  19
ENDBRANCH   3  18
TORSDOF 6
ENDMDL
MODEL 6
REMARK VINA RESULT:    -4.014      1.890      2.716
REMARK INTER + INTRA:          -5.520
REMARK INTER:                  -5.162
REMARK INTRA:                  -0.358
REMARK UNBOUND:                -0.216
REMARK SMILES [H]/N=C\C[C@H]1C[C@@H]1O[C@H]1CO[C@H]2C[C@@H](C3CC3)CCN2C1
REMARK SMILES IDX 7 1 6 2 5 3 8 4 9 5 14 6 13 7 18 8 12 9 19 10 20 11 11 12
REMARK SMILES IDX 21 13 10 14 15 15 16 16 17 17 4 18 3 19 2 20 1 21
REMARK H PARENT
ROOT
ATOM      1  C   UNL     1      14.813  -4.259  10.001  1.00  0.00     0.122 C 
ATOM      2  C   UNL     1      13.745  -4.557  11.015  1.00  0.00     0.039 C 
ATOM      3  C   UNL     1      15.030  -5.333  11.032  1.00  0.00     0.026 C 
ENDROOT
BRANCH   1   4
ATOM      4  O   UNL     1      14.496  -4.701   8.667  1.00  0.00    -0.371 OA
BRANCH   4   5
ATOM      5  C   UNL     1      14.894  -3.813   7.609  1.00  0.00     0.158 C 
ATOM      6  C   UNL     1      10.289  -3.345   5.205  1.00  0.00    -0.003 C 
ATOM      7  C   UNL     1      11.348  -4.446   5.346  1.00  0.00     0.052 C 
ATOM      8  C   UNL     1      10.264  -2.498   6.485  1.00  0.00     0.019 C 
ATOM      9  C   UNL     1      12.715  -3.874   5.745  1.00  0.00     0.189 C 
ATOM     10  C   UNL     1      11.659  -1.989   6.845  1.00  0.00     0.087 C 
ATOM     11  N   UNL     1      12.603  -3.099   6.980  1.00  0.00    -0.276 NA
ATOM     12  O   UNL     1      13.597  -4.989   5.890  1.00  0.00    -0.360 OA
ATOM     13  C   UNL     1      13.926  -2.634   7.411  1.00  0.00     0.121 C 
ATOM     14  C   UNL     1      14.915  -4.611   6.301  1.00  0.00     0.195 C 
BRANCH   6  15
ATOM     15  C   UNL     1       8.921  -3.924   4.924  1.00  0.00    -0.008 C 
ATOM     16  C   UNL     1       8.214  -3.617   3.624  1.00  0.00     0.004 C 
ATOM     17  C   UNL     1       8.735  -5.001   3.883  1.00  0.00     0.004 C 
ENDBRANCH   6  15
ENDBRANCH   4   5
ENDBRANCH   1   4
BRANCH   3  18
ATOM     18  C   UNL     1      15.996  -5.116  12.158  1.00  0.00     0.053 C 
BRANCH  18  19
ATOM     19  C   UNL     1      16.699  -6.342  12.679  1.00  0.00     0.074 C 
BRANCH  19  20
ATOM     20  N   UNL     1      16.336  -7.565  12.479  1.00  0.00    -0.313 NA
ATOM     21  H   UNL     1      15.633  -7.871  13.166  1.00  0.00     0.186 HD
ENDBRANCH  19  20
ENDBRANCH  18  19
ENDBRANCH   3  18
TORSDOF 6
ENDMDL
MODEL 7
REMARK VINA RESULT:    -3.824      4.787      7.627
REMARK INTER + INTRA:          -5.269
REMARK INTER:                  -5.032
REMARK INTRA:                  -0.238
REMARK UNBOUND:                -0.216
REMARK SMILES [H]/N=C\C[C@H]1C[C@@H]1O[C@H]1CO[C@H]2C[C@@H](C3CC3)CCN2C1
REMARK SMILES IDX 7 1 6 2 5 3 8 4 9 5 14 6 13 7 18 8 12 9 19 10 20 11 11 12
REMARK SMILES IDX 21 13 10 14 15 15 16 16 17 17 4 18 3 19 2 20 1 21
REMARK H PARENT
ROOT
ATOM      1  C   UNL     1       9.288  -4.469   3.910  1.00  0.00     0.122 C 
ATOM      2  C   UNL     1       9.822  -3.213   4.538  1.00  0.00     0.039 C 
ATOM      3  C   UNL     1       9.432  -3.217   3.088  1.00  0.00     0.026 C 
ENDROOT
BRANCH   1   4
ATOM      4  O   UNL     1      10.281  -5.492   3.706  1.00  0.00    -0.371 OA
BRANCH   4   5
ATOM      5  C   UNL     1       9.859  -6.833   4.002  1.00  0.00     0.158 C 
ATOM      6  C   UNL     1      13.680  -9.413   1.563  1.00  0.00    -0.003 C 
ATOM      7  C   UNL     1      12.456  -8.597   1.131  1.00  0.00     0.052 C 
ATOM      8  C   UNL     1      14.233  -8.840   2.876  1.00  0.00     0.019 C 
ATOM      9  C   UNL     1      11.416  -8.491   2.254  1.00  0.00     0.189 C 
ATOM     10  C   UNL     1      13.142  -8.729   3.940  1.00  0.00     0.087 C 
ATOM     11  N   UNL     1      12.021  -7.922   3.458  1.00  0.00    -0.276 NA
ATOM     12  O   UNL     1      10.353  -7.678   1.752  1.00  0.00    -0.360 OA
ATOM     13  C   UNL     1      11.004  -7.733   4.499  1.00  0.00     0.121 C 
ATOM     14  C   UNL     1       9.316  -7.457   2.713  1.00  0.00     0.195 C 
BRANCH   6  15
ATOM     15  C   UNL     1      14.750  -9.417   0.494  1.00  0.00    -0.008 C 
ATOM     16  C   UNL     1      15.472 -10.696   0.142  1.00  0.00     0.004 C 
ATOM     17  C   UNL     1      14.510 -10.089  -0.837  1.00  0.00     0.004 C 
ENDBRANCH   6  15
ENDBRANCH   4   5
ENDBRANCH   1   4
BRANCH   3  18
ATOM     18  C   UNL     1       8.216  -2.450   2.660  1.00  0.00     0.053 C 
BRANCH  18  19
ATOM     19  C   UNL     1       8.225  -1.921   1.250  1.00  0.00     0.074 C 
BRANCH  19  20
ATOM     20  N   UNL     1       9.194  -1.275   0.689  1.00  0.00    -0.313 NA
ATOM     21  H   UNL     1       9.882  -1.914   0.267  1.00  0.00     0.186 HD
ENDBRANCH  19  20
ENDBRANCH  18  19
ENDBRANCH   3  18
TORSDOF 6
ENDMDL
MODEL 8
REMARK VINA RESULT:    -3.771      5.051      8.319
REMARK INTER + INTRA:          -5.199
REMARK INTER:                  -4.879
REMARK INTRA:                  -0.320
REMARK UNBOUND:                -0.216
REMARK SMILES [H]/N=C\C[C@H]1C[C@@H]1O[C@H]1CO[C@H]2C[C@@H](C3CC3)CCN2C1
REMARK SMILES IDX 7 1 6 2 5 3 8 4 9 5 14 6 13 7 18 8 12 9 19 10 20 11 11 12
REMARK SMILES IDX 21 13 10 14 15 15 16 16 17 17 4 18 3 19 2 20 1 21
REMARK H PARENT
ROOT
ATOM      1  C   UNL     1      14.288  -8.907   1.141  1.00  0.00     0.122 C 
ATOM      2  C   UNL     1      14.732  -7.879   0.140  1.00  0.00     0.039 C 
ATOM      3  C   UNL     1      15.534  -9.135   0.329  1.00  0.00     0.026 C 
ENDROOT
BRANCH   1   4
ATOM      4  O   UNL     1      14.475  -8.510   2.513  1.00  0.00    -0.371 OA
BRANCH   4   5
ATOM      5  C   UNL     1      13.755  -9.284   3.486  1.00  0.00     0.158 C 
ATOM      6  C   UNL     1       9.609  -6.171   4.049  1.00  0.00    -0.003 C 
ATOM      7  C   UNL     1      11.085  -6.118   4.460  1.00  0.00     0.052 C 
ATOM      8  C   UNL     1       9.478  -6.928   2.720  1.00  0.00     0.019 C 
ATOM      9  C   UNL     1      11.724  -7.514   4.470  1.00  0.00     0.189 C 
ATOM     10  C   UNL     1      10.163  -8.293   2.786  1.00  0.00     0.087 C 
ATOM     11  N   UNL     1      11.569  -8.155   3.164  1.00  0.00    -0.276 NA
ATOM     12  O   UNL     1      13.098  -7.332   4.818  1.00  0.00    -0.360 OA
ATOM     13  C   UNL     1      12.263  -9.448   3.146  1.00  0.00     0.121 C 
ATOM     14  C   UNL     1      13.839  -8.556   4.831  1.00  0.00     0.195 C 
BRANCH   6  15
ATOM     15  C   UNL     1       9.016  -4.785   3.931  1.00  0.00    -0.008 C 
ATOM     16  C   UNL     1       7.877  -4.362   4.828  1.00  0.00     0.004 C 
ATOM     17  C   UNL     1       9.237  -3.754   5.011  1.00  0.00     0.004 C 
ENDBRANCH   6  15
ENDBRANCH   4   5
ENDBRANCH   1   4
BRANCH   3  18
ATOM     18  C   UNL     1      15.547 -10.161  -0.764  1.00  0.00     0.053 C 
BRANCH  18  19
ATOM     19  C   UNL     1      16.738 -10.136  -1.686  1.00  0.00     0.074 C 
BRANCH  19  20
ATOM     20  N   UNL     1      16.696 -10.097  -2.976  1.00  0.00    -0.313 NA
ATOM     21  H   UNL     1      15.782 -10.405  -3.336  1.00  0.00     0.186 HD
ENDBRANCH  19  20
ENDBRANCH  18  19
ENDBRANCH   3  18
TORSDOF 6
ENDMDL
MODEL 9
REMARK VINA RESULT:    -3.628      4.472      7.190
REMARK INTER + INTRA:          -5.010
REMARK INTER:                  -5.134
REMARK INTRA:                   0.124
REMARK UNBOUND:                -0.216
REMARK SMILES [H]/N=C\C[C@H]1C[C@@H]1O[C@H]1CO[C@H]2C[C@@H](C3CC3)CCN2C1
REMARK SMILES IDX 7 1 6 2 5 3 8 4 9 5 14 6 13 7 18 8 12 9 19 10 20 11 11 12
REMARK SMILES IDX 21 13 10 14 15 15 16 16 17 17 4 18 3 19 2 20 1 21
REMARK H PARENT
ROOT
ATOM      1  C   UNL     1      15.293  -8.727   2.511  1.00  0.00     0.122 C 
ATOM      2  C   UNL     1      16.679  -8.394   2.036  1.00  0.00     0.039 C 
ATOM      3  C   UNL     1      16.400  -9.736   2.650  1.00  0.00     0.026 C 
ENDROOT
BRANCH   1   4
ATOM      4  O   UNL     1      14.900  -8.031   3.710  1.00  0.00    -0.371 OA
BRANCH   4   5
ATOM      5  C   UNL     1      14.017  -8.753   4.584  1.00  0.00     0.158 C 
ATOM      6  C   UNL     1       9.729  -5.857   3.926  1.00  0.00    -0.003 C 
ATOM      7  C   UNL     1      11.078  -5.677   4.633  1.00  0.00     0.052 C 
ATOM      8  C   UNL     1       9.919  -6.742   2.687  1.00  0.00     0.019 C 
ATOM      9  C   UNL     1      11.753  -7.024   4.924  1.00  0.00     0.189 C 
ATOM     10  C   UNL     1      10.626  -8.051   3.038  1.00  0.00     0.087 C 
ATOM     11  N   UNL     1      11.910  -7.793   3.689  1.00  0.00    -0.276 NA
ATOM     12  O   UNL     1      13.010  -6.727   5.535  1.00  0.00    -0.360 OA
ATOM     13  C   UNL     1      12.641  -9.038   3.955  1.00  0.00     0.121 C 
ATOM     14  C   UNL     1      13.778  -7.898   5.832  1.00  0.00     0.195 C 
BRANCH   6  15
ATOM     15  C   UNL     1       9.123  -4.526   3.541  1.00  0.00    -0.008 C 
ATOM     16  C   UNL     1       8.037  -3.907   4.389  1.00  0.00     0.004 C 
ATOM     17  C   UNL     1       9.403  -3.284   4.352  1.00  0.00     0.004 C 
ENDBRANCH   6  15
ENDBRANCH   4   5
ENDBRANCH   1   4
BRANCH   3  18
ATOM     18  C   UNL     1      16.426 -10.954   1.777  1.00  0.00     0.053 C 
BRANCH  18  19
ATOM     19  C   UNL     1      15.955 -12.238   2.409  1.00  0.00     0.074 C 
BRANCH  19  20
ATOM     20  N   UNL     1      15.848 -12.463   3.677  1.00  0.00    -0.313 NA
ATOM     21  H   UNL     1      15.938 -11.596   4.225  1.00  0.00     0.186 HD
ENDBRANCH  19  20
ENDBRANCH  18  19
ENDBRANCH   3  18
TORSDOF 6
ENDMDL
