MODEL 1
REMARK VINA RESULT:    -6.106      0.000      0.000
REMARK INTER + INTRA:          -7.642
REMARK INTER:                  -7.177
REMARK INTRA:                  -0.465
REMARK UNBOUND:                -0.465
REMARK SMILES Cc1ccc(CNC(=O)NC(=O)c2ccc(C)cc2)cc1
REMARK SMILES IDX 11 1 12 2 10 3 8 4 9 5 7 6 13 9 19 10 18 11 14 12 16 13
REMARK SMILES IDX 15 14 17 15 6 16 5 17 4 18 20 19 3 20 21 21 2 22 1 23
REMARK H PARENT 10 7 7 8
ROOT
ATOM      1  C   UNL     1      10.430  -3.154   5.688  1.00  0.00     0.259 C 
ATOM      2  O   UNL     1       9.511  -2.357   5.562  1.00  0.00    -0.269 OA
ATOM      3  N   UNL     1      10.570  -4.424   5.121  1.00  0.00    -0.274 N 
ATOM      4  C   UNL     1       9.983  -5.159   4.123  1.00  0.00     0.321 C 
ATOM      5  O   UNL     1      10.503  -6.240   3.826  1.00  0.00    -0.248 OA
ATOM      6  N   UNL     1       8.899  -4.751   3.437  1.00  0.00    -0.334 N 
ATOM      7  H   UNL     1      11.415  -4.910   5.391  1.00  0.00     0.175 HD
ATOM      8  H   UNL     1       8.643  -5.366   2.678  1.00  0.00     0.165 HD
ENDROOT
BRANCH   1   9
ATOM      9  C   UNL     1      11.555  -2.734   6.545  1.00  0.00     0.040 A 
ATOM     10  C   UNL     1      11.341  -2.064   7.752  1.00  0.00     0.014 A 
ATOM     11  C   UNL     1      12.434  -1.735   8.554  1.00  0.00     0.004 A 
ATOM     12  C   UNL     1      12.853  -3.021   6.112  1.00  0.00     0.014 A 
ATOM     13  C   UNL     1      13.737  -2.065   8.153  1.00  0.00    -0.051 A 
ATOM     14  C   UNL     1      13.941  -2.696   6.920  1.00  0.00     0.004 A 
ATOM     15  C   UNL     1      14.894  -1.780   9.065  1.00  0.00     0.044 C 
ENDBRANCH   1   9
BRANCH   6  16
ATOM     16  C   UNL     1       8.212  -3.496   3.552  1.00  0.00     0.153 C 
BRANCH  16  17
ATOM     17  C   UNL     1       6.712  -3.520   3.453  1.00  0.00    -0.029 A 
ATOM     18  C   UNL     1       6.027  -3.494   2.233  1.00  0.00     0.006 A 
ATOM     19  C   UNL     1       5.993  -3.791   4.628  1.00  0.00     0.006 A 
ATOM     20  C   UNL     1       4.654  -3.760   2.195  1.00  0.00     0.004 A 
ATOM     21  C   UNL     1       4.629  -4.060   4.589  1.00  0.00     0.004 A 
ATOM     22  C   UNL     1       3.949  -4.057   3.370  1.00  0.00    -0.051 A 
ATOM     23  C   UNL     1       2.512  -4.482   3.321  1.00  0.00     0.044 C 
ENDBRANCH  16  17
ENDBRANCH   6  16
TORSDOF 3
ENDMDL
MODEL 2
REMARK VINA RESULT:    -6.089      3.034      5.409
REMARK INTER + INTRA:          -7.622
REMARK INTER:                  -7.157
REMARK INTRA:                  -0.465
REMARK UNBOUND:                -0.465
REMARK SMILES Cc1ccc(CNC(=O)NC(=O)c2ccc(C)cc2)cc1
REMARK SMILES IDX 11 1 12 2 10 3 8 4 9 5 7 6 13 9 19 10 18 11 14 12 16 13
REMARK SMILES IDX 15 14 17 15 6 16 5 17 4 18 20 19 3 20 21 21 2 22 1 23
REMARK H PARENT 10 7 7 8
ROOT
ATOM      1  C   UNL     1       9.919  -6.063   3.634  1.00  0.00     0.259 C 
ATOM      2  O   UNL     1       8.816  -6.041   3.104  1.00  0.00    -0.269 OA
ATOM      3  N   UNL     1      10.520  -5.095   4.444  1.00  0.00    -0.274 N 
ATOM      4  C   UNL     1      10.139  -3.972   5.134  1.00  0.00     0.321 C 
ATOM      5  O   UNL     1      10.976  -3.442   5.873  1.00  0.00    -0.248 OA
ATOM      6  N   UNL     1       8.903  -3.443   5.070  1.00  0.00    -0.334 N 
ATOM      7  H   UNL     1      11.455  -5.329   4.751  1.00  0.00     0.175 HD
ATOM      8  H   UNL     1       8.759  -2.669   5.703  1.00  0.00     0.165 HD
ENDROOT
BRANCH   1   9
ATOM      9  C   UNL     1      10.739  -7.267   3.402  1.00  0.00     0.040 A 
ATOM     10  C   UNL     1      10.792  -7.882   2.149  1.00  0.00     0.014 A 
ATOM     11  C   UNL     1      11.623  -8.987   1.965  1.00  0.00     0.004 A 
ATOM     12  C   UNL     1      11.464  -7.786   4.479  1.00  0.00     0.014 A 
ATOM     13  C   UNL     1      12.394  -9.484   3.026  1.00  0.00    -0.051 A 
ATOM     14  C   UNL     1      12.297  -8.886   4.289  1.00  0.00     0.004 A 
ATOM     15  C   UNL     1      13.346 -10.620   2.790  1.00  0.00     0.044 C 
ENDBRANCH   1   9
BRANCH   6  16
ATOM     16  C   UNL     1       7.765  -3.957   4.362  1.00  0.00     0.153 C 
BRANCH  16  17
ATOM     17  C   UNL     1       6.863  -2.961   3.689  1.00  0.00    -0.029 A 
ATOM     18  C   UNL     1       5.829  -2.296   4.356  1.00  0.00     0.006 A 
ATOM     19  C   UNL     1       7.220  -2.538   2.399  1.00  0.00     0.006 A 
ATOM     20  C   UNL     1       5.185  -1.213   3.747  1.00  0.00     0.004 A 
ATOM     21  C   UNL     1       6.582  -1.458   1.796  1.00  0.00     0.004 A 
ATOM     22  C   UNL     1       5.566  -0.779   2.470  1.00  0.00    -0.051 A 
ATOM     23  C   UNL     1       4.981   0.465   1.871  1.00  0.00     0.044 C 
ENDBRANCH  16  17
ENDBRANCH   6  16
TORSDOF 3
ENDMDL
MODEL 3
REMARK VINA RESULT:    -5.961      3.177      7.390
REMARK INTER + INTRA:          -7.471
REMARK INTER:                  -7.109
REMARK INTRA:                  -0.362
REMARK UNBOUND:                -0.465
REMARK SMILES Cc1ccc(CNC(=O)NC(=O)c2ccc(C)cc2)cc1
REMARK SMILES IDX 11 1 12 2 10 3 8 4 9 5 7 6 13 9 19 10 18 11 14 12 16 13
REMARK SMILES IDX 15 14 17 15 6 16 5 17 4 18 20 19 3 20 21 21 2 22 1 23
REMARK H PARENT 10 7 7 8
ROOT
ATOM      1  C   UNL     1       8.045  -3.865   3.712  1.00  0.00     0.259 C 
ATOM      2  O   UNL     1       7.745  -4.985   3.324  1.00  0.00    -0.269 OA
ATOM      3  N   UNL     1       9.128  -3.475   4.507  1.00  0.00    -0.274 N 
ATOM      4  C   UNL     1      10.312  -4.014   4.941  1.00  0.00     0.321 C 
ATOM      5  O   UNL     1      11.093  -3.271   5.545  1.00  0.00    -0.248 OA
ATOM      6  N   UNL     1      10.675  -5.291   4.717  1.00  0.00    -0.334 N 
ATOM      7  H   UNL     1       9.156  -2.487   4.717  1.00  0.00     0.175 HD
ATOM      8  H   UNL     1      11.612  -5.507   5.025  1.00  0.00     0.165 HD
ENDROOT
BRANCH   1   9
ATOM      9  C   UNL     1       7.161  -2.761   3.293  1.00  0.00     0.040 A 
ATOM     10  C   UNL     1       6.229  -2.202   4.170  1.00  0.00     0.014 A 
ATOM     11  C   UNL     1       5.451  -1.124   3.744  1.00  0.00     0.004 A 
ATOM     12  C   UNL     1       7.275  -2.290   1.981  1.00  0.00     0.014 A 
ATOM     13  C   UNL     1       5.595  -0.611   2.447  1.00  0.00    -0.051 A 
ATOM     14  C   UNL     1       6.500  -1.210   1.563  1.00  0.00     0.004 A 
ATOM     15  C   UNL     1       4.812   0.601   2.032  1.00  0.00     0.044 C 
ENDBRANCH   1   9
BRANCH   6  16
ATOM     16  C   UNL     1       9.970  -6.281   3.954  1.00  0.00     0.153 C 
BRANCH  16  17
ATOM     17  C   UNL     1      10.731  -7.514   3.552  1.00  0.00    -0.029 A 
ATOM     18  C   UNL     1      10.805  -7.969   2.232  1.00  0.00     0.006 A 
ATOM     19  C   UNL     1      11.565  -8.098   4.519  1.00  0.00     0.006 A 
ATOM     20  C   UNL     1      11.717  -8.972   1.887  1.00  0.00     0.004 A 
ATOM     21  C   UNL     1      12.475  -9.092   4.174  1.00  0.00     0.004 A 
ATOM     22  C   UNL     1      12.566  -9.531   2.852  1.00  0.00    -0.051 A 
ATOM     23  C   UNL     1      13.642 -10.502   2.465  1.00  0.00     0.044 C 
ENDBRANCH  16  17
ENDBRANCH   6  16
TORSDOF 3
ENDMDL
MODEL 4
REMARK VINA RESULT:    -5.958      0.506      8.109
REMARK INTER + INTRA:          -7.468
REMARK INTER:                  -7.105
REMARK INTRA:                  -0.363
REMARK UNBOUND:                -0.465
REMARK SMILES Cc1ccc(CNC(=O)NC(=O)c2ccc(C)cc2)cc1
REMARK SMILES IDX 11 1 12 2 10 3 8 4 9 5 7 6 13 9 19 10 18 11 14 12 16 13
REMARK SMILES IDX 15 14 17 15 6 16 5 17 4 18 20 19 3 20 21 21 2 22 1 23
REMARK H PARENT 10 7 7 8
ROOT
ATOM      1  C   UNL     1       8.001  -3.613   4.217  1.00  0.00     0.259 C 
ATOM      2  O   UNL     1       8.350  -2.506   4.603  1.00  0.00    -0.269 OA
ATOM      3  N   UNL     1       8.778  -4.763   4.039  1.00  0.00    -0.274 N 
ATOM      4  C   UNL     1      10.026  -5.207   4.392  1.00  0.00     0.321 C 
ATOM      5  O   UNL     1      10.305  -6.386   4.147  1.00  0.00    -0.248 OA
ATOM      6  N   UNL     1      10.941  -4.440   5.013  1.00  0.00    -0.334 N 
ATOM      7  H   UNL     1       8.266  -5.561   3.686  1.00  0.00     0.175 HD
ATOM      8  H   UNL     1      11.776  -4.941   5.281  1.00  0.00     0.165 HD
ENDROOT
BRANCH   1   9
ATOM      9  C   UNL     1       6.571  -3.781   3.897  1.00  0.00     0.040 A 
ATOM     10  C   UNL     1       6.118  -3.800   2.577  1.00  0.00     0.014 A 
ATOM     11  C   UNL     1       4.763  -4.014   2.322  1.00  0.00     0.004 A 
ATOM     12  C   UNL     1       5.671  -3.914   4.959  1.00  0.00     0.014 A 
ATOM     13  C   UNL     1       3.860  -4.200   3.379  1.00  0.00    -0.051 A 
ATOM     14  C   UNL     1       4.320  -4.134   4.700  1.00  0.00     0.004 A 
ATOM     15  C   UNL     1       2.422  -4.513   3.087  1.00  0.00     0.044 C 
ENDBRANCH   1   9
BRANCH   6  16
ATOM     16  C   UNL     1      10.784  -3.091   5.477  1.00  0.00     0.153 C 
BRANCH  16  17
ATOM     17  C   UNL     1      11.800  -2.575   6.457  1.00  0.00    -0.029 A 
ATOM     18  C   UNL     1      11.455  -2.018   7.693  1.00  0.00     0.006 A 
ATOM     19  C   UNL     1      13.149  -2.865   6.197  1.00  0.00     0.006 A 
ATOM     20  C   UNL     1      12.443  -1.781   8.654  1.00  0.00     0.004 A 
ATOM     21  C   UNL     1      14.130  -2.633   7.156  1.00  0.00     0.004 A 
ATOM     22  C   UNL     1      13.784  -2.098   8.398  1.00  0.00    -0.051 A 
ATOM     23  C   UNL     1      14.824  -1.980   9.471  1.00  0.00     0.044 C 
ENDBRANCH  16  17
ENDBRANCH   6  16
TORSDOF 3
ENDMDL
MODEL 5
REMARK VINA RESULT:    -5.720      2.923      5.142
REMARK INTER + INTRA:          -7.188
REMARK INTER:                  -6.710
REMARK INTRA:                  -0.478
REMARK UNBOUND:                -0.465
REMARK SMILES Cc1ccc(CNC(=O)NC(=O)c2ccc(C)cc2)cc1
REMARK SMILES IDX 11 1 12 2 10 3 8 4 9 5 7 6 13 9 19 10 18 11 14 12 16 13
REMARK SMILES IDX 15 14 17 15 6 16 5 17 4 18 20 19 3 20 21 21 2 22 1 23
REMARK H PARENT 10 7 7 8
ROOT
ATOM      1  C   UNL     1      10.020  -6.478   3.933  1.00  0.00     0.259 C 
ATOM      2  O   UNL     1       8.827  -6.715   3.803  1.00  0.00    -0.269 OA
ATOM      3  N   UNL     1      10.635  -5.309   4.394  1.00  0.00    -0.274 N 
ATOM      4  C   UNL     1      10.269  -4.164   5.054  1.00  0.00     0.321 C 
ATOM      5  O   UNL     1      11.168  -3.397   5.413  1.00  0.00    -0.248 OA
ATOM      6  N   UNL     1       8.994  -3.854   5.354  1.00  0.00    -0.334 N 
ATOM      7  H   UNL     1      11.646  -5.341   4.391  1.00  0.00     0.175 HD
ATOM      8  H   UNL     1       8.900  -3.020   5.917  1.00  0.00     0.165 HD
ENDROOT
BRANCH   1   9
ATOM      9  C   UNL     1      10.953  -7.559   3.562  1.00  0.00     0.040 A 
ATOM     10  C   UNL     1      11.807  -8.138   4.502  1.00  0.00     0.014 A 
ATOM     11  C   UNL     1      12.634  -9.193   4.117  1.00  0.00     0.004 A 
ATOM     12  C   UNL     1      10.965  -7.989   2.231  1.00  0.00     0.014 A 
ATOM     13  C   UNL     1      12.616  -9.666   2.796  1.00  0.00    -0.051 A 
ATOM     14  C   UNL     1      11.788  -9.047   1.852  1.00  0.00     0.004 A 
ATOM     15  C   UNL     1      13.448 -10.856   2.418  1.00  0.00     0.044 C 
ENDBRANCH   1   9
BRANCH   6  16
ATOM     16  C   UNL     1       7.821  -4.648   5.123  1.00  0.00     0.153 C 
BRANCH  16  17
ATOM     17  C   UNL     1       6.664  -3.985   4.428  1.00  0.00    -0.029 A 
ATOM     18  C   UNL     1       6.755  -3.444   3.142  1.00  0.00     0.006 A 
ATOM     19  C   UNL     1       5.398  -4.111   5.023  1.00  0.00     0.006 A 
ATOM     20  C   UNL     1       5.595  -3.061   2.460  1.00  0.00     0.004 A 
ATOM     21  C   UNL     1       4.245  -3.735   4.342  1.00  0.00     0.004 A 
ATOM     22  C   UNL     1       4.333  -3.216   3.049  1.00  0.00    -0.051 A 
ATOM     23  C   UNL     1       3.080  -2.942   2.273  1.00  0.00     0.044 C 
ENDBRANCH  16  17
ENDBRANCH   6  16
TORSDOF 3
ENDMDL
MODEL 6
REMARK VINA RESULT:    -5.701      1.077      1.755
REMARK INTER + INTRA:          -7.166
REMARK INTER:                  -6.726
REMARK INTRA:                  -0.439
REMARK UNBOUND:                -0.465
REMARK SMILES Cc1ccc(CNC(=O)NC(=O)c2ccc(C)cc2)cc1
REMARK SMILES IDX 11 1 12 2 10 3 8 4 9 5 7 6 13 9 19 10 18 11 14 12 16 13
REMARK SMILES IDX 15 14 17 15 6 16 5 17 4 18 20 19 3 20 21 21 2 22 1 23
REMARK H PARENT 10 7 7 8
ROOT
ATOM      1  C   UNL     1      10.461  -2.982   5.651  1.00  0.00     0.259 C 
ATOM      2  O   UNL     1       9.705  -2.041   5.450  1.00  0.00    -0.269 OA
ATOM      3  N   UNL     1      10.388  -4.286   5.152  1.00  0.00    -0.274 N 
ATOM      4  C   UNL     1       9.710  -4.957   4.167  1.00  0.00     0.321 C 
ATOM      5  O   UNL     1      10.035  -6.128   3.943  1.00  0.00    -0.248 OA
ATOM      6  N   UNL     1       8.740  -4.400   3.418  1.00  0.00    -0.334 N 
ATOM      7  H   UNL     1      11.122  -4.900   5.479  1.00  0.00     0.175 HD
ATOM      8  H   UNL     1       8.402  -5.000   2.679  1.00  0.00     0.165 HD
ENDROOT
BRANCH   1   9
ATOM      9  C   UNL     1      11.615  -2.724   6.534  1.00  0.00     0.040 A 
ATOM     10  C   UNL     1      12.911  -3.089   6.163  1.00  0.00     0.014 A 
ATOM     11  C   UNL     1      13.977  -2.777   7.007  1.00  0.00     0.004 A 
ATOM     12  C   UNL     1      11.375  -2.107   7.765  1.00  0.00     0.014 A 
ATOM     13  C   UNL     1      13.753  -2.111   8.221  1.00  0.00    -0.051 A 
ATOM     14  C   UNL     1      12.444  -1.792   8.602  1.00  0.00     0.004 A 
ATOM     15  C   UNL     1      14.917  -1.708   9.077  1.00  0.00     0.044 C 
ENDBRANCH   1   9
BRANCH   6  16
ATOM     16  C   UNL     1       8.287  -3.038   3.444  1.00  0.00     0.153 C 
BRANCH  16  17
ATOM     17  C   UNL     1       6.805  -2.802   3.356  1.00  0.00    -0.029 A 
ATOM     18  C   UNL     1       6.145  -1.807   4.084  1.00  0.00     0.006 A 
ATOM     19  C   UNL     1       6.106  -3.476   2.341  1.00  0.00     0.006 A 
ATOM     20  C   UNL     1       4.819  -1.480   3.781  1.00  0.00     0.004 A 
ATOM     21  C   UNL     1       4.789  -3.147   2.037  1.00  0.00     0.004 A 
ATOM     22  C   UNL     1       4.137  -2.138   2.748  1.00  0.00    -0.051 A 
ATOM     23  C   UNL     1       2.768  -1.697   2.324  1.00  0.00     0.044 C 
ENDBRANCH  16  17
ENDBRANCH   6  16
TORSDOF 3
ENDMDL
MODEL 7
REMARK VINA RESULT:    -5.281      1.613      2.201
REMARK INTER + INTRA:          -6.672
REMARK INTER:                  -6.174
REMARK INTRA:                  -0.498
REMARK UNBOUND:                -0.465
REMARK SMILES Cc1ccc(CNC(=O)NC(=O)c2ccc(C)cc2)cc1
REMARK SMILES IDX 11 1 12 2 10 3 8 4 9 5 7 6 13 9 19 10 18 11 14 12 16 13
REMARK SMILES IDX 15 14 17 15 6 16 5 17 4 18 20 19 3 20 21 21 2 22 1 23
REMARK H PARENT 10 7 7 8
ROOT
ATOM      1  C   UNL     1      10.095  -3.662   5.675  1.00  0.00     0.259 C 
ATOM      2  O   UNL     1       9.054  -3.246   6.163  1.00  0.00    -0.269 OA
ATOM      3  N   UNL     1      10.269  -4.559   4.616  1.00  0.00    -0.274 N 
ATOM      4  C   UNL     1       9.506  -5.107   3.617  1.00  0.00     0.321 C 
ATOM      5  O   UNL     1      10.083  -5.785   2.761  1.00  0.00    -0.248 OA
ATOM      6  N   UNL     1       8.177  -4.919   3.507  1.00  0.00    -0.334 N 
ATOM      7  H   UNL     1      11.234  -4.772   4.404  1.00  0.00     0.175 HD
ATOM      8  H   UNL     1       7.779  -5.318   2.669  1.00  0.00     0.165 HD
ENDROOT
BRANCH   1   9
ATOM      9  C   UNL     1      11.349  -3.159   6.267  1.00  0.00     0.040 A 
ATOM     10  C   UNL     1      11.341  -2.247   7.324  1.00  0.00     0.014 A 
ATOM     11  C   UNL     1      12.551  -1.839   7.886  1.00  0.00     0.004 A 
ATOM     12  C   UNL     1      12.558  -3.616   5.733  1.00  0.00     0.014 A 
ATOM     13  C   UNL     1      13.768  -2.333   7.391  1.00  0.00    -0.051 A 
ATOM     14  C   UNL     1      13.764  -3.212   6.301  1.00  0.00     0.004 A 
ATOM     15  C   UNL     1      15.055  -1.951   8.060  1.00  0.00     0.044 C 
ENDBRANCH   1   9
BRANCH   6  16
ATOM     16  C   UNL     1       7.339  -4.091   4.326  1.00  0.00     0.153 C 
BRANCH  16  17
ATOM     17  C   UNL     1       6.568  -2.997   3.640  1.00  0.00    -0.029 A 
ATOM     18  C   UNL     1       5.537  -2.285   4.261  1.00  0.00     0.006 A 
ATOM     19  C   UNL     1       7.055  -2.545   2.403  1.00  0.00     0.006 A 
ATOM     20  C   UNL     1       5.025  -1.129   3.662  1.00  0.00     0.004 A 
ATOM     21  C   UNL     1       6.549  -1.393   1.811  1.00  0.00     0.004 A 
ATOM     22  C   UNL     1       5.535  -0.668   2.441  1.00  0.00    -0.051 A 
ATOM     23  C   UNL     1       5.093   0.643   1.865  1.00  0.00     0.044 C 
ENDBRANCH  16  17
ENDBRANCH   6  16
TORSDOF 3
ENDMDL
MODEL 8
REMARK VINA RESULT:    -4.692      4.606      8.075
REMARK INTER + INTRA:          -5.979
REMARK INTER:                  -5.511
REMARK INTRA:                  -0.468
REMARK UNBOUND:                -0.465
REMARK SMILES Cc1ccc(CNC(=O)NC(=O)c2ccc(C)cc2)cc1
REMARK SMILES IDX 11 1 12 2 10 3 8 4 9 5 7 6 13 9 19 10 18 11 14 12 16 13
REMARK SMILES IDX 15 14 17 15 6 16 5 17 4 18 20 19 3 20 21 21 2 22 1 23
REMARK H PARENT 10 7 7 8
ROOT
ATOM      1  C   UNL     1       9.940  -6.568   3.742  1.00  0.00     0.259 C 
ATOM      2  O   UNL     1       9.603  -7.374   2.887  1.00  0.00    -0.269 OA
ATOM      3  N   UNL     1      11.001  -6.645   4.649  1.00  0.00    -0.274 N 
ATOM      4  C   UNL     1      12.135  -7.398   4.820  1.00  0.00     0.321 C 
ATOM      5  O   UNL     1      12.922  -7.056   5.710  1.00  0.00    -0.248 OA
ATOM      6  N   UNL     1      12.444  -8.462   4.056  1.00  0.00    -0.334 N 
ATOM      7  H   UNL     1      11.069  -5.858   5.281  1.00  0.00     0.175 HD
ATOM      8  H   UNL     1      13.353  -8.855   4.254  1.00  0.00     0.165 HD
ENDROOT
BRANCH   1   9
ATOM      9  C   UNL     1       9.133  -5.336   3.844  1.00  0.00     0.040 A 
ATOM     10  C   UNL     1       9.443  -4.199   3.095  1.00  0.00     0.014 A 
ATOM     11  C   UNL     1       8.619  -3.076   3.185  1.00  0.00     0.004 A 
ATOM     12  C   UNL     1       8.044  -5.335   4.721  1.00  0.00     0.014 A 
ATOM     13  C   UNL     1       7.495  -3.083   4.024  1.00  0.00    -0.051 A 
ATOM     14  C   UNL     1       7.221  -4.213   4.803  1.00  0.00     0.004 A 
ATOM     15  C   UNL     1       6.572  -1.900   4.045  1.00  0.00     0.044 C 
ENDBRANCH   1   9
BRANCH   6  16
ATOM     16  C   UNL     1      11.727  -8.960   2.916  1.00  0.00     0.153 C 
BRANCH  16  17
ATOM     17  C   UNL     1      12.529  -9.297   1.690  1.00  0.00    -0.029 A 
ATOM     18  C   UNL     1      12.979  -8.333   0.783  1.00  0.00     0.006 A 
ATOM     19  C   UNL     1      13.014 -10.611   1.580  1.00  0.00     0.006 A 
ATOM     20  C   UNL     1      13.916  -8.677  -0.197  1.00  0.00     0.004 A 
ATOM     21  C   UNL     1      13.949 -10.951   0.608  1.00  0.00     0.004 A 
ATOM     22  C   UNL     1      14.417  -9.984  -0.283  1.00  0.00    -0.051 A 
ATOM     23  C   UNL     1      15.523 -10.325  -1.235  1.00  0.00     0.044 C 
ENDBRANCH  16  17
ENDBRANCH   6  16
TORSDOF 3
ENDMDL
