MODEL 1
REMARK VINA RESULT:    -3.895      0.000      0.000
REMARK INTER + INTRA:          -5.396
REMARK INTER:                  -5.147
REMARK INTRA:                  -0.249
REMARK UNBOUND:                -0.249
REMARK SMILES [H]/N=C\C[C@H]1C[C@@H]1O[C@H]1CO[C@H]2C[C@@H](C3CC3)CCN2C1
REMARK SMILES IDX 7 1 6 2 5 3 8 4 9 5 14 6 13 7 18 8 12 9 19 10 20 11 11 12
REMARK SMILES IDX 21 13 10 14 15 15 16 16 17 17 4 18 3 19 2 20 1 21
REMARK H PARENT
ROOT
ATOM      1  C   UNL     1      10.927  -0.227   3.915  1.00  0.00     0.122 C 
ATOM      2  C   UNL     1      11.983   0.660   4.512  1.00  0.00     0.039 C 
ATOM      3  C   UNL     1      11.150  -0.216   5.403  1.00  0.00     0.026 C 
ENDROOT
BRANCH   1   4
ATOM      4  O   UNL     1       9.769   0.481   3.432  1.00  0.00    -0.371 OA
BRANCH   4   5
ATOM      5  C   UNL     1       9.951   1.198   2.200  1.00  0.00     0.158 C 
ATOM      6  C   UNL     1       5.447  -0.062  -0.110  1.00  0.00    -0.003 C 
ATOM      7  C   UNL     1       6.751  -0.795   0.228  1.00  0.00     0.052 C 
ATOM      8  C   UNL     1       5.170   1.000   0.964  1.00  0.00     0.019 C 
ATOM      9  C   UNL     1       7.912   0.182   0.457  1.00  0.00     0.189 C 
ATOM     10  C   UNL     1       6.375   1.918   1.167  1.00  0.00     0.087 C 
ATOM     11  N   UNL     1       7.570   1.145   1.504  1.00  0.00    -0.276 NA
ATOM     12  O   UNL     1       9.049  -0.609   0.806  1.00  0.00    -0.360 OA
ATOM     13  C   UNL     1       8.716   2.017   1.787  1.00  0.00     0.121 C 
ATOM     14  C   UNL     1      10.212   0.176   1.089  1.00  0.00     0.195 C 
BRANCH   6  15
ATOM     15  C   UNL     1       4.284  -1.021  -0.221  1.00  0.00    -0.008 C 
ATOM     16  C   UNL     1       3.393  -1.003  -1.441  1.00  0.00     0.004 C 
ATOM     17  C   UNL     1       4.315  -2.164  -1.207  1.00  0.00     0.004 C 
ENDBRANCH   6  15
ENDBRANCH   4   5
ENDBRANCH   1   4
BRANCH   3  18
ATOM     18  C   UNL     1      11.797  -1.388   6.078  1.00  0.00     0.053 C 
BRANCH  18  19
ATOM     19  C   UNL     1      13.061  -1.101   6.846  1.00  0.00     0.074 C 
BRANCH  19  20
ATOM     20  N   UNL     1      13.127  -0.628   8.047  1.00  0.00    -0.313 NA
ATOM     21  H   UNL     1      12.214  -0.672   8.522  1.00  0.00     0.186 HD
ENDBRANCH  19  20
ENDBRANCH  18  19
ENDBRANCH   3  18
TORSDOF 6
ENDMDL
MODEL 2
REMARK VINA RESULT:    -3.874      5.200      8.444
REMARK INTER + INTRA:          -5.368
REMARK INTER:                  -5.085
REMARK INTRA:                  -0.283
REMARK UNBOUND:                -0.249
REMARK SMILES [H]/N=C\C[C@H]1C[C@@H]1O[C@H]1CO[C@H]2C[C@@H](C3CC3)CCN2C1
REMARK SMILES IDX 7 1 6 2 5 3 8 4 9 5 14 6 13 7 18 8 12 9 19 10 20 11 11 12
REMARK SMILES IDX 21 13 10 14 15 15 16 16 17 17 4 18 3 19 2 20 1 21
REMARK H PARENT
ROOT
ATOM      1  C   UNL     1       9.931   0.480   0.905  1.00  0.00     0.122 C 
ATOM      2  C   UNL     1       9.923   0.786   2.377  1.00  0.00     0.039 C 
ATOM      3  C   UNL     1       9.195   1.687   1.420  1.00  0.00     0.026 C 
ENDROOT
BRANCH   1   4
ATOM      4  O   UNL     1      11.197   0.723   0.263  1.00  0.00    -0.371 OA
BRANCH   4   5
ATOM      5  C   UNL     1      11.520  -0.161  -0.824  1.00  0.00     0.158 C 
ATOM      6  C   UNL     1      15.412   2.591  -2.941  1.00  0.00    -0.003 C 
ATOM      7  C   UNL     1      13.887   2.730  -2.859  1.00  0.00     0.052 C 
ATOM      8  C   UNL     1      15.929   1.907  -1.668  1.00  0.00     0.019 C 
ATOM      9  C   UNL     1      13.208   1.389  -2.549  1.00  0.00     0.189 C 
ATOM     10  C   UNL     1      15.190   0.597  -1.398  1.00  0.00     0.087 C 
ATOM     11  N   UNL     1      13.747   0.817  -1.314  1.00  0.00    -0.276 NA
ATOM     12  O   UNL     1      11.807   1.652  -2.451  1.00  0.00    -0.360 OA
ATOM     13  C   UNL     1      13.031  -0.416  -0.969  1.00  0.00     0.121 C 
ATOM     14  C   UNL     1      11.040   0.489  -2.125  1.00  0.00     0.195 C 
BRANCH   6  15
ATOM     15  C   UNL     1      16.082   3.933  -3.133  1.00  0.00    -0.008 C 
ATOM     16  C   UNL     1      17.114   4.123  -4.219  1.00  0.00     0.004 C 
ATOM     17  C   UNL     1      15.773   4.786  -4.339  1.00  0.00     0.004 C 
ENDBRANCH   6  15
ENDBRANCH   4   5
ENDBRANCH   1   4
BRANCH   3  18
ATOM     18  C   UNL     1       7.696   1.706   1.438  1.00  0.00     0.053 C 
BRANCH  18  19
ATOM     19  C   UNL     1       7.046   3.063   1.350  1.00  0.00     0.074 C 
BRANCH  19  20
ATOM     20  N   UNL     1       7.582   4.183   1.704  1.00  0.00    -0.313 NA
ATOM     21  H   UNL     1       7.065   4.624   2.477  1.00  0.00     0.186 HD
ENDBRANCH  19  20
ENDBRANCH  18  19
ENDBRANCH   3  18
TORSDOF 6
ENDMDL
MODEL 3
REMARK VINA RESULT:    -3.868      3.272      5.471
REMARK INTER + INTRA:          -5.361
REMARK INTER:                  -5.112
REMARK INTRA:                  -0.249
REMARK UNBOUND:                -0.249
REMARK SMILES [H]/N=C\C[C@H]1C[C@@H]1O[C@H]1CO[C@H]2C[C@@H](C3CC3)CCN2C1
REMARK SMILES IDX 7 1 6 2 5 3 8 4 9 5 14 6 13 7 18 8 12 9 19 10 20 11 11 12
REMARK SMILES IDX 21 13 10 14 15 15 16 16 17 17 4 18 3 19 2 20 1 21
REMARK H PARENT
ROOT
ATOM      1  C   UNL     1      11.446   0.780  -0.743  1.00  0.00     0.122 C 
ATOM      2  C   UNL     1      12.690  -0.004  -1.054  1.00  0.00     0.039 C 
ATOM      3  C   UNL     1      12.030   0.812  -2.128  1.00  0.00     0.026 C 
ENDROOT
BRANCH   1   4
ATOM      4  O   UNL     1      10.271  -0.033  -0.557  1.00  0.00    -0.371 OA
BRANCH   4   5
ATOM      5  C   UNL     1      10.199  -0.741   0.691  1.00  0.00     0.158 C 
ATOM      6  C   UNL     1       5.180   0.144   1.802  1.00  0.00    -0.003 C 
ATOM      7  C   UNL     1       6.465   0.980   1.787  1.00  0.00     0.052 C 
ATOM      8  C   UNL     1       5.259  -0.929   0.707  1.00  0.00     0.019 C 
ATOM      9  C   UNL     1       7.719   0.099   1.864  1.00  0.00     0.189 C 
ATOM     10  C   UNL     1       6.545  -1.747   0.820  1.00  0.00     0.087 C 
ATOM     11  N   UNL     1       7.723  -0.881   0.778  1.00  0.00    -0.276 NA
ATOM     12  O   UNL     1       8.843   0.980   1.796  1.00  0.00    -0.360 OA
ATOM     13  C   UNL     1       8.967  -1.658   0.797  1.00  0.00     0.121 C 
ATOM     14  C   UNL     1      10.097   0.291   1.819  1.00  0.00     0.195 C 
BRANCH   6  15
ATOM     15  C   UNL     1       3.954   1.008   1.611  1.00  0.00    -0.008 C 
ATOM     16  C   UNL     1       2.807   0.935   2.592  1.00  0.00     0.004 C 
ATOM     17  C   UNL     1       3.669   2.163   2.540  1.00  0.00     0.004 C 
ENDBRANCH   6  15
ENDBRANCH   4   5
ENDBRANCH   1   4
BRANCH   3  18
ATOM     18  C   UNL     1      12.719   2.046  -2.630  1.00  0.00     0.053 C 
BRANCH  18  19
ATOM     19  C   UNL     1      14.168   1.891  -3.014  1.00  0.00     0.074 C 
BRANCH  19  20
ATOM     20  N   UNL     1      14.609   1.343  -4.097  1.00  0.00    -0.313 NA
ATOM     21  H   UNL     1      15.142   2.012  -4.671  1.00  0.00     0.186 HD
ENDBRANCH  19  20
ENDBRANCH  18  19
ENDBRANCH   3  18
TORSDOF 6
ENDMDL
MODEL 4
REMARK VINA RESULT:    -3.856      2.695      8.585
REMARK INTER + INTRA:          -5.345
REMARK INTER:                  -5.251
REMARK INTRA:                  -0.094
REMARK UNBOUND:                -0.249
REMARK SMILES [H]/N=C\C[C@H]1C[C@@H]1O[C@H]1CO[C@H]2C[C@@H](C3CC3)CCN2C1
REMARK SMILES IDX 7 1 6 2 5 3 8 4 9 5 14 6 13 7 18 8 12 9 19 10 20 11 11 12
REMARK SMILES IDX 21 13 10 14 15 15 16 16 17 17 4 18 3 19 2 20 1 21
REMARK H PARENT
ROOT
ATOM      1  C   UNL     1       9.843   0.048   1.920  1.00  0.00     0.122 C 
ATOM      2  C   UNL     1      10.158  -0.300   0.492  1.00  0.00     0.039 C 
ATOM      3  C   UNL     1       9.311  -1.225   1.319  1.00  0.00     0.026 C 
ENDROOT
BRANCH   1   4
ATOM      4  O   UNL     1      10.963  -0.082   2.816  1.00  0.00    -0.371 OA
BRANCH   4   5
ATOM      5  C   UNL     1      10.939   0.780   3.966  1.00  0.00     0.158 C 
ATOM      6  C   UNL     1      14.141  -1.945   7.053  1.00  0.00    -0.003 C 
ATOM      7  C   UNL     1      12.707  -2.113   6.536  1.00  0.00     0.052 C 
ATOM      8  C   UNL     1      14.980  -1.218   5.993  1.00  0.00     0.019 C 
ATOM      9  C   UNL     1      12.108  -0.778   6.071  1.00  0.00     0.189 C 
ATOM     10  C   UNL     1      14.314   0.083   5.548  1.00  0.00     0.087 C 
ATOM     11  N   UNL     1      12.960  -0.164   5.052  1.00  0.00    -0.276 NA
ATOM     12  O   UNL     1      10.801  -1.068   5.574  1.00  0.00    -0.360 OA
ATOM     13  C   UNL     1      12.338   1.062   4.541  1.00  0.00     0.121 C 
ATOM     14  C   UNL     1      10.126   0.087   5.064  1.00  0.00     0.195 C 
BRANCH   6  15
ATOM     15  C   UNL     1      14.765  -3.277   7.402  1.00  0.00    -0.008 C 
ATOM     16  C   UNL     1      15.934  -3.346   8.356  1.00  0.00     0.004 C 
ATOM     17  C   UNL     1      14.594  -3.874   8.778  1.00  0.00     0.004 C 
ENDBRANCH   6  15
ENDBRANCH   4   5
ENDBRANCH   1   4
BRANCH   3  18
ATOM     18  C   UNL     1       7.852  -1.356   0.997  1.00  0.00     0.053 C 
BRANCH  18  19
ATOM     19  C   UNL     1       7.361  -2.745   0.685  1.00  0.00     0.074 C 
BRANCH  19  20
ATOM     20  N   UNL     1       8.080  -3.819   0.677  1.00  0.00    -0.313 NA
ATOM     21  H   UNL     1       7.708  -4.529   1.323  1.00  0.00     0.186 HD
ENDBRANCH  19  20
ENDBRANCH  18  19
ENDBRANCH   3  18
TORSDOF 6
ENDMDL
MODEL 5
REMARK VINA RESULT:    -3.204      4.837      7.229
REMARK INTER + INTRA:          -4.483
REMARK INTER:                  -4.271
REMARK INTRA:                  -0.211
REMARK UNBOUND:                -0.249
REMARK SMILES [H]/N=C\C[C@H]1C[C@@H]1O[C@H]1CO[C@H]2C[C@@H](C3CC3)CCN2C1
REMARK SMILES IDX 7 1 6 2 5 3 8 4 9 5 14 6 13 7 18 8 12 9 19 10 20 11 11 12
REMARK SMILES IDX 21 13 10 14 15 15 16 16 17 17 4 18 3 19 2 20 1 21
REMARK H PARENT
ROOT
ATOM      1  C   UNL     1      13.813   2.765  -2.971  1.00  0.00     0.122 C 
ATOM      2  C   UNL     1      13.744   4.226  -3.316  1.00  0.00     0.039 C 
ATOM      3  C   UNL     1      14.700   3.750  -2.260  1.00  0.00     0.026 C 
ENDROOT
BRANCH   1   4
ATOM      4  O   UNL     1      12.671   2.280  -2.239  1.00  0.00    -0.371 OA
BRANCH   4   5
ATOM      5  C   UNL     1      12.425   0.868  -2.341  1.00  0.00     0.158 C 
ATOM      6  C   UNL     1      10.410   0.082   2.406  1.00  0.00    -0.003 C 
ATOM      7  C   UNL     1      11.804   0.378   1.840  1.00  0.00     0.052 C 
ATOM      8  C   UNL     1       9.351   0.764   1.529  1.00  0.00     0.019 C 
ATOM      9  C   UNL     1      11.902   0.022   0.350  1.00  0.00     0.189 C 
ATOM     10  C   UNL     1       9.524   0.396   0.055  1.00  0.00     0.087 C 
ATOM     11  N   UNL     1      10.871   0.727  -0.412  1.00  0.00    -0.276 NA
ATOM     12  O   UNL     1      13.219   0.383  -0.071  1.00  0.00    -0.360 OA
ATOM     13  C   UNL     1      11.026   0.460  -1.846  1.00  0.00     0.121 C 
ATOM     14  C   UNL     1      13.449   0.141  -1.462  1.00  0.00     0.195 C 
BRANCH   6  15
ATOM     15  C   UNL     1      10.285   0.540   3.841  1.00  0.00    -0.008 C 
ATOM     16  C   UNL     1      10.594  -0.409   4.975  1.00  0.00     0.004 C 
ATOM     17  C   UNL     1      11.512   0.745   4.697  1.00  0.00     0.004 C 
ENDBRANCH   6  15
ENDBRANCH   4   5
ENDBRANCH   1   4
BRANCH   3  18
ATOM     18  C   UNL     1      16.172   3.784  -2.544  1.00  0.00     0.053 C 
BRANCH  18  19
ATOM     19  C   UNL     1      17.083   3.509  -1.376  1.00  0.00     0.074 C 
BRANCH  19  20
ATOM     20  N   UNL     1      16.748   3.550  -0.129  1.00  0.00    -0.313 NA
ATOM     21  H   UNL     1      17.513   3.227   0.480  1.00  0.00     0.186 HD
ENDBRANCH  19  20
ENDBRANCH  18  19
ENDBRANCH   3  18
TORSDOF 6
ENDMDL
MODEL 6
REMARK VINA RESULT:    -3.024      3.240      5.266
REMARK INTER + INTRA:          -4.245
REMARK INTER:                  -4.826
REMARK INTRA:                   0.581
REMARK UNBOUND:                -0.249
REMARK SMILES [H]/N=C\C[C@H]1C[C@@H]1O[C@H]1CO[C@H]2C[C@@H](C3CC3)CCN2C1
REMARK SMILES IDX 7 1 6 2 5 3 8 4 9 5 14 6 13 7 18 8 12 9 19 10 20 11 11 12
REMARK SMILES IDX 21 13 10 14 15 15 16 16 17 17 4 18 3 19 2 20 1 21
REMARK H PARENT
ROOT
ATOM      1  C   UNL     1      11.428   0.474  -0.738  1.00  0.00     0.122 C 
ATOM      2  C   UNL     1      11.079   0.038  -2.133  1.00  0.00     0.039 C 
ATOM      3  C   UNL     1      12.051   1.164  -1.921  1.00  0.00     0.026 C 
ENDROOT
BRANCH   1   4
ATOM      4  O   UNL     1      10.371   1.181  -0.062  1.00  0.00    -0.371 OA
BRANCH   4   5
ATOM      5  C   UNL     1      10.178   0.834   1.319  1.00  0.00     0.158 C 
ATOM      6  C   UNL     1       5.530  -1.495   0.901  1.00  0.00    -0.003 C 
ATOM      7  C   UNL     1       6.047  -0.053   0.824  1.00  0.00     0.052 C 
ATOM      8  C   UNL     1       6.608  -2.449   0.368  1.00  0.00     0.019 C 
ATOM      9  C   UNL     1       7.412   0.100   1.509  1.00  0.00     0.189 C 
ATOM     10  C   UNL     1       7.949  -2.222   1.066  1.00  0.00     0.087 C 
ATOM     11  N   UNL     1       8.380  -0.831   0.931  1.00  0.00    -0.276 NA
ATOM     12  O   UNL     1       7.806   1.462   1.333  1.00  0.00    -0.360 OA
ATOM     13  C   UNL     1       9.707  -0.617   1.520  1.00  0.00     0.121 C 
ATOM     14  C   UNL     1       9.092   1.750   1.893  1.00  0.00     0.195 C 
BRANCH   6  15
ATOM     15  C   UNL     1       4.242  -1.664   0.127  1.00  0.00    -0.008 C 
ATOM     16  C   UNL     1       3.746  -0.564  -0.781  1.00  0.00     0.004 C 
ATOM     17  C   UNL     1       4.257  -1.845  -1.371  1.00  0.00     0.004 C 
ENDBRANCH   6  15
ENDBRANCH   4   5
ENDBRANCH   1   4
BRANCH   3  18
ATOM     18  C   UNL     1      13.498   0.946  -2.247  1.00  0.00     0.053 C 
BRANCH  18  19
ATOM     19  C   UNL     1      14.090   1.857  -3.292  1.00  0.00     0.074 C 
BRANCH  19  20
ATOM     20  N   UNL     1      14.642   1.483  -4.397  1.00  0.00    -0.313 NA
ATOM     21  H   UNL     1      15.665   1.599  -4.370  1.00  0.00     0.186 HD
ENDBRANCH  19  20
ENDBRANCH  18  19
ENDBRANCH   3  18
TORSDOF 6
ENDMDL
MODEL 7
REMARK VINA RESULT:    -2.901      5.225      7.804
REMARK INTER + INTRA:          -4.082
REMARK INTER:                  -4.212
REMARK INTRA:                   0.130
REMARK UNBOUND:                -0.249
REMARK SMILES [H]/N=C\C[C@H]1C[C@@H]1O[C@H]1CO[C@H]2C[C@@H](C3CC3)CCN2C1
REMARK SMILES IDX 7 1 6 2 5 3 8 4 9 5 14 6 13 7 18 8 12 9 19 10 20 11 11 12
REMARK SMILES IDX 21 13 10 14 15 15 16 16 17 17 4 18 3 19 2 20 1 21
REMARK H PARENT
ROOT
ATOM      1  C   UNL     1      10.057   0.791   1.122  1.00  0.00     0.122 C 
ATOM      2  C   UNL     1       9.761  -0.676   1.256  1.00  0.00     0.039 C 
ATOM      3  C   UNL     1      10.514   0.039   2.341  1.00  0.00     0.026 C 
ENDROOT
BRANCH   1   4
ATOM      4  O   UNL     1      11.063   1.099   0.139  1.00  0.00    -0.371 OA
BRANCH   4   5
ATOM      5  C   UNL     1      11.337   0.060  -0.814  1.00  0.00     0.158 C 
ATOM      6  C   UNL     1      15.464   2.219  -3.162  1.00  0.00    -0.003 C 
ATOM      7  C   UNL     1      13.953   2.478  -3.140  1.00  0.00     0.052 C 
ATOM      8  C   UNL     1      15.905   1.673  -1.796  1.00  0.00     0.019 C 
ATOM      9  C   UNL     1      13.169   1.242  -2.678  1.00  0.00     0.189 C 
ATOM     10  C   UNL     1      15.065   0.466  -1.379  1.00  0.00     0.087 C 
ATOM     11  N   UNL     1      13.640   0.800  -1.365  1.00  0.00    -0.276 NA
ATOM     12  O   UNL     1      11.791   1.618  -2.655  1.00  0.00    -0.360 OA
ATOM     13  C   UNL     1      12.827  -0.321  -0.884  1.00  0.00     0.121 C 
ATOM     14  C   UNL     1      10.932   0.567  -2.202  1.00  0.00     0.195 C 
BRANCH   6  15
ATOM     15  C   UNL     1      16.237   3.472  -3.507  1.00  0.00    -0.008 C 
ATOM     16  C   UNL     1      16.970   3.579  -4.824  1.00  0.00     0.004 C 
ATOM     17  C   UNL     1      15.746   4.413  -4.580  1.00  0.00     0.004 C 
ENDBRANCH   6  15
ENDBRANCH   4   5
ENDBRANCH   1   4
BRANCH   3  18
ATOM     18  C   UNL     1       9.845   0.264   3.664  1.00  0.00     0.053 C 
BRANCH  18  19
ATOM     19  C   UNL     1      10.707   0.085   4.886  1.00  0.00     0.074 C 
BRANCH  19  20
ATOM     20  N   UNL     1      11.029  -1.043   5.428  1.00  0.00    -0.313 NA
ATOM     21  H   UNL     1      11.206  -0.943   6.437  1.00  0.00     0.186 HD
ENDBRANCH  19  20
ENDBRANCH  18  19
ENDBRANCH   3  18
TORSDOF 6
ENDMDL
MODEL 8
REMARK VINA RESULT:    -2.814      3.554      5.001
REMARK INTER + INTRA:          -3.967
REMARK INTER:                  -3.880
REMARK INTRA:                  -0.087
REMARK UNBOUND:                -0.249
REMARK SMILES [H]/N=C\C[C@H]1C[C@@H]1O[C@H]1CO[C@H]2C[C@@H](C3CC3)CCN2C1
REMARK SMILES IDX 7 1 6 2 5 3 8 4 9 5 14 6 13 7 18 8 12 9 19 10 20 11 11 12
REMARK SMILES IDX 21 13 10 14 15 15 16 16 17 17 4 18 3 19 2 20 1 21
REMARK H PARENT
ROOT
ATOM      1  C   UNL     1      12.662  -2.101   6.724  1.00  0.00     0.122 C 
ATOM      2  C   UNL     1      12.839  -3.593   6.747  1.00  0.00     0.039 C 
ATOM      3  C   UNL     1      14.036  -2.699   6.598  1.00  0.00     0.026 C 
ENDROOT
BRANCH   1   4
ATOM      4  O   UNL     1      12.064  -1.599   5.514  1.00  0.00    -0.371 OA
BRANCH   4   5
ATOM      5  C   UNL     1      11.614  -0.235   5.565  1.00  0.00     0.158 C 
ATOM      6  C   UNL     1      10.597   0.443   0.494  1.00  0.00    -0.003 C 
ATOM      7  C   UNL     1      11.861   0.311   1.353  1.00  0.00     0.052 C 
ATOM      8  C   UNL     1       9.473  -0.400   1.113  1.00  0.00     0.019 C 
ATOM      9  C   UNL     1      11.583   0.626   2.829  1.00  0.00     0.189 C 
ATOM     10  C   UNL     1       9.270  -0.062   2.590  1.00  0.00     0.087 C 
ATOM     11  N   UNL     1      10.514  -0.231   3.341  1.00  0.00    -0.276 NA
ATOM     12  O   UNL     1      12.813   0.426   3.528  1.00  0.00    -0.360 OA
ATOM     13  C   UNL     1      10.315   0.005   4.775  1.00  0.00     0.121 C 
ATOM     14  C   UNL     1      12.699   0.648   4.937  1.00  0.00     0.195 C 
BRANCH   6  15
ATOM     15  C   UNL     1      10.851   0.022  -0.936  1.00  0.00    -0.008 C 
ATOM     16  C   UNL     1      11.396   1.011  -1.938  1.00  0.00     0.004 C 
ATOM     17  C   UNL     1      12.259  -0.120  -1.462  1.00  0.00     0.004 C 
ENDBRANCH   6  15
ENDBRANCH   4   5
ENDBRANCH   1   4
BRANCH   3  18
ATOM     18  C   UNL     1      15.012  -2.597   7.733  1.00  0.00     0.053 C 
BRANCH  18  19
ATOM     19  C   UNL     1      15.626  -3.891   8.201  1.00  0.00     0.074 C 
BRANCH  19  20
ATOM     20  N   UNL     1      15.234  -4.592   9.212  1.00  0.00    -0.313 NA
ATOM     21  H   UNL     1      14.494  -5.258   8.948  1.00  0.00     0.186 HD
ENDBRANCH  19  20
ENDBRANCH  18  19
ENDBRANCH   3  18
TORSDOF 6
ENDMDL
MODEL 9
REMARK VINA RESULT:    -2.636      3.838      6.337
REMARK INTER + INTRA:          -3.732
REMARK INTER:                  -3.816
REMARK INTRA:                   0.083
REMARK UNBOUND:                -0.249
REMARK SMILES [H]/N=C\C[C@H]1C[C@@H]1O[C@H]1CO[C@H]2C[C@@H](C3CC3)CCN2C1
REMARK SMILES IDX 7 1 6 2 5 3 8 4 9 5 14 6 13 7 18 8 12 9 19 10 20 11 11 12
REMARK SMILES IDX 21 13 10 14 15 15 16 16 17 17 4 18 3 19 2 20 1 21
REMARK H PARENT
ROOT
ATOM      1  C   UNL     1      15.924  -2.229   5.898  1.00  0.00     0.122 C 
ATOM      2  C   UNL     1      16.992  -3.245   5.606  1.00  0.00     0.039 C 
ATOM      3  C   UNL     1      17.115  -2.354   6.808  1.00  0.00     0.026 C 
ENDROOT
BRANCH   1   4
ATOM      4  O   UNL     1      15.917  -1.108   4.995  1.00  0.00    -0.371 OA
BRANCH   4   5
ATOM      5  C   UNL     1      15.532   0.151   5.573  1.00  0.00     0.158 C 
ATOM      6  C   UNL     1      10.713   0.475   3.603  1.00  0.00    -0.003 C 
ATOM      7  C   UNL     1      12.137   0.605   3.049  1.00  0.00     0.052 C 
ATOM      8  C   UNL     1      10.707  -0.542   4.753  1.00  0.00     0.019 C 
ATOM      9  C   UNL     1      13.155   0.908   4.157  1.00  0.00     0.189 C 
ATOM     10  C   UNL     1      11.764  -0.203   5.804  1.00  0.00     0.087 C 
ATOM     11  N   UNL     1      13.093  -0.117   5.200  1.00  0.00    -0.276 NA
ATOM     12  O   UNL     1      14.438   0.959   3.531  1.00  0.00    -0.360 OA
ATOM     13  C   UNL     1      14.131   0.122   6.210  1.00  0.00     0.121 C 
ATOM     14  C   UNL     1      15.503   1.199   4.455  1.00  0.00     0.195 C 
BRANCH   6  15
ATOM     15  C   UNL     1       9.734   0.064   2.527  1.00  0.00    -0.008 C 
ATOM     16  C   UNL     1       8.914   1.106   1.803  1.00  0.00     0.004 C 
ATOM     17  C   UNL     1      10.005   0.376   1.075  1.00  0.00     0.004 C 
ENDBRANCH   6  15
ENDBRANCH   4   5
ENDBRANCH   1   4
BRANCH   3  18
ATOM     18  C   UNL     1      16.963  -2.953   8.175  1.00  0.00     0.053 C 
BRANCH  18  19
ATOM     19  C   UNL     1      17.011  -1.990   9.333  1.00  0.00     0.074 C 
BRANCH  19  20
ATOM     20  N   UNL     1      16.598  -0.767   9.319  1.00  0.00    -0.313 NA
ATOM     21  H   UNL     1      15.921  -0.603   8.560  1.00  0.00     0.186 HD
ENDBRANCH  19  20
ENDBRANCH  18  19
ENDBRANCH   3  18
TORSDOF 6
ENDMDL
