MODEL 1
REMARK VINA RESULT:    -5.951      0.000      0.000
REMARK INTER + INTRA:          -7.370
REMARK INTER:                  -6.994
REMARK INTRA:                  -0.375
REMARK UNBOUND:                -0.375
REMARK SMILES Cc1ccc(CNC(=O)NC(=O)c2ccc(C)cc2)cc1
REMARK SMILES IDX 11 1 12 2 10 3 8 4 9 5 7 6 13 9 19 10 18 11 14 12 16 13
REMARK SMILES IDX 15 14 17 15 6 16 5 17 4 18 20 19 3 20 21 21 2 22 1 23
REMARK H PARENT 10 7 7 8
ROOT
ATOM      1  C   UNL     1       8.285   0.105   1.443  1.00  0.00     0.259 C 
ATOM      2  O   UNL     1       8.154   0.369   2.630  1.00  0.00    -0.269 OA
ATOM      3  N   UNL     1       9.442   0.151   0.659  1.00  0.00    -0.274 N 
ATOM      4  C   UNL     1      10.796   0.243   0.855  1.00  0.00     0.321 C 
ATOM      5  O   UNL     1      11.528   0.113  -0.132  1.00  0.00    -0.248 OA
ATOM      6  N   UNL     1      11.362   0.435   2.061  1.00  0.00    -0.334 N 
ATOM      7  H   UNL     1       9.298  -0.094  -0.312  1.00  0.00     0.175 HD
ATOM      8  H   UNL     1      12.371   0.393   2.047  1.00  0.00     0.165 HD
ENDROOT
BRANCH   1   9
ATOM      9  C   UNL     1       7.071  -0.329   0.725  1.00  0.00     0.040 A 
ATOM     10  C   UNL     1       6.309   0.569  -0.024  1.00  0.00     0.014 A 
ATOM     11  C   UNL     1       5.199   0.102  -0.729  1.00  0.00     0.004 A 
ATOM     12  C   UNL     1       6.696  -1.673   0.820  1.00  0.00     0.014 A 
ATOM     13  C   UNL     1       4.844  -1.254  -0.681  1.00  0.00    -0.051 A 
ATOM     14  C   UNL     1       5.591  -2.136   0.110  1.00  0.00     0.004 A 
ATOM     15  C   UNL     1       3.700  -1.756  -1.512  1.00  0.00     0.044 C 
ENDBRANCH   1   9
BRANCH   6  16
ATOM     16  C   UNL     1      10.706   0.506   3.335  1.00  0.00     0.153 C 
BRANCH  16  17
ATOM     17  C   UNL     1      11.536   0.220   4.556  1.00  0.00    -0.029 A 
ATOM     18  C   UNL     1      11.199  -0.760   5.495  1.00  0.00     0.006 A 
ATOM     19  C   UNL     1      12.802   0.823   4.628  1.00  0.00     0.006 A 
ATOM     20  C   UNL     1      12.126  -1.143   6.471  1.00  0.00     0.004 A 
ATOM     21  C   UNL     1      13.725   0.438   5.596  1.00  0.00     0.004 A 
ATOM     22  C   UNL     1      13.398  -0.556   6.520  1.00  0.00    -0.051 A 
ATOM     23  C   UNL     1      14.444  -1.060   7.469  1.00  0.00     0.044 C 
ENDBRANCH  16  17
ENDBRANCH   6  16
TORSDOF 3
ENDMDL
MODEL 2
REMARK VINA RESULT:    -5.932      3.233      5.491
REMARK INTER + INTRA:          -7.348
REMARK INTER:                  -6.980
REMARK INTRA:                  -0.368
REMARK UNBOUND:                -0.375
REMARK SMILES Cc1ccc(CNC(=O)NC(=O)c2ccc(C)cc2)cc1
REMARK SMILES IDX 11 1 12 2 10 3 8 4 9 5 7 6 13 9 19 10 18 11 14 12 16 13
REMARK SMILES IDX 15 14 17 15 6 16 5 17 4 18 20 19 3 20 21 21 2 22 1 23
REMARK H PARENT 10 7 7 8
ROOT
ATOM      1  C   UNL     1       8.349   0.260   1.016  1.00  0.00     0.259 C 
ATOM      2  O   UNL     1       8.533   0.020  -0.169  1.00  0.00    -0.269 OA
ATOM      3  N   UNL     1       9.279   0.280   2.060  1.00  0.00    -0.274 N 
ATOM      4  C   UNL     1      10.643   0.300   2.201  1.00  0.00     0.321 C 
ATOM      5  O   UNL     1      11.099   0.458   3.339  1.00  0.00    -0.248 OA
ATOM      6  N   UNL     1      11.500   0.187   1.170  1.00  0.00    -0.334 N 
ATOM      7  H   UNL     1       8.883   0.485   2.968  1.00  0.00     0.175 HD
ATOM      8  H   UNL     1      12.468   0.307   1.430  1.00  0.00     0.165 HD
ENDROOT
BRANCH   1   9
ATOM      9  C   UNL     1       6.965   0.577   1.418  1.00  0.00     0.040 A 
ATOM     10  C   UNL     1       6.141  -0.382   2.011  1.00  0.00     0.014 A 
ATOM     11  C   UNL     1       4.858  -0.021   2.422  1.00  0.00     0.004 A 
ATOM     12  C   UNL     1       6.493   1.872   1.182  1.00  0.00     0.014 A 
ATOM     13  C   UNL     1       4.393   1.290   2.237  1.00  0.00    -0.051 A 
ATOM     14  C   UNL     1       5.212   2.230   1.600  1.00  0.00     0.004 A 
ATOM     15  C   UNL     1       3.043   1.684   2.761  1.00  0.00     0.044 C 
ENDBRANCH   1   9
BRANCH   6  16
ATOM     16  C   UNL     1      11.182   0.102  -0.228  1.00  0.00     0.153 C 
BRANCH  16  17
ATOM     17  C   UNL     1      12.283   0.404  -1.206  1.00  0.00    -0.029 A 
ATOM     18  C   UNL     1      12.147   1.327  -2.248  1.00  0.00     0.006 A 
ATOM     19  C   UNL     1      13.558  -0.111  -0.919  1.00  0.00     0.006 A 
ATOM     20  C   UNL     1      13.272   1.741  -2.969  1.00  0.00     0.004 A 
ATOM     21  C   UNL     1      14.677   0.304  -1.634  1.00  0.00     0.004 A 
ATOM     22  C   UNL     1      14.545   1.242  -2.659  1.00  0.00    -0.051 A 
ATOM     23  C   UNL     1      15.771   1.786  -3.329  1.00  0.00     0.044 C 
ENDBRANCH  16  17
ENDBRANCH   6  16
TORSDOF 3
ENDMDL
MODEL 3
REMARK VINA RESULT:    -5.839      0.544      8.018
REMARK INTER + INTRA:          -7.238
REMARK INTER:                  -6.744
REMARK INTRA:                  -0.495
REMARK UNBOUND:                -0.375
REMARK SMILES Cc1ccc(CNC(=O)NC(=O)c2ccc(C)cc2)cc1
REMARK SMILES IDX 11 1 12 2 10 3 8 4 9 5 7 6 13 9 19 10 18 11 14 12 16 13
REMARK SMILES IDX 15 14 17 15 6 16 5 17 4 18 20 19 3 20 21 21 2 22 1 23
REMARK H PARENT 10 7 7 8
ROOT
ATOM      1  C   UNL     1      10.507   0.107   3.295  1.00  0.00     0.259 C 
ATOM      2  O   UNL     1       9.321   0.166   3.585  1.00  0.00    -0.269 OA
ATOM      3  N   UNL     1      11.101   0.134   2.029  1.00  0.00    -0.274 N 
ATOM      4  C   UNL     1      10.735   0.448   0.745  1.00  0.00     0.321 C 
ATOM      5  O   UNL     1      11.623   0.473  -0.114  1.00  0.00    -0.248 OA
ATOM      6  N   UNL     1       9.476   0.757   0.384  1.00  0.00    -0.334 N 
ATOM      7  H   UNL     1      12.108   0.048   2.039  1.00  0.00     0.175 HD
ATOM      8  H   UNL     1       9.389   1.047  -0.579  1.00  0.00     0.165 HD
ENDROOT
BRANCH   1   9
ATOM      9  C   UNL     1      11.458  -0.004   4.418  1.00  0.00     0.040 A 
ATOM     10  C   UNL     1      11.213  -0.854   5.498  1.00  0.00     0.014 A 
ATOM     11  C   UNL     1      12.166  -0.965   6.511  1.00  0.00     0.004 A 
ATOM     12  C   UNL     1      12.617   0.777   4.377  1.00  0.00     0.014 A 
ATOM     13  C   UNL     1      13.356  -0.225   6.453  1.00  0.00    -0.051 A 
ATOM     14  C   UNL     1      13.569   0.658   5.387  1.00  0.00     0.004 A 
ATOM     15  C   UNL     1      14.408  -0.418   7.506  1.00  0.00     0.044 C 
ENDBRANCH   1   9
BRANCH   6  16
ATOM     16  C   UNL     1       8.327   0.886   1.236  1.00  0.00     0.153 C 
BRANCH  16  17
ATOM     17  C   UNL     1       7.045   0.259   0.764  1.00  0.00    -0.029 A 
ATOM     18  C   UNL     1       6.096   0.944  -0.001  1.00  0.00     0.006 A 
ATOM     19  C   UNL     1       6.909  -1.129   0.929  1.00  0.00     0.006 A 
ATOM     20  C   UNL     1       5.048   0.244  -0.608  1.00  0.00     0.004 A 
ATOM     21  C   UNL     1       5.869  -1.825   0.320  1.00  0.00     0.004 A 
ATOM     22  C   UNL     1       4.935  -1.145  -0.462  1.00  0.00    -0.051 A 
ATOM     23  C   UNL     1       3.901  -1.920  -1.224  1.00  0.00     0.044 C 
ENDBRANCH  16  17
ENDBRANCH   6  16
TORSDOF 3
ENDMDL
MODEL 4
REMARK VINA RESULT:    -5.828      3.124      7.348
REMARK INTER + INTRA:          -7.225
REMARK INTER:                  -6.736
REMARK INTRA:                  -0.489
REMARK UNBOUND:                -0.375
REMARK SMILES Cc1ccc(CNC(=O)NC(=O)c2ccc(C)cc2)cc1
REMARK SMILES IDX 11 1 12 2 10 3 8 4 9 5 7 6 13 9 19 10 18 11 14 12 16 13
REMARK SMILES IDX 15 14 17 15 6 16 5 17 4 18 20 19 3 20 21 21 2 22 1 23
REMARK H PARENT 10 7 7 8
ROOT
ATOM      1  C   UNL     1      10.947   0.423  -0.254  1.00  0.00     0.259 C 
ATOM      2  O   UNL     1       9.875   0.290  -0.828  1.00  0.00    -0.269 OA
ATOM      3  N   UNL     1      11.211   0.421   1.119  1.00  0.00    -0.274 N 
ATOM      4  C   UNL     1      10.561   0.069   2.275  1.00  0.00     0.321 C 
ATOM      5  O   UNL     1      11.210   0.093   3.326  1.00  0.00    -0.248 OA
ATOM      6  N   UNL     1       9.275  -0.325   2.316  1.00  0.00    -0.334 N 
ATOM      7  H   UNL     1      12.182   0.573   1.357  1.00  0.00     0.175 HD
ATOM      8  H   UNL     1       8.973  -0.632   3.229  1.00  0.00     0.165 HD
ENDROOT
BRANCH   1   9
ATOM      9  C   UNL     1      12.135   0.609  -1.109  1.00  0.00     0.040 A 
ATOM     10  C   UNL     1      12.101   1.435  -2.234  1.00  0.00     0.014 A 
ATOM     11  C   UNL     1      13.265   1.621  -2.981  1.00  0.00     0.004 A 
ATOM     12  C   UNL     1      13.305  -0.076  -0.765  1.00  0.00     0.014 A 
ATOM     13  C   UNL     1      14.457   0.979  -2.614  1.00  0.00    -0.051 A 
ATOM     14  C   UNL     1      14.466   0.117  -1.511  1.00  0.00     0.004 A 
ATOM     15  C   UNL     1      15.719   1.255  -3.377  1.00  0.00     0.044 C 
ENDBRANCH   1   9
BRANCH   6  16
ATOM     16  C   UNL     1       8.383  -0.520   1.208  1.00  0.00     0.153 C 
BRANCH  16  17
ATOM     17  C   UNL     1       6.978  -0.007   1.355  1.00  0.00    -0.029 A 
ATOM     18  C   UNL     1       5.939  -0.770   1.898  1.00  0.00     0.006 A 
ATOM     19  C   UNL     1       6.766   1.363   1.129  1.00  0.00     0.006 A 
ATOM     20  C   UNL     1       4.723  -0.163   2.230  1.00  0.00     0.004 A 
ATOM     21  C   UNL     1       5.558   1.966   1.464  1.00  0.00     0.004 A 
ATOM     22  C   UNL     1       4.529   1.210   2.027  1.00  0.00    -0.051 A 
ATOM     23  C   UNL     1       3.285   1.893   2.510  1.00  0.00     0.044 C 
ENDBRANCH  16  17
ENDBRANCH   6  16
TORSDOF 3
ENDMDL
MODEL 5
REMARK VINA RESULT:    -5.425      1.161      7.874
REMARK INTER + INTRA:          -6.752
REMARK INTER:                  -6.256
REMARK INTRA:                  -0.496
REMARK UNBOUND:                -0.375
REMARK SMILES Cc1ccc(CNC(=O)NC(=O)c2ccc(C)cc2)cc1
REMARK SMILES IDX 11 1 12 2 10 3 8 4 9 5 7 6 13 9 19 10 18 11 14 12 16 13
REMARK SMILES IDX 15 14 17 15 6 16 5 17 4 18 20 19 3 20 21 21 2 22 1 23
REMARK H PARENT 10 7 7 8
ROOT
ATOM      1  C   UNL     1      10.717   0.428   3.491  1.00  0.00     0.259 C 
ATOM      2  O   UNL     1       9.657   0.915   3.860  1.00  0.00    -0.269 OA
ATOM      3  N   UNL     1      11.127   0.106   2.193  1.00  0.00    -0.274 N 
ATOM      4  C   UNL     1      10.727   0.371   0.909  1.00  0.00     0.321 C 
ATOM      5  O   UNL     1      11.463  -0.004  -0.010  1.00  0.00    -0.248 OA
ATOM      6  N   UNL     1       9.599   1.039   0.604  1.00  0.00    -0.334 N 
ATOM      7  H   UNL     1      12.047  -0.311   2.139  1.00  0.00     0.175 HD
ATOM      8  H   UNL     1       9.492   1.227  -0.383  1.00  0.00     0.165 HD
ENDROOT
BRANCH   1   9
ATOM      9  C   UNL     1      11.712   0.138   4.541  1.00  0.00     0.040 A 
ATOM     10  C   UNL     1      12.947   0.788   4.574  1.00  0.00     0.014 A 
ATOM     11  C   UNL     1      13.834   0.519   5.616  1.00  0.00     0.004 A 
ATOM     12  C   UNL     1      11.386  -0.819   5.508  1.00  0.00     0.014 A 
ATOM     13  C   UNL     1      13.495  -0.401   6.620  1.00  0.00    -0.051 A 
ATOM     14  C   UNL     1      12.273  -1.079   6.551  1.00  0.00     0.004 A 
ATOM     15  C   UNL     1      14.423  -0.616   7.780  1.00  0.00     0.044 C 
ENDBRANCH   1   9
BRANCH   6  16
ATOM     16  C   UNL     1       8.667   1.645   1.512  1.00  0.00     0.153 C 
BRANCH  16  17
ATOM     17  C   UNL     1       7.231   1.210   1.419  1.00  0.00    -0.029 A 
ATOM     18  C   UNL     1       6.181   2.094   1.152  1.00  0.00     0.006 A 
ATOM     19  C   UNL     1       6.978  -0.172   1.392  1.00  0.00     0.006 A 
ATOM     20  C   UNL     1       4.910   1.599   0.841  1.00  0.00     0.004 A 
ATOM     21  C   UNL     1       5.715  -0.663   1.078  1.00  0.00     0.004 A 
ATOM     22  C   UNL     1       4.672   0.218   0.789  1.00  0.00    -0.051 A 
ATOM     23  C   UNL     1       3.354  -0.321   0.318  1.00  0.00     0.044 C 
ENDBRANCH  16  17
ENDBRANCH   6  16
TORSDOF 3
ENDMDL
MODEL 6
REMARK VINA RESULT:    -4.663      5.148      8.350
REMARK INTER + INTRA:          -5.857
REMARK INTER:                  -5.563
REMARK INTRA:                  -0.294
REMARK UNBOUND:                -0.375
REMARK SMILES Cc1ccc(CNC(=O)NC(=O)c2ccc(C)cc2)cc1
REMARK SMILES IDX 11 1 12 2 10 3 8 4 9 5 7 6 13 9 19 10 18 11 14 12 16 13
REMARK SMILES IDX 15 14 17 15 6 16 5 17 4 18 20 19 3 20 21 21 2 22 1 23
REMARK H PARENT 10 7 7 8
ROOT
ATOM      1  C   UNL     1      14.425  -0.727   7.187  1.00  0.00     0.259 C 
ATOM      2  O   UNL     1      15.082  -1.722   6.915  1.00  0.00    -0.269 OA
ATOM      3  N   UNL     1      14.544   0.126   8.289  1.00  0.00    -0.274 N 
ATOM      4  C   UNL     1      15.455   0.376   9.283  1.00  0.00     0.321 C 
ATOM      5  O   UNL     1      15.245   1.344  10.022  1.00  0.00    -0.248 OA
ATOM      6  N   UNL     1      16.569  -0.354   9.472  1.00  0.00    -0.334 N 
ATOM      7  H   UNL     1      13.867   0.877   8.309  1.00  0.00     0.175 HD
ATOM      8  H   UNL     1      17.178   0.012  10.190  1.00  0.00     0.165 HD
ENDROOT
BRANCH   1   9
ATOM      9  C   UNL     1      13.360  -0.358   6.235  1.00  0.00     0.040 A 
ATOM     10  C   UNL     1      13.567   0.613   5.252  1.00  0.00     0.014 A 
ATOM     11  C   UNL     1      12.548   0.890   4.341  1.00  0.00     0.004 A 
ATOM     12  C   UNL     1      12.126  -1.005   6.346  1.00  0.00     0.014 A 
ATOM     13  C   UNL     1      11.324   0.209   4.412  1.00  0.00    -0.051 A 
ATOM     14  C   UNL     1      11.113  -0.729   5.429  1.00  0.00     0.004 A 
ATOM     15  C   UNL     1      10.270   0.458   3.373  1.00  0.00     0.044 C 
ENDBRANCH   1   9
BRANCH   6  16
ATOM     16  C   UNL     1      17.049  -1.444   8.670  1.00  0.00     0.153 C 
BRANCH  16  17
ATOM     17  C   UNL     1      17.019  -2.817   9.283  1.00  0.00    -0.029 A 
ATOM     18  C   UNL     1      17.115  -3.040  10.661  1.00  0.00     0.006 A 
ATOM     19  C   UNL     1      16.669  -3.888   8.445  1.00  0.00     0.006 A 
ATOM     20  C   UNL     1      16.840  -4.308  11.185  1.00  0.00     0.004 A 
ATOM     21  C   UNL     1      16.391  -5.146   8.968  1.00  0.00     0.004 A 
ATOM     22  C   UNL     1      16.464  -5.365  10.345  1.00  0.00    -0.051 A 
ATOM     23  C   UNL     1      16.031  -6.684  10.911  1.00  0.00     0.044 C 
ENDBRANCH  16  17
ENDBRANCH   6  16
TORSDOF 3
ENDMDL
MODEL 7
REMARK VINA RESULT:    -4.563      2.262      3.970
REMARK INTER + INTRA:          -5.739
REMARK INTER:                  -5.301
REMARK INTRA:                  -0.438
REMARK UNBOUND:                -0.375
REMARK SMILES Cc1ccc(CNC(=O)NC(=O)c2ccc(C)cc2)cc1
REMARK SMILES IDX 11 1 12 2 10 3 8 4 9 5 7 6 13 9 19 10 18 11 14 12 16 13
REMARK SMILES IDX 15 14 17 15 6 16 5 17 4 18 20 19 3 20 21 21 2 22 1 23
REMARK H PARENT 10 7 7 8
ROOT
ATOM      1  C   UNL     1      10.870   0.300   3.929  1.00  0.00     0.259 C 
ATOM      2  O   UNL     1      10.466  -0.115   5.006  1.00  0.00    -0.269 OA
ATOM      3  N   UNL     1      12.133   0.804   3.602  1.00  0.00    -0.274 N 
ATOM      4  C   UNL     1      13.387   0.831   4.156  1.00  0.00     0.321 C 
ATOM      5  O   UNL     1      14.310   1.277   3.465  1.00  0.00    -0.248 OA
ATOM      6  N   UNL     1      13.666   0.372   5.390  1.00  0.00    -0.334 N 
ATOM      7  H   UNL     1      12.225   1.109   2.643  1.00  0.00     0.175 HD
ATOM      8  H   UNL     1      14.650   0.384   5.616  1.00  0.00     0.165 HD
ENDROOT
BRANCH   1   9
ATOM      9  C   UNL     1       9.911   0.268   2.807  1.00  0.00     0.040 A 
ATOM     10  C   UNL     1       9.664  -0.906   2.093  1.00  0.00     0.014 A 
ATOM     11  C   UNL     1       8.710  -0.899   1.075  1.00  0.00     0.004 A 
ATOM     12  C   UNL     1       9.255   1.456   2.471  1.00  0.00     0.014 A 
ATOM     13  C   UNL     1       8.009   0.275   0.764  1.00  0.00    -0.051 A 
ATOM     14  C   UNL     1       8.298   1.457   1.458  1.00  0.00     0.004 A 
ATOM     15  C   UNL     1       6.927   0.246  -0.275  1.00  0.00     0.044 C 
ENDBRANCH   1   9
BRANCH   6  16
ATOM     16  C   UNL     1      12.770  -0.274   6.308  1.00  0.00     0.153 C 
BRANCH  16  17
ATOM     17  C   UNL     1      13.295  -1.464   7.062  1.00  0.00    -0.029 A 
ATOM     18  C   UNL     1      13.480  -2.720   6.473  1.00  0.00     0.006 A 
ATOM     19  C   UNL     1      13.811  -1.234   8.347  1.00  0.00     0.006 A 
ATOM     20  C   UNL     1      14.191  -3.714   7.154  1.00  0.00     0.004 A 
ATOM     21  C   UNL     1      14.523  -2.222   9.021  1.00  0.00     0.004 A 
ATOM     22  C   UNL     1      14.728  -3.468   8.426  1.00  0.00    -0.051 A 
ATOM     23  C   UNL     1      15.610  -4.476   9.099  1.00  0.00     0.044 C 
ENDBRANCH  16  17
ENDBRANCH   6  16
TORSDOF 3
ENDMDL
MODEL 8
REMARK VINA RESULT:    -3.968      3.877      7.849
REMARK INTER + INTRA:          -5.039
REMARK INTER:                  -4.628
REMARK INTRA:                  -0.411
REMARK UNBOUND:                -0.375
REMARK SMILES Cc1ccc(CNC(=O)NC(=O)c2ccc(C)cc2)cc1
REMARK SMILES IDX 11 1 12 2 10 3 8 4 9 5 7 6 13 9 19 10 18 11 14 12 16 13
REMARK SMILES IDX 15 14 17 15 6 16 5 17 4 18 20 19 3 20 21 21 2 22 1 23
REMARK H PARENT 10 7 7 8
ROOT
ATOM      1  C   UNL     1      10.248   0.080   0.046  1.00  0.00     0.259 C 
ATOM      2  O   UNL     1       9.556   1.052   0.312  1.00  0.00    -0.269 OA
ATOM      3  N   UNL     1      10.042  -1.261   0.387  1.00  0.00    -0.274 N 
ATOM      4  C   UNL     1       9.021  -2.039   0.868  1.00  0.00     0.321 C 
ATOM      5  O   UNL     1       9.202  -3.260   0.911  1.00  0.00    -0.248 OA
ATOM      6  N   UNL     1       7.833  -1.545   1.264  1.00  0.00    -0.334 N 
ATOM      7  H   UNL     1      10.770  -1.888   0.070  1.00  0.00     0.175 HD
ATOM      8  H   UNL     1       7.159  -2.256   1.511  1.00  0.00     0.165 HD
ENDROOT
BRANCH   1   9
ATOM      9  C   UNL     1      11.468   0.334  -0.745  1.00  0.00     0.040 A 
ATOM     10  C   UNL     1      11.449   1.169  -1.864  1.00  0.00     0.014 A 
ATOM     11  C   UNL     1      12.637   1.421  -2.549  1.00  0.00     0.004 A 
ATOM     12  C   UNL     1      12.652  -0.294  -0.347  1.00  0.00     0.014 A 
ATOM     13  C   UNL     1      13.841   0.837  -2.126  1.00  0.00    -0.051 A 
ATOM     14  C   UNL     1      13.838  -0.034  -1.030  1.00  0.00     0.004 A 
ATOM     15  C   UNL     1      15.124   1.184  -2.822  1.00  0.00     0.044 C 
ENDBRANCH   1   9
BRANCH   6  16
ATOM     16  C   UNL     1       7.385  -0.183   1.200  1.00  0.00     0.153 C 
BRANCH  16  17
ATOM     17  C   UNL     1       5.936   0.052   0.871  1.00  0.00    -0.029 A 
ATOM     18  C   UNL     1       5.351  -0.355  -0.332  1.00  0.00     0.006 A 
ATOM     19  C   UNL     1       5.108   0.509   1.909  1.00  0.00     0.006 A 
ATOM     20  C   UNL     1       3.960  -0.326  -0.478  1.00  0.00     0.004 A 
ATOM     21  C   UNL     1       3.724   0.533   1.764  1.00  0.00     0.004 A 
ATOM     22  C   UNL     1       3.137   0.106   0.572  1.00  0.00    -0.051 A 
ATOM     23  C   UNL     1       1.644   0.006   0.474  1.00  0.00     0.044 C 
ENDBRANCH  16  17
ENDBRANCH   6  16
TORSDOF 3
ENDMDL
MODEL 9
REMARK VINA RESULT:    -3.885      1.886      8.160
REMARK INTER + INTRA:          -4.942
REMARK INTER:                  -4.539
REMARK INTRA:                  -0.403
REMARK UNBOUND:                -0.375
REMARK SMILES Cc1ccc(CNC(=O)NC(=O)c2ccc(C)cc2)cc1
REMARK SMILES IDX 11 1 12 2 10 3 8 4 9 5 7 6 13 9 19 10 18 11 14 12 16 13
REMARK SMILES IDX 15 14 17 15 6 16 5 17 4 18 20 19 3 20 21 21 2 22 1 23
REMARK H PARENT 10 7 7 8
ROOT
ATOM      1  C   UNL     1       9.838   0.467   2.726  1.00  0.00     0.259 C 
ATOM      2  O   UNL     1       9.300  -0.539   2.288  1.00  0.00    -0.269 OA
ATOM      3  N   UNL     1       9.596   1.804   2.396  1.00  0.00    -0.274 N 
ATOM      4  C   UNL     1       8.634   2.527   1.737  1.00  0.00     0.321 C 
ATOM      5  O   UNL     1       8.716   3.759   1.775  1.00  0.00    -0.248 OA
ATOM      6  N   UNL     1       7.599   1.966   1.084  1.00  0.00    -0.334 N 
ATOM      7  H   UNL     1      10.187   2.467   2.879  1.00  0.00     0.175 HD
ATOM      8  H   UNL     1       6.933   2.636   0.726  1.00  0.00     0.165 HD
ENDROOT
BRANCH   1   9
ATOM      9  C   UNL     1      10.885   0.266   3.746  1.00  0.00     0.040 A 
ATOM     10  C   UNL     1      12.115   0.922   3.667  1.00  0.00     0.014 A 
ATOM     11  C   UNL     1      13.054   0.740   4.683  1.00  0.00     0.004 A 
ATOM     12  C   UNL     1      10.615  -0.612   4.801  1.00  0.00     0.014 A 
ATOM     13  C   UNL     1      12.772  -0.098   5.772  1.00  0.00    -0.051 A 
ATOM     14  C   UNL     1      11.553  -0.785   5.817  1.00  0.00     0.004 A 
ATOM     15  C   UNL     1      13.756  -0.216   6.898  1.00  0.00     0.044 C 
ENDBRANCH   1   9
BRANCH   6  16
ATOM     16  C   UNL     1       7.263   0.572   1.007  1.00  0.00     0.153 C 
BRANCH  16  17
ATOM     17  C   UNL     1       5.803   0.213   1.006  1.00  0.00    -0.029 A 
ATOM     18  C   UNL     1       4.900   0.685   1.965  1.00  0.00     0.006 A 
ATOM     19  C   UNL     1       5.304  -0.449  -0.127  1.00  0.00     0.006 A 
ATOM     20  C   UNL     1       3.525   0.515   1.775  1.00  0.00     0.004 A 
ATOM     21  C   UNL     1       3.936  -0.613  -0.318  1.00  0.00     0.004 A 
ATOM     22  C   UNL     1       3.033  -0.123   0.627  1.00  0.00    -0.051 A 
ATOM     23  C   UNL     1       1.561  -0.182   0.348  1.00  0.00     0.044 C 
ENDBRANCH  16  17
ENDBRANCH   6  16
TORSDOF 3
ENDMDL
