MODEL 1
REMARK VINA RESULT:    -5.972      0.000      0.000
REMARK INTER + INTRA:          -7.400
REMARK INTER:                  -7.019
REMARK INTRA:                  -0.381
REMARK UNBOUND:                -0.381
REMARK SMILES Cc1ccc(CNC(=O)NC(=O)c2ccc(C)cc2)cc1
REMARK SMILES IDX 11 1 12 2 10 3 8 4 9 5 7 6 13 9 19 10 18 11 14 12 16 13
REMARK SMILES IDX 15 14 17 15 6 16 5 17 4 18 20 19 3 20 21 21 2 22 1 23
REMARK H PARENT 10 7 7 8
ROOT
ATOM      1  C   UNL     1       2.525   5.875  -7.948  1.00  0.00     0.259 C 
ATOM      2  O   UNL     1       1.701   6.658  -7.498  1.00  0.00    -0.269 OA
ATOM      3  N   UNL     1       3.191   5.916  -9.177  1.00  0.00    -0.274 N 
ATOM      4  C   UNL     1       3.407   6.823 -10.183  1.00  0.00     0.321 C 
ATOM      5  O   UNL     1       4.195   6.507 -11.080  1.00  0.00    -0.248 OA
ATOM      6  N   UNL     1       2.832   8.039 -10.224  1.00  0.00    -0.334 N 
ATOM      7  H   UNL     1       3.818   5.139  -9.338  1.00  0.00     0.175 HD
ATOM      8  H   UNL     1       3.161   8.619 -10.983  1.00  0.00     0.165 HD
ENDROOT
BRANCH   1   9
ATOM      9  C   UNL     1       2.883   4.728  -7.092  1.00  0.00     0.040 A 
ATOM     10  C   UNL     1       2.314   3.468  -7.288  1.00  0.00     0.014 A 
ATOM     11  C   UNL     1       2.723   2.401  -6.487  1.00  0.00     0.004 A 
ATOM     12  C   UNL     1       3.809   4.938  -6.066  1.00  0.00     0.014 A 
ATOM     13  C   UNL     1       3.690   2.590  -5.488  1.00  0.00    -0.051 A 
ATOM     14  C   UNL     1       4.219   3.868  -5.272  1.00  0.00     0.004 A 
ATOM     15  C   UNL     1       4.181   1.416  -4.693  1.00  0.00     0.044 C 
ENDBRANCH   1   9
BRANCH   6  16
ATOM     16  C   UNL     1       1.976   8.638  -9.239  1.00  0.00     0.153 C 
BRANCH  16  17
ATOM     17  C   UNL     1       1.897  10.139  -9.214  1.00  0.00    -0.029 A 
ATOM     18  C   UNL     1       2.152  10.898  -8.068  1.00  0.00     0.006 A 
ATOM     19  C   UNL     1       1.767  10.796 -10.448  1.00  0.00     0.006 A 
ATOM     20  C   UNL     1       2.298  12.286  -8.165  1.00  0.00     0.004 A 
ATOM     21  C   UNL     1       1.917  12.176 -10.545  1.00  0.00     0.004 A 
ATOM     22  C   UNL     1       2.195  12.932  -9.405  1.00  0.00    -0.051 A 
ATOM     23  C   UNL     1       2.491  14.396  -9.540  1.00  0.00     0.044 C 
ENDBRANCH  16  17
ENDBRANCH   6  16
TORSDOF 3
ENDMDL
MODEL 2
REMARK VINA RESULT:    -5.944      3.252      5.553
REMARK INTER + INTRA:          -7.368
REMARK INTER:                  -6.991
REMARK INTRA:                  -0.376
REMARK UNBOUND:                -0.381
REMARK SMILES Cc1ccc(CNC(=O)NC(=O)c2ccc(C)cc2)cc1
REMARK SMILES IDX 11 1 12 2 10 3 8 4 9 5 7 6 13 9 19 10 18 11 14 12 16 13
REMARK SMILES IDX 15 14 17 15 6 16 5 17 4 18 20 19 3 20 21 21 2 22 1 23
REMARK H PARENT 10 7 7 8
ROOT
ATOM      1  C   UNL     1       2.624   5.504  -8.237  1.00  0.00     0.259 C 
ATOM      2  O   UNL     1       3.444   4.738  -8.722  1.00  0.00    -0.269 OA
ATOM      3  N   UNL     1       2.382   6.844  -8.554  1.00  0.00    -0.274 N 
ATOM      4  C   UNL     1       2.702   7.722  -9.558  1.00  0.00     0.321 C 
ATOM      5  O   UNL     1       2.162   8.833  -9.542  1.00  0.00    -0.248 OA
ATOM      6  N   UNL     1       3.544   7.425 -10.565  1.00  0.00    -0.334 N 
ATOM      7  H   UNL     1       1.660   7.281  -7.996  1.00  0.00     0.175 HD
ATOM      8  H   UNL     1       3.607   8.147 -11.268  1.00  0.00     0.165 HD
ENDROOT
BRANCH   1   9
ATOM      9  C   UNL     1       1.758   4.957  -7.174  1.00  0.00     0.040 A 
ATOM     10  C   UNL     1       2.031   5.185  -5.824  1.00  0.00     0.014 A 
ATOM     11  C   UNL     1       1.155   4.692  -4.856  1.00  0.00     0.004 A 
ATOM     12  C   UNL     1       0.652   4.192  -7.556  1.00  0.00     0.014 A 
ATOM     13  C   UNL     1       0.014   3.967  -5.232  1.00  0.00    -0.051 A 
ATOM     14  C   UNL     1      -0.224   3.706  -6.587  1.00  0.00     0.004 A 
ATOM     15  C   UNL     1      -0.962   3.516  -4.185  1.00  0.00     0.044 C 
ENDBRANCH   1   9
BRANCH   6  16
ATOM     16  C   UNL     1       4.191   6.170 -10.825  1.00  0.00     0.153 C 
BRANCH  16  17
ATOM     17  C   UNL     1       4.658   5.913 -12.231  1.00  0.00    -0.029 A 
ATOM     18  C   UNL     1       4.291   4.779 -12.962  1.00  0.00     0.006 A 
ATOM     19  C   UNL     1       5.316   6.963 -12.892  1.00  0.00     0.006 A 
ATOM     20  C   UNL     1       4.557   4.715 -14.334  1.00  0.00     0.004 A 
ATOM     21  C   UNL     1       5.575   6.900 -14.257  1.00  0.00     0.004 A 
ATOM     22  C   UNL     1       5.189   5.779 -14.993  1.00  0.00    -0.051 A 
ATOM     23  C   UNL     1       5.348   5.778 -16.484  1.00  0.00     0.044 C 
ENDBRANCH  16  17
ENDBRANCH   6  16
TORSDOF 3
ENDMDL
MODEL 3
REMARK VINA RESULT:    -5.762      0.557      8.000
REMARK INTER + INTRA:          -7.154
REMARK INTER:                  -6.657
REMARK INTRA:                  -0.497
REMARK UNBOUND:                -0.381
REMARK SMILES Cc1ccc(CNC(=O)NC(=O)c2ccc(C)cc2)cc1
REMARK SMILES IDX 11 1 12 2 10 3 8 4 9 5 7 6 13 9 19 10 18 11 14 12 16 13
REMARK SMILES IDX 15 14 17 15 6 16 5 17 4 18 20 19 3 20 21 21 2 22 1 23
REMARK H PARENT 10 7 7 8
ROOT
ATOM      1  C   UNL     1       2.288   8.587  -8.889  1.00  0.00     0.259 C 
ATOM      2  O   UNL     1       1.759   8.120  -7.890  1.00  0.00    -0.269 OA
ATOM      3  N   UNL     1       3.033   7.930  -9.873  1.00  0.00    -0.274 N 
ATOM      4  C   UNL     1       3.270   6.640 -10.272  1.00  0.00     0.321 C 
ATOM      5  O   UNL     1       3.910   6.470 -11.316  1.00  0.00    -0.248 OA
ATOM      6  N   UNL     1       2.818   5.560  -9.607  1.00  0.00    -0.334 N 
ATOM      7  H   UNL     1       3.391   8.537 -10.599  1.00  0.00     0.175 HD
ATOM      8  H   UNL     1       3.004   4.686 -10.077  1.00  0.00     0.165 HD
ENDROOT
BRANCH   1   9
ATOM      9  C   UNL     1       2.127  10.038  -9.105  1.00  0.00     0.040 A 
ATOM     10  C   UNL     1       2.240  10.948  -8.052  1.00  0.00     0.014 A 
ATOM     11  C   UNL     1       2.131  12.314  -8.314  1.00  0.00     0.004 A 
ATOM     12  C   UNL     1       1.848  10.482 -10.401  1.00  0.00     0.014 A 
ATOM     13  C   UNL     1       1.904  12.773  -9.620  1.00  0.00    -0.051 A 
ATOM     14  C   UNL     1       1.747  11.848 -10.659  1.00  0.00     0.004 A 
ATOM     15  C   UNL     1       1.874  14.247  -9.899  1.00  0.00     0.044 C 
ENDBRANCH   1   9
BRANCH   6  16
ATOM     16  C   UNL     1       1.978   5.537  -8.443  1.00  0.00     0.153 C 
BRANCH  16  17
ATOM     17  C   UNL     1       2.354   4.589  -7.339  1.00  0.00    -0.029 A 
ATOM     18  C   UNL     1       1.892   3.270  -7.274  1.00  0.00     0.006 A 
ATOM     19  C   UNL     1       3.376   4.994  -6.464  1.00  0.00     0.006 A 
ATOM     20  C   UNL     1       2.463   2.372  -6.366  1.00  0.00     0.004 A 
ATOM     21  C   UNL     1       3.946   4.099  -5.565  1.00  0.00     0.004 A 
ATOM     22  C   UNL     1       3.502   2.776  -5.515  1.00  0.00    -0.051 A 
ATOM     23  C   UNL     1       4.214   1.787  -4.642  1.00  0.00     0.044 C 
ENDBRANCH  16  17
ENDBRANCH   6  16
TORSDOF 3
ENDMDL
MODEL 4
REMARK VINA RESULT:    -5.758      3.131      7.319
REMARK INTER + INTRA:          -7.148
REMARK INTER:                  -6.650
REMARK INTRA:                  -0.498
REMARK UNBOUND:                -0.381
REMARK SMILES Cc1ccc(CNC(=O)NC(=O)c2ccc(C)cc2)cc1
REMARK SMILES IDX 11 1 12 2 10 3 8 4 9 5 7 6 13 9 19 10 18 11 14 12 16 13
REMARK SMILES IDX 15 14 17 15 6 16 5 17 4 18 20 19 3 20 21 21 2 22 1 23
REMARK H PARENT 10 7 7 8
ROOT
ATOM      1  C   UNL     1       3.815   5.942 -10.813  1.00  0.00     0.259 C 
ATOM      2  O   UNL     1       3.901   4.925 -10.139  1.00  0.00    -0.269 OA
ATOM      3  N   UNL     1       3.238   7.170 -10.476  1.00  0.00    -0.274 N 
ATOM      4  C   UNL     1       2.801   7.807  -9.343  1.00  0.00     0.321 C 
ATOM      5  O   UNL     1       2.462   8.991  -9.445  1.00  0.00    -0.248 OA
ATOM      6  N   UNL     1       2.753   7.222  -8.132  1.00  0.00    -0.334 N 
ATOM      7  H   UNL     1       3.268   7.861 -11.213  1.00  0.00     0.175 HD
ATOM      8  H   UNL     1       2.491   7.851  -7.386  1.00  0.00     0.165 HD
ENDROOT
BRANCH   1   9
ATOM      9  C   UNL     1       4.397   5.887 -12.168  1.00  0.00     0.040 A 
ATOM     10  C   UNL     1       4.223   4.772 -12.990  1.00  0.00     0.014 A 
ATOM     11  C   UNL     1       4.748   4.787 -14.283  1.00  0.00     0.004 A 
ATOM     12  C   UNL     1       5.140   6.986 -12.609  1.00  0.00     0.014 A 
ATOM     13  C   UNL     1       5.450   5.907 -14.754  1.00  0.00    -0.051 A 
ATOM     14  C   UNL     1       5.656   7.000 -13.903  1.00  0.00     0.004 A 
ATOM     15  C   UNL     1       5.934   5.942 -16.173  1.00  0.00     0.044 C 
ENDBRANCH   1   9
BRANCH   6  16
ATOM     16  C   UNL     1       3.194   5.902  -7.778  1.00  0.00     0.153 C 
BRANCH  16  17
ATOM     17  C   UNL     1       2.287   5.083  -6.902  1.00  0.00    -0.029 A 
ATOM     18  C   UNL     1       2.371   5.082  -5.506  1.00  0.00     0.006 A 
ATOM     19  C   UNL     1       1.185   4.466  -7.517  1.00  0.00     0.006 A 
ATOM     20  C   UNL     1       1.355   4.495  -4.744  1.00  0.00     0.004 A 
ATOM     21  C   UNL     1       0.173   3.887  -6.758  1.00  0.00     0.004 A 
ATOM     22  C   UNL     1       0.244   3.906  -5.364  1.00  0.00    -0.051 A 
ATOM     23  C   UNL     1      -0.914   3.403  -4.555  1.00  0.00     0.044 C 
ENDBRANCH  16  17
ENDBRANCH   6  16
TORSDOF 3
ENDMDL
MODEL 5
REMARK VINA RESULT:    -5.527      3.067      7.726
REMARK INTER + INTRA:          -6.877
REMARK INTER:                  -6.408
REMARK INTRA:                  -0.469
REMARK UNBOUND:                -0.381
REMARK SMILES Cc1ccc(CNC(=O)NC(=O)c2ccc(C)cc2)cc1
REMARK SMILES IDX 11 1 12 2 10 3 8 4 9 5 7 6 13 9 19 10 18 11 14 12 16 13
REMARK SMILES IDX 15 14 17 15 6 16 5 17 4 18 20 19 3 20 21 21 2 22 1 23
REMARK H PARENT 10 7 7 8
ROOT
ATOM      1  C   UNL     1       3.968   5.814 -10.835  1.00  0.00     0.259 C 
ATOM      2  O   UNL     1       4.243   4.825 -10.171  1.00  0.00    -0.269 OA
ATOM      3  N   UNL     1       3.226   6.940 -10.463  1.00  0.00    -0.274 N 
ATOM      4  C   UNL     1       2.754   7.505  -9.306  1.00  0.00     0.321 C 
ATOM      5  O   UNL     1       2.232   8.622  -9.385  1.00  0.00    -0.248 OA
ATOM      6  N   UNL     1       2.857   6.922  -8.097  1.00  0.00    -0.334 N 
ATOM      7  H   UNL     1       3.112   7.626 -11.197  1.00  0.00     0.175 HD
ATOM      8  H   UNL     1       2.538   7.504  -7.336  1.00  0.00     0.165 HD
ENDROOT
BRANCH   1   9
ATOM      9  C   UNL     1       4.483   5.847 -12.217  1.00  0.00     0.040 A 
ATOM     10  C   UNL     1       4.295   4.773 -13.090  1.00  0.00     0.014 A 
ATOM     11  C   UNL     1       4.754   4.871 -14.404  1.00  0.00     0.004 A 
ATOM     12  C   UNL     1       5.177   6.987 -12.633  1.00  0.00     0.014 A 
ATOM     13  C   UNL     1       5.406   6.032 -14.846  1.00  0.00    -0.051 A 
ATOM     14  C   UNL     1       5.629   7.083 -13.948  1.00  0.00     0.004 A 
ATOM     15  C   UNL     1       5.818   6.156 -16.283  1.00  0.00     0.044 C 
ENDBRANCH   1   9
BRANCH   6  16
ATOM     16  C   UNL     1       3.513   5.687  -7.773  1.00  0.00     0.153 C 
BRANCH  16  17
ATOM     17  C   UNL     1       2.757   4.707  -6.919  1.00  0.00    -0.029 A 
ATOM     18  C   UNL     1       2.743   3.330  -7.166  1.00  0.00     0.006 A 
ATOM     19  C   UNL     1       2.224   5.185  -5.710  1.00  0.00     0.006 A 
ATOM     20  C   UNL     1       2.227   2.452  -6.207  1.00  0.00     0.004 A 
ATOM     21  C   UNL     1       1.716   4.310  -4.756  1.00  0.00     0.004 A 
ATOM     22  C   UNL     1       1.722   2.935  -4.991  1.00  0.00    -0.051 A 
ATOM     23  C   UNL     1       1.300   1.993  -3.903  1.00  0.00     0.044 C 
ENDBRANCH  16  17
ENDBRANCH   6  16
TORSDOF 3
ENDMDL
MODEL 6
REMARK VINA RESULT:    -4.696      5.467      8.806
REMARK INTER + INTRA:          -5.900
REMARK INTER:                  -5.438
REMARK INTRA:                  -0.462
REMARK UNBOUND:                -0.381
REMARK SMILES Cc1ccc(CNC(=O)NC(=O)c2ccc(C)cc2)cc1
REMARK SMILES IDX 11 1 12 2 10 3 8 4 9 5 7 6 13 9 19 10 18 11 14 12 16 13
REMARK SMILES IDX 15 14 17 15 6 16 5 17 4 18 20 19 3 20 21 21 2 22 1 23
REMARK H PARENT 10 7 7 8
ROOT
ATOM      1  C   UNL     1       4.514  12.424 -14.019  1.00  0.00     0.259 C 
ATOM      2  O   UNL     1       3.299  12.286 -13.993  1.00  0.00    -0.269 OA
ATOM      3  N   UNL     1       5.306  13.341 -13.320  1.00  0.00    -0.274 N 
ATOM      4  C   UNL     1       5.166  14.200 -12.261  1.00  0.00     0.321 C 
ATOM      5  O   UNL     1       6.182  14.766 -11.843  1.00  0.00    -0.248 OA
ATOM      6  N   UNL     1       3.994  14.431 -11.640  1.00  0.00    -0.334 N 
ATOM      7  H   UNL     1       6.295  13.278 -13.523  1.00  0.00     0.175 HD
ATOM      8  H   UNL     1       4.075  15.022 -10.825  1.00  0.00     0.165 HD
ENDROOT
BRANCH   1   9
ATOM      9  C   UNL     1       5.265  11.505 -14.896  1.00  0.00     0.040 A 
ATOM     10  C   UNL     1       5.832  11.944 -16.094  1.00  0.00     0.014 A 
ATOM     11  C   UNL     1       6.578  11.051 -16.865  1.00  0.00     0.004 A 
ATOM     12  C   UNL     1       5.388  10.171 -14.498  1.00  0.00     0.014 A 
ATOM     13  C   UNL     1       6.751   9.723 -16.448  1.00  0.00    -0.051 A 
ATOM     14  C   UNL     1       6.139   9.284 -15.267  1.00  0.00     0.004 A 
ATOM     15  C   UNL     1       7.625   8.799 -17.243  1.00  0.00     0.044 C 
ENDBRANCH   1   9
BRANCH   6  16
ATOM     16  C   UNL     1       2.728  13.805 -11.896  1.00  0.00     0.153 C 
BRANCH  16  17
ATOM     17  C   UNL     1       2.251  12.782 -10.903  1.00  0.00    -0.029 A 
ATOM     18  C   UNL     1       1.882  11.481 -11.264  1.00  0.00     0.006 A 
ATOM     19  C   UNL     1       2.388  13.094  -9.541  1.00  0.00     0.006 A 
ATOM     20  C   UNL     1       1.681  10.511 -10.277  1.00  0.00     0.004 A 
ATOM     21  C   UNL     1       2.192  12.128  -8.560  1.00  0.00     0.004 A 
ATOM     22  C   UNL     1       1.846  10.824  -8.920  1.00  0.00    -0.051 A 
ATOM     23  C   UNL     1       1.772   9.759  -7.868  1.00  0.00     0.044 C 
ENDBRANCH  16  17
ENDBRANCH   6  16
TORSDOF 3
ENDMDL
MODEL 7
REMARK VINA RESULT:    -4.476      7.509      9.711
REMARK INTER + INTRA:          -5.642
REMARK INTER:                  -5.238
REMARK INTRA:                  -0.404
REMARK UNBOUND:                -0.381
REMARK SMILES Cc1ccc(CNC(=O)NC(=O)c2ccc(C)cc2)cc1
REMARK SMILES IDX 11 1 12 2 10 3 8 4 9 5 7 6 13 9 19 10 18 11 14 12 16 13
REMARK SMILES IDX 15 14 17 15 6 16 5 17 4 18 20 19 3 20 21 21 2 22 1 23
REMARK H PARENT 10 7 7 8
ROOT
ATOM      1  C   UNL     1       3.490  14.561 -12.732  1.00  0.00     0.259 C 
ATOM      2  O   UNL     1       4.554  14.584 -13.335  1.00  0.00    -0.269 OA
ATOM      3  N   UNL     1       2.201  14.791 -13.223  1.00  0.00    -0.274 N 
ATOM      4  C   UNL     1       1.582  14.879 -14.443  1.00  0.00     0.321 C 
ATOM      5  O   UNL     1       0.349  14.965 -14.456  1.00  0.00    -0.248 OA
ATOM      6  N   UNL     1       2.241  14.846 -15.616  1.00  0.00    -0.334 N 
ATOM      7  H   UNL     1       1.472  14.737 -12.523  1.00  0.00     0.175 HD
ATOM      8  H   UNL     1       1.635  14.835 -16.423  1.00  0.00     0.165 HD
ENDROOT
BRANCH   1   9
ATOM      9  C   UNL     1       3.553  14.244 -11.292  1.00  0.00     0.040 A 
ATOM     10  C   UNL     1       2.493  13.613 -10.639  1.00  0.00     0.014 A 
ATOM     11  C   UNL     1       2.620  13.286  -9.288  1.00  0.00     0.004 A 
ATOM     12  C   UNL     1       4.709  14.601 -10.591  1.00  0.00     0.014 A 
ATOM     13  C   UNL     1       3.796  13.593  -8.588  1.00  0.00    -0.051 A 
ATOM     14  C   UNL     1       4.834  14.267  -9.244  1.00  0.00     0.004 A 
ATOM     15  C   UNL     1       3.950  13.160  -7.160  1.00  0.00     0.044 C 
ENDBRANCH   1   9
BRANCH   6  16
ATOM     16  C   UNL     1       3.648  14.649 -15.825  1.00  0.00     0.153 C 
BRANCH  16  17
ATOM     17  C   UNL     1       4.094  13.287 -16.280  1.00  0.00    -0.029 A 
ATOM     18  C   UNL     1       5.237  13.078 -17.058  1.00  0.00     0.006 A 
ATOM     19  C   UNL     1       3.444  12.177 -15.717  1.00  0.00     0.006 A 
ATOM     20  C   UNL     1       5.730  11.783 -17.244  1.00  0.00     0.004 A 
ATOM     21  C   UNL     1       3.938  10.889 -15.899  1.00  0.00     0.004 A 
ATOM     22  C   UNL     1       5.092  10.681 -16.656  1.00  0.00    -0.051 A 
ATOM     23  C   UNL     1       5.693   9.310 -16.733  1.00  0.00     0.044 C 
ENDBRANCH  16  17
ENDBRANCH   6  16
TORSDOF 3
ENDMDL
MODEL 8
REMARK VINA RESULT:    -4.338      5.910     10.490
REMARK INTER + INTRA:          -5.480
REMARK INTER:                  -5.812
REMARK INTRA:                   0.332
REMARK UNBOUND:                -0.381
REMARK SMILES Cc1ccc(CNC(=O)NC(=O)c2ccc(C)cc2)cc1
REMARK SMILES IDX 11 1 12 2 10 3 8 4 9 5 7 6 13 9 19 10 18 11 14 12 16 13
REMARK SMILES IDX 15 14 17 15 6 16 5 17 4 18 20 19 3 20 21 21 2 22 1 23
REMARK H PARENT 10 7 7 8
ROOT
ATOM      1  C   UNL     1       5.401   9.187 -15.985  1.00  0.00     0.259 C 
ATOM      2  O   UNL     1       4.496   8.559 -15.454  1.00  0.00    -0.269 OA
ATOM      3  N   UNL     1       6.665   8.737 -16.381  1.00  0.00    -0.274 N 
ATOM      4  C   UNL     1       7.297   7.536 -16.575  1.00  0.00     0.321 C 
ATOM      5  O   UNL     1       8.425   7.557 -17.079  1.00  0.00    -0.248 OA
ATOM      6  N   UNL     1       6.744   6.346 -16.275  1.00  0.00    -0.334 N 
ATOM      7  H   UNL     1       7.256   9.453 -16.782  1.00  0.00     0.175 HD
ATOM      8  H   UNL     1       7.303   5.554 -16.558  1.00  0.00     0.165 HD
ENDROOT
BRANCH   1   9
ATOM      9  C   UNL     1       5.143  10.614 -16.258  1.00  0.00     0.040 A 
ATOM     10  C   UNL     1       6.057  11.397 -16.966  1.00  0.00     0.014 A 
ATOM     11  C   UNL     1       5.746  12.728 -17.245  1.00  0.00     0.004 A 
ATOM     12  C   UNL     1       3.953  11.170 -15.778  1.00  0.00     0.014 A 
ATOM     13  C   UNL     1       4.530  13.281 -16.813  1.00  0.00    -0.051 A 
ATOM     14  C   UNL     1       3.643  12.498 -16.065  1.00  0.00     0.004 A 
ATOM     15  C   UNL     1       4.173  14.687 -17.194  1.00  0.00     0.044 C 
ENDBRANCH   1   9
BRANCH   6  16
ATOM     16  C   UNL     1       5.418   6.096 -15.784  1.00  0.00     0.153 C 
BRANCH  16  17
ATOM     17  C   UNL     1       5.255   5.917 -14.300  1.00  0.00    -0.029 A 
ATOM     18  C   UNL     1       5.636   6.887 -13.367  1.00  0.00     0.006 A 
ATOM     19  C   UNL     1       4.496   4.818 -13.865  1.00  0.00     0.006 A 
ATOM     20  C   UNL     1       5.240   6.766 -12.031  1.00  0.00     0.004 A 
ATOM     21  C   UNL     1       4.100   4.701 -12.536  1.00  0.00     0.004 A 
ATOM     22  C   UNL     1       4.460   5.681 -11.609  1.00  0.00    -0.051 A 
ATOM     23  C   UNL     1       3.914   5.619 -10.214  1.00  0.00     0.044 C 
ENDBRANCH  16  17
ENDBRANCH   6  16
TORSDOF 3
ENDMDL
MODEL 9
REMARK VINA RESULT:    -3.820      6.008      7.960
REMARK INTER + INTRA:          -4.871
REMARK INTER:                  -4.588
REMARK INTRA:                  -0.282
REMARK UNBOUND:                -0.381
REMARK SMILES Cc1ccc(CNC(=O)NC(=O)c2ccc(C)cc2)cc1
REMARK SMILES IDX 11 1 12 2 10 3 8 4 9 5 7 6 13 9 19 10 18 11 14 12 16 13
REMARK SMILES IDX 15 14 17 15 6 16 5 17 4 18 20 19 3 20 21 21 2 22 1 23
REMARK H PARENT 10 7 7 8
ROOT
ATOM      1  C   UNL     1       5.458   8.753 -15.642  1.00  0.00     0.259 C 
ATOM      2  O   UNL     1       4.434   9.312 -16.010  1.00  0.00    -0.269 OA
ATOM      3  N   UNL     1       6.779   9.009 -16.020  1.00  0.00    -0.274 N 
ATOM      4  C   UNL     1       7.475   9.999 -16.666  1.00  0.00     0.321 C 
ATOM      5  O   UNL     1       8.708   9.913 -16.687  1.00  0.00    -0.248 OA
ATOM      6  N   UNL     1       6.890  11.063 -17.245  1.00  0.00    -0.334 N 
ATOM      7  H   UNL     1       7.461   8.395 -15.595  1.00  0.00     0.175 HD
ATOM      8  H   UNL     1       7.545  11.744 -17.602  1.00  0.00     0.165 HD
ENDROOT
BRANCH   1   9
ATOM      9  C   UNL     1       5.298   7.661 -14.663  1.00  0.00     0.040 A 
ATOM     10  C   UNL     1       5.317   7.906 -13.288  1.00  0.00     0.014 A 
ATOM     11  C   UNL     1       5.110   6.849 -12.402  1.00  0.00     0.004 A 
ATOM     12  C   UNL     1       5.133   6.360 -15.150  1.00  0.00     0.014 A 
ATOM     13  C   UNL     1       4.891   5.549 -12.882  1.00  0.00    -0.051 A 
ATOM     14  C   UNL     1       4.920   5.309 -14.261  1.00  0.00     0.004 A 
ATOM     15  C   UNL     1       4.585   4.439 -11.920  1.00  0.00     0.044 C 
ENDBRANCH   1   9
BRANCH   6  16
ATOM     16  C   UNL     1       5.495  11.404 -17.244  1.00  0.00     0.153 C 
BRANCH  16  17
ATOM     17  C   UNL     1       5.049  12.484 -16.298  1.00  0.00    -0.029 A 
ATOM     18  C   UNL     1       4.264  13.571 -16.695  1.00  0.00     0.006 A 
ATOM     19  C   UNL     1       5.262  12.266 -14.927  1.00  0.00     0.006 A 
ATOM     20  C   UNL     1       3.684  14.405 -15.733  1.00  0.00     0.004 A 
ATOM     21  C   UNL     1       4.681  13.093 -13.971  1.00  0.00     0.004 A 
ATOM     22  C   UNL     1       3.878  14.165 -14.366  1.00  0.00    -0.051 A 
ATOM     23  C   UNL     1       3.147  14.965 -13.330  1.00  0.00     0.044 C 
ENDBRANCH  16  17
ENDBRANCH   6  16
TORSDOF 3
ENDMDL
