MODEL 1
REMARK VINA RESULT:    -3.930      0.000      0.000
REMARK INTER + INTRA:          -5.425
REMARK INTER:                  -5.194
REMARK INTRA:                  -0.231
REMARK UNBOUND:                -0.231
REMARK SMILES [H]/N=C\C[C@H]1C[C@@H]1O[C@H]1CO[C@H]2C[C@@H](C3CC3)CCN2C1
REMARK SMILES IDX 7 1 6 2 5 3 8 4 9 5 14 6 13 7 18 8 12 9 19 10 20 11 11 12
REMARK SMILES IDX 21 13 10 14 15 15 16 16 17 17 4 18 3 19 2 20 1 21
REMARK H PARENT
ROOT
ATOM      1  C   UNL     1       2.361   9.370  -8.786  1.00  0.00     0.122 C 
ATOM      2  C   UNL     1       1.632  10.185  -9.817  1.00  0.00     0.039 C 
ATOM      3  C   UNL     1       1.658  10.639  -8.386  1.00  0.00     0.026 C 
ENDROOT
BRANCH   1   4
ATOM      4  O   UNL     1       1.705   8.134  -8.443  1.00  0.00    -0.371 OA
BRANCH   4   5
ATOM      5  C   UNL     1       1.769   7.102  -9.441  1.00  0.00     0.158 C 
ATOM      6  C   UNL     1       2.550   3.018  -6.292  1.00  0.00    -0.003 C 
ATOM      7  C   UNL     1       3.385   4.213  -6.768  1.00  0.00     0.052 C 
ATOM      8  C   UNL     1       1.075   3.433  -6.202  1.00  0.00     0.019 C 
ATOM      9  C   UNL     1       2.825   4.819  -8.063  1.00  0.00     0.189 C 
ATOM     10  C   UNL     1       0.590   4.060  -7.509  1.00  0.00     0.087 C 
ATOM     11  N   UNL     1       1.425   5.201  -7.884  1.00  0.00    -0.276 NA
ATOM     12  O   UNL     1       3.651   5.941  -8.379  1.00  0.00    -0.360 OA
ATOM     13  C   UNL     1       0.920   5.867  -9.090  1.00  0.00     0.121 C 
ATOM     14  C   UNL     1       3.225   6.638  -9.553  1.00  0.00     0.195 C 
BRANCH   6  15
ATOM     15  C   UNL     1       3.037   2.497  -4.959  1.00  0.00    -0.008 C 
ATOM     16  C   UNL     1       3.415   1.043  -4.798  1.00  0.00     0.004 C 
ATOM     17  C   UNL     1       4.480   2.101  -4.764  1.00  0.00     0.004 C 
ENDBRANCH   6  15
ENDBRANCH   4   5
ENDBRANCH   1   4
BRANCH   3  18
ATOM     18  C   UNL     1       2.449  11.860  -8.025  1.00  0.00     0.053 C 
BRANCH  18  19
ATOM     19  C   UNL     1       2.252  13.066  -8.906  1.00  0.00     0.074 C 
BRANCH  19  20
ATOM     20  N   UNL     1       1.492  14.077  -8.646  1.00  0.00    -0.313 NA
ATOM     21  H   UNL     1       1.059  14.456  -9.500  1.00  0.00     0.186 HD
ENDBRANCH  19  20
ENDBRANCH  18  19
ENDBRANCH   3  18
TORSDOF 6
ENDMDL
MODEL 2
REMARK VINA RESULT:    -3.915      3.295      5.534
REMARK INTER + INTRA:          -5.405
REMARK INTER:                  -5.198
REMARK INTRA:                  -0.207
REMARK UNBOUND:                -0.231
REMARK SMILES [H]/N=C\C[C@H]1C[C@@H]1O[C@H]1CO[C@H]2C[C@@H](C3CC3)CCN2C1
REMARK SMILES IDX 7 1 6 2 5 3 8 4 9 5 14 6 13 7 18 8 12 9 19 10 20 11 11 12
REMARK SMILES IDX 21 13 10 14 15 15 16 16 17 17 4 18 3 19 2 20 1 21
REMARK H PARENT
ROOT
ATOM      1  C   UNL     1       3.914   5.737 -11.635  1.00  0.00     0.122 C 
ATOM      2  C   UNL     1       5.031   6.445 -12.349  1.00  0.00     0.039 C 
ATOM      3  C   UNL     1       4.742   5.003 -12.653  1.00  0.00     0.026 C 
ENDROOT
BRANCH   1   4
ATOM      4  O   UNL     1       4.191   5.450 -10.251  1.00  0.00    -0.371 OA
BRANCH   4   5
ATOM      5  C   UNL     1       4.130   6.576  -9.360  1.00  0.00     0.158 C 
ATOM      6  C   UNL     1       1.358   4.391  -5.521  1.00  0.00    -0.003 C 
ATOM      7  C   UNL     1       1.067   4.876  -6.946  1.00  0.00     0.052 C 
ATOM      8  C   UNL     1       2.799   3.866  -5.447  1.00  0.00     0.019 C 
ATOM      9  C   UNL     1       2.124   5.878  -7.433  1.00  0.00     0.189 C 
ATOM     10  C   UNL     1       3.796   4.896  -5.978  1.00  0.00     0.087 C 
ATOM     11  N   UNL     1       3.461   5.292  -7.346  1.00  0.00    -0.276 NA
ATOM     12  O   UNL     1       1.774   6.218  -8.776  1.00  0.00    -0.360 OA
ATOM     13  C   UNL     1       4.458   6.214  -7.901  1.00  0.00     0.121 C 
ATOM     14  C   UNL     1       2.700   7.125  -9.383  1.00  0.00     0.195 C 
BRANCH   6  15
ATOM     15  C   UNL     1       0.381   3.321  -5.089  1.00  0.00    -0.008 C 
ATOM     16  C   UNL     1      -0.218   3.348  -3.702  1.00  0.00     0.004 C 
ATOM     17  C   UNL     1      -1.081   3.642  -4.894  1.00  0.00     0.004 C 
ENDBRANCH   6  15
ENDBRANCH   4   5
ENDBRANCH   1   4
BRANCH   3  18
ATOM     18  C   UNL     1       4.157   4.645 -13.987  1.00  0.00     0.053 C 
BRANCH  18  19
ATOM     19  C   UNL     1       4.917   5.121 -15.197  1.00  0.00     0.074 C 
BRANCH  19  20
ATOM     20  N   UNL     1       5.879   4.489 -15.784  1.00  0.00    -0.313 NA
ATOM     21  H   UNL     1       6.737   5.058 -15.825  1.00  0.00     0.186 HD
ENDBRANCH  19  20
ENDBRANCH  18  19
ENDBRANCH   3  18
TORSDOF 6
ENDMDL
MODEL 3
REMARK VINA RESULT:    -3.594      1.478      1.744
REMARK INTER + INTRA:          -4.981
REMARK INTER:                  -5.086
REMARK INTRA:                   0.105
REMARK UNBOUND:                -0.231
REMARK SMILES [H]/N=C\C[C@H]1C[C@@H]1O[C@H]1CO[C@H]2C[C@@H](C3CC3)CCN2C1
REMARK SMILES IDX 7 1 6 2 5 3 8 4 9 5 14 6 13 7 18 8 12 9 19 10 20 11 11 12
REMARK SMILES IDX 21 13 10 14 15 15 16 16 17 17 4 18 3 19 2 20 1 21
REMARK H PARENT
ROOT
ATOM      1  C   UNL     1       1.247   9.310  -8.936  1.00  0.00     0.122 C 
ATOM      2  C   UNL     1       1.842  10.531  -8.293  1.00  0.00     0.039 C 
ATOM      3  C   UNL     1       2.111  10.241  -9.742  1.00  0.00     0.026 C 
ENDROOT
BRANCH   1   4
ATOM      4  O   UNL     1       1.852   8.072  -8.516  1.00  0.00    -0.371 OA
BRANCH   4   5
ATOM      5  C   UNL     1       1.848   7.018  -9.493  1.00  0.00     0.158 C 
ATOM      6  C   UNL     1       2.523   2.967  -6.277  1.00  0.00    -0.003 C 
ATOM      7  C   UNL     1       3.398   4.115  -6.797  1.00  0.00     0.052 C 
ATOM      8  C   UNL     1       1.070   3.448  -6.164  1.00  0.00     0.019 C 
ATOM      9  C   UNL     1       2.836   4.719  -8.091  1.00  0.00     0.189 C 
ATOM     10  C   UNL     1       0.583   4.069  -7.473  1.00  0.00     0.087 C 
ATOM     11  N   UNL     1       1.458   5.165  -7.889  1.00  0.00    -0.276 NA
ATOM     12  O   UNL     1       3.703   5.798  -8.448  1.00  0.00    -0.360 OA
ATOM     13  C   UNL     1       0.956   5.828  -9.098  1.00  0.00     0.121 C 
ATOM     14  C   UNL     1       3.280   6.489  -9.627  1.00  0.00     0.195 C 
BRANCH   6  15
ATOM     15  C   UNL     1       3.018   2.452  -4.945  1.00  0.00    -0.008 C 
ATOM     16  C   UNL     1       3.443   1.011  -4.793  1.00  0.00     0.004 C 
ATOM     17  C   UNL     1       4.472   2.102  -4.741  1.00  0.00     0.004 C 
ENDBRANCH   6  15
ENDBRANCH   4   5
ENDBRANCH   1   4
BRANCH   3  18
ATOM     18  C   UNL     1       1.498  11.127 -10.785  1.00  0.00     0.053 C 
BRANCH  18  19
ATOM     19  C   UNL     1       2.305  11.333 -12.041  1.00  0.00     0.074 C 
BRANCH  19  20
ATOM     20  N   UNL     1       2.420  10.491 -13.014  1.00  0.00    -0.313 NA
ATOM     21  H   UNL     1       1.658   9.798 -13.008  1.00  0.00     0.186 HD
ENDBRANCH  19  20
ENDBRANCH  18  19
ENDBRANCH   3  18
TORSDOF 6
ENDMDL
MODEL 4
REMARK VINA RESULT:    -3.265      6.358      8.041
REMARK INTER + INTRA:          -4.546
REMARK INTER:                  -4.123
REMARK INTRA:                  -0.423
REMARK UNBOUND:                -0.231
REMARK SMILES [H]/N=C\C[C@H]1C[C@@H]1O[C@H]1CO[C@H]2C[C@@H](C3CC3)CCN2C1
REMARK SMILES IDX 7 1 6 2 5 3 8 4 9 5 14 6 13 7 18 8 12 9 19 10 20 11 11 12
REMARK SMILES IDX 21 13 10 14 15 15 16 16 17 17 4 18 3 19 2 20 1 21
REMARK H PARENT
ROOT
ATOM      1  C   UNL     1       4.611  11.764 -15.692  1.00  0.00     0.122 C 
ATOM      2  C   UNL     1       3.760  12.888 -16.213  1.00  0.00     0.039 C 
ATOM      3  C   UNL     1       3.191  11.917 -15.218  1.00  0.00     0.026 C 
ENDROOT
BRANCH   1   4
ATOM      4  O   UNL     1       4.861  10.722 -16.654  1.00  0.00    -0.371 OA
BRANCH   4   5
ATOM      5  C   UNL     1       6.183  10.159 -16.630  1.00  0.00     0.158 C 
ATOM      6  C   UNL     1       5.182   5.933 -13.741  1.00  0.00    -0.003 C 
ATOM      7  C   UNL     1       5.286   7.441 -13.482  1.00  0.00     0.052 C 
ATOM      8  C   UNL     1       4.645   5.698 -15.160  1.00  0.00     0.019 C 
ATOM      9  C   UNL     1       6.086   8.155 -14.580  1.00  0.00     0.189 C 
ATOM     10  C   UNL     1       5.463   6.462 -16.200  1.00  0.00     0.087 C 
ATOM     11  N   UNL     1       5.497   7.891 -15.893  1.00  0.00    -0.276 NA
ATOM     12  O   UNL     1       6.073   9.546 -14.256  1.00  0.00    -0.360 OA
ATOM     13  C   UNL     1       6.206   8.650 -16.930  1.00  0.00     0.121 C 
ATOM     14  C   UNL     1       6.756  10.352 -15.222  1.00  0.00     0.195 C 
BRANCH   6  15
ATOM     15  C   UNL     1       4.298   5.254 -12.719  1.00  0.00    -0.008 C 
ATOM     16  C   UNL     1       4.907   4.419 -11.618  1.00  0.00     0.004 C 
ATOM     17  C   UNL     1       4.262   5.733 -11.288  1.00  0.00     0.004 C 
ENDBRANCH   6  15
ENDBRANCH   4   5
ENDBRANCH   1   4
BRANCH   3  18
ATOM     18  C   UNL     1       2.907  12.388 -13.823  1.00  0.00     0.053 C 
BRANCH  18  19
ATOM     19  C   UNL     1       2.728  11.315 -12.781  1.00  0.00     0.074 C 
BRANCH  19  20
ATOM     20  N   UNL     1       3.447  10.249 -12.660  1.00  0.00    -0.313 NA
ATOM     21  H   UNL     1       4.090  10.133 -13.456  1.00  0.00     0.186 HD
ENDBRANCH  19  20
ENDBRANCH  18  19
ENDBRANCH   3  18
TORSDOF 6
ENDMDL
MODEL 5
REMARK VINA RESULT:    -3.241      3.340      5.234
REMARK INTER + INTRA:          -4.515
REMARK INTER:                  -4.904
REMARK INTRA:                   0.389
REMARK UNBOUND:                -0.231
REMARK SMILES [H]/N=C\C[C@H]1C[C@@H]1O[C@H]1CO[C@H]2C[C@@H](C3CC3)CCN2C1
REMARK SMILES IDX 7 1 6 2 5 3 8 4 9 5 14 6 13 7 18 8 12 9 19 10 20 11 11 12
REMARK SMILES IDX 21 13 10 14 15 15 16 16 17 17 4 18 3 19 2 20 1 21
REMARK H PARENT
ROOT
ATOM      1  C   UNL     1       4.384   5.647 -11.492  1.00  0.00     0.122 C 
ATOM      2  C   UNL     1       5.148   4.369 -11.695  1.00  0.00     0.039 C 
ATOM      3  C   UNL     1       4.257   4.890 -12.786  1.00  0.00     0.026 C 
ENDROOT
BRANCH   1   4
ATOM      4  O   UNL     1       3.285   5.534 -10.569  1.00  0.00    -0.371 OA
BRANCH   4   5
ATOM      5  C   UNL     1       3.045   6.687  -9.746  1.00  0.00     0.158 C 
ATOM      6  C   UNL     1       2.733   4.298  -5.120  1.00  0.00    -0.003 C 
ATOM      7  C   UNL     1       1.847   4.394  -6.369  1.00  0.00     0.052 C 
ATOM      8  C   UNL     1       4.208   4.371  -5.537  1.00  0.00     0.019 C 
ATOM      9  C   UNL     1       2.196   5.621  -7.222  1.00  0.00     0.189 C 
ATOM     10  C   UNL     1       4.481   5.594  -6.412  1.00  0.00     0.087 C 
ATOM     11  N   UNL     1       3.613   5.602  -7.588  1.00  0.00    -0.276 NA
ATOM     12  O   UNL     1       1.345   5.576  -8.369  1.00  0.00    -0.360 OA
ATOM     13  C   UNL     1       3.922   6.723  -8.482  1.00  0.00     0.121 C 
ATOM     14  C   UNL     1       1.584   6.649  -9.286  1.00  0.00     0.195 C 
BRANCH   6  15
ATOM     15  C   UNL     1       2.462   3.029  -4.344  1.00  0.00    -0.008 C 
ATOM     16  C   UNL     1       1.069   2.447  -4.293  1.00  0.00     0.004 C 
ATOM     17  C   UNL     1       2.147   1.737  -5.060  1.00  0.00     0.004 C 
ENDBRANCH   6  15
ENDBRANCH   4   5
ENDBRANCH   1   4
BRANCH   3  18
ATOM     18  C   UNL     1       4.882   5.427 -14.040  1.00  0.00     0.053 C 
BRANCH  18  19
ATOM     19  C   UNL     1       4.234   5.015 -15.336  1.00  0.00     0.074 C 
BRANCH  19  20
ATOM     20  N   UNL     1       3.015   5.263 -15.685  1.00  0.00    -0.313 NA
ATOM     21  H   UNL     1       2.345   4.675 -15.169  1.00  0.00     0.186 HD
ENDBRANCH  19  20
ENDBRANCH  18  19
ENDBRANCH   3  18
TORSDOF 6
ENDMDL
MODEL 6
REMARK VINA RESULT:    -3.092      5.459      8.584
REMARK INTER + INTRA:          -4.318
REMARK INTER:                  -4.218
REMARK INTRA:                  -0.100
REMARK UNBOUND:                -0.231
REMARK SMILES [H]/N=C\C[C@H]1C[C@@H]1O[C@H]1CO[C@H]2C[C@@H](C3CC3)CCN2C1
REMARK SMILES IDX 7 1 6 2 5 3 8 4 9 5 14 6 13 7 18 8 12 9 19 10 20 11 11 12
REMARK SMILES IDX 21 13 10 14 15 15 16 16 17 17 4 18 3 19 2 20 1 21
REMARK H PARENT
ROOT
ATOM      1  C   UNL     1       4.316  12.530 -14.793  1.00  0.00     0.122 C 
ATOM      2  C   UNL     1       5.269  12.558 -15.954  1.00  0.00     0.039 C 
ATOM      3  C   UNL     1       5.527  11.639 -14.795  1.00  0.00     0.026 C 
ENDROOT
BRANCH   1   4
ATOM      4  O   UNL     1       4.377  13.700 -13.955  1.00  0.00    -0.371 OA
BRANCH   4   5
ATOM      5  C   UNL     1       3.116  14.336 -13.686  1.00  0.00     0.158 C 
ATOM      6  C   UNL     1       1.997  11.977  -9.170  1.00  0.00    -0.003 C 
ATOM      7  C   UNL     1       2.033  11.563 -10.647  1.00  0.00     0.052 C 
ATOM      8  C   UNL     1       3.075  13.041  -8.916  1.00  0.00     0.019 C 
ATOM      9  C   UNL     1       1.946  12.777 -11.581  1.00  0.00     0.189 C 
ATOM     10  C   UNL     1       2.954  14.204  -9.900  1.00  0.00     0.087 C 
ATOM     11  N   UNL     1       3.016  13.729 -11.282  1.00  0.00    -0.276 NA
ATOM     12  O   UNL     1       2.035  12.273 -12.915  1.00  0.00    -0.360 OA
ATOM     13  C   UNL     1       2.989  14.842 -12.238  1.00  0.00     0.121 C 
ATOM     14  C   UNL     1       2.006  13.304 -13.907  1.00  0.00     0.195 C 
BRANCH   6  15
ATOM     15  C   UNL     1       2.197  10.790  -8.256  1.00  0.00    -0.008 C 
ATOM     16  C   UNL     1       1.008  10.014  -7.740  1.00  0.00     0.004 C 
ATOM     17  C   UNL     1       1.932   9.385  -8.742  1.00  0.00     0.004 C 
ENDBRANCH   6  15
ENDBRANCH   4   5
ENDBRANCH   1   4
BRANCH   3  18
ATOM     18  C   UNL     1       5.378  10.160 -14.992  1.00  0.00     0.053 C 
BRANCH  18  19
ATOM     19  C   UNL     1       5.338   9.321 -13.741  1.00  0.00     0.074 C 
BRANCH  19  20
ATOM     20  N   UNL     1       4.434   9.376 -12.821  1.00  0.00    -0.313 NA
ATOM     21  H   UNL     1       3.512   9.621 -13.209  1.00  0.00     0.186 HD
ENDBRANCH  19  20
ENDBRANCH  18  19
ENDBRANCH   3  18
TORSDOF 6
ENDMDL
MODEL 7
REMARK VINA RESULT:    -2.579      2.692      8.345
REMARK INTER + INTRA:          -3.639
REMARK INTER:                  -4.321
REMARK INTRA:                   0.682
REMARK UNBOUND:                -0.231
REMARK SMILES [H]/N=C\C[C@H]1C[C@@H]1O[C@H]1CO[C@H]2C[C@@H](C3CC3)CCN2C1
REMARK SMILES IDX 7 1 6 2 5 3 8 4 9 5 14 6 13 7 18 8 12 9 19 10 20 11 11 12
REMARK SMILES IDX 21 13 10 14 15 15 16 16 17 17 4 18 3 19 2 20 1 21
REMARK H PARENT
ROOT
ATOM      1  C   UNL     1       2.766   6.910  -8.767  1.00  0.00     0.122 C 
ATOM      2  C   UNL     1       3.854   6.127  -9.446  1.00  0.00     0.039 C 
ATOM      3  C   UNL     1       3.994   6.502  -7.999  1.00  0.00     0.026 C 
ENDROOT
BRANCH   1   4
ATOM      4  O   UNL     1       2.691   8.288  -9.177  1.00  0.00    -0.371 OA
BRANCH   4   5
ATOM      5  C   UNL     1       1.372   8.857  -9.199  1.00  0.00     0.158 C 
ATOM      6  C   UNL     1       2.695  13.887  -9.585  1.00  0.00    -0.003 C 
ATOM      7  C   UNL     1       2.750  12.818  -8.487  1.00  0.00     0.052 C 
ATOM      8  C   UNL     1       2.893  13.220 -10.953  1.00  0.00     0.019 C 
ATOM      9  C   UNL     1       1.779  11.663  -8.766  1.00  0.00     0.189 C 
ATOM     10  C   UNL     1       1.921  12.059 -11.155  1.00  0.00     0.087 C 
ATOM     11  N   UNL     1       2.049  11.076 -10.079  1.00  0.00    -0.276 NA
ATOM     12  O   UNL     1       1.954  10.718  -7.709  1.00  0.00    -0.360 OA
ATOM     13  C   UNL     1       1.184   9.912 -10.303  1.00  0.00     0.121 C 
ATOM     14  C   UNL     1       1.133   9.555  -7.856  1.00  0.00     0.195 C 
BRANCH   6  15
ATOM     15  C   UNL     1       3.733  14.964  -9.364  1.00  0.00    -0.008 C 
ATOM     16  C   UNL     1       4.971  14.676  -8.549  1.00  0.00     0.004 C 
ATOM     17  C   UNL     1       5.084  14.885 -10.031  1.00  0.00     0.004 C 
ENDBRANCH   6  15
ENDBRANCH   4   5
ENDBRANCH   1   4
BRANCH   3  18
ATOM     18  C   UNL     1       3.911   5.426  -6.958  1.00  0.00     0.053 C 
BRANCH  18  19
ATOM     19  C   UNL     1       5.016   5.404  -5.933  1.00  0.00     0.074 C 
BRANCH  19  20
ATOM     20  N   UNL     1       6.138   6.038  -6.015  1.00  0.00    -0.313 NA
ATOM     21  H   UNL     1       6.147   6.692  -6.811  1.00  0.00     0.186 HD
ENDBRANCH  19  20
ENDBRANCH  18  19
ENDBRANCH   3  18
TORSDOF 6
ENDMDL
MODEL 8
REMARK VINA RESULT:    -2.547      4.380      7.102
REMARK INTER + INTRA:          -3.598
REMARK INTER:                  -3.864
REMARK INTRA:                   0.266
REMARK UNBOUND:                -0.231
REMARK SMILES [H]/N=C\C[C@H]1C[C@@H]1O[C@H]1CO[C@H]2C[C@@H](C3CC3)CCN2C1
REMARK SMILES IDX 7 1 6 2 5 3 8 4 9 5 14 6 13 7 18 8 12 9 19 10 20 11 11 12
REMARK SMILES IDX 21 13 10 14 15 15 16 16 17 17 4 18 3 19 2 20 1 21
REMARK H PARENT
ROOT
ATOM      1  C   UNL     1       4.135  13.174 -13.770  1.00  0.00     0.122 C 
ATOM      2  C   UNL     1       5.591  12.956 -14.070  1.00  0.00     0.039 C 
ATOM      3  C   UNL     1       4.584  11.906 -14.442  1.00  0.00     0.026 C 
ENDROOT
BRANCH   1   4
ATOM      4  O   UNL     1       3.803  13.080 -12.371  1.00  0.00    -0.371 OA
BRANCH   4   5
ATOM      5  C   UNL     1       2.412  13.252 -12.052  1.00  0.00     0.158 C 
ATOM      6  C   UNL     1       1.825   9.151  -8.883  1.00  0.00    -0.003 C 
ATOM      7  C   UNL     1       2.010   9.355 -10.391  1.00  0.00     0.052 C 
ATOM      8  C   UNL     1       2.576  10.254  -8.125  1.00  0.00     0.019 C 
ATOM      9  C   UNL     1       1.634  10.779 -10.824  1.00  0.00     0.189 C 
ATOM     10  C   UNL     1       2.182  11.644  -8.626  1.00  0.00     0.087 C 
ATOM     11  N   UNL     1       2.406  11.764 -10.066  1.00  0.00    -0.276 NA
ATOM     12  O   UNL     1       1.890  10.861 -12.227  1.00  0.00    -0.360 OA
ATOM     13  C   UNL     1       2.115  13.119 -10.547  1.00  0.00     0.121 C 
ATOM     14  C   UNL     1       1.619  12.156 -12.771  1.00  0.00     0.195 C 
BRANCH   6  15
ATOM     15  C   UNL     1       2.304   7.785  -8.445  1.00  0.00    -0.008 C 
ATOM     16  C   UNL     1       1.587   6.539  -8.908  1.00  0.00     0.004 C 
ATOM     17  C   UNL     1       2.962   6.845  -9.426  1.00  0.00     0.004 C 
ENDBRANCH   6  15
ENDBRANCH   4   5
ENDBRANCH   1   4
BRANCH   3  18
ATOM     18  C   UNL     1       4.281  11.671 -15.892  1.00  0.00     0.053 C 
BRANCH  18  19
ATOM     19  C   UNL     1       4.297  10.236 -16.352  1.00  0.00     0.074 C 
BRANCH  19  20
ATOM     20  N   UNL     1       3.317   9.401 -16.260  1.00  0.00    -0.313 NA
ATOM     21  H   UNL     1       3.556   8.488 -16.672  1.00  0.00     0.186 HD
ENDBRANCH  19  20
ENDBRANCH  18  19
ENDBRANCH   3  18
TORSDOF 6
ENDMDL
