MODEL 1
REMARK VINA RESULT:    -6.048      0.000      0.000
REMARK INTER + INTRA:          -7.483
REMARK INTER:                  -7.108
REMARK INTRA:                  -0.375
REMARK UNBOUND:                -0.375
REMARK SMILES Cc1ccc(CNC(=O)NC(=O)c2ccc(C)cc2)cc1
REMARK SMILES IDX 11 1 12 2 10 3 8 4 9 5 7 6 13 9 19 10 18 11 14 12 16 13
REMARK SMILES IDX 15 14 17 15 6 16 5 17 4 18 20 19 3 20 21 21 2 22 1 23
REMARK H PARENT 10 7 7 8
ROOT
ATOM      1  C   UNL     1       8.297   7.049   2.740  1.00  0.00     0.259 C 
ATOM      2  O   UNL     1       7.663   7.987   2.276  1.00  0.00    -0.269 OA
ATOM      3  N   UNL     1       9.578   7.050   3.300  1.00  0.00    -0.274 N 
ATOM      4  C   UNL     1      10.481   7.972   3.761  1.00  0.00     0.321 C 
ATOM      5  O   UNL     1      11.494   7.549   4.329  1.00  0.00    -0.248 OA
ATOM      6  N   UNL     1      10.307   9.303   3.655  1.00  0.00    -0.334 N 
ATOM      7  H   UNL     1       9.903   6.140   3.598  1.00  0.00     0.175 HD
ATOM      8  H   UNL     1      11.020   9.845   4.120  1.00  0.00     0.165 HD
ENDROOT
BRANCH   1   9
ATOM      9  C   UNL     1       7.635   5.730   2.718  1.00  0.00     0.040 A 
ATOM     10  C   UNL     1       7.907   4.795   1.718  1.00  0.00     0.014 A 
ATOM     11  C   UNL     1       7.297   3.541   1.770  1.00  0.00     0.004 A 
ATOM     12  C   UNL     1       6.715   5.441   3.730  1.00  0.00     0.014 A 
ATOM     13  C   UNL     1       6.411   3.222   2.810  1.00  0.00    -0.051 A 
ATOM     14  C   UNL     1       6.112   4.185   3.781  1.00  0.00     0.004 A 
ATOM     15  C   UNL     1       5.829   1.842   2.898  1.00  0.00     0.044 C 
ENDBRANCH   1   9
BRANCH   6  16
ATOM     16  C   UNL     1       9.165   9.997   3.129  1.00  0.00     0.153 C 
BRANCH  16  17
ATOM     17  C   UNL     1       8.968  11.424   3.559  1.00  0.00    -0.029 A 
ATOM     18  C   UNL     1       7.807  11.877   4.194  1.00  0.00     0.006 A 
ATOM     19  C   UNL     1      10.086  12.273   3.504  1.00  0.00     0.006 A 
ATOM     20  C   UNL     1       7.779  13.146   4.782  1.00  0.00     0.004 A 
ATOM     21  C   UNL     1      10.059  13.533   4.093  1.00  0.00     0.004 A 
ATOM     22  C   UNL     1       8.908  13.977   4.747  1.00  0.00    -0.051 A 
ATOM     23  C   UNL     1       8.934  15.276   5.495  1.00  0.00     0.044 C 
ENDBRANCH  16  17
ENDBRANCH   6  16
TORSDOF 3
ENDMDL
MODEL 2
REMARK VINA RESULT:    -6.043      3.256      5.560
REMARK INTER + INTRA:          -7.478
REMARK INTER:                  -7.094
REMARK INTRA:                  -0.384
REMARK UNBOUND:                -0.375
REMARK SMILES Cc1ccc(CNC(=O)NC(=O)c2ccc(C)cc2)cc1
REMARK SMILES IDX 11 1 12 2 10 3 8 4 9 5 7 6 13 9 19 10 18 11 14 12 16 13
REMARK SMILES IDX 15 14 17 15 6 16 5 17 4 18 20 19 3 20 21 21 2 22 1 23
REMARK H PARENT 10 7 7 8
ROOT
ATOM      1  C   UNL     1       8.637   6.777   2.606  1.00  0.00     0.259 C 
ATOM      2  O   UNL     1       9.265   5.856   3.110  1.00  0.00    -0.269 OA
ATOM      3  N   UNL     1       8.770   8.151   2.827  1.00  0.00    -0.274 N 
ATOM      4  C   UNL     1       9.676   9.001   3.407  1.00  0.00     0.321 C 
ATOM      5  O   UNL     1       9.489  10.216   3.275  1.00  0.00    -0.248 OA
ATOM      6  N   UNL     1      10.765   8.583   4.080  1.00  0.00    -0.334 N 
ATOM      7  H   UNL     1       8.118   8.722   2.306  1.00  0.00     0.175 HD
ATOM      8  H   UNL     1      11.376   9.332   4.371  1.00  0.00     0.165 HD
ENDROOT
BRANCH   1   9
ATOM      9  C   UNL     1       7.597   6.408   1.627  1.00  0.00     0.040 A 
ATOM     10  C   UNL     1       6.259   6.271   2.002  1.00  0.00     0.014 A 
ATOM     11  C   UNL     1       5.303   5.973   1.031  1.00  0.00     0.004 A 
ATOM     12  C   UNL     1       7.989   6.191   0.302  1.00  0.00     0.014 A 
ATOM     13  C   UNL     1       5.679   5.804  -0.311  1.00  0.00    -0.051 A 
ATOM     14  C   UNL     1       7.030   5.900  -0.666  1.00  0.00     0.004 A 
ATOM     15  C   UNL     1       4.629   5.568  -1.356  1.00  0.00     0.044 C 
ENDBRANCH   1   9
BRANCH   6  16
ATOM     16  C   UNL     1      11.219   7.232   4.258  1.00  0.00     0.153 C 
BRANCH  16  17
ATOM     17  C   UNL     1      12.689   7.024   4.495  1.00  0.00    -0.029 A 
ATOM     18  C   UNL     1      13.518   6.343   3.598  1.00  0.00     0.006 A 
ATOM     19  C   UNL     1      13.274   7.729   5.560  1.00  0.00     0.006 A 
ATOM     20  C   UNL     1      14.907   6.392   3.755  1.00  0.00     0.004 A 
ATOM     21  C   UNL     1      14.656   7.781   5.711  1.00  0.00     0.004 A 
ATOM     22  C   UNL     1      15.486   7.120   4.804  1.00  0.00    -0.051 A 
ATOM     23  C   UNL     1      16.972   7.295   4.895  1.00  0.00     0.044 C 
ENDBRANCH  16  17
ENDBRANCH   6  16
TORSDOF 3
ENDMDL
MODEL 3
REMARK VINA RESULT:    -6.028      3.149      7.312
REMARK INTER + INTRA:          -7.460
REMARK INTER:                  -6.975
REMARK INTRA:                  -0.486
REMARK UNBOUND:                -0.375
REMARK SMILES Cc1ccc(CNC(=O)NC(=O)c2ccc(C)cc2)cc1
REMARK SMILES IDX 11 1 12 2 10 3 8 4 9 5 7 6 13 9 19 10 18 11 14 12 16 13
REMARK SMILES IDX 15 14 17 15 6 16 5 17 4 18 20 19 3 20 21 21 2 22 1 23
REMARK H PARENT 10 7 7 8
ROOT
ATOM      1  C   UNL     1      11.259   7.145   3.797  1.00  0.00     0.259 C 
ATOM      2  O   UNL     1      10.741   6.075   3.509  1.00  0.00    -0.269 OA
ATOM      3  N   UNL     1      10.716   8.431   3.711  1.00  0.00    -0.274 N 
ATOM      4  C   UNL     1       9.479   8.999   3.545  1.00  0.00     0.321 C 
ATOM      5  O   UNL     1       9.392  10.226   3.663  1.00  0.00    -0.248 OA
ATOM      6  N   UNL     1       8.362   8.292   3.294  1.00  0.00    -0.334 N 
ATOM      7  H   UNL     1      11.348   9.170   3.988  1.00  0.00     0.175 HD
ATOM      8  H   UNL     1       7.520   8.850   3.285  1.00  0.00     0.165 HD
ENDROOT
BRANCH   1   9
ATOM      9  C   UNL     1      12.641   7.093   4.310  1.00  0.00     0.040 A 
ATOM     10  C   UNL     1      13.593   6.238   3.752  1.00  0.00     0.014 A 
ATOM     11  C   UNL     1      14.901   6.262   4.237  1.00  0.00     0.004 A 
ATOM     12  C   UNL     1      12.974   7.925   5.384  1.00  0.00     0.014 A 
ATOM     13  C   UNL     1      15.259   7.131   5.279  1.00  0.00    -0.051 A 
ATOM     14  C   UNL     1      14.284   7.950   5.860  1.00  0.00     0.004 A 
ATOM     15  C   UNL     1      16.688   7.206   5.732  1.00  0.00     0.044 C 
ENDBRANCH   1   9
BRANCH   6  16
ATOM     16  C   UNL     1       8.227   6.864   3.223  1.00  0.00     0.153 C 
BRANCH  16  17
ATOM     17  C   UNL     1       7.383   6.305   2.111  1.00  0.00    -0.029 A 
ATOM     18  C   UNL     1       6.017   6.039   2.249  1.00  0.00     0.006 A 
ATOM     19  C   UNL     1       7.959   6.253   0.831  1.00  0.00     0.006 A 
ATOM     20  C   UNL     1       5.243   5.751   1.120  1.00  0.00     0.004 A 
ATOM     21  C   UNL     1       7.186   5.972  -0.291  1.00  0.00     0.004 A 
ATOM     22  C   UNL     1       5.819   5.729  -0.158  1.00  0.00    -0.051 A 
ATOM     23  C   UNL     1       4.971   5.563  -1.383  1.00  0.00     0.044 C 
ENDBRANCH  16  17
ENDBRANCH   6  16
TORSDOF 3
ENDMDL
MODEL 4
REMARK VINA RESULT:    -6.020      0.544      8.038
REMARK INTER + INTRA:          -7.451
REMARK INTER:                  -6.966
REMARK INTRA:                  -0.485
REMARK UNBOUND:                -0.375
REMARK SMILES Cc1ccc(CNC(=O)NC(=O)c2ccc(C)cc2)cc1
REMARK SMILES IDX 11 1 12 2 10 3 8 4 9 5 7 6 13 9 19 10 18 11 14 12 16 13
REMARK SMILES IDX 15 14 17 15 6 16 5 17 4 18 20 19 3 20 21 21 2 22 1 23
REMARK H PARENT 10 7 7 8
ROOT
ATOM      1  C   UNL     1       8.873   9.811   3.391  1.00  0.00     0.259 C 
ATOM      2  O   UNL     1       7.887   9.401   2.796  1.00  0.00    -0.269 OA
ATOM      3  N   UNL     1       9.997   9.096   3.818  1.00  0.00    -0.274 N 
ATOM      4  C   UNL     1      10.563   7.868   3.592  1.00  0.00     0.321 C 
ATOM      5  O   UNL     1      11.678   7.652   4.079  1.00  0.00    -0.248 OA
ATOM      6  N   UNL     1       9.984   6.907   2.849  1.00  0.00    -0.334 N 
ATOM      7  H   UNL     1      10.681   9.652   4.314  1.00  0.00     0.175 HD
ATOM      8  H   UNL     1      10.567   6.095   2.708  1.00  0.00     0.165 HD
ENDROOT
BRANCH   1   9
ATOM      9  C   UNL     1       8.904  11.252   3.705  1.00  0.00     0.040 A 
ATOM     10  C   UNL     1       7.776  11.915   4.191  1.00  0.00     0.014 A 
ATOM     11  C   UNL     1       7.868  13.267   4.524  1.00  0.00     0.004 A 
ATOM     12  C   UNL     1      10.101  11.945   3.496  1.00  0.00     0.014 A 
ATOM     13  C   UNL     1       9.078  13.959   4.366  1.00  0.00    -0.051 A 
ATOM     14  C   UNL     1      10.190  13.293   3.836  1.00  0.00     0.004 A 
ATOM     15  C   UNL     1       9.184  15.389   4.808  1.00  0.00     0.044 C 
ENDBRANCH   1   9
BRANCH   6  16
ATOM     16  C   UNL     1       8.752   6.989   2.116  1.00  0.00     0.153 C 
BRANCH  16  17
ATOM     17  C   UNL     1       7.825   5.807   2.189  1.00  0.00    -0.029 A 
ATOM     18  C   UNL     1       7.855   4.756   1.267  1.00  0.00     0.006 A 
ATOM     19  C   UNL     1       7.052   5.668   3.353  1.00  0.00     0.006 A 
ATOM     20  C   UNL     1       7.141   3.580   1.523  1.00  0.00     0.004 A 
ATOM     21  C   UNL     1       6.346   4.496   3.609  1.00  0.00     0.004 A 
ATOM     22  C   UNL     1       6.393   3.437   2.700  1.00  0.00    -0.051 A 
ATOM     23  C   UNL     1       5.744   2.131   3.048  1.00  0.00     0.044 C 
ENDBRANCH  16  17
ENDBRANCH   6  16
TORSDOF 3
ENDMDL
MODEL 5
REMARK VINA RESULT:    -5.788      3.079      7.605
REMARK INTER + INTRA:          -7.178
REMARK INTER:                  -6.691
REMARK INTRA:                  -0.487
REMARK UNBOUND:                -0.375
REMARK SMILES Cc1ccc(CNC(=O)NC(=O)c2ccc(C)cc2)cc1
REMARK SMILES IDX 11 1 12 2 10 3 8 4 9 5 7 6 13 9 19 10 18 11 14 12 16 13
REMARK SMILES IDX 15 14 17 15 6 16 5 17 4 18 20 19 3 20 21 21 2 22 1 23
REMARK H PARENT 10 7 7 8
ROOT
ATOM      1  C   UNL     1      11.523   7.093   4.156  1.00  0.00     0.259 C 
ATOM      2  O   UNL     1      10.982   5.998   4.202  1.00  0.00    -0.269 OA
ATOM      3  N   UNL     1      10.969   8.330   3.811  1.00  0.00    -0.274 N 
ATOM      4  C   UNL     1       9.719   8.868   3.642  1.00  0.00     0.321 C 
ATOM      5  O   UNL     1       9.640  10.088   3.457  1.00  0.00    -0.248 OA
ATOM      6  N   UNL     1       8.584   8.147   3.697  1.00  0.00    -0.334 N 
ATOM      7  H   UNL     1      11.625   9.099   3.824  1.00  0.00     0.175 HD
ATOM      8  H   UNL     1       7.745   8.705   3.639  1.00  0.00     0.165 HD
ENDROOT
BRANCH   1   9
ATOM      9  C   UNL     1      12.954   7.139   4.514  1.00  0.00     0.040 A 
ATOM     10  C   UNL     1      13.417   7.934   5.564  1.00  0.00     0.014 A 
ATOM     11  C   UNL     1      14.771   7.904   5.900  1.00  0.00     0.004 A 
ATOM     12  C   UNL     1      13.844   6.363   3.765  1.00  0.00     0.014 A 
ATOM     13  C   UNL     1      15.663   7.089   5.187  1.00  0.00    -0.051 A 
ATOM     14  C   UNL     1      15.194   6.330   4.108  1.00  0.00     0.004 A 
ATOM     15  C   UNL     1      17.099   7.003   5.614  1.00  0.00     0.044 C 
ENDBRANCH   1   9
BRANCH   6  16
ATOM     16  C   UNL     1       8.448   6.750   4.000  1.00  0.00     0.153 C 
BRANCH  16  17
ATOM     17  C   UNL     1       7.629   5.916   3.055  1.00  0.00    -0.029 A 
ATOM     18  C   UNL     1       6.504   5.188   3.458  1.00  0.00     0.006 A 
ATOM     19  C   UNL     1       7.893   6.052   1.683  1.00  0.00     0.006 A 
ATOM     20  C   UNL     1       5.650   4.632   2.500  1.00  0.00     0.004 A 
ATOM     21  C   UNL     1       7.040   5.502   0.731  1.00  0.00     0.004 A 
ATOM     22  C   UNL     1       5.905   4.796   1.131  1.00  0.00    -0.051 A 
ATOM     23  C   UNL     1       4.921   4.327   0.101  1.00  0.00     0.044 C 
ENDBRANCH  16  17
ENDBRANCH   6  16
TORSDOF 3
ENDMDL
MODEL 6
REMARK VINA RESULT:    -5.781      1.137      7.904
REMARK INTER + INTRA:          -7.170
REMARK INTER:                  -6.679
REMARK INTRA:                  -0.491
REMARK UNBOUND:                -0.375
REMARK SMILES Cc1ccc(CNC(=O)NC(=O)c2ccc(C)cc2)cc1
REMARK SMILES IDX 11 1 12 2 10 3 8 4 9 5 7 6 13 9 19 10 18 11 14 12 16 13
REMARK SMILES IDX 15 14 17 15 6 16 5 17 4 18 20 19 3 20 21 21 2 22 1 23
REMARK H PARENT 10 7 7 8
ROOT
ATOM      1  C   UNL     1       9.014  10.172   3.189  1.00  0.00     0.259 C 
ATOM      2  O   UNL     1       8.240   9.940   2.270  1.00  0.00    -0.269 OA
ATOM      3  N   UNL     1       9.909   9.303   3.821  1.00  0.00    -0.274 N 
ATOM      4  C   UNL     1      10.450   8.064   3.592  1.00  0.00     0.321 C 
ATOM      5  O   UNL     1      11.346   7.680   4.352  1.00  0.00    -0.248 OA
ATOM      6  N   UNL     1      10.079   7.266   2.573  1.00  0.00    -0.334 N 
ATOM      7  H   UNL     1      10.434   9.722   4.576  1.00  0.00     0.175 HD
ATOM      8  H   UNL     1      10.633   6.425   2.492  1.00  0.00     0.165 HD
ENDROOT
BRANCH   1   9
ATOM      9  C   UNL     1       9.023  11.552   3.712  1.00  0.00     0.040 A 
ATOM     10  C   UNL     1      10.146  12.371   3.584  1.00  0.00     0.014 A 
ATOM     11  C   UNL     1      10.090  13.686   4.047  1.00  0.00     0.004 A 
ATOM     12  C   UNL     1       7.871  12.020   4.350  1.00  0.00     0.014 A 
ATOM     13  C   UNL     1       8.920  14.182   4.643  1.00  0.00    -0.051 A 
ATOM     14  C   UNL     1       7.816  13.336   4.805  1.00  0.00     0.004 A 
ATOM     15  C   UNL     1       8.846  15.622   5.058  1.00  0.00     0.044 C 
ENDBRANCH   1   9
BRANCH   6  16
ATOM     16  C   UNL     1       9.142   7.561   1.526  1.00  0.00     0.153 C 
BRANCH  16  17
ATOM     17  C   UNL     1       8.009   6.594   1.322  1.00  0.00    -0.029 A 
ATOM     18  C   UNL     1       7.759   5.956   0.103  1.00  0.00     0.006 A 
ATOM     19  C   UNL     1       7.314   6.168   2.466  1.00  0.00     0.006 A 
ATOM     20  C   UNL     1       6.849   4.896   0.041  1.00  0.00     0.004 A 
ATOM     21  C   UNL     1       6.413   5.110   2.404  1.00  0.00     0.004 A 
ATOM     22  C   UNL     1       6.180   4.458   1.193  1.00  0.00    -0.051 A 
ATOM     23  C   UNL     1       5.313   3.234   1.163  1.00  0.00     0.044 C 
ENDBRANCH  16  17
ENDBRANCH   6  16
TORSDOF 3
ENDMDL
MODEL 7
REMARK VINA RESULT:    -4.712      2.880      7.628
REMARK INTER + INTRA:          -5.913
REMARK INTER:                  -5.412
REMARK INTRA:                  -0.502
REMARK UNBOUND:                -0.375
REMARK SMILES Cc1ccc(CNC(=O)NC(=O)c2ccc(C)cc2)cc1
REMARK SMILES IDX 11 1 12 2 10 3 8 4 9 5 7 6 13 9 19 10 18 11 14 12 16 13
REMARK SMILES IDX 15 14 17 15 6 16 5 17 4 18 20 19 3 20 21 21 2 22 1 23
REMARK H PARENT 10 7 7 8
ROOT
ATOM      1  C   UNL     1      11.107   7.436   3.270  1.00  0.00     0.259 C 
ATOM      2  O   UNL     1      10.974   6.632   2.358  1.00  0.00    -0.269 OA
ATOM      3  N   UNL     1      10.221   8.431   3.696  1.00  0.00    -0.274 N 
ATOM      4  C   UNL     1       8.904   8.763   3.509  1.00  0.00     0.321 C 
ATOM      5  O   UNL     1       8.440   9.679   4.196  1.00  0.00    -0.248 OA
ATOM      6  N   UNL     1       8.092   8.126   2.645  1.00  0.00    -0.334 N 
ATOM      7  H   UNL     1      10.563   8.991   4.466  1.00  0.00     0.175 HD
ATOM      8  H   UNL     1       7.131   8.434   2.688  1.00  0.00     0.165 HD
ENDROOT
BRANCH   1   9
ATOM      9  C   UNL     1      12.362   7.357   4.042  1.00  0.00     0.040 A 
ATOM     10  C   UNL     1      13.362   6.440   3.713  1.00  0.00     0.014 A 
ATOM     11  C   UNL     1      14.554   6.440   4.439  1.00  0.00     0.004 A 
ATOM     12  C   UNL     1      12.523   8.228   5.124  1.00  0.00     0.014 A 
ATOM     13  C   UNL     1      14.746   7.344   5.494  1.00  0.00    -0.051 A 
ATOM     14  C   UNL     1      13.718   8.228   5.842  1.00  0.00     0.004 A 
ATOM     15  C   UNL     1      16.065   7.388   6.209  1.00  0.00     0.044 C 
ENDBRANCH   1   9
BRANCH   6  16
ATOM     16  C   UNL     1       8.399   6.981   1.836  1.00  0.00     0.153 C 
BRANCH  16  17
ATOM     17  C   UNL     1       7.580   5.739   2.059  1.00  0.00    -0.029 A 
ATOM     18  C   UNL     1       7.630   4.629   1.209  1.00  0.00     0.006 A 
ATOM     19  C   UNL     1       6.906   5.625   3.285  1.00  0.00     0.006 A 
ATOM     20  C   UNL     1       7.037   3.423   1.597  1.00  0.00     0.004 A 
ATOM     21  C   UNL     1       6.320   4.424   3.672  1.00  0.00     0.004 A 
ATOM     22  C   UNL     1       6.389   3.309   2.835  1.00  0.00    -0.051 A 
ATOM     23  C   UNL     1       5.877   1.985   3.319  1.00  0.00     0.044 C 
ENDBRANCH  16  17
ENDBRANCH   6  16
TORSDOF 3
ENDMDL
MODEL 8
REMARK VINA RESULT:    -4.354      5.172      9.836
REMARK INTER + INTRA:          -5.492
REMARK INTER:                  -4.912
REMARK INTRA:                  -0.580
REMARK UNBOUND:                -0.375
REMARK SMILES Cc1ccc(CNC(=O)NC(=O)c2ccc(C)cc2)cc1
REMARK SMILES IDX 11 1 12 2 10 3 8 4 9 5 7 6 13 9 19 10 18 11 14 12 16 13
REMARK SMILES IDX 15 14 17 15 6 16 5 17 4 18 20 19 3 20 21 21 2 22 1 23
REMARK H PARENT 10 7 7 8
ROOT
ATOM      1  C   UNL     1      11.299  14.947   7.529  1.00  0.00     0.259 C 
ATOM      2  O   UNL     1      11.553  15.058   6.338  1.00  0.00    -0.269 OA
ATOM      3  N   UNL     1      10.055  14.982   8.166  1.00  0.00    -0.274 N 
ATOM      4  C   UNL     1       8.732  14.907   7.811  1.00  0.00     0.321 C 
ATOM      5  O   UNL     1       7.898  14.839   8.719  1.00  0.00    -0.248 OA
ATOM      6  N   UNL     1       8.305  14.873   6.535  1.00  0.00    -0.334 N 
ATOM      7  H   UNL     1      10.098  14.888   9.172  1.00  0.00     0.175 HD
ATOM      8  H   UNL     1       7.310  14.730   6.443  1.00  0.00     0.165 HD
ENDROOT
BRANCH   1   9
ATOM      9  C   UNL     1      12.448  14.742   8.433  1.00  0.00     0.040 A 
ATOM     10  C   UNL     1      12.432  15.211   9.748  1.00  0.00     0.014 A 
ATOM     11  C   UNL     1      13.519  14.947  10.581  1.00  0.00     0.004 A 
ATOM     12  C   UNL     1      13.565  14.067   7.932  1.00  0.00     0.014 A 
ATOM     13  C   UNL     1      14.624  14.225  10.104  1.00  0.00    -0.051 A 
ATOM     14  C   UNL     1      14.647  13.800   8.770  1.00  0.00     0.004 A 
ATOM     15  C   UNL     1      15.747  13.877  11.035  1.00  0.00     0.044 C 
ENDBRANCH   1   9
BRANCH   6  16
ATOM     16  C   UNL     1       9.106  14.836   5.344  1.00  0.00     0.153 C 
BRANCH  16  17
ATOM     17  C   UNL     1       9.047  13.586   4.511  1.00  0.00    -0.029 A 
ATOM     18  C   UNL     1      10.172  13.017   3.906  1.00  0.00     0.006 A 
ATOM     19  C   UNL     1       7.845  12.859   4.526  1.00  0.00     0.006 A 
ATOM     20  C   UNL     1      10.097  11.735   3.352  1.00  0.00     0.004 A 
ATOM     21  C   UNL     1       7.772  11.582   3.979  1.00  0.00     0.004 A 
ATOM     22  C   UNL     1       8.901  11.004   3.396  1.00  0.00    -0.051 A 
ATOM     23  C   UNL     1       8.850   9.579   2.933  1.00  0.00     0.044 C 
ENDBRANCH  16  17
ENDBRANCH   6  16
TORSDOF 3
ENDMDL
MODEL 9
REMARK VINA RESULT:    -3.820      4.363      8.633
REMARK INTER + INTRA:          -4.864
REMARK INTER:                  -4.494
REMARK INTRA:                  -0.370
REMARK UNBOUND:                -0.375
REMARK SMILES Cc1ccc(CNC(=O)NC(=O)c2ccc(C)cc2)cc1
REMARK SMILES IDX 11 1 12 2 10 3 8 4 9 5 7 6 13 9 19 10 18 11 14 12 16 13
REMARK SMILES IDX 15 14 17 15 6 16 5 17 4 18 20 19 3 20 21 21 2 22 1 23
REMARK H PARENT 10 7 7 8
ROOT
ATOM      1  C   UNL     1      13.539   9.046   5.624  1.00  0.00     0.259 C 
ATOM      2  O   UNL     1      12.453   9.586   5.464  1.00  0.00    -0.269 OA
ATOM      3  N   UNL     1      13.929   7.747   5.284  1.00  0.00    -0.274 N 
ATOM      4  C   UNL     1      13.460   6.719   4.509  1.00  0.00     0.321 C 
ATOM      5  O   UNL     1      14.193   5.736   4.354  1.00  0.00    -0.248 OA
ATOM      6  N   UNL     1      12.264   6.739   3.890  1.00  0.00    -0.334 N 
ATOM      7  H   UNL     1      14.881   7.518   5.538  1.00  0.00     0.175 HD
ATOM      8  H   UNL     1      12.104   5.943   3.289  1.00  0.00     0.165 HD
ENDROOT
BRANCH   1   9
ATOM      9  C   UNL     1      14.594   9.861   6.257  1.00  0.00     0.040 A 
ATOM     10  C   UNL     1      15.866   9.340   6.503  1.00  0.00     0.014 A 
ATOM     11  C   UNL     1      16.847  10.164   7.055  1.00  0.00     0.004 A 
ATOM     12  C   UNL     1      14.283  11.176   6.614  1.00  0.00     0.014 A 
ATOM     13  C   UNL     1      16.561  11.501   7.369  1.00  0.00    -0.051 A 
ATOM     14  C   UNL     1      15.268  11.998   7.160  1.00  0.00     0.004 A 
ATOM     15  C   UNL     1      17.649  12.398   7.883  1.00  0.00     0.044 C 
ENDBRANCH   1   9
BRANCH   6  16
ATOM     16  C   UNL     1      11.314   7.814   3.855  1.00  0.00     0.153 C 
BRANCH  16  17
ATOM     17  C   UNL     1       9.946   7.508   3.312  1.00  0.00    -0.029 A 
ATOM     18  C   UNL     1       9.596   7.698   1.971  1.00  0.00     0.006 A 
ATOM     19  C   UNL     1       9.063   6.809   4.151  1.00  0.00     0.006 A 
ATOM     20  C   UNL     1       8.396   7.174   1.480  1.00  0.00     0.004 A 
ATOM     21  C   UNL     1       7.872   6.284   3.660  1.00  0.00     0.004 A 
ATOM     22  C   UNL     1       7.533   6.453   2.317  1.00  0.00    -0.051 A 
ATOM     23  C   UNL     1       6.318   5.767   1.766  1.00  0.00     0.044 C 
ENDBRANCH  16  17
ENDBRANCH   6  16
TORSDOF 3
ENDMDL
