MODEL 1
REMARK VINA RESULT:    -4.163      0.000      0.000
REMARK INTER + INTRA:          -5.746
REMARK INTER:                  -5.502
REMARK INTRA:                  -0.244
REMARK UNBOUND:                -0.244
REMARK SMILES [H]/N=C\C[C@H]1C[C@@H]1O[C@H]1CO[C@H]2C[C@@H](C3CC3)CCN2C1
REMARK SMILES IDX 7 1 6 2 5 3 8 4 9 5 14 6 13 7 18 8 12 9 19 10 20 11 11 12
REMARK SMILES IDX 21 13 10 14 15 15 16 16 17 17 4 18 3 19 2 20 1 21
REMARK H PARENT
ROOT
ATOM      1  C   UNL     1      12.128   7.058   3.727  1.00  0.00     0.122 C 
ATOM      2  C   UNL     1      12.809   7.370   5.030  1.00  0.00     0.039 C 
ATOM      3  C   UNL     1      13.309   6.241   4.175  1.00  0.00     0.026 C 
ENDROOT
BRANCH   1   4
ATOM      4  O   UNL     1      10.831   6.451   3.873  1.00  0.00    -0.371 OA
BRANCH   4   5
ATOM      5  C   UNL     1       9.783   7.327   4.319  1.00  0.00     0.158 C 
ATOM      6  C   UNL     1       5.988   5.693   1.136  1.00  0.00    -0.003 C 
ATOM      7  C   UNL     1       7.276   6.509   0.980  1.00  0.00     0.052 C 
ATOM      8  C   UNL     1       6.177   4.654   2.249  1.00  0.00     0.019 C 
ATOM      9  C   UNL     1       7.741   7.103   2.317  1.00  0.00     0.189 C 
ATOM     10  C   UNL     1       6.672   5.303   3.541  1.00  0.00     0.087 C 
ATOM     11  N   UNL     1       7.912   6.045   3.312  1.00  0.00    -0.276 NA
ATOM     12  O   UNL     1       8.963   7.795   2.054  1.00  0.00    -0.360 OA
ATOM     13  C   UNL     1       8.447   6.602   4.560  1.00  0.00     0.121 C 
ATOM     14  C   UNL     1       9.542   8.375   3.227  1.00  0.00     0.195 C 
BRANCH   6  15
ATOM     15  C   UNL     1       5.598   5.018  -0.160  1.00  0.00    -0.008 C 
ATOM     16  C   UNL     1       4.175   5.093  -0.663  1.00  0.00     0.004 C 
ATOM     17  C   UNL     1       5.263   5.832  -1.386  1.00  0.00     0.004 C 
ENDBRANCH   6  15
ENDBRANCH   4   5
ENDBRANCH   1   4
BRANCH   3  18
ATOM     18  C   UNL     1      14.632   6.383   3.485  1.00  0.00     0.053 C 
BRANCH  18  19
ATOM     19  C   UNL     1      15.821   6.646   4.372  1.00  0.00     0.074 C 
BRANCH  19  20
ATOM     20  N   UNL     1      16.340   5.812   5.210  1.00  0.00    -0.313 NA
ATOM     21  H   UNL     1      15.642   5.463   5.881  1.00  0.00     0.186 HD
ENDBRANCH  19  20
ENDBRANCH  18  19
ENDBRANCH   3  18
TORSDOF 6
ENDMDL
MODEL 2
REMARK VINA RESULT:    -4.018      3.159      5.371
REMARK INTER + INTRA:          -5.554
REMARK INTER:                  -5.264
REMARK INTRA:                  -0.289
REMARK UNBOUND:                -0.244
REMARK SMILES [H]/N=C\C[C@H]1C[C@@H]1O[C@H]1CO[C@H]2C[C@@H](C3CC3)CCN2C1
REMARK SMILES IDX 7 1 6 2 5 3 8 4 9 5 14 6 13 7 18 8 12 9 19 10 20 11 11 12
REMARK SMILES IDX 21 13 10 14 15 15 16 16 17 17 4 18 3 19 2 20 1 21
REMARK H PARENT
ROOT
ATOM      1  C   UNL     1       8.785  10.837   3.345  1.00  0.00     0.122 C 
ATOM      2  C   UNL     1       7.527  11.378   2.725  1.00  0.00     0.039 C 
ATOM      3  C   UNL     1       7.857  11.701   4.155  1.00  0.00     0.026 C 
ENDROOT
BRANCH   1   4
ATOM      4  O   UNL     1       8.747   9.423   3.612  1.00  0.00    -0.371 OA
BRANCH   4   5
ATOM      5  C   UNL     1       9.784   8.646   2.990  1.00  0.00     0.158 C 
ATOM      6  C   UNL     1       7.025   4.343   1.954  1.00  0.00    -0.003 C 
ATOM      7  C   UNL     1       7.597   5.004   3.214  1.00  0.00     0.052 C 
ATOM      8  C   UNL     1       6.640   5.430   0.941  1.00  0.00     0.019 C 
ATOM      9  C   UNL     1       8.734   5.979   2.880  1.00  0.00     0.189 C 
ATOM     10  C   UNL     1       7.803   6.386   0.678  1.00  0.00     0.087 C 
ATOM     11  N   UNL     1       8.277   6.988   1.924  1.00  0.00    -0.276 NA
ATOM     12  O   UNL     1       9.149   6.562   4.117  1.00  0.00    -0.360 OA
ATOM     13  C   UNL     1       9.335   7.975   1.680  1.00  0.00     0.121 C 
ATOM     14  C   UNL     1      10.190   7.531   3.958  1.00  0.00     0.195 C 
BRANCH   6  15
ATOM     15  C   UNL     1       5.833   3.471   2.277  1.00  0.00    -0.008 C 
ATOM     16  C   UNL     1       5.797   2.029   1.830  1.00  0.00     0.004 C 
ATOM     17  C   UNL     1       5.941   2.356   3.288  1.00  0.00     0.004 C 
ENDBRANCH   6  15
ENDBRANCH   4   5
ENDBRANCH   1   4
BRANCH   3  18
ATOM     18  C   UNL     1       8.248  13.104   4.511  1.00  0.00     0.053 C 
BRANCH  18  19
ATOM     19  C   UNL     1       7.964  13.536   5.926  1.00  0.00     0.074 C 
BRANCH  19  20
ATOM     20  N   UNL     1       8.764  13.411   6.931  1.00  0.00    -0.313 NA
ATOM     21  H   UNL     1       8.249  13.272   7.812  1.00  0.00     0.186 HD
ENDBRANCH  19  20
ENDBRANCH  18  19
ENDBRANCH   3  18
TORSDOF 6
ENDMDL
MODEL 3
REMARK VINA RESULT:    -3.818      6.435      7.855
REMARK INTER + INTRA:          -5.290
REMARK INTER:                  -5.068
REMARK INTRA:                  -0.222
REMARK UNBOUND:                -0.244
REMARK SMILES [H]/N=C\C[C@H]1C[C@@H]1O[C@H]1CO[C@H]2C[C@@H](C3CC3)CCN2C1
REMARK SMILES IDX 7 1 6 2 5 3 8 4 9 5 14 6 13 7 18 8 12 9 19 10 20 11 11 12
REMARK SMILES IDX 21 13 10 14 15 15 16 16 17 17 4 18 3 19 2 20 1 21
REMARK H PARENT
ROOT
ATOM      1  C   UNL     1      11.485  14.862   7.494  1.00  0.00     0.122 C 
ATOM      2  C   UNL     1      10.441  14.496   8.510  1.00  0.00     0.039 C 
ATOM      3  C   UNL     1      11.892  14.501   8.896  1.00  0.00     0.026 C 
ENDROOT
BRANCH   1   4
ATOM      4  O   UNL     1      11.698  13.860   6.482  1.00  0.00    -0.371 OA
BRANCH   4   5
ATOM      5  C   UNL     1      11.585  14.316   5.124  1.00  0.00     0.158 C 
ATOM      6  C   UNL     1       8.928  10.280   3.161  1.00  0.00    -0.003 C 
ATOM      7  C   UNL     1      10.364  10.520   3.641  1.00  0.00     0.052 C 
ATOM      8  C   UNL     1       7.966  11.148   3.984  1.00  0.00     0.019 C 
ATOM      9  C   UNL     1      10.721  12.012   3.649  1.00  0.00     0.189 C 
ATOM     10  C   UNL     1       8.395  12.615   3.979  1.00  0.00     0.087 C 
ATOM     11  N   UNL     1       9.766  12.761   4.468  1.00  0.00    -0.276 NA
ATOM     12  O   UNL     1      12.054  12.111   4.154  1.00  0.00    -0.360 OA
ATOM     13  C   UNL     1      10.164  14.171   4.552  1.00  0.00     0.121 C 
ATOM     14  C   UNL     1      12.515  13.462   4.256  1.00  0.00     0.195 C 
BRANCH   6  15
ATOM     15  C   UNL     1       8.545   8.821   3.263  1.00  0.00    -0.008 C 
ATOM     16  C   UNL     1       8.860   7.867   2.134  1.00  0.00     0.004 C 
ATOM     17  C   UNL     1       9.599   7.755   3.436  1.00  0.00     0.004 C 
ENDBRANCH   6  15
ENDBRANCH   4   5
ENDBRANCH   1   4
BRANCH   3  18
ATOM     18  C   UNL     1      12.390  15.559   9.835  1.00  0.00     0.053 C 
BRANCH  18  19
ATOM     19  C   UNL     1      13.212  15.080  11.003  1.00  0.00     0.074 C 
BRANCH  19  20
ATOM     20  N   UNL     1      12.829  14.235  11.902  1.00  0.00    -0.313 NA
ATOM     21  H   UNL     1      11.986  14.562  12.395  1.00  0.00     0.186 HD
ENDBRANCH  19  20
ENDBRANCH  18  19
ENDBRANCH   3  18
TORSDOF 6
ENDMDL
MODEL 4
REMARK VINA RESULT:    -3.695      5.013      8.312
REMARK INTER + INTRA:          -5.127
REMARK INTER:                  -5.022
REMARK INTRA:                  -0.105
REMARK UNBOUND:                -0.244
REMARK SMILES [H]/N=C\C[C@H]1C[C@@H]1O[C@H]1CO[C@H]2C[C@@H](C3CC3)CCN2C1
REMARK SMILES IDX 7 1 6 2 5 3 8 4 9 5 14 6 13 7 18 8 12 9 19 10 20 11 11 12
REMARK SMILES IDX 21 13 10 14 15 15 16 16 17 17 4 18 3 19 2 20 1 21
REMARK H PARENT
ROOT
ATOM      1  C   UNL     1       9.101   8.106   3.347  1.00  0.00     0.122 C 
ATOM      2  C   UNL     1      10.030   7.109   3.980  1.00  0.00     0.039 C 
ATOM      3  C   UNL     1       8.579   7.131   4.366  1.00  0.00     0.026 C 
ENDROOT
BRANCH   1   4
ATOM      4  O   UNL     1       9.301   9.461   3.794  1.00  0.00    -0.371 OA
BRANCH   4   5
ATOM      5  C   UNL     1       9.035  10.481   2.818  1.00  0.00     0.158 C 
ATOM      6  C   UNL     1       9.059  14.623   5.989  1.00  0.00    -0.003 C 
ATOM      7  C   UNL     1       8.116  13.441   5.733  1.00  0.00     0.052 C 
ATOM      8  C   UNL     1      10.508  14.175   5.753  1.00  0.00     0.019 C 
ATOM      9  C   UNL     1       8.359  12.805   4.357  1.00  0.00     0.189 C 
ATOM     10  C   UNL     1      10.675  13.521   4.382  1.00  0.00     0.087 C 
ATOM     11  N   UNL     1       9.756  12.394   4.225  1.00  0.00    -0.276 NA
ATOM     12  O   UNL     1       7.461  11.698   4.254  1.00  0.00    -0.360 OA
ATOM     13  C   UNL     1       9.964  11.701   2.948  1.00  0.00     0.121 C 
ATOM     14  C   UNL     1       7.600  10.977   3.026  1.00  0.00     0.195 C 
BRANCH   6  15
ATOM     15  C   UNL     1       8.894  15.172   7.388  1.00  0.00    -0.008 C 
ATOM     16  C   UNL     1       7.751  16.105   7.712  1.00  0.00     0.004 C 
ATOM     17  C   UNL     1       7.759  14.711   8.270  1.00  0.00     0.004 C 
ENDBRANCH   6  15
ENDBRANCH   4   5
ENDBRANCH   1   4
BRANCH   3  18
ATOM     18  C   UNL     1       7.697   5.994   3.942  1.00  0.00     0.053 C 
BRANCH  18  19
ATOM     19  C   UNL     1       6.652   5.556   4.935  1.00  0.00     0.074 C 
BRANCH  19  20
ATOM     20  N   UNL     1       6.787   5.538   6.219  1.00  0.00    -0.313 NA
ATOM     21  H   UNL     1       6.899   6.488   6.602  1.00  0.00     0.186 HD
ENDBRANCH  19  20
ENDBRANCH  18  19
ENDBRANCH   3  18
TORSDOF 6
ENDMDL
MODEL 5
REMARK VINA RESULT:    -3.627      3.570      5.006
REMARK INTER + INTRA:          -5.038
REMARK INTER:                  -4.777
REMARK INTRA:                  -0.261
REMARK UNBOUND:                -0.244
REMARK SMILES [H]/N=C\C[C@H]1C[C@@H]1O[C@H]1CO[C@H]2C[C@@H](C3CC3)CCN2C1
REMARK SMILES IDX 7 1 6 2 5 3 8 4 9 5 14 6 13 7 18 8 12 9 19 10 20 11 11 12
REMARK SMILES IDX 21 13 10 14 15 15 16 16 17 17 4 18 3 19 2 20 1 21
REMARK H PARENT
ROOT
ATOM      1  C   UNL     1      15.782   6.827   3.380  1.00  0.00     0.122 C 
ATOM      2  C   UNL     1      16.565   6.670   2.106  1.00  0.00     0.039 C 
ATOM      3  C   UNL     1      16.421   8.026   2.735  1.00  0.00     0.026 C 
ENDROOT
BRANCH   1   4
ATOM      4  O   UNL     1      14.358   6.688   3.215  1.00  0.00    -0.371 OA
BRANCH   4   5
ATOM      5  C   UNL     1      13.630   6.318   4.397  1.00  0.00     0.158 C 
ATOM      6  C   UNL     1       9.276   9.054   3.525  1.00  0.00    -0.003 C 
ATOM      7  C   UNL     1      10.720   9.385   3.921  1.00  0.00     0.052 C 
ATOM      8  C   UNL     1       9.270   7.817   2.616  1.00  0.00     0.019 C 
ATOM      9  C   UNL     1      11.441   8.168   4.516  1.00  0.00     0.189 C 
ATOM     10  C   UNL     1      10.032   6.654   3.251  1.00  0.00     0.087 C 
ATOM     11  N   UNL     1      11.403   7.044   3.581  1.00  0.00    -0.276 NA
ATOM     12  O   UNL     1      12.778   8.584   4.800  1.00  0.00    -0.360 OA
ATOM     13  C   UNL     1      12.173   5.914   4.111  1.00  0.00     0.121 C 
ATOM     14  C   UNL     1      13.591   7.532   5.331  1.00  0.00     0.195 C 
BRANCH   6  15
ATOM     15  C   UNL     1       8.608  10.222   2.835  1.00  0.00    -0.008 C 
ATOM     16  C   UNL     1       7.779  11.205   3.628  1.00  0.00     0.004 C 
ATOM     17  C   UNL     1       9.098  11.633   3.054  1.00  0.00     0.004 C 
ENDBRANCH   6  15
ENDBRANCH   4   5
ENDBRANCH   1   4
BRANCH   3  18
ATOM     18  C   UNL     1      17.624   8.669   3.359  1.00  0.00     0.053 C 
BRANCH  18  19
ATOM     19  C   UNL     1      17.534  10.153   3.603  1.00  0.00     0.074 C 
BRANCH  19  20
ATOM     20  N   UNL     1      16.445  10.840   3.705  1.00  0.00    -0.313 NA
ATOM     21  H   UNL     1      16.576  11.674   4.295  1.00  0.00     0.186 HD
ENDBRANCH  19  20
ENDBRANCH  18  19
ENDBRANCH   3  18
TORSDOF 6
ENDMDL
MODEL 6
REMARK VINA RESULT:    -3.600      4.778      7.200
REMARK INTER + INTRA:          -5.002
REMARK INTER:                  -4.758
REMARK INTRA:                  -0.244
REMARK UNBOUND:                -0.244
REMARK SMILES [H]/N=C\C[C@H]1C[C@@H]1O[C@H]1CO[C@H]2C[C@@H](C3CC3)CCN2C1
REMARK SMILES IDX 7 1 6 2 5 3 8 4 9 5 14 6 13 7 18 8 12 9 19 10 20 11 11 12
REMARK SMILES IDX 21 13 10 14 15 15 16 16 17 17 4 18 3 19 2 20 1 21
REMARK H PARENT
ROOT
ATOM      1  C   UNL     1       7.855  13.489   5.739  1.00  0.00     0.122 C 
ATOM      2  C   UNL     1       6.941  13.621   6.925  1.00  0.00     0.039 C 
ATOM      3  C   UNL     1       8.426  13.537   7.130  1.00  0.00     0.026 C 
ENDROOT
BRANCH   1   4
ATOM      4  O   UNL     1       7.811  12.197   5.105  1.00  0.00    -0.371 OA
BRANCH   4   5
ATOM      5  C   UNL     1       8.149  12.181   3.708  1.00  0.00     0.158 C 
ATOM      6  C   UNL     1      10.638   7.599   3.558  1.00  0.00    -0.003 C 
ATOM      7  C   UNL     1      10.938   8.995   4.120  1.00  0.00     0.052 C 
ATOM      8  C   UNL     1       9.127   7.336   3.634  1.00  0.00     0.019 C 
ATOM      9  C   UNL     1      10.081  10.076   3.448  1.00  0.00     0.189 C 
ATOM     10  C   UNL     1       8.330   8.464   2.979  1.00  0.00     0.087 C 
ATOM     11  N   UNL     1       8.659   9.756   3.582  1.00  0.00    -0.276 NA
ATOM     12  O   UNL     1      10.414  11.313   4.081  1.00  0.00    -0.360 OA
ATOM     13  C   UNL     1       7.839  10.837   3.025  1.00  0.00     0.121 C 
ATOM     14  C   UNL     1       9.658  12.420   3.581  1.00  0.00     0.195 C 
BRANCH   6  15
ATOM     15  C   UNL     1      11.401   6.526   4.301  1.00  0.00    -0.008 C 
ATOM     16  C   UNL     1      12.775   6.105   3.835  1.00  0.00     0.004 C 
ATOM     17  C   UNL     1      12.623   6.871   5.117  1.00  0.00     0.004 C 
ENDBRANCH   6  15
ENDBRANCH   4   5
ENDBRANCH   1   4
BRANCH   3  18
ATOM     18  C   UNL     1       9.164  14.755   7.602  1.00  0.00     0.053 C 
BRANCH  18  19
ATOM     19  C   UNL     1      10.517  14.516   8.219  1.00  0.00     0.074 C 
BRANCH  19  20
ATOM     20  N   UNL     1      11.334  13.565   7.908  1.00  0.00    -0.313 NA
ATOM     21  H   UNL     1      12.315  13.853   8.025  1.00  0.00     0.186 HD
ENDBRANCH  19  20
ENDBRANCH  18  19
ENDBRANCH   3  18
TORSDOF 6
ENDMDL
MODEL 7
REMARK VINA RESULT:    -3.551      5.116      8.263
REMARK INTER + INTRA:          -4.937
REMARK INTER:                  -4.288
REMARK INTRA:                  -0.649
REMARK UNBOUND:                -0.244
REMARK SMILES [H]/N=C\C[C@H]1C[C@@H]1O[C@H]1CO[C@H]2C[C@@H](C3CC3)CCN2C1
REMARK SMILES IDX 7 1 6 2 5 3 8 4 9 5 14 6 13 7 18 8 12 9 19 10 20 11 11 12
REMARK SMILES IDX 21 13 10 14 15 15 16 16 17 17 4 18 3 19 2 20 1 21
REMARK H PARENT
ROOT
ATOM      1  C   UNL     1      15.532  13.044   6.144  1.00  0.00     0.122 C 
ATOM      2  C   UNL     1      15.952  14.223   5.312  1.00  0.00     0.039 C 
ATOM      3  C   UNL     1      14.814  13.354   4.858  1.00  0.00     0.026 C 
ENDROOT
BRANCH   1   4
ATOM      4  O   UNL     1      16.460  11.944   6.114  1.00  0.00    -0.371 OA
BRANCH   4   5
ATOM      5  C   UNL     1      16.412  11.062   7.248  1.00  0.00     0.158 C 
ATOM      6  C   UNL     1      13.836   7.097   5.047  1.00  0.00    -0.003 C 
ATOM      7  C   UNL     1      13.481   8.514   5.512  1.00  0.00     0.052 C 
ATOM      8  C   UNL     1      15.289   7.075   4.551  1.00  0.00     0.019 C 
ATOM      9  C   UNL     1      14.497   9.052   6.529  1.00  0.00     0.189 C 
ATOM     10  C   UNL     1      16.244   7.654   5.595  1.00  0.00     0.087 C 
ATOM     11  N   UNL     1      15.848   9.011   5.971  1.00  0.00    -0.276 NA
ATOM     12  O   UNL     1      14.088  10.383   6.850  1.00  0.00    -0.360 OA
ATOM     13  C   UNL     1      16.804   9.613   6.907  1.00  0.00     0.121 C 
ATOM     14  C   UNL     1      14.971  11.034   7.769  1.00  0.00     0.195 C 
BRANCH   6  15
ATOM     15  C   UNL     1      12.898   6.617   3.963  1.00  0.00    -0.008 C 
ATOM     16  C   UNL     1      11.886   5.534   4.252  1.00  0.00     0.004 C 
ATOM     17  C   UNL     1      11.425   6.942   4.015  1.00  0.00     0.004 C 
ENDBRANCH   6  15
ENDBRANCH   4   5
ENDBRANCH   1   4
BRANCH   3  18
ATOM     18  C   UNL     1      13.421  13.909   4.885  1.00  0.00     0.053 C 
BRANCH  18  19
ATOM     19  C   UNL     1      12.313  12.943   4.556  1.00  0.00     0.074 C 
BRANCH  19  20
ATOM     20  N   UNL     1      12.343  11.665   4.741  1.00  0.00    -0.313 NA
ATOM     21  H   UNL     1      12.676  11.426   5.686  1.00  0.00     0.186 HD
ENDBRANCH  19  20
ENDBRANCH  18  19
ENDBRANCH   3  18
TORSDOF 6
ENDMDL
MODEL 8
REMARK VINA RESULT:    -3.541      6.235      7.946
REMARK INTER + INTRA:          -4.923
REMARK INTER:                  -4.257
REMARK INTRA:                  -0.666
REMARK UNBOUND:                -0.244
REMARK SMILES [H]/N=C\C[C@H]1C[C@@H]1O[C@H]1CO[C@H]2C[C@@H](C3CC3)CCN2C1
REMARK SMILES IDX 7 1 6 2 5 3 8 4 9 5 14 6 13 7 18 8 12 9 19 10 20 11 11 12
REMARK SMILES IDX 21 13 10 14 15 15 16 16 17 17 4 18 3 19 2 20 1 21
REMARK H PARENT
ROOT
ATOM      1  C   UNL     1      14.536  13.812   6.898  1.00  0.00     0.122 C 
ATOM      2  C   UNL     1      14.982  13.556   8.310  1.00  0.00     0.039 C 
ATOM      3  C   UNL     1      14.211  12.504   7.566  1.00  0.00     0.026 C 
ENDROOT
BRANCH   1   4
ATOM      4  O   UNL     1      13.460  14.763   6.785  1.00  0.00    -0.371 OA
BRANCH   4   5
ATOM      5  C   UNL     1      13.316  15.386   5.498  1.00  0.00     0.158 C 
ATOM      6  C   UNL     1       9.197  12.688   3.779  1.00  0.00    -0.003 C 
ATOM      7  C   UNL     1      10.683  12.391   4.017  1.00  0.00     0.052 C 
ATOM      8  C   UNL     1       8.715  13.720   4.808  1.00  0.00     0.019 C 
ATOM      9  C   UNL     1      11.522  13.676   4.055  1.00  0.00     0.189 C 
ATOM     10  C   UNL     1       9.611  14.958   4.820  1.00  0.00     0.087 C 
ATOM     11  N   UNL     1      11.005  14.593   5.072  1.00  0.00    -0.276 NA
ATOM     12  O   UNL     1      12.867  13.278   4.327  1.00  0.00    -0.360 OA
ATOM     13  C   UNL     1      11.864  15.778   5.173  1.00  0.00     0.121 C 
ATOM     14  C   UNL     1      13.768  14.384   4.431  1.00  0.00     0.195 C 
BRANCH   6  15
ATOM     15  C   UNL     1       8.361  11.431   3.855  1.00  0.00    -0.008 C 
ATOM     16  C   UNL     1       7.667  10.899   2.623  1.00  0.00     0.004 C 
ATOM     17  C   UNL     1       8.829  10.150   3.208  1.00  0.00     0.004 C 
ENDBRANCH   6  15
ENDBRANCH   4   5
ENDBRANCH   1   4
BRANCH   3  18
ATOM     18  C   UNL     1      14.914  11.247   7.148  1.00  0.00     0.053 C 
BRANCH  18  19
ATOM     19  C   UNL     1      14.106  10.270   6.336  1.00  0.00     0.074 C 
BRANCH  19  20
ATOM     20  N   UNL     1      13.133  10.568   5.540  1.00  0.00    -0.313 NA
ATOM     21  H   UNL     1      12.218  10.457   6.000  1.00  0.00     0.186 HD
ENDBRANCH  19  20
ENDBRANCH  18  19
ENDBRANCH   3  18
TORSDOF 6
ENDMDL
MODEL 9
REMARK VINA RESULT:    -3.344      4.768      7.443
REMARK INTER + INTRA:          -4.663
REMARK INTER:                  -4.567
REMARK INTRA:                  -0.096
REMARK UNBOUND:                -0.244
REMARK SMILES [H]/N=C\C[C@H]1C[C@@H]1O[C@H]1CO[C@H]2C[C@@H](C3CC3)CCN2C1
REMARK SMILES IDX 7 1 6 2 5 3 8 4 9 5 14 6 13 7 18 8 12 9 19 10 20 11 11 12
REMARK SMILES IDX 21 13 10 14 15 15 16 16 17 17 4 18 3 19 2 20 1 21
REMARK H PARENT
ROOT
ATOM      1  C   UNL     1      17.034  11.639   5.373  1.00  0.00     0.122 C 
ATOM      2  C   UNL     1      17.655  12.347   4.202  1.00  0.00     0.039 C 
ATOM      3  C   UNL     1      16.418  12.906   4.845  1.00  0.00     0.026 C 
ENDROOT
BRANCH   1   4
ATOM      4  O   UNL     1      16.370  10.408   5.031  1.00  0.00    -0.371 OA
BRANCH   4   5
ATOM      5  C   UNL     1      16.254   9.449   6.095  1.00  0.00     0.158 C 
ATOM      6  C   UNL     1      12.037   6.895   4.393  1.00  0.00    -0.003 C 
ATOM      7  C   UNL     1      12.314   8.275   5.003  1.00  0.00     0.052 C 
ATOM      8  C   UNL     1      13.247   6.459   3.555  1.00  0.00     0.019 C 
ATOM      9  C   UNL     1      13.645   8.304   5.766  1.00  0.00     0.189 C 
ATOM     10  C   UNL     1      14.543   6.543   4.361  1.00  0.00     0.087 C 
ATOM     11  N   UNL     1      14.743   7.892   4.891  1.00  0.00    -0.276 NA
ATOM     12  O   UNL     1      13.813   9.640   6.244  1.00  0.00    -0.360 OA
ATOM     13  C   UNL     1      16.026   8.012   5.594  1.00  0.00     0.121 C 
ATOM     14  C   UNL     1      15.042   9.832   6.951  1.00  0.00     0.195 C 
BRANCH   6  15
ATOM     15  C   UNL     1      10.783   6.903   3.549  1.00  0.00    -0.008 C 
ATOM     16  C   UNL     1       9.421   6.926   4.203  1.00  0.00     0.004 C 
ATOM     17  C   UNL     1       9.915   8.136   3.464  1.00  0.00     0.004 C 
ENDBRANCH   6  15
ENDBRANCH   4   5
ENDBRANCH   1   4
BRANCH   3  18
ATOM     18  C   UNL     1      16.519  14.180   5.629  1.00  0.00     0.053 C 
BRANCH  18  19
ATOM     19  C   UNL     1      16.506  15.457   4.830  1.00  0.00     0.074 C 
BRANCH  19  20
ATOM     20  N   UNL     1      15.952  15.622   3.676  1.00  0.00    -0.313 NA
ATOM     21  H   UNL     1      16.389  16.394   3.152  1.00  0.00     0.186 HD
ENDBRANCH  19  20
ENDBRANCH  18  19
ENDBRANCH   3  18
TORSDOF 6
ENDMDL
