MODEL 1
REMARK VINA RESULT:    -6.038      0.000      0.000
REMARK INTER + INTRA:          -7.579
REMARK INTER:                  -7.097
REMARK INTRA:                  -0.482
REMARK UNBOUND:                -0.482
REMARK SMILES Cc1ccc(CNC(=O)NC(=O)c2ccc(C)cc2)cc1
REMARK SMILES IDX 11 1 12 2 10 3 8 4 9 5 7 6 13 9 19 10 18 11 14 12 16 13
REMARK SMILES IDX 15 14 17 15 6 16 5 17 4 18 20 19 3 20 21 21 2 22 1 23
REMARK H PARENT 10 7 7 8
ROOT
ATOM      1  C   UNL     1      12.179   5.117  -2.929  1.00  0.00     0.259 C 
ATOM      2  O   UNL     1      11.006   5.400  -2.728  1.00  0.00    -0.269 OA
ATOM      3  N   UNL     1      12.729   3.894  -3.325  1.00  0.00    -0.274 N 
ATOM      4  C   UNL     1      12.286   2.703  -3.840  1.00  0.00     0.321 C 
ATOM      5  O   UNL     1      13.136   1.880  -4.195  1.00  0.00    -0.248 OA
ATOM      6  N   UNL     1      10.984   2.402  -4.006  1.00  0.00    -0.334 N 
ATOM      7  H   UNL     1      13.737   3.897  -3.407  1.00  0.00     0.175 HD
ATOM      8  H   UNL     1      10.827   1.523  -4.477  1.00  0.00     0.165 HD
ENDROOT
BRANCH   1   9
ATOM      9  C   UNL     1      13.161   6.202  -2.741  1.00  0.00     0.040 A 
ATOM     10  C   UNL     1      13.034   7.127  -1.703  1.00  0.00     0.014 A 
ATOM     11  C   UNL     1      14.017   8.103  -1.533  1.00  0.00     0.004 A 
ATOM     12  C   UNL     1      14.229   6.285  -3.640  1.00  0.00     0.014 A 
ATOM     13  C   UNL     1      15.119   8.162  -2.398  1.00  0.00    -0.051 A 
ATOM     14  C   UNL     1      15.211   7.257  -3.462  1.00  0.00     0.004 A 
ATOM     15  C   UNL     1      16.210   9.163  -2.151  1.00  0.00     0.044 C 
ENDBRANCH   1   9
BRANCH   6  16
ATOM     16  C   UNL     1       9.851   3.248  -3.758  1.00  0.00     0.153 C 
BRANCH  16  17
ATOM     17  C   UNL     1       8.652   2.621  -3.103  1.00  0.00    -0.029 A 
ATOM     18  C   UNL     1       7.680   1.908  -3.813  1.00  0.00     0.006 A 
ATOM     19  C   UNL     1       8.634   2.578  -1.699  1.00  0.00     0.006 A 
ATOM     20  C   UNL     1       6.726   1.150  -3.125  1.00  0.00     0.004 A 
ATOM     21  C   UNL     1       7.688   1.819  -1.017  1.00  0.00     0.004 A 
ATOM     22  C   UNL     1       6.732   1.090  -1.725  1.00  0.00    -0.051 A 
ATOM     23  C   UNL     1       5.806   0.169  -0.988  1.00  0.00     0.044 C 
ENDBRANCH  16  17
ENDBRANCH   6  16
TORSDOF 3
ENDMDL
MODEL 2
REMARK VINA RESULT:    -6.028      3.001      5.365
REMARK INTER + INTRA:          -7.568
REMARK INTER:                  -7.088
REMARK INTRA:                  -0.480
REMARK UNBOUND:                -0.482
REMARK SMILES Cc1ccc(CNC(=O)NC(=O)c2ccc(C)cc2)cc1
REMARK SMILES IDX 11 1 12 2 10 3 8 4 9 5 7 6 13 9 19 10 18 11 14 12 16 13
REMARK SMILES IDX 15 14 17 15 6 16 5 17 4 18 20 19 3 20 21 21 2 22 1 23
REMARK H PARENT 10 7 7 8
ROOT
ATOM      1  C   UNL     1      12.529   1.734  -4.093  1.00  0.00     0.259 C 
ATOM      2  O   UNL     1      11.478   1.117  -3.989  1.00  0.00    -0.269 OA
ATOM      3  N   UNL     1      12.788   3.077  -3.804  1.00  0.00    -0.274 N 
ATOM      4  C   UNL     1      12.175   4.106  -3.136  1.00  0.00     0.321 C 
ATOM      5  O   UNL     1      12.815   5.152  -2.983  1.00  0.00    -0.248 OA
ATOM      6  N   UNL     1      10.935   4.024  -2.618  1.00  0.00    -0.334 N 
ATOM      7  H   UNL     1      13.738   3.369  -3.992  1.00  0.00     0.175 HD
ATOM      8  H   UNL     1      10.663   4.836  -2.084  1.00  0.00     0.165 HD
ENDROOT
BRANCH   1   9
ATOM      9  C   UNL     1      13.695   0.974  -4.584  1.00  0.00     0.040 A 
ATOM     10  C   UNL     1      13.565   0.004  -5.579  1.00  0.00     0.014 A 
ATOM     11  C   UNL     1      14.704  -0.651  -6.049  1.00  0.00     0.004 A 
ATOM     12  C   UNL     1      14.943   1.247  -4.016  1.00  0.00     0.014 A 
ATOM     13  C   UNL     1      15.969  -0.347  -5.522  1.00  0.00    -0.051 A 
ATOM     14  C   UNL     1      16.079   0.595  -4.492  1.00  0.00     0.004 A 
ATOM     15  C   UNL     1      17.193  -0.998  -6.096  1.00  0.00     0.044 C 
ENDBRANCH   1   9
BRANCH   6  16
ATOM     16  C   UNL     1      10.071   2.878  -2.594  1.00  0.00     0.153 C 
BRANCH  16  17
ATOM     17  C   UNL     1       8.610   3.110  -2.867  1.00  0.00    -0.029 A 
ATOM     18  C   UNL     1       7.709   3.536  -1.886  1.00  0.00     0.006 A 
ATOM     19  C   UNL     1       8.197   3.096  -4.209  1.00  0.00     0.006 A 
ATOM     20  C   UNL     1       6.428   3.963  -2.251  1.00  0.00     0.004 A 
ATOM     21  C   UNL     1       6.924   3.526  -4.571  1.00  0.00     0.004 A 
ATOM     22  C   UNL     1       6.031   3.973  -3.596  1.00  0.00    -0.051 A 
ATOM     23  C   UNL     1       4.715   4.562  -4.008  1.00  0.00     0.044 C 
ENDBRANCH  16  17
ENDBRANCH   6  16
TORSDOF 3
ENDMDL
MODEL 3
REMARK VINA RESULT:    -5.864      0.533      8.041
REMARK INTER + INTRA:          -7.375
REMARK INTER:                  -7.000
REMARK INTRA:                  -0.375
REMARK UNBOUND:                -0.482
REMARK SMILES Cc1ccc(CNC(=O)NC(=O)c2ccc(C)cc2)cc1
REMARK SMILES IDX 11 1 12 2 10 3 8 4 9 5 7 6 13 9 19 10 18 11 14 12 16 13
REMARK SMILES IDX 15 14 17 15 6 16 5 17 4 18 20 19 3 20 21 21 2 22 1 23
REMARK H PARENT 10 7 7 8
ROOT
ATOM      1  C   UNL     1       9.975   3.259  -3.023  1.00  0.00     0.259 C 
ATOM      2  O   UNL     1       9.840   4.475  -3.027  1.00  0.00    -0.269 OA
ATOM      3  N   UNL     1      11.094   2.502  -3.386  1.00  0.00    -0.274 N 
ATOM      4  C   UNL     1      12.427   2.715  -3.626  1.00  0.00     0.321 C 
ATOM      5  O   UNL     1      13.144   1.724  -3.797  1.00  0.00    -0.248 OA
ATOM      6  N   UNL     1      12.993   3.936  -3.653  1.00  0.00    -0.334 N 
ATOM      7  H   UNL     1      10.960   1.502  -3.319  1.00  0.00     0.175 HD
ATOM      8  H   UNL     1      13.997   3.917  -3.757  1.00  0.00     0.165 HD
ENDROOT
BRANCH   1   9
ATOM      9  C   UNL     1       8.815   2.467  -2.574  1.00  0.00     0.040 A 
ATOM     10  C   UNL     1       8.004   1.784  -3.483  1.00  0.00     0.014 A 
ATOM     11  C   UNL     1       6.949   1.005  -3.007  1.00  0.00     0.004 A 
ATOM     12  C   UNL     1       8.541   2.422  -1.204  1.00  0.00     0.014 A 
ATOM     13  C   UNL     1       6.697   0.912  -1.629  1.00  0.00    -0.051 A 
ATOM     14  C   UNL     1       7.490   1.638  -0.732  1.00  0.00     0.004 A 
ATOM     15  C   UNL     1       5.613   0.004  -1.128  1.00  0.00     0.044 C 
ENDBRANCH   1   9
BRANCH   6  16
ATOM     16  C   UNL     1      12.366   5.198  -3.379  1.00  0.00     0.153 C 
BRANCH  16  17
ATOM     17  C   UNL     1      13.260   6.343  -2.991  1.00  0.00    -0.029 A 
ATOM     18  C   UNL     1      13.062   7.110  -1.838  1.00  0.00     0.006 A 
ATOM     19  C   UNL     1      14.455   6.499  -3.713  1.00  0.00     0.006 A 
ATOM     20  C   UNL     1      14.055   7.995  -1.407  1.00  0.00     0.004 A 
ATOM     21  C   UNL     1      15.444   7.377  -3.280  1.00  0.00     0.004 A 
ATOM     22  C   UNL     1      15.257   8.125  -2.117  1.00  0.00    -0.051 A 
ATOM     23  C   UNL     1      16.381   8.963  -1.585  1.00  0.00     0.044 C 
ENDBRANCH  16  17
ENDBRANCH   6  16
TORSDOF 3
ENDMDL
MODEL 4
REMARK VINA RESULT:    -5.861      3.112      7.408
REMARK INTER + INTRA:          -7.371
REMARK INTER:                  -6.993
REMARK INTRA:                  -0.379
REMARK UNBOUND:                -0.482
REMARK SMILES Cc1ccc(CNC(=O)NC(=O)c2ccc(C)cc2)cc1
REMARK SMILES IDX 11 1 12 2 10 3 8 4 9 5 7 6 13 9 19 10 18 11 14 12 16 13
REMARK SMILES IDX 15 14 17 15 6 16 5 17 4 18 20 19 3 20 21 21 2 22 1 23
REMARK H PARENT 10 7 7 8
ROOT
ATOM      1  C   UNL     1       9.993   2.887  -3.306  1.00  0.00     0.259 C 
ATOM      2  O   UNL     1      10.219   1.685  -3.311  1.00  0.00    -0.269 OA
ATOM      3  N   UNL     1      10.901   3.948  -3.230  1.00  0.00    -0.274 N 
ATOM      4  C   UNL     1      12.252   4.138  -3.366  1.00  0.00     0.321 C 
ATOM      5  O   UNL     1      12.672   5.300  -3.357  1.00  0.00    -0.248 OA
ATOM      6  N   UNL     1      13.131   3.132  -3.539  1.00  0.00    -0.334 N 
ATOM      7  H   UNL     1      10.472   4.864  -3.220  1.00  0.00     0.175 HD
ATOM      8  H   UNL     1      14.076   3.444  -3.709  1.00  0.00     0.165 HD
ENDROOT
BRANCH   1   9
ATOM      9  C   UNL     1       8.577   3.293  -3.395  1.00  0.00     0.040 A 
ATOM     10  C   UNL     1       7.881   3.756  -2.277  1.00  0.00     0.014 A 
ATOM     11  C   UNL     1       6.559   4.179  -2.421  1.00  0.00     0.004 A 
ATOM     12  C   UNL     1       7.943   3.196  -4.637  1.00  0.00     0.014 A 
ATOM     13  C   UNL     1       5.929   4.133  -3.674  1.00  0.00    -0.051 A 
ATOM     14  C   UNL     1       6.625   3.625  -4.778  1.00  0.00     0.004 A 
ATOM     15  C   UNL     1       4.537   4.670  -3.830  1.00  0.00     0.044 C 
ENDBRANCH   1   9
BRANCH   6  16
ATOM     16  C   UNL     1      12.844   1.733  -3.681  1.00  0.00     0.153 C 
BRANCH  16  17
ATOM     17  C   UNL     1      13.878   0.883  -4.366  1.00  0.00    -0.029 A 
ATOM     18  C   UNL     1      13.587   0.058  -5.458  1.00  0.00     0.006 A 
ATOM     19  C   UNL     1      15.221   1.099  -4.018  1.00  0.00     0.006 A 
ATOM     20  C   UNL     1      14.626  -0.517  -6.197  1.00  0.00     0.004 A 
ATOM     21  C   UNL     1      16.253   0.531  -4.758  1.00  0.00     0.004 A 
ATOM     22  C   UNL     1      15.965  -0.274  -5.861  1.00  0.00    -0.051 A 
ATOM     23  C   UNL     1      17.081  -0.769  -6.731  1.00  0.00     0.044 C 
ENDBRANCH  16  17
ENDBRANCH   6  16
TORSDOF 3
ENDMDL
MODEL 5
REMARK VINA RESULT:    -5.778      1.012      1.322
REMARK INTER + INTRA:          -7.273
REMARK INTER:                  -6.821
REMARK INTRA:                  -0.452
REMARK UNBOUND:                -0.482
REMARK SMILES Cc1ccc(CNC(=O)NC(=O)c2ccc(C)cc2)cc1
REMARK SMILES IDX 11 1 12 2 10 3 8 4 9 5 7 6 13 9 19 10 18 11 14 12 16 13
REMARK SMILES IDX 15 14 17 15 6 16 5 17 4 18 20 19 3 20 21 21 2 22 1 23
REMARK H PARENT 10 7 7 8
ROOT
ATOM      1  C   UNL     1      12.057   5.179  -2.919  1.00  0.00     0.259 C 
ATOM      2  O   UNL     1      10.904   5.587  -2.946  1.00  0.00    -0.269 OA
ATOM      3  N   UNL     1      12.524   3.865  -3.026  1.00  0.00    -0.274 N 
ATOM      4  C   UNL     1      12.032   2.643  -3.407  1.00  0.00     0.321 C 
ATOM      5  O   UNL     1      12.832   1.705  -3.492  1.00  0.00    -0.248 OA
ATOM      6  N   UNL     1      10.741   2.425  -3.718  1.00  0.00    -0.334 N 
ATOM      7  H   UNL     1      13.528   3.773  -2.953  1.00  0.00     0.175 HD
ATOM      8  H   UNL     1      10.558   1.493  -4.062  1.00  0.00     0.165 HD
ENDROOT
BRANCH   1   9
ATOM      9  C   UNL     1      13.113   6.197  -2.758  1.00  0.00     0.040 A 
ATOM     10  C   UNL     1      13.046   7.163  -1.753  1.00  0.00     0.014 A 
ATOM     11  C   UNL     1      14.095   8.072  -1.606  1.00  0.00     0.004 A 
ATOM     12  C   UNL     1      14.190   6.172  -3.650  1.00  0.00     0.014 A 
ATOM     13  C   UNL     1      15.204   8.023  -2.464  1.00  0.00    -0.051 A 
ATOM     14  C   UNL     1      15.238   7.078  -3.496  1.00  0.00     0.004 A 
ATOM     15  C   UNL     1      16.362   8.951  -2.240  1.00  0.00     0.044 C 
ENDBRANCH   1   9
BRANCH   6  16
ATOM     16  C   UNL     1       9.680   3.390  -3.784  1.00  0.00     0.153 C 
BRANCH  16  17
ATOM     17  C   UNL     1       8.362   3.009  -3.170  1.00  0.00    -0.029 A 
ATOM     18  C   UNL     1       7.588   3.894  -2.413  1.00  0.00     0.006 A 
ATOM     19  C   UNL     1       7.803   1.780  -3.558  1.00  0.00     0.006 A 
ATOM     20  C   UNL     1       6.271   3.561  -2.076  1.00  0.00     0.004 A 
ATOM     21  C   UNL     1       6.492   1.452  -3.226  1.00  0.00     0.004 A 
ATOM     22  C   UNL     1       5.711   2.345  -2.490  1.00  0.00    -0.051 A 
ATOM     23  C   UNL     1       4.261   2.043  -2.256  1.00  0.00     0.044 C 
ENDBRANCH  16  17
ENDBRANCH   6  16
TORSDOF 3
ENDMDL
MODEL 6
REMARK VINA RESULT:    -5.172      3.061      7.618
REMARK INTER + INTRA:          -6.562
REMARK INTER:                  -6.193
REMARK INTRA:                  -0.368
REMARK UNBOUND:                -0.482
REMARK SMILES Cc1ccc(CNC(=O)NC(=O)c2ccc(C)cc2)cc1
REMARK SMILES IDX 11 1 12 2 10 3 8 4 9 5 7 6 13 9 19 10 18 11 14 12 16 13
REMARK SMILES IDX 15 14 17 15 6 16 5 17 4 18 20 19 3 20 21 21 2 22 1 23
REMARK H PARENT 10 7 7 8
ROOT
ATOM      1  C   UNL     1      10.203   2.673  -3.154  1.00  0.00     0.259 C 
ATOM      2  O   UNL     1      10.528   1.497  -3.229  1.00  0.00    -0.269 OA
ATOM      3  N   UNL     1      11.021   3.805  -3.089  1.00  0.00    -0.274 N 
ATOM      4  C   UNL     1      12.339   4.116  -3.305  1.00  0.00     0.321 C 
ATOM      5  O   UNL     1      12.660   5.309  -3.270  1.00  0.00    -0.248 OA
ATOM      6  N   UNL     1      13.285   3.199  -3.580  1.00  0.00    -0.334 N 
ATOM      7  H   UNL     1      10.519   4.679  -3.009  1.00  0.00     0.175 HD
ATOM      8  H   UNL     1      14.187   3.598  -3.797  1.00  0.00     0.165 HD
ENDROOT
BRANCH   1   9
ATOM      9  C   UNL     1       8.755   2.958  -3.131  1.00  0.00     0.040 A 
ATOM     10  C   UNL     1       8.039   3.182  -4.309  1.00  0.00     0.014 A 
ATOM     11  C   UNL     1       6.662   3.395  -4.241  1.00  0.00     0.004 A 
ATOM     12  C   UNL     1       8.114   3.005  -1.889  1.00  0.00     0.014 A 
ATOM     13  C   UNL     1       6.001   3.393  -3.004  1.00  0.00    -0.051 A 
ATOM     14  C   UNL     1       6.738   3.212  -1.827  1.00  0.00     0.004 A 
ATOM     15  C   UNL     1       4.508   3.539  -2.955  1.00  0.00     0.044 C 
ENDBRANCH   1   9
BRANCH   6  16
ATOM     16  C   UNL     1      13.108   1.787  -3.767  1.00  0.00     0.153 C 
BRANCH  16  17
ATOM     17  C   UNL     1      14.124   1.070  -4.612  1.00  0.00    -0.029 A 
ATOM     18  C   UNL     1      15.477   0.980  -4.267  1.00  0.00     0.006 A 
ATOM     19  C   UNL     1      13.642   0.288  -5.674  1.00  0.00     0.006 A 
ATOM     20  C   UNL     1      16.319   0.103  -4.959  1.00  0.00     0.004 A 
ATOM     21  C   UNL     1      14.479  -0.586  -6.359  1.00  0.00     0.004 A 
ATOM     22  C   UNL     1      15.824  -0.694  -6.000  1.00  0.00    -0.051 A 
ATOM     23  C   UNL     1      16.684  -1.736  -6.651  1.00  0.00     0.044 C 
ENDBRANCH  16  17
ENDBRANCH   6  16
TORSDOF 3
ENDMDL
MODEL 7
REMARK VINA RESULT:    -4.594      2.809      5.008
REMARK INTER + INTRA:          -5.882
REMARK INTER:                  -5.418
REMARK INTRA:                  -0.465
REMARK UNBOUND:                -0.482
REMARK SMILES Cc1ccc(CNC(=O)NC(=O)c2ccc(C)cc2)cc1
REMARK SMILES IDX 11 1 12 2 10 3 8 4 9 5 7 6 13 9 19 10 18 11 14 12 16 13
REMARK SMILES IDX 15 14 17 15 6 16 5 17 4 18 20 19 3 20 21 21 2 22 1 23
REMARK H PARENT 10 7 7 8
ROOT
ATOM      1  C   UNL     1      12.665   4.672  -3.249  1.00  0.00     0.259 C 
ATOM      2  O   UNL     1      12.829   4.355  -4.418  1.00  0.00    -0.269 OA
ATOM      3  N   UNL     1      11.948   4.002  -2.252  1.00  0.00    -0.274 N 
ATOM      4  C   UNL     1      11.398   2.760  -2.061  1.00  0.00     0.321 C 
ATOM      5  O   UNL     1      10.941   2.502  -0.942  1.00  0.00    -0.248 OA
ATOM      6  N   UNL     1      11.359   1.809  -3.012  1.00  0.00    -0.334 N 
ATOM      7  H   UNL     1      11.937   4.473  -1.358  1.00  0.00     0.175 HD
ATOM      8  H   UNL     1      11.000   0.923  -2.686  1.00  0.00     0.165 HD
ENDROOT
BRANCH   1   9
ATOM      9  C   UNL     1      13.308   5.924  -2.807  1.00  0.00     0.040 A 
ATOM     10  C   UNL     1      12.818   6.650  -1.720  1.00  0.00     0.014 A 
ATOM     11  C   UNL     1      13.491   7.801  -1.307  1.00  0.00     0.004 A 
ATOM     12  C   UNL     1      14.426   6.374  -3.516  1.00  0.00     0.014 A 
ATOM     13  C   UNL     1      14.644   8.232  -1.980  1.00  0.00    -0.051 A 
ATOM     14  C   UNL     1      15.099   7.520  -3.097  1.00  0.00     0.004 A 
ATOM     15  C   UNL     1      15.404   9.422  -1.472  1.00  0.00     0.044 C 
ENDBRANCH   1   9
BRANCH   6  16
ATOM     16  C   UNL     1      11.921   1.866  -4.332  1.00  0.00     0.153 C 
BRANCH  16  17
ATOM     17  C   UNL     1      13.155   1.047  -4.592  1.00  0.00    -0.029 A 
ATOM     18  C   UNL     1      13.244   0.109  -5.627  1.00  0.00     0.006 A 
ATOM     19  C   UNL     1      14.321   1.400  -3.894  1.00  0.00     0.006 A 
ATOM     20  C   UNL     1      14.484  -0.441  -5.968  1.00  0.00     0.004 A 
ATOM     21  C   UNL     1      15.555   0.855  -4.237  1.00  0.00     0.004 A 
ATOM     22  C   UNL     1      15.649  -0.063  -5.285  1.00  0.00    -0.051 A 
ATOM     23  C   UNL     1      16.997  -0.538  -5.736  1.00  0.00     0.044 C 
ENDBRANCH  16  17
ENDBRANCH   6  16
TORSDOF 3
ENDMDL
MODEL 8
REMARK VINA RESULT:    -4.456      2.165      3.955
REMARK INTER + INTRA:          -5.720
REMARK INTER:                  -5.379
REMARK INTRA:                  -0.341
REMARK UNBOUND:                -0.482
REMARK SMILES Cc1ccc(CNC(=O)NC(=O)c2ccc(C)cc2)cc1
REMARK SMILES IDX 11 1 12 2 10 3 8 4 9 5 7 6 13 9 19 10 18 11 14 12 16 13
REMARK SMILES IDX 15 14 17 15 6 16 5 17 4 18 20 19 3 20 21 21 2 22 1 23
REMARK H PARENT 10 7 7 8
ROOT
ATOM      1  C   UNL     1      14.942   7.447  -2.525  1.00  0.00     0.259 C 
ATOM      2  O   UNL     1      13.872   7.272  -1.961  1.00  0.00    -0.269 OA
ATOM      3  N   UNL     1      15.625   6.590  -3.393  1.00  0.00    -0.274 N 
ATOM      4  C   UNL     1      15.358   5.455  -4.114  1.00  0.00     0.321 C 
ATOM      5  O   UNL     1      16.224   5.058  -4.901  1.00  0.00    -0.248 OA
ATOM      6  N   UNL     1      14.198   4.776  -4.031  1.00  0.00    -0.334 N 
ATOM      7  H   UNL     1      16.513   6.948  -3.720  1.00  0.00     0.175 HD
ATOM      8  H   UNL     1      14.126   4.013  -4.689  1.00  0.00     0.165 HD
ENDROOT
BRANCH   1   9
ATOM      9  C   UNL     1      15.619   8.734  -2.272  1.00  0.00     0.040 A 
ATOM     10  C   UNL     1      16.657   9.184  -3.090  1.00  0.00     0.014 A 
ATOM     11  C   UNL     1      17.230  10.432  -2.843  1.00  0.00     0.004 A 
ATOM     12  C   UNL     1      15.196   9.495  -1.177  1.00  0.00     0.014 A 
ATOM     13  C   UNL     1      16.778  11.226  -1.778  1.00  0.00    -0.051 A 
ATOM     14  C   UNL     1      15.768  10.743  -0.938  1.00  0.00     0.004 A 
ATOM     15  C   UNL     1      17.346  12.600  -1.577  1.00  0.00     0.044 C 
ENDBRANCH   1   9
BRANCH   6  16
ATOM     16  C   UNL     1      13.034   5.122  -3.266  1.00  0.00     0.153 C 
BRANCH  16  17
ATOM     17  C   UNL     1      11.884   4.154  -3.284  1.00  0.00    -0.029 A 
ATOM     18  C   UNL     1      11.565   3.327  -2.202  1.00  0.00     0.006 A 
ATOM     19  C   UNL     1      10.981   4.247  -4.355  1.00  0.00     0.006 A 
ATOM     20  C   UNL     1      10.351   2.630  -2.187  1.00  0.00     0.004 A 
ATOM     21  C   UNL     1       9.773   3.558  -4.337  1.00  0.00     0.004 A 
ATOM     22  C   UNL     1       9.443   2.751  -3.248  1.00  0.00    -0.051 A 
ATOM     23  C   UNL     1       8.083   2.122  -3.174  1.00  0.00     0.044 C 
ENDBRANCH  16  17
ENDBRANCH   6  16
TORSDOF 3
ENDMDL
MODEL 9
REMARK VINA RESULT:    -4.375      4.498      8.032
REMARK INTER + INTRA:          -5.625
REMARK INTER:                  -5.129
REMARK INTRA:                  -0.497
REMARK UNBOUND:                -0.482
REMARK SMILES Cc1ccc(CNC(=O)NC(=O)c2ccc(C)cc2)cc1
REMARK SMILES IDX 11 1 12 2 10 3 8 4 9 5 7 6 13 9 19 10 18 11 14 12 16 13
REMARK SMILES IDX 15 14 17 15 6 16 5 17 4 18 20 19 3 20 21 21 2 22 1 23
REMARK H PARENT 10 7 7 8
ROOT
ATOM      1  C   UNL     1      13.074   1.592  -3.738  1.00  0.00     0.259 C 
ATOM      2  O   UNL     1      13.032   0.409  -4.043  1.00  0.00    -0.269 OA
ATOM      3  N   UNL     1      14.193   2.419  -3.593  1.00  0.00    -0.274 N 
ATOM      4  C   UNL     1      15.526   2.387  -3.915  1.00  0.00     0.321 C 
ATOM      5  O   UNL     1      16.186   3.414  -3.728  1.00  0.00    -0.248 OA
ATOM      6  N   UNL     1      16.136   1.313  -4.450  1.00  0.00    -0.334 N 
ATOM      7  H   UNL     1      13.978   3.366  -3.311  1.00  0.00     0.175 HD
ATOM      8  H   UNL     1      17.098   1.479  -4.709  1.00  0.00     0.165 HD
ENDROOT
BRANCH   1   9
ATOM      9  C   UNL     1      11.781   2.259  -3.492  1.00  0.00     0.040 A 
ATOM     10  C   UNL     1      11.152   3.016  -4.482  1.00  0.00     0.014 A 
ATOM     11  C   UNL     1       9.905   3.584  -4.220  1.00  0.00     0.004 A 
ATOM     12  C   UNL     1      11.199   2.116  -2.229  1.00  0.00     0.014 A 
ATOM     13  C   UNL     1       9.288   3.403  -2.973  1.00  0.00    -0.051 A 
ATOM     14  C   UNL     1       9.950   2.679  -1.974  1.00  0.00     0.004 A 
ATOM     15  C   UNL     1       7.910   3.948  -2.736  1.00  0.00     0.044 C 
ENDBRANCH   1   9
BRANCH   6  16
ATOM     16  C   UNL     1      15.537   0.068  -4.840  1.00  0.00     0.153 C 
BRANCH  16  17
ATOM     17  C   UNL     1      15.853  -0.449  -6.216  1.00  0.00    -0.029 A 
ATOM     18  C   UNL     1      15.070  -0.162  -7.338  1.00  0.00     0.006 A 
ATOM     19  C   UNL     1      17.101  -1.066  -6.399  1.00  0.00     0.006 A 
ATOM     20  C   UNL     1      15.543  -0.467  -8.619  1.00  0.00     0.004 A 
ATOM     21  C   UNL     1      17.573  -1.364  -7.674  1.00  0.00     0.004 A 
ATOM     22  C   UNL     1      16.802  -1.057  -8.796  1.00  0.00    -0.051 A 
ATOM     23  C   UNL     1      17.376  -1.255 -10.167  1.00  0.00     0.044 C 
ENDBRANCH  16  17
ENDBRANCH   6  16
TORSDOF 3
ENDMDL
