MODEL 1
REMARK VINA RESULT:    -4.007      0.000      0.000
REMARK INTER + INTRA:          -5.558
REMARK INTER:                  -5.296
REMARK INTRA:                  -0.262
REMARK UNBOUND:                -0.262
REMARK SMILES [H]/N=C\C[C@H]1C[C@@H]1O[C@H]1CO[C@H]2C[C@@H](C3CC3)CCN2C1
REMARK SMILES IDX 7 1 6 2 5 3 8 4 9 5 14 6 13 7 18 8 12 9 19 10 20 11 11 12
REMARK SMILES IDX 21 13 10 14 15 15 16 16 17 17 4 18 3 19 2 20 1 21
REMARK H PARENT
ROOT
ATOM      1  C   UNL     1      15.116   7.977  -0.425  1.00  0.00     0.122 C 
ATOM      2  C   UNL     1      15.112   8.204   1.060  1.00  0.00     0.039 C 
ATOM      3  C   UNL     1      16.191   7.368   0.433  1.00  0.00     0.026 C 
ENDROOT
BRANCH   1   4
ATOM      4  O   UNL     1      14.080   7.089  -0.886  1.00  0.00    -0.371 OA
BRANCH   4   5
ATOM      5  C   UNL     1      13.516   7.409  -2.169  1.00  0.00     0.158 C 
ATOM      6  C   UNL     1      12.754   2.555  -3.920  1.00  0.00    -0.003 C 
ATOM      7  C   UNL     1      13.970   3.458  -3.680  1.00  0.00     0.052 C 
ATOM      8  C   UNL     1      11.668   2.880  -2.884  1.00  0.00     0.019 C 
ATOM      9  C   UNL     1      13.578   4.941  -3.629  1.00  0.00     0.189 C 
ATOM     10  C   UNL     1      11.349   4.375  -2.860  1.00  0.00     0.087 C 
ATOM     11  N   UNL     1      12.555   5.164  -2.607  1.00  0.00    -0.276 NA
ATOM     12  O   UNL     1      14.776   5.671  -3.357  1.00  0.00    -0.360 OA
ATOM     13  C   UNL     1      12.251   6.595  -2.495  1.00  0.00     0.121 C 
ATOM     14  C   UNL     1      14.559   7.081  -3.242  1.00  0.00     0.195 C 
BRANCH   6  15
ATOM     15  C   UNL     1      13.128   1.092  -3.855  1.00  0.00    -0.008 C 
ATOM     16  C   UNL     1      13.087   0.237  -5.100  1.00  0.00     0.004 C 
ATOM     17  C   UNL     1      14.407   0.592  -4.481  1.00  0.00     0.004 C 
ENDBRANCH   6  15
ENDBRANCH   4   5
ENDBRANCH   1   4
BRANCH   3  18
ATOM     18  C   UNL     1      17.591   7.905   0.386  1.00  0.00     0.053 C 
BRANCH  18  19
ATOM     19  C   UNL     1      18.595   7.080  -0.376  1.00  0.00     0.074 C 
BRANCH  19  20
ATOM     20  N   UNL     1      18.535   5.805  -0.572  1.00  0.00    -0.313 NA
ATOM     21  H   UNL     1      18.175   5.582  -1.511  1.00  0.00     0.186 HD
ENDBRANCH  19  20
ENDBRANCH  18  19
ENDBRANCH   3  18
TORSDOF 6
ENDMDL
MODEL 2
REMARK VINA RESULT:    -3.986      3.572      7.468
REMARK INTER + INTRA:          -5.530
REMARK INTER:                  -5.258
REMARK INTRA:                  -0.272
REMARK UNBOUND:                -0.262
REMARK SMILES [H]/N=C\C[C@H]1C[C@@H]1O[C@H]1CO[C@H]2C[C@@H](C3CC3)CCN2C1
REMARK SMILES IDX 7 1 6 2 5 3 8 4 9 5 14 6 13 7 18 8 12 9 19 10 20 11 11 12
REMARK SMILES IDX 21 13 10 14 15 15 16 16 17 17 4 18 3 19 2 20 1 21
REMARK H PARENT
ROOT
ATOM      1  C   UNL     1      15.379  -0.237  -7.434  1.00  0.00     0.122 C 
ATOM      2  C   UNL     1      15.051  -0.417  -8.889  1.00  0.00     0.039 C 
ATOM      3  C   UNL     1      16.031   0.640  -8.468  1.00  0.00     0.026 C 
ENDROOT
BRANCH   1   4
ATOM      4  O   UNL     1      14.318   0.356  -6.661  1.00  0.00    -0.371 OA
BRANCH   4   5
ATOM      5  C   UNL     1      14.229  -0.077  -5.294  1.00  0.00     0.158 C 
ATOM      6  C   UNL     1      12.536   4.376  -3.171  1.00  0.00    -0.003 C 
ATOM      7  C   UNL     1      13.860   3.874  -3.760  1.00  0.00     0.052 C 
ATOM      8  C   UNL     1      11.367   3.706  -3.906  1.00  0.00     0.019 C 
ATOM      9  C   UNL     1      13.929   2.341  -3.780  1.00  0.00     0.189 C 
ATOM     10  C   UNL     1      11.514   2.185  -3.920  1.00  0.00     0.087 C 
ATOM     11  N   UNL     1      12.791   1.788  -4.513  1.00  0.00    -0.276 NA
ATOM     12  O   UNL     1      15.176   1.997  -4.387  1.00  0.00    -0.360 OA
ATOM     13  C   UNL     1      12.910   0.329  -4.614  1.00  0.00     0.121 C 
ATOM     14  C   UNL     1      15.368   0.584  -4.511  1.00  0.00     0.195 C 
BRANCH   6  15
ATOM     15  C   UNL     1      12.425   5.881  -3.258  1.00  0.00    -0.008 C 
ATOM     16  C   UNL     1      12.645   6.736  -2.032  1.00  0.00     0.004 C 
ATOM     17  C   UNL     1      13.651   6.755  -3.146  1.00  0.00     0.004 C 
ENDBRANCH   6  15
ENDBRANCH   4   5
ENDBRANCH   1   4
BRANCH   3  18
ATOM     18  C   UNL     1      17.481   0.461  -8.804  1.00  0.00     0.053 C 
BRANCH  18  19
ATOM     19  C   UNL     1      18.390   1.615  -8.469  1.00  0.00     0.074 C 
BRANCH  19  20
ATOM     20  N   UNL     1      18.014   2.823  -8.207  1.00  0.00    -0.313 NA
ATOM     21  H   UNL     1      17.062   2.849  -7.816  1.00  0.00     0.186 HD
ENDBRANCH  19  20
ENDBRANCH  18  19
ENDBRANCH   3  18
TORSDOF 6
ENDMDL
MODEL 3
REMARK VINA RESULT:    -3.872      2.143      3.014
REMARK INTER + INTRA:          -5.379
REMARK INTER:                  -5.017
REMARK INTRA:                  -0.363
REMARK UNBOUND:                -0.262
REMARK SMILES [H]/N=C\C[C@H]1C[C@@H]1O[C@H]1CO[C@H]2C[C@@H](C3CC3)CCN2C1
REMARK SMILES IDX 7 1 6 2 5 3 8 4 9 5 14 6 13 7 18 8 12 9 19 10 20 11 11 12
REMARK SMILES IDX 21 13 10 14 15 15 16 16 17 17 4 18 3 19 2 20 1 21
REMARK H PARENT
ROOT
ATOM      1  C   UNL     1      16.451   8.154  -0.241  1.00  0.00     0.122 C 
ATOM      2  C   UNL     1      16.266   7.407   1.049  1.00  0.00     0.039 C 
ATOM      3  C   UNL     1      17.413   8.364   0.896  1.00  0.00     0.026 C 
ENDROOT
BRANCH   1   4
ATOM      4  O   UNL     1      16.912   7.335  -1.333  1.00  0.00    -0.371 OA
BRANCH   4   5
ATOM      5  C   UNL     1      16.583   7.813  -2.648  1.00  0.00     0.158 C 
ATOM      6  C   UNL     1      12.244   5.026  -3.431  1.00  0.00    -0.003 C 
ATOM      7  C   UNL     1      13.747   4.727  -3.379  1.00  0.00     0.052 C 
ATOM      8  C   UNL     1      11.922   6.176  -2.466  1.00  0.00     0.019 C 
ATOM      9  C   UNL     1      14.588   5.990  -3.610  1.00  0.00     0.189 C 
ATOM     10  C   UNL     1      12.816   7.389  -2.726  1.00  0.00     0.087 C 
ATOM     11  N   UNL     1      14.230   7.025  -2.640  1.00  0.00    -0.276 NA
ATOM     12  O   UNL     1      15.956   5.596  -3.493  1.00  0.00    -0.360 OA
ATOM     13  C   UNL     1      15.100   8.195  -2.800  1.00  0.00     0.121 C 
ATOM     14  C   UNL     1      16.868   6.688  -3.648  1.00  0.00     0.195 C 
BRANCH   6  15
ATOM     15  C   UNL     1      11.422   3.803  -3.091  1.00  0.00    -0.008 C 
ATOM     16  C   UNL     1      10.400   3.274  -4.068  1.00  0.00     0.004 C 
ATOM     17  C   UNL     1      11.654   2.493  -3.804  1.00  0.00     0.004 C 
ENDBRANCH   6  15
ENDBRANCH   4   5
ENDBRANCH   1   4
BRANCH   3  18
ATOM     18  C   UNL     1      17.398   9.647   1.671  1.00  0.00     0.053 C 
BRANCH  18  19
ATOM     19  C   UNL     1      18.412   9.767   2.779  1.00  0.00     0.074 C 
BRANCH  19  20
ATOM     20  N   UNL     1      18.148   9.913   4.035  1.00  0.00    -0.313 NA
ATOM     21  H   UNL     1      18.979  10.207   4.566  1.00  0.00     0.186 HD
ENDBRANCH  19  20
ENDBRANCH  18  19
ENDBRANCH   3  18
TORSDOF 6
ENDMDL
MODEL 4
REMARK VINA RESULT:    -3.862      1.874      2.077
REMARK INTER + INTRA:          -5.365
REMARK INTER:                  -5.591
REMARK INTRA:                   0.225
REMARK UNBOUND:                -0.262
REMARK SMILES [H]/N=C\C[C@H]1C[C@@H]1O[C@H]1CO[C@H]2C[C@@H](C3CC3)CCN2C1
REMARK SMILES IDX 7 1 6 2 5 3 8 4 9 5 14 6 13 7 18 8 12 9 19 10 20 11 11 12
REMARK SMILES IDX 21 13 10 14 15 15 16 16 17 17 4 18 3 19 2 20 1 21
REMARK H PARENT
ROOT
ATOM      1  C   UNL     1      14.626   8.001  -0.024  1.00  0.00     0.122 C 
ATOM      2  C   UNL     1      15.762   7.741   0.925  1.00  0.00     0.039 C 
ATOM      3  C   UNL     1      15.939   8.714  -0.205  1.00  0.00     0.026 C 
ENDROOT
BRANCH   1   4
ATOM      4  O   UNL     1      14.354   6.912  -0.926  1.00  0.00    -0.371 OA
BRANCH   4   5
ATOM      5  C   UNL     1      13.735   7.278  -2.170  1.00  0.00     0.158 C 
ATOM      6  C   UNL     1      12.683   2.492  -3.957  1.00  0.00    -0.003 C 
ATOM      7  C   UNL     1      13.946   3.341  -3.770  1.00  0.00     0.052 C 
ATOM      8  C   UNL     1      11.670   2.840  -2.857  1.00  0.00     0.019 C 
ATOM      9  C   UNL     1      13.617   4.837  -3.673  1.00  0.00     0.189 C 
ATOM     10  C   UNL     1      11.413   4.345  -2.791  1.00  0.00     0.087 C 
ATOM     11  N   UNL     1      12.662   5.081  -2.592  1.00  0.00    -0.276 NA
ATOM     12  O   UNL     1      14.857   5.514  -3.455  1.00  0.00    -0.360 OA
ATOM     13  C   UNL     1      12.422   6.520  -2.439  1.00  0.00     0.121 C 
ATOM     14  C   UNL     1      14.703   6.929  -3.305  1.00  0.00     0.195 C 
BRANCH   6  15
ATOM     15  C   UNL     1      13.000   1.014  -3.938  1.00  0.00    -0.008 C 
ATOM     16  C   UNL     1      13.021   0.220  -5.223  1.00  0.00     0.004 C 
ATOM     17  C   UNL     1      14.304   0.495  -4.495  1.00  0.00     0.004 C 
ENDBRANCH   6  15
ENDBRANCH   4   5
ENDBRANCH   1   4
BRANCH   3  18
ATOM     18  C   UNL     1      16.054  10.176   0.106  1.00  0.00     0.053 C 
BRANCH  18  19
ATOM     19  C   UNL     1      15.914  11.118  -1.061  1.00  0.00     0.074 C 
BRANCH  19  20
ATOM     20  N   UNL     1      14.924  11.921  -1.272  1.00  0.00    -0.313 NA
ATOM     21  H   UNL     1      14.220  11.862  -0.522  1.00  0.00     0.186 HD
ENDBRANCH  19  20
ENDBRANCH  18  19
ENDBRANCH   3  18
TORSDOF 6
ENDMDL
MODEL 5
REMARK VINA RESULT:    -3.858      4.822      8.459
REMARK INTER + INTRA:          -5.361
REMARK INTER:                  -4.998
REMARK INTRA:                  -0.363
REMARK UNBOUND:                -0.262
REMARK SMILES [H]/N=C\C[C@H]1C[C@@H]1O[C@H]1CO[C@H]2C[C@@H](C3CC3)CCN2C1
REMARK SMILES IDX 7 1 6 2 5 3 8 4 9 5 14 6 13 7 18 8 12 9 19 10 20 11 11 12
REMARK SMILES IDX 21 13 10 14 15 15 16 16 17 17 4 18 3 19 2 20 1 21
REMARK H PARENT
ROOT
ATOM      1  C   UNL     1      16.597  -0.020  -7.933  1.00  0.00     0.122 C 
ATOM      2  C   UNL     1      15.892   0.589  -9.112  1.00  0.00     0.039 C 
ATOM      3  C   UNL     1      17.262  -0.001  -9.282  1.00  0.00     0.026 C 
ENDROOT
BRANCH   1   4
ATOM      4  O   UNL     1      17.067   0.941  -6.969  1.00  0.00    -0.371 OA
BRANCH   4   5
ATOM      5  C   UNL     1      17.259   0.439  -5.636  1.00  0.00     0.158 C 
ATOM      6  C   UNL     1      12.662   1.834  -3.605  1.00  0.00    -0.003 C 
ATOM      7  C   UNL     1      13.937   2.565  -4.042  1.00  0.00     0.052 C 
ATOM      8  C   UNL     1      12.452   0.603  -4.498  1.00  0.00     0.019 C 
ATOM      9  C   UNL     1      15.145   1.621  -4.099  1.00  0.00     0.189 C 
ATOM     10  C   UNL     1      13.701  -0.277  -4.539  1.00  0.00     0.087 C 
ATOM     11  N   UNL     1      14.866   0.488  -4.983  1.00  0.00    -0.276 NA
ATOM     12  O   UNL     1      16.252   2.400  -4.558  1.00  0.00    -0.360 OA
ATOM     13  C   UNL     1      16.055  -0.362  -5.111  1.00  0.00     0.121 C 
ATOM     14  C   UNL     1      17.454   1.636  -4.700  1.00  0.00     0.195 C 
BRANCH   6  15
ATOM     15  C   UNL     1      11.455   2.742  -3.660  1.00  0.00    -0.008 C 
ATOM     16  C   UNL     1      10.636   3.000  -2.417  1.00  0.00     0.004 C 
ATOM     17  C   UNL     1      11.477   4.099  -2.999  1.00  0.00     0.004 C 
ENDBRANCH   6  15
ENDBRANCH   4   5
ENDBRANCH   1   4
BRANCH   3  18
ATOM     18  C   UNL     1      17.415  -1.269 -10.068  1.00  0.00     0.053 C 
BRANCH  18  19
ATOM     19  C   UNL     1      18.097  -1.147 -11.405  1.00  0.00     0.074 C 
BRANCH  19  20
ATOM     20  N   UNL     1      17.534  -1.293 -12.558  1.00  0.00    -0.313 NA
ATOM     21  H   UNL     1      16.823  -2.037 -12.542  1.00  0.00     0.186 HD
ENDBRANCH  19  20
ENDBRANCH  18  19
ENDBRANCH   3  18
TORSDOF 6
ENDMDL
MODEL 6
REMARK VINA RESULT:    -3.790      3.868      5.413
REMARK INTER + INTRA:          -5.271
REMARK INTER:                  -5.004
REMARK INTRA:                  -0.267
REMARK UNBOUND:                -0.262
REMARK SMILES [H]/N=C\C[C@H]1C[C@@H]1O[C@H]1CO[C@H]2C[C@@H](C3CC3)CCN2C1
REMARK SMILES IDX 7 1 6 2 5 3 8 4 9 5 14 6 13 7 18 8 12 9 19 10 20 11 11 12
REMARK SMILES IDX 21 13 10 14 15 15 16 16 17 17 4 18 3 19 2 20 1 21
REMARK H PARENT
ROOT
ATOM      1  C   UNL     1      12.616   5.603  -2.495  1.00  0.00     0.122 C 
ATOM      2  C   UNL     1      13.653   6.309  -3.323  1.00  0.00     0.039 C 
ATOM      3  C   UNL     1      12.906   7.060  -2.258  1.00  0.00     0.026 C 
ENDROOT
BRANCH   1   4
ATOM      4  O   UNL     1      11.404   5.294  -3.209  1.00  0.00    -0.371 OA
BRANCH   4   5
ATOM      5  C   UNL     1      11.490   4.193  -4.128  1.00  0.00     0.158 C 
ATOM      6  C   UNL     1       7.107   1.707  -2.782  1.00  0.00    -0.003 C 
ATOM      7  C   UNL     1       8.486   1.924  -2.146  1.00  0.00     0.052 C 
ATOM      8  C   UNL     1       6.737   2.936  -3.624  1.00  0.00     0.019 C 
ATOM      9  C   UNL     1       9.542   2.307  -3.192  1.00  0.00     0.189 C 
ATOM     10  C   UNL     1       7.842   3.284  -4.620  1.00  0.00     0.087 C 
ATOM     11  N   UNL     1       9.117   3.495  -3.935  1.00  0.00    -0.276 NA
ATOM     12  O   UNL     1      10.761   2.527  -2.481  1.00  0.00    -0.360 OA
ATOM     13  C   UNL     1      10.169   3.915  -4.867  1.00  0.00     0.121 C 
ATOM     14  C   UNL     1      11.839   2.933  -3.329  1.00  0.00     0.195 C 
BRANCH   6  15
ATOM     15  C   UNL     1       6.049   1.442  -1.735  1.00  0.00    -0.008 C 
ATOM     16  C   UNL     1       5.139   0.242  -1.855  1.00  0.00     0.004 C 
ATOM     17  C   UNL     1       6.182   0.284  -0.776  1.00  0.00     0.004 C 
ENDBRANCH   6  15
ENDBRANCH   4   5
ENDBRANCH   1   4
BRANCH   3  18
ATOM     18  C   UNL     1      13.640   7.494  -1.025  1.00  0.00     0.053 C 
BRANCH  18  19
ATOM     19  C   UNL     1      14.823   8.402  -1.238  1.00  0.00     0.074 C 
BRANCH  19  20
ATOM     20  N   UNL     1      14.776   9.619  -1.669  1.00  0.00    -0.313 NA
ATOM     21  H   UNL     1      14.562  10.282  -0.911  1.00  0.00     0.186 HD
ENDBRANCH  19  20
ENDBRANCH  18  19
ENDBRANCH   3  18
TORSDOF 6
ENDMDL
MODEL 7
REMARK VINA RESULT:    -3.745      3.979      8.085
REMARK INTER + INTRA:          -5.211
REMARK INTER:                  -5.468
REMARK INTRA:                   0.257
REMARK UNBOUND:                -0.262
REMARK SMILES [H]/N=C\C[C@H]1C[C@@H]1O[C@H]1CO[C@H]2C[C@@H](C3CC3)CCN2C1
REMARK SMILES IDX 7 1 6 2 5 3 8 4 9 5 14 6 13 7 18 8 12 9 19 10 20 11 11 12
REMARK SMILES IDX 21 13 10 14 15 15 16 16 17 17 4 18 3 19 2 20 1 21
REMARK H PARENT
ROOT
ATOM      1  C   UNL     1      15.204  -0.466  -7.672  1.00  0.00     0.122 C 
ATOM      2  C   UNL     1      15.993  -0.003  -8.864  1.00  0.00     0.039 C 
ATOM      3  C   UNL     1      16.605  -0.969  -7.890  1.00  0.00     0.026 C 
ENDROOT
BRANCH   1   4
ATOM      4  O   UNL     1      15.031   0.540  -6.655  1.00  0.00    -0.371 OA
BRANCH   4   5
ATOM      5  C   UNL     1      14.851   0.046  -5.318  1.00  0.00     0.158 C 
ATOM      6  C   UNL     1      12.432   4.189  -3.272  1.00  0.00    -0.003 C 
ATOM      7  C   UNL     1      13.860   3.865  -3.726  1.00  0.00     0.052 C 
ATOM      8  C   UNL     1      11.434   3.420  -4.149  1.00  0.00     0.019 C 
ATOM      9  C   UNL     1      14.111   2.351  -3.781  1.00  0.00     0.189 C 
ATOM     10  C   UNL     1      11.759   1.928  -4.189  1.00  0.00     0.087 C 
ATOM     11  N   UNL     1      13.129   1.702  -4.649  1.00  0.00    -0.276 NA
ATOM     12  O   UNL     1      15.447   2.176  -4.257  1.00  0.00    -0.360 OA
ATOM     13  C   UNL     1      13.428   0.271  -4.775  1.00  0.00     0.121 C 
ATOM     14  C   UNL     1      15.815   0.800  -4.397  1.00  0.00     0.195 C 
BRANCH   6  15
ATOM     15  C   UNL     1      12.155   5.674  -3.329  1.00  0.00    -0.008 C 
ATOM     16  C   UNL     1      12.395   6.543  -2.117  1.00  0.00     0.004 C 
ATOM     17  C   UNL     1      13.287   6.673  -3.318  1.00  0.00     0.004 C 
ENDBRANCH   6  15
ENDBRANCH   4   5
ENDBRANCH   1   4
BRANCH   3  18
ATOM     18  C   UNL     1      16.841  -2.385  -8.322  1.00  0.00     0.053 C 
BRANCH  18  19
ATOM     19  C   UNL     1      17.251  -3.351  -7.242  1.00  0.00     0.074 C 
BRANCH  19  20
ATOM     20  N   UNL     1      16.528  -4.312  -6.771  1.00  0.00    -0.313 NA
ATOM     21  H   UNL     1      16.447  -4.259  -5.746  1.00  0.00     0.186 HD
ENDBRANCH  19  20
ENDBRANCH  18  19
ENDBRANCH   3  18
TORSDOF 6
ENDMDL
MODEL 8
REMARK VINA RESULT:    -3.737      5.010      7.436
REMARK INTER + INTRA:          -5.201
REMARK INTER:                  -4.912
REMARK INTRA:                  -0.289
REMARK UNBOUND:                -0.262
REMARK SMILES [H]/N=C\C[C@H]1C[C@@H]1O[C@H]1CO[C@H]2C[C@@H](C3CC3)CCN2C1
REMARK SMILES IDX 7 1 6 2 5 3 8 4 9 5 14 6 13 7 18 8 12 9 19 10 20 11 11 12
REMARK SMILES IDX 21 13 10 14 15 15 16 16 17 17 4 18 3 19 2 20 1 21
REMARK H PARENT
ROOT
ATOM      1  C   UNL     1      12.955   1.387  -4.567  1.00  0.00     0.122 C 
ATOM      2  C   UNL     1      14.318   0.979  -4.084  1.00  0.00     0.039 C 
ATOM      3  C   UNL     1      13.538   0.065  -4.985  1.00  0.00     0.026 C 
ENDROOT
BRANCH   1   4
ATOM      4  O   UNL     1      11.936   1.350  -3.550  1.00  0.00    -0.371 OA
BRANCH   4   5
ATOM      5  C   UNL     1      11.940   2.451  -2.627  1.00  0.00     0.158 C 
ATOM      6  C   UNL     1       6.835   3.517  -2.656  1.00  0.00    -0.003 C 
ATOM      7  C   UNL     1       7.999   3.695  -3.638  1.00  0.00     0.052 C 
ATOM      8  C   UNL     1       7.069   2.255  -1.814  1.00  0.00     0.019 C 
ATOM      9  C   UNL     1       9.357   3.662  -2.923  1.00  0.00     0.189 C 
ATOM     10  C   UNL     1       8.450   2.269  -1.159  1.00  0.00     0.087 C 
ATOM     11  N   UNL     1       9.504   2.422  -2.161  1.00  0.00    -0.276 NA
ATOM     12  O   UNL     1      10.356   3.790  -3.937  1.00  0.00    -0.360 OA
ATOM     13  C   UNL     1      10.839   2.351  -1.557  1.00  0.00     0.121 C 
ATOM     14  C   UNL     1      11.689   3.738  -3.420  1.00  0.00     0.195 C 
BRANCH   6  15
ATOM     15  C   UNL     1       5.508   3.435  -3.378  1.00  0.00    -0.008 C 
ATOM     16  C   UNL     1       4.387   4.384  -3.025  1.00  0.00     0.004 C 
ATOM     17  C   UNL     1       5.087   4.513  -4.347  1.00  0.00     0.004 C 
ENDBRANCH   6  15
ENDBRANCH   4   5
ENDBRANCH   1   4
BRANCH   3  18
ATOM     18  C   UNL     1      14.009  -0.141  -6.394  1.00  0.00     0.053 C 
BRANCH  18  19
ATOM     19  C   UNL     1      15.411  -0.666  -6.558  1.00  0.00     0.074 C 
BRANCH  19  20
ATOM     20  N   UNL     1      15.906  -1.701  -5.964  1.00  0.00    -0.313 NA
ATOM     21  H   UNL     1      15.803  -1.638  -4.941  1.00  0.00     0.186 HD
ENDBRANCH  19  20
ENDBRANCH  18  19
ENDBRANCH   3  18
TORSDOF 6
ENDMDL
MODEL 9
REMARK VINA RESULT:    -3.600      3.208      5.352
REMARK INTER + INTRA:          -5.020
REMARK INTER:                  -4.888
REMARK INTRA:                  -0.132
REMARK UNBOUND:                -0.262
REMARK SMILES [H]/N=C\C[C@H]1C[C@@H]1O[C@H]1CO[C@H]2C[C@@H](C3CC3)CCN2C1
REMARK SMILES IDX 7 1 6 2 5 3 8 4 9 5 14 6 13 7 18 8 12 9 19 10 20 11 11 12
REMARK SMILES IDX 21 13 10 14 15 15 16 16 17 17 4 18 3 19 2 20 1 21
REMARK H PARENT
ROOT
ATOM      1  C   UNL     1      18.271   4.536  -5.086  1.00  0.00     0.122 C 
ATOM      2  C   UNL     1      18.595   5.640  -6.052  1.00  0.00     0.039 C 
ATOM      3  C   UNL     1      17.249   5.598  -5.386  1.00  0.00     0.026 C 
ENDROOT
BRANCH   1   4
ATOM      4  O   UNL     1      18.068   3.253  -5.707  1.00  0.00    -0.371 OA
BRANCH   4   5
ATOM      5  C   UNL     1      18.235   2.114  -4.846  1.00  0.00     0.158 C 
ATOM      6  C   UNL     1      13.204   1.003  -4.036  1.00  0.00    -0.003 C 
ATOM      7  C   UNL     1      14.172   2.104  -3.586  1.00  0.00     0.052 C 
ATOM      8  C   UNL     1      13.590   0.533  -5.445  1.00  0.00     0.019 C 
ATOM      9  C   UNL     1      15.636   1.665  -3.718  1.00  0.00     0.189 C 
ATOM     10  C   UNL     1      15.066   0.143  -5.518  1.00  0.00     0.087 C 
ATOM     11  N   UNL     1      15.922   1.250  -5.092  1.00  0.00    -0.276 NA
ATOM     12  O   UNL     1      16.435   2.780  -3.317  1.00  0.00    -0.360 OA
ATOM     13  C   UNL     1      17.344   0.922  -5.239  1.00  0.00     0.121 C 
ATOM     14  C   UNL     1      17.840   2.530  -3.425  1.00  0.00     0.195 C 
BRANCH   6  15
ATOM     15  C   UNL     1      11.769   1.481  -4.011  1.00  0.00    -0.008 C 
ATOM     16  C   UNL     1      11.216   2.173  -2.787  1.00  0.00     0.004 C 
ATOM     17  C   UNL     1      11.444   2.955  -4.048  1.00  0.00     0.004 C 
ENDBRANCH   6  15
ENDBRANCH   4   5
ENDBRANCH   1   4
BRANCH   3  18
ATOM     18  C   UNL     1      16.915   6.637  -4.358  1.00  0.00     0.053 C 
BRANCH  18  19
ATOM     19  C   UNL     1      15.543   6.548  -3.742  1.00  0.00     0.074 C 
BRANCH  19  20
ATOM     20  N   UNL     1      14.944   5.463  -3.381  1.00  0.00    -0.313 NA
ATOM     21  H   UNL     1      14.085   5.303  -3.926  1.00  0.00     0.186 HD
ENDBRANCH  19  20
ENDBRANCH  18  19
ENDBRANCH   3  18
TORSDOF 6
ENDMDL
