MODEL 1
REMARK VINA RESULT:    -5.946      0.000      0.000
REMARK INTER + INTRA:          -7.368
REMARK INTER:                  -6.989
REMARK INTRA:                  -0.379
REMARK UNBOUND:                -0.379
REMARK SMILES Cc1ccc(CNC(=O)NC(=O)c2ccc(C)cc2)cc1
REMARK SMILES IDX 11 1 12 2 10 3 8 4 9 5 7 6 13 9 19 10 18 11 14 12 16 13
REMARK SMILES IDX 15 14 17 15 6 16 5 17 4 18 20 19 3 20 21 21 2 22 1 23
REMARK H PARENT 10 7 7 8
ROOT
ATOM      1  C   UNL     1       4.327  -7.118  -5.518  1.00  0.00     0.259 C 
ATOM      2  O   UNL     1       3.224  -7.235  -6.033  1.00  0.00    -0.269 OA
ATOM      3  N   UNL     1       5.456  -7.929  -5.673  1.00  0.00    -0.274 N 
ATOM      4  C   UNL     1       5.885  -8.917  -6.523  1.00  0.00     0.321 C 
ATOM      5  O   UNL     1       7.051  -9.308  -6.404  1.00  0.00    -0.248 OA
ATOM      6  N   UNL     1       5.117  -9.453  -7.489  1.00  0.00    -0.334 N 
ATOM      7  H   UNL     1       6.254  -7.642  -5.123  1.00  0.00     0.175 HD
ATOM      8  H   UNL     1       5.607 -10.106  -8.083  1.00  0.00     0.165 HD
ENDROOT
BRANCH   1   9
ATOM      9  C   UNL     1       4.514  -5.970  -4.610  1.00  0.00     0.040 A 
ATOM     10  C   UNL     1       4.468  -6.123  -3.224  1.00  0.00     0.014 A 
ATOM     11  C   UNL     1       4.703  -5.018  -2.405  1.00  0.00     0.004 A 
ATOM     12  C   UNL     1       4.735  -4.712  -5.180  1.00  0.00     0.014 A 
ATOM     13  C   UNL     1       4.977  -3.761  -2.967  1.00  0.00    -0.051 A 
ATOM     14  C   UNL     1       4.976  -3.612  -4.359  1.00  0.00     0.004 A 
ATOM     15  C   UNL     1       5.311  -2.602  -2.075  1.00  0.00     0.044 C 
ENDBRANCH   1   9
BRANCH   6  16
ATOM     16  C   UNL     1       3.783  -9.072  -7.860  1.00  0.00     0.153 C 
BRANCH  16  17
ATOM     17  C   UNL     1       3.330  -9.414  -9.253  1.00  0.00    -0.029 A 
ATOM     18  C   UNL     1       2.803  -8.467 -10.137  1.00  0.00     0.006 A 
ATOM     19  C   UNL     1       3.652 -10.691  -9.738  1.00  0.00     0.006 A 
ATOM     20  C   UNL     1       2.627  -8.792 -11.487  1.00  0.00     0.004 A 
ATOM     21  C   UNL     1       3.481 -11.012 -11.081  1.00  0.00     0.004 A 
ATOM     22  C   UNL     1       2.976 -10.061 -11.970  1.00  0.00    -0.051 A 
ATOM     23  C   UNL     1       2.925 -10.369 -13.437  1.00  0.00     0.044 C 
ENDBRANCH  16  17
ENDBRANCH   6  16
TORSDOF 3
ENDMDL
MODEL 2
REMARK VINA RESULT:    -5.923      3.207      5.457
REMARK INTER + INTRA:          -7.341
REMARK INTER:                  -6.958
REMARK INTRA:                  -0.383
REMARK UNBOUND:                -0.379
REMARK SMILES Cc1ccc(CNC(=O)NC(=O)c2ccc(C)cc2)cc1
REMARK SMILES IDX 11 1 12 2 10 3 8 4 9 5 7 6 13 9 19 10 18 11 14 12 16 13
REMARK SMILES IDX 15 14 17 15 6 16 5 17 4 18 20 19 3 20 21 21 2 22 1 23
REMARK H PARENT 10 7 7 8
ROOT
ATOM      1  C   UNL     1       4.572  -7.301  -5.205  1.00  0.00     0.259 C 
ATOM      2  O   UNL     1       5.706  -7.209  -4.756  1.00  0.00    -0.269 OA
ATOM      3  N   UNL     1       4.139  -7.960  -6.359  1.00  0.00    -0.274 N 
ATOM      4  C   UNL     1       4.635  -8.879  -7.248  1.00  0.00     0.321 C 
ATOM      5  O   UNL     1       3.861  -9.331  -8.099  1.00  0.00    -0.248 OA
ATOM      6  N   UNL     1       5.903  -9.330  -7.222  1.00  0.00    -0.334 N 
ATOM      7  H   UNL     1       3.147  -7.879  -6.539  1.00  0.00     0.175 HD
ATOM      8  H   UNL     1       6.087 -10.066  -7.888  1.00  0.00     0.165 HD
ENDROOT
BRANCH   1   9
ATOM      9  C   UNL     1       3.501  -6.638  -4.436  1.00  0.00     0.040 A 
ATOM     10  C   UNL     1       3.012  -5.382  -4.803  1.00  0.00     0.014 A 
ATOM     11  C   UNL     1       1.963  -4.818  -4.077  1.00  0.00     0.004 A 
ATOM     12  C   UNL     1       2.988  -7.301  -3.317  1.00  0.00     0.014 A 
ATOM     13  C   UNL     1       1.406  -5.499  -2.984  1.00  0.00    -0.051 A 
ATOM     14  C   UNL     1       1.936  -6.737  -2.599  1.00  0.00     0.004 A 
ATOM     15  C   UNL     1       0.223  -4.919  -2.266  1.00  0.00     0.044 C 
ENDBRANCH   1   9
BRANCH   6  16
ATOM     16  C   UNL     1       6.925  -9.016  -6.264  1.00  0.00     0.153 C 
BRANCH  16  17
ATOM     17  C   UNL     1       8.033 -10.016  -6.084  1.00  0.00    -0.029 A 
ATOM     18  C   UNL     1       8.359 -10.581  -4.846  1.00  0.00     0.006 A 
ATOM     19  C   UNL     1       8.613 -10.549  -7.247  1.00  0.00     0.006 A 
ATOM     20  C   UNL     1       9.229 -11.674  -4.783  1.00  0.00     0.004 A 
ATOM     21  C   UNL     1       9.475 -11.639  -7.183  1.00  0.00     0.004 A 
ATOM     22  C   UNL     1       9.783 -12.218  -5.950  1.00  0.00    -0.051 A 
ATOM     23  C   UNL     1      10.600 -13.474  -5.904  1.00  0.00     0.044 C 
ENDBRANCH  16  17
ENDBRANCH   6  16
TORSDOF 3
ENDMDL
MODEL 3
REMARK VINA RESULT:    -5.891      0.551      8.001
REMARK INTER + INTRA:          -7.303
REMARK INTER:                  -6.806
REMARK INTRA:                  -0.497
REMARK UNBOUND:                -0.379
REMARK SMILES Cc1ccc(CNC(=O)NC(=O)c2ccc(C)cc2)cc1
REMARK SMILES IDX 11 1 12 2 10 3 8 4 9 5 7 6 13 9 19 10 18 11 14 12 16 13
REMARK SMILES IDX 15 14 17 15 6 16 5 17 4 18 20 19 3 20 21 21 2 22 1 23
REMARK H PARENT 10 7 7 8
ROOT
ATOM      1  C   UNL     1       3.863  -8.554  -7.922  1.00  0.00     0.259 C 
ATOM      2  O   UNL     1       3.072  -7.784  -7.396  1.00  0.00    -0.269 OA
ATOM      3  N   UNL     1       5.099  -9.001  -7.445  1.00  0.00    -0.274 N 
ATOM      4  C   UNL     1       5.786  -9.004  -6.258  1.00  0.00     0.321 C 
ATOM      5  O   UNL     1       6.843  -9.643  -6.209  1.00  0.00    -0.248 OA
ATOM      6  N   UNL     1       5.355  -8.378  -5.147  1.00  0.00    -0.334 N 
ATOM      7  H   UNL     1       5.588  -9.624  -8.074  1.00  0.00     0.175 HD
ATOM      8  H   UNL     1       5.931  -8.548  -4.335  1.00  0.00     0.165 HD
ENDROOT
BRANCH   1   9
ATOM      9  C   UNL     1       3.477  -9.101  -9.238  1.00  0.00     0.040 A 
ATOM     10  C   UNL     1       2.856  -8.305 -10.203  1.00  0.00     0.014 A 
ATOM     11  C   UNL     1       2.558  -8.853 -11.451  1.00  0.00     0.004 A 
ATOM     12  C   UNL     1       3.744 -10.449  -9.492  1.00  0.00     0.014 A 
ATOM     13  C   UNL     1       2.869 -10.191 -11.735  1.00  0.00    -0.051 A 
ATOM     14  C   UNL     1       3.450 -10.990 -10.742  1.00  0.00     0.004 A 
ATOM     15  C   UNL     1       2.619 -10.741 -13.108  1.00  0.00     0.044 C 
ENDBRANCH   1   9
BRANCH   6  16
ATOM     16  C   UNL     1       4.117  -7.675  -4.962  1.00  0.00     0.153 C 
BRANCH  16  17
ATOM     17  C   UNL     1       4.175  -6.351  -4.253  1.00  0.00    -0.029 A 
ATOM     18  C   UNL     1       4.111  -6.227  -2.861  1.00  0.00     0.006 A 
ATOM     19  C   UNL     1       4.518  -5.225  -5.019  1.00  0.00     0.006 A 
ATOM     20  C   UNL     1       4.410  -5.003  -2.253  1.00  0.00     0.004 A 
ATOM     21  C   UNL     1       4.820  -4.010  -4.413  1.00  0.00     0.004 A 
ATOM     22  C   UNL     1       4.779  -3.891  -3.023  1.00  0.00    -0.051 A 
ATOM     23  C   UNL     1       5.238  -2.620  -2.373  1.00  0.00     0.044 C 
ENDBRANCH  16  17
ENDBRANCH   6  16
TORSDOF 3
ENDMDL
MODEL 4
REMARK VINA RESULT:    -5.881      3.119      7.362
REMARK INTER + INTRA:          -7.292
REMARK INTER:                  -6.793
REMARK INTRA:                  -0.499
REMARK UNBOUND:                -0.379
REMARK SMILES Cc1ccc(CNC(=O)NC(=O)c2ccc(C)cc2)cc1
REMARK SMILES IDX 11 1 12 2 10 3 8 4 9 5 7 6 13 9 19 10 18 11 14 12 16 13
REMARK SMILES IDX 15 14 17 15 6 16 5 17 4 18 20 19 3 20 21 21 2 22 1 23
REMARK H PARENT 10 7 7 8
ROOT
ATOM      1  C   UNL     1       6.648  -9.133  -5.784  1.00  0.00     0.259 C 
ATOM      2  O   UNL     1       6.669  -8.323  -4.868  1.00  0.00    -0.269 OA
ATOM      3  N   UNL     1       5.697  -9.282  -6.799  1.00  0.00    -0.274 N 
ATOM      4  C   UNL     1       4.654  -8.562  -7.324  1.00  0.00     0.321 C 
ATOM      5  O   UNL     1       4.117  -8.996  -8.349  1.00  0.00    -0.248 OA
ATOM      6  N   UNL     1       4.212  -7.403  -6.802  1.00  0.00    -0.334 N 
ATOM      7  H   UNL     1       5.884 -10.044  -7.437  1.00  0.00     0.175 HD
ATOM      8  H   UNL     1       3.496  -6.955  -7.355  1.00  0.00     0.165 HD
ENDROOT
BRANCH   1   9
ATOM      9  C   UNL     1       7.771 -10.087  -5.848  1.00  0.00     0.040 A 
ATOM     10  C   UNL     1       8.281 -10.690  -4.697  1.00  0.00     0.014 A 
ATOM     11  C   UNL     1       9.309 -11.626  -4.813  1.00  0.00     0.004 A 
ATOM     12  C   UNL     1       8.321 -10.371  -7.102  1.00  0.00     0.014 A 
ATOM     13  C   UNL     1       9.834 -11.956  -6.072  1.00  0.00    -0.051 A 
ATOM     14  C   UNL     1       9.344 -11.311  -7.214  1.00  0.00     0.004 A 
ATOM     15  C   UNL     1      10.879 -13.025  -6.189  1.00  0.00     0.044 C 
ENDBRANCH   1   9
BRANCH   6  16
ATOM     16  C   UNL     1       4.757  -6.680  -5.688  1.00  0.00     0.153 C 
BRANCH  16  17
ATOM     17  C   UNL     1       3.787  -6.139  -4.675  1.00  0.00    -0.029 A 
ATOM     18  C   UNL     1       3.189  -4.880  -4.786  1.00  0.00     0.006 A 
ATOM     19  C   UNL     1       3.315  -7.031  -3.698  1.00  0.00     0.006 A 
ATOM     20  C   UNL     1       2.122  -4.535  -3.950  1.00  0.00     0.004 A 
ATOM     21  C   UNL     1       2.250  -6.688  -2.869  1.00  0.00     0.004 A 
ATOM     22  C   UNL     1       1.638  -5.440  -2.995  1.00  0.00    -0.051 A 
ATOM     23  C   UNL     1       0.407  -5.133  -2.195  1.00  0.00     0.044 C 
ENDBRANCH  16  17
ENDBRANCH   6  16
TORSDOF 3
ENDMDL
MODEL 5
REMARK VINA RESULT:    -5.744      3.063      7.763
REMARK INTER + INTRA:          -7.130
REMARK INTER:                  -6.667
REMARK INTRA:                  -0.463
REMARK UNBOUND:                -0.379
REMARK SMILES Cc1ccc(CNC(=O)NC(=O)c2ccc(C)cc2)cc1
REMARK SMILES IDX 11 1 12 2 10 3 8 4 9 5 7 6 13 9 19 10 18 11 14 12 16 13
REMARK SMILES IDX 15 14 17 15 6 16 5 17 4 18 20 19 3 20 21 21 2 22 1 23
REMARK H PARENT 10 7 7 8
ROOT
ATOM      1  C   UNL     1       6.781  -9.051  -5.719  1.00  0.00     0.259 C 
ATOM      2  O   UNL     1       6.973  -8.157  -4.907  1.00  0.00    -0.269 OA
ATOM      3  N   UNL     1       5.676  -9.253  -6.552  1.00  0.00    -0.274 N 
ATOM      4  C   UNL     1       4.586  -8.540  -6.981  1.00  0.00     0.321 C 
ATOM      5  O   UNL     1       3.879  -9.047  -7.859  1.00  0.00    -0.248 OA
ATOM      6  N   UNL     1       4.269  -7.317  -6.519  1.00  0.00    -0.334 N 
ATOM      7  H   UNL     1       5.736 -10.082  -7.129  1.00  0.00     0.175 HD
ATOM      8  H   UNL     1       3.488  -6.891  -6.997  1.00  0.00     0.165 HD
ENDROOT
BRANCH   1   9
ATOM      9  C   UNL     1       7.850 -10.059  -5.858  1.00  0.00     0.040 A 
ATOM     10  C   UNL     1       8.389 -10.706  -4.745  1.00  0.00     0.014 A 
ATOM     11  C   UNL     1       9.361 -11.690  -4.930  1.00  0.00     0.004 A 
ATOM     12  C   UNL     1       8.318 -10.346  -7.144  1.00  0.00     0.014 A 
ATOM     13  C   UNL     1       9.801 -12.023  -6.220  1.00  0.00    -0.051 A 
ATOM     14  C   UNL     1       9.284 -11.334  -7.325  1.00  0.00     0.004 A 
ATOM     15  C   UNL     1      10.783 -13.141  -6.409  1.00  0.00     0.044 C 
ENDBRANCH   1   9
BRANCH   6  16
ATOM     16  C   UNL     1       5.007  -6.514  -5.585  1.00  0.00     0.153 C 
BRANCH  16  17
ATOM     17  C   UNL     1       4.234  -5.868  -4.469  1.00  0.00    -0.029 A 
ATOM     18  C   UNL     1       4.684  -5.841  -3.145  1.00  0.00     0.006 A 
ATOM     19  C   UNL     1       3.125  -5.083  -4.825  1.00  0.00     0.006 A 
ATOM     20  C   UNL     1       4.046  -5.023  -2.206  1.00  0.00     0.004 A 
ATOM     21  C   UNL     1       2.495  -4.267  -3.892  1.00  0.00     0.004 A 
ATOM     22  C   UNL     1       2.957  -4.222  -2.575  1.00  0.00    -0.051 A 
ATOM     23  C   UNL     1       2.360  -3.239  -1.613  1.00  0.00     0.044 C 
ENDBRANCH  16  17
ENDBRANCH   6  16
TORSDOF 3
ENDMDL
MODEL 6
REMARK VINA RESULT:    -5.740      1.231      7.997
REMARK INTER + INTRA:          -7.126
REMARK INTER:                  -6.665
REMARK INTRA:                  -0.461
REMARK UNBOUND:                -0.379
REMARK SMILES Cc1ccc(CNC(=O)NC(=O)c2ccc(C)cc2)cc1
REMARK SMILES IDX 11 1 12 2 10 3 8 4 9 5 7 6 13 9 19 10 18 11 14 12 16 13
REMARK SMILES IDX 15 14 17 15 6 16 5 17 4 18 20 19 3 20 21 21 2 22 1 23
REMARK H PARENT 10 7 7 8
ROOT
ATOM      1  C   UNL     1       3.690  -8.548  -7.915  1.00  0.00     0.259 C 
ATOM      2  O   UNL     1       2.770  -7.959  -7.366  1.00  0.00    -0.269 OA
ATOM      3  N   UNL     1       4.996  -8.752  -7.458  1.00  0.00    -0.274 N 
ATOM      4  C   UNL     1       5.685  -8.643  -6.278  1.00  0.00     0.321 C 
ATOM      5  O   UNL     1       6.847  -9.062  -6.252  1.00  0.00    -0.248 OA
ATOM      6  N   UNL     1       5.154  -8.136  -5.150  1.00  0.00    -0.334 N 
ATOM      7  H   UNL     1       5.590  -9.255  -8.104  1.00  0.00     0.175 HD
ATOM      8  H   UNL     1       5.762  -8.205  -4.347  1.00  0.00     0.165 HD
ENDROOT
BRANCH   1   9
ATOM      9  C   UNL     1       3.402  -9.135  -9.238  1.00  0.00     0.040 A 
ATOM     10  C   UNL     1       2.804  -8.384 -10.253  1.00  0.00     0.014 A 
ATOM     11  C   UNL     1       2.600  -8.967 -11.504  1.00  0.00     0.004 A 
ATOM     12  C   UNL     1       3.740 -10.475  -9.450  1.00  0.00     0.014 A 
ATOM     13  C   UNL     1       2.983 -10.295 -11.742  1.00  0.00    -0.051 A 
ATOM     14  C   UNL     1       3.540 -11.051 -10.703  1.00  0.00     0.004 A 
ATOM     15  C   UNL     1       2.834 -10.880 -13.116  1.00  0.00     0.044 C 
ENDBRANCH   1   9
BRANCH   6  16
ATOM     16  C   UNL     1       3.804  -7.694  -4.939  1.00  0.00     0.153 C 
BRANCH  16  17
ATOM     17  C   UNL     1       3.610  -6.379  -4.236  1.00  0.00    -0.029 A 
ATOM     18  C   UNL     1       2.693  -5.414  -4.663  1.00  0.00     0.006 A 
ATOM     19  C   UNL     1       4.230  -6.221  -2.986  1.00  0.00     0.006 A 
ATOM     20  C   UNL     1       2.387  -4.326  -3.838  1.00  0.00     0.004 A 
ATOM     21  C   UNL     1       3.922  -5.141  -2.165  1.00  0.00     0.004 A 
ATOM     22  C   UNL     1       2.989  -4.189  -2.580  1.00  0.00    -0.051 A 
ATOM     23  C   UNL     1       2.563  -3.107  -1.634  1.00  0.00     0.044 C 
ENDBRANCH  16  17
ENDBRANCH   6  16
TORSDOF 3
ENDMDL
MODEL 7
REMARK VINA RESULT:    -4.477      5.480     10.237
REMARK INTER + INTRA:          -5.642
REMARK INTER:                  -5.210
REMARK INTRA:                  -0.432
REMARK UNBOUND:                -0.379
REMARK SMILES Cc1ccc(CNC(=O)NC(=O)c2ccc(C)cc2)cc1
REMARK SMILES IDX 11 1 12 2 10 3 8 4 9 5 7 6 13 9 19 10 18 11 14 12 16 13
REMARK SMILES IDX 15 14 17 15 6 16 5 17 4 18 20 19 3 20 21 21 2 22 1 23
REMARK H PARENT 10 7 7 8
ROOT
ATOM      1  C   UNL     1       5.991 -12.629 -13.427  1.00  0.00     0.259 C 
ATOM      2  O   UNL     1       6.092 -11.541 -12.878  1.00  0.00    -0.269 OA
ATOM      3  N   UNL     1       4.834 -13.294 -13.846  1.00  0.00    -0.274 N 
ATOM      4  C   UNL     1       3.511 -12.996 -14.049  1.00  0.00     0.321 C 
ATOM      5  O   UNL     1       2.802 -13.861 -14.574  1.00  0.00    -0.248 OA
ATOM      6  N   UNL     1       2.959 -11.809 -13.736  1.00  0.00    -0.334 N 
ATOM      7  H   UNL     1       5.001 -14.202 -14.260  1.00  0.00     0.175 HD
ATOM      8  H   UNL     1       1.997 -11.718 -14.027  1.00  0.00     0.165 HD
ENDROOT
BRANCH   1   9
ATOM      9  C   UNL     1       7.248 -13.352 -13.698  1.00  0.00     0.040 A 
ATOM     10  C   UNL     1       8.491 -12.787 -13.405  1.00  0.00     0.014 A 
ATOM     11  C   UNL     1       9.650 -13.529 -13.630  1.00  0.00     0.004 A 
ATOM     12  C   UNL     1       7.164 -14.626 -14.268  1.00  0.00     0.014 A 
ATOM     13  C   UNL     1       9.574 -14.829 -14.153  1.00  0.00    -0.051 A 
ATOM     14  C   UNL     1       8.324 -15.367 -14.485  1.00  0.00     0.004 A 
ATOM     15  C   UNL     1      10.822 -15.646 -14.310  1.00  0.00     0.044 C 
ENDBRANCH   1   9
BRANCH   6  16
ATOM     16  C   UNL     1       3.621 -10.644 -13.219  1.00  0.00     0.153 C 
BRANCH  16  17
ATOM     17  C   UNL     1       3.315 -10.249 -11.801  1.00  0.00    -0.029 A 
ATOM     18  C   UNL     1       3.650 -11.043 -10.699  1.00  0.00     0.006 A 
ATOM     19  C   UNL     1       2.867  -8.937 -11.581  1.00  0.00     0.006 A 
ATOM     20  C   UNL     1       3.560 -10.517  -9.405  1.00  0.00     0.004 A 
ATOM     21  C   UNL     1       2.782  -8.414 -10.295  1.00  0.00     0.004 A 
ATOM     22  C   UNL     1       3.138  -9.197  -9.195  1.00  0.00    -0.051 A 
ATOM     23  C   UNL     1       3.174  -8.583  -7.828  1.00  0.00     0.044 C 
ENDBRANCH  16  17
ENDBRANCH   6  16
TORSDOF 3
ENDMDL
MODEL 8
REMARK VINA RESULT:    -4.386      7.197      8.940
REMARK INTER + INTRA:          -5.535
REMARK INTER:                  -5.205
REMARK INTRA:                  -0.330
REMARK UNBOUND:                -0.379
REMARK SMILES Cc1ccc(CNC(=O)NC(=O)c2ccc(C)cc2)cc1
REMARK SMILES IDX 11 1 12 2 10 3 8 4 9 5 7 6 13 9 19 10 18 11 14 12 16 13
REMARK SMILES IDX 15 14 17 15 6 16 5 17 4 18 20 19 3 20 21 21 2 22 1 23
REMARK H PARENT 10 7 7 8
ROOT
ATOM      1  C   UNL     1      10.517 -13.278  -6.491  1.00  0.00     0.259 C 
ATOM      2  O   UNL     1       9.990 -14.282  -6.949  1.00  0.00    -0.269 OA
ATOM      3  N   UNL     1      11.865 -13.055  -6.192  1.00  0.00    -0.274 N 
ATOM      4  C   UNL     1      13.073 -13.646  -6.460  1.00  0.00     0.321 C 
ATOM      5  O   UNL     1      14.095 -13.044  -6.113  1.00  0.00    -0.248 OA
ATOM      6  N   UNL     1      13.201 -14.821  -7.104  1.00  0.00    -0.334 N 
ATOM      7  H   UNL     1      12.060 -12.145  -5.798  1.00  0.00     0.175 HD
ATOM      8  H   UNL     1      14.158 -15.076  -7.299  1.00  0.00     0.165 HD
ENDROOT
BRANCH   1   9
ATOM      9  C   UNL     1       9.628 -12.133  -6.214  1.00  0.00     0.040 A 
ATOM     10  C   UNL     1       9.240 -11.811  -4.913  1.00  0.00     0.014 A 
ATOM     11  C   UNL     1       8.441 -10.688  -4.696  1.00  0.00     0.004 A 
ATOM     12  C   UNL     1       9.174 -11.377  -7.300  1.00  0.00     0.014 A 
ATOM     13  C   UNL     1       8.022  -9.893  -5.773  1.00  0.00    -0.051 A 
ATOM     14  C   UNL     1       8.381 -10.253  -7.078  1.00  0.00     0.004 A 
ATOM     15  C   UNL     1       7.235  -8.641  -5.516  1.00  0.00     0.044 C 
ENDBRANCH   1   9
BRANCH   6  16
ATOM     16  C   UNL     1      12.158 -15.623  -7.678  1.00  0.00     0.153 C 
BRANCH  16  17
ATOM     17  C   UNL     1      11.864 -15.430  -9.140  1.00  0.00    -0.029 A 
ATOM     18  C   UNL     1      10.827 -16.093  -9.805  1.00  0.00     0.006 A 
ATOM     19  C   UNL     1      12.532 -14.384  -9.797  1.00  0.00     0.006 A 
ATOM     20  C   UNL     1      10.454 -15.695 -11.093  1.00  0.00     0.004 A 
ATOM     21  C   UNL     1      12.157 -13.986 -11.076  1.00  0.00     0.004 A 
ATOM     22  C   UNL     1      11.107 -14.631 -11.732  1.00  0.00    -0.051 A 
ATOM     23  C   UNL     1      10.620 -14.107 -13.050  1.00  0.00     0.044 C 
ENDBRANCH  16  17
ENDBRANCH   6  16
TORSDOF 3
ENDMDL
