MODEL 1
REMARK VINA RESULT:    -5.945      0.000      0.000
REMARK INTER + INTRA:          -7.370
REMARK INTER:                  -6.987
REMARK INTRA:                  -0.382
REMARK UNBOUND:                -0.382
REMARK SMILES Cc1ccc(CNC(=O)NC(=O)c2ccc(C)cc2)cc1
REMARK SMILES IDX 11 1 12 2 10 3 8 4 9 5 7 6 13 9 19 10 18 11 14 12 16 13
REMARK SMILES IDX 15 14 17 15 6 16 5 17 4 18 20 19 3 20 21 21 2 22 1 23
REMARK H PARENT 10 7 7 8
ROOT
ATOM      1  C   UNL     1       9.897  -6.840  -1.749  1.00  0.00     0.259 C 
ATOM      2  O   UNL     1       9.918  -6.727  -0.531  1.00  0.00    -0.269 OA
ATOM      3  N   UNL     1      10.863  -7.396  -2.593  1.00  0.00    -0.274 N 
ATOM      4  C   UNL     1      11.981  -8.182  -2.475  1.00  0.00     0.321 C 
ATOM      5  O   UNL     1      12.511  -8.586  -3.516  1.00  0.00    -0.248 OA
ATOM      6  N   UNL     1      12.507  -8.555  -1.293  1.00  0.00    -0.334 N 
ATOM      7  H   UNL     1      10.630  -7.357  -3.577  1.00  0.00     0.175 HD
ATOM      8  H   UNL     1      13.277  -9.202  -1.377  1.00  0.00     0.165 HD
ENDROOT
BRANCH   1   9
ATOM      9  C   UNL     1       8.697  -6.330  -2.439  1.00  0.00     0.040 A 
ATOM     10  C   UNL     1       8.697  -5.089  -3.080  1.00  0.00     0.014 A 
ATOM     11  C   UNL     1       7.555  -4.673  -3.764  1.00  0.00     0.004 A 
ATOM     12  C   UNL     1       7.546  -7.124  -2.429  1.00  0.00     0.014 A 
ATOM     13  C   UNL     1       6.412  -5.486  -3.804  1.00  0.00    -0.051 A 
ATOM     14  C   UNL     1       6.410  -6.707  -3.119  1.00  0.00     0.004 A 
ATOM     15  C   UNL     1       5.222  -5.062  -4.614  1.00  0.00     0.044 C 
ENDBRANCH   1   9
BRANCH   6  16
ATOM     16  C   UNL     1      11.992  -8.284   0.019  1.00  0.00     0.153 C 
BRANCH  16  17
ATOM     17  C   UNL     1      12.389  -9.224   1.124  1.00  0.00    -0.029 A 
ATOM     18  C   UNL     1      11.460  -9.891   1.929  1.00  0.00     0.006 A 
ATOM     19  C   UNL     1      13.741  -9.596   1.197  1.00  0.00     0.006 A 
ATOM     20  C   UNL     1      11.879 -10.927   2.771  1.00  0.00     0.004 A 
ATOM     21  C   UNL     1      14.156 -10.629   2.031  1.00  0.00     0.004 A 
ATOM     22  C   UNL     1      13.226 -11.311   2.818  1.00  0.00    -0.051 A 
ATOM     23  C   UNL     1      13.660 -12.510   3.607  1.00  0.00     0.044 C 
ENDBRANCH  16  17
ENDBRANCH   6  16
TORSDOF 3
ENDMDL
MODEL 2
REMARK VINA RESULT:    -5.927      3.223      5.520
REMARK INTER + INTRA:          -7.349
REMARK INTER:                  -6.962
REMARK INTRA:                  -0.387
REMARK UNBOUND:                -0.382
REMARK SMILES Cc1ccc(CNC(=O)NC(=O)c2ccc(C)cc2)cc1
REMARK SMILES IDX 11 1 12 2 10 3 8 4 9 5 7 6 13 9 19 10 18 11 14 12 16 13
REMARK SMILES IDX 15 14 17 15 6 16 5 17 4 18 20 19 3 20 21 21 2 22 1 23
REMARK H PARENT 10 7 7 8
ROOT
ATOM      1  C   UNL     1      10.024  -6.694  -2.082  1.00  0.00     0.259 C 
ATOM      2  O   UNL     1      10.027  -6.844  -3.295  1.00  0.00    -0.269 OA
ATOM      3  N   UNL     1      10.763  -7.381  -1.113  1.00  0.00    -0.274 N 
ATOM      4  C   UNL     1      11.847  -8.219  -1.072  1.00  0.00     0.321 C 
ATOM      5  O   UNL     1      12.298  -8.520   0.039  1.00  0.00    -0.248 OA
ATOM      6  N   UNL     1      12.457  -8.702  -2.170  1.00  0.00    -0.334 N 
ATOM      7  H   UNL     1      10.573  -7.093  -0.162  1.00  0.00     0.175 HD
ATOM      8  H   UNL     1      13.292  -9.235  -1.971  1.00  0.00     0.165 HD
ENDROOT
BRANCH   1   9
ATOM      9  C   UNL     1       9.129  -5.650  -1.548  1.00  0.00     0.040 A 
ATOM     10  C   UNL     1       7.876  -5.965  -1.018  1.00  0.00     0.014 A 
ATOM     11  C   UNL     1       7.087  -4.950  -0.477  1.00  0.00     0.004 A 
ATOM     12  C   UNL     1       9.569  -4.323  -1.592  1.00  0.00     0.014 A 
ATOM     13  C   UNL     1       7.541  -3.622  -0.469  1.00  0.00    -0.051 A 
ATOM     14  C   UNL     1       8.780  -3.313  -1.044  1.00  0.00     0.004 A 
ATOM     15  C   UNL     1       6.719  -2.556   0.192  1.00  0.00     0.044 C 
ENDBRANCH   1   9
BRANCH   6  16
ATOM     16  C   UNL     1      12.162  -8.397  -3.541  1.00  0.00     0.153 C 
BRANCH  16  17
ATOM     17  C   UNL     1      13.278  -8.545  -4.537  1.00  0.00    -0.029 A 
ATOM     18  C   UNL     1      13.704  -7.504  -5.368  1.00  0.00     0.006 A 
ATOM     19  C   UNL     1      14.050  -9.717  -4.469  1.00  0.00     0.006 A 
ATOM     20  C   UNL     1      14.894  -7.629  -6.094  1.00  0.00     0.004 A 
ATOM     21  C   UNL     1      15.235  -9.838  -5.188  1.00  0.00     0.004 A 
ATOM     22  C   UNL     1      15.673  -8.790  -5.999  1.00  0.00    -0.051 A 
ATOM     23  C   UNL     1      17.016  -8.875  -6.660  1.00  0.00     0.044 C 
ENDBRANCH  16  17
ENDBRANCH   6  16
TORSDOF 3
ENDMDL
MODEL 3
REMARK VINA RESULT:    -5.779      0.564      8.004
REMARK INTER + INTRA:          -7.175
REMARK INTER:                  -6.683
REMARK INTRA:                  -0.492
REMARK UNBOUND:                -0.382
REMARK SMILES Cc1ccc(CNC(=O)NC(=O)c2ccc(C)cc2)cc1
REMARK SMILES IDX 11 1 12 2 10 3 8 4 9 5 7 6 13 9 19 10 18 11 14 12 16 13
REMARK SMILES IDX 15 14 17 15 6 16 5 17 4 18 20 19 3 20 21 21 2 22 1 23
REMARK H PARENT 10 7 7 8
ROOT
ATOM      1  C   UNL     1      11.537  -8.499  -0.032  1.00  0.00     0.259 C 
ATOM      2  O   UNL     1      10.618  -7.788   0.350  1.00  0.00    -0.269 OA
ATOM      3  N   UNL     1      12.080  -8.613  -1.316  1.00  0.00    -0.274 N 
ATOM      4  C   UNL     1      12.037  -7.922  -2.499  1.00  0.00     0.321 C 
ATOM      5  O   UNL     1      12.795  -8.287  -3.404  1.00  0.00    -0.248 OA
ATOM      6  N   UNL     1      11.240  -6.859  -2.711  1.00  0.00    -0.334 N 
ATOM      7  H   UNL     1      12.828  -9.290  -1.393  1.00  0.00     0.175 HD
ATOM      8  H   UNL     1      11.389  -6.410  -3.604  1.00  0.00     0.165 HD
ENDROOT
BRANCH   1   9
ATOM      9  C   UNL     1      12.175  -9.357   0.985  1.00  0.00     0.040 A 
ATOM     10  C   UNL     1      11.421 -10.018   1.957  1.00  0.00     0.014 A 
ATOM     11  C   UNL     1      12.064 -10.860   2.865  1.00  0.00     0.004 A 
ATOM     12  C   UNL     1      13.567  -9.486   0.955  1.00  0.00     0.014 A 
ATOM     13  C   UNL     1      13.455 -11.037   2.811  1.00  0.00    -0.051 A 
ATOM     14  C   UNL     1      14.204 -10.333   1.860  1.00  0.00     0.004 A 
ATOM     15  C   UNL     1      14.120 -12.010   3.739  1.00  0.00     0.044 C 
ENDBRANCH   1   9
BRANCH   6  16
ATOM     16  C   UNL     1      10.369  -6.215  -1.769  1.00  0.00     0.153 C 
BRANCH  16  17
ATOM     17  C   UNL     1       8.997  -5.830  -2.249  1.00  0.00    -0.029 A 
ATOM     18  C   UNL     1       8.715  -4.595  -2.842  1.00  0.00     0.006 A 
ATOM     19  C   UNL     1       8.022  -6.840  -2.287  1.00  0.00     0.006 A 
ATOM     20  C   UNL     1       7.487  -4.390  -3.481  1.00  0.00     0.004 A 
ATOM     21  C   UNL     1       6.804  -6.636  -2.928  1.00  0.00     0.004 A 
ATOM     22  C   UNL     1       6.530  -5.412  -3.539  1.00  0.00    -0.051 A 
ATOM     23  C   UNL     1       5.274  -5.248  -4.343  1.00  0.00     0.044 C 
ENDBRANCH  16  17
ENDBRANCH   6  16
TORSDOF 3
ENDMDL
MODEL 4
REMARK VINA RESULT:    -5.738      3.127      7.332
REMARK INTER + INTRA:          -7.127
REMARK INTER:                  -6.635
REMARK INTRA:                  -0.492
REMARK UNBOUND:                -0.382
REMARK SMILES Cc1ccc(CNC(=O)NC(=O)c2ccc(C)cc2)cc1
REMARK SMILES IDX 11 1 12 2 10 3 8 4 9 5 7 6 13 9 19 10 18 11 14 12 16 13
REMARK SMILES IDX 15 14 17 15 6 16 5 17 4 18 20 19 3 20 21 21 2 22 1 23
REMARK H PARENT 10 7 7 8
ROOT
ATOM      1  C   UNL     1      12.259  -7.854  -3.529  1.00  0.00     0.259 C 
ATOM      2  O   UNL     1      11.359  -7.203  -4.040  1.00  0.00    -0.269 OA
ATOM      3  N   UNL     1      12.395  -8.268  -2.200  1.00  0.00    -0.274 N 
ATOM      4  C   UNL     1      11.607  -8.357  -1.081  1.00  0.00     0.321 C 
ATOM      5  O   UNL     1      12.080  -8.925  -0.091  1.00  0.00    -0.248 OA
ATOM      6  N   UNL     1      10.347  -7.890  -1.019  1.00  0.00    -0.334 N 
ATOM      7  H   UNL     1      13.244  -8.783  -2.008  1.00  0.00     0.175 HD
ATOM      8  H   UNL     1       9.873  -8.111  -0.155  1.00  0.00     0.165 HD
ENDROOT
BRANCH   1   9
ATOM      9  C   UNL     1      13.357  -8.276  -4.420  1.00  0.00     0.040 A 
ATOM     10  C   UNL     1      13.860  -7.427  -5.408  1.00  0.00     0.014 A 
ATOM     11  C   UNL     1      14.934  -7.849  -6.191  1.00  0.00     0.004 A 
ATOM     12  C   UNL     1      13.882  -9.561  -4.253  1.00  0.00     0.014 A 
ATOM     13  C   UNL     1      15.502  -9.118  -5.997  1.00  0.00    -0.051 A 
ATOM     14  C   UNL     1      14.959  -9.977  -5.034  1.00  0.00     0.004 A 
ATOM     15  C   UNL     1      16.710  -9.524  -6.789  1.00  0.00     0.044 C 
ENDBRANCH   1   9
BRANCH   6  16
ATOM     16  C   UNL     1       9.579  -7.297  -2.078  1.00  0.00     0.153 C 
BRANCH  16  17
ATOM     17  C   UNL     1       8.775  -6.071  -1.743  1.00  0.00    -0.029 A 
ATOM     18  C   UNL     1       7.466  -6.128  -1.253  1.00  0.00     0.006 A 
ATOM     19  C   UNL     1       9.452  -4.841  -1.729  1.00  0.00     0.006 A 
ATOM     20  C   UNL     1       6.862  -4.977  -0.737  1.00  0.00     0.004 A 
ATOM     21  C   UNL     1       8.852  -3.698  -1.211  1.00  0.00     0.004 A 
ATOM     22  C   UNL     1       7.554  -3.758  -0.701  1.00  0.00    -0.051 A 
ATOM     23  C   UNL     1       6.968  -2.557  -0.021  1.00  0.00     0.044 C 
ENDBRANCH  16  17
ENDBRANCH   6  16
TORSDOF 3
ENDMDL
MODEL 5
REMARK VINA RESULT:    -5.054      9.054     10.116
REMARK INTER + INTRA:          -6.322
REMARK INTER:                  -5.872
REMARK INTRA:                  -0.450
REMARK UNBOUND:                -0.382
REMARK SMILES Cc1ccc(CNC(=O)NC(=O)c2ccc(C)cc2)cc1
REMARK SMILES IDX 11 1 12 2 10 3 8 4 9 5 7 6 13 9 19 10 18 11 14 12 16 13
REMARK SMILES IDX 15 14 17 15 6 16 5 17 4 18 20 19 3 20 21 21 2 22 1 23
REMARK H PARENT 10 7 7 8
ROOT
ATOM      1  C   UNL     1      16.941 -14.795  -0.179  1.00  0.00     0.259 C 
ATOM      2  O   UNL     1      17.883 -14.931   0.589  1.00  0.00    -0.269 OA
ATOM      3  N   UNL     1      15.571 -14.830   0.101  1.00  0.00    -0.274 N 
ATOM      4  C   UNL     1      14.761 -14.779   1.206  1.00  0.00     0.321 C 
ATOM      5  O   UNL     1      13.542 -14.701   1.021  1.00  0.00    -0.248 OA
ATOM      6  N   UNL     1      15.225 -14.780   2.470  1.00  0.00    -0.334 N 
ATOM      7  H   UNL     1      14.977 -14.714  -0.709  1.00  0.00     0.175 HD
ATOM      8  H   UNL     1      14.507 -14.651   3.167  1.00  0.00     0.165 HD
ENDROOT
BRANCH   1   9
ATOM      9  C   UNL     1      17.273 -14.556  -1.597  1.00  0.00     0.040 A 
ATOM     10  C   UNL     1      17.842 -15.555  -2.389  1.00  0.00     0.014 A 
ATOM     11  C   UNL     1      18.091 -15.299  -3.738  1.00  0.00     0.004 A 
ATOM     12  C   UNL     1      17.008 -13.291  -2.129  1.00  0.00     0.014 A 
ATOM     13  C   UNL     1      17.780 -14.049  -4.295  1.00  0.00    -0.051 A 
ATOM     14  C   UNL     1      17.252 -13.042  -3.479  1.00  0.00     0.004 A 
ATOM     15  C   UNL     1      17.974 -13.817  -5.765  1.00  0.00     0.044 C 
ENDBRANCH   1   9
BRANCH   6  16
ATOM     16  C   UNL     1      16.595 -14.760   2.900  1.00  0.00     0.153 C 
BRANCH  16  17
ATOM     17  C   UNL     1      16.936 -13.893   4.079  1.00  0.00    -0.029 A 
ATOM     18  C   UNL     1      17.655 -12.699   3.967  1.00  0.00     0.006 A 
ATOM     19  C   UNL     1      16.319 -14.200   5.303  1.00  0.00     0.006 A 
ATOM     20  C   UNL     1      17.731 -11.821   5.054  1.00  0.00     0.004 A 
ATOM     21  C   UNL     1      16.391 -13.324   6.382  1.00  0.00     0.004 A 
ATOM     22  C   UNL     1      17.090 -12.122   6.263  1.00  0.00    -0.051 A 
ATOM     23  C   UNL     1      17.046 -11.125   7.383  1.00  0.00     0.044 C 
ENDBRANCH  16  17
ENDBRANCH   6  16
TORSDOF 3
ENDMDL
MODEL 6
REMARK VINA RESULT:    -4.911      5.204      7.918
REMARK INTER + INTRA:          -6.155
REMARK INTER:                  -6.152
REMARK INTRA:                  -0.003
REMARK UNBOUND:                -0.382
REMARK SMILES Cc1ccc(CNC(=O)NC(=O)c2ccc(C)cc2)cc1
REMARK SMILES IDX 11 1 12 2 10 3 8 4 9 5 7 6 13 9 19 10 18 11 14 12 16 13
REMARK SMILES IDX 15 14 17 15 6 16 5 17 4 18 20 19 3 20 21 21 2 22 1 23
REMARK H PARENT 10 7 7 8
ROOT
ATOM      1  C   UNL     1      12.789 -12.234   3.582  1.00  0.00     0.259 C 
ATOM      2  O   UNL     1      12.702 -13.334   3.054  1.00  0.00    -0.269 OA
ATOM      3  N   UNL     1      13.005 -11.923   4.928  1.00  0.00    -0.274 N 
ATOM      4  C   UNL     1      13.414 -12.573   6.065  1.00  0.00     0.321 C 
ATOM      5  O   UNL     1      13.614 -11.889   7.075  1.00  0.00    -0.248 OA
ATOM      6  N   UNL     1      13.634 -13.899   6.126  1.00  0.00    -0.334 N 
ATOM      7  H   UNL     1      13.017 -10.932   5.131  1.00  0.00     0.175 HD
ATOM      8  H   UNL     1      14.013 -14.208   7.009  1.00  0.00     0.165 HD
ENDROOT
BRANCH   1   9
ATOM      9  C   UNL     1      12.655 -11.063   2.694  1.00  0.00     0.040 A 
ATOM     10  C   UNL     1      13.756 -10.532   2.018  1.00  0.00     0.014 A 
ATOM     11  C   UNL     1      13.570  -9.457   1.148  1.00  0.00     0.004 A 
ATOM     12  C   UNL     1      11.388 -10.488   2.551  1.00  0.00     0.014 A 
ATOM     13  C   UNL     1      12.294  -8.907   0.958  1.00  0.00    -0.051 A 
ATOM     14  C   UNL     1      11.207  -9.419   1.676  1.00  0.00     0.004 A 
ATOM     15  C   UNL     1      12.097  -7.807  -0.044  1.00  0.00     0.044 C 
ENDBRANCH   1   9
BRANCH   6  16
ATOM     16  C   UNL     1      13.562 -14.849   5.052  1.00  0.00     0.153 C 
BRANCH  16  17
ATOM     17  C   UNL     1      14.793 -15.031   4.208  1.00  0.00    -0.029 A 
ATOM     18  C   UNL     1      14.809 -15.794   3.036  1.00  0.00     0.006 A 
ATOM     19  C   UNL     1      15.904 -14.225   4.508  1.00  0.00     0.006 A 
ATOM     20  C   UNL     1      15.909 -15.728   2.173  1.00  0.00     0.004 A 
ATOM     21  C   UNL     1      16.994 -14.157   3.647  1.00  0.00     0.004 A 
ATOM     22  C   UNL     1      17.001 -14.901   2.466  1.00  0.00    -0.051 A 
ATOM     23  C   UNL     1      18.116 -14.716   1.479  1.00  0.00     0.044 C 
ENDBRANCH  16  17
ENDBRANCH   6  16
TORSDOF 3
ENDMDL
MODEL 7
REMARK VINA RESULT:    -4.496      9.052     11.327
REMARK INTER + INTRA:          -5.667
REMARK INTER:                  -5.236
REMARK INTRA:                  -0.431
REMARK UNBOUND:                -0.382
REMARK SMILES Cc1ccc(CNC(=O)NC(=O)c2ccc(C)cc2)cc1
REMARK SMILES IDX 11 1 12 2 10 3 8 4 9 5 7 6 13 9 19 10 18 11 14 12 16 13
REMARK SMILES IDX 15 14 17 15 6 16 5 17 4 18 20 19 3 20 21 21 2 22 1 23
REMARK H PARENT 10 7 7 8
ROOT
ATOM      1  C   UNL     1      16.811 -13.542   2.549  1.00  0.00     0.259 C 
ATOM      2  O   UNL     1      17.843 -13.560   1.893  1.00  0.00    -0.269 OA
ATOM      3  N   UNL     1      15.513 -13.872   2.148  1.00  0.00    -0.274 N 
ATOM      4  C   UNL     1      14.909 -14.513   1.096  1.00  0.00     0.321 C 
ATOM      5  O   UNL     1      13.695 -14.729   1.177  1.00  0.00    -0.248 OA
ATOM      6  N   UNL     1      15.572 -14.940   0.006  1.00  0.00    -0.334 N 
ATOM      7  H   UNL     1      14.812 -13.757   2.868  1.00  0.00     0.175 HD
ATOM      8  H   UNL     1      15.000 -15.469  -0.637  1.00  0.00     0.165 HD
ENDROOT
BRANCH   1   9
ATOM      9  C   UNL     1      16.932 -13.121   3.958  1.00  0.00     0.040 A 
ATOM     10  C   UNL     1      17.545 -11.917   4.308  1.00  0.00     0.014 A 
ATOM     11  C   UNL     1      17.589 -11.536   5.650  1.00  0.00     0.004 A 
ATOM     12  C   UNL     1      16.419 -13.970   4.943  1.00  0.00     0.014 A 
ATOM     13  C   UNL     1      17.030 -12.357   6.642  1.00  0.00    -0.051 A 
ATOM     14  C   UNL     1      16.459 -13.584   6.282  1.00  0.00     0.004 A 
ATOM     15  C   UNL     1      17.010 -11.895   8.069  1.00  0.00     0.044 C 
ENDBRANCH   1   9
BRANCH   6  16
ATOM     16  C   UNL     1      16.986 -14.883  -0.238  1.00  0.00     0.153 C 
BRANCH  16  17
ATOM     17  C   UNL     1      17.432 -14.643  -1.654  1.00  0.00    -0.029 A 
ATOM     18  C   UNL     1      17.918 -15.658  -2.484  1.00  0.00     0.006 A 
ATOM     19  C   UNL     1      17.145 -13.387  -2.214  1.00  0.00     0.006 A 
ATOM     20  C   UNL     1      18.088 -15.423  -3.852  1.00  0.00     0.004 A 
ATOM     21  C   UNL     1      17.310 -13.156  -3.576  1.00  0.00     0.004 A 
ATOM     22  C   UNL     1      17.773 -14.175  -4.410  1.00  0.00    -0.051 A 
ATOM     23  C   UNL     1      17.816 -13.960  -5.893  1.00  0.00     0.044 C 
ENDBRANCH  16  17
ENDBRANCH   6  16
TORSDOF 3
ENDMDL
MODEL 8
REMARK VINA RESULT:    -4.324      5.557      9.091
REMARK INTER + INTRA:          -5.465
REMARK INTER:                  -4.911
REMARK INTRA:                  -0.554
REMARK UNBOUND:                -0.382
REMARK SMILES Cc1ccc(CNC(=O)NC(=O)c2ccc(C)cc2)cc1
REMARK SMILES IDX 11 1 12 2 10 3 8 4 9 5 7 6 13 9 19 10 18 11 14 12 16 13
REMARK SMILES IDX 15 14 17 15 6 16 5 17 4 18 20 19 3 20 21 21 2 22 1 23
REMARK H PARENT 10 7 7 8
ROOT
ATOM      1  C   UNL     1      16.717 -13.266  -0.642  1.00  0.00     0.259 C 
ATOM      2  O   UNL     1      17.021 -12.211  -0.103  1.00  0.00    -0.269 OA
ATOM      3  N   UNL     1      16.068 -14.375  -0.090  1.00  0.00    -0.274 N 
ATOM      4  C   UNL     1      15.351 -14.671   1.041  1.00  0.00     0.321 C 
ATOM      5  O   UNL     1      14.806 -15.778   1.101  1.00  0.00    -0.248 OA
ATOM      6  N   UNL     1      15.187 -13.812   2.064  1.00  0.00    -0.334 N 
ATOM      7  H   UNL     1      15.943 -15.147  -0.732  1.00  0.00     0.175 HD
ATOM      8  H   UNL     1      14.562 -14.149   2.782  1.00  0.00     0.165 HD
ENDROOT
BRANCH   1   9
ATOM      9  C   UNL     1      17.069 -13.405  -2.068  1.00  0.00     0.040 A 
ATOM     10  C   UNL     1      17.581 -14.600  -2.578  1.00  0.00     0.014 A 
ATOM     11  C   UNL     1      17.849 -14.700  -3.943  1.00  0.00     0.004 A 
ATOM     12  C   UNL     1      16.883 -12.298  -2.901  1.00  0.00     0.014 A 
ATOM     13  C   UNL     1      17.617 -13.612  -4.797  1.00  0.00    -0.051 A 
ATOM     14  C   UNL     1      17.147 -12.405  -4.266  1.00  0.00     0.004 A 
ATOM     15  C   UNL     1      17.831 -13.763  -6.275  1.00  0.00     0.044 C 
ENDBRANCH   1   9
BRANCH   6  16
ATOM     16  C   UNL     1      15.644 -12.454   2.149  1.00  0.00     0.153 C 
BRANCH  16  17
ATOM     17  C   UNL     1      14.601 -11.371   2.106  1.00  0.00    -0.029 A 
ATOM     18  C   UNL     1      14.689 -10.260   1.262  1.00  0.00     0.006 A 
ATOM     19  C   UNL     1      13.399 -11.609   2.793  1.00  0.00     0.006 A 
ATOM     20  C   UNL     1      13.583  -9.420   1.093  1.00  0.00     0.004 A 
ATOM     21  C   UNL     1      12.299 -10.775   2.620  1.00  0.00     0.004 A 
ATOM     22  C   UNL     1      12.378  -9.679   1.760  1.00  0.00    -0.051 A 
ATOM     23  C   UNL     1      11.148  -8.869   1.475  1.00  0.00     0.044 C 
ENDBRANCH  16  17
ENDBRANCH   6  16
TORSDOF 3
ENDMDL
MODEL 9
REMARK VINA RESULT:    -4.285      7.979      9.116
REMARK INTER + INTRA:          -5.419
REMARK INTER:                  -5.020
REMARK INTRA:                  -0.399
REMARK UNBOUND:                -0.382
REMARK SMILES Cc1ccc(CNC(=O)NC(=O)c2ccc(C)cc2)cc1
REMARK SMILES IDX 11 1 12 2 10 3 8 4 9 5 7 6 13 9 19 10 18 11 14 12 16 13
REMARK SMILES IDX 15 14 17 15 6 16 5 17 4 18 20 19 3 20 21 21 2 22 1 23
REMARK H PARENT 10 7 7 8
ROOT
ATOM      1  C   UNL     1      17.926 -12.153  -0.623  1.00  0.00     0.259 C 
ATOM      2  O   UNL     1      17.802 -11.361   0.301  1.00  0.00    -0.269 OA
ATOM      3  N   UNL     1      18.410 -13.465  -0.591  1.00  0.00    -0.274 N 
ATOM      4  C   UNL     1      18.684 -14.421   0.352  1.00  0.00     0.321 C 
ATOM      5  O   UNL     1      18.985 -15.551  -0.048  1.00  0.00    -0.248 OA
ATOM      6  N   UNL     1      18.613 -14.201   1.678  1.00  0.00    -0.334 N 
ATOM      7  H   UNL     1      18.439 -13.920  -1.494  1.00  0.00     0.175 HD
ATOM      8  H   UNL     1      18.760 -15.029   2.236  1.00  0.00     0.165 HD
ENDROOT
BRANCH   1   9
ATOM      9  C   UNL     1      17.510 -11.682  -1.958  1.00  0.00     0.040 A 
ATOM     10  C   UNL     1      16.174 -11.727  -2.362  1.00  0.00     0.014 A 
ATOM     11  C   UNL     1      15.821 -11.222  -3.613  1.00  0.00     0.004 A 
ATOM     12  C   UNL     1      18.496 -11.191  -2.818  1.00  0.00     0.014 A 
ATOM     13  C   UNL     1      16.796 -10.680  -4.464  1.00  0.00    -0.051 A 
ATOM     14  C   UNL     1      18.138 -10.681  -4.065  1.00  0.00     0.004 A 
ATOM     15  C   UNL     1      16.389 -10.064  -5.770  1.00  0.00     0.044 C 
ENDBRANCH   1   9
BRANCH   6  16
ATOM     16  C   UNL     1      18.187 -13.003   2.345  1.00  0.00     0.153 C 
BRANCH  16  17
ATOM     17  C   UNL     1      17.347 -13.164   3.582  1.00  0.00    -0.029 A 
ATOM     18  C   UNL     1      16.476 -14.241   3.779  1.00  0.00     0.006 A 
ATOM     19  C   UNL     1      17.617 -12.304   4.659  1.00  0.00     0.006 A 
ATOM     20  C   UNL     1      15.909 -14.462   5.038  1.00  0.00     0.004 A 
ATOM     21  C   UNL     1      17.057 -12.528   5.913  1.00  0.00     0.004 A 
ATOM     22  C   UNL     1      16.205 -13.615   6.116  1.00  0.00    -0.051 A 
ATOM     23  C   UNL     1      15.717 -13.927   7.499  1.00  0.00     0.044 C 
ENDBRANCH  16  17
ENDBRANCH   6  16
TORSDOF 3
ENDMDL
