MODEL 1
REMARK VINA RESULT:    -4.189      0.000      0.000
REMARK INTER + INTRA:          -5.785
REMARK INTER:                  -5.535
REMARK INTRA:                  -0.249
REMARK UNBOUND:                -0.249
REMARK SMILES [H]/N=C\C[C@H]1C[C@@H]1O[C@H]1CO[C@H]2C[C@@H](C3CC3)CCN2C1
REMARK SMILES IDX 7 1 6 2 5 3 8 4 9 5 14 6 13 7 18 8 12 9 19 10 20 11 11 12
REMARK SMILES IDX 21 13 10 14 15 15 16 16 17 17 4 18 3 19 2 20 1 21
REMARK H PARENT
ROOT
ATOM      1  C   UNL     1       4.462  -3.713  12.361  1.00  0.00     0.122 C 
ATOM      2  C   UNL     1       3.771  -4.200  13.603  1.00  0.00     0.039 C 
ATOM      3  C   UNL     1       4.064  -5.158  12.484  1.00  0.00     0.026 C 
ENDROOT
BRANCH   1   4
ATOM      4  O   UNL     1       3.637  -2.887  11.516  1.00  0.00    -0.371 OA
BRANCH   4   5
ATOM      5  C   UNL     1       3.379  -1.562  12.007  1.00  0.00     0.158 C 
ATOM      6  C   UNL     1       3.630   1.014   7.478  1.00  0.00    -0.003 C 
ATOM      7  C   UNL     1       4.638   0.332   8.412  1.00  0.00     0.052 C 
ATOM      8  C   UNL     1       2.291   0.266   7.545  1.00  0.00     0.019 C 
ATOM      9  C   UNL     1       4.082   0.173   9.833  1.00  0.00     0.189 C 
ATOM     10  C   UNL     1       1.810   0.110   8.988  1.00  0.00     0.087 C 
ATOM     11  N   UNL     1       2.818  -0.563   9.806  1.00  0.00    -0.276 NA
ATOM     12  O   UNL     1       5.084  -0.510  10.590  1.00  0.00    -0.360 OA
ATOM     13  C   UNL     1       2.336  -0.798  11.172  1.00  0.00     0.121 C 
ATOM     14  C   UNL     1       4.687  -0.766  11.941  1.00  0.00     0.195 C 
BRANCH   6  15
ATOM     15  C   UNL     1       4.138   1.066   6.055  1.00  0.00    -0.008 C 
ATOM     16  C   UNL     1       4.228   2.384   5.324  1.00  0.00     0.004 C 
ATOM     17  C   UNL     1       5.484   1.672   5.736  1.00  0.00     0.004 C 
ENDBRANCH   6  15
ENDBRANCH   4   5
ENDBRANCH   1   4
BRANCH   3  18
ATOM     18  C   UNL     1       5.108  -6.215  12.687  1.00  0.00     0.053 C 
BRANCH  18  19
ATOM     19  C   UNL     1       4.948  -7.085  13.907  1.00  0.00     0.074 C 
BRANCH  19  20
ATOM     20  N   UNL     1       4.444  -8.274  13.928  1.00  0.00    -0.313 NA
ATOM     21  H   UNL     1       4.222  -8.609  12.980  1.00  0.00     0.186 HD
ENDBRANCH  19  20
ENDBRANCH  18  19
ENDBRANCH   3  18
TORSDOF 6
ENDMDL
MODEL 2
REMARK VINA RESULT:    -4.164      3.291      5.538
REMARK INTER + INTRA:          -5.753
REMARK INTER:                  -5.495
REMARK INTRA:                  -0.257
REMARK UNBOUND:                -0.249
REMARK SMILES [H]/N=C\C[C@H]1C[C@@H]1O[C@H]1CO[C@H]2C[C@@H](C3CC3)CCN2C1
REMARK SMILES IDX 7 1 6 2 5 3 8 4 9 5 14 6 13 7 18 8 12 9 19 10 20 11 11 12
REMARK SMILES IDX 21 13 10 14 15 15 16 16 17 17 4 18 3 19 2 20 1 21
REMARK H PARENT
ROOT
ATOM      1  C   UNL     1       5.062   0.934  13.424  1.00  0.00     0.122 C 
ATOM      2  C   UNL     1       6.298   0.851  14.276  1.00  0.00     0.039 C 
ATOM      3  C   UNL     1       5.652   2.182  14.021  1.00  0.00     0.026 C 
ENDROOT
BRANCH   1   4
ATOM      4  O   UNL     1       5.300   0.715  12.021  1.00  0.00    -0.371 OA
BRANCH   4   5
ATOM      5  C   UNL     1       5.587  -0.642  11.645  1.00  0.00     0.158 C 
ATOM      6  C   UNL     1       2.879  -0.811   7.191  1.00  0.00    -0.003 C 
ATOM      7  C   UNL     1       2.535  -0.777   8.685  1.00  0.00     0.052 C 
ATOM      8  C   UNL     1       4.172  -0.019   6.951  1.00  0.00     0.019 C 
ATOM      9  C   UNL     1       3.716  -1.232   9.552  1.00  0.00     0.189 C 
ATOM     10  C   UNL     1       5.298  -0.497   7.868  1.00  0.00     0.087 C 
ATOM     11  N   UNL     1       4.898  -0.416   9.272  1.00  0.00    -0.276 NA
ATOM     12  O   UNL     1       3.294  -1.114  10.912  1.00  0.00    -0.360 OA
ATOM     13  C   UNL     1       5.998  -0.789  10.169  1.00  0.00     0.121 C 
ATOM     14  C   UNL     1       4.315  -1.472  11.849  1.00  0.00     0.195 C 
BRANCH   6  15
ATOM     15  C   UNL     1       1.752  -0.255   6.349  1.00  0.00    -0.008 C 
ATOM     16  C   UNL     1       1.092  -1.111   5.295  1.00  0.00     0.004 C 
ATOM     17  C   UNL     1       0.335  -0.738   6.537  1.00  0.00     0.004 C 
ENDBRANCH   6  15
ENDBRANCH   4   5
ENDBRANCH   1   4
BRANCH   3  18
ATOM     18  C   UNL     1       4.957   2.881  15.151  1.00  0.00     0.053 C 
BRANCH  18  19
ATOM     19  C   UNL     1       5.752   3.050  16.420  1.00  0.00     0.074 C 
BRANCH  19  20
ATOM     20  N   UNL     1       6.557   4.025  16.685  1.00  0.00    -0.313 NA
ATOM     21  H   UNL     1       7.475   3.891  16.240  1.00  0.00     0.186 HD
ENDBRANCH  19  20
ENDBRANCH  18  19
ENDBRANCH   3  18
TORSDOF 6
ENDMDL
MODEL 3
REMARK VINA RESULT:    -4.084      1.467      1.749
REMARK INTER + INTRA:          -5.647
REMARK INTER:                  -5.843
REMARK INTRA:                   0.196
REMARK UNBOUND:                -0.249
REMARK SMILES [H]/N=C\C[C@H]1C[C@@H]1O[C@H]1CO[C@H]2C[C@@H](C3CC3)CCN2C1
REMARK SMILES IDX 7 1 6 2 5 3 8 4 9 5 14 6 13 7 18 8 12 9 19 10 20 11 11 12
REMARK SMILES IDX 21 13 10 14 15 15 16 16 17 17 4 18 3 19 2 20 1 21
REMARK H PARENT
ROOT
ATOM      1  C   UNL     1       3.304  -3.992  12.407  1.00  0.00     0.122 C 
ATOM      2  C   UNL     1       4.256  -5.154  12.363  1.00  0.00     0.039 C 
ATOM      3  C   UNL     1       4.255  -4.231  13.547  1.00  0.00     0.026 C 
ENDROOT
BRANCH   1   4
ATOM      4  O   UNL     1       3.639  -2.924  11.500  1.00  0.00    -0.371 OA
BRANCH   4   5
ATOM      5  C   UNL     1       3.417  -1.595  12.000  1.00  0.00     0.158 C 
ATOM      6  C   UNL     1       3.670   0.993   7.479  1.00  0.00    -0.003 C 
ATOM      7  C   UNL     1       4.674   0.285   8.397  1.00  0.00     0.052 C 
ATOM      8  C   UNL     1       2.315   0.276   7.560  1.00  0.00     0.019 C 
ATOM      9  C   UNL     1       4.132   0.132   9.824  1.00  0.00     0.189 C 
ATOM     10  C   UNL     1       1.849   0.125   9.007  1.00  0.00     0.087 C 
ATOM     11  N   UNL     1       2.851  -0.575   9.810  1.00  0.00    -0.276 NA
ATOM     12  O   UNL     1       5.127  -0.576  10.566  1.00  0.00    -0.360 OA
ATOM     13  C   UNL     1       2.381  -0.805  11.181  1.00  0.00     0.121 C 
ATOM     14  C   UNL     1       4.742  -0.829  11.920  1.00  0.00     0.195 C 
BRANCH   6  15
ATOM     15  C   UNL     1       4.162   1.040   6.050  1.00  0.00    -0.008 C 
ATOM     16  C   UNL     1       4.216   2.351   5.303  1.00  0.00     0.004 C 
ATOM     17  C   UNL     1       5.490   1.670   5.709  1.00  0.00     0.004 C 
ENDBRANCH   6  15
ENDBRANCH   4   5
ENDBRANCH   1   4
BRANCH   3  18
ATOM     18  C   UNL     1       3.745  -4.738  14.863  1.00  0.00     0.053 C 
BRANCH  18  19
ATOM     19  C   UNL     1       4.415  -4.186  16.095  1.00  0.00     0.074 C 
BRANCH  19  20
ATOM     20  N   UNL     1       5.017  -3.047  16.183  1.00  0.00    -0.313 NA
ATOM     21  H   UNL     1       4.372  -2.298  16.471  1.00  0.00     0.186 HD
ENDBRANCH  19  20
ENDBRANCH  18  19
ENDBRANCH   3  18
TORSDOF 6
ENDMDL
MODEL 4
REMARK VINA RESULT:    -4.037      2.719      8.630
REMARK INTER + INTRA:          -5.584
REMARK INTER:                  -5.380
REMARK INTRA:                  -0.204
REMARK UNBOUND:                -0.249
REMARK SMILES [H]/N=C\C[C@H]1C[C@@H]1O[C@H]1CO[C@H]2C[C@@H](C3CC3)CCN2C1
REMARK SMILES IDX 7 1 6 2 5 3 8 4 9 5 14 6 13 7 18 8 12 9 19 10 20 11 11 12
REMARK SMILES IDX 21 13 10 14 15 15 16 16 17 17 4 18 3 19 2 20 1 21
REMARK H PARENT
ROOT
ATOM      1  C   UNL     1       4.445  -1.615  11.463  1.00  0.00     0.122 C 
ATOM      2  C   UNL     1       5.221  -0.365  11.770  1.00  0.00     0.039 C 
ATOM      3  C   UNL     1       5.598  -1.210  10.587  1.00  0.00     0.026 C 
ENDROOT
BRANCH   1   4
ATOM      4  O   UNL     1       4.684  -2.695  12.385  1.00  0.00    -0.371 OA
BRANCH   4   5
ATOM      5  C   UNL     1       3.561  -3.558  12.634  1.00  0.00     0.158 C 
ATOM      6  C   UNL     1       6.131  -7.629  14.641  1.00  0.00    -0.003 C 
ATOM      7  C   UNL     1       5.973  -7.008  13.247  1.00  0.00     0.052 C 
ATOM      8  C   UNL     1       6.060  -6.521  15.701  1.00  0.00     0.019 C 
ATOM      9  C   UNL     1       4.718  -6.131  13.153  1.00  0.00     0.189 C 
ATOM     10  C   UNL     1       4.806  -5.664  15.530  1.00  0.00     0.087 C 
ATOM     11  N   UNL     1       4.740  -5.094  14.185  1.00  0.00    -0.276 NA
ATOM     12  O   UNL     1       4.705  -5.576  11.836  1.00  0.00    -0.360 OA
ATOM     13  C   UNL     1       3.588  -4.199  14.032  1.00  0.00     0.121 C 
ATOM     14  C   UNL     1       3.600  -4.696  11.609  1.00  0.00     0.195 C 
BRANCH   6  15
ATOM     15  C   UNL     1       7.427  -8.398  14.762  1.00  0.00    -0.008 C 
ATOM     16  C   UNL     1       7.500  -9.640  15.618  1.00  0.00     0.004 C 
ATOM     17  C   UNL     1       7.583  -9.757  14.124  1.00  0.00     0.004 C 
ENDBRANCH   6  15
ENDBRANCH   4   5
ENDBRANCH   1   4
BRANCH   3  18
ATOM     18  C   UNL     1       5.349  -0.680   9.206  1.00  0.00     0.053 C 
BRANCH  18  19
ATOM     19  C   UNL     1       6.512  -0.737   8.250  1.00  0.00     0.074 C 
BRANCH  19  20
ATOM     20  N   UNL     1       7.739  -0.988   8.565  1.00  0.00    -0.313 NA
ATOM     21  H   UNL     1       8.393  -0.638   7.850  1.00  0.00     0.186 HD
ENDBRANCH  19  20
ENDBRANCH  18  19
ENDBRANCH   3  18
TORSDOF 6
ENDMDL
MODEL 5
REMARK VINA RESULT:    -3.720      4.321      7.062
REMARK INTER + INTRA:          -5.166
REMARK INTER:                  -4.934
REMARK INTRA:                  -0.232
REMARK UNBOUND:                -0.249
REMARK SMILES [H]/N=C\C[C@H]1C[C@@H]1O[C@H]1CO[C@H]2C[C@@H](C3CC3)CCN2C1
REMARK SMILES IDX 7 1 6 2 5 3 8 4 9 5 14 6 13 7 18 8 12 9 19 10 20 11 11 12
REMARK SMILES IDX 21 13 10 14 15 15 16 16 17 17 4 18 3 19 2 20 1 21
REMARK H PARENT
ROOT
ATOM      1  C   UNL     1       7.436  -6.631  17.570  1.00  0.00     0.122 C 
ATOM      2  C   UNL     1       8.478  -7.641  17.181  1.00  0.00     0.039 C 
ATOM      3  C   UNL     1       8.896  -6.278  17.653  1.00  0.00     0.026 C 
ENDROOT
BRANCH   1   4
ATOM      4  O   UNL     1       6.702  -6.086  16.457  1.00  0.00    -0.371 OA
BRANCH   4   5
ATOM      5  C   UNL     1       5.286  -6.327  16.470  1.00  0.00     0.158 C 
ATOM      6  C   UNL     1       3.945  -3.333  12.415  1.00  0.00    -0.003 C 
ATOM      7  C   UNL     1       4.414  -3.087  13.854  1.00  0.00     0.052 C 
ATOM      8  C   UNL     1       4.592  -4.620  11.884  1.00  0.00     0.019 C 
ATOM      9  C   UNL     1       4.187  -4.316  14.746  1.00  0.00     0.189 C 
ATOM     10  C   UNL     1       4.358  -5.796  12.832  1.00  0.00     0.087 C 
ATOM     11  N   UNL     1       4.849  -5.489  14.176  1.00  0.00    -0.276 NA
ATOM     12  O   UNL     1       4.701  -3.984  16.037  1.00  0.00    -0.360 OA
ATOM     13  C   UNL     1       4.711  -6.639  15.077  1.00  0.00     0.121 C 
ATOM     14  C   UNL     1       4.592  -5.058  16.976  1.00  0.00     0.195 C 
BRANCH   6  15
ATOM     15  C   UNL     1       4.275  -2.163  11.516  1.00  0.00    -0.008 C 
ATOM     16  C   UNL     1       3.245  -1.091  11.249  1.00  0.00     0.004 C 
ATOM     17  C   UNL     1       4.451  -0.776  12.085  1.00  0.00     0.004 C 
ENDBRANCH   6  15
ENDBRANCH   4   5
ENDBRANCH   1   4
BRANCH   3  18
ATOM     18  C   UNL     1       9.566  -6.145  18.988  1.00  0.00     0.053 C 
BRANCH  18  19
ATOM     19  C   UNL     1      11.011  -6.568  19.053  1.00  0.00     0.074 C 
BRANCH  19  20
ATOM     20  N   UNL     1      12.014  -5.915  18.567  1.00  0.00    -0.313 NA
ATOM     21  H   UNL     1      12.594  -5.502  19.311  1.00  0.00     0.186 HD
ENDBRANCH  19  20
ENDBRANCH  18  19
ENDBRANCH   3  18
TORSDOF 6
ENDMDL
MODEL 6
REMARK VINA RESULT:    -3.666      4.228      7.157
REMARK INTER + INTRA:          -5.094
REMARK INTER:                  -4.572
REMARK INTRA:                  -0.522
REMARK UNBOUND:                -0.249
REMARK SMILES [H]/N=C\C[C@H]1C[C@@H]1O[C@H]1CO[C@H]2C[C@@H](C3CC3)CCN2C1
REMARK SMILES IDX 7 1 6 2 5 3 8 4 9 5 14 6 13 7 18 8 12 9 19 10 20 11 11 12
REMARK SMILES IDX 21 13 10 14 15 15 16 16 17 17 4 18 3 19 2 20 1 21
REMARK H PARENT
ROOT
ATOM      1  C   UNL     1       6.257  -5.441  18.272  1.00  0.00     0.122 C 
ATOM      2  C   UNL     1       7.618  -5.528  18.905  1.00  0.00     0.039 C 
ATOM      3  C   UNL     1       7.294  -4.392  17.977  1.00  0.00     0.026 C 
ENDROOT
BRANCH   1   4
ATOM      4  O   UNL     1       6.023  -6.424  17.245  1.00  0.00    -0.371 OA
BRANCH   4   5
ATOM      5  C   UNL     1       4.645  -6.740  16.992  1.00  0.00     0.158 C 
ATOM      6  C   UNL     1       3.985  -3.940  12.641  1.00  0.00    -0.003 C 
ATOM      7  C   UNL     1       4.151  -3.628  14.133  1.00  0.00     0.052 C 
ATOM      8  C   UNL     1       4.783  -5.206  12.296  1.00  0.00     0.019 C 
ATOM      9  C   UNL     1       3.811  -4.841  15.011  1.00  0.00     0.189 C 
ATOM     10  C   UNL     1       4.423  -6.364  13.226  1.00  0.00     0.087 C 
ATOM     11  N   UNL     1       4.627  -5.993  14.626  1.00  0.00    -0.276 NA
ATOM     12  O   UNL     1       4.047  -4.445  16.363  1.00  0.00    -0.360 OA
ATOM     13  C   UNL     1       4.369  -7.122  15.527  1.00  0.00     0.121 C 
ATOM     14  C   UNL     1       3.806  -5.496  17.304  1.00  0.00     0.195 C 
BRANCH   6  15
ATOM     15  C   UNL     1       4.430  -2.781  11.779  1.00  0.00    -0.008 C 
ATOM     16  C   UNL     1       3.448  -1.702  11.384  1.00  0.00     0.004 C 
ATOM     17  C   UNL     1       4.550  -1.390  12.354  1.00  0.00     0.004 C 
ENDBRANCH   6  15
ENDBRANCH   4   5
ENDBRANCH   1   4
BRANCH   3  18
ATOM     18  C   UNL     1       7.153  -3.010  18.542  1.00  0.00     0.053 C 
BRANCH  18  19
ATOM     19  C   UNL     1       6.743  -1.933  17.572  1.00  0.00     0.074 C 
BRANCH  19  20
ATOM     20  N   UNL     1       5.999  -2.096  16.529  1.00  0.00    -0.313 NA
ATOM     21  H   UNL     1       5.304  -1.342  16.437  1.00  0.00     0.186 HD
ENDBRANCH  19  20
ENDBRANCH  18  19
ENDBRANCH   3  18
TORSDOF 6
ENDMDL
MODEL 7
REMARK VINA RESULT:    -3.607      3.597      5.061
REMARK INTER + INTRA:          -5.016
REMARK INTER:                  -4.784
REMARK INTRA:                  -0.232
REMARK UNBOUND:                -0.249
REMARK SMILES [H]/N=C\C[C@H]1C[C@@H]1O[C@H]1CO[C@H]2C[C@@H](C3CC3)CCN2C1
REMARK SMILES IDX 7 1 6 2 5 3 8 4 9 5 14 6 13 7 18 8 12 9 19 10 20 11 11 12
REMARK SMILES IDX 21 13 10 14 15 15 16 16 17 17 4 18 3 19 2 20 1 21
REMARK H PARENT
ROOT
ATOM      1  C   UNL     1       5.932  -7.086  13.164  1.00  0.00     0.122 C 
ATOM      2  C   UNL     1       7.178  -7.710  12.600  1.00  0.00     0.039 C 
ATOM      3  C   UNL     1       7.222  -7.026  13.936  1.00  0.00     0.026 C 
ENDROOT
BRANCH   1   4
ATOM      4  O   UNL     1       5.525  -5.878  12.494  1.00  0.00    -0.371 OA
BRANCH   4   5
ATOM      5  C   UNL     1       4.157  -5.489  12.695  1.00  0.00     0.158 C 
ATOM      6  C   UNL     1       4.779  -0.313  12.508  1.00  0.00    -0.003 C 
ATOM      7  C   UNL     1       5.125  -1.426  13.506  1.00  0.00     0.052 C 
ATOM      8  C   UNL     1       4.858  -0.870  11.080  1.00  0.00     0.019 C 
ATOM      9  C   UNL     1       4.273  -2.682  13.276  1.00  0.00     0.189 C 
ATOM     10  C   UNL     1       4.017  -2.137  10.927  1.00  0.00     0.087 C 
ATOM     11  N   UNL     1       4.421  -3.154  11.899  1.00  0.00    -0.276 NA
ATOM     12  O   UNL     1       4.715  -3.654  14.226  1.00  0.00    -0.360 OA
ATOM     13  C   UNL     1       3.682  -4.407  11.708  1.00  0.00     0.121 C 
ATOM     14  C   UNL     1       4.030  -4.905  14.106  1.00  0.00     0.195 C 
BRANCH   6  15
ATOM     15  C   UNL     1       5.697   0.877  12.665  1.00  0.00    -0.008 C 
ATOM     16  C   UNL     1       5.307   2.030  13.561  1.00  0.00     0.004 C 
ATOM     17  C   UNL     1       6.433   1.121  13.961  1.00  0.00     0.004 C 
ENDBRANCH   6  15
ENDBRANCH   4   5
ENDBRANCH   1   4
BRANCH   3  18
ATOM     18  C   UNL     1       7.402  -7.856  15.172  1.00  0.00     0.053 C 
BRANCH  18  19
ATOM     19  C   UNL     1       8.103  -7.189  16.326  1.00  0.00     0.074 C 
BRANCH  19  20
ATOM     20  N   UNL     1       8.432  -5.942  16.394  1.00  0.00    -0.313 NA
ATOM     21  H   UNL     1       7.835  -5.427  17.056  1.00  0.00     0.186 HD
ENDBRANCH  19  20
ENDBRANCH  18  19
ENDBRANCH   3  18
TORSDOF 6
ENDMDL
MODEL 8
REMARK VINA RESULT:    -3.434      1.683      2.133
REMARK INTER + INTRA:          -4.788
REMARK INTER:                  -5.403
REMARK INTRA:                   0.615
REMARK UNBOUND:                -0.249
REMARK SMILES [H]/N=C\C[C@H]1C[C@@H]1O[C@H]1CO[C@H]2C[C@@H](C3CC3)CCN2C1
REMARK SMILES IDX 7 1 6 2 5 3 8 4 9 5 14 6 13 7 18 8 12 9 19 10 20 11 11 12
REMARK SMILES IDX 21 13 10 14 15 15 16 16 17 17 4 18 3 19 2 20 1 21
REMARK H PARENT
ROOT
ATOM      1  C   UNL     1       4.160  -3.668  12.442  1.00  0.00     0.122 C 
ATOM      2  C   UNL     1       3.266  -4.695  11.806  1.00  0.00     0.039 C 
ATOM      3  C   UNL     1       4.562  -5.118  12.436  1.00  0.00     0.026 C 
ENDROOT
BRANCH   1   4
ATOM      4  O   UNL     1       4.831  -2.810  11.500  1.00  0.00    -0.371 OA
BRANCH   4   5
ATOM      5  C   UNL     1       4.873  -1.417  11.852  1.00  0.00     0.158 C 
ATOM      6  C   UNL     1       1.923   0.459   7.981  1.00  0.00    -0.003 C 
ATOM      7  C   UNL     1       3.337  -0.121   8.102  1.00  0.00     0.052 C 
ATOM      8  C   UNL     1       1.008  -0.215   9.014  1.00  0.00     0.019 C 
ATOM      9  C   UNL     1       3.862  -0.049   9.542  1.00  0.00     0.189 C 
ATOM     10  C   UNL     1       1.603  -0.138  10.420  1.00  0.00     0.087 C 
ATOM     11  N   UNL     1       2.941  -0.728  10.455  1.00  0.00    -0.276 NA
ATOM     12  O   UNL     1       5.156  -0.655   9.537  1.00  0.00    -0.360 OA
ATOM     13  C   UNL     1       3.491  -0.740  11.815  1.00  0.00     0.121 C 
ATOM     14  C   UNL     1       5.761  -0.695  10.833  1.00  0.00     0.195 C 
BRANCH   6  15
ATOM     15  C   UNL     1       1.368   0.281   6.586  1.00  0.00    -0.008 C 
ATOM     16  C   UNL     1       1.909  -0.800   5.680  1.00  0.00     0.004 C 
ATOM     17  C   UNL     1       0.520  -0.918   6.237  1.00  0.00     0.004 C 
ENDBRANCH   6  15
ENDBRANCH   4   5
ENDBRANCH   1   4
BRANCH   3  18
ATOM     18  C   UNL     1       4.527  -5.917  13.705  1.00  0.00     0.053 C 
BRANCH  18  19
ATOM     19  C   UNL     1       5.613  -6.948  13.873  1.00  0.00     0.074 C 
BRANCH  19  20
ATOM     20  N   UNL     1       6.761  -6.754  14.433  1.00  0.00    -0.313 NA
ATOM     21  H   UNL     1       7.509  -6.640  13.735  1.00  0.00     0.186 HD
ENDBRANCH  19  20
ENDBRANCH  18  19
ENDBRANCH   3  18
TORSDOF 6
ENDMDL
MODEL 9
REMARK VINA RESULT:    -3.381      6.628     10.269
REMARK INTER + INTRA:          -4.717
REMARK INTER:                  -4.494
REMARK INTRA:                  -0.223
REMARK UNBOUND:                -0.249
REMARK SMILES [H]/N=C\C[C@H]1C[C@@H]1O[C@H]1CO[C@H]2C[C@@H](C3CC3)CCN2C1
REMARK SMILES IDX 7 1 6 2 5 3 8 4 9 5 14 6 13 7 18 8 12 9 19 10 20 11 11 12
REMARK SMILES IDX 21 13 10 14 15 15 16 16 17 17 4 18 3 19 2 20 1 21
REMARK H PARENT
ROOT
ATOM      1  C   UNL     1       7.018  -0.993  17.032  1.00  0.00     0.122 C 
ATOM      2  C   UNL     1       8.320  -0.517  16.452  1.00  0.00     0.039 C 
ATOM      3  C   UNL     1       7.025   0.055  15.953  1.00  0.00     0.026 C 
ENDROOT
BRANCH   1   4
ATOM      4  O   UNL     1       6.651  -2.327  16.632  1.00  0.00    -0.371 OA
BRANCH   4   5
ATOM      5  C   UNL     1       5.967  -3.106  17.627  1.00  0.00     0.158 C 
ATOM      6  C   UNL     1       7.469  -7.854  16.076  1.00  0.00    -0.003 C 
ATOM      7  C   UNL     1       6.510  -6.779  15.550  1.00  0.00     0.052 C 
ATOM      8  C   UNL     1       8.644  -7.177  16.797  1.00  0.00     0.019 C 
ATOM      9  C   UNL     1       6.087  -5.802  16.656  1.00  0.00     0.189 C 
ATOM     10  C   UNL     1       8.155  -6.193  17.860  1.00  0.00     0.087 C 
ATOM     11  N   UNL     1       7.263  -5.192  17.276  1.00  0.00    -0.276 NA
ATOM     12  O   UNL     1       5.240  -4.830  16.040  1.00  0.00    -0.360 OA
ATOM     13  C   UNL     1       6.854  -4.189  18.266  1.00  0.00     0.121 C 
ATOM     14  C   UNL     1       4.793  -3.820  16.950  1.00  0.00     0.195 C 
BRANCH   6  15
ATOM     15  C   UNL     1       7.972  -8.743  14.961  1.00  0.00    -0.008 C 
ATOM     16  C   UNL     1       7.877 -10.245  15.081  1.00  0.00     0.004 C 
ATOM     17  C   UNL     1       7.008  -9.518  14.096  1.00  0.00     0.004 C 
ENDBRANCH   6  15
ENDBRANCH   4   5
ENDBRANCH   1   4
BRANCH   3  18
ATOM     18  C   UNL     1       6.685   1.479  16.281  1.00  0.00     0.053 C 
BRANCH  18  19
ATOM     19  C   UNL     1       5.817   2.203  15.285  1.00  0.00     0.074 C 
BRANCH  19  20
ATOM     20  N   UNL     1       4.746   2.870  15.558  1.00  0.00    -0.313 NA
ATOM     21  H   UNL     1       3.897   2.351  15.293  1.00  0.00     0.186 HD
ENDBRANCH  19  20
ENDBRANCH  18  19
ENDBRANCH   3  18
TORSDOF 6
ENDMDL
