MODEL 1
REMARK VINA RESULT:    -6.100      0.000      0.000
REMARK INTER + INTRA:          -7.536
REMARK INTER:                  -7.170
REMARK INTRA:                  -0.366
REMARK UNBOUND:                -0.366
REMARK SMILES Cc1ccc(CNC(=O)NC(=O)c2ccc(C)cc2)cc1
REMARK SMILES IDX 11 1 12 2 10 3 8 4 9 5 7 6 13 9 19 10 18 11 14 12 16 13
REMARK SMILES IDX 15 14 17 15 6 16 5 17 4 18 20 19 3 20 21 21 2 22 1 23
REMARK H PARENT 10 7 7 8
ROOT
ATOM      1  C   UNL     1       4.115  -0.931  10.167  1.00  0.00     0.259 C 
ATOM      2  O   UNL     1       3.524  -1.995  10.050  1.00  0.00    -0.269 OA
ATOM      3  N   UNL     1       4.639  -0.343  11.322  1.00  0.00    -0.274 N 
ATOM      4  C   UNL     1       4.928  -0.720  12.609  1.00  0.00     0.321 C 
ATOM      5  O   UNL     1       5.533   0.090  13.321  1.00  0.00    -0.248 OA
ATOM      6  N   UNL     1       4.617  -1.926  13.119  1.00  0.00    -0.334 N 
ATOM      7  H   UNL     1       5.069   0.560  11.173  1.00  0.00     0.175 HD
ATOM      8  H   UNL     1       4.975  -2.077  14.051  1.00  0.00     0.165 HD
ENDROOT
BRANCH   1   9
ATOM      9  C   UNL     1       4.317  -0.148   8.932  1.00  0.00     0.040 A 
ATOM     10  C   UNL     1       3.533   0.969   8.642  1.00  0.00     0.014 A 
ATOM     11  C   UNL     1       3.796   1.708   7.488  1.00  0.00     0.004 A 
ATOM     12  C   UNL     1       5.319  -0.562   8.049  1.00  0.00     0.014 A 
ATOM     13  C   UNL     1       4.833   1.331   6.622  1.00  0.00    -0.051 A 
ATOM     14  C   UNL     1       5.583   0.183   6.901  1.00  0.00     0.004 A 
ATOM     15  C   UNL     1       5.158   2.184   5.431  1.00  0.00     0.044 C 
ENDBRANCH   1   9
BRANCH   6  16
ATOM     16  C   UNL     1       4.015  -3.036  12.438  1.00  0.00     0.153 C 
BRANCH  16  17
ATOM     17  C   UNL     1       4.125  -4.387  13.089  1.00  0.00    -0.029 A 
ATOM     18  C   UNL     1       4.597  -5.521  12.420  1.00  0.00     0.006 A 
ATOM     19  C   UNL     1       3.942  -4.447  14.480  1.00  0.00     0.006 A 
ATOM     20  C   UNL     1       4.901  -6.682  13.139  1.00  0.00     0.004 A 
ATOM     21  C   UNL     1       4.250  -5.600  15.195  1.00  0.00     0.004 A 
ATOM     22  C   UNL     1       4.742  -6.725  14.531  1.00  0.00    -0.051 A 
ATOM     23  C   UNL     1       5.200  -7.913  15.324  1.00  0.00     0.044 C 
ENDBRANCH  16  17
ENDBRANCH   6  16
TORSDOF 3
ENDMDL
MODEL 2
REMARK VINA RESULT:    -6.083      3.299      5.583
REMARK INTER + INTRA:          -7.516
REMARK INTER:                  -7.149
REMARK INTRA:                  -0.367
REMARK UNBOUND:                -0.366
REMARK SMILES Cc1ccc(CNC(=O)NC(=O)c2ccc(C)cc2)cc1
REMARK SMILES IDX 11 1 12 2 10 3 8 4 9 5 7 6 13 9 19 10 18 11 14 12 16 13
REMARK SMILES IDX 15 14 17 15 6 16 5 17 4 18 20 19 3 20 21 21 2 22 1 23
REMARK H PARENT 10 7 7 8
ROOT
ATOM      1  C   UNL     1       4.024  -0.462  10.321  1.00  0.00     0.259 C 
ATOM      2  O   UNL     1       4.631   0.592  10.445  1.00  0.00    -0.269 OA
ATOM      3  N   UNL     1       4.043  -1.586  11.152  1.00  0.00    -0.274 N 
ATOM      4  C   UNL     1       4.466  -1.903  12.418  1.00  0.00     0.321 C 
ATOM      5  O   UNL     1       4.170  -3.020  12.858  1.00  0.00    -0.248 OA
ATOM      6  N   UNL     1       5.153  -1.057  13.207  1.00  0.00    -0.334 N 
ATOM      7  H   UNL     1       3.469  -2.354  10.829  1.00  0.00     0.175 HD
ATOM      8  H   UNL     1       5.314  -1.410  14.139  1.00  0.00     0.165 HD
ENDROOT
BRANCH   1   9
ATOM      9  C   UNL     1       3.143  -0.582   9.143  1.00  0.00     0.040 A 
ATOM     10  C   UNL     1       3.535  -1.298   8.011  1.00  0.00     0.014 A 
ATOM     11  C   UNL     1       2.647  -1.428   6.943  1.00  0.00     0.004 A 
ATOM     12  C   UNL     1       1.897   0.051   9.188  1.00  0.00     0.014 A 
ATOM     13  C   UNL     1       1.374  -0.840   6.999  1.00  0.00    -0.051 A 
ATOM     14  C   UNL     1       1.010  -0.087   8.122  1.00  0.00     0.004 A 
ATOM     15  C   UNL     1       0.399  -1.061   5.880  1.00  0.00     0.044 C 
ENDBRANCH   1   9
BRANCH   6  16
ATOM     16  C   UNL     1       5.505   0.307  12.931  1.00  0.00     0.153 C 
BRANCH  16  17
ATOM     17  C   UNL     1       5.893   1.169  14.100  1.00  0.00    -0.029 A 
ATOM     18  C   UNL     1       5.277   2.392  14.385  1.00  0.00     0.006 A 
ATOM     19  C   UNL     1       6.763   0.610  15.051  1.00  0.00     0.006 A 
ATOM     20  C   UNL     1       5.512   3.026  15.610  1.00  0.00     0.004 A 
ATOM     21  C   UNL     1       6.992   1.239  16.270  1.00  0.00     0.004 A 
ATOM     22  C   UNL     1       6.360   2.448  16.565  1.00  0.00    -0.051 A 
ATOM     23  C   UNL     1       6.504   3.047  17.932  1.00  0.00     0.044 C 
ENDBRANCH  16  17
ENDBRANCH   6  16
TORSDOF 3
ENDMDL
MODEL 3
REMARK VINA RESULT:    -6.055      0.521      8.070
REMARK INTER + INTRA:          -7.483
REMARK INTER:                  -7.000
REMARK INTRA:                  -0.482
REMARK UNBOUND:                -0.366
REMARK SMILES Cc1ccc(CNC(=O)NC(=O)c2ccc(C)cc2)cc1
REMARK SMILES IDX 11 1 12 2 10 3 8 4 9 5 7 6 13 9 19 10 18 11 14 12 16 13
REMARK SMILES IDX 15 14 17 15 6 16 5 17 4 18 20 19 3 20 21 21 2 22 1 23
REMARK H PARENT 10 7 7 8
ROOT
ATOM      1  C   UNL     1       4.271  -3.004  12.126  1.00  0.00     0.259 C 
ATOM      2  O   UNL     1       3.766  -3.088  11.015  1.00  0.00    -0.269 OA
ATOM      3  N   UNL     1       4.804  -1.878  12.762  1.00  0.00    -0.274 N 
ATOM      4  C   UNL     1       4.788  -0.517  12.594  1.00  0.00     0.321 C 
ATOM      5  O   UNL     1       5.293   0.176  13.484  1.00  0.00    -0.248 OA
ATOM      6  N   UNL     1       4.228   0.096  11.535  1.00  0.00    -0.334 N 
ATOM      7  H   UNL     1       5.188  -2.061  13.679  1.00  0.00     0.175 HD
ATOM      8  H   UNL     1       4.224   1.103  11.603  1.00  0.00     0.165 HD
ENDROOT
BRANCH   1   9
ATOM      9  C   UNL     1       4.330  -4.246  12.920  1.00  0.00     0.040 A 
ATOM     10  C   UNL     1       4.699  -5.462  12.343  1.00  0.00     0.014 A 
ATOM     11  C   UNL     1       4.793  -6.600  13.145  1.00  0.00     0.004 A 
ATOM     12  C   UNL     1       3.998  -4.175  14.276  1.00  0.00     0.014 A 
ATOM     13  C   UNL     1       4.512  -6.528  14.518  1.00  0.00    -0.051 A 
ATOM     14  C   UNL     1       4.099  -5.312  15.076  1.00  0.00     0.004 A 
ATOM     15  C   UNL     1       4.698  -7.740  15.383  1.00  0.00     0.044 C 
ENDBRANCH   1   9
BRANCH   6  16
ATOM     16  C   UNL     1       3.506  -0.511  10.453  1.00  0.00     0.153 C 
BRANCH  16  17
ATOM     17  C   UNL     1       3.779   0.003   9.067  1.00  0.00    -0.029 A 
ATOM     18  C   UNL     1       3.091   1.082   8.502  1.00  0.00     0.006 A 
ATOM     19  C   UNL     1       4.916  -0.496   8.409  1.00  0.00     0.006 A 
ATOM     20  C   UNL     1       3.551   1.662   7.315  1.00  0.00     0.004 A 
ATOM     21  C   UNL     1       5.375   0.085   7.231  1.00  0.00     0.004 A 
ATOM     22  C   UNL     1       4.702   1.176   6.679  1.00  0.00    -0.051 A 
ATOM     23  C   UNL     1       5.281   1.881   5.489  1.00  0.00     0.044 C 
ENDBRANCH  16  17
ENDBRANCH   6  16
TORSDOF 3
ENDMDL
MODEL 4
REMARK VINA RESULT:    -6.035      3.180      7.316
REMARK INTER + INTRA:          -7.459
REMARK INTER:                  -6.974
REMARK INTRA:                  -0.485
REMARK UNBOUND:                -0.366
REMARK SMILES Cc1ccc(CNC(=O)NC(=O)c2ccc(C)cc2)cc1
REMARK SMILES IDX 11 1 12 2 10 3 8 4 9 5 7 6 13 9 19 10 18 11 14 12 16 13
REMARK SMILES IDX 15 14 17 15 6 16 5 17 4 18 20 19 3 20 21 21 2 22 1 23
REMARK H PARENT 10 7 7 8
ROOT
ATOM      1  C   UNL     1       5.143   0.421  12.847  1.00  0.00     0.259 C 
ATOM      2  O   UNL     1       5.051   1.086  11.825  1.00  0.00    -0.269 OA
ATOM      3  N   UNL     1       4.835  -0.929  13.043  1.00  0.00    -0.274 N 
ATOM      4  C   UNL     1       4.578  -2.033  12.270  1.00  0.00     0.321 C 
ATOM      5  O   UNL     1       4.478  -3.123  12.843  1.00  0.00    -0.248 OA
ATOM      6  N   UNL     1       4.461  -1.992  10.930  1.00  0.00    -0.334 N 
ATOM      7  H   UNL     1       4.974  -1.255  13.991  1.00  0.00     0.175 HD
ATOM      8  H   UNL     1       4.358  -2.901  10.503  1.00  0.00     0.165 HD
ENDROOT
BRANCH   1   9
ATOM      9  C   UNL     1       5.650   1.117  14.045  1.00  0.00     0.040 A 
ATOM     10  C   UNL     1       5.224   2.405  14.373  1.00  0.00     0.014 A 
ATOM     11  C   UNL     1       5.691   3.002  15.545  1.00  0.00     0.004 A 
ATOM     12  C   UNL     1       6.581   0.450  14.847  1.00  0.00     0.014 A 
ATOM     13  C   UNL     1       6.586   2.321  16.383  1.00  0.00    -0.051 A 
ATOM     14  C   UNL     1       7.040   1.048  16.019  1.00  0.00     0.004 A 
ATOM     15  C   UNL     1       7.013   2.942  17.681  1.00  0.00     0.044 C 
ENDBRANCH   1   9
BRANCH   6  16
ATOM     16  C   UNL     1       4.644  -0.858  10.069  1.00  0.00     0.153 C 
BRANCH  16  17
ATOM     17  C   UNL     1       3.655  -0.673   8.952  1.00  0.00    -0.029 A 
ATOM     18  C   UNL     1       3.828  -1.226   7.679  1.00  0.00     0.006 A 
ATOM     19  C   UNL     1       2.415  -0.099   9.279  1.00  0.00     0.006 A 
ATOM     20  C   UNL     1       2.770  -1.224   6.764  1.00  0.00     0.004 A 
ATOM     21  C   UNL     1       1.362  -0.101   8.369  1.00  0.00     0.004 A 
ATOM     22  C   UNL     1       1.527  -0.673   7.107  1.00  0.00    -0.051 A 
ATOM     23  C   UNL     1       0.350  -0.794   6.187  1.00  0.00     0.044 C 
ENDBRANCH  16  17
ENDBRANCH   6  16
TORSDOF 3
ENDMDL
MODEL 5
REMARK VINA RESULT:    -5.780      3.113      7.761
REMARK INTER + INTRA:          -7.160
REMARK INTER:                  -6.698
REMARK INTRA:                  -0.462
REMARK UNBOUND:                -0.366
REMARK SMILES Cc1ccc(CNC(=O)NC(=O)c2ccc(C)cc2)cc1
REMARK SMILES IDX 11 1 12 2 10 3 8 4 9 5 7 6 13 9 19 10 18 11 14 12 16 13
REMARK SMILES IDX 15 14 17 15 6 16 5 17 4 18 20 19 3 20 21 21 2 22 1 23
REMARK H PARENT 10 7 7 8
ROOT
ATOM      1  C   UNL     1       5.297   0.588  12.798  1.00  0.00     0.259 C 
ATOM      2  O   UNL     1       5.425   1.266  11.788  1.00  0.00    -0.269 OA
ATOM      3  N   UNL     1       4.790  -0.709  12.922  1.00  0.00    -0.274 N 
ATOM      4  C   UNL     1       4.489  -1.763  12.098  1.00  0.00     0.321 C 
ATOM      5  O   UNL     1       4.172  -2.833  12.628  1.00  0.00    -0.248 OA
ATOM      6  N   UNL     1       4.550  -1.698  10.755  1.00  0.00    -0.334 N 
ATOM      7  H   UNL     1       4.762  -1.057  13.871  1.00  0.00     0.175 HD
ATOM      8  H   UNL     1       4.382  -2.582  10.297  1.00  0.00     0.165 HD
ENDROOT
BRANCH   1   9
ATOM      9  C   UNL     1       5.735   1.202  14.066  1.00  0.00     0.040 A 
ATOM     10  C   UNL     1       5.275   2.458  14.464  1.00  0.00     0.014 A 
ATOM     11  C   UNL     1       5.676   2.975  15.696  1.00  0.00     0.004 A 
ATOM     12  C   UNL     1       6.638   0.491  14.862  1.00  0.00     0.014 A 
ATOM     13  C   UNL     1       6.541   2.246  16.527  1.00  0.00    -0.051 A 
ATOM     14  C   UNL     1       7.031   1.007  16.095  1.00  0.00     0.004 A 
ATOM     15  C   UNL     1       6.896   2.776  17.885  1.00  0.00     0.044 C 
ENDBRANCH   1   9
BRANCH   6  16
ATOM     16  C   UNL     1       4.990  -0.594   9.950  1.00  0.00     0.153 C 
BRANCH  16  17
ATOM     17  C   UNL     1       4.136  -0.215   8.772  1.00  0.00    -0.029 A 
ATOM     18  C   UNL     1       3.776   1.105   8.483  1.00  0.00     0.006 A 
ATOM     19  C   UNL     1       3.876  -1.213   7.819  1.00  0.00     0.006 A 
ATOM     20  C   UNL     1       3.190   1.418   7.252  1.00  0.00     0.004 A 
ATOM     21  C   UNL     1       3.297  -0.900   6.593  1.00  0.00     0.004 A 
ATOM     22  C   UNL     1       2.958   0.420   6.294  1.00  0.00    -0.051 A 
ATOM     23  C   UNL     1       2.464   0.767   4.922  1.00  0.00     0.044 C 
ENDBRANCH  16  17
ENDBRANCH   6  16
TORSDOF 3
ENDMDL
MODEL 6
REMARK VINA RESULT:    -5.775      1.251      8.037
REMARK INTER + INTRA:          -7.154
REMARK INTER:                  -6.695
REMARK INTRA:                  -0.459
REMARK UNBOUND:                -0.366
REMARK SMILES Cc1ccc(CNC(=O)NC(=O)c2ccc(C)cc2)cc1
REMARK SMILES IDX 11 1 12 2 10 3 8 4 9 5 7 6 13 9 19 10 18 11 14 12 16 13
REMARK SMILES IDX 15 14 17 15 6 16 5 17 4 18 20 19 3 20 21 21 2 22 1 23
REMARK H PARENT 10 7 7 8
ROOT
ATOM      1  C   UNL     1       4.073  -3.173  12.105  1.00  0.00     0.259 C 
ATOM      2  O   UNL     1       3.385  -3.310  11.103  1.00  0.00    -0.269 OA
ATOM      3  N   UNL     1       4.737  -2.031  12.562  1.00  0.00    -0.274 N 
ATOM      4  C   UNL     1       4.731  -0.684  12.304  1.00  0.00     0.321 C 
ATOM      5  O   UNL     1       5.398   0.045  13.046  1.00  0.00    -0.248 OA
ATOM      6  N   UNL     1       4.018  -0.120  11.312  1.00  0.00    -0.334 N 
ATOM      7  H   UNL     1       5.266  -2.168  13.413  1.00  0.00     0.175 HD
ATOM      8  H   UNL     1       4.053   0.890  11.309  1.00  0.00     0.165 HD
ENDROOT
BRANCH   1   9
ATOM      9  C   UNL     1       4.231  -4.363  12.965  1.00  0.00     0.040 A 
ATOM     10  C   UNL     1       4.652  -5.587  12.443  1.00  0.00     0.014 A 
ATOM     11  C   UNL     1       4.838  -6.669  13.303  1.00  0.00     0.004 A 
ATOM     12  C   UNL     1       3.939  -4.233  14.326  1.00  0.00     0.014 A 
ATOM     13  C   UNL     1       4.598  -6.535  14.679  1.00  0.00    -0.051 A 
ATOM     14  C   UNL     1       4.133  -5.314  15.183  1.00  0.00     0.004 A 
ATOM     15  C   UNL     1       4.884  -7.683  15.602  1.00  0.00     0.044 C 
ENDBRANCH   1   9
BRANCH   6  16
ATOM     16  C   UNL     1       3.106  -0.766  10.411  1.00  0.00     0.153 C 
BRANCH  16  17
ATOM     17  C   UNL     1       3.216  -0.421   8.952  1.00  0.00    -0.029 A 
ATOM     18  C   UNL     1       3.175  -1.381   7.935  1.00  0.00     0.006 A 
ATOM     19  C   UNL     1       3.144   0.938   8.606  1.00  0.00     0.006 A 
ATOM     20  C   UNL     1       3.040  -0.982   6.601  1.00  0.00     0.004 A 
ATOM     21  C   UNL     1       3.005   1.333   7.279  1.00  0.00     0.004 A 
ATOM     22  C   UNL     1       2.941   0.376   6.265  1.00  0.00    -0.051 A 
ATOM     23  C   UNL     1       2.653   0.804   4.857  1.00  0.00     0.044 C 
ENDBRANCH  16  17
ENDBRANCH   6  16
TORSDOF 3
ENDMDL
MODEL 7
REMARK VINA RESULT:    -4.551      2.244      3.881
REMARK INTER + INTRA:          -5.715
REMARK INTER:                  -5.272
REMARK INTRA:                  -0.442
REMARK UNBOUND:                -0.366
REMARK SMILES Cc1ccc(CNC(=O)NC(=O)c2ccc(C)cc2)cc1
REMARK SMILES IDX 11 1 12 2 10 3 8 4 9 5 7 6 13 9 19 10 18 11 14 12 16 13
REMARK SMILES IDX 15 14 17 15 6 16 5 17 4 18 20 19 3 20 21 21 2 22 1 23
REMARK H PARENT 10 7 7 8
ROOT
ATOM      1  C   UNL     1       4.009  -3.547  12.489  1.00  0.00     0.259 C 
ATOM      2  O   UNL     1       3.872  -4.626  11.931  1.00  0.00    -0.269 OA
ATOM      3  N   UNL     1       4.153  -3.278  13.854  1.00  0.00    -0.274 N 
ATOM      4  C   UNL     1       4.427  -3.978  15.000  1.00  0.00     0.321 C 
ATOM      5  O   UNL     1       4.609  -3.332  16.037  1.00  0.00    -0.248 OA
ATOM      6  N   UNL     1       4.536  -5.319  15.046  1.00  0.00    -0.334 N 
ATOM      7  H   UNL     1       4.230  -2.295  14.080  1.00  0.00     0.175 HD
ATOM      8  H   UNL     1       4.826  -5.673  15.946  1.00  0.00     0.165 HD
ENDROOT
BRANCH   1   9
ATOM      9  C   UNL     1       4.032  -2.353  11.621  1.00  0.00     0.040 A 
ATOM     10  C   UNL     1       5.210  -1.920  11.010  1.00  0.00     0.014 A 
ATOM     11  C   UNL     1       5.172  -0.818  10.156  1.00  0.00     0.004 A 
ATOM     12  C   UNL     1       2.835  -1.656  11.431  1.00  0.00     0.014 A 
ATOM     13  C   UNL     1       3.965  -0.143   9.917  1.00  0.00    -0.051 A 
ATOM     14  C   UNL     1       2.800  -0.560  10.572  1.00  0.00     0.004 A 
ATOM     15  C   UNL     1       3.924   0.988   8.931  1.00  0.00     0.044 C 
ENDBRANCH   1   9
BRANCH   6  16
ATOM     16  C   UNL     1       4.465  -6.241  13.948  1.00  0.00     0.153 C 
BRANCH  16  17
ATOM     17  C   UNL     1       5.471  -7.359  13.919  1.00  0.00    -0.029 A 
ATOM     18  C   UNL     1       6.816  -7.167  13.587  1.00  0.00     0.006 A 
ATOM     19  C   UNL     1       5.073  -8.595  14.453  1.00  0.00     0.006 A 
ATOM     20  C   UNL     1       7.745  -8.189  13.811  1.00  0.00     0.004 A 
ATOM     21  C   UNL     1       5.999  -9.609  14.679  1.00  0.00     0.004 A 
ATOM     22  C   UNL     1       7.346  -9.411  14.370  1.00  0.00    -0.051 A 
ATOM     23  C   UNL     1       8.355 -10.455  14.744  1.00  0.00     0.044 C 
ENDBRANCH  16  17
ENDBRANCH   6  16
TORSDOF 3
ENDMDL
MODEL 8
REMARK VINA RESULT:    -4.421      3.952      7.863
REMARK INTER + INTRA:          -5.562
REMARK INTER:                  -5.144
REMARK INTRA:                  -0.418
REMARK UNBOUND:                -0.366
REMARK SMILES Cc1ccc(CNC(=O)NC(=O)c2ccc(C)cc2)cc1
REMARK SMILES IDX 11 1 12 2 10 3 8 4 9 5 7 6 13 9 19 10 18 11 14 12 16 13
REMARK SMILES IDX 15 14 17 15 6 16 5 17 4 18 20 19 3 20 21 21 2 22 1 23
REMARK H PARENT 10 7 7 8
ROOT
ATOM      1  C   UNL     1       5.119   0.128  11.964  1.00  0.00     0.259 C 
ATOM      2  O   UNL     1       3.933   0.176  11.670  1.00  0.00    -0.269 OA
ATOM      3  N   UNL     1       6.173  -0.460  11.258  1.00  0.00    -0.274 N 
ATOM      4  C   UNL     1       6.400  -0.950   9.997  1.00  0.00     0.321 C 
ATOM      5  O   UNL     1       7.556  -1.278   9.709  1.00  0.00    -0.248 OA
ATOM      6  N   UNL     1       5.441  -1.061   9.059  1.00  0.00    -0.334 N 
ATOM      7  H   UNL     1       7.072  -0.390  11.716  1.00  0.00     0.175 HD
ATOM      8  H   UNL     1       5.787  -1.358   8.158  1.00  0.00     0.165 HD
ENDROOT
BRANCH   1   9
ATOM      9  C   UNL     1       5.512   0.778  13.229  1.00  0.00     0.040 A 
ATOM     10  C   UNL     1       5.100   2.074  13.541  1.00  0.00     0.014 A 
ATOM     11  C   UNL     1       5.453   2.627  14.773  1.00  0.00     0.004 A 
ATOM     12  C   UNL     1       6.322   0.057  14.113  1.00  0.00     0.014 A 
ATOM     13  C   UNL     1       6.221   1.893  15.689  1.00  0.00    -0.051 A 
ATOM     14  C   UNL     1       6.667   0.610  15.345  1.00  0.00     0.004 A 
ATOM     15  C   UNL     1       6.521   2.468  17.042  1.00  0.00     0.044 C 
ENDBRANCH   1   9
BRANCH   6  16
ATOM     16  C   UNL     1       4.071  -0.644   9.153  1.00  0.00     0.153 C 
BRANCH  16  17
ATOM     17  C   UNL     1       3.443  -0.054   7.920  1.00  0.00    -0.029 A 
ATOM     18  C   UNL     1       3.835   1.174   7.378  1.00  0.00     0.006 A 
ATOM     19  C   UNL     1       2.580  -0.879   7.180  1.00  0.00     0.006 A 
ATOM     20  C   UNL     1       3.388   1.553   6.107  1.00  0.00     0.004 A 
ATOM     21  C   UNL     1       2.140  -0.503   5.915  1.00  0.00     0.004 A 
ATOM     22  C   UNL     1       2.548   0.712   5.363  1.00  0.00    -0.051 A 
ATOM     23  C   UNL     1       2.181   1.044   3.948  1.00  0.00     0.044 C 
ENDBRANCH  16  17
ENDBRANCH   6  16
TORSDOF 3
ENDMDL
MODEL 9
REMARK VINA RESULT:    -3.726      4.038      5.004
REMARK INTER + INTRA:          -4.745
REMARK INTER:                  -4.406
REMARK INTRA:                  -0.339
REMARK UNBOUND:                -0.366
REMARK SMILES Cc1ccc(CNC(=O)NC(=O)c2ccc(C)cc2)cc1
REMARK SMILES IDX 11 1 12 2 10 3 8 4 9 5 7 6 13 9 19 10 18 11 14 12 16 13
REMARK SMILES IDX 15 14 17 15 6 16 5 17 4 18 20 19 3 20 21 21 2 22 1 23
REMARK H PARENT 10 7 7 8
ROOT
ATOM      1  C   UNL     1       5.019   0.025  12.068  1.00  0.00     0.259 C 
ATOM      2  O   UNL     1       5.054  -0.880  12.889  1.00  0.00    -0.269 OA
ATOM      3  N   UNL     1       5.350   1.373  12.236  1.00  0.00    -0.274 N 
ATOM      4  C   UNL     1       6.007   2.148  13.158  1.00  0.00     0.321 C 
ATOM      5  O   UNL     1       6.216   3.330  12.868  1.00  0.00    -0.248 OA
ATOM      6  N   UNL     1       6.456   1.681  14.337  1.00  0.00    -0.334 N 
ATOM      7  H   UNL     1       5.219   1.941  11.410  1.00  0.00     0.175 HD
ATOM      8  H   UNL     1       6.993   2.355  14.864  1.00  0.00     0.165 HD
ENDROOT
BRANCH   1   9
ATOM      9  C   UNL     1       4.574  -0.335  10.708  1.00  0.00     0.040 A 
ATOM     10  C   UNL     1       3.219  -0.407  10.380  1.00  0.00     0.014 A 
ATOM     11  C   UNL     1       2.847  -0.699   9.068  1.00  0.00     0.004 A 
ATOM     12  C   UNL     1       5.553  -0.611   9.748  1.00  0.00     0.014 A 
ATOM     13  C   UNL     1       3.822  -0.927   8.085  1.00  0.00    -0.051 A 
ATOM     14  C   UNL     1       5.177  -0.896   8.437  1.00  0.00     0.004 A 
ATOM     15  C   UNL     1       3.408  -1.155   6.661  1.00  0.00     0.044 C 
ENDBRANCH   1   9
BRANCH   6  16
ATOM     16  C   UNL     1       6.410   0.329  14.819  1.00  0.00     0.153 C 
BRANCH  16  17
ATOM     17  C   UNL     1       7.208   0.009  16.053  1.00  0.00    -0.029 A 
ATOM     18  C   UNL     1       6.701  -0.747  17.115  1.00  0.00     0.006 A 
ATOM     19  C   UNL     1       8.580   0.309  16.028  1.00  0.00     0.006 A 
ATOM     20  C   UNL     1       7.560  -1.212  18.116  1.00  0.00     0.004 A 
ATOM     21  C   UNL     1       9.434  -0.159  17.021  1.00  0.00     0.004 A 
ATOM     22  C   UNL     1       8.933  -0.932  18.070  1.00  0.00    -0.051 A 
ATOM     23  C   UNL     1       9.880  -1.544  19.058  1.00  0.00     0.044 C 
ENDBRANCH  16  17
ENDBRANCH   6  16
TORSDOF 3
ENDMDL
