MODEL 1
REMARK VINA RESULT:    -6.240      0.000      0.000
REMARK INTER + INTRA:          -7.813
REMARK INTER:                  -7.335
REMARK INTRA:                  -0.478
REMARK UNBOUND:                -0.478
REMARK SMILES Cc1ccc(CNC(=O)NC(=O)c2ccc(C)cc2)cc1
REMARK SMILES IDX 11 1 12 2 10 3 8 4 9 5 7 6 13 9 19 10 18 11 14 12 16 13
REMARK SMILES IDX 15 14 17 15 6 16 5 17 4 18 20 19 3 20 21 21 2 22 1 23
REMARK H PARENT 10 7 7 8
ROOT
ATOM      1  C   UNL     1      -8.267  -9.676  -3.698  1.00  0.00     0.259 C 
ATOM      2  O   UNL     1      -7.523  -8.743  -3.965  1.00  0.00    -0.269 OA
ATOM      3  N   UNL     1      -8.624 -10.181  -2.444  1.00  0.00    -0.274 N 
ATOM      4  C   UNL     1      -8.542  -9.788  -1.133  1.00  0.00     0.321 C 
ATOM      5  O   UNL     1      -9.118 -10.483  -0.288  1.00  0.00    -0.248 OA
ATOM      6  N   UNL     1      -7.899  -8.677  -0.728  1.00  0.00    -0.334 N 
ATOM      7  H   UNL     1      -9.243 -10.980  -2.476  1.00  0.00     0.175 HD
ATOM      8  H   UNL     1      -8.004  -8.482   0.258  1.00  0.00     0.165 HD
ENDROOT
BRANCH   1   9
ATOM      9  C   UNL     1      -8.886 -10.375  -4.841  1.00  0.00     0.040 A 
ATOM     10  C   UNL     1      -8.158 -10.669  -5.996  1.00  0.00     0.014 A 
ATOM     11  C   UNL     1      -8.772 -11.377  -7.029  1.00  0.00     0.004 A 
ATOM     12  C   UNL     1     -10.235 -10.731  -4.741  1.00  0.00     0.014 A 
ATOM     13  C   UNL     1     -10.110 -11.785  -6.917  1.00  0.00    -0.051 A 
ATOM     14  C   UNL     1     -10.842 -11.444  -5.773  1.00  0.00     0.004 A 
ATOM     15  C   UNL     1     -10.729 -12.619  -8.000  1.00  0.00     0.044 C 
ENDBRANCH   1   9
BRANCH   6  16
ATOM     16  C   UNL     1      -7.260  -7.686  -1.548  1.00  0.00     0.153 C 
BRANCH  16  17
ATOM     17  C   UNL     1      -5.941  -7.144  -1.073  1.00  0.00    -0.029 A 
ATOM     18  C   UNL     1      -5.833  -6.064  -0.190  1.00  0.00     0.006 A 
ATOM     19  C   UNL     1      -4.792  -7.894  -1.371  1.00  0.00     0.006 A 
ATOM     20  C   UNL     1      -4.600  -5.763   0.399  1.00  0.00     0.004 A 
ATOM     21  C   UNL     1      -3.568  -7.596  -0.781  1.00  0.00     0.004 A 
ATOM     22  C   UNL     1      -3.464  -6.533   0.118  1.00  0.00    -0.051 A 
ATOM     23  C   UNL     1      -2.176  -6.306   0.852  1.00  0.00     0.044 C 
ENDBRANCH  16  17
ENDBRANCH   6  16
TORSDOF 3
ENDMDL
MODEL 2
REMARK VINA RESULT:    -6.236      3.049      5.487
REMARK INTER + INTRA:          -7.808
REMARK INTER:                  -7.327
REMARK INTRA:                  -0.481
REMARK UNBOUND:                -0.478
REMARK SMILES Cc1ccc(CNC(=O)NC(=O)c2ccc(C)cc2)cc1
REMARK SMILES IDX 11 1 12 2 10 3 8 4 9 5 7 6 13 9 19 10 18 11 14 12 16 13
REMARK SMILES IDX 15 14 17 15 6 16 5 17 4 18 20 19 3 20 21 21 2 22 1 23
REMARK H PARENT 10 7 7 8
ROOT
ATOM      1  C   UNL     1      -8.644 -10.006  -0.052  1.00  0.00     0.259 C 
ATOM      2  O   UNL     1      -7.830  -9.291   0.516  1.00  0.00    -0.269 OA
ATOM      3  N   UNL     1      -8.896 -10.129  -1.421  1.00  0.00    -0.274 N 
ATOM      4  C   UNL     1      -8.291  -9.773  -2.599  1.00  0.00     0.321 C 
ATOM      5  O   UNL     1      -8.785 -10.199  -3.649  1.00  0.00    -0.248 OA
ATOM      6  N   UNL     1      -7.180  -9.016  -2.666  1.00  0.00    -0.334 N 
ATOM      7  H   UNL     1      -9.639 -10.775  -1.652  1.00  0.00     0.175 HD
ATOM      8  H   UNL     1      -6.812  -8.917  -3.601  1.00  0.00     0.165 HD
ENDROOT
BRANCH   1   9
ATOM      9  C   UNL     1      -9.478 -10.867   0.808  1.00  0.00     0.040 A 
ATOM     10  C   UNL     1     -10.031 -10.390   1.998  1.00  0.00     0.014 A 
ATOM     11  C   UNL     1     -10.857 -11.226   2.751  1.00  0.00     0.004 A 
ATOM     12  C   UNL     1      -9.698 -12.187   0.401  1.00  0.00     0.014 A 
ATOM     13  C   UNL     1     -11.125 -12.535   2.324  1.00  0.00    -0.051 A 
ATOM     14  C   UNL     1     -10.528 -13.015   1.153  1.00  0.00     0.004 A 
ATOM     15  C   UNL     1     -12.082 -13.392   3.100  1.00  0.00     0.044 C 
ENDBRANCH   1   9
BRANCH   6  16
ATOM     16  C   UNL     1      -6.397  -8.512  -1.574  1.00  0.00     0.153 C 
BRANCH  16  17
ATOM     17  C   UNL     1      -5.894  -7.099  -1.681  1.00  0.00    -0.029 A 
ATOM     18  C   UNL     1      -4.681  -6.764  -2.292  1.00  0.00     0.006 A 
ATOM     19  C   UNL     1      -6.786  -6.070  -1.337  1.00  0.00     0.006 A 
ATOM     20  C   UNL     1      -4.384  -5.427  -2.574  1.00  0.00     0.004 A 
ATOM     21  C   UNL     1      -6.492  -4.741  -1.621  1.00  0.00     0.004 A 
ATOM     22  C   UNL     1      -5.292  -4.408  -2.252  1.00  0.00    -0.051 A 
ATOM     23  C   UNL     1      -5.045  -2.992  -2.678  1.00  0.00     0.044 C 
ENDBRANCH  16  17
ENDBRANCH   6  16
TORSDOF 3
ENDMDL
MODEL 3
REMARK VINA RESULT:    -6.214      3.174      7.318
REMARK INTER + INTRA:          -7.782
REMARK INTER:                  -7.411
REMARK INTRA:                  -0.371
REMARK UNBOUND:                -0.478
REMARK SMILES Cc1ccc(CNC(=O)NC(=O)c2ccc(C)cc2)cc1
REMARK SMILES IDX 11 1 12 2 10 3 8 4 9 5 7 6 13 9 19 10 18 11 14 12 16 13
REMARK SMILES IDX 15 14 17 15 6 16 5 17 4 18 20 19 3 20 21 21 2 22 1 23
REMARK H PARENT 10 7 7 8
ROOT
ATOM      1  C   UNL     1      -6.899  -8.030  -1.358  1.00  0.00     0.259 C 
ATOM      2  O   UNL     1      -6.732  -8.407  -0.207  1.00  0.00    -0.269 OA
ATOM      3  N   UNL     1      -7.596  -8.661  -2.394  1.00  0.00    -0.274 N 
ATOM      4  C   UNL     1      -8.491  -9.690  -2.532  1.00  0.00     0.321 C 
ATOM      5  O   UNL     1      -8.999  -9.863  -3.645  1.00  0.00    -0.248 OA
ATOM      6  N   UNL     1      -8.862 -10.495  -1.519  1.00  0.00    -0.334 N 
ATOM      7  H   UNL     1      -7.578  -8.162  -3.273  1.00  0.00     0.175 HD
ATOM      8  H   UNL     1      -9.593 -11.148  -1.765  1.00  0.00     0.165 HD
ENDROOT
BRANCH   1   9
ATOM      9  C   UNL     1      -6.296  -6.733  -1.723  1.00  0.00     0.040 A 
ATOM     10  C   UNL     1      -5.104  -6.663  -2.447  1.00  0.00     0.014 A 
ATOM     11  C   UNL     1      -4.599  -5.415  -2.814  1.00  0.00     0.004 A 
ATOM     12  C   UNL     1      -6.950  -5.567  -1.316  1.00  0.00     0.014 A 
ATOM     13  C   UNL     1      -5.276  -4.240  -2.455  1.00  0.00    -0.051 A 
ATOM     14  C   UNL     1      -6.446  -4.323  -1.690  1.00  0.00     0.004 A 
ATOM     15  C   UNL     1      -4.767  -2.911  -2.930  1.00  0.00     0.044 C 
ENDBRANCH   1   9
BRANCH   6  16
ATOM     16  C   UNL     1      -8.475 -10.402  -0.140  1.00  0.00     0.153 C 
BRANCH  16  17
ATOM     17  C   UNL     1      -9.348 -11.095   0.870  1.00  0.00    -0.029 A 
ATOM     18  C   UNL     1      -9.925 -10.436   1.960  1.00  0.00     0.006 A 
ATOM     19  C   UNL     1      -9.759 -12.405   0.573  1.00  0.00     0.006 A 
ATOM     20  C   UNL     1     -10.912 -11.072   2.720  1.00  0.00     0.004 A 
ATOM     21  C   UNL     1     -10.745 -13.034   1.327  1.00  0.00     0.004 A 
ATOM     22  C   UNL     1     -11.338 -12.369   2.401  1.00  0.00    -0.051 A 
ATOM     23  C   UNL     1     -12.492 -13.002   3.120  1.00  0.00     0.044 C 
ENDBRANCH  16  17
ENDBRANCH   6  16
TORSDOF 3
ENDMDL
MODEL 4
REMARK VINA RESULT:    -6.200      0.535      8.052
REMARK INTER + INTRA:          -7.766
REMARK INTER:                  -7.392
REMARK INTRA:                  -0.373
REMARK UNBOUND:                -0.478
REMARK SMILES Cc1ccc(CNC(=O)NC(=O)c2ccc(C)cc2)cc1
REMARK SMILES IDX 11 1 12 2 10 3 8 4 9 5 7 6 13 9 19 10 18 11 14 12 16 13
REMARK SMILES IDX 15 14 17 15 6 16 5 17 4 18 20 19 3 20 21 21 2 22 1 23
REMARK H PARENT 10 7 7 8
ROOT
ATOM      1  C   UNL     1      -6.724  -8.102  -1.726  1.00  0.00     0.259 C 
ATOM      2  O   UNL     1      -6.909  -7.729  -2.876  1.00  0.00    -0.269 OA
ATOM      3  N   UNL     1      -7.463  -9.020  -0.973  1.00  0.00    -0.274 N 
ATOM      4  C   UNL     1      -8.422  -9.975  -1.197  1.00  0.00     0.321 C 
ATOM      5  O   UNL     1      -8.740 -10.701  -0.249  1.00  0.00    -0.248 OA
ATOM      6  N   UNL     1      -9.004 -10.179  -2.393  1.00  0.00    -0.334 N 
ATOM      7  H   UNL     1      -7.128  -9.151  -0.028  1.00  0.00     0.175 HD
ATOM      8  H   UNL     1      -9.625 -10.975  -2.413  1.00  0.00     0.165 HD
ENDROOT
BRANCH   1   9
ATOM      9  C   UNL     1      -5.567  -7.518  -1.020  1.00  0.00     0.040 A 
ATOM     10  C   UNL     1      -5.721  -6.471  -0.109  1.00  0.00     0.014 A 
ATOM     11  C   UNL     1      -4.604  -5.988   0.572  1.00  0.00     0.004 A 
ATOM     12  C   UNL     1      -4.299  -8.040  -1.295  1.00  0.00     0.014 A 
ATOM     13  C   UNL     1      -3.335  -6.539   0.342  1.00  0.00    -0.051 A 
ATOM     14  C   UNL     1      -3.187  -7.558  -0.607  1.00  0.00     0.004 A 
ATOM     15  C   UNL     1      -2.159  -6.067   1.144  1.00  0.00     0.044 C 
ENDBRANCH   1   9
BRANCH   6  16
ATOM     16  C   UNL     1      -8.707  -9.523  -3.635  1.00  0.00     0.153 C 
BRANCH  16  17
ATOM     17  C   UNL     1      -9.111 -10.226  -4.901  1.00  0.00    -0.029 A 
ATOM     18  C   UNL     1      -8.207 -10.542  -5.921  1.00  0.00     0.006 A 
ATOM     19  C   UNL     1     -10.407 -10.767  -4.951  1.00  0.00     0.006 A 
ATOM     20  C   UNL     1      -8.592 -11.403  -6.955  1.00  0.00     0.004 A 
ATOM     21  C   UNL     1     -10.786 -11.626  -5.977  1.00  0.00     0.004 A 
ATOM     22  C   UNL     1      -9.877 -11.960  -6.983  1.00  0.00    -0.051 A 
ATOM     23  C   UNL     1     -10.249 -12.992  -8.006  1.00  0.00     0.044 C 
ENDBRANCH  16  17
ENDBRANCH   6  16
TORSDOF 3
ENDMDL
MODEL 5
REMARK VINA RESULT:    -5.933      2.965      5.284
REMARK INTER + INTRA:          -7.452
REMARK INTER:                  -6.952
REMARK INTRA:                  -0.500
REMARK UNBOUND:                -0.478
REMARK SMILES Cc1ccc(CNC(=O)NC(=O)c2ccc(C)cc2)cc1
REMARK SMILES IDX 11 1 12 2 10 3 8 4 9 5 7 6 13 9 19 10 18 11 14 12 16 13
REMARK SMILES IDX 15 14 17 15 6 16 5 17 4 18 20 19 3 20 21 21 2 22 1 23
REMARK H PARENT 10 7 7 8
ROOT
ATOM      1  C   UNL     1      -8.589 -10.528   0.100  1.00  0.00     0.259 C 
ATOM      2  O   UNL     1      -7.521 -10.225   0.614  1.00  0.00    -0.269 OA
ATOM      3  N   UNL     1      -9.022 -10.310  -1.211  1.00  0.00    -0.274 N 
ATOM      4  C   UNL     1      -8.469  -9.955  -2.415  1.00  0.00     0.321 C 
ATOM      5  O   UNL     1      -9.194 -10.001  -3.415  1.00  0.00    -0.248 OA
ATOM      6  N   UNL     1      -7.182  -9.592  -2.565  1.00  0.00    -0.334 N 
ATOM      7  H   UNL     1      -9.962 -10.632  -1.399  1.00  0.00     0.175 HD
ATOM      8  H   UNL     1      -6.910  -9.445  -3.526  1.00  0.00     0.165 HD
ENDROOT
BRANCH   1   9
ATOM      9  C   UNL     1      -9.564 -11.221   0.964  1.00  0.00     0.040 A 
ATOM     10  C   UNL     1     -10.124 -10.595   2.079  1.00  0.00     0.014 A 
ATOM     11  C   UNL     1     -11.081 -11.272   2.834  1.00  0.00     0.004 A 
ATOM     12  C   UNL     1      -9.911 -12.536   0.638  1.00  0.00     0.014 A 
ATOM     13  C   UNL     1     -11.475 -12.573   2.485  1.00  0.00    -0.051 A 
ATOM     14  C   UNL     1     -10.873 -13.206   1.391  1.00  0.00     0.004 A 
ATOM     15  C   UNL     1     -12.566 -13.255   3.257  1.00  0.00     0.044 C 
ENDBRANCH   1   9
BRANCH   6  16
ATOM     16  C   UNL     1      -6.155  -9.572  -1.562  1.00  0.00     0.153 C 
BRANCH  16  17
ATOM     17  C   UNL     1      -5.432  -8.273  -1.340  1.00  0.00    -0.029 A 
ATOM     18  C   UNL     1      -6.086  -7.081  -1.012  1.00  0.00     0.006 A 
ATOM     19  C   UNL     1      -4.031  -8.323  -1.257  1.00  0.00     0.006 A 
ATOM     20  C   UNL     1      -5.349  -5.972  -0.584  1.00  0.00     0.004 A 
ATOM     21  C   UNL     1      -3.299  -7.220  -0.827  1.00  0.00     0.004 A 
ATOM     22  C   UNL     1      -3.953  -6.038  -0.477  1.00  0.00    -0.051 A 
ATOM     23  C   UNL     1      -3.170  -4.904   0.115  1.00  0.00     0.044 C 
ENDBRANCH  16  17
ENDBRANCH   6  16
TORSDOF 3
ENDMDL
MODEL 6
REMARK VINA RESULT:    -5.916      0.973      1.474
REMARK INTER + INTRA:          -7.431
REMARK INTER:                  -7.016
REMARK INTRA:                  -0.415
REMARK UNBOUND:                -0.478
REMARK SMILES Cc1ccc(CNC(=O)NC(=O)c2ccc(C)cc2)cc1
REMARK SMILES IDX 11 1 12 2 10 3 8 4 9 5 7 6 13 9 19 10 18 11 14 12 16 13
REMARK SMILES IDX 15 14 17 15 6 16 5 17 4 18 20 19 3 20 21 21 2 22 1 23
REMARK H PARENT 10 7 7 8
ROOT
ATOM      1  C   UNL     1      -8.559  -9.669  -3.944  1.00  0.00     0.259 C 
ATOM      2  O   UNL     1      -8.034  -8.601  -4.224  1.00  0.00    -0.269 OA
ATOM      3  N   UNL     1      -8.714 -10.266  -2.689  1.00  0.00    -0.274 N 
ATOM      4  C   UNL     1      -8.609  -9.898  -1.372  1.00  0.00     0.321 C 
ATOM      5  O   UNL     1      -8.971 -10.714  -0.518  1.00  0.00    -0.248 OA
ATOM      6  N   UNL     1      -8.166  -8.692  -0.969  1.00  0.00    -0.334 N 
ATOM      7  H   UNL     1      -9.165 -11.171  -2.710  1.00  0.00     0.175 HD
ATOM      8  H   UNL     1      -8.231  -8.547   0.028  1.00  0.00     0.165 HD
ENDROOT
BRANCH   1   9
ATOM      9  C   UNL     1      -9.116 -10.447  -5.068  1.00  0.00     0.040 A 
ATOM     10  C   UNL     1      -8.341 -10.773  -6.182  1.00  0.00     0.014 A 
ATOM     11  C   UNL     1      -8.895 -11.555  -7.196  1.00  0.00     0.004 A 
ATOM     12  C   UNL     1     -10.454 -10.846  -4.991  1.00  0.00     0.014 A 
ATOM     13  C   UNL     1     -10.221 -12.004  -7.104  1.00  0.00    -0.051 A 
ATOM     14  C   UNL     1     -11.001 -11.633  -6.003  1.00  0.00     0.004 A 
ATOM     15  C   UNL     1     -10.776 -12.914  -8.161  1.00  0.00     0.044 C 
ENDBRANCH   1   9
BRANCH   6  16
ATOM     16  C   UNL     1      -7.798  -7.575  -1.792  1.00  0.00     0.153 C 
BRANCH  16  17
ATOM     17  C   UNL     1      -6.609  -6.762  -1.360  1.00  0.00    -0.029 A 
ATOM     18  C   UNL     1      -5.331  -7.307  -1.195  1.00  0.00     0.006 A 
ATOM     19  C   UNL     1      -6.760  -5.366  -1.331  1.00  0.00     0.006 A 
ATOM     20  C   UNL     1      -4.227  -6.465  -1.030  1.00  0.00     0.004 A 
ATOM     21  C   UNL     1      -5.660  -4.530  -1.171  1.00  0.00     0.004 A 
ATOM     22  C   UNL     1      -4.382  -5.072  -1.029  1.00  0.00    -0.051 A 
ATOM     23  C   UNL     1      -3.190  -4.163  -0.995  1.00  0.00     0.044 C 
ENDBRANCH  16  17
ENDBRANCH   6  16
TORSDOF 3
ENDMDL
MODEL 7
REMARK VINA RESULT:    -4.733      7.244     10.009
REMARK INTER + INTRA:          -6.041
REMARK INTER:                  -5.863
REMARK INTRA:                  -0.178
REMARK UNBOUND:                -0.478
REMARK SMILES Cc1ccc(CNC(=O)NC(=O)c2ccc(C)cc2)cc1
REMARK SMILES IDX 11 1 12 2 10 3 8 4 9 5 7 6 13 9 19 10 18 11 14 12 16 13
REMARK SMILES IDX 15 14 17 15 6 16 5 17 4 18 20 19 3 20 21 21 2 22 1 23
REMARK H PARENT 10 7 7 8
ROOT
ATOM      1  C   UNL     1     -11.580 -12.002   2.837  1.00  0.00     0.259 C 
ATOM      2  O   UNL     1     -11.235 -12.132   4.002  1.00  0.00    -0.269 OA
ATOM      3  N   UNL     1     -12.829 -12.254   2.260  1.00  0.00    -0.274 N 
ATOM      4  C   UNL     1     -14.114 -12.477   2.684  1.00  0.00     0.321 C 
ATOM      5  O   UNL     1     -15.001 -12.527   1.824  1.00  0.00    -0.248 OA
ATOM      6  N   UNL     1     -14.458 -12.612   3.978  1.00  0.00    -0.334 N 
ATOM      7  H   UNL     1     -12.869 -12.091   1.263  1.00  0.00     0.175 HD
ATOM      8  H   UNL     1     -15.454 -12.684   4.129  1.00  0.00     0.165 HD
ENDROOT
BRANCH   1   9
ATOM      9  C   UNL     1     -10.556 -11.508   1.896  1.00  0.00     0.040 A 
ATOM     10  C   UNL     1     -10.203 -12.234   0.757  1.00  0.00     0.014 A 
ATOM     11  C   UNL     1      -9.268 -11.701  -0.131  1.00  0.00     0.004 A 
ATOM     12  C   UNL     1      -9.938 -10.286   2.180  1.00  0.00     0.014 A 
ATOM     13  C   UNL     1      -8.680 -10.452   0.118  1.00  0.00    -0.051 A 
ATOM     14  C   UNL     1      -9.010  -9.755   1.287  1.00  0.00     0.004 A 
ATOM     15  C   UNL     1      -7.741  -9.855  -0.888  1.00  0.00     0.044 C 
ENDBRANCH   1   9
BRANCH   6  16
ATOM     16  C   UNL     1     -13.608 -12.484   5.128  1.00  0.00     0.153 C 
BRANCH  16  17
ATOM     17  C   UNL     1     -13.051 -13.750   5.718  1.00  0.00    -0.029 A 
ATOM     18  C   UNL     1     -13.176 -14.999   5.101  1.00  0.00     0.006 A 
ATOM     19  C   UNL     1     -12.193 -13.622   6.822  1.00  0.00     0.006 A 
ATOM     20  C   UNL     1     -12.436 -16.089   5.571  1.00  0.00     0.004 A 
ATOM     21  C   UNL     1     -11.454 -14.706   7.285  1.00  0.00     0.004 A 
ATOM     22  C   UNL     1     -11.561 -15.947   6.657  1.00  0.00    -0.051 A 
ATOM     23  C   UNL     1     -10.660 -17.071   7.074  1.00  0.00     0.044 C 
ENDBRANCH  16  17
ENDBRANCH   6  16
TORSDOF 3
ENDMDL
MODEL 8
REMARK VINA RESULT:    -4.719      3.909      5.081
REMARK INTER + INTRA:          -6.025
REMARK INTER:                  -5.609
REMARK INTRA:                  -0.416
REMARK UNBOUND:                -0.478
REMARK SMILES Cc1ccc(CNC(=O)NC(=O)c2ccc(C)cc2)cc1
REMARK SMILES IDX 11 1 12 2 10 3 8 4 9 5 7 6 13 9 19 10 18 11 14 12 16 13
REMARK SMILES IDX 15 14 17 15 6 16 5 17 4 18 20 19 3 20 21 21 2 22 1 23
REMARK H PARENT 10 7 7 8
ROOT
ATOM      1  C   UNL     1      -7.992  -9.676  -0.398  1.00  0.00     0.259 C 
ATOM      2  O   UNL     1      -8.319  -8.515  -0.598  1.00  0.00    -0.269 OA
ATOM      3  N   UNL     1      -6.846 -10.350  -0.829  1.00  0.00    -0.274 N 
ATOM      4  C   UNL     1      -5.624 -10.032  -1.365  1.00  0.00     0.321 C 
ATOM      5  O   UNL     1      -4.798 -10.942  -1.490  1.00  0.00    -0.248 OA
ATOM      6  N   UNL     1      -5.274  -8.784  -1.729  1.00  0.00    -0.334 N 
ATOM      7  H   UNL     1      -6.806 -11.323  -0.555  1.00  0.00     0.175 HD
ATOM      8  H   UNL     1      -4.312  -8.702  -2.025  1.00  0.00     0.165 HD
ENDROOT
BRANCH   1   9
ATOM      9  C   UNL     1      -8.918 -10.492   0.412  1.00  0.00     0.040 A 
ATOM     10  C   UNL     1      -9.437 -10.022   1.620  1.00  0.00     0.014 A 
ATOM     11  C   UNL     1     -10.350 -10.807   2.324  1.00  0.00     0.004 A 
ATOM     12  C   UNL     1      -9.261 -11.761  -0.063  1.00  0.00     0.014 A 
ATOM     13  C   UNL     1     -10.740 -12.061   1.830  1.00  0.00    -0.051 A 
ATOM     14  C   UNL     1     -10.179 -12.540   0.640  1.00  0.00     0.004 A 
ATOM     15  C   UNL     1     -11.786 -12.856   2.554  1.00  0.00     0.044 C 
ENDBRANCH   1   9
BRANCH   6  16
ATOM     16  C   UNL     1      -6.038  -7.579  -1.572  1.00  0.00     0.153 C 
BRANCH  16  17
ATOM     17  C   UNL     1      -5.281  -6.319  -1.254  1.00  0.00    -0.029 A 
ATOM     18  C   UNL     1      -4.798  -6.021   0.024  1.00  0.00     0.006 A 
ATOM     19  C   UNL     1      -4.871  -5.525  -2.337  1.00  0.00     0.006 A 
ATOM     20  C   UNL     1      -3.902  -4.962   0.205  1.00  0.00     0.004 A 
ATOM     21  C   UNL     1      -3.976  -4.475  -2.157  1.00  0.00     0.004 A 
ATOM     22  C   UNL     1      -3.475  -4.191  -0.885  1.00  0.00    -0.051 A 
ATOM     23  C   UNL     1      -2.409  -3.149  -0.723  1.00  0.00     0.044 C 
ENDBRANCH  16  17
ENDBRANCH   6  16
TORSDOF 3
ENDMDL
MODEL 9
REMARK VINA RESULT:    -4.560      2.323      8.325
REMARK INTER + INTRA:          -5.838
REMARK INTER:                  -5.382
REMARK INTRA:                  -0.456
REMARK UNBOUND:                -0.478
REMARK SMILES Cc1ccc(CNC(=O)NC(=O)c2ccc(C)cc2)cc1
REMARK SMILES IDX 11 1 12 2 10 3 8 4 9 5 7 6 13 9 19 10 18 11 14 12 16 13
REMARK SMILES IDX 15 14 17 15 6 16 5 17 4 18 20 19 3 20 21 21 2 22 1 23
REMARK H PARENT 10 7 7 8
ROOT
ATOM      1  C   UNL     1      -8.765  -9.781  -4.224  1.00  0.00     0.259 C 
ATOM      2  O   UNL     1      -8.331  -9.603  -5.354  1.00  0.00    -0.269 OA
ATOM      3  N   UNL     1      -9.887 -10.513  -3.823  1.00  0.00    -0.274 N 
ATOM      4  C   UNL     1     -10.741 -11.437  -4.367  1.00  0.00     0.321 C 
ATOM      5  O   UNL     1     -11.564 -11.970  -3.614  1.00  0.00    -0.248 OA
ATOM      6  N   UNL     1     -10.708 -11.812  -5.659  1.00  0.00    -0.334 N 
ATOM      7  H   UNL     1     -10.060 -10.498  -2.827  1.00  0.00     0.175 HD
ATOM      8  H   UNL     1     -11.345 -12.563  -5.881  1.00  0.00     0.165 HD
ENDROOT
BRANCH   1   9
ATOM      9  C   UNL     1      -8.015  -9.150  -3.122  1.00  0.00     0.040 A 
ATOM     10  C   UNL     1      -6.947  -9.802  -2.501  1.00  0.00     0.014 A 
ATOM     11  C   UNL     1      -6.234  -9.144  -1.499  1.00  0.00     0.004 A 
ATOM     12  C   UNL     1      -8.408  -7.875  -2.705  1.00  0.00     0.014 A 
ATOM     13  C   UNL     1      -6.588  -7.843  -1.109  1.00  0.00    -0.051 A 
ATOM     14  C   UNL     1      -7.689  -7.219  -1.708  1.00  0.00     0.004 A 
ATOM     15  C   UNL     1      -5.760  -7.118  -0.090  1.00  0.00     0.044 C 
ENDBRANCH   1   9
BRANCH   6  16
ATOM     16  C   UNL     1      -9.774 -11.397  -6.667  1.00  0.00     0.153 C 
BRANCH  16  17
ATOM     17  C   UNL     1      -9.178 -12.469  -7.537  1.00  0.00    -0.029 A 
ATOM     18  C   UNL     1      -8.343 -13.477  -7.043  1.00  0.00     0.006 A 
ATOM     19  C   UNL     1      -9.657 -12.569  -8.854  1.00  0.00     0.006 A 
ATOM     20  C   UNL     1      -8.019 -14.574  -7.848  1.00  0.00     0.004 A 
ATOM     21  C   UNL     1      -9.337 -13.663  -9.651  1.00  0.00     0.004 A 
ATOM     22  C   UNL     1      -8.523 -14.681  -9.152  1.00  0.00    -0.051 A 
ATOM     23  C   UNL     1      -8.298 -15.919  -9.968  1.00  0.00     0.044 C 
ENDBRANCH  16  17
ENDBRANCH   6  16
TORSDOF 3
ENDMDL
