MODEL 1
REMARK VINA RESULT:    -4.348      0.000      0.000
REMARK INTER + INTRA:          -6.028
REMARK INTER:                  -5.747
REMARK INTRA:                  -0.281
REMARK UNBOUND:                -0.281
REMARK SMILES [H]/N=C\C[C@H]1C[C@@H]1O[C@H]1CO[C@H]2C[C@@H](C3CC3)CCN2C1
REMARK SMILES IDX 7 1 6 2 5 3 8 4 9 5 14 6 13 7 18 8 12 9 19 10 20 11 11 12
REMARK SMILES IDX 21 13 10 14 15 15 16 16 17 17 4 18 3 19 2 20 1 21
REMARK H PARENT
ROOT
ATOM      1  C   UNL     1     -13.708 -15.819   4.795  1.00  0.00     0.122 C 
ATOM      2  C   UNL     1     -13.232 -16.852   5.777  1.00  0.00     0.039 C 
ATOM      3  C   UNL     1     -12.590 -15.494   5.747  1.00  0.00     0.026 C 
ENDROOT
BRANCH   1   4
ATOM      4  O   UNL     1     -13.334 -16.091   3.430  1.00  0.00    -0.371 OA
BRANCH   4   5
ATOM      5  C   UNL     1     -14.088 -15.388   2.429  1.00  0.00     0.158 C 
ATOM      6  C   UNL     1     -10.298 -12.288   0.631  1.00  0.00    -0.003 C 
ATOM      7  C   UNL     1     -11.137 -12.367   1.912  1.00  0.00     0.052 C 
ATOM      8  C   UNL     1     -10.077 -13.705   0.081  1.00  0.00     0.019 C 
ATOM      9  C   UNL     1     -12.432 -13.163   1.697  1.00  0.00     0.189 C 
ATOM     10  C   UNL     1     -11.400 -14.455  -0.077  1.00  0.00     0.087 C 
ATOM     11  N   UNL     1     -12.129 -14.502   1.191  1.00  0.00    -0.276 NA
ATOM     12  O   UNL     1     -13.099 -13.206   2.960  1.00  0.00    -0.360 OA
ATOM     13  C   UNL     1     -13.360 -15.293   1.077  1.00  0.00     0.121 C 
ATOM     14  C   UNL     1     -14.317 -13.956   2.925  1.00  0.00     0.195 C 
BRANCH   6  15
ATOM     15  C   UNL     1      -8.973 -11.602   0.876  1.00  0.00    -0.008 C 
ATOM     16  C   UNL     1      -8.616 -10.340   0.127  1.00  0.00     0.004 C 
ATOM     17  C   UNL     1      -8.910 -10.278   1.598  1.00  0.00     0.004 C 
ENDBRANCH   6  15
ENDBRANCH   4   5
ENDBRANCH   1   4
BRANCH   3  18
ATOM     18  C   UNL     1     -12.822 -14.555   6.893  1.00  0.00     0.053 C 
BRANCH  18  19
ATOM     19  C   UNL     1     -11.632 -13.752   7.347  1.00  0.00     0.074 C 
BRANCH  19  20
ATOM     20  N   UNL     1     -11.562 -13.043   8.425  1.00  0.00    -0.313 NA
ATOM     21  H   UNL     1     -11.615 -13.630   9.269  1.00  0.00     0.186 HD
ENDBRANCH  19  20
ENDBRANCH  18  19
ENDBRANCH   3  18
TORSDOF 6
ENDMDL
MODEL 2
REMARK VINA RESULT:    -4.311      5.574      8.566
REMARK INTER + INTRA:          -5.978
REMARK INTER:                  -5.716
REMARK INTRA:                  -0.262
REMARK UNBOUND:                -0.281
REMARK SMILES [H]/N=C\C[C@H]1C[C@@H]1O[C@H]1CO[C@H]2C[C@@H](C3CC3)CCN2C1
REMARK SMILES IDX 7 1 6 2 5 3 8 4 9 5 14 6 13 7 18 8 12 9 19 10 20 11 11 12
REMARK SMILES IDX 21 13 10 14 15 15 16 16 17 17 4 18 3 19 2 20 1 21
REMARK H PARENT
ROOT
ATOM      1  C   UNL     1      -9.144 -10.140   0.450  1.00  0.00     0.122 C 
ATOM      2  C   UNL     1      -9.357 -11.615   0.639  1.00  0.00     0.039 C 
ATOM      3  C   UNL     1      -9.463 -10.687   1.814  1.00  0.00     0.026 C 
ENDROOT
BRANCH   1   4
ATOM      4  O   UNL     1      -7.773  -9.771   0.208  1.00  0.00    -0.371 OA
BRANCH   4   5
ATOM      5  C   UNL     1      -7.264 -10.098  -1.096  1.00  0.00     0.158 C 
ATOM      6  C   UNL     1      -4.735  -5.647  -2.091  1.00  0.00    -0.003 C 
ATOM      7  C   UNL     1      -6.203  -6.082  -2.014  1.00  0.00     0.052 C 
ATOM      8  C   UNL     1      -3.909  -6.469  -1.091  1.00  0.00     0.019 C 
ATOM      9  C   UNL     1      -6.357  -7.600  -2.175  1.00  0.00     0.189 C 
ATOM     10  C   UNL     1      -4.133  -7.969  -1.282  1.00  0.00     0.087 C 
ATOM     11  N   UNL     1      -5.553  -8.304  -1.176  1.00  0.00    -0.276 NA
ATOM     12  O   UNL     1      -7.750  -7.887  -2.040  1.00  0.00    -0.360 OA
ATOM     13  C   UNL     1      -5.775  -9.751  -1.270  1.00  0.00     0.121 C 
ATOM     14  C   UNL     1      -8.046  -9.284  -2.131  1.00  0.00     0.195 C 
BRANCH   6  15
ATOM     15  C   UNL     1      -4.580  -4.168  -1.818  1.00  0.00    -0.008 C 
ATOM     16  C   UNL     1      -3.916  -3.269  -2.834  1.00  0.00     0.004 C 
ATOM     17  C   UNL     1      -5.391  -3.150  -2.583  1.00  0.00     0.004 C 
ENDBRANCH   6  15
ENDBRANCH   4   5
ENDBRANCH   1   4
BRANCH   3  18
ATOM     18  C   UNL     1     -10.809 -10.445   2.430  1.00  0.00     0.053 C 
BRANCH  18  19
ATOM     19  C   UNL     1     -11.545 -11.663   2.922  1.00  0.00     0.074 C 
BRANCH  19  20
ATOM     20  N   UNL     1     -11.383 -12.234   4.069  1.00  0.00    -0.313 NA
ATOM     21  H   UNL     1     -10.988 -11.585   4.764  1.00  0.00     0.186 HD
ENDBRANCH  19  20
ENDBRANCH  18  19
ENDBRANCH   3  18
TORSDOF 6
ENDMDL
MODEL 3
REMARK VINA RESULT:    -4.286      8.452     10.948
REMARK INTER + INTRA:          -5.946
REMARK INTER:                  -5.712
REMARK INTRA:                  -0.234
REMARK UNBOUND:                -0.281
REMARK SMILES [H]/N=C\C[C@H]1C[C@@H]1O[C@H]1CO[C@H]2C[C@@H](C3CC3)CCN2C1
REMARK SMILES IDX 7 1 6 2 5 3 8 4 9 5 14 6 13 7 18 8 12 9 19 10 20 11 11 12
REMARK SMILES IDX 21 13 10 14 15 15 16 16 17 17 4 18 3 19 2 20 1 21
REMARK H PARENT
ROOT
ATOM      1  C   UNL     1      -8.332 -10.182  -4.390  1.00  0.00     0.122 C 
ATOM      2  C   UNL     1      -9.696 -10.395  -4.985  1.00  0.00     0.039 C 
ATOM      3  C   UNL     1      -8.501 -10.248  -5.884  1.00  0.00     0.026 C 
ENDROOT
BRANCH   1   4
ATOM      4  O   UNL     1      -8.138  -8.873  -3.821  1.00  0.00    -0.371 OA
BRANCH   4   5
ATOM      5  C   UNL     1      -8.718  -8.670  -2.522  1.00  0.00     0.158 C 
ATOM      6  C   UNL     1      -4.722  -6.197  -0.259  1.00  0.00    -0.003 C 
ATOM      7  C   UNL     1      -5.011  -7.635  -0.707  1.00  0.00     0.052 C 
ATOM      8  C   UNL     1      -5.436  -5.218  -1.202  1.00  0.00     0.019 C 
ATOM      9  C   UNL     1      -6.517  -7.893  -0.854  1.00  0.00     0.189 C 
ATOM     10  C   UNL     1      -6.922  -5.550  -1.331  1.00  0.00     0.087 C 
ATOM     11  N   UNL     1      -7.113  -6.930  -1.779  1.00  0.00    -0.276 NA
ATOM     12  O   UNL     1      -6.658  -9.238  -1.316  1.00  0.00    -0.360 OA
ATOM     13  C   UNL     1      -8.532  -7.238  -1.991  1.00  0.00     0.121 C 
ATOM     14  C   UNL     1      -8.020  -9.615  -1.537  1.00  0.00     0.195 C 
BRANCH   6  15
ATOM     15  C   UNL     1      -3.236  -5.914  -0.227  1.00  0.00    -0.008 C 
ATOM     16  C   UNL     1      -2.629  -5.152   0.926  1.00  0.00     0.004 C 
ATOM     17  C   UNL     1      -2.337  -6.615   0.762  1.00  0.00     0.004 C 
ENDBRANCH   6  15
ENDBRANCH   4   5
ENDBRANCH   1   4
BRANCH   3  18
ATOM     18  C   UNL     1      -8.015 -11.444  -6.647  1.00  0.00     0.053 C 
BRANCH  18  19
ATOM     19  C   UNL     1      -9.038 -12.156  -7.491  1.00  0.00     0.074 C 
BRANCH  19  20
ATOM     20  N   UNL     1      -9.546 -11.720  -8.596  1.00  0.00    -0.313 NA
ATOM     21  H   UNL     1     -10.133 -10.888  -8.441  1.00  0.00     0.186 HD
ENDBRANCH  19  20
ENDBRANCH  18  19
ENDBRANCH   3  18
TORSDOF 6
ENDMDL
MODEL 4
REMARK VINA RESULT:    -4.182      7.933     10.307
REMARK INTER + INTRA:          -5.807
REMARK INTER:                  -5.916
REMARK INTRA:                   0.109
REMARK UNBOUND:                -0.281
REMARK SMILES [H]/N=C\C[C@H]1C[C@@H]1O[C@H]1CO[C@H]2C[C@@H](C3CC3)CCN2C1
REMARK SMILES IDX 7 1 6 2 5 3 8 4 9 5 14 6 13 7 18 8 12 9 19 10 20 11 11 12
REMARK SMILES IDX 21 13 10 14 15 15 16 16 17 17 4 18 3 19 2 20 1 21
REMARK H PARENT
ROOT
ATOM      1  C   UNL     1      -8.965  -9.219  -4.779  1.00  0.00     0.122 C 
ATOM      2  C   UNL     1      -8.367 -10.102  -5.837  1.00  0.00     0.039 C 
ATOM      3  C   UNL     1      -9.361 -10.667  -4.863  1.00  0.00     0.026 C 
ENDROOT
BRANCH   1   4
ATOM      4  O   UNL     1      -8.049  -8.860  -3.727  1.00  0.00    -0.371 OA
BRANCH   4   5
ATOM      5  C   UNL     1      -8.642  -8.643  -2.437  1.00  0.00     0.158 C 
ATOM      6  C   UNL     1      -4.686  -6.105  -0.175  1.00  0.00    -0.003 C 
ATOM      7  C   UNL     1      -4.961  -7.551  -0.604  1.00  0.00     0.052 C 
ATOM      8  C   UNL     1      -5.399  -5.146  -1.138  1.00  0.00     0.019 C 
ATOM      9  C   UNL     1      -6.463  -7.824  -0.760  1.00  0.00     0.189 C 
ATOM     10  C   UNL     1      -6.881  -5.492  -1.276  1.00  0.00     0.087 C 
ATOM     11  N   UNL     1      -7.058  -6.879  -1.706  1.00  0.00    -0.276 NA
ATOM     12  O   UNL     1      -6.589  -9.176  -1.203  1.00  0.00    -0.360 OA
ATOM     13  C   UNL     1      -8.472  -7.201  -1.926  1.00  0.00     0.121 C 
ATOM     14  C   UNL     1      -7.947  -9.567  -1.431  1.00  0.00     0.195 C 
BRANCH   6  15
ATOM     15  C   UNL     1      -3.204  -5.810  -0.133  1.00  0.00    -0.008 C 
ATOM     16  C   UNL     1      -2.583  -5.187   1.095  1.00  0.00     0.004 C 
ATOM     17  C   UNL     1      -2.280  -6.615   0.749  1.00  0.00     0.004 C 
ENDBRANCH   6  15
ENDBRANCH   4   5
ENDBRANCH   1   4
BRANCH   3  18
ATOM     18  C   UNL     1     -10.724 -11.051  -5.356  1.00  0.00     0.053 C 
BRANCH  18  19
ATOM     19  C   UNL     1     -11.593 -11.809  -4.387  1.00  0.00     0.074 C 
BRANCH  19  20
ATOM     20  N   UNL     1     -11.262 -12.164  -3.190  1.00  0.00    -0.313 NA
ATOM     21  H   UNL     1     -11.757 -11.608  -2.478  1.00  0.00     0.186 HD
ENDBRANCH  19  20
ENDBRANCH  18  19
ENDBRANCH   3  18
TORSDOF 6
ENDMDL
MODEL 5
REMARK VINA RESULT:    -4.143      3.744      8.113
REMARK INTER + INTRA:          -5.756
REMARK INTER:                  -5.594
REMARK INTRA:                  -0.162
REMARK UNBOUND:                -0.281
REMARK SMILES [H]/N=C\C[C@H]1C[C@@H]1O[C@H]1CO[C@H]2C[C@@H](C3CC3)CCN2C1
REMARK SMILES IDX 7 1 6 2 5 3 8 4 9 5 14 6 13 7 18 8 12 9 19 10 20 11 11 12
REMARK SMILES IDX 21 13 10 14 15 15 16 16 17 17 4 18 3 19 2 20 1 21
REMARK H PARENT
ROOT
ATOM      1  C   UNL     1      -8.092  -9.176  -1.282  1.00  0.00     0.122 C 
ATOM      2  C   UNL     1      -8.426  -8.882  -2.718  1.00  0.00     0.039 C 
ATOM      3  C   UNL     1      -8.556  -7.802  -1.682  1.00  0.00     0.026 C 
ENDROOT
BRANCH   1   4
ATOM      4  O   UNL     1      -9.055 -10.013  -0.615  1.00  0.00    -0.371 OA
BRANCH   4   5
ATOM      5  C   UNL     1      -8.523 -10.889   0.393  1.00  0.00     0.158 C 
ATOM      6  C   UNL     1     -12.965 -12.001   2.889  1.00  0.00    -0.003 C 
ATOM      7  C   UNL     1     -12.049 -10.777   2.770  1.00  0.00     0.052 C 
ATOM      8  C   UNL     1     -12.929 -12.792   1.574  1.00  0.00     0.019 C 
ATOM      9  C   UNL     1     -10.637 -11.164   2.312  1.00  0.00     0.189 C 
ATOM     10  C   UNL     1     -11.494 -13.116   1.157  1.00  0.00     0.087 C 
ATOM     11  N   UNL     1     -10.693 -11.897   1.047  1.00  0.00    -0.276 NA
ATOM     12  O   UNL     1      -9.897  -9.947   2.194  1.00  0.00    -0.360 OA
ATOM     13  C   UNL     1      -9.338 -12.183   0.563  1.00  0.00     0.121 C 
ATOM     14  C   UNL     1      -8.557 -10.148   1.733  1.00  0.00     0.195 C 
BRANCH   6  15
ATOM     15  C   UNL     1     -14.383 -11.602   3.230  1.00  0.00    -0.008 C 
ATOM     16  C   UNL     1     -15.261 -12.522   4.045  1.00  0.00     0.004 C 
ATOM     17  C   UNL     1     -14.766 -11.237   4.643  1.00  0.00     0.004 C 
ENDBRANCH   6  15
ENDBRANCH   4   5
ENDBRANCH   1   4
BRANCH   3  18
ATOM     18  C   UNL     1      -7.590  -6.655  -1.703  1.00  0.00     0.053 C 
BRANCH  18  19
ATOM     19  C   UNL     1      -8.170  -5.291  -1.434  1.00  0.00     0.074 C 
BRANCH  19  20
ATOM     20  N   UNL     1      -9.351  -4.890  -1.772  1.00  0.00    -0.313 NA
ATOM     21  H   UNL     1      -9.467  -3.878  -1.618  1.00  0.00     0.186 HD
ENDBRANCH  19  20
ENDBRANCH  18  19
ENDBRANCH   3  18
TORSDOF 6
ENDMDL
MODEL 6
REMARK VINA RESULT:    -4.128      8.139     10.328
REMARK INTER + INTRA:          -5.736
REMARK INTER:                  -5.562
REMARK INTRA:                  -0.174
REMARK UNBOUND:                -0.281
REMARK SMILES [H]/N=C\C[C@H]1C[C@@H]1O[C@H]1CO[C@H]2C[C@@H](C3CC3)CCN2C1
REMARK SMILES IDX 7 1 6 2 5 3 8 4 9 5 14 6 13 7 18 8 12 9 19 10 20 11 11 12
REMARK SMILES IDX 21 13 10 14 15 15 16 16 17 17 4 18 3 19 2 20 1 21
REMARK H PARENT
ROOT
ATOM      1  C   UNL     1      -7.651  -9.287  -2.286  1.00  0.00     0.122 C 
ATOM      2  C   UNL     1      -7.599  -9.856  -0.896  1.00  0.00     0.039 C 
ATOM      3  C   UNL     1      -6.342  -9.755  -1.712  1.00  0.00     0.026 C 
ENDROOT
BRANCH   1   4
ATOM      4  O   UNL     1      -8.278 -10.152  -3.251  1.00  0.00    -0.371 OA
BRANCH   4   5
ATOM      5  C   UNL     1      -9.029  -9.489  -4.282  1.00  0.00     0.158 C 
ATOM      6  C   UNL     1      -9.350 -13.435  -7.678  1.00  0.00    -0.003 C 
ATOM      7  C   UNL     1      -8.243 -12.491  -7.193  1.00  0.00     0.052 C 
ATOM      8  C   UNL     1     -10.336 -13.692  -6.530  1.00  0.00     0.019 C 
ATOM      9  C   UNL     1      -8.818 -11.214  -6.564  1.00  0.00     0.189 C 
ATOM     10  C   UNL     1     -10.844 -12.384  -5.926  1.00  0.00     0.087 C 
ATOM     11  N   UNL     1      -9.731 -11.550  -5.472  1.00  0.00    -0.276 NA
ATOM     12  O   UNL     1      -7.703 -10.443  -6.113  1.00  0.00    -0.360 OA
ATOM     13  C   UNL     1     -10.205 -10.329  -4.810  1.00  0.00     0.121 C 
ATOM     14  C   UNL     1      -8.088  -9.228  -5.463  1.00  0.00     0.195 C 
BRANCH   6  15
ATOM     15  C   UNL     1      -8.781 -14.738  -8.192  1.00  0.00    -0.008 C 
ATOM     16  C   UNL     1      -9.476 -15.490  -9.303  1.00  0.00     0.004 C 
ATOM     17  C   UNL     1      -8.157 -14.823  -9.564  1.00  0.00     0.004 C 
ENDBRANCH   6  15
ENDBRANCH   4   5
ENDBRANCH   1   4
BRANCH   3  18
ATOM     18  C   UNL     1      -5.294  -8.761  -1.311  1.00  0.00     0.053 C 
BRANCH  18  19
ATOM     19  C   UNL     1      -3.872  -9.260  -1.295  1.00  0.00     0.074 C 
BRANCH  19  20
ATOM     20  N   UNL     1      -3.505 -10.497  -1.226  1.00  0.00    -0.313 NA
ATOM     21  H   UNL     1      -3.711 -10.903  -0.303  1.00  0.00     0.186 HD
ENDBRANCH  19  20
ENDBRANCH  18  19
ENDBRANCH   3  18
TORSDOF 6
ENDMDL
MODEL 7
REMARK VINA RESULT:    -3.850      6.354      9.932
REMARK INTER + INTRA:          -5.369
REMARK INTER:                  -5.103
REMARK INTRA:                  -0.266
REMARK UNBOUND:                -0.281
REMARK SMILES [H]/N=C\C[C@H]1C[C@@H]1O[C@H]1CO[C@H]2C[C@@H](C3CC3)CCN2C1
REMARK SMILES IDX 7 1 6 2 5 3 8 4 9 5 14 6 13 7 18 8 12 9 19 10 20 11 11 12
REMARK SMILES IDX 21 13 10 14 15 15 16 16 17 17 4 18 3 19 2 20 1 21
REMARK H PARENT
ROOT
ATOM      1  C   UNL     1      -8.356 -12.518  -7.238  1.00  0.00     0.122 C 
ATOM      2  C   UNL     1      -7.202 -13.346  -7.730  1.00  0.00     0.039 C 
ATOM      3  C   UNL     1      -8.282 -13.983  -6.904  1.00  0.00     0.026 C 
ENDROOT
BRANCH   1   4
ATOM      4  O   UNL     1      -8.010 -11.599  -6.184  1.00  0.00    -0.371 OA
BRANCH   4   5
ATOM      5  C   UNL     1      -8.869 -10.454  -6.055  1.00  0.00     0.158 C 
ATOM      6  C   UNL     1      -8.546  -9.813  -0.889  1.00  0.00    -0.003 C 
ATOM      7  C   UNL     1      -9.214 -10.823  -1.830  1.00  0.00     0.052 C 
ATOM      8  C   UNL     1      -7.249  -9.302  -1.530  1.00  0.00     0.019 C 
ATOM      9  C   UNL     1      -9.397 -10.250  -3.243  1.00  0.00     0.189 C 
ATOM     10  C   UNL     1      -7.493  -8.778  -2.944  1.00  0.00     0.087 C 
ATOM     11  N   UNL     1      -8.112  -9.804  -3.783  1.00  0.00    -0.276 NA
ATOM     12  O   UNL     1      -9.979 -11.289  -4.032  1.00  0.00    -0.360 OA
ATOM     13  C   UNL     1      -8.274  -9.346  -5.167  1.00  0.00     0.121 C 
ATOM     14  C   UNL     1     -10.176 -10.911  -5.398  1.00  0.00     0.195 C 
BRANCH   6  15
ATOM     15  C   UNL     1      -8.265 -10.420   0.467  1.00  0.00    -0.008 C 
ATOM     16  C   UNL     1      -9.219 -10.196   1.617  1.00  0.00     0.004 C 
ATOM     17  C   UNL     1      -9.107 -11.557   0.995  1.00  0.00     0.004 C 
ENDBRANCH   6  15
ENDBRANCH   4   5
ENDBRANCH   1   4
BRANCH   3  18
ATOM     18  C   UNL     1      -9.220 -14.955  -7.557  1.00  0.00     0.053 C 
BRANCH  18  19
ATOM     19  C   UNL     1      -9.978 -15.872  -6.633  1.00  0.00     0.074 C 
BRANCH  19  20
ATOM     20  N   UNL     1      -9.926 -15.859  -5.343  1.00  0.00    -0.313 NA
ATOM     21  H   UNL     1      -9.130 -15.303  -5.000  1.00  0.00     0.186 HD
ENDBRANCH  19  20
ENDBRANCH  18  19
ENDBRANCH   3  18
TORSDOF 6
ENDMDL
MODEL 8
REMARK VINA RESULT:    -3.812      1.923      2.479
REMARK INTER + INTRA:          -5.319
REMARK INTER:                  -5.570
REMARK INTRA:                   0.252
REMARK UNBOUND:                -0.281
REMARK SMILES [H]/N=C\C[C@H]1C[C@@H]1O[C@H]1CO[C@H]2C[C@@H](C3CC3)CCN2C1
REMARK SMILES IDX 7 1 6 2 5 3 8 4 9 5 14 6 13 7 18 8 12 9 19 10 20 11 11 12
REMARK SMILES IDX 21 13 10 14 15 15 16 16 17 17 4 18 3 19 2 20 1 21
REMARK H PARENT
ROOT
ATOM      1  C   UNL     1     -12.866 -13.869   5.647  1.00  0.00     0.122 C 
ATOM      2  C   UNL     1     -11.955 -13.832   6.842  1.00  0.00     0.039 C 
ATOM      3  C   UNL     1     -12.836 -15.026   6.609  1.00  0.00     0.026 C 
ENDROOT
BRANCH   1   4
ATOM      4  O   UNL     1     -13.995 -12.980   5.742  1.00  0.00    -0.371 OA
BRANCH   4   5
ATOM      5  C   UNL     1     -14.709 -12.752   4.516  1.00  0.00     0.158 C 
ATOM      6  C   UNL     1     -10.630 -11.854   1.392  1.00  0.00    -0.003 C 
ATOM      7  C   UNL     1     -11.337 -11.093   2.520  1.00  0.00     0.052 C 
ATOM      8  C   UNL     1     -10.719 -13.362   1.663  1.00  0.00     0.019 C 
ATOM      9  C   UNL     1     -12.767 -11.605   2.743  1.00  0.00     0.189 C 
ATOM     10  C   UNL     1     -12.162 -13.801   1.910  1.00  0.00     0.087 C 
ATOM     11  N   UNL     1     -12.758 -13.044   3.011  1.00  0.00    -0.276 NA
ATOM     12  O   UNL     1     -13.302 -10.860   3.839  1.00  0.00    -0.360 OA
ATOM     13  C   UNL     1     -14.114 -13.513   3.318  1.00  0.00     0.121 C 
ATOM     14  C   UNL     1     -14.631 -11.257   4.191  1.00  0.00     0.195 C 
BRANCH   6  15
ATOM     15  C   UNL     1      -9.187 -11.424   1.253  1.00  0.00    -0.008 C 
ATOM     16  C   UNL     1      -8.764 -10.525   0.116  1.00  0.00     0.004 C 
ATOM     17  C   UNL     1      -8.776  -9.996   1.520  1.00  0.00     0.004 C 
ENDBRANCH   6  15
ENDBRANCH   4   5
ENDBRANCH   1   4
BRANCH   3  18
ATOM     18  C   UNL     1     -12.207 -16.326   6.208  1.00  0.00     0.053 C 
BRANCH  18  19
ATOM     19  C   UNL     1     -10.986 -16.744   6.986  1.00  0.00     0.074 C 
BRANCH  19  20
ATOM     20  N   UNL     1      -9.761 -16.610   6.601  1.00  0.00    -0.313 NA
ATOM     21  H   UNL     1      -9.593 -17.080   5.700  1.00  0.00     0.186 HD
ENDBRANCH  19  20
ENDBRANCH  18  19
ENDBRANCH   3  18
TORSDOF 6
ENDMDL
MODEL 9
REMARK VINA RESULT:    -3.667      3.274      5.829
REMARK INTER + INTRA:          -5.128
REMARK INTER:                  -4.815
REMARK INTRA:                  -0.313
REMARK UNBOUND:                -0.281
REMARK SMILES [H]/N=C\C[C@H]1C[C@@H]1O[C@H]1CO[C@H]2C[C@@H](C3CC3)CCN2C1
REMARK SMILES IDX 7 1 6 2 5 3 8 4 9 5 14 6 13 7 18 8 12 9 19 10 20 11 11 12
REMARK SMILES IDX 21 13 10 14 15 15 16 16 17 17 4 18 3 19 2 20 1 21
REMARK H PARENT
ROOT
ATOM      1  C   UNL     1     -14.113 -14.668  -0.792  1.00  0.00     0.122 C 
ATOM      2  C   UNL     1     -15.345 -14.114  -1.450  1.00  0.00     0.039 C 
ATOM      3  C   UNL     1     -14.032 -14.091  -2.179  1.00  0.00     0.026 C 
ENDROOT
BRANCH   1   4
ATOM      4  O   UNL     1     -13.600 -13.850   0.277  1.00  0.00    -0.371 OA
BRANCH   4   5
ATOM      5  C   UNL     1     -12.555 -14.443   1.064  1.00  0.00     0.158 C 
ATOM      6  C   UNL     1      -8.936 -10.733   0.481  1.00  0.00    -0.003 C 
ATOM      7  C   UNL     1      -9.552 -11.817  -0.412  1.00  0.00     0.052 C 
ATOM      8  C   UNL     1      -9.991 -10.238   1.479  1.00  0.00     0.019 C 
ATOM      9  C   UNL     1     -10.204 -12.933   0.413  1.00  0.00     0.189 C 
ATOM     10  C   UNL     1     -10.626 -11.399   2.243  1.00  0.00     0.087 C 
ATOM     11  N   UNL     1     -11.206 -12.377   1.323  1.00  0.00    -0.276 NA
ATOM     12  O   UNL     1     -10.778 -13.850  -0.520  1.00  0.00    -0.360 OA
ATOM     13  C   UNL     1     -11.896 -13.454   2.042  1.00  0.00     0.121 C 
ATOM     14  C   UNL     1     -11.462 -14.937   0.110  1.00  0.00     0.195 C 
BRANCH   6  15
ATOM     15  C   UNL     1      -8.395  -9.581  -0.336  1.00  0.00    -0.008 C 
ATOM     16  C   UNL     1      -7.032  -9.674  -0.980  1.00  0.00     0.004 C 
ATOM     17  C   UNL     1      -8.265  -9.690  -1.836  1.00  0.00     0.004 C 
ENDBRANCH   6  15
ENDBRANCH   4   5
ENDBRANCH   1   4
BRANCH   3  18
ATOM     18  C   UNL     1     -13.842 -14.991  -3.362  1.00  0.00     0.053 C 
BRANCH  18  19
ATOM     19  C   UNL     1     -12.460 -15.021  -3.961  1.00  0.00     0.074 C 
BRANCH  19  20
ATOM     20  N   UNL     1     -11.349 -14.943  -3.307  1.00  0.00    -0.313 NA
ATOM     21  H   UNL     1     -11.023 -15.871  -3.000  1.00  0.00     0.186 HD
ENDBRANCH  19  20
ENDBRANCH  18  19
ENDBRANCH   3  18
TORSDOF 6
ENDMDL
