MODEL 1
REMARK VINA RESULT:    -6.193      0.000      0.000
REMARK INTER + INTRA:          -7.659
REMARK INTER:                  -7.279
REMARK INTRA:                  -0.380
REMARK UNBOUND:                -0.380
REMARK SMILES Cc1ccc(CNC(=O)NC(=O)c2ccc(C)cc2)cc1
REMARK SMILES IDX 11 1 12 2 10 3 8 4 9 5 7 6 13 9 19 10 18 11 14 12 16 13
REMARK SMILES IDX 15 14 17 15 6 16 5 17 4 18 20 19 3 20 21 21 2 22 1 23
REMARK H PARENT 10 7 7 8
ROOT
ATOM      1  C   UNL     1       4.067  -6.560  -7.621  1.00  0.00     0.259 C 
ATOM      2  O   UNL     1       4.090  -7.472  -6.806  1.00  0.00    -0.269 OA
ATOM      3  N   UNL     1       4.536  -6.552  -8.938  1.00  0.00    -0.274 N 
ATOM      4  C   UNL     1       4.936  -7.467  -9.878  1.00  0.00     0.321 C 
ATOM      5  O   UNL     1       5.162  -7.055 -11.020  1.00  0.00    -0.248 OA
ATOM      6  N   UNL     1       5.064  -8.784  -9.627  1.00  0.00    -0.334 N 
ATOM      7  H   UNL     1       4.427  -5.666  -9.414  1.00  0.00     0.175 HD
ATOM      8  H   UNL     1       5.283  -9.334 -10.444  1.00  0.00     0.165 HD
ENDROOT
BRANCH   1   9
ATOM      9  C   UNL     1       3.464  -5.290  -7.174  1.00  0.00     0.040 A 
ATOM     10  C   UNL     1       4.253  -4.210  -6.774  1.00  0.00     0.014 A 
ATOM     11  C   UNL     1       3.638  -3.012  -6.409  1.00  0.00     0.004 A 
ATOM     12  C   UNL     1       2.069  -5.197  -7.155  1.00  0.00     0.014 A 
ATOM     13  C   UNL     1       2.240  -2.892  -6.436  1.00  0.00    -0.051 A 
ATOM     14  C   UNL     1       1.459  -3.996  -6.796  1.00  0.00     0.004 A 
ATOM     15  C   UNL     1       1.598  -1.572  -6.124  1.00  0.00     0.044 C 
ENDBRANCH   1   9
BRANCH   6  16
ATOM     16  C   UNL     1       4.754  -9.477  -8.408  1.00  0.00     0.153 C 
BRANCH  16  17
ATOM     17  C   UNL     1       4.460 -10.948  -8.508  1.00  0.00    -0.029 A 
ATOM     18  C   UNL     1       3.288 -11.528  -8.010  1.00  0.00     0.006 A 
ATOM     19  C   UNL     1       5.307 -11.720  -9.320  1.00  0.00     0.006 A 
ATOM     20  C   UNL     1       2.964 -12.847  -8.344  1.00  0.00     0.004 A 
ATOM     21  C   UNL     1       4.980 -13.030  -9.655  1.00  0.00     0.004 A 
ATOM     22  C   UNL     1       3.800 -13.602  -9.178  1.00  0.00    -0.051 A 
ATOM     23  C   UNL     1       3.389 -14.963  -9.654  1.00  0.00     0.044 C 
ENDBRANCH  16  17
ENDBRANCH   6  16
TORSDOF 3
ENDMDL
MODEL 2
REMARK VINA RESULT:    -6.184      0.543      8.019
REMARK INTER + INTRA:          -7.648
REMARK INTER:                  -7.161
REMARK INTRA:                  -0.487
REMARK UNBOUND:                -0.380
REMARK SMILES Cc1ccc(CNC(=O)NC(=O)c2ccc(C)cc2)cc1
REMARK SMILES IDX 11 1 12 2 10 3 8 4 9 5 7 6 13 9 19 10 18 11 14 12 16 13
REMARK SMILES IDX 15 14 17 15 6 16 5 17 4 18 20 19 3 20 21 21 2 22 1 23
REMARK H PARENT 10 7 7 8
ROOT
ATOM      1  C   UNL     1       4.258  -9.360  -8.375  1.00  0.00     0.259 C 
ATOM      2  O   UNL     1       3.933  -8.944  -7.272  1.00  0.00    -0.269 OA
ATOM      3  N   UNL     1       4.682  -8.635  -9.494  1.00  0.00    -0.274 N 
ATOM      4  C   UNL     1       5.117  -7.365  -9.773  1.00  0.00     0.321 C 
ATOM      5  O   UNL     1       5.545  -7.143 -10.911  1.00  0.00    -0.248 OA
ATOM      6  N   UNL     1       5.128  -6.367  -8.870  1.00  0.00    -0.334 N 
ATOM      7  H   UNL     1       4.877  -9.202 -10.308  1.00  0.00     0.175 HD
ATOM      8  H   UNL     1       5.558  -5.518  -9.208  1.00  0.00     0.165 HD
ENDROOT
BRANCH   1   9
ATOM      9  C   UNL     1       4.206 -10.821  -8.572  1.00  0.00     0.040 A 
ATOM     10  C   UNL     1       3.172 -11.592  -8.036  1.00  0.00     0.014 A 
ATOM     11  C   UNL     1       3.137 -12.962  -8.293  1.00  0.00     0.004 A 
ATOM     12  C   UNL     1       5.232 -11.422  -9.308  1.00  0.00     0.014 A 
ATOM     13  C   UNL     1       4.134 -13.566  -9.074  1.00  0.00    -0.051 A 
ATOM     14  C   UNL     1       5.190 -12.790  -9.568  1.00  0.00     0.004 A 
ATOM     15  C   UNL     1       4.036 -15.025  -9.412  1.00  0.00     0.044 C 
ENDBRANCH   1   9
BRANCH   6  16
ATOM     16  C   UNL     1       4.775  -6.439  -7.480  1.00  0.00     0.153 C 
BRANCH  16  17
ATOM     17  C   UNL     1       3.952  -5.314  -6.919  1.00  0.00    -0.029 A 
ATOM     18  C   UNL     1       4.513  -4.152  -6.378  1.00  0.00     0.006 A 
ATOM     19  C   UNL     1       2.566  -5.356  -7.145  1.00  0.00     0.006 A 
ATOM     20  C   UNL     1       3.701  -3.048  -6.096  1.00  0.00     0.004 A 
ATOM     21  C   UNL     1       1.761  -4.255  -6.869  1.00  0.00     0.004 A 
ATOM     22  C   UNL     1       2.324  -3.088  -6.351  1.00  0.00    -0.051 A 
ATOM     23  C   UNL     1       1.473  -1.864  -6.186  1.00  0.00     0.044 C 
ENDBRANCH  16  17
ENDBRANCH   6  16
TORSDOF 3
ENDMDL
MODEL 3
REMARK VINA RESULT:    -6.180      3.141      7.304
REMARK INTER + INTRA:          -7.644
REMARK INTER:                  -7.156
REMARK INTRA:                  -0.488
REMARK UNBOUND:                -0.380
REMARK SMILES Cc1ccc(CNC(=O)NC(=O)c2ccc(C)cc2)cc1
REMARK SMILES IDX 11 1 12 2 10 3 8 4 9 5 7 6 13 9 19 10 18 11 14 12 16 13
REMARK SMILES IDX 15 14 17 15 6 16 5 17 4 18 20 19 3 20 21 21 2 22 1 23
REMARK H PARENT 10 7 7 8
ROOT
ATOM      1  C   UNL     1       5.386  -6.628 -10.472  1.00  0.00     0.259 C 
ATOM      2  O   UNL     1       5.115  -5.562  -9.937  1.00  0.00    -0.269 OA
ATOM      3  N   UNL     1       5.196  -7.925  -9.984  1.00  0.00    -0.274 N 
ATOM      4  C   UNL     1       4.503  -8.535  -8.971  1.00  0.00     0.321 C 
ATOM      5  O   UNL     1       4.485  -9.771  -8.951  1.00  0.00    -0.248 OA
ATOM      6  N   UNL     1       3.823  -7.862  -8.024  1.00  0.00    -0.334 N 
ATOM      7  H   UNL     1       5.521  -8.655 -10.604  1.00  0.00     0.175 HD
ATOM      8  H   UNL     1       3.296  -8.458  -7.401  1.00  0.00     0.165 HD
ENDROOT
BRANCH   1   9
ATOM      9  C   UNL     1       5.989  -6.558 -11.817  1.00  0.00     0.040 A 
ATOM     10  C   UNL     1       6.950  -5.596 -12.134  1.00  0.00     0.014 A 
ATOM     11  C   UNL     1       7.531  -5.602 -13.402  1.00  0.00     0.004 A 
ATOM     12  C   UNL     1       5.566  -7.483 -12.776  1.00  0.00     0.014 A 
ATOM     13  C   UNL     1       7.150  -6.559 -14.356  1.00  0.00    -0.051 A 
ATOM     14  C   UNL     1       6.153  -7.489 -14.040  1.00  0.00     0.004 A 
ATOM     15  C   UNL     1       7.844  -6.605 -15.685  1.00  0.00     0.044 C 
ENDBRANCH   1   9
BRANCH   6  16
ATOM     16  C   UNL     1       3.632  -6.443  -7.925  1.00  0.00     0.153 C 
BRANCH  16  17
ATOM     17  C   UNL     1       3.768  -5.822  -6.562  1.00  0.00    -0.029 A 
ATOM     18  C   UNL     1       2.697  -5.696  -5.671  1.00  0.00     0.006 A 
ATOM     19  C   UNL     1       5.068  -5.557  -6.102  1.00  0.00     0.006 A 
ATOM     20  C   UNL     1       2.933  -5.335  -4.340  1.00  0.00     0.004 A 
ATOM     21  C   UNL     1       5.302  -5.203  -4.777  1.00  0.00     0.004 A 
ATOM     22  C   UNL     1       4.237  -5.099  -3.881  1.00  0.00    -0.051 A 
ATOM     23  C   UNL     1       4.511  -4.853  -2.428  1.00  0.00     0.044 C 
ENDBRANCH  16  17
ENDBRANCH   6  16
TORSDOF 3
ENDMDL
MODEL 4
REMARK VINA RESULT:    -6.178      3.239      5.543
REMARK INTER + INTRA:          -7.641
REMARK INTER:                  -7.250
REMARK INTRA:                  -0.392
REMARK UNBOUND:                -0.380
REMARK SMILES Cc1ccc(CNC(=O)NC(=O)c2ccc(C)cc2)cc1
REMARK SMILES IDX 11 1 12 2 10 3 8 4 9 5 7 6 13 9 19 10 18 11 14 12 16 13
REMARK SMILES IDX 15 14 17 15 6 16 5 17 4 18 20 19 3 20 21 21 2 22 1 23
REMARK H PARENT 10 7 7 8
ROOT
ATOM      1  C   UNL     1       4.329  -6.310  -7.790  1.00  0.00     0.259 C 
ATOM      2  O   UNL     1       4.282  -5.422  -8.629  1.00  0.00    -0.269 OA
ATOM      3  N   UNL     1       4.434  -7.692  -7.982  1.00  0.00    -0.274 N 
ATOM      4  C   UNL     1       4.745  -8.552  -9.005  1.00  0.00     0.321 C 
ATOM      5  O   UNL     1       4.864  -9.750  -8.729  1.00  0.00    -0.248 OA
ATOM      6  N   UNL     1       4.954  -8.155 -10.274  1.00  0.00    -0.334 N 
ATOM      7  H   UNL     1       4.434  -8.233  -7.128  1.00  0.00     0.175 HD
ATOM      8  H   UNL     1       5.258  -8.897 -10.887  1.00  0.00     0.165 HD
ENDROOT
BRANCH   1   9
ATOM      9  C   UNL     1       4.274  -5.888  -6.377  1.00  0.00     0.040 A 
ATOM     10  C   UNL     1       3.079  -5.916  -5.655  1.00  0.00     0.014 A 
ATOM     11  C   UNL     1       3.087  -5.557  -4.307  1.00  0.00     0.004 A 
ATOM     12  C   UNL     1       5.458  -5.448  -5.777  1.00  0.00     0.014 A 
ATOM     13  C   UNL     1       4.279  -5.164  -3.681  1.00  0.00    -0.051 A 
ATOM     14  C   UNL     1       5.462  -5.097  -4.428  1.00  0.00     0.004 A 
ATOM     15  C   UNL     1       4.287  -4.863  -2.211  1.00  0.00     0.044 C 
ENDBRANCH   1   9
BRANCH   6  16
ATOM     16  C   UNL     1       4.967  -6.812 -10.780  1.00  0.00     0.153 C 
BRANCH  16  17
ATOM     17  C   UNL     1       5.803  -6.543 -12.001  1.00  0.00    -0.029 A 
ATOM     18  C   UNL     1       6.871  -5.640 -12.011  1.00  0.00     0.006 A 
ATOM     19  C   UNL     1       5.624  -7.394 -13.103  1.00  0.00     0.006 A 
ATOM     20  C   UNL     1       7.755  -5.612 -13.096  1.00  0.00     0.004 A 
ATOM     21  C   UNL     1       6.506  -7.369 -14.179  1.00  0.00     0.004 A 
ATOM     22  C   UNL     1       7.585  -6.484 -14.180  1.00  0.00    -0.051 A 
ATOM     23  C   UNL     1       8.606  -6.560 -15.276  1.00  0.00     0.044 C 
ENDBRANCH  16  17
ENDBRANCH   6  16
TORSDOF 3
ENDMDL
MODEL 5
REMARK VINA RESULT:    -5.810      1.237      8.005
REMARK INTER + INTRA:          -7.209
REMARK INTER:                  -6.749
REMARK INTRA:                  -0.460
REMARK UNBOUND:                -0.380
REMARK SMILES Cc1ccc(CNC(=O)NC(=O)c2ccc(C)cc2)cc1
REMARK SMILES IDX 11 1 12 2 10 3 8 4 9 5 7 6 13 9 19 10 18 11 14 12 16 13
REMARK SMILES IDX 15 14 17 15 6 16 5 17 4 18 20 19 3 20 21 21 2 22 1 23
REMARK H PARENT 10 7 7 8
ROOT
ATOM      1  C   UNL     1       4.297  -9.450  -8.185  1.00  0.00     0.259 C 
ATOM      2  O   UNL     1       4.184  -9.143  -7.007  1.00  0.00    -0.269 OA
ATOM      3  N   UNL     1       4.476  -8.616  -9.293  1.00  0.00    -0.274 N 
ATOM      4  C   UNL     1       4.816  -7.310  -9.534  1.00  0.00     0.321 C 
ATOM      5  O   UNL     1       5.007  -6.974 -10.708  1.00  0.00    -0.248 OA
ATOM      6  N   UNL     1       4.979  -6.392  -8.563  1.00  0.00    -0.334 N 
ATOM      7  H   UNL     1       4.522  -9.103 -10.179  1.00  0.00     0.175 HD
ATOM      8  H   UNL     1       5.313  -5.500  -8.899  1.00  0.00     0.165 HD
ENDROOT
BRANCH   1   9
ATOM      9  C   UNL     1       4.244 -10.890  -8.500  1.00  0.00     0.040 A 
ATOM     10  C   UNL     1       3.217 -11.704  -8.017  1.00  0.00     0.014 A 
ATOM     11  C   UNL     1       3.180 -13.049  -8.385  1.00  0.00     0.004 A 
ATOM     12  C   UNL     1       5.260 -11.426  -9.297  1.00  0.00     0.014 A 
ATOM     13  C   UNL     1       4.167 -13.585  -9.226  1.00  0.00    -0.051 A 
ATOM     14  C   UNL     1       5.216 -12.769  -9.667  1.00  0.00     0.004 A 
ATOM     15  C   UNL     1       4.067 -15.011  -9.682  1.00  0.00     0.044 C 
ENDBRANCH   1   9
BRANCH   6  16
ATOM     16  C   UNL     1       4.908  -6.596  -7.144  1.00  0.00     0.153 C 
BRANCH  16  17
ATOM     17  C   UNL     1       4.116  -5.601  -6.343  1.00  0.00    -0.029 A 
ATOM     18  C   UNL     1       3.325  -5.959  -5.246  1.00  0.00     0.006 A 
ATOM     19  C   UNL     1       4.357  -4.239  -6.589  1.00  0.00     0.006 A 
ATOM     20  C   UNL     1       2.811  -4.970  -4.401  1.00  0.00     0.004 A 
ATOM     21  C   UNL     1       3.849  -3.257  -5.745  1.00  0.00     0.004 A 
ATOM     22  C   UNL     1       3.079  -3.615  -4.637  1.00  0.00    -0.051 A 
ATOM     23  C   UNL     1       2.652  -2.561  -3.659  1.00  0.00     0.044 C 
ENDBRANCH  16  17
ENDBRANCH   6  16
TORSDOF 3
ENDMDL
MODEL 6
REMARK VINA RESULT:    -5.327      3.193      5.080
REMARK INTER + INTRA:          -6.641
REMARK INTER:                  -6.137
REMARK INTRA:                  -0.503
REMARK UNBOUND:                -0.380
REMARK SMILES Cc1ccc(CNC(=O)NC(=O)c2ccc(C)cc2)cc1
REMARK SMILES IDX 11 1 12 2 10 3 8 4 9 5 7 6 13 9 19 10 18 11 14 12 16 13
REMARK SMILES IDX 15 14 17 15 6 16 5 17 4 18 20 19 3 20 21 21 2 22 1 23
REMARK H PARENT 10 7 7 8
ROOT
ATOM      1  C   UNL     1       3.783  -5.945  -7.773  1.00  0.00     0.259 C 
ATOM      2  O   UNL     1       3.362  -5.516  -8.838  1.00  0.00    -0.269 OA
ATOM      3  N   UNL     1       4.449  -7.147  -7.515  1.00  0.00    -0.274 N 
ATOM      4  C   UNL     1       5.077  -8.132  -8.234  1.00  0.00     0.321 C 
ATOM      5  O   UNL     1       5.685  -9.003  -7.603  1.00  0.00    -0.248 OA
ATOM      6  N   UNL     1       5.088  -8.180  -9.579  1.00  0.00    -0.334 N 
ATOM      7  H   UNL     1       4.682  -7.294  -6.542  1.00  0.00     0.175 HD
ATOM      8  H   UNL     1       5.666  -8.918  -9.955  1.00  0.00     0.165 HD
ENDROOT
BRANCH   1   9
ATOM      9  C   UNL     1       3.574  -5.091  -6.588  1.00  0.00     0.040 A 
ATOM     10  C   UNL     1       3.825  -3.718  -6.626  1.00  0.00     0.014 A 
ATOM     11  C   UNL     1       3.562  -2.943  -5.497  1.00  0.00     0.004 A 
ATOM     12  C   UNL     1       3.119  -5.698  -5.413  1.00  0.00     0.014 A 
ATOM     13  C   UNL     1       3.057  -3.534  -4.329  1.00  0.00    -0.051 A 
ATOM     14  C   UNL     1       2.852  -4.919  -4.289  1.00  0.00     0.004 A 
ATOM     15  C   UNL     1       2.699  -2.676  -3.152  1.00  0.00     0.044 C 
ENDBRANCH   1   9
BRANCH   6  16
ATOM     16  C   UNL     1       4.538  -7.220 -10.494  1.00  0.00     0.153 C 
BRANCH  16  17
ATOM     17  C   UNL     1       5.426  -6.741 -11.608  1.00  0.00    -0.029 A 
ATOM     18  C   UNL     1       6.379  -5.729 -11.444  1.00  0.00     0.006 A 
ATOM     19  C   UNL     1       5.433  -7.492 -12.795  1.00  0.00     0.006 A 
ATOM     20  C   UNL     1       7.332  -5.497 -12.441  1.00  0.00     0.004 A 
ATOM     21  C   UNL     1       6.384  -7.263 -13.783  1.00  0.00     0.004 A 
ATOM     22  C   UNL     1       7.349  -6.270 -13.611  1.00  0.00    -0.051 A 
ATOM     23  C   UNL     1       8.451  -6.123 -14.617  1.00  0.00     0.044 C 
ENDBRANCH  16  17
ENDBRANCH   6  16
TORSDOF 3
ENDMDL
MODEL 7
REMARK VINA RESULT:    -4.754      4.641      7.085
REMARK INTER + INTRA:          -5.968
REMARK INTER:                  -5.483
REMARK INTRA:                  -0.485
REMARK UNBOUND:                -0.380
REMARK SMILES Cc1ccc(CNC(=O)NC(=O)c2ccc(C)cc2)cc1
REMARK SMILES IDX 11 1 12 2 10 3 8 4 9 5 7 6 13 9 19 10 18 11 14 12 16 13
REMARK SMILES IDX 15 14 17 15 6 16 5 17 4 18 20 19 3 20 21 21 2 22 1 23
REMARK H PARENT 10 7 7 8
ROOT
ATOM      1  C   UNL     1       5.206  -6.700 -11.106  1.00  0.00     0.259 C 
ATOM      2  O   UNL     1       5.497  -5.642 -11.645  1.00  0.00    -0.269 OA
ATOM      3  N   UNL     1       5.202  -7.989 -11.649  1.00  0.00    -0.274 N 
ATOM      4  C   UNL     1       5.687  -8.618 -12.767  1.00  0.00     0.321 C 
ATOM      5  O   UNL     1       5.587  -9.848 -12.822  1.00  0.00    -0.248 OA
ATOM      6  N   UNL     1       6.288  -7.971 -13.784  1.00  0.00    -0.334 N 
ATOM      7  H   UNL     1       4.900  -8.711 -11.009  1.00  0.00     0.175 HD
ATOM      8  H   UNL     1       6.665  -8.586 -14.491  1.00  0.00     0.165 HD
ENDROOT
BRANCH   1   9
ATOM      9  C   UNL     1       4.805  -6.630  -9.687  1.00  0.00     0.040 A 
ATOM     10  C   UNL     1       5.701  -6.935  -8.662  1.00  0.00     0.014 A 
ATOM     11  C   UNL     1       5.292  -6.803  -7.334  1.00  0.00     0.004 A 
ATOM     12  C   UNL     1       3.491  -6.252  -9.394  1.00  0.00     0.014 A 
ATOM     13  C   UNL     1       3.991  -6.375  -7.029  1.00  0.00    -0.051 A 
ATOM     14  C   UNL     1       3.088  -6.116  -8.067  1.00  0.00     0.004 A 
ATOM     15  C   UNL     1       3.593  -6.157  -5.599  1.00  0.00     0.044 C 
ENDBRANCH   1   9
BRANCH   6  16
ATOM     16  C   UNL     1       6.596  -6.572 -13.872  1.00  0.00     0.153 C 
BRANCH  16  17
ATOM     17  C   UNL     1       7.995  -6.198 -14.274  1.00  0.00    -0.029 A 
ATOM     18  C   UNL     1       9.083  -6.255 -13.397  1.00  0.00     0.006 A 
ATOM     19  C   UNL     1       8.237  -5.987 -15.641  1.00  0.00     0.006 A 
ATOM     20  C   UNL     1      10.387  -6.129 -13.889  1.00  0.00     0.004 A 
ATOM     21  C   UNL     1       9.534  -5.866 -16.130  1.00  0.00     0.004 A 
ATOM     22  C   UNL     1      10.621  -5.946 -15.259  1.00  0.00    -0.051 A 
ATOM     23  C   UNL     1      12.015  -5.953 -15.811  1.00  0.00     0.044 C 
ENDBRANCH  16  17
ENDBRANCH   6  16
TORSDOF 3
ENDMDL
MODEL 8
REMARK VINA RESULT:    -4.743      1.885      2.076
REMARK INTER + INTRA:          -5.955
REMARK INTER:                  -5.567
REMARK INTRA:                  -0.388
REMARK UNBOUND:                -0.380
REMARK SMILES Cc1ccc(CNC(=O)NC(=O)c2ccc(C)cc2)cc1
REMARK SMILES IDX 11 1 12 2 10 3 8 4 9 5 7 6 13 9 19 10 18 11 14 12 16 13
REMARK SMILES IDX 15 14 17 15 6 16 5 17 4 18 20 19 3 20 21 21 2 22 1 23
REMARK H PARENT 10 7 7 8
ROOT
ATOM      1  C   UNL     1       3.834  -5.933  -6.745  1.00  0.00     0.259 C 
ATOM      2  O   UNL     1       4.740  -6.712  -6.485  1.00  0.00    -0.269 OA
ATOM      3  N   UNL     1       3.016  -5.888  -7.879  1.00  0.00    -0.274 N 
ATOM      4  C   UNL     1       2.707  -6.702  -8.938  1.00  0.00     0.321 C 
ATOM      5  O   UNL     1       1.798  -6.341  -9.692  1.00  0.00    -0.248 OA
ATOM      6  N   UNL     1       3.319  -7.877  -9.177  1.00  0.00    -0.334 N 
ATOM      7  H   UNL     1       2.344  -5.132  -7.878  1.00  0.00     0.175 HD
ATOM      8  H   UNL     1       2.918  -8.395  -9.945  1.00  0.00     0.165 HD
ENDROOT
BRANCH   1   9
ATOM      9  C   UNL     1       3.545  -4.895  -5.736  1.00  0.00     0.040 A 
ATOM     10  C   UNL     1       3.166  -3.604  -6.108  1.00  0.00     0.014 A 
ATOM     11  C   UNL     1       2.853  -2.671  -5.119  1.00  0.00     0.004 A 
ATOM     12  C   UNL     1       3.669  -5.238  -4.386  1.00  0.00     0.014 A 
ATOM     13  C   UNL     1       2.924  -3.021  -3.762  1.00  0.00    -0.051 A 
ATOM     14  C   UNL     1       3.349  -4.306  -3.402  1.00  0.00     0.004 A 
ATOM     15  C   UNL     1       2.502  -2.035  -2.713  1.00  0.00     0.044 C 
ENDBRANCH   1   9
BRANCH   6  16
ATOM     16  C   UNL     1       4.318  -8.523  -8.374  1.00  0.00     0.153 C 
BRANCH  16  17
ATOM     17  C   UNL     1       4.372 -10.025  -8.417  1.00  0.00    -0.029 A 
ATOM     18  C   UNL     1       3.381 -10.841  -7.863  1.00  0.00     0.006 A 
ATOM     19  C   UNL     1       5.355 -10.610  -9.233  1.00  0.00     0.006 A 
ATOM     20  C   UNL     1       3.364 -12.212  -8.144  1.00  0.00     0.004 A 
ATOM     21  C   UNL     1       5.335 -11.972  -9.515  1.00  0.00     0.004 A 
ATOM     22  C   UNL     1       4.332 -12.784  -8.981  1.00  0.00    -0.051 A 
ATOM     23  C   UNL     1       4.239 -14.220  -9.401  1.00  0.00     0.044 C 
ENDBRANCH  16  17
ENDBRANCH   6  16
TORSDOF 3
ENDMDL
MODEL 9
REMARK VINA RESULT:    -4.579      6.418     10.850
REMARK INTER + INTRA:          -5.762
REMARK INTER:                  -5.187
REMARK INTRA:                  -0.575
REMARK UNBOUND:                -0.380
REMARK SMILES Cc1ccc(CNC(=O)NC(=O)c2ccc(C)cc2)cc1
REMARK SMILES IDX 11 1 12 2 10 3 8 4 9 5 7 6 13 9 19 10 18 11 14 12 16 13
REMARK SMILES IDX 15 14 17 15 6 16 5 17 4 18 20 19 3 20 21 21 2 22 1 23
REMARK H PARENT 10 7 7 8
ROOT
ATOM      1  C   UNL     1       9.504  -9.699 -15.372  1.00  0.00     0.259 C 
ATOM      2  O   UNL     1       8.346  -9.483 -15.700  1.00  0.00    -0.269 OA
ATOM      3  N   UNL     1      10.498  -8.781 -15.015  1.00  0.00    -0.274 N 
ATOM      4  C   UNL     1      10.576  -7.457 -14.666  1.00  0.00     0.321 C 
ATOM      5  O   UNL     1      11.669  -7.031 -14.275  1.00  0.00    -0.248 OA
ATOM      6  N   UNL     1       9.527  -6.615 -14.699  1.00  0.00    -0.334 N 
ATOM      7  H   UNL     1      11.394  -9.199 -14.801  1.00  0.00     0.175 HD
ATOM      8  H   UNL     1       9.730  -5.698 -14.330  1.00  0.00     0.165 HD
ENDROOT
BRANCH   1   9
ATOM      9  C   UNL     1       9.929 -11.111 -15.336  1.00  0.00     0.040 A 
ATOM     10  C   UNL     1      11.253 -11.480 -15.581  1.00  0.00     0.014 A 
ATOM     11  C   UNL     1      11.619 -12.823 -15.484  1.00  0.00     0.004 A 
ATOM     12  C   UNL     1       8.962 -12.081 -15.055  1.00  0.00     0.014 A 
ATOM     13  C   UNL     1      10.666 -13.798 -15.152  1.00  0.00    -0.051 A 
ATOM     14  C   UNL     1       9.332 -13.421 -14.953  1.00  0.00     0.004 A 
ATOM     15  C   UNL     1      11.091 -15.225 -14.969  1.00  0.00     0.044 C 
ENDBRANCH   1   9
BRANCH   6  16
ATOM     16  C   UNL     1       8.163  -6.928 -15.019  1.00  0.00     0.153 C 
BRANCH  16  17
ATOM     17  C   UNL     1       7.135  -6.717 -13.942  1.00  0.00    -0.029 A 
ATOM     18  C   UNL     1       6.084  -7.608 -13.704  1.00  0.00     0.006 A 
ATOM     19  C   UNL     1       7.378  -5.690 -13.015  1.00  0.00     0.006 A 
ATOM     20  C   UNL     1       5.311  -7.485 -12.545  1.00  0.00     0.004 A 
ATOM     21  C   UNL     1       6.611  -5.572 -11.860  1.00  0.00     0.004 A 
ATOM     22  C   UNL     1       5.576  -6.475 -11.610  1.00  0.00    -0.051 A 
ATOM     23  C   UNL     1       4.847  -6.423 -10.301  1.00  0.00     0.044 C 
ENDBRANCH  16  17
ENDBRANCH   6  16
TORSDOF 3
ENDMDL
