MODEL 1
REMARK VINA RESULT:    -4.229      0.000      0.000
REMARK INTER + INTRA:          -5.805
REMARK INTER:                  -5.588
REMARK INTRA:                  -0.216
REMARK UNBOUND:                -0.216
REMARK SMILES [H]/N=C\C[C@H]1C[C@@H]1O[C@H]1CO[C@H]2C[C@@H](C3CC3)CCN2C1
REMARK SMILES IDX 7 1 6 2 5 3 8 4 9 5 14 6 13 7 18 8 12 9 19 10 20 11 11 12
REMARK SMILES IDX 21 13 10 14 15 15 16 16 17 17 4 18 3 19 2 20 1 21
REMARK H PARENT
ROOT
ATOM      1  C   UNL     1       3.930 -10.184  -8.526  1.00  0.00     0.122 C 
ATOM      2  C   UNL     1       4.918 -11.277  -8.824  1.00  0.00     0.039 C 
ATOM      3  C   UNL     1       3.738 -11.555  -7.937  1.00  0.00     0.026 C 
ENDROOT
BRANCH   1   4
ATOM      4  O   UNL     1       4.431  -9.166  -7.639  1.00  0.00    -0.371 OA
BRANCH   4   5
ATOM      5  C   UNL     1       5.363  -8.241  -8.221  1.00  0.00     0.158 C 
ATOM      6  C   UNL     1       3.439  -3.825  -6.222  1.00  0.00    -0.003 C 
ATOM      7  C   UNL     1       3.002  -4.825  -7.299  1.00  0.00     0.052 C 
ATOM      8  C   UNL     1       4.208  -4.569  -5.121  1.00  0.00     0.019 C 
ATOM      9  C   UNL     1       4.182  -5.659  -7.816  1.00  0.00     0.189 C 
ATOM     10  C   UNL     1       5.346  -5.406  -5.704  1.00  0.00     0.087 C 
ATOM     11  N   UNL     1       4.845  -6.345  -6.707  1.00  0.00    -0.276 NA
ATOM     12  O   UNL     1       3.647  -6.577  -8.771  1.00  0.00    -0.360 OA
ATOM     13  C   UNL     1       5.912  -7.217  -7.213  1.00  0.00     0.121 C 
ATOM     14  C   UNL     1       4.634  -7.456  -9.317  1.00  0.00     0.195 C 
BRANCH   6  15
ATOM     15  C   UNL     1       2.256  -3.087  -5.637  1.00  0.00    -0.008 C 
ATOM     16  C   UNL     1       2.347  -1.607  -5.347  1.00  0.00     0.004 C 
ATOM     17  C   UNL     1       1.475  -2.096  -6.467  1.00  0.00     0.004 C 
ENDBRANCH   6  15
ENDBRANCH   4   5
ENDBRANCH   1   4
BRANCH   3  18
ATOM     18  C   UNL     1       2.645 -12.448  -8.441  1.00  0.00     0.053 C 
BRANCH  18  19
ATOM     19  C   UNL     1       3.052 -13.846  -8.831  1.00  0.00     0.074 C 
BRANCH  19  20
ATOM     20  N   UNL     1       3.332 -14.808  -8.016  1.00  0.00    -0.313 NA
ATOM     21  H   UNL     1       2.850 -14.693  -7.113  1.00  0.00     0.186 HD
ENDBRANCH  19  20
ENDBRANCH  18  19
ENDBRANCH   3  18
TORSDOF 6
ENDMDL
MODEL 2
REMARK VINA RESULT:    -4.218      6.578      7.986
REMARK INTER + INTRA:          -5.791
REMARK INTER:                  -5.644
REMARK INTRA:                  -0.147
REMARK UNBOUND:                -0.216
REMARK SMILES [H]/N=C\C[C@H]1C[C@@H]1O[C@H]1CO[C@H]2C[C@@H](C3CC3)CCN2C1
REMARK SMILES IDX 7 1 6 2 5 3 8 4 9 5 14 6 13 7 18 8 12 9 19 10 20 11 11 12
REMARK SMILES IDX 21 13 10 14 15 15 16 16 17 17 4 18 3 19 2 20 1 21
REMARK H PARENT
ROOT
ATOM      1  C   UNL     1       8.895 -10.768 -15.350  1.00  0.00     0.122 C 
ATOM      2  C   UNL     1       9.781 -10.513 -16.537  1.00  0.00     0.039 C 
ATOM      3  C   UNL     1      10.363 -11.093 -15.280  1.00  0.00     0.026 C 
ENDROOT
BRANCH   1   4
ATOM      4  O   UNL     1       8.466  -9.574 -14.670  1.00  0.00    -0.371 OA
BRANCH   4   5
ATOM      5  C   UNL     1       7.457  -8.805 -15.346  1.00  0.00     0.158 C 
ATOM      6  C   UNL     1       5.275  -6.546 -11.181  1.00  0.00    -0.003 C 
ATOM      7  C   UNL     1       5.298  -7.958 -11.779  1.00  0.00     0.052 C 
ATOM      8  C   UNL     1       6.611  -5.849 -11.476  1.00  0.00     0.019 C 
ATOM      9  C   UNL     1       5.681  -7.942 -13.265  1.00  0.00     0.189 C 
ATOM     10  C   UNL     1       6.950  -5.898 -12.965  1.00  0.00     0.087 C 
ATOM     11  N   UNL     1       6.970  -7.277 -13.453  1.00  0.00    -0.276 NA
ATOM     12  O   UNL     1       5.713  -9.305 -13.693  1.00  0.00    -0.360 OA
ATOM     13  C   UNL     1       7.379  -7.347 -14.860  1.00  0.00     0.121 C 
ATOM     14  C   UNL     1       6.097  -9.452 -15.064  1.00  0.00     0.195 C 
BRANCH   6  15
ATOM     15  C   UNL     1       5.009  -6.577  -9.693  1.00  0.00    -0.008 C 
ATOM     16  C   UNL     1       3.592  -6.613  -9.171  1.00  0.00     0.004 C 
ATOM     17  C   UNL     1       4.471  -7.822  -9.030  1.00  0.00     0.004 C 
ENDBRANCH   6  15
ENDBRANCH   4   5
ENDBRANCH   1   4
BRANCH   3  18
ATOM     18  C   UNL     1      10.822 -12.520 -15.283  1.00  0.00     0.053 C 
BRANCH  18  19
ATOM     19  C   UNL     1      12.312 -12.740 -15.262  1.00  0.00     0.074 C 
BRANCH  19  20
ATOM     20  N   UNL     1      13.014 -13.076 -14.231  1.00  0.00    -0.313 NA
ATOM     21  H   UNL     1      14.015 -12.882 -14.374  1.00  0.00     0.186 HD
ENDBRANCH  19  20
ENDBRANCH  18  19
ENDBRANCH   3  18
TORSDOF 6
ENDMDL
MODEL 3
REMARK VINA RESULT:    -4.192      3.309      5.588
REMARK INTER + INTRA:          -5.757
REMARK INTER:                  -5.550
REMARK INTRA:                  -0.206
REMARK UNBOUND:                -0.216
REMARK SMILES [H]/N=C\C[C@H]1C[C@@H]1O[C@H]1CO[C@H]2C[C@@H](C3CC3)CCN2C1
REMARK SMILES IDX 7 1 6 2 5 3 8 4 9 5 14 6 13 7 18 8 12 9 19 10 20 11 11 12
REMARK SMILES IDX 21 13 10 14 15 15 16 16 17 17 4 18 3 19 2 20 1 21
REMARK H PARENT
ROOT
ATOM      1  C   UNL     1       6.034  -6.517 -11.137  1.00  0.00     0.122 C 
ATOM      2  C   UNL     1       5.656  -6.968 -12.520  1.00  0.00     0.039 C 
ATOM      3  C   UNL     1       6.436  -5.698 -12.332  1.00  0.00     0.026 C 
ENDROOT
BRANCH   1   4
ATOM      4  O   UNL     1       4.927  -6.023 -10.358  1.00  0.00    -0.371 OA
BRANCH   4   5
ATOM      5  C   UNL     1       4.024  -7.023  -9.860  1.00  0.00     0.158 C 
ATOM      6  C   UNL     1       3.493  -5.241  -4.987  1.00  0.00    -0.003 C 
ATOM      7  C   UNL     1       4.601  -5.936  -5.788  1.00  0.00     0.052 C 
ATOM      8  C   UNL     1       2.668  -4.352  -5.929  1.00  0.00     0.019 C 
ATOM      9  C   UNL     1       4.043  -6.672  -7.014  1.00  0.00     0.189 C 
ATOM     10  C   UNL     1       2.171  -5.135  -7.144  1.00  0.00     0.087 C 
ATOM     11  N   UNL     1       3.287  -5.750  -7.862  1.00  0.00    -0.276 NA
ATOM     12  O   UNL     1       5.164  -7.234  -7.698  1.00  0.00    -0.360 OA
ATOM     13  C   UNL     1       2.836  -6.432  -9.080  1.00  0.00     0.121 C 
ATOM     14  C   UNL     1       4.799  -7.927  -8.896  1.00  0.00     0.195 C 
BRANCH   6  15
ATOM     15  C   UNL     1       4.060  -4.425  -3.848  1.00  0.00    -0.008 C 
ATOM     16  C   UNL     1       3.364  -4.397  -2.508  1.00  0.00     0.004 C 
ATOM     17  C   UNL     1       4.683  -5.099  -2.649  1.00  0.00     0.004 C 
ENDBRANCH   6  15
ENDBRANCH   4   5
ENDBRANCH   1   4
BRANCH   3  18
ATOM     18  C   UNL     1       7.869  -5.653 -12.770  1.00  0.00     0.053 C 
BRANCH  18  19
ATOM     19  C   UNL     1       8.129  -5.930 -14.228  1.00  0.00     0.074 C 
BRANCH  19  20
ATOM     20  N   UNL     1       7.823  -5.152 -15.213  1.00  0.00    -0.313 NA
ATOM     21  H   UNL     1       8.662  -4.765 -15.667  1.00  0.00     0.186 HD
ENDBRANCH  19  20
ENDBRANCH  18  19
ENDBRANCH   3  18
TORSDOF 6
ENDMDL
MODEL 4
REMARK VINA RESULT:    -4.097      5.167      8.383
REMARK INTER + INTRA:          -5.631
REMARK INTER:                  -5.431
REMARK INTRA:                  -0.200
REMARK UNBOUND:                -0.216
REMARK SMILES [H]/N=C\C[C@H]1C[C@@H]1O[C@H]1CO[C@H]2C[C@@H](C3CC3)CCN2C1
REMARK SMILES IDX 7 1 6 2 5 3 8 4 9 5 14 6 13 7 18 8 12 9 19 10 20 11 11 12
REMARK SMILES IDX 21 13 10 14 15 15 16 16 17 17 4 18 3 19 2 20 1 21
REMARK H PARENT
ROOT
ATOM      1  C   UNL     1       4.919  -7.113  -8.987  1.00  0.00     0.122 C 
ATOM      2  C   UNL     1       4.981  -8.342  -8.125  1.00  0.00     0.039 C 
ATOM      3  C   UNL     1       5.805  -7.137  -7.772  1.00  0.00     0.026 C 
ENDROOT
BRANCH   1   4
ATOM      4  O   UNL     1       5.572  -7.258 -10.263  1.00  0.00    -0.371 OA
BRANCH   4   5
ATOM      5  C   UNL     1       4.985  -6.519 -11.347  1.00  0.00     0.158 C 
ATOM      6  C   UNL     1       8.988  -6.710 -14.685  1.00  0.00    -0.003 C 
ATOM      7  C   UNL     1       8.687  -5.977 -13.371  1.00  0.00     0.052 C 
ATOM      8  C   UNL     1       8.291  -8.077 -14.674  1.00  0.00     0.019 C 
ATOM      9  C   UNL     1       7.180  -5.909 -13.089  1.00  0.00     0.189 C 
ATOM     10  C   UNL     1       6.802  -7.943 -14.354  1.00  0.00     0.087 C 
ATOM     11  N   UNL     1       6.601  -7.252 -13.080  1.00  0.00    -0.276 NA
ATOM     12  O   UNL     1       7.030  -5.252 -11.829  1.00  0.00    -0.360 OA
ATOM     13  C   UNL     1       5.181  -7.192 -12.717  1.00  0.00     0.121 C 
ATOM     14  C   UNL     1       5.665  -5.147 -11.411  1.00  0.00     0.195 C 
BRANCH   6  15
ATOM     15  C   UNL     1      10.476  -6.874 -14.900  1.00  0.00    -0.008 C 
ATOM     16  C   UNL     1      11.058  -6.804 -16.292  1.00  0.00     0.004 C 
ATOM     17  C   UNL     1      11.332  -5.701 -15.312  1.00  0.00     0.004 C 
ENDBRANCH   6  15
ENDBRANCH   4   5
ENDBRANCH   1   4
BRANCH   3  18
ATOM     18  C   UNL     1       5.441  -6.340  -6.555  1.00  0.00     0.053 C 
BRANCH  18  19
ATOM     19  C   UNL     1       6.584  -5.917  -5.669  1.00  0.00     0.074 C 
BRANCH  19  20
ATOM     20  N   UNL     1       7.727  -6.511  -5.572  1.00  0.00    -0.313 NA
ATOM     21  H   UNL     1       7.724  -7.222  -4.827  1.00  0.00     0.186 HD
ENDBRANCH  19  20
ENDBRANCH  18  19
ENDBRANCH   3  18
TORSDOF 6
ENDMDL
MODEL 5
REMARK VINA RESULT:    -3.859      4.359      6.781
REMARK INTER + INTRA:          -5.317
REMARK INTER:                  -5.002
REMARK INTRA:                  -0.315
REMARK UNBOUND:                -0.216
REMARK SMILES [H]/N=C\C[C@H]1C[C@@H]1O[C@H]1CO[C@H]2C[C@@H](C3CC3)CCN2C1
REMARK SMILES IDX 7 1 6 2 5 3 8 4 9 5 14 6 13 7 18 8 12 9 19 10 20 11 11 12
REMARK SMILES IDX 21 13 10 14 15 15 16 16 17 17 4 18 3 19 2 20 1 21
REMARK H PARENT
ROOT
ATOM      1  C   UNL     1       4.047 -14.763 -13.118  1.00  0.00     0.122 C 
ATOM      2  C   UNL     1       2.563 -14.952 -13.252  1.00  0.00     0.039 C 
ATOM      3  C   UNL     1       3.370 -14.503 -14.436  1.00  0.00     0.026 C 
ENDROOT
BRANCH   1   4
ATOM      4  O   UNL     1       4.425 -13.605 -12.348  1.00  0.00    -0.371 OA
BRANCH   4   5
ATOM      5  C   UNL     1       5.428 -13.829 -11.344  1.00  0.00     0.158 C 
ATOM      6  C   UNL     1       4.605  -9.569  -8.450  1.00  0.00    -0.003 C 
ATOM      7  C   UNL     1       5.215  -9.861  -9.826  1.00  0.00     0.052 C 
ATOM      8  C   UNL     1       3.485 -10.580  -8.166  1.00  0.00     0.019 C 
ATOM      9  C   UNL     1       5.648 -11.327  -9.959  1.00  0.00     0.189 C 
ATOM     10  C   UNL     1       3.971 -12.018  -8.349  1.00  0.00     0.087 C 
ATOM     11  N   UNL     1       4.519 -12.219  -9.690  1.00  0.00    -0.276 NA
ATOM     12  O   UNL     1       6.152 -11.486 -11.287  1.00  0.00    -0.360 OA
ATOM     13  C   UNL     1       4.910 -13.615  -9.911  1.00  0.00     0.121 C 
ATOM     14  C   UNL     1       6.563 -12.826 -11.573  1.00  0.00     0.195 C 
BRANCH   6  15
ATOM     15  C   UNL     1       4.078  -8.155  -8.365  1.00  0.00    -0.008 C 
ATOM     16  C   UNL     1       4.767  -7.133  -7.491  1.00  0.00     0.004 C 
ATOM     17  C   UNL     1       4.837  -7.007  -8.985  1.00  0.00     0.004 C 
ENDBRANCH   6  15
ENDBRANCH   4   5
ENDBRANCH   1   4
BRANCH   3  18
ATOM     18  C   UNL     1       3.563 -15.448 -15.584  1.00  0.00     0.053 C 
BRANCH  18  19
ATOM     19  C   UNL     1       2.591 -15.315 -16.727  1.00  0.00     0.074 C 
BRANCH  19  20
ATOM     20  N   UNL     1       1.585 -14.507 -16.775  1.00  0.00    -0.313 NA
ATOM     21  H   UNL     1       0.762 -14.950 -17.209  1.00  0.00     0.186 HD
ENDBRANCH  19  20
ENDBRANCH  18  19
ENDBRANCH   3  18
TORSDOF 6
ENDMDL
MODEL 6
REMARK VINA RESULT:    -3.627      5.622      7.081
REMARK INTER + INTRA:          -5.009
REMARK INTER:                  -4.620
REMARK INTRA:                  -0.389
REMARK UNBOUND:                -0.216
REMARK SMILES [H]/N=C\C[C@H]1C[C@@H]1O[C@H]1CO[C@H]2C[C@@H](C3CC3)CCN2C1
REMARK SMILES IDX 7 1 6 2 5 3 8 4 9 5 14 6 13 7 18 8 12 9 19 10 20 11 11 12
REMARK SMILES IDX 21 13 10 14 15 15 16 16 17 17 4 18 3 19 2 20 1 21
REMARK H PARENT
ROOT
ATOM      1  C   UNL     1       8.085 -10.925 -15.491  1.00  0.00     0.122 C 
ATOM      2  C   UNL     1       9.219 -11.811 -15.059  1.00  0.00     0.039 C 
ATOM      3  C   UNL     1       7.895 -11.892 -14.354  1.00  0.00     0.026 C 
ENDROOT
BRANCH   1   4
ATOM      4  O   UNL     1       8.255  -9.539 -15.137  1.00  0.00    -0.371 OA
BRANCH   4   5
ATOM      5  C   UNL     1       7.305  -8.631 -15.717  1.00  0.00     0.158 C 
ATOM      6  C   UNL     1       5.444  -6.533 -11.320  1.00  0.00    -0.003 C 
ATOM      7  C   UNL     1       5.322  -7.888 -12.027  1.00  0.00     0.052 C 
ATOM      8  C   UNL     1       6.830  -5.936 -11.601  1.00  0.00     0.019 C 
ATOM      9  C   UNL     1       5.668  -7.785 -13.519  1.00  0.00     0.189 C 
ATOM     10  C   UNL     1       7.126  -5.894 -13.100  1.00  0.00     0.087 C 
ATOM     11  N   UNL     1       7.008  -7.225 -13.695  1.00  0.00    -0.276 NA
ATOM     12  O   UNL     1       5.564  -9.106 -14.054  1.00  0.00    -0.360 OA
ATOM     13  C   UNL     1       7.373  -7.216 -15.116  1.00  0.00     0.121 C 
ATOM     14  C   UNL     1       5.898  -9.174 -15.444  1.00  0.00     0.195 C 
BRANCH   6  15
ATOM     15  C   UNL     1       5.213  -6.662  -9.831  1.00  0.00    -0.008 C 
ATOM     16  C   UNL     1       3.810  -6.642  -9.270  1.00  0.00     0.004 C 
ATOM     17  C   UNL     1       4.606  -7.915  -9.247  1.00  0.00     0.004 C 
ENDBRANCH   6  15
ENDBRANCH   4   5
ENDBRANCH   1   4
BRANCH   3  18
ATOM     18  C   UNL     1       7.049 -13.116 -14.536  1.00  0.00     0.053 C 
BRANCH  18  19
ATOM     19  C   UNL     1       5.621 -13.014 -14.068  1.00  0.00     0.074 C 
BRANCH  19  20
ATOM     20  N   UNL     1       5.047 -11.949 -13.614  1.00  0.00    -0.313 NA
ATOM     21  H   UNL     1       4.571 -12.127 -12.719  1.00  0.00     0.186 HD
ENDBRANCH  19  20
ENDBRANCH  18  19
ENDBRANCH   3  18
TORSDOF 6
ENDMDL
MODEL 7
REMARK VINA RESULT:    -3.437      4.213      7.113
REMARK INTER + INTRA:          -4.758
REMARK INTER:                  -4.155
REMARK INTRA:                  -0.604
REMARK UNBOUND:                -0.216
REMARK SMILES [H]/N=C\C[C@H]1C[C@@H]1O[C@H]1CO[C@H]2C[C@@H](C3CC3)CCN2C1
REMARK SMILES IDX 7 1 6 2 5 3 8 4 9 5 14 6 13 7 18 8 12 9 19 10 20 11 11 12
REMARK SMILES IDX 21 13 10 14 15 15 16 16 17 17 4 18 3 19 2 20 1 21
REMARK H PARENT
ROOT
ATOM      1  C   UNL     1       5.305 -14.026 -13.622  1.00  0.00     0.122 C 
ATOM      2  C   UNL     1       4.489 -14.174 -14.876  1.00  0.00     0.039 C 
ATOM      3  C   UNL     1       4.927 -12.810 -14.424  1.00  0.00     0.026 C 
ENDROOT
BRANCH   1   4
ATOM      4  O   UNL     1       4.563 -14.254 -12.409  1.00  0.00    -0.371 OA
BRANCH   4   5
ATOM      5  C   UNL     1       5.351 -14.600 -11.257  1.00  0.00     0.158 C 
ATOM      6  C   UNL     1       4.519 -10.301  -8.423  1.00  0.00    -0.003 C 
ATOM      7  C   UNL     1       5.319 -10.646  -9.685  1.00  0.00     0.052 C 
ATOM      8  C   UNL     1       3.264 -11.181  -8.361  1.00  0.00     0.019 C 
ATOM      9  C   UNL     1       5.604 -12.151  -9.785  1.00  0.00     0.189 C 
ATOM     10  C   UNL     1       3.613 -12.663  -8.500  1.00  0.00     0.087 C 
ATOM     11  N   UNL     1       4.356 -12.912  -9.735  1.00  0.00    -0.276 NA
ATOM     12  O   UNL     1       6.307 -12.353 -11.013  1.00  0.00    -0.360 OA
ATOM     13  C   UNL     1       4.623 -14.342  -9.926  1.00  0.00     0.121 C 
ATOM     14  C   UNL     1       6.611 -13.729 -11.264  1.00  0.00     0.195 C 
BRANCH   6  15
ATOM     15  C   UNL     1       4.143  -8.836  -8.388  1.00  0.00    -0.008 C 
ATOM     16  C   UNL     1       5.103  -7.815  -7.825  1.00  0.00     0.004 C 
ATOM     17  C   UNL     1       4.821  -7.842  -9.299  1.00  0.00     0.004 C 
ENDBRANCH   6  15
ENDBRANCH   4   5
ENDBRANCH   1   4
BRANCH   3  18
ATOM     18  C   UNL     1       5.964 -12.078 -15.222  1.00  0.00     0.053 C 
BRANCH  18  19
ATOM     19  C   UNL     1       6.557 -10.853 -14.578  1.00  0.00     0.074 C 
BRANCH  19  20
ATOM     20  N   UNL     1       6.537 -10.575 -13.317  1.00  0.00    -0.313 NA
ATOM     21  H   UNL     1       7.172 -11.185 -12.783  1.00  0.00     0.186 HD
ENDBRANCH  19  20
ENDBRANCH  18  19
ENDBRANCH   3  18
TORSDOF 6
ENDMDL
MODEL 8
REMARK VINA RESULT:    -3.311      5.326      7.162
REMARK INTER + INTRA:          -4.593
REMARK INTER:                  -4.265
REMARK INTRA:                  -0.328
REMARK UNBOUND:                -0.216
REMARK SMILES [H]/N=C\C[C@H]1C[C@@H]1O[C@H]1CO[C@H]2C[C@@H](C3CC3)CCN2C1
REMARK SMILES IDX 7 1 6 2 5 3 8 4 9 5 14 6 13 7 18 8 12 9 19 10 20 11 11 12
REMARK SMILES IDX 21 13 10 14 15 15 16 16 17 17 4 18 3 19 2 20 1 21
REMARK H PARENT
ROOT
ATOM      1  C   UNL     1       6.732 -12.829 -13.270  1.00  0.00     0.122 C 
ATOM      2  C   UNL     1       7.513 -13.883 -12.537  1.00  0.00     0.039 C 
ATOM      3  C   UNL     1       6.984 -12.691 -11.794  1.00  0.00     0.026 C 
ENDROOT
BRANCH   1   4
ATOM      4  O   UNL     1       7.531 -12.006 -14.141  1.00  0.00    -0.371 OA
BRANCH   4   5
ATOM      5  C   UNL     1       6.819 -11.365 -15.212  1.00  0.00     0.158 C 
ATOM      6  C   UNL     1       6.386  -6.604 -13.124  1.00  0.00    -0.003 C 
ATOM      7  C   UNL     1       5.753  -7.978 -12.868  1.00  0.00     0.052 C 
ATOM      8  C   UNL     1       7.825  -6.794 -13.622  1.00  0.00     0.019 C 
ATOM      9  C   UNL     1       5.877  -8.899 -14.090  1.00  0.00     0.189 C 
ATOM     10  C   UNL     1       7.883  -7.747 -14.816  1.00  0.00     0.087 C 
ATOM     11  N   UNL     1       7.278  -9.037 -14.485  1.00  0.00    -0.276 NA
ATOM     12  O   UNL     1       5.298 -10.151 -13.717  1.00  0.00    -0.360 OA
ATOM     13  C   UNL     1       7.403  -9.992 -15.592  1.00  0.00     0.121 C 
ATOM     14  C   UNL     1       5.375 -11.134 -14.754  1.00  0.00     0.195 C 
BRANCH   6  15
ATOM     15  C   UNL     1       6.363  -5.743 -11.882  1.00  0.00    -0.008 C 
ATOM     16  C   UNL     1       5.138  -4.926 -11.542  1.00  0.00     0.004 C 
ATOM     17  C   UNL     1       5.502  -6.114 -10.699  1.00  0.00     0.004 C 
ENDBRANCH   6  15
ENDBRANCH   4   5
ENDBRANCH   1   4
BRANCH   3  18
ATOM     18  C   UNL     1       5.865 -12.882 -10.814  1.00  0.00     0.053 C 
BRANCH  18  19
ATOM     19  C   UNL     1       5.565 -11.716  -9.909  1.00  0.00     0.074 C 
BRANCH  19  20
ATOM     20  N   UNL     1       5.258 -10.521 -10.289  1.00  0.00    -0.313 NA
ATOM     21  H   UNL     1       4.352 -10.220  -9.903  1.00  0.00     0.186 HD
ENDBRANCH  19  20
ENDBRANCH  18  19
ENDBRANCH   3  18
TORSDOF 6
ENDMDL
MODEL 9
REMARK VINA RESULT:    -3.192      6.696     10.167
REMARK INTER + INTRA:          -4.435
REMARK INTER:                  -4.212
REMARK INTRA:                  -0.222
REMARK UNBOUND:                -0.216
REMARK SMILES [H]/N=C\C[C@H]1C[C@@H]1O[C@H]1CO[C@H]2C[C@@H](C3CC3)CCN2C1
REMARK SMILES IDX 7 1 6 2 5 3 8 4 9 5 14 6 13 7 18 8 12 9 19 10 20 11 11 12
REMARK SMILES IDX 21 13 10 14 15 15 16 16 17 17 4 18 3 19 2 20 1 21
REMARK H PARENT
ROOT
ATOM      1  C   UNL     1       6.236  -5.939 -11.584  1.00  0.00     0.122 C 
ATOM      2  C   UNL     1       4.883  -6.338 -12.102  1.00  0.00     0.039 C 
ATOM      3  C   UNL     1       5.326  -6.790 -10.740  1.00  0.00     0.026 C 
ENDROOT
BRANCH   1   4
ATOM      4  O   UNL     1       7.334  -6.613 -12.229  1.00  0.00    -0.371 OA
BRANCH   4   5
ATOM      5  C   UNL     1       8.009  -5.860 -13.249  1.00  0.00     0.158 C 
ATOM      6  C   UNL     1       9.813  -9.841 -16.095  1.00  0.00    -0.003 C 
ATOM      7  C   UNL     1      10.147  -9.227 -14.731  1.00  0.00     0.052 C 
ATOM      8  C   UNL     1       8.312  -9.681 -16.370  1.00  0.00     0.019 C 
ATOM      9  C   UNL     1       9.641  -7.782 -14.617  1.00  0.00     0.189 C 
ATOM     10  C   UNL     1       7.866  -8.228 -16.207  1.00  0.00     0.087 C 
ATOM     11  N   UNL     1       8.202  -7.723 -14.876  1.00  0.00    -0.276 NA
ATOM     12  O   UNL     1       9.967  -7.338 -13.298  1.00  0.00    -0.360 OA
ATOM     13  C   UNL     1       7.704  -6.358 -14.673  1.00  0.00     0.121 C 
ATOM     14  C   UNL     1       9.518  -6.006 -13.029  1.00  0.00     0.195 C 
BRANCH   6  15
ATOM     15  C   UNL     1      10.212 -11.298 -16.161  1.00  0.00    -0.008 C 
ATOM     16  C   UNL     1      11.532 -11.702 -16.775  1.00  0.00     0.004 C 
ATOM     17  C   UNL     1      11.326 -11.835 -15.294  1.00  0.00     0.004 C 
ENDBRANCH   6  15
ENDBRANCH   4   5
ENDBRANCH   1   4
BRANCH   3  18
ATOM     18  C   UNL     1       4.658  -6.210  -9.529  1.00  0.00     0.053 C 
BRANCH  18  19
ATOM     19  C   UNL     1       4.655  -7.072  -8.294  1.00  0.00     0.074 C 
BRANCH  19  20
ATOM     20  N   UNL     1       5.684  -7.658  -7.777  1.00  0.00    -0.313 NA
ATOM     21  H   UNL     1       5.509  -7.943  -6.803  1.00  0.00     0.186 HD
ENDBRANCH  19  20
ENDBRANCH  18  19
ENDBRANCH   3  18
TORSDOF 6
ENDMDL
