MODEL 1
REMARK VINA RESULT:    -5.789      0.000      0.000
REMARK INTER + INTRA:          -7.175
REMARK INTER:                  -6.804
REMARK INTRA:                  -0.371
REMARK UNBOUND:                -0.371
REMARK SMILES Cc1ccc(CNC(=O)NC(=O)c2ccc(C)cc2)cc1
REMARK SMILES IDX 11 1 12 2 10 3 8 4 9 5 7 6 13 9 19 10 18 11 14 12 16 13
REMARK SMILES IDX 15 14 17 15 6 16 5 17 4 18 20 19 3 20 21 21 2 22 1 23
REMARK H PARENT 10 7 7 8
ROOT
ATOM      1  C   UNL     1       1.877   7.889  -7.882  1.00  0.00     0.259 C 
ATOM      2  O   UNL     1       2.766   8.514  -7.322  1.00  0.00    -0.269 OA
ATOM      3  N   UNL     1       1.075   8.282  -8.958  1.00  0.00    -0.274 N 
ATOM      4  C   UNL     1       1.067   9.271  -9.908  1.00  0.00     0.321 C 
ATOM      5  O   UNL     1       0.222   9.196 -10.807  1.00  0.00    -0.248 OA
ATOM      6  N   UNL     1       1.944  10.292  -9.926  1.00  0.00    -0.334 N 
ATOM      7  H   UNL     1       0.386   7.596  -9.237  1.00  0.00     0.175 HD
ATOM      8  H   UNL     1       1.859  10.887 -10.738  1.00  0.00     0.165 HD
ENDROOT
BRANCH   1   9
ATOM      9  C   UNL     1       1.601   6.532  -7.373  1.00  0.00     0.040 A 
ATOM     10  C   UNL     1       0.584   6.295  -6.446  1.00  0.00     0.014 A 
ATOM     11  C   UNL     1       0.326   4.987  -6.033  1.00  0.00     0.004 A 
ATOM     12  C   UNL     1       2.396   5.481  -7.840  1.00  0.00     0.014 A 
ATOM     13  C   UNL     1       1.084   3.919  -6.536  1.00  0.00    -0.051 A 
ATOM     14  C   UNL     1       2.131   4.175  -7.430  1.00  0.00     0.004 A 
ATOM     15  C   UNL     1       0.740   2.511  -6.147  1.00  0.00     0.044 C 
ENDBRANCH   1   9
BRANCH   6  16
ATOM     16  C   UNL     1       3.057  10.507  -9.045  1.00  0.00     0.153 C 
BRANCH  16  17
ATOM     17  C   UNL     1       4.147  11.425  -9.522  1.00  0.00    -0.029 A 
ATOM     18  C   UNL     1       5.493  11.049  -9.575  1.00  0.00     0.006 A 
ATOM     19  C   UNL     1       3.754  12.628 -10.133  1.00  0.00     0.006 A 
ATOM     20  C   UNL     1       6.419  11.853 -10.248  1.00  0.00     0.004 A 
ATOM     21  C   UNL     1       4.675  13.424 -10.806  1.00  0.00     0.004 A 
ATOM     22  C   UNL     1       6.015  13.038 -10.879  1.00  0.00    -0.051 A 
ATOM     23  C   UNL     1       6.970  13.829 -11.721  1.00  0.00     0.044 C 
ENDBRANCH  16  17
ENDBRANCH   6  16
TORSDOF 3
ENDMDL
MODEL 2
REMARK VINA RESULT:    -5.788      3.201      5.452
REMARK INTER + INTRA:          -7.174
REMARK INTER:                  -6.802
REMARK INTRA:                  -0.372
REMARK UNBOUND:                -0.371
REMARK SMILES Cc1ccc(CNC(=O)NC(=O)c2ccc(C)cc2)cc1
REMARK SMILES IDX 11 1 12 2 10 3 8 4 9 5 7 6 13 9 19 10 18 11 14 12 16 13
REMARK SMILES IDX 15 14 17 15 6 16 5 17 4 18 20 19 3 20 21 21 2 22 1 23
REMARK H PARENT 10 7 7 8
ROOT
ATOM      1  C   UNL     1       1.526   7.843  -7.943  1.00  0.00     0.259 C 
ATOM      2  O   UNL     1       0.634   7.257  -8.541  1.00  0.00    -0.269 OA
ATOM      3  N   UNL     1       2.307   8.920  -8.372  1.00  0.00    -0.274 N 
ATOM      4  C   UNL     1       2.285   9.849  -9.381  1.00  0.00     0.321 C 
ATOM      5  O   UNL     1       3.118  10.760  -9.339  1.00  0.00    -0.248 OA
ATOM      6  N   UNL     1       1.391   9.834 -10.387  1.00  0.00    -0.334 N 
ATOM      7  H   UNL     1       3.003   9.223  -7.704  1.00  0.00     0.175 HD
ATOM      8  H   UNL     1       1.455  10.634 -11.000  1.00  0.00     0.165 HD
ENDROOT
BRANCH   1   9
ATOM      9  C   UNL     1       1.830   7.366  -6.580  1.00  0.00     0.040 A 
ATOM     10  C   UNL     1       2.880   6.478  -6.337  1.00  0.00     0.014 A 
ATOM     11  C   UNL     1       3.164   6.096  -5.026  1.00  0.00     0.004 A 
ATOM     12  C   UNL     1       1.030   7.824  -5.529  1.00  0.00     0.014 A 
ATOM     13  C   UNL     1       2.399   6.591  -3.959  1.00  0.00    -0.051 A 
ATOM     14  C   UNL     1       1.320   7.445  -4.220  1.00  0.00     0.004 A 
ATOM     15  C   UNL     1       2.769   6.239  -2.548  1.00  0.00     0.044 C 
ENDBRANCH   1   9
BRANCH   6  16
ATOM     16  C   UNL     1       0.287   8.933 -10.565  1.00  0.00     0.153 C 
BRANCH  16  17
ATOM     17  C   UNL     1      -0.827   9.378 -11.472  1.00  0.00    -0.029 A 
ATOM     18  C   UNL     1      -2.168   9.404 -11.077  1.00  0.00     0.006 A 
ATOM     19  C   UNL     1      -0.464   9.986 -12.685  1.00  0.00     0.006 A 
ATOM     20  C   UNL     1      -3.120  10.049 -11.873  1.00  0.00     0.004 A 
ATOM     21  C   UNL     1      -1.411  10.631 -13.474  1.00  0.00     0.004 A 
ATOM     22  C   UNL     1      -2.746  10.678 -13.070  1.00  0.00    -0.051 A 
ATOM     23  C   UNL     1      -3.732  11.491 -13.854  1.00  0.00     0.044 C 
ENDBRANCH  16  17
ENDBRANCH   6  16
TORSDOF 3
ENDMDL
MODEL 3
REMARK VINA RESULT:    -5.602      0.546      8.055
REMARK INTER + INTRA:          -6.955
REMARK INTER:                  -6.475
REMARK INTRA:                  -0.480
REMARK UNBOUND:                -0.371
REMARK SMILES Cc1ccc(CNC(=O)NC(=O)c2ccc(C)cc2)cc1
REMARK SMILES IDX 11 1 12 2 10 3 8 4 9 5 7 6 13 9 19 10 18 11 14 12 16 13
REMARK SMILES IDX 15 14 17 15 6 16 5 17 4 18 20 19 3 20 21 21 2 22 1 23
REMARK H PARENT 10 7 7 8
ROOT
ATOM      1  C   UNL     1       3.317  10.183  -9.134  1.00  0.00     0.259 C 
ATOM      2  O   UNL     1       3.666   9.610  -8.112  1.00  0.00    -0.269 OA
ATOM      3  N   UNL     1       2.163   9.984  -9.899  1.00  0.00    -0.274 N 
ATOM      4  C   UNL     1       0.954   9.352  -9.763  1.00  0.00     0.321 C 
ATOM      5  O   UNL     1       0.113   9.526 -10.652  1.00  0.00    -0.248 OA
ATOM      6  N   UNL     1       0.630   8.585  -8.706  1.00  0.00    -0.334 N 
ATOM      7  H   UNL     1       2.103  10.568 -10.722  1.00  0.00     0.175 HD
ATOM      8  H   UNL     1      -0.327   8.263  -8.715  1.00  0.00     0.165 HD
ENDROOT
BRANCH   1   9
ATOM      9  C   UNL     1       4.219  11.234  -9.642  1.00  0.00     0.040 A 
ATOM     10  C   UNL     1       5.602  11.050  -9.682  1.00  0.00     0.014 A 
ATOM     11  C   UNL     1       6.410  12.052 -10.220  1.00  0.00     0.004 A 
ATOM     12  C   UNL     1       3.648  12.433 -10.081  1.00  0.00     0.014 A 
ATOM     13  C   UNL     1       5.843  13.237 -10.711  1.00  0.00    -0.051 A 
ATOM     14  C   UNL     1       4.459  13.428 -10.624  1.00  0.00     0.004 A 
ATOM     15  C   UNL     1       6.716  14.268 -11.364  1.00  0.00     0.044 C 
ENDBRANCH   1   9
BRANCH   6  16
ATOM     16  C   UNL     1       1.413   8.340  -7.528  1.00  0.00     0.153 C 
BRANCH  16  17
ATOM     17  C   UNL     1       1.445   6.933  -7.000  1.00  0.00    -0.029 A 
ATOM     18  C   UNL     1       0.580   6.471  -6.003  1.00  0.00     0.006 A 
ATOM     19  C   UNL     1       2.237   6.003  -7.695  1.00  0.00     0.006 A 
ATOM     20  C   UNL     1       0.495   5.102  -5.728  1.00  0.00     0.004 A 
ATOM     21  C   UNL     1       2.148   4.642  -7.424  1.00  0.00     0.004 A 
ATOM     22  C   UNL     1       1.269   4.178  -6.444  1.00  0.00    -0.051 A 
ATOM     23  C   UNL     1       1.080   2.702  -6.255  1.00  0.00     0.044 C 
ENDBRANCH  16  17
ENDBRANCH   6  16
TORSDOF 3
ENDMDL
MODEL 4
REMARK VINA RESULT:    -5.507      3.040      7.765
REMARK INTER + INTRA:          -6.844
REMARK INTER:                  -6.386
REMARK INTRA:                  -0.459
REMARK UNBOUND:                -0.371
REMARK SMILES Cc1ccc(CNC(=O)NC(=O)c2ccc(C)cc2)cc1
REMARK SMILES IDX 11 1 12 2 10 3 8 4 9 5 7 6 13 9 19 10 18 11 14 12 16 13
REMARK SMILES IDX 15 14 17 15 6 16 5 17 4 18 20 19 3 20 21 21 2 22 1 23
REMARK H PARENT 10 7 7 8
ROOT
ATOM      1  C   UNL     1      -0.055   8.853 -10.300  1.00  0.00     0.259 C 
ATOM      2  O   UNL     1      -0.363   7.747  -9.878  1.00  0.00    -0.269 OA
ATOM      3  N   UNL     1       1.030   9.657  -9.937  1.00  0.00    -0.274 N 
ATOM      4  C   UNL     1       2.210   9.518  -9.253  1.00  0.00     0.321 C 
ATOM      5  O   UNL     1       2.995  10.472  -9.264  1.00  0.00    -0.248 OA
ATOM      6  N   UNL     1       2.565   8.395  -8.602  1.00  0.00    -0.334 N 
ATOM      7  H   UNL     1       1.064  10.549 -10.412  1.00  0.00     0.175 HD
ATOM      8  H   UNL     1       3.500   8.424  -8.222  1.00  0.00     0.165 HD
ENDROOT
BRANCH   1   9
ATOM      9  C   UNL     1      -0.933   9.432 -11.335  1.00  0.00     0.040 A 
ATOM     10  C   UNL     1      -2.317   9.492 -11.166  1.00  0.00     0.014 A 
ATOM     11  C   UNL     1      -3.101  10.097 -12.149  1.00  0.00     0.004 A 
ATOM     12  C   UNL     1      -0.338   9.918 -12.504  1.00  0.00     0.014 A 
ATOM     13  C   UNL     1      -2.508  10.634 -13.302  1.00  0.00    -0.051 A 
ATOM     14  C   UNL     1      -1.123  10.527 -13.480  1.00  0.00     0.004 A 
ATOM     15  C   UNL     1      -3.354  11.356 -14.309  1.00  0.00     0.044 C 
ENDBRANCH   1   9
BRANCH   6  16
ATOM     16  C   UNL     1       1.853   7.149  -8.552  1.00  0.00     0.153 C 
BRANCH  16  17
ATOM     17  C   UNL     1       1.711   6.489  -7.209  1.00  0.00    -0.029 A 
ATOM     18  C   UNL     1       0.552   5.818  -6.807  1.00  0.00     0.006 A 
ATOM     19  C   UNL     1       2.870   6.371  -6.425  1.00  0.00     0.006 A 
ATOM     20  C   UNL     1       0.566   5.025  -5.654  1.00  0.00     0.004 A 
ATOM     21  C   UNL     1       2.884   5.577  -5.282  1.00  0.00     0.004 A 
ATOM     22  C   UNL     1       1.734   4.889  -4.892  1.00  0.00    -0.051 A 
ATOM     23  C   UNL     1       1.798   3.931  -3.740  1.00  0.00     0.044 C 
ENDBRANCH  16  17
ENDBRANCH   6  16
TORSDOF 3
ENDMDL
MODEL 5
REMARK VINA RESULT:    -5.112      5.265      8.488
REMARK INTER + INTRA:          -6.380
REMARK INTER:                  -6.266
REMARK INTRA:                  -0.113
REMARK UNBOUND:                -0.371
REMARK SMILES Cc1ccc(CNC(=O)NC(=O)c2ccc(C)cc2)cc1
REMARK SMILES IDX 11 1 12 2 10 3 8 4 9 5 7 6 13 9 19 10 18 11 14 12 16 13
REMARK SMILES IDX 15 14 17 15 6 16 5 17 4 18 20 19 3 20 21 21 2 22 1 23
REMARK H PARENT 10 7 7 8
ROOT
ATOM      1  C   UNL     1       7.031  13.662 -11.279  1.00  0.00     0.259 C 
ATOM      2  O   UNL     1       6.874  13.989 -12.447  1.00  0.00    -0.269 OA
ATOM      3  N   UNL     1       8.116  13.922 -10.436  1.00  0.00    -0.274 N 
ATOM      4  C   UNL     1       9.215  14.742 -10.422  1.00  0.00     0.321 C 
ATOM      5  O   UNL     1       9.895  14.773  -9.391  1.00  0.00    -0.248 OA
ATOM      6  N   UNL     1       9.569  15.530 -11.455  1.00  0.00    -0.334 N 
ATOM      7  H   UNL     1       8.028  13.528  -9.509  1.00  0.00     0.175 HD
ATOM      8  H   UNL     1      10.351  16.136 -11.255  1.00  0.00     0.165 HD
ENDROOT
BRANCH   1   9
ATOM      9  C   UNL     1       5.937  12.894 -10.655  1.00  0.00     0.040 A 
ATOM     10  C   UNL     1       4.612  13.328 -10.722  1.00  0.00     0.014 A 
ATOM     11  C   UNL     1       3.605  12.541 -10.162  1.00  0.00     0.004 A 
ATOM     12  C   UNL     1       6.265  11.713  -9.982  1.00  0.00     0.014 A 
ATOM     13  C   UNL     1       3.917  11.328  -9.530  1.00  0.00    -0.051 A 
ATOM     14  C   UNL     1       5.255  10.926  -9.430  1.00  0.00     0.004 A 
ATOM     15  C   UNL     1       2.816  10.452  -9.008  1.00  0.00     0.044 C 
ENDBRANCH   1   9
BRANCH   6  16
ATOM     16  C   UNL     1       8.866  15.720 -12.692  1.00  0.00     0.153 C 
BRANCH  16  17
ATOM     17  C   UNL     1       9.455  15.093 -13.924  1.00  0.00    -0.029 A 
ATOM     18  C   UNL     1      10.093  15.831 -14.927  1.00  0.00     0.006 A 
ATOM     19  C   UNL     1       9.546  13.691 -13.952  1.00  0.00     0.006 A 
ATOM     20  C   UNL     1      10.827  15.174 -15.920  1.00  0.00     0.004 A 
ATOM     21  C   UNL     1      10.280  13.040 -14.937  1.00  0.00     0.004 A 
ATOM     22  C   UNL     1      10.936  13.776 -15.925  1.00  0.00    -0.051 A 
ATOM     23  C   UNL     1      11.835  13.076 -16.899  1.00  0.00     0.044 C 
ENDBRANCH  16  17
ENDBRANCH   6  16
TORSDOF 3
ENDMDL
MODEL 6
REMARK VINA RESULT:    -4.706      4.896      7.859
REMARK INTER + INTRA:          -5.903
REMARK INTER:                  -5.309
REMARK INTRA:                  -0.593
REMARK UNBOUND:                -0.371
REMARK SMILES Cc1ccc(CNC(=O)NC(=O)c2ccc(C)cc2)cc1
REMARK SMILES IDX 11 1 12 2 10 3 8 4 9 5 7 6 13 9 19 10 18 11 14 12 16 13
REMARK SMILES IDX 15 14 17 15 6 16 5 17 4 18 20 19 3 20 21 21 2 22 1 23
REMARK H PARENT 10 7 7 8
ROOT
ATOM      1  C   UNL     1       6.185  13.947 -11.123  1.00  0.00     0.259 C 
ATOM      2  O   UNL     1       7.340  14.048 -10.736  1.00  0.00    -0.269 OA
ATOM      3  N   UNL     1       5.515  14.704 -12.089  1.00  0.00    -0.274 N 
ATOM      4  C   UNL     1       5.838  15.593 -13.082  1.00  0.00     0.321 C 
ATOM      5  O   UNL     1       4.934  15.958 -13.841  1.00  0.00    -0.248 OA
ATOM      6  N   UNL     1       7.084  16.059 -13.288  1.00  0.00    -0.334 N 
ATOM      7  H   UNL     1       4.547  14.446 -12.224  1.00  0.00     0.175 HD
ATOM      8  H   UNL     1       7.171  16.637 -14.111  1.00  0.00     0.165 HD
ENDROOT
BRANCH   1   9
ATOM      9  C   UNL     1       5.371  12.884 -10.501  1.00  0.00     0.040 A 
ATOM     10  C   UNL     1       5.956  11.726  -9.987  1.00  0.00     0.014 A 
ATOM     11  C   UNL     1       5.152  10.773  -9.361  1.00  0.00     0.004 A 
ATOM     12  C   UNL     1       3.985  13.065 -10.447  1.00  0.00     0.014 A 
ATOM     13  C   UNL     1       3.767  10.969  -9.255  1.00  0.00    -0.051 A 
ATOM     14  C   UNL     1       3.187  12.113  -9.815  1.00  0.00     0.004 A 
ATOM     15  C   UNL     1       2.927   9.976  -8.506  1.00  0.00     0.044 C 
ENDBRANCH   1   9
BRANCH   6  16
ATOM     16  C   UNL     1       8.284  15.686 -12.594  1.00  0.00     0.153 C 
BRANCH  16  17
ATOM     17  C   UNL     1       9.307  14.895 -13.360  1.00  0.00    -0.029 A 
ATOM     18  C   UNL     1       9.187  13.522 -13.602  1.00  0.00     0.006 A 
ATOM     19  C   UNL     1      10.308  15.616 -14.032  1.00  0.00     0.006 A 
ATOM     20  C   UNL     1      10.038  12.895 -14.518  1.00  0.00     0.004 A 
ATOM     21  C   UNL     1      11.150  14.992 -14.946  1.00  0.00     0.004 A 
ATOM     22  C   UNL     1      11.016  13.627 -15.205  1.00  0.00    -0.051 A 
ATOM     23  C   UNL     1      11.835  12.993 -16.290  1.00  0.00     0.044 C 
ENDBRANCH  16  17
ENDBRANCH   6  16
TORSDOF 3
ENDMDL
MODEL 7
REMARK VINA RESULT:    -4.620      7.909     10.274
REMARK INTER + INTRA:          -5.801
REMARK INTER:                  -5.229
REMARK INTRA:                  -0.571
REMARK UNBOUND:                -0.371
REMARK SMILES Cc1ccc(CNC(=O)NC(=O)c2ccc(C)cc2)cc1
REMARK SMILES IDX 11 1 12 2 10 3 8 4 9 5 7 6 13 9 19 10 18 11 14 12 16 13
REMARK SMILES IDX 15 14 17 15 6 16 5 17 4 18 20 19 3 20 21 21 2 22 1 23
REMARK H PARENT 10 7 7 8
ROOT
ATOM      1  C   UNL     1      -3.132  11.028 -14.112  1.00  0.00     0.259 C 
ATOM      2  O   UNL     1      -4.305  10.686 -14.151  1.00  0.00    -0.269 OA
ATOM      3  N   UNL     1      -2.454  11.927 -14.942  1.00  0.00    -0.274 N 
ATOM      4  C   UNL     1      -2.772  12.888 -15.868  1.00  0.00     0.321 C 
ATOM      5  O   UNL     1      -1.853  13.589 -16.305  1.00  0.00    -0.248 OA
ATOM      6  N   UNL     1      -4.026  13.122 -16.297  1.00  0.00    -0.334 N 
ATOM      7  H   UNL     1      -1.472  12.034 -14.727  1.00  0.00     0.175 HD
ATOM      8  H   UNL     1      -4.102  13.919 -16.914  1.00  0.00     0.165 HD
ENDROOT
BRANCH   1   9
ATOM      9  C   UNL     1      -2.302  10.427 -13.050  1.00  0.00     0.040 A 
ATOM     10  C   UNL     1      -2.866   9.970 -11.857  1.00  0.00     0.014 A 
ATOM     11  C   UNL     1      -2.049   9.361 -10.904  1.00  0.00     0.004 A 
ATOM     12  C   UNL     1      -0.924  10.332 -13.267  1.00  0.00     0.014 A 
ATOM     13  C   UNL     1      -0.673   9.213 -11.135  1.00  0.00    -0.051 A 
ATOM     14  C   UNL     1      -0.113   9.716 -12.316  1.00  0.00     0.004 A 
ATOM     15  C   UNL     1       0.177   8.481 -10.139  1.00  0.00     0.044 C 
ENDBRANCH   1   9
BRANCH   6  16
ATOM     16  C   UNL     1      -5.237  12.498 -15.846  1.00  0.00     0.153 C 
BRANCH  16  17
ATOM     17  C   UNL     1      -6.196  13.345 -15.056  1.00  0.00    -0.029 A 
ATOM     18  C   UNL     1      -6.142  13.462 -13.663  1.00  0.00     0.006 A 
ATOM     19  C   UNL     1      -7.037  14.208 -15.777  1.00  0.00     0.006 A 
ATOM     20  C   UNL     1      -6.899  14.443 -13.013  1.00  0.00     0.004 A 
ATOM     21  C   UNL     1      -7.785  15.187 -15.130  1.00  0.00     0.004 A 
ATOM     22  C   UNL     1      -7.714  15.319 -13.742  1.00  0.00    -0.051 A 
ATOM     23  C   UNL     1      -8.415  16.462 -13.069  1.00  0.00     0.044 C 
ENDBRANCH  16  17
ENDBRANCH   6  16
TORSDOF 3
ENDMDL
MODEL 8
REMARK VINA RESULT:    -4.402      4.888      7.216
REMARK INTER + INTRA:          -5.546
REMARK INTER:                  -5.103
REMARK INTRA:                  -0.442
REMARK UNBOUND:                -0.371
REMARK SMILES Cc1ccc(CNC(=O)NC(=O)c2ccc(C)cc2)cc1
REMARK SMILES IDX 11 1 12 2 10 3 8 4 9 5 7 6 13 9 19 10 18 11 14 12 16 13
REMARK SMILES IDX 15 14 17 15 6 16 5 17 4 18 20 19 3 20 21 21 2 22 1 23
REMARK H PARENT 10 7 7 8
ROOT
ATOM      1  C   UNL     1      -0.358   9.054 -10.901  1.00  0.00     0.259 C 
ATOM      2  O   UNL     1      -1.525   8.691 -10.867  1.00  0.00    -0.269 OA
ATOM      3  N   UNL     1       0.293   9.819 -11.874  1.00  0.00    -0.274 N 
ATOM      4  C   UNL     1      -0.052  10.614 -12.937  1.00  0.00     0.321 C 
ATOM      5  O   UNL     1       0.849  11.250 -13.493  1.00  0.00    -0.248 OA
ATOM      6  N   UNL     1      -1.315  10.757 -13.379  1.00  0.00    -0.334 N 
ATOM      7  H   UNL     1       1.276   9.974 -11.694  1.00  0.00     0.175 HD
ATOM      8  H   UNL     1      -1.414  11.443 -14.114  1.00  0.00     0.165 HD
ENDROOT
BRANCH   1   9
ATOM      9  C   UNL     1       0.495   8.643  -9.769  1.00  0.00     0.040 A 
ATOM     10  C   UNL     1       0.543   9.385  -8.588  1.00  0.00     0.014 A 
ATOM     11  C   UNL     1       1.323   8.928  -7.525  1.00  0.00     0.004 A 
ATOM     12  C   UNL     1       1.265   7.485  -9.913  1.00  0.00     0.014 A 
ATOM     13  C   UNL     1       2.060   7.740  -7.641  1.00  0.00    -0.051 A 
ATOM     14  C   UNL     1       2.038   7.029  -8.847  1.00  0.00     0.004 A 
ATOM     15  C   UNL     1       2.826   7.218  -6.461  1.00  0.00     0.044 C 
ENDBRANCH   1   9
BRANCH   6  16
ATOM     16  C   UNL     1      -2.510  10.195 -12.816  1.00  0.00     0.153 C 
BRANCH  16  17
ATOM     17  C   UNL     1      -3.718  11.085 -12.731  1.00  0.00    -0.029 A 
ATOM     18  C   UNL     1      -3.875  12.067 -11.747  1.00  0.00     0.006 A 
ATOM     19  C   UNL     1      -4.614  11.059 -13.812  1.00  0.00     0.006 A 
ATOM     20  C   UNL     1      -4.895  13.017 -11.862  1.00  0.00     0.004 A 
ATOM     21  C   UNL     1      -5.626  12.007 -13.928  1.00  0.00     0.004 A 
ATOM     22  C   UNL     1      -5.769  13.001 -12.958  1.00  0.00    -0.051 A 
ATOM     23  C   UNL     1      -6.772  14.097 -13.162  1.00  0.00     0.044 C 
ENDBRANCH  16  17
ENDBRANCH   6  16
TORSDOF 3
ENDMDL
MODEL 9
REMARK VINA RESULT:    -4.384      2.303      4.053
REMARK INTER + INTRA:          -5.524
REMARK INTER:                  -5.085
REMARK INTRA:                  -0.439
REMARK UNBOUND:                -0.371
REMARK SMILES Cc1ccc(CNC(=O)NC(=O)c2ccc(C)cc2)cc1
REMARK SMILES IDX 11 1 12 2 10 3 8 4 9 5 7 6 13 9 19 10 18 11 14 12 16 13
REMARK SMILES IDX 15 14 17 15 6 16 5 17 4 18 20 19 3 20 21 21 2 22 1 23
REMARK H PARENT 10 7 7 8
ROOT
ATOM      1  C   UNL     1       3.695  10.843  -9.183  1.00  0.00     0.259 C 
ATOM      2  O   UNL     1       4.871  10.824  -8.847  1.00  0.00    -0.269 OA
ATOM      3  N   UNL     1       3.017  11.803  -9.940  1.00  0.00    -0.274 N 
ATOM      4  C   UNL     1       3.333  12.862 -10.752  1.00  0.00     0.321 C 
ATOM      5  O   UNL     1       2.412  13.404 -11.372  1.00  0.00    -0.248 OA
ATOM      6  N   UNL     1       4.588  13.317 -10.927  1.00  0.00    -0.334 N 
ATOM      7  H   UNL     1       2.032  11.611 -10.072  1.00  0.00     0.175 HD
ATOM      8  H   UNL     1       4.662  14.046 -11.621  1.00  0.00     0.165 HD
ENDROOT
BRANCH   1   9
ATOM      9  C   UNL     1       2.864   9.705  -8.743  1.00  0.00     0.040 A 
ATOM     10  C   UNL     1       2.825   8.511  -9.465  1.00  0.00     0.014 A 
ATOM     11  C   UNL     1       2.066   7.445  -8.982  1.00  0.00     0.004 A 
ATOM     12  C   UNL     1       2.105   9.858  -7.579  1.00  0.00     0.014 A 
ATOM     13  C   UNL     1       1.341   7.570  -7.787  1.00  0.00    -0.051 A 
ATOM     14  C   UNL     1       1.353   8.788  -7.097  1.00  0.00     0.004 A 
ATOM     15  C   UNL     1       0.598   6.388  -7.237  1.00  0.00     0.044 C 
ENDBRANCH   1   9
BRANCH   6  16
ATOM     16  C   UNL     1       5.801  12.770 -10.388  1.00  0.00     0.153 C 
BRANCH  16  17
ATOM     17  C   UNL     1       6.993  12.702 -11.301  1.00  0.00    -0.029 A 
ATOM     18  C   UNL     1       7.152  11.713 -12.277  1.00  0.00     0.006 A 
ATOM     19  C   UNL     1       7.866  13.803 -11.303  1.00  0.00     0.006 A 
ATOM     20  C   UNL     1       8.151  11.841 -13.248  1.00  0.00     0.004 A 
ATOM     21  C   UNL     1       8.856  13.931 -12.271  1.00  0.00     0.004 A 
ATOM     22  C   UNL     1       9.000  12.956 -13.259  1.00  0.00    -0.051 A 
ATOM     23  C   UNL     1       9.977  13.171 -14.377  1.00  0.00     0.044 C 
ENDBRANCH  16  17
ENDBRANCH   6  16
TORSDOF 3
ENDMDL
