MODEL 1
REMARK VINA RESULT:    -3.937      0.000      0.000
REMARK INTER + INTRA:          -5.396
REMARK INTER:                  -5.203
REMARK INTRA:                  -0.193
REMARK UNBOUND:                -0.193
REMARK SMILES [H]/N=C\C[C@H]1C[C@@H]1O[C@H]1CO[C@H]2C[C@@H](C3CC3)CCN2C1
REMARK SMILES IDX 7 1 6 2 5 3 8 4 9 5 14 6 13 7 18 8 12 9 19 10 20 11 11 12
REMARK SMILES IDX 21 13 10 14 15 15 16 16 17 17 4 18 3 19 2 20 1 21
REMARK H PARENT
ROOT
ATOM      1  C   UNL     1      -0.651   9.396 -10.600  1.00  0.00     0.122 C 
ATOM      2  C   UNL     1      -0.553   9.529 -12.094  1.00  0.00     0.039 C 
ATOM      3  C   UNL     1      -1.856   9.133 -11.461  1.00  0.00     0.026 C 
ENDROOT
BRANCH   1   4
ATOM      4  O   UNL     1       0.025   8.241 -10.068  1.00  0.00    -0.371 OA
BRANCH   4   5
ATOM      5  C   UNL     1       1.460   8.288 -10.114  1.00  0.00     0.158 C 
ATOM      6  C   UNL     1       2.459   6.274  -5.407  1.00  0.00    -0.003 C 
ATOM      7  C   UNL     1       1.908   7.603  -5.939  1.00  0.00     0.052 C 
ATOM      8  C   UNL     1       2.040   5.137  -6.349  1.00  0.00     0.019 C 
ATOM      9  C   UNL     1       2.292   7.833  -7.407  1.00  0.00     0.189 C 
ATOM     10  C   UNL     1       2.420   5.443  -7.798  1.00  0.00     0.087 C 
ATOM     11  N   UNL     1       1.841   6.714  -8.234  1.00  0.00    -0.276 NA
ATOM     12  O   UNL     1       1.689   9.067  -7.798  1.00  0.00    -0.360 OA
ATOM     13  C   UNL     1       2.125   6.980  -9.649  1.00  0.00     0.121 C 
ATOM     14  C   UNL     1       1.931   9.399  -9.169  1.00  0.00     0.195 C 
BRANCH   6  15
ATOM     15  C   UNL     1       1.982   5.999  -3.999  1.00  0.00    -0.008 C 
ATOM     16  C   UNL     1       2.942   5.478  -2.955  1.00  0.00     0.004 C 
ATOM     17  C   UNL     1       2.414   6.879  -2.850  1.00  0.00     0.004 C 
ENDBRANCH   6  15
ENDBRANCH   4   5
ENDBRANCH   1   4
BRANCH   3  18
ATOM     18  C   UNL     1      -2.998  10.106 -11.480  1.00  0.00     0.053 C 
BRANCH  18  19
ATOM     19  C   UNL     1      -3.422  10.610 -12.835  1.00  0.00     0.074 C 
BRANCH  19  20
ATOM     20  N   UNL     1      -4.420  10.172 -13.528  1.00  0.00    -0.313 NA
ATOM     21  H   UNL     1      -4.831  10.914 -14.112  1.00  0.00     0.186 HD
ENDBRANCH  19  20
ENDBRANCH  18  19
ENDBRANCH   3  18
TORSDOF 6
ENDMDL
MODEL 2
REMARK VINA RESULT:    -3.936      3.307      5.550
REMARK INTER + INTRA:          -5.395
REMARK INTER:                  -5.162
REMARK INTRA:                  -0.232
REMARK UNBOUND:                -0.193
REMARK SMILES [H]/N=C\C[C@H]1C[C@@H]1O[C@H]1CO[C@H]2C[C@@H](C3CC3)CCN2C1
REMARK SMILES IDX 7 1 6 2 5 3 8 4 9 5 14 6 13 7 18 8 12 9 19 10 20 11 11 12
REMARK SMILES IDX 21 13 10 14 15 15 16 16 17 17 4 18 3 19 2 20 1 21
REMARK H PARENT
ROOT
ATOM      1  C   UNL     1       3.965  10.525  -9.547  1.00  0.00     0.122 C 
ATOM      2  C   UNL     1       3.844  12.020  -9.632  1.00  0.00     0.039 C 
ATOM      3  C   UNL     1       5.163  11.394  -9.281  1.00  0.00     0.026 C 
ENDROOT
BRANCH   1   4
ATOM      4  O   UNL     1       3.318   9.948  -8.397  1.00  0.00    -0.371 OA
BRANCH   4   5
ATOM      5  C   UNL     1       1.882   9.977  -8.414  1.00  0.00     0.158 C 
ATOM      6  C   UNL     1       0.979   5.345  -6.191  1.00  0.00    -0.003 C 
ATOM      7  C   UNL     1       1.496   5.828  -7.552  1.00  0.00     0.052 C 
ATOM      8  C   UNL     1       1.412   6.337  -5.103  1.00  0.00     0.019 C 
ATOM      9  C   UNL     1       1.090   7.282  -7.832  1.00  0.00     0.189 C 
ATOM     10  C   UNL     1       1.009   7.768  -5.458  1.00  0.00     0.087 C 
ATOM     11  N   UNL     1       1.556   8.158  -6.758  1.00  0.00    -0.276 NA
ATOM     12  O   UNL     1       1.663   7.629  -9.095  1.00  0.00    -0.360 OA
ATOM     13  C   UNL     1       1.251   9.558  -7.074  1.00  0.00     0.121 C 
ATOM     14  C   UNL     1       1.398   8.983  -9.476  1.00  0.00     0.195 C 
BRANCH   6  15
ATOM     15  C   UNL     1       1.477   3.954  -5.871  1.00  0.00    -0.008 C 
ATOM     16  C   UNL     1       0.506   2.867  -5.475  1.00  0.00     0.004 C 
ATOM     17  C   UNL     1       1.201   2.800  -6.803  1.00  0.00     0.004 C 
ENDBRANCH   6  15
ENDBRANCH   4   5
ENDBRANCH   1   4
BRANCH   3  18
ATOM     18  C   UNL     1       6.285  11.459 -10.273  1.00  0.00     0.053 C 
BRANCH  18  19
ATOM     19  C   UNL     1       6.657  12.832 -10.770  1.00  0.00     0.074 C 
BRANCH  19  20
ATOM     20  N   UNL     1       7.696  13.511 -10.413  1.00  0.00    -0.313 NA
ATOM     21  H   UNL     1       7.540  14.524 -10.511  1.00  0.00     0.186 HD
ENDBRANCH  19  20
ENDBRANCH  18  19
ENDBRANCH   3  18
TORSDOF 6
ENDMDL
MODEL 3
REMARK VINA RESULT:    -3.814      5.227      8.492
REMARK INTER + INTRA:          -5.233
REMARK INTER:                  -5.041
REMARK INTRA:                  -0.193
REMARK UNBOUND:                -0.193
REMARK SMILES [H]/N=C\C[C@H]1C[C@@H]1O[C@H]1CO[C@H]2C[C@@H](C3CC3)CCN2C1
REMARK SMILES IDX 7 1 6 2 5 3 8 4 9 5 14 6 13 7 18 8 12 9 19 10 20 11 11 12
REMARK SMILES IDX 21 13 10 14 15 15 16 16 17 17 4 18 3 19 2 20 1 21
REMARK H PARENT
ROOT
ATOM      1  C   UNL     1       2.217   9.155  -9.010  1.00  0.00     0.122 C 
ATOM      2  C   UNL     1       1.062   8.612  -9.803  1.00  0.00     0.039 C 
ATOM      3  C   UNL     1       2.261   7.747  -9.539  1.00  0.00     0.026 C 
ENDROOT
BRANCH   1   4
ATOM      4  O   UNL     1       3.005  10.134  -9.714  1.00  0.00    -0.371 OA
BRANCH   4   5
ATOM      5  C   UNL     1       3.565  11.179  -8.902  1.00  0.00     0.158 C 
ATOM      6  C   UNL     1       7.025  13.059 -12.321  1.00  0.00    -0.003 C 
ATOM      7  C   UNL     1       6.901  11.790 -11.470  1.00  0.00     0.052 C 
ATOM      8  C   UNL     1       5.624  13.537 -12.726  1.00  0.00     0.019 C 
ATOM      9  C   UNL     1       5.942  11.988 -10.288  1.00  0.00     0.189 C 
ATOM     10  C   UNL     1       4.710  13.681 -11.510  1.00  0.00     0.087 C 
ATOM     11  N   UNL     1       4.630  12.426 -10.764  1.00  0.00    -0.276 NA
ATOM     12  O   UNL     1       5.874  10.735  -9.603  1.00  0.00    -0.360 OA
ATOM     13  C   UNL     1       3.688  12.522  -9.643  1.00  0.00     0.121 C 
ATOM     14  C   UNL     1       4.978  10.755  -8.488  1.00  0.00     0.195 C 
BRANCH   6  15
ATOM     15  C   UNL     1       7.881  12.824 -13.546  1.00  0.00    -0.008 C 
ATOM     16  C   UNL     1       8.778  13.919 -14.073  1.00  0.00     0.004 C 
ATOM     17  C   UNL     1       9.381  12.704 -13.431  1.00  0.00     0.004 C 
ENDBRANCH   6  15
ENDBRANCH   4   5
ENDBRANCH   1   4
BRANCH   3  18
ATOM     18  C   UNL     1       2.126   6.583  -8.604  1.00  0.00     0.053 C 
BRANCH  18  19
ATOM     19  C   UNL     1       2.865   5.329  -8.990  1.00  0.00     0.074 C 
BRANCH  19  20
ATOM     20  N   UNL     1       3.161   4.964 -10.193  1.00  0.00    -0.313 NA
ATOM     21  H   UNL     1       2.853   3.999 -10.383  1.00  0.00     0.186 HD
ENDBRANCH  19  20
ENDBRANCH  18  19
ENDBRANCH   3  18
TORSDOF 6
ENDMDL
MODEL 4
REMARK VINA RESULT:    -3.793      2.691      8.656
REMARK INTER + INTRA:          -5.205
REMARK INTER:                  -4.999
REMARK INTRA:                  -0.206
REMARK UNBOUND:                -0.193
REMARK SMILES [H]/N=C\C[C@H]1C[C@@H]1O[C@H]1CO[C@H]2C[C@@H](C3CC3)CCN2C1
REMARK SMILES IDX 7 1 6 2 5 3 8 4 9 5 14 6 13 7 18 8 12 9 19 10 20 11 11 12
REMARK SMILES IDX 21 13 10 14 15 15 16 16 17 17 4 18 3 19 2 20 1 21
REMARK H PARENT
ROOT
ATOM      1  C   UNL     1       1.101   8.906  -9.206  1.00  0.00     0.122 C 
ATOM      2  C   UNL     1       2.298   9.691  -8.749  1.00  0.00     0.039 C 
ATOM      3  C   UNL     1       1.136   9.489  -7.820  1.00  0.00     0.026 C 
ENDROOT
BRANCH   1   4
ATOM      4  O   UNL     1       0.283   9.592 -10.173  1.00  0.00    -0.371 OA
BRANCH   4   5
ATOM      5  C   UNL     1      -0.272   8.768 -11.211  1.00  0.00     0.158 C 
ATOM      6  C   UNL     1      -3.772  12.141 -13.102  1.00  0.00    -0.003 C 
ATOM      7  C   UNL     1      -3.636  11.299 -11.827  1.00  0.00     0.052 C 
ATOM      8  C   UNL     1      -2.377  12.556 -13.588  1.00  0.00     0.019 C 
ATOM      9  C   UNL     1      -2.666  10.126 -12.021  1.00  0.00     0.189 C 
ATOM     10  C   UNL     1      -1.451  11.348 -13.727  1.00  0.00     0.087 C 
ATOM     11  N   UNL     1      -1.360  10.611 -12.466  1.00  0.00    -0.276 NA
ATOM     12  O   UNL     1      -2.586   9.450 -10.764  1.00  0.00    -0.360 OA
ATOM     13  C   UNL     1      -0.407   9.499 -12.559  1.00  0.00     0.121 C 
ATOM     14  C   UNL     1      -1.680   8.343 -10.780  1.00  0.00     0.195 C 
BRANCH   6  15
ATOM     15  C   UNL     1      -4.639  13.359 -12.872  1.00  0.00    -0.008 C 
ATOM     16  C   UNL     1      -5.593  13.831 -13.944  1.00  0.00     0.004 C 
ATOM     17  C   UNL     1      -6.130  13.223 -12.681  1.00  0.00     0.004 C 
ENDBRANCH   6  15
ENDBRANCH   4   5
ENDBRANCH   1   4
BRANCH   3  18
ATOM     18  C   UNL     1       1.306   8.595  -6.628  1.00  0.00     0.053 C 
BRANCH  18  19
ATOM     19  C   UNL     1       0.511   8.960  -5.402  1.00  0.00     0.074 C 
BRANCH  19  20
ATOM     20  N   UNL     1       0.247  10.159  -5.000  1.00  0.00    -0.313 NA
ATOM     21  H   UNL     1      -0.766  10.309  -4.894  1.00  0.00     0.186 HD
ENDBRANCH  19  20
ENDBRANCH  18  19
ENDBRANCH   3  18
TORSDOF 6
ENDMDL
MODEL 5
REMARK VINA RESULT:    -3.480      7.047      8.521
REMARK INTER + INTRA:          -4.792
REMARK INTER:                  -4.220
REMARK INTRA:                  -0.572
REMARK UNBOUND:                -0.193
REMARK SMILES [H]/N=C\C[C@H]1C[C@@H]1O[C@H]1CO[C@H]2C[C@@H](C3CC3)CCN2C1
REMARK SMILES IDX 7 1 6 2 5 3 8 4 9 5 14 6 13 7 18 8 12 9 19 10 20 11 11 12
REMARK SMILES IDX 21 13 10 14 15 15 16 16 17 17 4 18 3 19 2 20 1 21
REMARK H PARENT
ROOT
ATOM      1  C   UNL     1       4.399  15.277 -15.171  1.00  0.00     0.122 C 
ATOM      2  C   UNL     1       3.767  14.891 -16.478  1.00  0.00     0.039 C 
ATOM      3  C   UNL     1       3.351  14.198 -15.212  1.00  0.00     0.026 C 
ENDROOT
BRANCH   1   4
ATOM      4  O   UNL     1       5.765  14.843 -15.029  1.00  0.00    -0.371 OA
BRANCH   4   5
ATOM      5  C   UNL     1       6.523  15.508 -14.004  1.00  0.00     0.158 C 
ATOM      6  C   UNL     1       5.928  12.001 -10.189  1.00  0.00    -0.003 C 
ATOM      7  C   UNL     1       5.030  13.033 -10.883  1.00  0.00     0.052 C 
ATOM      8  C   UNL     1       6.954  11.463 -11.197  1.00  0.00     0.019 C 
ATOM      9  C   UNL     1       5.851  14.124 -11.584  1.00  0.00     0.189 C 
ATOM     10  C   UNL     1       7.712  12.599 -11.883  1.00  0.00     0.087 C 
ATOM     11  N   UNL     1       6.787  13.526 -12.535  1.00  0.00    -0.276 NA
ATOM     12  O   UNL     1       4.914  14.991 -12.226  1.00  0.00    -0.360 OA
ATOM     13  C   UNL     1       7.502  14.574 -13.272  1.00  0.00     0.121 C 
ATOM     14  C   UNL     1       5.540  16.048 -12.960  1.00  0.00     0.195 C 
BRANCH   6  15
ATOM     15  C   UNL     1       5.119  10.869  -9.599  1.00  0.00    -0.008 C 
ATOM     16  C   UNL     1       4.758  10.872  -8.132  1.00  0.00     0.004 C 
ATOM     17  C   UNL     1       3.689  11.083  -9.165  1.00  0.00     0.004 C 
ENDBRANCH   6  15
ENDBRANCH   4   5
ENDBRANCH   1   4
BRANCH   3  18
ATOM     18  C   UNL     1       1.981  14.455 -14.660  1.00  0.00     0.053 C 
BRANCH  18  19
ATOM     19  C   UNL     1       1.671  13.825 -13.327  1.00  0.00     0.074 C 
BRANCH  19  20
ATOM     20  N   UNL     1       1.928  14.337 -12.170  1.00  0.00    -0.313 NA
ATOM     21  H   UNL     1       1.086  14.746 -11.740  1.00  0.00     0.186 HD
ENDBRANCH  19  20
ENDBRANCH  18  19
ENDBRANCH   3  18
TORSDOF 6
ENDMDL
MODEL 6
REMARK VINA RESULT:    -3.454      5.577      8.515
REMARK INTER + INTRA:          -4.758
REMARK INTER:                  -4.231
REMARK INTRA:                  -0.526
REMARK UNBOUND:                -0.193
REMARK SMILES [H]/N=C\C[C@H]1C[C@@H]1O[C@H]1CO[C@H]2C[C@@H](C3CC3)CCN2C1
REMARK SMILES IDX 7 1 6 2 5 3 8 4 9 5 14 6 13 7 18 8 12 9 19 10 20 11 11 12
REMARK SMILES IDX 21 13 10 14 15 15 16 16 17 17 4 18 3 19 2 20 1 21
REMARK H PARENT
ROOT
ATOM      1  C   UNL     1      -1.317  14.918 -15.425  1.00  0.00     0.122 C 
ATOM      2  C   UNL     1      -0.684  16.227 -15.046  1.00  0.00     0.039 C 
ATOM      3  C   UNL     1      -0.249  14.960 -14.366  1.00  0.00     0.026 C 
ENDROOT
BRANCH   1   4
ATOM      4  O   UNL     1      -2.674  14.766 -14.967  1.00  0.00    -0.371 OA
BRANCH   4   5
ATOM      5  C   UNL     1      -3.423  13.708 -15.586  1.00  0.00     0.158 C 
ATOM      6  C   UNL     1      -2.624   9.991 -12.014  1.00  0.00    -0.003 C 
ATOM      7  C   UNL     1      -1.775  10.684 -13.087  1.00  0.00     0.052 C 
ATOM      8  C   UNL     1      -3.660  10.984 -11.468  1.00  0.00     0.019 C 
ATOM      9  C   UNL     1      -2.646  11.338 -14.169  1.00  0.00     0.189 C 
ATOM     10  C   UNL     1      -4.469  11.624 -12.596  1.00  0.00     0.087 C 
ATOM     11  N   UNL     1      -3.590  12.278 -13.565  1.00  0.00    -0.276 NA
ATOM     12  O   UNL     1      -1.752  11.984 -15.077  1.00  0.00    -0.360 OA
ATOM     13  C   UNL     1      -4.355  12.972 -14.607  1.00  0.00     0.121 C 
ATOM     14  C   UNL     1      -2.428  12.677 -16.131  1.00  0.00     0.195 C 
BRANCH   6  15
ATOM     15  C   UNL     1      -1.767   9.449 -10.893  1.00  0.00    -0.008 C 
ATOM     16  C   UNL     1      -1.392   7.986 -10.858  1.00  0.00     0.004 C 
ATOM     17  C   UNL     1      -0.342   9.019 -11.147  1.00  0.00     0.004 C 
ENDBRANCH   6  15
ENDBRANCH   4   5
ENDBRANCH   1   4
BRANCH   3  18
ATOM     18  C   UNL     1       1.119  14.416 -14.650  1.00  0.00     0.053 C 
BRANCH  18  19
ATOM     19  C   UNL     1       1.478  13.124 -13.964  1.00  0.00     0.074 C 
BRANCH  19  20
ATOM     20  N   UNL     1       1.295  11.938 -14.441  1.00  0.00    -0.313 NA
ATOM     21  H   UNL     1       1.946  11.734 -15.213  1.00  0.00     0.186 HD
ENDBRANCH  19  20
ENDBRANCH  18  19
ENDBRANCH   3  18
TORSDOF 6
ENDMDL
MODEL 7
REMARK VINA RESULT:    -3.085      9.360     12.308
REMARK INTER + INTRA:          -4.270
REMARK INTER:                  -3.970
REMARK INTRA:                  -0.299
REMARK UNBOUND:                -0.193
REMARK SMILES [H]/N=C\C[C@H]1C[C@@H]1O[C@H]1CO[C@H]2C[C@@H](C3CC3)CCN2C1
REMARK SMILES IDX 7 1 6 2 5 3 8 4 9 5 14 6 13 7 18 8 12 9 19 10 20 11 11 12
REMARK SMILES IDX 21 13 10 14 15 15 16 16 17 17 4 18 3 19 2 20 1 21
REMARK H PARENT
ROOT
ATOM      1  C   UNL     1       7.914  15.461 -12.539  1.00  0.00     0.122 C 
ATOM      2  C   UNL     1       7.856  14.417 -11.460  1.00  0.00     0.039 C 
ATOM      3  C   UNL     1       9.125  15.185 -11.691  1.00  0.00     0.026 C 
ENDROOT
BRANCH   1   4
ATOM      4  O   UNL     1       7.928  14.925 -13.876  1.00  0.00    -0.371 OA
BRANCH   4   5
ATOM      5  C   UNL     1       7.421  15.798 -14.899  1.00  0.00     0.158 C 
ATOM      6  C   UNL     1       2.325  14.915 -14.230  1.00  0.00    -0.003 C 
ATOM      7  C   UNL     1       3.510  14.126 -14.800  1.00  0.00     0.052 C 
ATOM      8  C   UNL     1       2.818  15.826 -13.098  1.00  0.00     0.019 C 
ATOM      9  C   UNL     1       4.669  15.050 -15.201  1.00  0.00     0.189 C 
ATOM     10  C   UNL     1       3.992  16.693 -13.551  1.00  0.00     0.087 C 
ATOM     11  N   UNL     1       5.087  15.868 -14.062  1.00  0.00    -0.276 NA
ATOM     12  O   UNL     1       5.721  14.205 -15.669  1.00  0.00    -0.360 OA
ATOM     13  C   UNL     1       6.255  16.680 -14.420  1.00  0.00     0.121 C 
ATOM     14  C   UNL     1       6.896  14.930 -16.047  1.00  0.00     0.195 C 
BRANCH   6  15
ATOM     15  C   UNL     1       1.234  13.993 -13.732  1.00  0.00    -0.008 C 
ATOM     16  C   UNL     1      -0.089  13.915 -14.457  1.00  0.00     0.004 C 
ATOM     17  C   UNL     1       0.858  12.751 -14.504  1.00  0.00     0.004 C 
ENDBRANCH   6  15
ENDBRANCH   4   5
ENDBRANCH   1   4
BRANCH   3  18
ATOM     18  C   UNL     1       9.570  16.180 -10.661  1.00  0.00     0.053 C 
BRANCH  18  19
ATOM     19  C   UNL     1       9.943  15.622  -9.312  1.00  0.00     0.074 C 
BRANCH  19  20
ATOM     20  N   UNL     1      11.066  15.060  -9.010  1.00  0.00    -0.313 NA
ATOM     21  H   UNL     1      11.721  15.069  -9.804  1.00  0.00     0.186 HD
ENDBRANCH  19  20
ENDBRANCH  18  19
ENDBRANCH   3  18
TORSDOF 6
ENDMDL
MODEL 8
REMARK VINA RESULT:    -3.070      8.331     10.636
REMARK INTER + INTRA:          -4.249
REMARK INTER:                  -4.026
REMARK INTRA:                  -0.223
REMARK UNBOUND:                -0.193
REMARK SMILES [H]/N=C\C[C@H]1C[C@@H]1O[C@H]1CO[C@H]2C[C@@H](C3CC3)CCN2C1
REMARK SMILES IDX 7 1 6 2 5 3 8 4 9 5 14 6 13 7 18 8 12 9 19 10 20 11 11 12
REMARK SMILES IDX 21 13 10 14 15 15 16 16 17 17 4 18 3 19 2 20 1 21
REMARK H PARENT
ROOT
ATOM      1  C   UNL     1       3.296  14.418 -15.727  1.00  0.00     0.122 C 
ATOM      2  C   UNL     1       3.732  15.517 -14.800  1.00  0.00     0.039 C 
ATOM      3  C   UNL     1       4.365  14.159 -14.700  1.00  0.00     0.026 C 
ENDROOT
BRANCH   1   4
ATOM      4  O   UNL     1       1.986  13.893 -15.440  1.00  0.00    -0.371 OA
BRANCH   4   5
ATOM      5  C   UNL     1       1.020  14.027 -16.495  1.00  0.00     0.158 C 
ATOM      6  C   UNL     1      -3.324  13.651 -13.633  1.00  0.00    -0.003 C 
ATOM      7  C   UNL     1      -2.225  12.686 -14.093  1.00  0.00     0.052 C 
ATOM      8  C   UNL     1      -2.720  15.048 -13.429  1.00  0.00     0.019 C 
ATOM      9  C   UNL     1      -1.468  13.224 -15.315  1.00  0.00     0.189 C 
ATOM     10  C   UNL     1      -1.952  15.510 -14.667  1.00  0.00     0.087 C 
ATOM     11  N   UNL     1      -0.912  14.547 -15.028  1.00  0.00    -0.276 NA
ATOM     12  O   UNL     1      -0.450  12.269 -15.618  1.00  0.00    -0.360 OA
ATOM     13  C   UNL     1      -0.109  15.018 -16.162  1.00  0.00     0.121 C 
ATOM     14  C   UNL     1       0.371  12.657 -16.724  1.00  0.00     0.195 C 
BRANCH   6  15
ATOM     15  C   UNL     1      -3.990  13.170 -12.364  1.00  0.00    -0.008 C 
ATOM     16  C   UNL     1      -5.269  12.370 -12.428  1.00  0.00     0.004 C 
ATOM     17  C   UNL     1      -3.993  11.705 -11.999  1.00  0.00     0.004 C 
ENDBRANCH   6  15
ENDBRANCH   4   5
ENDBRANCH   1   4
BRANCH   3  18
ATOM     18  C   UNL     1       5.794  13.990 -15.123  1.00  0.00     0.053 C 
BRANCH  18  19
ATOM     19  C   UNL     1       6.538  12.834 -14.507  1.00  0.00     0.074 C 
BRANCH  19  20
ATOM     20  N   UNL     1       6.196  11.591 -14.573  1.00  0.00    -0.313 NA
ATOM     21  H   UNL     1       7.008  10.967 -14.469  1.00  0.00     0.186 HD
ENDBRANCH  19  20
ENDBRANCH  18  19
ENDBRANCH   3  18
TORSDOF 6
ENDMDL
MODEL 9
REMARK VINA RESULT:    -2.876      8.917     10.863
REMARK INTER + INTRA:          -3.993
REMARK INTER:                  -3.804
REMARK INTRA:                  -0.190
REMARK UNBOUND:                -0.193
REMARK SMILES [H]/N=C\C[C@H]1C[C@@H]1O[C@H]1CO[C@H]2C[C@@H](C3CC3)CCN2C1
REMARK SMILES IDX 7 1 6 2 5 3 8 4 9 5 14 6 13 7 18 8 12 9 19 10 20 11 11 12
REMARK SMILES IDX 21 13 10 14 15 15 16 16 17 17 4 18 3 19 2 20 1 21
REMARK H PARENT
ROOT
ATOM      1  C   UNL     1      -6.347  13.048 -15.690  1.00  0.00     0.122 C 
ATOM      2  C   UNL     1      -6.764  12.230 -16.880  1.00  0.00     0.039 C 
ATOM      3  C   UNL     1      -5.702  11.714 -15.952  1.00  0.00     0.026 C 
ENDROOT
BRANCH   1   4
ATOM      4  O   UNL     1      -5.571  14.215 -16.024  1.00  0.00    -0.371 OA
BRANCH   4   5
ATOM      5  C   UNL     1      -5.479  15.213 -14.993  1.00  0.00     0.158 C 
ATOM      6  C   UNL     1      -0.288  15.350 -14.502  1.00  0.00    -0.003 C 
ATOM      7  C   UNL     1      -1.400  14.362 -14.130  1.00  0.00     0.052 C 
ATOM      8  C   UNL     1      -0.680  16.097 -15.784  1.00  0.00     0.019 C 
ATOM      9  C   UNL     1      -2.772  15.048 -14.059  1.00  0.00     0.189 C 
ATOM     10  C   UNL     1      -2.068  16.727 -15.661  1.00  0.00     0.087 C 
ATOM     11  N   UNL     1      -3.072  15.719 -15.324  1.00  0.00    -0.276 NA
ATOM     12  O   UNL     1      -3.724  14.028 -13.754  1.00  0.00    -0.360 OA
ATOM     13  C   UNL     1      -4.422  16.292 -15.287  1.00  0.00     0.121 C 
ATOM     14  C   UNL     1      -5.068  14.516 -13.692  1.00  0.00     0.195 C 
BRANCH   6  15
ATOM     15  C   UNL     1       1.039  14.649 -14.681  1.00  0.00    -0.008 C 
ATOM     16  C   UNL     1       2.039  14.603 -13.549  1.00  0.00     0.004 C 
ATOM     17  C   UNL     1       1.330  13.349 -13.971  1.00  0.00     0.004 C 
ENDBRANCH   6  15
ENDBRANCH   4   5
ENDBRANCH   1   4
BRANCH   3  18
ATOM     18  C   UNL     1      -6.013  10.540 -15.073  1.00  0.00     0.053 C 
BRANCH  18  19
ATOM     19  C   UNL     1      -6.632   9.346 -15.751  1.00  0.00     0.074 C 
BRANCH  19  20
ATOM     20  N   UNL     1      -7.362   8.445 -15.182  1.00  0.00    -0.313 NA
ATOM     21  H   UNL     1      -8.363   8.682 -15.228  1.00  0.00     0.186 HD
ENDBRANCH  19  20
ENDBRANCH  18  19
ENDBRANCH   3  18
TORSDOF 6
ENDMDL
