MODEL 1
REMARK VINA RESULT:    -6.146      0.000      0.000
REMARK INTER + INTRA:          -7.591
REMARK INTER:                  -7.224
REMARK INTRA:                  -0.367
REMARK UNBOUND:                -0.367
REMARK SMILES Cc1ccc(CNC(=O)NC(=O)c2ccc(C)cc2)cc1
REMARK SMILES IDX 11 1 12 2 10 3 8 4 9 5 7 6 13 9 19 10 18 11 14 12 16 13
REMARK SMILES IDX 15 14 17 15 6 16 5 17 4 18 20 19 3 20 21 21 2 22 1 23
REMARK H PARENT 10 7 7 8
ROOT
ATOM      1  C   UNL     1      -5.515   8.952  -4.510  1.00  0.00     0.259 C 
ATOM      2  O   UNL     1      -5.456   9.490  -3.414  1.00  0.00    -0.269 OA
ATOM      3  N   UNL     1      -6.168   9.390  -5.667  1.00  0.00    -0.274 N 
ATOM      4  C   UNL     1      -6.735  10.548  -6.133  1.00  0.00     0.321 C 
ATOM      5  O   UNL     1      -7.107  10.571  -7.311  1.00  0.00    -0.248 OA
ATOM      6  N   UNL     1      -6.879  11.659  -5.387  1.00  0.00    -0.334 N 
ATOM      7  H   UNL     1      -6.092   8.758  -6.453  1.00  0.00     0.175 HD
ATOM      8  H   UNL     1      -7.236  12.451  -5.902  1.00  0.00     0.165 HD
ENDROOT
BRANCH   1   9
ATOM      9  C   UNL     1      -4.802   7.668  -4.654  1.00  0.00     0.040 A 
ATOM     10  C   UNL     1      -5.474   6.448  -4.561  1.00  0.00     0.014 A 
ATOM     11  C   UNL     1      -4.767   5.261  -4.757  1.00  0.00     0.004 A 
ATOM     12  C   UNL     1      -3.423   7.704  -4.882  1.00  0.00     0.014 A 
ATOM     13  C   UNL     1      -3.393   5.289  -5.037  1.00  0.00    -0.051 A 
ATOM     14  C   UNL     1      -2.722   6.517  -5.083  1.00  0.00     0.004 A 
ATOM     15  C   UNL     1      -2.664   4.010  -5.329  1.00  0.00     0.044 C 
ENDBRANCH   1   9
BRANCH   6  16
ATOM     16  C   UNL     1      -6.425  11.876  -4.042  1.00  0.00     0.153 C 
BRANCH  16  17
ATOM     17  C   UNL     1      -6.328  13.300  -3.568  1.00  0.00    -0.029 A 
ATOM     18  C   UNL     1      -5.164  13.842  -3.013  1.00  0.00     0.006 A 
ATOM     19  C   UNL     1      -7.388  14.161  -3.897  1.00  0.00     0.006 A 
ATOM     20  C   UNL     1      -5.060  15.223  -2.817  1.00  0.00     0.004 A 
ATOM     21  C   UNL     1      -7.281  15.535  -3.705  1.00  0.00     0.004 A 
ATOM     22  C   UNL     1      -6.111  16.079  -3.173  1.00  0.00    -0.051 A 
ATOM     23  C   UNL     1      -5.953  17.568  -3.098  1.00  0.00     0.044 C 
ENDBRANCH  16  17
ENDBRANCH   6  16
TORSDOF 3
ENDMDL
MODEL 2
REMARK VINA RESULT:    -6.145      3.284      5.572
REMARK INTER + INTRA:          -7.589
REMARK INTER:                  -7.222
REMARK INTRA:                  -0.367
REMARK UNBOUND:                -0.367
REMARK SMILES Cc1ccc(CNC(=O)NC(=O)c2ccc(C)cc2)cc1
REMARK SMILES IDX 11 1 12 2 10 3 8 4 9 5 7 6 13 9 19 10 18 11 14 12 16 13
REMARK SMILES IDX 15 14 17 15 6 16 5 17 4 18 20 19 3 20 21 21 2 22 1 23
REMARK H PARENT 10 7 7 8
ROOT
ATOM      1  C   UNL     1      -5.845   8.700  -4.771  1.00  0.00     0.259 C 
ATOM      2  O   UNL     1      -5.909   8.176  -5.874  1.00  0.00    -0.269 OA
ATOM      3  N   UNL     1      -6.015  10.046  -4.430  1.00  0.00    -0.274 N 
ATOM      4  C   UNL     1      -6.506  11.185  -5.014  1.00  0.00     0.321 C 
ATOM      5  O   UNL     1      -6.610  12.193  -4.307  1.00  0.00    -0.248 OA
ATOM      6  N   UNL     1      -6.905  11.250  -6.298  1.00  0.00    -0.334 N 
ATOM      7  H   UNL     1      -5.892  10.245  -3.446  1.00  0.00     0.175 HD
ATOM      8  H   UNL     1      -7.321  12.135  -6.550  1.00  0.00     0.165 HD
ENDROOT
BRANCH   1   9
ATOM      9  C   UNL     1      -5.554   7.808  -3.631  1.00  0.00     0.040 A 
ATOM     10  C   UNL     1      -4.267   7.699  -3.102  1.00  0.00     0.014 A 
ATOM     11  C   UNL     1      -4.052   6.883  -1.991  1.00  0.00     0.004 A 
ATOM     12  C   UNL     1      -6.609   7.064  -3.095  1.00  0.00     0.014 A 
ATOM     13  C   UNL     1      -5.114   6.172  -1.413  1.00  0.00    -0.051 A 
ATOM     14  C   UNL     1      -6.391   6.255  -1.981  1.00  0.00     0.004 A 
ATOM     15  C   UNL     1      -4.883   5.366  -0.168  1.00  0.00     0.044 C 
ENDBRANCH   1   9
BRANCH   6  16
ATOM     16  C   UNL     1      -6.964  10.179  -7.252  1.00  0.00     0.153 C 
BRANCH  16  17
ATOM     17  C   UNL     1      -7.821  10.387  -8.470  1.00  0.00    -0.029 A 
ATOM     18  C   UNL     1      -8.821   9.491  -8.862  1.00  0.00     0.006 A 
ATOM     19  C   UNL     1      -7.742  11.636  -9.107  1.00  0.00     0.006 A 
ATOM     20  C   UNL     1      -9.737   9.855  -9.854  1.00  0.00     0.004 A 
ATOM     21  C   UNL     1      -8.657  11.999 -10.090  1.00  0.00     0.004 A 
ATOM     22  C   UNL     1      -9.669  11.115 -10.466  1.00  0.00    -0.051 A 
ATOM     23  C   UNL     1     -10.730  11.566 -11.425  1.00  0.00     0.044 C 
ENDBRANCH  16  17
ENDBRANCH   6  16
TORSDOF 3
ENDMDL
MODEL 3
REMARK VINA RESULT:    -6.101      0.518      8.068
REMARK INTER + INTRA:          -7.537
REMARK INTER:                  -7.056
REMARK INTRA:                  -0.481
REMARK UNBOUND:                -0.367
REMARK SMILES Cc1ccc(CNC(=O)NC(=O)c2ccc(C)cc2)cc1
REMARK SMILES IDX 11 1 12 2 10 3 8 4 9 5 7 6 13 9 19 10 18 11 14 12 16 13
REMARK SMILES IDX 15 14 17 15 6 16 5 17 4 18 20 19 3 20 21 21 2 22 1 23
REMARK H PARENT 10 7 7 8
ROOT
ATOM      1  C   UNL     1      -6.028  11.771  -4.114  1.00  0.00     0.259 C 
ATOM      2  O   UNL     1      -5.542  11.004  -3.293  1.00  0.00    -0.269 OA
ATOM      3  N   UNL     1      -6.533  11.486  -5.386  1.00  0.00    -0.274 N 
ATOM      4  C   UNL     1      -6.908  10.378  -6.103  1.00  0.00     0.321 C 
ATOM      5  O   UNL     1      -7.454  10.560  -7.196  1.00  0.00    -0.248 OA
ATOM      6  N   UNL     1      -6.739   9.116  -5.666  1.00  0.00    -0.334 N 
ATOM      7  H   UNL     1      -6.865  12.295  -5.894  1.00  0.00     0.175 HD
ATOM      8  H   UNL     1      -7.145   8.418  -6.272  1.00  0.00     0.165 HD
ENDROOT
BRANCH   1   9
ATOM      9  C   UNL     1      -6.103  13.192  -3.725  1.00  0.00     0.040 A 
ATOM     10  C   UNL     1      -5.042  13.828  -3.078  1.00  0.00     0.014 A 
ATOM     11  C   UNL     1      -5.139  15.187  -2.778  1.00  0.00     0.004 A 
ATOM     12  C   UNL     1      -7.279  13.891  -4.018  1.00  0.00     0.014 A 
ATOM     13  C   UNL     1      -6.294  15.909  -3.114  1.00  0.00    -0.051 A 
ATOM     14  C   UNL     1      -7.369  15.250  -3.722  1.00  0.00     0.004 A 
ATOM     15  C   UNL     1      -6.350  17.387  -2.861  1.00  0.00     0.044 C 
ENDBRANCH   1   9
BRANCH   6  16
ATOM     16  C   UNL     1      -6.225   8.691  -4.394  1.00  0.00     0.153 C 
BRANCH  16  17
ATOM     17  C   UNL     1      -5.274   7.527  -4.388  1.00  0.00    -0.029 A 
ATOM     18  C   UNL     1      -5.696   6.197  -4.285  1.00  0.00     0.006 A 
ATOM     19  C   UNL     1      -3.933   7.790  -4.712  1.00  0.00     0.006 A 
ATOM     20  C   UNL     1      -4.794   5.155  -4.526  1.00  0.00     0.004 A 
ATOM     21  C   UNL     1      -3.039   6.753  -4.957  1.00  0.00     0.004 A 
ATOM     22  C   UNL     1      -3.464   5.426  -4.876  1.00  0.00    -0.051 A 
ATOM     23  C   UNL     1      -2.531   4.322  -5.275  1.00  0.00     0.044 C 
ENDBRANCH  16  17
ENDBRANCH   6  16
TORSDOF 3
ENDMDL
MODEL 4
REMARK VINA RESULT:    -6.094      3.178      7.314
REMARK INTER + INTRA:          -7.530
REMARK INTER:                  -7.048
REMARK INTRA:                  -0.482
REMARK UNBOUND:                -0.367
REMARK SMILES Cc1ccc(CNC(=O)NC(=O)c2ccc(C)cc2)cc1
REMARK SMILES IDX 11 1 12 2 10 3 8 4 9 5 7 6 13 9 19 10 18 11 14 12 16 13
REMARK SMILES IDX 15 14 17 15 6 16 5 17 4 18 20 19 3 20 21 21 2 22 1 23
REMARK H PARENT 10 7 7 8
ROOT
ATOM      1  C   UNL     1      -7.194   9.908  -7.010  1.00  0.00     0.259 C 
ATOM      2  O   UNL     1      -6.790   8.755  -6.954  1.00  0.00    -0.269 OA
ATOM      3  N   UNL     1      -7.032  10.939  -6.080  1.00  0.00    -0.274 N 
ATOM      4  C   UNL     1      -6.261  11.195  -4.975  1.00  0.00     0.321 C 
ATOM      5  O   UNL     1      -6.322  12.327  -4.483  1.00  0.00    -0.248 OA
ATOM      6  N   UNL     1      -5.427  10.293  -4.425  1.00  0.00    -0.334 N 
ATOM      7  H   UNL     1      -7.479  11.808  -6.339  1.00  0.00     0.175 HD
ATOM      8  H   UNL     1      -4.867  10.665  -3.671  1.00  0.00     0.165 HD
ENDROOT
BRANCH   1   9
ATOM      9  C   UNL     1      -7.954  10.283  -8.219  1.00  0.00     0.040 A 
ATOM     10  C   UNL     1      -8.918   9.434  -8.765  1.00  0.00     0.014 A 
ATOM     11  C   UNL     1      -9.647   9.854  -9.878  1.00  0.00     0.004 A 
ATOM     12  C   UNL     1      -7.676  11.518  -8.812  1.00  0.00     0.014 A 
ATOM     13  C   UNL     1      -9.412  11.114 -10.450  1.00  0.00    -0.051 A 
ATOM     14  C   UNL     1      -8.411  11.937  -9.919  1.00  0.00     0.004 A 
ATOM     15  C   UNL     1     -10.262  11.586 -11.592  1.00  0.00     0.044 C 
ENDBRANCH   1   9
BRANCH   6  16
ATOM     16  C   UNL     1      -5.131   8.970  -4.898  1.00  0.00     0.153 C 
BRANCH  16  17
ATOM     17  C   UNL     1      -5.039   7.876  -3.871  1.00  0.00    -0.029 A 
ATOM     18  C   UNL     1      -3.848   7.538  -3.220  1.00  0.00     0.006 A 
ATOM     19  C   UNL     1      -6.245   7.325  -3.409  1.00  0.00     0.006 A 
ATOM     20  C   UNL     1      -3.874   6.684  -2.112  1.00  0.00     0.004 A 
ATOM     21  C   UNL     1      -6.270   6.480  -2.304  1.00  0.00     0.004 A 
ATOM     22  C   UNL     1      -5.085   6.160  -1.639  1.00  0.00    -0.051 A 
ATOM     23  C   UNL     1      -5.138   5.362  -0.371  1.00  0.00     0.044 C 
ENDBRANCH  16  17
ENDBRANCH   6  16
TORSDOF 3
ENDMDL
MODEL 5
REMARK VINA RESULT:    -4.983      3.248      5.176
REMARK INTER + INTRA:          -6.224
REMARK INTER:                  -5.798
REMARK INTRA:                  -0.425
REMARK UNBOUND:                -0.367
REMARK SMILES Cc1ccc(CNC(=O)NC(=O)c2ccc(C)cc2)cc1
REMARK SMILES IDX 11 1 12 2 10 3 8 4 9 5 7 6 13 9 19 10 18 11 14 12 16 13
REMARK SMILES IDX 15 14 17 15 6 16 5 17 4 18 20 19 3 20 21 21 2 22 1 23
REMARK H PARENT 10 7 7 8
ROOT
ATOM      1  C   UNL     1      -5.107   8.346  -4.992  1.00  0.00     0.259 C 
ATOM      2  O   UNL     1      -4.902   8.297  -6.196  1.00  0.00    -0.269 OA
ATOM      3  N   UNL     1      -5.768   9.333  -4.255  1.00  0.00    -0.274 N 
ATOM      4  C   UNL     1      -6.591  10.401  -4.503  1.00  0.00     0.321 C 
ATOM      5  O   UNL     1      -7.097  10.973  -3.531  1.00  0.00    -0.248 OA
ATOM      6  N   UNL     1      -6.896  10.835  -5.740  1.00  0.00    -0.334 N 
ATOM      7  H   UNL     1      -5.794   9.163  -3.258  1.00  0.00     0.175 HD
ATOM      8  H   UNL     1      -7.582  11.576  -5.754  1.00  0.00     0.165 HD
ENDROOT
BRANCH   1   9
ATOM      9  C   UNL     1      -4.598   7.216  -4.190  1.00  0.00     0.040 A 
ATOM     10  C   UNL     1      -4.198   7.387  -2.863  1.00  0.00     0.014 A 
ATOM     11  C   UNL     1      -3.774   6.279  -2.129  1.00  0.00     0.004 A 
ATOM     12  C   UNL     1      -4.519   5.961  -4.800  1.00  0.00     0.014 A 
ATOM     13  C   UNL     1      -3.740   5.006  -2.716  1.00  0.00    -0.051 A 
ATOM     14  C   UNL     1      -4.100   4.856  -4.061  1.00  0.00     0.004 A 
ATOM     15  C   UNL     1      -3.362   3.812  -1.889  1.00  0.00     0.044 C 
ENDBRANCH   1   9
BRANCH   6  16
ATOM     16  C   UNL     1      -6.503  10.255  -6.993  1.00  0.00     0.153 C 
BRANCH  16  17
ATOM     17  C   UNL     1      -7.491  10.321  -8.124  1.00  0.00    -0.029 A 
ATOM     18  C   UNL     1      -8.461   9.339  -8.349  1.00  0.00     0.006 A 
ATOM     19  C   UNL     1      -7.565  11.524  -8.844  1.00  0.00     0.006 A 
ATOM     20  C   UNL     1      -9.497   9.573  -9.261  1.00  0.00     0.004 A 
ATOM     21  C   UNL     1      -8.597  11.758  -9.747  1.00  0.00     0.004 A 
ATOM     22  C   UNL     1      -9.579  10.788  -9.955  1.00  0.00    -0.051 A 
ATOM     23  C   UNL     1     -10.760  11.102 -10.824  1.00  0.00     0.044 C 
ENDBRANCH  16  17
ENDBRANCH   6  16
TORSDOF 3
ENDMDL
MODEL 6
REMARK VINA RESULT:    -4.590      4.802      7.192
REMARK INTER + INTRA:          -5.762
REMARK INTER:                  -5.322
REMARK INTRA:                  -0.440
REMARK UNBOUND:                -0.367
REMARK SMILES Cc1ccc(CNC(=O)NC(=O)c2ccc(C)cc2)cc1
REMARK SMILES IDX 11 1 12 2 10 3 8 4 9 5 7 6 13 9 19 10 18 11 14 12 16 13
REMARK SMILES IDX 15 14 17 15 6 16 5 17 4 18 20 19 3 20 21 21 2 22 1 23
REMARK H PARENT 10 7 7 8
ROOT
ATOM      1  C   UNL     1      -7.263  10.065  -7.608  1.00  0.00     0.259 C 
ATOM      2  O   UNL     1      -7.687   9.207  -8.370  1.00  0.00    -0.269 OA
ATOM      3  N   UNL     1      -7.306  11.456  -7.745  1.00  0.00    -0.274 N 
ATOM      4  C   UNL     1      -7.957  12.378  -8.524  1.00  0.00     0.321 C 
ATOM      5  O   UNL     1      -7.819  13.571  -8.235  1.00  0.00    -0.248 OA
ATOM      6  N   UNL     1      -8.754  12.049  -9.557  1.00  0.00    -0.334 N 
ATOM      7  H   UNL     1      -6.866  11.963  -6.988  1.00  0.00     0.175 HD
ATOM      8  H   UNL     1      -9.226  12.838  -9.974  1.00  0.00     0.165 HD
ENDROOT
BRANCH   1   9
ATOM      9  C   UNL     1      -6.619   9.587  -6.369  1.00  0.00     0.040 A 
ATOM     10  C   UNL     1      -7.356   9.363  -5.205  1.00  0.00     0.014 A 
ATOM     11  C   UNL     1      -6.712   8.862  -4.074  1.00  0.00     0.004 A 
ATOM     12  C   UNL     1      -5.238   9.370  -6.389  1.00  0.00     0.014 A 
ATOM     13  C   UNL     1      -5.336   8.591  -4.099  1.00  0.00    -0.051 A 
ATOM     14  C   UNL     1      -4.600   8.863  -5.259  1.00  0.00     0.004 A 
ATOM     15  C   UNL     1      -4.674   7.973  -2.902  1.00  0.00     0.044 C 
ENDBRANCH   1   9
BRANCH   6  16
ATOM     16  C   UNL     1      -9.128  10.732  -9.991  1.00  0.00     0.153 C 
BRANCH  16  17
ATOM     17  C   UNL     1     -10.569  10.509 -10.356  1.00  0.00    -0.029 A 
ATOM     18  C   UNL     1     -11.607  10.538  -9.419  1.00  0.00     0.006 A 
ATOM     19  C   UNL     1     -10.890  10.482 -11.723  1.00  0.00     0.006 A 
ATOM     20  C   UNL     1     -12.938  10.564  -9.849  1.00  0.00     0.004 A 
ATOM     21  C   UNL     1     -12.213  10.513 -12.149  1.00  0.00     0.004 A 
ATOM     22  C   UNL     1     -13.250  10.565 -11.216  1.00  0.00    -0.051 A 
ATOM     23  C   UNL     1     -14.663  10.737 -11.685  1.00  0.00     0.044 C 
ENDBRANCH  16  17
ENDBRANCH   6  16
TORSDOF 3
ENDMDL
MODEL 7
REMARK VINA RESULT:    -4.567      1.785      7.625
REMARK INTER + INTRA:          -5.735
REMARK INTER:                  -5.234
REMARK INTRA:                  -0.501
REMARK UNBOUND:                -0.367
REMARK SMILES Cc1ccc(CNC(=O)NC(=O)c2ccc(C)cc2)cc1
REMARK SMILES IDX 11 1 12 2 10 3 8 4 9 5 7 6 13 9 19 10 18 11 14 12 16 13
REMARK SMILES IDX 15 14 17 15 6 16 5 17 4 18 20 19 3 20 21 21 2 22 1 23
REMARK H PARENT 10 7 7 8
ROOT
ATOM      1  C   UNL     1      -5.683  11.536  -4.583  1.00  0.00     0.259 C 
ATOM      2  O   UNL     1      -4.620  11.058  -4.212  1.00  0.00    -0.269 OA
ATOM      3  N   UNL     1      -6.652  10.972  -5.420  1.00  0.00    -0.274 N 
ATOM      4  C   UNL     1      -6.955   9.736  -5.929  1.00  0.00     0.321 C 
ATOM      5  O   UNL     1      -8.016   9.616  -6.551  1.00  0.00    -0.248 OA
ATOM      6  N   UNL     1      -6.177   8.650  -5.761  1.00  0.00    -0.334 N 
ATOM      7  H   UNL     1      -7.445  11.572  -5.602  1.00  0.00     0.175 HD
ATOM      8  H   UNL     1      -6.582   7.799  -6.124  1.00  0.00     0.165 HD
ENDROOT
BRANCH   1   9
ATOM      9  C   UNL     1      -6.009  12.887  -4.086  1.00  0.00     0.040 A 
ATOM     10  C   UNL     1      -5.104  13.616  -3.313  1.00  0.00     0.014 A 
ATOM     11  C   UNL     1      -5.437  14.910  -2.911  1.00  0.00     0.004 A 
ATOM     12  C   UNL     1      -7.262  13.419  -4.407  1.00  0.00     0.014 A 
ATOM     13  C   UNL     1      -6.670  15.474  -3.272  1.00  0.00    -0.051 A 
ATOM     14  C   UNL     1      -7.587  14.715  -4.009  1.00  0.00     0.004 A 
ATOM     15  C   UNL     1      -6.977  16.896  -2.904  1.00  0.00     0.044 C 
ENDBRANCH   1   9
BRANCH   6  16
ATOM     16  C   UNL     1      -4.968   8.549  -4.993  1.00  0.00     0.153 C 
BRANCH  16  17
ATOM     17  C   UNL     1      -4.957   7.573  -3.850  1.00  0.00    -0.029 A 
ATOM     18  C   UNL     1      -3.801   7.251  -3.131  1.00  0.00     0.006 A 
ATOM     19  C   UNL     1      -6.201   7.137  -3.364  1.00  0.00     0.006 A 
ATOM     20  C   UNL     1      -3.897   6.529  -1.937  1.00  0.00     0.004 A 
ATOM     21  C   UNL     1      -6.295   6.423  -2.174  1.00  0.00     0.004 A 
ATOM     22  C   UNL     1      -5.144   6.122  -1.444  1.00  0.00    -0.051 A 
ATOM     23  C   UNL     1      -5.268   5.474  -0.097  1.00  0.00     0.044 C 
ENDBRANCH  16  17
ENDBRANCH   6  16
TORSDOF 3
ENDMDL
MODEL 8
REMARK VINA RESULT:    -4.534      2.923      7.649
REMARK INTER + INTRA:          -5.696
REMARK INTER:                  -5.193
REMARK INTRA:                  -0.503
REMARK UNBOUND:                -0.367
REMARK SMILES Cc1ccc(CNC(=O)NC(=O)c2ccc(C)cc2)cc1
REMARK SMILES IDX 11 1 12 2 10 3 8 4 9 5 7 6 13 9 19 10 18 11 14 12 16 13
REMARK SMILES IDX 15 14 17 15 6 16 5 17 4 18 20 19 3 20 21 21 2 22 1 23
REMARK H PARENT 10 7 7 8
ROOT
ATOM      1  C   UNL     1      -7.416   9.907  -6.415  1.00  0.00     0.259 C 
ATOM      2  O   UNL     1      -7.743   8.788  -6.047  1.00  0.00    -0.269 OA
ATOM      3  N   UNL     1      -6.615  10.846  -5.757  1.00  0.00    -0.274 N 
ATOM      4  C   UNL     1      -5.747  10.870  -4.695  1.00  0.00     0.321 C 
ATOM      5  O   UNL     1      -5.107  11.909  -4.502  1.00  0.00    -0.248 OA
ATOM      6  N   UNL     1      -5.538   9.820  -3.880  1.00  0.00    -0.334 N 
ATOM      7  H   UNL     1      -6.501  11.719  -6.254  1.00  0.00     0.175 HD
ATOM      8  H   UNL     1      -4.807   9.972  -3.200  1.00  0.00     0.165 HD
ENDROOT
BRANCH   1   9
ATOM      9  C   UNL     1      -7.920  10.343  -7.731  1.00  0.00     0.040 A 
ATOM     10  C   UNL     1      -8.793   9.548  -8.476  1.00  0.00     0.014 A 
ATOM     11  C   UNL     1      -9.284  10.026  -9.692  1.00  0.00     0.004 A 
ATOM     12  C   UNL     1      -7.492  11.581  -8.221  1.00  0.00     0.014 A 
ATOM     13  C   UNL     1      -8.902  11.289 -10.167  1.00  0.00    -0.051 A 
ATOM     14  C   UNL     1      -7.991  12.057  -9.432  1.00  0.00     0.004 A 
ATOM     15  C   UNL     1      -9.504  11.824 -11.433  1.00  0.00     0.044 C 
ENDBRANCH   1   9
BRANCH   6  16
ATOM     16  C   UNL     1      -6.096   8.502  -3.989  1.00  0.00     0.153 C 
BRANCH  16  17
ATOM     17  C   UNL     1      -5.135   7.359  -4.170  1.00  0.00    -0.029 A 
ATOM     18  C   UNL     1      -5.529   6.018  -4.136  1.00  0.00     0.006 A 
ATOM     19  C   UNL     1      -3.835   7.674  -4.597  1.00  0.00     0.006 A 
ATOM     20  C   UNL     1      -4.643   5.017  -4.547  1.00  0.00     0.004 A 
ATOM     21  C   UNL     1      -2.956   6.678  -5.010  1.00  0.00     0.004 A 
ATOM     22  C   UNL     1      -3.356   5.341  -4.999  1.00  0.00    -0.051 A 
ATOM     23  C   UNL     1      -2.453   4.291  -5.574  1.00  0.00     0.044 C 
ENDBRANCH  16  17
ENDBRANCH   6  16
TORSDOF 3
ENDMDL
MODEL 9
REMARK VINA RESULT:    -4.487      5.899      8.205
REMARK INTER + INTRA:          -5.641
REMARK INTER:                  -5.291
REMARK INTRA:                  -0.351
REMARK UNBOUND:                -0.367
REMARK SMILES Cc1ccc(CNC(=O)NC(=O)c2ccc(C)cc2)cc1
REMARK SMILES IDX 11 1 12 2 10 3 8 4 9 5 7 6 13 9 19 10 18 11 14 12 16 13
REMARK SMILES IDX 15 14 17 15 6 16 5 17 4 18 20 19 3 20 21 21 2 22 1 23
REMARK H PARENT 10 7 7 8
ROOT
ATOM      1  C   UNL     1      -8.874  15.386  -6.829  1.00  0.00     0.259 C 
ATOM      2  O   UNL     1      -8.272  14.416  -6.391  1.00  0.00    -0.269 OA
ATOM      3  N   UNL     1      -9.711  16.277  -6.150  1.00  0.00    -0.274 N 
ATOM      4  C   UNL     1     -10.004  16.601  -4.850  1.00  0.00     0.321 C 
ATOM      5  O   UNL     1     -10.732  17.580  -4.654  1.00  0.00    -0.248 OA
ATOM      6  N   UNL     1      -9.518  15.932  -3.789  1.00  0.00    -0.334 N 
ATOM      7  H   UNL     1     -10.117  16.996  -6.735  1.00  0.00     0.175 HD
ATOM      8  H   UNL     1      -9.759  16.348  -2.901  1.00  0.00     0.165 HD
ENDROOT
BRANCH   1   9
ATOM      9  C   UNL     1      -8.705  15.675  -8.267  1.00  0.00     0.040 A 
ATOM     10  C   UNL     1      -8.450  14.657  -9.188  1.00  0.00     0.014 A 
ATOM     11  C   UNL     1      -8.350  14.972 -10.544  1.00  0.00     0.004 A 
ATOM     12  C   UNL     1      -8.800  17.006  -8.685  1.00  0.00     0.014 A 
ATOM     13  C   UNL     1      -8.495  16.298 -10.980  1.00  0.00    -0.051 A 
ATOM     14  C   UNL     1      -8.705  17.315 -10.041  1.00  0.00     0.004 A 
ATOM     15  C   UNL     1      -8.469  16.608 -12.448  1.00  0.00     0.044 C 
ENDBRANCH   1   9
BRANCH   6  16
ATOM     16  C   UNL     1      -8.583  14.842  -3.793  1.00  0.00     0.153 C 
BRANCH  16  17
ATOM     17  C   UNL     1      -7.140  15.170  -3.531  1.00  0.00    -0.029 A 
ATOM     18  C   UNL     1      -6.160  14.194  -3.323  1.00  0.00     0.006 A 
ATOM     19  C   UNL     1      -6.740  16.504  -3.714  1.00  0.00     0.006 A 
ATOM     20  C   UNL     1      -4.807  14.548  -3.324  1.00  0.00     0.004 A 
ATOM     21  C   UNL     1      -5.394  16.854  -3.720  1.00  0.00     0.004 A 
ATOM     22  C   UNL     1      -4.414  15.877  -3.535  1.00  0.00    -0.051 A 
ATOM     23  C   UNL     1      -2.967  16.240  -3.681  1.00  0.00     0.044 C 
ENDBRANCH  16  17
ENDBRANCH   6  16
TORSDOF 3
ENDMDL
