MODEL 1
REMARK VINA RESULT:    -4.234      0.000      0.000
REMARK INTER + INTRA:          -5.829
REMARK INTER:                  -5.595
REMARK INTRA:                  -0.234
REMARK UNBOUND:                -0.234
REMARK SMILES [H]/N=C\C[C@H]1C[C@@H]1O[C@H]1CO[C@H]2C[C@@H](C3CC3)CCN2C1
REMARK SMILES IDX 7 1 6 2 5 3 8 4 9 5 14 6 13 7 18 8 12 9 19 10 20 11 11 12
REMARK SMILES IDX 21 13 10 14 15 15 16 16 17 17 4 18 3 19 2 20 1 21
REMARK H PARENT
ROOT
ATOM      1  C   UNL     1      -5.748  12.538  -3.941  1.00  0.00     0.122 C 
ATOM      2  C   UNL     1      -6.854  13.524  -3.689  1.00  0.00     0.039 C 
ATOM      3  C   UNL     1      -5.591  13.592  -2.878  1.00  0.00     0.026 C 
ENDROOT
BRANCH   1   4
ATOM      4  O   UNL     1      -6.036  11.203  -3.486  1.00  0.00    -0.371 OA
BRANCH   4   5
ATOM      5  C   UNL     1      -6.997  10.476  -4.269  1.00  0.00     0.158 C 
ATOM      6  C   UNL     1      -4.609   5.840  -4.335  1.00  0.00    -0.003 C 
ATOM      7  C   UNL     1      -4.374   7.206  -4.991  1.00  0.00     0.052 C 
ATOM      8  C   UNL     1      -5.250   6.043  -2.955  1.00  0.00     0.019 C 
ATOM      9  C   UNL     1      -5.652   8.054  -5.014  1.00  0.00     0.189 C 
ATOM     10  C   UNL     1      -6.496   6.924  -3.042  1.00  0.00     0.087 C 
ATOM     11  N   UNL     1      -6.184   8.212  -3.660  1.00  0.00    -0.276 NA
ATOM     12  O   UNL     1      -5.299   9.309  -5.601  1.00  0.00    -0.360 OA
ATOM     13  C   UNL     1      -7.351   9.102  -3.673  1.00  0.00     0.121 C 
ATOM     14  C   UNL     1      -6.393  10.229  -5.656  1.00  0.00     0.195 C 
BRANCH   6  15
ATOM     15  C   UNL     1      -3.323   5.054  -4.212  1.00  0.00    -0.008 C 
ATOM     16  C   UNL     1      -3.258   3.617  -4.673  1.00  0.00     0.004 C 
ATOM     17  C   UNL     1      -2.525   4.680  -5.437  1.00  0.00     0.004 C 
ENDBRANCH   6  15
ENDBRANCH   4   5
ENDBRANCH   1   4
BRANCH   3  18
ATOM     18  C   UNL     1      -4.654  14.744  -3.089  1.00  0.00     0.053 C 
BRANCH  18  19
ATOM     19  C   UNL     1      -5.244  16.121  -2.926  1.00  0.00     0.074 C 
BRANCH  19  20
ATOM     20  N   UNL     1      -5.338  16.778  -1.818  1.00  0.00    -0.313 NA
ATOM     21  H   UNL     1      -4.521  17.386  -1.667  1.00  0.00     0.186 HD
ENDBRANCH  19  20
ENDBRANCH  18  19
ENDBRANCH   3  18
TORSDOF 6
ENDMDL
MODEL 2
REMARK VINA RESULT:    -4.193      3.306      5.588
REMARK INTER + INTRA:          -5.775
REMARK INTER:                  -5.561
REMARK INTRA:                  -0.214
REMARK UNBOUND:                -0.234
REMARK SMILES [H]/N=C\C[C@H]1C[C@@H]1O[C@H]1CO[C@H]2C[C@@H](C3CC3)CCN2C1
REMARK SMILES IDX 7 1 6 2 5 3 8 4 9 5 14 6 13 7 18 8 12 9 19 10 20 11 11 12
REMARK SMILES IDX 21 13 10 14 15 15 16 16 17 17 4 18 3 19 2 20 1 21
REMARK H PARENT
ROOT
ATOM      1  C   UNL     1      -7.840   9.920  -7.555  1.00  0.00     0.122 C 
ATOM      2  C   UNL     1      -7.658  10.920  -8.661  1.00  0.00     0.039 C 
ATOM      3  C   UNL     1      -8.316   9.600  -8.946  1.00  0.00     0.026 C 
ENDROOT
BRANCH   1   4
ATOM      4  O   UNL     1      -6.619   9.286  -7.129  1.00  0.00    -0.371 OA
BRANCH   4   5
ATOM      5  C   UNL     1      -5.714  10.121  -6.387  1.00  0.00     0.158 C 
ATOM      6  C   UNL     1      -4.440   6.741  -2.625  1.00  0.00    -0.003 C 
ATOM      7  C   UNL     1      -5.682   7.565  -2.987  1.00  0.00     0.052 C 
ATOM      8  C   UNL     1      -3.700   6.347  -3.911  1.00  0.00     0.019 C 
ATOM      9  C   UNL     1      -5.334   8.751  -3.896  1.00  0.00     0.189 C 
ATOM     10  C   UNL     1      -3.414   7.567  -4.786  1.00  0.00     0.087 C 
ATOM     11  N   UNL     1      -4.648   8.286  -5.102  1.00  0.00    -0.276 NA
ATOM     12  O   UNL     1      -6.566   9.408  -4.199  1.00  0.00    -0.360 OA
ATOM     13  C   UNL     1      -4.402   9.409  -6.013  1.00  0.00     0.121 C 
ATOM     14  C   UNL     1      -6.403  10.525  -5.080  1.00  0.00     0.195 C 
BRANCH   6  15
ATOM     15  C   UNL     1      -4.804   5.511  -1.824  1.00  0.00    -0.008 C 
ATOM     16  C   UNL     1      -4.025   5.150  -0.581  1.00  0.00     0.004 C 
ATOM     17  C   UNL     1      -5.440   5.636  -0.461  1.00  0.00     0.004 C 
ENDBRANCH   6  15
ENDBRANCH   4   5
ENDBRANCH   1   4
BRANCH   3  18
ATOM     18  C   UNL     1      -9.783   9.571  -9.255  1.00  0.00     0.053 C 
BRANCH  18  19
ATOM     19  C   UNL     1     -10.231  10.393 -10.435  1.00  0.00     0.074 C 
BRANCH  19  20
ATOM     20  N   UNL     1     -10.230  10.010 -11.669  1.00  0.00    -0.313 NA
ATOM     21  H   UNL     1     -10.419   9.001 -11.753  1.00  0.00     0.186 HD
ENDBRANCH  19  20
ENDBRANCH  18  19
ENDBRANCH   3  18
TORSDOF 6
ENDMDL
MODEL 3
REMARK VINA RESULT:    -4.067      5.210      8.429
REMARK INTER + INTRA:          -5.608
REMARK INTER:                  -5.403
REMARK INTRA:                  -0.205
REMARK UNBOUND:                -0.234
REMARK SMILES [H]/N=C\C[C@H]1C[C@@H]1O[C@H]1CO[C@H]2C[C@@H](C3CC3)CCN2C1
REMARK SMILES IDX 7 1 6 2 5 3 8 4 9 5 14 6 13 7 18 8 12 9 19 10 20 11 11 12
REMARK SMILES IDX 21 13 10 14 15 15 16 16 17 17 4 18 3 19 2 20 1 21
REMARK H PARENT
ROOT
ATOM      1  C   UNL     1      -6.559   9.798  -5.580  1.00  0.00     0.122 C 
ATOM      2  C   UNL     1      -6.465  10.675  -4.364  1.00  0.00     0.039 C 
ATOM      3  C   UNL     1      -7.253   9.398  -4.307  1.00  0.00     0.026 C 
ENDROOT
BRANCH   1   4
ATOM      4  O   UNL     1      -7.391  10.333  -6.627  1.00  0.00    -0.371 OA
BRANCH   4   5
ATOM      5  C   UNL     1      -6.935  10.087  -7.968  1.00  0.00     0.158 C 
ATOM      6  C   UNL     1     -11.325  11.278 -10.519  1.00  0.00    -0.003 C 
ATOM      7  C   UNL     1     -10.854  10.127  -9.622  1.00  0.00     0.052 C 
ATOM      8  C   UNL     1     -10.649  12.580 -10.070  1.00  0.00     0.019 C 
ATOM      9  C   UNL     1      -9.323  10.046  -9.556  1.00  0.00     0.189 C 
ATOM     10  C   UNL     1      -9.130  12.423  -9.992  1.00  0.00     0.087 C 
ATOM     11  N   UNL     1      -8.764  11.320  -9.105  1.00  0.00    -0.276 NA
ATOM     12  O   UNL     1      -9.009   8.975  -8.663  1.00  0.00    -0.360 OA
ATOM     13  C   UNL     1      -7.308  11.211  -8.951  1.00  0.00     0.121 C 
ATOM     14  C   UNL     1      -7.602   8.802  -8.469  1.00  0.00     0.195 C 
BRANCH   6  15
ATOM     15  C   UNL     1     -12.830  11.424 -10.490  1.00  0.00    -0.008 C 
ATOM     16  C   UNL     1     -13.588  11.779 -11.747  1.00  0.00     0.004 C 
ATOM     17  C   UNL     1     -13.720  10.404 -11.160  1.00  0.00     0.004 C 
ENDBRANCH   6  15
ENDBRANCH   4   5
ENDBRANCH   1   4
BRANCH   3  18
ATOM     18  C   UNL     1      -6.729   8.257  -3.487  1.00  0.00     0.053 C 
BRANCH  18  19
ATOM     19  C   UNL     1      -7.762   7.356  -2.862  1.00  0.00     0.074 C 
BRANCH  19  20
ATOM     20  N   UNL     1      -8.858   7.738  -2.297  1.00  0.00    -0.313 NA
ATOM     21  H   UNL     1      -9.675   7.574  -2.902  1.00  0.00     0.186 HD
ENDBRANCH  19  20
ENDBRANCH  18  19
ENDBRANCH   3  18
TORSDOF 6
ENDMDL
MODEL 4
REMARK VINA RESULT:    -3.762      6.730      8.168
REMARK INTER + INTRA:          -5.205
REMARK INTER:                  -5.045
REMARK INTRA:                  -0.160
REMARK UNBOUND:                -0.234
REMARK SMILES [H]/N=C\C[C@H]1C[C@@H]1O[C@H]1CO[C@H]2C[C@@H](C3CC3)CCN2C1
REMARK SMILES IDX 7 1 6 2 5 3 8 4 9 5 14 6 13 7 18 8 12 9 19 10 20 11 11 12
REMARK SMILES IDX 21 13 10 14 15 15 16 16 17 17 4 18 3 19 2 20 1 21
REMARK H PARENT
ROOT
ATOM      1  C   UNL     1     -12.015  14.365 -10.174  1.00  0.00     0.122 C 
ATOM      2  C   UNL     1     -13.010  13.654  -9.300  1.00  0.00     0.039 C 
ATOM      3  C   UNL     1     -12.920  15.153  -9.266  1.00  0.00     0.026 C 
ENDROOT
BRANCH   1   4
ATOM      4  O   UNL     1     -10.647  14.215  -9.749  1.00  0.00    -0.371 OA
BRANCH   4   5
ATOM      5  C   UNL     1      -9.736  13.737 -10.752  1.00  0.00     0.158 C 
ATOM      6  C   UNL     1      -7.352  10.042  -7.946  1.00  0.00    -0.003 C 
ATOM      7  C   UNL     1      -7.349  11.575  -7.971  1.00  0.00     0.052 C 
ATOM      8  C   UNL     1      -8.741   9.531  -8.354  1.00  0.00     0.019 C 
ATOM      9  C   UNL     1      -7.848  12.125  -9.314  1.00  0.00     0.189 C 
ATOM     10  C   UNL     1      -9.194  10.141  -9.680  1.00  0.00     0.087 C 
ATOM     11  N   UNL     1      -9.181  11.602  -9.616  1.00  0.00    -0.276 NA
ATOM     12  O   UNL     1      -7.844  13.549  -9.201  1.00  0.00    -0.360 OA
ATOM     13  C   UNL     1      -9.695  12.202 -10.852  1.00  0.00     0.121 C 
ATOM     14  C   UNL     1      -8.326  14.206 -10.376  1.00  0.00     0.195 C 
BRANCH   6  15
ATOM     15  C   UNL     1      -6.969   9.508  -6.584  1.00  0.00    -0.008 C 
ATOM     16  C   UNL     1      -5.528   9.531  -6.133  1.00  0.00     0.004 C 
ATOM     17  C   UNL     1      -6.528  10.443  -5.484  1.00  0.00     0.004 C 
ENDBRANCH   6  15
ENDBRANCH   4   5
ENDBRANCH   1   4
BRANCH   3  18
ATOM     18  C   UNL     1     -14.046  15.961  -9.837  1.00  0.00     0.053 C 
BRANCH  18  19
ATOM     19  C   UNL     1     -14.933  16.663  -8.843  1.00  0.00     0.074 C 
BRANCH  19  20
ATOM     20  N   UNL     1     -15.146  16.293  -7.624  1.00  0.00    -0.313 NA
ATOM     21  H   UNL     1     -15.301  17.101  -7.004  1.00  0.00     0.186 HD
ENDBRANCH  19  20
ENDBRANCH  18  19
ENDBRANCH   3  18
TORSDOF 6
ENDMDL
MODEL 5
REMARK VINA RESULT:    -3.725      5.661      7.111
REMARK INTER + INTRA:          -5.156
REMARK INTER:                  -4.812
REMARK INTRA:                  -0.344
REMARK UNBOUND:                -0.234
REMARK SMILES [H]/N=C\C[C@H]1C[C@@H]1O[C@H]1CO[C@H]2C[C@@H](C3CC3)CCN2C1
REMARK SMILES IDX 7 1 6 2 5 3 8 4 9 5 14 6 13 7 18 8 12 9 19 10 20 11 11 12
REMARK SMILES IDX 21 13 10 14 15 15 16 16 17 17 4 18 3 19 2 20 1 21
REMARK H PARENT
ROOT
ATOM      1  C   UNL     1     -10.634  15.430  -9.774  1.00  0.00     0.122 C 
ATOM      2  C   UNL     1     -11.863  16.011  -9.134  1.00  0.00     0.039 C 
ATOM      3  C   UNL     1     -10.586  15.914  -8.351  1.00  0.00     0.026 C 
ENDROOT
BRANCH   1   4
ATOM      4  O   UNL     1     -10.691  14.004  -9.969  1.00  0.00    -0.371 OA
BRANCH   4   5
ATOM      5  C   UNL     1      -9.763  13.472 -10.929  1.00  0.00     0.158 C 
ATOM      6  C   UNL     1      -7.333  10.036  -7.847  1.00  0.00    -0.003 C 
ATOM      7  C   UNL     1      -7.358  11.564  -7.983  1.00  0.00     0.052 C 
ATOM      8  C   UNL     1      -8.709   9.471  -8.225  1.00  0.00     0.019 C 
ATOM      9  C   UNL     1      -7.857  12.004  -9.366  1.00  0.00     0.189 C 
ATOM     10  C   UNL     1      -9.162   9.974  -9.595  1.00  0.00     0.087 C 
ATOM     11  N   UNL     1      -9.177  11.436  -9.637  1.00  0.00    -0.276 NA
ATOM     12  O   UNL     1      -7.880  13.433  -9.356  1.00  0.00    -0.360 OA
ATOM     13  C   UNL     1      -9.693  11.935 -10.917  1.00  0.00     0.121 C 
ATOM     14  C   UNL     1      -8.365  13.994 -10.580  1.00  0.00     0.195 C 
BRANCH   6  15
ATOM     15  C   UNL     1      -6.950   9.610  -6.448  1.00  0.00    -0.008 C 
ATOM     16  C   UNL     1      -5.498   9.560  -6.035  1.00  0.00     0.004 C 
ATOM     17  C   UNL     1      -6.403  10.610  -5.457  1.00  0.00     0.004 C 
ENDBRANCH   6  15
ENDBRANCH   4   5
ENDBRANCH   1   4
BRANCH   3  18
ATOM     18  C   UNL     1      -9.848  17.173  -8.005  1.00  0.00     0.053 C 
BRANCH  18  19
ATOM     19  C   UNL     1      -8.387  17.019  -7.672  1.00  0.00     0.074 C 
BRANCH  19  20
ATOM     20  N   UNL     1      -7.634  16.026  -8.009  1.00  0.00    -0.313 NA
ATOM     21  H   UNL     1      -6.810  16.338  -8.541  1.00  0.00     0.186 HD
ENDBRANCH  19  20
ENDBRANCH  18  19
ENDBRANCH   3  18
TORSDOF 6
ENDMDL
MODEL 6
REMARK VINA RESULT:    -3.681      1.908      2.244
REMARK INTER + INTRA:          -5.098
REMARK INTER:                  -5.289
REMARK INTRA:                   0.190
REMARK UNBOUND:                -0.234
REMARK SMILES [H]/N=C\C[C@H]1C[C@@H]1O[C@H]1CO[C@H]2C[C@@H](C3CC3)CCN2C1
REMARK SMILES IDX 7 1 6 2 5 3 8 4 9 5 14 6 13 7 18 8 12 9 19 10 20 11 11 12
REMARK SMILES IDX 21 13 10 14 15 15 16 16 17 17 4 18 3 19 2 20 1 21
REMARK H PARENT
ROOT
ATOM      1  C   UNL     1      -6.435  12.175  -3.540  1.00  0.00     0.122 C 
ATOM      2  C   UNL     1      -5.749  13.002  -2.489  1.00  0.00     0.039 C 
ATOM      3  C   UNL     1      -6.332  13.667  -3.703  1.00  0.00     0.026 C 
ENDROOT
BRANCH   1   4
ATOM      4  O   UNL     1      -5.539  11.377  -4.336  1.00  0.00    -0.371 OA
BRANCH   4   5
ATOM      5  C   UNL     1      -6.164  10.550  -5.332  1.00  0.00     0.158 C 
ATOM      6  C   UNL     1      -5.525   5.919  -3.020  1.00  0.00    -0.003 C 
ATOM      7  C   UNL     1      -4.612   6.930  -3.725  1.00  0.00     0.052 C 
ATOM      8  C   UNL     1      -6.663   6.669  -2.313  1.00  0.00     0.019 C 
ATOM      9  C   UNL     1      -5.405   7.872  -4.641  1.00  0.00     0.189 C 
ATOM     10  C   UNL     1      -7.389   7.613  -3.270  1.00  0.00     0.087 C 
ATOM     11  N   UNL     1      -6.454   8.556  -3.884  1.00  0.00    -0.276 NA
ATOM     12  O   UNL     1      -4.462   8.789  -5.199  1.00  0.00    -0.360 OA
ATOM     13  C   UNL     1      -7.148   9.526  -4.739  1.00  0.00     0.121 C 
ATOM     14  C   UNL     1      -5.067   9.763  -6.055  1.00  0.00     0.195 C 
BRANCH   6  15
ATOM     15  C   UNL     1      -4.756   5.069  -2.034  1.00  0.00    -0.008 C 
ATOM     16  C   UNL     1      -3.660   4.146  -2.513  1.00  0.00     0.004 C 
ATOM     17  C   UNL     1      -3.311   5.370  -1.717  1.00  0.00     0.004 C 
ENDBRANCH   6  15
ENDBRANCH   4   5
ENDBRANCH   1   4
BRANCH   3  18
ATOM     18  C   UNL     1      -7.548  14.530  -3.545  1.00  0.00     0.053 C 
BRANCH  18  19
ATOM     19  C   UNL     1      -8.161  15.058  -4.816  1.00  0.00     0.074 C 
BRANCH  19  20
ATOM     20  N   UNL     1      -8.203  14.440  -5.949  1.00  0.00    -0.313 NA
ATOM     21  H   UNL     1      -7.305  14.502  -6.449  1.00  0.00     0.186 HD
ENDBRANCH  19  20
ENDBRANCH  18  19
ENDBRANCH   3  18
TORSDOF 6
ENDMDL
MODEL 7
REMARK VINA RESULT:    -3.541      6.980      8.465
REMARK INTER + INTRA:          -4.914
REMARK INTER:                  -4.245
REMARK INTRA:                  -0.669
REMARK UNBOUND:                -0.234
REMARK SMILES [H]/N=C\C[C@H]1C[C@@H]1O[C@H]1CO[C@H]2C[C@@H](C3CC3)CCN2C1
REMARK SMILES IDX 7 1 6 2 5 3 8 4 9 5 14 6 13 7 18 8 12 9 19 10 20 11 11 12
REMARK SMILES IDX 21 13 10 14 15 15 16 16 17 17 4 18 3 19 2 20 1 21
REMARK H PARENT
ROOT
ATOM      1  C   UNL     1     -11.277  16.102  -9.929  1.00  0.00     0.122 C 
ATOM      2  C   UNL     1     -11.991  16.948  -8.913  1.00  0.00     0.039 C 
ATOM      3  C   UNL     1     -10.866  16.052  -8.482  1.00  0.00     0.026 C 
ENDROOT
BRANCH   1   4
ATOM      4  O   UNL     1     -12.053  14.992 -10.418  1.00  0.00    -0.371 OA
BRANCH   4   5
ATOM      5  C   UNL     1     -11.586  14.402 -11.642  1.00  0.00     0.158 C 
ATOM      6  C   UNL     1      -9.220  10.208  -9.638  1.00  0.00    -0.003 C 
ATOM      7  C   UNL     1      -8.936  11.714  -9.679  1.00  0.00     0.052 C 
ATOM      8  C   UNL     1     -10.738   9.979  -9.605  1.00  0.00     0.019 C 
ATOM      9  C   UNL     1      -9.697  12.406 -10.818  1.00  0.00     0.189 C 
ATOM     10  C   UNL     1     -11.439  10.721 -10.742  1.00  0.00     0.087 C 
ATOM     11  N   UNL     1     -11.133  12.151 -10.701  1.00  0.00    -0.276 NA
ATOM     12  O   UNL     1      -9.391  13.799 -10.726  1.00  0.00    -0.360 OA
ATOM     13  C   UNL     1     -11.867  12.891 -11.733  1.00  0.00     0.121 C 
ATOM     14  C   UNL     1     -10.067  14.587 -11.712  1.00  0.00     0.195 C 
BRANCH   6  15
ATOM     15  C   UNL     1      -8.559   9.551  -8.447  1.00  0.00    -0.008 C 
ATOM     16  C   UNL     1      -7.276   8.772  -8.619  1.00  0.00     0.004 C 
ATOM     17  C   UNL     1      -7.261  10.085  -7.891  1.00  0.00     0.004 C 
ENDBRANCH   6  15
ENDBRANCH   4   5
ENDBRANCH   1   4
BRANCH   3  18
ATOM     18  C   UNL     1      -9.573  16.669  -8.042  1.00  0.00     0.053 C 
BRANCH  18  19
ATOM     19  C   UNL     1      -8.434  15.717  -7.783  1.00  0.00     0.074 C 
BRANCH  19  20
ATOM     20  N   UNL     1      -7.734  15.112  -8.683  1.00  0.00    -0.313 NA
ATOM     21  H   UNL     1      -8.124  14.186  -8.908  1.00  0.00     0.186 HD
ENDBRANCH  19  20
ENDBRANCH  18  19
ENDBRANCH   3  18
TORSDOF 6
ENDMDL
MODEL 8
REMARK VINA RESULT:    -3.480      6.216      7.873
REMARK INTER + INTRA:          -4.833
REMARK INTER:                  -4.380
REMARK INTRA:                  -0.453
REMARK UNBOUND:                -0.234
REMARK SMILES [H]/N=C\C[C@H]1C[C@@H]1O[C@H]1CO[C@H]2C[C@@H](C3CC3)CCN2C1
REMARK SMILES IDX 7 1 6 2 5 3 8 4 9 5 14 6 13 7 18 8 12 9 19 10 20 11 11 12
REMARK SMILES IDX 21 13 10 14 15 15 16 16 17 17 4 18 3 19 2 20 1 21
REMARK H PARENT
ROOT
ATOM      1  C   UNL     1      -9.934  16.756  -8.761  1.00  0.00     0.122 C 
ATOM      2  C   UNL     1     -10.855  17.662  -7.993  1.00  0.00     0.039 C 
ATOM      3  C   UNL     1     -10.225  16.481  -7.311  1.00  0.00     0.026 C 
ENDROOT
BRANCH   1   4
ATOM      4  O   UNL     1     -10.602  15.918  -9.724  1.00  0.00    -0.371 OA
BRANCH   4   5
ATOM      5  C   UNL     1      -9.831  15.575 -10.887  1.00  0.00     0.158 C 
ATOM      6  C   UNL     1      -8.515  10.709  -9.544  1.00  0.00    -0.003 C 
ATOM      7  C   UNL     1      -8.117  12.120  -9.091  1.00  0.00     0.052 C 
ATOM      8  C   UNL     1      -9.984  10.716  -9.992  1.00  0.00     0.019 C 
ATOM      9  C   UNL     1      -8.441  13.174 -10.158  1.00  0.00     0.189 C 
ATOM     10  C   UNL     1     -10.246  11.809 -11.028  1.00  0.00     0.087 C 
ATOM     11  N   UNL     1      -9.859  13.122 -10.513  1.00  0.00    -0.276 NA
ATOM     12  O   UNL     1      -8.072  14.439  -9.608  1.00  0.00    -0.360 OA
ATOM     13  C   UNL     1     -10.186  14.192 -11.462  1.00  0.00     0.121 C 
ATOM     14  C   UNL     1      -8.353  15.535 -10.484  1.00  0.00     0.195 C 
BRANCH   6  15
ATOM     15  C   UNL     1      -8.300   9.693  -8.446  1.00  0.00    -0.008 C 
ATOM     16  C   UNL     1      -7.225   8.640  -8.579  1.00  0.00     0.004 C 
ATOM     17  C   UNL     1      -7.069   9.744  -7.574  1.00  0.00     0.004 C 
ENDBRANCH   6  15
ENDBRANCH   4   5
ENDBRANCH   1   4
BRANCH   3  18
ATOM     18  C   UNL     1      -9.173  16.720  -6.271  1.00  0.00     0.053 C 
BRANCH  18  19
ATOM     19  C   UNL     1      -8.566  15.492  -5.643  1.00  0.00     0.074 C 
BRANCH  19  20
ATOM     20  N   UNL     1      -8.287  14.389  -6.253  1.00  0.00    -0.313 NA
ATOM     21  H   UNL     1      -7.992  13.654  -5.595  1.00  0.00     0.186 HD
ENDBRANCH  19  20
ENDBRANCH  18  19
ENDBRANCH   3  18
TORSDOF 6
ENDMDL
MODEL 9
REMARK VINA RESULT:    -3.441      6.835      8.901
REMARK INTER + INTRA:          -4.782
REMARK INTER:                  -4.529
REMARK INTRA:                  -0.253
REMARK UNBOUND:                -0.234
REMARK SMILES [H]/N=C\C[C@H]1C[C@@H]1O[C@H]1CO[C@H]2C[C@@H](C3CC3)CCN2C1
REMARK SMILES IDX 7 1 6 2 5 3 8 4 9 5 14 6 13 7 18 8 12 9 19 10 20 11 11 12
REMARK SMILES IDX 21 13 10 14 15 15 16 16 17 17 4 18 3 19 2 20 1 21
REMARK H PARENT
ROOT
ATOM      1  C   UNL     1      -8.562  15.659  -5.667  1.00  0.00     0.122 C 
ATOM      2  C   UNL     1      -9.393  15.427  -4.436  1.00  0.00     0.039 C 
ATOM      3  C   UNL     1      -7.950  15.009  -4.455  1.00  0.00     0.026 C 
ENDROOT
BRANCH   1   4
ATOM      4  O   UNL     1      -8.890  14.790  -6.768  1.00  0.00    -0.371 OA
BRANCH   4   5
ATOM      5  C   UNL     1      -8.769  15.374  -8.075  1.00  0.00     0.158 C 
ATOM      6  C   UNL     1     -12.554  12.707 -10.476  1.00  0.00    -0.003 C 
ATOM      7  C   UNL     1     -11.149  12.387  -9.950  1.00  0.00     0.052 C 
ATOM      8  C   UNL     1     -13.197  13.780  -9.587  1.00  0.00     0.019 C 
ATOM      9  C   UNL     1     -10.300  13.655  -9.787  1.00  0.00     0.189 C 
ATOM     10  C   UNL     1     -12.287  15.000  -9.438  1.00  0.00     0.087 C 
ATOM     11  N   UNL     1     -10.977  14.614  -8.914  1.00  0.00    -0.276 NA
ATOM     12  O   UNL     1      -9.042  13.238  -9.252  1.00  0.00    -0.360 OA
ATOM     13  C   UNL     1     -10.122  15.784  -8.683  1.00  0.00     0.121 C 
ATOM     14  C   UNL     1      -8.148  14.329  -9.008  1.00  0.00     0.195 C 
BRANCH   6  15
ATOM     15  C   UNL     1     -13.422  11.470 -10.527  1.00  0.00    -0.008 C 
ATOM     16  C   UNL     1     -14.095  11.061 -11.816  1.00  0.00     0.004 C 
ATOM     17  C   UNL     1     -12.967  10.235 -11.267  1.00  0.00     0.004 C 
ENDBRANCH   6  15
ENDBRANCH   4   5
ENDBRANCH   1   4
BRANCH   3  18
ATOM     18  C   UNL     1      -6.965  15.761  -3.612  1.00  0.00     0.053 C 
BRANCH  18  19
ATOM     19  C   UNL     1      -5.695  15.031  -3.260  1.00  0.00     0.074 C 
BRANCH  19  20
ATOM     20  N   UNL     1      -5.601  13.779  -2.957  1.00  0.00    -0.313 NA
ATOM     21  H   UNL     1      -6.236  13.202  -3.526  1.00  0.00     0.186 HD
ENDBRANCH  19  20
ENDBRANCH  18  19
ENDBRANCH   3  18
TORSDOF 6
ENDMDL
