MODEL 1
REMARK VINA RESULT:    -6.091      0.000      0.000
REMARK INTER + INTRA:          -7.640
REMARK INTER:                  -7.159
REMARK INTRA:                  -0.482
REMARK UNBOUND:                -0.482
REMARK SMILES Cc1ccc(CNC(=O)NC(=O)c2ccc(C)cc2)cc1
REMARK SMILES IDX 11 1 12 2 10 3 8 4 9 5 7 6 13 9 19 10 18 11 14 12 16 13
REMARK SMILES IDX 15 14 17 15 6 16 5 17 4 18 20 19 3 20 21 21 2 22 1 23
REMARK H PARENT 10 7 7 8
ROOT
ATOM      1  C   UNL     1       8.860  10.215  -4.255  1.00  0.00     0.259 C 
ATOM      2  O   UNL     1       8.573   9.069  -3.939  1.00  0.00    -0.269 OA
ATOM      3  N   UNL     1       8.071  11.368  -4.179  1.00  0.00    -0.274 N 
ATOM      4  C   UNL     1       6.901  11.757  -3.579  1.00  0.00     0.321 C 
ATOM      5  O   UNL     1       6.591  12.951  -3.646  1.00  0.00    -0.248 OA
ATOM      6  N   UNL     1       6.096  10.916  -2.902  1.00  0.00    -0.334 N 
ATOM      7  H   UNL     1       8.522  12.205  -4.522  1.00  0.00     0.175 HD
ATOM      8  H   UNL     1       5.319  11.374  -2.448  1.00  0.00     0.165 HD
ENDROOT
BRANCH   1   9
ATOM      9  C   UNL     1      10.219  10.434  -4.786  1.00  0.00     0.040 A 
ATOM     10  C   UNL     1      10.791   9.554  -5.706  1.00  0.00     0.014 A 
ATOM     11  C   UNL     1      12.059   9.830  -6.220  1.00  0.00     0.004 A 
ATOM     12  C   UNL     1      10.929  11.551  -4.335  1.00  0.00     0.014 A 
ATOM     13  C   UNL     1      12.758  10.977  -5.813  1.00  0.00    -0.051 A 
ATOM     14  C   UNL     1      12.192  11.827  -4.855  1.00  0.00     0.004 A 
ATOM     15  C   UNL     1      14.082  11.305  -6.437  1.00  0.00     0.044 C 
ENDBRANCH   1   9
BRANCH   6  16
ATOM     16  C   UNL     1       6.320   9.527  -2.619  1.00  0.00     0.153 C 
BRANCH  16  17
ATOM     17  C   UNL     1       5.148   8.596  -2.761  1.00  0.00    -0.029 A 
ATOM     18  C   UNL     1       4.276   8.300  -1.708  1.00  0.00     0.006 A 
ATOM     19  C   UNL     1       4.807   8.183  -4.059  1.00  0.00     0.006 A 
ATOM     20  C   UNL     1       3.077   7.626  -1.960  1.00  0.00     0.004 A 
ATOM     21  C   UNL     1       3.612   7.517  -4.310  1.00  0.00     0.004 A 
ATOM     22  C   UNL     1       2.731   7.242  -3.263  1.00  0.00    -0.051 A 
ATOM     23  C   UNL     1       1.387   6.648  -3.561  1.00  0.00     0.044 C 
ENDBRANCH  16  17
ENDBRANCH   6  16
TORSDOF 3
ENDMDL
MODEL 2
REMARK VINA RESULT:    -6.077      3.047      5.502
REMARK INTER + INTRA:          -7.624
REMARK INTER:                  -7.141
REMARK INTRA:                  -0.483
REMARK UNBOUND:                -0.482
REMARK SMILES Cc1ccc(CNC(=O)NC(=O)c2ccc(C)cc2)cc1
REMARK SMILES IDX 11 1 12 2 10 3 8 4 9 5 7 6 13 9 19 10 18 11 14 12 16 13
REMARK SMILES IDX 15 14 17 15 6 16 5 17 4 18 20 19 3 20 21 21 2 22 1 23
REMARK H PARENT 10 7 7 8
ROOT
ATOM      1  C   UNL     1       6.044  12.474  -3.417  1.00  0.00     0.259 C 
ATOM      2  O   UNL     1       5.052  11.818  -3.133  1.00  0.00    -0.269 OA
ATOM      3  N   UNL     1       7.331  12.024  -3.728  1.00  0.00    -0.274 N 
ATOM      4  C   UNL     1       7.937  10.841  -4.064  1.00  0.00     0.321 C 
ATOM      5  O   UNL     1       9.123  10.882  -4.408  1.00  0.00    -0.248 OA
ATOM      6  N   UNL     1       7.303   9.654  -4.065  1.00  0.00    -0.334 N 
ATOM      7  H   UNL     1       7.998  12.762  -3.909  1.00  0.00     0.175 HD
ATOM      8  H   UNL     1       7.865   8.893  -4.419  1.00  0.00     0.165 HD
ENDROOT
BRANCH   1   9
ATOM      9  C   UNL     1       5.880  13.940  -3.446  1.00  0.00     0.040 A 
ATOM     10  C   UNL     1       5.148  14.610  -2.465  1.00  0.00     0.014 A 
ATOM     11  C   UNL     1       5.065  16.002  -2.505  1.00  0.00     0.004 A 
ATOM     12  C   UNL     1       6.477  14.646  -4.495  1.00  0.00     0.014 A 
ATOM     13  C   UNL     1       5.703  16.725  -3.524  1.00  0.00    -0.051 A 
ATOM     14  C   UNL     1       6.397  16.037  -4.528  1.00  0.00     0.004 A 
ATOM     15  C   UNL     1       5.676  18.225  -3.506  1.00  0.00     0.044 C 
ENDBRANCH   1   9
BRANCH   6  16
ATOM     16  C   UNL     1       5.915   9.402  -3.801  1.00  0.00     0.153 C 
BRANCH  16  17
ATOM     17  C   UNL     1       5.580   8.211  -2.947  1.00  0.00    -0.029 A 
ATOM     18  C   UNL     1       5.315   6.943  -3.475  1.00  0.00     0.006 A 
ATOM     19  C   UNL     1       5.750   8.346  -1.560  1.00  0.00     0.006 A 
ATOM     20  C   UNL     1       5.249   5.832  -2.628  1.00  0.00     0.004 A 
ATOM     21  C   UNL     1       5.689   7.240  -0.719  1.00  0.00     0.004 A 
ATOM     22  C   UNL     1       5.448   5.970  -1.247  1.00  0.00    -0.051 A 
ATOM     23  C   UNL     1       5.521   4.768  -0.353  1.00  0.00     0.044 C 
ENDBRANCH  16  17
ENDBRANCH   6  16
TORSDOF 3
ENDMDL
MODEL 3
REMARK VINA RESULT:    -6.007      0.523      8.063
REMARK INTER + INTRA:          -7.543
REMARK INTER:                  -7.175
REMARK INTRA:                  -0.368
REMARK UNBOUND:                -0.482
REMARK SMILES Cc1ccc(CNC(=O)NC(=O)c2ccc(C)cc2)cc1
REMARK SMILES IDX 11 1 12 2 10 3 8 4 9 5 7 6 13 9 19 10 18 11 14 12 16 13
REMARK SMILES IDX 15 14 17 15 6 16 5 17 4 18 20 19 3 20 21 21 2 22 1 23
REMARK H PARENT 10 7 7 8
ROOT
ATOM      1  C   UNL     1       6.278   9.293  -3.357  1.00  0.00     0.259 C 
ATOM      2  O   UNL     1       7.290   8.609  -3.286  1.00  0.00    -0.269 OA
ATOM      3  N   UNL     1       6.167  10.681  -3.483  1.00  0.00    -0.274 N 
ATOM      4  C   UNL     1       6.981  11.738  -3.798  1.00  0.00     0.321 C 
ATOM      5  O   UNL     1       6.453  12.846  -3.939  1.00  0.00    -0.248 OA
ATOM      6  N   UNL     1       8.309  11.625  -3.987  1.00  0.00    -0.334 N 
ATOM      7  H   UNL     1       5.215  11.023  -3.500  1.00  0.00     0.175 HD
ATOM      8  H   UNL     1       8.750  12.479  -4.297  1.00  0.00     0.165 HD
ENDROOT
BRANCH   1   9
ATOM      9  C   UNL     1       4.991   8.573  -3.309  1.00  0.00     0.040 A 
ATOM     10  C   UNL     1       4.255   8.475  -2.126  1.00  0.00     0.014 A 
ATOM     11  C   UNL     1       3.018   7.830  -2.142  1.00  0.00     0.004 A 
ATOM     12  C   UNL     1       4.525   7.981  -4.487  1.00  0.00     0.014 A 
ATOM     13  C   UNL     1       2.518   7.278  -3.331  1.00  0.00    -0.051 A 
ATOM     14  C   UNL     1       3.286   7.343  -4.500  1.00  0.00     0.004 A 
ATOM     15  C   UNL     1       1.149   6.663  -3.351  1.00  0.00     0.044 C 
ENDBRANCH   1   9
BRANCH   6  16
ATOM     16  C   UNL     1       9.096  10.424  -3.973  1.00  0.00     0.153 C 
BRANCH  16  17
ATOM     17  C   UNL     1      10.449  10.479  -4.626  1.00  0.00    -0.029 A 
ATOM     18  C   UNL     1      10.846   9.594  -5.634  1.00  0.00     0.006 A 
ATOM     19  C   UNL     1      11.252  11.597  -4.350  1.00  0.00     0.006 A 
ATOM     20  C   UNL     1      12.013   9.843  -6.365  1.00  0.00     0.004 A 
ATOM     21  C   UNL     1      12.409  11.847  -5.081  1.00  0.00     0.004 A 
ATOM     22  C   UNL     1      12.795  10.977  -6.102  1.00  0.00    -0.051 A 
ATOM     23  C   UNL     1      13.965  11.326  -6.972  1.00  0.00     0.044 C 
ENDBRANCH  16  17
ENDBRANCH   6  16
TORSDOF 3
ENDMDL
MODEL 4
REMARK VINA RESULT:    -5.998      3.181      7.325
REMARK INTER + INTRA:          -7.531
REMARK INTER:                  -7.163
REMARK INTRA:                  -0.368
REMARK UNBOUND:                -0.482
REMARK SMILES Cc1ccc(CNC(=O)NC(=O)c2ccc(C)cc2)cc1
REMARK SMILES IDX 11 1 12 2 10 3 8 4 9 5 7 6 13 9 19 10 18 11 14 12 16 13
REMARK SMILES IDX 15 14 17 15 6 16 5 17 4 18 20 19 3 20 21 21 2 22 1 23
REMARK H PARENT 10 7 7 8
ROOT
ATOM      1  C   UNL     1       5.947   9.598  -3.062  1.00  0.00     0.259 C 
ATOM      2  O   UNL     1       4.944  10.293  -3.141  1.00  0.00    -0.269 OA
ATOM      3  N   UNL     1       7.247   9.886  -3.487  1.00  0.00    -0.274 N 
ATOM      4  C   UNL     1       7.962  10.986  -3.886  1.00  0.00     0.321 C 
ATOM      5  O   UNL     1       9.178  10.848  -4.061  1.00  0.00    -0.248 OA
ATOM      6  N   UNL     1       7.417  12.203  -4.066  1.00  0.00    -0.334 N 
ATOM      7  H   UNL     1       7.912   9.140  -3.332  1.00  0.00     0.175 HD
ATOM      8  H   UNL     1       8.092  12.925  -4.276  1.00  0.00     0.165 HD
ENDROOT
BRANCH   1   9
ATOM      9  C   UNL     1       5.785   8.274  -2.431  1.00  0.00     0.040 A 
ATOM     10  C   UNL     1       5.638   7.116  -3.197  1.00  0.00     0.014 A 
ATOM     11  C   UNL     1       5.540   5.880  -2.557  1.00  0.00     0.004 A 
ATOM     12  C   UNL     1       5.774   8.208  -1.035  1.00  0.00     0.014 A 
ATOM     13  C   UNL     1       5.581   5.798  -1.157  1.00  0.00    -0.051 A 
ATOM     14  C   UNL     1       5.683   6.971  -0.399  1.00  0.00     0.004 A 
ATOM     15  C   UNL     1       5.561   4.456  -0.486  1.00  0.00     0.044 C 
ENDBRANCH   1   9
BRANCH   6  16
ATOM     16  C   UNL     1       6.059  12.600  -3.819  1.00  0.00     0.153 C 
BRANCH  16  17
ATOM     17  C   UNL     1       5.787  14.071  -3.667  1.00  0.00    -0.029 A 
ATOM     18  C   UNL     1       5.169  14.620  -2.538  1.00  0.00     0.006 A 
ATOM     19  C   UNL     1       6.371  14.934  -4.608  1.00  0.00     0.006 A 
ATOM     20  C   UNL     1       5.162  16.006  -2.349  1.00  0.00     0.004 A 
ATOM     21  C   UNL     1       6.367  16.312  -4.416  1.00  0.00     0.004 A 
ATOM     22  C   UNL     1       5.771  16.860  -3.279  1.00  0.00    -0.051 A 
ATOM     23  C   UNL     1       5.892  18.330  -3.013  1.00  0.00     0.044 C 
ENDBRANCH  16  17
ENDBRANCH   6  16
TORSDOF 3
ENDMDL
MODEL 5
REMARK VINA RESULT:    -5.753      1.042      1.356
REMARK INTER + INTRA:          -7.244
REMARK INTER:                  -6.784
REMARK INTRA:                  -0.460
REMARK UNBOUND:                -0.482
REMARK SMILES Cc1ccc(CNC(=O)NC(=O)c2ccc(C)cc2)cc1
REMARK SMILES IDX 11 1 12 2 10 3 8 4 9 5 7 6 13 9 19 10 18 11 14 12 16 13
REMARK SMILES IDX 15 14 17 15 6 16 5 17 4 18 20 19 3 20 21 21 2 22 1 23
REMARK H PARENT 10 7 7 8
ROOT
ATOM      1  C   UNL     1       9.016  10.068  -4.168  1.00  0.00     0.259 C 
ATOM      2  O   UNL     1       8.879   8.947  -3.699  1.00  0.00    -0.269 OA
ATOM      3  N   UNL     1       8.089  11.114  -4.220  1.00  0.00    -0.274 N 
ATOM      4  C   UNL     1       6.885  11.431  -3.646  1.00  0.00     0.321 C 
ATOM      5  O   UNL     1       6.428  12.559  -3.859  1.00  0.00    -0.248 OA
ATOM      6  N   UNL     1       6.200  10.594  -2.845  1.00  0.00    -0.334 N 
ATOM      7  H   UNL     1       8.428  11.948  -4.681  1.00  0.00     0.175 HD
ATOM      8  H   UNL     1       5.376  11.009  -2.433  1.00  0.00     0.165 HD
ENDROOT
BRANCH   1   9
ATOM      9  C   UNL     1      10.331  10.380  -4.758  1.00  0.00     0.040 A 
ATOM     10  C   UNL     1      10.903   9.564  -5.735  1.00  0.00     0.014 A 
ATOM     11  C   UNL     1      12.125   9.928  -6.302  1.00  0.00     0.004 A 
ATOM     12  C   UNL     1      11.000  11.522  -4.305  1.00  0.00     0.014 A 
ATOM     13  C   UNL     1      12.779  11.100  -5.892  1.00  0.00    -0.051 A 
ATOM     14  C   UNL     1      12.217  11.886  -4.879  1.00  0.00     0.004 A 
ATOM     15  C   UNL     1      14.049  11.522  -6.570  1.00  0.00     0.044 C 
ENDBRANCH   1   9
BRANCH   6  16
ATOM     16  C   UNL     1       6.599   9.292  -2.390  1.00  0.00     0.153 C 
BRANCH  16  17
ATOM     17  C   UNL     1       5.578   8.192  -2.465  1.00  0.00    -0.029 A 
ATOM     18  C   UNL     1       5.874   6.905  -2.927  1.00  0.00     0.006 A 
ATOM     19  C   UNL     1       4.338   8.422  -1.846  1.00  0.00     0.006 A 
ATOM     20  C   UNL     1       4.953   5.868  -2.747  1.00  0.00     0.004 A 
ATOM     21  C   UNL     1       3.425   7.388  -1.664  1.00  0.00     0.004 A 
ATOM     22  C   UNL     1       3.729   6.099  -2.104  1.00  0.00    -0.051 A 
ATOM     23  C   UNL     1       2.801   4.966  -1.781  1.00  0.00     0.044 C 
ENDBRANCH  16  17
ENDBRANCH   6  16
TORSDOF 3
ENDMDL
MODEL 6
REMARK VINA RESULT:    -4.547      2.487      8.670
REMARK INTER + INTRA:          -5.827
REMARK INTER:                  -5.475
REMARK INTRA:                  -0.351
REMARK UNBOUND:                -0.482
REMARK SMILES Cc1ccc(CNC(=O)NC(=O)c2ccc(C)cc2)cc1
REMARK SMILES IDX 11 1 12 2 10 3 8 4 9 5 7 6 13 9 19 10 18 11 14 12 16 13
REMARK SMILES IDX 15 14 17 15 6 16 5 17 4 18 20 19 3 20 21 21 2 22 1 23
REMARK H PARENT 10 7 7 8
ROOT
ATOM      1  C   UNL     1       8.293  10.731  -4.085  1.00  0.00     0.259 C 
ATOM      2  O   UNL     1       8.259  11.950  -3.994  1.00  0.00    -0.269 OA
ATOM      3  N   UNL     1       9.312   9.919  -4.591  1.00  0.00    -0.274 N 
ATOM      4  C   UNL     1      10.636  10.045  -4.926  1.00  0.00     0.321 C 
ATOM      5  O   UNL     1      11.252   9.017  -5.225  1.00  0.00    -0.248 OA
ATOM      6  N   UNL     1      11.298  11.217  -4.917  1.00  0.00    -0.334 N 
ATOM      7  H   UNL     1       9.101   8.930  -4.582  1.00  0.00     0.175 HD
ATOM      8  H   UNL     1      12.286  11.128  -5.106  1.00  0.00     0.165 HD
ENDROOT
BRANCH   1   9
ATOM      9  C   UNL     1       7.108  10.000  -3.596  1.00  0.00     0.040 A 
ATOM     10  C   UNL     1       6.037   9.700  -4.440  1.00  0.00     0.014 A 
ATOM     11  C   UNL     1       4.963   8.961  -3.945  1.00  0.00     0.004 A 
ATOM     12  C   UNL     1       7.082   9.617  -2.251  1.00  0.00     0.014 A 
ATOM     13  C   UNL     1       4.951   8.527  -2.611  1.00  0.00    -0.051 A 
ATOM     14  C   UNL     1       6.010   8.873  -1.763  1.00  0.00     0.004 A 
ATOM     15  C   UNL     1       3.829   7.661  -2.118  1.00  0.00     0.044 C 
ENDBRANCH   1   9
BRANCH   6  16
ATOM     16  C   UNL     1      10.801  12.500  -4.506  1.00  0.00     0.153 C 
BRANCH  16  17
ATOM     17  C   UNL     1      11.816  13.565  -4.196  1.00  0.00    -0.029 A 
ATOM     18  C   UNL     1      13.037  13.297  -3.568  1.00  0.00     0.006 A 
ATOM     19  C   UNL     1      11.605  14.836  -4.754  1.00  0.00     0.006 A 
ATOM     20  C   UNL     1      14.033  14.279  -3.525  1.00  0.00     0.004 A 
ATOM     21  C   UNL     1      12.598  15.810  -4.716  1.00  0.00     0.004 A 
ATOM     22  C   UNL     1      13.825  15.536  -4.109  1.00  0.00    -0.051 A 
ATOM     23  C   UNL     1      14.935  16.541  -4.193  1.00  0.00     0.044 C 
ENDBRANCH  16  17
ENDBRANCH   6  16
TORSDOF 3
ENDMDL
MODEL 7
REMARK VINA RESULT:    -4.328      2.025      2.568
REMARK INTER + INTRA:          -5.568
REMARK INTER:                  -5.157
REMARK INTRA:                  -0.411
REMARK UNBOUND:                -0.482
REMARK SMILES Cc1ccc(CNC(=O)NC(=O)c2ccc(C)cc2)cc1
REMARK SMILES IDX 11 1 12 2 10 3 8 4 9 5 7 6 13 9 19 10 18 11 14 12 16 13
REMARK SMILES IDX 15 14 17 15 6 16 5 17 4 18 20 19 3 20 21 21 2 22 1 23
REMARK H PARENT 10 7 7 8
ROOT
ATOM      1  C   UNL     1       8.096   9.887  -4.090  1.00  0.00     0.259 C 
ATOM      2  O   UNL     1       7.945   9.634  -2.903  1.00  0.00    -0.269 OA
ATOM      3  N   UNL     1       7.147   9.871  -5.117  1.00  0.00    -0.274 N 
ATOM      4  C   UNL     1       5.781   9.829  -5.233  1.00  0.00     0.321 C 
ATOM      5  O   UNL     1       5.297   9.972  -6.361  1.00  0.00    -0.248 OA
ATOM      6  N   UNL     1       4.949   9.673  -4.186  1.00  0.00    -0.334 N 
ATOM      7  H   UNL     1       7.517  10.098  -6.030  1.00  0.00     0.175 HD
ATOM      8  H   UNL     1       3.972   9.750  -4.429  1.00  0.00     0.165 HD
ENDROOT
BRANCH   1   9
ATOM      9  C   UNL     1       9.457  10.269  -4.516  1.00  0.00     0.040 A 
ATOM     10  C   UNL     1      10.222   9.439  -5.337  1.00  0.00     0.014 A 
ATOM     11  C   UNL     1      11.482   9.866  -5.756  1.00  0.00     0.004 A 
ATOM     12  C   UNL     1       9.967  11.490  -4.066  1.00  0.00     0.014 A 
ATOM     13  C   UNL     1      11.983  11.113  -5.353  1.00  0.00    -0.051 A 
ATOM     14  C   UNL     1      11.224  11.916  -4.493  1.00  0.00     0.004 A 
ATOM     15  C   UNL     1      13.302  11.594  -5.880  1.00  0.00     0.044 C 
ENDBRANCH   1   9
BRANCH   6  16
ATOM     16  C   UNL     1       5.297   9.595  -2.796  1.00  0.00     0.153 C 
BRANCH  16  17
ATOM     17  C   UNL     1       5.197   8.249  -2.134  1.00  0.00    -0.029 A 
ATOM     18  C   UNL     1       4.876   7.078  -2.830  1.00  0.00     0.006 A 
ATOM     19  C   UNL     1       5.653   8.147  -0.810  1.00  0.00     0.006 A 
ATOM     20  C   UNL     1       5.035   5.832  -2.214  1.00  0.00     0.004 A 
ATOM     21  C   UNL     1       5.814   6.907  -0.200  1.00  0.00     0.004 A 
ATOM     22  C   UNL     1       5.516   5.738  -0.901  1.00  0.00    -0.051 A 
ATOM     23  C   UNL     1       5.823   4.405  -0.285  1.00  0.00     0.044 C 
ENDBRANCH  16  17
ENDBRANCH   6  16
TORSDOF 3
ENDMDL
MODEL 8
REMARK VINA RESULT:    -4.129      2.305      8.357
REMARK INTER + INTRA:          -5.335
REMARK INTER:                  -4.893
REMARK INTRA:                  -0.442
REMARK UNBOUND:                -0.482
REMARK SMILES Cc1ccc(CNC(=O)NC(=O)c2ccc(C)cc2)cc1
REMARK SMILES IDX 11 1 12 2 10 3 8 4 9 5 7 6 13 9 19 10 18 11 14 12 16 13
REMARK SMILES IDX 15 14 17 15 6 16 5 17 4 18 20 19 3 20 21 21 2 22 1 23
REMARK H PARENT 10 7 7 8
ROOT
ATOM      1  C   UNL     1       9.455  10.271  -4.232  1.00  0.00     0.259 C 
ATOM      2  O   UNL     1      10.074   9.311  -4.668  1.00  0.00    -0.269 OA
ATOM      3  N   UNL     1       9.881  11.594  -4.085  1.00  0.00    -0.274 N 
ATOM      4  C   UNL     1      10.918  12.379  -4.521  1.00  0.00     0.321 C 
ATOM      5  O   UNL     1      10.867  13.588  -4.270  1.00  0.00    -0.248 OA
ATOM      6  N   UNL     1      11.962  11.908  -5.227  1.00  0.00    -0.334 N 
ATOM      7  H   UNL     1       9.192  12.212  -3.677  1.00  0.00     0.175 HD
ATOM      8  H   UNL     1      12.596  12.627  -5.545  1.00  0.00     0.165 HD
ENDROOT
BRANCH   1   9
ATOM      9  C   UNL     1       8.066  10.020  -3.801  1.00  0.00     0.040 A 
ATOM     10  C   UNL     1       7.071  10.987  -3.953  1.00  0.00     0.014 A 
ATOM     11  C   UNL     1       5.761  10.685  -3.580  1.00  0.00     0.004 A 
ATOM     12  C   UNL     1       7.770   8.781  -3.225  1.00  0.00     0.014 A 
ATOM     13  C   UNL     1       5.444   9.426  -3.048  1.00  0.00    -0.051 A 
ATOM     14  C   UNL     1       6.459   8.481  -2.859  1.00  0.00     0.004 A 
ATOM     15  C   UNL     1       4.017   9.087  -2.731  1.00  0.00     0.044 C 
ENDBRANCH   1   9
BRANCH   6  16
ATOM     16  C   UNL     1      12.162  10.570  -5.708  1.00  0.00     0.153 C 
BRANCH  16  17
ATOM     17  C   UNL     1      12.698  10.412  -7.104  1.00  0.00    -0.029 A 
ATOM     18  C   UNL     1      11.947  10.700  -8.248  1.00  0.00     0.006 A 
ATOM     19  C   UNL     1      14.075  10.167  -7.240  1.00  0.00     0.006 A 
ATOM     20  C   UNL     1      12.572  10.765  -9.498  1.00  0.00     0.004 A 
ATOM     21  C   UNL     1      14.695  10.237  -8.483  1.00  0.00     0.004 A 
ATOM     22  C   UNL     1      13.951  10.547  -9.622  1.00  0.00    -0.051 A 
ATOM     23  C   UNL     1      14.650  10.755 -10.932  1.00  0.00     0.044 C 
ENDBRANCH  16  17
ENDBRANCH   6  16
TORSDOF 3
ENDMDL
MODEL 9
REMARK VINA RESULT:    -3.981      2.574      4.146
REMARK INTER + INTRA:          -5.161
REMARK INTER:                  -4.726
REMARK INTRA:                  -0.435
REMARK UNBOUND:                -0.482
REMARK SMILES Cc1ccc(CNC(=O)NC(=O)c2ccc(C)cc2)cc1
REMARK SMILES IDX 11 1 12 2 10 3 8 4 9 5 7 6 13 9 19 10 18 11 14 12 16 13
REMARK SMILES IDX 15 14 17 15 6 16 5 17 4 18 20 19 3 20 21 21 2 22 1 23
REMARK H PARENT 10 7 7 8
ROOT
ATOM      1  C   UNL     1      10.863  12.502  -4.270  1.00  0.00     0.259 C 
ATOM      2  O   UNL     1       9.741  12.851  -3.928  1.00  0.00    -0.269 OA
ATOM      3  N   UNL     1      11.313  11.227  -4.624  1.00  0.00    -0.274 N 
ATOM      4  C   UNL     1      10.764  10.015  -4.959  1.00  0.00     0.321 C 
ATOM      5  O   UNL     1      11.529   9.129  -5.354  1.00  0.00    -0.248 OA
ATOM      6  N   UNL     1       9.444   9.756  -4.907  1.00  0.00    -0.334 N 
ATOM      7  H   UNL     1      12.297  11.180  -4.851  1.00  0.00     0.175 HD
ATOM      8  H   UNL     1       9.194   8.846  -5.267  1.00  0.00     0.165 HD
ENDROOT
BRANCH   1   9
ATOM      9  C   UNL     1      11.894  13.556  -4.325  1.00  0.00     0.040 A 
ATOM     10  C   UNL     1      11.692  14.734  -5.047  1.00  0.00     0.014 A 
ATOM     11  C   UNL     1      12.674  15.725  -5.027  1.00  0.00     0.004 A 
ATOM     12  C   UNL     1      13.091  13.341  -3.636  1.00  0.00     0.014 A 
ATOM     13  C   UNL     1      13.858  15.540  -4.296  1.00  0.00    -0.051 A 
ATOM     14  C   UNL     1      14.067  14.336  -3.614  1.00  0.00     0.004 A 
ATOM     15  C   UNL     1      14.866  16.648  -4.216  1.00  0.00     0.044 C 
ENDBRANCH   1   9
BRANCH   6  16
ATOM     16  C   UNL     1       8.385  10.668  -4.578  1.00  0.00     0.153 C 
BRANCH  16  17
ATOM     17  C   UNL     1       7.211  10.116  -3.817  1.00  0.00    -0.029 A 
ATOM     18  C   UNL     1       6.048   9.653  -4.440  1.00  0.00     0.006 A 
ATOM     19  C   UNL     1       7.392   9.869  -2.447  1.00  0.00     0.006 A 
ATOM     20  C   UNL     1       5.098   8.935  -3.704  1.00  0.00     0.004 A 
ATOM     21  C   UNL     1       6.450   9.151  -1.717  1.00  0.00     0.004 A 
ATOM     22  C   UNL     1       5.299   8.668  -2.342  1.00  0.00    -0.051 A 
ATOM     23  C   UNL     1       4.359   7.780  -1.583  1.00  0.00     0.044 C 
ENDBRANCH  16  17
ENDBRANCH   6  16
TORSDOF 3
ENDMDL
