MODEL 1
REMARK VINA RESULT:    -6.177      0.000      0.000
REMARK INTER + INTRA:          -7.651
REMARK INTER:                  -7.260
REMARK INTRA:                  -0.391
REMARK UNBOUND:                -0.391
REMARK SMILES Cc1ccc(CNC(=O)NC(=O)c2ccc(C)cc2)cc1
REMARK SMILES IDX 11 1 12 2 10 3 8 4 9 5 7 6 13 9 19 10 18 11 14 12 16 13
REMARK SMILES IDX 15 14 17 15 6 16 5 17 4 18 20 19 3 20 21 21 2 22 1 23
REMARK H PARENT 10 7 7 8
ROOT
ATOM      1  C   UNL     1       9.904   2.697   2.651  1.00  0.00     0.259 C 
ATOM      2  O   UNL     1      10.147   1.522   2.415  1.00  0.00    -0.269 OA
ATOM      3  N   UNL     1      10.681   3.629   3.345  1.00  0.00    -0.274 N 
ATOM      4  C   UNL     1      11.973   3.740   3.791  1.00  0.00     0.321 C 
ATOM      5  O   UNL     1      12.325   4.825   4.266  1.00  0.00    -0.248 OA
ATOM      6  N   UNL     1      12.877   2.745   3.709  1.00  0.00    -0.334 N 
ATOM      7  H   UNL     1      10.257   4.543   3.432  1.00  0.00     0.175 HD
ATOM      8  H   UNL     1      13.805   3.014   4.001  1.00  0.00     0.165 HD
ENDROOT
BRANCH   1   9
ATOM      9  C   UNL     1       8.624   3.222   2.138  1.00  0.00     0.040 A 
ATOM     10  C   UNL     1       7.496   3.318   2.956  1.00  0.00     0.014 A 
ATOM     11  C   UNL     1       6.323   3.871   2.441  1.00  0.00     0.004 A 
ATOM     12  C   UNL     1       8.566   3.619   0.798  1.00  0.00     0.014 A 
ATOM     13  C   UNL     1       6.271   4.320   1.113  1.00  0.00    -0.051 A 
ATOM     14  C   UNL     1       7.395   4.176   0.290  1.00  0.00     0.004 A 
ATOM     15  C   UNL     1       5.029   4.989   0.599  1.00  0.00     0.044 C 
ENDBRANCH   1   9
BRANCH   6  16
ATOM     16  C   UNL     1      12.706   1.455   3.103  1.00  0.00     0.153 C 
BRANCH  16  17
ATOM     17  C   UNL     1      13.937   0.772   2.576  1.00  0.00    -0.029 A 
ATOM     18  C   UNL     1      14.072   0.361   1.245  1.00  0.00     0.006 A 
ATOM     19  C   UNL     1      15.065   0.744   3.412  1.00  0.00     0.006 A 
ATOM     20  C   UNL     1      15.320  -0.045   0.761  1.00  0.00     0.004 A 
ATOM     21  C   UNL     1      16.307   0.344   2.928  1.00  0.00     0.004 A 
ATOM     22  C   UNL     1      16.447  -0.044   1.595  1.00  0.00    -0.051 A 
ATOM     23  C   UNL     1      17.812  -0.340   1.048  1.00  0.00     0.044 C 
ENDBRANCH  16  17
ENDBRANCH   6  16
TORSDOF 3
ENDMDL
MODEL 2
REMARK VINA RESULT:    -6.163      0.561      7.991
REMARK INTER + INTRA:          -7.635
REMARK INTER:                  -7.148
REMARK INTRA:                  -0.487
REMARK UNBOUND:                -0.391
REMARK SMILES Cc1ccc(CNC(=O)NC(=O)c2ccc(C)cc2)cc1
REMARK SMILES IDX 11 1 12 2 10 3 8 4 9 5 7 6 13 9 19 10 18 11 14 12 16 13
REMARK SMILES IDX 15 14 17 15 6 16 5 17 4 18 20 19 3 20 21 21 2 22 1 23
REMARK H PARENT 10 7 7 8
ROOT
ATOM      1  C   UNL     1      12.594   1.632   2.577  1.00  0.00     0.259 C 
ATOM      2  O   UNL     1      11.606   1.092   2.099  1.00  0.00    -0.269 OA
ATOM      3  N   UNL     1      12.673   2.818   3.314  1.00  0.00    -0.274 N 
ATOM      4  C   UNL     1      11.815   3.664   3.967  1.00  0.00     0.321 C 
ATOM      5  O   UNL     1      12.309   4.575   4.641  1.00  0.00    -0.248 OA
ATOM      6  N   UNL     1      10.475   3.536   3.935  1.00  0.00    -0.334 N 
ATOM      7  H   UNL     1      13.612   3.077   3.587  1.00  0.00     0.175 HD
ATOM      8  H   UNL     1       9.990   4.186   4.537  1.00  0.00     0.165 HD
ENDROOT
BRANCH   1   9
ATOM      9  C   UNL     1      13.886   0.952   2.364  1.00  0.00     0.040 A 
ATOM     10  C   UNL     1      14.180   0.307   1.161  1.00  0.00     0.014 A 
ATOM     11  C   UNL     1      15.435  -0.277   0.987  1.00  0.00     0.004 A 
ATOM     12  C   UNL     1      14.815   0.964   3.410  1.00  0.00     0.014 A 
ATOM     13  C   UNL     1      16.393  -0.225   2.011  1.00  0.00    -0.051 A 
ATOM     14  C   UNL     1      16.070   0.385   3.229  1.00  0.00     0.004 A 
ATOM     15  C   UNL     1      17.766  -0.783   1.777  1.00  0.00     0.044 C 
ENDBRANCH   1   9
BRANCH   6  16
ATOM     16  C   UNL     1       9.710   2.498   3.305  1.00  0.00     0.153 C 
BRANCH  16  17
ATOM     17  C   UNL     1       8.475   2.911   2.553  1.00  0.00    -0.029 A 
ATOM     18  C   UNL     1       7.223   3.052   3.160  1.00  0.00     0.006 A 
ATOM     19  C   UNL     1       8.647   3.373   1.238  1.00  0.00     0.006 A 
ATOM     20  C   UNL     1       6.174   3.666   2.468  1.00  0.00     0.004 A 
ATOM     21  C   UNL     1       7.604   3.989   0.552  1.00  0.00     0.004 A 
ATOM     22  C   UNL     1       6.361   4.150   1.166  1.00  0.00    -0.051 A 
ATOM     23  C   UNL     1       5.288   4.935   0.472  1.00  0.00     0.044 C 
ENDBRANCH  16  17
ENDBRANCH   6  16
TORSDOF 3
ENDMDL
MODEL 3
REMARK VINA RESULT:    -6.147      3.112      7.299
REMARK INTER + INTRA:          -7.616
REMARK INTER:                  -7.127
REMARK INTRA:                  -0.489
REMARK UNBOUND:                -0.391
REMARK SMILES Cc1ccc(CNC(=O)NC(=O)c2ccc(C)cc2)cc1
REMARK SMILES IDX 11 1 12 2 10 3 8 4 9 5 7 6 13 9 19 10 18 11 14 12 16 13
REMARK SMILES IDX 15 14 17 15 6 16 5 17 4 18 20 19 3 20 21 21 2 22 1 23
REMARK H PARENT 10 7 7 8
ROOT
ATOM      1  C   UNL     1      11.651   4.538   4.403  1.00  0.00     0.259 C 
ATOM      2  O   UNL     1      10.475   4.807   4.203  1.00  0.00    -0.269 OA
ATOM      3  N   UNL     1      12.396   3.456   3.924  1.00  0.00    -0.274 N 
ATOM      4  C   UNL     1      12.271   2.487   2.961  1.00  0.00     0.321 C 
ATOM      5  O   UNL     1      13.248   1.761   2.748  1.00  0.00    -0.248 OA
ATOM      6  N   UNL     1      11.159   2.309   2.224  1.00  0.00    -0.334 N 
ATOM      7  H   UNL     1      13.355   3.434   4.246  1.00  0.00     0.175 HD
ATOM      8  H   UNL     1      11.258   1.612   1.500  1.00  0.00     0.165 HD
ENDROOT
BRANCH   1   9
ATOM      9  C   UNL     1      12.406   5.473   5.259  1.00  0.00     0.040 A 
ATOM     10  C   UNL     1      11.816   6.084   6.368  1.00  0.00     0.014 A 
ATOM     11  C   UNL     1      12.585   6.920   7.178  1.00  0.00     0.004 A 
ATOM     12  C   UNL     1      13.738   5.741   4.926  1.00  0.00     0.014 A 
ATOM     13  C   UNL     1      13.936   7.154   6.881  1.00  0.00    -0.051 A 
ATOM     14  C   UNL     1      14.503   6.571   5.741  1.00  0.00     0.004 A 
ATOM     15  C   UNL     1      14.771   7.987   7.809  1.00  0.00     0.044 C 
ENDBRANCH   1   9
BRANCH   6  16
ATOM     16  C   UNL     1       9.962   3.101   2.240  1.00  0.00     0.153 C 
BRANCH  16  17
ATOM     17  C   UNL     1       8.650   2.369   2.201  1.00  0.00    -0.029 A 
ATOM     18  C   UNL     1       8.015   2.002   1.010  1.00  0.00     0.006 A 
ATOM     19  C   UNL     1       8.163   1.857   3.414  1.00  0.00     0.006 A 
ATOM     20  C   UNL     1       6.930   1.119   1.037  1.00  0.00     0.004 A 
ATOM     21  C   UNL     1       7.087   0.975   3.440  1.00  0.00     0.004 A 
ATOM     22  C   UNL     1       6.467   0.591   2.250  1.00  0.00    -0.051 A 
ATOM     23  C   UNL     1       5.400  -0.463   2.276  1.00  0.00     0.044 C 
ENDBRANCH  16  17
ENDBRANCH   6  16
TORSDOF 3
ENDMDL
MODEL 4
REMARK VINA RESULT:    -6.142      3.205      5.489
REMARK INTER + INTRA:          -7.611
REMARK INTER:                  -7.224
REMARK INTRA:                  -0.387
REMARK UNBOUND:                -0.391
REMARK SMILES Cc1ccc(CNC(=O)NC(=O)c2ccc(C)cc2)cc1
REMARK SMILES IDX 11 1 12 2 10 3 8 4 9 5 7 6 13 9 19 10 18 11 14 12 16 13
REMARK SMILES IDX 15 14 17 15 6 16 5 17 4 18 20 19 3 20 21 21 2 22 1 23
REMARK H PARENT 10 7 7 8
ROOT
ATOM      1  C   UNL     1       9.819   2.895   2.921  1.00  0.00     0.259 C 
ATOM      2  O   UNL     1       9.615   4.075   3.172  1.00  0.00    -0.269 OA
ATOM      3  N   UNL     1      11.038   2.213   2.850  1.00  0.00    -0.274 N 
ATOM      4  C   UNL     1      12.342   2.428   3.217  1.00  0.00     0.321 C 
ATOM      5  O   UNL     1      13.133   1.486   3.097  1.00  0.00    -0.248 OA
ATOM      6  N   UNL     1      12.790   3.590   3.725  1.00  0.00    -0.334 N 
ATOM      7  H   UNL     1      10.955   1.236   2.602  1.00  0.00     0.175 HD
ATOM      8  H   UNL     1      13.754   3.558   4.025  1.00  0.00     0.165 HD
ENDROOT
BRANCH   1   9
ATOM      9  C   UNL     1       8.631   2.061   2.660  1.00  0.00     0.040 A 
ATOM     10  C   UNL     1       8.225   1.759   1.358  1.00  0.00     0.014 A 
ATOM     11  C   UNL     1       7.126   0.922   1.161  1.00  0.00     0.004 A 
ATOM     12  C   UNL     1       7.910   1.582   3.758  1.00  0.00     0.014 A 
ATOM     13  C   UNL     1       6.427   0.394   2.257  1.00  0.00    -0.051 A 
ATOM     14  C   UNL     1       6.816   0.742   3.557  1.00  0.00     0.004 A 
ATOM     15  C   UNL     1       5.301  -0.570   2.030  1.00  0.00     0.044 C 
ENDBRANCH   1   9
BRANCH   6  16
ATOM     16  C   UNL     1      12.024   4.763   4.040  1.00  0.00     0.153 C 
BRANCH  16  17
ATOM     17  C   UNL     1      12.570   5.681   5.098  1.00  0.00    -0.029 A 
ATOM     18  C   UNL     1      11.838   6.068   6.225  1.00  0.00     0.006 A 
ATOM     19  C   UNL     1      13.941   5.981   5.044  1.00  0.00     0.006 A 
ATOM     20  C   UNL     1      12.477   6.721   7.285  1.00  0.00     0.004 A 
ATOM     21  C   UNL     1      14.576   6.626   6.100  1.00  0.00     0.004 A 
ATOM     22  C   UNL     1      13.851   6.993   7.235  1.00  0.00    -0.051 A 
ATOM     23  C   UNL     1      14.568   7.562   8.422  1.00  0.00     0.044 C 
ENDBRANCH  16  17
ENDBRANCH   6  16
TORSDOF 3
ENDMDL
MODEL 5
REMARK VINA RESULT:    -5.749      3.003      7.564
REMARK INTER + INTRA:          -7.148
REMARK INTER:                  -6.660
REMARK INTRA:                  -0.488
REMARK UNBOUND:                -0.391
REMARK SMILES Cc1ccc(CNC(=O)NC(=O)c2ccc(C)cc2)cc1
REMARK SMILES IDX 11 1 12 2 10 3 8 4 9 5 7 6 13 9 19 10 18 11 14 12 16 13
REMARK SMILES IDX 15 14 17 15 6 16 5 17 4 18 20 19 3 20 21 21 2 22 1 23
REMARK H PARENT 10 7 7 8
ROOT
ATOM      1  C   UNL     1      11.988   4.873   4.347  1.00  0.00     0.259 C 
ATOM      2  O   UNL     1      10.997   5.398   3.858  1.00  0.00    -0.269 OA
ATOM      3  N   UNL     1      12.513   3.600   4.105  1.00  0.00    -0.274 N 
ATOM      4  C   UNL     1      12.360   2.600   3.179  1.00  0.00     0.321 C 
ATOM      5  O   UNL     1      13.138   1.641   3.238  1.00  0.00    -0.248 OA
ATOM      6  N   UNL     1      11.435   2.625   2.202  1.00  0.00    -0.334 N 
ATOM      7  H   UNL     1      13.336   3.378   4.650  1.00  0.00     0.175 HD
ATOM      8  H   UNL     1      11.509   1.856   1.552  1.00  0.00     0.165 HD
ENDROOT
BRANCH   1   9
ATOM      9  C   UNL     1      12.747   5.678   5.323  1.00  0.00     0.040 A 
ATOM     10  C   UNL     1      14.113   5.920   5.161  1.00  0.00     0.014 A 
ATOM     11  C   UNL     1      14.777   6.730   6.082  1.00  0.00     0.004 A 
ATOM     12  C   UNL     1      12.061   6.190   6.428  1.00  0.00     0.014 A 
ATOM     13  C   UNL     1      14.086   7.292   7.166  1.00  0.00    -0.051 A 
ATOM     14  C   UNL     1      12.727   7.004   7.342  1.00  0.00     0.004 A 
ATOM     15  C   UNL     1      14.795   8.229   8.099  1.00  0.00     0.044 C 
ENDBRANCH   1   9
BRANCH   6  16
ATOM     16  C   UNL     1      10.513   3.682   1.896  1.00  0.00     0.153 C 
BRANCH  16  17
ATOM     17  C   UNL     1       9.054   3.324   1.823  1.00  0.00    -0.029 A 
ATOM     18  C   UNL     1       8.254   3.606   0.710  1.00  0.00     0.006 A 
ATOM     19  C   UNL     1       8.545   2.490   2.831  1.00  0.00     0.006 A 
ATOM     20  C   UNL     1       6.980   3.039   0.603  1.00  0.00     0.004 A 
ATOM     21  C   UNL     1       7.279   1.923   2.720  1.00  0.00     0.004 A 
ATOM     22  C   UNL     1       6.489   2.185   1.600  1.00  0.00    -0.051 A 
ATOM     23  C   UNL     1       5.186   1.463   1.425  1.00  0.00     0.044 C 
ENDBRANCH  16  17
ENDBRANCH   6  16
TORSDOF 3
ENDMDL
MODEL 6
REMARK VINA RESULT:    -5.738      1.592      7.728
REMARK INTER + INTRA:          -7.135
REMARK INTER:                  -6.630
REMARK INTRA:                  -0.505
REMARK UNBOUND:                -0.391
REMARK SMILES Cc1ccc(CNC(=O)NC(=O)c2ccc(C)cc2)cc1
REMARK SMILES IDX 11 1 12 2 10 3 8 4 9 5 7 6 13 9 19 10 18 11 14 12 16 13
REMARK SMILES IDX 15 14 17 15 6 16 5 17 4 18 20 19 3 20 21 21 2 22 1 23
REMARK H PARENT 10 7 7 8
ROOT
ATOM      1  C   UNL     1      12.932   1.352   2.948  1.00  0.00     0.259 C 
ATOM      2  O   UNL     1      12.002   0.558   2.941  1.00  0.00    -0.269 OA
ATOM      3  N   UNL     1      12.921   2.711   3.278  1.00  0.00    -0.274 N 
ATOM      4  C   UNL     1      12.075   3.596   3.895  1.00  0.00     0.321 C 
ATOM      5  O   UNL     1      12.502   4.733   4.123  1.00  0.00    -0.248 OA
ATOM      6  N   UNL     1      10.827   3.283   4.288  1.00  0.00    -0.334 N 
ATOM      7  H   UNL     1      13.818   3.169   3.187  1.00  0.00     0.175 HD
ATOM      8  H   UNL     1      10.366   4.019   4.804  1.00  0.00     0.165 HD
ENDROOT
BRANCH   1   9
ATOM      9  C   UNL     1      14.255   0.823   2.564  1.00  0.00     0.040 A 
ATOM     10  C   UNL     1      15.342   0.874   3.439  1.00  0.00     0.014 A 
ATOM     11  C   UNL     1      16.559   0.313   3.051  1.00  0.00     0.004 A 
ATOM     12  C   UNL     1      14.396   0.271   1.287  1.00  0.00     0.014 A 
ATOM     13  C   UNL     1      16.696  -0.290   1.792  1.00  0.00    -0.051 A 
ATOM     14  C   UNL     1      15.612  -0.294   0.906  1.00  0.00     0.004 A 
ATOM     15  C   UNL     1      17.986  -0.963   1.423  1.00  0.00     0.044 C 
ENDBRANCH   1   9
BRANCH   6  16
ATOM     16  C   UNL     1      10.180   2.003   4.213  1.00  0.00     0.153 C 
BRANCH  16  17
ATOM     17  C   UNL     1       8.881   1.929   3.460  1.00  0.00    -0.029 A 
ATOM     18  C   UNL     1       8.760   2.279   2.111  1.00  0.00     0.006 A 
ATOM     19  C   UNL     1       7.807   1.283   4.092  1.00  0.00     0.006 A 
ATOM     20  C   UNL     1       7.593   1.962   1.408  1.00  0.00     0.004 A 
ATOM     21  C   UNL     1       6.648   0.965   3.390  1.00  0.00     0.004 A 
ATOM     22  C   UNL     1       6.536   1.293   2.038  1.00  0.00    -0.051 A 
ATOM     23  C   UNL     1       5.344   0.824   1.258  1.00  0.00     0.044 C 
ENDBRANCH  16  17
ENDBRANCH   6  16
TORSDOF 3
ENDMDL
MODEL 7
REMARK VINA RESULT:    -5.496      3.169      5.035
REMARK INTER + INTRA:          -6.851
REMARK INTER:                  -6.328
REMARK INTRA:                  -0.523
REMARK UNBOUND:                -0.391
REMARK SMILES Cc1ccc(CNC(=O)NC(=O)c2ccc(C)cc2)cc1
REMARK SMILES IDX 11 1 12 2 10 3 8 4 9 5 7 6 13 9 19 10 18 11 14 12 16 13
REMARK SMILES IDX 15 14 17 15 6 16 5 17 4 18 20 19 3 20 21 21 2 22 1 23
REMARK H PARENT 10 7 7 8
ROOT
ATOM      1  C   UNL     1       9.541   3.175   2.436  1.00  0.00     0.259 C 
ATOM      2  O   UNL     1       9.872   4.338   2.251  1.00  0.00    -0.269 OA
ATOM      3  N   UNL     1      10.314   2.109   2.908  1.00  0.00    -0.274 N 
ATOM      4  C   UNL     1      11.524   1.932   3.530  1.00  0.00     0.321 C 
ATOM      5  O   UNL     1      11.807   0.795   3.920  1.00  0.00    -0.248 OA
ATOM      6  N   UNL     1      12.396   2.932   3.760  1.00  0.00    -0.334 N 
ATOM      7  H   UNL     1       9.823   1.227   2.957  1.00  0.00     0.175 HD
ATOM      8  H   UNL     1      13.200   2.653   4.303  1.00  0.00     0.165 HD
ENDROOT
BRANCH   1   9
ATOM      9  C   UNL     1       8.139   2.831   2.132  1.00  0.00     0.040 A 
ATOM     10  C   UNL     1       7.079   3.605   2.607  1.00  0.00     0.014 A 
ATOM     11  C   UNL     1       5.773   3.270   2.248  1.00  0.00     0.004 A 
ATOM     12  C   UNL     1       7.896   1.694   1.354  1.00  0.00     0.014 A 
ATOM     13  C   UNL     1       5.522   2.162   1.425  1.00  0.00    -0.051 A 
ATOM     14  C   UNL     1       6.590   1.367   0.993  1.00  0.00     0.004 A 
ATOM     15  C   UNL     1       4.120   1.865   0.980  1.00  0.00     0.044 C 
ENDBRANCH   1   9
BRANCH   6  16
ATOM     16  C   UNL     1      12.219   4.329   3.484  1.00  0.00     0.153 C 
BRANCH  16  17
ATOM     17  C   UNL     1      12.449   5.291   4.616  1.00  0.00    -0.029 A 
ATOM     18  C   UNL     1      11.491   5.556   5.600  1.00  0.00     0.006 A 
ATOM     19  C   UNL     1      13.757   5.772   4.796  1.00  0.00     0.006 A 
ATOM     20  C   UNL     1      11.848   6.267   6.751  1.00  0.00     0.004 A 
ATOM     21  C   UNL     1      14.111   6.475   5.943  1.00  0.00     0.004 A 
ATOM     22  C   UNL     1      13.161   6.720   6.936  1.00  0.00    -0.051 A 
ATOM     23  C   UNL     1      13.584   7.356   8.226  1.00  0.00     0.044 C 
ENDBRANCH  16  17
ENDBRANCH   6  16
TORSDOF 3
ENDMDL
MODEL 8
REMARK VINA RESULT:    -5.249      7.601      9.994
REMARK INTER + INTRA:          -6.561
REMARK INTER:                  -6.151
REMARK INTRA:                  -0.410
REMARK UNBOUND:                -0.391
REMARK SMILES Cc1ccc(CNC(=O)NC(=O)c2ccc(C)cc2)cc1
REMARK SMILES IDX 11 1 12 2 10 3 8 4 9 5 7 6 13 9 19 10 18 11 14 12 16 13
REMARK SMILES IDX 15 14 17 15 6 16 5 17 4 18 20 19 3 20 21 21 2 22 1 23
REMARK H PARENT 10 7 7 8
ROOT
ATOM      1  C   UNL     1      13.924   7.472   7.753  1.00  0.00     0.259 C 
ATOM      2  O   UNL     1      13.875   8.686   7.612  1.00  0.00    -0.269 OA
ATOM      3  N   UNL     1      14.508   6.734   8.787  1.00  0.00    -0.274 N 
ATOM      4  C   UNL     1      14.990   6.965  10.050  1.00  0.00     0.321 C 
ATOM      5  O   UNL     1      15.316   5.984  10.727  1.00  0.00    -0.248 OA
ATOM      6  N   UNL     1      15.096   8.192  10.593  1.00  0.00    -0.334 N 
ATOM      7  H   UNL     1      14.440   5.731   8.673  1.00  0.00     0.175 HD
ATOM      8  H   UNL     1      15.387   8.185  11.560  1.00  0.00     0.165 HD
ENDROOT
BRANCH   1   9
ATOM      9  C   UNL     1      13.282   6.659   6.702  1.00  0.00     0.040 A 
ATOM     10  C   UNL     1      11.921   6.352   6.749  1.00  0.00     0.014 A 
ATOM     11  C   UNL     1      11.348   5.624   5.706  1.00  0.00     0.004 A 
ATOM     12  C   UNL     1      14.080   6.194   5.652  1.00  0.00     0.014 A 
ATOM     13  C   UNL     1      12.130   5.197   4.621  1.00  0.00    -0.051 A 
ATOM     14  C   UNL     1      13.502   5.474   4.609  1.00  0.00     0.004 A 
ATOM     15  C   UNL     1      11.482   4.490   3.467  1.00  0.00     0.044 C 
ENDBRANCH   1   9
BRANCH   6  16
ATOM     16  C   UNL     1      14.680   9.442  10.022  1.00  0.00     0.153 C 
BRANCH  16  17
ATOM     17  C   UNL     1      15.758  10.374   9.542  1.00  0.00    -0.029 A 
ATOM     18  C   UNL     1      17.120  10.057   9.594  1.00  0.00     0.006 A 
ATOM     19  C   UNL     1      15.353  11.511   8.825  1.00  0.00     0.006 A 
ATOM     20  C   UNL     1      18.050  10.854   8.918  1.00  0.00     0.004 A 
ATOM     21  C   UNL     1      16.278  12.299   8.149  1.00  0.00     0.004 A 
ATOM     22  C   UNL     1      17.635  11.972   8.181  1.00  0.00    -0.051 A 
ATOM     23  C   UNL     1      18.605  12.745   7.339  1.00  0.00     0.044 C 
ENDBRANCH  16  17
ENDBRANCH   6  16
TORSDOF 3
ENDMDL
MODEL 9
REMARK VINA RESULT:    -4.827      3.852      7.794
REMARK INTER + INTRA:          -6.065
REMARK INTER:                  -5.649
REMARK INTRA:                  -0.416
REMARK UNBOUND:                -0.391
REMARK SMILES Cc1ccc(CNC(=O)NC(=O)c2ccc(C)cc2)cc1
REMARK SMILES IDX 11 1 12 2 10 3 8 4 9 5 7 6 13 9 19 10 18 11 14 12 16 13
REMARK SMILES IDX 15 14 17 15 6 16 5 17 4 18 20 19 3 20 21 21 2 22 1 23
REMARK H PARENT 10 7 7 8
ROOT
ATOM      1  C   UNL     1      11.237   4.296   3.820  1.00  0.00     0.259 C 
ATOM      2  O   UNL     1      10.555   3.421   4.336  1.00  0.00    -0.269 OA
ATOM      3  N   UNL     1      11.380   4.610   2.465  1.00  0.00    -0.274 N 
ATOM      4  C   UNL     1      10.743   4.321   1.286  1.00  0.00     0.321 C 
ATOM      5  O   UNL     1      11.109   4.927   0.273  1.00  0.00    -0.248 OA
ATOM      6  N   UNL     1       9.729   3.442   1.183  1.00  0.00    -0.334 N 
ATOM      7  H   UNL     1      12.022   5.369   2.278  1.00  0.00     0.175 HD
ATOM      8  H   UNL     1       9.313   3.407   0.264  1.00  0.00     0.165 HD
ENDROOT
BRANCH   1   9
ATOM      9  C   UNL     1      12.018   5.149   4.736  1.00  0.00     0.040 A 
ATOM     10  C   UNL     1      11.432   5.747   5.853  1.00  0.00     0.014 A 
ATOM     11  C   UNL     1      12.223   6.503   6.719  1.00  0.00     0.004 A 
ATOM     12  C   UNL     1      13.372   5.352   4.450  1.00  0.00     0.014 A 
ATOM     13  C   UNL     1      13.593   6.669   6.469  1.00  0.00    -0.051 A 
ATOM     14  C   UNL     1      14.160   6.102   5.321  1.00  0.00     0.004 A 
ATOM     15  C   UNL     1      14.447   7.413   7.454  1.00  0.00     0.044 C 
ENDBRANCH   1   9
BRANCH   6  16
ATOM     16  C   UNL     1       9.088   2.716   2.243  1.00  0.00     0.153 C 
BRANCH  16  17
ATOM     17  C   UNL     1       7.606   2.494   2.129  1.00  0.00    -0.029 A 
ATOM     18  C   UNL     1       6.664   3.512   2.316  1.00  0.00     0.006 A 
ATOM     19  C   UNL     1       7.178   1.262   1.607  1.00  0.00     0.006 A 
ATOM     20  C   UNL     1       5.327   3.302   1.962  1.00  0.00     0.004 A 
ATOM     21  C   UNL     1       5.849   1.057   1.251  1.00  0.00     0.004 A 
ATOM     22  C   UNL     1       4.913   2.079   1.416  1.00  0.00    -0.051 A 
ATOM     23  C   UNL     1       3.516   1.896   0.904  1.00  0.00     0.044 C 
ENDBRANCH  16  17
ENDBRANCH   6  16
TORSDOF 3
ENDMDL
