MODEL 1
REMARK VINA RESULT:    -4.131      0.000      0.000
REMARK INTER + INTRA:          -5.702
REMARK INTER:                  -5.459
REMARK INTRA:                  -0.243
REMARK UNBOUND:                -0.243
REMARK SMILES [H]/N=C\C[C@H]1C[C@@H]1O[C@H]1CO[C@H]2C[C@@H](C3CC3)CCN2C1
REMARK SMILES IDX 7 1 6 2 5 3 8 4 9 5 14 6 13 7 18 8 12 9 19 10 20 11 11 12
REMARK SMILES IDX 21 13 10 14 15 15 16 16 17 17 4 18 3 19 2 20 1 21
REMARK H PARENT
ROOT
ATOM      1  C   UNL     1       5.953  13.219  -3.147  1.00  0.00     0.122 C 
ATOM      2  C   UNL     1       5.917  14.290  -4.200  1.00  0.00     0.039 C 
ATOM      3  C   UNL     1       5.010  14.382  -3.007  1.00  0.00     0.026 C 
ENDROOT
BRANCH   1   4
ATOM      4  O   UNL     1       5.376  11.967  -3.564  1.00  0.00    -0.371 OA
BRANCH   4   5
ATOM      5  C   UNL     1       6.186  11.173  -4.445  1.00  0.00     0.158 C 
ATOM      6  C   UNL     1       5.192   6.477  -2.405  1.00  0.00    -0.003 C 
ATOM      7  C   UNL     1       5.996   7.712  -1.978  1.00  0.00     0.052 C 
ATOM      8  C   UNL     1       3.977   6.922  -3.229  1.00  0.00     0.019 C 
ATOM      9  C   UNL     1       6.346   8.605  -3.176  1.00  0.00     0.189 C 
ATOM     10  C   UNL     1       4.389   7.835  -4.384  1.00  0.00     0.087 C 
ATOM     11  N   UNL     1       5.132   8.996  -3.893  1.00  0.00    -0.276 NA
ATOM     12  O   UNL     1       7.046   9.735  -2.652  1.00  0.00    -0.360 OA
ATOM     13  C   UNL     1       5.459   9.926  -4.979  1.00  0.00     0.121 C 
ATOM     14  C   UNL     1       7.408  10.686  -3.659  1.00  0.00     0.195 C 
BRANCH   6  15
ATOM     15  C   UNL     1       4.753   5.661  -1.210  1.00  0.00    -0.008 C 
ATOM     16  C   UNL     1       4.958   4.164  -1.190  1.00  0.00     0.004 C 
ATOM     17  C   UNL     1       5.769   5.041  -0.281  1.00  0.00     0.004 C 
ENDBRANCH   6  15
ENDBRANCH   4   5
ENDBRANCH   1   4
BRANCH   3  18
ATOM     18  C   UNL     1       5.267  15.443  -1.979  1.00  0.00     0.053 C 
BRANCH  18  19
ATOM     19  C   UNL     1       5.407  16.852  -2.496  1.00  0.00     0.074 C 
BRANCH  19  20
ATOM     20  N   UNL     1       4.437  17.672  -2.731  1.00  0.00    -0.313 NA
ATOM     21  H   UNL     1       3.711  17.242  -3.322  1.00  0.00     0.186 HD
ENDBRANCH  19  20
ENDBRANCH  18  19
ENDBRANCH   3  18
TORSDOF 6
ENDMDL
MODEL 2
REMARK VINA RESULT:    -4.068      3.298      5.588
REMARK INTER + INTRA:          -5.619
REMARK INTER:                  -5.362
REMARK INTRA:                  -0.257
REMARK UNBOUND:                -0.243
REMARK SMILES [H]/N=C\C[C@H]1C[C@@H]1O[C@H]1CO[C@H]2C[C@@H](C3CC3)CCN2C1
REMARK SMILES IDX 7 1 6 2 5 3 8 4 9 5 14 6 13 7 18 8 12 9 19 10 20 11 11 12
REMARK SMILES IDX 21 13 10 14 15 15 16 16 17 17 4 18 3 19 2 20 1 21
REMARK H PARENT
ROOT
ATOM      1  C   UNL     1       9.428  10.196  -4.723  1.00  0.00     0.122 C 
ATOM      2  C   UNL     1      10.689  10.802  -4.175  1.00  0.00     0.039 C 
ATOM      3  C   UNL     1      10.760   9.565  -5.023  1.00  0.00     0.026 C 
ENDROOT
BRANCH   1   4
ATOM      4  O   UNL     1       8.613   9.541  -3.732  1.00  0.00    -0.371 OA
BRANCH   4   5
ATOM      5  C   UNL     1       7.883  10.413  -2.855  1.00  0.00     0.158 C 
ATOM      6  C   UNL     1       3.568   7.537  -2.300  1.00  0.00    -0.003 C 
ATOM      7  C   UNL     1       4.191   8.377  -3.421  1.00  0.00     0.052 C 
ATOM      8  C   UNL     1       4.686   6.915  -1.451  1.00  0.00     0.019 C 
ATOM      9  C   UNL     1       5.202   9.395  -2.876  1.00  0.00     0.189 C 
ATOM     10  C   UNL     1       5.676   7.975  -0.968  1.00  0.00     0.087 C 
ATOM     11  N   UNL     1       6.238   8.718  -2.096  1.00  0.00    -0.276 NA
ATOM     12  O   UNL     1       5.743  10.080  -4.007  1.00  0.00    -0.360 OA
ATOM     13  C   UNL     1       7.254   9.681  -1.656  1.00  0.00     0.121 C 
ATOM     14  C   UNL     1       6.739  11.045  -3.654  1.00  0.00     0.195 C 
BRANCH   6  15
ATOM     15  C   UNL     1       2.660   6.461  -2.852  1.00  0.00    -0.008 C 
ATOM     16  C   UNL     1       1.208   6.401  -2.440  1.00  0.00     0.004 C 
ATOM     17  C   UNL     1       1.571   6.800  -3.841  1.00  0.00     0.004 C 
ENDBRANCH   6  15
ENDBRANCH   4   5
ENDBRANCH   1   4
BRANCH   3  18
ATOM     18  C   UNL     1      11.348   9.660  -6.399  1.00  0.00     0.053 C 
BRANCH  18  19
ATOM     19  C   UNL     1      12.712  10.293  -6.499  1.00  0.00     0.074 C 
BRANCH  19  20
ATOM     20  N   UNL     1      13.834   9.662  -6.594  1.00  0.00    -0.313 NA
ATOM     21  H   UNL     1      14.637  10.305  -6.543  1.00  0.00     0.186 HD
ENDBRANCH  19  20
ENDBRANCH  18  19
ENDBRANCH   3  18
TORSDOF 6
ENDMDL
MODEL 3
REMARK VINA RESULT:    -3.948      5.207      8.425
REMARK INTER + INTRA:          -5.461
REMARK INTER:                  -5.246
REMARK INTRA:                  -0.215
REMARK UNBOUND:                -0.243
REMARK SMILES [H]/N=C\C[C@H]1C[C@@H]1O[C@H]1CO[C@H]2C[C@@H](C3CC3)CCN2C1
REMARK SMILES IDX 7 1 6 2 5 3 8 4 9 5 14 6 13 7 18 8 12 9 19 10 20 11 11 12
REMARK SMILES IDX 21 13 10 14 15 15 16 16 17 17 4 18 3 19 2 20 1 21
REMARK H PARENT
ROOT
ATOM      1  C   UNL     1       7.267  10.225  -3.907  1.00  0.00     0.122 C 
ATOM      2  C   UNL     1       6.199  11.282  -3.917  1.00  0.00     0.039 C 
ATOM      3  C   UNL     1       6.064  10.073  -4.798  1.00  0.00     0.026 C 
ENDROOT
BRANCH   1   4
ATOM      4  O   UNL     1       8.495  10.626  -4.545  1.00  0.00    -0.371 OA
BRANCH   4   5
ATOM      5  C   UNL     1       9.701  10.216  -3.880  1.00  0.00     0.158 C 
ATOM      6  C   UNL     1      13.086  11.184  -7.728  1.00  0.00    -0.003 C 
ATOM      7  C   UNL     1      11.998  10.137  -7.460  1.00  0.00     0.052 C 
ATOM      8  C   UNL     1      12.677  12.517  -7.086  1.00  0.00     0.019 C 
ATOM      9  C   UNL     1      11.661  10.034  -5.966  1.00  0.00     0.189 C 
ATOM     10  C   UNL     1      12.322  12.340  -5.609  1.00  0.00     0.087 C 
ATOM     11  N   UNL     1      11.266  11.342  -5.441  1.00  0.00    -0.276 NA
ATOM     12  O   UNL     1      10.613   9.071  -5.849  1.00  0.00    -0.360 OA
ATOM     13  C   UNL     1      10.853  11.223  -4.038  1.00  0.00     0.121 C 
ATOM     14  C   UNL     1      10.162   8.894  -4.502  1.00  0.00     0.195 C 
BRANCH   6  15
ATOM     15  C   UNL     1      13.332  11.362  -9.209  1.00  0.00    -0.008 C 
ATOM     16  C   UNL     1      14.737  11.550  -9.732  1.00  0.00     0.004 C 
ATOM     17  C   UNL     1      13.998  10.275 -10.018  1.00  0.00     0.004 C 
ENDBRANCH   6  15
ENDBRANCH   4   5
ENDBRANCH   1   4
BRANCH   3  18
ATOM     18  C   UNL     1       5.011   9.055  -4.479  1.00  0.00     0.053 C 
BRANCH  18  19
ATOM     19  C   UNL     1       4.415   8.322  -5.652  1.00  0.00     0.074 C 
BRANCH  19  20
ATOM     20  N   UNL     1       4.119   8.841  -6.797  1.00  0.00    -0.313 NA
ATOM     21  H   UNL     1       4.767   8.529  -7.534  1.00  0.00     0.186 HD
ENDBRANCH  19  20
ENDBRANCH  18  19
ENDBRANCH   3  18
TORSDOF 6
ENDMDL
MODEL 4
REMARK VINA RESULT:    -3.849      5.786      7.240
REMARK INTER + INTRA:          -5.330
REMARK INTER:                  -4.848
REMARK INTRA:                  -0.482
REMARK UNBOUND:                -0.243
REMARK SMILES [H]/N=C\C[C@H]1C[C@@H]1O[C@H]1CO[C@H]2C[C@@H](C3CC3)CCN2C1
REMARK SMILES IDX 7 1 6 2 5 3 8 4 9 5 14 6 13 7 18 8 12 9 19 10 20 11 11 12
REMARK SMILES IDX 21 13 10 14 15 15 16 16 17 17 4 18 3 19 2 20 1 21
REMARK H PARENT
ROOT
ATOM      1  C   UNL     1      13.051  15.253  -6.879  1.00  0.00     0.122 C 
ATOM      2  C   UNL     1      12.633  15.989  -8.121  1.00  0.00     0.039 C 
ATOM      3  C   UNL     1      11.684  15.876  -6.962  1.00  0.00     0.026 C 
ENDROOT
BRANCH   1   4
ATOM      4  O   UNL     1      13.118  13.823  -7.039  1.00  0.00    -0.371 OA
BRANCH   4   5
ATOM      5  C   UNL     1      13.802  13.114  -5.992  1.00  0.00     0.158 C 
ATOM      6  C   UNL     1       9.829  10.186  -4.304  1.00  0.00    -0.003 C 
ATOM      7  C   UNL     1      10.212  11.669  -4.224  1.00  0.00     0.052 C 
ATOM      8  C   UNL     1      10.346   9.599  -5.625  1.00  0.00     0.019 C 
ATOM      9  C   UNL     1      11.714  11.883  -4.458  1.00  0.00     0.189 C 
ATOM     10  C   UNL     1      11.837   9.876  -5.813  1.00  0.00     0.087 C 
ATOM     11  N   UNL     1      12.116  11.310  -5.743  1.00  0.00    -0.276 NA
ATOM     12  O   UNL     1      11.938  13.293  -4.406  1.00  0.00    -0.360 OA
ATOM     13  C   UNL     1      13.530  11.599  -6.008  1.00  0.00     0.121 C 
ATOM     14  C   UNL     1      13.302  13.652  -4.647  1.00  0.00     0.195 C 
BRANCH   6  15
ATOM     15  C   UNL     1       8.334   9.992  -4.186  1.00  0.00    -0.008 C 
ATOM     16  C   UNL     1       7.676   9.939  -2.827  1.00  0.00     0.004 C 
ATOM     17  C   UNL     1       7.442  11.119  -3.724  1.00  0.00     0.004 C 
ENDBRANCH   6  15
ENDBRANCH   4   5
ENDBRANCH   1   4
BRANCH   3  18
ATOM     18  C   UNL     1      11.365  17.105  -6.163  1.00  0.00     0.053 C 
BRANCH  18  19
ATOM     19  C   UNL     1      10.583  16.889  -4.893  1.00  0.00     0.074 C 
BRANCH  19  20
ATOM     20  N   UNL     1      10.742  15.912  -4.063  1.00  0.00    -0.313 NA
ATOM     21  H   UNL     1      10.202  16.058  -3.198  1.00  0.00     0.186 HD
ENDBRANCH  19  20
ENDBRANCH  18  19
ENDBRANCH   3  18
TORSDOF 6
ENDMDL
MODEL 5
REMARK VINA RESULT:    -3.846      6.569      7.956
REMARK INTER + INTRA:          -5.326
REMARK INTER:                  -5.144
REMARK INTRA:                  -0.182
REMARK UNBOUND:                -0.243
REMARK SMILES [H]/N=C\C[C@H]1C[C@@H]1O[C@H]1CO[C@H]2C[C@@H](C3CC3)CCN2C1
REMARK SMILES IDX 7 1 6 2 5 3 8 4 9 5 14 6 13 7 18 8 12 9 19 10 20 11 11 12
REMARK SMILES IDX 21 13 10 14 15 15 16 16 17 17 4 18 3 19 2 20 1 21
REMARK H PARENT
ROOT
ATOM      1  C   UNL     1      13.071  14.667  -8.105  1.00  0.00     0.122 C 
ATOM      2  C   UNL     1      13.549  14.254  -9.469  1.00  0.00     0.039 C 
ATOM      3  C   UNL     1      12.366  15.169  -9.335  1.00  0.00     0.026 C 
ENDROOT
BRANCH   1   4
ATOM      4  O   UNL     1      12.416  13.617  -7.369  1.00  0.00    -0.371 OA
BRANCH   4   5
ATOM      5  C   UNL     1      13.161  13.075  -6.267  1.00  0.00     0.158 C 
ATOM      6  C   UNL     1       9.374  10.227  -4.087  1.00  0.00    -0.003 C 
ATOM      7  C   UNL     1       9.694  11.722  -4.207  1.00  0.00     0.052 C 
ATOM      8  C   UNL     1       9.877   9.498  -5.341  1.00  0.00     0.019 C 
ATOM      9  C   UNL     1      11.177  11.965  -4.519  1.00  0.00     0.189 C 
ATOM     10  C   UNL     1      11.349   9.809  -5.615  1.00  0.00     0.087 C 
ATOM     11  N   UNL     1      11.566  11.251  -5.735  1.00  0.00    -0.276 NA
ATOM     12  O   UNL     1      11.340  13.378  -4.651  1.00  0.00    -0.360 OA
ATOM     13  C   UNL     1      12.957  11.560  -6.084  1.00  0.00     0.121 C 
ATOM     14  C   UNL     1      12.679  13.758  -4.984  1.00  0.00     0.195 C 
BRANCH   6  15
ATOM     15  C   UNL     1       7.894   9.989  -3.893  1.00  0.00    -0.008 C 
ATOM     16  C   UNL     1       7.299   9.970  -2.505  1.00  0.00     0.004 C 
ATOM     17  C   UNL     1       6.985  11.105  -3.437  1.00  0.00     0.004 C 
ENDBRANCH   6  15
ENDBRANCH   4   5
ENDBRANCH   1   4
BRANCH   3  18
ATOM     18  C   UNL     1      12.505  16.602  -9.755  1.00  0.00     0.053 C 
BRANCH  18  19
ATOM     19  C   UNL     1      12.397  16.878 -11.232  1.00  0.00     0.074 C 
BRANCH  19  20
ATOM     20  N   UNL     1      11.305  17.107 -11.882  1.00  0.00    -0.313 NA
ATOM     21  H   UNL     1      10.475  16.989 -11.284  1.00  0.00     0.186 HD
ENDBRANCH  19  20
ENDBRANCH  18  19
ENDBRANCH   3  18
TORSDOF 6
ENDMDL
MODEL 6
REMARK VINA RESULT:    -3.583      1.330      1.602
REMARK INTER + INTRA:          -4.979
REMARK INTER:                  -5.161
REMARK INTRA:                   0.182
REMARK UNBOUND:                -0.243
REMARK SMILES [H]/N=C\C[C@H]1C[C@@H]1O[C@H]1CO[C@H]2C[C@@H](C3CC3)CCN2C1
REMARK SMILES IDX 7 1 6 2 5 3 8 4 9 5 14 6 13 7 18 8 12 9 19 10 20 11 11 12
REMARK SMILES IDX 21 13 10 14 15 15 16 16 17 17 4 18 3 19 2 20 1 21
REMARK H PARENT
ROOT
ATOM      1  C   UNL     1       5.061  13.353  -3.970  1.00  0.00     0.122 C 
ATOM      2  C   UNL     1       4.687  14.300  -2.866  1.00  0.00     0.039 C 
ATOM      3  C   UNL     1       6.024  14.426  -3.540  1.00  0.00     0.026 C 
ENDROOT
BRANCH   1   4
ATOM      4  O   UNL     1       5.347  12.014  -3.524  1.00  0.00    -0.371 OA
BRANCH   4   5
ATOM      5  C   UNL     1       6.197  11.241  -4.386  1.00  0.00     0.158 C 
ATOM      6  C   UNL     1       5.219   6.511  -2.417  1.00  0.00    -0.003 C 
ATOM      7  C   UNL     1       5.988   7.755  -1.956  1.00  0.00     0.052 C 
ATOM      8  C   UNL     1       4.022   6.944  -3.275  1.00  0.00     0.019 C 
ATOM      9  C   UNL     1       6.360   8.665  -3.135  1.00  0.00     0.189 C 
ATOM     10  C   UNL     1       4.454   7.874  -4.408  1.00  0.00     0.087 C 
ATOM     11  N   UNL     1       5.162   9.042  -3.886  1.00  0.00    -0.276 NA
ATOM     12  O   UNL     1       7.025   9.801  -2.580  1.00  0.00    -0.360 OA
ATOM     13  C   UNL     1       5.507   9.987  -4.953  1.00  0.00     0.121 C 
ATOM     14  C   UNL     1       7.402  10.767  -3.567  1.00  0.00     0.195 C 
BRANCH   6  15
ATOM     15  C   UNL     1       4.757   5.678  -1.243  1.00  0.00    -0.008 C 
ATOM     16  C   UNL     1       4.945   4.179  -1.250  1.00  0.00     0.004 C 
ATOM     17  C   UNL     1       5.755   5.029  -0.315  1.00  0.00     0.004 C 
ENDBRANCH   6  15
ENDBRANCH   4   5
ENDBRANCH   1   4
BRANCH   3  18
ATOM     18  C   UNL     1       6.283  15.608  -4.425  1.00  0.00     0.053 C 
BRANCH  18  19
ATOM     19  C   UNL     1       7.608  15.626  -5.140  1.00  0.00     0.074 C 
BRANCH  19  20
ATOM     20  N   UNL     1       8.729  16.041  -4.649  1.00  0.00    -0.313 NA
ATOM     21  H   UNL     1       8.778  17.069  -4.631  1.00  0.00     0.186 HD
ENDBRANCH  19  20
ENDBRANCH  18  19
ENDBRANCH   3  18
TORSDOF 6
ENDMDL
MODEL 7
REMARK VINA RESULT:    -3.449      7.494      9.050
REMARK INTER + INTRA:          -4.801
REMARK INTER:                  -4.374
REMARK INTRA:                  -0.427
REMARK UNBOUND:                -0.243
REMARK SMILES [H]/N=C\C[C@H]1C[C@@H]1O[C@H]1CO[C@H]2C[C@@H](C3CC3)CCN2C1
REMARK SMILES IDX 7 1 6 2 5 3 8 4 9 5 14 6 13 7 18 8 12 9 19 10 20 11 11 12
REMARK SMILES IDX 21 13 10 14 15 15 16 16 17 17 4 18 3 19 2 20 1 21
REMARK H PARENT
ROOT
ATOM      1  C   UNL     1      13.427  15.872  -7.925  1.00  0.00     0.122 C 
ATOM      2  C   UNL     1      12.416  15.175  -8.792  1.00  0.00     0.039 C 
ATOM      3  C   UNL     1      12.567  16.668  -8.869  1.00  0.00     0.026 C 
ENDROOT
BRANCH   1   4
ATOM      4  O   UNL     1      13.071  15.921  -6.530  1.00  0.00    -0.371 OA
BRANCH   4   5
ATOM      5  C   UNL     1      14.005  15.305  -5.630  1.00  0.00     0.158 C 
ATOM      6  C   UNL     1      11.648  10.683  -5.098  1.00  0.00    -0.003 C 
ATOM      7  C   UNL     1      11.378  12.115  -4.620  1.00  0.00     0.052 C 
ATOM      8  C   UNL     1      12.341  10.727  -6.467  1.00  0.00     0.019 C 
ATOM      9  C   UNL     1      12.648  12.975  -4.651  1.00  0.00     0.189 C 
ATOM     10  C   UNL     1      13.577  11.625  -6.439  1.00  0.00     0.087 C 
ATOM     11  N   UNL     1      13.232  12.975  -5.992  1.00  0.00    -0.276 NA
ATOM     12  O   UNL     1      12.264  14.286  -4.233  1.00  0.00    -0.360 OA
ATOM     13  C   UNL     1      14.391  13.873  -6.043  1.00  0.00     0.121 C 
ATOM     14  C   UNL     1      13.349  15.219  -4.248  1.00  0.00     0.195 C 
BRANCH   6  15
ATOM     15  C   UNL     1      10.373   9.874  -5.174  1.00  0.00    -0.008 C 
ATOM     16  C   UNL     1      10.096   8.787  -4.162  1.00  0.00     0.004 C 
ATOM     17  C   UNL     1       9.283  10.048  -4.144  1.00  0.00     0.004 C 
ENDBRANCH   6  15
ENDBRANCH   4   5
ENDBRANCH   1   4
BRANCH   3  18
ATOM     18  C   UNL     1      13.162  17.275 -10.104  1.00  0.00     0.053 C 
BRANCH  18  19
ATOM     19  C   UNL     1      12.187  17.756 -11.146  1.00  0.00     0.074 C 
BRANCH  19  20
ATOM     20  N   UNL     1      11.375  17.014 -11.823  1.00  0.00    -0.313 NA
ATOM     21  H   UNL     1      10.905  16.320 -11.223  1.00  0.00     0.186 HD
ENDBRANCH  19  20
ENDBRANCH  18  19
ENDBRANCH   3  18
TORSDOF 6
ENDMDL
MODEL 8
REMARK VINA RESULT:    -3.381      6.739      8.826
REMARK INTER + INTRA:          -4.711
REMARK INTER:                  -4.487
REMARK INTRA:                  -0.225
REMARK UNBOUND:                -0.243
REMARK SMILES [H]/N=C\C[C@H]1C[C@@H]1O[C@H]1CO[C@H]2C[C@@H](C3CC3)CCN2C1
REMARK SMILES IDX 7 1 6 2 5 3 8 4 9 5 14 6 13 7 18 8 12 9 19 10 20 11 11 12
REMARK SMILES IDX 21 13 10 14 15 15 16 16 17 17 4 18 3 19 2 20 1 21
REMARK H PARENT
ROOT
ATOM      1  C   UNL     1       8.419  16.073  -5.361  1.00  0.00     0.122 C 
ATOM      2  C   UNL     1       7.281  16.073  -6.343  1.00  0.00     0.039 C 
ATOM      3  C   UNL     1       7.069  15.550  -4.952  1.00  0.00     0.026 C 
ENDROOT
BRANCH   1   4
ATOM      4  O   UNL     1       9.434  15.090  -5.639  1.00  0.00    -0.371 OA
BRANCH   4   5
ATOM      5  C   UNL     1      10.771  15.456  -5.260  1.00  0.00     0.158 C 
ATOM      6  C   UNL     1      13.384  12.663  -8.806  1.00  0.00    -0.003 C 
ATOM      7  C   UNL     1      12.582  12.352  -7.537  1.00  0.00     0.052 C 
ATOM      8  C   UNL     1      12.784  13.896  -9.496  1.00  0.00     0.019 C 
ATOM      9  C   UNL     1      12.458  13.580  -6.625  1.00  0.00     0.189 C 
ATOM     10  C   UNL     1      12.656  15.071  -8.527  1.00  0.00     0.087 C 
ATOM     11  N   UNL     1      11.863  14.700  -7.355  1.00  0.00    -0.276 NA
ATOM     12  O   UNL     1      11.658  13.182  -5.510  1.00  0.00    -0.360 OA
ATOM     13  C   UNL     1      11.657  15.842  -6.457  1.00  0.00     0.121 C 
ATOM     14  C   UNL     1      11.422  14.246  -4.582  1.00  0.00     0.195 C 
BRANCH   6  15
ATOM     15  C   UNL     1      13.406  11.484  -9.752  1.00  0.00    -0.008 C 
ATOM     16  C   UNL     1      14.719  10.932 -10.255  1.00  0.00     0.004 C 
ATOM     17  C   UNL     1      13.893  10.131  -9.291  1.00  0.00     0.004 C 
ENDBRANCH   6  15
ENDBRANCH   4   5
ENDBRANCH   1   4
BRANCH   3  18
ATOM     18  C   UNL     1       6.211  16.333  -4.004  1.00  0.00     0.053 C 
BRANCH  18  19
ATOM     19  C   UNL     1       5.571  15.552  -2.885  1.00  0.00     0.074 C 
BRANCH  19  20
ATOM     20  N   UNL     1       5.902  15.605  -1.638  1.00  0.00    -0.313 NA
ATOM     21  H   UNL     1       5.074  15.636  -1.026  1.00  0.00     0.186 HD
ENDBRANCH  19  20
ENDBRANCH  18  19
ENDBRANCH   3  18
TORSDOF 6
ENDMDL
MODEL 9
REMARK VINA RESULT:    -3.362      8.613     11.257
REMARK INTER + INTRA:          -4.687
REMARK INTER:                  -4.552
REMARK INTRA:                  -0.135
REMARK UNBOUND:                -0.243
REMARK SMILES [H]/N=C\C[C@H]1C[C@@H]1O[C@H]1CO[C@H]2C[C@@H](C3CC3)CCN2C1
REMARK SMILES IDX 7 1 6 2 5 3 8 4 9 5 14 6 13 7 18 8 12 9 19 10 20 11 11 12
REMARK SMILES IDX 21 13 10 14 15 15 16 16 17 17 4 18 3 19 2 20 1 21
REMARK H PARENT
ROOT
ATOM      1  C   UNL     1      13.161  12.408  -4.548  1.00  0.00     0.122 C 
ATOM      2  C   UNL     1      12.362  13.607  -4.124  1.00  0.00     0.039 C 
ATOM      3  C   UNL     1      12.874  12.645  -3.091  1.00  0.00     0.026 C 
ENDROOT
BRANCH   1   4
ATOM      4  O   UNL     1      12.384  11.385  -5.200  1.00  0.00    -0.371 OA
BRANCH   4   5
ATOM      5  C   UNL     1      13.044  10.697  -6.276  1.00  0.00     0.158 C 
ATOM      6  C   UNL     1      14.017  14.797  -9.349  1.00  0.00    -0.003 C 
ATOM      7  C   UNL     1      12.772  13.998  -8.945  1.00  0.00     0.052 C 
ATOM      8  C   UNL     1      15.011  14.812  -8.179  1.00  0.00     0.019 C 
ATOM      9  C   UNL     1      13.136  12.604  -8.416  1.00  0.00     0.189 C 
ATOM     10  C   UNL     1      15.305  13.399  -7.677  1.00  0.00     0.087 C 
ATOM     11  N   UNL     1      14.071  12.712  -7.296  1.00  0.00    -0.276 NA
ATOM     12  O   UNL     1      11.909  11.980  -8.033  1.00  0.00    -0.360 OA
ATOM     13  C   UNL     1      14.343  11.386  -6.730  1.00  0.00     0.121 C 
ATOM     14  C   UNL     1      12.095  10.673  -7.479  1.00  0.00     0.195 C 
BRANCH   6  15
ATOM     15  C   UNL     1      13.661  16.208  -9.761  1.00  0.00    -0.008 C 
ATOM     16  C   UNL     1      13.804  16.641 -11.201  1.00  0.00     0.004 C 
ATOM     17  C   UNL     1      12.437  16.483 -10.601  1.00  0.00     0.004 C 
ENDBRANCH   6  15
ENDBRANCH   4   5
ENDBRANCH   1   4
BRANCH   3  18
ATOM     18  C   UNL     1      13.970  13.086  -2.167  1.00  0.00     0.053 C 
BRANCH  18  19
ATOM     19  C   UNL     1      14.055  12.370  -0.845  1.00  0.00     0.074 C 
BRANCH  19  20
ATOM     20  N   UNL     1      14.763  12.737   0.171  1.00  0.00    -0.313 NA
ATOM     21  H   UNL     1      14.373  12.380   1.055  1.00  0.00     0.186 HD
ENDBRANCH  19  20
ENDBRANCH  18  19
ENDBRANCH   3  18
TORSDOF 6
ENDMDL
