MODEL 1
REMARK VINA RESULT:    -4.328      0.000      0.000
REMARK INTER + INTRA:          -5.967
REMARK INTER:                  -5.720
REMARK INTRA:                  -0.246
REMARK UNBOUND:                -0.246
REMARK SMILES [H]/N=C\C[C@H]1C[C@@H]1O[C@H]1CO[C@H]2C[C@@H](C3CC3)CCN2C1
REMARK SMILES IDX 7 1 6 2 5 3 8 4 9 5 14 6 13 7 18 8 12 9 19 10 20 11 11 12
REMARK SMILES IDX 21 13 10 14 15 15 16 16 17 17 4 18 3 19 2 20 1 21
REMARK H PARENT
ROOT
ATOM      1  C   UNL     1      11.433  -6.302  -8.141  1.00  0.00     0.122 C 
ATOM      2  C   UNL     1      12.014  -7.686  -8.224  1.00  0.00     0.039 C 
ATOM      3  C   UNL     1      11.091  -7.196  -9.302  1.00  0.00     0.026 C 
ENDROOT
BRANCH   1   4
ATOM      4  O   UNL     1      10.424  -6.149  -7.126  1.00  0.00    -0.371 OA
BRANCH   4   5
ATOM      5  C   UNL     1      10.907  -6.104  -5.773  1.00  0.00     0.158 C 
ATOM      6  C   UNL     1       7.844  -2.286  -3.972  1.00  0.00    -0.003 C 
ATOM      7  C   UNL     1       9.046  -2.375  -4.920  1.00  0.00     0.052 C 
ATOM      8  C   UNL     1       7.013  -3.572  -4.086  1.00  0.00     0.019 C 
ATOM      9  C   UNL     1       9.852  -3.662  -4.700  1.00  0.00     0.189 C 
ATOM     10  C   UNL     1       7.879  -4.816  -3.891  1.00  0.00     0.087 C 
ATOM     11  N   UNL     1       8.989  -4.835  -4.843  1.00  0.00    -0.276 NA
ATOM     12  O   UNL     1      10.908  -3.653  -5.663  1.00  0.00    -0.360 OA
ATOM     13  C   UNL     1       9.779  -6.066  -4.727  1.00  0.00     0.121 C 
ATOM     14  C   UNL     1      11.730  -4.822  -5.604  1.00  0.00     0.195 C 
BRANCH   6  15
ATOM     15  C   UNL     1       6.990  -1.074  -4.270  1.00  0.00    -0.008 C 
ATOM     16  C   UNL     1       6.598  -0.125  -3.162  1.00  0.00     0.004 C 
ATOM     17  C   UNL     1       7.575   0.317  -4.212  1.00  0.00     0.004 C 
ENDBRANCH   6  15
ENDBRANCH   4   5
ENDBRANCH   1   4
BRANCH   3  18
ATOM     18  C   UNL     1      11.650  -6.914 -10.664  1.00  0.00     0.053 C 
BRANCH  18  19
ATOM     19  C   UNL     1      12.432  -8.029 -11.308  1.00  0.00     0.074 C 
BRANCH  19  20
ATOM     20  N   UNL     1      11.933  -9.030 -11.952  1.00  0.00    -0.313 NA
ATOM     21  H   UNL     1      10.934  -8.889 -12.159  1.00  0.00     0.186 HD
ENDBRANCH  19  20
ENDBRANCH  18  19
ENDBRANCH   3  18
TORSDOF 6
ENDMDL
MODEL 2
REMARK VINA RESULT:    -4.323      3.295      5.557
REMARK INTER + INTRA:          -5.959
REMARK INTER:                  -5.710
REMARK INTRA:                  -0.250
REMARK UNBOUND:                -0.246
REMARK SMILES [H]/N=C\C[C@H]1C[C@@H]1O[C@H]1CO[C@H]2C[C@@H](C3CC3)CCN2C1
REMARK SMILES IDX 7 1 6 2 5 3 8 4 9 5 14 6 13 7 18 8 12 9 19 10 20 11 11 12
REMARK SMILES IDX 21 13 10 14 15 15 16 16 17 17 4 18 3 19 2 20 1 21
REMARK H PARENT
ROOT
ATOM      1  C   UNL     1      13.449  -4.750  -3.962  1.00  0.00     0.122 C 
ATOM      2  C   UNL     1      14.825  -4.408  -4.458  1.00  0.00     0.039 C 
ATOM      3  C   UNL     1      14.480  -4.210  -3.010  1.00  0.00     0.026 C 
ENDROOT
BRANCH   1   4
ATOM      4  O   UNL     1      12.425  -3.833  -4.392  1.00  0.00    -0.371 OA
BRANCH   4   5
ATOM      5  C   UNL     1      12.043  -3.933  -5.774  1.00  0.00     0.158 C 
ATOM      6  C   UNL     1       6.890  -3.368  -5.206  1.00  0.00    -0.003 C 
ATOM      7  C   UNL     1       7.914  -4.466  -4.899  1.00  0.00     0.052 C 
ATOM      8  C   UNL     1       7.556  -1.994  -5.047  1.00  0.00     0.019 C 
ATOM      9  C   UNL     1       9.198  -4.294  -5.722  1.00  0.00     0.189 C 
ATOM     10  C   UNL     1       8.845  -1.900  -5.863  1.00  0.00     0.087 C 
ATOM     11  N   UNL     1       9.774  -2.968  -5.498  1.00  0.00    -0.276 NA
ATOM     12  O   UNL     1      10.085  -5.340  -5.318  1.00  0.00    -0.360 OA
ATOM     13  C   UNL     1      11.051  -2.841  -6.210  1.00  0.00     0.121 C 
ATOM     14  C   UNL     1      11.353  -5.285  -5.980  1.00  0.00     0.195 C 
BRANCH   6  15
ATOM     15  C   UNL     1       5.675  -3.476  -4.312  1.00  0.00    -0.008 C 
ATOM     16  C   UNL     1       4.288  -3.510  -4.909  1.00  0.00     0.004 C 
ATOM     17  C   UNL     1       4.857  -4.743  -4.269  1.00  0.00     0.004 C 
ENDBRANCH   6  15
ENDBRANCH   4   5
ENDBRANCH   1   4
BRANCH   3  18
ATOM     18  C   UNL     1      15.106  -5.108  -1.985  1.00  0.00     0.053 C 
BRANCH  18  19
ATOM     19  C   UNL     1      16.611  -5.180  -1.992  1.00  0.00     0.074 C 
BRANCH  19  20
ATOM     20  N   UNL     1      17.410  -4.390  -1.356  1.00  0.00    -0.313 NA
ATOM     21  H   UNL     1      18.143  -4.912  -0.856  1.00  0.00     0.186 HD
ENDBRANCH  19  20
ENDBRANCH  18  19
ENDBRANCH   3  18
TORSDOF 6
ENDMDL
MODEL 3
REMARK VINA RESULT:    -4.134      5.487      8.447
REMARK INTER + INTRA:          -5.710
REMARK INTER:                  -5.496
REMARK INTRA:                  -0.214
REMARK UNBOUND:                -0.246
REMARK SMILES [H]/N=C\C[C@H]1C[C@@H]1O[C@H]1CO[C@H]2C[C@@H](C3CC3)CCN2C1
REMARK SMILES IDX 7 1 6 2 5 3 8 4 9 5 14 6 13 7 18 8 12 9 19 10 20 11 11 12
REMARK SMILES IDX 21 13 10 14 15 15 16 16 17 17 4 18 3 19 2 20 1 21
REMARK H PARENT
ROOT
ATOM      1  C   UNL     1      14.781 -12.279 -13.075  1.00  0.00     0.122 C 
ATOM      2  C   UNL     1      14.281 -13.695 -13.023  1.00  0.00     0.039 C 
ATOM      3  C   UNL     1      13.303 -12.556 -13.048  1.00  0.00     0.026 C 
ENDROOT
BRANCH   1   4
ATOM      4  O   UNL     1      15.374 -11.820 -11.845  1.00  0.00    -0.371 OA
BRANCH   4   5
ATOM      5  C   UNL     1      16.061 -10.560 -11.920  1.00  0.00     0.158 C 
ATOM      6  C   UNL     1      13.072  -7.839  -8.624  1.00  0.00    -0.003 C 
ATOM      7  C   UNL     1      12.914  -8.398 -10.044  1.00  0.00     0.052 C 
ATOM      8  C   UNL     1      13.979  -8.772  -7.810  1.00  0.00     0.019 C 
ATOM      9  C   UNL     1      14.273  -8.678 -10.700  1.00  0.00     0.189 C 
ATOM     10  C   UNL     1      15.299  -9.038  -8.532  1.00  0.00     0.087 C 
ATOM     11  N   UNL     1      15.064  -9.586  -9.868  1.00  0.00    -0.276 NA
ATOM     12  O   UNL     1      13.998  -9.233 -11.987  1.00  0.00    -0.360 OA
ATOM     13  C   UNL     1      16.321  -9.928 -10.541  1.00  0.00     0.121 C 
ATOM     14  C   UNL     1      15.182  -9.585 -12.710  1.00  0.00     0.195 C 
BRANCH   6  15
ATOM     15  C   UNL     1      11.733  -7.672  -7.942  1.00  0.00    -0.008 C 
ATOM     16  C   UNL     1      11.298  -6.318  -7.433  1.00  0.00     0.004 C 
ATOM     17  C   UNL     1      10.607  -6.927  -8.618  1.00  0.00     0.004 C 
ENDBRANCH   6  15
ENDBRANCH   4   5
ENDBRANCH   1   4
BRANCH   3  18
ATOM     18  C   UNL     1      12.471 -12.339 -14.277  1.00  0.00     0.053 C 
BRANCH  18  19
ATOM     19  C   UNL     1      11.396 -11.289 -14.177  1.00  0.00     0.074 C 
BRANCH  19  20
ATOM     20  N   UNL     1      10.123 -11.505 -14.202  1.00  0.00    -0.313 NA
ATOM     21  H   UNL     1       9.820 -11.887 -15.109  1.00  0.00     0.186 HD
ENDBRANCH  19  20
ENDBRANCH  18  19
ENDBRANCH   3  18
TORSDOF 6
ENDMDL
MODEL 4
REMARK VINA RESULT:    -4.100      2.722      8.599
REMARK INTER + INTRA:          -5.665
REMARK INTER:                  -5.415
REMARK INTRA:                  -0.250
REMARK UNBOUND:                -0.246
REMARK SMILES [H]/N=C\C[C@H]1C[C@@H]1O[C@H]1CO[C@H]2C[C@@H](C3CC3)CCN2C1
REMARK SMILES IDX 7 1 6 2 5 3 8 4 9 5 14 6 13 7 18 8 12 9 19 10 20 11 11 12
REMARK SMILES IDX 21 13 10 14 15 15 16 16 17 17 4 18 3 19 2 20 1 21
REMARK H PARENT
ROOT
ATOM      1  C   UNL     1      11.129  -4.969  -6.216  1.00  0.00     0.122 C 
ATOM      2  C   UNL     1      12.065  -4.163  -5.362  1.00  0.00     0.039 C 
ATOM      3  C   UNL     1      11.184  -3.473  -6.364  1.00  0.00     0.026 C 
ENDROOT
BRANCH   1   4
ATOM      4  O   UNL     1      11.786  -5.742  -7.239  1.00  0.00    -0.371 OA
BRANCH   4   5
ATOM      5  C   UNL     1      11.198  -7.023  -7.521  1.00  0.00     0.158 C 
ATOM      6  C   UNL     1      13.628  -8.024 -12.026  1.00  0.00    -0.003 C 
ATOM      7  C   UNL     1      12.522  -7.068 -11.564  1.00  0.00     0.052 C 
ATOM      8  C   UNL     1      14.616  -8.253 -10.873  1.00  0.00     0.019 C 
ATOM      9  C   UNL     1      11.864  -7.545 -10.262  1.00  0.00     0.189 C 
ATOM     10  C   UNL     1      13.895  -8.692  -9.599  1.00  0.00     0.087 C 
ATOM     11  N   UNL     1      12.871  -7.720  -9.215  1.00  0.00    -0.276 NA
ATOM     12  O   UNL     1      10.892  -6.558  -9.910  1.00  0.00    -0.360 OA
ATOM     13  C   UNL     1      12.229  -8.083  -7.947  1.00  0.00     0.121 C 
ATOM     14  C   UNL     1      10.215  -6.850  -8.684  1.00  0.00     0.195 C 
BRANCH   6  15
ATOM     15  C   UNL     1      14.349  -7.492 -13.244  1.00  0.00    -0.008 C 
ATOM     16  C   UNL     1      14.675  -8.408 -14.400  1.00  0.00     0.004 C 
ATOM     17  C   UNL     1      13.631  -7.342 -14.563  1.00  0.00     0.004 C 
ENDBRANCH   6  15
ENDBRANCH   4   5
ENDBRANCH   1   4
BRANCH   3  18
ATOM     18  C   UNL     1      10.051  -2.623  -5.871  1.00  0.00     0.053 C 
BRANCH  18  19
ATOM     19  C   UNL     1       9.780  -1.360  -6.647  1.00  0.00     0.074 C 
BRANCH  19  20
ATOM     20  N   UNL     1      10.664  -0.636  -7.248  1.00  0.00    -0.313 NA
ATOM     21  H   UNL     1      11.246  -0.114  -6.577  1.00  0.00     0.186 HD
ENDBRANCH  19  20
ENDBRANCH  18  19
ENDBRANCH   3  18
TORSDOF 6
ENDMDL
MODEL 5
REMARK VINA RESULT:    -3.937      3.655      5.119
REMARK INTER + INTRA:          -5.449
REMARK INTER:                  -5.165
REMARK INTRA:                  -0.284
REMARK UNBOUND:                -0.246
REMARK SMILES [H]/N=C\C[C@H]1C[C@@H]1O[C@H]1CO[C@H]2C[C@@H](C3CC3)CCN2C1
REMARK SMILES IDX 7 1 6 2 5 3 8 4 9 5 14 6 13 7 18 8 12 9 19 10 20 11 11 12
REMARK SMILES IDX 21 13 10 14 15 15 16 16 17 17 4 18 3 19 2 20 1 21
REMARK H PARENT
ROOT
ATOM      1  C   UNL     1      12.622  -7.045 -11.682  1.00  0.00     0.122 C 
ATOM      2  C   UNL     1      12.623  -6.107 -12.856  1.00  0.00     0.039 C 
ATOM      3  C   UNL     1      13.910  -6.424 -12.149  1.00  0.00     0.026 C 
ENDROOT
BRANCH   1   4
ATOM      4  O   UNL     1      12.035  -6.492 -10.489  1.00  0.00    -0.371 OA
BRANCH   4   5
ATOM      5  C   UNL     1      11.446  -7.444  -9.589  1.00  0.00     0.158 C 
ATOM      6  C   UNL     1      12.391  -4.966  -5.098  1.00  0.00    -0.003 C 
ATOM      7  C   UNL     1      13.232  -5.723  -6.132  1.00  0.00     0.052 C 
ATOM      8  C   UNL     1      11.221  -4.269  -5.807  1.00  0.00     0.019 C 
ATOM      9  C   UNL     1      12.372  -6.662  -6.989  1.00  0.00     0.189 C 
ATOM     10  C   UNL     1      10.427  -5.251  -6.669  1.00  0.00     0.087 C 
ATOM     11  N   UNL     1      11.295  -5.916  -7.640  1.00  0.00    -0.276 NA
ATOM     12  O   UNL     1      13.252  -7.271  -7.937  1.00  0.00    -0.360 OA
ATOM     13  C   UNL     1      10.533  -6.796  -8.532  1.00  0.00     0.121 C 
ATOM     14  C   UNL     1      12.578  -8.154  -8.839  1.00  0.00     0.195 C 
BRANCH   6  15
ATOM     15  C   UNL     1      13.223  -3.960  -4.335  1.00  0.00    -0.008 C 
ATOM     16  C   UNL     1      13.763  -4.297  -2.965  1.00  0.00     0.004 C 
ATOM     17  C   UNL     1      14.703  -4.178  -4.129  1.00  0.00     0.004 C 
ENDBRANCH   6  15
ENDBRANCH   4   5
ENDBRANCH   1   4
BRANCH   3  18
ATOM     18  C   UNL     1      14.939  -7.258 -12.853  1.00  0.00     0.053 C 
BRANCH  18  19
ATOM     19  C   UNL     1      16.326  -7.240 -12.265  1.00  0.00     0.074 C 
BRANCH  19  20
ATOM     20  N   UNL     1      16.626  -6.950 -11.043  1.00  0.00    -0.313 NA
ATOM     21  H   UNL     1      17.341  -7.589 -10.666  1.00  0.00     0.186 HD
ENDBRANCH  19  20
ENDBRANCH  18  19
ENDBRANCH   3  18
TORSDOF 6
ENDMDL
MODEL 6
REMARK VINA RESULT:    -3.922      4.981      7.371
REMARK INTER + INTRA:          -5.429
REMARK INTER:                  -5.261
REMARK INTRA:                  -0.168
REMARK UNBOUND:                -0.246
REMARK SMILES [H]/N=C\C[C@H]1C[C@@H]1O[C@H]1CO[C@H]2C[C@@H](C3CC3)CCN2C1
REMARK SMILES IDX 7 1 6 2 5 3 8 4 9 5 14 6 13 7 18 8 12 9 19 10 20 11 11 12
REMARK SMILES IDX 21 13 10 14 15 15 16 16 17 17 4 18 3 19 2 20 1 21
REMARK H PARENT
ROOT
ATOM      1  C   UNL     1      16.264  -6.140  -1.564  1.00  0.00     0.122 C 
ATOM      2  C   UNL     1      16.059  -6.793  -0.227  1.00  0.00     0.039 C 
ATOM      3  C   UNL     1      16.481  -7.620  -1.408  1.00  0.00     0.026 C 
ENDROOT
BRANCH   1   4
ATOM      4  O   UNL     1      15.043  -5.732  -2.211  1.00  0.00    -0.371 OA
BRANCH   4   5
ATOM      5  C   UNL     1      15.112  -4.498  -2.944  1.00  0.00     0.158 C 
ATOM      6  C   UNL     1      11.619  -5.596  -6.658  1.00  0.00    -0.003 C 
ATOM      7  C   UNL     1      13.045  -6.049  -6.324  1.00  0.00     0.052 C 
ATOM      8  C   UNL     1      10.869  -5.278  -5.357  1.00  0.00     0.019 C 
ATOM      9  C   UNL     1      13.766  -5.041  -5.418  1.00  0.00     0.189 C 
ATOM     10  C   UNL     1      11.654  -4.297  -4.486  1.00  0.00     0.087 C 
ATOM     11  N   UNL     1      12.994  -4.810  -4.197  1.00  0.00    -0.276 NA
ATOM     12  O   UNL     1      15.055  -5.590  -5.141  1.00  0.00    -0.360 OA
ATOM     13  C   UNL     1      13.729  -3.920  -3.291  1.00  0.00     0.121 C 
ATOM     14  C   UNL     1      15.837  -4.770  -4.267  1.00  0.00     0.195 C 
BRANCH   6  15
ATOM     15  C   UNL     1      10.876  -6.645  -7.455  1.00  0.00    -0.008 C 
ATOM     16  C   UNL     1      10.842  -6.576  -8.963  1.00  0.00     0.004 C 
ATOM     17  C   UNL     1      11.625  -7.661  -8.283  1.00  0.00     0.004 C 
ENDBRANCH   6  15
ENDBRANCH   4   5
ENDBRANCH   1   4
BRANCH   3  18
ATOM     18  C   UNL     1      17.869  -8.187  -1.439  1.00  0.00     0.053 C 
BRANCH  18  19
ATOM     19  C   UNL     1      18.319  -8.774  -2.751  1.00  0.00     0.074 C 
BRANCH  19  20
ATOM     20  N   UNL     1      17.554  -9.082  -3.745  1.00  0.00    -0.313 NA
ATOM     21  H   UNL     1      16.596  -9.297  -3.435  1.00  0.00     0.186 HD
ENDBRANCH  19  20
ENDBRANCH  18  19
ENDBRANCH   3  18
TORSDOF 6
ENDMDL
MODEL 7
REMARK VINA RESULT:    -3.895      5.166      8.421
REMARK INTER + INTRA:          -5.394
REMARK INTER:                  -5.173
REMARK INTRA:                  -0.222
REMARK UNBOUND:                -0.246
REMARK SMILES [H]/N=C\C[C@H]1C[C@@H]1O[C@H]1CO[C@H]2C[C@@H](C3CC3)CCN2C1
REMARK SMILES IDX 7 1 6 2 5 3 8 4 9 5 14 6 13 7 18 8 12 9 19 10 20 11 11 12
REMARK SMILES IDX 21 13 10 14 15 15 16 16 17 17 4 18 3 19 2 20 1 21
REMARK H PARENT
ROOT
ATOM      1  C   UNL     1      11.454  -4.856  -5.143  1.00  0.00     0.122 C 
ATOM      2  C   UNL     1      10.904  -5.879  -6.097  1.00  0.00     0.039 C 
ATOM      3  C   UNL     1      10.358  -5.786  -4.701  1.00  0.00     0.026 C 
ENDROOT
BRANCH   1   4
ATOM      4  O   UNL     1      12.781  -5.150  -4.667  1.00  0.00    -0.371 OA
BRANCH   4   5
ATOM      5  C   UNL     1      13.640  -4.012  -4.482  1.00  0.00     0.158 C 
ATOM      6  C   UNL     1      17.605  -6.405  -2.084  1.00  0.00    -0.003 C 
ATOM      7  C   UNL     1      16.174  -6.006  -1.707  1.00  0.00     0.052 C 
ATOM      8  C   UNL     1      17.660  -6.743  -3.581  1.00  0.00     0.019 C 
ATOM      9  C   UNL     1      15.633  -4.896  -2.618  1.00  0.00     0.189 C 
ATOM     10  C   UNL     1      17.076  -5.614  -4.430  1.00  0.00     0.087 C 
ATOM     11  N   UNL     1      15.706  -5.306  -4.021  1.00  0.00    -0.276 NA
ATOM     12  O   UNL     1      14.289  -4.644  -2.202  1.00  0.00    -0.360 OA
ATOM     13  C   UNL     1      15.101  -4.285  -4.882  1.00  0.00     0.121 C 
ATOM     14  C   UNL     1      13.635  -3.648  -2.994  1.00  0.00     0.195 C 
BRANCH   6  15
ATOM     15  C   UNL     1      18.091  -7.575  -1.258  1.00  0.00    -0.008 C 
ATOM     16  C   UNL     1      18.875  -7.340   0.011  1.00  0.00     0.004 C 
ATOM     17  C   UNL     1      17.476  -7.881   0.086  1.00  0.00     0.004 C 
ENDBRANCH   6  15
ENDBRANCH   4   5
ENDBRANCH   1   4
BRANCH   3  18
ATOM     18  C   UNL     1       8.964  -5.271  -4.499  1.00  0.00     0.053 C 
BRANCH  18  19
ATOM     19  C   UNL     1       8.107  -6.034  -3.523  1.00  0.00     0.074 C 
BRANCH  19  20
ATOM     20  N   UNL     1       8.284  -7.259  -3.157  1.00  0.00    -0.313 NA
ATOM     21  H   UNL     1       9.228  -7.594  -3.394  1.00  0.00     0.186 HD
ENDBRANCH  19  20
ENDBRANCH  18  19
ENDBRANCH   3  18
TORSDOF 6
ENDMDL
MODEL 8
REMARK VINA RESULT:    -3.551      5.587      8.521
REMARK INTER + INTRA:          -4.939
REMARK INTER:                  -4.631
REMARK INTRA:                  -0.309
REMARK UNBOUND:                -0.246
REMARK SMILES [H]/N=C\C[C@H]1C[C@@H]1O[C@H]1CO[C@H]2C[C@@H](C3CC3)CCN2C1
REMARK SMILES IDX 7 1 6 2 5 3 8 4 9 5 14 6 13 7 18 8 12 9 19 10 20 11 11 12
REMARK SMILES IDX 21 13 10 14 15 15 16 16 17 17 4 18 3 19 2 20 1 21
REMARK H PARENT
ROOT
ATOM      1  C   UNL     1      17.519  -9.397 -10.657  1.00  0.00     0.122 C 
ATOM      2  C   UNL     1      18.817  -8.725 -10.311  1.00  0.00     0.039 C 
ATOM      3  C   UNL     1      17.560  -8.348  -9.581  1.00  0.00     0.026 C 
ENDROOT
BRANCH   1   4
ATOM      4  O   UNL     1      16.971  -8.997 -11.928  1.00  0.00    -0.371 OA
BRANCH   4   5
ATOM      5  C   UNL     1      15.949  -9.855 -12.461  1.00  0.00     0.158 C 
ATOM      6  C   UNL     1      11.788  -7.513 -10.362  1.00  0.00    -0.003 C 
ATOM      7  C   UNL     1      12.937  -8.384  -9.841  1.00  0.00     0.052 C 
ATOM      8  C   UNL     1      12.289  -6.664 -11.540  1.00  0.00     0.019 C 
ATOM      9  C   UNL     1      13.591  -9.198 -10.965  1.00  0.00     0.189 C 
ATOM     10  C   UNL     1      12.958  -7.529 -12.607  1.00  0.00     0.087 C 
ATOM     11  N   UNL     1      14.053  -8.312 -12.034  1.00  0.00    -0.276 NA
ATOM     12  O   UNL     1      14.667  -9.926 -10.370  1.00  0.00    -0.360 OA
ATOM     13  C   UNL     1      14.762  -9.083 -13.063  1.00  0.00     0.121 C 
ATOM     14  C   UNL     1      15.402 -10.711 -11.314  1.00  0.00     0.195 C 
BRANCH   6  15
ATOM     15  C   UNL     1      11.223  -6.629  -9.273  1.00  0.00    -0.008 C 
ATOM     16  C   UNL     1       9.968  -7.032  -8.537  1.00  0.00     0.004 C 
ATOM     17  C   UNL     1      11.289  -7.048  -7.825  1.00  0.00     0.004 C 
ENDBRANCH   6  15
ENDBRANCH   4   5
ENDBRANCH   1   4
BRANCH   3  18
ATOM     18  C   UNL     1      17.412  -8.736  -8.140  1.00  0.00     0.053 C 
BRANCH  18  19
ATOM     19  C   UNL     1      16.146  -8.288  -7.457  1.00  0.00     0.074 C 
BRANCH  19  20
ATOM     20  N   UNL     1      15.285  -9.057  -6.877  1.00  0.00    -0.313 NA
ATOM     21  H   UNL     1      14.651  -9.498  -7.558  1.00  0.00     0.186 HD
ENDBRANCH  19  20
ENDBRANCH  18  19
ENDBRANCH   3  18
TORSDOF 6
ENDMDL
MODEL 9
REMARK VINA RESULT:    -3.488      4.307      7.182
REMARK INTER + INTRA:          -4.857
REMARK INTER:                  -4.528
REMARK INTRA:                  -0.328
REMARK UNBOUND:                -0.246
REMARK SMILES [H]/N=C\C[C@H]1C[C@@H]1O[C@H]1CO[C@H]2C[C@@H](C3CC3)CCN2C1
REMARK SMILES IDX 7 1 6 2 5 3 8 4 9 5 14 6 13 7 18 8 12 9 19 10 20 11 11 12
REMARK SMILES IDX 21 13 10 14 15 15 16 16 17 17 4 18 3 19 2 20 1 21
REMARK H PARENT
ROOT
ATOM      1  C   UNL     1      17.461  -8.720  -9.790  1.00  0.00     0.122 C 
ATOM      2  C   UNL     1      18.496  -7.703 -10.180  1.00  0.00     0.039 C 
ATOM      3  C   UNL     1      17.969  -7.734  -8.774  1.00  0.00     0.026 C 
ENDROOT
BRANCH   1   4
ATOM      4  O   UNL     1      16.153  -8.465 -10.337  1.00  0.00    -0.371 OA
BRANCH   4   5
ATOM      5  C   UNL     1      15.198  -9.527 -10.180  1.00  0.00     0.158 C 
ATOM      6  C   UNL     1      11.419  -6.834  -7.797  1.00  0.00    -0.003 C 
ATOM      7  C   UNL     1      12.806  -7.360  -7.408  1.00  0.00     0.052 C 
ATOM      8  C   UNL     1      11.414  -6.474  -9.290  1.00  0.00     0.019 C 
ATOM      9  C   UNL     1      13.262  -8.500  -8.328  1.00  0.00     0.189 C 
ATOM     10  C   UNL     1      11.910  -7.638 -10.147  1.00  0.00     0.087 C 
ATOM     11  N   UNL     1      13.244  -8.067  -9.725  1.00  0.00    -0.276 NA
ATOM     12  O   UNL     1      14.574  -8.871  -7.899  1.00  0.00    -0.360 OA
ATOM     13  C   UNL     1      13.771  -9.125 -10.594  1.00  0.00     0.121 C 
ATOM     14  C   UNL     1      15.151  -9.910  -8.697  1.00  0.00     0.195 C 
BRANCH   6  15
ATOM     15  C   UNL     1      11.024  -5.638  -6.961  1.00  0.00    -0.008 C 
ATOM     16  C   UNL     1      10.463  -5.829  -5.572  1.00  0.00     0.004 C 
ATOM     17  C   UNL     1      11.832  -5.240  -5.750  1.00  0.00     0.004 C 
ENDBRANCH   6  15
ENDBRANCH   4   5
ENDBRANCH   1   4
BRANCH   3  18
ATOM     18  C   UNL     1      18.875  -8.188  -7.669  1.00  0.00     0.053 C 
BRANCH  18  19
ATOM     19  C   UNL     1      18.234  -8.379  -6.318  1.00  0.00     0.074 C 
BRANCH  19  20
ATOM     20  N   UNL     1      16.989  -8.646  -6.102  1.00  0.00    -0.313 NA
ATOM     21  H   UNL     1      16.385  -8.270  -6.847  1.00  0.00     0.186 HD
ENDBRANCH  19  20
ENDBRANCH  18  19
ENDBRANCH   3  18
TORSDOF 6
ENDMDL
