MODEL 1
REMARK VINA RESULT:    -6.208      0.000      0.000
REMARK INTER + INTRA:          -7.692
REMARK INTER:                  -7.297
REMARK INTRA:                  -0.395
REMARK UNBOUND:                -0.395
REMARK SMILES Cc1ccc(CNC(=O)NC(=O)c2ccc(C)cc2)cc1
REMARK SMILES IDX 11 1 12 2 10 3 8 4 9 5 7 6 13 9 19 10 18 11 14 12 16 13
REMARK SMILES IDX 15 14 17 15 6 16 5 17 4 18 20 19 3 20 21 21 2 22 1 23
REMARK H PARENT 10 7 7 8
ROOT
ATOM      1  C   UNL     1      10.025  -4.212  -5.179  1.00  0.00     0.259 C 
ATOM      2  O   UNL     1      10.661  -3.398  -4.524  1.00  0.00    -0.269 OA
ATOM      3  N   UNL     1      10.497  -5.172  -6.080  1.00  0.00    -0.274 N 
ATOM      4  C   UNL     1      11.697  -5.745  -6.413  1.00  0.00     0.321 C 
ATOM      5  O   UNL     1      11.680  -6.695  -7.204  1.00  0.00    -0.248 OA
ATOM      6  N   UNL     1      12.878  -5.349  -5.902  1.00  0.00    -0.334 N 
ATOM      7  H   UNL     1       9.772  -5.721  -6.522  1.00  0.00     0.175 HD
ATOM      8  H   UNL     1      13.657  -5.929  -6.182  1.00  0.00     0.165 HD
ENDROOT
BRANCH   1   9
ATOM      9  C   UNL     1       8.559  -4.198  -5.006  1.00  0.00     0.040 A 
ATOM     10  C   UNL     1       7.730  -3.487  -5.875  1.00  0.00     0.014 A 
ATOM     11  C   UNL     1       6.347  -3.546  -5.703  1.00  0.00     0.004 A 
ATOM     12  C   UNL     1       8.018  -4.917  -3.936  1.00  0.00     0.014 A 
ATOM     13  C   UNL     1       5.791  -4.307  -4.664  1.00  0.00    -0.051 A 
ATOM     14  C   UNL     1       6.635  -4.979  -3.772  1.00  0.00     0.004 A 
ATOM     15  C   UNL     1       4.300  -4.430  -4.543  1.00  0.00     0.044 C 
ENDBRANCH   1   9
BRANCH   6  16
ATOM     16  C   UNL     1      13.107  -4.346  -4.901  1.00  0.00     0.153 C 
BRANCH  16  17
ATOM     17  C   UNL     1      14.324  -4.504  -4.032  1.00  0.00    -0.029 A 
ATOM     18  C   UNL     1      14.256  -4.661  -2.644  1.00  0.00     0.006 A 
ATOM     19  C   UNL     1      15.554  -4.711  -4.679  1.00  0.00     0.006 A 
ATOM     20  C   UNL     1      15.394  -5.043  -1.926  1.00  0.00     0.004 A 
ATOM     21  C   UNL     1      16.684  -5.095  -3.964  1.00  0.00     0.004 A 
ATOM     22  C   UNL     1      16.611  -5.274  -2.582  1.00  0.00    -0.051 A 
ATOM     23  C   UNL     1      17.796  -5.820  -1.841  1.00  0.00     0.044 C 
ENDBRANCH  16  17
ENDBRANCH   6  16
TORSDOF 3
ENDMDL
MODEL 2
REMARK VINA RESULT:    -6.207      3.219      5.544
REMARK INTER + INTRA:          -7.691
REMARK INTER:                  -7.304
REMARK INTRA:                  -0.387
REMARK UNBOUND:                -0.395
REMARK SMILES Cc1ccc(CNC(=O)NC(=O)c2ccc(C)cc2)cc1
REMARK SMILES IDX 11 1 12 2 10 3 8 4 9 5 7 6 13 9 19 10 18 11 14 12 16 13
REMARK SMILES IDX 15 14 17 15 6 16 5 17 4 18 20 19 3 20 21 21 2 22 1 23
REMARK H PARENT 10 7 7 8
ROOT
ATOM      1  C   UNL     1       9.903  -4.230  -5.501  1.00  0.00     0.259 C 
ATOM      2  O   UNL     1       9.291  -5.034  -6.190  1.00  0.00    -0.269 OA
ATOM      3  N   UNL     1      11.240  -4.264  -5.095  1.00  0.00    -0.274 N 
ATOM      4  C   UNL     1      12.382  -4.949  -5.425  1.00  0.00     0.321 C 
ATOM      5  O   UNL     1      13.441  -4.581  -4.906  1.00  0.00    -0.248 OA
ATOM      6  N   UNL     1      12.410  -5.971  -6.300  1.00  0.00    -0.334 N 
ATOM      7  H   UNL     1      11.517  -3.491  -4.505  1.00  0.00     0.175 HD
ATOM      8  H   UNL     1      13.340  -6.311  -6.498  1.00  0.00     0.165 HD
ENDROOT
BRANCH   1   9
ATOM      9  C   UNL     1       9.146  -3.054  -5.028  1.00  0.00     0.040 A 
ATOM     10  C   UNL     1       8.597  -3.010  -3.745  1.00  0.00     0.014 A 
ATOM     11  C   UNL     1       7.935  -1.857  -3.324  1.00  0.00     0.004 A 
ATOM     12  C   UNL     1       8.985  -1.979  -5.908  1.00  0.00     0.014 A 
ATOM     13  C   UNL     1       7.813  -0.752  -4.181  1.00  0.00    -0.051 A 
ATOM     14  C   UNL     1       8.329  -0.826  -5.481  1.00  0.00     0.004 A 
ATOM     15  C   UNL     1       7.173   0.511  -3.685  1.00  0.00     0.044 C 
ENDBRANCH   1   9
BRANCH   6  16
ATOM     16  C   UNL     1      11.322  -6.483  -7.084  1.00  0.00     0.153 C 
BRANCH  16  17
ATOM     17  C   UNL     1      11.668  -7.181  -8.370  1.00  0.00    -0.029 A 
ATOM     18  C   UNL     1      11.142  -6.802  -9.610  1.00  0.00     0.006 A 
ATOM     19  C   UNL     1      12.720  -8.110  -8.335  1.00  0.00     0.006 A 
ATOM     20  C   UNL     1      11.681  -7.327 -10.789  1.00  0.00     0.004 A 
ATOM     21  C   UNL     1      13.258  -8.629  -9.509  1.00  0.00     0.004 A 
ATOM     22  C   UNL     1      12.750  -8.234 -10.747  1.00  0.00    -0.051 A 
ATOM     23  C   UNL     1      13.425  -8.690 -12.006  1.00  0.00     0.044 C 
ENDBRANCH  16  17
ENDBRANCH   6  16
TORSDOF 3
ENDMDL
MODEL 3
REMARK VINA RESULT:    -6.127      0.577      7.977
REMARK INTER + INTRA:          -7.597
REMARK INTER:                  -7.106
REMARK INTRA:                  -0.491
REMARK UNBOUND:                -0.395
REMARK SMILES Cc1ccc(CNC(=O)NC(=O)c2ccc(C)cc2)cc1
REMARK SMILES IDX 11 1 12 2 10 3 8 4 9 5 7 6 13 9 19 10 18 11 14 12 16 13
REMARK SMILES IDX 15 14 17 15 6 16 5 17 4 18 20 19 3 20 21 21 2 22 1 23
REMARK H PARENT 10 7 7 8
ROOT
ATOM      1  C   UNL     1      12.793  -4.582  -4.498  1.00  0.00     0.259 C 
ATOM      2  O   UNL     1      12.032  -3.798  -3.950  1.00  0.00    -0.269 OA
ATOM      3  N   UNL     1      12.554  -5.410  -5.599  1.00  0.00    -0.274 N 
ATOM      4  C   UNL     1      11.611  -5.534  -6.587  1.00  0.00     0.321 C 
ATOM      5  O   UNL     1      11.835  -6.343  -7.495  1.00  0.00    -0.248 OA
ATOM      6  N   UNL     1      10.481  -4.805  -6.634  1.00  0.00    -0.334 N 
ATOM      7  H   UNL     1      13.338  -5.993  -5.861  1.00  0.00     0.175 HD
ATOM      8  H   UNL     1       9.935  -4.955  -7.470  1.00  0.00     0.165 HD
ENDROOT
BRANCH   1   9
ATOM      9  C   UNL     1      14.155  -4.680  -3.939  1.00  0.00     0.040 A 
ATOM     10  C   UNL     1      14.384  -4.620  -2.563  1.00  0.00     0.014 A 
ATOM     11  C   UNL     1      15.683  -4.769  -2.078  1.00  0.00     0.004 A 
ATOM     12  C   UNL     1      15.222  -4.828  -4.831  1.00  0.00     0.014 A 
ATOM     13  C   UNL     1      16.754  -4.970  -2.962  1.00  0.00    -0.051 A 
ATOM     14  C   UNL     1      16.518  -4.983  -4.342  1.00  0.00     0.004 A 
ATOM     15  C   UNL     1      18.133  -5.214  -2.421  1.00  0.00     0.044 C 
ENDBRANCH   1   9
BRANCH   6  16
ATOM     16  C   UNL     1      10.083  -3.749  -5.746  1.00  0.00     0.153 C 
BRANCH  16  17
ATOM     17  C   UNL     1       8.650  -3.735  -5.290  1.00  0.00    -0.029 A 
ATOM     18  C   UNL     1       7.637  -3.056  -5.975  1.00  0.00     0.006 A 
ATOM     19  C   UNL     1       8.296  -4.615  -4.255  1.00  0.00     0.006 A 
ATOM     20  C   UNL     1       6.297  -3.277  -5.642  1.00  0.00     0.004 A 
ATOM     21  C   UNL     1       6.962  -4.837  -3.928  1.00  0.00     0.004 A 
ATOM     22  C   UNL     1       5.950  -4.177  -4.626  1.00  0.00    -0.051 A 
ATOM     23  C   UNL     1       4.516  -4.526  -4.360  1.00  0.00     0.044 C 
ENDBRANCH  16  17
ENDBRANCH   6  16
TORSDOF 3
ENDMDL
MODEL 4
REMARK VINA RESULT:    -6.121      3.126      7.277
REMARK INTER + INTRA:          -7.589
REMARK INTER:                  -7.103
REMARK INTRA:                  -0.486
REMARK UNBOUND:                -0.395
REMARK SMILES Cc1ccc(CNC(=O)NC(=O)c2ccc(C)cc2)cc1
REMARK SMILES IDX 11 1 12 2 10 3 8 4 9 5 7 6 13 9 19 10 18 11 14 12 16 13
REMARK SMILES IDX 15 14 17 15 6 16 5 17 4 18 20 19 3 20 21 21 2 22 1 23
REMARK H PARENT 10 7 7 8
ROOT
ATOM      1  C   UNL     1      11.199  -6.019  -7.363  1.00  0.00     0.259 C 
ATOM      2  O   UNL     1      10.007  -5.748  -7.364  1.00  0.00    -0.269 OA
ATOM      3  N   UNL     1      12.188  -5.611  -6.462  1.00  0.00    -0.274 N 
ATOM      4  C   UNL     1      12.251  -5.033  -5.220  1.00  0.00     0.321 C 
ATOM      5  O   UNL     1      13.360  -4.952  -4.681  1.00  0.00    -0.248 OA
ATOM      6  N   UNL     1      11.173  -4.581  -4.554  1.00  0.00    -0.334 N 
ATOM      7  H   UNL     1      13.116  -5.948  -6.681  1.00  0.00     0.175 HD
ATOM      8  H   UNL     1      11.377  -4.263  -3.618  1.00  0.00     0.165 HD
ENDROOT
BRANCH   1   9
ATOM      9  C   UNL     1      11.679  -6.897  -8.448  1.00  0.00     0.040 A 
ATOM     10  C   UNL     1      11.171  -6.796  -9.744  1.00  0.00     0.014 A 
ATOM     11  C   UNL     1      11.693  -7.612 -10.748  1.00  0.00     0.004 A 
ATOM     12  C   UNL     1      12.659  -7.846  -8.139  1.00  0.00     0.014 A 
ATOM     13  C   UNL     1      12.713  -8.532 -10.460  1.00  0.00    -0.051 A 
ATOM     14  C   UNL     1      13.182  -8.654  -9.147  1.00  0.00     0.004 A 
ATOM     15  C   UNL     1      13.322  -9.342 -11.567  1.00  0.00     0.044 C 
ENDBRANCH   1   9
BRANCH   6  16
ATOM     16  C   UNL     1       9.796  -4.672  -4.951  1.00  0.00     0.153 C 
BRANCH  16  17
ATOM     17  C   UNL     1       8.933  -3.461  -4.731  1.00  0.00    -0.029 A 
ATOM     18  C   UNL     1       8.231  -3.229  -3.544  1.00  0.00     0.006 A 
ATOM     19  C   UNL     1       9.015  -2.431  -5.683  1.00  0.00     0.006 A 
ATOM     20  C   UNL     1       7.645  -1.980  -3.310  1.00  0.00     0.004 A 
ATOM     21  C   UNL     1       8.437  -1.188  -5.446  1.00  0.00     0.004 A 
ATOM     22  C   UNL     1       7.755  -0.949  -4.252  1.00  0.00    -0.051 A 
ATOM     23  C   UNL     1       7.256   0.432  -3.947  1.00  0.00     0.044 C 
ENDBRANCH  16  17
ENDBRANCH   6  16
TORSDOF 3
ENDMDL
MODEL 5
REMARK VINA RESULT:    -5.790      3.006      7.549
REMARK INTER + INTRA:          -7.200
REMARK INTER:                  -6.712
REMARK INTRA:                  -0.488
REMARK UNBOUND:                -0.395
REMARK SMILES Cc1ccc(CNC(=O)NC(=O)c2ccc(C)cc2)cc1
REMARK SMILES IDX 11 1 12 2 10 3 8 4 9 5 7 6 13 9 19 10 18 11 14 12 16 13
REMARK SMILES IDX 15 14 17 15 6 16 5 17 4 18 20 19 3 20 21 21 2 22 1 23
REMARK H PARENT 10 7 7 8
ROOT
ATOM      1  C   UNL     1      11.318  -6.482  -7.400  1.00  0.00     0.259 C 
ATOM      2  O   UNL     1      10.113  -6.595  -7.226  1.00  0.00    -0.269 OA
ATOM      3  N   UNL     1      12.247  -5.752  -6.652  1.00  0.00    -0.274 N 
ATOM      4  C   UNL     1      12.300  -5.133  -5.429  1.00  0.00     0.321 C 
ATOM      5  O   UNL     1      13.393  -4.692  -5.057  1.00  0.00    -0.248 OA
ATOM      6  N   UNL     1      11.240  -5.012  -4.609  1.00  0.00    -0.334 N 
ATOM      7  H   UNL     1      13.193  -5.794  -7.006  1.00  0.00     0.175 HD
ATOM      8  H   UNL     1      11.464  -4.608  -3.711  1.00  0.00     0.165 HD
ENDROOT
BRANCH   1   9
ATOM      9  C   UNL     1      11.890  -7.212  -8.548  1.00  0.00     0.040 A 
ATOM     10  C   UNL     1      12.949  -8.107  -8.388  1.00  0.00     0.014 A 
ATOM     11  C   UNL     1      13.422  -8.813  -9.494  1.00  0.00     0.004 A 
ATOM     12  C   UNL     1      11.344  -6.976  -9.814  1.00  0.00     0.014 A 
ATOM     13  C   UNL     1      12.847  -8.622 -10.760  1.00  0.00    -0.051 A 
ATOM     14  C   UNL     1      11.815  -7.688 -10.916  1.00  0.00     0.004 A 
ATOM     15  C   UNL     1      13.309  -9.450 -11.922  1.00  0.00     0.044 C 
ENDBRANCH   1   9
BRANCH   6  16
ATOM     16  C   UNL     1       9.919  -5.541  -4.801  1.00  0.00     0.153 C 
BRANCH  16  17
ATOM     17  C   UNL     1       8.770  -4.575  -4.712  1.00  0.00    -0.029 A 
ATOM     18  C   UNL     1       7.680  -4.763  -3.856  1.00  0.00     0.006 A 
ATOM     19  C   UNL     1       8.915  -3.340  -5.365  1.00  0.00     0.006 A 
ATOM     20  C   UNL     1       6.770  -3.721  -3.642  1.00  0.00     0.004 A 
ATOM     21  C   UNL     1       8.012  -2.304  -5.148  1.00  0.00     0.004 A 
ATOM     22  C   UNL     1       6.937  -2.482  -4.276  1.00  0.00    -0.051 A 
ATOM     23  C   UNL     1       6.051  -1.320  -3.943  1.00  0.00     0.044 C 
ENDBRANCH  16  17
ENDBRANCH   6  16
TORSDOF 3
ENDMDL
MODEL 6
REMARK VINA RESULT:    -5.336      3.142      5.110
REMARK INTER + INTRA:          -6.667
REMARK INTER:                  -6.185
REMARK INTRA:                  -0.482
REMARK UNBOUND:                -0.395
REMARK SMILES Cc1ccc(CNC(=O)NC(=O)c2ccc(C)cc2)cc1
REMARK SMILES IDX 11 1 12 2 10 3 8 4 9 5 7 6 13 9 19 10 18 11 14 12 16 13
REMARK SMILES IDX 15 14 17 15 6 16 5 17 4 18 20 19 3 20 21 21 2 22 1 23
REMARK H PARENT 10 7 7 8
ROOT
ATOM      1  C   UNL     1       9.363  -4.523  -5.007  1.00  0.00     0.259 C 
ATOM      2  O   UNL     1       9.101  -5.677  -5.315  1.00  0.00    -0.269 OA
ATOM      3  N   UNL     1      10.606  -3.881  -4.991  1.00  0.00    -0.274 N 
ATOM      4  C   UNL     1      11.869  -4.108  -5.473  1.00  0.00     0.321 C 
ATOM      5  O   UNL     1      12.698  -3.199  -5.357  1.00  0.00    -0.248 OA
ATOM      6  N   UNL     1      12.238  -5.247  -6.087  1.00  0.00    -0.334 N 
ATOM      7  H   UNL     1      10.575  -2.921  -4.676  1.00  0.00     0.175 HD
ATOM      8  H   UNL     1      13.176  -5.223  -6.460  1.00  0.00     0.165 HD
ENDROOT
BRANCH   1   9
ATOM      9  C   UNL     1       8.227  -3.674  -4.600  1.00  0.00     0.040 A 
ATOM     10  C   UNL     1       8.426  -2.442  -3.974  1.00  0.00     0.014 A 
ATOM     11  C   UNL     1       7.322  -1.650  -3.656  1.00  0.00     0.004 A 
ATOM     12  C   UNL     1       6.933  -4.142  -4.853  1.00  0.00     0.014 A 
ATOM     13  C   UNL     1       6.022  -2.088  -3.952  1.00  0.00    -0.051 A 
ATOM     14  C   UNL     1       5.834  -3.345  -4.538  1.00  0.00     0.004 A 
ATOM     15  C   UNL     1       4.852  -1.189  -3.680  1.00  0.00     0.044 C 
ENDBRANCH   1   9
BRANCH   6  16
ATOM     16  C   UNL     1      11.411  -6.374  -6.413  1.00  0.00     0.153 C 
BRANCH  16  17
ATOM     17  C   UNL     1      11.557  -6.963  -7.789  1.00  0.00    -0.029 A 
ATOM     18  C   UNL     1      10.853  -6.489  -8.901  1.00  0.00     0.006 A 
ATOM     19  C   UNL     1      12.600  -7.882  -7.988  1.00  0.00     0.006 A 
ATOM     20  C   UNL     1      11.207  -6.912 -10.187  1.00  0.00     0.004 A 
ATOM     21  C   UNL     1      12.954  -8.298  -9.268  1.00  0.00     0.004 A 
ATOM     22  C   UNL     1      12.267  -7.808 -10.379  1.00  0.00    -0.051 A 
ATOM     23  C   UNL     1      12.744  -8.154 -11.758  1.00  0.00     0.044 C 
ENDBRANCH  16  17
ENDBRANCH   6  16
TORSDOF 3
ENDMDL
MODEL 7
REMARK VINA RESULT:    -5.043      1.871      7.632
REMARK INTER + INTRA:          -6.322
REMARK INTER:                  -5.843
REMARK INTRA:                  -0.479
REMARK UNBOUND:                -0.395
REMARK SMILES Cc1ccc(CNC(=O)NC(=O)c2ccc(C)cc2)cc1
REMARK SMILES IDX 11 1 12 2 10 3 8 4 9 5 7 6 13 9 19 10 18 11 14 12 16 13
REMARK SMILES IDX 15 14 17 15 6 16 5 17 4 18 20 19 3 20 21 21 2 22 1 23
REMARK H PARENT 10 7 7 8
ROOT
ATOM      1  C   UNL     1      12.596  -4.303  -4.532  1.00  0.00     0.259 C 
ATOM      2  O   UNL     1      12.264  -3.132  -4.650  1.00  0.00    -0.269 OA
ATOM      3  N   UNL     1      11.883  -5.455  -4.878  1.00  0.00    -0.274 N 
ATOM      4  C   UNL     1      10.778  -5.776  -5.624  1.00  0.00     0.321 C 
ATOM      5  O   UNL     1      10.536  -6.975  -5.803  1.00  0.00    -0.248 OA
ATOM      6  N   UNL     1       9.971  -4.860  -6.191  1.00  0.00    -0.334 N 
ATOM      7  H   UNL     1      12.359  -6.321  -4.664  1.00  0.00     0.175 HD
ATOM      8  H   UNL     1       9.253  -5.259  -6.779  1.00  0.00     0.165 HD
ENDROOT
BRANCH   1   9
ATOM      9  C   UNL     1      13.929  -4.556  -3.951  1.00  0.00     0.040 A 
ATOM     10  C   UNL     1      14.107  -4.705  -2.575  1.00  0.00     0.014 A 
ATOM     11  C   UNL     1      15.378  -4.996  -2.077  1.00  0.00     0.004 A 
ATOM     12  C   UNL     1      15.020  -4.636  -4.822  1.00  0.00     0.014 A 
ATOM     13  C   UNL     1      16.470  -5.129  -2.948  1.00  0.00    -0.051 A 
ATOM     14  C   UNL     1      16.286  -4.932  -4.322  1.00  0.00     0.004 A 
ATOM     15  C   UNL     1      17.813  -5.525  -2.406  1.00  0.00     0.044 C 
ENDBRANCH   1   9
BRANCH   6  16
ATOM     16  C   UNL     1      10.130  -3.434  -6.194  1.00  0.00     0.153 C 
BRANCH  16  17
ATOM     17  C   UNL     1       9.113  -2.624  -5.440  1.00  0.00    -0.029 A 
ATOM     18  C   UNL     1       8.725  -2.916  -4.128  1.00  0.00     0.006 A 
ATOM     19  C   UNL     1       8.703  -1.409  -6.014  1.00  0.00     0.006 A 
ATOM     20  C   UNL     1       7.963  -1.995  -3.402  1.00  0.00     0.004 A 
ATOM     21  C   UNL     1       7.950  -0.492  -5.289  1.00  0.00     0.004 A 
ATOM     22  C   UNL     1       7.581  -0.772  -3.972  1.00  0.00    -0.051 A 
ATOM     23  C   UNL     1       6.889   0.278  -3.155  1.00  0.00     0.044 C 
ENDBRANCH  16  17
ENDBRANCH   6  16
TORSDOF 3
ENDMDL
MODEL 8
REMARK VINA RESULT:    -4.754      3.854      7.800
REMARK INTER + INTRA:          -5.982
REMARK INTER:                  -5.574
REMARK INTRA:                  -0.408
REMARK UNBOUND:                -0.395
REMARK SMILES Cc1ccc(CNC(=O)NC(=O)c2ccc(C)cc2)cc1
REMARK SMILES IDX 11 1 12 2 10 3 8 4 9 5 7 6 13 9 19 10 18 11 14 12 16 13
REMARK SMILES IDX 15 14 17 15 6 16 5 17 4 18 20 19 3 20 21 21 2 22 1 23
REMARK H PARENT 10 7 7 8
ROOT
ATOM      1  C   UNL     1      10.711  -5.817  -6.661  1.00  0.00     0.259 C 
ATOM      2  O   UNL     1      10.580  -4.617  -6.857  1.00  0.00    -0.269 OA
ATOM      3  N   UNL     1      10.378  -6.560  -5.524  1.00  0.00    -0.274 N 
ATOM      4  C   UNL     1       9.636  -6.389  -4.383  1.00  0.00     0.321 C 
ATOM      5  O   UNL     1       9.471  -7.372  -3.654  1.00  0.00    -0.248 OA
ATOM      6  N   UNL     1       9.059  -5.222  -4.039  1.00  0.00    -0.334 N 
ATOM      7  H   UNL     1      10.602  -7.544  -5.588  1.00  0.00     0.175 HD
ATOM      8  H   UNL     1       8.477  -5.284  -3.216  1.00  0.00     0.165 HD
ENDROOT
BRANCH   1   9
ATOM      9  C   UNL     1      11.294  -6.607  -7.763  1.00  0.00     0.040 A 
ATOM     10  C   UNL     1      10.801  -6.512  -9.066  1.00  0.00     0.014 A 
ATOM     11  C   UNL     1      11.418  -7.239 -10.085  1.00  0.00     0.004 A 
ATOM     12  C   UNL     1      12.357  -7.465  -7.465  1.00  0.00     0.014 A 
ATOM     13  C   UNL     1      12.519  -8.063  -9.806  1.00  0.00    -0.051 A 
ATOM     14  C   UNL     1      12.974  -8.184  -8.487  1.00  0.00     0.004 A 
ATOM     15  C   UNL     1      13.224  -8.771 -10.925  1.00  0.00     0.044 C 
ENDBRANCH   1   9
BRANCH   6  16
ATOM     16  C   UNL     1       9.040  -3.999  -4.790  1.00  0.00     0.153 C 
BRANCH  16  17
ATOM     17  C   UNL     1       7.786  -3.172  -4.730  1.00  0.00    -0.029 A 
ATOM     18  C   UNL     1       6.539  -3.645  -5.153  1.00  0.00     0.006 A 
ATOM     19  C   UNL     1       7.848  -1.959  -4.026  1.00  0.00     0.006 A 
ATOM     20  C   UNL     1       5.379  -2.925  -4.851  1.00  0.00     0.004 A 
ATOM     21  C   UNL     1       6.693  -1.246  -3.722  1.00  0.00     0.004 A 
ATOM     22  C   UNL     1       5.446  -1.728  -4.123  1.00  0.00    -0.051 A 
ATOM     23  C   UNL     1       4.199  -1.027  -3.674  1.00  0.00     0.044 C 
ENDBRANCH  16  17
ENDBRANCH   6  16
TORSDOF 3
ENDMDL
MODEL 9
REMARK VINA RESULT:    -4.653      2.112      3.709
REMARK INTER + INTRA:          -5.864
REMARK INTER:                  -5.387
REMARK INTRA:                  -0.477
REMARK UNBOUND:                -0.395
REMARK SMILES Cc1ccc(CNC(=O)NC(=O)c2ccc(C)cc2)cc1
REMARK SMILES IDX 11 1 12 2 10 3 8 4 9 5 7 6 13 9 19 10 18 11 14 12 16 13
REMARK SMILES IDX 15 14 17 15 6 16 5 17 4 18 20 19 3 20 21 21 2 22 1 23
REMARK H PARENT 10 7 7 8
ROOT
ATOM      1  C   UNL     1      13.443  -4.357  -4.552  1.00  0.00     0.259 C 
ATOM      2  O   UNL     1      13.754  -3.818  -3.499  1.00  0.00    -0.269 OA
ATOM      3  N   UNL     1      14.267  -4.994  -5.486  1.00  0.00    -0.274 N 
ATOM      4  C   UNL     1      15.551  -5.471  -5.546  1.00  0.00     0.321 C 
ATOM      5  O   UNL     1      15.877  -6.116  -6.548  1.00  0.00    -0.248 OA
ATOM      6  N   UNL     1      16.455  -5.299  -4.563  1.00  0.00    -0.334 N 
ATOM      7  H   UNL     1      13.780  -5.348  -6.298  1.00  0.00     0.175 HD
ATOM      8  H   UNL     1      17.327  -5.784  -4.723  1.00  0.00     0.165 HD
ENDROOT
BRANCH   1   9
ATOM      9  C   UNL     1      12.009  -4.350  -4.899  1.00  0.00     0.040 A 
ATOM     10  C   UNL     1      11.183  -5.436  -4.602  1.00  0.00     0.014 A 
ATOM     11  C   UNL     1       9.823  -5.362  -4.902  1.00  0.00     0.004 A 
ATOM     12  C   UNL     1      11.496  -3.222  -5.545  1.00  0.00     0.014 A 
ATOM     13  C   UNL     1       9.287  -4.213  -5.504  1.00  0.00    -0.051 A 
ATOM     14  C   UNL     1      10.135  -3.150  -5.838  1.00  0.00     0.004 A 
ATOM     15  C   UNL     1       7.809  -4.115  -5.743  1.00  0.00     0.044 C 
ENDBRANCH   1   9
BRANCH   6  16
ATOM     16  C   UNL     1      16.253  -4.677  -3.285  1.00  0.00     0.153 C 
BRANCH  16  17
ATOM     17  C   UNL     1      16.769  -5.404  -2.075  1.00  0.00    -0.029 A 
ATOM     18  C   UNL     1      16.027  -6.372  -1.391  1.00  0.00     0.006 A 
ATOM     19  C   UNL     1      18.129  -5.245  -1.761  1.00  0.00     0.006 A 
ATOM     20  C   UNL     1      16.645  -7.179  -0.430  1.00  0.00     0.004 A 
ATOM     21  C   UNL     1      18.744  -6.051  -0.808  1.00  0.00     0.004 A 
ATOM     22  C   UNL     1      18.009  -7.033  -0.141  1.00  0.00    -0.051 A 
ATOM     23  C   UNL     1      18.709  -7.986   0.781  1.00  0.00     0.044 C 
ENDBRANCH  16  17
ENDBRANCH   6  16
TORSDOF 3
ENDMDL
