MODEL 1
REMARK VINA RESULT:    -4.325      0.000      0.000
REMARK INTER + INTRA:          -5.959
REMARK INTER:                  -5.716
REMARK INTRA:                  -0.243
REMARK UNBOUND:                -0.243
REMARK SMILES [H]/N=C\C[C@H]1C[C@@H]1O[C@H]1CO[C@H]2C[C@@H](C3CC3)CCN2C1
REMARK SMILES IDX 7 1 6 2 5 3 8 4 9 5 14 6 13 7 18 8 12 9 19 10 20 11 11 12
REMARK SMILES IDX 21 13 10 14 15 15 16 16 17 17 4 18 3 19 2 20 1 21
REMARK H PARENT
ROOT
ATOM      1  C   UNL     1      13.321   1.333   2.221  1.00  0.00     0.122 C 
ATOM      2  C   UNL     1      14.380   0.702   3.081  1.00  0.00     0.039 C 
ATOM      3  C   UNL     1      14.076   0.130   1.726  1.00  0.00     0.026 C 
ENDROOT
BRANCH   1   4
ATOM      4  O   UNL     1      11.976   1.104   2.683  1.00  0.00    -0.371 OA
BRANCH   4   5
ATOM      5  C   UNL     1      11.572   1.881   3.823  1.00  0.00     0.158 C 
ATOM      6  C   UNL     1       6.831   3.291   2.168  1.00  0.00    -0.003 C 
ATOM      7  C   UNL     1       8.275   3.662   1.808  1.00  0.00     0.052 C 
ATOM      8  C   UNL     1       6.780   1.823   2.613  1.00  0.00     0.019 C 
ATOM      9  C   UNL     1       9.251   3.318   2.941  1.00  0.00     0.189 C 
ATOM     10  C   UNL     1       7.797   1.539   3.718  1.00  0.00     0.087 C 
ATOM     11  N   UNL     1       9.149   1.900   3.290  1.00  0.00    -0.276 NA
ATOM     12  O   UNL     1      10.557   3.662   2.475  1.00  0.00    -0.360 OA
ATOM     13  C   UNL     1      10.148   1.553   4.306  1.00  0.00     0.121 C 
ATOM     14  C   UNL     1      11.587   3.360   3.420  1.00  0.00     0.195 C 
BRANCH   6  15
ATOM     15  C   UNL     1       5.892   3.526   1.006  1.00  0.00    -0.008 C 
ATOM     16  C   UNL     1       4.567   4.218   1.223  1.00  0.00     0.004 C 
ATOM     17  C   UNL     1       5.660   4.918   0.468  1.00  0.00     0.004 C 
ENDBRANCH   6  15
ENDBRANCH   4   5
ENDBRANCH   1   4
BRANCH   3  18
ATOM     18  C   UNL     1      15.092   0.273   0.632  1.00  0.00     0.053 C 
BRANCH  18  19
ATOM     19  C   UNL     1      16.455  -0.307   0.909  1.00  0.00     0.074 C 
BRANCH  19  20
ATOM     20  N   UNL     1      16.758  -1.562   0.911  1.00  0.00    -0.313 NA
ATOM     21  H   UNL     1      15.950  -2.147   1.167  1.00  0.00     0.186 HD
ENDBRANCH  19  20
ENDBRANCH  18  19
ENDBRANCH   3  18
TORSDOF 6
ENDMDL
MODEL 2
REMARK VINA RESULT:    -4.293      3.302      5.530
REMARK INTER + INTRA:          -5.917
REMARK INTER:                  -5.710
REMARK INTRA:                  -0.207
REMARK UNBOUND:                -0.243
REMARK SMILES [H]/N=C\C[C@H]1C[C@@H]1O[C@H]1CO[C@H]2C[C@@H](C3CC3)CCN2C1
REMARK SMILES IDX 7 1 6 2 5 3 8 4 9 5 14 6 13 7 18 8 12 9 19 10 20 11 11 12
REMARK SMILES IDX 21 13 10 14 15 15 16 16 17 17 4 18 3 19 2 20 1 21
REMARK H PARENT
ROOT
ATOM      1  C   UNL     1      12.025   4.992   5.151  1.00  0.00     0.122 C 
ATOM      2  C   UNL     1      13.171   5.943   4.951  1.00  0.00     0.039 C 
ATOM      3  C   UNL     1      12.043   6.312   5.872  1.00  0.00     0.026 C 
ENDROOT
BRANCH   1   4
ATOM      4  O   UNL     1      11.143   4.888   4.017  1.00  0.00    -0.371 OA
BRANCH   4   5
ATOM      5  C   UNL     1      11.641   4.115   2.913  1.00  0.00     0.158 C 
ATOM      6  C   UNL     1       7.259   1.552   1.713  1.00  0.00    -0.003 C 
ATOM      7  C   UNL     1       8.285   1.500   2.851  1.00  0.00     0.052 C 
ATOM      8  C   UNL     1       7.140   2.996   1.203  1.00  0.00     0.019 C 
ATOM      9  C   UNL     1       9.623   2.131   2.442  1.00  0.00     0.189 C 
ATOM     10  C   UNL     1       8.508   3.576   0.846  1.00  0.00     0.087 C 
ATOM     11  N   UNL     1       9.421   3.506   1.987  1.00  0.00    -0.276 NA
ATOM     12  O   UNL     1      10.473   2.065   3.589  1.00  0.00    -0.360 OA
ATOM     13  C   UNL     1      10.710   4.138   1.688  1.00  0.00     0.121 C 
ATOM     14  C   UNL     1      11.758   2.656   3.369  1.00  0.00     0.195 C 
BRANCH   6  15
ATOM     15  C   UNL     1       5.910   1.034   2.157  1.00  0.00    -0.008 C 
ATOM     16  C   UNL     1       5.087   0.161   1.240  1.00  0.00     0.004 C 
ATOM     17  C   UNL     1       5.709  -0.429   2.472  1.00  0.00     0.004 C 
ENDBRANCH   6  15
ENDBRANCH   4   5
ENDBRANCH   1   4
BRANCH   3  18
ATOM     18  C   UNL     1      12.298   6.363   7.349  1.00  0.00     0.053 C 
BRANCH  18  19
ATOM     19  C   UNL     1      13.439   7.238   7.798  1.00  0.00     0.074 C 
BRANCH  19  20
ATOM     20  N   UNL     1      13.385   8.514   7.991  1.00  0.00    -0.313 NA
ATOM     21  H   UNL     1      12.601   8.943   7.478  1.00  0.00     0.186 HD
ENDBRANCH  19  20
ENDBRANCH  18  19
ENDBRANCH   3  18
TORSDOF 6
ENDMDL
MODEL 3
REMARK VINA RESULT:    -4.173      4.988      7.351
REMARK INTER + INTRA:          -5.757
REMARK INTER:                  -5.498
REMARK INTRA:                  -0.259
REMARK UNBOUND:                -0.243
REMARK SMILES [H]/N=C\C[C@H]1C[C@@H]1O[C@H]1CO[C@H]2C[C@@H](C3CC3)CCN2C1
REMARK SMILES IDX 7 1 6 2 5 3 8 4 9 5 14 6 13 7 18 8 12 9 19 10 20 11 11 12
REMARK SMILES IDX 21 13 10 14 15 15 16 16 17 17 4 18 3 19 2 20 1 21
REMARK H PARENT
ROOT
ATOM      1  C   UNL     1      13.436   6.487   8.484  1.00  0.00     0.122 C 
ATOM      2  C   UNL     1      12.883   6.379   9.877  1.00  0.00     0.039 C 
ATOM      3  C   UNL     1      14.103   5.592   9.493  1.00  0.00     0.026 C 
ENDROOT
BRANCH   1   4
ATOM      4  O   UNL     1      12.631   5.839   7.480  1.00  0.00    -0.371 OA
BRANCH   4   5
ATOM      5  C   UNL     1      12.536   6.528   6.223  1.00  0.00     0.158 C 
ATOM      6  C   UNL     1      12.445   2.379   3.063  1.00  0.00    -0.003 C 
ATOM      7  C   UNL     1      13.502   3.078   3.927  1.00  0.00     0.052 C 
ATOM      8  C   UNL     1      11.070   2.519   3.731  1.00  0.00     0.019 C 
ATOM      9  C   UNL     1      13.107   4.526   4.249  1.00  0.00     0.189 C 
ATOM     10  C   UNL     1      10.753   3.978   4.056  1.00  0.00     0.087 C 
ATOM     11  N   UNL     1      11.796   4.566   4.897  1.00  0.00    -0.276 NA
ATOM     12  O   UNL     1      14.136   5.053   5.089  1.00  0.00    -0.360 OA
ATOM     13  C   UNL     1      11.463   5.940   5.289  1.00  0.00     0.121 C 
ATOM     14  C   UNL     1      13.885   6.398   5.506  1.00  0.00     0.195 C 
BRANCH   6  15
ATOM     15  C   UNL     1      12.783   0.921   2.845  1.00  0.00    -0.008 C 
ATOM     16  C   UNL     1      13.468   0.478   1.574  1.00  0.00     0.004 C 
ATOM     17  C   UNL     1      14.216   0.446   2.875  1.00  0.00     0.004 C 
ENDBRANCH   6  15
ENDBRANCH   4   5
ENDBRANCH   1   4
BRANCH   3  18
ATOM     18  C   UNL     1      15.428   5.974  10.082  1.00  0.00     0.053 C 
BRANCH  18  19
ATOM     19  C   UNL     1      16.614   5.158   9.638  1.00  0.00     0.074 C 
BRANCH  19  20
ATOM     20  N   UNL     1      16.698   4.477   8.543  1.00  0.00    -0.313 NA
ATOM     21  H   UNL     1      15.768   4.219   8.185  1.00  0.00     0.186 HD
ENDBRANCH  19  20
ENDBRANCH  18  19
ENDBRANCH   3  18
TORSDOF 6
ENDMDL
MODEL 4
REMARK VINA RESULT:    -4.139      8.232     10.665
REMARK INTER + INTRA:          -5.713
REMARK INTER:                  -5.460
REMARK INTRA:                  -0.252
REMARK UNBOUND:                -0.243
REMARK SMILES [H]/N=C\C[C@H]1C[C@@H]1O[C@H]1CO[C@H]2C[C@@H](C3CC3)CCN2C1
REMARK SMILES IDX 7 1 6 2 5 3 8 4 9 5 14 6 13 7 18 8 12 9 19 10 20 11 11 12
REMARK SMILES IDX 21 13 10 14 15 15 16 16 17 17 4 18 3 19 2 20 1 21
REMARK H PARENT
ROOT
ATOM      1  C   UNL     1      16.896  10.495   8.718  1.00  0.00     0.122 C 
ATOM      2  C   UNL     1      17.252  11.857   8.192  1.00  0.00     0.039 C 
ATOM      3  C   UNL     1      15.818  11.412   8.207  1.00  0.00     0.026 C 
ENDROOT
BRANCH   1   4
ATOM      4  O   UNL     1      17.285   9.412   7.852  1.00  0.00    -0.371 OA
BRANCH   4   5
ATOM      5  C   UNL     1      17.313   8.111   8.462  1.00  0.00     0.158 C 
ATOM      6  C   UNL     1      13.786   5.749   5.432  1.00  0.00    -0.003 C 
ATOM      7  C   UNL     1      13.749   6.809   6.539  1.00  0.00     0.052 C 
ATOM      8  C   UNL     1      15.099   5.880   4.647  1.00  0.00     0.019 C 
ATOM      9  C   UNL     1      15.008   6.763   7.415  1.00  0.00     0.189 C 
ATOM     10  C   UNL     1      16.311   5.862   5.579  1.00  0.00     0.087 C 
ATOM     11  N   UNL     1      16.208   6.912   6.592  1.00  0.00    -0.276 NA
ATOM     12  O   UNL     1      14.879   7.817   8.371  1.00  0.00    -0.360 OA
ATOM     13  C   UNL     1      17.404   6.964   7.440  1.00  0.00     0.121 C 
ATOM     14  C   UNL     1      16.008   7.923   9.243  1.00  0.00     0.195 C 
BRANCH   6  15
ATOM     15  C   UNL     1      12.599   5.873   4.504  1.00  0.00    -0.008 C 
ATOM     16  C   UNL     1      11.657   4.708   4.307  1.00  0.00     0.004 C 
ATOM     17  C   UNL     1      11.193   5.927   5.050  1.00  0.00     0.004 C 
ENDBRANCH   6  15
ENDBRANCH   4   5
ENDBRANCH   1   4
BRANCH   3  18
ATOM     18  C   UNL     1      14.864  12.064   9.163  1.00  0.00     0.053 C 
BRANCH  18  19
ATOM     19  C   UNL     1      13.432  11.601   9.095  1.00  0.00     0.074 C 
BRANCH  19  20
ATOM     20  N   UNL     1      12.451  12.071   9.790  1.00  0.00    -0.313 NA
ATOM     21  H   UNL     1      12.502  11.768  10.773  1.00  0.00     0.186 HD
ENDBRANCH  19  20
ENDBRANCH  18  19
ENDBRANCH   3  18
TORSDOF 6
ENDMDL
MODEL 5
REMARK VINA RESULT:    -4.038      5.158      8.400
REMARK INTER + INTRA:          -5.580
REMARK INTER:                  -5.323
REMARK INTRA:                  -0.257
REMARK UNBOUND:                -0.243
REMARK SMILES [H]/N=C\C[C@H]1C[C@@H]1O[C@H]1CO[C@H]2C[C@@H](C3CC3)CCN2C1
REMARK SMILES IDX 7 1 6 2 5 3 8 4 9 5 14 6 13 7 18 8 12 9 19 10 20 11 11 12
REMARK SMILES IDX 21 13 10 14 15 15 16 16 17 17 4 18 3 19 2 20 1 21
REMARK H PARENT
ROOT
ATOM      1  C   UNL     1      11.185   3.210   3.662  1.00  0.00     0.122 C 
ATOM      2  C   UNL     1      11.667   1.811   3.401  1.00  0.00     0.039 C 
ATOM      3  C   UNL     1      10.476   2.040   4.287  1.00  0.00     0.026 C 
ENDROOT
BRANCH   1   4
ATOM      4  O   UNL     1      12.047   3.977   4.524  1.00  0.00    -0.371 OA
BRANCH   4   5
ATOM      5  C   UNL     1      12.112   5.384   4.242  1.00  0.00     0.158 C 
ATOM      6  C   UNL     1      14.369   6.966   8.670  1.00  0.00    -0.003 C 
ATOM      7  C   UNL     1      12.983   6.449   8.268  1.00  0.00     0.052 C 
ATOM      8  C   UNL     1      15.434   6.304   7.784  1.00  0.00     0.019 C 
ATOM      9  C   UNL     1      12.730   6.606   6.762  1.00  0.00     0.189 C 
ATOM     10  C   UNL     1      15.106   6.467   6.300  1.00  0.00     0.087 C 
ATOM     11  N   UNL     1      13.779   5.934   5.996  1.00  0.00    -0.276 NA
ATOM     12  O   UNL     1      11.438   6.053   6.504  1.00  0.00    -0.360 OA
ATOM     13  C   UNL     1      13.485   6.004   4.560  1.00  0.00     0.121 C 
ATOM     14  C   UNL     1      11.077   6.094   5.121  1.00  0.00     0.195 C 
BRANCH   6  15
ATOM     15  C   UNL     1      14.657   6.705  10.131  1.00  0.00    -0.008 C 
ATOM     16  C   UNL     1      15.261   7.786  10.996  1.00  0.00     0.004 C 
ATOM     17  C   UNL     1      13.836   7.366  11.212  1.00  0.00     0.004 C 
ENDBRANCH   6  15
ENDBRANCH   4   5
ENDBRANCH   1   4
BRANCH   3  18
ATOM     18  C   UNL     1       9.118   1.630   3.799  1.00  0.00     0.053 C 
BRANCH  18  19
ATOM     19  C   UNL     1       8.210   0.990   4.817  1.00  0.00     0.074 C 
BRANCH  19  20
ATOM     20  N   UNL     1       8.583   0.228   5.791  1.00  0.00    -0.313 NA
ATOM     21  H   UNL     1       7.779  -0.231   6.242  1.00  0.00     0.186 HD
ENDBRANCH  19  20
ENDBRANCH  18  19
ENDBRANCH   3  18
TORSDOF 6
ENDMDL
MODEL 6
REMARK VINA RESULT:    -3.879      5.122      7.865
REMARK INTER + INTRA:          -5.370
REMARK INTER:                  -5.454
REMARK INTRA:                   0.085
REMARK UNBOUND:                -0.243
REMARK SMILES [H]/N=C\C[C@H]1C[C@@H]1O[C@H]1CO[C@H]2C[C@@H](C3CC3)CCN2C1
REMARK SMILES IDX 7 1 6 2 5 3 8 4 9 5 14 6 13 7 18 8 12 9 19 10 20 11 11 12
REMARK SMILES IDX 21 13 10 14 15 15 16 16 17 17 4 18 3 19 2 20 1 21
REMARK H PARENT
ROOT
ATOM      1  C   UNL     1      12.639   6.469   8.584  1.00  0.00     0.122 C 
ATOM      2  C   UNL     1      13.178   5.804   9.819  1.00  0.00     0.039 C 
ATOM      3  C   UNL     1      13.942   6.928   9.180  1.00  0.00     0.026 C 
ENDROOT
BRANCH   1   4
ATOM      4  O   UNL     1      12.724   5.659   7.396  1.00  0.00    -0.371 OA
BRANCH   4   5
ATOM      5  C   UNL     1      12.579   6.365   6.153  1.00  0.00     0.158 C 
ATOM      6  C   UNL     1      12.382   2.262   2.939  1.00  0.00    -0.003 C 
ATOM      7  C   UNL     1      13.468   2.953   3.773  1.00  0.00     0.052 C 
ATOM      8  C   UNL     1      11.033   2.387   3.660  1.00  0.00     0.019 C 
ATOM      9  C   UNL     1      13.082   4.394   4.130  1.00  0.00     0.189 C 
ATOM     10  C   UNL     1      10.724   3.841   4.018  1.00  0.00     0.087 C 
ATOM     11  N   UNL     1      11.796   4.420   4.827  1.00  0.00    -0.276 NA
ATOM     12  O   UNL     1      14.140   4.913   4.938  1.00  0.00    -0.360 OA
ATOM     13  C   UNL     1      11.474   5.787   5.252  1.00  0.00     0.121 C 
ATOM     14  C   UNL     1      13.900   6.251   5.384  1.00  0.00     0.195 C 
BRANCH   6  15
ATOM     15  C   UNL     1      12.716   0.809   2.688  1.00  0.00    -0.008 C 
ATOM     16  C   UNL     1      13.516   0.409   1.470  1.00  0.00     0.004 C 
ATOM     17  C   UNL     1      14.131   0.304   2.835  1.00  0.00     0.004 C 
ENDBRANCH   6  15
ENDBRANCH   4   5
ENDBRANCH   1   4
BRANCH   3  18
ATOM     18  C   UNL     1      14.025   8.246   9.891  1.00  0.00     0.053 C 
BRANCH  18  19
ATOM     19  C   UNL     1      14.666   9.375   9.127  1.00  0.00     0.074 C 
BRANCH  19  20
ATOM     20  N   UNL     1      14.946   9.373   7.866  1.00  0.00    -0.313 NA
ATOM     21  H   UNL     1      15.916   9.072   7.693  1.00  0.00     0.186 HD
ENDBRANCH  19  20
ENDBRANCH  18  19
ENDBRANCH   3  18
TORSDOF 6
ENDMDL
MODEL 7
REMARK VINA RESULT:    -3.860      3.633      5.062
REMARK INTER + INTRA:          -5.345
REMARK INTER:                  -5.633
REMARK INTRA:                   0.288
REMARK UNBOUND:                -0.243
REMARK SMILES [H]/N=C\C[C@H]1C[C@@H]1O[C@H]1CO[C@H]2C[C@@H](C3CC3)CCN2C1
REMARK SMILES IDX 7 1 6 2 5 3 8 4 9 5 14 6 13 7 18 8 12 9 19 10 20 11 11 12
REMARK SMILES IDX 21 13 10 14 15 15 16 16 17 17 4 18 3 19 2 20 1 21
REMARK H PARENT
ROOT
ATOM      1  C   UNL     1      16.383   0.378  -0.281  1.00  0.00     0.122 C 
ATOM      2  C   UNL     1      17.505   1.205  -0.843  1.00  0.00     0.039 C 
ATOM      3  C   UNL     1      17.810   0.039   0.053  1.00  0.00     0.026 C 
ENDROOT
BRANCH   1   4
ATOM      4  O   UNL     1      15.621   1.042   0.745  1.00  0.00    -0.371 OA
BRANCH   4   5
ATOM      5  C   UNL     1      14.978   0.179   1.696  1.00  0.00     0.158 C 
ATOM      6  C   UNL     1      11.856   3.692   3.958  1.00  0.00    -0.003 C 
ATOM      7  C   UNL     1      13.361   3.394   3.964  1.00  0.00     0.052 C 
ATOM      8  C   UNL     1      11.272   3.326   2.586  1.00  0.00     0.019 C 
ATOM      9  C   UNL     1      13.659   1.955   3.521  1.00  0.00     0.189 C 
ATOM     10  C   UNL     1      11.633   1.894   2.190  1.00  0.00     0.087 C 
ATOM     11  N   UNL     1      13.083   1.698   2.201  1.00  0.00    -0.276 NA
ATOM     12  O   UNL     1      15.081   1.814   3.522  1.00  0.00    -0.360 OA
ATOM     13  C   UNL     1      13.450   0.355   1.739  1.00  0.00     0.121 C 
ATOM     14  C   UNL     1      15.516   0.521   3.089  1.00  0.00     0.195 C 
BRANCH   6  15
ATOM     15  C   UNL     1      11.576   5.141   4.284  1.00  0.00    -0.008 C 
ATOM     16  C   UNL     1      11.399   5.581   5.719  1.00  0.00     0.004 C 
ATOM     17  C   UNL     1      12.622   5.999   4.955  1.00  0.00     0.004 C 
ENDBRANCH   6  15
ENDBRANCH   4   5
ENDBRANCH   1   4
BRANCH   3  18
ATOM     18  C   UNL     1      18.455  -1.180  -0.536  1.00  0.00     0.053 C 
BRANCH  18  19
ATOM     19  C   UNL     1      18.535  -2.389   0.360  1.00  0.00     0.074 C 
BRANCH  19  20
ATOM     20  N   UNL     1      17.792  -3.442   0.279  1.00  0.00    -0.313 NA
ATOM     21  H   UNL     1      18.339  -4.304   0.414  1.00  0.00     0.186 HD
ENDBRANCH  19  20
ENDBRANCH  18  19
ENDBRANCH   3  18
TORSDOF 6
ENDMDL
MODEL 8
REMARK VINA RESULT:    -3.505      7.827     10.400
REMARK INTER + INTRA:          -4.875
REMARK INTER:                  -4.889
REMARK INTRA:                   0.014
REMARK UNBOUND:                -0.243
REMARK SMILES [H]/N=C\C[C@H]1C[C@@H]1O[C@H]1CO[C@H]2C[C@@H](C3CC3)CCN2C1
REMARK SMILES IDX 7 1 6 2 5 3 8 4 9 5 14 6 13 7 18 8 12 9 19 10 20 11 11 12
REMARK SMILES IDX 21 13 10 14 15 15 16 16 17 17 4 18 3 19 2 20 1 21
REMARK H PARENT
ROOT
ATOM      1  C   UNL     1      11.908   6.107   6.094  1.00  0.00     0.122 C 
ATOM      2  C   UNL     1      11.114   6.578   4.909  1.00  0.00     0.039 C 
ATOM      3  C   UNL     1      12.087   5.444   4.755  1.00  0.00     0.026 C 
ENDROOT
BRANCH   1   4
ATOM      4  O   UNL     1      12.945   7.019   6.505  1.00  0.00    -0.371 OA
BRANCH   4   5
ATOM      5  C   UNL     1      13.645   6.659   7.708  1.00  0.00     0.158 C 
ATOM      6  C   UNL     1      16.122  11.171   8.550  1.00  0.00    -0.003 C 
ATOM      7  C   UNL     1      16.249  10.019   7.546  1.00  0.00     0.052 C 
ATOM      8  C   UNL     1      14.649  11.337   8.948  1.00  0.00     0.019 C 
ATOM      9  C   UNL     1      15.593   8.733   8.067  1.00  0.00     0.189 C 
ATOM     10  C   UNL     1      14.047  10.016   9.424  1.00  0.00     0.087 C 
ATOM     11  N   UNL     1      14.191   8.977   8.405  1.00  0.00    -0.276 NA
ATOM     12  O   UNL     1      15.734   7.755   7.035  1.00  0.00    -0.360 OA
ATOM     13  C   UNL     1      13.541   7.726   8.812  1.00  0.00     0.121 C 
ATOM     14  C   UNL     1      15.130   6.501   7.366  1.00  0.00     0.195 C 
BRANCH   6  15
ATOM     15  C   UNL     1      16.669  12.463   7.985  1.00  0.00    -0.008 C 
ATOM     16  C   UNL     1      18.152  12.745   8.021  1.00  0.00     0.004 C 
ATOM     17  C   UNL     1      17.477  12.469   6.710  1.00  0.00     0.004 C 
ENDBRANCH   6  15
ENDBRANCH   4   5
ENDBRANCH   1   4
BRANCH   3  18
ATOM     18  C   UNL     1      11.559   4.061   4.521  1.00  0.00     0.053 C 
BRANCH  18  19
ATOM     19  C   UNL     1      11.696   3.524   3.120  1.00  0.00     0.074 C 
BRANCH  19  20
ATOM     20  N   UNL     1      12.069   2.330   2.799  1.00  0.00    -0.313 NA
ATOM     21  H   UNL     1      12.934   2.058   3.288  1.00  0.00     0.186 HD
ENDBRANCH  19  20
ENDBRANCH  18  19
ENDBRANCH   3  18
TORSDOF 6
ENDMDL
MODEL 9
REMARK VINA RESULT:    -3.442      5.329      7.923
REMARK INTER + INTRA:          -4.792
REMARK INTER:                  -4.736
REMARK INTRA:                  -0.056
REMARK UNBOUND:                -0.243
REMARK SMILES [H]/N=C\C[C@H]1C[C@@H]1O[C@H]1CO[C@H]2C[C@@H](C3CC3)CCN2C1
REMARK SMILES IDX 7 1 6 2 5 3 8 4 9 5 14 6 13 7 18 8 12 9 19 10 20 11 11 12
REMARK SMILES IDX 21 13 10 14 15 15 16 16 17 17 4 18 3 19 2 20 1 21
REMARK H PARENT
ROOT
ATOM      1  C   UNL     1      11.510   3.053   3.903  1.00  0.00     0.122 C 
ATOM      2  C   UNL     1      11.603   3.502   2.472  1.00  0.00     0.039 C 
ATOM      3  C   UNL     1      12.402   2.319   2.938  1.00  0.00     0.026 C 
ENDROOT
BRANCH   1   4
ATOM      4  O   UNL     1      12.160   3.934   4.838  1.00  0.00    -0.371 OA
BRANCH   4   5
ATOM      5  C   UNL     1      12.188   5.322   4.465  1.00  0.00     0.158 C 
ATOM      6  C   UNL     1      14.583   7.222   8.691  1.00  0.00    -0.003 C 
ATOM      7  C   UNL     1      13.192   6.657   8.377  1.00  0.00     0.052 C 
ATOM      8  C   UNL     1      15.626   6.522   7.808  1.00  0.00     0.019 C 
ATOM      9  C   UNL     1      12.879   6.713   6.876  1.00  0.00     0.189 C 
ATOM     10  C   UNL     1      15.238   6.584   6.330  1.00  0.00     0.087 C 
ATOM     11  N   UNL     1      13.910   6.010   6.113  1.00  0.00    -0.276 NA
ATOM     12  O   UNL     1      11.589   6.123   6.705  1.00  0.00    -0.360 OA
ATOM     13  C   UNL     1      13.560   5.983   4.688  1.00  0.00     0.121 C 
ATOM     14  C   UNL     1      11.174   6.070   5.337  1.00  0.00     0.195 C 
BRANCH   6  15
ATOM     15  C   UNL     1      14.931   7.060  10.153  1.00  0.00    -0.008 C 
ATOM     16  C   UNL     1      15.196   8.272  11.014  1.00  0.00     0.004 C 
ATOM     17  C   UNL     1      13.953   7.460  11.230  1.00  0.00     0.004 C 
ENDBRANCH   6  15
ENDBRANCH   4   5
ENDBRANCH   1   4
BRANCH   3  18
ATOM     18  C   UNL     1      12.025   0.951   2.453  1.00  0.00     0.053 C 
BRANCH  18  19
ATOM     19  C   UNL     1      13.135   0.129   1.851  1.00  0.00     0.074 C 
BRANCH  19  20
ATOM     20  N   UNL     1      14.056   0.565   1.057  1.00  0.00    -0.313 NA
ATOM     21  H   UNL     1      14.309   1.541   1.269  1.00  0.00     0.186 HD
ENDBRANCH  19  20
ENDBRANCH  18  19
ENDBRANCH   3  18
TORSDOF 6
ENDMDL
