MODEL 1
REMARK VINA RESULT:    -6.194      0.000      0.000
REMARK INTER + INTRA:          -7.651
REMARK INTER:                  -7.280
REMARK INTRA:                  -0.371
REMARK UNBOUND:                -0.371
REMARK SMILES Cc1ccc(CNC(=O)NC(=O)c2ccc(C)cc2)cc1
REMARK SMILES IDX 11 1 12 2 10 3 8 4 9 5 7 6 13 9 19 10 18 11 14 12 16 13
REMARK SMILES IDX 15 14 17 15 6 16 5 17 4 18 20 19 3 20 21 21 2 22 1 23
REMARK H PARENT 10 7 7 8
ROOT
ATOM      1  C   UNL     1       7.363  -1.129  -5.531  1.00  0.00     0.259 C 
ATOM      2  O   UNL     1       7.224   0.087  -5.537  1.00  0.00    -0.269 OA
ATOM      3  N   UNL     1       8.141  -1.926  -6.376  1.00  0.00    -0.274 N 
ATOM      4  C   UNL     1       9.150  -1.751  -7.288  1.00  0.00     0.321 C 
ATOM      5  O   UNL     1       9.689  -2.763  -7.748  1.00  0.00    -0.248 OA
ATOM      6  N   UNL     1       9.597  -0.544  -7.680  1.00  0.00    -0.334 N 
ATOM      7  H   UNL     1       8.078  -2.918  -6.189  1.00  0.00     0.175 HD
ATOM      8  H   UNL     1      10.401  -0.586  -8.291  1.00  0.00     0.165 HD
ENDROOT
BRANCH   1   9
ATOM      9  C   UNL     1       6.619  -1.872  -4.495  1.00  0.00     0.040 A 
ATOM     10  C   UNL     1       5.380  -2.456  -4.766  1.00  0.00     0.014 A 
ATOM     11  C   UNL     1       4.740  -3.194  -3.771  1.00  0.00     0.004 A 
ATOM     12  C   UNL     1       7.189  -1.972  -3.222  1.00  0.00     0.014 A 
ATOM     13  C   UNL     1       5.328  -3.344  -2.506  1.00  0.00    -0.051 A 
ATOM     14  C   UNL     1       6.549  -2.716  -2.233  1.00  0.00     0.004 A 
ATOM     15  C   UNL     1       4.668  -4.211  -1.474  1.00  0.00     0.044 C 
ENDBRANCH   1   9
BRANCH   6  16
ATOM     16  C   UNL     1       9.184   0.743  -7.197  1.00  0.00     0.153 C 
BRANCH  16  17
ATOM     17  C   UNL     1      10.117   1.899  -7.428  1.00  0.00    -0.029 A 
ATOM     18  C   UNL     1      10.599   2.710  -6.396  1.00  0.00     0.006 A 
ATOM     19  C   UNL     1      10.682   2.024  -8.708  1.00  0.00     0.006 A 
ATOM     20  C   UNL     1      11.643   3.609  -6.640  1.00  0.00     0.004 A 
ATOM     21  C   UNL     1      11.723   2.915  -8.949  1.00  0.00     0.004 A 
ATOM     22  C   UNL     1      12.220   3.708  -7.914  1.00  0.00    -0.051 A 
ATOM     23  C   UNL     1      13.430   4.562  -8.149  1.00  0.00     0.044 C 
ENDBRANCH  16  17
ENDBRANCH   6  16
TORSDOF 3
ENDMDL
MODEL 2
REMARK VINA RESULT:    -6.188      3.231      5.513
REMARK INTER + INTRA:          -7.644
REMARK INTER:                  -7.273
REMARK INTRA:                  -0.370
REMARK UNBOUND:                -0.371
REMARK SMILES Cc1ccc(CNC(=O)NC(=O)c2ccc(C)cc2)cc1
REMARK SMILES IDX 11 1 12 2 10 3 8 4 9 5 7 6 13 9 19 10 18 11 14 12 16 13
REMARK SMILES IDX 15 14 17 15 6 16 5 17 4 18 20 19 3 20 21 21 2 22 1 23
REMARK H PARENT 10 7 7 8
ROOT
ATOM      1  C   UNL     1       7.322  -1.561  -5.648  1.00  0.00     0.259 C 
ATOM      2  O   UNL     1       7.496  -2.771  -5.668  1.00  0.00    -0.269 OA
ATOM      3  N   UNL     1       8.119  -0.553  -6.201  1.00  0.00    -0.274 N 
ATOM      4  C   UNL     1       9.152  -0.456  -7.097  1.00  0.00     0.321 C 
ATOM      5  O   UNL     1       9.511   0.677  -7.437  1.00  0.00    -0.248 OA
ATOM      6  N   UNL     1       9.769  -1.521  -7.641  1.00  0.00    -0.334 N 
ATOM      7  H   UNL     1       7.779   0.385  -6.036  1.00  0.00     0.175 HD
ATOM      8  H   UNL     1      10.450  -1.281  -8.346  1.00  0.00     0.165 HD
ENDROOT
BRANCH   1   9
ATOM      9  C   UNL     1       6.111  -1.078  -4.957  1.00  0.00     0.040 A 
ATOM     10  C   UNL     1       6.140  -0.710  -3.611  1.00  0.00     0.014 A 
ATOM     11  C   UNL     1       4.982  -0.210  -3.014  1.00  0.00     0.004 A 
ATOM     12  C   UNL     1       4.922  -1.006  -5.689  1.00  0.00     0.014 A 
ATOM     13  C   UNL     1       3.796  -0.084  -3.754  1.00  0.00    -0.051 A 
ATOM     14  C   UNL     1       3.769  -0.500  -5.090  1.00  0.00     0.004 A 
ATOM     15  C   UNL     1       2.584   0.534  -3.122  1.00  0.00     0.044 C 
ENDBRANCH   1   9
BRANCH   6  16
ATOM     16  C   UNL     1       9.441  -2.908  -7.463  1.00  0.00     0.153 C 
BRANCH  16  17
ATOM     17  C   UNL     1       9.946  -3.874  -8.499  1.00  0.00    -0.029 A 
ATOM     18  C   UNL     1       9.105  -4.730  -9.218  1.00  0.00     0.006 A 
ATOM     19  C   UNL     1      11.287  -3.749  -8.896  1.00  0.00     0.006 A 
ATOM     20  C   UNL     1       9.597  -5.426 -10.327  1.00  0.00     0.004 A 
ATOM     21  C   UNL     1      11.774  -4.438 -10.002  1.00  0.00     0.004 A 
ATOM     22  C   UNL     1      10.930  -5.275 -10.734  1.00  0.00    -0.051 A 
ATOM     23  C   UNL     1      11.426  -5.904 -12.002  1.00  0.00     0.044 C 
ENDBRANCH  16  17
ENDBRANCH   6  16
TORSDOF 3
ENDMDL
MODEL 3
REMARK VINA RESULT:    -5.991      5.784      9.091
REMARK INTER + INTRA:          -7.413
REMARK INTER:                  -6.879
REMARK INTRA:                  -0.534
REMARK UNBOUND:                -0.371
REMARK SMILES Cc1ccc(CNC(=O)NC(=O)c2ccc(C)cc2)cc1
REMARK SMILES IDX 11 1 12 2 10 3 8 4 9 5 7 6 13 9 19 10 18 11 14 12 16 13
REMARK SMILES IDX 15 14 17 15 6 16 5 17 4 18 20 19 3 20 21 21 2 22 1 23
REMARK H PARENT 10 7 7 8
ROOT
ATOM      1  C   UNL     1      13.528   5.215  -8.125  1.00  0.00     0.259 C 
ATOM      2  O   UNL     1      14.526   4.875  -8.745  1.00  0.00    -0.269 OA
ATOM      3  N   UNL     1      13.206   6.473  -7.607  1.00  0.00    -0.274 N 
ATOM      4  C   UNL     1      13.643   7.766  -7.741  1.00  0.00     0.321 C 
ATOM      5  O   UNL     1      12.984   8.654  -7.190  1.00  0.00    -0.248 OA
ATOM      6  N   UNL     1      14.726   8.115  -8.460  1.00  0.00    -0.334 N 
ATOM      7  H   UNL     1      12.327   6.507  -7.109  1.00  0.00     0.175 HD
ATOM      8  H   UNL     1      14.864   9.113  -8.529  1.00  0.00     0.165 HD
ENDROOT
BRANCH   1   9
ATOM      9  C   UNL     1      12.511   4.172  -7.886  1.00  0.00     0.040 A 
ATOM     10  C   UNL     1      11.989   3.944  -6.612  1.00  0.00     0.014 A 
ATOM     11  C   UNL     1      10.992   2.983  -6.444  1.00  0.00     0.004 A 
ATOM     12  C   UNL     1      12.086   3.408  -8.977  1.00  0.00     0.014 A 
ATOM     13  C   UNL     1      10.521   2.246  -7.541  1.00  0.00    -0.051 A 
ATOM     14  C   UNL     1      11.085   2.453  -8.805  1.00  0.00     0.004 A 
ATOM     15  C   UNL     1       9.389   1.277  -7.359  1.00  0.00     0.044 C 
ENDBRANCH   1   9
BRANCH   6  16
ATOM     16  C   UNL     1      15.563   7.261  -9.254  1.00  0.00     0.153 C 
BRANCH  16  17
ATOM     17  C   UNL     1      15.445   7.376 -10.749  1.00  0.00    -0.029 A 
ATOM     18  C   UNL     1      15.878   6.378 -11.628  1.00  0.00     0.006 A 
ATOM     19  C   UNL     1      14.676   8.438 -11.253  1.00  0.00     0.006 A 
ATOM     20  C   UNL     1      15.525   6.435 -12.980  1.00  0.00     0.004 A 
ATOM     21  C   UNL     1      14.322   8.491 -12.598  1.00  0.00     0.004 A 
ATOM     22  C   UNL     1      14.735   7.484 -13.471  1.00  0.00    -0.051 A 
ATOM     23  C   UNL     1      14.235   7.476 -14.885  1.00  0.00     0.044 C 
ENDBRANCH  16  17
ENDBRANCH   6  16
TORSDOF 3
ENDMDL
MODEL 4
REMARK VINA RESULT:    -5.954      0.555      8.075
REMARK INTER + INTRA:          -7.368
REMARK INTER:                  -6.899
REMARK INTRA:                  -0.469
REMARK UNBOUND:                -0.371
REMARK SMILES Cc1ccc(CNC(=O)NC(=O)c2ccc(C)cc2)cc1
REMARK SMILES IDX 11 1 12 2 10 3 8 4 9 5 7 6 13 9 19 10 18 11 14 12 16 13
REMARK SMILES IDX 15 14 17 15 6 16 5 17 4 18 20 19 3 20 21 21 2 22 1 23
REMARK H PARENT 10 7 7 8
ROOT
ATOM      1  C   UNL     1       9.350   0.731  -6.817  1.00  0.00     0.259 C 
ATOM      2  O   UNL     1       8.447   1.080  -6.070  1.00  0.00    -0.269 OA
ATOM      3  N   UNL     1       9.641  -0.548  -7.302  1.00  0.00    -0.274 N 
ATOM      4  C   UNL     1       9.019  -1.767  -7.380  1.00  0.00     0.321 C 
ATOM      5  O   UNL     1       9.578  -2.656  -8.031  1.00  0.00    -0.248 OA
ATOM      6  N   UNL     1       7.827  -2.032  -6.814  1.00  0.00    -0.334 N 
ATOM      7  H   UNL     1      10.459  -0.593  -7.894  1.00  0.00     0.175 HD
ATOM      8  H   UNL     1       7.466  -2.949  -7.035  1.00  0.00     0.165 HD
ENDROOT
BRANCH   1   9
ATOM      9  C   UNL     1      10.266   1.790  -7.284  1.00  0.00     0.040 A 
ATOM     10  C   UNL     1      10.781   2.746  -6.408  1.00  0.00     0.014 A 
ATOM     11  C   UNL     1      11.685   3.696  -6.886  1.00  0.00     0.004 A 
ATOM     12  C   UNL     1      10.602   1.815  -8.642  1.00  0.00     0.014 A 
ATOM     13  C   UNL     1      12.069   3.698  -8.235  1.00  0.00    -0.051 A 
ATOM     14  C   UNL     1      11.510   2.761  -9.113  1.00  0.00     0.004 A 
ATOM     15  C   UNL     1      13.105   4.671  -8.715  1.00  0.00     0.044 C 
ENDBRANCH   1   9
BRANCH   6  16
ATOM     16  C   UNL     1       6.969  -1.121  -6.110  1.00  0.00     0.153 C 
BRANCH  16  17
ATOM     17  C   UNL     1       6.285  -1.633  -4.873  1.00  0.00    -0.029 A 
ATOM     18  C   UNL     1       4.977  -2.130  -4.874  1.00  0.00     0.006 A 
ATOM     19  C   UNL     1       7.076  -1.806  -3.726  1.00  0.00     0.006 A 
ATOM     20  C   UNL     1       4.486  -2.809  -3.754  1.00  0.00     0.004 A 
ATOM     21  C   UNL     1       6.588  -2.486  -2.615  1.00  0.00     0.004 A 
ATOM     22  C   UNL     1       5.291  -3.003  -2.623  1.00  0.00    -0.051 A 
ATOM     23  C   UNL     1       4.822  -3.850  -1.478  1.00  0.00     0.044 C 
ENDBRANCH  16  17
ENDBRANCH   6  16
TORSDOF 3
ENDMDL
MODEL 5
REMARK VINA RESULT:    -5.939      3.120      7.395
REMARK INTER + INTRA:          -7.351
REMARK INTER:                  -6.882
REMARK INTRA:                  -0.468
REMARK UNBOUND:                -0.371
REMARK SMILES Cc1ccc(CNC(=O)NC(=O)c2ccc(C)cc2)cc1
REMARK SMILES IDX 11 1 12 2 10 3 8 4 9 5 7 6 13 9 19 10 18 11 14 12 16 13
REMARK SMILES IDX 15 14 17 15 6 16 5 17 4 18 20 19 3 20 21 21 2 22 1 23
REMARK H PARENT 10 7 7 8
ROOT
ATOM      1  C   UNL     1       9.088  -2.916  -7.672  1.00  0.00     0.259 C 
ATOM      2  O   UNL     1       8.307  -3.488  -6.925  1.00  0.00    -0.269 OA
ATOM      3  N   UNL     1       9.405  -1.555  -7.732  1.00  0.00    -0.274 N 
ATOM      4  C   UNL     1       9.228  -0.439  -6.955  1.00  0.00     0.321 C 
ATOM      5  O   UNL     1       9.796   0.600  -7.308  1.00  0.00    -0.248 OA
ATOM      6  N   UNL     1       8.500  -0.427  -5.823  1.00  0.00    -0.334 N 
ATOM      7  H   UNL     1      10.070  -1.314  -8.454  1.00  0.00     0.175 HD
ATOM      8  H   UNL     1       8.540   0.450  -5.324  1.00  0.00     0.165 HD
ENDROOT
BRANCH   1   9
ATOM      9  C   UNL     1       9.809  -3.759  -8.645  1.00  0.00     0.040 A 
ATOM     10  C   UNL     1       9.147  -4.736  -9.392  1.00  0.00     0.014 A 
ATOM     11  C   UNL     1       9.860  -5.473 -10.338  1.00  0.00     0.004 A 
ATOM     12  C   UNL     1      11.184  -3.558  -8.797  1.00  0.00     0.014 A 
ATOM     13  C   UNL     1      11.230  -5.243 -10.535  1.00  0.00    -0.051 A 
ATOM     14  C   UNL     1      11.891  -4.292  -9.748  1.00  0.00     0.004 A 
ATOM     15  C   UNL     1      11.964  -5.983 -11.615  1.00  0.00     0.044 C 
ENDBRANCH   1   9
BRANCH   6  16
ATOM     16  C   UNL     1       7.851  -1.539  -5.188  1.00  0.00     0.153 C 
BRANCH  16  17
ATOM     17  C   UNL     1       6.481  -1.302  -4.616  1.00  0.00    -0.029 A 
ATOM     18  C   UNL     1       6.254  -1.035  -3.262  1.00  0.00     0.006 A 
ATOM     19  C   UNL     1       5.423  -1.138  -5.526  1.00  0.00     0.006 A 
ATOM     20  C   UNL     1       4.998  -0.589  -2.836  1.00  0.00     0.004 A 
ATOM     21  C   UNL     1       4.176  -0.690  -5.102  1.00  0.00     0.004 A 
ATOM     22  C   UNL     1       3.956  -0.401  -3.754  1.00  0.00    -0.051 A 
ATOM     23  C   UNL     1       2.655   0.211  -3.330  1.00  0.00     0.044 C 
ENDBRANCH  16  17
ENDBRANCH   6  16
TORSDOF 3
ENDMDL
MODEL 6
REMARK VINA RESULT:    -4.889      3.839      5.036
REMARK INTER + INTRA:          -6.117
REMARK INTER:                  -5.731
REMARK INTRA:                  -0.386
REMARK UNBOUND:                -0.371
REMARK SMILES Cc1ccc(CNC(=O)NC(=O)c2ccc(C)cc2)cc1
REMARK SMILES IDX 11 1 12 2 10 3 8 4 9 5 7 6 13 9 19 10 18 11 14 12 16 13
REMARK SMILES IDX 15 14 17 15 6 16 5 17 4 18 20 19 3 20 21 21 2 22 1 23
REMARK H PARENT 10 7 7 8
ROOT
ATOM      1  C   UNL     1       6.597  -1.819  -4.903  1.00  0.00     0.259 C 
ATOM      2  O   UNL     1       7.563  -2.538  -4.691  1.00  0.00    -0.269 OA
ATOM      3  N   UNL     1       6.358  -0.973  -5.990  1.00  0.00    -0.274 N 
ATOM      4  C   UNL     1       6.867  -0.769  -7.247  1.00  0.00     0.321 C 
ATOM      5  O   UNL     1       6.270   0.020  -7.987  1.00  0.00    -0.248 OA
ATOM      6  N   UNL     1       7.957  -1.402  -7.720  1.00  0.00    -0.334 N 
ATOM      7  H   UNL     1       5.490  -0.456  -5.934  1.00  0.00     0.175 HD
ATOM      8  H   UNL     1       8.151  -1.207  -8.691  1.00  0.00     0.165 HD
ENDROOT
BRANCH   1   9
ATOM      9  C   UNL     1       5.526  -1.835  -3.888  1.00  0.00     0.040 A 
ATOM     10  C   UNL     1       4.661  -0.751  -3.725  1.00  0.00     0.014 A 
ATOM     11  C   UNL     1       3.630  -0.834  -2.789  1.00  0.00     0.004 A 
ATOM     12  C   UNL     1       5.402  -2.971  -3.082  1.00  0.00     0.014 A 
ATOM     13  C   UNL     1       3.465  -1.990  -2.011  1.00  0.00    -0.051 A 
ATOM     14  C   UNL     1       4.367  -3.052  -2.152  1.00  0.00     0.004 A 
ATOM     15  C   UNL     1       2.302  -2.097  -1.069  1.00  0.00     0.044 C 
ENDBRANCH   1   9
BRANCH   6  16
ATOM     16  C   UNL     1       8.729  -2.423  -7.068  1.00  0.00     0.153 C 
BRANCH  16  17
ATOM     17  C   UNL     1       9.470  -3.393  -7.946  1.00  0.00    -0.029 A 
ATOM     18  C   UNL     1       8.835  -4.417  -8.657  1.00  0.00     0.006 A 
ATOM     19  C   UNL     1      10.820  -3.115  -8.216  1.00  0.00     0.006 A 
ATOM     20  C   UNL     1       9.538  -5.129  -9.636  1.00  0.00     0.004 A 
ATOM     21  C   UNL     1      11.515  -3.821  -9.192  1.00  0.00     0.004 A 
ATOM     22  C   UNL     1      10.877  -4.827  -9.919  1.00  0.00    -0.051 A 
ATOM     23  C   UNL     1      11.592  -5.486 -11.060  1.00  0.00     0.044 C 
ENDBRANCH  16  17
ENDBRANCH   6  16
TORSDOF 3
ENDMDL
MODEL 7
REMARK VINA RESULT:    -4.821      7.672     10.143
REMARK INTER + INTRA:          -6.038
REMARK INTER:                  -5.734
REMARK INTRA:                  -0.304
REMARK UNBOUND:                -0.371
REMARK SMILES Cc1ccc(CNC(=O)NC(=O)c2ccc(C)cc2)cc1
REMARK SMILES IDX 11 1 12 2 10 3 8 4 9 5 7 6 13 9 19 10 18 11 14 12 16 13
REMARK SMILES IDX 15 14 17 15 6 16 5 17 4 18 20 19 3 20 21 21 2 22 1 23
REMARK H PARENT 10 7 7 8
ROOT
ATOM      1  C   UNL     1      10.721  -5.744 -11.355  1.00  0.00     0.259 C 
ATOM      2  O   UNL     1      11.113  -6.889 -11.182  1.00  0.00    -0.269 OA
ATOM      3  N   UNL     1      10.535  -5.053 -12.557  1.00  0.00    -0.274 N 
ATOM      4  C   UNL     1      10.463  -5.349 -13.894  1.00  0.00     0.321 C 
ATOM      5  O   UNL     1      10.142  -4.439 -14.666  1.00  0.00    -0.248 OA
ATOM      6  N   UNL     1      10.692  -6.575 -14.399  1.00  0.00    -0.334 N 
ATOM      7  H   UNL     1      10.220  -4.099 -12.446  1.00  0.00     0.175 HD
ATOM      8  H   UNL     1      10.514  -6.647 -15.390  1.00  0.00     0.165 HD
ENDROOT
BRANCH   1   9
ATOM      9  C   UNL     1      10.387  -4.970 -10.143  1.00  0.00     0.040 A 
ATOM     10  C   UNL     1      11.320  -4.127  -9.538  1.00  0.00     0.014 A 
ATOM     11  C   UNL     1      10.942  -3.375  -8.425  1.00  0.00     0.004 A 
ATOM     12  C   UNL     1       9.103  -5.110  -9.608  1.00  0.00     0.014 A 
ATOM     13  C   UNL     1       9.640  -3.469  -7.911  1.00  0.00    -0.051 A 
ATOM     14  C   UNL     1       8.728  -4.353  -8.500  1.00  0.00     0.004 A 
ATOM     15  C   UNL     1       9.224  -2.592  -6.767  1.00  0.00     0.044 C 
ENDBRANCH   1   9
BRANCH   6  16
ATOM     16  C   UNL     1      10.974  -7.782 -13.674  1.00  0.00     0.153 C 
BRANCH  16  17
ATOM     17  C   UNL     1      12.403  -8.247 -13.636  1.00  0.00    -0.029 A 
ATOM     18  C   UNL     1      13.450  -7.545 -14.243  1.00  0.00     0.006 A 
ATOM     19  C   UNL     1      12.710  -9.315 -12.777  1.00  0.00     0.006 A 
ATOM     20  C   UNL     1      14.777  -7.895 -13.970  1.00  0.00     0.004 A 
ATOM     21  C   UNL     1      14.030  -9.658 -12.504  1.00  0.00     0.004 A 
ATOM     22  C   UNL     1      15.076  -8.944 -13.090  1.00  0.00    -0.051 A 
ATOM     23  C   UNL     1      16.490  -9.231 -12.684  1.00  0.00     0.044 C 
ENDBRANCH  16  17
ENDBRANCH   6  16
TORSDOF 3
ENDMDL
MODEL 8
REMARK VINA RESULT:    -4.754      1.876      8.223
REMARK INTER + INTRA:          -5.958
REMARK INTER:                  -5.552
REMARK INTRA:                  -0.407
REMARK UNBOUND:                -0.371
REMARK SMILES Cc1ccc(CNC(=O)NC(=O)c2ccc(C)cc2)cc1
REMARK SMILES IDX 11 1 12 2 10 3 8 4 9 5 7 6 13 9 19 10 18 11 14 12 16 13
REMARK SMILES IDX 15 14 17 15 6 16 5 17 4 18 20 19 3 20 21 21 2 22 1 23
REMARK H PARENT 10 7 7 8
ROOT
ATOM      1  C   UNL     1       8.487   0.288  -6.652  1.00  0.00     0.259 C 
ATOM      2  O   UNL     1       8.671  -0.261  -5.575  1.00  0.00    -0.269 OA
ATOM      3  N   UNL     1       7.432   0.113  -7.554  1.00  0.00    -0.274 N 
ATOM      4  C   UNL     1       6.184  -0.454  -7.556  1.00  0.00     0.321 C 
ATOM      5  O   UNL     1       5.474  -0.276  -8.551  1.00  0.00    -0.248 OA
ATOM      6  N   UNL     1       5.687  -1.163  -6.525  1.00  0.00    -0.334 N 
ATOM      7  H   UNL     1       7.508   0.667  -8.397  1.00  0.00     0.175 HD
ATOM      8  H   UNL     1       4.724  -1.440  -6.648  1.00  0.00     0.165 HD
ENDROOT
BRANCH   1   9
ATOM      9  C   UNL     1       9.500   1.274  -7.073  1.00  0.00     0.040 A 
ATOM     10  C   UNL     1       9.982   2.244  -6.192  1.00  0.00     0.014 A 
ATOM     11  C   UNL     1      10.978   3.122  -6.620  1.00  0.00     0.004 A 
ATOM     12  C   UNL     1       9.964   1.217  -8.391  1.00  0.00     0.014 A 
ATOM     13  C   UNL     1      11.488   3.040  -7.925  1.00  0.00    -0.051 A 
ATOM     14  C   UNL     1      10.964   2.092  -8.812  1.00  0.00     0.004 A 
ATOM     15  C   UNL     1      12.618   3.934  -8.343  1.00  0.00     0.044 C 
ENDBRANCH   1   9
BRANCH   6  16
ATOM     16  C   UNL     1       6.299  -1.399  -5.248  1.00  0.00     0.153 C 
BRANCH  16  17
ATOM     17  C   UNL     1       5.399  -1.420  -4.044  1.00  0.00    -0.029 A 
ATOM     18  C   UNL     1       4.495  -0.394  -3.749  1.00  0.00     0.006 A 
ATOM     19  C   UNL     1       5.325  -2.619  -3.317  1.00  0.00     0.006 A 
ATOM     20  C   UNL     1       3.523  -0.581  -2.761  1.00  0.00     0.004 A 
ATOM     21  C   UNL     1       4.354  -2.806  -2.338  1.00  0.00     0.004 A 
ATOM     22  C   UNL     1       3.437  -1.791  -2.058  1.00  0.00    -0.051 A 
ATOM     23  C   UNL     1       2.313  -2.051  -1.101  1.00  0.00     0.044 C 
ENDBRANCH  16  17
ENDBRANCH   6  16
TORSDOF 3
ENDMDL
MODEL 9
REMARK VINA RESULT:    -4.735      3.915      7.872
REMARK INTER + INTRA:          -5.936
REMARK INTER:                  -5.528
REMARK INTRA:                  -0.408
REMARK UNBOUND:                -0.371
REMARK SMILES Cc1ccc(CNC(=O)NC(=O)c2ccc(C)cc2)cc1
REMARK SMILES IDX 11 1 12 2 10 3 8 4 9 5 7 6 13 9 19 10 18 11 14 12 16 13
REMARK SMILES IDX 15 14 17 15 6 16 5 17 4 18 20 19 3 20 21 21 2 22 1 23
REMARK H PARENT 10 7 7 8
ROOT
ATOM      1  C   UNL     1       8.756  -2.619  -6.772  1.00  0.00     0.259 C 
ATOM      2  O   UNL     1       7.641  -2.186  -7.027  1.00  0.00    -0.269 OA
ATOM      3  N   UNL     1       9.496  -2.493  -5.592  1.00  0.00    -0.274 N 
ATOM      4  C   UNL     1       9.273  -2.122  -4.291  1.00  0.00     0.321 C 
ATOM      5  O   UNL     1      10.195  -2.279  -3.484  1.00  0.00    -0.248 OA
ATOM      6  N   UNL     1       8.102  -1.627  -3.849  1.00  0.00    -0.334 N 
ATOM      7  H   UNL     1      10.412  -2.921  -5.626  1.00  0.00     0.175 HD
ATOM      8  H   UNL     1       8.072  -1.484  -2.850  1.00  0.00     0.165 HD
ENDROOT
BRANCH   1   9
ATOM      9  C   UNL     1       9.427  -3.384  -7.841  1.00  0.00     0.040 A 
ATOM     10  C   UNL     1       8.758  -4.382  -8.552  1.00  0.00     0.014 A 
ATOM     11  C   UNL     1       9.417  -5.042  -9.589  1.00  0.00     0.004 A 
ATOM     12  C   UNL     1      10.765  -3.087  -8.121  1.00  0.00     0.014 A 
ATOM     13  C   UNL     1      10.743  -4.715  -9.912  1.00  0.00    -0.051 A 
ATOM     14  C   UNL     1      11.417  -3.744  -9.162  1.00  0.00     0.004 A 
ATOM     15  C   UNL     1      11.410  -5.374 -11.084  1.00  0.00     0.044 C 
ENDBRANCH   1   9
BRANCH   6  16
ATOM     16  C   UNL     1       6.884  -1.463  -4.591  1.00  0.00     0.153 C 
BRANCH  16  17
ATOM     17  C   UNL     1       5.594  -1.731  -3.868  1.00  0.00    -0.029 A 
ATOM     18  C   UNL     1       5.351  -2.907  -3.151  1.00  0.00     0.006 A 
ATOM     19  C   UNL     1       4.692  -0.662  -3.742  1.00  0.00     0.006 A 
ATOM     20  C   UNL     1       4.238  -2.995  -2.307  1.00  0.00     0.004 A 
ATOM     21  C   UNL     1       3.589  -0.749  -2.899  1.00  0.00     0.004 A 
ATOM     22  C   UNL     1       3.358  -1.914  -2.165  1.00  0.00    -0.051 A 
ATOM     23  C   UNL     1       2.248  -1.948  -1.158  1.00  0.00     0.044 C 
ENDBRANCH  16  17
ENDBRANCH   6  16
TORSDOF 3
ENDMDL
