MODEL 1
REMARK VINA RESULT:    -3.967      0.000      0.000
REMARK INTER + INTRA:          -5.664
REMARK INTER:                  -5.242
REMARK INTRA:                  -0.422
REMARK UNBOUND:                -0.422
REMARK SMILES [H]/N=C\C[C@H]1C[C@@H]1O[C@H]1CO[C@H]2C[C@@H](C3CC3)CCN2C1
REMARK SMILES IDX 7 1 6 2 5 3 8 4 9 5 14 6 13 7 18 8 12 9 19 10 20 11 11 12
REMARK SMILES IDX 21 13 10 14 15 15 16 16 17 17 4 18 3 19 2 20 1 21
REMARK H PARENT
ROOT
ATOM      1  C   UNL     1      -3.556  16.434 -13.820  1.00  0.00     0.122 C 
ATOM      2  C   UNL     1      -2.433  16.548 -14.813  1.00  0.00     0.039 C 
ATOM      3  C   UNL     1      -3.202  15.263 -14.695  1.00  0.00     0.026 C 
ENDROOT
BRANCH   1   4
ATOM      4  O   UNL     1      -3.122  16.369 -12.448  1.00  0.00    -0.371 OA
BRANCH   4   5
ATOM      5  C   UNL     1      -4.160  16.503 -11.463  1.00  0.00     0.158 C 
ATOM      6  C   UNL     1      -3.370  12.041  -8.881  1.00  0.00    -0.003 C 
ATOM      7  C   UNL     1      -3.940  12.431 -10.250  1.00  0.00     0.052 C 
ATOM      8  C   UNL     1      -2.274  13.040  -8.484  1.00  0.00     0.019 C 
ATOM      9  C   UNL     1      -4.389  13.899 -10.283  1.00  0.00     0.189 C 
ATOM     10  C   UNL     1      -2.774  14.481  -8.571  1.00  0.00     0.087 C 
ATOM     11  N   UNL     1      -3.282  14.779  -9.910  1.00  0.00    -0.276 NA
ATOM     12  O   UNL     1      -4.853  14.154 -11.610  1.00  0.00    -0.360 OA
ATOM     13  C   UNL     1      -3.685  16.184 -10.035  1.00  0.00     0.121 C 
ATOM     14  C   UNL     1      -5.273  15.507 -11.806  1.00  0.00     0.195 C 
BRANCH   6  15
ATOM     15  C   UNL     1      -2.826  10.630  -8.888  1.00  0.00    -0.008 C 
ATOM     16  C   UNL     1      -3.739   9.458  -8.618  1.00  0.00     0.004 C 
ATOM     17  C   UNL     1      -3.183   9.669  -9.996  1.00  0.00     0.004 C 
ENDBRANCH   6  15
ENDBRANCH   4   5
ENDBRANCH   1   4
BRANCH   3  18
ATOM     18  C   UNL     1      -4.110  14.854 -15.816  1.00  0.00     0.053 C 
BRANCH  18  19
ATOM     19  C   UNL     1      -4.937  13.616 -15.585  1.00  0.00     0.074 C 
BRANCH  19  20
ATOM     20  N   UNL     1      -5.378  13.201 -14.445  1.00  0.00    -0.313 NA
ATOM     21  H   UNL     1      -6.352  13.495 -14.285  1.00  0.00     0.186 HD
ENDBRANCH  19  20
ENDBRANCH  18  19
ENDBRANCH   3  18
TORSDOF 6
ENDMDL
MODEL 2
REMARK VINA RESULT:    -3.895      1.476      2.104
REMARK INTER + INTRA:          -5.570
REMARK INTER:                  -5.068
REMARK INTRA:                  -0.502
REMARK UNBOUND:                -0.422
REMARK SMILES [H]/N=C\C[C@H]1C[C@@H]1O[C@H]1CO[C@H]2C[C@@H](C3CC3)CCN2C1
REMARK SMILES IDX 7 1 6 2 5 3 8 4 9 5 14 6 13 7 18 8 12 9 19 10 20 11 11 12
REMARK SMILES IDX 21 13 10 14 15 15 16 16 17 17 4 18 3 19 2 20 1 21
REMARK H PARENT
ROOT
ATOM      1  C   UNL     1      -4.359  15.470 -15.137  1.00  0.00     0.122 C 
ATOM      2  C   UNL     1      -3.694  15.581 -16.479  1.00  0.00     0.039 C 
ATOM      3  C   UNL     1      -3.242  14.533 -15.504  1.00  0.00     0.026 C 
ENDROOT
BRANCH   1   4
ATOM      4  O   UNL     1      -4.032  16.540 -14.229  1.00  0.00    -0.371 OA
BRANCH   4   5
ATOM      5  C   UNL     1      -5.077  16.925 -13.322  1.00  0.00     0.158 C 
ATOM      6  C   UNL     1      -3.533  14.207  -9.147  1.00  0.00    -0.003 C 
ATOM      7  C   UNL     1      -4.160  13.871 -10.505  1.00  0.00     0.052 C 
ATOM      8  C   UNL     1      -2.625  15.436  -9.297  1.00  0.00     0.019 C 
ATOM      9  C   UNL     1      -4.855  15.089 -11.129  1.00  0.00     0.189 C 
ATOM     10  C   UNL     1      -3.365  16.600  -9.954  1.00  0.00     0.087 C 
ATOM     11  N   UNL     1      -3.916  16.205 -11.251  1.00  0.00    -0.276 NA
ATOM     12  O   UNL     1      -5.355  14.668 -12.399  1.00  0.00    -0.360 OA
ATOM     13  C   UNL     1      -4.555  17.336 -11.934  1.00  0.00     0.121 C 
ATOM     14  C   UNL     1      -6.003  15.720 -13.123  1.00  0.00     0.195 C 
BRANCH   6  15
ATOM     15  C   UNL     1      -2.754  13.036  -8.591  1.00  0.00    -0.008 C 
ATOM     16  C   UNL     1      -3.304  12.232  -7.436  1.00  0.00     0.004 C 
ATOM     17  C   UNL     1      -3.229  11.620  -8.805  1.00  0.00     0.004 C 
ENDBRANCH   6  15
ENDBRANCH   4   5
ENDBRANCH   1   4
BRANCH   3  18
ATOM     18  C   UNL     1      -3.532  13.092 -15.801  1.00  0.00     0.053 C 
BRANCH  18  19
ATOM     19  C   UNL     1      -3.333  12.125 -14.663  1.00  0.00     0.074 C 
BRANCH  19  20
ATOM     20  N   UNL     1      -3.645  12.335 -13.427  1.00  0.00    -0.313 NA
ATOM     21  H   UNL     1      -3.903  13.318 -13.263  1.00  0.00     0.186 HD
ENDBRANCH  19  20
ENDBRANCH  18  19
ENDBRANCH   3  18
TORSDOF 6
ENDMDL
MODEL 3
REMARK VINA RESULT:    -3.842      4.190      7.117
REMARK INTER + INTRA:          -5.500
REMARK INTER:                  -5.285
REMARK INTRA:                  -0.215
REMARK UNBOUND:                -0.422
REMARK SMILES [H]/N=C\C[C@H]1C[C@@H]1O[C@H]1CO[C@H]2C[C@@H](C3CC3)CCN2C1
REMARK SMILES IDX 7 1 6 2 5 3 8 4 9 5 14 6 13 7 18 8 12 9 19 10 20 11 11 12
REMARK SMILES IDX 21 13 10 14 15 15 16 16 17 17 4 18 3 19 2 20 1 21
REMARK H PARENT
ROOT
ATOM      1  C   UNL     1      -2.765  12.056  -8.937  1.00  0.00     0.122 C 
ATOM      2  C   UNL     1      -3.844  12.999  -9.389  1.00  0.00     0.039 C 
ATOM      3  C   UNL     1      -2.951  13.377  -8.242  1.00  0.00     0.026 C 
ENDROOT
BRANCH   1   4
ATOM      4  O   UNL     1      -3.255  10.890  -8.247  1.00  0.00    -0.371 OA
BRANCH   4   5
ATOM      5  C   UNL     1      -3.905   9.909  -9.072  1.00  0.00     0.158 C 
ATOM      6  C   UNL     1      -1.947   5.607  -6.867  1.00  0.00    -0.003 C 
ATOM      7  C   UNL     1      -1.405   6.724  -7.767  1.00  0.00     0.052 C 
ATOM      8  C   UNL     1      -3.035   6.180  -5.947  1.00  0.00     0.019 C 
ATOM      9  C   UNL     1      -2.531   7.455  -8.510  1.00  0.00     0.189 C 
ATOM     10  C   UNL     1      -4.106   6.923  -6.745  1.00  0.00     0.087 C 
ATOM     11  N   UNL     1      -3.512   7.982  -7.561  1.00  0.00    -0.276 NA
ATOM     12  O   UNL     1      -1.912   8.492  -9.273  1.00  0.00    -0.360 OA
ATOM     13  C   UNL     1      -4.536   8.761  -8.266  1.00  0.00     0.121 C 
ATOM     14  C   UNL     1      -2.852   9.292  -9.998  1.00  0.00     0.195 C 
BRANCH   6  15
ATOM     15  C   UNL     1      -0.846   4.968  -6.052  1.00  0.00    -0.008 C 
ATOM     16  C   UNL     1      -0.757   3.464  -5.934  1.00  0.00     0.004 C 
ATOM     17  C   UNL     1       0.276   4.214  -6.724  1.00  0.00     0.004 C 
ENDBRANCH   6  15
ENDBRANCH   4   5
ENDBRANCH   1   4
BRANCH   3  18
ATOM     18  C   UNL     1      -1.951  14.478  -8.433  1.00  0.00     0.053 C 
BRANCH  18  19
ATOM     19  C   UNL     1      -2.496  15.795  -8.922  1.00  0.00     0.074 C 
BRANCH  19  20
ATOM     20  N   UNL     1      -2.842  16.794  -8.180  1.00  0.00    -0.313 NA
ATOM     21  H   UNL     1      -3.850  16.991  -8.255  1.00  0.00     0.186 HD
ENDBRANCH  19  20
ENDBRANCH  18  19
ENDBRANCH   3  18
TORSDOF 6
ENDMDL
MODEL 4
REMARK VINA RESULT:    -3.829      3.226      5.589
REMARK INTER + INTRA:          -5.483
REMARK INTER:                  -5.014
REMARK INTRA:                  -0.469
REMARK UNBOUND:                -0.422
REMARK SMILES [H]/N=C\C[C@H]1C[C@@H]1O[C@H]1CO[C@H]2C[C@@H](C3CC3)CCN2C1
REMARK SMILES IDX 7 1 6 2 5 3 8 4 9 5 14 6 13 7 18 8 12 9 19 10 20 11 11 12
REMARK SMILES IDX 21 13 10 14 15 15 16 16 17 17 4 18 3 19 2 20 1 21
REMARK H PARENT
ROOT
ATOM      1  C   UNL     1      -5.162  12.440 -16.740  1.00  0.00     0.122 C 
ATOM      2  C   UNL     1      -6.510  13.103 -16.739  1.00  0.00     0.039 C 
ATOM      3  C   UNL     1      -5.546  13.363 -15.617  1.00  0.00     0.026 C 
ENDROOT
BRANCH   1   4
ATOM      4  O   UNL     1      -5.202  11.028 -16.457  1.00  0.00    -0.371 OA
BRANCH   4   5
ATOM      5  C   UNL     1      -3.998  10.302 -16.755  1.00  0.00     0.158 C 
ATOM      6  C   UNL     1      -3.000   8.451 -11.982  1.00  0.00    -0.003 C 
ATOM      7  C   UNL     1      -2.928   9.822 -12.665  1.00  0.00     0.052 C 
ATOM      8  C   UNL     1      -4.150   7.639 -12.594  1.00  0.00     0.019 C 
ATOM      9  C   UNL     1      -2.860   9.694 -14.193  1.00  0.00     0.189 C 
ATOM     10  C   UNL     1      -4.042   7.579 -14.117  1.00  0.00     0.087 C 
ATOM     11  N   UNL     1      -3.998   8.923 -14.692  1.00  0.00    -0.276 NA
ATOM     12  O   UNL     1      -2.843  11.025 -14.714  1.00  0.00    -0.360 OA
ATOM     13  C   UNL     1      -3.982   8.883 -16.159  1.00  0.00     0.121 C 
ATOM     14  C   UNL     1      -2.818  11.066 -16.144  1.00  0.00     0.195 C 
BRANCH   6  15
ATOM     15  C   UNL     1      -3.182   8.585 -10.487  1.00  0.00    -0.008 C 
ATOM     16  C   UNL     1      -1.986   8.784  -9.586  1.00  0.00     0.004 C 
ATOM     17  C   UNL     1      -2.958   9.909  -9.796  1.00  0.00     0.004 C 
ENDBRANCH   6  15
ENDBRANCH   4   5
ENDBRANCH   1   4
BRANCH   3  18
ATOM     18  C   UNL     1      -4.913  14.718 -15.502  1.00  0.00     0.053 C 
BRANCH  18  19
ATOM     19  C   UNL     1      -3.747  14.830 -14.554  1.00  0.00     0.074 C 
BRANCH  19  20
ATOM     20  N   UNL     1      -3.019  13.851 -14.131  1.00  0.00    -0.313 NA
ATOM     21  H   UNL     1      -2.936  13.856 -13.104  1.00  0.00     0.186 HD
ENDBRANCH  19  20
ENDBRANCH  18  19
ENDBRANCH   3  18
TORSDOF 6
ENDMDL
MODEL 5
REMARK VINA RESULT:    -3.819      5.692      7.163
REMARK INTER + INTRA:          -5.470
REMARK INTER:                  -5.245
REMARK INTRA:                  -0.225
REMARK UNBOUND:                -0.422
REMARK SMILES [H]/N=C\C[C@H]1C[C@@H]1O[C@H]1CO[C@H]2C[C@@H](C3CC3)CCN2C1
REMARK SMILES IDX 7 1 6 2 5 3 8 4 9 5 14 6 13 7 18 8 12 9 19 10 20 11 11 12
REMARK SMILES IDX 21 13 10 14 15 15 16 16 17 17 4 18 3 19 2 20 1 21
REMARK H PARENT
ROOT
ATOM      1  C   UNL     1      -3.600   8.351 -12.037  1.00  0.00     0.122 C 
ATOM      2  C   UNL     1      -3.004   8.981 -13.264  1.00  0.00     0.039 C 
ATOM      3  C   UNL     1      -3.593   7.602 -13.342  1.00  0.00     0.026 C 
ENDROOT
BRANCH   1   4
ATOM      4  O   UNL     1      -2.629   7.944 -11.055  1.00  0.00    -0.371 OA
BRANCH   4   5
ATOM      5  C   UNL     1      -2.006   9.011 -10.321  1.00  0.00     0.158 C 
ATOM      6  C   UNL     1      -2.292   6.944  -5.541  1.00  0.00    -0.003 C 
ATOM      7  C   UNL     1      -3.288   7.550  -6.536  1.00  0.00     0.052 C 
ATOM      8  C   UNL     1      -1.165   6.243  -6.313  1.00  0.00     0.019 C 
ATOM      9  C   UNL     1      -2.589   8.443  -7.570  1.00  0.00     0.189 C 
ATOM     10  C   UNL     1      -0.534   7.174  -7.348  1.00  0.00     0.087 C 
ATOM     11  N   UNL     1      -1.545   7.693  -8.269  1.00  0.00    -0.276 NA
ATOM     12  O   UNL     1      -3.604   8.908  -8.462  1.00  0.00    -0.360 OA
ATOM     13  C   UNL     1      -0.943   8.520  -9.322  1.00  0.00     0.121 C 
ATOM     14  C   UNL     1      -3.091   9.731  -9.514  1.00  0.00     0.195 C 
BRANCH   6  15
ATOM     15  C   UNL     1      -2.970   5.977  -4.597  1.00  0.00    -0.008 C 
ATOM     16  C   UNL     1      -2.712   6.053  -3.110  1.00  0.00     0.004 C 
ATOM     17  C   UNL     1      -4.054   6.445  -3.657  1.00  0.00     0.004 C 
ENDBRANCH   6  15
ENDBRANCH   4   5
ENDBRANCH   1   4
BRANCH   3  18
ATOM     18  C   UNL     1      -4.868   7.399 -14.104  1.00  0.00     0.053 C 
BRANCH  18  19
ATOM     19  C   UNL     1      -4.870   7.865 -15.536  1.00  0.00     0.074 C 
BRANCH  19  20
ATOM     20  N   UNL     1      -4.398   7.213 -16.546  1.00  0.00    -0.313 NA
ATOM     21  H   UNL     1      -4.099   6.264 -16.279  1.00  0.00     0.186 HD
ENDBRANCH  19  20
ENDBRANCH  18  19
ENDBRANCH   3  18
TORSDOF 6
ENDMDL
MODEL 6
REMARK VINA RESULT:    -3.729      4.706      6.836
REMARK INTER + INTRA:          -5.350
REMARK INTER:                  -5.681
REMARK INTRA:                   0.331
REMARK UNBOUND:                -0.422
REMARK SMILES [H]/N=C\C[C@H]1C[C@@H]1O[C@H]1CO[C@H]2C[C@@H](C3CC3)CCN2C1
REMARK SMILES IDX 7 1 6 2 5 3 8 4 9 5 14 6 13 7 18 8 12 9 19 10 20 11 11 12
REMARK SMILES IDX 21 13 10 14 15 15 16 16 17 17 4 18 3 19 2 20 1 21
REMARK H PARENT
ROOT
ATOM      1  C   UNL     1      -2.561   8.026 -12.510  1.00  0.00     0.122 C 
ATOM      2  C   UNL     1      -3.780   7.714 -13.331  1.00  0.00     0.039 C 
ATOM      3  C   UNL     1      -3.242   9.115 -13.293  1.00  0.00     0.026 C 
ENDROOT
BRANCH   1   4
ATOM      4  O   UNL     1      -2.793   8.014 -11.088  1.00  0.00    -0.371 OA
BRANCH   4   5
ATOM      5  C   UNL     1      -2.191   9.092 -10.353  1.00  0.00     0.158 C 
ATOM      6  C   UNL     1      -2.360   6.980  -5.587  1.00  0.00    -0.003 C 
ATOM      7  C   UNL     1      -3.385   7.566  -6.565  1.00  0.00     0.052 C 
ATOM      8  C   UNL     1      -1.224   6.317  -6.378  1.00  0.00     0.019 C 
ATOM      9  C   UNL     1      -2.724   8.486  -7.600  1.00  0.00     0.189 C 
ATOM     10  C   UNL     1      -0.632   7.273  -7.413  1.00  0.00     0.087 C 
ATOM     11  N   UNL     1      -1.668   7.772  -8.318  1.00  0.00    -0.276 NA
ATOM     12  O   UNL     1      -3.763   8.929  -8.476  1.00  0.00    -0.360 OA
ATOM     13  C   UNL     1      -1.103   8.623  -9.371  1.00  0.00     0.121 C 
ATOM     14  C   UNL     1      -3.286   9.775  -9.527  1.00  0.00     0.195 C 
BRANCH   6  15
ATOM     15  C   UNL     1      -2.999   5.986  -4.643  1.00  0.00    -0.008 C 
ATOM     16  C   UNL     1      -2.641   5.988  -3.175  1.00  0.00     0.004 C 
ATOM     17  C   UNL     1      -4.005   6.436  -3.611  1.00  0.00     0.004 C 
ENDBRANCH   6  15
ENDBRANCH   4   5
ENDBRANCH   1   4
BRANCH   3  18
ATOM     18  C   UNL     1      -2.595   9.679 -14.523  1.00  0.00     0.053 C 
BRANCH  18  19
ATOM     19  C   UNL     1      -2.991  11.083 -14.899  1.00  0.00     0.074 C 
BRANCH  19  20
ATOM     20  N   UNL     1      -2.404  12.166 -14.509  1.00  0.00    -0.313 NA
ATOM     21  H   UNL     1      -1.441  12.226 -14.868  1.00  0.00     0.186 HD
ENDBRANCH  19  20
ENDBRANCH  18  19
ENDBRANCH   3  18
TORSDOF 6
ENDMDL
MODEL 7
REMARK VINA RESULT:    -3.421      4.436      6.718
REMARK INTER + INTRA:          -4.943
REMARK INTER:                  -4.679
REMARK INTRA:                  -0.264
REMARK UNBOUND:                -0.422
REMARK SMILES [H]/N=C\C[C@H]1C[C@@H]1O[C@H]1CO[C@H]2C[C@@H](C3CC3)CCN2C1
REMARK SMILES IDX 7 1 6 2 5 3 8 4 9 5 14 6 13 7 18 8 12 9 19 10 20 11 11 12
REMARK SMILES IDX 21 13 10 14 15 15 16 16 17 17 4 18 3 19 2 20 1 21
REMARK H PARENT
ROOT
ATOM      1  C   UNL     1      -2.862  15.999 -15.200  1.00  0.00     0.122 C 
ATOM      2  C   UNL     1      -3.992  16.681 -14.481  1.00  0.00     0.039 C 
ATOM      3  C   UNL     1      -2.756  16.282 -13.726  1.00  0.00     0.026 C 
ENDROOT
BRANCH   1   4
ATOM      4  O   UNL     1      -3.141  14.638 -15.576  1.00  0.00    -0.371 OA
BRANCH   4   5
ATOM      5  C   UNL     1      -3.238  14.392 -16.989  1.00  0.00     0.158 C 
ATOM      6  C   UNL     1      -6.421  10.263 -16.853  1.00  0.00    -0.003 C 
ATOM      7  C   UNL     1      -4.952  10.530 -16.500  1.00  0.00     0.052 C 
ATOM      8  C   UNL     1      -7.246  11.529 -16.582  1.00  0.00     0.019 C 
ATOM      9  C   UNL     1      -4.417  11.786 -17.200  1.00  0.00     0.189 C 
ATOM     10  C   UNL     1      -6.642  12.748 -17.278  1.00  0.00     0.087 C 
ATOM     11  N   UNL     1      -5.249  12.945 -16.875  1.00  0.00    -0.276 NA
ATOM     12  O   UNL     1      -3.068  11.955 -16.761  1.00  0.00    -0.360 OA
ATOM     13  C   UNL     1      -4.682  14.161 -17.468  1.00  0.00     0.121 C 
ATOM     14  C   UNL     1      -2.443  13.121 -17.307  1.00  0.00     0.195 C 
BRANCH   6  15
ATOM     15  C   UNL     1      -6.975   9.092 -16.073  1.00  0.00    -0.008 C 
ATOM     16  C   UNL     1      -7.155   7.748 -16.738  1.00  0.00     0.004 C 
ATOM     17  C   UNL     1      -6.092   7.927 -15.694  1.00  0.00     0.004 C 
ENDBRANCH   6  15
ENDBRANCH   4   5
ENDBRANCH   1   4
BRANCH   3  18
ATOM     18  C   UNL     1      -1.833  17.353 -13.227  1.00  0.00     0.053 C 
BRANCH  18  19
ATOM     19  C   UNL     1      -0.837  16.937 -12.176  1.00  0.00     0.074 C 
BRANCH  19  20
ATOM     20  N   UNL     1      -0.076  15.895 -12.224  1.00  0.00    -0.313 NA
ATOM     21  H   UNL     1      -0.613  15.042 -12.434  1.00  0.00     0.186 HD
ENDBRANCH  19  20
ENDBRANCH  18  19
ENDBRANCH   3  18
TORSDOF 6
ENDMDL
MODEL 8
REMARK VINA RESULT:    -3.377      4.917      8.516
REMARK INTER + INTRA:          -4.885
REMARK INTER:                  -4.942
REMARK INTRA:                   0.057
REMARK UNBOUND:                -0.422
REMARK SMILES [H]/N=C\C[C@H]1C[C@@H]1O[C@H]1CO[C@H]2C[C@@H](C3CC3)CCN2C1
REMARK SMILES IDX 7 1 6 2 5 3 8 4 9 5 14 6 13 7 18 8 12 9 19 10 20 11 11 12
REMARK SMILES IDX 21 13 10 14 15 15 16 16 17 17 4 18 3 19 2 20 1 21
REMARK H PARENT
ROOT
ATOM      1  C   UNL     1      -3.094   9.063  -9.732  1.00  0.00     0.122 C 
ATOM      2  C   UNL     1      -3.632  10.191  -8.896  1.00  0.00     0.039 C 
ATOM      3  C   UNL     1      -4.267   8.832  -8.819  1.00  0.00     0.026 C 
ENDROOT
BRANCH   1   4
ATOM      4  O   UNL     1      -3.384   9.183 -11.137  1.00  0.00    -0.371 OA
BRANCH   4   5
ATOM      5  C   UNL     1      -2.486   8.488 -12.017  1.00  0.00     0.158 C 
ATOM      6  C   UNL     1      -5.346   8.690 -16.375  1.00  0.00    -0.003 C 
ATOM      7  C   UNL     1      -5.420   7.927 -15.047  1.00  0.00     0.052 C 
ATOM      8  C   UNL     1      -4.722  10.071 -16.132  1.00  0.00     0.019 C 
ATOM      9  C   UNL     1      -4.059   7.882 -14.338  1.00  0.00     0.189 C 
ATOM     10  C   UNL     1      -3.388   9.959 -15.394  1.00  0.00     0.087 C 
ATOM     11  N   UNL     1      -3.547   9.237 -14.132  1.00  0.00    -0.276 NA
ATOM     12  O   UNL     1      -4.264   7.193 -13.103  1.00  0.00    -0.360 OA
ATOM     13  C   UNL     1      -2.293   9.197 -13.370  1.00  0.00     0.121 C 
ATOM     14  C   UNL     1      -3.078   7.105 -12.307  1.00  0.00     0.195 C 
BRANCH   6  15
ATOM     15  C   UNL     1      -6.710   8.829 -17.012  1.00  0.00    -0.008 C 
ATOM     16  C   UNL     1      -7.455   7.607 -17.495  1.00  0.00     0.004 C 
ATOM     17  C   UNL     1      -7.951   8.357 -16.293  1.00  0.00     0.004 C 
ENDBRANCH   6  15
ENDBRANCH   4   5
ENDBRANCH   1   4
BRANCH   3  18
ATOM     18  C   UNL     1      -4.102   8.023  -7.567  1.00  0.00     0.053 C 
BRANCH  18  19
ATOM     19  C   UNL     1      -5.315   7.259  -7.103  1.00  0.00     0.074 C 
BRANCH  19  20
ATOM     20  N   UNL     1      -6.529   7.698  -7.096  1.00  0.00    -0.313 NA
ATOM     21  H   UNL     1      -7.100   7.224  -6.382  1.00  0.00     0.186 HD
ENDBRANCH  19  20
ENDBRANCH  18  19
ENDBRANCH   3  18
TORSDOF 6
ENDMDL
MODEL 9
REMARK VINA RESULT:    -3.218      3.394      5.726
REMARK INTER + INTRA:          -4.675
REMARK INTER:                  -4.861
REMARK INTRA:                   0.186
REMARK UNBOUND:                -0.422
REMARK SMILES [H]/N=C\C[C@H]1C[C@@H]1O[C@H]1CO[C@H]2C[C@@H](C3CC3)CCN2C1
REMARK SMILES IDX 7 1 6 2 5 3 8 4 9 5 14 6 13 7 18 8 12 9 19 10 20 11 11 12
REMARK SMILES IDX 21 13 10 14 15 15 16 16 17 17 4 18 3 19 2 20 1 21
REMARK H PARENT
ROOT
ATOM      1  C   UNL     1      -4.071  14.315 -15.521  1.00  0.00     0.122 C 
ATOM      2  C   UNL     1      -4.200  15.752 -15.941  1.00  0.00     0.039 C 
ATOM      3  C   UNL     1      -4.973  15.246 -14.757  1.00  0.00     0.026 C 
ENDROOT
BRANCH   1   4
ATOM      4  O   UNL     1      -4.711  13.383 -16.412  1.00  0.00    -0.371 OA
BRANCH   4   5
ATOM      5  C   UNL     1      -3.827  12.610 -17.239  1.00  0.00     0.158 C 
ATOM      6  C   UNL     1      -3.662   8.264 -14.359  1.00  0.00    -0.003 C 
ATOM      7  C   UNL     1      -3.100   9.686 -14.236  1.00  0.00     0.052 C 
ATOM      8  C   UNL     1      -5.005   8.312 -15.100  1.00  0.00     0.019 C 
ATOM      9  C   UNL     1      -3.039  10.395 -15.595  1.00  0.00     0.189 C 
ATOM     10  C   UNL     1      -4.885   9.060 -16.428  1.00  0.00     0.087 C 
ATOM     11  N   UNL     1      -4.361  10.410 -16.222  1.00  0.00    -0.276 NA
ATOM     12  O   UNL     1      -2.548  11.713 -15.347  1.00  0.00    -0.360 OA
ATOM     13  C   UNL     1      -4.321  11.171 -17.476  1.00  0.00     0.121 C 
ATOM     14  C   UNL     1      -2.472  12.515 -16.530  1.00  0.00     0.195 C 
BRANCH   6  15
ATOM     15  C   UNL     1      -3.825   7.612 -13.005  1.00  0.00    -0.008 C 
ATOM     16  C   UNL     1      -2.675   6.866 -12.372  1.00  0.00     0.004 C 
ATOM     17  C   UNL     1      -3.129   8.172 -11.788  1.00  0.00     0.004 C 
ENDBRANCH   6  15
ENDBRANCH   4   5
ENDBRANCH   1   4
BRANCH   3  18
ATOM     18  C   UNL     1      -4.590  15.713 -13.385  1.00  0.00     0.053 C 
BRANCH  18  19
ATOM     19  C   UNL     1      -5.069  14.867 -12.235  1.00  0.00     0.074 C 
BRANCH  19  20
ATOM     20  N   UNL     1      -5.594  13.690 -12.328  1.00  0.00    -0.313 NA
ATOM     21  H   UNL     1      -6.490  13.633 -11.824  1.00  0.00     0.186 HD
ENDBRANCH  19  20
ENDBRANCH  18  19
ENDBRANCH   3  18
TORSDOF 6
ENDMDL
