MODEL 1
REMARK VINA RESULT:    -6.145      0.000      0.000
REMARK INTER + INTRA:          -7.716
REMARK INTER:                  -7.223
REMARK INTRA:                  -0.493
REMARK UNBOUND:                -0.493
REMARK SMILES Cc1ccc(CNC(=O)NC(=O)c2ccc(C)cc2)cc1
REMARK SMILES IDX 11 1 12 2 10 3 8 4 9 5 7 6 13 9 19 10 18 11 14 12 16 13
REMARK SMILES IDX 15 14 17 15 6 16 5 17 4 18 20 19 3 20 21 21 2 22 1 23
REMARK H PARENT 10 7 7 8
ROOT
ATOM      1  C   UNL     1       8.013   9.003  -4.266  1.00  0.00     0.259 C 
ATOM      2  O   UNL     1       7.390   7.967  -4.455  1.00  0.00    -0.269 OA
ATOM      3  N   UNL     1       8.230   9.687  -3.066  1.00  0.00    -0.274 N 
ATOM      4  C   UNL     1       8.101   9.443  -1.722  1.00  0.00     0.321 C 
ATOM      5  O   UNL     1       8.542  10.292  -0.941  1.00  0.00    -0.248 OA
ATOM      6  N   UNL     1       7.551   8.323  -1.219  1.00  0.00    -0.334 N 
ATOM      7  H   UNL     1       8.763  10.541  -3.163  1.00  0.00     0.175 HD
ATOM      8  H   UNL     1       7.609   8.258  -0.213  1.00  0.00     0.165 HD
ENDROOT
BRANCH   1   9
ATOM      9  C   UNL     1       8.631   9.627  -5.451  1.00  0.00     0.040 A 
ATOM     10  C   UNL     1       7.991   9.625  -6.692  1.00  0.00     0.014 A 
ATOM     11  C   UNL     1       8.591  10.274  -7.772  1.00  0.00     0.004 A 
ATOM     12  C   UNL     1       9.889  10.220  -5.300  1.00  0.00     0.014 A 
ATOM     13  C   UNL     1       9.829  10.917  -7.618  1.00  0.00    -0.051 A 
ATOM     14  C   UNL     1      10.481  10.873  -6.380  1.00  0.00     0.004 A 
ATOM     15  C   UNL     1      10.420  11.683  -8.765  1.00  0.00     0.044 C 
ENDBRANCH   1   9
BRANCH   6  16
ATOM     16  C   UNL     1       7.076   7.178  -1.944  1.00  0.00     0.153 C 
BRANCH  16  17
ATOM     17  C   UNL     1       5.766   6.581  -1.510  1.00  0.00    -0.029 A 
ATOM     18  C   UNL     1       5.664   5.617  -0.502  1.00  0.00     0.006 A 
ATOM     19  C   UNL     1       4.594   7.179  -1.999  1.00  0.00     0.006 A 
ATOM     20  C   UNL     1       4.410   5.280   0.020  1.00  0.00     0.004 A 
ATOM     21  C   UNL     1       3.348   6.847  -1.476  1.00  0.00     0.004 A 
ATOM     22  C   UNL     1       3.246   5.902  -0.454  1.00  0.00    -0.051 A 
ATOM     23  C   UNL     1       1.918   5.652   0.197  1.00  0.00     0.044 C 
ENDBRANCH  16  17
ENDBRANCH   6  16
TORSDOF 3
ENDMDL
MODEL 2
REMARK VINA RESULT:    -6.120      3.010      5.442
REMARK INTER + INTRA:          -7.686
REMARK INTER:                  -7.191
REMARK INTRA:                  -0.495
REMARK UNBOUND:                -0.493
REMARK SMILES Cc1ccc(CNC(=O)NC(=O)c2ccc(C)cc2)cc1
REMARK SMILES IDX 11 1 12 2 10 3 8 4 9 5 7 6 13 9 19 10 18 11 14 12 16 13
REMARK SMILES IDX 15 14 17 15 6 16 5 17 4 18 20 19 3 20 21 21 2 22 1 23
REMARK H PARENT 10 7 7 8
ROOT
ATOM      1  C   UNL     1       8.082   9.775  -0.783  1.00  0.00     0.259 C 
ATOM      2  O   UNL     1       7.288   9.061  -0.186  1.00  0.00    -0.269 OA
ATOM      3  N   UNL     1       8.421   9.762  -2.140  1.00  0.00    -0.274 N 
ATOM      4  C   UNL     1       7.931   9.225  -3.302  1.00  0.00     0.321 C 
ATOM      5  O   UNL     1       8.463   9.569  -4.363  1.00  0.00    -0.248 OA
ATOM      6  N   UNL     1       6.890   8.373  -3.347  1.00  0.00    -0.334 N 
ATOM      7  H   UNL     1       9.126  10.439  -2.399  1.00  0.00     0.175 HD
ATOM      8  H   UNL     1       6.598   8.137  -4.284  1.00  0.00     0.165 HD
ENDROOT
BRANCH   1   9
ATOM      9  C   UNL     1       8.784  10.796   0.018  1.00  0.00     0.040 A 
ATOM     10  C   UNL     1       9.231  10.525   1.312  1.00  0.00     0.014 A 
ATOM     11  C   UNL     1       9.936  11.506   2.011  1.00  0.00     0.004 A 
ATOM     12  C   UNL     1       8.985  12.056  -0.555  1.00  0.00     0.014 A 
ATOM     13  C   UNL     1      10.189  12.755   1.425  1.00  0.00    -0.051 A 
ATOM     14  C   UNL     1       9.695  13.030   0.144  1.00  0.00     0.004 A 
ATOM     15  C   UNL     1      11.021  13.768   2.156  1.00  0.00     0.044 C 
ENDBRANCH   1   9
BRANCH   6  16
ATOM     16  C   UNL     1       6.073   7.930  -2.253  1.00  0.00     0.153 C 
BRANCH  16  17
ATOM     17  C   UNL     1       5.731   6.467  -2.194  1.00  0.00    -0.029 A 
ATOM     18  C   UNL     1       4.617   5.917  -2.837  1.00  0.00     0.006 A 
ATOM     19  C   UNL     1       6.693   5.604  -1.645  1.00  0.00     0.006 A 
ATOM     20  C   UNL     1       4.488   4.528  -2.947  1.00  0.00     0.004 A 
ATOM     21  C   UNL     1       6.565   4.223  -1.760  1.00  0.00     0.004 A 
ATOM     22  C   UNL     1       5.466   3.673  -2.421  1.00  0.00    -0.051 A 
ATOM     23  C   UNL     1       5.407   2.194  -2.659  1.00  0.00     0.044 C 
ENDBRANCH  16  17
ENDBRANCH   6  16
TORSDOF 3
ENDMDL
MODEL 3
REMARK VINA RESULT:    -6.092      0.601      7.944
REMARK INTER + INTRA:          -7.653
REMARK INTER:                  -7.244
REMARK INTRA:                  -0.410
REMARK UNBOUND:                -0.493
REMARK SMILES Cc1ccc(CNC(=O)NC(=O)c2ccc(C)cc2)cc1
REMARK SMILES IDX 11 1 12 2 10 3 8 4 9 5 7 6 13 9 19 10 18 11 14 12 16 13
REMARK SMILES IDX 15 14 17 15 6 16 5 17 4 18 20 19 3 20 21 21 2 22 1 23
REMARK H PARENT 10 7 7 8
ROOT
ATOM      1  C   UNL     1       6.591   7.606  -2.279  1.00  0.00     0.259 C 
ATOM      2  O   UNL     1       6.951   7.092  -3.329  1.00  0.00    -0.269 OA
ATOM      3  N   UNL     1       7.139   8.704  -1.609  1.00  0.00    -0.274 N 
ATOM      4  C   UNL     1       8.021   9.719  -1.879  1.00  0.00     0.321 C 
ATOM      5  O   UNL     1       8.148  10.609  -1.031  1.00  0.00    -0.248 OA
ATOM      6  N   UNL     1       8.723   9.810  -3.024  1.00  0.00    -0.334 N 
ATOM      7  H   UNL     1       6.679   8.934  -0.738  1.00  0.00     0.175 HD
ATOM      8  H   UNL     1       9.262  10.660  -3.104  1.00  0.00     0.165 HD
ENDROOT
BRANCH   1   9
ATOM      9  C   UNL     1       5.418   7.004  -1.617  1.00  0.00     0.040 A 
ATOM     10  C   UNL     1       5.561   6.102  -0.561  1.00  0.00     0.014 A 
ATOM     11  C   UNL     1       4.422   5.599   0.069  1.00  0.00     0.004 A 
ATOM     12  C   UNL     1       4.147   7.357  -2.082  1.00  0.00     0.014 A 
ATOM     13  C   UNL     1       3.143   5.988  -0.357  1.00  0.00    -0.051 A 
ATOM     14  C   UNL     1       3.012   6.858  -1.446  1.00  0.00     0.004 A 
ATOM     15  C   UNL     1       1.930   5.505   0.384  1.00  0.00     0.044 C 
ENDBRANCH   1   9
BRANCH   6  16
ATOM     16  C   UNL     1       8.646   8.948  -4.169  1.00  0.00     0.153 C 
BRANCH  16  17
ATOM     17  C   UNL     1       8.897   9.567  -5.516  1.00  0.00    -0.029 A 
ATOM     18  C   UNL     1       7.920   9.646  -6.514  1.00  0.00     0.006 A 
ATOM     19  C   UNL     1      10.099  10.275  -5.685  1.00  0.00     0.006 A 
ATOM     20  C   UNL     1       8.138  10.441  -7.645  1.00  0.00     0.004 A 
ATOM     21  C   UNL     1      10.311  11.068  -6.808  1.00  0.00     0.004 A 
ATOM     22  C   UNL     1       9.328  11.166  -7.793  1.00  0.00    -0.051 A 
ATOM     23  C   UNL     1       9.509  12.129  -8.929  1.00  0.00     0.044 C 
ENDBRANCH  16  17
ENDBRANCH   6  16
TORSDOF 3
ENDMDL
MODEL 4
REMARK VINA RESULT:    -6.083      3.141      7.297
REMARK INTER + INTRA:          -7.643
REMARK INTER:                  -7.255
REMARK INTRA:                  -0.388
REMARK UNBOUND:                -0.493
REMARK SMILES Cc1ccc(CNC(=O)NC(=O)c2ccc(C)cc2)cc1
REMARK SMILES IDX 11 1 12 2 10 3 8 4 9 5 7 6 13 9 19 10 18 11 14 12 16 13
REMARK SMILES IDX 15 14 17 15 6 16 5 17 4 18 20 19 3 20 21 21 2 22 1 23
REMARK H PARENT 10 7 7 8
ROOT
ATOM      1  C   UNL     1       6.670   7.580  -1.902  1.00  0.00     0.259 C 
ATOM      2  O   UNL     1       6.368   8.094  -0.834  1.00  0.00    -0.269 OA
ATOM      3  N   UNL     1       7.381   8.136  -2.971  1.00  0.00    -0.274 N 
ATOM      4  C   UNL     1       8.171   9.232  -3.200  1.00  0.00     0.321 C 
ATOM      5  O   UNL     1       8.750   9.304  -4.290  1.00  0.00    -0.248 OA
ATOM      6  N   UNL     1       8.370  10.209  -2.296  1.00  0.00    -0.334 N 
ATOM      7  H   UNL     1       7.489   7.519  -3.765  1.00  0.00     0.175 HD
ATOM      8  H   UNL     1       9.046  10.901  -2.587  1.00  0.00     0.165 HD
ENDROOT
BRANCH   1   9
ATOM      9  C   UNL     1       6.238   6.184  -2.109  1.00  0.00     0.040 A 
ATOM     10  C   UNL     1       5.114   5.876  -2.878  1.00  0.00     0.014 A 
ATOM     11  C   UNL     1       4.776   4.539  -3.090  1.00  0.00     0.004 A 
ATOM     12  C   UNL     1       6.986   5.169  -1.505  1.00  0.00     0.014 A 
ATOM     13  C   UNL     1       5.550   3.512  -2.530  1.00  0.00    -0.051 A 
ATOM     14  C   UNL     1       6.648   3.835  -1.724  1.00  0.00     0.004 A 
ATOM     15  C   UNL     1       5.223   2.080  -2.836  1.00  0.00     0.044 C 
ENDBRANCH   1   9
BRANCH   6  16
ATOM     16  C   UNL     1       7.881  10.267  -0.948  1.00  0.00     0.153 C 
BRANCH  16  17
ATOM     17  C   UNL     1       8.669  11.085   0.038  1.00  0.00    -0.029 A 
ATOM     18  C   UNL     1       9.163  10.566   1.239  1.00  0.00     0.006 A 
ATOM     19  C   UNL     1       9.096  12.357  -0.378  1.00  0.00     0.006 A 
ATOM     20  C   UNL     1      10.085  11.300   1.992  1.00  0.00     0.004 A 
ATOM     21  C   UNL     1      10.017  13.084   0.370  1.00  0.00     0.004 A 
ATOM     22  C   UNL     1      10.528  12.557   1.557  1.00  0.00    -0.051 A 
ATOM     23  C   UNL     1      11.619  13.285   2.283  1.00  0.00     0.044 C 
ENDBRANCH  16  17
ENDBRANCH   6  16
TORSDOF 3
ENDMDL
MODEL 5
REMARK VINA RESULT:    -5.740      2.962      5.107
REMARK INTER + INTRA:          -7.240
REMARK INTER:                  -6.775
REMARK INTRA:                  -0.465
REMARK UNBOUND:                -0.493
REMARK SMILES Cc1ccc(CNC(=O)NC(=O)c2ccc(C)cc2)cc1
REMARK SMILES IDX 11 1 12 2 10 3 8 4 9 5 7 6 13 9 19 10 18 11 14 12 16 13
REMARK SMILES IDX 15 14 17 15 6 16 5 17 4 18 20 19 3 20 21 21 2 22 1 23
REMARK H PARENT 10 7 7 8
ROOT
ATOM      1  C   UNL     1       7.955   9.779  -0.671  1.00  0.00     0.259 C 
ATOM      2  O   UNL     1       7.009   9.296  -0.063  1.00  0.00    -0.269 OA
ATOM      3  N   UNL     1       8.415   9.478  -1.957  1.00  0.00    -0.274 N 
ATOM      4  C   UNL     1       7.961   8.809  -3.065  1.00  0.00     0.321 C 
ATOM      5  O   UNL     1       8.637   8.884  -4.096  1.00  0.00    -0.248 OA
ATOM      6  N   UNL     1       6.812   8.108  -3.092  1.00  0.00    -0.334 N 
ATOM      7  H   UNL     1       9.235   9.998  -2.238  1.00  0.00     0.175 HD
ATOM      8  H   UNL     1       6.578   7.748  -4.006  1.00  0.00     0.165 HD
ENDROOT
BRANCH   1   9
ATOM      9  C   UNL     1       8.724  10.826   0.029  1.00  0.00     0.040 A 
ATOM     10  C   UNL     1       9.204  10.633   1.325  1.00  0.00     0.014 A 
ATOM     11  C   UNL     1       9.972  11.632   1.926  1.00  0.00     0.004 A 
ATOM     12  C   UNL     1       8.955  12.031  -0.643  1.00  0.00     0.014 A 
ATOM     13  C   UNL     1      10.253  12.823   1.240  1.00  0.00    -0.051 A 
ATOM     14  C   UNL     1       9.727  13.023  -0.042  1.00  0.00     0.004 A 
ATOM     15  C   UNL     1      11.149  13.851   1.866  1.00  0.00     0.044 C 
ENDBRANCH   1   9
BRANCH   6  16
ATOM     16  C   UNL     1       5.838   7.982  -2.045  1.00  0.00     0.153 C 
BRANCH  16  17
ATOM     17  C   UNL     1       5.327   6.601  -1.741  1.00  0.00    -0.029 A 
ATOM     18  C   UNL     1       5.180   6.111  -0.440  1.00  0.00     0.006 A 
ATOM     19  C   UNL     1       4.784   5.867  -2.808  1.00  0.00     0.006 A 
ATOM     20  C   UNL     1       4.479   4.921  -0.215  1.00  0.00     0.004 A 
ATOM     21  C   UNL     1       4.084   4.686  -2.583  1.00  0.00     0.004 A 
ATOM     22  C   UNL     1       3.916   4.208  -1.282  1.00  0.00    -0.051 A 
ATOM     23  C   UNL     1       3.045   3.012  -1.038  1.00  0.00     0.044 C 
ENDBRANCH  16  17
ENDBRANCH   6  16
TORSDOF 3
ENDMDL
MODEL 6
REMARK VINA RESULT:    -5.696      1.233      1.704
REMARK INTER + INTRA:          -7.188
REMARK INTER:                  -6.705
REMARK INTRA:                  -0.483
REMARK UNBOUND:                -0.493
REMARK SMILES Cc1ccc(CNC(=O)NC(=O)c2ccc(C)cc2)cc1
REMARK SMILES IDX 11 1 12 2 10 3 8 4 9 5 7 6 13 9 19 10 18 11 14 12 16 13
REMARK SMILES IDX 15 14 17 15 6 16 5 17 4 18 20 19 3 20 21 21 2 22 1 23
REMARK H PARENT 10 7 7 8
ROOT
ATOM      1  C   UNL     1       8.440   9.026  -4.484  1.00  0.00     0.259 C 
ATOM      2  O   UNL     1       8.212   7.834  -4.635  1.00  0.00    -0.269 OA
ATOM      3  N   UNL     1       8.315   9.801  -3.327  1.00  0.00    -0.274 N 
ATOM      4  C   UNL     1       8.160   9.593  -1.980  1.00  0.00     0.321 C 
ATOM      5  O   UNL     1       8.228  10.578  -1.237  1.00  0.00    -0.248 OA
ATOM      6  N   UNL     1       7.969   8.379  -1.431  1.00  0.00    -0.334 N 
ATOM      7  H   UNL     1       8.543  10.778  -3.453  1.00  0.00     0.175 HD
ATOM      8  H   UNL     1       7.959   8.386  -0.422  1.00  0.00     0.165 HD
ENDROOT
BRANCH   1   9
ATOM      9  C   UNL     1       8.917   9.763  -5.670  1.00  0.00     0.040 A 
ATOM     10  C   UNL     1       8.200   9.757  -6.868  1.00  0.00     0.014 A 
ATOM     11  C   UNL     1       8.663  10.511  -7.946  1.00  0.00     0.004 A 
ATOM     12  C   UNL     1      10.120  10.468  -5.565  1.00  0.00     0.014 A 
ATOM     13  C   UNL     1       9.842  11.264  -7.834  1.00  0.00    -0.051 A 
ATOM     14  C   UNL     1      10.576  11.225  -6.642  1.00  0.00     0.004 A 
ATOM     15  C   UNL     1      10.282  12.137  -8.973  1.00  0.00     0.044 C 
ENDBRANCH   1   9
BRANCH   6  16
ATOM     16  C   UNL     1       7.962   7.108  -2.098  1.00  0.00     0.153 C 
BRANCH  16  17
ATOM     17  C   UNL     1       6.793   6.199  -1.838  1.00  0.00    -0.029 A 
ATOM     18  C   UNL     1       5.469   6.562  -2.107  1.00  0.00     0.006 A 
ATOM     19  C   UNL     1       7.077   4.863  -1.512  1.00  0.00     0.006 A 
ATOM     20  C   UNL     1       4.458   5.596  -2.073  1.00  0.00     0.004 A 
ATOM     21  C   UNL     1       6.071   3.902  -1.482  1.00  0.00     0.004 A 
ATOM     22  C   UNL     1       4.753   4.259  -1.773  1.00  0.00    -0.051 A 
ATOM     23  C   UNL     1       3.702   3.194  -1.873  1.00  0.00     0.044 C 
ENDBRANCH  16  17
ENDBRANCH   6  16
TORSDOF 3
ENDMDL
MODEL 7
REMARK VINA RESULT:    -4.972      5.088     11.060
REMARK INTER + INTRA:          -6.337
REMARK INTER:                  -5.841
REMARK INTRA:                  -0.496
REMARK UNBOUND:                -0.493
REMARK SMILES Cc1ccc(CNC(=O)NC(=O)c2ccc(C)cc2)cc1
REMARK SMILES IDX 11 1 12 2 10 3 8 4 9 5 7 6 13 9 19 10 18 11 14 12 16 13
REMARK SMILES IDX 15 14 17 15 6 16 5 17 4 18 20 19 3 20 21 21 2 22 1 23
REMARK H PARENT 10 7 7 8
ROOT
ATOM      1  C   UNL     1       9.580  11.623  -8.836  1.00  0.00     0.259 C 
ATOM      2  O   UNL     1       9.599  12.843  -8.750  1.00  0.00    -0.269 OA
ATOM      3  N   UNL     1       9.734  10.824  -9.974  1.00  0.00    -0.274 N 
ATOM      4  C   UNL     1      10.164  10.974 -11.267  1.00  0.00     0.321 C 
ATOM      5  O   UNL     1      10.280   9.954 -11.955  1.00  0.00    -0.248 OA
ATOM      6  N   UNL     1      10.491  12.162 -11.809  1.00  0.00    -0.334 N 
ATOM      7  H   UNL     1       9.658   9.830  -9.799  1.00  0.00     0.175 HD
ATOM      8  H   UNL     1      10.871  12.092 -12.743  1.00  0.00     0.165 HD
ENDROOT
BRANCH   1   9
ATOM      9  C   UNL     1       9.374  10.875  -7.581  1.00  0.00     0.040 A 
ATOM     10  C   UNL     1      10.328  10.886  -6.562  1.00  0.00     0.014 A 
ATOM     11  C   UNL     1      10.065  10.206  -5.372  1.00  0.00     0.004 A 
ATOM     12  C   UNL     1       8.192  10.141  -7.441  1.00  0.00     0.014 A 
ATOM     13  C   UNL     1       8.859   9.510  -5.201  1.00  0.00    -0.051 A 
ATOM     14  C   UNL     1       7.931   9.469  -6.248  1.00  0.00     0.004 A 
ATOM     15  C   UNL     1       8.555   8.856  -3.885  1.00  0.00     0.044 C 
ENDBRANCH   1   9
BRANCH   6  16
ATOM     16  C   UNL     1      10.527  13.441 -11.159  1.00  0.00     0.153 C 
BRANCH  16  17
ATOM     17  C   UNL     1      11.867  14.109 -11.023  1.00  0.00    -0.029 A 
ATOM     18  C   UNL     1      12.034  15.377 -10.458  1.00  0.00     0.006 A 
ATOM     19  C   UNL     1      13.004  13.327 -11.286  1.00  0.00     0.006 A 
ATOM     20  C   UNL     1      13.316  15.839 -10.141  1.00  0.00     0.004 A 
ATOM     21  C   UNL     1      14.278  13.786 -10.965  1.00  0.00     0.004 A 
ATOM     22  C   UNL     1      14.445  15.042 -10.380  1.00  0.00    -0.051 A 
ATOM     23  C   UNL     1      15.804  15.469  -9.913  1.00  0.00     0.044 C 
ENDBRANCH  16  17
ENDBRANCH   6  16
TORSDOF 3
ENDMDL
MODEL 8
REMARK VINA RESULT:    -4.840      2.041      2.584
REMARK INTER + INTRA:          -6.182
REMARK INTER:                  -5.742
REMARK INTRA:                  -0.440
REMARK UNBOUND:                -0.493
REMARK SMILES Cc1ccc(CNC(=O)NC(=O)c2ccc(C)cc2)cc1
REMARK SMILES IDX 11 1 12 2 10 3 8 4 9 5 7 6 13 9 19 10 18 11 14 12 16 13
REMARK SMILES IDX 15 14 17 15 6 16 5 17 4 18 20 19 3 20 21 21 2 22 1 23
REMARK H PARENT 10 7 7 8
ROOT
ATOM      1  C   UNL     1       7.478   8.663  -3.842  1.00  0.00     0.259 C 
ATOM      2  O   UNL     1       7.945   7.630  -3.381  1.00  0.00    -0.269 OA
ATOM      3  N   UNL     1       6.291   9.316  -3.499  1.00  0.00    -0.274 N 
ATOM      4  C   UNL     1       5.368   9.274  -2.485  1.00  0.00     0.321 C 
ATOM      5  O   UNL     1       4.489  10.143  -2.474  1.00  0.00    -0.248 OA
ATOM      6  N   UNL     1       5.389   8.362  -1.496  1.00  0.00    -0.334 N 
ATOM      7  H   UNL     1       6.103  10.151  -4.038  1.00  0.00     0.175 HD
ATOM      8  H   UNL     1       4.693   8.520  -0.782  1.00  0.00     0.165 HD
ENDROOT
BRANCH   1   9
ATOM      9  C   UNL     1       8.263   9.327  -4.900  1.00  0.00     0.040 A 
ATOM     10  C   UNL     1       7.802   9.391  -6.216  1.00  0.00     0.014 A 
ATOM     11  C   UNL     1       8.554  10.076  -7.172  1.00  0.00     0.004 A 
ATOM     12  C   UNL     1       9.494   9.890  -4.550  1.00  0.00     0.014 A 
ATOM     13  C   UNL     1       9.766  10.689  -6.819  1.00  0.00    -0.051 A 
ATOM     14  C   UNL     1      10.239  10.578  -5.506  1.00  0.00     0.004 A 
ATOM     15  C   UNL     1      10.520  11.493  -7.837  1.00  0.00     0.044 C 
ENDBRANCH   1   9
BRANCH   6  16
ATOM     16  C   UNL     1       6.373   7.342  -1.267  1.00  0.00     0.153 C 
BRANCH  16  17
ATOM     17  C   UNL     1       5.966   5.919  -1.534  1.00  0.00    -0.029 A 
ATOM     18  C   UNL     1       4.749   5.572  -2.130  1.00  0.00     0.006 A 
ATOM     19  C   UNL     1       6.946   4.927  -1.366  1.00  0.00     0.006 A 
ATOM     20  C   UNL     1       4.534   4.262  -2.570  1.00  0.00     0.004 A 
ATOM     21  C   UNL     1       6.733   3.626  -1.808  1.00  0.00     0.004 A 
ATOM     22  C   UNL     1       5.528   3.284  -2.424  1.00  0.00    -0.051 A 
ATOM     23  C   UNL     1       5.360   1.918  -3.019  1.00  0.00     0.044 C 
ENDBRANCH  16  17
ENDBRANCH   6  16
TORSDOF 3
ENDMDL
MODEL 9
REMARK VINA RESULT:    -4.721      2.076      8.194
REMARK INTER + INTRA:          -6.041
REMARK INTER:                  -5.558
REMARK INTRA:                  -0.483
REMARK UNBOUND:                -0.493
REMARK SMILES Cc1ccc(CNC(=O)NC(=O)c2ccc(C)cc2)cc1
REMARK SMILES IDX 11 1 12 2 10 3 8 4 9 5 7 6 13 9 19 10 18 11 14 12 16 13
REMARK SMILES IDX 15 14 17 15 6 16 5 17 4 18 20 19 3 20 21 21 2 22 1 23
REMARK H PARENT 10 7 7 8
ROOT
ATOM      1  C   UNL     1       8.608   9.057  -4.497  1.00  0.00     0.259 C 
ATOM      2  O   UNL     1       8.501   8.595  -5.624  1.00  0.00    -0.269 OA
ATOM      3  N   UNL     1       9.434  10.094  -4.051  1.00  0.00    -0.274 N 
ATOM      4  C   UNL     1      10.193  11.093  -4.603  1.00  0.00     0.321 C 
ATOM      5  O   UNL     1      10.690  11.925  -3.837  1.00  0.00    -0.248 OA
ATOM      6  N   UNL     1      10.397  11.228  -5.927  1.00  0.00    -0.334 N 
ATOM      7  H   UNL     1       9.363  10.287  -3.061  1.00  0.00     0.175 HD
ATOM      8  H   UNL     1      10.907  12.063  -6.177  1.00  0.00     0.165 HD
ENDROOT
BRANCH   1   9
ATOM      9  C   UNL     1       7.755   8.456  -3.453  1.00  0.00     0.040 A 
ATOM     10  C   UNL     1       6.566   9.063  -3.046  1.00  0.00     0.014 A 
ATOM     11  C   UNL     1       5.767   8.431  -2.093  1.00  0.00     0.004 A 
ATOM     12  C   UNL     1       8.177   7.257  -2.871  1.00  0.00     0.014 A 
ATOM     13  C   UNL     1       6.155   7.201  -1.540  1.00  0.00    -0.051 A 
ATOM     14  C   UNL     1       7.372   6.626  -1.924  1.00  0.00     0.004 A 
ATOM     15  C   UNL     1       5.244   6.494  -0.581  1.00  0.00     0.044 C 
ENDBRANCH   1   9
BRANCH   6  16
ATOM     16  C   UNL     1       9.832  10.439  -6.985  1.00  0.00     0.153 C 
BRANCH  16  17
ATOM     17  C   UNL     1       9.214  11.176  -8.141  1.00  0.00    -0.029 A 
ATOM     18  C   UNL     1       7.923  11.712  -8.102  1.00  0.00     0.006 A 
ATOM     19  C   UNL     1      10.057  11.513  -9.213  1.00  0.00     0.006 A 
ATOM     20  C   UNL     1       7.498  12.588  -9.108  1.00  0.00     0.004 A 
ATOM     21  C   UNL     1       9.635  12.388 -10.209  1.00  0.00     0.004 A 
ATOM     22  C   UNL     1       8.355  12.941 -10.160  1.00  0.00    -0.051 A 
ATOM     23  C   UNL     1       7.959  13.986 -11.160  1.00  0.00     0.044 C 
ENDBRANCH  16  17
ENDBRANCH   6  16
TORSDOF 3
ENDMDL
