MODEL 1
REMARK VINA RESULT:    -4.358      0.000      0.000
REMARK INTER + INTRA:          -5.979
REMARK INTER:                  -5.760
REMARK INTRA:                  -0.220
REMARK UNBOUND:                -0.220
REMARK SMILES [H]/N=C\C[C@H]1C[C@@H]1O[C@H]1CO[C@H]2C[C@@H](C3CC3)CCN2C1
REMARK SMILES IDX 7 1 6 2 5 3 8 4 9 5 14 6 13 7 18 8 12 9 19 10 20 11 11 12
REMARK SMILES IDX 21 13 10 14 15 15 16 16 17 17 4 18 3 19 2 20 1 21
REMARK H PARENT
ROOT
ATOM      1  C   UNL     1       8.102   9.416  -5.021  1.00  0.00     0.122 C 
ATOM      2  C   UNL     1       9.494   9.791  -5.445  1.00  0.00     0.039 C 
ATOM      3  C   UNL     1       8.490   9.353  -6.473  1.00  0.00     0.026 C 
ENDROOT
BRANCH   1   4
ATOM      4  O   UNL     1       8.020   8.160  -4.321  1.00  0.00    -0.371 OA
BRANCH   4   5
ATOM      5  C   UNL     1       8.502   8.173  -2.967  1.00  0.00     0.158 C 
ATOM      6  C   UNL     1       4.559   5.614  -0.707  1.00  0.00    -0.003 C 
ATOM      7  C   UNL     1       4.760   7.009  -1.313  1.00  0.00     0.052 C 
ATOM      8  C   UNL     1       5.433   4.603  -1.461  1.00  0.00     0.019 C 
ATOM      9  C   UNL     1       6.244   7.393  -1.380  1.00  0.00     0.189 C 
ATOM     10  C   UNL     1       6.891   5.060  -1.522  1.00  0.00     0.087 C 
ATOM     11  N   UNL     1       6.998   6.387  -2.128  1.00  0.00    -0.276 NA
ATOM     12  O   UNL     1       6.306   8.680  -1.998  1.00  0.00    -0.360 OA
ATOM     13  C   UNL     1       8.398   6.804  -2.273  1.00  0.00     0.121 C 
ATOM     14  C   UNL     1       7.644   9.157  -2.165  1.00  0.00     0.195 C 
BRANCH   6  15
ATOM     15  C   UNL     1       3.107   5.195  -0.748  1.00  0.00    -0.008 C 
ATOM     16  C   UNL     1       2.468   4.535   0.451  1.00  0.00     0.004 C 
ATOM     17  C   UNL     1       2.067   5.929   0.064  1.00  0.00     0.004 C 
ENDBRANCH   6  15
ENDBRANCH   4   5
ENDBRANCH   1   4
BRANCH   3  18
ATOM     18  C   UNL     1       7.955  10.364  -7.443  1.00  0.00     0.053 C 
BRANCH  18  19
ATOM     19  C   UNL     1       8.970  11.046  -8.322  1.00  0.00     0.074 C 
BRANCH  19  20
ATOM     20  N   UNL     1       9.563  10.521  -9.342  1.00  0.00    -0.313 NA
ATOM     21  H   UNL     1      10.502  10.174  -9.098  1.00  0.00     0.186 HD
ENDBRANCH  19  20
ENDBRANCH  18  19
ENDBRANCH   3  18
TORSDOF 6
ENDMDL
MODEL 2
REMARK VINA RESULT:    -4.300      3.279      5.521
REMARK INTER + INTRA:          -5.902
REMARK INTER:                  -5.682
REMARK INTRA:                  -0.220
REMARK UNBOUND:                -0.220
REMARK SMILES [H]/N=C\C[C@H]1C[C@@H]1O[C@H]1CO[C@H]2C[C@@H](C3CC3)CCN2C1
REMARK SMILES IDX 7 1 6 2 5 3 8 4 9 5 14 6 13 7 18 8 12 9 19 10 20 11 11 12
REMARK SMILES IDX 21 13 10 14 15 15 16 16 17 17 4 18 3 19 2 20 1 21
REMARK H PARENT
ROOT
ATOM      1  C   UNL     1       8.693  10.166  -0.204  1.00  0.00     0.122 C 
ATOM      2  C   UNL     1       8.787  11.665  -0.162  1.00  0.00     0.039 C 
ATOM      3  C   UNL     1       8.879  10.872   1.111  1.00  0.00     0.026 C 
ENDROOT
BRANCH   1   4
ATOM      4  O   UNL     1       7.371   9.668  -0.487  1.00  0.00    -0.371 OA
BRANCH   4   5
ATOM      5  C   UNL     1       6.960   9.749  -1.862  1.00  0.00     0.158 C 
ATOM      6  C   UNL     1       5.000   4.943  -2.377  1.00  0.00    -0.003 C 
ATOM      7  C   UNL     1       6.403   5.549  -2.248  1.00  0.00     0.052 C 
ATOM      8  C   UNL     1       4.003   5.798  -1.582  1.00  0.00     0.019 C 
ATOM      9  C   UNL     1       6.417   7.037  -2.623  1.00  0.00     0.189 C 
ATOM     10  C   UNL     1       4.092   7.271  -1.978  1.00  0.00     0.087 C 
ATOM     11  N   UNL     1       5.454   7.778  -1.809  1.00  0.00    -0.276 NA
ATOM     12  O   UNL     1       7.755   7.496  -2.421  1.00  0.00    -0.360 OA
ATOM     13  C   UNL     1       5.537   9.213  -2.102  1.00  0.00     0.121 C 
ATOM     14  C   UNL     1       7.916   8.891  -2.696  1.00  0.00     0.195 C 
BRANCH   6  15
ATOM     15  C   UNL     1       4.969   3.509  -1.898  1.00  0.00    -0.008 C 
ATOM     16  C   UNL     1       4.180   2.467  -2.656  1.00  0.00     0.004 C 
ATOM     17  C   UNL     1       5.680   2.421  -2.666  1.00  0.00     0.004 C 
ENDBRANCH   6  15
ENDBRANCH   4   5
ENDBRANCH   1   4
BRANCH   3  18
ATOM     18  C   UNL     1      10.194  10.800   1.828  1.00  0.00     0.053 C 
BRANCH  18  19
ATOM     19  C   UNL     1      10.789  12.114   2.262  1.00  0.00     0.074 C 
BRANCH  19  20
ATOM     20  N   UNL     1      10.155  13.077   2.843  1.00  0.00    -0.313 NA
ATOM     21  H   UNL     1      10.773  13.878   3.033  1.00  0.00     0.186 HD
ENDBRANCH  19  20
ENDBRANCH  18  19
ENDBRANCH   3  18
TORSDOF 6
ENDMDL
MODEL 3
REMARK VINA RESULT:    -4.161      2.705      8.533
REMARK INTER + INTRA:          -5.718
REMARK INTER:                  -5.576
REMARK INTRA:                  -0.142
REMARK UNBOUND:                -0.220
REMARK SMILES [H]/N=C\C[C@H]1C[C@@H]1O[C@H]1CO[C@H]2C[C@@H](C3CC3)CCN2C1
REMARK SMILES IDX 7 1 6 2 5 3 8 4 9 5 14 6 13 7 18 8 12 9 19 10 20 11 11 12
REMARK SMILES IDX 21 13 10 14 15 15 16 16 17 17 4 18 3 19 2 20 1 21
REMARK H PARENT
ROOT
ATOM      1  C   UNL     1       7.367   8.800  -2.814  1.00  0.00     0.122 C 
ATOM      2  C   UNL     1       7.089   9.549  -1.542  1.00  0.00     0.039 C 
ATOM      3  C   UNL     1       5.956   9.175  -2.453  1.00  0.00     0.026 C 
ENDROOT
BRANCH   1   4
ATOM      4  O   UNL     1       8.005   9.592  -3.835  1.00  0.00    -0.371 OA
BRANCH   4   5
ATOM      5  C   UNL     1       8.892   8.877  -4.710  1.00  0.00     0.158 C 
ATOM      6  C   UNL     1       8.996  12.275  -8.665  1.00  0.00    -0.003 C 
ATOM      7  C   UNL     1       7.972  11.288  -8.092  1.00  0.00     0.052 C 
ATOM      8  C   UNL     1       9.869  12.820  -7.526  1.00  0.00     0.019 C 
ATOM      9  C   UNL     1       8.643  10.200  -7.243  1.00  0.00     0.189 C 
ATOM     10  C   UNL     1      10.478  11.688  -6.699  1.00  0.00     0.087 C 
ATOM     11  N   UNL     1       9.438  10.804  -6.174  1.00  0.00    -0.276 NA
ATOM     12  O   UNL     1       7.593   9.376  -6.731  1.00  0.00    -0.360 OA
ATOM     13  C   UNL     1      10.000   9.763  -5.306  1.00  0.00     0.121 C 
ATOM     14  C   UNL     1       8.068   8.329  -5.879  1.00  0.00     0.195 C 
BRANCH   6  15
ATOM     15  C   UNL     1       8.321  13.407  -9.405  1.00  0.00    -0.008 C 
ATOM     16  C   UNL     1       9.039  14.123 -10.526  1.00  0.00     0.004 C 
ATOM     17  C   UNL     1       7.868  13.236 -10.835  1.00  0.00     0.004 C 
ENDBRANCH   6  15
ENDBRANCH   4   5
ENDBRANCH   1   4
BRANCH   3  18
ATOM     18  C   UNL     1       4.984   8.123  -2.011  1.00  0.00     0.053 C 
BRANCH  18  19
ATOM     19  C   UNL     1       3.525   8.433  -2.224  1.00  0.00     0.074 C 
BRANCH  19  20
ATOM     20  N   UNL     1       3.002   9.612  -2.290  1.00  0.00    -0.313 NA
ATOM     21  H   UNL     1       2.000   9.597  -2.054  1.00  0.00     0.186 HD
ENDBRANCH  19  20
ENDBRANCH  18  19
ENDBRANCH   3  18
TORSDOF 6
ENDMDL
MODEL 4
REMARK VINA RESULT:    -4.159      3.658      5.141
REMARK INTER + INTRA:          -5.716
REMARK INTER:                  -5.431
REMARK INTRA:                  -0.286
REMARK UNBOUND:                -0.220
REMARK SMILES [H]/N=C\C[C@H]1C[C@@H]1O[C@H]1CO[C@H]2C[C@@H](C3CC3)CCN2C1
REMARK SMILES IDX 7 1 6 2 5 3 8 4 9 5 14 6 13 7 18 8 12 9 19 10 20 11 11 12
REMARK SMILES IDX 21 13 10 14 15 15 16 16 17 17 4 18 3 19 2 20 1 21
REMARK H PARENT
ROOT
ATOM      1  C   UNL     1       8.012  11.460  -8.215  1.00  0.00     0.122 C 
ATOM      2  C   UNL     1       6.809  12.099  -8.848  1.00  0.00     0.039 C 
ATOM      3  C   UNL     1       7.776  12.937  -8.062  1.00  0.00     0.026 C 
ENDROOT
BRANCH   1   4
ATOM      4  O   UNL     1       7.707  10.636  -7.074  1.00  0.00    -0.371 OA
BRANCH   4   5
ATOM      5  C   UNL     1       8.672   9.615  -6.770  1.00  0.00     0.158 C 
ATOM      6  C   UNL     1       8.183   9.592  -1.578  1.00  0.00    -0.003 C 
ATOM      7  C   UNL     1       8.785  10.543  -2.620  1.00  0.00     0.052 C 
ATOM      8  C   UNL     1       6.975   8.869  -2.189  1.00  0.00     0.019 C 
ATOM      9  C   UNL     1       9.090   9.822  -3.940  1.00  0.00     0.189 C 
ATOM     10  C   UNL     1       7.335   8.202  -3.516  1.00  0.00     0.087 C 
ATOM     11  N   UNL     1       7.884   9.177  -4.459  1.00  0.00    -0.276 NA
ATOM     12  O   UNL     1       9.598  10.811  -4.838  1.00  0.00    -0.360 OA
ATOM     13  C   UNL     1       8.154   8.570  -5.767  1.00  0.00     0.121 C 
ATOM     14  C   UNL     1       9.894  10.288  -6.137  1.00  0.00     0.195 C 
BRANCH   6  15
ATOM     15  C   UNL     1       7.780  10.330  -0.321  1.00  0.00    -0.008 C 
ATOM     16  C   UNL     1       8.672  10.307   0.898  1.00  0.00     0.004 C 
ATOM     17  C   UNL     1       8.513  11.576   0.113  1.00  0.00     0.004 C 
ENDBRANCH   6  15
ENDBRANCH   4   5
ENDBRANCH   1   4
BRANCH   3  18
ATOM     18  C   UNL     1       8.643  13.921  -8.789  1.00  0.00     0.053 C 
BRANCH  18  19
ATOM     19  C   UNL     1       9.270  15.004  -7.950  1.00  0.00     0.074 C 
BRANCH  19  20
ATOM     20  N   UNL     1       9.199  15.102  -6.664  1.00  0.00    -0.313 NA
ATOM     21  H   UNL     1      10.082  14.825  -6.213  1.00  0.00     0.186 HD
ENDBRANCH  19  20
ENDBRANCH  18  19
ENDBRANCH   3  18
TORSDOF 6
ENDMDL
MODEL 5
REMARK VINA RESULT:    -4.159      5.017      7.404
REMARK INTER + INTRA:          -5.716
REMARK INTER:                  -5.495
REMARK INTRA:                  -0.221
REMARK UNBOUND:                -0.220
REMARK SMILES [H]/N=C\C[C@H]1C[C@@H]1O[C@H]1CO[C@H]2C[C@@H](C3CC3)CCN2C1
REMARK SMILES IDX 7 1 6 2 5 3 8 4 9 5 14 6 13 7 18 8 12 9 19 10 20 11 11 12
REMARK SMILES IDX 21 13 10 14 15 15 16 16 17 17 4 18 3 19 2 20 1 21
REMARK H PARENT
ROOT
ATOM      1  C   UNL     1      11.543  11.710   2.015  1.00  0.00     0.122 C 
ATOM      2  C   UNL     1      12.436  10.960   2.963  1.00  0.00     0.039 C 
ATOM      3  C   UNL     1      12.995  11.505   1.679  1.00  0.00     0.026 C 
ENDROOT
BRANCH   1   4
ATOM      4  O   UNL     1      10.596  10.877   1.319  1.00  0.00    -0.371 OA
BRANCH   4   5
ATOM      5  C   UNL     1       9.280  11.434   1.162  1.00  0.00     0.158 C 
ATOM      6  C   UNL     1       8.069   9.293  -3.438  1.00  0.00    -0.003 C 
ATOM      7  C   UNL     1       9.015  10.400  -2.957  1.00  0.00     0.052 C 
ATOM      8  C   UNL     1       7.951   8.218  -2.349  1.00  0.00     0.019 C 
ATOM      9  C   UNL     1       8.603  10.944  -1.582  1.00  0.00     0.189 C 
ATOM     10  C   UNL     1       7.572   8.829  -1.000  1.00  0.00     0.087 C 
ATOM     11  N   UNL     1       8.531   9.859  -0.604  1.00  0.00    -0.276 NA
ATOM     12  O   UNL     1       9.577  11.927  -1.223  1.00  0.00    -0.360 OA
ATOM     13  C   UNL     1       8.231  10.395   0.729  1.00  0.00     0.121 C 
ATOM     14  C   UNL     1       9.343  12.502   0.066  1.00  0.00     0.195 C 
BRANCH   6  15
ATOM     15  C   UNL     1       8.545   8.682  -4.737  1.00  0.00    -0.008 C 
ATOM     16  C   UNL     1       7.970   9.145  -6.054  1.00  0.00     0.004 C 
ATOM     17  C   UNL     1       9.390   9.477  -5.702  1.00  0.00     0.004 C 
ENDBRANCH   6  15
ENDBRANCH   4   5
ENDBRANCH   1   4
BRANCH   3  18
ATOM     18  C   UNL     1      13.953  12.656   1.734  1.00  0.00     0.053 C 
BRANCH  18  19
ATOM     19  C   UNL     1      14.377  13.234   0.409  1.00  0.00     0.074 C 
BRANCH  19  20
ATOM     20  N   UNL     1      13.904  12.905  -0.747  1.00  0.00    -0.313 NA
ATOM     21  H   UNL     1      12.875  12.931  -0.757  1.00  0.00     0.186 HD
ENDBRANCH  19  20
ENDBRANCH  18  19
ENDBRANCH   3  18
TORSDOF 6
ENDMDL
MODEL 6
REMARK VINA RESULT:    -4.156      5.173      8.361
REMARK INTER + INTRA:          -5.712
REMARK INTER:                  -5.541
REMARK INTRA:                  -0.171
REMARK UNBOUND:                -0.220
REMARK SMILES [H]/N=C\C[C@H]1C[C@@H]1O[C@H]1CO[C@H]2C[C@@H](C3CC3)CCN2C1
REMARK SMILES IDX 7 1 6 2 5 3 8 4 9 5 14 6 13 7 18 8 12 9 19 10 20 11 11 12
REMARK SMILES IDX 21 13 10 14 15 15 16 16 17 17 4 18 3 19 2 20 1 21
REMARK H PARENT
ROOT
ATOM      1  C   UNL     1       7.749   8.739  -1.973  1.00  0.00     0.122 C 
ATOM      2  C   UNL     1       8.267   8.246  -3.295  1.00  0.00     0.039 C 
ATOM      3  C   UNL     1       8.369   7.372  -2.078  1.00  0.00     0.026 C 
ENDROOT
BRANCH   1   4
ATOM      4  O   UNL     1       8.557   9.769  -1.373  1.00  0.00    -0.371 OA
BRANCH   4   5
ATOM      5  C   UNL     1       7.849  10.712  -0.552  1.00  0.00     0.158 C 
ATOM      6  C   UNL     1      11.887  12.553   2.188  1.00  0.00    -0.003 C 
ATOM      7  C   UNL     1      11.093  11.242   2.150  1.00  0.00     0.052 C 
ATOM      8  C   UNL     1      11.930  13.162   0.779  1.00  0.00     0.019 C 
ATOM      9  C   UNL     1       9.711  11.432   1.508  1.00  0.00     0.189 C 
ATOM     10  C   UNL     1      10.528  13.292   0.184  1.00  0.00     0.087 C 
ATOM     11  N   UNL     1       9.846  11.998   0.166  1.00  0.00    -0.276 NA
ATOM     12  O   UNL     1       9.091  10.145   1.487  1.00  0.00    -0.360 OA
ATOM     13  C   UNL     1       8.532  12.089  -0.482  1.00  0.00     0.121 C 
ATOM     14  C   UNL     1       7.797  10.157   0.875  1.00  0.00     0.195 C 
BRANCH   6  15
ATOM     15  C   UNL     1      13.288  12.338   2.716  1.00  0.00    -0.008 C 
ATOM     16  C   UNL     1      13.993  13.434   3.478  1.00  0.00     0.004 C 
ATOM     17  C   UNL     1      13.543  12.196   4.197  1.00  0.00     0.004 C 
ENDBRANCH   6  15
ENDBRANCH   4   5
ENDBRANCH   1   4
BRANCH   3  18
ATOM     18  C   UNL     1       7.513   6.145  -1.991  1.00  0.00     0.053 C 
BRANCH  18  19
ATOM     19  C   UNL     1       8.195   4.889  -1.514  1.00  0.00     0.074 C 
BRANCH  19  20
ATOM     20  N   UNL     1       9.443   4.598  -1.672  1.00  0.00    -0.313 NA
ATOM     21  H   UNL     1       9.975   5.398  -2.042  1.00  0.00     0.186 HD
ENDBRANCH  19  20
ENDBRANCH  18  19
ENDBRANCH   3  18
TORSDOF 6
ENDMDL
MODEL 7
REMARK VINA RESULT:    -3.786      3.629      5.055
REMARK INTER + INTRA:          -5.223
REMARK INTER:                  -5.533
REMARK INTRA:                   0.310
REMARK UNBOUND:                -0.220
REMARK SMILES [H]/N=C\C[C@H]1C[C@@H]1O[C@H]1CO[C@H]2C[C@@H](C3CC3)CCN2C1
REMARK SMILES IDX 7 1 6 2 5 3 8 4 9 5 14 6 13 7 18 8 12 9 19 10 20 11 11 12
REMARK SMILES IDX 21 13 10 14 15 15 16 16 17 17 4 18 3 19 2 20 1 21
REMARK H PARENT
ROOT
ATOM      1  C   UNL     1       7.774  11.538  -8.397  1.00  0.00     0.122 C 
ATOM      2  C   UNL     1       7.328  12.952  -8.638  1.00  0.00     0.039 C 
ATOM      3  C   UNL     1       8.690  12.509  -9.091  1.00  0.00     0.026 C 
ENDROOT
BRANCH   1   4
ATOM      4  O   UNL     1       8.072  11.242  -7.019  1.00  0.00    -0.371 OA
BRANCH   4   5
ATOM      5  C   UNL     1       8.882  10.076  -6.797  1.00  0.00     0.158 C 
ATOM      6  C   UNL     1       8.079   9.531  -1.672  1.00  0.00    -0.003 C 
ATOM      7  C   UNL     1       8.857  10.506  -2.565  1.00  0.00     0.052 C 
ATOM      8  C   UNL     1       6.830   9.046  -2.420  1.00  0.00     0.019 C 
ATOM      9  C   UNL     1       9.149   9.905  -3.946  1.00  0.00     0.189 C 
ATOM     10  C   UNL     1       7.184   8.492  -3.800  1.00  0.00     0.087 C 
ATOM     11  N   UNL     1       7.906   9.486  -4.593  1.00  0.00    -0.276 NA
ATOM     12  O   UNL     1       9.830  10.914  -4.695  1.00  0.00    -0.360 OA
ATOM     13  C   UNL     1       8.177   9.001  -5.951  1.00  0.00     0.121 C 
ATOM     14  C   UNL     1      10.137  10.508  -6.032  1.00  0.00     0.195 C 
BRANCH   6  15
ATOM     15  C   UNL     1       7.696  10.169  -0.356  1.00  0.00    -0.008 C 
ATOM     16  C   UNL     1       8.690  10.234   0.780  1.00  0.00     0.004 C 
ATOM     17  C   UNL     1       8.290  11.492   0.065  1.00  0.00     0.004 C 
ENDBRANCH   6  15
ENDBRANCH   4   5
ENDBRANCH   1   4
BRANCH   3  18
ATOM     18  C   UNL     1       8.959  12.376 -10.560  1.00  0.00     0.053 C 
BRANCH  18  19
ATOM     19  C   UNL     1      10.158  11.549 -10.945  1.00  0.00     0.074 C 
BRANCH  19  20
ATOM     20  N   UNL     1      10.126  10.381 -11.496  1.00  0.00    -0.313 NA
ATOM     21  H   UNL     1      10.959  10.212 -12.077  1.00  0.00     0.186 HD
ENDBRANCH  19  20
ENDBRANCH  18  19
ENDBRANCH   3  18
TORSDOF 6
ENDMDL
MODEL 8
REMARK VINA RESULT:    -3.731      6.030      7.457
REMARK INTER + INTRA:          -5.151
REMARK INTER:                  -4.918
REMARK INTRA:                  -0.233
REMARK UNBOUND:                -0.220
REMARK SMILES [H]/N=C\C[C@H]1C[C@@H]1O[C@H]1CO[C@H]2C[C@@H](C3CC3)CCN2C1
REMARK SMILES IDX 7 1 6 2 5 3 8 4 9 5 14 6 13 7 18 8 12 9 19 10 20 11 11 12
REMARK SMILES IDX 21 13 10 14 15 15 16 16 17 17 4 18 3 19 2 20 1 21
REMARK H PARENT
ROOT
ATOM      1  C   UNL     1      13.773  14.441  -0.643  1.00  0.00     0.122 C 
ATOM      2  C   UNL     1      15.119  13.839  -0.354  1.00  0.00     0.039 C 
ATOM      3  C   UNL     1      14.662  14.002  -1.775  1.00  0.00     0.026 C 
ENDROOT
BRANCH   1   4
ATOM      4  O   UNL     1      12.664  13.580  -0.324  1.00  0.00    -0.371 OA
BRANCH   4   5
ATOM      5  C   UNL     1      11.486  14.243   0.163  1.00  0.00     0.158 C 
ATOM      6  C   UNL     1       8.052  10.390  -0.593  1.00  0.00    -0.003 C 
ATOM      7  C   UNL     1       8.826  11.363  -1.491  1.00  0.00     0.052 C 
ATOM      8  C   UNL     1       8.897  10.059   0.645  1.00  0.00     0.019 C 
ATOM      9  C   UNL     1       9.307  12.596  -0.713  1.00  0.00     0.189 C 
ATOM     10  C   UNL     1       9.372  11.328   1.353  1.00  0.00     0.087 C 
ATOM     11  N   UNL     1      10.116  12.192   0.436  1.00  0.00    -0.276 NA
ATOM     12  O   UNL     1      10.047  13.398  -1.636  1.00  0.00    -0.360 OA
ATOM     13  C   UNL     1      10.653  13.372   1.122  1.00  0.00     0.121 C 
ATOM     14  C   UNL     1      10.596  14.577  -1.038  1.00  0.00     0.195 C 
BRANCH   6  15
ATOM     15  C   UNL     1       7.680   9.126  -1.335  1.00  0.00    -0.008 C 
ATOM     16  C   UNL     1       6.340   9.010  -2.022  1.00  0.00     0.004 C 
ATOM     17  C   UNL     1       7.593   9.112  -2.842  1.00  0.00     0.004 C 
ENDBRANCH   6  15
ENDBRANCH   4   5
ENDBRANCH   1   4
BRANCH   3  18
ATOM     18  C   UNL     1      15.338  15.020  -2.644  1.00  0.00     0.053 C 
BRANCH  18  19
ATOM     19  C   UNL     1      15.575  14.621  -4.077  1.00  0.00     0.074 C 
BRANCH  19  20
ATOM     20  N   UNL     1      15.273  13.482  -4.606  1.00  0.00    -0.313 NA
ATOM     21  H   UNL     1      14.254  13.339  -4.643  1.00  0.00     0.186 HD
ENDBRANCH  19  20
ENDBRANCH  18  19
ENDBRANCH   3  18
TORSDOF 6
ENDMDL
MODEL 9
REMARK VINA RESULT:    -3.578      6.833      8.297
REMARK INTER + INTRA:          -4.948
REMARK INTER:                  -4.322
REMARK INTRA:                  -0.625
REMARK UNBOUND:                -0.220
REMARK SMILES [H]/N=C\C[C@H]1C[C@@H]1O[C@H]1CO[C@H]2C[C@@H](C3CC3)CCN2C1
REMARK SMILES IDX 7 1 6 2 5 3 8 4 9 5 14 6 13 7 18 8 12 9 19 10 20 11 11 12
REMARK SMILES IDX 21 13 10 14 15 15 16 16 17 17 4 18 3 19 2 20 1 21
REMARK H PARENT
ROOT
ATOM      1  C   UNL     1      13.661  15.201  -1.529  1.00  0.00     0.122 C 
ATOM      2  C   UNL     1      14.664  14.837  -2.587  1.00  0.00     0.039 C 
ATOM      3  C   UNL     1      13.308  14.191  -2.587  1.00  0.00     0.026 C 
ENDROOT
BRANCH   1   4
ATOM      4  O   UNL     1      13.973  14.683  -0.222  1.00  0.00    -0.371 OA
BRANCH   4   5
ATOM      5  C   UNL     1      13.229  15.257   0.866  1.00  0.00     0.158 C 
ATOM      6  C   UNL     1       9.664  11.494   1.448  1.00  0.00    -0.003 C 
ATOM      7  C   UNL     1       9.945  12.591   0.413  1.00  0.00     0.052 C 
ATOM      8  C   UNL     1      10.992  11.011   2.047  1.00  0.00     0.019 C 
ATOM      9  C   UNL     1      10.815  13.714   0.994  1.00  0.00     0.189 C 
ATOM     10  C   UNL     1      11.824  12.179   2.576  1.00  0.00     0.087 C 
ATOM     11  N   UNL     1      12.064  13.169   1.526  1.00  0.00    -0.276 NA
ATOM     12  O   UNL     1      11.045  14.643  -0.067  1.00  0.00    -0.360 OA
ATOM     13  C   UNL     1      12.934  14.253   1.994  1.00  0.00     0.121 C 
ATOM     14  C   UNL     1      11.881  15.738   0.319  1.00  0.00     0.195 C 
BRANCH   6  15
ATOM     15  C   UNL     1       8.905  10.338   0.838  1.00  0.00    -0.008 C 
ATOM     16  C   UNL     1       7.414  10.210   1.045  1.00  0.00     0.004 C 
ATOM     17  C   UNL     1       7.952  10.558  -0.312  1.00  0.00     0.004 C 
ENDBRANCH   6  15
ENDBRANCH   4   5
ENDBRANCH   1   4
BRANCH   3  18
ATOM     18  C   UNL     1      12.336  14.543  -3.673  1.00  0.00     0.053 C 
BRANCH  18  19
ATOM     19  C   UNL     1      10.965  13.926  -3.564  1.00  0.00     0.074 C 
BRANCH  19  20
ATOM     20  N   UNL     1       9.999  14.353  -2.821  1.00  0.00    -0.313 NA
ATOM     21  H   UNL     1       9.442  15.075  -3.300  1.00  0.00     0.186 HD
ENDBRANCH  19  20
ENDBRANCH  18  19
ENDBRANCH   3  18
TORSDOF 6
ENDMDL
