MODEL 1
REMARK VINA RESULT:    -6.186      0.000      0.000
REMARK INTER + INTRA:          -7.654
REMARK INTER:                  -7.271
REMARK INTRA:                  -0.383
REMARK UNBOUND:                -0.383
REMARK SMILES Cc1ccc(CNC(=O)NC(=O)c2ccc(C)cc2)cc1
REMARK SMILES IDX 11 1 12 2 10 3 8 4 9 5 7 6 13 9 19 10 18 11 14 12 16 13
REMARK SMILES IDX 15 14 17 15 6 16 5 17 4 18 20 19 3 20 21 21 2 22 1 23
REMARK H PARENT 10 7 7 8
ROOT
ATOM      1  C   UNL     1       7.229  -8.346   1.378  1.00  0.00     0.259 C 
ATOM      2  O   UNL     1       7.882  -7.681   2.169  1.00  0.00    -0.269 OA
ATOM      3  N   UNL     1       7.543  -9.583   0.806  1.00  0.00    -0.274 N 
ATOM      4  C   UNL     1       8.446 -10.595   1.012  1.00  0.00     0.321 C 
ATOM      5  O   UNL     1       8.310 -11.628   0.348  1.00  0.00    -0.248 OA
ATOM      6  N   UNL     1       9.443 -10.530   1.913  1.00  0.00    -0.334 N 
ATOM      7  H   UNL     1       6.850  -9.930   0.157  1.00  0.00     0.175 HD
ATOM      8  H   UNL     1       9.966 -11.389   2.003  1.00  0.00     0.165 HD
ENDROOT
BRANCH   1   9
ATOM      9  C   UNL     1       5.927  -7.789   0.963  1.00  0.00     0.040 A 
ATOM     10  C   UNL     1       5.792  -7.059  -0.220  1.00  0.00     0.014 A 
ATOM     11  C   UNL     1       4.531  -6.597  -0.597  1.00  0.00     0.004 A 
ATOM     12  C   UNL     1       4.824  -8.006   1.794  1.00  0.00     0.014 A 
ATOM     13  C   UNL     1       3.409  -6.854   0.204  1.00  0.00    -0.051 A 
ATOM     14  C   UNL     1       3.566  -7.548   1.410  1.00  0.00     0.004 A 
ATOM     15  C   UNL     1       2.047  -6.424  -0.257  1.00  0.00     0.044 C 
ENDBRANCH   1   9
BRANCH   6  16
ATOM     16  C   UNL     1       9.712  -9.475   2.849  1.00  0.00     0.153 C 
BRANCH  16  17
ATOM     17  C   UNL     1      10.473  -9.834   4.095  1.00  0.00    -0.029 A 
ATOM     18  C   UNL     1       9.961  -9.646   5.383  1.00  0.00     0.006 A 
ATOM     19  C   UNL     1      11.652 -10.579   3.935  1.00  0.00     0.006 A 
ATOM     20  C   UNL     1      10.609 -10.217   6.483  1.00  0.00     0.004 A 
ATOM     21  C   UNL     1      12.293 -11.151   5.030  1.00  0.00     0.004 A 
ATOM     22  C   UNL     1      11.771 -10.983   6.314  1.00  0.00    -0.051 A 
ATOM     23  C   UNL     1      12.388 -11.714   7.468  1.00  0.00     0.044 C 
ENDBRANCH  16  17
ENDBRANCH   6  16
TORSDOF 3
ENDMDL
MODEL 2
REMARK VINA RESULT:    -6.146      3.245      5.563
REMARK INTER + INTRA:          -7.607
REMARK INTER:                  -7.230
REMARK INTRA:                  -0.377
REMARK UNBOUND:                -0.383
REMARK SMILES Cc1ccc(CNC(=O)NC(=O)c2ccc(C)cc2)cc1
REMARK SMILES IDX 11 1 12 2 10 3 8 4 9 5 7 6 13 9 19 10 18 11 14 12 16 13
REMARK SMILES IDX 15 14 17 15 6 16 5 17 4 18 20 19 3 20 21 21 2 22 1 23
REMARK H PARENT 10 7 7 8
ROOT
ATOM      1  C   UNL     1       7.207  -8.423   1.014  1.00  0.00     0.259 C 
ATOM      2  O   UNL     1       6.579  -9.091   0.205  1.00  0.00    -0.269 OA
ATOM      3  N   UNL     1       8.213  -8.832   1.895  1.00  0.00    -0.274 N 
ATOM      4  C   UNL     1       9.026  -9.923   2.068  1.00  0.00     0.321 C 
ATOM      5  O   UNL     1       9.917  -9.845   2.920  1.00  0.00    -0.248 OA
ATOM      6  N   UNL     1       8.920 -11.052   1.343  1.00  0.00    -0.334 N 
ATOM      7  H   UNL     1       8.572  -8.097   2.489  1.00  0.00     0.175 HD
ATOM      8  H   UNL     1       9.647 -11.728   1.534  1.00  0.00     0.165 HD
ENDROOT
BRANCH   1   9
ATOM      9  C   UNL     1       6.876  -6.986   1.083  1.00  0.00     0.040 A 
ATOM     10  C   UNL     1       5.999  -6.487   2.047  1.00  0.00     0.014 A 
ATOM     11  C   UNL     1       5.757  -5.114   2.106  1.00  0.00     0.004 A 
ATOM     12  C   UNL     1       7.462  -6.132   0.144  1.00  0.00     0.014 A 
ATOM     13  C   UNL     1       6.381  -4.241   1.202  1.00  0.00    -0.051 A 
ATOM     14  C   UNL     1       7.223  -4.760   0.211  1.00  0.00     0.004 A 
ATOM     15  C   UNL     1       6.178  -2.760   1.332  1.00  0.00     0.044 C 
ENDBRANCH   1   9
BRANCH   6  16
ATOM     16  C   UNL     1       8.030 -11.309   0.246  1.00  0.00     0.153 C 
BRANCH  16  17
ATOM     17  C   UNL     1       8.421 -12.393  -0.720  1.00  0.00    -0.029 A 
ATOM     18  C   UNL     1       8.544 -12.180  -2.097  1.00  0.00     0.006 A 
ATOM     19  C   UNL     1       8.881 -13.603  -0.177  1.00  0.00     0.006 A 
ATOM     20  C   UNL     1       9.140 -13.154  -2.906  1.00  0.00     0.004 A 
ATOM     21  C   UNL     1       9.478 -14.569  -0.981  1.00  0.00     0.004 A 
ATOM     22  C   UNL     1       9.621 -14.348  -2.352  1.00  0.00    -0.051 A 
ATOM     23  C   UNL     1      10.387 -15.332  -3.186  1.00  0.00     0.044 C 
ENDBRANCH  16  17
ENDBRANCH   6  16
TORSDOF 3
ENDMDL
MODEL 3
REMARK VINA RESULT:    -6.113      0.558      8.018
REMARK INTER + INTRA:          -7.568
REMARK INTER:                  -7.083
REMARK INTRA:                  -0.485
REMARK UNBOUND:                -0.383
REMARK SMILES Cc1ccc(CNC(=O)NC(=O)c2ccc(C)cc2)cc1
REMARK SMILES IDX 11 1 12 2 10 3 8 4 9 5 7 6 13 9 19 10 18 11 14 12 16 13
REMARK SMILES IDX 15 14 17 15 6 16 5 17 4 18 20 19 3 20 21 21 2 22 1 23
REMARK H PARENT 10 7 7 8
ROOT
ATOM      1  C   UNL     1       9.291  -9.499   3.127  1.00  0.00     0.259 C 
ATOM      2  O   UNL     1       8.784  -8.395   3.272  1.00  0.00    -0.269 OA
ATOM      3  N   UNL     1       9.088 -10.428   2.102  1.00  0.00    -0.274 N 
ATOM      4  C   UNL     1       8.529 -10.449   0.850  1.00  0.00     0.321 C 
ATOM      5  O   UNL     1       8.672 -11.475   0.176  1.00  0.00    -0.248 OA
ATOM      6  N   UNL     1       7.865  -9.409   0.314  1.00  0.00    -0.334 N 
ATOM      7  H   UNL     1       9.607 -11.289   2.211  1.00  0.00     0.175 HD
ATOM      8  H   UNL     1       7.590  -9.553  -0.647  1.00  0.00     0.165 HD
ENDROOT
BRANCH   1   9
ATOM      9  C   UNL     1      10.253  -9.924   4.162  1.00  0.00     0.040 A 
ATOM     10  C   UNL     1      10.026  -9.668   5.516  1.00  0.00     0.014 A 
ATOM     11  C   UNL     1      10.939 -10.136   6.462  1.00  0.00     0.004 A 
ATOM     12  C   UNL     1      11.411 -10.589   3.748  1.00  0.00     0.014 A 
ATOM     13  C   UNL     1      12.078 -10.850   6.061  1.00  0.00    -0.051 A 
ATOM     14  C   UNL     1      12.317 -11.060   4.697  1.00  0.00     0.004 A 
ATOM     15  C   UNL     1      13.005 -11.419   7.094  1.00  0.00     0.044 C 
ENDBRANCH   1   9
BRANCH   6  16
ATOM     16  C   UNL     1       7.676  -8.103   0.881  1.00  0.00     0.153 C 
BRANCH  16  17
ATOM     17  C   UNL     1       6.312  -7.485   0.751  1.00  0.00    -0.029 A 
ATOM     18  C   UNL     1       5.959  -6.630  -0.298  1.00  0.00     0.006 A 
ATOM     19  C   UNL     1       5.305  -7.962   1.606  1.00  0.00     0.006 A 
ATOM     20  C   UNL     1       4.618  -6.282  -0.497  1.00  0.00     0.004 A 
ATOM     21  C   UNL     1       3.972  -7.619   1.405  1.00  0.00     0.004 A 
ATOM     22  C   UNL     1       3.615  -6.784   0.344  1.00  0.00    -0.051 A 
ATOM     23  C   UNL     1       2.166  -6.533   0.053  1.00  0.00     0.044 C 
ENDBRANCH  16  17
ENDBRANCH   6  16
TORSDOF 3
ENDMDL
MODEL 4
REMARK VINA RESULT:    -6.079      3.144      7.287
REMARK INTER + INTRA:          -7.528
REMARK INTER:                  -7.046
REMARK INTRA:                  -0.482
REMARK UNBOUND:                -0.383
REMARK SMILES Cc1ccc(CNC(=O)NC(=O)c2ccc(C)cc2)cc1
REMARK SMILES IDX 11 1 12 2 10 3 8 4 9 5 7 6 13 9 19 10 18 11 14 12 16 13
REMARK SMILES IDX 15 14 17 15 6 16 5 17 4 18 20 19 3 20 21 21 2 22 1 23
REMARK H PARENT 10 7 7 8
ROOT
ATOM      1  C   UNL     1       8.190 -10.979  -0.051  1.00  0.00     0.259 C 
ATOM      2  O   UNL     1       7.270 -10.322  -0.518  1.00  0.00    -0.269 OA
ATOM      3  N   UNL     1       8.942 -10.735   1.102  1.00  0.00    -0.274 N 
ATOM      4  C   UNL     1       8.864  -9.935   2.213  1.00  0.00     0.321 C 
ATOM      5  O   UNL     1       9.694 -10.117   3.110  1.00  0.00    -0.248 OA
ATOM      6  N   UNL     1       7.918  -8.994   2.387  1.00  0.00    -0.334 N 
ATOM      7  H   UNL     1       9.672 -11.414   1.275  1.00  0.00     0.175 HD
ATOM      8  H   UNL     1       7.946  -8.552   3.295  1.00  0.00     0.165 HD
ENDROOT
BRANCH   1   9
ATOM      9  C   UNL     1       8.568 -12.201  -0.787  1.00  0.00     0.040 A 
ATOM     10  C   UNL     1       8.588 -12.234  -2.182  1.00  0.00     0.014 A 
ATOM     11  C   UNL     1       9.004 -13.396  -2.833  1.00  0.00     0.004 A 
ATOM     12  C   UNL     1       8.904 -13.337  -0.044  1.00  0.00     0.014 A 
ATOM     13  C   UNL     1       9.392 -14.525  -2.096  1.00  0.00    -0.051 A 
ATOM     14  C   UNL     1       9.324 -14.493  -0.698  1.00  0.00     0.004 A 
ATOM     15  C   UNL     1       9.917 -15.737  -2.808  1.00  0.00     0.044 C 
ENDBRANCH   1   9
BRANCH   6  16
ATOM     16  C   UNL     1       6.809  -8.696   1.524  1.00  0.00     0.153 C 
BRANCH  16  17
ATOM     17  C   UNL     1       6.486  -7.246   1.293  1.00  0.00    -0.029 A 
ATOM     18  C   UNL     1       5.589  -6.527   2.091  1.00  0.00     0.006 A 
ATOM     19  C   UNL     1       7.281  -6.549   0.369  1.00  0.00     0.006 A 
ATOM     20  C   UNL     1       5.513  -5.135   1.978  1.00  0.00     0.004 A 
ATOM     21  C   UNL     1       7.208  -5.164   0.262  1.00  0.00     0.004 A 
ATOM     22  C   UNL     1       6.330  -4.443   1.073  1.00  0.00    -0.051 A 
ATOM     23  C   UNL     1       6.356  -2.944   1.048  1.00  0.00     0.044 C 
ENDBRANCH  16  17
ENDBRANCH   6  16
TORSDOF 3
ENDMDL
MODEL 5
REMARK VINA RESULT:    -5.798      2.962      7.738
REMARK INTER + INTRA:          -7.198
REMARK INTER:                  -6.695
REMARK INTRA:                  -0.503
REMARK UNBOUND:                -0.383
REMARK SMILES Cc1ccc(CNC(=O)NC(=O)c2ccc(C)cc2)cc1
REMARK SMILES IDX 11 1 12 2 10 3 8 4 9 5 7 6 13 9 19 10 18 11 14 12 16 13
REMARK SMILES IDX 15 14 17 15 6 16 5 17 4 18 20 19 3 20 21 21 2 22 1 23
REMARK H PARENT 10 7 7 8
ROOT
ATOM      1  C   UNL     1       8.070 -11.496   0.065  1.00  0.00     0.259 C 
ATOM      2  O   UNL     1       6.898 -11.206  -0.127  1.00  0.00    -0.269 OA
ATOM      3  N   UNL     1       8.971 -10.938   0.978  1.00  0.00    -0.274 N 
ATOM      4  C   UNL     1       8.923 -10.127   2.083  1.00  0.00     0.321 C 
ATOM      5  O   UNL     1       9.968  -9.965   2.721  1.00  0.00    -0.248 OA
ATOM      6  N   UNL     1       7.798  -9.531   2.519  1.00  0.00    -0.334 N 
ATOM      7  H   UNL     1       9.902 -11.331   0.938  1.00  0.00     0.175 HD
ATOM      8  H   UNL     1       7.912  -9.038   3.393  1.00  0.00     0.165 HD
ENDROOT
BRANCH   1   9
ATOM      9  C   UNL     1       8.627 -12.581  -0.765  1.00  0.00     0.040 A 
ATOM     10  C   UNL     1       9.068 -13.778  -0.199  1.00  0.00     0.014 A 
ATOM     11  C   UNL     1       9.538 -14.795  -1.029  1.00  0.00     0.004 A 
ATOM     12  C   UNL     1       8.710 -12.375  -2.146  1.00  0.00     0.014 A 
ATOM     13  C   UNL     1       9.577 -14.618  -2.421  1.00  0.00    -0.051 A 
ATOM     14  C   UNL     1       9.175 -13.396  -2.973  1.00  0.00     0.004 A 
ATOM     15  C   UNL     1      10.005 -15.751  -3.306  1.00  0.00     0.044 C 
ENDBRANCH   1   9
BRANCH   6  16
ATOM     16  C   UNL     1       6.470  -9.670   1.990  1.00  0.00     0.153 C 
BRANCH  16  17
ATOM     17  C   UNL     1       5.771  -8.417   1.542  1.00  0.00    -0.029 A 
ATOM     18  C   UNL     1       6.297  -7.554   0.575  1.00  0.00     0.006 A 
ATOM     19  C   UNL     1       4.446  -8.232   1.967  1.00  0.00     0.006 A 
ATOM     20  C   UNL     1       5.497  -6.544   0.029  1.00  0.00     0.004 A 
ATOM     21  C   UNL     1       3.650  -7.231   1.420  1.00  0.00     0.004 A 
ATOM     22  C   UNL     1       4.166  -6.383   0.438  1.00  0.00    -0.051 A 
ATOM     23  C   UNL     1       3.263  -5.399  -0.242  1.00  0.00     0.044 C 
ENDBRANCH  16  17
ENDBRANCH   6  16
TORSDOF 3
ENDMDL
MODEL 6
REMARK VINA RESULT:    -5.774      1.319      7.896
REMARK INTER + INTRA:          -7.170
REMARK INTER:                  -6.706
REMARK INTRA:                  -0.464
REMARK UNBOUND:                -0.383
REMARK SMILES Cc1ccc(CNC(=O)NC(=O)c2ccc(C)cc2)cc1
REMARK SMILES IDX 11 1 12 2 10 3 8 4 9 5 7 6 13 9 19 10 18 11 14 12 16 13
REMARK SMILES IDX 15 14 17 15 6 16 5 17 4 18 20 19 3 20 21 21 2 22 1 23
REMARK H PARENT 10 7 7 8
ROOT
ATOM      1  C   UNL     1       9.723  -9.482   3.225  1.00  0.00     0.259 C 
ATOM      2  O   UNL     1       9.515  -8.276   3.210  1.00  0.00    -0.269 OA
ATOM      3  N   UNL     1       9.282 -10.456   2.324  1.00  0.00    -0.274 N 
ATOM      4  C   UNL     1       8.726 -10.501   1.071  1.00  0.00     0.321 C 
ATOM      5  O   UNL     1       8.599 -11.610   0.540  1.00  0.00    -0.248 OA
ATOM      6  N   UNL     1       8.345  -9.407   0.387  1.00  0.00    -0.334 N 
ATOM      7  H   UNL     1       9.566 -11.399   2.558  1.00  0.00     0.175 HD
ATOM      8  H   UNL     1       8.035  -9.603  -0.554  1.00  0.00     0.165 HD
ENDROOT
BRANCH   1   9
ATOM      9  C   UNL     1      10.553  -9.996   4.331  1.00  0.00     0.040 A 
ATOM     10  C   UNL     1      10.202  -9.782   5.665  1.00  0.00     0.014 A 
ATOM     11  C   UNL     1      10.990 -10.333   6.676  1.00  0.00     0.004 A 
ATOM     12  C   UNL     1      11.715 -10.703   4.006  1.00  0.00     0.014 A 
ATOM     13  C   UNL     1      12.129 -11.088   6.360  1.00  0.00    -0.051 A 
ATOM     14  C   UNL     1      12.495 -11.257   5.019  1.00  0.00     0.004 A 
ATOM     15  C   UNL     1      12.917 -11.744   7.455  1.00  0.00     0.044 C 
ENDBRANCH   1   9
BRANCH   6  16
ATOM     16  C   UNL     1       8.500  -8.033   0.774  1.00  0.00     0.153 C 
BRANCH  16  17
ATOM     17  C   UNL     1       7.298  -7.140   0.644  1.00  0.00    -0.029 A 
ATOM     18  C   UNL     1       6.073  -7.413   1.261  1.00  0.00     0.006 A 
ATOM     19  C   UNL     1       7.492  -5.882   0.050  1.00  0.00     0.006 A 
ATOM     20  C   UNL     1       5.075  -6.434   1.302  1.00  0.00     0.004 A 
ATOM     21  C   UNL     1       6.501  -4.907   0.096  1.00  0.00     0.004 A 
ATOM     22  C   UNL     1       5.287  -5.171   0.732  1.00  0.00    -0.051 A 
ATOM     23  C   UNL     1       4.281  -4.071   0.896  1.00  0.00     0.044 C 
ENDBRANCH  16  17
ENDBRANCH   6  16
TORSDOF 3
ENDMDL
MODEL 7
REMARK VINA RESULT:    -4.646      8.549     10.997
REMARK INTER + INTRA:          -5.844
REMARK INTER:                  -5.395
REMARK INTRA:                  -0.449
REMARK UNBOUND:                -0.383
REMARK SMILES Cc1ccc(CNC(=O)NC(=O)c2ccc(C)cc2)cc1
REMARK SMILES IDX 11 1 12 2 10 3 8 4 9 5 7 6 13 9 19 10 18 11 14 12 16 13
REMARK SMILES IDX 15 14 17 15 6 16 5 17 4 18 20 19 3 20 21 21 2 22 1 23
REMARK H PARENT 10 7 7 8
ROOT
ATOM      1  C   UNL     1      10.843 -15.569  -2.660  1.00  0.00     0.259 C 
ATOM      2  O   UNL     1      10.543 -15.967  -3.777  1.00  0.00    -0.269 OA
ATOM      3  N   UNL     1      11.912 -15.963  -1.849  1.00  0.00    -0.274 N 
ATOM      4  C   UNL     1      13.083 -16.663  -1.985  1.00  0.00     0.321 C 
ATOM      5  O   UNL     1      13.856 -16.680  -1.021  1.00  0.00    -0.248 OA
ATOM      6  N   UNL     1      13.442 -17.301  -3.114  1.00  0.00    -0.334 N 
ATOM      7  H   UNL     1      11.942 -15.503  -0.948  1.00  0.00     0.175 HD
ATOM      8  H   UNL     1      14.370 -17.696  -3.081  1.00  0.00     0.165 HD
ENDROOT
BRANCH   1   9
ATOM      9  C   UNL     1       9.975 -14.530  -2.074  1.00  0.00     0.040 A 
ATOM     10  C   UNL     1       9.591 -14.573  -0.732  1.00  0.00     0.014 A 
ATOM     11  C   UNL     1       8.813 -13.540  -0.210  1.00  0.00     0.004 A 
ATOM     12  C   UNL     1       9.536 -13.495  -2.906  1.00  0.00     0.014 A 
ATOM     13  C   UNL     1       8.411 -12.470  -1.023  1.00  0.00    -0.051 A 
ATOM     14  C   UNL     1       8.764 -12.461  -2.378  1.00  0.00     0.004 A 
ATOM     15  C   UNL     1       7.647 -11.324  -0.427  1.00  0.00     0.044 C 
ENDBRANCH   1   9
BRANCH   6  16
ATOM     16  C   UNL     1      12.745 -17.319  -4.369  1.00  0.00     0.153 C 
BRANCH  16  17
ATOM     17  C   UNL     1      13.565 -17.138  -5.616  1.00  0.00    -0.029 A 
ATOM     18  C   UNL     1      13.014 -17.155  -6.902  1.00  0.00     0.006 A 
ATOM     19  C   UNL     1      14.899 -16.728  -5.455  1.00  0.00     0.006 A 
ATOM     20  C   UNL     1      13.781 -16.744  -7.997  1.00  0.00     0.004 A 
ATOM     21  C   UNL     1      15.658 -16.316  -6.545  1.00  0.00     0.004 A 
ATOM     22  C   UNL     1      15.102 -16.310  -7.825  1.00  0.00    -0.051 A 
ATOM     23  C   UNL     1      15.881 -15.735  -8.970  1.00  0.00     0.044 C 
ENDBRANCH  16  17
ENDBRANCH   6  16
TORSDOF 3
ENDMDL
MODEL 8
REMARK VINA RESULT:    -4.638      2.094      3.719
REMARK INTER + INTRA:          -5.834
REMARK INTER:                  -5.379
REMARK INTRA:                  -0.455
REMARK UNBOUND:                -0.383
REMARK SMILES Cc1ccc(CNC(=O)NC(=O)c2ccc(C)cc2)cc1
REMARK SMILES IDX 11 1 12 2 10 3 8 4 9 5 7 6 13 9 19 10 18 11 14 12 16 13
REMARK SMILES IDX 15 14 17 15 6 16 5 17 4 18 20 19 3 20 21 21 2 22 1 23
REMARK H PARENT 10 7 7 8
ROOT
ATOM      1  C   UNL     1       9.867  -9.514   3.272  1.00  0.00     0.259 C 
ATOM      2  O   UNL     1      10.030  -8.874   4.301  1.00  0.00    -0.269 OA
ATOM      3  N   UNL     1      10.590 -10.616   2.803  1.00  0.00    -0.274 N 
ATOM      4  C   UNL     1      11.497 -11.517   3.298  1.00  0.00     0.321 C 
ATOM      5  O   UNL     1      11.815 -12.467   2.574  1.00  0.00    -0.248 OA
ATOM      6  N   UNL     1      12.030 -11.436   4.531  1.00  0.00    -0.334 N 
ATOM      7  H   UNL     1      10.280 -10.967   1.907  1.00  0.00     0.175 HD
ATOM      8  H   UNL     1      12.615 -12.223   4.774  1.00  0.00     0.165 HD
ENDROOT
BRANCH   1   9
ATOM      9  C   UNL     1       8.760  -9.086   2.395  1.00  0.00     0.040 A 
ATOM     10  C   UNL     1       7.519  -9.723   2.425  1.00  0.00     0.014 A 
ATOM     11  C   UNL     1       6.487  -9.249   1.615  1.00  0.00     0.004 A 
ATOM     12  C   UNL     1       8.991  -8.020   1.520  1.00  0.00     0.014 A 
ATOM     13  C   UNL     1       6.692  -8.147   0.772  1.00  0.00    -0.051 A 
ATOM     14  C   UNL     1       7.955  -7.545   0.718  1.00  0.00     0.004 A 
ATOM     15  C   UNL     1       5.549  -7.596  -0.029  1.00  0.00     0.044 C 
ENDBRANCH   1   9
BRANCH   6  16
ATOM     16  C   UNL     1      11.721 -10.482   5.558  1.00  0.00     0.153 C 
BRANCH  16  17
ATOM     17  C   UNL     1      11.523 -11.008   6.952  1.00  0.00    -0.029 A 
ATOM     18  C   UNL     1      10.370 -11.690   7.354  1.00  0.00     0.006 A 
ATOM     19  C   UNL     1      12.635 -10.991   7.810  1.00  0.00     0.006 A 
ATOM     20  C   UNL     1      10.345 -12.361   8.582  1.00  0.00     0.004 A 
ATOM     21  C   UNL     1      12.611 -11.663   9.028  1.00  0.00     0.004 A 
ATOM     22  C   UNL     1      11.469 -12.363   9.420  1.00  0.00    -0.051 A 
ATOM     23  C   UNL     1      11.499 -13.195  10.667  1.00  0.00     0.044 C 
ENDBRANCH  16  17
ENDBRANCH   6  16
TORSDOF 3
ENDMDL
MODEL 9
REMARK VINA RESULT:    -4.630      4.685      7.148
REMARK INTER + INTRA:          -5.825
REMARK INTER:                  -5.351
REMARK INTRA:                  -0.474
REMARK UNBOUND:                -0.383
REMARK SMILES Cc1ccc(CNC(=O)NC(=O)c2ccc(C)cc2)cc1
REMARK SMILES IDX 11 1 12 2 10 3 8 4 9 5 7 6 13 9 19 10 18 11 14 12 16 13
REMARK SMILES IDX 15 14 17 15 6 16 5 17 4 18 20 19 3 20 21 21 2 22 1 23
REMARK H PARENT 10 7 7 8
ROOT
ATOM      1  C   UNL     1       8.120 -11.610  -0.040  1.00  0.00     0.259 C 
ATOM      2  O   UNL     1       7.613 -11.911  -1.111  1.00  0.00    -0.269 OA
ATOM      3  N   UNL     1       8.978 -12.365   0.766  1.00  0.00    -0.274 N 
ATOM      4  C   UNL     1       9.742 -13.498   0.650  1.00  0.00     0.321 C 
ATOM      5  O   UNL     1      10.496 -13.779   1.587  1.00  0.00    -0.248 OA
ATOM      6  N   UNL     1       9.733 -14.293  -0.436  1.00  0.00    -0.334 N 
ATOM      7  H   UNL     1       9.251 -11.908   1.626  1.00  0.00     0.175 HD
ATOM      8  H   UNL     1      10.415 -15.037  -0.400  1.00  0.00     0.165 HD
ENDROOT
BRANCH   1   9
ATOM      9  C   UNL     1       7.799 -10.270   0.489  1.00  0.00     0.040 A 
ATOM     10  C   UNL     1       8.681  -9.198   0.341  1.00  0.00     0.014 A 
ATOM     11  C   UNL     1       8.311  -7.938   0.810  1.00  0.00     0.004 A 
ATOM     12  C   UNL     1       6.581 -10.101   1.154  1.00  0.00     0.014 A 
ATOM     13  C   UNL     1       7.069  -7.746   1.434  1.00  0.00    -0.051 A 
ATOM     14  C   UNL     1       6.213  -8.839   1.616  1.00  0.00     0.004 A 
ATOM     15  C   UNL     1       6.650  -6.369   1.857  1.00  0.00     0.044 C 
ENDBRANCH   1   9
BRANCH   6  16
ATOM     16  C   UNL     1       9.016 -14.092  -1.663  1.00  0.00     0.153 C 
BRANCH  16  17
ATOM     17  C   UNL     1       9.782 -14.261  -2.946  1.00  0.00    -0.029 A 
ATOM     18  C   UNL     1      10.685 -13.308  -3.426  1.00  0.00     0.006 A 
ATOM     19  C   UNL     1       9.733 -15.522  -3.562  1.00  0.00     0.006 A 
ATOM     20  C   UNL     1      11.539 -13.625  -4.488  1.00  0.00     0.004 A 
ATOM     21  C   UNL     1      10.587 -15.838  -4.615  1.00  0.00     0.004 A 
ATOM     22  C   UNL     1      11.505 -14.895  -5.080  1.00  0.00    -0.051 A 
ATOM     23  C   UNL     1      12.511 -15.290  -6.120  1.00  0.00     0.044 C 
ENDBRANCH  16  17
ENDBRANCH   6  16
TORSDOF 3
ENDMDL
