MODEL 1
REMARK VINA RESULT:    -4.341      0.000      0.000
REMARK INTER + INTRA:          -5.952
REMARK INTER:                  -5.736
REMARK INTRA:                  -0.216
REMARK UNBOUND:                -0.216
REMARK SMILES [H]/N=C\C[C@H]1C[C@@H]1O[C@H]1CO[C@H]2C[C@@H](C3CC3)CCN2C1
REMARK SMILES IDX 7 1 6 2 5 3 8 4 9 5 14 6 13 7 18 8 12 9 19 10 20 11 11 12
REMARK SMILES IDX 21 13 10 14 15 15 16 16 17 17 4 18 3 19 2 20 1 21
REMARK H PARENT
ROOT
ATOM      1  C   UNL     1       9.571  -9.742   3.846  1.00  0.00     0.122 C 
ATOM      2  C   UNL     1      11.026 -10.116   3.866  1.00  0.00     0.039 C 
ATOM      3  C   UNL     1      10.412  -9.433   5.054  1.00  0.00     0.026 C 
ENDROOT
BRANCH   1   4
ATOM      4  O   UNL     1       9.261  -8.636   2.976  1.00  0.00    -0.371 OA
BRANCH   4   5
ATOM      5  C   UNL     1       9.320  -8.920   1.569  1.00  0.00     0.158 C 
ATOM      6  C   UNL     1       4.882  -6.596   0.115  1.00  0.00    -0.003 C 
ATOM      7  C   UNL     1       5.254  -7.867   0.888  1.00  0.00     0.052 C 
ATOM      8  C   UNL     1       5.941  -5.515   0.377  1.00  0.00     0.019 C 
ATOM      9  C   UNL     1       6.692  -8.315   0.591  1.00  0.00     0.189 C 
ATOM     10  C   UNL     1       7.350  -6.034   0.096  1.00  0.00     0.087 C 
ATOM     11  N   UNL     1       7.634  -7.234   0.883  1.00  0.00    -0.276 NA
ATOM     12  O   UNL     1       6.935  -9.470   1.396  1.00  0.00    -0.360 OA
ATOM     13  C   UNL     1       9.013  -7.694   0.690  1.00  0.00     0.121 C 
ATOM     14  C   UNL     1       8.263  -9.983   1.252  1.00  0.00     0.195 C 
BRANCH   6  15
ATOM     15  C   UNL     1       3.508  -6.096   0.498  1.00  0.00    -0.008 C 
ATOM     16  C   UNL     1       2.535  -5.647  -0.566  1.00  0.00     0.004 C 
ATOM     17  C   UNL     1       2.275  -6.914   0.195  1.00  0.00     0.004 C 
ENDBRANCH   6  15
ENDBRANCH   4   5
ENDBRANCH   1   4
BRANCH   3  18
ATOM     18  C   UNL     1      10.226 -10.209   6.323  1.00  0.00     0.053 C 
BRANCH  18  19
ATOM     19  C   UNL     1      11.476 -10.770   6.950  1.00  0.00     0.074 C 
BRANCH  19  20
ATOM     20  N   UNL     1      12.327 -10.110   7.663  1.00  0.00    -0.313 NA
ATOM     21  H   UNL     1      12.953  -9.541   7.077  1.00  0.00     0.186 HD
ENDBRANCH  19  20
ENDBRANCH  18  19
ENDBRANCH   3  18
TORSDOF 6
ENDMDL
MODEL 2
REMARK VINA RESULT:    -4.275      3.354      5.623
REMARK INTER + INTRA:          -5.866
REMARK INTER:                  -5.688
REMARK INTRA:                  -0.178
REMARK UNBOUND:                -0.216
REMARK SMILES [H]/N=C\C[C@H]1C[C@@H]1O[C@H]1CO[C@H]2C[C@@H](C3CC3)CCN2C1
REMARK SMILES IDX 7 1 6 2 5 3 8 4 9 5 14 6 13 7 18 8 12 9 19 10 20 11 11 12
REMARK SMILES IDX 21 13 10 14 15 15 16 16 17 17 4 18 3 19 2 20 1 21
REMARK H PARENT
ROOT
ATOM      1  C   UNL     1       8.564 -11.537  -0.705  1.00  0.00     0.122 C 
ATOM      2  C   UNL     1       8.559 -13.003  -0.371  1.00  0.00     0.039 C 
ATOM      3  C   UNL     1       8.238 -12.552  -1.767  1.00  0.00     0.026 C 
ENDROOT
BRANCH   1   4
ATOM      4  O   UNL     1       7.454 -10.805  -0.151  1.00  0.00    -0.371 OA
BRANCH   4   5
ATOM      5  C   UNL     1       7.488 -10.611   1.272  1.00  0.00     0.158 C 
ATOM      6  C   UNL     1       5.909  -5.642   1.424  1.00  0.00    -0.003 C 
ATOM      7  C   UNL     1       7.186  -6.376   0.998  1.00  0.00     0.052 C 
ATOM      8  C   UNL     1       4.693  -6.537   1.144  1.00  0.00     0.019 C 
ATOM      9  C   UNL     1       7.279  -7.773   1.628  1.00  0.00     0.189 C 
ATOM     10  C   UNL     1       4.862  -7.921   1.769  1.00  0.00     0.087 C 
ATOM     11  N   UNL     1       6.091  -8.561   1.298  1.00  0.00    -0.276 NA
ATOM     12  O   UNL     1       8.475  -8.370   1.125  1.00  0.00    -0.360 OA
ATOM     13  C   UNL     1       6.225  -9.925   1.821  1.00  0.00     0.121 C 
ATOM     14  C   UNL     1       8.678  -9.704   1.601  1.00  0.00     0.195 C 
BRANCH   6  15
ATOM     15  C   UNL     1       5.767  -4.316   0.711  1.00  0.00    -0.008 C 
ATOM     16  C   UNL     1       5.233  -3.109   1.445  1.00  0.00     0.004 C 
ATOM     17  C   UNL     1       6.678  -3.159   1.043  1.00  0.00     0.004 C 
ENDBRANCH   6  15
ENDBRANCH   4   5
ENDBRANCH   1   4
BRANCH   3  18
ATOM     18  C   UNL     1       9.219 -12.837  -2.866  1.00  0.00     0.053 C 
BRANCH  18  19
ATOM     19  C   UNL     1       9.548 -14.287  -3.105  1.00  0.00     0.074 C 
BRANCH  19  20
ATOM     20  N   UNL     1       8.961 -15.067  -3.950  1.00  0.00    -0.313 NA
ATOM     21  H   UNL     1       9.602 -15.369  -4.697  1.00  0.00     0.186 HD
ENDBRANCH  19  20
ENDBRANCH  18  19
ENDBRANCH   3  18
TORSDOF 6
ENDMDL
MODEL 3
REMARK VINA RESULT:    -4.203      5.710      8.644
REMARK INTER + INTRA:          -5.771
REMARK INTER:                  -5.574
REMARK INTRA:                  -0.196
REMARK UNBOUND:                -0.216
REMARK SMILES [H]/N=C\C[C@H]1C[C@@H]1O[C@H]1CO[C@H]2C[C@@H](C3CC3)CCN2C1
REMARK SMILES IDX 7 1 6 2 5 3 8 4 9 5 14 6 13 7 18 8 12 9 19 10 20 11 11 12
REMARK SMILES IDX 21 13 10 14 15 15 16 16 17 17 4 18 3 19 2 20 1 21
REMARK H PARENT
ROOT
ATOM      1  C   UNL     1      15.243 -12.861   9.007  1.00  0.00     0.122 C 
ATOM      2  C   UNL     1      16.465 -12.253   9.637  1.00  0.00     0.039 C 
ATOM      3  C   UNL     1      15.405 -11.366   9.049  1.00  0.00     0.026 C 
ENDROOT
BRANCH   1   4
ATOM      4  O   UNL     1      15.493 -13.502   7.742  1.00  0.00    -0.371 OA
BRANCH   4   5
ATOM      5  C   UNL     1      14.496 -14.447   7.319  1.00  0.00     0.158 C 
ATOM      6  C   UNL     1      11.641 -11.280   4.315  1.00  0.00    -0.003 C 
ATOM      7  C   UNL     1      11.872 -11.452   5.821  1.00  0.00     0.052 C 
ATOM      8  C   UNL     1      12.926 -11.648   3.559  1.00  0.00     0.019 C 
ATOM      9  C   UNL     1      12.418 -12.846   6.158  1.00  0.00     0.189 C 
ATOM     10  C   UNL     1      13.435 -13.031   3.965  1.00  0.00     0.087 C 
ATOM     11  N   UNL     1      13.648 -13.107   5.410  1.00  0.00    -0.276 NA
ATOM     12  O   UNL     1      12.634 -12.869   7.571  1.00  0.00    -0.360 OA
ATOM     13  C   UNL     1      14.219 -14.399   5.806  1.00  0.00     0.121 C 
ATOM     14  C   UNL     1      13.184 -14.107   8.033  1.00  0.00     0.195 C 
BRANCH   6  15
ATOM     15  C   UNL     1      11.212  -9.870   3.976  1.00  0.00    -0.008 C 
ATOM     16  C   UNL     1       9.879  -9.615   3.313  1.00  0.00     0.004 C 
ATOM     17  C   UNL     1      10.096  -9.197   4.738  1.00  0.00     0.004 C 
ENDBRANCH   6  15
ENDBRANCH   4   5
ENDBRANCH   1   4
BRANCH   3  18
ATOM     18  C   UNL     1      14.557 -10.539   9.968  1.00  0.00     0.053 C 
BRANCH  18  19
ATOM     19  C   UNL     1      15.064  -9.154  10.276  1.00  0.00     0.074 C 
BRANCH  19  20
ATOM     20  N   UNL     1      14.358  -8.072  10.275  1.00  0.00    -0.313 NA
ATOM     21  H   UNL     1      14.190  -7.728  11.231  1.00  0.00     0.186 HD
ENDBRANCH  19  20
ENDBRANCH  18  19
ENDBRANCH   3  18
TORSDOF 6
ENDMDL
MODEL 4
REMARK VINA RESULT:    -4.173      5.246      8.437
REMARK INTER + INTRA:          -5.730
REMARK INTER:                  -5.636
REMARK INTRA:                  -0.095
REMARK UNBOUND:                -0.216
REMARK SMILES [H]/N=C\C[C@H]1C[C@@H]1O[C@H]1CO[C@H]2C[C@@H](C3CC3)CCN2C1
REMARK SMILES IDX 7 1 6 2 5 3 8 4 9 5 14 6 13 7 18 8 12 9 19 10 20 11 11 12
REMARK SMILES IDX 21 13 10 14 15 15 16 16 17 17 4 18 3 19 2 20 1 21
REMARK H PARENT
ROOT
ATOM      1  C   UNL     1       8.168  -9.763   0.913  1.00  0.00     0.122 C 
ATOM      2  C   UNL     1       9.004  -9.181   2.017  1.00  0.00     0.039 C 
ATOM      3  C   UNL     1       8.888  -8.458   0.706  1.00  0.00     0.026 C 
ENDROOT
BRANCH   1   4
ATOM      4  O   UNL     1       8.748 -10.925   0.288  1.00  0.00    -0.371 OA
BRANCH   4   5
ATOM      5  C   UNL     1       7.816 -11.943  -0.112  1.00  0.00     0.158 C 
ATOM      6  C   UNL     1      10.914 -14.609  -3.352  1.00  0.00    -0.003 C 
ATOM      7  C   UNL     1      10.201 -13.252  -3.383  1.00  0.00     0.052 C 
ATOM      8  C   UNL     1      11.312 -14.940  -1.907  1.00  0.00     0.019 C 
ATOM      9  C   UNL     1       9.036 -13.197  -2.385  1.00  0.00     0.189 C 
ATOM     10  C   UNL     1      10.117 -14.835  -0.960  1.00  0.00     0.087 C 
ATOM     11  N   UNL     1       9.506 -13.508  -1.035  1.00  0.00    -0.276 NA
ATOM     12  O   UNL     1       8.485 -11.881  -2.472  1.00  0.00    -0.360 OA
ATOM     13  C   UNL     1       8.411 -13.361  -0.069  1.00  0.00     0.121 C 
ATOM     14  C   UNL     1       7.402 -11.666  -1.561  1.00  0.00     0.195 C 
BRANCH   6  15
ATOM     15  C   UNL     1      12.128 -14.619  -4.253  1.00  0.00    -0.008 C 
ATOM     16  C   UNL     1      12.653 -15.919  -4.813  1.00  0.00     0.004 C 
ATOM     17  C   UNL     1      11.997 -14.924  -5.725  1.00  0.00     0.004 C 
ENDBRANCH   6  15
ENDBRANCH   4   5
ENDBRANCH   1   4
BRANCH   3  18
ATOM     18  C   UNL     1       8.118  -7.172   0.651  1.00  0.00     0.053 C 
BRANCH  18  19
ATOM     19  C   UNL     1       8.617  -6.140  -0.327  1.00  0.00     0.074 C 
BRANCH  19  20
ATOM     20  N   UNL     1       9.854  -5.862  -0.569  1.00  0.00    -0.313 NA
ATOM     21  H   UNL     1       9.972  -4.885  -0.873  1.00  0.00     0.186 HD
ENDBRANCH  19  20
ENDBRANCH  18  19
ENDBRANCH   3  18
TORSDOF 6
ENDMDL
MODEL 5
REMARK VINA RESULT:    -4.132      2.674      8.586
REMARK INTER + INTRA:          -5.677
REMARK INTER:                  -5.614
REMARK INTRA:                  -0.063
REMARK UNBOUND:                -0.216
REMARK SMILES [H]/N=C\C[C@H]1C[C@@H]1O[C@H]1CO[C@H]2C[C@@H](C3CC3)CCN2C1
REMARK SMILES IDX 7 1 6 2 5 3 8 4 9 5 14 6 13 7 18 8 12 9 19 10 20 11 11 12
REMARK SMILES IDX 21 13 10 14 15 15 16 16 17 17 4 18 3 19 2 20 1 21
REMARK H PARENT
ROOT
ATOM      1  C   UNL     1       8.264  -9.478   1.895  1.00  0.00     0.122 C 
ATOM      2  C   UNL     1       7.580 -10.420   0.945  1.00  0.00     0.039 C 
ATOM      3  C   UNL     1       6.802  -9.792   2.065  1.00  0.00     0.026 C 
ENDROOT
BRANCH   1   4
ATOM      4  O   UNL     1       9.172 -10.122   2.809  1.00  0.00    -0.371 OA
BRANCH   4   5
ATOM      5  C   UNL     1      10.283  -9.323   3.245  1.00  0.00     0.158 C 
ATOM      6  C   UNL     1      11.574 -12.035   7.509  1.00  0.00    -0.003 C 
ATOM      7  C   UNL     1      10.425 -11.101   7.107  1.00  0.00     0.052 C 
ATOM      8  C   UNL     1      12.060 -12.802   6.272  1.00  0.00     0.019 C 
ATOM      9  C   UNL     1      10.809 -10.202   5.924  1.00  0.00     0.189 C 
ATOM     10  C   UNL     1      12.393 -11.853   5.121  1.00  0.00     0.087 C 
ATOM     11  N   UNL     1      11.243 -11.013   4.787  1.00  0.00    -0.276 NA
ATOM     12  O   UNL     1       9.655  -9.419   5.615  1.00  0.00    -0.360 OA
ATOM     13  C   UNL     1      11.518 -10.157   3.627  1.00  0.00     0.121 C 
ATOM     14  C   UNL     1       9.851  -8.549   4.495  1.00  0.00     0.195 C 
BRANCH   6  15
ATOM     15  C   UNL     1      11.152 -12.995   8.598  1.00  0.00    -0.008 C 
ATOM     16  C   UNL     1      12.191 -13.693   9.445  1.00  0.00     0.004 C 
ATOM     17  C   UNL     1      11.319 -12.635  10.055  1.00  0.00     0.004 C 
ENDBRANCH   6  15
ENDBRANCH   4   5
ENDBRANCH   1   4
BRANCH   3  18
ATOM     18  C   UNL     1       5.765  -8.759   1.740  1.00  0.00     0.053 C 
BRANCH  18  19
ATOM     19  C   UNL     1       4.383  -9.008   2.285  1.00  0.00     0.074 C 
BRANCH  19  20
ATOM     20  N   UNL     1       3.980 -10.092   2.862  1.00  0.00    -0.313 NA
ATOM     21  H   UNL     1       2.961 -10.211   2.776  1.00  0.00     0.186 HD
ENDBRANCH  19  20
ENDBRANCH  18  19
ENDBRANCH   3  18
TORSDOF 6
ENDMDL
MODEL 6
REMARK VINA RESULT:    -3.895      8.877     10.881
REMARK INTER + INTRA:          -5.364
REMARK INTER:                  -5.027
REMARK INTRA:                  -0.337
REMARK UNBOUND:                -0.216
REMARK SMILES [H]/N=C\C[C@H]1C[C@@H]1O[C@H]1CO[C@H]2C[C@@H](C3CC3)CCN2C1
REMARK SMILES IDX 7 1 6 2 5 3 8 4 9 5 14 6 13 7 18 8 12 9 19 10 20 11 11 12
REMARK SMILES IDX 21 13 10 14 15 15 16 16 17 17 4 18 3 19 2 20 1 21
REMARK H PARENT
ROOT
ATOM      1  C   UNL     1      14.396 -13.171  10.041  1.00  0.00     0.122 C 
ATOM      2  C   UNL     1      15.664 -12.508  10.501  1.00  0.00     0.039 C 
ATOM      3  C   UNL     1      14.773 -11.814   9.512  1.00  0.00     0.026 C 
ENDROOT
BRANCH   1   4
ATOM      4  O   UNL     1      14.605 -14.288   9.157  1.00  0.00    -0.371 OA
BRANCH   4   5
ATOM      5  C   UNL     1      13.630 -15.340   9.246  1.00  0.00     0.158 C 
ATOM      6  C   UNL     1      12.926 -16.188   4.148  1.00  0.00    -0.003 C 
ATOM      7  C   UNL     1      12.547 -15.082   5.140  1.00  0.00     0.052 C 
ATOM      8  C   UNL     1      14.264 -16.811   4.570  1.00  0.00     0.019 C 
ATOM      9  C   UNL     1      12.574 -15.583   6.590  1.00  0.00     0.189 C 
ATOM     10  C   UNL     1      14.236 -17.257   6.032  1.00  0.00     0.087 C 
ATOM     11  N   UNL     1      13.886 -16.143   6.913  1.00  0.00    -0.276 NA
ATOM     12  O   UNL     1      12.252 -14.462   7.416  1.00  0.00    -0.360 OA
ATOM     13  C   UNL     1      13.939 -16.534   8.326  1.00  0.00     0.121 C 
ATOM     14  C   UNL     1      12.275 -14.770   8.813  1.00  0.00     0.195 C 
BRANCH   6  15
ATOM     15  C   UNL     1      13.009 -15.661   2.733  1.00  0.00    -0.008 C 
ATOM     16  C   UNL     1      12.042 -16.145   1.679  1.00  0.00     0.004 C 
ATOM     17  C   UNL     1      11.947 -14.736   2.189  1.00  0.00     0.004 C 
ENDBRANCH   6  15
ENDBRANCH   4   5
ENDBRANCH   1   4
BRANCH   3  18
ATOM     18  C   UNL     1      14.014 -10.596   9.947  1.00  0.00     0.053 C 
BRANCH  18  19
ATOM     19  C   UNL     1      14.830  -9.350  10.177  1.00  0.00     0.074 C 
BRANCH  19  20
ATOM     20  N   UNL     1      14.363  -8.153  10.308  1.00  0.00    -0.313 NA
ATOM     21  H   UNL     1      14.962  -7.458   9.839  1.00  0.00     0.186 HD
ENDBRANCH  19  20
ENDBRANCH  18  19
ENDBRANCH   3  18
TORSDOF 6
ENDMDL
MODEL 7
REMARK VINA RESULT:    -3.810      5.863      8.933
REMARK INTER + INTRA:          -5.250
REMARK INTER:                  -4.583
REMARK INTRA:                  -0.668
REMARK UNBOUND:                -0.216
REMARK SMILES [H]/N=C\C[C@H]1C[C@@H]1O[C@H]1CO[C@H]2C[C@@H](C3CC3)CCN2C1
REMARK SMILES IDX 7 1 6 2 5 3 8 4 9 5 14 6 13 7 18 8 12 9 19 10 20 11 11 12
REMARK SMILES IDX 21 13 10 14 15 15 16 16 17 17 4 18 3 19 2 20 1 21
REMARK H PARENT
ROOT
ATOM      1  C   UNL     1      14.671 -15.502   6.013  1.00  0.00     0.122 C 
ATOM      2  C   UNL     1      14.348 -16.933   5.685  1.00  0.00     0.039 C 
ATOM      3  C   UNL     1      13.701 -15.822   4.908  1.00  0.00     0.026 C 
ENDROOT
BRANCH   1   4
ATOM      4  O   UNL     1      14.105 -15.042   7.255  1.00  0.00    -0.371 OA
BRANCH   4   5
ATOM      5  C   UNL     1      14.706 -13.860   7.809  1.00  0.00     0.158 C 
ATOM      6  C   UNL     1      11.206 -10.360   6.166  1.00  0.00    -0.003 C 
ATOM      7  C   UNL     1      12.303 -11.206   5.510  1.00  0.00     0.052 C 
ATOM      8  C   UNL     1      10.610 -11.131   7.351  1.00  0.00     0.019 C 
ATOM      9  C   UNL     1      13.344 -11.682   6.533  1.00  0.00     0.189 C 
ATOM     10  C   UNL     1      11.699 -11.606   8.313  1.00  0.00     0.087 C 
ATOM     11  N   UNL     1      12.694 -12.420   7.616  1.00  0.00    -0.276 NA
ATOM     12  O   UNL     1      14.280 -12.491   5.818  1.00  0.00    -0.360 OA
ATOM     13  C   UNL     1      13.699 -12.955   8.542  1.00  0.00     0.121 C 
ATOM     14  C   UNL     1      15.299 -13.042   6.657  1.00  0.00     0.195 C 
BRANCH   6  15
ATOM     15  C   UNL     1      10.124  -9.990   5.176  1.00  0.00    -0.008 C 
ATOM     16  C   UNL     1      10.036  -8.584   4.630  1.00  0.00     0.004 C 
ATOM     17  C   UNL     1      10.461  -9.709   3.731  1.00  0.00     0.004 C 
ENDBRANCH   6  15
ENDBRANCH   4   5
ENDBRANCH   1   4
BRANCH   3  18
ATOM     18  C   UNL     1      14.093 -15.614   3.476  1.00  0.00     0.053 C 
BRANCH  18  19
ATOM     19  C   UNL     1      13.582 -14.356   2.822  1.00  0.00     0.074 C 
BRANCH  19  20
ATOM     20  N   UNL     1      14.089 -13.176   2.951  1.00  0.00    -0.313 NA
ATOM     21  H   UNL     1      14.892 -13.036   2.321  1.00  0.00     0.186 HD
ENDBRANCH  19  20
ENDBRANCH  18  19
ENDBRANCH   3  18
TORSDOF 6
ENDMDL
MODEL 8
REMARK VINA RESULT:    -3.785      6.211      7.645
REMARK INTER + INTRA:          -5.218
REMARK INTER:                  -5.093
REMARK INTRA:                  -0.125
REMARK UNBOUND:                -0.216
REMARK SMILES [H]/N=C\C[C@H]1C[C@@H]1O[C@H]1CO[C@H]2C[C@@H](C3CC3)CCN2C1
REMARK SMILES IDX 7 1 6 2 5 3 8 4 9 5 14 6 13 7 18 8 12 9 19 10 20 11 11 12
REMARK SMILES IDX 21 13 10 14 15 15 16 16 17 17 4 18 3 19 2 20 1 21
REMARK H PARENT
ROOT
ATOM      1  C   UNL     1      13.397 -16.116  -1.108  1.00  0.00     0.122 C 
ATOM      2  C   UNL     1      14.339 -15.871  -2.252  1.00  0.00     0.039 C 
ATOM      3  C   UNL     1      14.745 -15.498  -0.855  1.00  0.00     0.026 C 
ENDROOT
BRANCH   1   4
ATOM      4  O   UNL     1      12.264 -15.226  -1.080  1.00  0.00    -0.371 OA
BRANCH   4   5
ATOM      5  C   UNL     1      10.978 -15.862  -1.010  1.00  0.00     0.158 C 
ATOM      6  C   UNL     1       8.059 -11.632  -0.119  1.00  0.00    -0.003 C 
ATOM      7  C   UNL     1       9.063 -12.464   0.689  1.00  0.00     0.052 C 
ATOM      8  C   UNL     1       8.463 -11.648  -1.600  1.00  0.00     0.019 C 
ATOM      9  C   UNL     1       9.238 -13.872   0.104  1.00  0.00     0.189 C 
ATOM     10  C   UNL     1       8.654 -13.076  -2.111  1.00  0.00     0.087 C 
ATOM     11  N   UNL     1       9.638 -13.794  -1.301  1.00  0.00    -0.276 NA
ATOM     12  O   UNL     1      10.221 -14.529   0.906  1.00  0.00    -0.360 OA
ATOM     13  C   UNL     1       9.897 -15.138  -1.832  1.00  0.00     0.121 C 
ATOM     14  C   UNL     1      10.521 -15.852   0.453  1.00  0.00     0.195 C 
BRANCH   6  15
ATOM     15  C   UNL     1       7.977 -10.212   0.393  1.00  0.00    -0.008 C 
ATOM     16  C   UNL     1       6.959  -9.837   1.445  1.00  0.00     0.004 C 
ATOM     17  C   UNL     1       8.418  -9.868   1.795  1.00  0.00     0.004 C 
ENDBRANCH   6  15
ENDBRANCH   4   5
ENDBRANCH   1   4
BRANCH   3  18
ATOM     18  C   UNL     1      15.823 -16.289  -0.176  1.00  0.00     0.053 C 
BRANCH  18  19
ATOM     19  C   UNL     1      16.140 -15.899   1.245  1.00  0.00     0.074 C 
BRANCH  19  20
ATOM     20  N   UNL     1      15.829 -14.781   1.811  1.00  0.00    -0.313 NA
ATOM     21  H   UNL     1      16.607 -14.106   1.770  1.00  0.00     0.186 HD
ENDBRANCH  19  20
ENDBRANCH  18  19
ENDBRANCH   3  18
TORSDOF 6
ENDMDL
MODEL 9
REMARK VINA RESULT:    -3.694      3.685     10.043
REMARK INTER + INTRA:          -5.098
REMARK INTER:                  -4.876
REMARK INTRA:                  -0.223
REMARK UNBOUND:                -0.216
REMARK SMILES [H]/N=C\C[C@H]1C[C@@H]1O[C@H]1CO[C@H]2C[C@@H](C3CC3)CCN2C1
REMARK SMILES IDX 7 1 6 2 5 3 8 4 9 5 14 6 13 7 18 8 12 9 19 10 20 11 11 12
REMARK SMILES IDX 21 13 10 14 15 15 16 16 17 17 4 18 3 19 2 20 1 21
REMARK H PARENT
ROOT
ATOM      1  C   UNL     1       9.772  -9.586   4.520  1.00  0.00     0.122 C 
ATOM      2  C   UNL     1      10.721  -8.828   3.635  1.00  0.00     0.039 C 
ATOM      3  C   UNL     1       9.680  -9.722   3.024  1.00  0.00     0.026 C 
ENDROOT
BRANCH   1   4
ATOM      4  O   UNL     1      10.380 -10.681   5.231  1.00  0.00    -0.371 OA
BRANCH   4   5
ATOM      5  C   UNL     1      10.593 -10.466   6.635  1.00  0.00     0.158 C 
ATOM      6  C   UNL     1      13.667 -14.568   7.598  1.00  0.00    -0.003 C 
ATOM      7  C   UNL     1      12.179 -14.359   7.290  1.00  0.00     0.052 C 
ATOM      8  C   UNL     1      14.491 -13.495   6.873  1.00  0.00     0.019 C 
ATOM      9  C   UNL     1      11.733 -12.920   7.586  1.00  0.00     0.189 C 
ATOM     10  C   UNL     1      13.975 -12.090   7.182  1.00  0.00     0.087 C 
ATOM     11  N   UNL     1      12.557 -11.967   6.843  1.00  0.00    -0.276 NA
ATOM     12  O   UNL     1      10.354 -12.837   7.219  1.00  0.00    -0.360 OA
ATOM     13  C   UNL     1      12.068 -10.600   7.052  1.00  0.00     0.121 C 
ATOM     14  C   UNL     1       9.803 -11.530   7.405  1.00  0.00     0.195 C 
BRANCH   6  15
ATOM     15  C   UNL     1      14.127 -15.952   7.199  1.00  0.00    -0.008 C 
ATOM     16  C   UNL     1      14.104 -17.083   8.199  1.00  0.00     0.004 C 
ATOM     17  C   UNL     1      13.139 -17.083   7.049  1.00  0.00     0.004 C 
ENDBRANCH   6  15
ENDBRANCH   4   5
ENDBRANCH   1   4
BRANCH   3  18
ATOM     18  C   UNL     1       8.537  -9.102   2.278  1.00  0.00     0.053 C 
BRANCH  18  19
ATOM     19  C   UNL     1       7.982  -9.900   1.127  1.00  0.00     0.074 C 
BRANCH  19  20
ATOM     20  N   UNL     1       8.489 -10.985   0.644  1.00  0.00    -0.313 NA
ATOM     21  H   UNL     1       9.184 -10.786  -0.089  1.00  0.00     0.186 HD
ENDBRANCH  19  20
ENDBRANCH  18  19
ENDBRANCH   3  18
TORSDOF 6
ENDMDL
