MODEL 1
REMARK VINA RESULT:    -5.053      0.000      0.000
REMARK INTER + INTRA:          -7.860
REMARK INTER:                  -7.268
REMARK INTRA:                  -0.592
REMARK UNBOUND:                -0.592
REMARK SMILES Cc1ccncc1/C=C/Nc1ccc(CCCN)cc1
REMARK SMILES IDX 14 1 13 2 12 3 11 4 20 5 19 6 15 7 16 8 17 9 18 10 10 13
REMARK SMILES IDX 9 15 8 16 7 17 2 18 6 19 3 20 5 21 4 22 1 23
REMARK H PARENT 18 11 18 12 10 14
ROOT
ATOM      1  C   UNL     1       6.916   5.539   2.270  1.00  0.00    -0.048 A 
ATOM      2  C   UNL     1       7.666   6.307   1.377  1.00  0.00     0.006 A 
ATOM      3  C   UNL     1       8.581   7.247   1.842  1.00  0.00     0.026 A 
ATOM      4  C   UNL     1       8.727   7.513   3.206  1.00  0.00     0.038 A 
ATOM      5  C   UNL     1       7.934   6.784   4.101  1.00  0.00     0.026 A 
ATOM      6  C   UNL     1       7.038   5.808   3.639  1.00  0.00     0.006 A 
ENDROOT
BRANCH   1   7
ATOM      7  C   UNL     1       5.996   4.448   1.781  1.00  0.00     0.037 C 
BRANCH   7   8
ATOM      8  C   UNL     1       4.487   4.761   1.787  1.00  0.00     0.020 C 
BRANCH   8   9
ATOM      9  C   UNL     1       4.020   5.846   0.807  1.00  0.00     0.078 C 
BRANCH   9  10
ATOM     10  N   UNL     1       3.785   5.386  -0.555  1.00  0.00    -0.330 NA
ATOM     11  H   UNL     1       3.010   5.902  -0.968  1.00  0.00     0.118 HD
ATOM     12  H   UNL     1       3.492   4.409  -0.550  1.00  0.00     0.118 HD
ENDBRANCH   9  10
ENDBRANCH   8   9
ENDBRANCH   7   8
ENDBRANCH   1   7
BRANCH   4  13
ATOM     13  N   UNL     1       9.562   8.544   3.678  1.00  0.00    -0.362 N 
ATOM     14  H   UNL     1      10.461   8.265   4.051  1.00  0.00     0.166 HD
BRANCH  13  15
ATOM     15  C   UNL     1       9.160   9.833   3.906  1.00  0.00     0.083 C 
BRANCH  15  16
ATOM     16  C   UNL     1       9.478  10.949   3.235  1.00  0.00     0.027 C 
BRANCH  16  17
ATOM     17  C   UNL     1       9.529  12.255   3.910  1.00  0.00    -0.003 A 
ATOM     18  C   UNL     1      10.640  13.111   3.814  1.00  0.00    -0.041 A 
ATOM     19  C   UNL     1       8.469  12.688   4.721  1.00  0.00     0.119 A 
ATOM     20  C   UNL     1      10.615  14.329   4.510  1.00  0.00     0.024 A 
ATOM     21  N   UNL     1       8.421  13.867   5.384  1.00  0.00    -0.264 NA
ATOM     22  C   UNL     1       9.498  14.662   5.259  1.00  0.00     0.111 A 
ATOM     23  C   UNL     1      11.867  12.751   3.024  1.00  0.00     0.045 C 
ENDBRANCH  16  17
ENDBRANCH  15  16
ENDBRANCH  13  15
ENDBRANCH   4  13
TORSDOF 8
ENDMDL
MODEL 2
REMARK VINA RESULT:    -5.040      2.052      2.581
REMARK INTER + INTRA:          -7.841
REMARK INTER:                  -7.256
REMARK INTRA:                  -0.586
REMARK UNBOUND:                -0.592
REMARK SMILES Cc1ccncc1/C=C/Nc1ccc(CCCN)cc1
REMARK SMILES IDX 14 1 13 2 12 3 11 4 20 5 19 6 15 7 16 8 17 9 18 10 10 13
REMARK SMILES IDX 9 15 8 16 7 17 2 18 6 19 3 20 5 21 4 22 1 23
REMARK H PARENT 18 11 18 12 10 14
ROOT
ATOM      1  C   UNL     1       7.255   5.576   3.283  1.00  0.00    -0.048 A 
ATOM      2  C   UNL     1       7.694   6.351   2.207  1.00  0.00     0.006 A 
ATOM      3  C   UNL     1       8.467   7.488   2.419  1.00  0.00     0.026 A 
ATOM      4  C   UNL     1       8.766   7.940   3.707  1.00  0.00     0.038 A 
ATOM      5  C   UNL     1       8.279   7.196   4.788  1.00  0.00     0.026 A 
ATOM      6  C   UNL     1       7.532   6.027   4.579  1.00  0.00     0.006 A 
ENDROOT
BRANCH   1   7
ATOM      7  C   UNL     1       6.503   4.288   3.062  1.00  0.00     0.037 C 
BRANCH   7   8
ATOM      8  C   UNL     1       5.294   4.026   3.980  1.00  0.00     0.020 C 
BRANCH   8   9
ATOM      9  C   UNL     1       5.334   2.722   4.791  1.00  0.00     0.078 C 
BRANCH   9  10
ATOM     10  N   UNL     1       4.784   1.558   4.113  1.00  0.00    -0.330 NA
ATOM     11  H   UNL     1       3.999   1.183   4.644  1.00  0.00     0.118 HD
ATOM     12  H   UNL     1       5.476   0.809   4.082  1.00  0.00     0.118 HD
ENDBRANCH   9  10
ENDBRANCH   8   9
ENDBRANCH   7   8
ENDBRANCH   1   7
BRANCH   4  13
ATOM     13  N   UNL     1       9.446   9.153   3.930  1.00  0.00    -0.362 N 
ATOM     14  H   UNL     1      10.109   9.168   4.695  1.00  0.00     0.166 HD
BRANCH  13  15
ATOM     15  C   UNL     1       9.099  10.358   3.378  1.00  0.00     0.083 C 
BRANCH  15  16
ATOM     16  C   UNL     1       8.730  11.493   3.987  1.00  0.00     0.027 C 
BRANCH  16  17
ATOM     17  C   UNL     1       9.661  12.623   4.120  1.00  0.00    -0.003 A 
ATOM     18  C   UNL     1       9.503  13.619   5.100  1.00  0.00    -0.041 A 
ATOM     19  C   UNL     1      10.739  12.776   3.235  1.00  0.00     0.119 A 
ATOM     20  C   UNL     1      10.425  14.676   5.141  1.00  0.00     0.024 A 
ATOM     21  N   UNL     1      11.647  13.779   3.271  1.00  0.00    -0.264 NA
ATOM     22  C   UNL     1      11.468  14.706   4.229  1.00  0.00     0.111 A 
ATOM     23  C   UNL     1       8.363  13.611   6.079  1.00  0.00     0.045 C 
ENDBRANCH  16  17
ENDBRANCH  15  16
ENDBRANCH  13  15
ENDBRANCH   4  13
TORSDOF 8
ENDMDL
MODEL 3
REMARK VINA RESULT:    -5.033      1.988      8.483
REMARK INTER + INTRA:          -7.832
REMARK INTER:                  -7.191
REMARK INTRA:                  -0.641
REMARK UNBOUND:                -0.592
REMARK SMILES Cc1ccncc1/C=C/Nc1ccc(CCCN)cc1
REMARK SMILES IDX 14 1 13 2 12 3 11 4 20 5 19 6 15 7 16 8 17 9 18 10 10 13
REMARK SMILES IDX 9 15 8 16 7 17 2 18 6 19 3 20 5 21 4 22 1 23
REMARK H PARENT 18 11 18 12 10 14
ROOT
ATOM      1  C   UNL     1       9.242  13.329   4.751  1.00  0.00    -0.048 A 
ATOM      2  C   UNL     1       8.104  12.522   4.820  1.00  0.00     0.006 A 
ATOM      3  C   UNL     1       8.077  11.278   4.197  1.00  0.00     0.026 A 
ATOM      4  C   UNL     1       9.146  10.824   3.420  1.00  0.00     0.038 A 
ATOM      5  C   UNL     1      10.265  11.657   3.303  1.00  0.00     0.026 A 
ATOM      6  C   UNL     1      10.313  12.896   3.961  1.00  0.00     0.006 A 
ENDROOT
BRANCH   1   7
ATOM      7  C   UNL     1       9.321  14.633   5.505  1.00  0.00     0.037 C 
BRANCH   7   8
ATOM      8  C   UNL     1       8.759  14.638   6.940  1.00  0.00     0.020 C 
BRANCH   8   9
ATOM      9  C   UNL     1       9.795  14.734   8.069  1.00  0.00     0.078 C 
BRANCH   9  10
ATOM     10  N   UNL     1      10.449  13.479   8.412  1.00  0.00    -0.330 NA
ATOM     11  H   UNL     1       9.752  12.780   8.663  1.00  0.00     0.118 HD
ATOM     12  H   UNL     1      11.027  13.600   9.244  1.00  0.00     0.118 HD
ENDBRANCH   9  10
ENDBRANCH   8   9
ENDBRANCH   7   8
ENDBRANCH   1   7
BRANCH   4  13
ATOM     13  N   UNL     1       9.078   9.622   2.691  1.00  0.00    -0.362 N 
ATOM     14  H   UNL     1       9.003   9.704   1.685  1.00  0.00     0.166 HD
BRANCH  13  15
ATOM     15  C   UNL     1       8.850   8.387   3.238  1.00  0.00     0.083 C 
BRANCH  15  16
ATOM     16  C   UNL     1       8.536   7.236   2.627  1.00  0.00     0.027 C 
BRANCH  16  17
ATOM     17  C   UNL     1       7.482   6.357   3.154  1.00  0.00    -0.003 A 
ATOM     18  C   UNL     1       6.665   5.575   2.319  1.00  0.00    -0.041 A 
ATOM     19  C   UNL     1       7.220   6.292   4.531  1.00  0.00     0.119 A 
ATOM     20  C   UNL     1       5.666   4.781   2.903  1.00  0.00     0.024 A 
ATOM     21  N   UNL     1       6.273   5.519   5.113  1.00  0.00    -0.264 NA
ATOM     22  C   UNL     1       5.519   4.778   4.281  1.00  0.00     0.111 A 
ATOM     23  C   UNL     1       6.799   5.588   0.822  1.00  0.00     0.045 C 
ENDBRANCH  16  17
ENDBRANCH  15  16
ENDBRANCH  13  15
ENDBRANCH   4  13
TORSDOF 8
ENDMDL
MODEL 4
REMARK VINA RESULT:    -4.947      1.734      1.926
REMARK INTER + INTRA:          -7.708
REMARK INTER:                  -7.241
REMARK INTRA:                  -0.467
REMARK UNBOUND:                -0.592
REMARK SMILES Cc1ccncc1/C=C/Nc1ccc(CCCN)cc1
REMARK SMILES IDX 14 1 13 2 12 3 11 4 20 5 19 6 15 7 16 8 17 9 18 10 10 13
REMARK SMILES IDX 9 15 8 16 7 17 2 18 6 19 3 20 5 21 4 22 1 23
REMARK H PARENT 18 11 18 12 10 14
ROOT
ATOM      1  C   UNL     1       6.779   5.409   2.580  1.00  0.00    -0.048 A 
ATOM      2  C   UNL     1       7.434   6.078   1.545  1.00  0.00     0.006 A 
ATOM      3  C   UNL     1       8.409   7.032   1.820  1.00  0.00     0.026 A 
ATOM      4  C   UNL     1       8.714   7.411   3.130  1.00  0.00     0.038 A 
ATOM      5  C   UNL     1       8.017   6.781   4.169  1.00  0.00     0.026 A 
ATOM      6  C   UNL     1       7.060   5.791   3.898  1.00  0.00     0.006 A 
ENDROOT
BRANCH   1   7
ATOM      7  C   UNL     1       5.794   4.303   2.295  1.00  0.00     0.037 C 
BRANCH   7   8
ATOM      8  C   UNL     1       4.876   3.878   3.457  1.00  0.00     0.020 C 
BRANCH   8   9
ATOM      9  C   UNL     1       5.333   2.653   4.263  1.00  0.00     0.078 C 
BRANCH   9  10
ATOM     10  N   UNL     1       4.470   2.295   5.380  1.00  0.00    -0.330 NA
ATOM     11  H   UNL     1       3.595   1.905   5.033  1.00  0.00     0.118 HD
ATOM     12  H   UNL     1       4.209   3.130   5.905  1.00  0.00     0.118 HD
ENDBRANCH   9  10
ENDBRANCH   8   9
ENDBRANCH   7   8
ENDBRANCH   1   7
BRANCH   4  13
ATOM     13  N   UNL     1       9.612   8.458   3.413  1.00  0.00    -0.362 N 
ATOM     14  H   UNL     1      10.593   8.213   3.466  1.00  0.00     0.166 HD
BRANCH  13  15
ATOM     15  C   UNL     1       9.250   9.698   3.868  1.00  0.00     0.083 C 
BRANCH  15  16
ATOM     16  C   UNL     1       9.243  10.869   3.216  1.00  0.00     0.027 C 
BRANCH  16  17
ATOM     17  C   UNL     1       9.335  12.145   3.942  1.00  0.00    -0.003 A 
ATOM     18  C   UNL     1      10.433  13.013   3.805  1.00  0.00    -0.041 A 
ATOM     19  C   UNL     1       8.331  12.535   4.841  1.00  0.00     0.119 A 
ATOM     20  C   UNL     1      10.450  14.200   4.553  1.00  0.00     0.024 A 
ATOM     21  N   UNL     1       8.324  13.684   5.557  1.00  0.00    -0.264 NA
ATOM     22  C   UNL     1       9.386  14.492   5.392  1.00  0.00     0.111 A 
ATOM     23  C   UNL     1      11.603  12.696   2.918  1.00  0.00     0.045 C 
ENDBRANCH  16  17
ENDBRANCH  15  16
ENDBRANCH  13  15
ENDBRANCH   4  13
TORSDOF 8
ENDMDL
MODEL 5
REMARK VINA RESULT:    -4.830      1.567      8.514
REMARK INTER + INTRA:          -7.540
REMARK INTER:                  -6.835
REMARK INTRA:                  -0.705
REMARK UNBOUND:                -0.592
REMARK SMILES Cc1ccncc1/C=C/Nc1ccc(CCCN)cc1
REMARK SMILES IDX 14 1 13 2 12 3 11 4 20 5 19 6 15 7 16 8 17 9 18 10 10 13
REMARK SMILES IDX 9 15 8 16 7 17 2 18 6 19 3 20 5 21 4 22 1 23
REMARK H PARENT 18 11 18 12 10 14
ROOT
ATOM      1  C   UNL     1       9.228  13.172   4.705  1.00  0.00    -0.048 A 
ATOM      2  C   UNL     1       8.052  12.427   4.824  1.00  0.00     0.006 A 
ATOM      3  C   UNL     1       7.961  11.151   4.275  1.00  0.00     0.026 A 
ATOM      4  C   UNL     1       9.003  10.602   3.524  1.00  0.00     0.038 A 
ATOM      5  C   UNL     1      10.160  11.370   3.355  1.00  0.00     0.026 A 
ATOM      6  C   UNL     1      10.272  12.642   3.938  1.00  0.00     0.006 A 
ENDROOT
BRANCH   1   7
ATOM      7  C   UNL     1       9.374  14.513   5.380  1.00  0.00     0.037 C 
BRANCH   7   8
ATOM      8  C   UNL     1       8.766  14.648   6.789  1.00  0.00     0.020 C 
BRANCH   8   9
ATOM      9  C   UNL     1       9.768  14.733   7.950  1.00  0.00     0.078 C 
BRANCH   9  10
ATOM     10  N   UNL     1      10.384  13.468   8.325  1.00  0.00    -0.330 NA
ATOM     11  H   UNL     1      11.292  13.637   8.757  1.00  0.00     0.118 HD
ATOM     12  H   UNL     1      10.577  12.911   7.492  1.00  0.00     0.118 HD
ENDBRANCH   9  10
ENDBRANCH   8   9
ENDBRANCH   7   8
ENDBRANCH   1   7
BRANCH   4  13
ATOM     13  N   UNL     1       8.873   9.363   2.867  1.00  0.00    -0.362 N 
ATOM     14  H   UNL     1       8.373   9.366   1.987  1.00  0.00     0.166 HD
BRANCH  13  15
ATOM     15  C   UNL     1       9.136   8.145   3.435  1.00  0.00     0.083 C 
BRANCH  15  16
ATOM     16  C   UNL     1       8.287   7.270   3.991  1.00  0.00     0.027 C 
BRANCH  16  17
ATOM     17  C   UNL     1       7.370   6.468   3.166  1.00  0.00    -0.003 A 
ATOM     18  C   UNL     1       6.318   5.718   3.720  1.00  0.00    -0.041 A 
ATOM     19  C   UNL     1       7.536   6.391   1.775  1.00  0.00     0.119 A 
ATOM     20  C   UNL     1       5.505   4.962   2.862  1.00  0.00     0.024 A 
ATOM     21  N   UNL     1       6.750   5.681   0.931  1.00  0.00    -0.264 NA
ATOM     22  C   UNL     1       5.749   4.984   1.498  1.00  0.00     0.111 A 
ATOM     23  C   UNL     1       6.059   5.666   5.199  1.00  0.00     0.045 C 
ENDBRANCH  16  17
ENDBRANCH  15  16
ENDBRANCH  13  15
ENDBRANCH   4  13
TORSDOF 8
ENDMDL
MODEL 6
REMARK VINA RESULT:    -4.575      2.154      8.421
REMARK INTER + INTRA:          -7.172
REMARK INTER:                  -6.541
REMARK INTRA:                  -0.631
REMARK UNBOUND:                -0.592
REMARK SMILES Cc1ccncc1/C=C/Nc1ccc(CCCN)cc1
REMARK SMILES IDX 14 1 13 2 12 3 11 4 20 5 19 6 15 7 16 8 17 9 18 10 10 13
REMARK SMILES IDX 9 15 8 16 7 17 2 18 6 19 3 20 5 21 4 22 1 23
REMARK H PARENT 18 11 18 12 10 14
ROOT
ATOM      1  C   UNL     1       9.672  10.968   3.642  1.00  0.00    -0.048 A 
ATOM      2  C   UNL     1       8.345  10.838   3.228  1.00  0.00     0.006 A 
ATOM      3  C   UNL     1       7.735   9.588   3.182  1.00  0.00     0.026 A 
ATOM      4  C   UNL     1       8.441   8.417   3.468  1.00  0.00     0.038 A 
ATOM      5  C   UNL     1       9.788   8.541   3.828  1.00  0.00     0.026 A 
ATOM      6  C   UNL     1      10.398   9.802   3.914  1.00  0.00     0.006 A 
ENDROOT
BRANCH   1   7
ATOM      7  C   UNL     1      10.313  12.325   3.793  1.00  0.00     0.037 C 
BRANCH   7   8
ATOM      8  C   UNL     1      11.290  12.756   2.682  1.00  0.00     0.020 C 
BRANCH   8   9
ATOM      9  C   UNL     1      12.755  12.939   3.107  1.00  0.00     0.078 C 
BRANCH   9  10
ATOM     10  N   UNL     1      13.466  11.705   3.409  1.00  0.00    -0.330 NA
ATOM     11  H   UNL     1      13.286  11.012   2.684  1.00  0.00     0.118 HD
ATOM     12  H   UNL     1      13.109  11.296   4.273  1.00  0.00     0.118 HD
ENDBRANCH   9  10
ENDBRANCH   8   9
ENDBRANCH   7   8
ENDBRANCH   1   7
BRANCH   4  13
ATOM     13  N   UNL     1       7.865   7.142   3.309  1.00  0.00    -0.362 N 
ATOM     14  H   UNL     1       7.516   6.914   2.386  1.00  0.00     0.166 HD
BRANCH  13  15
ATOM     15  C   UNL     1       7.514   6.308   4.337  1.00  0.00     0.083 C 
BRANCH  15  16
ATOM     16  C   UNL     1       6.301   5.854   4.681  1.00  0.00     0.027 C 
BRANCH  16  17
ATOM     17  C   UNL     1       5.338   5.409   3.663  1.00  0.00    -0.003 A 
ATOM     18  C   UNL     1       4.958   4.062   3.522  1.00  0.00    -0.041 A 
ATOM     19  C   UNL     1       4.778   6.319   2.754  1.00  0.00     0.119 A 
ATOM     20  C   UNL     1       4.051   3.720   2.508  1.00  0.00     0.024 A 
ATOM     21  N   UNL     1       3.888   6.009   1.782  1.00  0.00    -0.264 NA
ATOM     22  C   UNL     1       3.543   4.713   1.686  1.00  0.00     0.111 A 
ATOM     23  C   UNL     1       5.520   2.973   4.392  1.00  0.00     0.045 C 
ENDBRANCH  16  17
ENDBRANCH  15  16
ENDBRANCH  13  15
ENDBRANCH   4  13
TORSDOF 8
ENDMDL
MODEL 7
REMARK VINA RESULT:    -4.545      1.247      2.067
REMARK INTER + INTRA:          -7.130
REMARK INTER:                  -6.788
REMARK INTRA:                  -0.342
REMARK UNBOUND:                -0.592
REMARK SMILES Cc1ccncc1/C=C/Nc1ccc(CCCN)cc1
REMARK SMILES IDX 14 1 13 2 12 3 11 4 20 5 19 6 15 7 16 8 17 9 18 10 10 13
REMARK SMILES IDX 9 15 8 16 7 17 2 18 6 19 3 20 5 21 4 22 1 23
REMARK H PARENT 18 11 18 12 10 14
ROOT
ATOM      1  C   UNL     1       6.531   5.136   2.847  1.00  0.00    -0.048 A 
ATOM      2  C   UNL     1       6.605   5.482   4.198  1.00  0.00     0.006 A 
ATOM      3  C   UNL     1       7.340   6.591   4.607  1.00  0.00     0.026 A 
ATOM      4  C   UNL     1       8.088   7.348   3.703  1.00  0.00     0.038 A 
ATOM      5  C   UNL     1       8.060   6.968   2.356  1.00  0.00     0.026 A 
ATOM      6  C   UNL     1       7.291   5.874   1.932  1.00  0.00     0.006 A 
ENDROOT
BRANCH   1   7
ATOM      7  C   UNL     1       5.657   3.999   2.380  1.00  0.00     0.037 C 
BRANCH   7   8
ATOM      8  C   UNL     1       4.201   4.348   2.019  1.00  0.00     0.020 C 
BRANCH   8   9
ATOM      9  C   UNL     1       4.001   5.620   1.182  1.00  0.00     0.078 C 
BRANCH   9  10
ATOM     10  N   UNL     1       2.782   5.649   0.386  1.00  0.00    -0.330 NA
ATOM     11  H   UNL     1       2.195   6.431   0.674  1.00  0.00     0.118 HD
ATOM     12  H   UNL     1       2.226   4.811   0.564  1.00  0.00     0.118 HD
ENDBRANCH   9  10
ENDBRANCH   8   9
ENDBRANCH   7   8
ENDBRANCH   1   7
BRANCH   4  13
ATOM     13  N   UNL     1       8.927   8.397   4.126  1.00  0.00    -0.362 N 
ATOM     14  H   UNL     1       9.329   8.312   5.051  1.00  0.00     0.166 HD
BRANCH  13  15
ATOM     15  C   UNL     1       9.031   9.614   3.505  1.00  0.00     0.083 C 
BRANCH  15  16
ATOM     16  C   UNL     1       8.624  10.818   3.930  1.00  0.00     0.027 C 
BRANCH  16  17
ATOM     17  C   UNL     1       9.510  11.989   3.865  1.00  0.00    -0.003 A 
ATOM     18  C   UNL     1       9.367  13.092   4.725  1.00  0.00    -0.041 A 
ATOM     19  C   UNL     1      10.527  12.070   2.901  1.00  0.00     0.119 A 
ATOM     20  C   UNL     1      10.241  14.180   4.578  1.00  0.00     0.024 A 
ATOM     21  N   UNL     1      11.390  13.102   2.758  1.00  0.00    -0.264 NA
ATOM     22  C   UNL     1      11.227  14.134   3.605  1.00  0.00     0.111 A 
ATOM     23  C   UNL     1       8.287  13.164   5.768  1.00  0.00     0.045 C 
ENDBRANCH  16  17
ENDBRANCH  15  16
ENDBRANCH  13  15
ENDBRANCH   4  13
TORSDOF 8
ENDMDL
MODEL 8
REMARK VINA RESULT:    -4.465      1.628      8.666
REMARK INTER + INTRA:          -7.015
REMARK INTER:                  -6.339
REMARK INTRA:                  -0.676
REMARK UNBOUND:                -0.592
REMARK SMILES Cc1ccncc1/C=C/Nc1ccc(CCCN)cc1
REMARK SMILES IDX 14 1 13 2 12 3 11 4 20 5 19 6 15 7 16 8 17 9 18 10 10 13
REMARK SMILES IDX 9 15 8 16 7 17 2 18 6 19 3 20 5 21 4 22 1 23
REMARK H PARENT 18 11 18 12 10 14
ROOT
ATOM      1  C   UNL     1       9.875  13.089   4.330  1.00  0.00    -0.048 A 
ATOM      2  C   UNL     1      10.641  12.101   3.707  1.00  0.00     0.006 A 
ATOM      3  C   UNL     1      10.066  10.892   3.326  1.00  0.00     0.026 A 
ATOM      4  C   UNL     1       8.734  10.590   3.619  1.00  0.00     0.038 A 
ATOM      5  C   UNL     1       7.980  11.557   4.295  1.00  0.00     0.026 A 
ATOM      6  C   UNL     1       8.544  12.793   4.647  1.00  0.00     0.006 A 
ENDROOT
BRANCH   1   7
ATOM      7  C   UNL     1      10.461  14.440   4.656  1.00  0.00     0.037 C 
BRANCH   7   8
ATOM      8  C   UNL     1      10.422  14.872   6.134  1.00  0.00     0.020 C 
BRANCH   8   9
ATOM      9  C   UNL     1      11.777  14.931   6.855  1.00  0.00     0.078 C 
BRANCH   9  10
ATOM     10  N   UNL     1      12.188  13.689   7.493  1.00  0.00    -0.330 NA
ATOM     11  H   UNL     1      11.368  13.142   7.753  1.00  0.00     0.118 HD
ATOM     12  H   UNL     1      12.672  13.887   8.369  1.00  0.00     0.118 HD
ENDBRANCH   9  10
ENDBRANCH   8   9
ENDBRANCH   7   8
ENDBRANCH   1   7
BRANCH   4  13
ATOM     13  N   UNL     1       8.179   9.325   3.344  1.00  0.00    -0.362 N 
ATOM     14  H   UNL     1       7.192   9.301   3.121  1.00  0.00     0.166 HD
BRANCH  13  15
ATOM     15  C   UNL     1       8.794   8.128   3.602  1.00  0.00     0.083 C 
BRANCH  15  16
ATOM     16  C   UNL     1       8.250   6.960   3.967  1.00  0.00     0.027 C 
BRANCH  16  17
ATOM     17  C   UNL     1       7.198   6.324   3.159  1.00  0.00    -0.003 A 
ATOM     18  C   UNL     1       6.085   5.687   3.736  1.00  0.00    -0.041 A 
ATOM     19  C   UNL     1       7.284   6.296   1.759  1.00  0.00     0.119 A 
ATOM     20  C   UNL     1       5.140   5.085   2.891  1.00  0.00     0.024 A 
ATOM     21  N   UNL     1       6.373   5.735   0.929  1.00  0.00    -0.264 NA
ATOM     22  C   UNL     1       5.318   5.145   1.518  1.00  0.00     0.111 A 
ATOM     23  C   UNL     1       5.892   5.595   5.224  1.00  0.00     0.045 C 
ENDBRANCH  16  17
ENDBRANCH  15  16
ENDBRANCH  13  15
ENDBRANCH   4  13
TORSDOF 8
ENDMDL
MODEL 9
REMARK VINA RESULT:    -4.423      3.688      8.613
REMARK INTER + INTRA:          -6.954
REMARK INTER:                  -6.269
REMARK INTRA:                  -0.686
REMARK UNBOUND:                -0.592
REMARK SMILES Cc1ccncc1/C=C/Nc1ccc(CCCN)cc1
REMARK SMILES IDX 14 1 13 2 12 3 11 4 20 5 19 6 15 7 16 8 17 9 18 10 10 13
REMARK SMILES IDX 9 15 8 16 7 17 2 18 6 19 3 20 5 21 4 22 1 23
REMARK H PARENT 18 11 18 12 10 14
ROOT
ATOM      1  C   UNL     1      12.015   6.977   4.705  1.00  0.00    -0.048 A 
ATOM      2  C   UNL     1      11.282   8.138   4.453  1.00  0.00     0.006 A 
ATOM      3  C   UNL     1       9.963   8.065   4.012  1.00  0.00     0.026 A 
ATOM      4  C   UNL     1       9.353   6.840   3.732  1.00  0.00     0.038 A 
ATOM      5  C   UNL     1      10.106   5.676   3.931  1.00  0.00     0.026 A 
ATOM      6  C   UNL     1      11.422   5.743   4.411  1.00  0.00     0.006 A 
ENDROOT
BRANCH   1   7
ATOM      7  C   UNL     1      13.409   7.043   5.278  1.00  0.00     0.037 C 
BRANCH   7   8
ATOM      8  C   UNL     1      13.573   7.794   6.614  1.00  0.00     0.020 C 
BRANCH   8   9
ATOM      9  C   UNL     1      14.420   9.074   6.567  1.00  0.00     0.078 C 
BRANCH   9  10
ATOM     10  N   UNL     1      13.707  10.268   6.136  1.00  0.00    -0.330 NA
ATOM     11  H   UNL     1      13.678  10.949   6.893  1.00  0.00     0.118 HD
ATOM     12  H   UNL     1      12.733  10.042   5.934  1.00  0.00     0.118 HD
ENDBRANCH   9  10
ENDBRANCH   8   9
ENDBRANCH   7   8
ENDBRANCH   1   7
BRANCH   4  13
ATOM     13  N   UNL     1       8.062   6.762   3.174  1.00  0.00    -0.362 N 
ATOM     14  H   UNL     1       7.306   6.534   3.808  1.00  0.00     0.166 HD
BRANCH  13  15
ATOM     15  C   UNL     1       7.792   6.714   1.832  1.00  0.00     0.083 C 
BRANCH  15  16
ATOM     16  C   UNL     1       7.138   5.775   1.134  1.00  0.00     0.027 C 
BRANCH  16  17
ATOM     17  C   UNL     1       6.228   4.829   1.797  1.00  0.00    -0.003 A 
ATOM     18  C   UNL     1       4.839   4.842   1.579  1.00  0.00    -0.041 A 
ATOM     19  C   UNL     1       6.713   3.886   2.715  1.00  0.00     0.119 A 
ATOM     20  C   UNL     1       4.040   3.919   2.271  1.00  0.00     0.024 A 
ATOM     21  N   UNL     1       5.959   2.978   3.378  1.00  0.00    -0.264 NA
ATOM     22  C   UNL     1       4.637   3.015   3.135  1.00  0.00     0.111 A 
ATOM     23  C   UNL     1       4.177   5.832   0.663  1.00  0.00     0.045 C 
ENDBRANCH  16  17
ENDBRANCH  15  16
ENDBRANCH  13  15
ENDBRANCH   4  13
TORSDOF 8
ENDMDL
