MODEL 1
REMARK VINA RESULT:    -4.995      0.000      0.000
REMARK INTER + INTRA:          -7.777
REMARK INTER:                  -7.185
REMARK INTRA:                  -0.592
REMARK UNBOUND:                -0.592
REMARK SMILES Cc1ccncc1/C=C/Nc1ccc(CCCN)cc1
REMARK SMILES IDX 14 1 13 2 12 3 11 4 20 5 19 6 15 7 16 8 17 9 18 10 10 13
REMARK SMILES IDX 9 15 8 16 7 17 2 18 6 19 3 20 5 21 4 22 1 23
REMARK H PARENT 18 11 18 12 10 14
ROOT
ATOM      1  C   UNL     1       4.066  -1.886   6.407  1.00  0.00    -0.048 A 
ATOM      2  C   UNL     1       4.346  -0.583   6.823  1.00  0.00     0.006 A 
ATOM      3  C   UNL     1       4.545  -0.295   8.170  1.00  0.00     0.026 A 
ATOM      4  C   UNL     1       4.399  -1.272   9.157  1.00  0.00     0.038 A 
ATOM      5  C   UNL     1       4.063  -2.568   8.746  1.00  0.00     0.026 A 
ATOM      6  C   UNL     1       3.898  -2.872   7.386  1.00  0.00     0.006 A 
ENDROOT
BRANCH   1   7
ATOM      7  C   UNL     1       3.948  -2.230   4.943  1.00  0.00     0.037 C 
BRANCH   7   8
ATOM      8  C   UNL     1       2.850  -3.240   4.556  1.00  0.00     0.020 C 
BRANCH   8   9
ATOM      9  C   UNL     1       3.318  -4.475   3.772  1.00  0.00     0.078 C 
BRANCH   9  10
ATOM     10  N   UNL     1       3.295  -4.329   2.323  1.00  0.00    -0.330 NA
ATOM     11  H   UNL     1       3.355  -5.245   1.880  1.00  0.00     0.118 HD
ATOM     12  H   UNL     1       4.121  -3.819   2.008  1.00  0.00     0.118 HD
ENDBRANCH   9  10
ENDBRANCH   8   9
ENDBRANCH   7   8
ENDBRANCH   1   7
BRANCH   4  13
ATOM     13  N   UNL     1       4.482  -0.964  10.528  1.00  0.00    -0.362 N 
ATOM     14  H   UNL     1       5.090  -1.547  11.089  1.00  0.00     0.166 HD
BRANCH  13  15
ATOM     15  C   UNL     1       3.629  -0.124  11.194  1.00  0.00     0.083 C 
BRANCH  15  16
ATOM     16  C   UNL     1       2.717  -0.414  12.131  1.00  0.00     0.027 C 
BRANCH  16  17
ATOM     17  C   UNL     1       2.916  -0.026  13.536  1.00  0.00    -0.003 A 
ATOM     18  C   UNL     1       2.194  -0.612  14.590  1.00  0.00    -0.041 A 
ATOM     19  C   UNL     1       3.823   0.988  13.880  1.00  0.00     0.119 A 
ATOM     20  C   UNL     1       2.430  -0.164  15.899  1.00  0.00     0.024 A 
ATOM     21  N   UNL     1       4.076   1.419  15.138  1.00  0.00    -0.264 NA
ATOM     22  C   UNL     1       3.373   0.827  16.120  1.00  0.00     0.111 A 
ATOM     23  C   UNL     1       1.152  -1.670  14.361  1.00  0.00     0.045 C 
ENDBRANCH  16  17
ENDBRANCH  15  16
ENDBRANCH  13  15
ENDBRANCH   4  13
TORSDOF 8
ENDMDL
MODEL 2
REMARK VINA RESULT:    -4.973      2.036      2.594
REMARK INTER + INTRA:          -7.746
REMARK INTER:                  -7.158
REMARK INTRA:                  -0.588
REMARK UNBOUND:                -0.592
REMARK SMILES Cc1ccncc1/C=C/Nc1ccc(CCCN)cc1
REMARK SMILES IDX 14 1 13 2 12 3 11 4 20 5 19 6 15 7 16 8 17 9 18 10 10 13
REMARK SMILES IDX 9 15 8 16 7 17 2 18 6 19 3 20 5 21 4 22 1 23
REMARK H PARENT 18 11 18 12 10 14
ROOT
ATOM      1  C   UNL     1       3.841  -1.052   5.702  1.00  0.00    -0.048 A 
ATOM      2  C   UNL     1       4.322   0.108   6.312  1.00  0.00     0.006 A 
ATOM      3  C   UNL     1       4.712   0.098   7.648  1.00  0.00     0.026 A 
ATOM      4  C   UNL     1       4.565  -1.039   8.446  1.00  0.00     0.038 A 
ATOM      5  C   UNL     1       4.029  -2.187   7.850  1.00  0.00     0.026 A 
ATOM      6  C   UNL     1       3.670  -2.195   6.494  1.00  0.00     0.006 A 
ENDROOT
BRANCH   1   7
ATOM      7  C   UNL     1       3.511  -1.081   4.230  1.00  0.00     0.037 C 
BRANCH   7   8
ATOM      8  C   UNL     1       2.021  -0.969   3.853  1.00  0.00     0.020 C 
BRANCH   8   9
ATOM      9  C   UNL     1       1.342   0.368   4.184  1.00  0.00     0.078 C 
BRANCH   9  10
ATOM     10  N   UNL     1       1.605   1.443   3.237  1.00  0.00    -0.330 NA
ATOM     11  H   UNL     1       2.327   1.157   2.577  1.00  0.00     0.118 HD
ATOM     12  H   UNL     1       1.986   2.255   3.724  1.00  0.00     0.118 HD
ENDBRANCH   9  10
ENDBRANCH   8   9
ENDBRANCH   7   8
ENDBRANCH   1   7
BRANCH   4  13
ATOM     13  N   UNL     1       4.845  -1.022   9.825  1.00  0.00    -0.362 N 
ATOM     14  H   UNL     1       5.763  -1.343  10.107  1.00  0.00     0.166 HD
BRANCH  13  15
ATOM     15  C   UNL     1       3.909  -0.857  10.812  1.00  0.00     0.083 C 
BRANCH  15  16
ATOM     16  C   UNL     1       3.663   0.217  11.574  1.00  0.00     0.027 C 
BRANCH  16  17
ATOM     17  C   UNL     1       3.144   0.078  12.943  1.00  0.00    -0.003 A 
ATOM     18  C   UNL     1       3.847   0.545  14.067  1.00  0.00    -0.041 A 
ATOM     19  C   UNL     1       1.924  -0.572  13.187  1.00  0.00     0.119 A 
ATOM     20  C   UNL     1       3.289   0.349  15.340  1.00  0.00     0.024 A 
ATOM     21  N   UNL     1       1.364  -0.753  14.406  1.00  0.00    -0.264 NA
ATOM     22  C   UNL     1       2.062  -0.283  15.455  1.00  0.00     0.111 A 
ATOM     23  C   UNL     1       5.189   1.211  13.957  1.00  0.00     0.045 C 
ENDBRANCH  16  17
ENDBRANCH  15  16
ENDBRANCH  13  15
ENDBRANCH   4  13
TORSDOF 8
ENDMDL
MODEL 3
REMARK VINA RESULT:    -4.964      1.044      1.658
REMARK INTER + INTRA:          -7.733
REMARK INTER:                  -7.197
REMARK INTRA:                  -0.536
REMARK UNBOUND:                -0.592
REMARK SMILES Cc1ccncc1/C=C/Nc1ccc(CCCN)cc1
REMARK SMILES IDX 14 1 13 2 12 3 11 4 20 5 19 6 15 7 16 8 17 9 18 10 10 13
REMARK SMILES IDX 9 15 8 16 7 17 2 18 6 19 3 20 5 21 4 22 1 23
REMARK H PARENT 18 11 18 12 10 14
ROOT
ATOM      1  C   UNL     1       4.002  -1.905   6.312  1.00  0.00    -0.048 A 
ATOM      2  C   UNL     1       4.304  -0.612   6.742  1.00  0.00     0.006 A 
ATOM      3  C   UNL     1       4.575  -0.354   8.083  1.00  0.00     0.026 A 
ATOM      4  C   UNL     1       4.480  -1.353   9.054  1.00  0.00     0.038 A 
ATOM      5  C   UNL     1       4.122  -2.639   8.632  1.00  0.00     0.026 A 
ATOM      6  C   UNL     1       3.885  -2.913   7.277  1.00  0.00     0.006 A 
ENDROOT
BRANCH   1   7
ATOM      7  C   UNL     1       3.806  -2.216   4.849  1.00  0.00     0.037 C 
BRANCH   7   8
ATOM      8  C   UNL     1       2.770  -3.304   4.505  1.00  0.00     0.020 C 
BRANCH   8   9
ATOM      9  C   UNL     1       3.300  -4.513   3.719  1.00  0.00     0.078 C 
BRANCH   9  10
ATOM     10  N   UNL     1       3.304  -4.352   2.272  1.00  0.00    -0.330 NA
ATOM     11  H   UNL     1       4.191  -3.953   1.969  1.00  0.00     0.118 HD
ATOM     12  H   UNL     1       2.591  -3.679   1.991  1.00  0.00     0.118 HD
ENDBRANCH   9  10
ENDBRANCH   8   9
ENDBRANCH   7   8
ENDBRANCH   1   7
BRANCH   4  13
ATOM     13  N   UNL     1       4.635  -1.076  10.426  1.00  0.00    -0.362 N 
ATOM     14  H   UNL     1       5.409  -1.528  10.896  1.00  0.00     0.166 HD
BRANCH  13  15
ATOM     15  C   UNL     1       3.695  -0.464  11.212  1.00  0.00     0.083 C 
BRANCH  15  16
ATOM     16  C   UNL     1       3.870   0.343  12.267  1.00  0.00     0.027 C 
BRANCH  16  17
ATOM     17  C   UNL     1       3.095   0.159  13.503  1.00  0.00    -0.003 A 
ATOM     18  C   UNL     1       3.457   0.769  14.718  1.00  0.00    -0.041 A 
ATOM     19  C   UNL     1       1.968  -0.675  13.528  1.00  0.00     0.119 A 
ATOM     20  C   UNL     1       2.675   0.520  15.856  1.00  0.00     0.024 A 
ATOM     21  N   UNL     1       1.192  -0.912  14.612  1.00  0.00    -0.264 NA
ATOM     22  C   UNL     1       1.565  -0.303  15.752  1.00  0.00     0.111 A 
ATOM     23  C   UNL     1       4.672   1.644  14.848  1.00  0.00     0.045 C 
ENDBRANCH  16  17
ENDBRANCH  15  16
ENDBRANCH  13  15
ENDBRANCH   4  13
TORSDOF 8
ENDMDL
MODEL 4
REMARK VINA RESULT:    -4.934      1.866      8.577
REMARK INTER + INTRA:          -7.690
REMARK INTER:                  -7.034
REMARK INTRA:                  -0.656
REMARK UNBOUND:                -0.592
REMARK SMILES Cc1ccncc1/C=C/Nc1ccc(CCCN)cc1
REMARK SMILES IDX 14 1 13 2 12 3 11 4 20 5 19 6 15 7 16 8 17 9 18 10 10 13
REMARK SMILES IDX 9 15 8 16 7 17 2 18 6 19 3 20 5 21 4 22 1 23
REMARK H PARENT 18 11 18 12 10 14
ROOT
ATOM      1  C   UNL     1       2.385  -0.368  13.788  1.00  0.00    -0.048 A 
ATOM      2  C   UNL     1       1.722  -0.697  12.604  1.00  0.00     0.006 A 
ATOM      3  C   UNL     1       2.355  -0.556  11.372  1.00  0.00     0.026 A 
ATOM      4  C   UNL     1       3.638  -0.013  11.267  1.00  0.00     0.038 A 
ATOM      5  C   UNL     1       4.283   0.370  12.449  1.00  0.00     0.026 A 
ATOM      6  C   UNL     1       3.664   0.195  13.696  1.00  0.00     0.006 A 
ENDROOT
BRANCH   1   7
ATOM      7  C   UNL     1       1.747  -0.611  15.133  1.00  0.00     0.037 C 
BRANCH   7   8
ATOM      8  C   UNL     1       1.243  -2.040  15.412  1.00  0.00     0.020 C 
BRANCH   8   9
ATOM      9  C   UNL     1       1.933  -2.784  16.565  1.00  0.00     0.078 C 
BRANCH   9  10
ATOM     10  N   UNL     1       3.129  -3.526  16.191  1.00  0.00    -0.330 NA
ATOM     11  H   UNL     1       2.887  -4.492  15.974  1.00  0.00     0.118 HD
ATOM     12  H   UNL     1       3.773  -3.576  16.981  1.00  0.00     0.118 HD
ENDBRANCH   9  10
ENDBRANCH   8   9
ENDBRANCH   7   8
ENDBRANCH   1   7
BRANCH   4  13
ATOM     13  N   UNL     1       4.238   0.243  10.018  1.00  0.00    -0.362 N 
ATOM     14  H   UNL     1       4.292   1.211   9.730  1.00  0.00     0.166 HD
BRANCH  13  15
ATOM     15  C   UNL     1       4.511  -0.709   9.072  1.00  0.00     0.083 C 
BRANCH  15  16
ATOM     16  C   UNL     1       4.575  -0.584   7.740  1.00  0.00     0.027 C 
BRANCH  16  17
ATOM     17  C   UNL     1       3.872  -1.521   6.851  1.00  0.00    -0.003 A 
ATOM     18  C   UNL     1       3.499  -1.181   5.539  1.00  0.00    -0.041 A 
ATOM     19  C   UNL     1       3.505  -2.799   7.299  1.00  0.00     0.119 A 
ATOM     20  C   UNL     1       2.809  -2.128   4.767  1.00  0.00     0.024 A 
ATOM     21  N   UNL     1       2.855  -3.731   6.563  1.00  0.00    -0.264 NA
ATOM     22  C   UNL     1       2.525  -3.371   5.310  1.00  0.00     0.111 A 
ATOM     23  C   UNL     1       3.781   0.172   4.948  1.00  0.00     0.045 C 
ENDBRANCH  16  17
ENDBRANCH  15  16
ENDBRANCH  13  15
ENDBRANCH   4  13
TORSDOF 8
ENDMDL
MODEL 5
REMARK VINA RESULT:    -4.856      1.867      2.055
REMARK INTER + INTRA:          -7.577
REMARK INTER:                  -7.022
REMARK INTRA:                  -0.555
REMARK UNBOUND:                -0.592
REMARK SMILES Cc1ccncc1/C=C/Nc1ccc(CCCN)cc1
REMARK SMILES IDX 14 1 13 2 12 3 11 4 20 5 19 6 15 7 16 8 17 9 18 10 10 13
REMARK SMILES IDX 9 15 8 16 7 17 2 18 6 19 3 20 5 21 4 22 1 23
REMARK H PARENT 18 11 18 12 10 14
ROOT
ATOM      1  C   UNL     1       3.642  -1.439   5.582  1.00  0.00    -0.048 A 
ATOM      2  C   UNL     1       4.133  -0.347   6.302  1.00  0.00     0.006 A 
ATOM      3  C   UNL     1       4.426  -0.464   7.657  1.00  0.00     0.026 A 
ATOM      4  C   UNL     1       4.169  -1.642   8.363  1.00  0.00     0.038 A 
ATOM      5  C   UNL     1       3.624  -2.719   7.655  1.00  0.00     0.026 A 
ATOM      6  C   UNL     1       3.362  -2.620   6.280  1.00  0.00     0.006 A 
ENDROOT
BRANCH   1   7
ATOM      7  C   UNL     1       3.416  -1.354   4.093  1.00  0.00     0.037 C 
BRANCH   7   8
ATOM      8  C   UNL     1       1.970  -1.101   3.626  1.00  0.00     0.020 C 
BRANCH   8   9
ATOM      9  C   UNL     1       1.336   0.221   4.083  1.00  0.00     0.078 C 
BRANCH   9  10
ATOM     10  N   UNL     1       1.633   1.370   3.240  1.00  0.00    -0.330 NA
ATOM     11  H   UNL     1       1.533   1.116   2.258  1.00  0.00     0.118 HD
ATOM     12  H   UNL     1       2.609   1.646   3.353  1.00  0.00     0.118 HD
ENDBRANCH   9  10
ENDBRANCH   8   9
ENDBRANCH   7   8
ENDBRANCH   1   7
BRANCH   4  13
ATOM     13  N   UNL     1       4.351  -1.729   9.757  1.00  0.00    -0.362 N 
ATOM     14  H   UNL     1       4.439  -2.660  10.146  1.00  0.00     0.166 HD
BRANCH  13  15
ATOM     15  C   UNL     1       4.162  -0.697  10.637  1.00  0.00     0.083 C 
BRANCH  15  16
ATOM     16  C   UNL     1       3.143  -0.479  11.478  1.00  0.00     0.027 C 
BRANCH  16  17
ATOM     17  C   UNL     1       3.371   0.067  12.825  1.00  0.00    -0.003 A 
ATOM     18  C   UNL     1       2.592  -0.311  13.933  1.00  0.00    -0.041 A 
ATOM     19  C   UNL     1       4.366   1.029  13.053  1.00  0.00     0.119 A 
ATOM     20  C   UNL     1       2.861   0.277  15.178  1.00  0.00     0.024 A 
ATOM     21  N   UNL     1       4.651   1.593  14.250  1.00  0.00    -0.264 NA
ATOM     22  C   UNL     1       3.890   1.199  15.287  1.00  0.00     0.111 A 
ATOM     23  C   UNL     1       1.458  -1.291  13.823  1.00  0.00     0.045 C 
ENDBRANCH  16  17
ENDBRANCH  15  16
ENDBRANCH  13  15
ENDBRANCH   4  13
TORSDOF 8
ENDMDL
MODEL 6
REMARK VINA RESULT:    -4.788      2.097      8.406
REMARK INTER + INTRA:          -7.479
REMARK INTER:                  -6.827
REMARK INTRA:                  -0.652
REMARK UNBOUND:                -0.592
REMARK SMILES Cc1ccncc1/C=C/Nc1ccc(CCCN)cc1
REMARK SMILES IDX 14 1 13 2 12 3 11 4 20 5 19 6 15 7 16 8 17 9 18 10 10 13
REMARK SMILES IDX 9 15 8 16 7 17 2 18 6 19 3 20 5 21 4 22 1 23
REMARK H PARENT 18 11 18 12 10 14
ROOT
ATOM      1  C   UNL     1       2.474  -0.303  13.642  1.00  0.00    -0.048 A 
ATOM      2  C   UNL     1       1.722  -0.666  12.523  1.00  0.00     0.006 A 
ATOM      3  C   UNL     1       2.297  -0.682  11.256  1.00  0.00     0.026 A 
ATOM      4  C   UNL     1       3.614  -0.265  11.044  1.00  0.00     0.038 A 
ATOM      5  C   UNL     1       4.351   0.154  12.158  1.00  0.00     0.026 A 
ATOM      6  C   UNL     1       3.788   0.136  13.443  1.00  0.00     0.006 A 
ENDROOT
BRANCH   1   7
ATOM      7  C   UNL     1       1.891  -0.379  15.032  1.00  0.00     0.037 C 
BRANCH   7   8
ATOM      8  C   UNL     1       1.574  -1.786  15.573  1.00  0.00     0.020 C 
BRANCH   8   9
ATOM      9  C   UNL     1       2.590  -2.371  16.565  1.00  0.00     0.078 C 
BRANCH   9  10
ATOM     10  N   UNL     1       3.159  -3.654  16.179  1.00  0.00    -0.330 NA
ATOM     11  H   UNL     1       3.300  -4.236  17.004  1.00  0.00     0.118 HD
ATOM     12  H   UNL     1       4.086  -3.521  15.776  1.00  0.00     0.118 HD
ENDBRANCH   9  10
ENDBRANCH   8   9
ENDBRANCH   7   8
ENDBRANCH   1   7
BRANCH   4  13
ATOM     13  N   UNL     1       4.164  -0.165   9.752  1.00  0.00    -0.362 N 
ATOM     14  H   UNL     1       3.909   0.652   9.211  1.00  0.00     0.166 HD
BRANCH  13  15
ATOM     15  C   UNL     1       4.793  -1.185   9.088  1.00  0.00     0.083 C 
BRANCH  15  16
ATOM     16  C   UNL     1       4.302  -2.020   8.162  1.00  0.00     0.027 C 
BRANCH  16  17
ATOM     17  C   UNL     1       3.745  -1.514   6.899  1.00  0.00    -0.003 A 
ATOM     18  C   UNL     1       2.896  -2.286   6.086  1.00  0.00    -0.041 A 
ATOM     19  C   UNL     1       4.074  -0.234   6.429  1.00  0.00     0.119 A 
ATOM     20  C   UNL     1       2.428  -1.734   4.884  1.00  0.00     0.024 A 
ATOM     21  N   UNL     1       3.618   0.321   5.281  1.00  0.00    -0.264 NA
ATOM     22  C   UNL     1       2.801  -0.445   4.537  1.00  0.00     0.111 A 
ATOM     23  C   UNL     1       2.504  -3.693   6.440  1.00  0.00     0.045 C 
ENDBRANCH  16  17
ENDBRANCH  15  16
ENDBRANCH  13  15
ENDBRANCH   4  13
TORSDOF 8
ENDMDL
MODEL 7
REMARK VINA RESULT:    -4.743      3.800      8.369
REMARK INTER + INTRA:          -7.415
REMARK INTER:                  -6.551
REMARK INTRA:                  -0.863
REMARK UNBOUND:                -0.592
REMARK SMILES Cc1ccncc1/C=C/Nc1ccc(CCCN)cc1
REMARK SMILES IDX 14 1 13 2 12 3 11 4 20 5 19 6 15 7 16 8 17 9 18 10 10 13
REMARK SMILES IDX 9 15 8 16 7 17 2 18 6 19 3 20 5 21 4 22 1 23
REMARK H PARENT 18 11 18 12 10 14
ROOT
ATOM      1  C   UNL     1       6.632  -2.205   9.559  1.00  0.00    -0.048 A 
ATOM      2  C   UNL     1       5.658  -1.541  10.308  1.00  0.00     0.006 A 
ATOM      3  C   UNL     1       4.453  -1.158   9.727  1.00  0.00     0.026 A 
ATOM      4  C   UNL     1       4.203  -1.350   8.366  1.00  0.00     0.038 A 
ATOM      5  C   UNL     1       5.202  -1.965   7.601  1.00  0.00     0.026 A 
ATOM      6  C   UNL     1       6.403  -2.388   8.190  1.00  0.00     0.006 A 
ENDROOT
BRANCH   1   7
ATOM      7  C   UNL     1       7.898  -2.715  10.202  1.00  0.00     0.037 C 
BRANCH   7   8
ATOM      8  C   UNL     1       9.211  -2.465   9.435  1.00  0.00     0.020 C 
BRANCH   8   9
ATOM      9  C   UNL     1      10.453  -2.193  10.297  1.00  0.00     0.078 C 
BRANCH   9  10
ATOM     10  N   UNL     1      10.173  -1.784  11.666  1.00  0.00    -0.330 NA
ATOM     11  H   UNL     1      10.145  -2.601  12.275  1.00  0.00     0.118 HD
ATOM     12  H   UNL     1       9.245  -1.367  11.726  1.00  0.00     0.118 HD
ENDBRANCH   9  10
ENDBRANCH   8   9
ENDBRANCH   7   8
ENDBRANCH   1   7
BRANCH   4  13
ATOM     13  N   UNL     1       3.038  -0.859   7.746  1.00  0.00    -0.362 N 
ATOM     14  H   UNL     1       2.230  -0.724   8.341  1.00  0.00     0.166 HD
BRANCH  13  15
ATOM     15  C   UNL     1       2.838  -0.799   6.392  1.00  0.00     0.083 C 
BRANCH  15  16
ATOM     16  C   UNL     1       1.946  -1.457   5.639  1.00  0.00     0.027 C 
BRANCH  16  17
ATOM     17  C   UNL     1       2.372  -2.483   4.676  1.00  0.00    -0.003 A 
ATOM     18  C   UNL     1       2.635  -3.812   5.056  1.00  0.00    -0.041 A 
ATOM     19  C   UNL     1       2.574  -2.163   3.325  1.00  0.00     0.119 A 
ATOM     20  C   UNL     1       3.060  -4.721   4.077  1.00  0.00     0.024 A 
ATOM     21  N   UNL     1       2.966  -3.032   2.364  1.00  0.00    -0.264 NA
ATOM     22  C   UNL     1       3.198  -4.295   2.765  1.00  0.00     0.111 A 
ATOM     23  C   UNL     1       2.512  -4.280   6.479  1.00  0.00     0.045 C 
ENDBRANCH  16  17
ENDBRANCH  15  16
ENDBRANCH  13  15
ENDBRANCH   4  13
TORSDOF 8
ENDMDL
MODEL 8
REMARK VINA RESULT:    -4.677      4.137      8.573
REMARK INTER + INTRA:          -7.320
REMARK INTER:                  -6.597
REMARK INTRA:                  -0.723
REMARK UNBOUND:                -0.592
REMARK SMILES Cc1ccncc1/C=C/Nc1ccc(CCCN)cc1
REMARK SMILES IDX 14 1 13 2 12 3 11 4 20 5 19 6 15 7 16 8 17 9 18 10 10 13
REMARK SMILES IDX 9 15 8 16 7 17 2 18 6 19 3 20 5 21 4 22 1 23
REMARK H PARENT 18 11 18 12 10 14
ROOT
ATOM      1  C   UNL     1       7.863  -2.661  10.240  1.00  0.00    -0.048 A 
ATOM      2  C   UNL     1       7.947  -3.130   8.927  1.00  0.00     0.006 A 
ATOM      3  C   UNL     1       6.917  -2.895   8.021  1.00  0.00     0.026 A 
ATOM      4  C   UNL     1       5.736  -2.255   8.406  1.00  0.00     0.038 A 
ATOM      5  C   UNL     1       5.627  -1.834   9.736  1.00  0.00     0.026 A 
ATOM      6  C   UNL     1       6.678  -2.035  10.644  1.00  0.00     0.006 A 
ENDROOT
BRANCH   1   7
ATOM      7  C   UNL     1       9.014  -2.822  11.202  1.00  0.00     0.037 C 
BRANCH   7   8
ATOM      8  C   UNL     1       8.785  -3.757  12.405  1.00  0.00     0.020 C 
BRANCH   8   9
ATOM      9  C   UNL     1       8.779  -3.087  13.787  1.00  0.00     0.078 C 
BRANCH   9  10
ATOM     10  N   UNL     1       7.461  -2.913  14.381  1.00  0.00    -0.330 NA
ATOM     11  H   UNL     1       7.276  -3.664  15.045  1.00  0.00     0.118 HD
ATOM     12  H   UNL     1       6.739  -2.997  13.665  1.00  0.00     0.118 HD
ENDBRANCH   9  10
ENDBRANCH   8   9
ENDBRANCH   7   8
ENDBRANCH   1   7
BRANCH   4  13
ATOM     13  N   UNL     1       4.644  -2.119   7.528  1.00  0.00    -0.362 N 
ATOM     14  H   UNL     1       4.628  -1.290   6.947  1.00  0.00     0.166 HD
BRANCH  13  15
ATOM     15  C   UNL     1       3.499  -2.869   7.582  1.00  0.00     0.083 C 
BRANCH  15  16
ATOM     16  C   UNL     1       2.813  -3.439   6.581  1.00  0.00     0.027 C 
BRANCH  16  17
ATOM     17  C   UNL     1       2.296  -2.640   5.460  1.00  0.00    -0.003 A 
ATOM     18  C   UNL     1       2.525  -2.987   4.117  1.00  0.00    -0.041 A 
ATOM     19  C   UNL     1       1.573  -1.459   5.691  1.00  0.00     0.119 A 
ATOM     20  C   UNL     1       2.015  -2.155   3.109  1.00  0.00     0.024 A 
ATOM     21  N   UNL     1       1.059  -0.655   4.732  1.00  0.00    -0.264 NA
ATOM     22  C   UNL     1       1.291  -1.026   3.460  1.00  0.00     0.111 A 
ATOM     23  C   UNL     1       3.329  -4.195   3.725  1.00  0.00     0.045 C 
ENDBRANCH  16  17
ENDBRANCH  15  16
ENDBRANCH  13  15
ENDBRANCH   4  13
TORSDOF 8
ENDMDL
MODEL 9
REMARK VINA RESULT:    -4.618      2.187      8.740
REMARK INTER + INTRA:          -7.235
REMARK INTER:                  -6.593
REMARK INTRA:                  -0.641
REMARK UNBOUND:                -0.592
REMARK SMILES Cc1ccncc1/C=C/Nc1ccc(CCCN)cc1
REMARK SMILES IDX 14 1 13 2 12 3 11 4 20 5 19 6 15 7 16 8 17 9 18 10 10 13
REMARK SMILES IDX 9 15 8 16 7 17 2 18 6 19 3 20 5 21 4 22 1 23
REMARK H PARENT 18 11 18 12 10 14
ROOT
ATOM      1  C   UNL     1       3.930  -0.090  11.920  1.00  0.00    -0.048 A 
ATOM      2  C   UNL     1       2.881   0.250  11.063  1.00  0.00     0.006 A 
ATOM      3  C   UNL     1       2.869  -0.194   9.744  1.00  0.00     0.026 A 
ATOM      4  C   UNL     1       3.932  -0.925   9.208  1.00  0.00     0.038 A 
ATOM      5  C   UNL     1       5.011  -1.218  10.050  1.00  0.00     0.026 A 
ATOM      6  C   UNL     1       5.011  -0.806  11.391  1.00  0.00     0.006 A 
ENDROOT
BRANCH   1   7
ATOM      7  C   UNL     1       3.905   0.300  13.377  1.00  0.00     0.037 C 
BRANCH   7   8
ATOM      8  C   UNL     1       4.863   1.428  13.808  1.00  0.00     0.020 C 
BRANCH   8   9
ATOM      9  C   UNL     1       5.955   1.036  14.814  1.00  0.00     0.078 C 
BRANCH   9  10
ATOM     10  N   UNL     1       7.204   0.580  14.220  1.00  0.00    -0.330 NA
ATOM     11  H   UNL     1       7.014  -0.115  13.500  1.00  0.00     0.118 HD
ATOM     12  H   UNL     1       7.771   0.101  14.920  1.00  0.00     0.118 HD
ENDBRANCH   9  10
ENDBRANCH   8   9
ENDBRANCH   7   8
ENDBRANCH   1   7
BRANCH   4  13
ATOM     13  N   UNL     1       3.982  -1.275   7.845  1.00  0.00    -0.362 N 
ATOM     14  H   UNL     1       3.899  -0.518   7.178  1.00  0.00     0.166 HD
BRANCH  13  15
ATOM     15  C   UNL     1       3.876  -2.552   7.361  1.00  0.00     0.083 C 
BRANCH  15  16
ATOM     16  C   UNL     1       2.890  -3.104   6.642  1.00  0.00     0.027 C 
BRANCH  16  17
ATOM     17  C   UNL     1       2.322  -2.416   5.472  1.00  0.00    -0.003 A 
ATOM     18  C   UNL     1       2.519  -2.876   4.158  1.00  0.00    -0.041 A 
ATOM     19  C   UNL     1       1.582  -1.234   5.621  1.00  0.00     0.119 A 
ATOM     20  C   UNL     1       1.962  -2.146   3.097  1.00  0.00     0.024 A 
ATOM     21  N   UNL     1       1.023  -0.527   4.611  1.00  0.00    -0.264 NA
ATOM     22  C   UNL     1       1.225  -1.004   3.370  1.00  0.00     0.111 A 
ATOM     23  C   UNL     1       3.336  -4.099   3.847  1.00  0.00     0.045 C 
ENDBRANCH  16  17
ENDBRANCH  15  16
ENDBRANCH  13  15
ENDBRANCH   4  13
TORSDOF 8
ENDMDL
