MODEL 1
REMARK VINA RESULT:    -5.087      0.000      0.000
REMARK INTER + INTRA:          -7.970
REMARK INTER:                  -7.318
REMARK INTRA:                  -0.652
REMARK UNBOUND:                -0.652
REMARK SMILES Cc1ccncc1/C=C/Nc1ccc(CCCN)cc1
REMARK SMILES IDX 14 1 13 2 12 3 11 4 20 5 19 6 15 7 16 8 17 9 18 10 10 13
REMARK SMILES IDX 9 15 8 16 7 17 2 18 6 19 3 20 5 21 4 22 1 23
REMARK H PARENT 18 11 18 12 10 14
ROOT
ATOM      1  C   UNL     1     -10.598   0.086 -13.111  1.00  0.00    -0.048 A 
ATOM      2  C   UNL     1      -9.347   0.276 -12.521  1.00  0.00     0.006 A 
ATOM      3  C   UNL     1      -9.099  -0.164 -11.224  1.00  0.00     0.026 A 
ATOM      4  C   UNL     1     -10.103  -0.737 -10.441  1.00  0.00     0.038 A 
ATOM      5  C   UNL     1     -11.374  -0.877 -11.011  1.00  0.00     0.026 A 
ATOM      6  C   UNL     1     -11.620  -0.470 -12.332  1.00  0.00     0.006 A 
ENDROOT
BRANCH   1   7
ATOM      7  C   UNL     1     -10.849   0.466 -14.549  1.00  0.00     0.037 C 
BRANCH   7   8
ATOM      8  C   UNL     1      -9.647   0.374 -15.509  1.00  0.00     0.020 C 
BRANCH   8   9
ATOM      9  C   UNL     1      -9.670  -0.795 -16.505  1.00  0.00     0.078 C 
BRANCH   9  10
ATOM     10  N   UNL     1      -9.513  -2.114 -15.910  1.00  0.00    -0.330 NA
ATOM     11  H   UNL     1     -10.359  -2.664 -16.052  1.00  0.00     0.118 HD
ATOM     12  H   UNL     1      -9.406  -2.033 -14.899  1.00  0.00     0.118 HD
ENDBRANCH   9  10
ENDBRANCH   8   9
ENDBRANCH   7   8
ENDBRANCH   1   7
BRANCH   4  13
ATOM     13  N   UNL     1      -9.892  -1.075  -9.090  1.00  0.00    -0.362 N 
ATOM     14  H   UNL     1     -10.262  -0.435  -8.399  1.00  0.00     0.166 HD
BRANCH  13  15
ATOM     15  C   UNL     1      -9.025  -2.039  -8.651  1.00  0.00     0.083 C 
BRANCH  15  16
ATOM     16  C   UNL     1      -8.627  -2.314  -7.402  1.00  0.00     0.027 C 
BRANCH  16  17
ATOM     17  C   UNL     1      -7.205  -2.511  -7.081  1.00  0.00    -0.003 A 
ATOM     18  C   UNL     1      -6.651  -2.127  -5.847  1.00  0.00    -0.041 A 
ATOM     19  C   UNL     1      -6.325  -3.065  -8.022  1.00  0.00     0.119 A 
ATOM     20  C   UNL     1      -5.279  -2.329  -5.632  1.00  0.00     0.024 A 
ATOM     21  N   UNL     1      -5.004  -3.283  -7.825  1.00  0.00    -0.264 NA
ATOM     22  C   UNL     1      -4.513  -2.911  -6.630  1.00  0.00     0.111 A 
ATOM     23  C   UNL     1      -7.466  -1.472  -4.767  1.00  0.00     0.045 C 
ENDBRANCH  16  17
ENDBRANCH  15  16
ENDBRANCH  13  15
ENDBRANCH   4  13
TORSDOF 8
ENDMDL
MODEL 2
REMARK VINA RESULT:    -5.057      4.751      8.522
REMARK INTER + INTRA:          -7.927
REMARK INTER:                  -7.342
REMARK INTRA:                  -0.585
REMARK UNBOUND:                -0.652
REMARK SMILES Cc1ccncc1/C=C/Nc1ccc(CCCN)cc1
REMARK SMILES IDX 14 1 13 2 12 3 11 4 20 5 19 6 15 7 16 8 17 9 18 10 10 13
REMARK SMILES IDX 9 15 8 16 7 17 2 18 6 19 3 20 5 21 4 22 1 23
REMARK H PARENT 18 11 18 12 10 14
ROOT
ATOM      1  C   UNL     1      -5.741  -2.322  -6.836  1.00  0.00    -0.048 A 
ATOM      2  C   UNL     1      -5.661  -3.144  -7.962  1.00  0.00     0.006 A 
ATOM      3  C   UNL     1      -6.812  -3.542  -8.634  1.00  0.00     0.026 A 
ATOM      4  C   UNL     1      -8.085  -3.204  -8.169  1.00  0.00     0.038 A 
ATOM      5  C   UNL     1      -8.170  -2.427  -7.008  1.00  0.00     0.026 A 
ATOM      6  C   UNL     1      -7.011  -1.991  -6.347  1.00  0.00     0.006 A 
ENDROOT
BRANCH   1   7
ATOM      7  C   UNL     1      -4.498  -1.801  -6.159  1.00  0.00     0.037 C 
BRANCH   7   8
ATOM      8  C   UNL     1      -4.092  -2.485  -4.839  1.00  0.00     0.020 C 
BRANCH   8   9
ATOM      9  C   UNL     1      -3.703  -3.967  -4.939  1.00  0.00     0.078 C 
BRANCH   9  10
ATOM     10  N   UNL     1      -2.329  -4.217  -5.351  1.00  0.00    -0.330 NA
ATOM     11  H   UNL     1      -1.925  -4.960  -4.783  1.00  0.00     0.118 HD
ATOM     12  H   UNL     1      -1.754  -3.393  -5.174  1.00  0.00     0.118 HD
ENDBRANCH   9  10
ENDBRANCH   8   9
ENDBRANCH   7   8
ENDBRANCH   1   7
BRANCH   4  13
ATOM     13  N   UNL     1      -9.255  -3.701  -8.775  1.00  0.00    -0.362 N 
ATOM     14  H   UNL     1      -9.774  -3.057  -9.358  1.00  0.00     0.166 HD
BRANCH  13  15
ATOM     15  C   UNL     1      -9.871  -4.878  -8.439  1.00  0.00     0.083 C 
BRANCH  15  16
ATOM     16  C   UNL     1     -10.013  -5.996  -9.163  1.00  0.00     0.027 C 
BRANCH  16  17
ATOM     17  C   UNL     1     -11.221  -6.827  -9.053  1.00  0.00    -0.003 A 
ATOM     18  C   UNL     1     -11.955  -7.243 -10.178  1.00  0.00    -0.041 A 
ATOM     19  C   UNL     1     -11.718  -7.212  -7.799  1.00  0.00     0.119 A 
ATOM     20  C   UNL     1     -13.110  -8.015  -9.982  1.00  0.00     0.024 A 
ATOM     21  N   UNL     1     -12.820  -7.970  -7.592  1.00  0.00    -0.264 NA
ATOM     22  C   UNL     1     -13.489  -8.357  -8.693  1.00  0.00     0.111 A 
ATOM     23  C   UNL     1     -11.568  -6.859 -11.579  1.00  0.00     0.045 C 
ENDBRANCH  16  17
ENDBRANCH  15  16
ENDBRANCH  13  15
ENDBRANCH   4  13
TORSDOF 8
ENDMDL
MODEL 3
REMARK VINA RESULT:    -5.053      4.923      8.449
REMARK INTER + INTRA:          -7.921
REMARK INTER:                  -7.334
REMARK INTRA:                  -0.586
REMARK UNBOUND:                -0.652
REMARK SMILES Cc1ccncc1/C=C/Nc1ccc(CCCN)cc1
REMARK SMILES IDX 14 1 13 2 12 3 11 4 20 5 19 6 15 7 16 8 17 9 18 10 10 13
REMARK SMILES IDX 9 15 8 16 7 17 2 18 6 19 3 20 5 21 4 22 1 23
REMARK H PARENT 18 11 18 12 10 14
ROOT
ATOM      1  C   UNL     1      -7.011  -2.071  -7.042  1.00  0.00    -0.048 A 
ATOM      2  C   UNL     1      -6.628  -3.065  -7.944  1.00  0.00     0.006 A 
ATOM      3  C   UNL     1      -7.584  -3.802  -8.637  1.00  0.00     0.026 A 
ATOM      4  C   UNL     1      -8.951  -3.631  -8.403  1.00  0.00     0.038 A 
ATOM      5  C   UNL     1      -9.335  -2.673  -7.457  1.00  0.00     0.026 A 
ATOM      6  C   UNL     1      -8.376  -1.901  -6.783  1.00  0.00     0.006 A 
ENDROOT
BRANCH   1   7
ATOM      7  C   UNL     1      -5.986  -1.198  -6.361  1.00  0.00     0.037 C 
BRANCH   7   8
ATOM      8  C   UNL     1      -6.266  -0.818  -4.894  1.00  0.00     0.020 C 
BRANCH   8   9
ATOM      9  C   UNL     1      -5.339   0.243  -4.285  1.00  0.00     0.078 C 
BRANCH   9  10
ATOM     10  N   UNL     1      -5.923   1.023  -3.203  1.00  0.00    -0.330 NA
ATOM     11  H   UNL     1      -5.866   2.018  -3.420  1.00  0.00     0.118 HD
ATOM     12  H   UNL     1      -5.382   0.899  -2.347  1.00  0.00     0.118 HD
ENDBRANCH   9  10
ENDBRANCH   8   9
ENDBRANCH   7   8
ENDBRANCH   1   7
BRANCH   4  13
ATOM     13  N   UNL     1      -9.918  -4.453  -9.012  1.00  0.00    -0.362 N 
ATOM     14  H   UNL     1     -10.695  -3.985  -9.461  1.00  0.00     0.166 HD
BRANCH  13  15
ATOM     15  C   UNL     1     -10.026  -5.806  -8.824  1.00  0.00     0.083 C 
BRANCH  15  16
ATOM     16  C   UNL     1     -10.944  -6.493  -8.132  1.00  0.00     0.027 C 
BRANCH  16  17
ATOM     17  C   UNL     1     -11.993  -7.265  -8.815  1.00  0.00    -0.003 A 
ATOM     18  C   UNL     1     -13.198  -7.624  -8.184  1.00  0.00    -0.041 A 
ATOM     19  C   UNL     1     -11.814  -7.714 -10.132  1.00  0.00     0.119 A 
ATOM     20  C   UNL     1     -14.134  -8.383  -8.902  1.00  0.00     0.024 A 
ATOM     21  N   UNL     1     -12.714  -8.431 -10.845  1.00  0.00    -0.264 NA
ATOM     22  C   UNL     1     -13.857  -8.746 -10.211  1.00  0.00     0.111 A 
ATOM     23  C   UNL     1     -13.500  -7.257  -6.759  1.00  0.00     0.045 C 
ENDBRANCH  16  17
ENDBRANCH  15  16
ENDBRANCH  13  15
ENDBRANCH   4  13
TORSDOF 8
ENDMDL
MODEL 4
REMARK VINA RESULT:    -5.042      1.935      8.694
REMARK INTER + INTRA:          -7.904
REMARK INTER:                  -7.324
REMARK INTRA:                  -0.580
REMARK UNBOUND:                -0.652
REMARK SMILES Cc1ccncc1/C=C/Nc1ccc(CCCN)cc1
REMARK SMILES IDX 14 1 13 2 12 3 11 4 20 5 19 6 15 7 16 8 17 9 18 10 10 13
REMARK SMILES IDX 9 15 8 16 7 17 2 18 6 19 3 20 5 21 4 22 1 23
REMARK H PARENT 18 11 18 12 10 14
ROOT
ATOM      1  C   UNL     1      -6.742  -2.865  -6.361  1.00  0.00    -0.048 A 
ATOM      2  C   UNL     1      -7.916  -2.144  -6.132  1.00  0.00     0.006 A 
ATOM      3  C   UNL     1      -8.850  -1.966  -7.148  1.00  0.00     0.026 A 
ATOM      4  C   UNL     1      -8.618  -2.428  -8.445  1.00  0.00     0.038 A 
ATOM      5  C   UNL     1      -7.415  -3.102  -8.691  1.00  0.00     0.026 A 
ATOM      6  C   UNL     1      -6.487  -3.317  -7.661  1.00  0.00     0.006 A 
ENDROOT
BRANCH   1   7
ATOM      7  C   UNL     1      -5.771  -3.151  -5.243  1.00  0.00     0.037 C 
BRANCH   7   8
ATOM      8  C   UNL     1      -4.272  -3.056  -5.588  1.00  0.00     0.020 C 
BRANCH   8   9
ATOM      9  C   UNL     1      -3.421  -4.283  -5.230  1.00  0.00     0.078 C 
BRANCH   9  10
ATOM     10  N   UNL     1      -2.885  -4.288  -3.877  1.00  0.00    -0.330 NA
ATOM     11  H   UNL     1      -3.098  -3.405  -3.414  1.00  0.00     0.118 HD
ATOM     12  H   UNL     1      -1.867  -4.345  -3.901  1.00  0.00     0.118 HD
ENDBRANCH   9  10
ENDBRANCH   8   9
ENDBRANCH   7   8
ENDBRANCH   1   7
BRANCH   4  13
ATOM     13  N   UNL     1      -9.502  -2.149  -9.505  1.00  0.00    -0.362 N 
ATOM     14  H   UNL     1      -9.787  -2.933 -10.078  1.00  0.00     0.166 HD
BRANCH  13  15
ATOM     15  C   UNL     1      -9.794  -0.894  -9.970  1.00  0.00     0.083 C 
BRANCH  15  16
ATOM     16  C   UNL     1      -9.720  -0.417 -11.220  1.00  0.00     0.027 C 
BRANCH  16  17
ATOM     17  C   UNL     1     -10.902  -0.385 -12.094  1.00  0.00    -0.003 A 
ATOM     18  C   UNL     1     -10.834   0.015 -13.440  1.00  0.00    -0.041 A 
ATOM     19  C   UNL     1     -12.171  -0.723 -11.601  1.00  0.00     0.119 A 
ATOM     20  C   UNL     1     -12.016   0.038 -14.197  1.00  0.00     0.024 A 
ATOM     21  N   UNL     1     -13.318  -0.723 -12.321  1.00  0.00    -0.264 NA
ATOM     22  C   UNL     1     -13.210  -0.344 -13.607  1.00  0.00     0.111 A 
ATOM     23  C   UNL     1      -9.550   0.454 -14.085  1.00  0.00     0.045 C 
ENDBRANCH  16  17
ENDBRANCH  15  16
ENDBRANCH  13  15
ENDBRANCH   4  13
TORSDOF 8
ENDMDL
MODEL 5
REMARK VINA RESULT:    -5.039      5.548      7.493
REMARK INTER + INTRA:          -7.900
REMARK INTER:                  -7.247
REMARK INTRA:                  -0.653
REMARK UNBOUND:                -0.652
REMARK SMILES Cc1ccncc1/C=C/Nc1ccc(CCCN)cc1
REMARK SMILES IDX 14 1 13 2 12 3 11 4 20 5 19 6 15 7 16 8 17 9 18 10 10 13
REMARK SMILES IDX 9 15 8 16 7 17 2 18 6 19 3 20 5 21 4 22 1 23
REMARK H PARENT 18 11 18 12 10 14
ROOT
ATOM      1  C   UNL     1     -12.543  -7.820  -8.973  1.00  0.00    -0.048 A 
ATOM      2  C   UNL     1     -12.023  -7.266 -10.144  1.00  0.00     0.006 A 
ATOM      3  C   UNL     1     -10.911  -6.430 -10.103  1.00  0.00     0.026 A 
ATOM      4  C   UNL     1     -10.323  -6.054  -8.892  1.00  0.00     0.038 A 
ATOM      5  C   UNL     1     -10.878  -6.564  -7.712  1.00  0.00     0.026 A 
ATOM      6  C   UNL     1     -11.976  -7.437  -7.751  1.00  0.00     0.006 A 
ENDROOT
BRANCH   1   7
ATOM      7  C   UNL     1     -13.684  -8.805  -9.015  1.00  0.00     0.037 C 
BRANCH   7   8
ATOM      8  C   UNL     1     -13.848  -9.727  -7.791  1.00  0.00     0.020 C 
BRANCH   8   9
ATOM      9  C   UNL     1     -13.781 -11.236  -8.070  1.00  0.00     0.078 C 
BRANCH   9  10
ATOM     10  N   UNL     1     -12.781 -11.960  -7.299  1.00  0.00    -0.330 NA
ATOM     11  H   UNL     1     -12.476 -12.786  -7.812  1.00  0.00     0.118 HD
ATOM     12  H   UNL     1     -13.190 -12.312  -6.433  1.00  0.00     0.118 HD
ENDBRANCH   9  10
ENDBRANCH   8   9
ENDBRANCH   7   8
ENDBRANCH   1   7
BRANCH   4  13
ATOM     13  N   UNL     1      -9.274  -5.117  -8.834  1.00  0.00    -0.362 N 
ATOM     14  H   UNL     1      -8.348  -5.483  -8.649  1.00  0.00     0.166 HD
BRANCH  13  15
ATOM     15  C   UNL     1      -9.440  -3.760  -8.751  1.00  0.00     0.083 C 
BRANCH  15  16
ATOM     16  C   UNL     1      -8.527  -2.809  -8.514  1.00  0.00     0.027 C 
BRANCH  16  17
ATOM     17  C   UNL     1      -8.310  -2.282  -7.158  1.00  0.00    -0.003 A 
ATOM     18  C   UNL     1      -7.050  -2.304  -6.534  1.00  0.00    -0.041 A 
ATOM     19  C   UNL     1      -9.376  -1.764  -6.408  1.00  0.00     0.119 A 
ATOM     20  C   UNL     1      -6.936  -1.802  -5.229  1.00  0.00     0.024 A 
ATOM     21  N   UNL     1      -9.280  -1.261  -5.155  1.00  0.00    -0.264 NA
ATOM     22  C   UNL     1      -8.058  -1.289  -4.596  1.00  0.00     0.111 A 
ATOM     23  C   UNL     1      -5.832  -2.878  -7.200  1.00  0.00     0.045 C 
ENDBRANCH  16  17
ENDBRANCH  15  16
ENDBRANCH  13  15
ENDBRANCH   4  13
TORSDOF 8
ENDMDL
MODEL 6
REMARK VINA RESULT:    -5.031      2.008      8.507
REMARK INTER + INTRA:          -7.890
REMARK INTER:                  -7.423
REMARK INTRA:                  -0.466
REMARK UNBOUND:                -0.652
REMARK SMILES Cc1ccncc1/C=C/Nc1ccc(CCCN)cc1
REMARK SMILES IDX 14 1 13 2 12 3 11 4 20 5 19 6 15 7 16 8 17 9 18 10 10 13
REMARK SMILES IDX 9 15 8 16 7 17 2 18 6 19 3 20 5 21 4 22 1 23
REMARK H PARENT 18 11 18 12 10 14
ROOT
ATOM      1  C   UNL     1      -6.639  -2.291  -5.672  1.00  0.00    -0.048 A 
ATOM      2  C   UNL     1      -7.955  -1.828  -5.630  1.00  0.00     0.006 A 
ATOM      3  C   UNL     1      -8.793  -1.970  -6.732  1.00  0.00     0.026 A 
ATOM      4  C   UNL     1      -8.333  -2.505  -7.938  1.00  0.00     0.038 A 
ATOM      5  C   UNL     1      -6.997  -2.918  -7.999  1.00  0.00     0.026 A 
ATOM      6  C   UNL     1      -6.158  -2.812  -6.879  1.00  0.00     0.006 A 
ENDROOT
BRANCH   1   7
ATOM      7  C   UNL     1      -5.752  -2.235  -4.453  1.00  0.00     0.037 C 
BRANCH   7   8
ATOM      8  C   UNL     1      -4.809  -1.022  -4.339  1.00  0.00     0.020 C 
BRANCH   8   9
ATOM      9  C   UNL     1      -5.476   0.360  -4.414  1.00  0.00     0.078 C 
BRANCH   9  10
ATOM     10  N   UNL     1      -5.790   0.963  -3.126  1.00  0.00    -0.330 NA
ATOM     11  H   UNL     1      -6.351   1.802  -3.262  1.00  0.00     0.118 HD
ATOM     12  H   UNL     1      -4.934   1.277  -2.668  1.00  0.00     0.118 HD
ENDBRANCH   9  10
ENDBRANCH   8   9
ENDBRANCH   7   8
ENDBRANCH   1   7
BRANCH   4  13
ATOM     13  N   UNL     1      -9.140  -2.542  -9.092  1.00  0.00    -0.362 N 
ATOM     14  H   UNL     1      -9.445  -3.455  -9.403  1.00  0.00     0.166 HD
BRANCH  13  15
ATOM     15  C   UNL     1      -9.323  -1.492  -9.952  1.00  0.00     0.083 C 
BRANCH  15  16
ATOM     16  C   UNL     1     -10.464  -0.908 -10.342  1.00  0.00     0.027 C 
BRANCH  16  17
ATOM     17  C   UNL     1     -10.630  -0.401 -11.713  1.00  0.00    -0.003 A 
ATOM     18  C   UNL     1     -11.849  -0.490 -12.407  1.00  0.00    -0.041 A 
ATOM     19  C   UNL     1      -9.550   0.167 -12.406  1.00  0.00     0.119 A 
ATOM     20  C   UNL     1     -11.914  -0.002 -13.721  1.00  0.00     0.024 A 
ATOM     21  N   UNL     1      -9.599   0.658 -13.666  1.00  0.00    -0.264 NA
ATOM     22  C   UNL     1     -10.785   0.564 -14.294  1.00  0.00     0.111 A 
ATOM     23  C   UNL     1     -13.073  -1.122 -11.807  1.00  0.00     0.045 C 
ENDBRANCH  16  17
ENDBRANCH  15  16
ENDBRANCH  13  15
ENDBRANCH   4  13
TORSDOF 8
ENDMDL
MODEL 7
REMARK VINA RESULT:    -4.960      1.812      2.254
REMARK INTER + INTRA:          -7.787
REMARK INTER:                  -7.182
REMARK INTRA:                  -0.605
REMARK UNBOUND:                -0.652
REMARK SMILES Cc1ccncc1/C=C/Nc1ccc(CCCN)cc1
REMARK SMILES IDX 14 1 13 2 12 3 11 4 20 5 19 6 15 7 16 8 17 9 18 10 10 13
REMARK SMILES IDX 9 15 8 16 7 17 2 18 6 19 3 20 5 21 4 22 1 23
REMARK H PARENT 18 11 18 12 10 14
ROOT
ATOM      1  C   UNL     1     -10.915   0.174 -13.295  1.00  0.00    -0.048 A 
ATOM      2  C   UNL     1     -11.840  -0.487 -12.484  1.00  0.00     0.006 A 
ATOM      3  C   UNL     1     -11.496  -0.888 -11.196  1.00  0.00     0.026 A 
ATOM      4  C   UNL     1     -10.202  -0.718 -10.697  1.00  0.00     0.038 A 
ATOM      5  C   UNL     1      -9.258  -0.107 -11.531  1.00  0.00     0.026 A 
ATOM      6  C   UNL     1      -9.610   0.334 -12.816  1.00  0.00     0.006 A 
ENDROOT
BRANCH   1   7
ATOM      7  C   UNL     1     -11.306   0.703 -14.653  1.00  0.00     0.037 C 
BRANCH   7   8
ATOM      8  C   UNL     1     -10.589   1.980 -15.130  1.00  0.00     0.020 C 
BRANCH   8   9
ATOM      9  C   UNL     1     -11.489   3.082 -15.708  1.00  0.00     0.078 C 
BRANCH   9  10
ATOM     10  N   UNL     1     -11.098   4.441 -15.361  1.00  0.00    -0.330 NA
ATOM     11  H   UNL     1     -11.253   4.605 -14.367  1.00  0.00     0.118 HD
ATOM     12  H   UNL     1     -11.694   5.113 -15.845  1.00  0.00     0.118 HD
ENDBRANCH   9  10
ENDBRANCH   8   9
ENDBRANCH   7   8
ENDBRANCH   1   7
BRANCH   4  13
ATOM     13  N   UNL     1      -9.814  -1.227  -9.443  1.00  0.00    -0.362 N 
ATOM     14  H   UNL     1      -9.798  -0.572  -8.672  1.00  0.00     0.166 HD
BRANCH  13  15
ATOM     15  C   UNL     1      -9.223  -2.446  -9.242  1.00  0.00     0.083 C 
BRANCH  15  16
ATOM     16  C   UNL     1      -8.692  -2.955  -8.122  1.00  0.00     0.027 C 
BRANCH  16  17
ATOM     17  C   UNL     1      -7.235  -3.020  -7.931  1.00  0.00    -0.003 A 
ATOM     18  C   UNL     1      -6.597  -2.473  -6.805  1.00  0.00    -0.041 A 
ATOM     19  C   UNL     1      -6.408  -3.609  -8.900  1.00  0.00     0.119 A 
ATOM     20  C   UNL     1      -5.200  -2.559  -6.713  1.00  0.00     0.024 A 
ATOM     21  N   UNL     1      -5.061  -3.716  -8.819  1.00  0.00    -0.264 NA
ATOM     22  C   UNL     1      -4.489  -3.189  -7.722  1.00  0.00     0.111 A 
ATOM     23  C   UNL     1      -7.354  -1.766  -5.715  1.00  0.00     0.045 C 
ENDBRANCH  16  17
ENDBRANCH  15  16
ENDBRANCH  13  15
ENDBRANCH   4  13
TORSDOF 8
ENDMDL
MODEL 8
REMARK VINA RESULT:    -4.937      1.246      1.820
REMARK INTER + INTRA:          -7.754
REMARK INTER:                  -7.075
REMARK INTRA:                  -0.679
REMARK UNBOUND:                -0.652
REMARK SMILES Cc1ccncc1/C=C/Nc1ccc(CCCN)cc1
REMARK SMILES IDX 14 1 13 2 12 3 11 4 20 5 19 6 15 7 16 8 17 9 18 10 10 13
REMARK SMILES IDX 9 15 8 16 7 17 2 18 6 19 3 20 5 21 4 22 1 23
REMARK H PARENT 18 11 18 12 10 14
ROOT
ATOM      1  C   UNL     1     -10.596   0.027 -13.094  1.00  0.00    -0.048 A 
ATOM      2  C   UNL     1      -9.321   0.228 -12.560  1.00  0.00     0.006 A 
ATOM      3  C   UNL     1      -9.001  -0.241 -11.289  1.00  0.00     0.026 A 
ATOM      4  C   UNL     1      -9.955  -0.855 -10.474  1.00  0.00     0.038 A 
ATOM      5  C   UNL     1     -11.249  -1.006 -10.986  1.00  0.00     0.026 A 
ATOM      6  C   UNL     1     -11.567  -0.570 -12.281  1.00  0.00     0.006 A 
ENDROOT
BRANCH   1   7
ATOM      7  C   UNL     1     -10.924   0.439 -14.507  1.00  0.00     0.037 C 
BRANCH   7   8
ATOM      8  C   UNL     1      -9.765   0.415 -15.522  1.00  0.00     0.020 C 
BRANCH   8   9
ATOM      9  C   UNL     1      -9.741  -0.779 -16.488  1.00  0.00     0.078 C 
BRANCH   9  10
ATOM     10  N   UNL     1      -9.505  -2.072 -15.862  1.00  0.00    -0.330 NA
ATOM     11  H   UNL     1      -9.243  -1.945 -14.886  1.00  0.00     0.118 HD
ATOM     12  H   UNL     1      -8.708  -2.535 -16.300  1.00  0.00     0.118 HD
ENDBRANCH   9  10
ENDBRANCH   8   9
ENDBRANCH   7   8
ENDBRANCH   1   7
BRANCH   4  13
ATOM     13  N   UNL     1      -9.672  -1.223  -9.145  1.00  0.00    -0.362 N 
ATOM     14  H   UNL     1      -9.619  -0.473  -8.467  1.00  0.00     0.166 HD
BRANCH  13  15
ATOM     15  C   UNL     1      -9.217  -2.455  -8.754  1.00  0.00     0.083 C 
BRANCH  15  16
ATOM     16  C   UNL     1      -8.039  -2.787  -8.209  1.00  0.00     0.027 C 
BRANCH  16  17
ATOM     17  C   UNL     1      -7.631  -2.260  -6.898  1.00  0.00    -0.003 A 
ATOM     18  C   UNL     1      -6.291  -2.255  -6.471  1.00  0.00    -0.041 A 
ATOM     19  C   UNL     1      -8.583  -1.770  -5.991  1.00  0.00     0.119 A 
ATOM     20  C   UNL     1      -5.992  -1.755  -5.194  1.00  0.00     0.024 A 
ATOM     21  N   UNL     1      -8.310  -1.268  -4.764  1.00  0.00    -0.264 NA
ATOM     22  C   UNL     1      -7.017  -1.271  -4.396  1.00  0.00     0.111 A 
ATOM     23  C   UNL     1      -5.175  -2.799  -7.317  1.00  0.00     0.045 C 
ENDBRANCH  16  17
ENDBRANCH  15  16
ENDBRANCH  13  15
ENDBRANCH   4  13
TORSDOF 8
ENDMDL
MODEL 9
REMARK VINA RESULT:    -4.871      5.455      7.228
REMARK INTER + INTRA:          -7.658
REMARK INTER:                  -7.140
REMARK INTRA:                  -0.518
REMARK UNBOUND:                -0.652
REMARK SMILES Cc1ccncc1/C=C/Nc1ccc(CCCN)cc1
REMARK SMILES IDX 14 1 13 2 12 3 11 4 20 5 19 6 15 7 16 8 17 9 18 10 10 13
REMARK SMILES IDX 9 15 8 16 7 17 2 18 6 19 3 20 5 21 4 22 1 23
REMARK H PARENT 18 11 18 12 10 14
ROOT
ATOM      1  C   UNL     1     -12.559  -7.756  -8.924  1.00  0.00    -0.048 A 
ATOM      2  C   UNL     1     -12.006  -7.250 -10.102  1.00  0.00     0.006 A 
ATOM      3  C   UNL     1     -10.852  -6.473 -10.068  1.00  0.00     0.026 A 
ATOM      4  C   UNL     1     -10.252  -6.106  -8.861  1.00  0.00     0.038 A 
ATOM      5  C   UNL     1     -10.839  -6.565  -7.676  1.00  0.00     0.026 A 
ATOM      6  C   UNL     1     -11.980  -7.381  -7.706  1.00  0.00     0.006 A 
ENDROOT
BRANCH   1   7
ATOM      7  C   UNL     1     -13.749  -8.682  -8.956  1.00  0.00     0.037 C 
BRANCH   7   8
ATOM      8  C   UNL     1     -13.921  -9.630  -7.753  1.00  0.00     0.020 C 
BRANCH   8   9
ATOM      9  C   UNL     1     -13.862 -11.132  -8.066  1.00  0.00     0.078 C 
BRANCH   9  10
ATOM     10  N   UNL     1     -12.833 -11.871  -7.348  1.00  0.00    -0.330 NA
ATOM     11  H   UNL     1     -13.258 -12.620  -6.803  1.00  0.00     0.118 HD
ATOM     12  H   UNL     1     -12.375 -11.264  -6.668  1.00  0.00     0.118 HD
ENDBRANCH   9  10
ENDBRANCH   8   9
ENDBRANCH   7   8
ENDBRANCH   1   7
BRANCH   4  13
ATOM     13  N   UNL     1      -9.156  -5.223  -8.813  1.00  0.00    -0.362 N 
ATOM     14  H   UNL     1      -8.244  -5.638  -8.669  1.00  0.00     0.166 HD
BRANCH  13  15
ATOM     15  C   UNL     1      -9.252  -3.862  -8.687  1.00  0.00     0.083 C 
BRANCH  15  16
ATOM     16  C   UNL     1      -8.662  -3.051  -7.800  1.00  0.00     0.027 C 
BRANCH  16  17
ATOM     17  C   UNL     1      -7.198  -3.007  -7.664  1.00  0.00    -0.003 A 
ATOM     18  C   UNL     1      -6.561  -2.403  -6.565  1.00  0.00    -0.041 A 
ATOM     19  C   UNL     1      -6.367  -3.542  -8.659  1.00  0.00     0.119 A 
ATOM     20  C   UNL     1      -5.158  -2.385  -6.527  1.00  0.00     0.024 A 
ATOM     21  N   UNL     1      -5.013  -3.548  -8.629  1.00  0.00    -0.264 NA
ATOM     22  C   UNL     1      -4.441  -2.970  -7.558  1.00  0.00     0.111 A 
ATOM     23  C   UNL     1      -7.327  -1.744  -5.453  1.00  0.00     0.045 C 
ENDBRANCH  16  17
ENDBRANCH  15  16
ENDBRANCH  13  15
ENDBRANCH   4  13
TORSDOF 8
ENDMDL
