MODEL 1
REMARK VINA RESULT:    -5.103      0.000      0.000
REMARK INTER + INTRA:          -8.087
REMARK INTER:                  -7.341
REMARK INTRA:                  -0.746
REMARK UNBOUND:                -0.746
REMARK SMILES Cc1ccncc1/C=C/Nc1ccc(CCCN)cc1
REMARK SMILES IDX 14 1 13 2 12 3 11 4 20 5 19 6 15 7 16 8 17 9 18 10 10 13
REMARK SMILES IDX 9 15 8 16 7 17 2 18 6 19 3 20 5 21 4 22 1 23
REMARK H PARENT 18 11 18 12 10 14
ROOT
ATOM      1  C   UNL     1      -6.408  -8.920 -12.508  1.00  0.00    -0.048 A 
ATOM      2  C   UNL     1      -7.684  -8.357 -12.426  1.00  0.00     0.006 A 
ATOM      3  C   UNL     1      -7.938  -7.297 -11.560  1.00  0.00     0.026 A 
ATOM      4  C   UNL     1      -6.958  -6.811 -10.691  1.00  0.00     0.038 A 
ATOM      5  C   UNL     1      -5.695  -7.412 -10.732  1.00  0.00     0.026 A 
ATOM      6  C   UNL     1      -5.422  -8.455 -11.630  1.00  0.00     0.006 A 
ENDROOT
BRANCH   1   7
ATOM      7  C   UNL     1      -6.095  -9.999 -13.514  1.00  0.00     0.037 C 
BRANCH   7   8
ATOM      8  C   UNL     1      -5.395 -11.263 -12.977  1.00  0.00     0.020 C 
BRANCH   8   9
ATOM      9  C   UNL     1      -6.315 -12.436 -12.607  1.00  0.00     0.078 C 
BRANCH   9  10
ATOM     10  N   UNL     1      -6.792 -12.434 -11.231  1.00  0.00    -0.330 NA
ATOM     11  H   UNL     1      -7.735 -12.817 -11.189  1.00  0.00     0.118 HD
ATOM     12  H   UNL     1      -6.869 -11.476 -10.888  1.00  0.00     0.118 HD
ENDBRANCH   9  10
ENDBRANCH   8   9
ENDBRANCH   7   8
ENDBRANCH   1   7
BRANCH   4  13
ATOM     13  N   UNL     1      -7.241  -5.821  -9.730  1.00  0.00    -0.362 N 
ATOM     14  H   UNL     1      -7.183  -4.859 -10.038  1.00  0.00     0.166 HD
BRANCH  13  15
ATOM     15  C   UNL     1      -7.330  -6.043  -8.381  1.00  0.00     0.083 C 
BRANCH  15  16
ATOM     16  C   UNL     1      -7.182  -5.177  -7.370  1.00  0.00     0.027 C 
BRANCH  16  17
ATOM     17  C   UNL     1      -6.068  -5.301  -6.418  1.00  0.00    -0.003 A 
ATOM     18  C   UNL     1      -5.320  -4.192  -5.983  1.00  0.00    -0.041 A 
ATOM     19  C   UNL     1      -5.677  -6.556  -5.927  1.00  0.00     0.119 A 
ATOM     20  C   UNL     1      -4.258  -4.403  -5.092  1.00  0.00     0.024 A 
ATOM     21  N   UNL     1      -4.666  -6.775  -5.054  1.00  0.00    -0.264 NA
ATOM     22  C   UNL     1      -3.981  -5.689  -4.654  1.00  0.00     0.111 A 
ATOM     23  C   UNL     1      -5.594  -2.797  -6.469  1.00  0.00     0.045 C 
ENDBRANCH  16  17
ENDBRANCH  15  16
ENDBRANCH  13  15
ENDBRANCH   4  13
TORSDOF 8
ENDMDL
MODEL 2
REMARK VINA RESULT:    -4.953      1.352      2.052
REMARK INTER + INTRA:          -7.870
REMARK INTER:                  -7.213
REMARK INTRA:                  -0.657
REMARK UNBOUND:                -0.746
REMARK SMILES Cc1ccncc1/C=C/Nc1ccc(CCCN)cc1
REMARK SMILES IDX 14 1 13 2 12 3 11 4 20 5 19 6 15 7 16 8 17 9 18 10 10 13
REMARK SMILES IDX 9 15 8 16 7 17 2 18 6 19 3 20 5 21 4 22 1 23
REMARK H PARENT 18 11 18 12 10 14
ROOT
ATOM      1  C   UNL     1      -6.622  -8.963 -12.648  1.00  0.00    -0.048 A 
ATOM      2  C   UNL     1      -7.837  -8.313 -12.426  1.00  0.00     0.006 A 
ATOM      3  C   UNL     1      -7.924  -7.263 -11.516  1.00  0.00     0.026 A 
ATOM      4  C   UNL     1      -6.830  -6.874 -10.740  1.00  0.00     0.038 A 
ATOM      5  C   UNL     1      -5.625  -7.563 -10.921  1.00  0.00     0.026 A 
ATOM      6  C   UNL     1      -5.521  -8.597 -11.864  1.00  0.00     0.006 A 
ENDROOT
BRANCH   1   7
ATOM      7  C   UNL     1      -6.491 -10.034 -13.703  1.00  0.00     0.037 C 
BRANCH   7   8
ATOM      8  C   UNL     1      -5.618 -11.252 -13.348  1.00  0.00     0.020 C 
BRANCH   8   9
ATOM      9  C   UNL     1      -6.344 -12.431 -12.684  1.00  0.00     0.078 C 
BRANCH   9  10
ATOM     10  N   UNL     1      -6.538 -12.304 -11.247  1.00  0.00    -0.330 NA
ATOM     11  H   UNL     1      -5.684 -12.566 -10.755  1.00  0.00     0.118 HD
ATOM     12  H   UNL     1      -7.250 -12.962 -10.928  1.00  0.00     0.118 HD
ENDBRANCH   9  10
ENDBRANCH   8   9
ENDBRANCH   7   8
ENDBRANCH   1   7
BRANCH   4  13
ATOM     13  N   UNL     1      -6.941  -5.894  -9.735  1.00  0.00    -0.362 N 
ATOM     14  H   UNL     1      -6.495  -5.003  -9.917  1.00  0.00     0.166 HD
BRANCH  13  15
ATOM     15  C   UNL     1      -7.369  -6.131  -8.455  1.00  0.00     0.083 C 
BRANCH  15  16
ATOM     16  C   UNL     1      -6.794  -5.788  -7.294  1.00  0.00     0.027 C 
BRANCH  16  17
ATOM     17  C   UNL     1      -6.347  -4.410  -7.043  1.00  0.00    -0.003 A 
ATOM     18  C   UNL     1      -5.310  -4.105  -6.143  1.00  0.00    -0.041 A 
ATOM     19  C   UNL     1      -6.974  -3.324  -7.673  1.00  0.00     0.119 A 
ATOM     20  C   UNL     1      -4.964  -2.760  -5.945  1.00  0.00     0.024 A 
ATOM     21  N   UNL     1      -6.641  -2.023  -7.507  1.00  0.00    -0.264 NA
ATOM     22  C   UNL     1      -5.638  -1.773  -6.646  1.00  0.00     0.111 A 
ATOM     23  C   UNL     1      -4.588  -5.165  -5.360  1.00  0.00     0.045 C 
ENDBRANCH  16  17
ENDBRANCH  15  16
ENDBRANCH  13  15
ENDBRANCH   4  13
TORSDOF 8
ENDMDL
MODEL 3
REMARK VINA RESULT:    -4.883      2.019      8.498
REMARK INTER + INTRA:          -7.770
REMARK INTER:                  -7.199
REMARK INTRA:                  -0.571
REMARK UNBOUND:                -0.746
REMARK SMILES Cc1ccncc1/C=C/Nc1ccc(CCCN)cc1
REMARK SMILES IDX 14 1 13 2 12 3 11 4 20 5 19 6 15 7 16 8 17 9 18 10 10 13
REMARK SMILES IDX 9 15 8 16 7 17 2 18 6 19 3 20 5 21 4 22 1 23
REMARK H PARENT 18 11 18 12 10 14
ROOT
ATOM      1  C   UNL     1      -5.654  -4.051  -5.700  1.00  0.00    -0.048 A 
ATOM      2  C   UNL     1      -6.229  -3.454  -6.824  1.00  0.00     0.006 A 
ATOM      3  C   UNL     1      -6.836  -4.229  -7.808  1.00  0.00     0.026 A 
ATOM      4  C   UNL     1      -6.825  -5.625  -7.750  1.00  0.00     0.038 A 
ATOM      5  C   UNL     1      -6.198  -6.227  -6.653  1.00  0.00     0.026 A 
ATOM      6  C   UNL     1      -5.618  -5.449  -5.639  1.00  0.00     0.006 A 
ENDROOT
BRANCH   1   7
ATOM      7  C   UNL     1      -5.083  -3.218  -4.580  1.00  0.00     0.037 C 
BRANCH   7   8
ATOM      8  C   UNL     1      -3.848  -3.787  -3.855  1.00  0.00     0.020 C 
BRANCH   8   9
ATOM      9  C   UNL     1      -4.012  -4.047  -2.350  1.00  0.00     0.078 C 
BRANCH   9  10
ATOM     10  N   UNL     1      -3.769  -2.893  -1.496  1.00  0.00    -0.330 NA
ATOM     11  H   UNL     1      -2.798  -2.889  -1.184  1.00  0.00     0.118 HD
ATOM     12  H   UNL     1      -4.328  -2.961  -0.645  1.00  0.00     0.118 HD
ENDBRANCH   9  10
ENDBRANCH   8   9
ENDBRANCH   7   8
ENDBRANCH   1   7
BRANCH   4  13
ATOM     13  N   UNL     1      -7.331  -6.417  -8.799  1.00  0.00    -0.362 N 
ATOM     14  H   UNL     1      -7.792  -7.279  -8.535  1.00  0.00     0.166 HD
BRANCH  13  15
ATOM     15  C   UNL     1      -7.027  -6.248 -10.124  1.00  0.00     0.083 C 
BRANCH  15  16
ATOM     16  C   UNL     1      -6.585  -7.148 -11.012  1.00  0.00     0.027 C 
BRANCH  16  17
ATOM     17  C   UNL     1      -7.521  -7.938 -11.827  1.00  0.00    -0.003 A 
ATOM     18  C   UNL     1      -7.086  -8.911 -12.745  1.00  0.00    -0.041 A 
ATOM     19  C   UNL     1      -8.905  -7.722 -11.746  1.00  0.00     0.119 A 
ATOM     20  C   UNL     1      -8.046  -9.602 -13.499  1.00  0.00     0.024 A 
ATOM     21  N   UNL     1      -9.845  -8.391 -12.454  1.00  0.00    -0.264 NA
ATOM     22  C   UNL     1      -9.390  -9.320 -13.313  1.00  0.00     0.111 A 
ATOM     23  C   UNL     1      -5.630  -9.208 -12.973  1.00  0.00     0.045 C 
ENDBRANCH  16  17
ENDBRANCH  15  16
ENDBRANCH  13  15
ENDBRANCH   4  13
TORSDOF 8
ENDMDL
MODEL 4
REMARK VINA RESULT:    -4.831      2.312      8.408
REMARK INTER + INTRA:          -7.695
REMARK INTER:                  -7.105
REMARK INTRA:                  -0.590
REMARK UNBOUND:                -0.746
REMARK SMILES Cc1ccncc1/C=C/Nc1ccc(CCCN)cc1
REMARK SMILES IDX 14 1 13 2 12 3 11 4 20 5 19 6 15 7 16 8 17 9 18 10 10 13
REMARK SMILES IDX 9 15 8 16 7 17 2 18 6 19 3 20 5 21 4 22 1 23
REMARK H PARENT 18 11 18 12 10 14
ROOT
ATOM      1  C   UNL     1      -5.668  -3.238  -6.180  1.00  0.00    -0.048 A 
ATOM      2  C   UNL     1      -6.475  -2.827  -7.242  1.00  0.00     0.006 A 
ATOM      3  C   UNL     1      -7.152  -3.760  -8.022  1.00  0.00     0.026 A 
ATOM      4  C   UNL     1      -6.992  -5.134  -7.825  1.00  0.00     0.038 A 
ATOM      5  C   UNL     1      -6.138  -5.548  -6.796  1.00  0.00     0.026 A 
ATOM      6  C   UNL     1      -5.483  -4.612  -5.982  1.00  0.00     0.006 A 
ENDROOT
BRANCH   1   7
ATOM      7  C   UNL     1      -5.010  -2.235  -5.266  1.00  0.00     0.037 C 
BRANCH   7   8
ATOM      8  C   UNL     1      -3.506  -1.981  -5.486  1.00  0.00     0.020 C 
BRANCH   8   9
ATOM      9  C   UNL     1      -3.109  -1.441  -6.868  1.00  0.00     0.078 C 
BRANCH   9  10
ATOM     10  N   UNL     1      -3.049   0.010  -6.968  1.00  0.00    -0.330 NA
ATOM     11  H   UNL     1      -2.100   0.333  -6.784  1.00  0.00     0.118 HD
ATOM     12  H   UNL     1      -3.627   0.437  -6.243  1.00  0.00     0.118 HD
ENDBRANCH   9  10
ENDBRANCH   8   9
ENDBRANCH   7   8
ENDBRANCH   1   7
BRANCH   4  13
ATOM     13  N   UNL     1      -7.579  -6.083  -8.683  1.00  0.00    -0.362 N 
ATOM     14  H   UNL     1      -8.534  -6.350  -8.480  1.00  0.00     0.166 HD
BRANCH  13  15
ATOM     15  C   UNL     1      -6.894  -6.846  -9.592  1.00  0.00     0.083 C 
BRANCH  15  16
ATOM     16  C   UNL     1      -6.916  -6.791 -10.930  1.00  0.00     0.027 C 
BRANCH  16  17
ATOM     17  C   UNL     1      -7.738  -7.723 -11.717  1.00  0.00    -0.003 A 
ATOM     18  C   UNL     1      -7.176  -8.720 -12.533  1.00  0.00    -0.041 A 
ATOM     19  C   UNL     1      -9.138  -7.628 -11.712  1.00  0.00     0.119 A 
ATOM     20  C   UNL     1      -8.033  -9.551 -13.269  1.00  0.00     0.024 A 
ATOM     21  N   UNL     1      -9.980  -8.433 -12.402  1.00  0.00    -0.264 NA
ATOM     22  C   UNL     1      -9.404  -9.380 -13.163  1.00  0.00     0.111 A 
ATOM     23  C   UNL     1      -5.690  -8.900 -12.675  1.00  0.00     0.045 C 
ENDBRANCH  16  17
ENDBRANCH  15  16
ENDBRANCH  13  15
ENDBRANCH   4  13
TORSDOF 8
ENDMDL
MODEL 5
REMARK VINA RESULT:    -4.806      2.209      8.313
REMARK INTER + INTRA:          -7.659
REMARK INTER:                  -7.068
REMARK INTRA:                  -0.591
REMARK UNBOUND:                -0.746
REMARK SMILES Cc1ccncc1/C=C/Nc1ccc(CCCN)cc1
REMARK SMILES IDX 14 1 13 2 12 3 11 4 20 5 19 6 15 7 16 8 17 9 18 10 10 13
REMARK SMILES IDX 9 15 8 16 7 17 2 18 6 19 3 20 5 21 4 22 1 23
REMARK H PARENT 18 11 18 12 10 14
ROOT
ATOM      1  C   UNL     1      -5.606  -3.245  -6.050  1.00  0.00    -0.048 A 
ATOM      2  C   UNL     1      -6.405  -2.892  -7.140  1.00  0.00     0.006 A 
ATOM      3  C   UNL     1      -7.079  -3.865  -7.871  1.00  0.00     0.026 A 
ATOM      4  C   UNL     1      -6.924  -5.226  -7.597  1.00  0.00     0.038 A 
ATOM      5  C   UNL     1      -6.079  -5.585  -6.540  1.00  0.00     0.026 A 
ATOM      6  C   UNL     1      -5.426  -4.606  -5.775  1.00  0.00     0.006 A 
ENDROOT
BRANCH   1   7
ATOM      7  C   UNL     1      -4.951  -2.194  -5.189  1.00  0.00     0.037 C 
BRANCH   7   8
ATOM      8  C   UNL     1      -3.438  -1.980  -5.389  1.00  0.00     0.020 C 
BRANCH   8   9
ATOM      9  C   UNL     1      -3.011  -1.439  -6.762  1.00  0.00     0.078 C 
BRANCH   9  10
ATOM     10  N   UNL     1      -3.070   0.009  -6.898  1.00  0.00    -0.330 NA
ATOM     11  H   UNL     1      -2.293   0.439  -6.398  1.00  0.00     0.118 HD
ATOM     12  H   UNL     1      -3.914   0.370  -6.454  1.00  0.00     0.118 HD
ENDBRANCH   9  10
ENDBRANCH   8   9
ENDBRANCH   7   8
ENDBRANCH   1   7
BRANCH   4  13
ATOM     13  N   UNL     1      -7.508  -6.219  -8.405  1.00  0.00    -0.362 N 
ATOM     14  H   UNL     1      -8.351  -6.655  -8.052  1.00  0.00     0.166 HD
BRANCH  13  15
ATOM     15  C   UNL     1      -6.900  -6.811  -9.481  1.00  0.00     0.083 C 
BRANCH  15  16
ATOM     16  C   UNL     1      -7.173  -6.678 -10.786  1.00  0.00     0.027 C 
BRANCH  16  17
ATOM     17  C   UNL     1      -7.001  -7.803 -11.718  1.00  0.00    -0.003 A 
ATOM     18  C   UNL     1      -8.087  -8.420 -12.364  1.00  0.00    -0.041 A 
ATOM     19  C   UNL     1      -5.730  -8.337 -11.974  1.00  0.00     0.119 A 
ATOM     20  C   UNL     1      -7.836  -9.502 -13.220  1.00  0.00     0.024 A 
ATOM     21  N   UNL     1      -5.468  -9.369 -12.810  1.00  0.00    -0.264 NA
ATOM     22  C   UNL     1      -6.531  -9.926 -13.416  1.00  0.00     0.111 A 
ATOM     23  C   UNL     1      -9.509  -7.985 -12.141  1.00  0.00     0.045 C 
ENDBRANCH  16  17
ENDBRANCH  15  16
ENDBRANCH  13  15
ENDBRANCH   4  13
TORSDOF 8
ENDMDL
MODEL 6
REMARK VINA RESULT:    -4.735      1.810      8.372
REMARK INTER + INTRA:          -7.557
REMARK INTER:                  -7.019
REMARK INTRA:                  -0.538
REMARK UNBOUND:                -0.746
REMARK SMILES Cc1ccncc1/C=C/Nc1ccc(CCCN)cc1
REMARK SMILES IDX 14 1 13 2 12 3 11 4 20 5 19 6 15 7 16 8 17 9 18 10 10 13
REMARK SMILES IDX 9 15 8 16 7 17 2 18 6 19 3 20 5 21 4 22 1 23
REMARK H PARENT 18 11 18 12 10 14
ROOT
ATOM      1  C   UNL     1      -5.690  -4.339  -5.756  1.00  0.00    -0.048 A 
ATOM      2  C   UNL     1      -6.293  -3.684  -6.831  1.00  0.00     0.006 A 
ATOM      3  C   UNL     1      -6.982  -4.402  -7.805  1.00  0.00     0.026 A 
ATOM      4  C   UNL     1      -7.030  -5.798  -7.788  1.00  0.00     0.038 A 
ATOM      5  C   UNL     1      -6.378  -6.460  -6.741  1.00  0.00     0.026 A 
ATOM      6  C   UNL     1      -5.714  -5.739  -5.736  1.00  0.00     0.006 A 
ENDROOT
BRANCH   1   7
ATOM      7  C   UNL     1      -5.029  -3.566  -4.642  1.00  0.00     0.037 C 
BRANCH   7   8
ATOM      8  C   UNL     1      -3.980  -4.322  -3.803  1.00  0.00     0.020 C 
BRANCH   8   9
ATOM      9  C   UNL     1      -4.077  -4.140  -2.281  1.00  0.00     0.078 C 
BRANCH   9  10
ATOM     10  N   UNL     1      -3.780  -2.798  -1.802  1.00  0.00    -0.330 NA
ATOM     11  H   UNL     1      -3.390  -2.236  -2.558  1.00  0.00     0.118 HD
ATOM     12  H   UNL     1      -3.054  -2.833  -1.086  1.00  0.00     0.118 HD
ENDBRANCH   9  10
ENDBRANCH   8   9
ENDBRANCH   7   8
ENDBRANCH   1   7
BRANCH   4  13
ATOM     13  N   UNL     1      -7.622  -6.535  -8.831  1.00  0.00    -0.362 N 
ATOM     14  H   UNL     1      -8.439  -7.083  -8.593  1.00  0.00     0.166 HD
BRANCH  13  15
ATOM     15  C   UNL     1      -7.043  -6.769 -10.050  1.00  0.00     0.083 C 
BRANCH  15  16
ATOM     16  C   UNL     1      -7.625  -7.062 -11.221  1.00  0.00     0.027 C 
BRANCH  16  17
ATOM     17  C   UNL     1      -7.163  -8.193 -12.040  1.00  0.00    -0.003 A 
ATOM     18  C   UNL     1      -8.044  -8.985 -12.797  1.00  0.00    -0.041 A 
ATOM     19  C   UNL     1      -5.808  -8.554 -12.069  1.00  0.00     0.119 A 
ATOM     20  C   UNL     1      -7.521 -10.061 -13.531  1.00  0.00     0.024 A 
ATOM     21  N   UNL     1      -5.284  -9.576 -12.785  1.00  0.00    -0.264 NA
ATOM     22  C   UNL     1      -6.157 -10.305 -13.504  1.00  0.00     0.111 A 
ATOM     23  C   UNL     1      -9.527  -8.745 -12.816  1.00  0.00     0.045 C 
ENDBRANCH  16  17
ENDBRANCH  15  16
ENDBRANCH  13  15
ENDBRANCH   4  13
TORSDOF 8
ENDMDL
MODEL 7
REMARK VINA RESULT:    -4.407      2.010      2.782
REMARK INTER + INTRA:          -7.086
REMARK INTER:                  -6.560
REMARK INTRA:                  -0.525
REMARK UNBOUND:                -0.746
REMARK SMILES Cc1ccncc1/C=C/Nc1ccc(CCCN)cc1
REMARK SMILES IDX 14 1 13 2 12 3 11 4 20 5 19 6 15 7 16 8 17 9 18 10 10 13
REMARK SMILES IDX 9 15 8 16 7 17 2 18 6 19 3 20 5 21 4 22 1 23
REMARK H PARENT 18 11 18 12 10 14
ROOT
ATOM      1  C   UNL     1      -6.870  -8.337 -12.276  1.00  0.00    -0.048 A 
ATOM      2  C   UNL     1      -5.686  -7.998 -11.619  1.00  0.00     0.006 A 
ATOM      3  C   UNL     1      -5.710  -7.195 -10.482  1.00  0.00     0.026 A 
ATOM      4  C   UNL     1      -6.898  -6.637 -10.004  1.00  0.00     0.038 A 
ATOM      5  C   UNL     1      -8.079  -6.929 -10.696  1.00  0.00     0.026 A 
ATOM      6  C   UNL     1      -8.067  -7.769 -11.820  1.00  0.00     0.006 A 
ENDROOT
BRANCH   1   7
ATOM      7  C   UNL     1      -6.869  -9.287 -13.448  1.00  0.00     0.037 C 
BRANCH   7   8
ATOM      8  C   UNL     1      -5.550 -10.032 -13.732  1.00  0.00     0.020 C 
BRANCH   8   9
ATOM      9  C   UNL     1      -5.317 -10.457 -15.189  1.00  0.00     0.078 C 
BRANCH   9  10
ATOM     10  N   UNL     1      -4.571  -9.503 -15.996  1.00  0.00    -0.330 NA
ATOM     11  H   UNL     1      -4.945  -8.565 -15.863  1.00  0.00     0.118 HD
ATOM     12  H   UNL     1      -4.695  -9.708 -16.988  1.00  0.00     0.118 HD
ENDBRANCH   9  10
ENDBRANCH   8   9
ENDBRANCH   7   8
ENDBRANCH   1   7
BRANCH   4  13
ATOM     13  N   UNL     1      -6.914  -5.729  -8.928  1.00  0.00    -0.362 N 
ATOM     14  H   UNL     1      -7.054  -4.754  -9.158  1.00  0.00     0.166 HD
BRANCH  13  15
ATOM     15  C   UNL     1      -6.506  -6.020  -7.653  1.00  0.00     0.083 C 
BRANCH  15  16
ATOM     16  C   UNL     1      -6.542  -5.250  -6.557  1.00  0.00     0.027 C 
BRANCH  16  17
ATOM     17  C   UNL     1      -5.587  -4.147  -6.370  1.00  0.00    -0.003 A 
ATOM     18  C   UNL     1      -4.421  -4.282  -5.595  1.00  0.00    -0.041 A 
ATOM     19  C   UNL     1      -5.826  -2.885  -6.934  1.00  0.00     0.119 A 
ATOM     20  C   UNL     1      -3.577  -3.170  -5.449  1.00  0.00     0.024 A 
ATOM     21  N   UNL     1      -5.014  -1.808  -6.818  1.00  0.00    -0.264 NA
ATOM     22  C   UNL     1      -3.904  -1.980  -6.078  1.00  0.00     0.111 A 
ATOM     23  C   UNL     1      -4.068  -5.560  -4.889  1.00  0.00     0.045 C 
ENDBRANCH  16  17
ENDBRANCH  15  16
ENDBRANCH  13  15
ENDBRANCH   4  13
TORSDOF 8
ENDMDL
MODEL 8
REMARK VINA RESULT:    -4.338      2.167      3.975
REMARK INTER + INTRA:          -6.986
REMARK INTER:                  -6.086
REMARK INTRA:                  -0.900
REMARK UNBOUND:                -0.746
REMARK SMILES Cc1ccncc1/C=C/Nc1ccc(CCCN)cc1
REMARK SMILES IDX 14 1 13 2 12 3 11 4 20 5 19 6 15 7 16 8 17 9 18 10 10 13
REMARK SMILES IDX 9 15 8 16 7 17 2 18 6 19 3 20 5 21 4 22 1 23
REMARK H PARENT 18 11 18 12 10 14
ROOT
ATOM      1  C   UNL     1      -7.163  -6.564  -9.698  1.00  0.00    -0.048 A 
ATOM      2  C   UNL     1      -6.097  -5.743  -9.325  1.00  0.00     0.006 A 
ATOM      3  C   UNL     1      -6.000  -5.249  -8.027  1.00  0.00     0.026 A 
ATOM      4  C   UNL     1      -6.997  -5.487  -7.078  1.00  0.00     0.038 A 
ATOM      5  C   UNL     1      -8.096  -6.263  -7.467  1.00  0.00     0.026 A 
ATOM      6  C   UNL     1      -8.179  -6.795  -8.763  1.00  0.00     0.006 A 
ENDROOT
BRANCH   1   7
ATOM      7  C   UNL     1      -7.226  -7.187 -11.070  1.00  0.00     0.037 C 
BRANCH   7   8
ATOM      8  C   UNL     1      -5.944  -7.877 -11.576  1.00  0.00     0.020 C 
BRANCH   8   9
ATOM      9  C   UNL     1      -6.149  -9.147 -12.414  1.00  0.00     0.078 C 
BRANCH   9  10
ATOM     10  N   UNL     1      -7.489  -9.714 -12.356  1.00  0.00    -0.330 NA
ATOM     11  H   UNL     1      -7.438 -10.708 -12.139  1.00  0.00     0.118 HD
ATOM     12  H   UNL     1      -7.935  -9.656 -13.271  1.00  0.00     0.118 HD
ENDBRANCH   9  10
ENDBRANCH   8   9
ENDBRANCH   7   8
ENDBRANCH   1   7
BRANCH   4  13
ATOM     13  N   UNL     1      -6.966  -4.893  -5.801  1.00  0.00    -0.362 N 
ATOM     14  H   UNL     1      -7.845  -4.539  -5.444  1.00  0.00     0.166 HD
BRANCH  13  15
ATOM     15  C   UNL     1      -5.826  -4.532  -5.134  1.00  0.00     0.083 C 
BRANCH  15  16
ATOM     16  C   UNL     1      -5.457  -3.327  -4.681  1.00  0.00     0.027 C 
BRANCH  16  17
ATOM     17  C   UNL     1      -4.436  -2.530  -5.379  1.00  0.00    -0.003 A 
ATOM     18  C   UNL     1      -4.740  -1.716  -6.484  1.00  0.00    -0.041 A 
ATOM     19  C   UNL     1      -3.090  -2.583  -4.986  1.00  0.00     0.119 A 
ATOM     20  C   UNL     1      -3.701  -1.008  -7.106  1.00  0.00     0.024 A 
ATOM     21  N   UNL     1      -2.078  -1.893  -5.563  1.00  0.00    -0.264 NA
ATOM     22  C   UNL     1      -2.411  -1.118  -6.611  1.00  0.00     0.111 A 
ATOM     23  C   UNL     1      -6.130  -1.608  -7.045  1.00  0.00     0.045 C 
ENDBRANCH  16  17
ENDBRANCH  15  16
ENDBRANCH  13  15
ENDBRANCH   4  13
TORSDOF 8
ENDMDL
MODEL 9
REMARK VINA RESULT:    -4.279      2.005      3.643
REMARK INTER + INTRA:          -6.901
REMARK INTER:                  -6.161
REMARK INTRA:                  -0.741
REMARK UNBOUND:                -0.746
REMARK SMILES Cc1ccncc1/C=C/Nc1ccc(CCCN)cc1
REMARK SMILES IDX 14 1 13 2 12 3 11 4 20 5 19 6 15 7 16 8 17 9 18 10 10 13
REMARK SMILES IDX 9 15 8 16 7 17 2 18 6 19 3 20 5 21 4 22 1 23
REMARK H PARENT 18 11 18 12 10 14
ROOT
ATOM      1  C   UNL     1      -7.483  -6.787  -9.934  1.00  0.00    -0.048 A 
ATOM      2  C   UNL     1      -8.309  -6.836  -8.810  1.00  0.00     0.006 A 
ATOM      3  C   UNL     1      -7.892  -6.296  -7.597  1.00  0.00     0.026 A 
ATOM      4  C   UNL     1      -6.612  -5.759  -7.436  1.00  0.00     0.038 A 
ATOM      5  C   UNL     1      -5.761  -5.760  -8.548  1.00  0.00     0.026 A 
ATOM      6  C   UNL     1      -6.191  -6.268  -9.783  1.00  0.00     0.006 A 
ENDROOT
BRANCH   1   7
ATOM      7  C   UNL     1      -7.962  -7.277 -11.278  1.00  0.00     0.037 C 
BRANCH   7   8
ATOM      8  C   UNL     1      -6.971  -8.126 -12.098  1.00  0.00     0.020 C 
BRANCH   8   9
ATOM      9  C   UNL     1      -7.596  -9.118 -13.090  1.00  0.00     0.078 C 
BRANCH   9  10
ATOM     10  N   UNL     1      -8.330 -10.218 -12.481  1.00  0.00    -0.330 NA
ATOM     11  H   UNL     1      -7.922 -10.450 -11.576  1.00  0.00     0.118 HD
ATOM     12  H   UNL     1      -8.236 -11.060 -13.048  1.00  0.00     0.118 HD
ENDBRANCH   9  10
ENDBRANCH   8   9
ENDBRANCH   7   8
ENDBRANCH   1   7
BRANCH   4  13
ATOM     13  N   UNL     1      -6.141  -5.320  -6.184  1.00  0.00    -0.362 N 
ATOM     14  H   UNL     1      -6.318  -4.353  -5.946  1.00  0.00     0.166 HD
BRANCH  13  15
ATOM     15  C   UNL     1      -5.259  -6.010  -5.395  1.00  0.00     0.083 C 
BRANCH  15  16
ATOM     16  C   UNL     1      -4.047  -5.640  -4.959  1.00  0.00     0.027 C 
BRANCH  16  17
ATOM     17  C   UNL     1      -3.570  -4.258  -5.117  1.00  0.00    -0.003 A 
ATOM     18  C   UNL     1      -3.574  -3.332  -4.059  1.00  0.00    -0.041 A 
ATOM     19  C   UNL     1      -3.119  -3.791  -6.361  1.00  0.00     0.119 A 
ATOM     20  C   UNL     1      -3.123  -2.027  -4.303  1.00  0.00     0.024 A 
ATOM     21  N   UNL     1      -2.664  -2.540  -6.610  1.00  0.00    -0.264 NA
ATOM     22  C   UNL     1      -2.674  -1.687  -5.570  1.00  0.00     0.111 A 
ATOM     23  C   UNL     1      -4.080  -3.681  -2.687  1.00  0.00     0.045 C 
ENDBRANCH  16  17
ENDBRANCH  15  16
ENDBRANCH  13  15
ENDBRANCH   4  13
TORSDOF 8
ENDMDL
