MODEL 1
REMARK VINA RESULT:    -5.309      0.000      0.000
REMARK INTER + INTRA:          -8.313
REMARK INTER:                  -7.637
REMARK INTRA:                  -0.676
REMARK UNBOUND:                -0.676
REMARK SMILES Cc1ccncc1/C=C/Nc1ccc(CCCN)cc1
REMARK SMILES IDX 14 1 13 2 12 3 11 4 20 5 19 6 15 7 16 8 17 9 18 10 10 13
REMARK SMILES IDX 9 15 8 16 7 17 2 18 6 19 3 20 5 21 4 22 1 23
REMARK H PARENT 18 11 18 12 10 14
ROOT
ATOM      1  C   UNL     1       5.926   0.397 -16.214  1.00  0.00    -0.048 A 
ATOM      2  C   UNL     1       5.039   0.188 -15.156  1.00  0.00     0.006 A 
ATOM      3  C   UNL     1       5.296   0.724 -13.897  1.00  0.00     0.026 A 
ATOM      4  C   UNL     1       6.477   1.417 -13.624  1.00  0.00     0.038 A 
ATOM      5  C   UNL     1       7.395   1.578 -14.669  1.00  0.00     0.026 A 
ATOM      6  C   UNL     1       7.123   1.074 -15.950  1.00  0.00     0.006 A 
ENDROOT
BRANCH   1   7
ATOM      7  C   UNL     1       5.611  -0.092 -17.605  1.00  0.00     0.037 C 
BRANCH   7   8
ATOM      8  C   UNL     1       5.576   0.971 -18.720  1.00  0.00     0.020 C 
BRANCH   8   9
ATOM      9  C   UNL     1       4.258   1.744 -18.874  1.00  0.00     0.078 C 
BRANCH   9  10
ATOM     10  N   UNL     1       4.367   3.186 -18.708  1.00  0.00    -0.330 NA
ATOM     11  H   UNL     1       5.279   3.507 -19.032  1.00  0.00     0.118 HD
ATOM     12  H   UNL     1       4.328   3.430 -17.718  1.00  0.00     0.118 HD
ENDBRANCH   9  10
ENDBRANCH   8   9
ENDBRANCH   7   8
ENDBRANCH   1   7
BRANCH   4  13
ATOM     13  N   UNL     1       6.799   1.858 -12.326  1.00  0.00    -0.362 N 
ATOM     14  H   UNL     1       7.567   1.388 -11.863  1.00  0.00     0.166 HD
BRANCH  13  15
ATOM     15  C   UNL     1       6.009   2.673 -11.558  1.00  0.00     0.083 C 
BRANCH  15  16
ATOM     16  C   UNL     1       5.960   2.791 -10.225  1.00  0.00     0.027 C 
BRANCH  16  17
ATOM     17  C   UNL     1       4.676   2.868  -9.513  1.00  0.00    -0.003 A 
ATOM     18  C   UNL     1       4.511   2.391  -8.200  1.00  0.00    -0.041 A 
ATOM     19  C   UNL     1       3.536   3.394 -10.140  1.00  0.00     0.119 A 
ATOM     20  C   UNL     1       3.244   2.482  -7.604  1.00  0.00     0.024 A 
ATOM     21  N   UNL     1       2.311   3.505  -9.574  1.00  0.00    -0.264 NA
ATOM     22  C   UNL     1       2.197   3.048  -8.314  1.00  0.00     0.111 A 
ATOM     23  C   UNL     1       5.633   1.755  -7.429  1.00  0.00     0.045 C 
ENDBRANCH  16  17
ENDBRANCH  15  16
ENDBRANCH  13  15
ENDBRANCH   4  13
TORSDOF 8
ENDMDL
MODEL 2
REMARK VINA RESULT:    -5.229      4.874      6.948
REMARK INTER + INTRA:          -8.199
REMARK INTER:                  -7.494
REMARK INTRA:                  -0.705
REMARK UNBOUND:                -0.676
REMARK SMILES Cc1ccncc1/C=C/Nc1ccc(CCCN)cc1
REMARK SMILES IDX 14 1 13 2 12 3 11 4 20 5 19 6 15 7 16 8 17 9 18 10 10 13
REMARK SMILES IDX 9 15 8 16 7 17 2 18 6 19 3 20 5 21 4 22 1 23
REMARK H PARENT 18 11 18 12 10 14
ROOT
ATOM      1  C   UNL     1       8.620   8.435 -12.121  1.00  0.00    -0.048 A 
ATOM      2  C   UNL     1       7.969   7.967 -13.264  1.00  0.00     0.006 A 
ATOM      3  C   UNL     1       7.003   6.969 -13.174  1.00  0.00     0.026 A 
ATOM      4  C   UNL     1       6.705   6.347 -11.959  1.00  0.00     0.038 A 
ATOM      5  C   UNL     1       7.398   6.776 -10.820  1.00  0.00     0.026 A 
ATOM      6  C   UNL     1       8.345   7.808 -10.900  1.00  0.00     0.006 A 
ENDROOT
BRANCH   1   7
ATOM      7  C   UNL     1       9.594   9.584 -12.193  1.00  0.00     0.037 C 
BRANCH   7   8
ATOM      8  C   UNL     1      11.048   9.286 -11.779  1.00  0.00     0.020 C 
BRANCH   8   9
ATOM      9  C   UNL     1      11.848   8.383 -12.731  1.00  0.00     0.078 C 
BRANCH   9  10
ATOM     10  N   UNL     1      11.955   6.992 -12.315  1.00  0.00    -0.330 NA
ATOM     11  H   UNL     1      12.264   6.417 -13.098  1.00  0.00     0.118 HD
ATOM     12  H   UNL     1      11.036   6.631 -12.056  1.00  0.00     0.118 HD
ENDBRANCH   9  10
ENDBRANCH   8   9
ENDBRANCH   7   8
ENDBRANCH   1   7
BRANCH   4  13
ATOM     13  N   UNL     1       5.817   5.257 -11.878  1.00  0.00    -0.362 N 
ATOM     14  H   UNL     1       5.028   5.267 -12.512  1.00  0.00     0.166 HD
BRANCH  13  15
ATOM     15  C   UNL     1       5.793   4.341 -10.860  1.00  0.00     0.083 C 
BRANCH  15  16
ATOM     16  C   UNL     1       4.782   3.569 -10.442  1.00  0.00     0.027 C 
BRANCH  16  17
ATOM     17  C   UNL     1       4.901   2.751  -9.225  1.00  0.00    -0.003 A 
ATOM     18  C   UNL     1       3.794   2.437  -8.416  1.00  0.00    -0.041 A 
ATOM     19  C   UNL     1       6.149   2.276  -8.797  1.00  0.00     0.119 A 
ATOM     20  C   UNL     1       4.001   1.671  -7.259  1.00  0.00     0.024 A 
ATOM     21  N   UNL     1       6.364   1.521  -7.694  1.00  0.00    -0.264 NA
ATOM     22  C   UNL     1       5.280   1.234  -6.951  1.00  0.00     0.111 A 
ATOM     23  C   UNL     1       2.407   2.925  -8.725  1.00  0.00     0.045 C 
ENDBRANCH  16  17
ENDBRANCH  15  16
ENDBRANCH  13  15
ENDBRANCH   4  13
TORSDOF 8
ENDMDL
MODEL 3
REMARK VINA RESULT:    -5.152      1.358      2.200
REMARK INTER + INTRA:          -8.087
REMARK INTER:                  -7.436
REMARK INTRA:                  -0.651
REMARK UNBOUND:                -0.676
REMARK SMILES Cc1ccncc1/C=C/Nc1ccc(CCCN)cc1
REMARK SMILES IDX 14 1 13 2 12 3 11 4 20 5 19 6 15 7 16 8 17 9 18 10 10 13
REMARK SMILES IDX 9 15 8 16 7 17 2 18 6 19 3 20 5 21 4 22 1 23
REMARK H PARENT 18 11 18 12 10 14
ROOT
ATOM      1  C   UNL     1       6.156   0.598 -15.736  1.00  0.00    -0.048 A 
ATOM      2  C   UNL     1       7.213   1.422 -15.344  1.00  0.00     0.006 A 
ATOM      3  C   UNL     1       7.299   1.893 -14.037  1.00  0.00     0.026 A 
ATOM      4  C   UNL     1       6.300   1.629 -13.097  1.00  0.00     0.038 A 
ATOM      5  C   UNL     1       5.210   0.851 -13.505  1.00  0.00     0.026 A 
ATOM      6  C   UNL     1       5.138   0.341 -14.810  1.00  0.00     0.006 A 
ENDROOT
BRANCH   1   7
ATOM      7  C   UNL     1       6.106  -0.001 -17.120  1.00  0.00     0.037 C 
BRANCH   7   8
ATOM      8  C   UNL     1       4.795   0.187 -17.908  1.00  0.00     0.020 C 
BRANCH   8   9
ATOM      9  C   UNL     1       4.750   1.387 -18.864  1.00  0.00     0.078 C 
BRANCH   9  10
ATOM     10  N   UNL     1       4.002   2.536 -18.375  1.00  0.00    -0.330 NA
ATOM     11  H   UNL     1       3.490   2.971 -19.141  1.00  0.00     0.118 HD
ATOM     12  H   UNL     1       4.642   3.253 -18.033  1.00  0.00     0.118 HD
ENDBRANCH   9  10
ENDBRANCH   8   9
ENDBRANCH   7   8
ENDBRANCH   1   7
BRANCH   4  13
ATOM     13  N   UNL     1       6.319   2.201 -11.810  1.00  0.00    -0.362 N 
ATOM     14  H   UNL     1       7.083   1.929 -11.204  1.00  0.00     0.166 HD
BRANCH  13  15
ATOM     15  C   UNL     1       5.273   2.875 -11.237  1.00  0.00     0.083 C 
BRANCH  15  16
ATOM     16  C   UNL     1       5.163   3.368  -9.997  1.00  0.00     0.027 C 
BRANCH  16  17
ATOM     17  C   UNL     1       4.887   2.490  -8.849  1.00  0.00    -0.003 A 
ATOM     18  C   UNL     1       3.591   2.304  -8.337  1.00  0.00    -0.041 A 
ATOM     19  C   UNL     1       5.928   1.822  -8.188  1.00  0.00     0.119 A 
ATOM     20  C   UNL     1       3.420   1.467  -7.224  1.00  0.00     0.024 A 
ATOM     21  N   UNL     1       5.779   0.997  -7.125  1.00  0.00    -0.264 NA
ATOM     22  C   UNL     1       4.523   0.837  -6.670  1.00  0.00     0.111 A 
ATOM     23  C   UNL     1       2.390   3.000  -8.913  1.00  0.00     0.045 C 
ENDBRANCH  16  17
ENDBRANCH  15  16
ENDBRANCH  13  15
ENDBRANCH   4  13
TORSDOF 8
ENDMDL
MODEL 4
REMARK VINA RESULT:    -5.146      2.167      8.474
REMARK INTER + INTRA:          -8.079
REMARK INTER:                  -7.499
REMARK INTRA:                  -0.580
REMARK UNBOUND:                -0.676
REMARK SMILES Cc1ccncc1/C=C/Nc1ccc(CCCN)cc1
REMARK SMILES IDX 14 1 13 2 12 3 11 4 20 5 19 6 15 7 16 8 17 9 18 10 10 13
REMARK SMILES IDX 9 15 8 16 7 17 2 18 6 19 3 20 5 21 4 22 1 23
REMARK H PARENT 18 11 18 12 10 14
ROOT
ATOM      1  C   UNL     1       4.574   2.327  -7.522  1.00  0.00    -0.048 A 
ATOM      2  C   UNL     1       5.876   1.991  -7.898  1.00  0.00     0.006 A 
ATOM      3  C   UNL     1       6.352   2.305  -9.168  1.00  0.00     0.026 A 
ATOM      4  C   UNL     1       5.531   2.891 -10.134  1.00  0.00     0.038 A 
ATOM      5  C   UNL     1       4.208   3.177  -9.777  1.00  0.00     0.026 A 
ATOM      6  C   UNL     1       3.733   2.898  -8.486  1.00  0.00     0.006 A 
ENDROOT
BRANCH   1   7
ATOM      7  C   UNL     1       4.079   2.084  -6.118  1.00  0.00     0.037 C 
BRANCH   7   8
ATOM      8  C   UNL     1       3.207   0.833  -5.899  1.00  0.00     0.020 C 
BRANCH   8   9
ATOM      9  C   UNL     1       3.871  -0.515  -6.218  1.00  0.00     0.078 C 
BRANCH   9  10
ATOM     10  N   UNL     1       5.021  -0.846  -5.388  1.00  0.00    -0.330 NA
ATOM     11  H   UNL     1       5.739  -1.299  -5.952  1.00  0.00     0.118 HD
ATOM     12  H   UNL     1       4.757  -1.532  -4.680  1.00  0.00     0.118 HD
ENDBRANCH   9  10
ENDBRANCH   8   9
ENDBRANCH   7   8
ENDBRANCH   1   7
BRANCH   4  13
ATOM     13  N   UNL     1       5.969   3.101 -11.455  1.00  0.00    -0.362 N 
ATOM     14  H   UNL     1       6.270   4.039 -11.690  1.00  0.00     0.166 HD
BRANCH  13  15
ATOM     15  C   UNL     1       5.780   2.226 -12.491  1.00  0.00     0.083 C 
BRANCH  15  16
ATOM     16  C   UNL     1       6.689   1.530 -13.188  1.00  0.00     0.027 C 
BRANCH  16  17
ATOM     17  C   UNL     1       6.414   1.077 -14.560  1.00  0.00    -0.003 A 
ATOM     18  C   UNL     1       7.238   1.419 -15.646  1.00  0.00    -0.041 A 
ATOM     19  C   UNL     1       5.279   0.304 -14.848  1.00  0.00     0.119 A 
ATOM     20  C   UNL     1       6.888   0.964 -16.927  1.00  0.00     0.024 A 
ATOM     21  N   UNL     1       4.937  -0.158 -16.074  1.00  0.00    -0.264 NA
ATOM     22  C   UNL     1       5.755   0.182 -17.085  1.00  0.00     0.111 A 
ATOM     23  C   UNL     1       8.455   2.286 -15.491  1.00  0.00     0.045 C 
ENDBRANCH  16  17
ENDBRANCH  15  16
ENDBRANCH  13  15
ENDBRANCH   4  13
TORSDOF 8
ENDMDL
MODEL 5
REMARK VINA RESULT:    -5.142      4.640      8.479
REMARK INTER + INTRA:          -8.073
REMARK INTER:                  -7.462
REMARK INTRA:                  -0.610
REMARK UNBOUND:                -0.676
REMARK SMILES Cc1ccncc1/C=C/Nc1ccc(CCCN)cc1
REMARK SMILES IDX 14 1 13 2 12 3 11 4 20 5 19 6 15 7 16 8 17 9 18 10 10 13
REMARK SMILES IDX 9 15 8 16 7 17 2 18 6 19 3 20 5 21 4 22 1 23
REMARK H PARENT 18 11 18 12 10 14
ROOT
ATOM      1  C   UNL     1       3.392   2.338  -8.457  1.00  0.00    -0.048 A 
ATOM      2  C   UNL     1       2.892   3.159  -9.470  1.00  0.00     0.006 A 
ATOM      3  C   UNL     1       3.728   3.640 -10.473  1.00  0.00     0.026 A 
ATOM      4  C   UNL     1       5.102   3.389 -10.464  1.00  0.00     0.038 A 
ATOM      5  C   UNL     1       5.615   2.613  -9.417  1.00  0.00     0.026 A 
ATOM      6  C   UNL     1       4.770   2.094  -8.424  1.00  0.00     0.006 A 
ENDROOT
BRANCH   1   7
ATOM      7  C   UNL     1       2.479   1.729  -7.423  1.00  0.00     0.037 C 
BRANCH   7   8
ATOM      8  C   UNL     1       2.527   2.342  -6.010  1.00  0.00     0.020 C 
BRANCH   8   9
ATOM      9  C   UNL     1       2.131   3.822  -5.904  1.00  0.00     0.078 C 
BRANCH   9  10
ATOM     10  N   UNL     1       0.707   4.089  -6.047  1.00  0.00    -0.330 NA
ATOM     11  H   UNL     1       0.343   3.610  -6.869  1.00  0.00     0.118 HD
ATOM     12  H   UNL     1       0.552   5.083  -6.219  1.00  0.00     0.118 HD
ENDBRANCH   9  10
ENDBRANCH   8   9
ENDBRANCH   7   8
ENDBRANCH   1   7
BRANCH   4  13
ATOM     13  N   UNL     1       5.972   3.970 -11.407  1.00  0.00    -0.362 N 
ATOM     14  H   UNL     1       6.342   3.356 -12.122  1.00  0.00     0.166 HD
BRANCH  13  15
ATOM     15  C   UNL     1       6.547   5.207 -11.282  1.00  0.00     0.083 C 
BRANCH  15  16
ATOM     16  C   UNL     1       6.359   6.305 -12.026  1.00  0.00     0.027 C 
BRANCH  16  17
ATOM     17  C   UNL     1       7.444   7.274 -12.243  1.00  0.00    -0.003 A 
ATOM     18  C   UNL     1       7.886   7.636 -13.527  1.00  0.00    -0.041 A 
ATOM     19  C   UNL     1       8.117   7.855 -11.158  1.00  0.00     0.119 A 
ATOM     20  C   UNL     1       8.944   8.549 -13.643  1.00  0.00     0.024 A 
ATOM     21  N   UNL     1       9.127   8.751 -11.252  1.00  0.00    -0.264 NA
ATOM     22  C   UNL     1       9.515   9.079 -12.497  1.00  0.00     0.111 A 
ATOM     23  C   UNL     1       7.292   7.050 -14.777  1.00  0.00     0.045 C 
ENDBRANCH  16  17
ENDBRANCH  15  16
ENDBRANCH  13  15
ENDBRANCH   4  13
TORSDOF 8
ENDMDL
MODEL 6
REMARK VINA RESULT:    -5.078      4.572      6.626
REMARK INTER + INTRA:          -7.980
REMARK INTER:                  -7.352
REMARK INTRA:                  -0.628
REMARK UNBOUND:                -0.676
REMARK SMILES Cc1ccncc1/C=C/Nc1ccc(CCCN)cc1
REMARK SMILES IDX 14 1 13 2 12 3 11 4 20 5 19 6 15 7 16 8 17 9 18 10 10 13
REMARK SMILES IDX 9 15 8 16 7 17 2 18 6 19 3 20 5 21 4 22 1 23
REMARK H PARENT 18 11 18 12 10 14
ROOT
ATOM      1  C   UNL     1       8.465   8.213 -12.378  1.00  0.00    -0.048 A 
ATOM      2  C   UNL     1       7.664   7.563 -13.320  1.00  0.00     0.006 A 
ATOM      3  C   UNL     1       6.696   6.647 -12.918  1.00  0.00     0.026 A 
ATOM      4  C   UNL     1       6.542   6.286 -11.577  1.00  0.00     0.038 A 
ATOM      5  C   UNL     1       7.383   6.895 -10.638  1.00  0.00     0.026 A 
ATOM      6  C   UNL     1       8.334   7.847 -11.033  1.00  0.00     0.006 A 
ENDROOT
BRANCH   1   7
ATOM      7  C   UNL     1       9.447   9.280 -12.793  1.00  0.00     0.037 C 
BRANCH   7   8
ATOM      8  C   UNL     1      10.725   9.413 -11.942  1.00  0.00     0.020 C 
BRANCH   8   9
ATOM      9  C   UNL     1      11.960   8.661 -12.460  1.00  0.00     0.078 C 
BRANCH   9  10
ATOM     10  N   UNL     1      11.932   7.219 -12.260  1.00  0.00    -0.330 NA
ATOM     11  H   UNL     1      10.976   6.909 -12.090  1.00  0.00     0.118 HD
ATOM     12  H   UNL     1      12.453   6.971 -11.420  1.00  0.00     0.118 HD
ENDBRANCH   9  10
ENDBRANCH   8   9
ENDBRANCH   7   8
ENDBRANCH   1   7
BRANCH   4  13
ATOM     13  N   UNL     1       5.648   5.275 -11.176  1.00  0.00    -0.362 N 
ATOM     14  H   UNL     1       4.878   5.558 -10.582  1.00  0.00     0.166 HD
BRANCH  13  15
ATOM     15  C   UNL     1       5.877   3.931 -11.309  1.00  0.00     0.083 C 
BRANCH  15  16
ATOM     16  C   UNL     1       5.631   2.941 -10.439  1.00  0.00     0.027 C 
BRANCH  16  17
ATOM     17  C   UNL     1       4.438   2.961  -9.580  1.00  0.00    -0.003 A 
ATOM     18  C   UNL     1       4.450   2.474  -8.261  1.00  0.00    -0.041 A 
ATOM     19  C   UNL     1       3.211   3.440 -10.063  1.00  0.00     0.119 A 
ATOM     20  C   UNL     1       3.260   2.509  -7.518  1.00  0.00     0.024 A 
ATOM     21  N   UNL     1       2.059   3.498  -9.355  1.00  0.00    -0.264 NA
ATOM     22  C   UNL     1       2.113   3.032  -8.094  1.00  0.00     0.111 A 
ATOM     23  C   UNL     1       5.681   1.883  -7.633  1.00  0.00     0.045 C 
ENDBRANCH  16  17
ENDBRANCH  15  16
ENDBRANCH  13  15
ENDBRANCH   4  13
TORSDOF 8
ENDMDL
MODEL 7
REMARK VINA RESULT:    -5.025      1.728      8.434
REMARK INTER + INTRA:          -7.904
REMARK INTER:                  -7.397
REMARK INTRA:                  -0.507
REMARK UNBOUND:                -0.676
REMARK SMILES Cc1ccncc1/C=C/Nc1ccc(CCCN)cc1
REMARK SMILES IDX 14 1 13 2 12 3 11 4 20 5 19 6 15 7 16 8 17 9 18 10 10 13
REMARK SMILES IDX 9 15 8 16 7 17 2 18 6 19 3 20 5 21 4 22 1 23
REMARK H PARENT 18 11 18 12 10 14
ROOT
ATOM      1  C   UNL     1       4.513   2.246  -7.600  1.00  0.00    -0.048 A 
ATOM      2  C   UNL     1       5.836   1.895  -7.875  1.00  0.00     0.006 A 
ATOM      3  C   UNL     1       6.427   2.246  -9.085  1.00  0.00     0.026 A 
ATOM      4  C   UNL     1       5.705   2.889 -10.094  1.00  0.00     0.038 A 
ATOM      5  C   UNL     1       4.362   3.191  -9.842  1.00  0.00     0.026 A 
ATOM      6  C   UNL     1       3.771   2.873  -8.609  1.00  0.00     0.006 A 
ENDROOT
BRANCH   1   7
ATOM      7  C   UNL     1       3.893   1.960  -6.255  1.00  0.00     0.037 C 
BRANCH   7   8
ATOM      8  C   UNL     1       2.383   2.237  -6.117  1.00  0.00     0.020 C 
BRANCH   8   9
ATOM      9  C   UNL     1       2.001   3.600  -5.522  1.00  0.00     0.078 C 
BRANCH   9  10
ATOM     10  N   UNL     1       0.766   4.173  -6.039  1.00  0.00    -0.330 NA
ATOM     11  H   UNL     1       0.611   5.094  -5.631  1.00  0.00     0.118 HD
ATOM     12  H   UNL     1      -0.032   3.608  -5.749  1.00  0.00     0.118 HD
ENDBRANCH   9  10
ENDBRANCH   8   9
ENDBRANCH   7   8
ENDBRANCH   1   7
BRANCH   4  13
ATOM     13  N   UNL     1       6.261   3.140 -11.363  1.00  0.00    -0.362 N 
ATOM     14  H   UNL     1       6.742   4.023 -11.481  1.00  0.00     0.166 HD
BRANCH  13  15
ATOM     15  C   UNL     1       5.985   2.420 -12.495  1.00  0.00     0.083 C 
BRANCH  15  16
ATOM     16  C   UNL     1       6.724   1.480 -13.100  1.00  0.00     0.027 C 
BRANCH  16  17
ATOM     17  C   UNL     1       6.434   1.052 -14.477  1.00  0.00    -0.003 A 
ATOM     18  C   UNL     1       7.245   1.418 -15.566  1.00  0.00    -0.041 A 
ATOM     19  C   UNL     1       5.298   0.282 -14.768  1.00  0.00     0.119 A 
ATOM     20  C   UNL     1       6.882   0.987 -16.851  1.00  0.00     0.024 A 
ATOM     21  N   UNL     1       4.943  -0.157 -15.998  1.00  0.00    -0.264 NA
ATOM     22  C   UNL     1       5.749   0.205 -17.012  1.00  0.00     0.111 A 
ATOM     23  C   UNL     1       8.462   2.285 -15.408  1.00  0.00     0.045 C 
ENDBRANCH  16  17
ENDBRANCH  15  16
ENDBRANCH  13  15
ENDBRANCH   4  13
TORSDOF 8
ENDMDL
MODEL 8
REMARK VINA RESULT:    -5.023      5.387      7.344
REMARK INTER + INTRA:          -7.902
REMARK INTER:                  -7.282
REMARK INTRA:                  -0.620
REMARK UNBOUND:                -0.676
REMARK SMILES Cc1ccncc1/C=C/Nc1ccc(CCCN)cc1
REMARK SMILES IDX 14 1 13 2 12 3 11 4 20 5 19 6 15 7 16 8 17 9 18 10 10 13
REMARK SMILES IDX 9 15 8 16 7 17 2 18 6 19 3 20 5 21 4 22 1 23
REMARK H PARENT 18 11 18 12 10 14
ROOT
ATOM      1  C   UNL     1       8.698   8.463 -12.576  1.00  0.00    -0.048 A 
ATOM      2  C   UNL     1       8.547   8.095 -11.237  1.00  0.00     0.006 A 
ATOM      3  C   UNL     1       7.644   7.102 -10.871  1.00  0.00     0.026 A 
ATOM      4  C   UNL     1       6.804   6.494 -11.808  1.00  0.00     0.038 A 
ATOM      5  C   UNL     1       6.914   6.903 -13.143  1.00  0.00     0.026 A 
ATOM      6  C   UNL     1       7.850   7.877 -13.523  1.00  0.00     0.006 A 
ENDROOT
BRANCH   1   7
ATOM      7  C   UNL     1       9.744   9.465 -12.996  1.00  0.00     0.037 C 
BRANCH   7   8
ATOM      8  C   UNL     1      10.251  10.433 -11.910  1.00  0.00     0.020 C 
BRANCH   8   9
ATOM      9  C   UNL     1      10.106  11.930 -12.220  1.00  0.00     0.078 C 
BRANCH   9  10
ATOM     10  N   UNL     1       9.321  12.685 -11.254  1.00  0.00    -0.330 NA
ATOM     11  H   UNL     1       9.138  13.623 -11.610  1.00  0.00     0.118 HD
ATOM     12  H   UNL     1       9.854  12.818 -10.395  1.00  0.00     0.118 HD
ENDBRANCH   9  10
ENDBRANCH   8   9
ENDBRANCH   7   8
ENDBRANCH   1   7
BRANCH   4  13
ATOM     13  N   UNL     1       5.806   5.576 -11.429  1.00  0.00    -0.362 N 
ATOM     14  H   UNL     1       5.009   5.951 -10.930  1.00  0.00     0.166 HD
BRANCH  13  15
ATOM     15  C   UNL     1       5.948   4.214 -11.451  1.00  0.00     0.083 C 
BRANCH  15  16
ATOM     16  C   UNL     1       5.164   3.273 -10.907  1.00  0.00     0.027 C 
BRANCH  16  17
ATOM     17  C   UNL     1       5.483   2.679  -9.599  1.00  0.00    -0.003 A 
ATOM     18  C   UNL     1       4.519   2.520  -8.588  1.00  0.00    -0.041 A 
ATOM     19  C   UNL     1       6.791   2.275  -9.292  1.00  0.00     0.119 A 
ATOM     20  C   UNL     1       4.914   1.965  -7.362  1.00  0.00     0.024 A 
ATOM     21  N   UNL     1       7.185   1.722  -8.121  1.00  0.00    -0.264 NA
ATOM     22  C   UNL     1       6.233   1.577  -7.183  1.00  0.00     0.111 A 
ATOM     23  C   UNL     1       3.092   2.958  -8.761  1.00  0.00     0.045 C 
ENDBRANCH  16  17
ENDBRANCH  15  16
ENDBRANCH  13  15
ENDBRANCH   4  13
TORSDOF 8
ENDMDL
MODEL 9
REMARK VINA RESULT:    -4.991      4.537      8.461
REMARK INTER + INTRA:          -7.856
REMARK INTER:                  -7.343
REMARK INTRA:                  -0.513
REMARK UNBOUND:                -0.676
REMARK SMILES Cc1ccncc1/C=C/Nc1ccc(CCCN)cc1
REMARK SMILES IDX 14 1 13 2 12 3 11 4 20 5 19 6 15 7 16 8 17 9 18 10 10 13
REMARK SMILES IDX 9 15 8 16 7 17 2 18 6 19 3 20 5 21 4 22 1 23
REMARK H PARENT 18 11 18 12 10 14
ROOT
ATOM      1  C   UNL     1       3.435   2.373  -8.621  1.00  0.00    -0.048 A 
ATOM      2  C   UNL     1       4.816   2.174  -8.681  1.00  0.00     0.006 A 
ATOM      3  C   UNL     1       5.591   2.849  -9.620  1.00  0.00     0.026 A 
ATOM      4  C   UNL     1       5.015   3.683 -10.581  1.00  0.00     0.038 A 
ATOM      5  C   UNL     1       3.623   3.839 -10.559  1.00  0.00     0.026 A 
ATOM      6  C   UNL     1       2.841   3.191  -9.590  1.00  0.00     0.006 A 
ENDROOT
BRANCH   1   7
ATOM      7  C   UNL     1       2.599   1.727  -7.545  1.00  0.00     0.037 C 
BRANCH   7   8
ATOM      8  C   UNL     1       2.578   2.426  -6.172  1.00  0.00     0.020 C 
BRANCH   8   9
ATOM      9  C   UNL     1       2.143   3.899  -6.172  1.00  0.00     0.078 C 
BRANCH   9  10
ATOM     10  N   UNL     1       0.715   4.119  -5.989  1.00  0.00    -0.330 NA
ATOM     11  H   UNL     1       0.283   4.365  -6.879  1.00  0.00     0.118 HD
ATOM     12  H   UNL     1       0.559   4.921  -5.378  1.00  0.00     0.118 HD
ENDBRANCH   9  10
ENDBRANCH   8   9
ENDBRANCH   7   8
ENDBRANCH   1   7
BRANCH   4  13
ATOM     13  N   UNL     1       5.777   4.273 -11.607  1.00  0.00    -0.362 N 
ATOM     14  H   UNL     1       5.860   3.751 -12.470  1.00  0.00     0.166 HD
BRANCH  13  15
ATOM     15  C   UNL     1       6.608   5.350 -11.443  1.00  0.00     0.083 C 
BRANCH  15  16
ATOM     16  C   UNL     1       6.465   6.604 -11.891  1.00  0.00     0.027 C 
BRANCH  16  17
ATOM     17  C   UNL     1       7.289   7.117 -12.997  1.00  0.00    -0.003 A 
ATOM     18  C   UNL     1       8.334   8.035 -12.797  1.00  0.00    -0.041 A 
ATOM     19  C   UNL     1       7.033   6.732 -14.322  1.00  0.00     0.119 A 
ATOM     20  C   UNL     1       9.054   8.490 -13.912  1.00  0.00     0.024 A 
ATOM     21  N   UNL     1       7.729   7.148 -15.407  1.00  0.00    -0.264 NA
ATOM     22  C   UNL     1       8.728   8.017 -15.173  1.00  0.00     0.111 A 
ATOM     23  C   UNL     1       8.683   8.573 -11.438  1.00  0.00     0.045 C 
ENDBRANCH  16  17
ENDBRANCH  15  16
ENDBRANCH  13  15
ENDBRANCH   4  13
TORSDOF 8
ENDMDL
