MODEL 1
REMARK VINA RESULT:    -5.137      0.000      0.000
REMARK INTER + INTRA:          -8.038
REMARK INTER:                  -7.390
REMARK INTRA:                  -0.648
REMARK UNBOUND:                -0.648
REMARK SMILES Cc1ccncc1/C=C/Nc1ccc(CCCN)cc1
REMARK SMILES IDX 14 1 13 2 12 3 11 4 20 5 19 6 15 7 16 8 17 9 18 10 10 13
REMARK SMILES IDX 9 15 8 16 7 17 2 18 6 19 3 20 5 21 4 22 1 23
REMARK H PARENT 18 11 18 12 10 14
ROOT
ATOM      1  C   UNL     1      10.318  -8.677  -9.675  1.00  0.00    -0.048 A 
ATOM      2  C   UNL     1      11.507  -8.007  -9.376  1.00  0.00     0.006 A 
ATOM      3  C   UNL     1      11.517  -6.944  -8.477  1.00  0.00     0.026 A 
ATOM      4  C   UNL     1      10.339  -6.459  -7.904  1.00  0.00     0.038 A 
ATOM      5  C   UNL     1       9.138  -7.093  -8.247  1.00  0.00     0.026 A 
ATOM      6  C   UNL     1       9.127  -8.190  -9.123  1.00  0.00     0.006 A 
ENDROOT
BRANCH   1   7
ATOM      7  C   UNL     1      10.311  -9.892 -10.568  1.00  0.00     0.037 C 
BRANCH   7   8
ATOM      8  C   UNL     1       9.300  -9.890 -11.731  1.00  0.00     0.020 C 
BRANCH   8   9
ATOM      9  C   UNL     1       9.881  -9.621 -13.127  1.00  0.00     0.078 C 
BRANCH   9  10
ATOM     10  N   UNL     1      10.006  -8.214 -13.481  1.00  0.00    -0.330 NA
ATOM     11  H   UNL     1      10.990  -7.948 -13.506  1.00  0.00     0.118 HD
ATOM     12  H   UNL     1       9.583  -7.631 -12.759  1.00  0.00     0.118 HD
ENDBRANCH   9  10
ENDBRANCH   8   9
ENDBRANCH   7   8
ENDBRANCH   1   7
BRANCH   4  13
ATOM     13  N   UNL     1      10.325  -5.311  -7.089  1.00  0.00    -0.362 N 
ATOM     14  H   UNL     1      10.916  -5.331  -6.267  1.00  0.00     0.166 HD
BRANCH  13  15
ATOM     15  C   UNL     1       9.405  -4.301  -7.175  1.00  0.00     0.083 C 
BRANCH  15  16
ATOM     16  C   UNL     1       9.177  -3.289  -6.327  1.00  0.00     0.027 C 
BRANCH  16  17
ATOM     17  C   UNL     1       7.835  -2.708  -6.176  1.00  0.00    -0.003 A 
ATOM     18  C   UNL     1       7.331  -2.284  -4.934  1.00  0.00    -0.041 A 
ATOM     19  C   UNL     1       6.975  -2.587  -7.279  1.00  0.00     0.119 A 
ATOM     20  C   UNL     1       6.030  -1.763  -4.876  1.00  0.00     0.024 A 
ATOM     21  N   UNL     1       5.724  -2.071  -7.244  1.00  0.00    -0.264 NA
ATOM     22  C   UNL     1       5.283  -1.667  -6.040  1.00  0.00     0.111 A 
ATOM     23  C   UNL     1       8.123  -2.404  -3.662  1.00  0.00     0.045 C 
ENDBRANCH  16  17
ENDBRANCH  15  16
ENDBRANCH  13  15
ENDBRANCH   4  13
TORSDOF 8
ENDMDL
MODEL 2
REMARK VINA RESULT:    -5.022      1.231      1.814
REMARK INTER + INTRA:          -7.872
REMARK INTER:                  -7.226
REMARK INTRA:                  -0.646
REMARK UNBOUND:                -0.648
REMARK SMILES Cc1ccncc1/C=C/Nc1ccc(CCCN)cc1
REMARK SMILES IDX 14 1 13 2 12 3 11 4 20 5 19 6 15 7 16 8 17 9 18 10 10 13
REMARK SMILES IDX 9 15 8 16 7 17 2 18 6 19 3 20 5 21 4 22 1 23
REMARK H PARENT 18 11 18 12 10 14
ROOT
ATOM      1  C   UNL     1      10.452  -8.691  -9.707  1.00  0.00    -0.048 A 
ATOM      2  C   UNL     1      11.590  -7.963  -9.351  1.00  0.00     0.006 A 
ATOM      3  C   UNL     1      11.503  -6.902  -8.454  1.00  0.00     0.026 A 
ATOM      4  C   UNL     1      10.275  -6.477  -7.940  1.00  0.00     0.038 A 
ATOM      5  C   UNL     1       9.127  -7.171  -8.340  1.00  0.00     0.026 A 
ATOM      6  C   UNL     1       9.213  -8.265  -9.214  1.00  0.00     0.006 A 
ENDROOT
BRANCH   1   7
ATOM      7  C   UNL     1      10.549  -9.904 -10.598  1.00  0.00     0.037 C 
BRANCH   7   8
ATOM      8  C   UNL     1       9.481 -10.039 -11.701  1.00  0.00     0.020 C 
BRANCH   8   9
ATOM      9  C   UNL     1       9.942  -9.707 -13.128  1.00  0.00     0.078 C 
BRANCH   9  10
ATOM     10  N   UNL     1      10.039  -8.285 -13.428  1.00  0.00    -0.330 NA
ATOM     11  H   UNL     1       9.191  -7.969 -13.896  1.00  0.00     0.118 HD
ATOM     12  H   UNL     1      10.796  -8.117 -14.091  1.00  0.00     0.118 HD
ENDBRANCH   9  10
ENDBRANCH   8   9
ENDBRANCH   7   8
ENDBRANCH   1   7
BRANCH   4  13
ATOM     13  N   UNL     1      10.165  -5.333  -7.127  1.00  0.00    -0.362 N 
ATOM     14  H   UNL     1      10.140  -5.487  -6.127  1.00  0.00     0.166 HD
BRANCH  13  15
ATOM     15  C   UNL     1       9.835  -4.082  -7.578  1.00  0.00     0.083 C 
BRANCH  15  16
ATOM     16  C   UNL     1       8.722  -3.371  -7.359  1.00  0.00     0.027 C 
BRANCH  16  17
ATOM     17  C   UNL     1       8.307  -3.005  -5.996  1.00  0.00    -0.003 A 
ATOM     18  C   UNL     1       7.018  -2.525  -5.703  1.00  0.00    -0.041 A 
ATOM     19  C   UNL     1       9.207  -3.087  -4.923  1.00  0.00     0.119 A 
ATOM     20  C   UNL     1       6.713  -2.176  -4.379  1.00  0.00     0.024 A 
ATOM     21  N   UNL     1       8.925  -2.772  -3.637  1.00  0.00    -0.264 NA
ATOM     22  C   UNL     1       7.679  -2.326  -3.396  1.00  0.00     0.111 A 
ATOM     23  C   UNL     1       5.970  -2.335  -6.764  1.00  0.00     0.045 C 
ENDBRANCH  16  17
ENDBRANCH  15  16
ENDBRANCH  13  15
ENDBRANCH   4  13
TORSDOF 8
ENDMDL
MODEL 3
REMARK VINA RESULT:    -4.903      2.110      8.567
REMARK INTER + INTRA:          -7.701
REMARK INTER:                  -7.134
REMARK INTRA:                  -0.567
REMARK UNBOUND:                -0.648
REMARK SMILES Cc1ccncc1/C=C/Nc1ccc(CCCN)cc1
REMARK SMILES IDX 14 1 13 2 12 3 11 4 20 5 19 6 15 7 16 8 17 9 18 10 10 13
REMARK SMILES IDX 9 15 8 16 7 17 2 18 6 19 3 20 5 21 4 22 1 23
REMARK H PARENT 18 11 18 12 10 14
ROOT
ATOM      1  C   UNL     1       7.639  -2.248  -4.966  1.00  0.00    -0.048 A 
ATOM      2  C   UNL     1       8.840  -2.787  -4.502  1.00  0.00     0.006 A 
ATOM      3  C   UNL     1       9.721  -3.417  -5.376  1.00  0.00     0.026 A 
ATOM      4  C   UNL     1       9.406  -3.604  -6.724  1.00  0.00     0.038 A 
ATOM      5  C   UNL     1       8.176  -3.114  -7.180  1.00  0.00     0.026 A 
ATOM      6  C   UNL     1       7.301  -2.444  -6.311  1.00  0.00     0.006 A 
ENDROOT
BRANCH   1   7
ATOM      7  C   UNL     1       6.724  -1.475  -4.049  1.00  0.00     0.037 C 
BRANCH   7   8
ATOM      8  C   UNL     1       5.489  -2.223  -3.512  1.00  0.00     0.020 C 
BRANCH   8   9
ATOM      9  C   UNL     1       5.773  -3.497  -2.702  1.00  0.00     0.078 C 
BRANCH   9  10
ATOM     10  N   UNL     1       5.911  -3.296  -1.267  1.00  0.00    -0.330 NA
ATOM     11  H   UNL     1       6.799  -2.840  -1.062  1.00  0.00     0.118 HD
ATOM     12  H   UNL     1       5.949  -4.196  -0.788  1.00  0.00     0.118 HD
ENDBRANCH   9  10
ENDBRANCH   8   9
ENDBRANCH   7   8
ENDBRANCH   1   7
BRANCH   4  13
ATOM     13  N   UNL     1      10.237  -4.344  -7.587  1.00  0.00    -0.362 N 
ATOM     14  H   UNL     1      11.033  -3.857  -7.979  1.00  0.00     0.166 HD
BRANCH  13  15
ATOM     15  C   UNL     1       9.915  -5.560  -8.130  1.00  0.00     0.083 C 
BRANCH  15  16
ATOM     16  C   UNL     1      10.486  -6.755  -7.925  1.00  0.00     0.027 C 
BRANCH  16  17
ATOM     17  C   UNL     1      11.425  -7.328  -8.901  1.00  0.00    -0.003 A 
ATOM     18  C   UNL     1      11.119  -8.469  -9.662  1.00  0.00    -0.041 A 
ATOM     19  C   UNL     1      12.700  -6.771  -9.085  1.00  0.00     0.119 A 
ATOM     20  C   UNL     1      12.083  -8.964 -10.553  1.00  0.00     0.024 A 
ATOM     21  N   UNL     1      13.635  -7.224  -9.953  1.00  0.00    -0.264 NA
ATOM     22  C   UNL     1      13.301  -8.312 -10.670  1.00  0.00     0.111 A 
ATOM     23  C   UNL     1       9.812  -9.199  -9.528  1.00  0.00     0.045 C 
ENDBRANCH  16  17
ENDBRANCH  15  16
ENDBRANCH  13  15
ENDBRANCH   4  13
TORSDOF 8
ENDMDL
MODEL 4
REMARK VINA RESULT:    -4.835      1.990      8.481
REMARK INTER + INTRA:          -7.603
REMARK INTER:                  -7.019
REMARK INTRA:                  -0.584
REMARK UNBOUND:                -0.648
REMARK SMILES Cc1ccncc1/C=C/Nc1ccc(CCCN)cc1
REMARK SMILES IDX 14 1 13 2 12 3 11 4 20 5 19 6 15 7 16 8 17 9 18 10 10 13
REMARK SMILES IDX 9 15 8 16 7 17 2 18 6 19 3 20 5 21 4 22 1 23
REMARK H PARENT 18 11 18 12 10 14
ROOT
ATOM      1  C   UNL     1       7.177  -2.037  -4.976  1.00  0.00    -0.048 A 
ATOM      2  C   UNL     1       8.407  -2.610  -4.647  1.00  0.00     0.006 A 
ATOM      3  C   UNL     1       9.191  -3.219  -5.623  1.00  0.00     0.026 A 
ATOM      4  C   UNL     1       8.748  -3.349  -6.941  1.00  0.00     0.038 A 
ATOM      5  C   UNL     1       7.490  -2.825  -7.260  1.00  0.00     0.026 A 
ATOM      6  C   UNL     1       6.712  -2.176  -6.289  1.00  0.00     0.006 A 
ENDROOT
BRANCH   1   7
ATOM      7  C   UNL     1       6.366  -1.287  -3.949  1.00  0.00     0.037 C 
BRANCH   7   8
ATOM      8  C   UNL     1       5.124  -2.007  -3.388  1.00  0.00     0.020 C 
BRANCH   8   9
ATOM      9  C   UNL     1       5.383  -3.348  -2.684  1.00  0.00     0.078 C 
BRANCH   9  10
ATOM     10  N   UNL     1       5.967  -3.242  -1.354  1.00  0.00    -0.330 NA
ATOM     11  H   UNL     1       6.872  -2.777  -1.407  1.00  0.00     0.118 HD
ATOM     12  H   UNL     1       6.158  -4.171  -0.980  1.00  0.00     0.118 HD
ENDBRANCH   9  10
ENDBRANCH   8   9
ENDBRANCH   7   8
ENDBRANCH   1   7
BRANCH   4  13
ATOM     13  N   UNL     1       9.481  -4.066  -7.906  1.00  0.00    -0.362 N 
ATOM     14  H   UNL     1       9.812  -3.543  -8.707  1.00  0.00     0.166 HD
BRANCH  13  15
ATOM     15  C   UNL     1       9.558  -5.432  -7.973  1.00  0.00     0.083 C 
BRANCH  15  16
ATOM     16  C   UNL     1      10.642  -6.218  -8.002  1.00  0.00     0.027 C 
BRANCH  16  17
ATOM     17  C   UNL     1      10.680  -7.435  -8.827  1.00  0.00    -0.003 A 
ATOM     18  C   UNL     1      11.840  -7.853  -9.502  1.00  0.00    -0.041 A 
ATOM     19  C   UNL     1       9.530  -8.219  -9.006  1.00  0.00     0.119 A 
ATOM     20  C   UNL     1      11.782  -9.015 -10.287  1.00  0.00     0.024 A 
ATOM     21  N   UNL     1       9.461  -9.351  -9.745  1.00  0.00    -0.264 NA
ATOM     22  C   UNL     1      10.593  -9.723 -10.367  1.00  0.00     0.111 A 
ATOM     23  C   UNL     1      13.128  -7.081  -9.442  1.00  0.00     0.045 C 
ENDBRANCH  16  17
ENDBRANCH  15  16
ENDBRANCH  13  15
ENDBRANCH   4  13
TORSDOF 8
ENDMDL
MODEL 5
REMARK VINA RESULT:    -4.751      1.951      8.640
REMARK INTER + INTRA:          -7.482
REMARK INTER:                  -6.925
REMARK INTRA:                  -0.557
REMARK UNBOUND:                -0.648
REMARK SMILES Cc1ccncc1/C=C/Nc1ccc(CCCN)cc1
REMARK SMILES IDX 14 1 13 2 12 3 11 4 20 5 19 6 15 7 16 8 17 9 18 10 10 13
REMARK SMILES IDX 9 15 8 16 7 17 2 18 6 19 3 20 5 21 4 22 1 23
REMARK H PARENT 18 11 18 12 10 14
ROOT
ATOM      1  C   UNL     1       7.406  -1.974  -5.235  1.00  0.00    -0.048 A 
ATOM      2  C   UNL     1       8.459  -2.526  -4.502  1.00  0.00     0.006 A 
ATOM      3  C   UNL     1       9.421  -3.315  -5.125  1.00  0.00     0.026 A 
ATOM      4  C   UNL     1       9.331  -3.646  -6.480  1.00  0.00     0.038 A 
ATOM      5  C   UNL     1       8.245  -3.140  -7.203  1.00  0.00     0.026 A 
ATOM      6  C   UNL     1       7.292  -2.313  -6.588  1.00  0.00     0.006 A 
ENDROOT
BRANCH   1   7
ATOM      7  C   UNL     1       6.414  -1.037  -4.591  1.00  0.00     0.037 C 
BRANCH   7   8
ATOM      8  C   UNL     1       4.969  -1.087  -5.124  1.00  0.00     0.020 C 
BRANCH   8   9
ATOM      9  C   UNL     1       4.473   0.175  -5.844  1.00  0.00     0.078 C 
BRANCH   9  10
ATOM     10  N   UNL     1       4.020   1.246  -4.968  1.00  0.00    -0.330 NA
ATOM     11  H   UNL     1       4.816   1.660  -4.484  1.00  0.00     0.118 HD
ATOM     12  H   UNL     1       3.420   0.870  -4.234  1.00  0.00     0.118 HD
ENDBRANCH   9  10
ENDBRANCH   8   9
ENDBRANCH   7   8
ENDBRANCH   1   7
BRANCH   4  13
ATOM     13  N   UNL     1      10.234  -4.539  -7.089  1.00  0.00    -0.362 N 
ATOM     14  H   UNL     1      11.218  -4.318  -7.004  1.00  0.00     0.166 HD
BRANCH  13  15
ATOM     15  C   UNL     1       9.885  -5.514  -7.985  1.00  0.00     0.083 C 
BRANCH  15  16
ATOM     16  C   UNL     1      10.219  -6.812  -7.995  1.00  0.00     0.027 C 
BRANCH  16  17
ATOM     17  C   UNL     1      11.253  -7.325  -8.906  1.00  0.00    -0.003 A 
ATOM     18  C   UNL     1      11.078  -8.499  -9.660  1.00  0.00    -0.041 A 
ATOM     19  C   UNL     1      12.489  -6.673  -9.032  1.00  0.00     0.119 A 
ATOM     20  C   UNL     1      12.127  -8.931 -10.487  1.00  0.00     0.024 A 
ATOM     21  N   UNL     1      13.503  -7.066  -9.838  1.00  0.00    -0.264 NA
ATOM     22  C   UNL     1      13.295  -8.188 -10.550  1.00  0.00     0.111 A 
ATOM     23  C   UNL     1       9.826  -9.327  -9.583  1.00  0.00     0.045 C 
ENDBRANCH  16  17
ENDBRANCH  15  16
ENDBRANCH  13  15
ENDBRANCH   4  13
TORSDOF 8
ENDMDL
MODEL 6
REMARK VINA RESULT:    -4.748      4.378      8.382
REMARK INTER + INTRA:          -7.477
REMARK INTER:                  -6.952
REMARK INTRA:                  -0.525
REMARK UNBOUND:                -0.648
REMARK SMILES Cc1ccncc1/C=C/Nc1ccc(CCCN)cc1
REMARK SMILES IDX 14 1 13 2 12 3 11 4 20 5 19 6 15 7 16 8 17 9 18 10 10 13
REMARK SMILES IDX 9 15 8 16 7 17 2 18 6 19 3 20 5 21 4 22 1 23
REMARK H PARENT 18 11 18 12 10 14
ROOT
ATOM      1  C   UNL     1       6.906  -2.053  -5.087  1.00  0.00    -0.048 A 
ATOM      2  C   UNL     1       6.522  -2.149  -6.426  1.00  0.00     0.006 A 
ATOM      3  C   UNL     1       7.359  -2.747  -7.364  1.00  0.00     0.026 A 
ATOM      4  C   UNL     1       8.636  -3.199  -7.022  1.00  0.00     0.038 A 
ATOM      5  C   UNL     1       9.045  -3.052  -5.691  1.00  0.00     0.026 A 
ATOM      6  C   UNL     1       8.190  -2.485  -4.734  1.00  0.00     0.006 A 
ENDROOT
BRANCH   1   7
ATOM      7  C   UNL     1       5.967  -1.499  -4.044  1.00  0.00     0.037 C 
BRANCH   7   8
ATOM      8  C   UNL     1       4.942  -2.482  -3.445  1.00  0.00     0.020 C 
BRANCH   8   9
ATOM      9  C   UNL     1       5.517  -3.603  -2.567  1.00  0.00     0.078 C 
BRANCH   9  10
ATOM     10  N   UNL     1       5.963  -3.183  -1.246  1.00  0.00    -0.330 NA
ATOM     11  H   UNL     1       6.697  -2.480  -1.333  1.00  0.00     0.118 HD
ATOM     12  H   UNL     1       6.393  -3.967  -0.754  1.00  0.00     0.118 HD
ENDBRANCH   9  10
ENDBRANCH   8   9
ENDBRANCH   7   8
ENDBRANCH   1   7
BRANCH   4  13
ATOM     13  N   UNL     1       9.533  -3.696  -7.987  1.00  0.00    -0.362 N 
ATOM     14  H   UNL     1       9.433  -4.670  -8.242  1.00  0.00     0.166 HD
BRANCH  13  15
ATOM     15  C   UNL     1      10.667  -3.051  -8.407  1.00  0.00     0.083 C 
BRANCH  15  16
ATOM     16  C   UNL     1      10.786  -1.992  -9.217  1.00  0.00     0.027 C 
BRANCH  16  17
ATOM     17  C   UNL     1      12.079  -1.315  -9.402  1.00  0.00    -0.003 A 
ATOM     18  C   UNL     1      12.982  -1.678 -10.417  1.00  0.00    -0.041 A 
ATOM     19  C   UNL     1      12.485  -0.290  -8.534  1.00  0.00     0.119 A 
ATOM     20  C   UNL     1      14.205  -0.995 -10.507  1.00  0.00     0.024 A 
ATOM     21  N   UNL     1      13.652   0.390  -8.617  1.00  0.00    -0.264 NA
ATOM     22  C   UNL     1      14.485   0.021  -9.607  1.00  0.00     0.111 A 
ATOM     23  C   UNL     1      12.700  -2.793 -11.384  1.00  0.00     0.045 C 
ENDBRANCH  16  17
ENDBRANCH  15  16
ENDBRANCH  13  15
ENDBRANCH   4  13
TORSDOF 8
ENDMDL
MODEL 7
REMARK VINA RESULT:    -4.741      4.468      8.448
REMARK INTER + INTRA:          -7.468
REMARK INTER:                  -6.777
REMARK INTRA:                  -0.691
REMARK UNBOUND:                -0.648
REMARK SMILES Cc1ccncc1/C=C/Nc1ccc(CCCN)cc1
REMARK SMILES IDX 14 1 13 2 12 3 11 4 20 5 19 6 15 7 16 8 17 9 18 10 10 13
REMARK SMILES IDX 9 15 8 16 7 17 2 18 6 19 3 20 5 21 4 22 1 23
REMARK H PARENT 18 11 18 12 10 14
ROOT
ATOM      1  C   UNL     1       6.317  -2.503  -6.119  1.00  0.00    -0.048 A 
ATOM      2  C   UNL     1       6.250  -2.445  -7.513  1.00  0.00     0.006 A 
ATOM      3  C   UNL     1       7.361  -2.756  -8.291  1.00  0.00     0.026 A 
ATOM      4  C   UNL     1       8.597  -3.057  -7.714  1.00  0.00     0.038 A 
ATOM      5  C   UNL     1       8.681  -3.059  -6.317  1.00  0.00     0.026 A 
ATOM      6  C   UNL     1       7.554  -2.785  -5.527  1.00  0.00     0.006 A 
ENDROOT
BRANCH   1   7
ATOM      7  C   UNL     1       5.094  -2.267  -5.268  1.00  0.00     0.037 C 
BRANCH   7   8
ATOM      8  C   UNL     1       5.051  -0.951  -4.468  1.00  0.00     0.020 C 
BRANCH   8   9
ATOM      9  C   UNL     1       4.699   0.312  -5.268  1.00  0.00     0.078 C 
BRANCH   9  10
ATOM     10  N   UNL     1       3.594   0.160  -6.203  1.00  0.00    -0.330 NA
ATOM     11  H   UNL     1       3.898  -0.368  -7.020  1.00  0.00     0.118 HD
ATOM     12  H   UNL     1       3.306   1.072  -6.559  1.00  0.00     0.118 HD
ENDBRANCH   9  10
ENDBRANCH   8   9
ENDBRANCH   7   8
ENDBRANCH   1   7
BRANCH   4  13
ATOM     13  N   UNL     1       9.754  -3.255  -8.493  1.00  0.00    -0.362 N 
ATOM     14  H   UNL     1       9.860  -4.164  -8.926  1.00  0.00     0.166 HD
BRANCH  13  15
ATOM     15  C   UNL     1      10.844  -2.426  -8.499  1.00  0.00     0.083 C 
BRANCH  15  16
ATOM     16  C   UNL     1      11.241  -1.556  -9.437  1.00  0.00     0.027 C 
BRANCH  16  17
ATOM     17  C   UNL     1      12.495  -1.755 -10.179  1.00  0.00    -0.003 A 
ATOM     18  C   UNL     1      13.622  -0.937  -9.987  1.00  0.00    -0.041 A 
ATOM     19  C   UNL     1      12.605  -2.761 -11.151  1.00  0.00     0.119 A 
ATOM     20  C   UNL     1      14.771  -1.181 -10.755  1.00  0.00     0.024 A 
ATOM     21  N   UNL     1      13.710  -3.022 -11.887  1.00  0.00    -0.264 NA
ATOM     22  C   UNL     1      14.770  -2.224 -11.668  1.00  0.00     0.111 A 
ATOM     23  C   UNL     1      13.627   0.212  -9.018  1.00  0.00     0.045 C 
ENDBRANCH  16  17
ENDBRANCH  15  16
ENDBRANCH  13  15
ENDBRANCH   4  13
TORSDOF 8
ENDMDL
MODEL 8
REMARK VINA RESULT:    -4.713      1.776      8.275
REMARK INTER + INTRA:          -7.427
REMARK INTER:                  -6.833
REMARK INTRA:                  -0.594
REMARK UNBOUND:                -0.648
REMARK SMILES Cc1ccncc1/C=C/Nc1ccc(CCCN)cc1
REMARK SMILES IDX 14 1 13 2 12 3 11 4 20 5 19 6 15 7 16 8 17 9 18 10 10 13
REMARK SMILES IDX 9 15 8 16 7 17 2 18 6 19 3 20 5 21 4 22 1 23
REMARK H PARENT 18 11 18 12 10 14
ROOT
ATOM      1  C   UNL     1       6.217  -2.397  -5.391  1.00  0.00    -0.048 A 
ATOM      2  C   UNL     1       6.237  -2.494  -6.784  1.00  0.00     0.006 A 
ATOM      3  C   UNL     1       7.406  -2.844  -7.455  1.00  0.00     0.026 A 
ATOM      4  C   UNL     1       8.612  -3.032  -6.775  1.00  0.00     0.038 A 
ATOM      5  C   UNL     1       8.606  -2.879  -5.384  1.00  0.00     0.026 A 
ATOM      6  C   UNL     1       7.423  -2.564  -4.699  1.00  0.00     0.006 A 
ENDROOT
BRANCH   1   7
ATOM      7  C   UNL     1       4.936  -2.118  -4.647  1.00  0.00     0.037 C 
BRANCH   7   8
ATOM      8  C   UNL     1       4.674  -0.655  -4.242  1.00  0.00     0.020 C 
BRANCH   8   9
ATOM      9  C   UNL     1       4.655   0.368  -5.388  1.00  0.00     0.078 C 
BRANCH   9  10
ATOM     10  N   UNL     1       3.474   0.316  -6.239  1.00  0.00    -0.330 NA
ATOM     11  H   UNL     1       2.964   1.196  -6.181  1.00  0.00     0.118 HD
ATOM     12  H   UNL     1       2.828  -0.397  -5.900  1.00  0.00     0.118 HD
ENDBRANCH   9  10
ENDBRANCH   8   9
ENDBRANCH   7   8
ENDBRANCH   1   7
BRANCH   4  13
ATOM     13  N   UNL     1       9.821  -3.268  -7.457  1.00  0.00    -0.362 N 
ATOM     14  H   UNL     1      10.422  -2.467  -7.606  1.00  0.00     0.166 HD
BRANCH  13  15
ATOM     15  C   UNL     1      10.121  -4.414  -8.145  1.00  0.00     0.083 C 
BRANCH  15  16
ATOM     16  C   UNL     1      10.628  -5.567  -7.687  1.00  0.00     0.027 C 
BRANCH  16  17
ATOM     17  C   UNL     1      10.464  -6.822  -8.437  1.00  0.00    -0.003 A 
ATOM     18  C   UNL     1      11.537  -7.457  -9.087  1.00  0.00    -0.041 A 
ATOM     19  C   UNL     1       9.203  -7.423  -8.566  1.00  0.00     0.119 A 
ATOM     20  C   UNL     1      11.287  -8.639  -9.800  1.00  0.00     0.024 A 
ATOM     21  N   UNL     1       8.948  -8.572  -9.234  1.00  0.00    -0.264 NA
ATOM     22  C   UNL     1      10.001  -9.155  -9.834  1.00  0.00     0.111 A 
ATOM     23  C   UNL     1      12.930  -6.895  -9.077  1.00  0.00     0.045 C 
ENDBRANCH  16  17
ENDBRANCH  15  16
ENDBRANCH  13  15
ENDBRANCH   4  13
TORSDOF 8
ENDMDL
MODEL 9
REMARK VINA RESULT:    -4.703      1.575      8.494
REMARK INTER + INTRA:          -7.413
REMARK INTER:                  -6.896
REMARK INTRA:                  -0.517
REMARK UNBOUND:                -0.648
REMARK SMILES Cc1ccncc1/C=C/Nc1ccc(CCCN)cc1
REMARK SMILES IDX 14 1 13 2 12 3 11 4 20 5 19 6 15 7 16 8 17 9 18 10 10 13
REMARK SMILES IDX 9 15 8 16 7 17 2 18 6 19 3 20 5 21 4 22 1 23
REMARK H PARENT 18 11 18 12 10 14
ROOT
ATOM      1  C   UNL     1       7.748  -2.388  -6.085  1.00  0.00    -0.048 A 
ATOM      2  C   UNL     1       8.865  -2.942  -5.457  1.00  0.00     0.006 A 
ATOM      3  C   UNL     1       9.810  -3.656  -6.189  1.00  0.00     0.026 A 
ATOM      4  C   UNL     1       9.641  -3.912  -7.552  1.00  0.00     0.038 A 
ATOM      5  C   UNL     1       8.492  -3.405  -8.171  1.00  0.00     0.026 A 
ATOM      6  C   UNL     1       7.555  -2.652  -7.447  1.00  0.00     0.006 A 
ENDROOT
BRANCH   1   7
ATOM      7  C   UNL     1       6.771  -1.528  -5.323  1.00  0.00     0.037 C 
BRANCH   7   8
ATOM      8  C   UNL     1       5.445  -1.193  -6.033  1.00  0.00     0.020 C 
BRANCH   8   9
ATOM      9  C   UNL     1       4.704   0.052  -5.523  1.00  0.00     0.078 C 
BRANCH   9  10
ATOM     10  N   UNL     1       3.541   0.441  -6.308  1.00  0.00    -0.330 NA
ATOM     11  H   UNL     1       3.065   1.223  -5.861  1.00  0.00     0.118 HD
ATOM     12  H   UNL     1       2.860  -0.319  -6.327  1.00  0.00     0.118 HD
ENDBRANCH   9  10
ENDBRANCH   8   9
ENDBRANCH   7   8
ENDBRANCH   1   7
BRANCH   4  13
ATOM     13  N   UNL     1      10.530  -4.733  -8.271  1.00  0.00    -0.362 N 
ATOM     14  H   UNL     1      11.077  -4.284  -8.995  1.00  0.00     0.166 HD
BRANCH  13  15
ATOM     15  C   UNL     1      10.523  -6.102  -8.248  1.00  0.00     0.083 C 
BRANCH  15  16
ATOM     16  C   UNL     1      11.487  -6.959  -8.612  1.00  0.00     0.027 C 
BRANCH  16  17
ATOM     17  C   UNL     1      11.180  -8.155  -9.411  1.00  0.00    -0.003 A 
ATOM     18  C   UNL     1      12.097  -8.707 -10.324  1.00  0.00    -0.041 A 
ATOM     19  C   UNL     1       9.927  -8.779  -9.320  1.00  0.00     0.119 A 
ATOM     20  C   UNL     1      11.714  -9.837 -11.063  1.00  0.00     0.024 A 
ATOM     21  N   UNL     1       9.548  -9.879 -10.013  1.00  0.00    -0.264 NA
ATOM     22  C   UNL     1      10.455 -10.383 -10.868  1.00  0.00     0.111 A 
ATOM     23  C   UNL     1      13.455  -8.110 -10.562  1.00  0.00     0.045 C 
ENDBRANCH  16  17
ENDBRANCH  15  16
ENDBRANCH  13  15
ENDBRANCH   4  13
TORSDOF 8
ENDMDL
