MODEL 1
REMARK VINA RESULT:    -4.308      0.000      0.000
REMARK INTER + INTRA:          -6.915
REMARK INTER:                  -6.197
REMARK INTRA:                  -0.718
REMARK UNBOUND:                -0.718
REMARK SMILES Cc1ccncc1/C=C/Nc1ccc(CCCN)cc1
REMARK SMILES IDX 14 1 13 2 12 3 11 4 20 5 19 6 15 7 16 8 17 9 18 10 10 13
REMARK SMILES IDX 9 15 8 16 7 17 2 18 6 19 3 20 5 21 4 22 1 23
REMARK H PARENT 18 11 18 12 10 14
ROOT
ATOM      1  C   UNL     1       7.309  -5.843  11.058  1.00  0.00    -0.048 A 
ATOM      2  C   UNL     1       7.597  -7.018  10.359  1.00  0.00     0.006 A 
ATOM      3  C   UNL     1       8.154  -8.114  11.012  1.00  0.00     0.026 A 
ATOM      4  C   UNL     1       8.516  -8.057  12.360  1.00  0.00     0.038 A 
ATOM      5  C   UNL     1       8.280  -6.861  13.048  1.00  0.00     0.026 A 
ATOM      6  C   UNL     1       7.684  -5.766  12.405  1.00  0.00     0.006 A 
ENDROOT
BRANCH   1   7
ATOM      7  C   UNL     1       6.614  -4.686  10.386  1.00  0.00     0.037 C 
BRANCH   7   8
ATOM      8  C   UNL     1       7.510  -3.679   9.640  1.00  0.00     0.020 C 
BRANCH   8   9
ATOM      9  C   UNL     1       6.781  -2.631   8.787  1.00  0.00     0.078 C 
BRANCH   9  10
ATOM     10  N   UNL     1       5.692  -1.938   9.461  1.00  0.00    -0.330 NA
ATOM     11  H   UNL     1       5.199  -2.582  10.079  1.00  0.00     0.118 HD
ATOM     12  H   UNL     1       4.998  -1.628   8.780  1.00  0.00     0.118 HD
ENDBRANCH   9  10
ENDBRANCH   8   9
ENDBRANCH   7   8
ENDBRANCH   1   7
BRANCH   4  13
ATOM     13  N   UNL     1       9.187  -9.119  12.995  1.00  0.00    -0.362 N 
ATOM     14  H   UNL     1      10.066  -8.896  13.446  1.00  0.00     0.166 HD
BRANCH  13  15
ATOM     15  C   UNL     1       8.884 -10.445  12.834  1.00  0.00     0.083 C 
BRANCH  15  16
ATOM     16  C   UNL     1       8.842 -11.421  13.751  1.00  0.00     0.027 C 
BRANCH  16  17
ATOM     17  C   UNL     1       7.693 -11.563  14.659  1.00  0.00    -0.003 A 
ATOM     18  C   UNL     1       7.767 -11.239  16.025  1.00  0.00    -0.041 A 
ATOM     19  C   UNL     1       6.470 -12.073  14.197  1.00  0.00     0.119 A 
ATOM     20  C   UNL     1       6.630 -11.428  16.825  1.00  0.00     0.024 A 
ATOM     21  N   UNL     1       5.359 -12.245  14.951  1.00  0.00    -0.264 NA
ATOM     22  C   UNL     1       5.467 -11.914  16.250  1.00  0.00     0.111 A 
ATOM     23  C   UNL     1       9.030 -10.734  16.665  1.00  0.00     0.045 C 
ENDBRANCH  16  17
ENDBRANCH  15  16
ENDBRANCH  13  15
ENDBRANCH   4  13
TORSDOF 8
ENDMDL
MODEL 2
REMARK VINA RESULT:    -4.293      3.303      8.463
REMARK INTER + INTRA:          -6.894
REMARK INTER:                  -6.055
REMARK INTRA:                  -0.839
REMARK UNBOUND:                -0.718
REMARK SMILES Cc1ccncc1/C=C/Nc1ccc(CCCN)cc1
REMARK SMILES IDX 14 1 13 2 12 3 11 4 20 5 19 6 15 7 16 8 17 9 18 10 10 13
REMARK SMILES IDX 9 15 8 16 7 17 2 18 6 19 3 20 5 21 4 22 1 23
REMARK H PARENT 18 11 18 12 10 14
ROOT
ATOM      1  C   UNL     1       9.278  -8.626  12.963  1.00  0.00    -0.048 A 
ATOM      2  C   UNL     1       9.142  -9.089  11.652  1.00  0.00     0.006 A 
ATOM      3  C   UNL     1       8.430  -8.353  10.710  1.00  0.00     0.026 A 
ATOM      4  C   UNL     1       7.764  -7.173  11.052  1.00  0.00     0.038 A 
ATOM      5  C   UNL     1       7.853  -6.738  12.380  1.00  0.00     0.026 A 
ATOM      6  C   UNL     1       8.601  -7.456  13.325  1.00  0.00     0.006 A 
ENDROOT
BRANCH   1   7
ATOM      7  C   UNL     1      10.131  -9.363  13.965  1.00  0.00     0.037 C 
BRANCH   7   8
ATOM      8  C   UNL     1      11.626  -9.512  13.626  1.00  0.00     0.020 C 
BRANCH   8   9
ATOM      9  C   UNL     1      12.393  -8.205  13.373  1.00  0.00     0.078 C 
BRANCH   9  10
ATOM     10  N   UNL     1      12.491  -7.810  11.975  1.00  0.00    -0.330 NA
ATOM     11  H   UNL     1      11.564  -7.594  11.608  1.00  0.00     0.118 HD
ATOM     12  H   UNL     1      12.833  -8.588  11.412  1.00  0.00     0.118 HD
ENDBRANCH   9  10
ENDBRANCH   8   9
ENDBRANCH   7   8
ENDBRANCH   1   7
BRANCH   4  13
ATOM     13  N   UNL     1       6.945  -6.487  10.135  1.00  0.00    -0.362 N 
ATOM     14  H   UNL     1       6.810  -6.924   9.232  1.00  0.00     0.166 HD
BRANCH  13  15
ATOM     15  C   UNL     1       6.539  -5.186  10.270  1.00  0.00     0.083 C 
BRANCH  15  16
ATOM     16  C   UNL     1       6.646  -4.173   9.400  1.00  0.00     0.027 C 
BRANCH  16  17
ATOM     17  C   UNL     1       7.536  -3.032   9.664  1.00  0.00    -0.003 A 
ATOM     18  C   UNL     1       7.595  -1.910   8.819  1.00  0.00    -0.041 A 
ATOM     19  C   UNL     1       8.403  -3.036  10.767  1.00  0.00     0.119 A 
ATOM     20  C   UNL     1       8.490  -0.876   9.133  1.00  0.00     0.024 A 
ATOM     21  N   UNL     1       9.260  -2.041  11.094  1.00  0.00    -0.264 NA
ATOM     22  C   UNL     1       9.279  -0.980  10.268  1.00  0.00     0.111 A 
ATOM     23  C   UNL     1       6.761  -1.796   7.574  1.00  0.00     0.045 C 
ENDBRANCH  16  17
ENDBRANCH  15  16
ENDBRANCH  13  15
ENDBRANCH   4  13
TORSDOF 8
ENDMDL
MODEL 3
REMARK VINA RESULT:    -4.117     16.019     18.268
REMARK INTER + INTRA:          -6.640
REMARK INTER:                  -6.178
REMARK INTRA:                  -0.462
REMARK UNBOUND:                -0.718
REMARK SMILES Cc1ccncc1/C=C/Nc1ccc(CCCN)cc1
REMARK SMILES IDX 14 1 13 2 12 3 11 4 20 5 19 6 15 7 16 8 17 9 18 10 10 13
REMARK SMILES IDX 9 15 8 16 7 17 2 18 6 19 3 20 5 21 4 22 1 23
REMARK H PARENT 18 11 18 12 10 14
ROOT
ATOM      1  C   UNL     1       1.171  -3.862  -1.811  1.00  0.00    -0.048 A 
ATOM      2  C   UNL     1       0.885  -2.872  -2.754  1.00  0.00     0.006 A 
ATOM      3  C   UNL     1       0.893  -1.527  -2.396  1.00  0.00     0.026 A 
ATOM      4  C   UNL     1       1.107  -1.122  -1.076  1.00  0.00     0.038 A 
ATOM      5  C   UNL     1       1.337  -2.117  -0.118  1.00  0.00     0.026 A 
ATOM      6  C   UNL     1       1.368  -3.472  -0.481  1.00  0.00     0.006 A 
ENDROOT
BRANCH   1   7
ATOM      7  C   UNL     1       1.265  -5.314  -2.209  1.00  0.00     0.037 C 
BRANCH   7   8
ATOM      8  C   UNL     1       2.433  -5.703  -3.135  1.00  0.00     0.020 C 
BRANCH   8   9
ATOM      9  C   UNL     1       3.736  -4.912  -2.945  1.00  0.00     0.078 C 
BRANCH   9  10
ATOM     10  N   UNL     1       4.806  -5.640  -2.277  1.00  0.00    -0.330 NA
ATOM     11  H   UNL     1       5.711  -5.315  -2.614  1.00  0.00     0.118 HD
ATOM     12  H   UNL     1       4.763  -6.629  -2.520  1.00  0.00     0.118 HD
ENDBRANCH   9  10
ENDBRANCH   8   9
ENDBRANCH   7   8
ENDBRANCH   1   7
BRANCH   4  13
ATOM     13  N   UNL     1       0.998   0.226  -0.684  1.00  0.00    -0.362 N 
ATOM     14  H   UNL     1       0.251   0.763  -1.107  1.00  0.00     0.166 HD
BRANCH  13  15
ATOM     15  C   UNL     1       1.956   0.920   0.008  1.00  0.00     0.083 C 
BRANCH  15  16
ATOM     16  C   UNL     1       1.977   2.213   0.356  1.00  0.00     0.027 C 
BRANCH  16  17
ATOM     17  C   UNL     1       0.805   2.856   0.969  1.00  0.00    -0.003 A 
ATOM     18  C   UNL     1       0.367   4.139   0.595  1.00  0.00    -0.041 A 
ATOM     19  C   UNL     1       0.088   2.220   1.993  1.00  0.00     0.119 A 
ATOM     20  C   UNL     1      -0.747   4.689   1.247  1.00  0.00     0.024 A 
ATOM     21  N   UNL     1      -0.999   2.727   2.621  1.00  0.00    -0.264 NA
ATOM     22  C   UNL     1      -1.392   3.952   2.228  1.00  0.00     0.111 A 
ATOM     23  C   UNL     1       1.073   4.957  -0.450  1.00  0.00     0.045 C 
ENDBRANCH  16  17
ENDBRANCH  15  16
ENDBRANCH  13  15
ENDBRANCH   4  13
TORSDOF 8
ENDMDL
MODEL 4
REMARK VINA RESULT:    -4.008      4.674      9.871
REMARK INTER + INTRA:          -6.484
REMARK INTER:                  -5.772
REMARK INTRA:                  -0.712
REMARK UNBOUND:                -0.718
REMARK SMILES Cc1ccncc1/C=C/Nc1ccc(CCCN)cc1
REMARK SMILES IDX 14 1 13 2 12 3 11 4 20 5 19 6 15 7 16 8 17 9 18 10 10 13
REMARK SMILES IDX 9 15 8 16 7 17 2 18 6 19 3 20 5 21 4 22 1 23
REMARK H PARENT 18 11 18 12 10 14
ROOT
ATOM      1  C   UNL     1       7.020  -4.183   9.899  1.00  0.00    -0.048 A 
ATOM      2  C   UNL     1       6.515  -3.386   8.870  1.00  0.00     0.006 A 
ATOM      3  C   UNL     1       7.067  -2.136   8.604  1.00  0.00     0.026 A 
ATOM      4  C   UNL     1       8.085  -1.601   9.397  1.00  0.00     0.038 A 
ATOM      5  C   UNL     1       8.553  -2.376  10.465  1.00  0.00     0.026 A 
ATOM      6  C   UNL     1       8.027  -3.653  10.714  1.00  0.00     0.006 A 
ENDROOT
BRANCH   1   7
ATOM      7  C   UNL     1       6.499  -5.579  10.132  1.00  0.00     0.037 C 
BRANCH   7   8
ATOM      8  C   UNL     1       7.524  -6.726  10.035  1.00  0.00     0.020 C 
BRANCH   8   9
ATOM      9  C   UNL     1       7.805  -7.490  11.337  1.00  0.00     0.078 C 
BRANCH   9  10
ATOM     10  N   UNL     1       8.608  -6.767  12.314  1.00  0.00    -0.330 NA
ATOM     11  H   UNL     1       9.365  -7.361  12.651  1.00  0.00     0.118 HD
ATOM     12  H   UNL     1       8.046  -6.547  13.137  1.00  0.00     0.118 HD
ENDBRANCH   9  10
ENDBRANCH   8   9
ENDBRANCH   7   8
ENDBRANCH   1   7
BRANCH   4  13
ATOM     13  N   UNL     1       8.565  -0.291   9.208  1.00  0.00    -0.362 N 
ATOM     14  H   UNL     1       8.413   0.121   8.296  1.00  0.00     0.166 HD
BRANCH  13  15
ATOM     15  C   UNL     1       9.427   0.356  10.054  1.00  0.00     0.083 C 
BRANCH  15  16
ATOM     16  C   UNL     1       9.152   1.141  11.104  1.00  0.00     0.027 C 
BRANCH  16  17
ATOM     17  C   UNL     1      10.001   1.132  12.305  1.00  0.00    -0.003 A 
ATOM     18  C   UNL     1       9.653   1.821  13.480  1.00  0.00    -0.041 A 
ATOM     19  C   UNL     1      11.231   0.456  12.312  1.00  0.00     0.119 A 
ATOM     20  C   UNL     1      10.533   1.779  14.572  1.00  0.00     0.024 A 
ATOM     21  N   UNL     1      12.083   0.391  13.361  1.00  0.00    -0.264 NA
ATOM     22  C   UNL     1      11.710   1.054  14.470  1.00  0.00     0.111 A 
ATOM     23  C   UNL     1       8.391   2.630  13.594  1.00  0.00     0.045 C 
ENDBRANCH  16  17
ENDBRANCH  15  16
ENDBRANCH  13  15
ENDBRANCH   4  13
TORSDOF 8
ENDMDL
MODEL 5
REMARK VINA RESULT:    -3.981      6.320     10.144
REMARK INTER + INTRA:          -6.444
REMARK INTER:                  -5.744
REMARK INTRA:                  -0.700
REMARK UNBOUND:                -0.718
REMARK SMILES Cc1ccncc1/C=C/Nc1ccc(CCCN)cc1
REMARK SMILES IDX 14 1 13 2 12 3 11 4 20 5 19 6 15 7 16 8 17 9 18 10 10 13
REMARK SMILES IDX 9 15 8 16 7 17 2 18 6 19 3 20 5 21 4 22 1 23
REMARK H PARENT 18 11 18 12 10 14
ROOT
ATOM      1  C   UNL     1      10.947   2.192  14.236  1.00  0.00    -0.048 A 
ATOM      2  C   UNL     1       9.660   2.638  13.931  1.00  0.00     0.006 A 
ATOM      3  C   UNL     1       8.971   2.128  12.834  1.00  0.00     0.026 A 
ATOM      4  C   UNL     1       9.564   1.215  11.958  1.00  0.00     0.038 A 
ATOM      5  C   UNL     1      10.876   0.809  12.230  1.00  0.00     0.026 A 
ATOM      6  C   UNL     1      11.561   1.292  13.356  1.00  0.00     0.006 A 
ENDROOT
BRANCH   1   7
ATOM      7  C   UNL     1      11.663   2.662  15.477  1.00  0.00     0.037 C 
BRANCH   7   8
ATOM      8  C   UNL     1      13.122   3.123  15.301  1.00  0.00     0.020 C 
BRANCH   8   9
ATOM      9  C   UNL     1      13.319   4.511  14.675  1.00  0.00     0.078 C 
BRANCH   9  10
ATOM     10  N   UNL     1      13.172   4.560  13.227  1.00  0.00    -0.330 NA
ATOM     11  H   UNL     1      12.211   4.340  12.967  1.00  0.00     0.118 HD
ATOM     12  H   UNL     1      13.745   3.837  12.791  1.00  0.00     0.118 HD
ENDBRANCH   9  10
ENDBRANCH   8   9
ENDBRANCH   7   8
ENDBRANCH   1   7
BRANCH   4  13
ATOM     13  N   UNL     1       8.920   0.786  10.782  1.00  0.00    -0.362 N 
ATOM     14  H   UNL     1       8.090   1.296  10.506  1.00  0.00     0.166 HD
BRANCH  13  15
ATOM     15  C   UNL     1       9.170  -0.399  10.141  1.00  0.00     0.083 C 
BRANCH  15  16
ATOM     16  C   UNL     1       8.363  -1.118   9.349  1.00  0.00     0.027 C 
BRANCH  16  17
ATOM     17  C   UNL     1       7.916  -2.464   9.738  1.00  0.00    -0.003 A 
ATOM     18  C   UNL     1       6.901  -3.150   9.048  1.00  0.00    -0.041 A 
ATOM     19  C   UNL     1       8.468  -3.111  10.854  1.00  0.00     0.119 A 
ATOM     20  C   UNL     1       6.519  -4.422   9.502  1.00  0.00     0.024 A 
ATOM     21  N   UNL     1       8.124  -4.344  11.294  1.00  0.00    -0.264 NA
ATOM     22  C   UNL     1       7.157  -4.972  10.602  1.00  0.00     0.111 A 
ATOM     23  C   UNL     1       6.185  -2.554   7.869  1.00  0.00     0.045 C 
ENDBRANCH  16  17
ENDBRANCH  15  16
ENDBRANCH  13  15
ENDBRANCH   4  13
TORSDOF 8
ENDMDL
MODEL 6
REMARK VINA RESULT:    -3.968      6.837     10.434
REMARK INTER + INTRA:          -6.426
REMARK INTER:                  -5.792
REMARK INTRA:                  -0.633
REMARK UNBOUND:                -0.718
REMARK SMILES Cc1ccncc1/C=C/Nc1ccc(CCCN)cc1
REMARK SMILES IDX 14 1 13 2 12 3 11 4 20 5 19 6 15 7 16 8 17 9 18 10 10 13
REMARK SMILES IDX 9 15 8 16 7 17 2 18 6 19 3 20 5 21 4 22 1 23
REMARK H PARENT 18 11 18 12 10 14
ROOT
ATOM      1  C   UNL     1      11.422   2.348  13.527  1.00  0.00    -0.048 A 
ATOM      2  C   UNL     1      10.366   2.369  12.613  1.00  0.00     0.006 A 
ATOM      3  C   UNL     1       9.976   1.208  11.952  1.00  0.00     0.026 A 
ATOM      4  C   UNL     1      10.668   0.005  12.115  1.00  0.00     0.038 A 
ATOM      5  C   UNL     1      11.762  -0.004  12.987  1.00  0.00     0.026 A 
ATOM      6  C   UNL     1      12.136   1.155  13.686  1.00  0.00     0.006 A 
ENDROOT
BRANCH   1   7
ATOM      7  C   UNL     1      11.788   3.575  14.324  1.00  0.00     0.037 C 
BRANCH   7   8
ATOM      8  C   UNL     1      13.204   4.142  14.109  1.00  0.00     0.020 C 
BRANCH   8   9
ATOM      9  C   UNL     1      13.290   5.463  13.329  1.00  0.00     0.078 C 
BRANCH   9  10
ATOM     10  N   UNL     1      13.098   5.341  11.891  1.00  0.00    -0.330 NA
ATOM     11  H   UNL     1      13.570   6.106  11.411  1.00  0.00     0.118 HD
ATOM     12  H   UNL     1      12.110   5.441  11.658  1.00  0.00     0.118 HD
ENDBRANCH   9  10
ENDBRANCH   8   9
ENDBRANCH   7   8
ENDBRANCH   1   7
BRANCH   4  13
ATOM     13  N   UNL     1      10.354  -1.142  11.360  1.00  0.00    -0.362 N 
ATOM     14  H   UNL     1      11.075  -1.848  11.287  1.00  0.00     0.166 HD
BRANCH  13  15
ATOM     15  C   UNL     1       9.276  -1.257  10.524  1.00  0.00     0.083 C 
BRANCH  15  16
ATOM     16  C   UNL     1       8.481  -2.314  10.309  1.00  0.00     0.027 C 
BRANCH  16  17
ATOM     17  C   UNL     1       7.569  -2.361   9.157  1.00  0.00    -0.003 A 
ATOM     18  C   UNL     1       6.721  -3.455   8.910  1.00  0.00    -0.041 A 
ATOM     19  C   UNL     1       7.537  -1.315   8.222  1.00  0.00     0.119 A 
ATOM     20  C   UNL     1       5.899  -3.427   7.772  1.00  0.00     0.024 A 
ATOM     21  N   UNL     1       6.739  -1.264   7.130  1.00  0.00    -0.264 NA
ATOM     22  C   UNL     1       5.935  -2.324   6.934  1.00  0.00     0.111 A 
ATOM     23  C   UNL     1       6.691  -4.666   9.798  1.00  0.00     0.045 C 
ENDBRANCH  16  17
ENDBRANCH  15  16
ENDBRANCH  13  15
ENDBRANCH   4  13
TORSDOF 8
ENDMDL
MODEL 7
REMARK VINA RESULT:    -3.904      1.593      2.070
REMARK INTER + INTRA:          -6.335
REMARK INTER:                  -5.668
REMARK INTRA:                  -0.667
REMARK UNBOUND:                -0.718
REMARK SMILES Cc1ccncc1/C=C/Nc1ccc(CCCN)cc1
REMARK SMILES IDX 14 1 13 2 12 3 11 4 20 5 19 6 15 7 16 8 17 9 18 10 10 13
REMARK SMILES IDX 9 15 8 16 7 17 2 18 6 19 3 20 5 21 4 22 1 23
REMARK H PARENT 18 11 18 12 10 14
ROOT
ATOM      1  C   UNL     1       7.326  -5.894  11.049  1.00  0.00    -0.048 A 
ATOM      2  C   UNL     1       7.630  -5.535  12.363  1.00  0.00     0.006 A 
ATOM      3  C   UNL     1       8.235  -6.444  13.227  1.00  0.00     0.026 A 
ATOM      4  C   UNL     1       8.487  -7.763  12.841  1.00  0.00     0.038 A 
ATOM      5  C   UNL     1       8.131  -8.141  11.542  1.00  0.00     0.026 A 
ATOM      6  C   UNL     1       7.556  -7.218  10.655  1.00  0.00     0.006 A 
ENDROOT
BRANCH   1   7
ATOM      7  C   UNL     1       6.764  -4.889  10.075  1.00  0.00     0.037 C 
BRANCH   7   8
ATOM      8  C   UNL     1       7.555  -3.578   9.901  1.00  0.00     0.020 C 
BRANCH   8   9
ATOM      9  C   UNL     1       7.400  -2.873   8.545  1.00  0.00     0.078 C 
BRANCH   9  10
ATOM     10  N   UNL     1       8.499  -3.082   7.614  1.00  0.00    -0.330 NA
ATOM     11  H   UNL     1       8.186  -3.646   6.825  1.00  0.00     0.118 HD
ATOM     12  H   UNL     1       9.240  -3.623   8.060  1.00  0.00     0.118 HD
ENDBRANCH   9  10
ENDBRANCH   8   9
ENDBRANCH   7   8
ENDBRANCH   1   7
BRANCH   4  13
ATOM     13  N   UNL     1       8.988  -8.719  13.745  1.00  0.00    -0.362 N 
ATOM     14  H   UNL     1       8.723  -9.682  13.580  1.00  0.00     0.166 HD
BRANCH  13  15
ATOM     15  C   UNL     1       9.576  -8.427  14.948  1.00  0.00     0.083 C 
BRANCH  15  16
ATOM     16  C   UNL     1       9.387  -9.003  16.143  1.00  0.00     0.027 C 
BRANCH  16  17
ATOM     17  C   UNL     1       8.305  -9.975  16.358  1.00  0.00    -0.003 A 
ATOM     18  C   UNL     1       8.553 -11.326  16.658  1.00  0.00    -0.041 A 
ATOM     19  C   UNL     1       6.960  -9.594  16.233  1.00  0.00     0.119 A 
ATOM     20  C   UNL     1       7.461 -12.191  16.825  1.00  0.00     0.024 A 
ATOM     21  N   UNL     1       5.895 -10.410  16.408  1.00  0.00    -0.264 NA
ATOM     22  C   UNL     1       6.173 -11.692  16.704  1.00  0.00     0.111 A 
ATOM     23  C   UNL     1       9.944 -11.883  16.769  1.00  0.00     0.045 C 
ENDBRANCH  16  17
ENDBRANCH  15  16
ENDBRANCH  13  15
ENDBRANCH   4  13
TORSDOF 8
ENDMDL
MODEL 8
REMARK VINA RESULT:    -3.840      1.462      2.023
REMARK INTER + INTRA:          -6.242
REMARK INTER:                  -5.484
REMARK INTRA:                  -0.759
REMARK UNBOUND:                -0.718
REMARK SMILES Cc1ccncc1/C=C/Nc1ccc(CCCN)cc1
REMARK SMILES IDX 14 1 13 2 12 3 11 4 20 5 19 6 15 7 16 8 17 9 18 10 10 13
REMARK SMILES IDX 9 15 8 16 7 17 2 18 6 19 3 20 5 21 4 22 1 23
REMARK H PARENT 18 11 18 12 10 14
ROOT
ATOM      1  C   UNL     1       7.013  -5.582  10.797  1.00  0.00    -0.048 A 
ATOM      2  C   UNL     1       7.348  -6.747  10.104  1.00  0.00     0.006 A 
ATOM      3  C   UNL     1       7.954  -7.815  10.760  1.00  0.00     0.026 A 
ATOM      4  C   UNL     1       8.320  -7.734  12.106  1.00  0.00     0.038 A 
ATOM      5  C   UNL     1       8.036  -6.545  12.788  1.00  0.00     0.026 A 
ATOM      6  C   UNL     1       7.390  -5.480  12.142  1.00  0.00     0.006 A 
ENDROOT
BRANCH   1   7
ATOM      7  C   UNL     1       6.266  -4.460  10.122  1.00  0.00     0.037 C 
BRANCH   7   8
ATOM      8  C   UNL     1       7.068  -3.180   9.816  1.00  0.00     0.020 C 
BRANCH   8   9
ATOM      9  C   UNL     1       7.853  -3.177   8.495  1.00  0.00     0.078 C 
BRANCH   9  10
ATOM     10  N   UNL     1       8.600  -1.956   8.227  1.00  0.00    -0.330 NA
ATOM     11  H   UNL     1       8.268  -1.527   7.364  1.00  0.00     0.118 HD
ATOM     12  H   UNL     1       9.583  -2.175   8.062  1.00  0.00     0.118 HD
ENDBRANCH   9  10
ENDBRANCH   8   9
ENDBRANCH   7   8
ENDBRANCH   1   7
BRANCH   4  13
ATOM     13  N   UNL     1       9.039  -8.763  12.745  1.00  0.00    -0.362 N 
ATOM     14  H   UNL     1       9.453  -8.538  13.641  1.00  0.00     0.166 HD
BRANCH  13  15
ATOM     15  C   UNL     1       9.433  -9.930  12.146  1.00  0.00     0.083 C 
BRANCH  15  16
ATOM     16  C   UNL     1       9.228 -11.194  12.541  1.00  0.00     0.027 C 
BRANCH  16  17
ATOM     17  C   UNL     1       8.765 -11.501  13.903  1.00  0.00    -0.003 A 
ATOM     18  C   UNL     1       7.478 -12.000  14.167  1.00  0.00    -0.041 A 
ATOM     19  C   UNL     1       9.591 -11.269  15.013  1.00  0.00     0.119 A 
ATOM     20  C   UNL     1       7.110 -12.244  15.499  1.00  0.00     0.024 A 
ATOM     21  N   UNL     1       9.259 -11.515  16.302  1.00  0.00    -0.264 NA
ATOM     22  C   UNL     1       8.023 -12.001  16.513  1.00  0.00     0.111 A 
ATOM     23  C   UNL     1       6.471 -12.245  13.078  1.00  0.00     0.045 C 
ENDBRANCH  16  17
ENDBRANCH  15  16
ENDBRANCH  13  15
ENDBRANCH   4  13
TORSDOF 8
ENDMDL
