MODEL 1
REMARK VINA RESULT:    -4.971      0.000      0.000
REMARK INTER + INTRA:          -7.810
REMARK INTER:                  -7.151
REMARK INTRA:                  -0.659
REMARK UNBOUND:                -0.659
REMARK SMILES Cc1ccncc1/C=C/Nc1ccc(CCCN)cc1
REMARK SMILES IDX 14 1 13 2 12 3 11 4 20 5 19 6 15 7 16 8 17 9 18 10 10 13
REMARK SMILES IDX 9 15 8 16 7 17 2 18 6 19 3 20 5 21 4 22 1 23
REMARK H PARENT 18 11 18 12 10 14
ROOT
ATOM      1  C   UNL     1     -13.528   8.088   0.017  1.00  0.00    -0.048 A 
ATOM      2  C   UNL     1     -14.247   7.176   0.792  1.00  0.00     0.006 A 
ATOM      3  C   UNL     1     -13.695   5.946   1.137  1.00  0.00     0.026 A 
ATOM      4  C   UNL     1     -12.444   5.546   0.662  1.00  0.00     0.038 A 
ATOM      5  C   UNL     1     -11.745   6.437  -0.162  1.00  0.00     0.026 A 
ATOM      6  C   UNL     1     -12.281   7.694  -0.482  1.00  0.00     0.006 A 
ENDROOT
BRANCH   1   7
ATOM      7  C   UNL     1     -14.074   9.463  -0.279  1.00  0.00     0.037 C 
BRANCH   7   8
ATOM      8  C   UNL     1     -14.231   9.840  -1.765  1.00  0.00     0.020 C 
BRANCH   8   9
ATOM      9  C   UNL     1     -15.606   9.561  -2.389  1.00  0.00     0.078 C 
BRANCH   9  10
ATOM     10  N   UNL     1     -15.699   8.320  -3.145  1.00  0.00    -0.330 NA
ATOM     11  H   UNL     1     -14.771   7.915  -3.266  1.00  0.00     0.118 HD
ATOM     12  H   UNL     1     -16.040   8.507  -4.088  1.00  0.00     0.118 HD
ENDBRANCH   9  10
ENDBRANCH   8   9
ENDBRANCH   7   8
ENDBRANCH   1   7
BRANCH   4  13
ATOM     13  N   UNL     1     -11.931   4.258   0.908  1.00  0.00    -0.362 N 
ATOM     14  H   UNL     1     -12.021   3.907   1.853  1.00  0.00     0.166 HD
BRANCH  13  15
ATOM     15  C   UNL     1     -11.109   3.567   0.057  1.00  0.00     0.083 C 
BRANCH  15  16
ATOM     16  C   UNL     1     -10.332   2.506   0.308  1.00  0.00     0.027 C 
BRANCH  16  17
ATOM     17  C   UNL     1      -9.246   2.123  -0.607  1.00  0.00    -0.003 A 
ATOM     18  C   UNL     1      -8.049   1.541  -0.154  1.00  0.00    -0.041 A 
ATOM     19  C   UNL     1      -9.349   2.362  -1.985  1.00  0.00     0.119 A 
ATOM     20  C   UNL     1      -7.054   1.228  -1.093  1.00  0.00     0.024 A 
ATOM     21  N   UNL     1      -8.407   2.051  -2.906  1.00  0.00    -0.264 NA
ATOM     22  C   UNL     1      -7.281   1.487  -2.436  1.00  0.00     0.111 A 
ATOM     23  C   UNL     1      -7.782   1.277   1.301  1.00  0.00     0.045 C 
ENDBRANCH  16  17
ENDBRANCH  15  16
ENDBRANCH  13  15
ENDBRANCH   4  13
TORSDOF 8
ENDMDL
MODEL 2
REMARK VINA RESULT:    -4.808      1.646      8.540
REMARK INTER + INTRA:          -7.575
REMARK INTER:                  -7.023
REMARK INTRA:                  -0.553
REMARK UNBOUND:                -0.659
REMARK SMILES Cc1ccncc1/C=C/Nc1ccc(CCCN)cc1
REMARK SMILES IDX 14 1 13 2 12 3 11 4 20 5 19 6 15 7 16 8 17 9 18 10 10 13
REMARK SMILES IDX 9 15 8 16 7 17 2 18 6 19 3 20 5 21 4 22 1 23
REMARK H PARENT 18 11 18 12 10 14
ROOT
ATOM      1  C   UNL     1      -8.806   1.555  -1.223  1.00  0.00    -0.048 A 
ATOM      2  C   UNL     1      -9.024   1.867   0.121  1.00  0.00     0.006 A 
ATOM      3  C   UNL     1     -10.167   2.557   0.514  1.00  0.00     0.026 A 
ATOM      4  C   UNL     1     -11.095   3.028  -0.419  1.00  0.00     0.038 A 
ATOM      5  C   UNL     1     -10.849   2.766  -1.772  1.00  0.00     0.026 A 
ATOM      6  C   UNL     1      -9.717   2.038  -2.170  1.00  0.00     0.006 A 
ENDROOT
BRANCH   1   7
ATOM      7  C   UNL     1      -7.623   0.722  -1.649  1.00  0.00     0.037 C 
BRANCH   7   8
ATOM      8  C   UNL     1      -7.049   1.002  -3.051  1.00  0.00     0.020 C 
BRANCH   8   9
ATOM      9  C   UNL     1      -6.561  -0.224  -3.836  1.00  0.00     0.078 C 
BRANCH   9  10
ATOM     10  N   UNL     1      -5.483  -0.970  -3.203  1.00  0.00    -0.330 NA
ATOM     11  H   UNL     1      -4.647  -0.391  -3.141  1.00  0.00     0.118 HD
ATOM     12  H   UNL     1      -5.220  -1.768  -3.782  1.00  0.00     0.118 HD
ENDBRANCH   9  10
ENDBRANCH   8   9
ENDBRANCH   7   8
ENDBRANCH   1   7
BRANCH   4  13
ATOM     13  N   UNL     1     -12.190   3.828  -0.040  1.00  0.00    -0.362 N 
ATOM     14  H   UNL     1     -13.111   3.426  -0.166  1.00  0.00     0.166 HD
BRANCH  13  15
ATOM     15  C   UNL     1     -12.123   5.168   0.234  1.00  0.00     0.083 C 
BRANCH  15  16
ATOM     16  C   UNL     1     -12.851   5.893   1.093  1.00  0.00     0.027 C 
BRANCH  16  17
ATOM     17  C   UNL     1     -13.619   7.063   0.642  1.00  0.00    -0.003 A 
ATOM     18  C   UNL     1     -15.019   7.138   0.760  1.00  0.00    -0.041 A 
ATOM     19  C   UNL     1     -12.980   8.153   0.033  1.00  0.00     0.119 A 
ATOM     20  C   UNL     1     -15.675   8.282   0.282  1.00  0.00     0.024 A 
ATOM     21  N   UNL     1     -13.595   9.271  -0.417  1.00  0.00    -0.264 NA
ATOM     22  C   UNL     1     -14.932   9.309  -0.278  1.00  0.00     0.111 A 
ATOM     23  C   UNL     1     -15.837   6.020   1.343  1.00  0.00     0.045 C 
ENDBRANCH  16  17
ENDBRANCH  15  16
ENDBRANCH  13  15
ENDBRANCH   4  13
TORSDOF 8
ENDMDL
MODEL 3
REMARK VINA RESULT:    -4.794      1.946      3.943
REMARK INTER + INTRA:          -7.555
REMARK INTER:                  -6.755
REMARK INTRA:                  -0.800
REMARK UNBOUND:                -0.659
REMARK SMILES Cc1ccncc1/C=C/Nc1ccc(CCCN)cc1
REMARK SMILES IDX 14 1 13 2 12 3 11 4 20 5 19 6 15 7 16 8 17 9 18 10 10 13
REMARK SMILES IDX 9 15 8 16 7 17 2 18 6 19 3 20 5 21 4 22 1 23
REMARK H PARENT 18 11 18 12 10 14
ROOT
ATOM      1  C   UNL     1     -12.059   4.300   0.048  1.00  0.00    -0.048 A 
ATOM      2  C   UNL     1     -10.663   4.312   0.051  1.00  0.00     0.006 A 
ATOM      3  C   UNL     1      -9.942   3.240  -0.467  1.00  0.00     0.026 A 
ATOM      4  C   UNL     1     -10.579   2.087  -0.933  1.00  0.00     0.038 A 
ATOM      5  C   UNL     1     -11.977   2.050  -0.884  1.00  0.00     0.026 A 
ATOM      6  C   UNL     1     -12.710   3.144  -0.398  1.00  0.00     0.006 A 
ENDROOT
BRANCH   1   7
ATOM      7  C   UNL     1     -12.850   5.497   0.513  1.00  0.00     0.037 C 
BRANCH   7   8
ATOM      8  C   UNL     1     -12.294   6.883   0.136  1.00  0.00     0.020 C 
BRANCH   8   9
ATOM      9  C   UNL     1     -13.303   8.041   0.149  1.00  0.00     0.078 C 
BRANCH   9  10
ATOM     10  N   UNL     1     -14.266   8.029  -0.943  1.00  0.00    -0.330 NA
ATOM     11  H   UNL     1     -14.201   7.152  -1.457  1.00  0.00     0.118 HD
ATOM     12  H   UNL     1     -14.040   8.759  -1.619  1.00  0.00     0.118 HD
ENDBRANCH   9  10
ENDBRANCH   8   9
ENDBRANCH   7   8
ENDBRANCH   1   7
BRANCH   4  13
ATOM     13  N   UNL     1      -9.855   0.952  -1.347  1.00  0.00    -0.362 N 
ATOM     14  H   UNL     1     -10.297   0.053  -1.202  1.00  0.00     0.166 HD
BRANCH  13  15
ATOM     15  C   UNL     1      -8.526   0.951  -1.682  1.00  0.00     0.083 C 
BRANCH  15  16
ATOM     16  C   UNL     1      -7.496   0.372  -1.052  1.00  0.00     0.027 C 
BRANCH  16  17
ATOM     17  C   UNL     1      -6.511   1.172  -0.308  1.00  0.00    -0.003 A 
ATOM     18  C   UNL     1      -6.726   1.593   1.016  1.00  0.00    -0.041 A 
ATOM     19  C   UNL     1      -5.315   1.585  -0.914  1.00  0.00     0.119 A 
ATOM     20  C   UNL     1      -5.744   2.374   1.643  1.00  0.00     0.024 A 
ATOM     21  N   UNL     1      -4.349   2.323  -0.318  1.00  0.00    -0.264 NA
ATOM     22  C   UNL     1      -4.587   2.698   0.952  1.00  0.00     0.111 A 
ATOM     23  C   UNL     1      -7.986   1.268   1.769  1.00  0.00     0.045 C 
ENDBRANCH  16  17
ENDBRANCH  15  16
ENDBRANCH  13  15
ENDBRANCH   4  13
TORSDOF 8
ENDMDL
MODEL 4
REMARK VINA RESULT:    -4.775      1.224      2.035
REMARK INTER + INTRA:          -7.528
REMARK INTER:                  -6.855
REMARK INTRA:                  -0.672
REMARK UNBOUND:                -0.659
REMARK SMILES Cc1ccncc1/C=C/Nc1ccc(CCCN)cc1
REMARK SMILES IDX 14 1 13 2 12 3 11 4 20 5 19 6 15 7 16 8 17 9 18 10 10 13
REMARK SMILES IDX 9 15 8 16 7 17 2 18 6 19 3 20 5 21 4 22 1 23
REMARK H PARENT 18 11 18 12 10 14
ROOT
ATOM      1  C   UNL     1     -13.522   7.731   0.154  1.00  0.00    -0.048 A 
ATOM      2  C   UNL     1     -12.228   7.576  -0.349  1.00  0.00     0.006 A 
ATOM      3  C   UNL     1     -11.562   6.359  -0.232  1.00  0.00     0.026 A 
ATOM      4  C   UNL     1     -12.123   5.281   0.456  1.00  0.00     0.038 A 
ATOM      5  C   UNL     1     -13.397   5.454   1.011  1.00  0.00     0.026 A 
ATOM      6  C   UNL     1     -14.089   6.665   0.862  1.00  0.00     0.006 A 
ENDROOT
BRANCH   1   7
ATOM      7  C   UNL     1     -14.292   9.011  -0.056  1.00  0.00     0.037 C 
BRANCH   7   8
ATOM      8  C   UNL     1     -14.168   9.674  -1.442  1.00  0.00     0.020 C 
BRANCH   8   9
ATOM      9  C   UNL     1     -15.423   9.629  -2.325  1.00  0.00     0.078 C 
BRANCH   9  10
ATOM     10  N   UNL     1     -15.613   8.388  -3.061  1.00  0.00    -0.330 NA
ATOM     11  H   UNL     1     -16.267   8.534  -3.829  1.00  0.00     0.118 HD
ATOM     12  H   UNL     1     -16.049   7.686  -2.462  1.00  0.00     0.118 HD
ENDBRANCH   9  10
ENDBRANCH   8   9
ENDBRANCH   7   8
ENDBRANCH   1   7
BRANCH   4  13
ATOM     13  N   UNL     1     -11.409   4.089   0.682  1.00  0.00    -0.362 N 
ATOM     14  H   UNL     1     -10.677   4.123   1.381  1.00  0.00     0.166 HD
BRANCH  13  15
ATOM     15  C   UNL     1     -11.448   2.987  -0.131  1.00  0.00     0.083 C 
BRANCH  15  16
ATOM     16  C   UNL     1     -10.544   2.561  -1.022  1.00  0.00     0.027 C 
BRANCH  16  17
ATOM     17  C   UNL     1      -9.168   2.234  -0.616  1.00  0.00    -0.003 A 
ATOM     18  C   UNL     1      -8.105   2.173  -1.534  1.00  0.00    -0.041 A 
ATOM     19  C   UNL     1      -8.866   1.930   0.720  1.00  0.00     0.119 A 
ATOM     20  C   UNL     1      -6.828   1.830  -1.064  1.00  0.00     0.024 A 
ATOM     21  N   UNL     1      -7.637   1.615   1.193  1.00  0.00    -0.264 NA
ATOM     22  C   UNL     1      -6.645   1.576   0.286  1.00  0.00     0.111 A 
ATOM     23  C   UNL     1      -8.295   2.423  -3.003  1.00  0.00     0.045 C 
ENDBRANCH  16  17
ENDBRANCH  15  16
ENDBRANCH  13  15
ENDBRANCH   4  13
TORSDOF 8
ENDMDL
MODEL 5
REMARK VINA RESULT:    -4.760      1.994      8.475
REMARK INTER + INTRA:          -7.506
REMARK INTER:                  -7.044
REMARK INTRA:                  -0.462
REMARK UNBOUND:                -0.659
REMARK SMILES Cc1ccncc1/C=C/Nc1ccc(CCCN)cc1
REMARK SMILES IDX 14 1 13 2 12 3 11 4 20 5 19 6 15 7 16 8 17 9 18 10 10 13
REMARK SMILES IDX 9 15 8 16 7 17 2 18 6 19 3 20 5 21 4 22 1 23
REMARK H PARENT 18 11 18 12 10 14
ROOT
ATOM      1  C   UNL     1      -8.155   1.468  -0.388  1.00  0.00    -0.048 A 
ATOM      2  C   UNL     1      -8.816   1.755   0.808  1.00  0.00     0.006 A 
ATOM      3  C   UNL     1     -10.074   2.350   0.800  1.00  0.00     0.026 A 
ATOM      4  C   UNL     1     -10.687   2.750  -0.390  1.00  0.00     0.038 A 
ATOM      5  C   UNL     1     -10.001   2.514  -1.587  1.00  0.00     0.026 A 
ATOM      6  C   UNL     1      -8.749   1.880  -1.587  1.00  0.00     0.006 A 
ENDROOT
BRANCH   1   7
ATOM      7  C   UNL     1      -6.838   0.733  -0.395  1.00  0.00     0.037 C 
BRANCH   7   8
ATOM      8  C   UNL     1      -5.563   1.599  -0.403  1.00  0.00     0.020 C 
BRANCH   8   9
ATOM      9  C   UNL     1      -5.400   2.567   0.778  1.00  0.00     0.078 C 
BRANCH   9  10
ATOM     10  N   UNL     1      -4.690   2.023   1.927  1.00  0.00    -0.330 NA
ATOM     11  H   UNL     1      -3.915   1.441   1.614  1.00  0.00     0.118 HD
ATOM     12  H   UNL     1      -5.302   1.401   2.456  1.00  0.00     0.118 HD
ENDBRANCH   9  10
ENDBRANCH   8   9
ENDBRANCH   7   8
ENDBRANCH   1   7
BRANCH   4  13
ATOM     13  N   UNL     1     -11.904   3.458  -0.399  1.00  0.00    -0.362 N 
ATOM     14  H   UNL     1     -12.701   2.986  -0.806  1.00  0.00     0.166 HD
BRANCH  13  15
ATOM     15  C   UNL     1     -12.031   4.798  -0.145  1.00  0.00     0.083 C 
BRANCH  15  16
ATOM     16  C   UNL     1     -12.716   5.413   0.829  1.00  0.00     0.027 C 
BRANCH  16  17
ATOM     17  C   UNL     1     -13.387   6.700   0.592  1.00  0.00    -0.003 A 
ATOM     18  C   UNL     1     -14.751   6.901   0.867  1.00  0.00    -0.041 A 
ATOM     19  C   UNL     1     -12.689   7.784   0.038  1.00  0.00     0.119 A 
ATOM     20  C   UNL     1     -15.317   8.155   0.589  1.00  0.00     0.024 A 
ATOM     21  N   UNL     1     -13.215   9.005  -0.220  1.00  0.00    -0.264 NA
ATOM     22  C   UNL     1     -14.520   9.161   0.066  1.00  0.00     0.111 A 
ATOM     23  C   UNL     1     -15.631   5.812   1.412  1.00  0.00     0.045 C 
ENDBRANCH  16  17
ENDBRANCH  15  16
ENDBRANCH  13  15
ENDBRANCH   4  13
TORSDOF 8
ENDMDL
MODEL 6
REMARK VINA RESULT:    -4.687      4.157      5.816
REMARK INTER + INTRA:          -7.401
REMARK INTER:                  -6.588
REMARK INTRA:                  -0.813
REMARK UNBOUND:                -0.659
REMARK SMILES Cc1ccncc1/C=C/Nc1ccc(CCCN)cc1
REMARK SMILES IDX 14 1 13 2 12 3 11 4 20 5 19 6 15 7 16 8 17 9 18 10 10 13
REMARK SMILES IDX 9 15 8 16 7 17 2 18 6 19 3 20 5 21 4 22 1 23
REMARK H PARENT 18 11 18 12 10 14
ROOT
ATOM      1  C   UNL     1     -12.674   1.784  -0.799  1.00  0.00    -0.048 A 
ATOM      2  C   UNL     1     -12.564   3.100  -0.348  1.00  0.00     0.006 A 
ATOM      3  C   UNL     1     -11.315   3.685  -0.160  1.00  0.00     0.026 A 
ATOM      4  C   UNL     1     -10.134   2.961  -0.340  1.00  0.00     0.038 A 
ATOM      5  C   UNL     1     -10.244   1.623  -0.738  1.00  0.00     0.026 A 
ATOM      6  C   UNL     1     -11.500   1.040  -0.965  1.00  0.00     0.006 A 
ENDROOT
BRANCH   1   7
ATOM      7  C   UNL     1     -14.020   1.172  -1.102  1.00  0.00     0.037 C 
BRANCH   7   8
ATOM      8  C   UNL     1     -14.219  -0.299  -0.691  1.00  0.00     0.020 C 
BRANCH   8   9
ATOM      9  C   UNL     1     -15.655  -0.710  -0.334  1.00  0.00     0.078 C 
BRANCH   9  10
ATOM     10  N   UNL     1     -15.888  -0.967   1.080  1.00  0.00    -0.330 NA
ATOM     11  H   UNL     1     -15.070  -1.413   1.493  1.00  0.00     0.118 HD
ATOM     12  H   UNL     1     -16.651  -1.634   1.195  1.00  0.00     0.118 HD
ENDBRANCH   9  10
ENDBRANCH   8   9
ENDBRANCH   7   8
ENDBRANCH   1   7
BRANCH   4  13
ATOM     13  N   UNL     1      -8.872   3.508  -0.038  1.00  0.00    -0.362 N 
ATOM     14  H   UNL     1      -8.822   4.516   0.045  1.00  0.00     0.166 HD
BRANCH  13  15
ATOM     15  C   UNL     1      -7.687   2.825  -0.103  1.00  0.00     0.083 C 
BRANCH  15  16
ATOM     16  C   UNL     1      -6.749   2.847  -1.060  1.00  0.00     0.027 C 
BRANCH  16  17
ATOM     17  C   UNL     1      -6.510   1.678  -1.919  1.00  0.00    -0.003 A 
ATOM     18  C   UNL     1      -7.220   1.463  -3.114  1.00  0.00    -0.041 A 
ATOM     19  C   UNL     1      -5.576   0.697  -1.556  1.00  0.00     0.119 A 
ATOM     20  C   UNL     1      -6.945   0.308  -3.862  1.00  0.00     0.024 A 
ATOM     21  N   UNL     1      -5.286  -0.413  -2.274  1.00  0.00    -0.264 NA
ATOM     22  C   UNL     1      -5.978  -0.579  -3.415  1.00  0.00     0.111 A 
ATOM     23  C   UNL     1      -8.287   2.405  -3.597  1.00  0.00     0.045 C 
ENDBRANCH  16  17
ENDBRANCH  15  16
ENDBRANCH  13  15
ENDBRANCH   4  13
TORSDOF 8
ENDMDL
MODEL 7
REMARK VINA RESULT:    -4.654      1.683      8.561
REMARK INTER + INTRA:          -7.354
REMARK INTER:                  -6.735
REMARK INTRA:                  -0.619
REMARK UNBOUND:                -0.659
REMARK SMILES Cc1ccncc1/C=C/Nc1ccc(CCCN)cc1
REMARK SMILES IDX 14 1 13 2 12 3 11 4 20 5 19 6 15 7 16 8 17 9 18 10 10 13
REMARK SMILES IDX 9 15 8 16 7 17 2 18 6 19 3 20 5 21 4 22 1 23
REMARK H PARENT 18 11 18 12 10 14
ROOT
ATOM      1  C   UNL     1      -9.168   1.705  -1.155  1.00  0.00    -0.048 A 
ATOM      2  C   UNL     1      -9.334   2.098   0.175  1.00  0.00     0.006 A 
ATOM      3  C   UNL     1     -10.415   2.890   0.552  1.00  0.00     0.026 A 
ATOM      4  C   UNL     1     -11.323   3.385  -0.388  1.00  0.00     0.038 A 
ATOM      5  C   UNL     1     -11.125   3.038  -1.730  1.00  0.00     0.026 A 
ATOM      6  C   UNL     1     -10.060   2.208  -2.110  1.00  0.00     0.006 A 
ENDROOT
BRANCH   1   7
ATOM      7  C   UNL     1      -8.060   0.765  -1.558  1.00  0.00     0.037 C 
BRANCH   7   8
ATOM      8  C   UNL     1      -7.240   1.156  -2.802  1.00  0.00     0.020 C 
BRANCH   8   9
ATOM      9  C   UNL     1      -6.713  -0.008  -3.655  1.00  0.00     0.078 C 
BRANCH   9  10
ATOM     10  N   UNL     1      -5.607  -0.751  -3.066  1.00  0.00    -0.330 NA
ATOM     11  H   UNL     1      -5.896  -1.709  -2.870  1.00  0.00     0.118 HD
ATOM     12  H   UNL     1      -5.357  -0.350  -2.162  1.00  0.00     0.118 HD
ENDBRANCH   9  10
ENDBRANCH   8   9
ENDBRANCH   7   8
ENDBRANCH   1   7
BRANCH   4  13
ATOM     13  N   UNL     1     -12.348   4.283  -0.032  1.00  0.00    -0.362 N 
ATOM     14  H   UNL     1     -13.285   4.041  -0.327  1.00  0.00     0.166 HD
BRANCH  13  15
ATOM     15  C   UNL     1     -12.146   5.552   0.442  1.00  0.00     0.083 C 
BRANCH  15  16
ATOM     16  C   UNL     1     -12.207   6.719  -0.213  1.00  0.00     0.027 C 
BRANCH  16  17
ATOM     17  C   UNL     1     -13.368   7.611  -0.073  1.00  0.00    -0.003 A 
ATOM     18  C   UNL     1     -13.673   8.605  -1.020  1.00  0.00    -0.041 A 
ATOM     19  C   UNL     1     -14.208   7.529   1.047  1.00  0.00     0.119 A 
ATOM     20  C   UNL     1     -14.786   9.429  -0.796  1.00  0.00     0.024 A 
ATOM     21  N   UNL     1     -15.295   8.303   1.270  1.00  0.00    -0.264 NA
ATOM     22  C   UNL     1     -15.560   9.236   0.337  1.00  0.00     0.111 A 
ATOM     23  C   UNL     1     -12.828   8.840  -2.240  1.00  0.00     0.045 C 
ENDBRANCH  16  17
ENDBRANCH  15  16
ENDBRANCH  13  15
ENDBRANCH   4  13
TORSDOF 8
ENDMDL
MODEL 8
REMARK VINA RESULT:    -4.425      1.287      1.946
REMARK INTER + INTRA:          -7.025
REMARK INTER:                  -6.455
REMARK INTRA:                  -0.570
REMARK UNBOUND:                -0.659
REMARK SMILES Cc1ccncc1/C=C/Nc1ccc(CCCN)cc1
REMARK SMILES IDX 14 1 13 2 12 3 11 4 20 5 19 6 15 7 16 8 17 9 18 10 10 13
REMARK SMILES IDX 9 15 8 16 7 17 2 18 6 19 3 20 5 21 4 22 1 23
REMARK H PARENT 18 11 18 12 10 14
ROOT
ATOM      1  C   UNL     1     -12.750   6.841   0.222  1.00  0.00    -0.048 A 
ATOM      2  C   UNL     1     -11.360   6.711   0.218  1.00  0.00     0.006 A 
ATOM      3  C   UNL     1     -10.764   5.458   0.324  1.00  0.00     0.026 A 
ATOM      4  C   UNL     1     -11.522   4.300   0.516  1.00  0.00     0.038 A 
ATOM      5  C   UNL     1     -12.914   4.436   0.578  1.00  0.00     0.026 A 
ATOM      6  C   UNL     1     -13.522   5.692   0.433  1.00  0.00     0.006 A 
ENDROOT
BRANCH   1   7
ATOM      7  C   UNL     1     -13.410   8.181   0.006  1.00  0.00     0.037 C 
BRANCH   7   8
ATOM      8  C   UNL     1     -13.320   8.775  -1.413  1.00  0.00     0.020 C 
BRANCH   8   9
ATOM      9  C   UNL     1     -14.620   9.365  -1.979  1.00  0.00     0.078 C 
BRANCH   9  10
ATOM     10  N   UNL     1     -15.249   8.576  -3.029  1.00  0.00    -0.330 NA
ATOM     11  H   UNL     1     -16.093   8.130  -2.672  1.00  0.00     0.118 HD
ATOM     12  H   UNL     1     -14.634   7.811  -3.309  1.00  0.00     0.118 HD
ENDBRANCH   9  10
ENDBRANCH   8   9
ENDBRANCH   7   8
ENDBRANCH   1   7
BRANCH   4  13
ATOM     13  N   UNL     1     -10.922   3.047   0.744  1.00  0.00    -0.362 N 
ATOM     14  H   UNL     1     -11.188   2.563   1.592  1.00  0.00     0.166 HD
BRANCH  13  15
ATOM     15  C   UNL     1      -9.840   2.561   0.058  1.00  0.00     0.083 C 
BRANCH  15  16
ATOM     16  C   UNL     1      -8.684   2.079   0.534  1.00  0.00     0.027 C 
BRANCH  16  17
ATOM     17  C   UNL     1      -7.673   1.500  -0.364  1.00  0.00    -0.003 A 
ATOM     18  C   UNL     1      -6.293   1.628  -0.127  1.00  0.00    -0.041 A 
ATOM     19  C   UNL     1      -8.052   0.819  -1.530  1.00  0.00     0.119 A 
ATOM     20  C   UNL     1      -5.396   1.065  -1.048  1.00  0.00     0.024 A 
ATOM     21  N   UNL     1      -7.201   0.255  -2.419  1.00  0.00    -0.264 NA
ATOM     22  C   UNL     1      -5.890   0.390  -2.153  1.00  0.00     0.111 A 
ATOM     23  C   UNL     1      -5.745   2.378   1.054  1.00  0.00     0.045 C 
ENDBRANCH  16  17
ENDBRANCH  15  16
ENDBRANCH  13  15
ENDBRANCH   4  13
TORSDOF 8
ENDMDL
MODEL 9
REMARK VINA RESULT:    -4.408      2.028      2.703
REMARK INTER + INTRA:          -6.999
REMARK INTER:                  -6.467
REMARK INTRA:                  -0.532
REMARK UNBOUND:                -0.659
REMARK SMILES Cc1ccncc1/C=C/Nc1ccc(CCCN)cc1
REMARK SMILES IDX 14 1 13 2 12 3 11 4 20 5 19 6 15 7 16 8 17 9 18 10 10 13
REMARK SMILES IDX 9 15 8 16 7 17 2 18 6 19 3 20 5 21 4 22 1 23
REMARK H PARENT 18 11 18 12 10 14
ROOT
ATOM      1  C   UNL     1     -13.575   7.315   0.505  1.00  0.00    -0.048 A 
ATOM      2  C   UNL     1     -12.287   7.405  -0.026  1.00  0.00     0.006 A 
ATOM      3  C   UNL     1     -11.507   6.264  -0.193  1.00  0.00     0.026 A 
ATOM      4  C   UNL     1     -11.947   5.008   0.231  1.00  0.00     0.038 A 
ATOM      5  C   UNL     1     -13.216   4.925   0.815  1.00  0.00     0.026 A 
ATOM      6  C   UNL     1     -14.022   6.066   0.951  1.00  0.00     0.006 A 
ENDROOT
BRANCH   1   7
ATOM      7  C   UNL     1     -14.467   8.528   0.597  1.00  0.00     0.037 C 
BRANCH   7   8
ATOM      8  C   UNL     1     -13.915   9.840   0.006  1.00  0.00     0.020 C 
BRANCH   8   9
ATOM      9  C   UNL     1     -14.429  11.137   0.648  1.00  0.00     0.078 C 
BRANCH   9  10
ATOM     10  N   UNL     1     -13.414  11.934   1.321  1.00  0.00    -0.330 NA
ATOM     11  H   UNL     1     -13.820  12.810   1.649  1.00  0.00     0.118 HD
ATOM     12  H   UNL     1     -12.683  12.202   0.662  1.00  0.00     0.118 HD
ENDBRANCH   9  10
ENDBRANCH   8   9
ENDBRANCH   7   8
ENDBRANCH   1   7
BRANCH   4  13
ATOM     13  N   UNL     1     -11.118   3.871   0.175  1.00  0.00    -0.362 N 
ATOM     14  H   UNL     1     -10.368   3.821   0.853  1.00  0.00     0.166 HD
BRANCH  13  15
ATOM     15  C   UNL     1     -11.085   2.977  -0.862  1.00  0.00     0.083 C 
BRANCH  15  16
ATOM     16  C   UNL     1     -10.248   1.952  -1.069  1.00  0.00     0.027 C 
BRANCH  16  17
ATOM     17  C   UNL     1      -8.826   2.044  -0.704  1.00  0.00    -0.003 A 
ATOM     18  C   UNL     1      -7.817   2.280  -1.655  1.00  0.00    -0.041 A 
ATOM     19  C   UNL     1      -8.411   1.859   0.623  1.00  0.00     0.119 A 
ATOM     20  C   UNL     1      -6.483   2.329  -1.223  1.00  0.00     0.024 A 
ATOM     21  N   UNL     1      -7.131   1.921   1.059  1.00  0.00    -0.264 NA
ATOM     22  C   UNL     1      -6.196   2.158   0.122  1.00  0.00     0.111 A 
ATOM     23  C   UNL     1      -8.114   2.443  -3.119  1.00  0.00     0.045 C 
ENDBRANCH  16  17
ENDBRANCH  15  16
ENDBRANCH  13  15
ENDBRANCH   4  13
TORSDOF 8
ENDMDL
