MODEL 1
REMARK VINA RESULT:    -5.112      0.000      0.000
REMARK INTER + INTRA:          -7.983
REMARK INTER:                  -7.354
REMARK INTRA:                  -0.629
REMARK UNBOUND:                -0.629
REMARK SMILES Cc1ccncc1/C=C/Nc1ccc(CCCN)cc1
REMARK SMILES IDX 14 1 13 2 12 3 11 4 20 5 19 6 15 7 16 8 17 9 18 10 10 13
REMARK SMILES IDX 9 15 8 16 7 17 2 18 6 19 3 20 5 21 4 22 1 23
REMARK H PARENT 18 11 18 12 10 14
ROOT
ATOM      1  C   UNL     1      -2.555   4.358  16.958  1.00  0.00    -0.048 A 
ATOM      2  C   UNL     1      -3.908   4.691  16.863  1.00  0.00     0.006 A 
ATOM      3  C   UNL     1      -4.585   4.574  15.652  1.00  0.00     0.026 A 
ATOM      4  C   UNL     1      -3.927   4.198  14.479  1.00  0.00     0.038 A 
ATOM      5  C   UNL     1      -2.558   3.918  14.561  1.00  0.00     0.026 A 
ATOM      6  C   UNL     1      -1.879   3.997  15.786  1.00  0.00     0.006 A 
ENDROOT
BRANCH   1   7
ATOM      7  C   UNL     1      -1.836   4.383  18.283  1.00  0.00     0.037 C 
BRANCH   7   8
ATOM      8  C   UNL     1      -0.595   5.291  18.380  1.00  0.00     0.020 C 
BRANCH   8   9
ATOM      9  C   UNL     1      -0.768   6.584  19.190  1.00  0.00     0.078 C 
BRANCH   9  10
ATOM     10  N   UNL     1      -0.787   7.807  18.400  1.00  0.00    -0.330 NA
ATOM     11  H   UNL     1      -1.388   7.688  17.586  1.00  0.00     0.118 HD
ATOM     12  H   UNL     1       0.144   7.999  18.027  1.00  0.00     0.118 HD
ENDBRANCH   9  10
ENDBRANCH   8   9
ENDBRANCH   7   8
ENDBRANCH   1   7
BRANCH   4  13
ATOM     13  N   UNL     1      -4.578   4.193  13.230  1.00  0.00    -0.362 N 
ATOM     14  H   UNL     1      -5.181   3.404  13.035  1.00  0.00     0.166 HD
BRANCH  13  15
ATOM     15  C   UNL     1      -4.265   5.017  12.181  1.00  0.00     0.083 C 
BRANCH  15  16
ATOM     16  C   UNL     1      -4.697   4.975  10.914  1.00  0.00     0.027 C 
BRANCH  16  17
ATOM     17  C   UNL     1      -3.753   4.976   9.787  1.00  0.00    -0.003 A 
ATOM     18  C   UNL     1      -3.942   4.178   8.644  1.00  0.00    -0.041 A 
ATOM     19  C   UNL     1      -2.589   5.758   9.824  1.00  0.00     0.119 A 
ATOM     20  C   UNL     1      -2.979   4.223   7.625  1.00  0.00     0.024 A 
ATOM     21  N   UNL     1      -1.659   5.826   8.842  1.00  0.00    -0.264 NA
ATOM     22  C   UNL     1      -1.880   5.056   7.762  1.00  0.00     0.111 A 
ATOM     23  C   UNL     1      -5.116   3.253   8.494  1.00  0.00     0.045 C 
ENDBRANCH  16  17
ENDBRANCH  15  16
ENDBRANCH  13  15
ENDBRANCH   4  13
TORSDOF 8
ENDMDL
MODEL 2
REMARK VINA RESULT:    -5.091      4.899      6.853
REMARK INTER + INTRA:          -7.953
REMARK INTER:                  -7.223
REMARK INTRA:                  -0.730
REMARK UNBOUND:                -0.629
REMARK SMILES Cc1ccncc1/C=C/Nc1ccc(CCCN)cc1
REMARK SMILES IDX 14 1 13 2 12 3 11 4 20 5 19 6 15 7 16 8 17 9 18 10 10 13
REMARK SMILES IDX 9 15 8 16 7 17 2 18 6 19 3 20 5 21 4 22 1 23
REMARK H PARENT 18 11 18 12 10 14
ROOT
ATOM      1  C   UNL     1      -7.997  10.427  12.949  1.00  0.00    -0.048 A 
ATOM      2  C   UNL     1      -6.867  10.378  13.768  1.00  0.00     0.006 A 
ATOM      3  C   UNL     1      -5.737   9.665  13.378  1.00  0.00     0.026 A 
ATOM      4  C   UNL     1      -5.717   8.912  12.201  1.00  0.00     0.038 A 
ATOM      5  C   UNL     1      -6.869   8.914  11.407  1.00  0.00     0.026 A 
ATOM      6  C   UNL     1      -7.997   9.663  11.776  1.00  0.00     0.006 A 
ENDROOT
BRANCH   1   7
ATOM      7  C   UNL     1      -9.188  11.278  13.312  1.00  0.00     0.037 C 
BRANCH   7   8
ATOM      8  C   UNL     1     -10.514  10.537  13.571  1.00  0.00     0.020 C 
BRANCH   8   9
ATOM      9  C   UNL     1     -10.667   9.892  14.956  1.00  0.00     0.078 C 
BRANCH   9  10
ATOM     10  N   UNL     1     -10.725   8.438  14.955  1.00  0.00    -0.330 NA
ATOM     11  H   UNL     1     -11.511   8.119  15.520  1.00  0.00     0.118 HD
ATOM     12  H   UNL     1      -9.892   8.052  15.402  1.00  0.00     0.118 HD
ENDBRANCH   9  10
ENDBRANCH   8   9
ENDBRANCH   7   8
ENDBRANCH   1   7
BRANCH   4  13
ATOM     13  N   UNL     1      -4.623   8.094  11.860  1.00  0.00    -0.362 N 
ATOM     14  H   UNL     1      -3.889   8.523  11.310  1.00  0.00     0.166 HD
BRANCH  13  15
ATOM     15  C   UNL     1      -4.596   6.730  11.987  1.00  0.00     0.083 C 
BRANCH  15  16
ATOM     16  C   UNL     1      -3.772   5.844  11.413  1.00  0.00     0.027 C 
BRANCH  16  17
ATOM     17  C   UNL     1      -4.257   4.905  10.389  1.00  0.00    -0.003 A 
ATOM     18  C   UNL     1      -3.555   4.662   9.196  1.00  0.00    -0.041 A 
ATOM     19  C   UNL     1      -5.479   4.234  10.549  1.00  0.00     0.119 A 
ATOM     20  C   UNL     1      -4.101   3.769   8.262  1.00  0.00     0.024 A 
ATOM     21  N   UNL     1      -6.012   3.357   9.667  1.00  0.00    -0.264 NA
ATOM     22  C   UNL     1      -5.306   3.143   8.543  1.00  0.00     0.111 A 
ATOM     23  C   UNL     1      -2.260   5.352   8.870  1.00  0.00     0.045 C 
ENDBRANCH  16  17
ENDBRANCH  15  16
ENDBRANCH  13  15
ENDBRANCH   4  13
TORSDOF 8
ENDMDL
MODEL 3
REMARK VINA RESULT:    -4.991      4.616      8.508
REMARK INTER + INTRA:          -7.809
REMARK INTER:                  -7.275
REMARK INTRA:                  -0.534
REMARK UNBOUND:                -0.629
REMARK SMILES Cc1ccncc1/C=C/Nc1ccc(CCCN)cc1
REMARK SMILES IDX 14 1 13 2 12 3 11 4 20 5 19 6 15 7 16 8 17 9 18 10 10 13
REMARK SMILES IDX 9 15 8 16 7 17 2 18 6 19 3 20 5 21 4 22 1 23
REMARK H PARENT 18 11 18 12 10 14
ROOT
ATOM      1  C   UNL     1      -2.545   4.659   8.769  1.00  0.00    -0.048 A 
ATOM      2  C   UNL     1      -1.975   5.763   9.407  1.00  0.00     0.006 A 
ATOM      3  C   UNL     1      -2.590   6.340  10.514  1.00  0.00     0.026 A 
ATOM      4  C   UNL     1      -3.829   5.892  10.979  1.00  0.00     0.038 A 
ATOM      5  C   UNL     1      -4.429   4.822  10.306  1.00  0.00     0.026 A 
ATOM      6  C   UNL     1      -3.796   4.212   9.212  1.00  0.00     0.006 A 
ENDROOT
BRANCH   1   7
ATOM      7  C   UNL     1      -1.839   3.963   7.632  1.00  0.00     0.037 C 
BRANCH   7   8
ATOM      8  C   UNL     1      -2.288   4.338   6.206  1.00  0.00     0.020 C 
BRANCH   8   9
ATOM      9  C   UNL     1      -2.138   5.816   5.820  1.00  0.00     0.078 C 
BRANCH   9  10
ATOM     10  N   UNL     1      -0.810   6.202   5.365  1.00  0.00    -0.330 NA
ATOM     11  H   UNL     1      -0.863   7.068   4.829  1.00  0.00     0.118 HD
ATOM     12  H   UNL     1      -0.443   5.503   4.719  1.00  0.00     0.118 HD
ENDBRANCH   9  10
ENDBRANCH   8   9
ENDBRANCH   7   8
ENDBRANCH   1   7
BRANCH   4  13
ATOM     13  N   UNL     1      -4.512   6.545  12.023  1.00  0.00    -0.362 N 
ATOM     14  H   UNL     1      -4.489   6.098  12.931  1.00  0.00     0.166 HD
BRANCH  13  15
ATOM     15  C   UNL     1      -5.400   7.575  11.853  1.00  0.00     0.083 C 
BRANCH  15  16
ATOM     16  C   UNL     1      -5.298   8.852  12.241  1.00  0.00     0.027 C 
BRANCH  16  17
ATOM     17  C   UNL     1      -6.486   9.628  12.629  1.00  0.00    -0.003 A 
ATOM     18  C   UNL     1      -6.555  10.349  13.835  1.00  0.00    -0.041 A 
ATOM     19  C   UNL     1      -7.629   9.648  11.816  1.00  0.00     0.119 A 
ATOM     20  C   UNL     1      -7.736  11.043  14.138  1.00  0.00     0.024 A 
ATOM     21  N   UNL     1      -8.769  10.326  12.085  1.00  0.00    -0.264 NA
ATOM     22  C   UNL     1      -8.793  11.012  13.242  1.00  0.00     0.111 A 
ATOM     23  C   UNL     1      -5.425  10.371  14.825  1.00  0.00     0.045 C 
ENDBRANCH  16  17
ENDBRANCH  15  16
ENDBRANCH  13  15
ENDBRANCH   4  13
TORSDOF 8
ENDMDL
MODEL 4
REMARK VINA RESULT:    -4.990      4.623      8.487
REMARK INTER + INTRA:          -7.808
REMARK INTER:                  -7.232
REMARK INTRA:                  -0.576
REMARK UNBOUND:                -0.629
REMARK SMILES Cc1ccncc1/C=C/Nc1ccc(CCCN)cc1
REMARK SMILES IDX 14 1 13 2 12 3 11 4 20 5 19 6 15 7 16 8 17 9 18 10 10 13
REMARK SMILES IDX 9 15 8 16 7 17 2 18 6 19 3 20 5 21 4 22 1 23
REMARK H PARENT 18 11 18 12 10 14
ROOT
ATOM      1  C   UNL     1      -3.421   4.298   9.558  1.00  0.00    -0.048 A 
ATOM      2  C   UNL     1      -2.693   5.461   9.816  1.00  0.00     0.006 A 
ATOM      3  C   UNL     1      -3.138   6.383  10.759  1.00  0.00     0.026 A 
ATOM      4  C   UNL     1      -4.357   6.222  11.421  1.00  0.00     0.038 A 
ATOM      5  C   UNL     1      -5.116   5.084  11.122  1.00  0.00     0.026 A 
ATOM      6  C   UNL     1      -4.654   4.132  10.201  1.00  0.00     0.006 A 
ENDROOT
BRANCH   1   7
ATOM      7  C   UNL     1      -2.899   3.244   8.614  1.00  0.00     0.037 C 
BRANCH   7   8
ATOM      8  C   UNL     1      -3.950   2.450   7.813  1.00  0.00     0.020 C 
BRANCH   8   9
ATOM      9  C   UNL     1      -3.619   0.975   7.544  1.00  0.00     0.078 C 
BRANCH   9  10
ATOM     10  N   UNL     1      -2.455   0.751   6.697  1.00  0.00    -0.330 NA
ATOM     11  H   UNL     1      -1.828   1.552   6.747  1.00  0.00     0.118 HD
ATOM     12  H   UNL     1      -2.739   0.686   5.719  1.00  0.00     0.118 HD
ENDBRANCH   9  10
ENDBRANCH   8   9
ENDBRANCH   7   8
ENDBRANCH   1   7
BRANCH   4  13
ATOM     13  N   UNL     1      -4.870   7.207  12.287  1.00  0.00    -0.362 N 
ATOM     14  H   UNL     1      -5.156   6.899  13.208  1.00  0.00     0.166 HD
BRANCH  13  15
ATOM     15  C   UNL     1      -5.245   8.468  11.903  1.00  0.00     0.083 C 
BRANCH  15  16
ATOM     16  C   UNL     1      -6.412   9.098  12.094  1.00  0.00     0.027 C 
BRANCH  16  17
ATOM     17  C   UNL     1      -6.593  10.045  13.204  1.00  0.00    -0.003 A 
ATOM     18  C   UNL     1      -7.786  10.765  13.394  1.00  0.00    -0.041 A 
ATOM     19  C   UNL     1      -5.552  10.300  14.109  1.00  0.00     0.119 A 
ATOM     20  C   UNL     1      -7.865  11.667  14.466  1.00  0.00     0.024 A 
ATOM     21  N   UNL     1      -5.618  11.153  15.158  1.00  0.00    -0.264 NA
ATOM     22  C   UNL     1      -6.779  11.815  15.313  1.00  0.00     0.111 A 
ATOM     23  C   UNL     1      -8.963  10.630  12.469  1.00  0.00     0.045 C 
ENDBRANCH  16  17
ENDBRANCH  15  16
ENDBRANCH  13  15
ENDBRANCH   4  13
TORSDOF 8
ENDMDL
MODEL 5
REMARK VINA RESULT:    -4.986      2.037      8.451
REMARK INTER + INTRA:          -7.802
REMARK INTER:                  -7.243
REMARK INTRA:                  -0.559
REMARK UNBOUND:                -0.629
REMARK SMILES Cc1ccncc1/C=C/Nc1ccc(CCCN)cc1
REMARK SMILES IDX 14 1 13 2 12 3 11 4 20 5 19 6 15 7 16 8 17 9 18 10 10 13
REMARK SMILES IDX 9 15 8 16 7 17 2 18 6 19 3 20 5 21 4 22 1 23
REMARK H PARENT 18 11 18 12 10 14
ROOT
ATOM      1  C   UNL     1      -3.936   4.329   8.489  1.00  0.00    -0.048 A 
ATOM      2  C   UNL     1      -4.968   3.887   9.319  1.00  0.00     0.006 A 
ATOM      3  C   UNL     1      -5.112   4.398  10.606  1.00  0.00     0.026 A 
ATOM      4  C   UNL     1      -4.194   5.305  11.141  1.00  0.00     0.038 A 
ATOM      5  C   UNL     1      -3.127   5.706  10.329  1.00  0.00     0.026 A 
ATOM      6  C   UNL     1      -2.998   5.224   9.018  1.00  0.00     0.006 A 
ENDROOT
BRANCH   1   7
ATOM      7  C   UNL     1      -3.829   3.859   7.060  1.00  0.00     0.037 C 
BRANCH   7   8
ATOM      8  C   UNL     1      -2.810   2.740   6.774  1.00  0.00     0.020 C 
BRANCH   8   9
ATOM      9  C   UNL     1      -3.084   1.390   7.453  1.00  0.00     0.078 C 
BRANCH   9  10
ATOM     10  N   UNL     1      -4.100   0.571   6.806  1.00  0.00    -0.330 NA
ATOM     11  H   UNL     1      -3.688   0.050   6.033  1.00  0.00     0.118 HD
ATOM     12  H   UNL     1      -4.815   1.165   6.386  1.00  0.00     0.118 HD
ENDBRANCH   9  10
ENDBRANCH   8   9
ENDBRANCH   7   8
ENDBRANCH   1   7
BRANCH   4  13
ATOM     13  N   UNL     1      -4.266   5.734  12.480  1.00  0.00    -0.362 N 
ATOM     14  H   UNL     1      -4.617   6.671  12.639  1.00  0.00     0.166 HD
BRANCH  13  15
ATOM     15  C   UNL     1      -3.670   5.100  13.538  1.00  0.00     0.083 C 
BRANCH  15  16
ATOM     16  C   UNL     1      -4.238   4.494  14.589  1.00  0.00     0.027 C 
BRANCH  16  17
ATOM     17  C   UNL     1      -3.539   4.393  15.879  1.00  0.00    -0.003 A 
ATOM     18  C   UNL     1      -4.170   4.679  17.103  1.00  0.00    -0.041 A 
ATOM     19  C   UNL     1      -2.183   4.037  15.937  1.00  0.00     0.119 A 
ATOM     20  C   UNL     1      -3.422   4.580  18.286  1.00  0.00     0.024 A 
ATOM     21  N   UNL     1      -1.452   3.920  17.070  1.00  0.00    -0.264 NA
ATOM     22  C   UNL     1      -2.093   4.192  18.220  1.00  0.00     0.111 A 
ATOM     23  C   UNL     1      -5.603   5.124  17.185  1.00  0.00     0.045 C 
ENDBRANCH  16  17
ENDBRANCH  15  16
ENDBRANCH  13  15
ENDBRANCH   4  13
TORSDOF 8
ENDMDL
MODEL 6
REMARK VINA RESULT:    -4.902      4.586      6.527
REMARK INTER + INTRA:          -7.681
REMARK INTER:                  -7.025
REMARK INTRA:                  -0.655
REMARK UNBOUND:                -0.629
REMARK SMILES Cc1ccncc1/C=C/Nc1ccc(CCCN)cc1
REMARK SMILES IDX 14 1 13 2 12 3 11 4 20 5 19 6 15 7 16 8 17 9 18 10 10 13
REMARK SMILES IDX 9 15 8 16 7 17 2 18 6 19 3 20 5 21 4 22 1 23
REMARK H PARENT 18 11 18 12 10 14
ROOT
ATOM      1  C   UNL     1      -7.789  10.075  12.635  1.00  0.00    -0.048 A 
ATOM      2  C   UNL     1      -6.693  10.038  13.500  1.00  0.00     0.006 A 
ATOM      3  C   UNL     1      -5.519   9.387  13.133  1.00  0.00     0.026 A 
ATOM      4  C   UNL     1      -5.417   8.686  11.929  1.00  0.00     0.038 A 
ATOM      5  C   UNL     1      -6.534   8.674  11.085  1.00  0.00     0.026 A 
ATOM      6  C   UNL     1      -7.708   9.361  11.434  1.00  0.00     0.006 A 
ENDROOT
BRANCH   1   7
ATOM      7  C   UNL     1      -9.029  10.861  12.979  1.00  0.00     0.037 C 
BRANCH   7   8
ATOM      8  C   UNL     1     -10.343  10.065  13.096  1.00  0.00     0.020 C 
BRANCH   8   9
ATOM      9  C   UNL     1     -10.827   9.769  14.523  1.00  0.00     0.078 C 
BRANCH   9  10
ATOM     10  N   UNL     1     -10.753   8.371  14.921  1.00  0.00    -0.330 NA
ATOM     11  H   UNL     1     -10.816   7.771  14.100  1.00  0.00     0.118 HD
ATOM     12  H   UNL     1     -11.557   8.127  15.500  1.00  0.00     0.118 HD
ENDBRANCH   9  10
ENDBRANCH   8   9
ENDBRANCH   7   8
ENDBRANCH   1   7
BRANCH   4  13
ATOM     13  N   UNL     1      -4.277   7.927  11.604  1.00  0.00    -0.362 N 
ATOM     14  H   UNL     1      -3.597   8.366  10.995  1.00  0.00     0.166 HD
BRANCH  13  15
ATOM     15  C   UNL     1      -4.141   6.582  11.828  1.00  0.00     0.083 C 
BRANCH  15  16
ATOM     16  C   UNL     1      -4.256   5.565  10.964  1.00  0.00     0.027 C 
BRANCH  16  17
ATOM     17  C   UNL     1      -3.316   5.407   9.844  1.00  0.00    -0.003 A 
ATOM     18  C   UNL     1      -3.573   4.549   8.760  1.00  0.00    -0.041 A 
ATOM     19  C   UNL     1      -2.091   6.089   9.831  1.00  0.00     0.119 A 
ATOM     20  C   UNL     1      -2.611   4.441   7.744  1.00  0.00     0.024 A 
ATOM     21  N   UNL     1      -1.160   6.010   8.851  1.00  0.00    -0.264 NA
ATOM     22  C   UNL     1      -1.446   5.187   7.827  1.00  0.00     0.111 A 
ATOM     23  C   UNL     1      -4.821   3.717   8.670  1.00  0.00     0.045 C 
ENDBRANCH  16  17
ENDBRANCH  15  16
ENDBRANCH  13  15
ENDBRANCH   4  13
TORSDOF 8
ENDMDL
MODEL 7
REMARK VINA RESULT:    -4.898      1.965      8.648
REMARK INTER + INTRA:          -7.674
REMARK INTER:                  -7.115
REMARK INTRA:                  -0.559
REMARK UNBOUND:                -0.629
REMARK SMILES Cc1ccncc1/C=C/Nc1ccc(CCCN)cc1
REMARK SMILES IDX 14 1 13 2 12 3 11 4 20 5 19 6 15 7 16 8 17 9 18 10 10 13
REMARK SMILES IDX 9 15 8 16 7 17 2 18 6 19 3 20 5 21 4 22 1 23
REMARK H PARENT 18 11 18 12 10 14
ROOT
ATOM      1  C   UNL     1      -3.665   5.188   9.364  1.00  0.00    -0.048 A 
ATOM      2  C   UNL     1      -4.695   4.504  10.012  1.00  0.00     0.006 A 
ATOM      3  C   UNL     1      -4.931   4.695  11.370  1.00  0.00     0.026 A 
ATOM      4  C   UNL     1      -4.106   5.509  12.149  1.00  0.00     0.038 A 
ATOM      5  C   UNL     1      -3.037   6.151  11.513  1.00  0.00     0.026 A 
ATOM      6  C   UNL     1      -2.818   5.993  10.136  1.00  0.00     0.006 A 
ENDROOT
BRANCH   1   7
ATOM      7  C   UNL     1      -3.463   5.067   7.874  1.00  0.00     0.037 C 
BRANCH   7   8
ATOM      8  C   UNL     1      -2.117   5.568   7.316  1.00  0.00     0.020 C 
BRANCH   8   9
ATOM      9  C   UNL     1      -2.053   5.771   5.795  1.00  0.00     0.078 C 
BRANCH   9  10
ATOM     10  N   UNL     1      -0.797   6.318   5.300  1.00  0.00    -0.330 NA
ATOM     11  H   UNL     1      -0.640   7.243   5.695  1.00  0.00     0.118 HD
ATOM     12  H   UNL     1      -0.849   6.457   4.290  1.00  0.00     0.118 HD
ENDBRANCH   9  10
ENDBRANCH   8   9
ENDBRANCH   7   8
ENDBRANCH   1   7
BRANCH   4  13
ATOM     13  N   UNL     1      -4.265   5.613  13.544  1.00  0.00    -0.362 N 
ATOM     14  H   UNL     1      -4.270   6.548  13.932  1.00  0.00     0.166 HD
BRANCH  13  15
ATOM     15  C   UNL     1      -4.156   4.569  14.424  1.00  0.00     0.083 C 
BRANCH  15  16
ATOM     16  C   UNL     1      -3.342   4.435  15.480  1.00  0.00     0.027 C 
BRANCH  16  17
ATOM     17  C   UNL     1      -3.861   4.500  16.855  1.00  0.00    -0.003 A 
ATOM     18  C   UNL     1      -3.033   4.355  17.982  1.00  0.00    -0.041 A 
ATOM     19  C   UNL     1      -5.232   4.674  17.099  1.00  0.00     0.119 A 
ATOM     20  C   UNL     1      -3.615   4.406  19.257  1.00  0.00     0.024 A 
ATOM     21  N   UNL     1      -5.807   4.744  18.322  1.00  0.00    -0.264 NA
ATOM     22  C   UNL     1      -4.980   4.611  19.375  1.00  0.00     0.111 A 
ATOM     23  C   UNL     1      -1.554   4.109  17.867  1.00  0.00     0.045 C 
ENDBRANCH  16  17
ENDBRANCH  15  16
ENDBRANCH  13  15
ENDBRANCH   4  13
TORSDOF 8
ENDMDL
MODEL 8
REMARK VINA RESULT:    -4.856      1.237      2.098
REMARK INTER + INTRA:          -7.614
REMARK INTER:                  -6.949
REMARK INTRA:                  -0.665
REMARK UNBOUND:                -0.629
REMARK SMILES Cc1ccncc1/C=C/Nc1ccc(CCCN)cc1
REMARK SMILES IDX 14 1 13 2 12 3 11 4 20 5 19 6 15 7 16 8 17 9 18 10 10 13
REMARK SMILES IDX 9 15 8 16 7 17 2 18 6 19 3 20 5 21 4 22 1 23
REMARK H PARENT 18 11 18 12 10 14
ROOT
ATOM      1  C   UNL     1      -2.606   4.375  17.056  1.00  0.00    -0.048 A 
ATOM      2  C   UNL     1      -1.886   3.999  15.920  1.00  0.00     0.006 A 
ATOM      3  C   UNL     1      -2.465   4.071  14.657  1.00  0.00     0.026 A 
ATOM      4  C   UNL     1      -3.801   4.442  14.483  1.00  0.00     0.038 A 
ATOM      5  C   UNL     1      -4.541   4.765  15.627  1.00  0.00     0.026 A 
ATOM      6  C   UNL     1      -3.951   4.732  16.900  1.00  0.00     0.006 A 
ENDROOT
BRANCH   1   7
ATOM      7  C   UNL     1      -1.959   4.399  18.418  1.00  0.00     0.037 C 
BRANCH   7   8
ATOM      8  C   UNL     1      -0.494   4.874  18.480  1.00  0.00     0.020 C 
BRANCH   8   9
ATOM      9  C   UNL     1      -0.254   6.227  19.166  1.00  0.00     0.078 C 
BRANCH   9  10
ATOM     10  N   UNL     1      -0.667   7.391  18.394  1.00  0.00    -0.330 NA
ATOM     11  H   UNL     1      -0.997   7.100  17.475  1.00  0.00     0.118 HD
ATOM     12  H   UNL     1       0.134   7.998  18.217  1.00  0.00     0.118 HD
ENDBRANCH   9  10
ENDBRANCH   8   9
ENDBRANCH   7   8
ENDBRANCH   1   7
BRANCH   4  13
ATOM     13  N   UNL     1      -4.427   4.402  13.223  1.00  0.00    -0.362 N 
ATOM     14  H   UNL     1      -4.692   3.488  12.876  1.00  0.00     0.166 HD
BRANCH  13  15
ATOM     15  C   UNL     1      -4.470   5.446  12.336  1.00  0.00     0.083 C 
BRANCH  15  16
ATOM     16  C   UNL     1      -3.825   5.592  11.171  1.00  0.00     0.027 C 
BRANCH  16  17
ATOM     17  C   UNL     1      -4.107   4.710  10.028  1.00  0.00    -0.003 A 
ATOM     18  C   UNL     1      -3.245   4.611   8.922  1.00  0.00    -0.041 A 
ATOM     19  C   UNL     1      -5.285   3.949   9.980  1.00  0.00     0.119 A 
ATOM     20  C   UNL     1      -3.602   3.762   7.863  1.00  0.00     0.024 A 
ATOM     21  N   UNL     1      -5.636   3.113   8.975  1.00  0.00    -0.264 NA
ATOM     22  C   UNL     1      -4.781   3.038   7.940  1.00  0.00     0.111 A 
ATOM     23  C   UNL     1      -1.976   5.409   8.817  1.00  0.00     0.045 C 
ENDBRANCH  16  17
ENDBRANCH  15  16
ENDBRANCH  13  15
ENDBRANCH   4  13
TORSDOF 8
ENDMDL
MODEL 9
REMARK VINA RESULT:    -4.821      5.569      7.368
REMARK INTER + INTRA:          -7.564
REMARK INTER:                  -6.979
REMARK INTRA:                  -0.585
REMARK UNBOUND:                -0.629
REMARK SMILES Cc1ccncc1/C=C/Nc1ccc(CCCN)cc1
REMARK SMILES IDX 14 1 13 2 12 3 11 4 20 5 19 6 15 7 16 8 17 9 18 10 10 13
REMARK SMILES IDX 9 15 8 16 7 17 2 18 6 19 3 20 5 21 4 22 1 23
REMARK H PARENT 18 11 18 12 10 14
ROOT
ATOM      1  C   UNL     1      -7.842  10.768  13.156  1.00  0.00    -0.048 A 
ATOM      2  C   UNL     1      -7.933  10.062  11.955  1.00  0.00     0.006 A 
ATOM      3  C   UNL     1      -6.954   9.140  11.597  1.00  0.00     0.026 A 
ATOM      4  C   UNL     1      -5.813   8.943  12.378  1.00  0.00     0.038 A 
ATOM      5  C   UNL     1      -5.692   9.692  13.555  1.00  0.00     0.026 A 
ATOM      6  C   UNL     1      -6.695  10.595  13.940  1.00  0.00     0.006 A 
ENDROOT
BRANCH   1   7
ATOM      7  C   UNL     1      -8.945  11.694  13.603  1.00  0.00     0.037 C 
BRANCH   7   8
ATOM      8  C   UNL     1      -9.922  12.182  12.516  1.00  0.00     0.020 C 
BRANCH   8   9
ATOM      9  C   UNL     1     -10.043  13.705  12.354  1.00  0.00     0.078 C 
BRANCH   9  10
ATOM     10  N   UNL     1      -9.683  14.214  11.038  1.00  0.00    -0.330 NA
ATOM     11  H   UNL     1      -8.780  14.683  11.080  1.00  0.00     0.118 HD
ATOM     12  H   UNL     1     -10.349  14.929  10.744  1.00  0.00     0.118 HD
ENDBRANCH   9  10
ENDBRANCH   8   9
ENDBRANCH   7   8
ENDBRANCH   1   7
BRANCH   4  13
ATOM     13  N   UNL     1      -4.763   8.101  11.963  1.00  0.00    -0.362 N 
ATOM     14  H   UNL     1      -4.009   8.537  11.446  1.00  0.00     0.166 HD
BRANCH  13  15
ATOM     15  C   UNL     1      -4.806   6.732  11.977  1.00  0.00     0.083 C 
BRANCH  15  16
ATOM     16  C   UNL     1      -3.947   5.854  11.442  1.00  0.00     0.027 C 
BRANCH  16  17
ATOM     17  C   UNL     1      -4.382   4.886  10.424  1.00  0.00    -0.003 A 
ATOM     18  C   UNL     1      -3.652   4.651   9.246  1.00  0.00    -0.041 A 
ATOM     19  C   UNL     1      -5.583   4.175  10.574  1.00  0.00     0.119 A 
ATOM     20  C   UNL     1      -4.152   3.727   8.316  1.00  0.00     0.024 A 
ATOM     21  N   UNL     1      -6.071   3.268   9.695  1.00  0.00    -0.264 NA
ATOM     22  C   UNL     1      -5.338   3.064   8.586  1.00  0.00     0.111 A 
ATOM     23  C   UNL     1      -2.377   5.381   8.931  1.00  0.00     0.045 C 
ENDBRANCH  16  17
ENDBRANCH  15  16
ENDBRANCH  13  15
ENDBRANCH   4  13
TORSDOF 8
ENDMDL
