MODEL 1
REMARK VINA RESULT:    -5.083      0.000      0.000
REMARK INTER + INTRA:          -7.957
REMARK INTER:                  -7.312
REMARK INTRA:                  -0.645
REMARK UNBOUND:                -0.645
REMARK SMILES Cc1ccncc1/C=C/Nc1ccc(CCCN)cc1
REMARK SMILES IDX 14 1 13 2 12 3 11 4 20 5 19 6 15 7 16 8 17 9 18 10 10 13
REMARK SMILES IDX 9 15 8 16 7 17 2 18 6 19 3 20 5 21 4 22 1 23
REMARK H PARENT 18 11 18 12 10 14
ROOT
ATOM      1  C   UNL     1       0.107  14.595  -4.498  1.00  0.00    -0.048 A 
ATOM      2  C   UNL     1      -0.229  13.452  -3.770  1.00  0.00     0.006 A 
ATOM      3  C   UNL     1       0.427  12.246  -3.998  1.00  0.00     0.026 A 
ATOM      4  C   UNL     1       1.383  12.112  -5.008  1.00  0.00     0.038 A 
ATOM      5  C   UNL     1       1.681  13.244  -5.777  1.00  0.00     0.026 A 
ATOM      6  C   UNL     1       1.050  14.472  -5.525  1.00  0.00     0.006 A 
ENDROOT
BRANCH   1   7
ATOM      7  C   UNL     1      -0.524  15.930  -4.191  1.00  0.00     0.037 C 
BRANCH   7   8
ATOM      8  C   UNL     1      -0.572  16.348  -2.708  1.00  0.00     0.020 C 
BRANCH   8   9
ATOM      9  C   UNL     1       0.283  17.565  -2.324  1.00  0.00     0.078 C 
BRANCH   9  10
ATOM     10  N   UNL     1       1.648  17.256  -1.923  1.00  0.00    -0.330 NA
ATOM     11  H   UNL     1       2.235  17.136  -2.748  1.00  0.00     0.118 HD
ATOM     12  H   UNL     1       1.677  16.361  -1.435  1.00  0.00     0.118 HD
ENDBRANCH   9  10
ENDBRANCH   8   9
ENDBRANCH   7   8
ENDBRANCH   1   7
BRANCH   4  13
ATOM     13  N   UNL     1       1.964  10.869  -5.323  1.00  0.00    -0.362 N 
ATOM     14  H   UNL     1       1.572  10.372  -6.114  1.00  0.00     0.166 HD
BRANCH  13  15
ATOM     15  C   UNL     1       2.821  10.177  -4.510  1.00  0.00     0.083 C 
BRANCH  15  16
ATOM     16  C   UNL     1       3.158   8.881  -4.544  1.00  0.00     0.027 C 
BRANCH  16  17
ATOM     17  C   UNL     1       2.972   8.014  -3.371  1.00  0.00    -0.003 A 
ATOM     18  C   UNL     1       2.694   6.640  -3.485  1.00  0.00    -0.041 A 
ATOM     19  C   UNL     1       3.028   8.539  -2.071  1.00  0.00     0.119 A 
ATOM     20  C   UNL     1       2.507   5.891  -2.313  1.00  0.00     0.024 A 
ATOM     21  N   UNL     1       2.867   7.828  -0.931  1.00  0.00    -0.264 NA
ATOM     22  C   UNL     1       2.613   6.516  -1.081  1.00  0.00     0.111 A 
ATOM     23  C   UNL     1       2.553   5.955  -4.815  1.00  0.00     0.045 C 
ENDBRANCH  16  17
ENDBRANCH  15  16
ENDBRANCH  13  15
ENDBRANCH   4  13
TORSDOF 8
ENDMDL
MODEL 2
REMARK VINA RESULT:    -5.062      1.964      8.638
REMARK INTER + INTRA:          -7.927
REMARK INTER:                  -7.344
REMARK INTRA:                  -0.584
REMARK UNBOUND:                -0.645
REMARK SMILES Cc1ccncc1/C=C/Nc1ccc(CCCN)cc1
REMARK SMILES IDX 14 1 13 2 12 3 11 4 20 5 19 6 15 7 16 8 17 9 18 10 10 13
REMARK SMILES IDX 9 15 8 16 7 17 2 18 6 19 3 20 5 21 4 22 1 23
REMARK H PARENT 18 11 18 12 10 14
ROOT
ATOM      1  C   UNL     1       3.327   7.422  -2.812  1.00  0.00    -0.048 A 
ATOM      2  C   UNL     1       3.011   7.593  -4.161  1.00  0.00     0.006 A 
ATOM      3  C   UNL     1       2.889   8.868  -4.706  1.00  0.00     0.026 A 
ATOM      4  C   UNL     1       2.999  10.015  -3.917  1.00  0.00     0.038 A 
ATOM      5  C   UNL     1       3.259   9.844  -2.552  1.00  0.00     0.026 A 
ATOM      6  C   UNL     1       3.421   8.562  -2.005  1.00  0.00     0.006 A 
ENDROOT
BRANCH   1   7
ATOM      7  C   UNL     1       3.561   6.049  -2.233  1.00  0.00     0.037 C 
BRANCH   7   8
ATOM      8  C   UNL     1       3.142   5.837  -0.765  1.00  0.00     0.020 C 
BRANCH   8   9
ATOM      9  C   UNL     1       4.037   4.902   0.062  1.00  0.00     0.078 C 
BRANCH   9  10
ATOM     10  N   UNL     1       4.025   3.508  -0.357  1.00  0.00    -0.330 NA
ATOM     11  H   UNL     1       3.719   3.438  -1.326  1.00  0.00     0.118 HD
ATOM     12  H   UNL     1       3.337   2.984   0.185  1.00  0.00     0.118 HD
ENDBRANCH   9  10
ENDBRANCH   8   9
ENDBRANCH   7   8
ENDBRANCH   1   7
BRANCH   4  13
ATOM     13  N   UNL     1       2.759  11.302  -4.436  1.00  0.00    -0.362 N 
ATOM     14  H   UNL     1       3.463  12.005  -4.250  1.00  0.00     0.166 HD
BRANCH  13  15
ATOM     15  C   UNL     1       1.559  11.732  -4.937  1.00  0.00     0.083 C 
BRANCH  15  16
ATOM     16  C   UNL     1       0.796  12.759  -4.539  1.00  0.00     0.027 C 
BRANCH  16  17
ATOM     17  C   UNL     1       0.850  14.059  -5.224  1.00  0.00    -0.003 A 
ATOM     18  C   UNL     1       0.180  15.196  -4.738  1.00  0.00    -0.041 A 
ATOM     19  C   UNL     1       1.554  14.209  -6.428  1.00  0.00     0.119 A 
ATOM     20  C   UNL     1       0.266  16.392  -5.467  1.00  0.00     0.024 A 
ATOM     21  N   UNL     1       1.662  15.359  -7.135  1.00  0.00    -0.264 NA
ATOM     22  C   UNL     1       1.015  16.426  -6.633  1.00  0.00     0.111 A 
ATOM     23  C   UNL     1      -0.655  15.165  -3.489  1.00  0.00     0.045 C 
ENDBRANCH  16  17
ENDBRANCH  15  16
ENDBRANCH  13  15
ENDBRANCH   4  13
TORSDOF 8
ENDMDL
MODEL 3
REMARK VINA RESULT:    -5.052      4.690      8.383
REMARK INTER + INTRA:          -7.913
REMARK INTER:                  -7.324
REMARK INTRA:                  -0.589
REMARK UNBOUND:                -0.645
REMARK SMILES Cc1ccncc1/C=C/Nc1ccc(CCCN)cc1
REMARK SMILES IDX 14 1 13 2 12 3 11 4 20 5 19 6 15 7 16 8 17 9 18 10 10 13
REMARK SMILES IDX 9 15 8 16 7 17 2 18 6 19 3 20 5 21 4 22 1 23
REMARK H PARENT 18 11 18 12 10 14
ROOT
ATOM      1  C   UNL     1       2.276   7.470  -3.237  1.00  0.00    -0.048 A 
ATOM      2  C   UNL     1       2.783   8.185  -2.150  1.00  0.00     0.006 A 
ATOM      3  C   UNL     1       3.539   9.336  -2.347  1.00  0.00     0.026 A 
ATOM      4  C   UNL     1       3.885   9.775  -3.627  1.00  0.00     0.038 A 
ATOM      5  C   UNL     1       3.425   9.027  -4.718  1.00  0.00     0.026 A 
ATOM      6  C   UNL     1       2.630   7.887  -4.526  1.00  0.00     0.006 A 
ENDROOT
BRANCH   1   7
ATOM      7  C   UNL     1       1.372   6.280  -3.036  1.00  0.00     0.037 C 
BRANCH   7   8
ATOM      8  C   UNL     1       1.445   5.167  -4.100  1.00  0.00     0.020 C 
BRANCH   8   9
ATOM      9  C   UNL     1       0.108   4.520  -4.490  1.00  0.00     0.078 C 
BRANCH   9  10
ATOM     10  N   UNL     1      -0.526   3.735  -3.440  1.00  0.00    -0.330 NA
ATOM     11  H   UNL     1      -1.383   4.193  -3.132  1.00  0.00     0.118 HD
ATOM     12  H   UNL     1       0.076   3.699  -2.617  1.00  0.00     0.118 HD
ENDBRANCH   9  10
ENDBRANCH   8   9
ENDBRANCH   7   8
ENDBRANCH   1   7
BRANCH   4  13
ATOM     13  N   UNL     1       4.748  10.868  -3.832  1.00  0.00    -0.362 N 
ATOM     14  H   UNL     1       4.385  11.636  -4.383  1.00  0.00     0.166 HD
BRANCH  13  15
ATOM     15  C   UNL     1       6.093  10.863  -3.572  1.00  0.00     0.083 C 
BRANCH  15  16
ATOM     16  C   UNL     1       7.118  11.037  -4.417  1.00  0.00     0.027 C 
BRANCH  16  17
ATOM     17  C   UNL     1       7.772  12.346  -4.563  1.00  0.00    -0.003 A 
ATOM     18  C   UNL     1       8.826  12.565  -5.467  1.00  0.00    -0.041 A 
ATOM     19  C   UNL     1       7.390  13.434  -3.764  1.00  0.00     0.119 A 
ATOM     20  C   UNL     1       9.410  13.840  -5.524  1.00  0.00     0.024 A 
ATOM     21  N   UNL     1       7.930  14.674  -3.819  1.00  0.00    -0.264 NA
ATOM     22  C   UNL     1       8.929  14.847  -4.703  1.00  0.00     0.111 A 
ATOM     23  C   UNL     1       9.373  11.475  -6.345  1.00  0.00     0.045 C 
ENDBRANCH  16  17
ENDBRANCH  15  16
ENDBRANCH  13  15
ENDBRANCH   4  13
TORSDOF 8
ENDMDL
MODEL 4
REMARK VINA RESULT:    -5.016      4.790      6.875
REMARK INTER + INTRA:          -7.861
REMARK INTER:                  -7.225
REMARK INTRA:                  -0.635
REMARK UNBOUND:                -0.645
REMARK SMILES Cc1ccncc1/C=C/Nc1ccc(CCCN)cc1
REMARK SMILES IDX 14 1 13 2 12 3 11 4 20 5 19 6 15 7 16 8 17 9 18 10 10 13
REMARK SMILES IDX 9 15 8 16 7 17 2 18 6 19 3 20 5 21 4 22 1 23
REMARK H PARENT 18 11 18 12 10 14
ROOT
ATOM      1  C   UNL     1       8.725  12.117  -5.317  1.00  0.00    -0.048 A 
ATOM      2  C   UNL     1       8.403  10.760  -5.242  1.00  0.00     0.006 A 
ATOM      3  C   UNL     1       7.273  10.335  -4.550  1.00  0.00     0.026 A 
ATOM      4  C   UNL     1       6.467  11.232  -3.843  1.00  0.00     0.038 A 
ATOM      5  C   UNL     1       6.821  12.586  -3.871  1.00  0.00     0.026 A 
ATOM      6  C   UNL     1       7.937  13.024  -4.599  1.00  0.00     0.006 A 
ENDROOT
BRANCH   1   7
ATOM      7  C   UNL     1       9.888  12.598  -6.148  1.00  0.00     0.037 C 
BRANCH   7   8
ATOM      8  C   UNL     1      10.018  12.008  -7.565  1.00  0.00     0.020 C 
BRANCH   8   9
ATOM      9  C   UNL     1       9.642  12.945  -8.722  1.00  0.00     0.078 C 
BRANCH   9  10
ATOM     10  N   UNL     1       8.232  12.943  -9.084  1.00  0.00    -0.330 NA
ATOM     11  H   UNL     1       8.034  13.712  -9.722  1.00  0.00     0.118 HD
ATOM     12  H   UNL     1       7.657  13.117  -8.259  1.00  0.00     0.118 HD
ENDBRANCH   9  10
ENDBRANCH   8   9
ENDBRANCH   7   8
ENDBRANCH   1   7
BRANCH   4  13
ATOM     13  N   UNL     1       5.393  10.796  -3.044  1.00  0.00    -0.362 N 
ATOM     14  H   UNL     1       5.500  10.902  -2.043  1.00  0.00     0.166 HD
BRANCH  13  15
ATOM     15  C   UNL     1       4.353  10.022  -3.485  1.00  0.00     0.083 C 
BRANCH  15  16
ATOM     16  C   UNL     1       3.421   9.373  -2.775  1.00  0.00     0.027 C 
BRANCH  16  17
ATOM     17  C   UNL     1       2.952   8.037  -3.174  1.00  0.00    -0.003 A 
ATOM     18  C   UNL     1       2.552   7.067  -2.238  1.00  0.00    -0.041 A 
ATOM     19  C   UNL     1       2.920   7.660  -4.525  1.00  0.00     0.119 A 
ATOM     20  C   UNL     1       2.140   5.810  -2.705  1.00  0.00     0.024 A 
ATOM     21  N   UNL     1       2.509   6.458  -4.993  1.00  0.00    -0.264 NA
ATOM     22  C   UNL     1       2.125   5.561  -4.068  1.00  0.00     0.111 A 
ATOM     23  C   UNL     1       2.587   7.316  -0.756  1.00  0.00     0.045 C 
ENDBRANCH  16  17
ENDBRANCH  15  16
ENDBRANCH  13  15
ENDBRANCH   4  13
TORSDOF 8
ENDMDL
MODEL 5
REMARK VINA RESULT:    -4.958      4.607      8.467
REMARK INTER + INTRA:          -7.777
REMARK INTER:                  -7.162
REMARK INTRA:                  -0.615
REMARK UNBOUND:                -0.645
REMARK SMILES Cc1ccncc1/C=C/Nc1ccc(CCCN)cc1
REMARK SMILES IDX 14 1 13 2 12 3 11 4 20 5 19 6 15 7 16 8 17 9 18 10 10 13
REMARK SMILES IDX 9 15 8 16 7 17 2 18 6 19 3 20 5 21 4 22 1 23
REMARK H PARENT 18 11 18 12 10 14
ROOT
ATOM      1  C   UNL     1       2.454   7.316  -2.149  1.00  0.00    -0.048 A 
ATOM      2  C   UNL     1       2.956   8.364  -1.374  1.00  0.00     0.006 A 
ATOM      3  C   UNL     1       3.489   9.500  -1.975  1.00  0.00     0.026 A 
ATOM      4  C   UNL     1       3.614   9.604  -3.362  1.00  0.00     0.038 A 
ATOM      5  C   UNL     1       3.164   8.530  -4.139  1.00  0.00     0.026 A 
ATOM      6  C   UNL     1       2.590   7.398  -3.540  1.00  0.00     0.006 A 
ENDROOT
BRANCH   1   7
ATOM      7  C   UNL     1       1.783   6.126  -1.512  1.00  0.00     0.037 C 
BRANCH   7   8
ATOM      8  C   UNL     1       2.582   4.808  -1.494  1.00  0.00     0.020 C 
BRANCH   8   9
ATOM      9  C   UNL     1       3.829   4.789  -0.597  1.00  0.00     0.078 C 
BRANCH   9  10
ATOM     10  N   UNL     1       3.563   4.609   0.823  1.00  0.00    -0.330 NA
ATOM     11  H   UNL     1       2.698   5.083   1.079  1.00  0.00     0.118 HD
ATOM     12  H   UNL     1       4.294   5.055   1.377  1.00  0.00     0.118 HD
ENDBRANCH   9  10
ENDBRANCH   8   9
ENDBRANCH   7   8
ENDBRANCH   1   7
BRANCH   4  13
ATOM     13  N   UNL     1       4.260  10.697  -3.972  1.00  0.00    -0.362 N 
ATOM     14  H   UNL     1       3.666  11.389  -4.411  1.00  0.00     0.166 HD
BRANCH  13  15
ATOM     15  C   UNL     1       5.602  10.764  -4.237  1.00  0.00     0.083 C 
BRANCH  15  16
ATOM     16  C   UNL     1       6.538  11.539  -3.674  1.00  0.00     0.027 C 
BRANCH  16  17
ATOM     17  C   UNL     1       7.678  12.046  -4.453  1.00  0.00    -0.003 A 
ATOM     18  C   UNL     1       8.032  13.406  -4.475  1.00  0.00    -0.041 A 
ATOM     19  C   UNL     1       8.447  11.182  -5.248  1.00  0.00     0.119 A 
ATOM     20  C   UNL     1       9.121  13.807  -5.265  1.00  0.00     0.024 A 
ATOM     21  N   UNL     1       9.510  11.548  -6.002  1.00  0.00    -0.264 NA
ATOM     22  C   UNL     1       9.823  12.856  -5.989  1.00  0.00     0.111 A 
ATOM     23  C   UNL     1       7.264  14.450  -3.714  1.00  0.00     0.045 C 
ENDBRANCH  16  17
ENDBRANCH  15  16
ENDBRANCH  13  15
ENDBRANCH   4  13
TORSDOF 8
ENDMDL
MODEL 6
REMARK VINA RESULT:    -4.936      4.644      8.519
REMARK INTER + INTRA:          -7.746
REMARK INTER:                  -7.200
REMARK INTRA:                  -0.546
REMARK UNBOUND:                -0.645
REMARK SMILES Cc1ccncc1/C=C/Nc1ccc(CCCN)cc1
REMARK SMILES IDX 14 1 13 2 12 3 11 4 20 5 19 6 15 7 16 8 17 9 18 10 10 13
REMARK SMILES IDX 9 15 8 16 7 17 2 18 6 19 3 20 5 21 4 22 1 23
REMARK H PARENT 18 11 18 12 10 14
ROOT
ATOM      1  C   UNL     1       2.313   7.311  -3.060  1.00  0.00    -0.048 A 
ATOM      2  C   UNL     1       2.817   8.147  -2.061  1.00  0.00     0.006 A 
ATOM      3  C   UNL     1       3.468   9.333  -2.388  1.00  0.00     0.026 A 
ATOM      4  C   UNL     1       3.710   9.693  -3.716  1.00  0.00     0.038 A 
ATOM      5  C   UNL     1       3.256   8.828  -4.718  1.00  0.00     0.026 A 
ATOM      6  C   UNL     1       2.565   7.650  -4.395  1.00  0.00     0.006 A 
ENDROOT
BRANCH   1   7
ATOM      7  C   UNL     1       1.519   6.076  -2.718  1.00  0.00     0.037 C 
BRANCH   7   8
ATOM      8  C   UNL     1       1.539   4.932  -3.751  1.00  0.00     0.020 C 
BRANCH   8   9
ATOM      9  C   UNL     1       0.183   4.557  -4.366  1.00  0.00     0.078 C 
BRANCH   9  10
ATOM     10  N   UNL     1      -0.641   3.676  -3.550  1.00  0.00    -0.330 NA
ATOM     11  H   UNL     1      -0.059   3.178  -2.878  1.00  0.00     0.118 HD
ATOM     12  H   UNL     1      -1.067   2.954  -4.131  1.00  0.00     0.118 HD
ENDBRANCH   9  10
ENDBRANCH   8   9
ENDBRANCH   7   8
ENDBRANCH   1   7
BRANCH   4  13
ATOM     13  N   UNL     1       4.471  10.829  -4.052  1.00  0.00    -0.362 N 
ATOM     14  H   UNL     1       3.960  11.629  -4.406  1.00  0.00     0.166 HD
BRANCH  13  15
ATOM     15  C   UNL     1       5.834  10.848  -4.180  1.00  0.00     0.083 C 
BRANCH  15  16
ATOM     16  C   UNL     1       6.720  11.713  -3.668  1.00  0.00     0.027 C 
BRANCH  16  17
ATOM     17  C   UNL     1       7.855  12.202  -4.465  1.00  0.00    -0.003 A 
ATOM     18  C   UNL     1       8.289  13.539  -4.420  1.00  0.00    -0.041 A 
ATOM     19  C   UNL     1       8.538  11.348  -5.345  1.00  0.00     0.119 A 
ATOM     20  C   UNL     1       9.366  13.926  -5.232  1.00  0.00     0.024 A 
ATOM     21  N   UNL     1       9.589  11.700  -6.121  1.00  0.00    -0.264 NA
ATOM     22  C   UNL     1       9.980  12.985  -6.042  1.00  0.00     0.111 A 
ATOM     23  C   UNL     1       7.616  14.574  -3.564  1.00  0.00     0.045 C 
ENDBRANCH  16  17
ENDBRANCH  15  16
ENDBRANCH  13  15
ENDBRANCH   4  13
TORSDOF 8
ENDMDL
MODEL 7
REMARK VINA RESULT:    -4.930      4.719      6.678
REMARK INTER + INTRA:          -7.737
REMARK INTER:                  -7.137
REMARK INTRA:                  -0.600
REMARK UNBOUND:                -0.645
REMARK SMILES Cc1ccncc1/C=C/Nc1ccc(CCCN)cc1
REMARK SMILES IDX 14 1 13 2 12 3 11 4 20 5 19 6 15 7 16 8 17 9 18 10 10 13
REMARK SMILES IDX 9 15 8 16 7 17 2 18 6 19 3 20 5 21 4 22 1 23
REMARK H PARENT 18 11 18 12 10 14
ROOT
ATOM      1  C   UNL     1       8.777  12.238  -5.322  1.00  0.00    -0.048 A 
ATOM      2  C   UNL     1       7.917  13.102  -4.642  1.00  0.00     0.006 A 
ATOM      3  C   UNL     1       6.829  12.606  -3.929  1.00  0.00     0.026 A 
ATOM      4  C   UNL     1       6.512  11.246  -3.930  1.00  0.00     0.038 A 
ATOM      5  C   UNL     1       7.341  10.385  -4.659  1.00  0.00     0.026 A 
ATOM      6  C   UNL     1       8.461  10.875  -5.348  1.00  0.00     0.006 A 
ENDROOT
BRANCH   1   7
ATOM      7  C   UNL     1      10.015  12.754  -6.013  1.00  0.00     0.037 C 
BRANCH   7   8
ATOM      8  C   UNL     1      10.248  12.278  -7.461  1.00  0.00     0.020 C 
BRANCH   8   9
ATOM      9  C   UNL     1       9.649  13.162  -8.565  1.00  0.00     0.078 C 
BRANCH   9  10
ATOM     10  N   UNL     1       8.325  12.764  -9.021  1.00  0.00    -0.330 NA
ATOM     11  H   UNL     1       8.407  12.116  -9.804  1.00  0.00     0.118 HD
ATOM     12  H   UNL     1       7.822  13.572  -9.387  1.00  0.00     0.118 HD
ENDBRANCH   9  10
ENDBRANCH   8   9
ENDBRANCH   7   8
ENDBRANCH   1   7
BRANCH   4  13
ATOM     13  N   UNL     1       5.348  10.752  -3.311  1.00  0.00    -0.362 N 
ATOM     14  H   UNL     1       5.458  10.361  -2.384  1.00  0.00     0.166 HD
BRANCH  13  15
ATOM     15  C   UNL     1       4.158  10.527  -3.950  1.00  0.00     0.083 C 
BRANCH  15  16
ATOM     16  C   UNL     1       3.455   9.391  -4.054  1.00  0.00     0.027 C 
BRANCH  16  17
ATOM     17  C   UNL     1       3.151   8.572  -2.871  1.00  0.00    -0.003 A 
ATOM     18  C   UNL     1       2.771   7.222  -2.966  1.00  0.00    -0.041 A 
ATOM     19  C   UNL     1       3.194   9.125  -1.582  1.00  0.00     0.119 A 
ATOM     20  C   UNL     1       2.475   6.520  -1.787  1.00  0.00     0.024 A 
ATOM     21  N   UNL     1       2.929   8.459  -0.434  1.00  0.00    -0.264 NA
ATOM     22  C   UNL     1       2.578   7.167  -0.566  1.00  0.00     0.111 A 
ATOM     23  C   UNL     1       2.632   6.515  -4.285  1.00  0.00     0.045 C 
ENDBRANCH  16  17
ENDBRANCH  15  16
ENDBRANCH  13  15
ENDBRANCH   4  13
TORSDOF 8
ENDMDL
MODEL 8
REMARK VINA RESULT:    -4.927      2.071      8.504
REMARK INTER + INTRA:          -7.732
REMARK INTER:                  -7.203
REMARK INTRA:                  -0.529
REMARK UNBOUND:                -0.645
REMARK SMILES Cc1ccncc1/C=C/Nc1ccc(CCCN)cc1
REMARK SMILES IDX 14 1 13 2 12 3 11 4 20 5 19 6 15 7 16 8 17 9 18 10 10 13
REMARK SMILES IDX 9 15 8 16 7 17 2 18 6 19 3 20 5 21 4 22 1 23
REMARK H PARENT 18 11 18 12 10 14
ROOT
ATOM      1  C   UNL     1       2.941   6.742  -3.542  1.00  0.00    -0.048 A 
ATOM      2  C   UNL     1       2.886   7.315  -4.814  1.00  0.00     0.006 A 
ATOM      3  C   UNL     1       2.995   8.692  -4.978  1.00  0.00     0.026 A 
ATOM      4  C   UNL     1       3.084   9.555  -3.883  1.00  0.00     0.038 A 
ATOM      5  C   UNL     1       3.083   8.987  -2.604  1.00  0.00     0.026 A 
ATOM      6  C   UNL     1       3.012   7.595  -2.434  1.00  0.00     0.006 A 
ENDROOT
BRANCH   1   7
ATOM      7  C   UNL     1       2.926   5.245  -3.359  1.00  0.00     0.037 C 
BRANCH   7   8
ATOM      8  C   UNL     1       1.590   4.615  -2.920  1.00  0.00     0.020 C 
BRANCH   8   9
ATOM      9  C   UNL     1       0.422   4.759  -3.907  1.00  0.00     0.078 C 
BRANCH   9  10
ATOM     10  N   UNL     1       0.280   3.664  -4.856  1.00  0.00    -0.330 NA
ATOM     11  H   UNL     1      -0.580   3.150  -4.670  1.00  0.00     0.118 HD
ATOM     12  H   UNL     1       1.034   2.989  -4.729  1.00  0.00     0.118 HD
ENDBRANCH   9  10
ENDBRANCH   8   9
ENDBRANCH   7   8
ENDBRANCH   1   7
BRANCH   4  13
ATOM     13  N   UNL     1       3.075  10.955  -4.036  1.00  0.00    -0.362 N 
ATOM     14  H   UNL     1       3.840  11.463  -3.612  1.00  0.00     0.166 HD
BRANCH  13  15
ATOM     15  C   UNL     1       2.004  11.687  -4.477  1.00  0.00     0.083 C 
BRANCH  15  16
ATOM     16  C   UNL     1       1.976  12.701  -5.352  1.00  0.00     0.027 C 
BRANCH  16  17
ATOM     17  C   UNL     1       1.009  13.800  -5.213  1.00  0.00    -0.003 A 
ATOM     18  C   UNL     1       1.031  14.934  -6.045  1.00  0.00    -0.041 A 
ATOM     19  C   UNL     1       0.035  13.778  -4.204  1.00  0.00     0.119 A 
ATOM     20  C   UNL     1       0.086  15.948  -5.828  1.00  0.00     0.024 A 
ATOM     21  N   UNL     1      -0.895  14.739  -3.991  1.00  0.00    -0.264 NA
ATOM     22  C   UNL     1      -0.848  15.802  -4.814  1.00  0.00     0.111 A 
ATOM     23  C   UNL     1       2.053  15.114  -7.132  1.00  0.00     0.045 C 
ENDBRANCH  16  17
ENDBRANCH  15  16
ENDBRANCH  13  15
ENDBRANCH   4  13
TORSDOF 8
ENDMDL
MODEL 9
REMARK VINA RESULT:    -4.918      2.234      3.012
REMARK INTER + INTRA:          -7.720
REMARK INTER:                  -7.138
REMARK INTRA:                  -0.583
REMARK UNBOUND:                -0.645
REMARK SMILES Cc1ccncc1/C=C/Nc1ccc(CCCN)cc1
REMARK SMILES IDX 14 1 13 2 12 3 11 4 20 5 19 6 15 7 16 8 17 9 18 10 10 13
REMARK SMILES IDX 9 15 8 16 7 17 2 18 6 19 3 20 5 21 4 22 1 23
REMARK H PARENT 18 11 18 12 10 14
ROOT
ATOM      1  C   UNL     1      -0.249  15.555  -5.094  1.00  0.00    -0.048 A 
ATOM      2  C   UNL     1      -0.574  14.484  -4.259  1.00  0.00     0.006 A 
ATOM      3  C   UNL     1       0.181  13.315  -4.277  1.00  0.00     0.026 A 
ATOM      4  C   UNL     1       1.235  13.138  -5.177  1.00  0.00     0.038 A 
ATOM      5  C   UNL     1       1.526  14.190  -6.054  1.00  0.00     0.026 A 
ATOM      6  C   UNL     1       0.793  15.385  -6.014  1.00  0.00     0.006 A 
ENDROOT
BRANCH   1   7
ATOM      7  C   UNL     1      -0.996  16.863  -5.012  1.00  0.00     0.037 C 
BRANCH   7   8
ATOM      8  C   UNL     1      -2.470  16.791  -4.566  1.00  0.00     0.020 C 
BRANCH   8   9
ATOM      9  C   UNL     1      -3.516  17.108  -5.644  1.00  0.00     0.078 C 
BRANCH   9  10
ATOM     10  N   UNL     1      -4.563  16.108  -5.798  1.00  0.00    -0.330 NA
ATOM     11  H   UNL     1      -4.149  15.183  -5.910  1.00  0.00     0.118 HD
ATOM     12  H   UNL     1      -5.088  16.278  -6.656  1.00  0.00     0.118 HD
ENDBRANCH   9  10
ENDBRANCH   8   9
ENDBRANCH   7   8
ENDBRANCH   1   7
BRANCH   4  13
ATOM     13  N   UNL     1       1.926  11.916  -5.283  1.00  0.00    -0.362 N 
ATOM     14  H   UNL     1       2.125  11.586  -6.219  1.00  0.00     0.166 HD
BRANCH  13  15
ATOM     15  C   UNL     1       2.117  11.033  -4.253  1.00  0.00     0.083 C 
BRANCH  15  16
ATOM     16  C   UNL     1       3.104  10.146  -4.071  1.00  0.00     0.027 C 
BRANCH  16  17
ATOM     17  C   UNL     1       2.952   8.742  -4.483  1.00  0.00    -0.003 A 
ATOM     18  C   UNL     1       2.849   7.691  -3.555  1.00  0.00    -0.041 A 
ATOM     19  C   UNL     1       2.941   8.387  -5.840  1.00  0.00     0.119 A 
ATOM     20  C   UNL     1       2.731   6.377  -4.034  1.00  0.00     0.024 A 
ATOM     21  N   UNL     1       2.810   7.128  -6.320  1.00  0.00    -0.264 NA
ATOM     22  C   UNL     1       2.704   6.152  -5.401  1.00  0.00     0.111 A 
ATOM     23  C   UNL     1       2.901   7.920  -2.070  1.00  0.00     0.045 C 
ENDBRANCH  16  17
ENDBRANCH  15  16
ENDBRANCH  13  15
ENDBRANCH   4  13
TORSDOF 8
ENDMDL
