MODEL 1
REMARK VINA RESULT:    -5.100      0.000      0.000
REMARK INTER + INTRA:          -7.979
REMARK INTER:                  -7.336
REMARK INTRA:                  -0.643
REMARK UNBOUND:                -0.643
REMARK SMILES Cc1ccncc1/C=C/Nc1ccc(CCCN)cc1
REMARK SMILES IDX 14 1 13 2 12 3 11 4 20 5 19 6 15 7 16 8 17 9 18 10 10 13
REMARK SMILES IDX 9 15 8 16 7 17 2 18 6 19 3 20 5 21 4 22 1 23
REMARK H PARENT 18 11 18 12 10 14
ROOT
ATOM      1  C   UNL     1     -10.198   7.034  12.160  1.00  0.00    -0.048 A 
ATOM      2  C   UNL     1      -9.015   6.873  11.437  1.00  0.00     0.006 A 
ATOM      3  C   UNL     1      -9.013   6.206  10.216  1.00  0.00     0.026 A 
ATOM      4  C   UNL     1     -10.169   5.608   9.707  1.00  0.00     0.038 A 
ATOM      5  C   UNL     1     -11.345   5.720  10.459  1.00  0.00     0.026 A 
ATOM      6  C   UNL     1     -11.360   6.425  11.672  1.00  0.00     0.006 A 
ENDROOT
BRANCH   1   7
ATOM      7  C   UNL     1     -10.231   7.842  13.434  1.00  0.00     0.037 C 
BRANCH   7   8
ATOM      8  C   UNL     1      -9.802   9.318  13.328  1.00  0.00     0.020 C 
BRANCH   8   9
ATOM      9  C   UNL     1     -10.926  10.357  13.448  1.00  0.00     0.078 C 
BRANCH   9  10
ATOM     10  N   UNL     1     -11.245  11.065  12.217  1.00  0.00    -0.330 NA
ATOM     11  H   UNL     1     -10.387  11.378  11.763  1.00  0.00     0.118 HD
ATOM     12  H   UNL     1     -11.770  11.914  12.425  1.00  0.00     0.118 HD
ENDBRANCH   9  10
ENDBRANCH   8   9
ENDBRANCH   7   8
ENDBRANCH   1   7
BRANCH   4  13
ATOM     13  N   UNL     1     -10.150   4.831   8.533  1.00  0.00    -0.362 N 
ATOM     14  H   UNL     1     -10.217   3.828   8.651  1.00  0.00     0.166 HD
BRANCH  13  15
ATOM     15  C   UNL     1      -9.796   5.294   7.294  1.00  0.00     0.083 C 
BRANCH  15  16
ATOM     16  C   UNL     1      -9.362   4.609   6.227  1.00  0.00     0.027 C 
BRANCH  16  17
ATOM     17  C   UNL     1      -8.122   4.987   5.532  1.00  0.00    -0.003 A 
ATOM     18  C   UNL     1      -7.338   4.056   4.829  1.00  0.00    -0.041 A 
ATOM     19  C   UNL     1      -7.646   6.307   5.576  1.00  0.00     0.119 A 
ATOM     20  C   UNL     1      -6.156   4.498   4.214  1.00  0.00     0.024 A 
ATOM     21  N   UNL     1      -6.519   6.753   4.975  1.00  0.00    -0.264 NA
ATOM     22  C   UNL     1      -5.801   5.835   4.304  1.00  0.00     0.111 A 
ATOM     23  C   UNL     1      -7.699   2.600   4.745  1.00  0.00     0.045 C 
ENDBRANCH  16  17
ENDBRANCH  15  16
ENDBRANCH  13  15
ENDBRANCH   4  13
TORSDOF 8
ENDMDL
MODEL 2
REMARK VINA RESULT:    -5.006      2.019      8.414
REMARK INTER + INTRA:          -7.845
REMARK INTER:                  -7.306
REMARK INTRA:                  -0.539
REMARK UNBOUND:                -0.643
REMARK SMILES Cc1ccncc1/C=C/Nc1ccc(CCCN)cc1
REMARK SMILES IDX 14 1 13 2 12 3 11 4 20 5 19 6 15 7 16 8 17 9 18 10 10 13
REMARK SMILES IDX 9 15 8 16 7 17 2 18 6 19 3 20 5 21 4 22 1 23
REMARK H PARENT 18 11 18 12 10 14
ROOT
ATOM      1  C   UNL     1      -7.364   4.015   4.662  1.00  0.00    -0.048 A 
ATOM      2  C   UNL     1      -8.334   3.169   5.203  1.00  0.00     0.006 A 
ATOM      3  C   UNL     1      -9.346   3.676   6.013  1.00  0.00     0.026 A 
ATOM      4  C   UNL     1      -9.387   5.024   6.378  1.00  0.00     0.038 A 
ATOM      5  C   UNL     1      -8.381   5.863   5.882  1.00  0.00     0.026 A 
ATOM      6  C   UNL     1      -7.381   5.365   5.034  1.00  0.00     0.006 A 
ENDROOT
BRANCH   1   7
ATOM      7  C   UNL     1      -6.322   3.496   3.703  1.00  0.00     0.037 C 
BRANCH   7   8
ATOM      8  C   UNL     1      -4.947   3.140   4.301  1.00  0.00     0.020 C 
BRANCH   8   9
ATOM      9  C   UNL     1      -4.946   2.053   5.385  1.00  0.00     0.078 C 
BRANCH   9  10
ATOM     10  N   UNL     1      -5.003   0.686   4.887  1.00  0.00    -0.330 NA
ATOM     11  H   UNL     1      -5.954   0.328   4.959  1.00  0.00     0.118 HD
ATOM     12  H   UNL     1      -4.435   0.074   5.474  1.00  0.00     0.118 HD
ENDBRANCH   9  10
ENDBRANCH   8   9
ENDBRANCH   7   8
ENDBRANCH   1   7
BRANCH   4  13
ATOM     13  N   UNL     1     -10.337   5.520   7.291  1.00  0.00    -0.362 N 
ATOM     14  H   UNL     1     -11.257   5.724   6.923  1.00  0.00     0.166 HD
BRANCH  13  15
ATOM     15  C   UNL     1     -10.047   5.982   8.548  1.00  0.00     0.083 C 
BRANCH  15  16
ATOM     16  C   UNL     1     -10.253   5.393   9.733  1.00  0.00     0.027 C 
BRANCH  16  17
ATOM     17  C   UNL     1     -10.348   6.183  10.970  1.00  0.00    -0.003 A 
ATOM     18  C   UNL     1     -11.535   6.272  11.719  1.00  0.00    -0.041 A 
ATOM     19  C   UNL     1      -9.251   6.921  11.438  1.00  0.00     0.119 A 
ATOM     20  C   UNL     1     -11.545   7.068  12.874  1.00  0.00     0.024 A 
ATOM     21  N   UNL     1      -9.238   7.679  12.560  1.00  0.00    -0.264 NA
ATOM     22  C   UNL     1     -10.388   7.731  13.254  1.00  0.00     0.111 A 
ATOM     23  C   UNL     1     -12.802   5.577  11.305  1.00  0.00     0.045 C 
ENDBRANCH  16  17
ENDBRANCH  15  16
ENDBRANCH  13  15
ENDBRANCH   4  13
TORSDOF 8
ENDMDL
MODEL 3
REMARK VINA RESULT:    -4.986      1.777      8.549
REMARK INTER + INTRA:          -7.815
REMARK INTER:                  -7.223
REMARK INTRA:                  -0.592
REMARK UNBOUND:                -0.643
REMARK SMILES Cc1ccncc1/C=C/Nc1ccc(CCCN)cc1
REMARK SMILES IDX 14 1 13 2 12 3 11 4 20 5 19 6 15 7 16 8 17 9 18 10 10 13
REMARK SMILES IDX 9 15 8 16 7 17 2 18 6 19 3 20 5 21 4 22 1 23
REMARK H PARENT 18 11 18 12 10 14
ROOT
ATOM      1  C   UNL     1      -8.097   5.211   5.023  1.00  0.00    -0.048 A 
ATOM      2  C   UNL     1      -8.793   4.191   5.675  1.00  0.00     0.006 A 
ATOM      3  C   UNL     1      -9.620   4.474   6.758  1.00  0.00     0.026 A 
ATOM      4  C   UNL     1      -9.725   5.765   7.281  1.00  0.00     0.038 A 
ATOM      5  C   UNL     1      -8.983   6.780   6.664  1.00  0.00     0.026 A 
ATOM      6  C   UNL     1      -8.178   6.507   5.547  1.00  0.00     0.006 A 
ENDROOT
BRANCH   1   7
ATOM      7  C   UNL     1      -7.279   4.932   3.787  1.00  0.00     0.037 C 
BRANCH   7   8
ATOM      8  C   UNL     1      -5.942   5.688   3.658  1.00  0.00     0.020 C 
BRANCH   8   9
ATOM      9  C   UNL     1      -5.249   5.600   2.290  1.00  0.00     0.078 C 
BRANCH   9  10
ATOM     10  N   UNL     1      -4.432   6.753   1.939  1.00  0.00    -0.330 NA
ATOM     11  H   UNL     1      -3.444   6.518   2.021  1.00  0.00     0.118 HD
ATOM     12  H   UNL     1      -4.589   7.511   2.604  1.00  0.00     0.118 HD
ENDBRANCH   9  10
ENDBRANCH   8   9
ENDBRANCH   7   8
ENDBRANCH   1   7
BRANCH   4  13
ATOM     13  N   UNL     1     -10.465   6.038   8.447  1.00  0.00    -0.362 N 
ATOM     14  H   UNL     1     -11.158   6.773   8.384  1.00  0.00     0.166 HD
BRANCH  13  15
ATOM     15  C   UNL     1     -10.150   5.579   9.699  1.00  0.00     0.083 C 
BRANCH  15  16
ATOM     16  C   UNL     1      -9.685   6.258  10.756  1.00  0.00     0.027 C 
BRANCH  16  17
ATOM     17  C   UNL     1     -10.579   6.677  11.846  1.00  0.00    -0.003 A 
ATOM     18  C   UNL     1     -10.273   7.749  12.703  1.00  0.00    -0.041 A 
ATOM     19  C   UNL     1     -11.774   5.987  12.101  1.00  0.00     0.119 A 
ATOM     20  C   UNL     1     -11.172   8.066  13.732  1.00  0.00     0.024 A 
ATOM     21  N   UNL     1     -12.660   6.291  13.078  1.00  0.00    -0.264 NA
ATOM     22  C   UNL     1     -12.337   7.329  13.870  1.00  0.00     0.111 A 
ATOM     23  C   UNL     1      -9.002   8.541  12.578  1.00  0.00     0.045 C 
ENDBRANCH  16  17
ENDBRANCH  15  16
ENDBRANCH  13  15
ENDBRANCH   4  13
TORSDOF 8
ENDMDL
MODEL 4
REMARK VINA RESULT:    -4.895      1.622      8.423
REMARK INTER + INTRA:          -7.684
REMARK INTER:                  -7.114
REMARK INTRA:                  -0.570
REMARK UNBOUND:                -0.643
REMARK SMILES Cc1ccncc1/C=C/Nc1ccc(CCCN)cc1
REMARK SMILES IDX 14 1 13 2 12 3 11 4 20 5 19 6 15 7 16 8 17 9 18 10 10 13
REMARK SMILES IDX 9 15 8 16 7 17 2 18 6 19 3 20 5 21 4 22 1 23
REMARK H PARENT 18 11 18 12 10 14
ROOT
ATOM      1  C   UNL     1      -7.450   4.297   4.578  1.00  0.00    -0.048 A 
ATOM      2  C   UNL     1      -8.309   3.394   5.208  1.00  0.00     0.006 A 
ATOM      3  C   UNL     1      -9.278   3.840   6.103  1.00  0.00     0.026 A 
ATOM      4  C   UNL     1      -9.377   5.186   6.463  1.00  0.00     0.038 A 
ATOM      5  C   UNL     1      -8.479   6.085   5.875  1.00  0.00     0.026 A 
ATOM      6  C   UNL     1      -7.526   5.646   4.943  1.00  0.00     0.006 A 
ENDROOT
BRANCH   1   7
ATOM      7  C   UNL     1      -6.465   3.838   3.532  1.00  0.00     0.037 C 
BRANCH   7   8
ATOM      8  C   UNL     1      -5.220   4.720   3.321  1.00  0.00     0.020 C 
BRANCH   8   9
ATOM      9  C   UNL     1      -5.126   5.440   1.968  1.00  0.00     0.078 C 
BRANCH   9  10
ATOM     10  N   UNL     1      -4.426   6.716   1.997  1.00  0.00    -0.330 NA
ATOM     11  H   UNL     1      -3.561   6.653   1.462  1.00  0.00     0.118 HD
ATOM     12  H   UNL     1      -4.141   6.939   2.951  1.00  0.00     0.118 HD
ENDBRANCH   9  10
ENDBRANCH   8   9
ENDBRANCH   7   8
ENDBRANCH   1   7
BRANCH   4  13
ATOM     13  N   UNL     1     -10.274   5.627   7.455  1.00  0.00    -0.362 N 
ATOM     14  H   UNL     1     -11.204   5.882   7.145  1.00  0.00     0.166 HD
BRANCH  13  15
ATOM     15  C   UNL     1      -9.919   5.977   8.730  1.00  0.00     0.083 C 
BRANCH  15  16
ATOM     16  C   UNL     1     -10.287   5.422   9.893  1.00  0.00     0.027 C 
BRANCH  16  17
ATOM     17  C   UNL     1     -10.423   6.231  11.114  1.00  0.00    -0.003 A 
ATOM     18  C   UNL     1     -11.631   6.321  11.828  1.00  0.00    -0.041 A 
ATOM     19  C   UNL     1      -9.346   6.986  11.600  1.00  0.00     0.119 A 
ATOM     20  C   UNL     1     -11.680   7.135  12.970  1.00  0.00     0.024 A 
ATOM     21  N   UNL     1      -9.370   7.762  12.709  1.00  0.00    -0.264 NA
ATOM     22  C   UNL     1     -10.540   7.814  13.370  1.00  0.00     0.111 A 
ATOM     23  C   UNL     1     -12.880   5.608  11.391  1.00  0.00     0.045 C 
ENDBRANCH  16  17
ENDBRANCH  15  16
ENDBRANCH  13  15
ENDBRANCH   4  13
TORSDOF 8
ENDMDL
MODEL 5
REMARK VINA RESULT:    -4.867      2.146      8.631
REMARK INTER + INTRA:          -7.644
REMARK INTER:                  -6.989
REMARK INTRA:                  -0.655
REMARK UNBOUND:                -0.643
REMARK SMILES Cc1ccncc1/C=C/Nc1ccc(CCCN)cc1
REMARK SMILES IDX 14 1 13 2 12 3 11 4 20 5 19 6 15 7 16 8 17 9 18 10 10 13
REMARK SMILES IDX 9 15 8 16 7 17 2 18 6 19 3 20 5 21 4 22 1 23
REMARK H PARENT 18 11 18 12 10 14
ROOT
ATOM      1  C   UNL     1      -7.674   4.020   4.898  1.00  0.00    -0.048 A 
ATOM      2  C   UNL     1      -8.734   3.395   5.558  1.00  0.00     0.006 A 
ATOM      3  C   UNL     1      -9.576   4.120   6.396  1.00  0.00     0.026 A 
ATOM      4  C   UNL     1      -9.351   5.472   6.668  1.00  0.00     0.038 A 
ATOM      5  C   UNL     1      -8.255   6.087   6.051  1.00  0.00     0.026 A 
ATOM      6  C   UNL     1      -7.425   5.369   5.176  1.00  0.00     0.006 A 
ENDROOT
BRANCH   1   7
ATOM      7  C   UNL     1      -6.817   3.268   3.911  1.00  0.00     0.037 C 
BRANCH   7   8
ATOM      8  C   UNL     1      -5.314   3.165   4.237  1.00  0.00     0.020 C 
BRANCH   8   9
ATOM      9  C   UNL     1      -4.925   2.119   5.293  1.00  0.00     0.078 C 
BRANCH   9  10
ATOM     10  N   UNL     1      -5.059   0.734   4.866  1.00  0.00    -0.330 NA
ATOM     11  H   UNL     1      -6.038   0.518   4.684  1.00  0.00     0.118 HD
ATOM     12  H   UNL     1      -4.775   0.105   5.618  1.00  0.00     0.118 HD
ENDBRANCH   9  10
ENDBRANCH   8   9
ENDBRANCH   7   8
ENDBRANCH   1   7
BRANCH   4  13
ATOM     13  N   UNL     1     -10.127   6.182   7.604  1.00  0.00    -0.362 N 
ATOM     14  H   UNL     1     -10.288   7.162   7.410  1.00  0.00     0.166 HD
BRANCH  13  15
ATOM     15  C   UNL     1     -10.452   5.728   8.855  1.00  0.00     0.083 C 
BRANCH  15  16
ATOM     16  C   UNL     1      -9.981   6.121  10.046  1.00  0.00     0.027 C 
BRANCH  16  17
ATOM     17  C   UNL     1     -10.874   6.285  11.203  1.00  0.00    -0.003 A 
ATOM     18  C   UNL     1     -10.539   7.089  12.306  1.00  0.00    -0.041 A 
ATOM     19  C   UNL     1     -12.100   5.605  11.267  1.00  0.00     0.119 A 
ATOM     20  C   UNL     1     -11.440   7.172  13.379  1.00  0.00     0.024 A 
ATOM     21  N   UNL     1     -12.988   5.687  12.285  1.00  0.00    -0.264 NA
ATOM     22  C   UNL     1     -12.636   6.474  13.318  1.00  0.00     0.111 A 
ATOM     23  C   UNL     1      -9.235   7.832  12.395  1.00  0.00     0.045 C 
ENDBRANCH  16  17
ENDBRANCH  15  16
ENDBRANCH  13  15
ENDBRANCH   4  13
TORSDOF 8
ENDMDL
MODEL 6
REMARK VINA RESULT:    -4.810      1.183      2.020
REMARK INTER + INTRA:          -7.562
REMARK INTER:                  -6.923
REMARK INTRA:                  -0.639
REMARK UNBOUND:                -0.643
REMARK SMILES Cc1ccncc1/C=C/Nc1ccc(CCCN)cc1
REMARK SMILES IDX 14 1 13 2 12 3 11 4 20 5 19 6 15 7 16 8 17 9 18 10 10 13
REMARK SMILES IDX 9 15 8 16 7 17 2 18 6 19 3 20 5 21 4 22 1 23
REMARK H PARENT 18 11 18 12 10 14
ROOT
ATOM      1  C   UNL     1     -10.208   7.006  12.053  1.00  0.00    -0.048 A 
ATOM      2  C   UNL     1     -11.348   6.429  11.489  1.00  0.00     0.006 A 
ATOM      3  C   UNL     1     -11.260   5.673  10.324  1.00  0.00     0.026 A 
ATOM      4  C   UNL     1     -10.053   5.527   9.636  1.00  0.00     0.038 A 
ATOM      5  C   UNL     1      -8.920   6.152  10.169  1.00  0.00     0.026 A 
ATOM      6  C   UNL     1      -8.995   6.884  11.364  1.00  0.00     0.006 A 
ENDROOT
BRANCH   1   7
ATOM      7  C   UNL     1     -10.275   7.741  13.368  1.00  0.00     0.037 C 
BRANCH   7   8
ATOM      8  C   UNL     1      -9.819   9.213  13.361  1.00  0.00     0.020 C 
BRANCH   8   9
ATOM      9  C   UNL     1     -10.936  10.264  13.449  1.00  0.00     0.078 C 
BRANCH   9  10
ATOM     10  N   UNL     1     -11.161  11.027  12.229  1.00  0.00    -0.330 NA
ATOM     11  H   UNL     1     -10.296  11.479  11.936  1.00  0.00     0.118 HD
ATOM     12  H   UNL     1     -11.820  11.785  12.405  1.00  0.00     0.118 HD
ENDBRANCH   9  10
ENDBRANCH   8   9
ENDBRANCH   7   8
ENDBRANCH   1   7
BRANCH   4  13
ATOM     13  N   UNL     1      -9.979   4.865   8.396  1.00  0.00    -0.362 N 
ATOM     14  H   UNL     1      -9.758   3.877   8.421  1.00  0.00     0.166 HD
BRANCH  13  15
ATOM     15  C   UNL     1      -9.925   5.489   7.177  1.00  0.00     0.083 C 
BRANCH  15  16
ATOM     16  C   UNL     1      -8.855   5.865   6.466  1.00  0.00     0.027 C 
BRANCH  16  17
ATOM     17  C   UNL     1      -8.068   4.888   5.699  1.00  0.00    -0.003 A 
ATOM     18  C   UNL     1      -6.880   5.235   5.029  1.00  0.00    -0.041 A 
ATOM     19  C   UNL     1      -8.498   3.559   5.571  1.00  0.00     0.119 A 
ATOM     20  C   UNL     1      -6.204   4.245   4.300  1.00  0.00     0.024 A 
ATOM     21  N   UNL     1      -7.849   2.588   4.886  1.00  0.00    -0.264 NA
ATOM     22  C   UNL     1      -6.713   2.956   4.268  1.00  0.00     0.111 A 
ATOM     23  C   UNL     1      -6.332   6.634   5.036  1.00  0.00     0.045 C 
ENDBRANCH  16  17
ENDBRANCH  15  16
ENDBRANCH  13  15
ENDBRANCH   4  13
TORSDOF 8
ENDMDL
MODEL 7
REMARK VINA RESULT:    -4.716      4.040      5.072
REMARK INTER + INTRA:          -7.426
REMARK INTER:                  -6.716
REMARK INTRA:                  -0.711
REMARK UNBOUND:                -0.643
REMARK SMILES Cc1ccncc1/C=C/Nc1ccc(CCCN)cc1
REMARK SMILES IDX 14 1 13 2 12 3 11 4 20 5 19 6 15 7 16 8 17 9 18 10 10 13
REMARK SMILES IDX 9 15 8 16 7 17 2 18 6 19 3 20 5 21 4 22 1 23
REMARK H PARENT 18 11 18 12 10 14
ROOT
ATOM      1  C   UNL     1     -12.812   7.527   5.685  1.00  0.00    -0.048 A 
ATOM      2  C   UNL     1     -12.220   7.197   4.464  1.00  0.00     0.006 A 
ATOM      3  C   UNL     1     -11.037   6.465   4.423  1.00  0.00     0.026 A 
ATOM      4  C   UNL     1     -10.360   6.101   5.589  1.00  0.00     0.038 A 
ATOM      5  C   UNL     1     -10.923   6.479   6.814  1.00  0.00     0.026 A 
ATOM      6  C   UNL     1     -12.135   7.185   6.862  1.00  0.00     0.006 A 
ENDROOT
BRANCH   1   7
ATOM      7  C   UNL     1     -14.144   8.231   5.742  1.00  0.00     0.037 C 
BRANCH   7   8
ATOM      8  C   UNL     1     -14.174   9.599   6.452  1.00  0.00     0.020 C 
BRANCH   8   9
ATOM      9  C   UNL     1     -15.005   9.671   7.740  1.00  0.00     0.078 C 
BRANCH   9  10
ATOM     10  N   UNL     1     -14.249   9.493   8.972  1.00  0.00    -0.330 NA
ATOM     11  H   UNL     1     -14.430  10.269   9.607  1.00  0.00     0.118 HD
ATOM     12  H   UNL     1     -13.248   9.527   8.777  1.00  0.00     0.118 HD
ENDBRANCH   9  10
ENDBRANCH   8   9
ENDBRANCH   7   8
ENDBRANCH   1   7
BRANCH   4  13
ATOM     13  N   UNL     1      -9.104   5.465   5.554  1.00  0.00    -0.362 N 
ATOM     14  H   UNL     1      -9.109   4.453   5.521  1.00  0.00     0.166 HD
BRANCH  13  15
ATOM     15  C   UNL     1      -7.909   6.079   5.816  1.00  0.00     0.083 C 
BRANCH  15  16
ATOM     16  C   UNL     1      -6.848   6.243   5.014  1.00  0.00     0.027 C 
BRANCH  16  17
ATOM     17  C   UNL     1      -5.919   5.136   4.744  1.00  0.00    -0.003 A 
ATOM     18  C   UNL     1      -5.303   4.957   3.492  1.00  0.00    -0.041 A 
ATOM     19  C   UNL     1      -5.635   4.178   5.729  1.00  0.00     0.119 A 
ATOM     20  C   UNL     1      -4.447   3.859   3.313  1.00  0.00     0.024 A 
ATOM     21  N   UNL     1      -4.799   3.124   5.578  1.00  0.00    -0.264 NA
ATOM     22  C   UNL     1      -4.222   2.992   4.371  1.00  0.00     0.111 A 
ATOM     23  C   UNL     1      -5.558   5.876   2.331  1.00  0.00     0.045 C 
ENDBRANCH  16  17
ENDBRANCH  15  16
ENDBRANCH  13  15
ENDBRANCH   4  13
TORSDOF 8
ENDMDL
MODEL 8
REMARK VINA RESULT:    -4.638      2.087      3.720
REMARK INTER + INTRA:          -7.314
REMARK INTER:                  -6.530
REMARK INTRA:                  -0.784
REMARK UNBOUND:                -0.643
REMARK SMILES Cc1ccncc1/C=C/Nc1ccc(CCCN)cc1
REMARK SMILES IDX 14 1 13 2 12 3 11 4 20 5 19 6 15 7 16 8 17 9 18 10 10 13
REMARK SMILES IDX 9 15 8 16 7 17 2 18 6 19 3 20 5 21 4 22 1 23
REMARK H PARENT 18 11 18 12 10 14
ROOT
ATOM      1  C   UNL     1     -10.236   5.811   8.757  1.00  0.00    -0.048 A 
ATOM      2  C   UNL     1      -9.074   5.162   8.337  1.00  0.00     0.006 A 
ATOM      3  C   UNL     1      -8.703   5.165   6.995  1.00  0.00     0.026 A 
ATOM      4  C   UNL     1      -9.511   5.745   6.014  1.00  0.00     0.038 A 
ATOM      5  C   UNL     1     -10.705   6.348   6.427  1.00  0.00     0.026 A 
ATOM      6  C   UNL     1     -11.065   6.380   7.783  1.00  0.00     0.006 A 
ENDROOT
BRANCH   1   7
ATOM      7  C   UNL     1     -10.595   5.901  10.219  1.00  0.00     0.037 C 
BRANCH   7   8
ATOM      8  C   UNL     1      -9.502   6.427  11.169  1.00  0.00     0.020 C 
BRANCH   8   9
ATOM      9  C   UNL     1      -9.997   7.122  12.446  1.00  0.00     0.078 C 
BRANCH   9  10
ATOM     10  N   UNL     1     -11.204   7.919  12.285  1.00  0.00    -0.330 NA
ATOM     11  H   UNL     1     -11.996   7.445  12.717  1.00  0.00     0.118 HD
ATOM     12  H   UNL     1     -11.442   8.001  11.296  1.00  0.00     0.118 HD
ENDBRANCH   9  10
ENDBRANCH   8   9
ENDBRANCH   7   8
ENDBRANCH   1   7
BRANCH   4  13
ATOM     13  N   UNL     1      -9.203   5.649   4.644  1.00  0.00    -0.362 N 
ATOM     14  H   UNL     1      -9.981   5.504   4.012  1.00  0.00     0.166 HD
BRANCH  13  15
ATOM     15  C   UNL     1      -7.942   5.479   4.135  1.00  0.00     0.083 C 
BRANCH  15  16
ATOM     16  C   UNL     1      -7.443   4.450   3.439  1.00  0.00     0.027 C 
BRANCH  16  17
ATOM     17  C   UNL     1      -6.583   3.442   4.079  1.00  0.00    -0.003 A 
ATOM     18  C   UNL     1      -5.184   3.452   3.947  1.00  0.00    -0.041 A 
ATOM     19  C   UNL     1      -7.139   2.393   4.827  1.00  0.00     0.119 A 
ATOM     20  C   UNL     1      -4.441   2.438   4.572  1.00  0.00     0.024 A 
ATOM     21  N   UNL     1      -6.437   1.418   5.450  1.00  0.00    -0.264 NA
ATOM     22  C   UNL     1      -5.100   1.467   5.309  1.00  0.00     0.111 A 
ATOM     23  C   UNL     1      -4.459   4.485   3.131  1.00  0.00     0.045 C 
ENDBRANCH  16  17
ENDBRANCH  15  16
ENDBRANCH  13  15
ENDBRANCH   4  13
TORSDOF 8
ENDMDL
MODEL 9
REMARK VINA RESULT:    -4.601      3.900      4.804
REMARK INTER + INTRA:          -7.261
REMARK INTER:                  -6.509
REMARK INTRA:                  -0.753
REMARK UNBOUND:                -0.643
REMARK SMILES Cc1ccncc1/C=C/Nc1ccc(CCCN)cc1
REMARK SMILES IDX 14 1 13 2 12 3 11 4 20 5 19 6 15 7 16 8 17 9 18 10 10 13
REMARK SMILES IDX 9 15 8 16 7 17 2 18 6 19 3 20 5 21 4 22 1 23
REMARK H PARENT 18 11 18 12 10 14
ROOT
ATOM      1  C   UNL     1     -12.078   7.267   5.708  1.00  0.00    -0.048 A 
ATOM      2  C   UNL     1     -11.644   6.821   6.958  1.00  0.00     0.006 A 
ATOM      3  C   UNL     1     -10.475   6.075   7.079  1.00  0.00     0.026 A 
ATOM      4  C   UNL     1      -9.738   5.681   5.960  1.00  0.00     0.038 A 
ATOM      5  C   UNL     1     -10.203   6.079   4.701  1.00  0.00     0.026 A 
ATOM      6  C   UNL     1     -11.360   6.863   4.575  1.00  0.00     0.006 A 
ENDROOT
BRANCH   1   7
ATOM      7  C   UNL     1     -13.286   8.159   5.574  1.00  0.00     0.037 C 
BRANCH   7   8
ATOM      8  C   UNL     1     -14.260   8.189   6.768  1.00  0.00     0.020 C 
BRANCH   8   9
ATOM      9  C   UNL     1     -14.443   9.551   7.453  1.00  0.00     0.078 C 
BRANCH   9  10
ATOM     10  N   UNL     1     -14.271   9.541   8.899  1.00  0.00    -0.330 NA
ATOM     11  H   UNL     1     -14.169  10.494   9.244  1.00  0.00     0.118 HD
ATOM     12  H   UNL     1     -13.403   9.066   9.146  1.00  0.00     0.118 HD
ENDBRANCH   9  10
ENDBRANCH   8   9
ENDBRANCH   7   8
ENDBRANCH   1   7
BRANCH   4  13
ATOM     13  N   UNL     1      -8.622   4.828   6.065  1.00  0.00    -0.362 N 
ATOM     14  H   UNL     1      -7.716   5.273   6.134  1.00  0.00     0.166 HD
BRANCH  13  15
ATOM     15  C   UNL     1      -8.643   3.480   5.827  1.00  0.00     0.083 C 
BRANCH  15  16
ATOM     16  C   UNL     1      -8.106   2.792   4.810  1.00  0.00     0.027 C 
BRANCH  16  17
ATOM     17  C   UNL     1      -6.963   3.323   4.052  1.00  0.00    -0.003 A 
ATOM     18  C   UNL     1      -5.635   2.960   4.337  1.00  0.00    -0.041 A 
ATOM     19  C   UNL     1      -7.154   4.256   3.022  1.00  0.00     0.119 A 
ATOM     20  C   UNL     1      -4.602   3.533   3.578  1.00  0.00     0.024 A 
ATOM     21  N   UNL     1      -6.172   4.805   2.269  1.00  0.00    -0.264 NA
ATOM     22  C   UNL     1      -4.916   4.425   2.566  1.00  0.00     0.111 A 
ATOM     23  C   UNL     1      -5.280   2.012   5.448  1.00  0.00     0.045 C 
ENDBRANCH  16  17
ENDBRANCH  15  16
ENDBRANCH  13  15
ENDBRANCH   4  13
TORSDOF 8
ENDMDL
