MODEL 1
REMARK VINA RESULT:    -5.183      0.000      0.000
REMARK INTER + INTRA:          -8.046
REMARK INTER:                  -7.456
REMARK INTRA:                  -0.591
REMARK UNBOUND:                -0.591
REMARK SMILES Cc1ccncc1/C=C/Nc1ccc(CCCN)cc1
REMARK SMILES IDX 14 1 13 2 12 3 11 4 20 5 19 6 15 7 16 8 17 9 18 10 10 13
REMARK SMILES IDX 9 15 8 16 7 17 2 18 6 19 3 20 5 21 4 22 1 23
REMARK H PARENT 18 11 18 12 10 14
ROOT
ATOM      1  C   UNL     1      -1.969  -9.307   1.632  1.00  0.00    -0.048 A 
ATOM      2  C   UNL     1      -1.200 -10.049   0.733  1.00  0.00     0.006 A 
ATOM      3  C   UNL     1      -0.924 -11.392   0.974  1.00  0.00     0.026 A 
ATOM      4  C   UNL     1      -1.336 -12.024   2.150  1.00  0.00     0.038 A 
ATOM      5  C   UNL     1      -2.059 -11.266   3.078  1.00  0.00     0.026 A 
ATOM      6  C   UNL     1      -2.373  -9.922   2.823  1.00  0.00     0.006 A 
ENDROOT
BRANCH   1   7
ATOM      7  C   UNL     1      -2.359  -7.881   1.333  1.00  0.00     0.037 C 
BRANCH   7   8
ATOM      8  C   UNL     1      -2.513  -6.938   2.542  1.00  0.00     0.020 C 
BRANCH   8   9
ATOM      9  C   UNL     1      -3.034  -5.527   2.233  1.00  0.00     0.078 C 
BRANCH   9  10
ATOM     10  N   UNL     1      -3.646  -4.837   3.360  1.00  0.00    -0.330 NA
ATOM     11  H   UNL     1      -4.661  -4.878   3.284  1.00  0.00     0.118 HD
ATOM     12  H   UNL     1      -3.410  -3.845   3.335  1.00  0.00     0.118 HD
ENDBRANCH   9  10
ENDBRANCH   8   9
ENDBRANCH   7   8
ENDBRANCH   1   7
BRANCH   4  13
ATOM     13  N   UNL     1      -0.960 -13.346   2.455  1.00  0.00    -0.362 N 
ATOM     14  H   UNL     1      -1.709 -13.998   2.651  1.00  0.00     0.166 HD
BRANCH  13  15
ATOM     15  C   UNL     1       0.315 -13.748   2.756  1.00  0.00     0.083 C 
BRANCH  15  16
ATOM     16  C   UNL     1       0.841 -14.073   3.944  1.00  0.00     0.027 C 
BRANCH  16  17
ATOM     17  C   UNL     1       1.139 -15.472   4.288  1.00  0.00    -0.003 A 
ATOM     18  C   UNL     1       1.249 -15.915   5.618  1.00  0.00    -0.041 A 
ATOM     19  C   UNL     1       1.365 -16.427   3.286  1.00  0.00     0.119 A 
ATOM     20  C   UNL     1       1.559 -17.262   5.857  1.00  0.00     0.024 A 
ATOM     21  N   UNL     1       1.648 -17.734   3.498  1.00  0.00    -0.264 NA
ATOM     22  C   UNL     1       1.735 -18.121   4.783  1.00  0.00     0.111 A 
ATOM     23  C   UNL     1       1.084 -14.989   6.791  1.00  0.00     0.045 C 
ENDBRANCH  16  17
ENDBRANCH  15  16
ENDBRANCH  13  15
ENDBRANCH   4  13
TORSDOF 8
ENDMDL
MODEL 2
REMARK VINA RESULT:    -5.175      4.734      6.401
REMARK INTER + INTRA:          -8.035
REMARK INTER:                  -7.431
REMARK INTRA:                  -0.604
REMARK UNBOUND:                -0.591
REMARK SMILES Cc1ccncc1/C=C/Nc1ccc(CCCN)cc1
REMARK SMILES IDX 14 1 13 2 12 3 11 4 20 5 19 6 15 7 16 8 17 9 18 10 10 13
REMARK SMILES IDX 9 15 8 16 7 17 2 18 6 19 3 20 5 21 4 22 1 23
REMARK H PARENT 18 11 18 12 10 14
ROOT
ATOM      1  C   UNL     1      -0.971  -9.089   1.588  1.00  0.00    -0.048 A 
ATOM      2  C   UNL     1      -1.885  -9.364   2.607  1.00  0.00     0.006 A 
ATOM      3  C   UNL     1      -2.500 -10.610   2.692  1.00  0.00     0.026 A 
ATOM      4  C   UNL     1      -2.290 -11.597   1.727  1.00  0.00     0.038 A 
ATOM      5  C   UNL     1      -1.418 -11.303   0.672  1.00  0.00     0.026 A 
ATOM      6  C   UNL     1      -0.765 -10.062   0.603  1.00  0.00     0.006 A 
ENDROOT
BRANCH   1   7
ATOM      7  C   UNL     1      -0.223  -7.780   1.543  1.00  0.00     0.037 C 
BRANCH   7   8
ATOM      8  C   UNL     1       0.269  -7.311   0.160  1.00  0.00     0.020 C 
BRANCH   8   9
ATOM      9  C   UNL     1       1.618  -6.577   0.138  1.00  0.00     0.078 C 
BRANCH   9  10
ATOM     10  N   UNL     1       1.675  -5.371   0.952  1.00  0.00    -0.330 NA
ATOM     11  H   UNL     1       0.743  -4.970   1.047  1.00  0.00     0.118 HD
ATOM     12  H   UNL     1       2.232  -4.657   0.482  1.00  0.00     0.118 HD
ENDBRANCH   9  10
ENDBRANCH   8   9
ENDBRANCH   7   8
ENDBRANCH   1   7
BRANCH   4  13
ATOM     13  N   UNL     1      -2.999 -12.814   1.740  1.00  0.00    -0.362 N 
ATOM     14  H   UNL     1      -2.456 -13.658   1.604  1.00  0.00     0.166 HD
BRANCH  13  15
ATOM     15  C   UNL     1      -4.362 -12.927   1.664  1.00  0.00     0.083 C 
BRANCH  15  16
ATOM     16  C   UNL     1      -5.123 -13.297   0.626  1.00  0.00     0.027 C 
BRANCH  16  17
ATOM     17  C   UNL     1      -5.876 -14.560   0.645  1.00  0.00    -0.003 A 
ATOM     18  C   UNL     1      -6.316 -15.194  -0.530  1.00  0.00    -0.041 A 
ATOM     19  C   UNL     1      -6.223 -15.172   1.859  1.00  0.00     0.119 A 
ATOM     20  C   UNL     1      -7.050 -16.385  -0.419  1.00  0.00     0.024 A 
ATOM     21  N   UNL     1      -6.915 -16.329   1.984  1.00  0.00    -0.264 NA
ATOM     22  C   UNL     1      -7.309 -16.910   0.837  1.00  0.00     0.111 A 
ATOM     23  C   UNL     1      -6.062 -14.622  -1.896  1.00  0.00     0.045 C 
ENDBRANCH  16  17
ENDBRANCH  15  16
ENDBRANCH  13  15
ENDBRANCH   4  13
TORSDOF 8
ENDMDL
MODEL 3
REMARK VINA RESULT:    -5.154      1.751      8.546
REMARK INTER + INTRA:          -8.004
REMARK INTER:                  -7.348
REMARK INTRA:                  -0.656
REMARK UNBOUND:                -0.591
REMARK SMILES Cc1ccncc1/C=C/Nc1ccc(CCCN)cc1
REMARK SMILES IDX 14 1 13 2 12 3 11 4 20 5 19 6 15 7 16 8 17 9 18 10 10 13
REMARK SMILES IDX 9 15 8 16 7 17 2 18 6 19 3 20 5 21 4 22 1 23
REMARK H PARENT 18 11 18 12 10 14
ROOT
ATOM      1  C   UNL     1       1.290 -15.510   4.821  1.00  0.00    -0.048 A 
ATOM      2  C   UNL     1       0.825 -16.052   3.621  1.00  0.00     0.006 A 
ATOM      3  C   UNL     1       0.428 -15.226   2.574  1.00  0.00     0.026 A 
ATOM      4  C   UNL     1       0.405 -13.835   2.708  1.00  0.00     0.038 A 
ATOM      5  C   UNL     1       0.817 -13.291   3.930  1.00  0.00     0.026 A 
ATOM      6  C   UNL     1       1.255 -14.119   4.976  1.00  0.00     0.006 A 
ENDROOT
BRANCH   1   7
ATOM      7  C   UNL     1       1.817 -16.392   5.924  1.00  0.00     0.037 C 
BRANCH   7   8
ATOM      8  C   UNL     1       1.009 -16.418   7.236  1.00  0.00     0.020 C 
BRANCH   8   9
ATOM      9  C   UNL     1      -0.063 -17.512   7.346  1.00  0.00     0.078 C 
BRANCH   9  10
ATOM     10  N   UNL     1      -1.436 -17.029   7.366  1.00  0.00    -0.330 NA
ATOM     11  H   UNL     1      -1.850 -17.116   6.439  1.00  0.00     0.118 HD
ATOM     12  H   UNL     1      -1.455 -16.032   7.582  1.00  0.00     0.118 HD
ENDBRANCH   9  10
ENDBRANCH   8   9
ENDBRANCH   7   8
ENDBRANCH   1   7
BRANCH   4  13
ATOM     13  N   UNL     1      -0.107 -12.999   1.697  1.00  0.00    -0.362 N 
ATOM     14  H   UNL     1       0.334 -13.063   0.788  1.00  0.00     0.166 HD
BRANCH  13  15
ATOM     15  C   UNL     1      -0.958 -11.947   1.909  1.00  0.00     0.083 C 
BRANCH  15  16
ATOM     16  C   UNL     1      -1.230 -10.906   1.111  1.00  0.00     0.027 C 
BRANCH  16  17
ATOM     17  C   UNL     1      -1.523  -9.576   1.667  1.00  0.00    -0.003 A 
ATOM     18  C   UNL     1      -1.213  -8.387   0.983  1.00  0.00    -0.041 A 
ATOM     19  C   UNL     1      -2.097  -9.439   2.940  1.00  0.00     0.119 A 
ATOM     20  C   UNL     1      -1.504  -7.160   1.598  1.00  0.00     0.024 A 
ATOM     21  N   UNL     1      -2.400  -8.264   3.540  1.00  0.00    -0.264 NA
ATOM     22  C   UNL     1      -2.098  -7.150   2.850  1.00  0.00     0.111 A 
ATOM     23  C   UNL     1      -0.547  -8.385  -0.365  1.00  0.00     0.045 C 
ENDBRANCH  16  17
ENDBRANCH  15  16
ENDBRANCH  13  15
ENDBRANCH   4  13
TORSDOF 8
ENDMDL
MODEL 4
REMARK VINA RESULT:    -5.153      4.909      8.475
REMARK INTER + INTRA:          -8.003
REMARK INTER:                  -7.374
REMARK INTRA:                  -0.629
REMARK UNBOUND:                -0.591
REMARK SMILES Cc1ccncc1/C=C/Nc1ccc(CCCN)cc1
REMARK SMILES IDX 14 1 13 2 12 3 11 4 20 5 19 6 15 7 16 8 17 9 18 10 10 13
REMARK SMILES IDX 9 15 8 16 7 17 2 18 6 19 3 20 5 21 4 22 1 23
REMARK H PARENT 18 11 18 12 10 14
ROOT
ATOM      1  C   UNL     1      -6.304 -14.892  -0.136  1.00  0.00    -0.048 A 
ATOM      2  C   UNL     1      -5.947 -13.632  -0.620  1.00  0.00     0.006 A 
ATOM      3  C   UNL     1      -5.185 -12.763   0.155  1.00  0.00     0.026 A 
ATOM      4  C   UNL     1      -4.817 -13.082   1.465  1.00  0.00     0.038 A 
ATOM      5  C   UNL     1      -5.222 -14.322   1.972  1.00  0.00     0.026 A 
ATOM      6  C   UNL     1      -5.958 -15.218   1.181  1.00  0.00     0.006 A 
ENDROOT
BRANCH   1   7
ATOM      7  C   UNL     1      -7.043 -15.881  -1.003  1.00  0.00     0.037 C 
BRANCH   7   8
ATOM      8  C   UNL     1      -6.327 -16.346  -2.286  1.00  0.00     0.020 C 
BRANCH   8   9
ATOM      9  C   UNL     1      -5.544 -17.663  -2.180  1.00  0.00     0.078 C 
BRANCH   9  10
ATOM     10  N   UNL     1      -4.115 -17.552  -2.437  1.00  0.00    -0.330 NA
ATOM     11  H   UNL     1      -3.610 -18.266  -1.914  1.00  0.00     0.118 HD
ATOM     12  H   UNL     1      -3.764 -16.659  -2.091  1.00  0.00     0.118 HD
ENDBRANCH   9  10
ENDBRANCH   8   9
ENDBRANCH   7   8
ENDBRANCH   1   7
BRANCH   4  13
ATOM     13  N   UNL     1      -4.149 -12.161   2.295  1.00  0.00    -0.362 N 
ATOM     14  H   UNL     1      -4.708 -11.697   3.000  1.00  0.00     0.166 HD
BRANCH  13  15
ATOM     15  C   UNL     1      -2.894 -11.664   2.062  1.00  0.00     0.083 C 
BRANCH  15  16
ATOM     16  C   UNL     1      -2.262 -10.648   2.663  1.00  0.00     0.027 C 
BRANCH  16  17
ATOM     17  C   UNL     1      -1.641  -9.567   1.882  1.00  0.00    -0.003 A 
ATOM     18  C   UNL     1      -1.595  -8.238   2.337  1.00  0.00    -0.041 A 
ATOM     19  C   UNL     1      -1.094  -9.819   0.614  1.00  0.00     0.119 A 
ATOM     20  C   UNL     1      -1.005  -7.265   1.517  1.00  0.00     0.024 A 
ATOM     21  N   UNL     1      -0.506  -8.896  -0.182  1.00  0.00    -0.264 NA
ATOM     22  C   UNL     1      -0.473  -7.638   0.293  1.00  0.00     0.111 A 
ATOM     23  C   UNL     1      -2.190  -7.817   3.652  1.00  0.00     0.045 C 
ENDBRANCH  16  17
ENDBRANCH  15  16
ENDBRANCH  13  15
ENDBRANCH   4  13
TORSDOF 8
ENDMDL
MODEL 5
REMARK VINA RESULT:    -5.102      4.554      5.876
REMARK INTER + INTRA:          -7.929
REMARK INTER:                  -7.427
REMARK INTRA:                  -0.502
REMARK UNBOUND:                -0.591
REMARK SMILES Cc1ccncc1/C=C/Nc1ccc(CCCN)cc1
REMARK SMILES IDX 14 1 13 2 12 3 11 4 20 5 19 6 15 7 16 8 17 9 18 10 10 13
REMARK SMILES IDX 9 15 8 16 7 17 2 18 6 19 3 20 5 21 4 22 1 23
REMARK H PARENT 18 11 18 12 10 14
ROOT
ATOM      1  C   UNL     1      -1.401  -8.177   2.459  1.00  0.00    -0.048 A 
ATOM      2  C   UNL     1      -2.188  -8.748   3.461  1.00  0.00     0.006 A 
ATOM      3  C   UNL     1      -2.552 -10.091   3.400  1.00  0.00     0.026 A 
ATOM      4  C   UNL     1      -2.213 -10.892   2.306  1.00  0.00     0.038 A 
ATOM      5  C   UNL     1      -1.472 -10.305   1.274  1.00  0.00     0.026 A 
ATOM      6  C   UNL     1      -1.071  -8.962   1.348  1.00  0.00     0.006 A 
ENDROOT
BRANCH   1   7
ATOM      7  C   UNL     1      -0.917  -6.752   2.564  1.00  0.00     0.037 C 
BRANCH   7   8
ATOM      8  C   UNL     1      -1.749  -5.683   1.829  1.00  0.00     0.020 C 
BRANCH   8   9
ATOM      9  C   UNL     1      -3.236  -5.611   2.205  1.00  0.00     0.078 C 
BRANCH   9  10
ATOM     10  N   UNL     1      -3.540  -4.775   3.357  1.00  0.00    -0.330 NA
ATOM     11  H   UNL     1      -4.468  -4.365   3.255  1.00  0.00     0.118 HD
ATOM     12  H   UNL     1      -2.896  -3.985   3.398  1.00  0.00     0.118 HD
ENDBRANCH   9  10
ENDBRANCH   8   9
ENDBRANCH   7   8
ENDBRANCH   1   7
BRANCH   4  13
ATOM     13  N   UNL     1      -2.678 -12.215   2.181  1.00  0.00    -0.362 N 
ATOM     14  H   UNL     1      -2.088 -12.942   2.567  1.00  0.00     0.166 HD
BRANCH  13  15
ATOM     15  C   UNL     1      -3.709 -12.609   1.371  1.00  0.00     0.083 C 
BRANCH  15  16
ATOM     16  C   UNL     1      -4.899 -13.124   1.707  1.00  0.00     0.027 C 
BRANCH  16  17
ATOM     17  C   UNL     1      -5.607 -14.054   0.814  1.00  0.00    -0.003 A 
ATOM     18  C   UNL     1      -6.087 -15.301   1.251  1.00  0.00    -0.041 A 
ATOM     19  C   UNL     1      -5.800 -13.744  -0.541  1.00  0.00     0.119 A 
ATOM     20  C   UNL     1      -6.730 -16.138   0.327  1.00  0.00     0.024 A 
ATOM     21  N   UNL     1      -6.433 -14.532  -1.442  1.00  0.00    -0.264 NA
ATOM     22  C   UNL     1      -6.887 -15.712  -0.983  1.00  0.00     0.111 A 
ATOM     23  C   UNL     1      -5.902 -15.785   2.662  1.00  0.00     0.045 C 
ENDBRANCH  16  17
ENDBRANCH  15  16
ENDBRANCH  13  15
ENDBRANCH   4  13
TORSDOF 8
ENDMDL
MODEL 6
REMARK VINA RESULT:    -5.084      2.030      2.162
REMARK INTER + INTRA:          -7.903
REMARK INTER:                  -7.362
REMARK INTRA:                  -0.541
REMARK UNBOUND:                -0.591
REMARK SMILES Cc1ccncc1/C=C/Nc1ccc(CCCN)cc1
REMARK SMILES IDX 14 1 13 2 12 3 11 4 20 5 19 6 15 7 16 8 17 9 18 10 10 13
REMARK SMILES IDX 9 15 8 16 7 17 2 18 6 19 3 20 5 21 4 22 1 23
REMARK H PARENT 18 11 18 12 10 14
ROOT
ATOM      1  C   UNL     1      -1.406  -8.565   1.012  1.00  0.00    -0.048 A 
ATOM      2  C   UNL     1      -0.924  -9.633   0.253  1.00  0.00     0.006 A 
ATOM      3  C   UNL     1      -1.027 -10.940   0.722  1.00  0.00     0.026 A 
ATOM      4  C   UNL     1      -1.539 -11.225   1.990  1.00  0.00     0.038 A 
ATOM      5  C   UNL     1      -1.971 -10.150   2.775  1.00  0.00     0.026 A 
ATOM      6  C   UNL     1      -1.905  -8.834   2.292  1.00  0.00     0.006 A 
ENDROOT
BRANCH   1   7
ATOM      7  C   UNL     1      -1.393  -7.156   0.473  1.00  0.00     0.037 C 
BRANCH   7   8
ATOM      8  C   UNL     1      -0.244  -6.245   0.945  1.00  0.00     0.020 C 
BRANCH   8   9
ATOM      9  C   UNL     1       1.173  -6.693   0.559  1.00  0.00     0.078 C 
BRANCH   9  10
ATOM     10  N   UNL     1       1.746  -6.002  -0.587  1.00  0.00    -0.330 NA
ATOM     11  H   UNL     1       1.487  -5.017  -0.566  1.00  0.00     0.118 HD
ATOM     12  H   UNL     1       1.351  -6.370  -1.453  1.00  0.00     0.118 HD
ENDBRANCH   9  10
ENDBRANCH   8   9
ENDBRANCH   7   8
ENDBRANCH   1   7
BRANCH   4  13
ATOM     13  N   UNL     1      -1.536 -12.531   2.518  1.00  0.00    -0.362 N 
ATOM     14  H   UNL     1      -2.279 -12.761   3.165  1.00  0.00     0.166 HD
BRANCH  13  15
ATOM     15  C   UNL     1      -0.487 -13.408   2.429  1.00  0.00     0.083 C 
BRANCH  15  16
ATOM     16  C   UNL     1       0.390 -13.775   3.372  1.00  0.00     0.027 C 
BRANCH  16  17
ATOM     17  C   UNL     1       0.779 -15.183   3.544  1.00  0.00    -0.003 A 
ATOM     18  C   UNL     1       1.191 -15.706   4.782  1.00  0.00    -0.041 A 
ATOM     19  C   UNL     1       0.791 -16.065   2.452  1.00  0.00     0.119 A 
ATOM     20  C   UNL     1       1.569 -17.056   4.852  1.00  0.00     0.024 A 
ATOM     21  N   UNL     1       1.135 -17.373   2.505  1.00  0.00    -0.264 NA
ATOM     22  C   UNL     1       1.514 -17.838   3.709  1.00  0.00     0.111 A 
ATOM     23  C   UNL     1       1.278 -14.863   6.023  1.00  0.00     0.045 C 
ENDBRANCH  16  17
ENDBRANCH  15  16
ENDBRANCH  13  15
ENDBRANCH   4  13
TORSDOF 8
ENDMDL
MODEL 7
REMARK VINA RESULT:    -5.043      4.811      8.571
REMARK INTER + INTRA:          -7.845
REMARK INTER:                  -7.201
REMARK INTRA:                  -0.644
REMARK UNBOUND:                -0.591
REMARK SMILES Cc1ccncc1/C=C/Nc1ccc(CCCN)cc1
REMARK SMILES IDX 14 1 13 2 12 3 11 4 20 5 19 6 15 7 16 8 17 9 18 10 10 13
REMARK SMILES IDX 9 15 8 16 7 17 2 18 6 19 3 20 5 21 4 22 1 23
REMARK H PARENT 18 11 18 12 10 14
ROOT
ATOM      1  C   UNL     1      -6.392 -15.218  -0.172  1.00  0.00    -0.048 A 
ATOM      2  C   UNL     1      -5.932 -15.488   1.119  1.00  0.00     0.006 A 
ATOM      3  C   UNL     1      -5.242 -14.521   1.844  1.00  0.00     0.026 A 
ATOM      4  C   UNL     1      -4.919 -13.281   1.287  1.00  0.00     0.038 A 
ATOM      5  C   UNL     1      -5.331 -13.030  -0.027  1.00  0.00     0.026 A 
ATOM      6  C   UNL     1      -6.059 -13.987  -0.749  1.00  0.00     0.006 A 
ENDROOT
BRANCH   1   7
ATOM      7  C   UNL     1      -7.227 -16.222  -0.928  1.00  0.00     0.037 C 
BRANCH   7   8
ATOM      8  C   UNL     1      -6.634 -16.762  -2.244  1.00  0.00     0.020 C 
BRANCH   8   9
ATOM      9  C   UNL     1      -5.626 -17.912  -2.107  1.00  0.00     0.078 C 
BRANCH   9  10
ATOM     10  N   UNL     1      -4.243 -17.555  -2.388  1.00  0.00    -0.330 NA
ATOM     11  H   UNL     1      -3.628 -18.333  -2.153  1.00  0.00     0.118 HD
ATOM     12  H   UNL     1      -3.950 -16.784  -1.789  1.00  0.00     0.118 HD
ENDBRANCH   9  10
ENDBRANCH   8   9
ENDBRANCH   7   8
ENDBRANCH   1   7
BRANCH   4  13
ATOM     13  N   UNL     1      -4.120 -12.344   1.970  1.00  0.00    -0.362 N 
ATOM     14  H   UNL     1      -4.594 -11.532   2.347  1.00  0.00     0.166 HD
BRANCH  13  15
ATOM     15  C   UNL     1      -2.751 -12.313   1.941  1.00  0.00     0.083 C 
BRANCH  15  16
ATOM     16  C   UNL     1      -1.934 -11.284   1.681  1.00  0.00     0.027 C 
BRANCH  16  17
ATOM     17  C   UNL     1      -2.056 -10.012   2.409  1.00  0.00    -0.003 A 
ATOM     18  C   UNL     1      -1.610  -8.791   1.872  1.00  0.00    -0.041 A 
ATOM     19  C   UNL     1      -2.597  -9.971   3.702  1.00  0.00     0.119 A 
ATOM     20  C   UNL     1      -1.744  -7.627   2.644  1.00  0.00     0.024 A 
ATOM     21  N   UNL     1      -2.750  -8.856   4.453  1.00  0.00    -0.264 NA
ATOM     22  C   UNL     1      -2.320  -7.706   3.902  1.00  0.00     0.111 A 
ATOM     23  C   UNL     1      -0.962  -8.695   0.520  1.00  0.00     0.045 C 
ENDBRANCH  16  17
ENDBRANCH  15  16
ENDBRANCH  13  15
ENDBRANCH   4  13
TORSDOF 8
ENDMDL
MODEL 8
REMARK VINA RESULT:    -5.000      1.921      8.736
REMARK INTER + INTRA:          -7.782
REMARK INTER:                  -7.130
REMARK INTRA:                  -0.652
REMARK UNBOUND:                -0.591
REMARK SMILES Cc1ccncc1/C=C/Nc1ccc(CCCN)cc1
REMARK SMILES IDX 14 1 13 2 12 3 11 4 20 5 19 6 15 7 16 8 17 9 18 10 10 13
REMARK SMILES IDX 9 15 8 16 7 17 2 18 6 19 3 20 5 21 4 22 1 23
REMARK H PARENT 18 11 18 12 10 14
ROOT
ATOM      1  C   UNL     1       1.550 -16.207   4.596  1.00  0.00    -0.048 A 
ATOM      2  C   UNL     1       0.920 -16.479   3.380  1.00  0.00     0.006 A 
ATOM      3  C   UNL     1       0.439 -15.445   2.582  1.00  0.00     0.026 A 
ATOM      4  C   UNL     1       0.497 -14.112   2.997  1.00  0.00     0.038 A 
ATOM      5  C   UNL     1       1.078 -13.842   4.241  1.00  0.00     0.026 A 
ATOM      6  C   UNL     1       1.599 -14.877   5.033  1.00  0.00     0.006 A 
ENDROOT
BRANCH   1   7
ATOM      7  C   UNL     1       2.164 -17.310   5.421  1.00  0.00     0.037 C 
BRANCH   7   8
ATOM      8  C   UNL     1       3.278 -16.901   6.404  1.00  0.00     0.020 C 
BRANCH   8   9
ATOM      9  C   UNL     1       4.633 -17.597   6.215  1.00  0.00     0.078 C 
BRANCH   9  10
ATOM     10  N   UNL     1       5.752 -16.704   5.952  1.00  0.00    -0.330 NA
ATOM     11  H   UNL     1       5.813 -15.997   6.682  1.00  0.00     0.118 HD
ATOM     12  H   UNL     1       5.595 -16.190   5.085  1.00  0.00     0.118 HD
ENDBRANCH   9  10
ENDBRANCH   8   9
ENDBRANCH   7   8
ENDBRANCH   1   7
BRANCH   4  13
ATOM     13  N   UNL     1      -0.092 -13.074   2.250  1.00  0.00    -0.362 N 
ATOM     14  H   UNL     1       0.538 -12.460   1.749  1.00  0.00     0.166 HD
BRANCH  13  15
ATOM     15  C   UNL     1      -1.400 -12.680   2.355  1.00  0.00     0.083 C 
BRANCH  15  16
ATOM     16  C   UNL     1      -2.011 -11.621   1.807  1.00  0.00     0.027 C 
BRANCH  16  17
ATOM     17  C   UNL     1      -2.144 -10.354   2.541  1.00  0.00    -0.003 A 
ATOM     18  C   UNL     1      -1.660  -9.135   2.036  1.00  0.00    -0.041 A 
ATOM     19  C   UNL     1      -2.736 -10.318   3.813  1.00  0.00     0.119 A 
ATOM     20  C   UNL     1      -1.807  -7.976   2.814  1.00  0.00     0.024 A 
ATOM     21  N   UNL     1      -2.902  -9.208   4.569  1.00  0.00    -0.264 NA
ATOM     22  C   UNL     1      -2.435  -8.060   4.047  1.00  0.00     0.111 A 
ATOM     23  C   UNL     1      -0.956  -9.036   0.711  1.00  0.00     0.045 C 
ENDBRANCH  16  17
ENDBRANCH  15  16
ENDBRANCH  13  15
ENDBRANCH   4  13
TORSDOF 8
ENDMDL
MODEL 9
REMARK VINA RESULT:    -4.947      4.544      6.061
REMARK INTER + INTRA:          -7.707
REMARK INTER:                  -7.140
REMARK INTRA:                  -0.566
REMARK UNBOUND:                -0.591
REMARK SMILES Cc1ccncc1/C=C/Nc1ccc(CCCN)cc1
REMARK SMILES IDX 14 1 13 2 12 3 11 4 20 5 19 6 15 7 16 8 17 9 18 10 10 13
REMARK SMILES IDX 9 15 8 16 7 17 2 18 6 19 3 20 5 21 4 22 1 23
REMARK H PARENT 18 11 18 12 10 14
ROOT
ATOM      1  C   UNL     1      -1.434  -8.233   1.223  1.00  0.00    -0.048 A 
ATOM      2  C   UNL     1      -2.093  -8.492   2.426  1.00  0.00     0.006 A 
ATOM      3  C   UNL     1      -2.288  -9.799   2.862  1.00  0.00     0.026 A 
ATOM      4  C   UNL     1      -1.905 -10.895   2.085  1.00  0.00     0.038 A 
ATOM      5  C   UNL     1      -1.295 -10.637   0.851  1.00  0.00     0.026 A 
ATOM      6  C   UNL     1      -1.062  -9.321   0.424  1.00  0.00     0.006 A 
ENDROOT
BRANCH   1   7
ATOM      7  C   UNL     1      -1.128  -6.821   0.788  1.00  0.00     0.037 C 
BRANCH   7   8
ATOM      8  C   UNL     1       0.208  -6.224   1.270  1.00  0.00     0.020 C 
BRANCH   8   9
ATOM      9  C   UNL     1       1.463  -6.687   0.515  1.00  0.00     0.078 C 
BRANCH   9  10
ATOM     10  N   UNL     1       1.779  -5.922  -0.682  1.00  0.00    -0.330 NA
ATOM     11  H   UNL     1       1.464  -4.959  -0.574  1.00  0.00     0.118 HD
ATOM     12  H   UNL     1       1.262  -6.290  -1.481  1.00  0.00     0.118 HD
ENDBRANCH   9  10
ENDBRANCH   8   9
ENDBRANCH   7   8
ENDBRANCH   1   7
BRANCH   4  13
ATOM     13  N   UNL     1      -2.205 -12.218   2.464  1.00  0.00    -0.362 N 
ATOM     14  H   UNL     1      -1.564 -12.662   3.109  1.00  0.00     0.166 HD
BRANCH  13  15
ATOM     15  C   UNL     1      -3.127 -13.019   1.844  1.00  0.00     0.083 C 
BRANCH  15  16
ATOM     16  C   UNL     1      -4.463 -12.927   1.843  1.00  0.00     0.027 C 
BRANCH  16  17
ATOM     17  C   UNL     1      -5.283 -13.741   0.932  1.00  0.00    -0.003 A 
ATOM     18  C   UNL     1      -5.899 -14.937   1.339  1.00  0.00    -0.041 A 
ATOM     19  C   UNL     1      -5.452 -13.369  -0.410  1.00  0.00     0.119 A 
ATOM     20  C   UNL     1      -6.644 -15.665   0.398  1.00  0.00     0.024 A 
ATOM     21  N   UNL     1      -6.182 -14.050  -1.325  1.00  0.00    -0.264 NA
ATOM     22  C   UNL     1      -6.764 -15.183  -0.896  1.00  0.00     0.111 A 
ATOM     23  C   UNL     1      -5.757 -15.483   2.732  1.00  0.00     0.045 C 
ENDBRANCH  16  17
ENDBRANCH  15  16
ENDBRANCH  13  15
ENDBRANCH   4  13
TORSDOF 8
ENDMDL
