MODEL 1
REMARK VINA RESULT:    -5.195      0.000      0.000
REMARK INTER + INTRA:          -8.197
REMARK INTER:                  -7.473
REMARK INTRA:                  -0.725
REMARK UNBOUND:                -0.725
REMARK SMILES Cc1ccncc1/C=C/Nc1ccc(CCCN)cc1
REMARK SMILES IDX 14 1 13 2 12 3 11 4 20 5 19 6 15 7 16 8 17 9 18 10 10 13
REMARK SMILES IDX 9 15 8 16 7 17 2 18 6 19 3 20 5 21 4 22 1 23
REMARK H PARENT 18 11 18 12 10 14
ROOT
ATOM      1  C   UNL     1      12.952   2.171  10.274  1.00  0.00    -0.048 A 
ATOM      2  C   UNL     1      13.639   1.299   9.426  1.00  0.00     0.006 A 
ATOM      3  C   UNL     1      13.023   0.780   8.291  1.00  0.00     0.026 A 
ATOM      4  C   UNL     1      11.683   1.044   8.000  1.00  0.00     0.038 A 
ATOM      5  C   UNL     1      10.976   1.872   8.880  1.00  0.00     0.026 A 
ATOM      6  C   UNL     1      11.603   2.430  10.005  1.00  0.00     0.006 A 
ENDROOT
BRANCH   1   7
ATOM      7  C   UNL     1      13.639   2.820  11.450  1.00  0.00     0.037 C 
BRANCH   7   8
ATOM      8  C   UNL     1      13.098   2.466  12.848  1.00  0.00     0.020 C 
BRANCH   8   9
ATOM      9  C   UNL     1      13.694   1.212  13.505  1.00  0.00     0.078 C 
BRANCH   9  10
ATOM     10  N   UNL     1      12.799   0.065  13.566  1.00  0.00    -0.330 NA
ATOM     11  H   UNL     1      12.013   0.202  12.932  1.00  0.00     0.118 HD
ATOM     12  H   UNL     1      12.390  -0.012  14.497  1.00  0.00     0.118 HD
ENDBRANCH   9  10
ENDBRANCH   8   9
ENDBRANCH   7   8
ENDBRANCH   1   7
BRANCH   4  13
ATOM     13  N   UNL     1      11.020   0.428   6.921  1.00  0.00    -0.362 N 
ATOM     14  H   UNL     1      10.983   0.948   6.054  1.00  0.00     0.166 HD
BRANCH  13  15
ATOM     15  C   UNL     1      10.217  -0.677   7.024  1.00  0.00     0.083 C 
BRANCH  15  16
ATOM     16  C   UNL     1       9.308  -1.146   6.159  1.00  0.00     0.027 C 
BRANCH  16  17
ATOM     17  C   UNL     1       7.868  -1.051   6.441  1.00  0.00    -0.003 A 
ATOM     18  C   UNL     1       6.930  -0.685   5.459  1.00  0.00    -0.041 A 
ATOM     19  C   UNL     1       7.370  -1.288   7.731  1.00  0.00     0.119 A 
ATOM     20  C   UNL     1       5.577  -0.595   5.820  1.00  0.00     0.024 A 
ATOM     21  N   UNL     1       6.067  -1.223   8.091  1.00  0.00    -0.264 NA
ATOM     22  C   UNL     1       5.199  -0.880   7.122  1.00  0.00     0.111 A 
ATOM     23  C   UNL     1       7.330  -0.350   4.049  1.00  0.00     0.045 C 
ENDBRANCH  16  17
ENDBRANCH  15  16
ENDBRANCH  13  15
ENDBRANCH   4  13
TORSDOF 8
ENDMDL
MODEL 2
REMARK VINA RESULT:    -5.096      4.854      8.382
REMARK INTER + INTRA:          -8.054
REMARK INTER:                  -7.469
REMARK INTRA:                  -0.585
REMARK UNBOUND:                -0.725
REMARK SMILES Cc1ccncc1/C=C/Nc1ccc(CCCN)cc1
REMARK SMILES IDX 14 1 13 2 12 3 11 4 20 5 19 6 15 7 16 8 17 9 18 10 10 13
REMARK SMILES IDX 9 15 8 16 7 17 2 18 6 19 3 20 5 21 4 22 1 23
REMARK H PARENT 18 11 18 12 10 14
ROOT
ATOM      1  C   UNL     1       7.257  -0.159   5.471  1.00  0.00    -0.048 A 
ATOM      2  C   UNL     1       6.975  -0.839   6.657  1.00  0.00     0.006 A 
ATOM      3  C   UNL     1       7.946  -1.625   7.273  1.00  0.00     0.026 A 
ATOM      4  C   UNL     1       9.201  -1.825   6.694  1.00  0.00     0.038 A 
ATOM      5  C   UNL     1       9.465  -1.189   5.475  1.00  0.00     0.026 A 
ATOM      6  C   UNL     1       8.504  -0.365   4.869  1.00  0.00     0.006 A 
ENDROOT
BRANCH   1   7
ATOM      7  C   UNL     1       6.249   0.774   4.848  1.00  0.00     0.037 C 
BRANCH   7   8
ATOM      8  C   UNL     1       6.208   0.822   3.309  1.00  0.00     0.020 C 
BRANCH   8   9
ATOM      9  C   UNL     1       5.955   2.201   2.684  1.00  0.00     0.078 C 
BRANCH   9  10
ATOM     10  N   UNL     1       4.614   2.732   2.884  1.00  0.00    -0.330 NA
ATOM     11  H   UNL     1       4.593   3.724   2.653  1.00  0.00     0.118 HD
ATOM     12  H   UNL     1       4.358   2.676   3.870  1.00  0.00     0.118 HD
ENDBRANCH   9  10
ENDBRANCH   8   9
ENDBRANCH   7   8
ENDBRANCH   1   7
BRANCH   4  13
ATOM     13  N   UNL     1      10.144  -2.712   7.249  1.00  0.00    -0.362 N 
ATOM     14  H   UNL     1      11.065  -2.336   7.436  1.00  0.00     0.166 HD
BRANCH  13  15
ATOM     15  C   UNL     1       9.996  -4.072   7.311  1.00  0.00     0.083 C 
BRANCH  15  16
ATOM     16  C   UNL     1      10.787  -5.032   6.814  1.00  0.00     0.027 C 
BRANCH  16  17
ATOM     17  C   UNL     1      11.847  -5.645   7.629  1.00  0.00    -0.003 A 
ATOM     18  C   UNL     1      12.786  -6.544   7.093  1.00  0.00    -0.041 A 
ATOM     19  C   UNL     1      11.941  -5.380   9.004  1.00  0.00     0.119 A 
ATOM     20  C   UNL     1      13.749  -7.101   7.948  1.00  0.00     0.024 A 
ATOM     21  N   UNL     1      12.874  -5.895   9.838  1.00  0.00    -0.264 NA
ATOM     22  C   UNL     1      13.760  -6.743   9.286  1.00  0.00     0.111 A 
ATOM     23  C   UNL     1      12.769  -6.959   5.649  1.00  0.00     0.045 C 
ENDBRANCH  16  17
ENDBRANCH  15  16
ENDBRANCH  13  15
ENDBRANCH   4  13
TORSDOF 8
ENDMDL
MODEL 3
REMARK VINA RESULT:    -5.068      4.697      8.466
REMARK INTER + INTRA:          -8.014
REMARK INTER:                  -7.369
REMARK INTRA:                  -0.646
REMARK UNBOUND:                -0.725
REMARK SMILES Cc1ccncc1/C=C/Nc1ccc(CCCN)cc1
REMARK SMILES IDX 14 1 13 2 12 3 11 4 20 5 19 6 15 7 16 8 17 9 18 10 10 13
REMARK SMILES IDX 9 15 8 16 7 17 2 18 6 19 3 20 5 21 4 22 1 23
REMARK H PARENT 18 11 18 12 10 14
ROOT
ATOM      1  C   UNL     1       6.299  -0.515   6.095  1.00  0.00    -0.048 A 
ATOM      2  C   UNL     1       6.429  -1.037   7.384  1.00  0.00     0.006 A 
ATOM      3  C   UNL     1       7.662  -1.486   7.848  1.00  0.00     0.026 A 
ATOM      4  C   UNL     1       8.791  -1.505   7.024  1.00  0.00     0.038 A 
ATOM      5  C   UNL     1       8.649  -1.035   5.713  1.00  0.00     0.026 A 
ATOM      6  C   UNL     1       7.417  -0.545   5.253  1.00  0.00     0.006 A 
ENDROOT
BRANCH   1   7
ATOM      7  C   UNL     1       4.992   0.066   5.617  1.00  0.00     0.037 C 
BRANCH   7   8
ATOM      8  C   UNL     1       4.211  -0.754   4.572  1.00  0.00     0.020 C 
BRANCH   8   9
ATOM      9  C   UNL     1       3.592  -2.067   5.072  1.00  0.00     0.078 C 
BRANCH   9  10
ATOM     10  N   UNL     1       2.395  -1.913   5.885  1.00  0.00    -0.330 NA
ATOM     11  H   UNL     1       1.854  -1.113   5.561  1.00  0.00     0.118 HD
ATOM     12  H   UNL     1       2.650  -1.699   6.850  1.00  0.00     0.118 HD
ENDBRANCH   9  10
ENDBRANCH   8   9
ENDBRANCH   7   8
ENDBRANCH   1   7
BRANCH   4  13
ATOM     13  N   UNL     1      10.011  -2.067   7.447  1.00  0.00    -0.362 N 
ATOM     14  H   UNL     1      10.659  -1.446   7.916  1.00  0.00     0.166 HD
BRANCH  13  15
ATOM     15  C   UNL     1      10.488  -3.289   7.053  1.00  0.00     0.083 C 
BRANCH  15  16
ATOM     16  C   UNL     1      10.479  -4.453   7.716  1.00  0.00     0.027 C 
BRANCH  16  17
ATOM     17  C   UNL     1      11.484  -5.492   7.444  1.00  0.00    -0.003 A 
ATOM     18  C   UNL     1      12.400  -5.928   8.418  1.00  0.00    -0.041 A 
ATOM     19  C   UNL     1      11.595  -6.071   6.171  1.00  0.00     0.119 A 
ATOM     20  C   UNL     1      13.342  -6.907   8.066  1.00  0.00     0.024 A 
ATOM     21  N   UNL     1      12.486  -7.028   5.820  1.00  0.00    -0.264 NA
ATOM     22  C   UNL     1      13.338  -7.426   6.781  1.00  0.00     0.111 A 
ATOM     23  C   UNL     1      12.431  -5.356   9.807  1.00  0.00     0.045 C 
ENDBRANCH  16  17
ENDBRANCH  15  16
ENDBRANCH  13  15
ENDBRANCH   4  13
TORSDOF 8
ENDMDL
MODEL 4
REMARK VINA RESULT:    -5.038      2.213      8.358
REMARK INTER + INTRA:          -7.972
REMARK INTER:                  -7.518
REMARK INTRA:                  -0.453
REMARK UNBOUND:                -0.725
REMARK SMILES Cc1ccncc1/C=C/Nc1ccc(CCCN)cc1
REMARK SMILES IDX 14 1 13 2 12 3 11 4 20 5 19 6 15 7 16 8 17 9 18 10 10 13
REMARK SMILES IDX 9 15 8 16 7 17 2 18 6 19 3 20 5 21 4 22 1 23
REMARK H PARENT 18 11 18 12 10 14
ROOT
ATOM      1  C   UNL     1       6.868  -0.724   4.522  1.00  0.00    -0.048 A 
ATOM      2  C   UNL     1       8.137  -0.517   3.978  1.00  0.00     0.006 A 
ATOM      3  C   UNL     1       9.275  -0.614   4.774  1.00  0.00     0.026 A 
ATOM      4  C   UNL     1       9.190  -0.842   6.149  1.00  0.00     0.038 A 
ATOM      5  C   UNL     1       7.914  -0.994   6.706  1.00  0.00     0.026 A 
ATOM      6  C   UNL     1       6.765  -0.935   5.902  1.00  0.00     0.006 A 
ENDROOT
BRANCH   1   7
ATOM      7  C   UNL     1       5.636  -0.721   3.651  1.00  0.00     0.037 C 
BRANCH   7   8
ATOM      8  C   UNL     1       4.871   0.612   3.538  1.00  0.00     0.020 C 
BRANCH   8   9
ATOM      9  C   UNL     1       5.718   1.847   3.195  1.00  0.00     0.078 C 
BRANCH   9  10
ATOM     10  N   UNL     1       5.753   2.195   1.782  1.00  0.00    -0.330 NA
ATOM     11  H   UNL     1       6.360   3.001   1.637  1.00  0.00     0.118 HD
ATOM     12  H   UNL     1       4.828   2.491   1.470  1.00  0.00     0.118 HD
ENDBRANCH   9  10
ENDBRANCH   8   9
ENDBRANCH   7   8
ENDBRANCH   1   7
BRANCH   4  13
ATOM     13  N   UNL     1      10.327  -0.823   6.979  1.00  0.00    -0.362 N 
ATOM     14  H   UNL     1      10.815  -1.702   7.101  1.00  0.00     0.166 HD
BRANCH  13  15
ATOM     15  C   UNL     1      10.665   0.204   7.819  1.00  0.00     0.083 C 
BRANCH  15  16
ATOM     16  C   UNL     1      11.714   1.035   7.760  1.00  0.00     0.027 C 
BRANCH  16  17
ATOM     17  C   UNL     1      12.325   1.580   8.982  1.00  0.00    -0.003 A 
ATOM     18  C   UNL     1      13.686   1.402   9.289  1.00  0.00    -0.041 A 
ATOM     19  C   UNL     1      11.553   2.278   9.923  1.00  0.00     0.119 A 
ATOM     20  C   UNL     1      14.181   1.936  10.489  1.00  0.00     0.024 A 
ATOM     21  N   UNL     1      12.018   2.814  11.075  1.00  0.00    -0.264 NA
ATOM     22  C   UNL     1      13.326   2.631  11.329  1.00  0.00     0.111 A 
ATOM     23  C   UNL     1      14.617   0.630   8.398  1.00  0.00     0.045 C 
ENDBRANCH  16  17
ENDBRANCH  15  16
ENDBRANCH  13  15
ENDBRANCH   4  13
TORSDOF 8
ENDMDL
MODEL 5
REMARK VINA RESULT:    -5.015      4.751      8.474
REMARK INTER + INTRA:          -7.939
REMARK INTER:                  -7.444
REMARK INTRA:                  -0.495
REMARK UNBOUND:                -0.725
REMARK SMILES Cc1ccncc1/C=C/Nc1ccc(CCCN)cc1
REMARK SMILES IDX 14 1 13 2 12 3 11 4 20 5 19 6 15 7 16 8 17 9 18 10 10 13
REMARK SMILES IDX 9 15 8 16 7 17 2 18 6 19 3 20 5 21 4 22 1 23
REMARK H PARENT 18 11 18 12 10 14
ROOT
ATOM      1  C   UNL     1       6.385  -0.276   5.738  1.00  0.00    -0.048 A 
ATOM      2  C   UNL     1       6.347  -0.858   7.007  1.00  0.00     0.006 A 
ATOM      3  C   UNL     1       7.497  -1.396   7.577  1.00  0.00     0.026 A 
ATOM      4  C   UNL     1       8.706  -1.444   6.879  1.00  0.00     0.038 A 
ATOM      5  C   UNL     1       8.732  -0.912   5.584  1.00  0.00     0.026 A 
ATOM      6  C   UNL     1       7.585  -0.335   5.019  1.00  0.00     0.006 A 
ENDROOT
BRANCH   1   7
ATOM      7  C   UNL     1       5.170   0.399   5.152  1.00  0.00     0.037 C 
BRANCH   7   8
ATOM      8  C   UNL     1       5.173   0.626   3.628  1.00  0.00     0.020 C 
BRANCH   8   9
ATOM      9  C   UNL     1       5.535   2.043   3.159  1.00  0.00     0.078 C 
BRANCH   9  10
ATOM     10  N   UNL     1       5.782   2.173   1.730  1.00  0.00    -0.330 NA
ATOM     11  H   UNL     1       6.017   1.265   1.332  1.00  0.00     0.118 HD
ATOM     12  H   UNL     1       6.600   2.762   1.567  1.00  0.00     0.118 HD
ENDBRANCH   9  10
ENDBRANCH   8   9
ENDBRANCH   7   8
ENDBRANCH   1   7
BRANCH   4  13
ATOM     13  N   UNL     1       9.842  -2.092   7.402  1.00  0.00    -0.362 N 
ATOM     14  H   UNL     1      10.462  -1.531   7.972  1.00  0.00     0.166 HD
BRANCH  13  15
ATOM     15  C   UNL     1      10.299  -3.319   6.997  1.00  0.00     0.083 C 
BRANCH  15  16
ATOM     16  C   UNL     1      10.366  -4.465   7.686  1.00  0.00     0.027 C 
BRANCH  16  17
ATOM     17  C   UNL     1      11.405  -5.466   7.400  1.00  0.00    -0.003 A 
ATOM     18  C   UNL     1      12.343  -5.877   8.364  1.00  0.00    -0.041 A 
ATOM     19  C   UNL     1      11.527  -6.032   6.122  1.00  0.00     0.119 A 
ATOM     20  C   UNL     1      13.316  -6.819   7.999  1.00  0.00     0.024 A 
ATOM     21  N   UNL     1      12.447  -6.955   5.758  1.00  0.00    -0.264 NA
ATOM     22  C   UNL     1      13.320  -7.329   6.710  1.00  0.00     0.111 A 
ATOM     23  C   UNL     1      12.364  -5.313   9.757  1.00  0.00     0.045 C 
ENDBRANCH  16  17
ENDBRANCH  15  16
ENDBRANCH  13  15
ENDBRANCH   4  13
TORSDOF 8
ENDMDL
MODEL 6
REMARK VINA RESULT:    -4.956      1.360      2.327
REMARK INTER + INTRA:          -7.853
REMARK INTER:                  -7.185
REMARK INTRA:                  -0.669
REMARK UNBOUND:                -0.725
REMARK SMILES Cc1ccncc1/C=C/Nc1ccc(CCCN)cc1
REMARK SMILES IDX 14 1 13 2 12 3 11 4 20 5 19 6 15 7 16 8 17 9 18 10 10 13
REMARK SMILES IDX 9 15 8 16 7 17 2 18 6 19 3 20 5 21 4 22 1 23
REMARK H PARENT 18 11 18 12 10 14
ROOT
ATOM      1  C   UNL     1      13.095   2.296  10.296  1.00  0.00    -0.048 A 
ATOM      2  C   UNL     1      11.738   2.542  10.080  1.00  0.00     0.006 A 
ATOM      3  C   UNL     1      11.042   1.860   9.086  1.00  0.00     0.026 A 
ATOM      4  C   UNL     1      11.684   0.969   8.223  1.00  0.00     0.038 A 
ATOM      5  C   UNL     1      13.057   0.764   8.402  1.00  0.00     0.026 A 
ATOM      6  C   UNL     1      13.756   1.420   9.427  1.00  0.00     0.006 A 
ENDROOT
BRANCH   1   7
ATOM      7  C   UNL     1      13.836   2.952  11.434  1.00  0.00     0.037 C 
BRANCH   7   8
ATOM      8  C   UNL     1      13.143   2.938  12.811  1.00  0.00     0.020 C 
BRANCH   8   9
ATOM      9  C   UNL     1      13.404   1.702  13.683  1.00  0.00     0.078 C 
BRANCH   9  10
ATOM     10  N   UNL     1      12.463   0.607  13.496  1.00  0.00    -0.330 NA
ATOM     11  H   UNL     1      12.455   0.009  14.322  1.00  0.00     0.118 HD
ATOM     12  H   UNL     1      12.768   0.008  12.728  1.00  0.00     0.118 HD
ENDBRANCH   9  10
ENDBRANCH   8   9
ENDBRANCH   7   8
ENDBRANCH   1   7
BRANCH   4  13
ATOM     13  N   UNL     1      11.013   0.367   7.141  1.00  0.00    -0.362 N 
ATOM     14  H   UNL     1      10.854   0.946   6.326  1.00  0.00     0.166 HD
BRANCH  13  15
ATOM     15  C   UNL     1      10.346  -0.828   7.201  1.00  0.00     0.083 C 
BRANCH  15  16
ATOM     16  C   UNL     1       9.067  -1.098   6.910  1.00  0.00     0.027 C 
BRANCH  16  17
ATOM     17  C   UNL     1       8.502  -0.778   5.591  1.00  0.00    -0.003 A 
ATOM     18  C   UNL     1       7.121  -0.619   5.380  1.00  0.00    -0.041 A 
ATOM     19  C   UNL     1       9.329  -0.655   4.464  1.00  0.00     0.119 A 
ATOM     20  C   UNL     1       6.665  -0.338   4.083  1.00  0.00     0.024 A 
ATOM     21  N   UNL     1       8.908  -0.367   3.211  1.00  0.00    -0.264 NA
ATOM     22  C   UNL     1       7.582  -0.212   3.052  1.00  0.00     0.111 A 
ATOM     23  C   UNL     1       6.115  -0.777   6.486  1.00  0.00     0.045 C 
ENDBRANCH  16  17
ENDBRANCH  15  16
ENDBRANCH  13  15
ENDBRANCH   4  13
TORSDOF 8
ENDMDL
MODEL 7
REMARK VINA RESULT:    -4.812      5.380      7.385
REMARK INTER + INTRA:          -7.647
REMARK INTER:                  -7.011
REMARK INTRA:                  -0.636
REMARK UNBOUND:                -0.725
REMARK SMILES Cc1ccncc1/C=C/Nc1ccc(CCCN)cc1
REMARK SMILES IDX 14 1 13 2 12 3 11 4 20 5 19 6 15 7 16 8 17 9 18 10 10 13
REMARK SMILES IDX 9 15 8 16 7 17 2 18 6 19 3 20 5 21 4 22 1 23
REMARK H PARENT 18 11 18 12 10 14
ROOT
ATOM      1  C   UNL     1      12.646  -6.586   7.472  1.00  0.00    -0.048 A 
ATOM      2  C   UNL     1      12.402  -5.736   8.553  1.00  0.00     0.006 A 
ATOM      3  C   UNL     1      11.373  -4.801   8.503  1.00  0.00     0.026 A 
ATOM      4  C   UNL     1      10.600  -4.623   7.353  1.00  0.00     0.038 A 
ATOM      5  C   UNL     1      10.881  -5.435   6.248  1.00  0.00     0.026 A 
ATOM      6  C   UNL     1      11.892  -6.406   6.306  1.00  0.00     0.006 A 
ENDROOT
BRANCH   1   7
ATOM      7  C   UNL     1      13.691  -7.670   7.552  1.00  0.00     0.037 C 
BRANCH   7   8
ATOM      8  C   UNL     1      13.667  -8.737   6.440  1.00  0.00     0.020 C 
BRANCH   8   9
ATOM      9  C   UNL     1      13.590 -10.197   6.910  1.00  0.00     0.078 C 
BRANCH   9  10
ATOM     10  N   UNL     1      12.293 -10.834   6.728  1.00  0.00    -0.330 NA
ATOM     11  H   UNL     1      12.307 -11.773   7.124  1.00  0.00     0.118 HD
ATOM     12  H   UNL     1      12.100 -10.960   5.734  1.00  0.00     0.118 HD
ENDBRANCH   9  10
ENDBRANCH   8   9
ENDBRANCH   7   8
ENDBRANCH   1   7
BRANCH   4  13
ATOM     13  N   UNL     1       9.638  -3.600   7.254  1.00  0.00    -0.362 N 
ATOM     14  H   UNL     1       8.669  -3.890   7.208  1.00  0.00     0.166 HD
BRANCH  13  15
ATOM     15  C   UNL     1       9.915  -2.291   6.959  1.00  0.00     0.083 C 
BRANCH  15  16
ATOM     16  C   UNL     1       9.079  -1.246   6.882  1.00  0.00     0.027 C 
BRANCH  16  17
ATOM     17  C   UNL     1       8.474  -0.848   5.602  1.00  0.00    -0.003 A 
ATOM     18  C   UNL     1       7.091  -0.643   5.454  1.00  0.00    -0.041 A 
ATOM     19  C   UNL     1       9.261  -0.690   4.452  1.00  0.00     0.119 A 
ATOM     20  C   UNL     1       6.594  -0.287   4.191  1.00  0.00     0.024 A 
ATOM     21  N   UNL     1       8.801  -0.330   3.231  1.00  0.00    -0.264 NA
ATOM     22  C   UNL     1       7.474  -0.134   3.132  1.00  0.00     0.111 A 
ATOM     23  C   UNL     1       6.123  -0.829   6.589  1.00  0.00     0.045 C 
ENDBRANCH  16  17
ENDBRANCH  15  16
ENDBRANCH  13  15
ENDBRANCH   4  13
TORSDOF 8
ENDMDL
MODEL 8
REMARK VINA RESULT:    -4.797      4.918      8.401
REMARK INTER + INTRA:          -7.625
REMARK INTER:                  -6.980
REMARK INTRA:                  -0.645
REMARK UNBOUND:                -0.725
REMARK SMILES Cc1ccncc1/C=C/Nc1ccc(CCCN)cc1
REMARK SMILES IDX 14 1 13 2 12 3 11 4 20 5 19 6 15 7 16 8 17 9 18 10 10 13
REMARK SMILES IDX 9 15 8 16 7 17 2 18 6 19 3 20 5 21 4 22 1 23
REMARK H PARENT 18 11 18 12 10 14
ROOT
ATOM      1  C   UNL     1       6.426  -0.561   6.196  1.00  0.00    -0.048 A 
ATOM      2  C   UNL     1       7.460  -0.610   5.259  1.00  0.00     0.006 A 
ATOM      3  C   UNL     1       8.647  -1.277   5.545  1.00  0.00     0.026 A 
ATOM      4  C   UNL     1       8.880  -1.852   6.797  1.00  0.00     0.038 A 
ATOM      5  C   UNL     1       7.867  -1.754   7.757  1.00  0.00     0.026 A 
ATOM      6  C   UNL     1       6.653  -1.116   7.461  1.00  0.00     0.006 A 
ENDROOT
BRANCH   1   7
ATOM      7  C   UNL     1       5.098   0.072   5.862  1.00  0.00     0.037 C 
BRANCH   7   8
ATOM      8  C   UNL     1       4.262  -0.615   4.765  1.00  0.00     0.020 C 
BRANCH   8   9
ATOM      9  C   UNL     1       3.673  -1.987   5.126  1.00  0.00     0.078 C 
BRANCH   9  10
ATOM     10  N   UNL     1       2.438  -1.943   5.896  1.00  0.00    -0.330 NA
ATOM     11  H   UNL     1       1.840  -1.192   5.554  1.00  0.00     0.118 HD
ATOM     12  H   UNL     1       2.638  -1.711   6.869  1.00  0.00     0.118 HD
ENDBRANCH   9  10
ENDBRANCH   8   9
ENDBRANCH   7   8
ENDBRANCH   1   7
BRANCH   4  13
ATOM     13  N   UNL     1      10.122  -2.424   7.133  1.00  0.00    -0.362 N 
ATOM     14  H   UNL     1      10.949  -1.948   6.794  1.00  0.00     0.166 HD
BRANCH  13  15
ATOM     15  C   UNL     1      10.290  -3.682   7.649  1.00  0.00     0.083 C 
BRANCH  15  16
ATOM     16  C   UNL     1      10.785  -4.778   7.059  1.00  0.00     0.027 C 
BRANCH  16  17
ATOM     17  C   UNL     1      11.846  -5.573   7.696  1.00  0.00    -0.003 A 
ATOM     18  C   UNL     1      12.678  -6.442   6.968  1.00  0.00    -0.041 A 
ATOM     19  C   UNL     1      12.048  -5.523   9.083  1.00  0.00     0.119 A 
ATOM     20  C   UNL     1      13.650  -7.181   7.659  1.00  0.00     0.024 A 
ATOM     21  N   UNL     1      12.992  -6.216   9.763  1.00  0.00    -0.264 NA
ATOM     22  C   UNL     1      13.774  -7.028   9.030  1.00  0.00     0.111 A 
ATOM     23  C   UNL     1      12.538  -6.635   5.484  1.00  0.00     0.045 C 
ENDBRANCH  16  17
ENDBRANCH  15  16
ENDBRANCH  13  15
ENDBRANCH   4  13
TORSDOF 8
ENDMDL
MODEL 9
REMARK VINA RESULT:    -4.791      5.302      7.125
REMARK INTER + INTRA:          -7.616
REMARK INTER:                  -7.029
REMARK INTRA:                  -0.587
REMARK UNBOUND:                -0.725
REMARK SMILES Cc1ccncc1/C=C/Nc1ccc(CCCN)cc1
REMARK SMILES IDX 14 1 13 2 12 3 11 4 20 5 19 6 15 7 16 8 17 9 18 10 10 13
REMARK SMILES IDX 9 15 8 16 7 17 2 18 6 19 3 20 5 21 4 22 1 23
REMARK H PARENT 18 11 18 12 10 14
ROOT
ATOM      1  C   UNL     1      12.608  -6.672   7.591  1.00  0.00    -0.048 A 
ATOM      2  C   UNL     1      12.386  -5.739   8.605  1.00  0.00     0.006 A 
ATOM      3  C   UNL     1      11.368  -4.796   8.493  1.00  0.00     0.026 A 
ATOM      4  C   UNL     1      10.587  -4.696   7.339  1.00  0.00     0.038 A 
ATOM      5  C   UNL     1      10.846  -5.595   6.298  1.00  0.00     0.026 A 
ATOM      6  C   UNL     1      11.846  -6.572   6.421  1.00  0.00     0.006 A 
ENDROOT
BRANCH   1   7
ATOM      7  C   UNL     1      13.640  -7.761   7.745  1.00  0.00     0.037 C 
BRANCH   7   8
ATOM      8  C   UNL     1      13.786  -8.747   6.569  1.00  0.00     0.020 C 
BRANCH   8   9
ATOM      9  C   UNL     1      13.695 -10.238   6.925  1.00  0.00     0.078 C 
BRANCH   9  10
ATOM     10  N   UNL     1      12.379 -10.834   6.746  1.00  0.00    -0.330 NA
ATOM     11  H   UNL     1      12.202 -10.995   5.755  1.00  0.00     0.118 HD
ATOM     12  H   UNL     1      11.654 -10.185   7.052  1.00  0.00     0.118 HD
ENDBRANCH   9  10
ENDBRANCH   8   9
ENDBRANCH   7   8
ENDBRANCH   1   7
BRANCH   4  13
ATOM     13  N   UNL     1       9.637  -3.671   7.170  1.00  0.00    -0.362 N 
ATOM     14  H   UNL     1       8.692  -3.959   6.951  1.00  0.00     0.166 HD
BRANCH  13  15
ATOM     15  C   UNL     1       9.937  -2.342   7.024  1.00  0.00     0.083 C 
BRANCH  15  16
ATOM     16  C   UNL     1       9.260  -1.389   6.371  1.00  0.00     0.027 C 
BRANCH  16  17
ATOM     17  C   UNL     1       7.821  -1.184   6.599  1.00  0.00    -0.003 A 
ATOM     18  C   UNL     1       6.949  -0.759   5.581  1.00  0.00    -0.041 A 
ATOM     19  C   UNL     1       7.261  -1.371   7.871  1.00  0.00     0.119 A 
ATOM     20  C   UNL     1       5.595  -0.566   5.891  1.00  0.00     0.024 A 
ATOM     21  N   UNL     1       5.954  -1.206   8.183  1.00  0.00    -0.264 NA
ATOM     22  C   UNL     1       5.150  -0.809   7.181  1.00  0.00     0.111 A 
ATOM     23  C   UNL     1       7.424  -0.469   4.184  1.00  0.00     0.045 C 
ENDBRANCH  16  17
ENDBRANCH  15  16
ENDBRANCH  13  15
ENDBRANCH   4  13
TORSDOF 8
ENDMDL
