MODEL 1
REMARK VINA RESULT:    -5.141      0.000      0.000
REMARK INTER + INTRA:          -8.110
REMARK INTER:                  -7.395
REMARK INTRA:                  -0.715
REMARK UNBOUND:                -0.715
REMARK SMILES Cc1ccncc1/C=C/Nc1ccc(CCCN)cc1
REMARK SMILES IDX 14 1 13 2 12 3 11 4 20 5 19 6 15 7 16 8 17 9 18 10 10 13
REMARK SMILES IDX 9 15 8 16 7 17 2 18 6 19 3 20 5 21 4 22 1 23
REMARK H PARENT 18 11 18 12 10 14
ROOT
ATOM      1  C   UNL     1     -11.196   7.795  -8.820  1.00  0.00    -0.048 A 
ATOM      2  C   UNL     1     -11.063   6.978  -9.945  1.00  0.00     0.006 A 
ATOM      3  C   UNL     1     -10.271   5.834  -9.903  1.00  0.00     0.026 A 
ATOM      4  C   UNL     1      -9.523   5.503  -8.770  1.00  0.00     0.038 A 
ATOM      5  C   UNL     1      -9.612   6.352  -7.660  1.00  0.00     0.026 A 
ATOM      6  C   UNL     1     -10.438   7.486  -7.684  1.00  0.00     0.006 A 
ENDROOT
BRANCH   1   7
ATOM      7  C   UNL     1     -12.129   8.980  -8.822  1.00  0.00     0.037 C 
BRANCH   7   8
ATOM      8  C   UNL     1     -11.475  10.375  -8.810  1.00  0.00     0.020 C 
BRANCH   8   9
ATOM      9  C   UNL     1     -11.275  11.038 -10.181  1.00  0.00     0.078 C 
BRANCH   9  10
ATOM     10  N   UNL     1      -9.887  11.212 -10.583  1.00  0.00    -0.330 NA
ATOM     11  H   UNL     1      -9.840  11.482 -11.565  1.00  0.00     0.118 HD
ATOM     12  H   UNL     1      -9.389  10.324 -10.520  1.00  0.00     0.118 HD
ENDBRANCH   9  10
ENDBRANCH   8   9
ENDBRANCH   7   8
ENDBRANCH   1   7
BRANCH   4  13
ATOM     13  N   UNL     1      -8.629   4.415  -8.760  1.00  0.00    -0.362 N 
ATOM     14  H   UNL     1      -9.021   3.508  -8.539  1.00  0.00     0.166 HD
BRANCH  13  15
ATOM     15  C   UNL     1      -7.264   4.524  -8.768  1.00  0.00     0.083 C 
BRANCH  15  16
ATOM     16  C   UNL     1      -6.345   3.681  -8.278  1.00  0.00     0.027 C 
BRANCH  16  17
ATOM     17  C   UNL     1      -5.437   4.089  -7.195  1.00  0.00    -0.003 A 
ATOM     18  C   UNL     1      -4.995   3.195  -6.205  1.00  0.00    -0.041 A 
ATOM     19  C   UNL     1      -5.000   5.418  -7.085  1.00  0.00     0.119 A 
ATOM     20  C   UNL     1      -4.148   3.674  -5.194  1.00  0.00     0.024 A 
ATOM     21  N   UNL     1      -4.170   5.893  -6.128  1.00  0.00    -0.264 NA
ATOM     22  C   UNL     1      -3.761   5.005  -5.204  1.00  0.00     0.111 A 
ATOM     23  C   UNL     1      -5.427   1.756  -6.169  1.00  0.00     0.045 C 
ENDBRANCH  16  17
ENDBRANCH  15  16
ENDBRANCH  13  15
ENDBRANCH   4  13
TORSDOF 8
ENDMDL
MODEL 2
REMARK VINA RESULT:    -5.014      4.650      6.795
REMARK INTER + INTRA:          -7.928
REMARK INTER:                  -7.234
REMARK INTRA:                  -0.694
REMARK UNBOUND:                -0.715
REMARK SMILES Cc1ccncc1/C=C/Nc1ccc(CCCN)cc1
REMARK SMILES IDX 14 1 13 2 12 3 11 4 20 5 19 6 15 7 16 8 17 9 18 10 10 13
REMARK SMILES IDX 9 15 8 16 7 17 2 18 6 19 3 20 5 21 4 22 1 23
REMARK H PARENT 18 11 18 12 10 14
ROOT
ATOM      1  C   UNL     1      -4.713   4.516 -14.312  1.00  0.00    -0.048 A 
ATOM      2  C   UNL     1      -5.296   5.705 -13.869  1.00  0.00     0.006 A 
ATOM      3  C   UNL     1      -5.319   6.023 -12.514  1.00  0.00     0.026 A 
ATOM      4  C   UNL     1      -4.836   5.139 -11.546  1.00  0.00     0.038 A 
ATOM      5  C   UNL     1      -4.302   3.921 -11.985  1.00  0.00     0.026 A 
ATOM      6  C   UNL     1      -4.242   3.612 -13.352  1.00  0.00     0.006 A 
ENDROOT
BRANCH   1   7
ATOM      7  C   UNL     1      -4.591   4.207 -15.783  1.00  0.00     0.037 C 
BRANCH   7   8
ATOM      8  C   UNL     1      -5.908   4.028 -16.564  1.00  0.00     0.020 C 
BRANCH   8   9
ATOM      9  C   UNL     1      -6.582   2.653 -16.440  1.00  0.00     0.078 C 
BRANCH   9  10
ATOM     10  N   UNL     1      -7.977   2.687 -16.027  1.00  0.00    -0.330 NA
ATOM     11  H   UNL     1      -8.207   3.605 -15.647  1.00  0.00     0.118 HD
ATOM     12  H   UNL     1      -8.134   2.028 -15.264  1.00  0.00     0.118 HD
ENDBRANCH   9  10
ENDBRANCH   8   9
ENDBRANCH   7   8
ENDBRANCH   1   7
BRANCH   4  13
ATOM     13  N   UNL     1      -4.964   5.401 -10.169  1.00  0.00    -0.362 N 
ATOM     14  H   UNL     1      -4.194   5.887  -9.725  1.00  0.00     0.166 HD
BRANCH  13  15
ATOM     15  C   UNL     1      -5.905   4.837  -9.349  1.00  0.00     0.083 C 
BRANCH  15  16
ATOM     16  C   UNL     1      -5.935   4.778  -8.011  1.00  0.00     0.027 C 
BRANCH  16  17
ATOM     17  C   UNL     1      -5.785   3.498  -7.302  1.00  0.00    -0.003 A 
ATOM     18  C   UNL     1      -5.002   3.367  -6.141  1.00  0.00    -0.041 A 
ATOM     19  C   UNL     1      -6.395   2.331  -7.785  1.00  0.00     0.119 A 
ATOM     20  C   UNL     1      -4.894   2.103  -5.540  1.00  0.00     0.024 A 
ATOM     21  N   UNL     1      -6.316   1.109  -7.209  1.00  0.00    -0.264 NA
ATOM     22  C   UNL     1      -5.566   1.026  -6.095  1.00  0.00     0.111 A 
ATOM     23  C   UNL     1      -4.249   4.522  -5.544  1.00  0.00     0.045 C 
ENDBRANCH  16  17
ENDBRANCH  15  16
ENDBRANCH  13  15
ENDBRANCH   4  13
TORSDOF 8
ENDMDL
MODEL 3
REMARK VINA RESULT:    -4.917      2.007      8.473
REMARK INTER + INTRA:          -7.789
REMARK INTER:                  -7.241
REMARK INTRA:                  -0.548
REMARK UNBOUND:                -0.715
REMARK SMILES Cc1ccncc1/C=C/Nc1ccc(CCCN)cc1
REMARK SMILES IDX 14 1 13 2 12 3 11 4 20 5 19 6 15 7 16 8 17 9 18 10 10 13
REMARK SMILES IDX 9 15 8 16 7 17 2 18 6 19 3 20 5 21 4 22 1 23
REMARK H PARENT 18 11 18 12 10 14
ROOT
ATOM      1  C   UNL     1      -4.663   3.384  -6.671  1.00  0.00    -0.048 A 
ATOM      2  C   UNL     1      -5.712   2.600  -7.155  1.00  0.00     0.006 A 
ATOM      3  C   UNL     1      -6.684   3.149  -7.986  1.00  0.00     0.026 A 
ATOM      4  C   UNL     1      -6.692   4.509  -8.304  1.00  0.00     0.038 A 
ATOM      5  C   UNL     1      -5.673   5.308  -7.773  1.00  0.00     0.026 A 
ATOM      6  C   UNL     1      -4.669   4.753  -6.965  1.00  0.00     0.006 A 
ENDROOT
BRANCH   1   7
ATOM      7  C   UNL     1      -3.549   2.779  -5.853  1.00  0.00     0.037 C 
BRANCH   7   8
ATOM      8  C   UNL     1      -2.965   3.654  -4.726  1.00  0.00     0.020 C 
BRANCH   8   9
ATOM      9  C   UNL     1      -1.438   3.818  -4.725  1.00  0.00     0.078 C 
BRANCH   9  10
ATOM     10  N   UNL     1      -0.699   2.695  -4.165  1.00  0.00    -0.330 NA
ATOM     11  H   UNL     1      -0.033   2.340  -4.850  1.00  0.00     0.118 HD
ATOM     12  H   UNL     1      -1.332   1.919  -3.971  1.00  0.00     0.118 HD
ENDBRANCH   9  10
ENDBRANCH   8   9
ENDBRANCH   7   8
ENDBRANCH   1   7
BRANCH   4  13
ATOM     13  N   UNL     1      -7.737   5.094  -9.046  1.00  0.00    -0.362 N 
ATOM     14  H   UNL     1      -7.469   5.762  -9.757  1.00  0.00     0.166 HD
BRANCH  13  15
ATOM     15  C   UNL     1      -9.064   5.027  -8.714  1.00  0.00     0.083 C 
BRANCH  15  16
ATOM     16  C   UNL     1      -9.954   6.020  -8.584  1.00  0.00     0.027 C 
BRANCH  16  17
ATOM     17  C   UNL     1     -10.635   6.591  -9.756  1.00  0.00    -0.003 A 
ATOM     18  C   UNL     1     -11.599   7.609  -9.646  1.00  0.00    -0.041 A 
ATOM     19  C   UNL     1     -10.373   6.108 -11.047  1.00  0.00     0.119 A 
ATOM     20  C   UNL     1     -12.218   8.080 -10.814  1.00  0.00     0.024 A 
ATOM     21  N   UNL     1     -10.948   6.563 -12.185  1.00  0.00    -0.264 NA
ATOM     22  C   UNL     1     -11.857   7.543 -12.039  1.00  0.00     0.111 A 
ATOM     23  C   UNL     1     -12.016   8.182  -8.321  1.00  0.00     0.045 C 
ENDBRANCH  16  17
ENDBRANCH  15  16
ENDBRANCH  13  15
ENDBRANCH   4  13
TORSDOF 8
ENDMDL
MODEL 4
REMARK VINA RESULT:    -4.890      4.578      8.382
REMARK INTER + INTRA:          -7.749
REMARK INTER:                  -7.208
REMARK INTRA:                  -0.541
REMARK UNBOUND:                -0.715
REMARK SMILES Cc1ccncc1/C=C/Nc1ccc(CCCN)cc1
REMARK SMILES IDX 14 1 13 2 12 3 11 4 20 5 19 6 15 7 16 8 17 9 18 10 10 13
REMARK SMILES IDX 9 15 8 16 7 17 2 18 6 19 3 20 5 21 4 22 1 23
REMARK H PARENT 18 11 18 12 10 14
ROOT
ATOM      1  C   UNL     1      -5.440   3.542  -6.122  1.00  0.00    -0.048 A 
ATOM      2  C   UNL     1      -4.912   4.782  -6.489  1.00  0.00     0.006 A 
ATOM      3  C   UNL     1      -5.124   5.296  -7.765  1.00  0.00     0.026 A 
ATOM      4  C   UNL     1      -5.800   4.565  -8.745  1.00  0.00     0.038 A 
ATOM      5  C   UNL     1      -6.281   3.297  -8.396  1.00  0.00     0.026 A 
ATOM      6  C   UNL     1      -6.103   2.790  -7.100  1.00  0.00     0.006 A 
ENDROOT
BRANCH   1   7
ATOM      7  C   UNL     1      -5.303   3.021  -4.714  1.00  0.00     0.037 C 
BRANCH   7   8
ATOM      8  C   UNL     1      -5.169   1.494  -4.551  1.00  0.00     0.020 C 
BRANCH   8   9
ATOM      9  C   UNL     1      -6.190   0.824  -3.620  1.00  0.00     0.078 C 
BRANCH   9  10
ATOM     10  N   UNL     1      -5.858   0.877  -2.203  1.00  0.00    -0.330 NA
ATOM     11  H   UNL     1      -6.665   1.196  -1.668  1.00  0.00     0.118 HD
ATOM     12  H   UNL     1      -5.129   1.572  -2.038  1.00  0.00     0.118 HD
ENDBRANCH   9  10
ENDBRANCH   8   9
ENDBRANCH   7   8
ENDBRANCH   1   7
BRANCH   4  13
ATOM     13  N   UNL     1      -5.916   5.026 -10.070  1.00  0.00    -0.362 N 
ATOM     14  H   UNL     1      -6.840   4.995 -10.483  1.00  0.00     0.166 HD
BRANCH  13  15
ATOM     15  C   UNL     1      -4.860   5.263 -10.911  1.00  0.00     0.083 C 
BRANCH  15  16
ATOM     16  C   UNL     1      -4.643   4.796 -12.148  1.00  0.00     0.027 C 
BRANCH  16  17
ATOM     17  C   UNL     1      -5.268   5.425 -13.321  1.00  0.00    -0.003 A 
ATOM     18  C   UNL     1      -4.972   5.029 -14.637  1.00  0.00    -0.041 A 
ATOM     19  C   UNL     1      -6.172   6.488 -13.171  1.00  0.00     0.119 A 
ATOM     20  C   UNL     1      -5.596   5.700 -15.699  1.00  0.00     0.024 A 
ATOM     21  N   UNL     1      -6.796   7.134 -14.183  1.00  0.00    -0.264 NA
ATOM     22  C   UNL     1      -6.494   6.720 -15.427  1.00  0.00     0.111 A 
ATOM     23  C   UNL     1      -3.983   3.940 -14.946  1.00  0.00     0.045 C 
ENDBRANCH  16  17
ENDBRANCH  15  16
ENDBRANCH  13  15
ENDBRANCH   4  13
TORSDOF 8
ENDMDL
MODEL 5
REMARK VINA RESULT:    -4.838      4.487      6.490
REMARK INTER + INTRA:          -7.674
REMARK INTER:                  -6.995
REMARK INTRA:                  -0.679
REMARK UNBOUND:                -0.715
REMARK SMILES Cc1ccncc1/C=C/Nc1ccc(CCCN)cc1
REMARK SMILES IDX 14 1 13 2 12 3 11 4 20 5 19 6 15 7 16 8 17 9 18 10 10 13
REMARK SMILES IDX 9 15 8 16 7 17 2 18 6 19 3 20 5 21 4 22 1 23
REMARK H PARENT 18 11 18 12 10 14
ROOT
ATOM      1  C   UNL     1      -4.646   4.474 -13.545  1.00  0.00    -0.048 A 
ATOM      2  C   UNL     1      -4.016   3.676 -12.587  1.00  0.00     0.006 A 
ATOM      3  C   UNL     1      -4.176   3.937 -11.229  1.00  0.00     0.026 A 
ATOM      4  C   UNL     1      -4.900   5.042 -10.776  1.00  0.00     0.038 A 
ATOM      5  C   UNL     1      -5.485   5.876 -11.737  1.00  0.00     0.026 A 
ATOM      6  C   UNL     1      -5.359   5.596 -13.106  1.00  0.00     0.006 A 
ENDROOT
BRANCH   1   7
ATOM      7  C   UNL     1      -4.563   4.142 -15.013  1.00  0.00     0.037 C 
BRANCH   7   8
ATOM      8  C   UNL     1      -5.024   2.732 -15.431  1.00  0.00     0.020 C 
BRANCH   8   9
ATOM      9  C   UNL     1      -6.168   2.672 -16.453  1.00  0.00     0.078 C 
BRANCH   9  10
ATOM     10  N   UNL     1      -7.479   2.372 -15.894  1.00  0.00    -0.330 NA
ATOM     11  H   UNL     1      -7.760   3.111 -15.251  1.00  0.00     0.118 HD
ATOM     12  H   UNL     1      -7.435   1.522 -15.332  1.00  0.00     0.118 HD
ENDBRANCH   9  10
ENDBRANCH   8   9
ENDBRANCH   7   8
ENDBRANCH   1   7
BRANCH   4  13
ATOM     13  N   UNL     1      -4.966   5.380  -9.411  1.00  0.00    -0.362 N 
ATOM     14  H   UNL     1      -4.119   5.741  -8.991  1.00  0.00     0.166 HD
BRANCH  13  15
ATOM     15  C   UNL     1      -5.983   5.025  -8.565  1.00  0.00     0.083 C 
BRANCH  15  16
ATOM     16  C   UNL     1      -6.054   3.992  -7.715  1.00  0.00     0.027 C 
BRANCH  16  17
ATOM     17  C   UNL     1      -5.029   3.786  -6.680  1.00  0.00    -0.003 A 
ATOM     18  C   UNL     1      -4.758   2.521  -6.129  1.00  0.00    -0.041 A 
ATOM     19  C   UNL     1      -4.297   4.867  -6.167  1.00  0.00     0.119 A 
ATOM     20  C   UNL     1      -3.779   2.417  -5.129  1.00  0.00     0.024 A 
ATOM     21  N   UNL     1      -3.338   4.782  -5.215  1.00  0.00    -0.264 NA
ATOM     22  C   UNL     1      -3.101   3.554  -4.720  1.00  0.00     0.111 A 
ATOM     23  C   UNL     1      -5.503   1.285  -6.547  1.00  0.00     0.045 C 
ENDBRANCH  16  17
ENDBRANCH  15  16
ENDBRANCH  13  15
ENDBRANCH   4  13
TORSDOF 8
ENDMDL
MODEL 6
REMARK VINA RESULT:    -4.808      4.461      8.417
REMARK INTER + INTRA:          -7.631
REMARK INTER:                  -7.044
REMARK INTRA:                  -0.586
REMARK UNBOUND:                -0.715
REMARK SMILES Cc1ccncc1/C=C/Nc1ccc(CCCN)cc1
REMARK SMILES IDX 14 1 13 2 12 3 11 4 20 5 19 6 15 7 16 8 17 9 18 10 10 13
REMARK SMILES IDX 9 15 8 16 7 17 2 18 6 19 3 20 5 21 4 22 1 23
REMARK H PARENT 18 11 18 12 10 14
ROOT
ATOM      1  C   UNL     1      -4.853   4.194  -5.931  1.00  0.00    -0.048 A 
ATOM      2  C   UNL     1      -4.585   5.432  -6.517  1.00  0.00     0.006 A 
ATOM      3  C   UNL     1      -5.069   5.738  -7.786  1.00  0.00     0.026 A 
ATOM      4  C   UNL     1      -5.768   4.798  -8.548  1.00  0.00     0.038 A 
ATOM      5  C   UNL     1      -5.988   3.536  -7.984  1.00  0.00     0.026 A 
ATOM      6  C   UNL     1      -5.536   3.236  -6.690  1.00  0.00     0.006 A 
ENDROOT
BRANCH   1   7
ATOM      7  C   UNL     1      -4.420   3.889  -4.518  1.00  0.00     0.037 C 
BRANCH   7   8
ATOM      8  C   UNL     1      -3.201   2.961  -4.353  1.00  0.00     0.020 C 
BRANCH   8   9
ATOM      9  C   UNL     1      -1.827   3.606  -4.585  1.00  0.00     0.078 C 
BRANCH   9  10
ATOM     10  N   UNL     1      -0.688   2.780  -4.211  1.00  0.00    -0.330 NA
ATOM     11  H   UNL     1      -0.203   2.457  -5.047  1.00  0.00     0.118 HD
ATOM     12  H   UNL     1      -1.007   1.935  -3.736  1.00  0.00     0.118 HD
ENDBRANCH   9  10
ENDBRANCH   8   9
ENDBRANCH   7   8
ENDBRANCH   1   7
BRANCH   4  13
ATOM     13  N   UNL     1      -6.157   5.058  -9.876  1.00  0.00    -0.362 N 
ATOM     14  H   UNL     1      -7.102   5.392 -10.015  1.00  0.00     0.166 HD
BRANCH  13  15
ATOM     15  C   UNL     1      -5.463   4.658 -10.987  1.00  0.00     0.083 C 
BRANCH  15  16
ATOM     16  C   UNL     1      -4.804   5.402 -11.886  1.00  0.00     0.027 C 
BRANCH  16  17
ATOM     17  C   UNL     1      -5.424   5.777 -13.165  1.00  0.00    -0.003 A 
ATOM     18  C   UNL     1      -5.064   5.173 -14.383  1.00  0.00    -0.041 A 
ATOM     19  C   UNL     1      -6.386   6.796 -13.227  1.00  0.00     0.119 A 
ATOM     20  C   UNL     1      -5.689   5.608 -15.562  1.00  0.00     0.024 A 
ATOM     21  N   UNL     1      -7.011   7.216 -14.352  1.00  0.00    -0.264 NA
ATOM     22  C   UNL     1      -6.648   6.607 -15.495  1.00  0.00     0.111 A 
ATOM     23  C   UNL     1      -4.009   4.106 -14.472  1.00  0.00     0.045 C 
ENDBRANCH  16  17
ENDBRANCH  15  16
ENDBRANCH  13  15
ENDBRANCH   4  13
TORSDOF 8
ENDMDL
MODEL 7
REMARK VINA RESULT:    -4.766      1.836      8.381
REMARK INTER + INTRA:          -7.571
REMARK INTER:                  -7.021
REMARK INTRA:                  -0.550
REMARK UNBOUND:                -0.715
REMARK SMILES Cc1ccncc1/C=C/Nc1ccc(CCCN)cc1
REMARK SMILES IDX 14 1 13 2 12 3 11 4 20 5 19 6 15 7 16 8 17 9 18 10 10 13
REMARK SMILES IDX 9 15 8 16 7 17 2 18 6 19 3 20 5 21 4 22 1 23
REMARK H PARENT 18 11 18 12 10 14
ROOT
ATOM      1  C   UNL     1      -4.701   3.497  -6.760  1.00  0.00    -0.048 A 
ATOM      2  C   UNL     1      -5.749   2.726  -7.266  1.00  0.00     0.006 A 
ATOM      3  C   UNL     1      -6.696   3.286  -8.119  1.00  0.00     0.026 A 
ATOM      4  C   UNL     1      -6.681   4.646  -8.436  1.00  0.00     0.038 A 
ATOM      5  C   UNL     1      -5.664   5.433  -7.884  1.00  0.00     0.026 A 
ATOM      6  C   UNL     1      -4.684   4.866  -7.055  1.00  0.00     0.006 A 
ENDROOT
BRANCH   1   7
ATOM      7  C   UNL     1      -3.613   2.879  -5.918  1.00  0.00     0.037 C 
BRANCH   7   8
ATOM      8  C   UNL     1      -3.005   3.766  -4.814  1.00  0.00     0.020 C 
BRANCH   8   9
ATOM      9  C   UNL     1      -1.471   3.850  -4.786  1.00  0.00     0.078 C 
BRANCH   9  10
ATOM     10  N   UNL     1      -0.805   2.725  -4.146  1.00  0.00    -0.330 NA
ATOM     11  H   UNL     1      -0.919   2.781  -3.135  1.00  0.00     0.118 HD
ATOM     12  H   UNL     1       0.201   2.772  -4.311  1.00  0.00     0.118 HD
ENDBRANCH   9  10
ENDBRANCH   8   9
ENDBRANCH   7   8
ENDBRANCH   1   7
BRANCH   4  13
ATOM     13  N   UNL     1      -7.702   5.243  -9.201  1.00  0.00    -0.362 N 
ATOM     14  H   UNL     1      -7.416   5.720 -10.047  1.00  0.00     0.166 HD
BRANCH  13  15
ATOM     15  C   UNL     1      -8.985   5.449  -8.767  1.00  0.00     0.083 C 
BRANCH  15  16
ATOM     16  C   UNL     1     -10.111   5.569  -9.484  1.00  0.00     0.027 C 
BRANCH  16  17
ATOM     17  C   UNL     1     -10.892   6.815  -9.473  1.00  0.00    -0.003 A 
ATOM     18  C   UNL     1     -11.380   7.409 -10.651  1.00  0.00    -0.041 A 
ATOM     19  C   UNL     1     -11.152   7.491  -8.272  1.00  0.00     0.119 A 
ATOM     20  C   UNL     1     -12.096   8.612 -10.552  1.00  0.00     0.024 A 
ATOM     21  N   UNL     1     -11.856   8.641  -8.157  1.00  0.00    -0.264 NA
ATOM     22  C   UNL     1     -12.314   9.173  -9.304  1.00  0.00     0.111 A 
ATOM     23  C   UNL     1     -11.129   6.823 -12.012  1.00  0.00     0.045 C 
ENDBRANCH  16  17
ENDBRANCH  15  16
ENDBRANCH  13  15
ENDBRANCH   4  13
TORSDOF 8
ENDMDL
MODEL 8
REMARK VINA RESULT:    -4.685      2.159      8.372
REMARK INTER + INTRA:          -7.454
REMARK INTER:                  -7.015
REMARK INTRA:                  -0.439
REMARK UNBOUND:                -0.715
REMARK SMILES Cc1ccncc1/C=C/Nc1ccc(CCCN)cc1
REMARK SMILES IDX 14 1 13 2 12 3 11 4 20 5 19 6 15 7 16 8 17 9 18 10 10 13
REMARK SMILES IDX 9 15 8 16 7 17 2 18 6 19 3 20 5 21 4 22 1 23
REMARK H PARENT 18 11 18 12 10 14
ROOT
ATOM      1  C   UNL     1      -4.811   2.710  -6.314  1.00  0.00    -0.048 A 
ATOM      2  C   UNL     1      -5.813   2.110  -7.078  1.00  0.00     0.006 A 
ATOM      3  C   UNL     1      -6.558   2.858  -7.986  1.00  0.00     0.026 A 
ATOM      4  C   UNL     1      -6.387   4.239  -8.111  1.00  0.00     0.038 A 
ATOM      5  C   UNL     1      -5.421   4.851  -7.304  1.00  0.00     0.026 A 
ATOM      6  C   UNL     1      -4.641   4.096  -6.415  1.00  0.00     0.006 A 
ENDROOT
BRANCH   1   7
ATOM      7  C   UNL     1      -3.930   1.893  -5.402  1.00  0.00     0.037 C 
BRANCH   7   8
ATOM      8  C   UNL     1      -4.375   1.779  -3.931  1.00  0.00     0.020 C 
BRANCH   8   9
ATOM      9  C   UNL     1      -5.736   1.111  -3.688  1.00  0.00     0.078 C 
BRANCH   9  10
ATOM     10  N   UNL     1      -6.021   0.783  -2.299  1.00  0.00    -0.330 NA
ATOM     11  H   UNL     1      -5.294   1.163  -1.694  1.00  0.00     0.118 HD
ATOM     12  H   UNL     1      -5.990  -0.227  -2.162  1.00  0.00     0.118 HD
ENDBRANCH   9  10
ENDBRANCH   8   9
ENDBRANCH   7   8
ENDBRANCH   1   7
BRANCH   4  13
ATOM     13  N   UNL     1      -7.217   5.019  -8.939  1.00  0.00    -0.362 N 
ATOM     14  H   UNL     1      -6.815   5.342  -9.810  1.00  0.00     0.166 HD
BRANCH  13  15
ATOM     15  C   UNL     1      -8.405   5.580  -8.551  1.00  0.00     0.083 C 
BRANCH  15  16
ATOM     16  C   UNL     1      -9.634   5.383  -9.047  1.00  0.00     0.027 C 
BRANCH  16  17
ATOM     17  C   UNL     1     -10.572   6.502  -9.223  1.00  0.00    -0.003 A 
ATOM     18  C   UNL     1     -11.042   6.900 -10.487  1.00  0.00    -0.041 A 
ATOM     19  C   UNL     1     -11.013   7.253  -8.123  1.00  0.00     0.119 A 
ATOM     20  C   UNL     1     -11.917   7.994 -10.568  1.00  0.00     0.024 A 
ATOM     21  N   UNL     1     -11.870   8.299  -8.180  1.00  0.00    -0.264 NA
ATOM     22  C   UNL     1     -12.304   8.642  -9.406  1.00  0.00     0.111 A 
ATOM     23  C   UNL     1     -10.611   6.220 -11.756  1.00  0.00     0.045 C 
ENDBRANCH  16  17
ENDBRANCH  15  16
ENDBRANCH  13  15
ENDBRANCH   4  13
TORSDOF 8
ENDMDL
MODEL 9
REMARK VINA RESULT:    -4.616      2.267      8.483
REMARK INTER + INTRA:          -7.355
REMARK INTER:                  -6.675
REMARK INTRA:                  -0.680
REMARK UNBOUND:                -0.715
REMARK SMILES Cc1ccncc1/C=C/Nc1ccc(CCCN)cc1
REMARK SMILES IDX 14 1 13 2 12 3 11 4 20 5 19 6 15 7 16 8 17 9 18 10 10 13
REMARK SMILES IDX 9 15 8 16 7 17 2 18 6 19 3 20 5 21 4 22 1 23
REMARK H PARENT 18 11 18 12 10 14
ROOT
ATOM      1  C   UNL     1      -4.968   2.384  -6.111  1.00  0.00    -0.048 A 
ATOM      2  C   UNL     1      -4.828   3.755  -6.337  1.00  0.00     0.006 A 
ATOM      3  C   UNL     1      -5.639   4.409  -7.261  1.00  0.00     0.026 A 
ATOM      4  C   UNL     1      -6.560   3.714  -8.047  1.00  0.00     0.038 A 
ATOM      5  C   UNL     1      -6.661   2.330  -7.863  1.00  0.00     0.026 A 
ATOM      6  C   UNL     1      -5.874   1.671  -6.906  1.00  0.00     0.006 A 
ENDROOT
BRANCH   1   7
ATOM      7  C   UNL     1      -4.167   1.684  -5.042  1.00  0.00     0.037 C 
BRANCH   7   8
ATOM      8  C   UNL     1      -4.579   1.951  -3.582  1.00  0.00     0.020 C 
BRANCH   8   9
ATOM      9  C   UNL     1      -5.867   1.261  -3.109  1.00  0.00     0.078 C 
BRANCH   9  10
ATOM     10  N   UNL     1      -5.969  -0.151  -3.447  1.00  0.00    -0.330 NA
ATOM     11  H   UNL     1      -6.243  -0.257  -4.423  1.00  0.00     0.118 HD
ATOM     12  H   UNL     1      -6.713  -0.590  -2.905  1.00  0.00     0.118 HD
ENDBRANCH   9  10
ENDBRANCH   8   9
ENDBRANCH   7   8
ENDBRANCH   1   7
BRANCH   4  13
ATOM     13  N   UNL     1      -7.297   4.348  -9.066  1.00  0.00    -0.362 N 
ATOM     14  H   UNL     1      -7.022   4.146 -10.019  1.00  0.00     0.166 HD
BRANCH  13  15
ATOM     15  C   UNL     1      -8.165   5.390  -8.871  1.00  0.00     0.083 C 
BRANCH  15  16
ATOM     16  C   UNL     1      -9.505   5.383  -8.855  1.00  0.00     0.027 C 
BRANCH  16  17
ATOM     17  C   UNL     1     -10.282   6.182  -9.814  1.00  0.00    -0.003 A 
ATOM     18  C   UNL     1     -11.105   7.249  -9.414  1.00  0.00    -0.041 A 
ATOM     19  C   UNL     1     -10.262   5.881 -11.185  1.00  0.00     0.119 A 
ATOM     20  C   UNL     1     -11.831   7.944 -10.394  1.00  0.00     0.024 A 
ATOM     21  N   UNL     1     -10.941   6.552 -12.144  1.00  0.00    -0.264 NA
ATOM     22  C   UNL     1     -11.710   7.572 -11.723  1.00  0.00     0.111 A 
ATOM     23  C   UNL     1     -11.264   7.647  -7.974  1.00  0.00     0.045 C 
ENDBRANCH  16  17
ENDBRANCH  15  16
ENDBRANCH  13  15
ENDBRANCH   4  13
TORSDOF 8
ENDMDL
