MODEL 1
REMARK VINA RESULT:    -5.064      0.000      0.000
REMARK INTER + INTRA:          -7.901
REMARK INTER:                  -7.284
REMARK INTRA:                  -0.616
REMARK UNBOUND:                -0.616
REMARK SMILES Cc1ccncc1/C=C/Nc1ccc(CCCN)cc1
REMARK SMILES IDX 14 1 13 2 12 3 11 4 20 5 19 6 15 7 16 8 17 9 18 10 10 13
REMARK SMILES IDX 9 15 8 16 7 17 2 18 6 19 3 20 5 21 4 22 1 23
REMARK H PARENT 18 11 18 12 10 14
ROOT
ATOM      1  C   UNL     1       9.212   1.130  12.781  1.00  0.00    -0.048 A 
ATOM      2  C   UNL     1       8.094   1.457  12.011  1.00  0.00     0.006 A 
ATOM      3  C   UNL     1       7.713   0.659  10.936  1.00  0.00     0.026 A 
ATOM      4  C   UNL     1       8.471  -0.446  10.541  1.00  0.00     0.038 A 
ATOM      5  C   UNL     1       9.624  -0.743  11.277  1.00  0.00     0.026 A 
ATOM      6  C   UNL     1       9.991   0.036  12.385  1.00  0.00     0.006 A 
ENDROOT
BRANCH   1   7
ATOM      7  C   UNL     1       9.576   1.929  14.008  1.00  0.00     0.037 C 
BRANCH   7   8
ATOM      8  C   UNL     1       8.502   2.035  15.108  1.00  0.00     0.020 C 
BRANCH   8   9
ATOM      9  C   UNL     1       8.731   1.174  16.359  1.00  0.00     0.078 C 
BRANCH   9  10
ATOM     10  N   UNL     1       7.892  -0.012  16.453  1.00  0.00    -0.330 NA
ATOM     11  H   UNL     1       6.912   0.260  16.531  1.00  0.00     0.118 HD
ATOM     12  H   UNL     1       8.102  -0.525  17.309  1.00  0.00     0.118 HD
ENDBRANCH   9  10
ENDBRANCH   8   9
ENDBRANCH   7   8
ENDBRANCH   1   7
BRANCH   4  13
ATOM     13  N   UNL     1       8.159  -1.187   9.384  1.00  0.00    -0.362 N 
ATOM     14  H   UNL     1       8.716  -0.998   8.560  1.00  0.00     0.166 HD
BRANCH  13  15
ATOM     15  C   UNL     1       7.024  -1.935   9.217  1.00  0.00     0.083 C 
BRANCH  15  16
ATOM     16  C   UNL     1       6.593  -2.585   8.128  1.00  0.00     0.027 C 
BRANCH  16  17
ATOM     17  C   UNL     1       5.225  -2.401   7.622  1.00  0.00    -0.003 A 
ATOM     18  C   UNL     1       4.926  -2.370   6.249  1.00  0.00    -0.041 A 
ATOM     19  C   UNL     1       4.151  -2.207   8.505  1.00  0.00     0.119 A 
ATOM     20  C   UNL     1       3.596  -2.165   5.852  1.00  0.00     0.024 A 
ATOM     21  N   UNL     1       2.860  -2.026   8.140  1.00  0.00    -0.264 NA
ATOM     22  C   UNL     1       2.614  -2.013   6.818  1.00  0.00     0.111 A 
ATOM     23  C   UNL     1       5.985  -2.510   5.192  1.00  0.00     0.045 C 
ENDBRANCH  16  17
ENDBRANCH  15  16
ENDBRANCH  13  15
ENDBRANCH   4  13
TORSDOF 8
ENDMDL
MODEL 2
REMARK VINA RESULT:    -4.969      1.941      8.525
REMARK INTER + INTRA:          -7.763
REMARK INTER:                  -7.233
REMARK INTRA:                  -0.530
REMARK UNBOUND:                -0.616
REMARK SMILES Cc1ccncc1/C=C/Nc1ccc(CCCN)cc1
REMARK SMILES IDX 14 1 13 2 12 3 11 4 20 5 19 6 15 7 16 8 17 9 18 10 10 13
REMARK SMILES IDX 9 15 8 16 7 17 2 18 6 19 3 20 5 21 4 22 1 23
REMARK H PARENT 18 11 18 12 10 14
ROOT
ATOM      1  C   UNL     1       4.912  -2.513   6.485  1.00  0.00    -0.048 A 
ATOM      2  C   UNL     1       6.305  -2.545   6.388  1.00  0.00     0.006 A 
ATOM      3  C   UNL     1       7.097  -2.541   7.532  1.00  0.00     0.026 A 
ATOM      4  C   UNL     1       6.540  -2.426   8.808  1.00  0.00     0.038 A 
ATOM      5  C   UNL     1       5.146  -2.336   8.904  1.00  0.00     0.026 A 
ATOM      6  C   UNL     1       4.341  -2.378   7.756  1.00  0.00     0.006 A 
ENDROOT
BRANCH   1   7
ATOM      7  C   UNL     1       4.041  -2.619   5.258  1.00  0.00     0.037 C 
BRANCH   7   8
ATOM      8  C   UNL     1       3.474  -1.301   4.696  1.00  0.00     0.020 C 
BRANCH   8   9
ATOM      9  C   UNL     1       4.510  -0.255   4.259  1.00  0.00     0.078 C 
BRANCH   9  10
ATOM     10  N   UNL     1       4.808  -0.242   2.834  1.00  0.00    -0.330 NA
ATOM     11  H   UNL     1       4.422  -1.073   2.389  1.00  0.00     0.118 HD
ATOM     12  H   UNL     1       5.816  -0.295   2.685  1.00  0.00     0.118 HD
ENDBRANCH   9  10
ENDBRANCH   8   9
ENDBRANCH   7   8
ENDBRANCH   1   7
BRANCH   4  13
ATOM     13  N   UNL     1       7.339  -2.301   9.960  1.00  0.00    -0.362 N 
ATOM     14  H   UNL     1       7.519  -3.149  10.483  1.00  0.00     0.166 HD
BRANCH  13  15
ATOM     15  C   UNL     1       7.668  -1.114  10.560  1.00  0.00     0.083 C 
BRANCH  15  16
ATOM     16  C   UNL     1       8.853  -0.490  10.607  1.00  0.00     0.027 C 
BRANCH  16  17
ATOM     17  C   UNL     1       9.239   0.326  11.768  1.00  0.00    -0.003 A 
ATOM     18  C   UNL     1      10.421   0.094  12.493  1.00  0.00    -0.041 A 
ATOM     19  C   UNL     1       8.410   1.360  12.229  1.00  0.00     0.119 A 
ATOM     20  C   UNL     1      10.701   0.905  13.603  1.00  0.00     0.024 A 
ATOM     21  N   UNL     1       8.673   2.163  13.286  1.00  0.00    -0.264 NA
ATOM     22  C   UNL     1       9.818   1.916  13.948  1.00  0.00     0.111 A 
ATOM     23  C   UNL     1      11.374  -1.015  12.144  1.00  0.00     0.045 C 
ENDBRANCH  16  17
ENDBRANCH  15  16
ENDBRANCH  13  15
ENDBRANCH   4  13
TORSDOF 8
ENDMDL
MODEL 3
REMARK VINA RESULT:    -4.952      4.696      8.452
REMARK INTER + INTRA:          -7.740
REMARK INTER:                  -7.151
REMARK INTRA:                  -0.589
REMARK UNBOUND:                -0.616
REMARK SMILES Cc1ccncc1/C=C/Nc1ccc(CCCN)cc1
REMARK SMILES IDX 14 1 13 2 12 3 11 4 20 5 19 6 15 7 16 8 17 9 18 10 10 13
REMARK SMILES IDX 9 15 8 16 7 17 2 18 6 19 3 20 5 21 4 22 1 23
REMARK H PARENT 18 11 18 12 10 14
ROOT
ATOM      1  C   UNL     1       4.936  -1.789   7.136  1.00  0.00    -0.048 A 
ATOM      2  C   UNL     1       4.267  -2.045   8.334  1.00  0.00     0.006 A 
ATOM      3  C   UNL     1       4.928  -2.646   9.402  1.00  0.00     0.026 A 
ATOM      4  C   UNL     1       6.250  -3.084   9.293  1.00  0.00     0.038 A 
ATOM      5  C   UNL     1       6.905  -2.879   8.072  1.00  0.00     0.026 A 
ATOM      6  C   UNL     1       6.256  -2.239   7.005  1.00  0.00     0.006 A 
ENDROOT
BRANCH   1   7
ATOM      7  C   UNL     1       4.262  -1.049   6.008  1.00  0.00     0.037 C 
BRANCH   7   8
ATOM      8  C   UNL     1       4.881  -1.210   4.606  1.00  0.00     0.020 C 
BRANCH   8   9
ATOM      9  C   UNL     1       4.759   0.003   3.672  1.00  0.00     0.078 C 
BRANCH   9  10
ATOM     10  N   UNL     1       3.409   0.524   3.513  1.00  0.00    -0.330 NA
ATOM     11  H   UNL     1       2.728  -0.216   3.680  1.00  0.00     0.118 HD
ATOM     12  H   UNL     1       3.259   0.822   2.549  1.00  0.00     0.118 HD
ENDBRANCH   9  10
ENDBRANCH   8   9
ENDBRANCH   7   8
ENDBRANCH   1   7
BRANCH   4  13
ATOM     13  N   UNL     1       6.886  -3.798  10.326  1.00  0.00    -0.362 N 
ATOM     14  H   UNL     1       7.782  -3.445  10.638  1.00  0.00     0.166 HD
BRANCH  13  15
ATOM     15  C   UNL     1       6.521  -5.047  10.753  1.00  0.00     0.083 C 
BRANCH  15  16
ATOM     16  C   UNL     1       7.213  -6.193  10.704  1.00  0.00     0.027 C 
BRANCH  16  17
ATOM     17  C   UNL     1       7.853  -6.748  11.906  1.00  0.00    -0.003 A 
ATOM     18  C   UNL     1       8.711  -7.862  11.858  1.00  0.00    -0.041 A 
ATOM     19  C   UNL     1       7.599  -6.203  13.174  1.00  0.00     0.119 A 
ATOM     20  C   UNL     1       9.260  -8.341  13.057  1.00  0.00     0.024 A 
ATOM     21  N   UNL     1       8.134  -6.642  14.337  1.00  0.00    -0.264 NA
ATOM     22  C   UNL     1       8.957  -7.702  14.249  1.00  0.00     0.111 A 
ATOM     23  C   UNL     1       9.029  -8.578  10.576  1.00  0.00     0.045 C 
ENDBRANCH  16  17
ENDBRANCH  15  16
ENDBRANCH  13  15
ENDBRANCH   4  13
TORSDOF 8
ENDMDL
MODEL 4
REMARK VINA RESULT:    -4.940      4.661      8.526
REMARK INTER + INTRA:          -7.722
REMARK INTER:                  -7.176
REMARK INTRA:                  -0.546
REMARK UNBOUND:                -0.616
REMARK SMILES Cc1ccncc1/C=C/Nc1ccc(CCCN)cc1
REMARK SMILES IDX 14 1 13 2 12 3 11 4 20 5 19 6 15 7 16 8 17 9 18 10 10 13
REMARK SMILES IDX 9 15 8 16 7 17 2 18 6 19 3 20 5 21 4 22 1 23
REMARK H PARENT 18 11 18 12 10 14
ROOT
ATOM      1  C   UNL     1       3.914  -1.788   7.466  1.00  0.00    -0.048 A 
ATOM      2  C   UNL     1       3.683  -2.054   8.817  1.00  0.00     0.006 A 
ATOM      3  C   UNL     1       4.696  -2.565   9.624  1.00  0.00     0.026 A 
ATOM      4  C   UNL     1       5.948  -2.902   9.102  1.00  0.00     0.038 A 
ATOM      5  C   UNL     1       6.162  -2.689   7.735  1.00  0.00     0.026 A 
ATOM      6  C   UNL     1       5.157  -2.139   6.925  1.00  0.00     0.006 A 
ENDROOT
BRANCH   1   7
ATOM      7  C   UNL     1       2.857  -1.141   6.607  1.00  0.00     0.037 C 
BRANCH   7   8
ATOM      8  C   UNL     1       2.096  -2.063   5.634  1.00  0.00     0.020 C 
BRANCH   8   9
ATOM      9  C   UNL     1       1.341  -3.238   6.271  1.00  0.00     0.078 C 
BRANCH   9  10
ATOM     10  N   UNL     1      -0.072  -2.995   6.528  1.00  0.00    -0.330 NA
ATOM     11  H   UNL     1      -0.597  -3.037   5.655  1.00  0.00     0.118 HD
ATOM     12  H   UNL     1      -0.206  -2.049   6.883  1.00  0.00     0.118 HD
ENDBRANCH   9  10
ENDBRANCH   8   9
ENDBRANCH   7   8
ENDBRANCH   1   7
BRANCH   4  13
ATOM     13  N   UNL     1       6.936  -3.529   9.884  1.00  0.00    -0.362 N 
ATOM     14  H   UNL     1       7.786  -3.004  10.049  1.00  0.00     0.166 HD
BRANCH  13  15
ATOM     15  C   UNL     1       6.947  -4.859  10.213  1.00  0.00     0.083 C 
BRANCH  15  16
ATOM     16  C   UNL     1       6.919  -5.430  11.424  1.00  0.00     0.027 C 
BRANCH  16  17
ATOM     17  C   UNL     1       7.697  -6.645  11.712  1.00  0.00    -0.003 A 
ATOM     18  C   UNL     1       8.210  -6.927  12.990  1.00  0.00    -0.041 A 
ATOM     19  C   UNL     1       7.994  -7.566  10.696  1.00  0.00     0.119 A 
ATOM     20  C   UNL     1       8.963  -8.097  13.171  1.00  0.00     0.024 A 
ATOM     21  N   UNL     1       8.703  -8.708  10.857  1.00  0.00    -0.264 NA
ATOM     22  C   UNL     1       9.168  -8.947  12.096  1.00  0.00     0.111 A 
ATOM     23  C   UNL     1       8.014  -6.002  14.158  1.00  0.00     0.045 C 
ENDBRANCH  16  17
ENDBRANCH  15  16
ENDBRANCH  13  15
ENDBRANCH   4  13
TORSDOF 8
ENDMDL
MODEL 5
REMARK VINA RESULT:    -4.881      1.293      2.180
REMARK INTER + INTRA:          -7.638
REMARK INTER:                  -7.008
REMARK INTRA:                  -0.630
REMARK UNBOUND:                -0.616
REMARK SMILES Cc1ccncc1/C=C/Nc1ccc(CCCN)cc1
REMARK SMILES IDX 14 1 13 2 12 3 11 4 20 5 19 6 15 7 16 8 17 9 18 10 10 13
REMARK SMILES IDX 9 15 8 16 7 17 2 18 6 19 3 20 5 21 4 22 1 23
REMARK H PARENT 18 11 18 12 10 14
ROOT
ATOM      1  C   UNL     1       9.479   1.201  13.019  1.00  0.00    -0.048 A 
ATOM      2  C   UNL     1      10.152   0.065  12.565  1.00  0.00     0.006 A 
ATOM      3  C   UNL     1       9.705  -0.624  11.441  1.00  0.00     0.026 A 
ATOM      4  C   UNL     1       8.532  -0.257  10.776  1.00  0.00     0.038 A 
ATOM      5  C   UNL     1       7.825   0.848  11.265  1.00  0.00     0.026 A 
ATOM      6  C   UNL     1       8.292   1.569  12.374  1.00  0.00     0.006 A 
ENDROOT
BRANCH   1   7
ATOM      7  C   UNL     1      10.011   2.014  14.173  1.00  0.00     0.037 C 
BRANCH   7   8
ATOM      8  C   UNL     1       9.930   1.367  15.570  1.00  0.00     0.020 C 
BRANCH   8   9
ATOM      9  C   UNL     1       8.540   1.344  16.222  1.00  0.00     0.078 C 
BRANCH   9  10
ATOM     10  N   UNL     1       7.991   0.015  16.452  1.00  0.00    -0.330 NA
ATOM     11  H   UNL     1       8.599  -0.509  17.080  1.00  0.00     0.118 HD
ATOM     12  H   UNL     1       7.975  -0.515  15.581  1.00  0.00     0.118 HD
ENDBRANCH   9  10
ENDBRANCH   8   9
ENDBRANCH   7   8
ENDBRANCH   1   7
BRANCH   4  13
ATOM     13  N   UNL     1       8.009  -1.018   9.714  1.00  0.00    -0.362 N 
ATOM     14  H   UNL     1       8.067  -0.609   8.790  1.00  0.00     0.166 HD
BRANCH  13  15
ATOM     15  C   UNL     1       7.216  -2.125   9.860  1.00  0.00     0.083 C 
BRANCH  15  16
ATOM     16  C   UNL     1       6.066  -2.429   9.244  1.00  0.00     0.027 C 
BRANCH  16  17
ATOM     17  C   UNL     1       5.954  -2.392   7.778  1.00  0.00    -0.003 A 
ATOM     18  C   UNL     1       4.735  -2.150   7.120  1.00  0.00    -0.041 A 
ATOM     19  C   UNL     1       7.071  -2.638   6.965  1.00  0.00     0.119 A 
ATOM     20  C   UNL     1       4.714  -2.156   5.717  1.00  0.00     0.024 A 
ATOM     21  N   UNL     1       7.071  -2.630   5.611  1.00  0.00    -0.264 NA
ATOM     22  C   UNL     1       5.889  -2.386   5.019  1.00  0.00     0.111 A 
ATOM     23  C   UNL     1       3.450  -1.924   7.865  1.00  0.00     0.045 C 
ENDBRANCH  16  17
ENDBRANCH  15  16
ENDBRANCH  13  15
ENDBRANCH   4  13
TORSDOF 8
ENDMDL
MODEL 6
REMARK VINA RESULT:    -4.859      4.742      8.570
REMARK INTER + INTRA:          -7.605
REMARK INTER:                  -7.061
REMARK INTRA:                  -0.544
REMARK UNBOUND:                -0.616
REMARK SMILES Cc1ccncc1/C=C/Nc1ccc(CCCN)cc1
REMARK SMILES IDX 14 1 13 2 12 3 11 4 20 5 19 6 15 7 16 8 17 9 18 10 10 13
REMARK SMILES IDX 9 15 8 16 7 17 2 18 6 19 3 20 5 21 4 22 1 23
REMARK H PARENT 18 11 18 12 10 14
ROOT
ATOM      1  C   UNL     1       4.650  -1.773   7.077  1.00  0.00    -0.048 A 
ATOM      2  C   UNL     1       4.042  -2.032   8.307  1.00  0.00     0.006 A 
ATOM      3  C   UNL     1       4.765  -2.605   9.350  1.00  0.00     0.026 A 
ATOM      4  C   UNL     1       6.091  -3.011   9.185  1.00  0.00     0.038 A 
ATOM      5  C   UNL     1       6.685  -2.803   7.934  1.00  0.00     0.026 A 
ATOM      6  C   UNL     1       5.973  -2.191   6.891  1.00  0.00     0.006 A 
ENDROOT
BRANCH   1   7
ATOM      7  C   UNL     1       3.907  -1.061   5.974  1.00  0.00     0.037 C 
BRANCH   7   8
ATOM      8  C   UNL     1       4.455  -1.239   4.545  1.00  0.00     0.020 C 
BRANCH   8   9
ATOM      9  C   UNL     1       4.656   0.051   3.735  1.00  0.00     0.078 C 
BRANCH   9  10
ATOM     10  N   UNL     1       3.429   0.705   3.305  1.00  0.00    -0.330 NA
ATOM     11  H   UNL     1       2.725   0.645   4.040  1.00  0.00     0.118 HD
ATOM     12  H   UNL     1       3.031   0.214   2.505  1.00  0.00     0.118 HD
ENDBRANCH   9  10
ENDBRANCH   8   9
ENDBRANCH   7   8
ENDBRANCH   1   7
BRANCH   4  13
ATOM     13  N   UNL     1       6.790  -3.698  10.196  1.00  0.00    -0.362 N 
ATOM     14  H   UNL     1       7.579  -3.218  10.610  1.00  0.00     0.166 HD
BRANCH  13  15
ATOM     15  C   UNL     1       6.652  -5.032  10.474  1.00  0.00     0.083 C 
BRANCH  15  16
ATOM     16  C   UNL     1       6.895  -5.687  11.617  1.00  0.00     0.027 C 
BRANCH  16  17
ATOM     17  C   UNL     1       7.817  -6.832  11.658  1.00  0.00    -0.003 A 
ATOM     18  C   UNL     1       8.456  -7.245  12.841  1.00  0.00    -0.041 A 
ATOM     19  C   UNL     1       8.130  -7.546  10.492  1.00  0.00     0.119 A 
ATOM     20  C   UNL     1       9.340  -8.333  12.786  1.00  0.00     0.024 A 
ATOM     21  N   UNL     1       8.966  -8.609  10.424  1.00  0.00    -0.264 NA
ATOM     22  C   UNL     1       9.550  -8.979  11.578  1.00  0.00     0.111 A 
ATOM     23  C   UNL     1       8.255  -6.538  14.152  1.00  0.00     0.045 C 
ENDBRANCH  16  17
ENDBRANCH  15  16
ENDBRANCH  13  15
ENDBRANCH   4  13
TORSDOF 8
ENDMDL
MODEL 7
REMARK VINA RESULT:    -4.853      5.103      6.897
REMARK INTER + INTRA:          -7.597
REMARK INTER:                  -6.934
REMARK INTRA:                  -0.663
REMARK UNBOUND:                -0.616
REMARK SMILES Cc1ccncc1/C=C/Nc1ccc(CCCN)cc1
REMARK SMILES IDX 14 1 13 2 12 3 11 4 20 5 19 6 15 7 16 8 17 9 18 10 10 13
REMARK SMILES IDX 9 15 8 16 7 17 2 18 6 19 3 20 5 21 4 22 1 23
REMARK H PARENT 18 11 18 12 10 14
ROOT
ATOM      1  C   UNL     1       8.776  -8.164  11.839  1.00  0.00    -0.048 A 
ATOM      2  C   UNL     1       8.525  -7.182  12.800  1.00  0.00     0.006 A 
ATOM      3  C   UNL     1       7.700  -6.100  12.510  1.00  0.00     0.026 A 
ATOM      4  C   UNL     1       7.159  -5.912  11.235  1.00  0.00     0.038 A 
ATOM      5  C   UNL     1       7.456  -6.866  10.255  1.00  0.00     0.026 A 
ATOM      6  C   UNL     1       8.256  -7.980  10.552  1.00  0.00     0.006 A 
ENDROOT
BRANCH   1   7
ATOM      7  C   UNL     1       9.585  -9.393  12.172  1.00  0.00     0.037 C 
BRANCH   7   8
ATOM      8  C   UNL     1      10.618  -9.846  11.122  1.00  0.00     0.020 C 
BRANCH   8   9
ATOM      9  C   UNL     1      11.964  -9.107  11.139  1.00  0.00     0.078 C 
BRANCH   9  10
ATOM     10  N   UNL     1      11.977  -7.836  10.429  1.00  0.00    -0.330 NA
ATOM     11  H   UNL     1      12.829  -7.754   9.875  1.00  0.00     0.118 HD
ATOM     12  H   UNL     1      12.008  -7.062  11.094  1.00  0.00     0.118 HD
ENDBRANCH   9  10
ENDBRANCH   8   9
ENDBRANCH   7   8
ENDBRANCH   1   7
BRANCH   4  13
ATOM     13  N   UNL     1       6.422  -4.760  10.901  1.00  0.00    -0.362 N 
ATOM     14  H   UNL     1       5.608  -4.560  11.470  1.00  0.00     0.166 HD
BRANCH  13  15
ATOM     15  C   UNL     1       6.565  -4.049   9.739  1.00  0.00     0.083 C 
BRANCH  15  16
ATOM     16  C   UNL     1       6.221  -2.782   9.475  1.00  0.00     0.027 C 
BRANCH  16  17
ATOM     17  C   UNL     1       4.846  -2.429   9.092  1.00  0.00    -0.003 A 
ATOM     18  C   UNL     1       4.475  -2.177   7.759  1.00  0.00    -0.041 A 
ATOM     19  C   UNL     1       3.841  -2.292  10.062  1.00  0.00     0.119 A 
ATOM     20  C   UNL     1       3.145  -1.823   7.485  1.00  0.00     0.024 A 
ATOM     21  N   UNL     1       2.551  -1.968   9.813  1.00  0.00    -0.264 NA
ATOM     22  C   UNL     1       2.233  -1.744   8.526  1.00  0.00     0.111 A 
ATOM     23  C   UNL     1       5.460  -2.235   6.625  1.00  0.00     0.045 C 
ENDBRANCH  16  17
ENDBRANCH  15  16
ENDBRANCH  13  15
ENDBRANCH   4  13
TORSDOF 8
ENDMDL
MODEL 8
REMARK VINA RESULT:    -4.851      4.927      6.847
REMARK INTER + INTRA:          -7.594
REMARK INTER:                  -6.849
REMARK INTRA:                  -0.744
REMARK UNBOUND:                -0.616
REMARK SMILES Cc1ccncc1/C=C/Nc1ccc(CCCN)cc1
REMARK SMILES IDX 14 1 13 2 12 3 11 4 20 5 19 6 15 7 16 8 17 9 18 10 10 13
REMARK SMILES IDX 9 15 8 16 7 17 2 18 6 19 3 20 5 21 4 22 1 23
REMARK H PARENT 18 11 18 12 10 14
ROOT
ATOM      1  C   UNL     1       8.584  -7.782  11.900  1.00  0.00    -0.048 A 
ATOM      2  C   UNL     1       8.050  -7.806  10.610  1.00  0.00     0.006 A 
ATOM      3  C   UNL     1       7.291  -6.741  10.135  1.00  0.00     0.026 A 
ATOM      4  C   UNL     1       6.969  -5.651  10.949  1.00  0.00     0.038 A 
ATOM      5  C   UNL     1       7.456  -5.652  12.261  1.00  0.00     0.026 A 
ATOM      6  C   UNL     1       8.254  -6.706  12.733  1.00  0.00     0.006 A 
ENDROOT
BRANCH   1   7
ATOM      7  C   UNL     1       9.491  -8.883  12.390  1.00  0.00     0.037 C 
BRANCH   7   8
ATOM      8  C   UNL     1      10.469  -9.482  11.362  1.00  0.00     0.020 C 
BRANCH   8   9
ATOM      9  C   UNL     1      11.866  -8.846  11.310  1.00  0.00     0.078 C 
BRANCH   9  10
ATOM     10  N   UNL     1      11.987  -7.697  10.424  1.00  0.00    -0.330 NA
ATOM     11  H   UNL     1      11.129  -7.580   9.886  1.00  0.00     0.118 HD
ATOM     12  H   UNL     1      12.721  -7.860   9.735  1.00  0.00     0.118 HD
ENDBRANCH   9  10
ENDBRANCH   8   9
ENDBRANCH   7   8
ENDBRANCH   1   7
BRANCH   4  13
ATOM     13  N   UNL     1       6.104  -4.628  10.515  1.00  0.00    -0.362 N 
ATOM     14  H   UNL     1       5.143  -4.891  10.340  1.00  0.00     0.166 HD
BRANCH  13  15
ATOM     15  C   UNL     1       6.509  -3.396  10.074  1.00  0.00     0.083 C 
BRANCH  15  16
ATOM     16  C   UNL     1       5.814  -2.469   9.402  1.00  0.00     0.027 C 
BRANCH  16  17
ATOM     17  C   UNL     1       5.824  -2.428   7.931  1.00  0.00    -0.003 A 
ATOM     18  C   UNL     1       4.659  -2.203   7.176  1.00  0.00    -0.041 A 
ATOM     19  C   UNL     1       7.008  -2.652   7.213  1.00  0.00     0.119 A 
ATOM     20  C   UNL     1       4.754  -2.204   5.776  1.00  0.00     0.024 A 
ATOM     21  N   UNL     1       7.120  -2.638   5.864  1.00  0.00    -0.264 NA
ATOM     22  C   UNL     1       5.987  -2.410   5.177  1.00  0.00     0.111 A 
ATOM     23  C   UNL     1       3.313  -2.002   7.813  1.00  0.00     0.045 C 
ENDBRANCH  16  17
ENDBRANCH  15  16
ENDBRANCH  13  15
ENDBRANCH   4  13
TORSDOF 8
ENDMDL
MODEL 9
REMARK VINA RESULT:    -4.817      4.672      8.418
REMARK INTER + INTRA:          -7.545
REMARK INTER:                  -7.029
REMARK INTRA:                  -0.516
REMARK UNBOUND:                -0.616
REMARK SMILES Cc1ccncc1/C=C/Nc1ccc(CCCN)cc1
REMARK SMILES IDX 14 1 13 2 12 3 11 4 20 5 19 6 15 7 16 8 17 9 18 10 10 13
REMARK SMILES IDX 9 15 8 16 7 17 2 18 6 19 3 20 5 21 4 22 1 23
REMARK H PARENT 18 11 18 12 10 14
ROOT
ATOM      1  C   UNL     1       3.966  -1.813   7.175  1.00  0.00    -0.048 A 
ATOM      2  C   UNL     1       3.757  -2.035   8.537  1.00  0.00     0.006 A 
ATOM      3  C   UNL     1       4.775  -2.542   9.339  1.00  0.00     0.026 A 
ATOM      4  C   UNL     1       6.010  -2.918   8.804  1.00  0.00     0.038 A 
ATOM      5  C   UNL     1       6.202  -2.749   7.428  1.00  0.00     0.026 A 
ATOM      6  C   UNL     1       5.192  -2.203   6.621  1.00  0.00     0.006 A 
ENDROOT
BRANCH   1   7
ATOM      7  C   UNL     1       2.905  -1.170   6.317  1.00  0.00     0.037 C 
BRANCH   7   8
ATOM      8  C   UNL     1       2.040  -2.117   5.462  1.00  0.00     0.020 C 
BRANCH   8   9
ATOM      9  C   UNL     1       1.322  -3.242   6.220  1.00  0.00     0.078 C 
BRANCH   9  10
ATOM     10  N   UNL     1      -0.078  -2.983   6.526  1.00  0.00    -0.330 NA
ATOM     11  H   UNL     1      -0.375  -3.557   7.314  1.00  0.00     0.118 HD
ATOM     12  H   UNL     1      -0.667  -3.268   5.743  1.00  0.00     0.118 HD
ENDBRANCH   9  10
ENDBRANCH   8   9
ENDBRANCH   7   8
ENDBRANCH   1   7
BRANCH   4  13
ATOM     13  N   UNL     1       7.001  -3.541   9.586  1.00  0.00    -0.362 N 
ATOM     14  H   UNL     1       7.960  -3.421   9.284  1.00  0.00     0.166 HD
BRANCH  13  15
ATOM     15  C   UNL     1       6.760  -4.487  10.547  1.00  0.00     0.083 C 
BRANCH  15  16
ATOM     16  C   UNL     1       7.059  -5.793  10.542  1.00  0.00     0.027 C 
BRANCH  16  17
ATOM     17  C   UNL     1       7.644  -6.445  11.724  1.00  0.00    -0.003 A 
ATOM     18  C   UNL     1       8.470  -7.579  11.628  1.00  0.00    -0.041 A 
ATOM     19  C   UNL     1       7.364  -5.977  13.016  1.00  0.00     0.119 A 
ATOM     20  C   UNL     1       8.967  -8.152  12.808  1.00  0.00     0.024 A 
ATOM     21  N   UNL     1       7.848  -6.507  14.164  1.00  0.00    -0.264 NA
ATOM     22  C   UNL     1       8.643  -7.584  14.030  1.00  0.00     0.111 A 
ATOM     23  C   UNL     1       8.809  -8.218  10.311  1.00  0.00     0.045 C 
ENDBRANCH  16  17
ENDBRANCH  15  16
ENDBRANCH  13  15
ENDBRANCH   4  13
TORSDOF 8
ENDMDL
