MODEL 1
REMARK VINA RESULT:    -5.092      0.000      0.000
REMARK INTER + INTRA:          -8.115
REMARK INTER:                  -7.324
REMARK INTRA:                  -0.791
REMARK UNBOUND:                -0.791
REMARK SMILES Cc1ccncc1/C=C/Nc1ccc(CCCN)cc1
REMARK SMILES IDX 14 1 13 2 12 3 11 4 20 5 19 6 15 7 16 8 17 9 18 10 10 13
REMARK SMILES IDX 9 15 8 16 7 17 2 18 6 19 3 20 5 21 4 22 1 23
REMARK H PARENT 18 11 18 12 10 14
ROOT
ATOM      1  C   UNL     1      -2.715  13.360  -9.555  1.00  0.00    -0.048 A 
ATOM      2  C   UNL     1      -3.655  13.822  -8.631  1.00  0.00     0.006 A 
ATOM      3  C   UNL     1      -3.975  13.069  -7.506  1.00  0.00     0.026 A 
ATOM      4  C   UNL     1      -3.432  11.798  -7.297  1.00  0.00     0.038 A 
ATOM      5  C   UNL     1      -2.532  11.309  -8.251  1.00  0.00     0.026 A 
ATOM      6  C   UNL     1      -2.177  12.081  -9.368  1.00  0.00     0.006 A 
ENDROOT
BRANCH   1   7
ATOM      7  C   UNL     1      -2.286  14.211 -10.724  1.00  0.00     0.037 C 
BRANCH   7   8
ATOM      8  C   UNL     1      -2.680  13.708 -12.127  1.00  0.00     0.020 C 
BRANCH   8   9
ATOM      9  C   UNL     1      -4.098  14.064 -12.596  1.00  0.00     0.078 C 
BRANCH   9  10
ATOM     10  N   UNL     1      -5.011  12.936 -12.706  1.00  0.00    -0.330 NA
ATOM     11  H   UNL     1      -5.958  13.230 -12.471  1.00  0.00     0.118 HD
ATOM     12  H   UNL     1      -4.769  12.220 -12.021  1.00  0.00     0.118 HD
ENDBRANCH   9  10
ENDBRANCH   8   9
ENDBRANCH   7   8
ENDBRANCH   1   7
BRANCH   4  13
ATOM     13  N   UNL     1      -3.840  10.982  -6.224  1.00  0.00    -0.362 N 
ATOM     14  H   UNL     1      -3.258  10.994  -5.397  1.00  0.00     0.166 HD
BRANCH  13  15
ATOM     15  C   UNL     1      -4.792  10.001  -6.306  1.00  0.00     0.083 C 
BRANCH  15  16
ATOM     16  C   UNL     1      -4.928   8.890  -5.569  1.00  0.00     0.027 C 
BRANCH  16  17
ATOM     17  C   UNL     1      -4.415   7.595  -6.041  1.00  0.00    -0.003 A 
ATOM     18  C   UNL     1      -3.640   6.750  -5.228  1.00  0.00    -0.041 A 
ATOM     19  C   UNL     1      -4.652   7.162  -7.354  1.00  0.00     0.119 A 
ATOM     20  C   UNL     1      -3.170   5.542  -5.766  1.00  0.00     0.024 A 
ATOM     21  N   UNL     1      -4.223   5.993  -7.884  1.00  0.00    -0.264 NA
ATOM     22  C   UNL     1      -3.492   5.208  -7.072  1.00  0.00     0.111 A 
ATOM     23  C   UNL     1      -3.264   7.112  -3.819  1.00  0.00     0.045 C 
ENDBRANCH  16  17
ENDBRANCH  15  16
ENDBRANCH  13  15
ENDBRANCH   4  13
TORSDOF 8
ENDMDL
MODEL 2
REMARK VINA RESULT:    -4.957      1.480      2.288
REMARK INTER + INTRA:          -7.921
REMARK INTER:                  -7.235
REMARK INTRA:                  -0.686
REMARK UNBOUND:                -0.791
REMARK SMILES Cc1ccncc1/C=C/Nc1ccc(CCCN)cc1
REMARK SMILES IDX 14 1 13 2 12 3 11 4 20 5 19 6 15 7 16 8 17 9 18 10 10 13
REMARK SMILES IDX 9 15 8 16 7 17 2 18 6 19 3 20 5 21 4 22 1 23
REMARK H PARENT 18 11 18 12 10 14
ROOT
ATOM      1  C   UNL     1      -2.599  13.746  -9.693  1.00  0.00    -0.048 A 
ATOM      2  C   UNL     1      -3.594  14.177  -8.813  1.00  0.00     0.006 A 
ATOM      3  C   UNL     1      -3.980  13.387  -7.734  1.00  0.00     0.026 A 
ATOM      4  C   UNL     1      -3.448  12.110  -7.535  1.00  0.00     0.038 A 
ATOM      5  C   UNL     1      -2.491  11.653  -8.449  1.00  0.00     0.026 A 
ATOM      6  C   UNL     1      -2.071  12.461  -9.516  1.00  0.00     0.006 A 
ENDROOT
BRANCH   1   7
ATOM      7  C   UNL     1      -2.102  14.635 -10.805  1.00  0.00     0.037 C 
BRANCH   7   8
ATOM      8  C   UNL     1      -2.160  14.055 -12.232  1.00  0.00     0.020 C 
BRANCH   8   9
ATOM      9  C   UNL     1      -3.556  13.965 -12.865  1.00  0.00     0.078 C 
BRANCH   9  10
ATOM     10  N   UNL     1      -4.266  12.719 -12.614  1.00  0.00    -0.330 NA
ATOM     11  H   UNL     1      -3.650  11.925 -12.789  1.00  0.00     0.118 HD
ATOM     12  H   UNL     1      -5.039  12.616 -13.272  1.00  0.00     0.118 HD
ENDBRANCH   9  10
ENDBRANCH   8   9
ENDBRANCH   7   8
ENDBRANCH   1   7
BRANCH   4  13
ATOM     13  N   UNL     1      -3.919  11.259  -6.517  1.00  0.00    -0.362 N 
ATOM     14  H   UNL     1      -3.950  11.643  -5.581  1.00  0.00     0.166 HD
BRANCH  13  15
ATOM     15  C   UNL     1      -4.087   9.905  -6.644  1.00  0.00     0.083 C 
BRANCH  15  16
ATOM     16  C   UNL     1      -4.765   9.059  -5.857  1.00  0.00     0.027 C 
BRANCH  16  17
ATOM     17  C   UNL     1      -4.143   8.464  -4.665  1.00  0.00    -0.003 A 
ATOM     18  C   UNL     1      -3.667   7.141  -4.644  1.00  0.00    -0.041 A 
ATOM     19  C   UNL     1      -4.033   9.192  -3.471  1.00  0.00     0.119 A 
ATOM     20  C   UNL     1      -3.108   6.645  -3.456  1.00  0.00     0.024 A 
ATOM     21  N   UNL     1      -3.481   8.735  -2.322  1.00  0.00    -0.264 NA
ATOM     22  C   UNL     1      -3.029   7.469  -2.345  1.00  0.00     0.111 A 
ATOM     23  C   UNL     1      -3.769   6.230  -5.834  1.00  0.00     0.045 C 
ENDBRANCH  16  17
ENDBRANCH  15  16
ENDBRANCH  13  15
ENDBRANCH   4  13
TORSDOF 8
ENDMDL
MODEL 3
REMARK VINA RESULT:    -4.941      1.848      8.282
REMARK INTER + INTRA:          -7.898
REMARK INTER:                  -7.286
REMARK INTRA:                  -0.612
REMARK UNBOUND:                -0.791
REMARK SMILES Cc1ccncc1/C=C/Nc1ccc(CCCN)cc1
REMARK SMILES IDX 14 1 13 2 12 3 11 4 20 5 19 6 15 7 16 8 17 9 18 10 10 13
REMARK SMILES IDX 9 15 8 16 7 17 2 18 6 19 3 20 5 21 4 22 1 23
REMARK H PARENT 18 11 18 12 10 14
ROOT
ATOM      1  C   UNL     1      -4.112   7.049  -5.066  1.00  0.00    -0.048 A 
ATOM      2  C   UNL     1      -3.918   8.219  -4.330  1.00  0.00     0.006 A 
ATOM      3  C   UNL     1      -4.072   9.467  -4.927  1.00  0.00     0.026 A 
ATOM      4  C   UNL     1      -4.348   9.598  -6.290  1.00  0.00     0.038 A 
ATOM      5  C   UNL     1      -4.487   8.425  -7.042  1.00  0.00     0.026 A 
ATOM      6  C   UNL     1      -4.370   7.164  -6.437  1.00  0.00     0.006 A 
ENDROOT
BRANCH   1   7
ATOM      7  C   UNL     1      -4.046   5.693  -4.408  1.00  0.00     0.037 C 
BRANCH   7   8
ATOM      8  C   UNL     1      -3.667   4.503  -5.311  1.00  0.00     0.020 C 
BRANCH   8   9
ATOM      9  C   UNL     1      -3.989   3.108  -4.756  1.00  0.00     0.078 C 
BRANCH   9  10
ATOM     10  N   UNL     1      -3.504   1.998  -5.564  1.00  0.00    -0.330 NA
ATOM     11  H   UNL     1      -4.213   1.268  -5.615  1.00  0.00     0.118 HD
ATOM     12  H   UNL     1      -2.696   1.564  -5.116  1.00  0.00     0.118 HD
ENDBRANCH   9  10
ENDBRANCH   8   9
ENDBRANCH   7   8
ENDBRANCH   1   7
BRANCH   4  13
ATOM     13  N   UNL     1      -4.388  10.855  -6.924  1.00  0.00    -0.362 N 
ATOM     14  H   UNL     1      -5.254  11.103  -7.386  1.00  0.00     0.166 HD
BRANCH  13  15
ATOM     15  C   UNL     1      -3.293  11.636  -7.182  1.00  0.00     0.083 C 
BRANCH  15  16
ATOM     16  C   UNL     1      -2.631  11.811  -8.333  1.00  0.00     0.027 C 
BRANCH  16  17
ATOM     17  C   UNL     1      -2.853  13.002  -9.167  1.00  0.00    -0.003 A 
ATOM     18  C   UNL     1      -2.603  13.011 -10.551  1.00  0.00    -0.041 A 
ATOM     19  C   UNL     1      -3.294  14.206  -8.598  1.00  0.00     0.119 A 
ATOM     20  C   UNL     1      -2.819  14.198 -11.267  1.00  0.00     0.024 A 
ATOM     21  N   UNL     1      -3.524  15.355  -9.276  1.00  0.00    -0.264 NA
ATOM     22  C   UNL     1      -3.283  15.321 -10.599  1.00  0.00     0.111 A 
ATOM     23  C   UNL     1      -2.077  11.808 -11.281  1.00  0.00     0.045 C 
ENDBRANCH  16  17
ENDBRANCH  15  16
ENDBRANCH  13  15
ENDBRANCH   4  13
TORSDOF 8
ENDMDL
MODEL 4
REMARK VINA RESULT:    -4.929      2.077      8.450
REMARK INTER + INTRA:          -7.881
REMARK INTER:                  -7.318
REMARK INTRA:                  -0.563
REMARK UNBOUND:                -0.791
REMARK SMILES Cc1ccncc1/C=C/Nc1ccc(CCCN)cc1
REMARK SMILES IDX 14 1 13 2 12 3 11 4 20 5 19 6 15 7 16 8 17 9 18 10 10 13
REMARK SMILES IDX 9 15 8 16 7 17 2 18 6 19 3 20 5 21 4 22 1 23
REMARK H PARENT 18 11 18 12 10 14
ROOT
ATOM      1  C   UNL     1      -4.008   6.535  -4.943  1.00  0.00    -0.048 A 
ATOM      2  C   UNL     1      -3.837   7.709  -4.205  1.00  0.00     0.006 A 
ATOM      3  C   UNL     1      -4.070   8.952  -4.785  1.00  0.00     0.026 A 
ATOM      4  C   UNL     1      -4.403   9.080  -6.136  1.00  0.00     0.038 A 
ATOM      5  C   UNL     1      -4.519   7.907  -6.891  1.00  0.00     0.026 A 
ATOM      6  C   UNL     1      -4.324   6.648  -6.302  1.00  0.00     0.006 A 
ENDROOT
BRANCH   1   7
ATOM      7  C   UNL     1      -3.858   5.180  -4.299  1.00  0.00     0.037 C 
BRANCH   7   8
ATOM      8  C   UNL     1      -3.333   4.042  -5.196  1.00  0.00     0.020 C 
BRANCH   8   9
ATOM      9  C   UNL     1      -4.090   2.709  -5.105  1.00  0.00     0.078 C 
BRANCH   9  10
ATOM     10  N   UNL     1      -3.801   1.917  -3.918  1.00  0.00    -0.330 NA
ATOM     11  H   UNL     1      -2.999   1.312  -4.089  1.00  0.00     0.118 HD
ATOM     12  H   UNL     1      -4.579   1.288  -3.718  1.00  0.00     0.118 HD
ENDBRANCH   9  10
ENDBRANCH   8   9
ENDBRANCH   7   8
ENDBRANCH   1   7
BRANCH   4  13
ATOM     13  N   UNL     1      -4.523  10.337  -6.758  1.00  0.00    -0.362 N 
ATOM     14  H   UNL     1      -5.274  10.443  -7.429  1.00  0.00     0.166 HD
BRANCH  13  15
ATOM     15  C   UNL     1      -3.571  11.321  -6.723  1.00  0.00     0.083 C 
BRANCH  15  16
ATOM     16  C   UNL     1      -3.032  12.013  -7.735  1.00  0.00     0.027 C 
BRANCH  16  17
ATOM     17  C   UNL     1      -3.682  13.222  -8.263  1.00  0.00    -0.003 A 
ATOM     18  C   UNL     1      -3.163  13.943  -9.353  1.00  0.00    -0.041 A 
ATOM     19  C   UNL     1      -4.844  13.734  -7.666  1.00  0.00     0.119 A 
ATOM     20  C   UNL     1      -3.835  15.100  -9.778  1.00  0.00     0.024 A 
ATOM     21  N   UNL     1      -5.514  14.837  -8.073  1.00  0.00    -0.264 NA
ATOM     22  C   UNL     1      -4.992  15.493  -9.125  1.00  0.00     0.111 A 
ATOM     23  C   UNL     1      -1.897  13.540 -10.054  1.00  0.00     0.045 C 
ENDBRANCH  16  17
ENDBRANCH  15  16
ENDBRANCH  13  15
ENDBRANCH   4  13
TORSDOF 8
ENDMDL
MODEL 5
REMARK VINA RESULT:    -4.848      2.343      8.336
REMARK INTER + INTRA:          -7.764
REMARK INTER:                  -7.150
REMARK INTRA:                  -0.614
REMARK UNBOUND:                -0.791
REMARK SMILES Cc1ccncc1/C=C/Nc1ccc(CCCN)cc1
REMARK SMILES IDX 14 1 13 2 12 3 11 4 20 5 19 6 15 7 16 8 17 9 18 10 10 13
REMARK SMILES IDX 9 15 8 16 7 17 2 18 6 19 3 20 5 21 4 22 1 23
REMARK H PARENT 18 11 18 12 10 14
ROOT
ATOM      1  C   UNL     1      -3.528   6.716  -3.954  1.00  0.00    -0.048 A 
ATOM      2  C   UNL     1      -3.638   8.027  -3.486  1.00  0.00     0.006 A 
ATOM      3  C   UNL     1      -4.107   9.041  -4.317  1.00  0.00     0.026 A 
ATOM      4  C   UNL     1      -4.409   8.806  -5.660  1.00  0.00     0.038 A 
ATOM      5  C   UNL     1      -4.245   7.503  -6.146  1.00  0.00     0.026 A 
ATOM      6  C   UNL     1      -3.809   6.469  -5.303  1.00  0.00     0.006 A 
ENDROOT
BRANCH   1   7
ATOM      7  C   UNL     1      -3.117   5.592  -3.037  1.00  0.00     0.037 C 
BRANCH   7   8
ATOM      8  C   UNL     1      -1.696   5.028  -3.227  1.00  0.00     0.020 C 
BRANCH   8   9
ATOM      9  C   UNL     1      -0.542   5.975  -2.866  1.00  0.00     0.078 C 
BRANCH   9  10
ATOM     10  N   UNL     1      -0.213   6.033  -1.449  1.00  0.00    -0.330 NA
ATOM     11  H   UNL     1      -0.141   7.004  -1.147  1.00  0.00     0.118 HD
ATOM     12  H   UNL     1       0.708   5.626  -1.285  1.00  0.00     0.118 HD
ENDBRANCH   9  10
ENDBRANCH   8   9
ENDBRANCH   7   8
ENDBRANCH   1   7
BRANCH   4  13
ATOM     13  N   UNL     1      -4.770   9.848  -6.536  1.00  0.00    -0.362 N 
ATOM     14  H   UNL     1      -5.733   9.866  -6.848  1.00  0.00     0.166 HD
BRANCH  13  15
ATOM     15  C   UNL     1      -3.884  10.665  -7.187  1.00  0.00     0.083 C 
BRANCH  15  16
ATOM     16  C   UNL     1      -3.650  11.972  -7.008  1.00  0.00     0.027 C 
BRANCH  16  17
ATOM     17  C   UNL     1      -3.323  12.849  -8.143  1.00  0.00    -0.003 A 
ATOM     18  C   UNL     1      -4.116  13.956  -8.493  1.00  0.00    -0.041 A 
ATOM     19  C   UNL     1      -2.210  12.589  -8.956  1.00  0.00     0.119 A 
ATOM     20  C   UNL     1      -3.744  14.727  -9.605  1.00  0.00     0.024 A 
ATOM     21  N   UNL     1      -1.827  13.331 -10.021  1.00  0.00    -0.264 NA
ATOM     22  C   UNL     1      -2.605  14.388 -10.318  1.00  0.00     0.111 A 
ATOM     23  C   UNL     1      -5.366  14.320  -7.742  1.00  0.00     0.045 C 
ENDBRANCH  16  17
ENDBRANCH  15  16
ENDBRANCH  13  15
ENDBRANCH   4  13
TORSDOF 8
ENDMDL
MODEL 6
REMARK VINA RESULT:    -4.809      2.408      8.463
REMARK INTER + INTRA:          -7.708
REMARK INTER:                  -7.115
REMARK INTRA:                  -0.593
REMARK UNBOUND:                -0.791
REMARK SMILES Cc1ccncc1/C=C/Nc1ccc(CCCN)cc1
REMARK SMILES IDX 14 1 13 2 12 3 11 4 20 5 19 6 15 7 16 8 17 9 18 10 10 13
REMARK SMILES IDX 9 15 8 16 7 17 2 18 6 19 3 20 5 21 4 22 1 23
REMARK H PARENT 18 11 18 12 10 14
ROOT
ATOM      1  C   UNL     1      -3.598   6.909  -3.894  1.00  0.00    -0.048 A 
ATOM      2  C   UNL     1      -3.897   6.719  -5.244  1.00  0.00     0.006 A 
ATOM      3  C   UNL     1      -4.214   7.801  -6.060  1.00  0.00     0.026 A 
ATOM      4  C   UNL     1      -4.321   9.097  -5.550  1.00  0.00     0.038 A 
ATOM      5  C   UNL     1      -4.077   9.281  -4.183  1.00  0.00     0.026 A 
ATOM      6  C   UNL     1      -3.719   8.200  -3.364  1.00  0.00     0.006 A 
ENDROOT
BRANCH   1   7
ATOM      7  C   UNL     1      -3.154   5.760  -3.024  1.00  0.00     0.037 C 
BRANCH   7   8
ATOM      8  C   UNL     1      -1.722   5.238  -3.244  1.00  0.00     0.020 C 
BRANCH   8   9
ATOM      9  C   UNL     1      -0.588   6.187  -2.830  1.00  0.00     0.078 C 
BRANCH   9  10
ATOM     10  N   UNL     1      -0.147   6.054  -1.449  1.00  0.00    -0.330 NA
ATOM     11  H   UNL     1       0.687   5.469  -1.404  1.00  0.00     0.118 HD
ATOM     12  H   UNL     1      -0.854   5.564  -0.900  1.00  0.00     0.118 HD
ENDBRANCH   9  10
ENDBRANCH   8   9
ENDBRANCH   7   8
ENDBRANCH   1   7
BRANCH   4  13
ATOM     13  N   UNL     1      -4.757  10.176  -6.342  1.00  0.00    -0.362 N 
ATOM     14  H   UNL     1      -5.757  10.332  -6.388  1.00  0.00     0.166 HD
BRANCH  13  15
ATOM     15  C   UNL     1      -3.976  10.853  -7.240  1.00  0.00     0.083 C 
BRANCH  15  16
ATOM     16  C   UNL     1      -3.423  12.069  -7.133  1.00  0.00     0.027 C 
BRANCH  16  17
ATOM     17  C   UNL     1      -3.947  13.214  -7.894  1.00  0.00    -0.003 A 
ATOM     18  C   UNL     1      -3.290  13.733  -9.023  1.00  0.00    -0.041 A 
ATOM     19  C   UNL     1      -5.123  13.867  -7.493  1.00  0.00     0.119 A 
ATOM     20  C   UNL     1      -3.847  14.843  -9.676  1.00  0.00     0.024 A 
ATOM     21  N   UNL     1      -5.683  14.927  -8.121  1.00  0.00    -0.264 NA
ATOM     22  C   UNL     1      -5.030  15.388  -9.203  1.00  0.00     0.111 A 
ATOM     23  C   UNL     1      -1.995  13.166  -9.532  1.00  0.00     0.045 C 
ENDBRANCH  16  17
ENDBRANCH  15  16
ENDBRANCH  13  15
ENDBRANCH   4  13
TORSDOF 8
ENDMDL
MODEL 7
REMARK VINA RESULT:    -4.711      1.697      2.167
REMARK INTER + INTRA:          -7.568
REMARK INTER:                  -6.921
REMARK INTRA:                  -0.647
REMARK UNBOUND:                -0.791
REMARK SMILES Cc1ccncc1/C=C/Nc1ccc(CCCN)cc1
REMARK SMILES IDX 14 1 13 2 12 3 11 4 20 5 19 6 15 7 16 8 17 9 18 10 10 13
REMARK SMILES IDX 9 15 8 16 7 17 2 18 6 19 3 20 5 21 4 22 1 23
REMARK H PARENT 18 11 18 12 10 14
ROOT
ATOM      1  C   UNL     1      -2.871  13.864  -9.442  1.00  0.00    -0.048 A 
ATOM      2  C   UNL     1      -2.157  12.665  -9.404  1.00  0.00     0.006 A 
ATOM      3  C   UNL     1      -2.456  11.690  -8.457  1.00  0.00     0.026 A 
ATOM      4  C   UNL     1      -3.419  11.902  -7.467  1.00  0.00     0.038 A 
ATOM      5  C   UNL     1      -4.095  13.127  -7.468  1.00  0.00     0.026 A 
ATOM      6  C   UNL     1      -3.825  14.099  -8.444  1.00  0.00     0.006 A 
ENDROOT
BRANCH   1   7
ATOM      7  C   UNL     1      -2.625  14.885 -10.525  1.00  0.00     0.037 C 
BRANCH   7   8
ATOM      8  C   UNL     1      -1.323  14.734 -11.336  1.00  0.00     0.020 C 
BRANCH   8   9
ATOM      9  C   UNL     1      -0.361  15.929 -11.293  1.00  0.00     0.078 C 
BRANCH   9  10
ATOM     10  N   UNL     1       0.702  15.828 -10.303  1.00  0.00    -0.330 NA
ATOM     11  H   UNL     1       0.741  16.680  -9.744  1.00  0.00     0.118 HD
ATOM     12  H   UNL     1       1.609  15.765 -10.766  1.00  0.00     0.118 HD
ENDBRANCH   9  10
ENDBRANCH   8   9
ENDBRANCH   7   8
ENDBRANCH   1   7
BRANCH   4  13
ATOM     13  N   UNL     1      -3.643  10.971  -6.435  1.00  0.00    -0.362 N 
ATOM     14  H   UNL     1      -2.916  10.884  -5.735  1.00  0.00     0.166 HD
BRANCH  13  15
ATOM     15  C   UNL     1      -4.621  10.012  -6.444  1.00  0.00     0.083 C 
BRANCH  15  16
ATOM     16  C   UNL     1      -4.775   8.952  -5.640  1.00  0.00     0.027 C 
BRANCH  16  17
ATOM     17  C   UNL     1      -4.324   7.613  -6.049  1.00  0.00    -0.003 A 
ATOM     18  C   UNL     1      -3.622   6.756  -5.183  1.00  0.00    -0.041 A 
ATOM     19  C   UNL     1      -4.547   7.146  -7.353  1.00  0.00     0.119 A 
ATOM     20  C   UNL     1      -3.208   5.505  -5.663  1.00  0.00     0.024 A 
ATOM     21  N   UNL     1      -4.171   5.935  -7.827  1.00  0.00    -0.264 NA
ATOM     22  C   UNL     1      -3.511   5.141  -6.965  1.00  0.00     0.111 A 
ATOM     23  C   UNL     1      -3.267   7.149  -3.776  1.00  0.00     0.045 C 
ENDBRANCH  16  17
ENDBRANCH  15  16
ENDBRANCH  13  15
ENDBRANCH   4  13
TORSDOF 8
ENDMDL
MODEL 8
REMARK VINA RESULT:    -4.578      2.357      4.432
REMARK INTER + INTRA:          -7.376
REMARK INTER:                  -6.568
REMARK INTRA:                  -0.809
REMARK UNBOUND:                -0.791
REMARK SMILES Cc1ccncc1/C=C/Nc1ccc(CCCN)cc1
REMARK SMILES IDX 14 1 13 2 12 3 11 4 20 5 19 6 15 7 16 8 17 9 18 10 10 13
REMARK SMILES IDX 9 15 8 16 7 17 2 18 6 19 3 20 5 21 4 22 1 23
REMARK H PARENT 18 11 18 12 10 14
ROOT
ATOM      1  C   UNL     1      -4.113  10.591  -6.718  1.00  0.00    -0.048 A 
ATOM      2  C   UNL     1      -3.157   9.662  -6.301  1.00  0.00     0.006 A 
ATOM      3  C   UNL     1      -3.540   8.401  -5.855  1.00  0.00     0.026 A 
ATOM      4  C   UNL     1      -4.885   8.044  -5.733  1.00  0.00     0.038 A 
ATOM      5  C   UNL     1      -5.846   8.995  -6.096  1.00  0.00     0.026 A 
ATOM      6  C   UNL     1      -5.465  10.255  -6.583  1.00  0.00     0.006 A 
ENDROOT
BRANCH   1   7
ATOM      7  C   UNL     1      -3.706  11.923  -7.298  1.00  0.00     0.037 C 
BRANCH   7   8
ATOM      8  C   UNL     1      -2.562  11.907  -8.331  1.00  0.00     0.020 C 
BRANCH   8   9
ATOM      9  C   UNL     1      -2.460  13.140  -9.241  1.00  0.00     0.078 C 
BRANCH   9  10
ATOM     10  N   UNL     1      -3.293  13.094 -10.434  1.00  0.00    -0.330 NA
ATOM     11  H   UNL     1      -2.940  12.388 -11.079  1.00  0.00     0.118 HD
ATOM     12  H   UNL     1      -3.233  13.979 -10.939  1.00  0.00     0.118 HD
ENDBRANCH   9  10
ENDBRANCH   8   9
ENDBRANCH   7   8
ENDBRANCH   1   7
BRANCH   4  13
ATOM     13  N   UNL     1      -5.282   6.816  -5.171  1.00  0.00    -0.362 N 
ATOM     14  H   UNL     1      -6.202   6.785  -4.749  1.00  0.00     0.166 HD
BRANCH  13  15
ATOM     15  C   UNL     1      -4.443   5.761  -4.924  1.00  0.00     0.083 C 
BRANCH  15  16
ATOM     16  C   UNL     1      -4.037   5.260  -3.750  1.00  0.00     0.027 C 
BRANCH  16  17
ATOM     17  C   UNL     1      -2.643   5.403  -3.302  1.00  0.00    -0.003 A 
ATOM     18  C   UNL     1      -2.175   6.559  -2.652  1.00  0.00    -0.041 A 
ATOM     19  C   UNL     1      -1.703   4.391  -3.543  1.00  0.00     0.119 A 
ATOM     20  C   UNL     1      -0.823   6.621  -2.279  1.00  0.00     0.024 A 
ATOM     21  N   UNL     1      -0.401   4.427  -3.175  1.00  0.00    -0.264 NA
ATOM     22  C   UNL     1       0.007   5.545  -2.547  1.00  0.00     0.111 A 
ATOM     23  C   UNL     1      -3.059   7.742  -2.377  1.00  0.00     0.045 C 
ENDBRANCH  16  17
ENDBRANCH  15  16
ENDBRANCH  13  15
ENDBRANCH   4  13
TORSDOF 8
ENDMDL
MODEL 9
REMARK VINA RESULT:    -4.384      2.093      2.735
REMARK INTER + INTRA:          -7.097
REMARK INTER:                  -6.549
REMARK INTRA:                  -0.548
REMARK UNBOUND:                -0.791
REMARK SMILES Cc1ccncc1/C=C/Nc1ccc(CCCN)cc1
REMARK SMILES IDX 14 1 13 2 12 3 11 4 20 5 19 6 15 7 16 8 17 9 18 10 10 13
REMARK SMILES IDX 9 15 8 16 7 17 2 18 6 19 3 20 5 21 4 22 1 23
REMARK H PARENT 18 11 18 12 10 14
ROOT
ATOM      1  C   UNL     1      -3.083  13.222  -8.744  1.00  0.00    -0.048 A 
ATOM      2  C   UNL     1      -4.151  13.201  -7.845  1.00  0.00     0.006 A 
ATOM      3  C   UNL     1      -4.298  12.152  -6.941  1.00  0.00     0.026 A 
ATOM      4  C   UNL     1      -3.438  11.051  -6.950  1.00  0.00     0.038 A 
ATOM      5  C   UNL     1      -2.399  11.044  -7.890  1.00  0.00     0.026 A 
ATOM      6  C   UNL     1      -2.223  12.117  -8.777  1.00  0.00     0.006 A 
ENDROOT
BRANCH   1   7
ATOM      7  C   UNL     1      -2.855  14.400  -9.658  1.00  0.00     0.037 C 
BRANCH   7   8
ATOM      8  C   UNL     1      -1.762  14.241 -10.732  1.00  0.00     0.020 C 
BRANCH   8   9
ATOM      9  C   UNL     1      -1.010  15.522 -11.123  1.00  0.00     0.078 C 
BRANCH   9  10
ATOM     10  N   UNL     1       0.261  15.720 -10.442  1.00  0.00    -0.330 NA
ATOM     11  H   UNL     1       1.014  15.800 -11.125  1.00  0.00     0.118 HD
ATOM     12  H   UNL     1       0.490  14.902  -9.878  1.00  0.00     0.118 HD
ENDBRANCH   9  10
ENDBRANCH   8   9
ENDBRANCH   7   8
ENDBRANCH   1   7
BRANCH   4  13
ATOM     13  N   UNL     1      -3.650   9.933  -6.121  1.00  0.00    -0.362 N 
ATOM     14  H   UNL     1      -3.016   9.820  -5.341  1.00  0.00     0.166 HD
BRANCH  13  15
ATOM     15  C   UNL     1      -4.462   8.874  -6.430  1.00  0.00     0.083 C 
BRANCH  15  16
ATOM     16  C   UNL     1      -4.706   7.762  -5.724  1.00  0.00     0.027 C 
BRANCH  16  17
ATOM     17  C   UNL     1      -3.659   7.137  -4.901  1.00  0.00    -0.003 A 
ATOM     18  C   UNL     1      -2.972   5.979  -5.307  1.00  0.00    -0.041 A 
ATOM     19  C   UNL     1      -3.327   7.658  -3.642  1.00  0.00     0.119 A 
ATOM     20  C   UNL     1      -2.004   5.435  -4.450  1.00  0.00     0.024 A 
ATOM     21  N   UNL     1      -2.384   7.156  -2.810  1.00  0.00    -0.264 NA
ATOM     22  C   UNL     1      -1.742   6.054  -3.238  1.00  0.00     0.111 A 
ATOM     23  C   UNL     1      -3.264   5.284  -6.607  1.00  0.00     0.045 C 
ENDBRANCH  16  17
ENDBRANCH  15  16
ENDBRANCH  13  15
ENDBRANCH   4  13
TORSDOF 8
ENDMDL
