MODEL 1
REMARK VINA RESULT:    -5.175      0.000      0.000
REMARK INTER + INTRA:          -8.176
REMARK INTER:                  -7.443
REMARK INTRA:                  -0.733
REMARK UNBOUND:                -0.733
REMARK SMILES Cc1ccncc1/C=C/Nc1ccc(CCCN)cc1
REMARK SMILES IDX 14 1 13 2 12 3 11 4 20 5 19 6 15 7 16 8 17 9 18 10 10 13
REMARK SMILES IDX 9 15 8 16 7 17 2 18 6 19 3 20 5 21 4 22 1 23
REMARK H PARENT 18 11 18 12 10 14
ROOT
ATOM      1  C   UNL     1       2.602   5.251 -13.849  1.00  0.00    -0.048 A 
ATOM      2  C   UNL     1       1.424   4.789 -14.440  1.00  0.00     0.006 A 
ATOM      3  C   UNL     1       0.485   4.081 -13.695  1.00  0.00     0.026 A 
ATOM      4  C   UNL     1       0.716   3.740 -12.360  1.00  0.00     0.038 A 
ATOM      5  C   UNL     1       1.922   4.153 -11.782  1.00  0.00     0.026 A 
ATOM      6  C   UNL     1       2.855   4.900 -12.517  1.00  0.00     0.006 A 
ENDROOT
BRANCH   1   7
ATOM      7  C   UNL     1       3.579   6.104 -14.618  1.00  0.00     0.037 C 
BRANCH   7   8
ATOM      8  C   UNL     1       4.919   5.447 -15.002  1.00  0.00     0.020 C 
BRANCH   8   9
ATOM      9  C   UNL     1       4.894   4.543 -16.243  1.00  0.00     0.078 C 
BRANCH   9  10
ATOM     10  N   UNL     1       5.142   3.132 -15.981  1.00  0.00    -0.330 NA
ATOM     11  H   UNL     1       4.419   2.760 -15.366  1.00  0.00     0.118 HD
ATOM     12  H   UNL     1       6.019   3.017 -15.473  1.00  0.00     0.118 HD
ENDBRANCH   9  10
ENDBRANCH   8   9
ENDBRANCH   7   8
ENDBRANCH   1   7
BRANCH   4  13
ATOM     13  N   UNL     1      -0.174   2.923 -11.636  1.00  0.00    -0.362 N 
ATOM     14  H   UNL     1      -0.852   3.397 -11.052  1.00  0.00     0.166 HD
BRANCH  13  15
ATOM     15  C   UNL     1      -0.030   1.572 -11.461  1.00  0.00     0.083 C 
BRANCH  15  16
ATOM     16  C   UNL     1      -0.599   0.772 -10.550  1.00  0.00     0.027 C 
BRANCH  16  17
ATOM     17  C   UNL     1       0.164   0.267  -9.398  1.00  0.00    -0.003 A 
ATOM     18  C   UNL     1      -0.324   0.337  -8.081  1.00  0.00    -0.041 A 
ATOM     19  C   UNL     1       1.445  -0.279  -9.567  1.00  0.00     0.119 A 
ATOM     20  C   UNL     1       0.479  -0.148  -7.038  1.00  0.00     0.024 A 
ATOM     21  N   UNL     1       2.226  -0.767  -8.575  1.00  0.00    -0.264 NA
ATOM     22  C   UNL     1       1.720  -0.692  -7.331  1.00  0.00     0.111 A 
ATOM     23  C   UNL     1      -1.657   0.946  -7.748  1.00  0.00     0.045 C 
ENDBRANCH  16  17
ENDBRANCH  15  16
ENDBRANCH  13  15
ENDBRANCH   4  13
TORSDOF 8
ENDMDL
MODEL 2
REMARK VINA RESULT:    -5.149      4.792      6.919
REMARK INTER + INTRA:          -8.140
REMARK INTER:                  -7.453
REMARK INTRA:                  -0.687
REMARK UNBOUND:                -0.733
REMARK SMILES Cc1ccncc1/C=C/Nc1ccc(CCCN)cc1
REMARK SMILES IDX 14 1 13 2 12 3 11 4 20 5 19 6 15 7 16 8 17 9 18 10 10 13
REMARK SMILES IDX 9 15 8 16 7 17 2 18 6 19 3 20 5 21 4 22 1 23
REMARK H PARENT 18 11 18 12 10 14
ROOT
ATOM      1  C   UNL     1      -2.487  -2.350 -15.173  1.00  0.00    -0.048 A 
ATOM      2  C   UNL     1      -1.239  -1.813 -15.495  1.00  0.00     0.006 A 
ATOM      3  C   UNL     1      -0.352  -1.427 -14.494  1.00  0.00     0.026 A 
ATOM      4  C   UNL     1      -0.702  -1.488 -13.143  1.00  0.00     0.038 A 
ATOM      5  C   UNL     1      -1.975  -1.973 -12.821  1.00  0.00     0.026 A 
ATOM      6  C   UNL     1      -2.858  -2.399 -13.824  1.00  0.00     0.006 A 
ENDROOT
BRANCH   1   7
ATOM      7  C   UNL     1      -3.415  -2.865 -16.245  1.00  0.00     0.037 C 
BRANCH   7   8
ATOM      8  C   UNL     1      -4.772  -2.149 -16.388  1.00  0.00     0.020 C 
BRANCH   8   9
ATOM      9  C   UNL     1      -4.890  -1.157 -17.555  1.00  0.00     0.078 C 
BRANCH   9  10
ATOM     10  N   UNL     1      -4.670   0.238 -17.202  1.00  0.00    -0.330 NA
ATOM     11  H   UNL     1      -3.866   0.317 -16.580  1.00  0.00     0.118 HD
ATOM     12  H   UNL     1      -5.463   0.596 -16.671  1.00  0.00     0.118 HD
ENDBRANCH   9  10
ENDBRANCH   8   9
ENDBRANCH   7   8
ENDBRANCH   1   7
BRANCH   4  13
ATOM     13  N   UNL     1       0.142  -0.989 -12.133  1.00  0.00    -0.362 N 
ATOM     14  H   UNL     1       0.932  -1.567 -11.873  1.00  0.00     0.166 HD
BRANCH  13  15
ATOM     15  C   UNL     1      -0.158   0.067 -11.313  1.00  0.00     0.083 C 
BRANCH  15  16
ATOM     16  C   UNL     1       0.337   0.366 -10.104  1.00  0.00     0.027 C 
BRANCH  16  17
ATOM     17  C   UNL     1      -0.551   0.627  -8.961  1.00  0.00    -0.003 A 
ATOM     18  C   UNL     1      -0.205   0.278  -7.643  1.00  0.00    -0.041 A 
ATOM     19  C   UNL     1      -1.814   1.208  -9.149  1.00  0.00     0.119 A 
ATOM     20  C   UNL     1      -1.122   0.541  -6.614  1.00  0.00     0.024 A 
ATOM     21  N   UNL     1      -2.703   1.484  -8.166  1.00  0.00    -0.264 NA
ATOM     22  C   UNL     1      -2.332   1.146  -6.918  1.00  0.00     0.111 A 
ATOM     23  C   UNL     1       1.093  -0.399  -7.304  1.00  0.00     0.045 C 
ENDBRANCH  16  17
ENDBRANCH  15  16
ENDBRANCH  13  15
ENDBRANCH   4  13
TORSDOF 8
ENDMDL
MODEL 3
REMARK VINA RESULT:    -4.966      1.369      2.066
REMARK INTER + INTRA:          -7.877
REMARK INTER:                  -7.264
REMARK INTRA:                  -0.613
REMARK UNBOUND:                -0.733
REMARK SMILES Cc1ccncc1/C=C/Nc1ccc(CCCN)cc1
REMARK SMILES IDX 14 1 13 2 12 3 11 4 20 5 19 6 15 7 16 8 17 9 18 10 10 13
REMARK SMILES IDX 9 15 8 16 7 17 2 18 6 19 3 20 5 21 4 22 1 23
REMARK H PARENT 18 11 18 12 10 14
ROOT
ATOM      1  C   UNL     1       2.513   5.233 -13.813  1.00  0.00    -0.048 A 
ATOM      2  C   UNL     1       1.331   4.745 -14.373  1.00  0.00     0.006 A 
ATOM      3  C   UNL     1       0.421   4.029 -13.599  1.00  0.00     0.026 A 
ATOM      4  C   UNL     1       0.688   3.706 -12.267  1.00  0.00     0.038 A 
ATOM      5  C   UNL     1       1.900   4.146 -11.720  1.00  0.00     0.026 A 
ATOM      6  C   UNL     1       2.803   4.901 -12.484  1.00  0.00     0.006 A 
ENDROOT
BRANCH   1   7
ATOM      7  C   UNL     1       3.458   6.094 -14.613  1.00  0.00     0.037 C 
BRANCH   7   8
ATOM      8  C   UNL     1       4.111   5.443 -15.848  1.00  0.00     0.020 C 
BRANCH   8   9
ATOM      9  C   UNL     1       5.280   4.488 -15.567  1.00  0.00     0.078 C 
BRANCH   9  10
ATOM     10  N   UNL     1       5.108   3.137 -16.082  1.00  0.00    -0.330 NA
ATOM     11  H   UNL     1       6.011   2.752 -16.359  1.00  0.00     0.118 HD
ATOM     12  H   UNL     1       4.546   3.154 -16.933  1.00  0.00     0.118 HD
ENDBRANCH   9  10
ENDBRANCH   8   9
ENDBRANCH   7   8
ENDBRANCH   1   7
BRANCH   4  13
ATOM     13  N   UNL     1      -0.171   2.883 -11.514  1.00  0.00    -0.362 N 
ATOM     14  H   UNL     1      -0.790   3.348 -10.861  1.00  0.00     0.166 HD
BRANCH  13  15
ATOM     15  C   UNL     1      -0.056   1.522 -11.408  1.00  0.00     0.083 C 
BRANCH  15  16
ATOM     16  C   UNL     1       0.127   0.771 -10.314  1.00  0.00     0.027 C 
BRANCH  16  17
ATOM     17  C   UNL     1      -0.773   0.880  -9.156  1.00  0.00    -0.003 A 
ATOM     18  C   UNL     1      -0.414   0.421  -7.876  1.00  0.00    -0.041 A 
ATOM     19  C   UNL     1      -2.060   1.421  -9.293  1.00  0.00     0.119 A 
ATOM     20  C   UNL     1      -1.342   0.543  -6.831  1.00  0.00     0.024 A 
ATOM     21  N   UNL     1      -2.961   1.562  -8.293  1.00  0.00    -0.264 NA
ATOM     22  C   UNL     1      -2.577   1.120  -7.082  1.00  0.00     0.111 A 
ATOM     23  C   UNL     1       0.913  -0.228  -7.597  1.00  0.00     0.045 C 
ENDBRANCH  16  17
ENDBRANCH  15  16
ENDBRANCH  13  15
ENDBRANCH   4  13
TORSDOF 8
ENDMDL
MODEL 4
REMARK VINA RESULT:    -4.843      4.791      6.584
REMARK INTER + INTRA:          -7.699
REMARK INTER:                  -7.104
REMARK INTRA:                  -0.595
REMARK UNBOUND:                -0.733
REMARK SMILES Cc1ccncc1/C=C/Nc1ccc(CCCN)cc1
REMARK SMILES IDX 14 1 13 2 12 3 11 4 20 5 19 6 15 7 16 8 17 9 18 10 10 13
REMARK SMILES IDX 9 15 8 16 7 17 2 18 6 19 3 20 5 21 4 22 1 23
REMARK H PARENT 18 11 18 12 10 14
ROOT
ATOM      1  C   UNL     1      -2.091  -2.255 -14.968  1.00  0.00    -0.048 A 
ATOM      2  C   UNL     1      -0.877  -1.584 -15.128  1.00  0.00     0.006 A 
ATOM      3  C   UNL     1      -0.184  -1.097 -14.023  1.00  0.00     0.026 A 
ATOM      4  C   UNL     1      -0.707  -1.190 -12.732  1.00  0.00     0.038 A 
ATOM      5  C   UNL     1      -1.952  -1.812 -12.576  1.00  0.00     0.026 A 
ATOM      6  C   UNL     1      -2.637  -2.339 -13.682  1.00  0.00     0.006 A 
ENDROOT
BRANCH   1   7
ATOM      7  C   UNL     1      -2.801  -2.876 -16.146  1.00  0.00     0.037 C 
BRANCH   7   8
ATOM      8  C   UNL     1      -4.322  -2.648 -16.235  1.00  0.00     0.020 C 
BRANCH   8   9
ATOM      9  C   UNL     1      -4.787  -1.604 -17.261  1.00  0.00     0.078 C 
BRANCH   9  10
ATOM     10  N   UNL     1      -4.860  -0.239 -16.761  1.00  0.00    -0.330 NA
ATOM     11  H   UNL     1      -5.823   0.095 -16.796  1.00  0.00     0.118 HD
ATOM     12  H   UNL     1      -4.332   0.387 -17.368  1.00  0.00     0.118 HD
ENDBRANCH   9  10
ENDBRANCH   8   9
ENDBRANCH   7   8
ENDBRANCH   1   7
BRANCH   4  13
ATOM     13  N   UNL     1      -0.070  -0.595 -11.626  1.00  0.00    -0.362 N 
ATOM     14  H   UNL     1       0.829  -0.978 -11.360  1.00  0.00     0.166 HD
BRANCH  13  15
ATOM     15  C   UNL     1      -0.672   0.264 -10.745  1.00  0.00     0.083 C 
BRANCH  15  16
ATOM     16  C   UNL     1      -0.155   0.869  -9.667  1.00  0.00     0.027 C 
BRANCH  16  17
ATOM     17  C   UNL     1      -0.036   0.164  -8.381  1.00  0.00    -0.003 A 
ATOM     18  C   UNL     1      -1.044   0.208  -7.401  1.00  0.00    -0.041 A 
ATOM     19  C   UNL     1       1.122  -0.561  -8.062  1.00  0.00     0.119 A 
ATOM     20  C   UNL     1      -0.838  -0.474  -6.193  1.00  0.00     0.024 A 
ATOM     21  N   UNL     1       1.329  -1.238  -6.909  1.00  0.00    -0.264 NA
ATOM     22  C   UNL     1       0.338  -1.180  -6.001  1.00  0.00     0.111 A 
ATOM     23  C   UNL     1      -2.314   0.990  -7.588  1.00  0.00     0.045 C 
ENDBRANCH  16  17
ENDBRANCH  15  16
ENDBRANCH  13  15
ENDBRANCH   4  13
TORSDOF 8
ENDMDL
MODEL 5
REMARK VINA RESULT:    -4.819      2.008      8.526
REMARK INTER + INTRA:          -7.664
REMARK INTER:                  -7.130
REMARK INTRA:                  -0.534
REMARK UNBOUND:                -0.733
REMARK SMILES Cc1ccncc1/C=C/Nc1ccc(CCCN)cc1
REMARK SMILES IDX 14 1 13 2 12 3 11 4 20 5 19 6 15 7 16 8 17 9 18 10 10 13
REMARK SMILES IDX 9 15 8 16 7 17 2 18 6 19 3 20 5 21 4 22 1 23
REMARK H PARENT 18 11 18 12 10 14
ROOT
ATOM      1  C   UNL     1      -0.505  -0.158  -8.252  1.00  0.00    -0.048 A 
ATOM      2  C   UNL     1      -1.413   0.808  -8.690  1.00  0.00     0.006 A 
ATOM      3  C   UNL     1      -1.215   1.475  -9.895  1.00  0.00     0.026 A 
ATOM      4  C   UNL     1      -0.071   1.264 -10.669  1.00  0.00     0.038 A 
ATOM      5  C   UNL     1       0.869   0.338 -10.203  1.00  0.00     0.026 A 
ATOM      6  C   UNL     1       0.656  -0.366  -9.007  1.00  0.00     0.006 A 
ENDROOT
BRANCH   1   7
ATOM      7  C   UNL     1      -0.760  -0.959  -6.999  1.00  0.00     0.037 C 
BRANCH   7   8
ATOM      8  C   UNL     1       0.469  -1.299  -6.134  1.00  0.00     0.020 C 
BRANCH   8   9
ATOM      9  C   UNL     1       0.501  -2.714  -5.537  1.00  0.00     0.078 C 
BRANCH   9  10
ATOM     10  N   UNL     1      -0.412  -2.933  -4.423  1.00  0.00    -0.330 NA
ATOM     11  H   UNL     1      -0.883  -2.062  -4.182  1.00  0.00     0.118 HD
ATOM     12  H   UNL     1       0.110  -3.201  -3.589  1.00  0.00     0.118 HD
ENDBRANCH   9  10
ENDBRANCH   8   9
ENDBRANCH   7   8
ENDBRANCH   1   7
BRANCH   4  13
ATOM     13  N   UNL     1       0.194   2.020 -11.827  1.00  0.00    -0.362 N 
ATOM     14  H   UNL     1       0.545   1.514 -12.630  1.00  0.00     0.166 HD
BRANCH  13  15
ATOM     15  C   UNL     1       0.260   3.388 -11.870  1.00  0.00     0.083 C 
BRANCH  15  16
ATOM     16  C   UNL     1       1.213   4.173 -12.390  1.00  0.00     0.027 C 
BRANCH  16  17
ATOM     17  C   UNL     1       1.282   4.431 -13.836  1.00  0.00    -0.003 A 
ATOM     18  C   UNL     1       2.269   5.253 -14.409  1.00  0.00    -0.041 A 
ATOM     19  C   UNL     1       0.328   3.890 -14.711  1.00  0.00     0.119 A 
ATOM     20  C   UNL     1       2.247   5.466 -15.796  1.00  0.00     0.024 A 
ATOM     21  N   UNL     1       0.303   4.070 -16.052  1.00  0.00    -0.264 NA
ATOM     22  C   UNL     1       1.268   4.855 -16.563  1.00  0.00     0.111 A 
ATOM     23  C   UNL     1       3.321   5.941 -13.585  1.00  0.00     0.045 C 
ENDBRANCH  16  17
ENDBRANCH  15  16
ENDBRANCH  13  15
ENDBRANCH   4  13
TORSDOF 8
ENDMDL
MODEL 6
REMARK VINA RESULT:    -4.739      4.691      8.388
REMARK INTER + INTRA:          -7.549
REMARK INTER:                  -7.020
REMARK INTRA:                  -0.528
REMARK UNBOUND:                -0.733
REMARK SMILES Cc1ccncc1/C=C/Nc1ccc(CCCN)cc1
REMARK SMILES IDX 14 1 13 2 12 3 11 4 20 5 19 6 15 7 16 8 17 9 18 10 10 13
REMARK SMILES IDX 9 15 8 16 7 17 2 18 6 19 3 20 5 21 4 22 1 23
REMARK H PARENT 18 11 18 12 10 14
ROOT
ATOM      1  C   UNL     1      -0.120   0.764  -7.963  1.00  0.00    -0.048 A 
ATOM      2  C   UNL     1       0.878   0.053  -8.633  1.00  0.00     0.006 A 
ATOM      3  C   UNL     1       0.797  -0.159 -10.007  1.00  0.00     0.026 A 
ATOM      4  C   UNL     1      -0.311   0.258 -10.748  1.00  0.00     0.038 A 
ATOM      5  C   UNL     1      -1.338   0.921 -10.067  1.00  0.00     0.026 A 
ATOM      6  C   UNL     1      -1.245   1.171  -8.690  1.00  0.00     0.006 A 
ENDROOT
BRANCH   1   7
ATOM      7  C   UNL     1       0.005   1.088  -6.495  1.00  0.00     0.037 C 
BRANCH   7   8
ATOM      8  C   UNL     1      -1.287   1.014  -5.658  1.00  0.00     0.020 C 
BRANCH   8   9
ATOM      9  C   UNL     1      -1.776   2.339  -5.056  1.00  0.00     0.078 C 
BRANCH   9  10
ATOM     10  N   UNL     1      -1.288   2.623  -3.714  1.00  0.00    -0.330 NA
ATOM     11  H   UNL     1      -0.730   1.841  -3.373  1.00  0.00     0.118 HD
ATOM     12  H   UNL     1      -2.071   2.703  -3.065  1.00  0.00     0.118 HD
ENDBRANCH   9  10
ENDBRANCH   8   9
ENDBRANCH   7   8
ENDBRANCH   1   7
BRANCH   4  13
ATOM     13  N   UNL     1      -0.454  -0.058 -12.113  1.00  0.00    -0.362 N 
ATOM     14  H   UNL     1      -0.726   0.699 -12.728  1.00  0.00     0.166 HD
BRANCH  13  15
ATOM     15  C   UNL     1      -0.508  -1.329 -12.621  1.00  0.00     0.083 C 
BRANCH  15  16
ATOM     16  C   UNL     1      -1.371  -1.851 -13.503  1.00  0.00     0.027 C 
BRANCH  16  17
ATOM     17  C   UNL     1      -1.187  -1.665 -14.950  1.00  0.00    -0.003 A 
ATOM     18  C   UNL     1      -2.052  -2.238 -15.900  1.00  0.00    -0.041 A 
ATOM     19  C   UNL     1      -0.103  -0.927 -15.449  1.00  0.00     0.119 A 
ATOM     20  C   UNL     1      -1.789  -2.030 -17.262  1.00  0.00     0.024 A 
ATOM     21  N   UNL     1       0.154  -0.702 -16.759  1.00  0.00    -0.264 NA
ATOM     22  C   UNL     1      -0.700  -1.258 -17.636  1.00  0.00     0.111 A 
ATOM     23  C   UNL     1      -3.222  -3.096 -15.508  1.00  0.00     0.045 C 
ENDBRANCH  16  17
ENDBRANCH  15  16
ENDBRANCH  13  15
ENDBRANCH   4  13
TORSDOF 8
ENDMDL
MODEL 7
REMARK VINA RESULT:    -4.717      2.283      8.364
REMARK INTER + INTRA:          -7.518
REMARK INTER:                  -7.005
REMARK INTRA:                  -0.513
REMARK UNBOUND:                -0.733
REMARK SMILES Cc1ccncc1/C=C/Nc1ccc(CCCN)cc1
REMARK SMILES IDX 14 1 13 2 12 3 11 4 20 5 19 6 15 7 16 8 17 9 18 10 10 13
REMARK SMILES IDX 9 15 8 16 7 17 2 18 6 19 3 20 5 21 4 22 1 23
REMARK H PARENT 18 11 18 12 10 14
ROOT
ATOM      1  C   UNL     1      -1.247   0.302  -7.514  1.00  0.00    -0.048 A 
ATOM      2  C   UNL     1      -2.135   1.064  -8.275  1.00  0.00     0.006 A 
ATOM      3  C   UNL     1      -1.844   1.384  -9.598  1.00  0.00     0.026 A 
ATOM      4  C   UNL     1      -0.629   1.026 -10.187  1.00  0.00     0.038 A 
ATOM      5  C   UNL     1       0.287   0.311  -9.407  1.00  0.00     0.026 A 
ATOM      6  C   UNL     1      -0.017  -0.047  -8.085  1.00  0.00     0.006 A 
ENDROOT
BRANCH   1   7
ATOM      7  C   UNL     1      -1.596  -0.136  -6.113  1.00  0.00     0.037 C 
BRANCH   7   8
ATOM      8  C   UNL     1      -1.023   0.712  -4.961  1.00  0.00     0.020 C 
BRANCH   8   9
ATOM      9  C   UNL     1      -1.386   2.204  -4.977  1.00  0.00     0.078 C 
BRANCH   9  10
ATOM     10  N   UNL     1      -2.624   2.544  -4.291  1.00  0.00    -0.330 NA
ATOM     11  H   UNL     1      -2.520   2.393  -3.289  1.00  0.00     0.118 HD
ATOM     12  H   UNL     1      -3.373   1.917  -4.585  1.00  0.00     0.118 HD
ENDBRANCH   9  10
ENDBRANCH   8   9
ENDBRANCH   7   8
ENDBRANCH   1   7
BRANCH   4  13
ATOM     13  N   UNL     1      -0.278   1.448 -11.484  1.00  0.00    -0.362 N 
ATOM     14  H   UNL     1      -0.521   0.826 -12.245  1.00  0.00     0.166 HD
BRANCH  13  15
ATOM     15  C   UNL     1       0.575   2.482 -11.766  1.00  0.00     0.083 C 
BRANCH  15  16
ATOM     16  C   UNL     1       0.310   3.665 -12.338  1.00  0.00     0.027 C 
BRANCH  16  17
ATOM     17  C   UNL     1       1.333   4.382 -13.113  1.00  0.00    -0.003 A 
ATOM     18  C   UNL     1       1.239   4.556 -14.506  1.00  0.00    -0.041 A 
ATOM     19  C   UNL     1       2.479   4.897 -12.489  1.00  0.00     0.119 A 
ATOM     20  C   UNL     1       2.273   5.233 -15.171  1.00  0.00     0.024 A 
ATOM     21  N   UNL     1       3.476   5.568 -13.113  1.00  0.00    -0.264 NA
ATOM     22  C   UNL     1       3.346   5.722 -14.443  1.00  0.00     0.111 A 
ATOM     23  C   UNL     1       0.093   4.010 -15.310  1.00  0.00     0.045 C 
ENDBRANCH  16  17
ENDBRANCH  15  16
ENDBRANCH  13  15
ENDBRANCH   4  13
TORSDOF 8
ENDMDL
MODEL 8
REMARK VINA RESULT:    -4.632      4.703      8.541
REMARK INTER + INTRA:          -7.395
REMARK INTER:                  -6.868
REMARK INTRA:                  -0.527
REMARK UNBOUND:                -0.733
REMARK SMILES Cc1ccncc1/C=C/Nc1ccc(CCCN)cc1
REMARK SMILES IDX 14 1 13 2 12 3 11 4 20 5 19 6 15 7 16 8 17 9 18 10 10 13
REMARK SMILES IDX 9 15 8 16 7 17 2 18 6 19 3 20 5 21 4 22 1 23
REMARK H PARENT 18 11 18 12 10 14
ROOT
ATOM      1  C   UNL     1      -0.245   0.777  -8.409  1.00  0.00    -0.048 A 
ATOM      2  C   UNL     1       0.764   0.074  -9.072  1.00  0.00     0.006 A 
ATOM      3  C   UNL     1       0.738  -0.071 -10.456  1.00  0.00     0.026 A 
ATOM      4  C   UNL     1      -0.327   0.409 -11.222  1.00  0.00     0.038 A 
ATOM      5  C   UNL     1      -1.367   1.065 -10.553  1.00  0.00     0.026 A 
ATOM      6  C   UNL     1      -1.327   1.247  -9.162  1.00  0.00     0.006 A 
ENDROOT
BRANCH   1   7
ATOM      7  C   UNL     1      -0.175   1.027  -6.924  1.00  0.00     0.037 C 
BRANCH   7   8
ATOM      8  C   UNL     1      -1.510   1.307  -6.206  1.00  0.00     0.020 C 
BRANCH   8   9
ATOM      9  C   UNL     1      -1.406   1.972  -4.826  1.00  0.00     0.078 C 
BRANCH   9  10
ATOM     10  N   UNL     1      -2.607   2.668  -4.386  1.00  0.00    -0.330 NA
ATOM     11  H   UNL     1      -2.409   3.659  -4.258  1.00  0.00     0.118 HD
ATOM     12  H   UNL     1      -2.896   2.326  -3.469  1.00  0.00     0.118 HD
ENDBRANCH   9  10
ENDBRANCH   8   9
ENDBRANCH   7   8
ENDBRANCH   1   7
BRANCH   4  13
ATOM     13  N   UNL     1      -0.419   0.163 -12.605  1.00  0.00    -0.362 N 
ATOM     14  H   UNL     1      -0.514   0.973 -13.205  1.00  0.00     0.166 HD
BRANCH  13  15
ATOM     15  C   UNL     1      -0.646  -1.065 -13.168  1.00  0.00     0.083 C 
BRANCH  15  16
ATOM     16  C   UNL     1      -0.451  -1.465 -14.432  1.00  0.00     0.027 C 
BRANCH  16  17
ATOM     17  C   UNL     1      -1.563  -1.969 -15.252  1.00  0.00    -0.003 A 
ATOM     18  C   UNL     1      -1.578  -1.856 -16.653  1.00  0.00    -0.041 A 
ATOM     19  C   UNL     1      -2.688  -2.557 -14.655  1.00  0.00     0.119 A 
ATOM     20  C   UNL     1      -2.690  -2.342 -17.357  1.00  0.00     0.024 A 
ATOM     21  N   UNL     1      -3.761  -3.047 -15.320  1.00  0.00    -0.264 NA
ATOM     22  C   UNL     1      -3.733  -2.930 -16.659  1.00  0.00     0.111 A 
ATOM     23  C   UNL     1      -0.464  -1.199 -17.420  1.00  0.00     0.045 C 
ENDBRANCH  16  17
ENDBRANCH  15  16
ENDBRANCH  13  15
ENDBRANCH   4  13
TORSDOF 8
ENDMDL
MODEL 9
REMARK VINA RESULT:    -4.510      2.889      9.239
REMARK INTER + INTRA:          -7.220
REMARK INTER:                  -6.451
REMARK INTRA:                  -0.769
REMARK UNBOUND:                -0.733
REMARK SMILES Cc1ccncc1/C=C/Nc1ccc(CCCN)cc1
REMARK SMILES IDX 14 1 13 2 12 3 11 4 20 5 19 6 15 7 16 8 17 9 18 10 10 13
REMARK SMILES IDX 9 15 8 16 7 17 2 18 6 19 3 20 5 21 4 22 1 23
REMARK H PARENT 18 11 18 12 10 14
ROOT
ATOM      1  C   UNL     1       0.926   3.794 -12.382  1.00  0.00    -0.048 A 
ATOM      2  C   UNL     1       2.180   4.173 -11.900  1.00  0.00     0.006 A 
ATOM      3  C   UNL     1       3.030   4.960 -12.671  1.00  0.00     0.026 A 
ATOM      4  C   UNL     1       2.698   5.334 -13.976  1.00  0.00     0.038 A 
ATOM      5  C   UNL     1       1.464   4.907 -14.482  1.00  0.00     0.026 A 
ATOM      6  C   UNL     1       0.587   4.145 -13.694  1.00  0.00     0.006 A 
ENDROOT
BRANCH   1   7
ATOM      7  C   UNL     1      -0.044   3.027 -11.517  1.00  0.00     0.037 C 
BRANCH   7   8
ATOM      8  C   UNL     1      -0.046   1.494 -11.673  1.00  0.00     0.020 C 
BRANCH   8   9
ATOM      9  C   UNL     1       0.204   0.686 -10.391  1.00  0.00     0.078 C 
BRANCH   9  10
ATOM     10  N   UNL     1       1.495   0.016 -10.328  1.00  0.00    -0.330 NA
ATOM     11  H   UNL     1       2.149   0.569  -9.776  1.00  0.00     0.118 HD
ATOM     12  H   UNL     1       1.906  -0.044 -11.260  1.00  0.00     0.118 HD
ENDBRANCH   9  10
ENDBRANCH   8   9
ENDBRANCH   7   8
ENDBRANCH   1   7
BRANCH   4  13
ATOM     13  N   UNL     1       3.600   6.028 -14.804  1.00  0.00    -0.362 N 
ATOM     14  H   UNL     1       3.568   7.039 -14.763  1.00  0.00     0.166 HD
BRANCH  13  15
ATOM     15  C   UNL     1       4.319   5.464 -15.824  1.00  0.00     0.083 C 
BRANCH  15  16
ATOM     16  C   UNL     1       4.694   6.002 -16.993  1.00  0.00     0.027 C 
BRANCH  16  17
ATOM     17  C   UNL     1       4.751   7.460 -17.177  1.00  0.00    -0.003 A 
ATOM     18  C   UNL     1       3.701   8.187 -17.766  1.00  0.00    -0.041 A 
ATOM     19  C   UNL     1       5.889   8.189 -16.801  1.00  0.00     0.119 A 
ATOM     20  C   UNL     1       3.848   9.573 -17.926  1.00  0.00     0.024 A 
ATOM     21  N   UNL     1       6.040   9.527 -16.931  1.00  0.00    -0.264 NA
ATOM     22  C   UNL     1       5.011  10.189 -17.490  1.00  0.00     0.111 A 
ATOM     23  C   UNL     1       2.446   7.527 -18.265  1.00  0.00     0.045 C 
ENDBRANCH  16  17
ENDBRANCH  15  16
ENDBRANCH  13  15
ENDBRANCH   4  13
TORSDOF 8
ENDMDL
