MODEL 1
REMARK VINA RESULT:    -5.077      0.000      0.000
REMARK INTER + INTRA:          -7.821
REMARK INTER:                  -7.303
REMARK INTRA:                  -0.518
REMARK UNBOUND:                -0.518
REMARK SMILES Cc1ccncc1/C=C/Nc1ccc(CCCN)cc1
REMARK SMILES IDX 14 1 13 2 12 3 11 4 20 5 19 6 15 7 16 8 17 9 18 10 10 13
REMARK SMILES IDX 9 15 8 16 7 17 2 18 6 19 3 20 5 21 4 22 1 23
REMARK H PARENT 18 11 18 12 10 14
ROOT
ATOM      1  C   UNL     1      -4.861  -4.353   7.442  1.00  0.00    -0.048 A 
ATOM      2  C   UNL     1      -4.772  -5.746   7.486  1.00  0.00     0.006 A 
ATOM      3  C   UNL     1      -4.802  -6.422   8.702  1.00  0.00     0.026 A 
ATOM      4  C   UNL     1      -4.844  -5.737   9.919  1.00  0.00     0.038 A 
ATOM      5  C   UNL     1      -4.876  -4.338   9.879  1.00  0.00     0.026 A 
ATOM      6  C   UNL     1      -4.884  -3.653   8.654  1.00  0.00     0.006 A 
ENDROOT
BRANCH   1   7
ATOM      7  C   UNL     1      -4.931  -3.616   6.128  1.00  0.00     0.037 C 
BRANCH   7   8
ATOM      8  C   UNL     1      -4.256  -2.232   6.074  1.00  0.00     0.020 C 
BRANCH   8   9
ATOM      9  C   UNL     1      -5.063  -1.115   5.395  1.00  0.00     0.078 C 
BRANCH   9  10
ATOM     10  N   UNL     1      -5.052  -1.146   3.940  1.00  0.00    -0.330 NA
ATOM     11  H   UNL     1      -6.004  -1.228   3.585  1.00  0.00     0.118 HD
ATOM     12  H   UNL     1      -4.565  -1.979   3.609  1.00  0.00     0.118 HD
ENDBRANCH   9  10
ENDBRANCH   8   9
ENDBRANCH   7   8
ENDBRANCH   1   7
BRANCH   4  13
ATOM     13  N   UNL     1      -4.755  -6.408  11.154  1.00  0.00    -0.362 N 
ATOM     14  H   UNL     1      -5.495  -6.230  11.822  1.00  0.00     0.166 HD
BRANCH  13  15
ATOM     15  C   UNL     1      -3.641  -7.062  11.611  1.00  0.00     0.083 C 
BRANCH  15  16
ATOM     16  C   UNL     1      -3.019  -6.949  12.792  1.00  0.00     0.027 C 
BRANCH  16  17
ATOM     17  C   UNL     1      -3.576  -7.560  14.008  1.00  0.00    -0.003 A 
ATOM     18  C   UNL     1      -2.940  -7.466  15.258  1.00  0.00    -0.041 A 
ATOM     19  C   UNL     1      -4.764  -8.305  13.959  1.00  0.00     0.119 A 
ATOM     20  C   UNL     1      -3.529  -8.100  16.363  1.00  0.00     0.024 A 
ATOM     21  N   UNL     1      -5.354  -8.908  15.018  1.00  0.00    -0.264 NA
ATOM     22  C   UNL     1      -4.721  -8.787  16.198  1.00  0.00     0.111 A 
ATOM     23  C   UNL     1      -1.635  -6.744  15.445  1.00  0.00     0.045 C 
ENDBRANCH  16  17
ENDBRANCH  15  16
ENDBRANCH  13  15
ENDBRANCH   4  13
TORSDOF 8
ENDMDL
MODEL 2
REMARK VINA RESULT:    -5.072      4.281      5.481
REMARK INTER + INTRA:          -7.814
REMARK INTER:                  -7.282
REMARK INTRA:                  -0.532
REMARK UNBOUND:                -0.518
REMARK SMILES Cc1ccncc1/C=C/Nc1ccc(CCCN)cc1
REMARK SMILES IDX 14 1 13 2 12 3 11 4 20 5 19 6 15 7 16 8 17 9 18 10 10 13
REMARK SMILES IDX 9 15 8 16 7 17 2 18 6 19 3 20 5 21 4 22 1 23
REMARK H PARENT 18 11 18 12 10 14
ROOT
ATOM      1  C   UNL     1      -3.855  -4.603   7.711  1.00  0.00    -0.048 A 
ATOM      2  C   UNL     1      -4.402  -3.629   8.549  1.00  0.00     0.006 A 
ATOM      3  C   UNL     1      -5.342  -3.972   9.518  1.00  0.00     0.026 A 
ATOM      4  C   UNL     1      -5.828  -5.276   9.636  1.00  0.00     0.038 A 
ATOM      5  C   UNL     1      -5.322  -6.242   8.759  1.00  0.00     0.026 A 
ATOM      6  C   UNL     1      -4.347  -5.910   7.806  1.00  0.00     0.006 A 
ENDROOT
BRANCH   1   7
ATOM      7  C   UNL     1      -2.764  -4.262   6.727  1.00  0.00     0.037 C 
BRANCH   7   8
ATOM      8  C   UNL     1      -2.859  -4.914   5.335  1.00  0.00     0.020 C 
BRANCH   8   9
ATOM      9  C   UNL     1      -1.628  -5.709   4.877  1.00  0.00     0.078 C 
BRANCH   9  10
ATOM     10  N   UNL     1      -0.598  -4.921   4.216  1.00  0.00    -0.330 NA
ATOM     11  H   UNL     1      -0.277  -5.400   3.375  1.00  0.00     0.118 HD
ATOM     12  H   UNL     1       0.224  -4.841   4.815  1.00  0.00     0.118 HD
ENDBRANCH   9  10
ENDBRANCH   8   9
ENDBRANCH   7   8
ENDBRANCH   1   7
BRANCH   4  13
ATOM     13  N   UNL     1      -6.864  -5.605  10.532  1.00  0.00    -0.362 N 
ATOM     14  H   UNL     1      -6.724  -6.428  11.105  1.00  0.00     0.166 HD
BRANCH  13  15
ATOM     15  C   UNL     1      -8.123  -5.066  10.505  1.00  0.00     0.083 C 
BRANCH  15  16
ATOM     16  C   UNL     1      -9.309  -5.684  10.578  1.00  0.00     0.027 C 
BRANCH  16  17
ATOM     17  C   UNL     1      -9.826  -6.192  11.857  1.00  0.00    -0.003 A 
ATOM     18  C   UNL     1     -11.026  -6.919  11.950  1.00  0.00    -0.041 A 
ATOM     19  C   UNL     1      -9.150  -5.935  13.060  1.00  0.00     0.119 A 
ATOM     20  C   UNL     1     -11.459  -7.346  13.215  1.00  0.00     0.024 A 
ATOM     21  N   UNL     1      -9.544  -6.355  14.285  1.00  0.00    -0.264 NA
ATOM     22  C   UNL     1     -10.692  -7.055  14.331  1.00  0.00     0.111 A 
ATOM     23  C   UNL     1     -11.879  -7.220  10.750  1.00  0.00     0.045 C 
ENDBRANCH  16  17
ENDBRANCH  15  16
ENDBRANCH  13  15
ENDBRANCH   4  13
TORSDOF 8
ENDMDL
MODEL 3
REMARK VINA RESULT:    -5.071      1.920      8.597
REMARK INTER + INTRA:          -7.812
REMARK INTER:                  -7.146
REMARK INTRA:                  -0.667
REMARK UNBOUND:                -0.518
REMARK SMILES Cc1ccncc1/C=C/Nc1ccc(CCCN)cc1
REMARK SMILES IDX 14 1 13 2 12 3 11 4 20 5 19 6 15 7 16 8 17 9 18 10 10 13
REMARK SMILES IDX 9 15 8 16 7 17 2 18 6 19 3 20 5 21 4 22 1 23
REMARK H PARENT 18 11 18 12 10 14
ROOT
ATOM      1  C   UNL     1      -2.829  -7.360  14.912  1.00  0.00    -0.048 A 
ATOM      2  C   UNL     1      -3.983  -7.996  14.451  1.00  0.00     0.006 A 
ATOM      3  C   UNL     1      -4.327  -7.953  13.103  1.00  0.00     0.026 A 
ATOM      4  C   UNL     1      -3.583  -7.214  12.180  1.00  0.00     0.038 A 
ATOM      5  C   UNL     1      -2.457  -6.528  12.651  1.00  0.00     0.026 A 
ATOM      6  C   UNL     1      -2.084  -6.599  14.002  1.00  0.00     0.006 A 
ENDROOT
BRANCH   1   7
ATOM      7  C   UNL     1      -2.391  -7.483  16.350  1.00  0.00     0.037 C 
BRANCH   7   8
ATOM      8  C   UNL     1      -1.474  -6.369  16.892  1.00  0.00     0.020 C 
BRANCH   8   9
ATOM      9  C   UNL     1      -2.153  -5.304  17.765  1.00  0.00     0.078 C 
BRANCH   9  10
ATOM     10  N   UNL     1      -3.244  -4.585  17.122  1.00  0.00    -0.330 NA
ATOM     11  H   UNL     1      -3.235  -3.608  17.410  1.00  0.00     0.118 HD
ATOM     12  H   UNL     1      -4.141  -4.954  17.436  1.00  0.00     0.118 HD
ENDBRANCH   9  10
ENDBRANCH   8   9
ENDBRANCH   7   8
ENDBRANCH   1   7
BRANCH   4  13
ATOM     13  N   UNL     1      -3.992  -7.068  10.840  1.00  0.00    -0.362 N 
ATOM     14  H   UNL     1      -3.584  -7.707  10.169  1.00  0.00     0.166 HD
BRANCH  13  15
ATOM     15  C   UNL     1      -4.680  -5.993  10.345  1.00  0.00     0.083 C 
BRANCH  15  16
ATOM     16  C   UNL     1      -5.102  -5.762   9.094  1.00  0.00     0.027 C 
BRANCH  16  17
ATOM     17  C   UNL     1      -4.684  -4.560   8.358  1.00  0.00    -0.003 A 
ATOM     18  C   UNL     1      -4.276  -4.603   7.013  1.00  0.00    -0.041 A 
ATOM     19  C   UNL     1      -4.637  -3.309   8.991  1.00  0.00     0.119 A 
ATOM     20  C   UNL     1      -3.869  -3.412   6.394  1.00  0.00     0.024 A 
ATOM     21  N   UNL     1      -4.264  -2.147   8.404  1.00  0.00    -0.264 NA
ATOM     22  C   UNL     1      -3.891  -2.228   7.114  1.00  0.00     0.111 A 
ATOM     23  C   UNL     1      -4.225  -5.884   6.229  1.00  0.00     0.045 C 
ENDBRANCH  16  17
ENDBRANCH  15  16
ENDBRANCH  13  15
ENDBRANCH   4  13
TORSDOF 8
ENDMDL
MODEL 4
REMARK VINA RESULT:    -5.031      2.180      8.442
REMARK INTER + INTRA:          -7.754
REMARK INTER:                  -7.099
REMARK INTRA:                  -0.656
REMARK UNBOUND:                -0.518
REMARK SMILES Cc1ccncc1/C=C/Nc1ccc(CCCN)cc1
REMARK SMILES IDX 14 1 13 2 12 3 11 4 20 5 19 6 15 7 16 8 17 9 18 10 10 13
REMARK SMILES IDX 9 15 8 16 7 17 2 18 6 19 3 20 5 21 4 22 1 23
REMARK H PARENT 18 11 18 12 10 14
ROOT
ATOM      1  C   UNL     1      -2.738  -7.443  14.869  1.00  0.00    -0.048 A 
ATOM      2  C   UNL     1      -3.906  -8.037  14.386  1.00  0.00     0.006 A 
ATOM      3  C   UNL     1      -4.278  -7.891  13.053  1.00  0.00     0.026 A 
ATOM      4  C   UNL     1      -3.548  -7.087  12.173  1.00  0.00     0.038 A 
ATOM      5  C   UNL     1      -2.408  -6.445  12.671  1.00  0.00     0.026 A 
ATOM      6  C   UNL     1      -2.007  -6.620  14.004  1.00  0.00     0.006 A 
ENDROOT
BRANCH   1   7
ATOM      7  C   UNL     1      -2.271  -7.678  16.284  1.00  0.00     0.037 C 
BRANCH   7   8
ATOM      8  C   UNL     1      -1.507  -6.523  16.961  1.00  0.00     0.020 C 
BRANCH   8   9
ATOM      9  C   UNL     1      -2.368  -5.483  17.692  1.00  0.00     0.078 C 
BRANCH   9  10
ATOM     10  N   UNL     1      -2.962  -4.466  16.836  1.00  0.00    -0.330 NA
ATOM     11  H   UNL     1      -3.671  -4.885  16.236  1.00  0.00     0.118 HD
ATOM     12  H   UNL     1      -2.259  -4.084  16.203  1.00  0.00     0.118 HD
ENDBRANCH   9  10
ENDBRANCH   8   9
ENDBRANCH   7   8
ENDBRANCH   1   7
BRANCH   4  13
ATOM     13  N   UNL     1      -3.984  -6.839  10.857  1.00  0.00    -0.362 N 
ATOM     14  H   UNL     1      -3.365  -7.130  10.111  1.00  0.00     0.166 HD
BRANCH  13  15
ATOM     15  C   UNL     1      -5.030  -6.021  10.520  1.00  0.00     0.083 C 
BRANCH  15  16
ATOM     16  C   UNL     1      -5.073  -5.031   9.619  1.00  0.00     0.027 C 
BRANCH  16  17
ATOM     17  C   UNL     1      -4.647  -5.248   8.228  1.00  0.00    -0.003 A 
ATOM     18  C   UNL     1      -4.152  -4.209   7.420  1.00  0.00    -0.041 A 
ATOM     19  C   UNL     1      -4.756  -6.513   7.631  1.00  0.00     0.119 A 
ATOM     20  C   UNL     1      -3.791  -4.499   6.096  1.00  0.00     0.024 A 
ATOM     21  N   UNL     1      -4.396  -6.814   6.362  1.00  0.00    -0.264 NA
ATOM     22  C   UNL     1      -3.918  -5.796   5.624  1.00  0.00     0.111 A 
ATOM     23  C   UNL     1      -4.032  -2.794   7.912  1.00  0.00     0.045 C 
ENDBRANCH  16  17
ENDBRANCH  15  16
ENDBRANCH  13  15
ENDBRANCH   4  13
TORSDOF 8
ENDMDL
MODEL 5
REMARK VINA RESULT:    -4.989      2.057      2.566
REMARK INTER + INTRA:          -7.695
REMARK INTER:                  -7.156
REMARK INTRA:                  -0.539
REMARK UNBOUND:                -0.518
REMARK SMILES Cc1ccncc1/C=C/Nc1ccc(CCCN)cc1
REMARK SMILES IDX 14 1 13 2 12 3 11 4 20 5 19 6 15 7 16 8 17 9 18 10 10 13
REMARK SMILES IDX 9 15 8 16 7 17 2 18 6 19 3 20 5 21 4 22 1 23
REMARK H PARENT 18 11 18 12 10 14
ROOT
ATOM      1  C   UNL     1      -4.479  -4.816   6.692  1.00  0.00    -0.048 A 
ATOM      2  C   UNL     1      -4.582  -6.175   6.998  1.00  0.00     0.006 A 
ATOM      3  C   UNL     1      -4.820  -6.593   8.304  1.00  0.00     0.026 A 
ATOM      4  C   UNL     1      -4.888  -5.684   9.363  1.00  0.00     0.038 A 
ATOM      5  C   UNL     1      -4.728  -4.325   9.066  1.00  0.00     0.026 A 
ATOM      6  C   UNL     1      -4.526  -3.895   7.746  1.00  0.00     0.006 A 
ENDROOT
BRANCH   1   7
ATOM      7  C   UNL     1      -4.322  -4.346   5.268  1.00  0.00     0.037 C 
BRANCH   7   8
ATOM      8  C   UNL     1      -2.900  -3.955   4.821  1.00  0.00     0.020 C 
BRANCH   8   9
ATOM      9  C   UNL     1      -1.808  -5.011   5.048  1.00  0.00     0.078 C 
BRANCH   9  10
ATOM     10  N   UNL     1      -1.728  -6.042   4.024  1.00  0.00    -0.330 NA
ATOM     11  H   UNL     1      -1.797  -5.621   3.099  1.00  0.00     0.118 HD
ATOM     12  H   UNL     1      -2.526  -6.674   4.098  1.00  0.00     0.118 HD
ENDBRANCH   9  10
ENDBRANCH   8   9
ENDBRANCH   7   8
ENDBRANCH   1   7
BRANCH   4  13
ATOM     13  N   UNL     1      -5.009  -6.107  10.701  1.00  0.00    -0.362 N 
ATOM     14  H   UNL     1      -5.911  -5.970  11.140  1.00  0.00     0.166 HD
BRANCH  13  15
ATOM     15  C   UNL     1      -3.959  -6.442  11.514  1.00  0.00     0.083 C 
BRANCH  15  16
ATOM     16  C   UNL     1      -3.785  -7.540  12.261  1.00  0.00     0.027 C 
BRANCH  16  17
ATOM     17  C   UNL     1      -3.338  -7.447  13.659  1.00  0.00    -0.003 A 
ATOM     18  C   UNL     1      -4.071  -7.998  14.724  1.00  0.00    -0.041 A 
ATOM     19  C   UNL     1      -2.161  -6.760  13.994  1.00  0.00     0.119 A 
ATOM     20  C   UNL     1      -3.584  -7.843  16.031  1.00  0.00     0.024 A 
ATOM     21  N   UNL     1      -1.667  -6.616  15.246  1.00  0.00    -0.264 NA
ATOM     22  C   UNL     1      -2.392  -7.166  16.236  1.00  0.00     0.111 A 
ATOM     23  C   UNL     1      -5.377  -8.714  14.517  1.00  0.00     0.045 C 
ENDBRANCH  16  17
ENDBRANCH  15  16
ENDBRANCH  13  15
ENDBRANCH   4  13
TORSDOF 8
ENDMDL
MODEL 6
REMARK VINA RESULT:    -4.969      1.168      1.705
REMARK INTER + INTRA:          -7.665
REMARK INTER:                  -7.102
REMARK INTRA:                  -0.563
REMARK UNBOUND:                -0.518
REMARK SMILES Cc1ccncc1/C=C/Nc1ccc(CCCN)cc1
REMARK SMILES IDX 14 1 13 2 12 3 11 4 20 5 19 6 15 7 16 8 17 9 18 10 10 13
REMARK SMILES IDX 9 15 8 16 7 17 2 18 6 19 3 20 5 21 4 22 1 23
REMARK H PARENT 18 11 18 12 10 14
ROOT
ATOM      1  C   UNL     1      -4.775  -4.359   7.324  1.00  0.00    -0.048 A 
ATOM      2  C   UNL     1      -4.705  -5.750   7.415  1.00  0.00     0.006 A 
ATOM      3  C   UNL     1      -4.811  -6.388   8.647  1.00  0.00     0.026 A 
ATOM      4  C   UNL     1      -4.912  -5.666   9.839  1.00  0.00     0.038 A 
ATOM      5  C   UNL     1      -4.925  -4.269   9.755  1.00  0.00     0.026 A 
ATOM      6  C   UNL     1      -4.857  -3.621   8.512  1.00  0.00     0.006 A 
ENDROOT
BRANCH   1   7
ATOM      7  C   UNL     1      -4.763  -3.662   5.987  1.00  0.00     0.037 C 
BRANCH   7   8
ATOM      8  C   UNL     1      -4.168  -2.241   5.952  1.00  0.00     0.020 C 
BRANCH   8   9
ATOM      9  C   UNL     1      -5.060  -1.152   5.336  1.00  0.00     0.078 C 
BRANCH   9  10
ATOM     10  N   UNL     1      -5.073  -1.118   3.881  1.00  0.00    -0.330 NA
ATOM     11  H   UNL     1      -5.725  -0.406   3.555  1.00  0.00     0.118 HD
ATOM     12  H   UNL     1      -5.427  -2.001   3.512  1.00  0.00     0.118 HD
ENDBRANCH   9  10
ENDBRANCH   8   9
ENDBRANCH   7   8
ENDBRANCH   1   7
BRANCH   4  13
ATOM     13  N   UNL     1      -4.899  -6.300  11.097  1.00  0.00    -0.362 N 
ATOM     14  H   UNL     1      -5.753  -6.251  11.638  1.00  0.00     0.166 HD
BRANCH  13  15
ATOM     15  C   UNL     1      -3.773  -6.740  11.740  1.00  0.00     0.083 C 
BRANCH  15  16
ATOM     16  C   UNL     1      -3.630  -7.767  12.588  1.00  0.00     0.027 C 
BRANCH  16  17
ATOM     17  C   UNL     1      -3.283  -7.545  14.000  1.00  0.00    -0.003 A 
ATOM     18  C   UNL     1      -4.095  -7.995  15.056  1.00  0.00    -0.041 A 
ATOM     19  C   UNL     1      -2.127  -6.833  14.354  1.00  0.00     0.119 A 
ATOM     20  C   UNL     1      -3.701  -7.720  16.374  1.00  0.00     0.024 A 
ATOM     21  N   UNL     1      -1.723  -6.574  15.619  1.00  0.00    -0.264 NA
ATOM     22  C   UNL     1      -2.521  -7.029  16.602  1.00  0.00     0.111 A 
ATOM     23  C   UNL     1      -5.388  -8.724  14.822  1.00  0.00     0.045 C 
ENDBRANCH  16  17
ENDBRANCH  15  16
ENDBRANCH  13  15
ENDBRANCH   4  13
TORSDOF 8
ENDMDL
MODEL 7
REMARK VINA RESULT:    -4.896      1.764      1.951
REMARK INTER + INTRA:          -7.562
REMARK INTER:                  -6.948
REMARK INTRA:                  -0.614
REMARK UNBOUND:                -0.518
REMARK SMILES Cc1ccncc1/C=C/Nc1ccc(CCCN)cc1
REMARK SMILES IDX 14 1 13 2 12 3 11 4 20 5 19 6 15 7 16 8 17 9 18 10 10 13
REMARK SMILES IDX 9 15 8 16 7 17 2 18 6 19 3 20 5 21 4 22 1 23
REMARK H PARENT 18 11 18 12 10 14
ROOT
ATOM      1  C   UNL     1      -4.520  -5.080   6.838  1.00  0.00    -0.048 A 
ATOM      2  C   UNL     1      -4.638  -6.429   7.177  1.00  0.00     0.006 A 
ATOM      3  C   UNL     1      -4.875  -6.812   8.494  1.00  0.00     0.026 A 
ATOM      4  C   UNL     1      -4.925  -5.876   9.531  1.00  0.00     0.038 A 
ATOM      5  C   UNL     1      -4.749  -4.528   9.200  1.00  0.00     0.026 A 
ATOM      6  C   UNL     1      -4.549  -4.133   7.869  1.00  0.00     0.006 A 
ENDROOT
BRANCH   1   7
ATOM      7  C   UNL     1      -4.364  -4.647   5.401  1.00  0.00     0.037 C 
BRANCH   7   8
ATOM      8  C   UNL     1      -2.990  -4.081   4.994  1.00  0.00     0.020 C 
BRANCH   8   9
ATOM      9  C   UNL     1      -1.806  -5.054   5.086  1.00  0.00     0.078 C 
BRANCH   9  10
ATOM     10  N   UNL     1      -1.747  -6.054   4.030  1.00  0.00    -0.330 NA
ATOM     11  H   UNL     1      -1.336  -6.915   4.387  1.00  0.00     0.118 HD
ATOM     12  H   UNL     1      -1.124  -5.741   3.284  1.00  0.00     0.118 HD
ENDBRANCH   9  10
ENDBRANCH   8   9
ENDBRANCH   7   8
ENDBRANCH   1   7
BRANCH   4  13
ATOM     13  N   UNL     1      -5.044  -6.265  10.879  1.00  0.00    -0.362 N 
ATOM     14  H   UNL     1      -5.975  -6.242  11.278  1.00  0.00     0.166 HD
BRANCH  13  15
ATOM     15  C   UNL     1      -3.995  -6.418  11.745  1.00  0.00     0.083 C 
BRANCH  15  16
ATOM     16  C   UNL     1      -3.567  -7.524  12.369  1.00  0.00     0.027 C 
BRANCH  16  17
ATOM     17  C   UNL     1      -4.001  -7.843  13.738  1.00  0.00    -0.003 A 
ATOM     18  C   UNL     1      -3.191  -7.601  14.861  1.00  0.00    -0.041 A 
ATOM     19  C   UNL     1      -5.246  -8.445  13.976  1.00  0.00     0.119 A 
ATOM     20  C   UNL     1      -3.674  -7.957  16.130  1.00  0.00     0.024 A 
ATOM     21  N   UNL     1      -5.734  -8.779  15.194  1.00  0.00    -0.264 NA
ATOM     22  C   UNL     1      -4.934  -8.523  16.244  1.00  0.00     0.111 A 
ATOM     23  C   UNL     1      -1.814  -7.010  14.748  1.00  0.00     0.045 C 
ENDBRANCH  16  17
ENDBRANCH  15  16
ENDBRANCH  13  15
ENDBRANCH   4  13
TORSDOF 8
ENDMDL
MODEL 8
REMARK VINA RESULT:    -4.633      4.459      8.608
REMARK INTER + INTRA:          -7.183
REMARK INTER:                  -6.548
REMARK INTRA:                  -0.635
REMARK UNBOUND:                -0.518
REMARK SMILES Cc1ccncc1/C=C/Nc1ccc(CCCN)cc1
REMARK SMILES IDX 14 1 13 2 12 3 11 4 20 5 19 6 15 7 16 8 17 9 18 10 10 13
REMARK SMILES IDX 9 15 8 16 7 17 2 18 6 19 3 20 5 21 4 22 1 23
REMARK H PARENT 18 11 18 12 10 14
ROOT
ATOM      1  C   UNL     1     -10.748  -6.501  12.083  1.00  0.00    -0.048 A 
ATOM      2  C   UNL     1      -9.562  -6.056  12.672  1.00  0.00     0.006 A 
ATOM      3  C   UNL     1      -8.542  -5.517  11.894  1.00  0.00     0.026 A 
ATOM      4  C   UNL     1      -8.629  -5.473  10.501  1.00  0.00     0.038 A 
ATOM      5  C   UNL     1      -9.793  -5.971   9.905  1.00  0.00     0.026 A 
ATOM      6  C   UNL     1     -10.842  -6.480  10.687  1.00  0.00     0.006 A 
ENDROOT
BRANCH   1   7
ATOM      7  C   UNL     1     -11.900  -6.993  12.924  1.00  0.00     0.037 C 
BRANCH   7   8
ATOM      8  C   UNL     1     -11.633  -8.225  13.810  1.00  0.00     0.020 C 
BRANCH   8   9
ATOM      9  C   UNL     1     -11.772  -9.592  13.123  1.00  0.00     0.078 C 
BRANCH   9  10
ATOM     10  N   UNL     1     -10.780 -10.582  13.518  1.00  0.00    -0.330 NA
ATOM     11  H   UNL     1     -10.562 -11.190  12.730  1.00  0.00     0.118 HD
ATOM     12  H   UNL     1     -11.163 -11.195  14.238  1.00  0.00     0.118 HD
ENDBRANCH   9  10
ENDBRANCH   8   9
ENDBRANCH   7   8
ENDBRANCH   1   7
BRANCH   4  13
ATOM     13  N   UNL     1      -7.554  -5.040   9.701  1.00  0.00    -0.362 N 
ATOM     14  H   UNL     1      -7.742  -4.918   8.714  1.00  0.00     0.166 HD
BRANCH  13  15
ATOM     15  C   UNL     1      -6.242  -5.022  10.096  1.00  0.00     0.083 C 
BRANCH  15  16
ATOM     16  C   UNL     1      -5.209  -4.351   9.569  1.00  0.00     0.027 C 
BRANCH  16  17
ATOM     17  C   UNL     1      -4.658  -4.713   8.254  1.00  0.00    -0.003 A 
ATOM     18  C   UNL     1      -4.046  -3.771   7.408  1.00  0.00    -0.041 A 
ATOM     19  C   UNL     1      -4.757  -6.025   7.769  1.00  0.00     0.119 A 
ATOM     20  C   UNL     1      -3.568  -4.196   6.160  1.00  0.00     0.024 A 
ATOM     21  N   UNL     1      -4.286  -6.456   6.575  1.00  0.00    -0.264 NA
ATOM     22  C   UNL     1      -3.698  -5.528   5.799  1.00  0.00     0.111 A 
ATOM     23  C   UNL     1      -3.921  -2.319   7.778  1.00  0.00     0.045 C 
ENDBRANCH  16  17
ENDBRANCH  15  16
ENDBRANCH  13  15
ENDBRANCH   4  13
TORSDOF 8
ENDMDL
MODEL 9
REMARK VINA RESULT:    -4.590      4.294      5.293
REMARK INTER + INTRA:          -7.121
REMARK INTER:                  -6.645
REMARK INTRA:                  -0.476
REMARK UNBOUND:                -0.518
REMARK SMILES Cc1ccncc1/C=C/Nc1ccc(CCCN)cc1
REMARK SMILES IDX 14 1 13 2 12 3 11 4 20 5 19 6 15 7 16 8 17 9 18 10 10 13
REMARK SMILES IDX 9 15 8 16 7 17 2 18 6 19 3 20 5 21 4 22 1 23
REMARK H PARENT 18 11 18 12 10 14
ROOT
ATOM      1  C   UNL     1      -3.768  -3.660   7.186  1.00  0.00    -0.048 A 
ATOM      2  C   UNL     1      -4.194  -4.988   7.113  1.00  0.00     0.006 A 
ATOM      3  C   UNL     1      -5.057  -5.512   8.071  1.00  0.00     0.026 A 
ATOM      4  C   UNL     1      -5.465  -4.761   9.177  1.00  0.00     0.038 A 
ATOM      5  C   UNL     1      -4.994  -3.447   9.281  1.00  0.00     0.026 A 
ATOM      6  C   UNL     1      -4.155  -2.902   8.298  1.00  0.00     0.006 A 
ENDROOT
BRANCH   1   7
ATOM      7  C   UNL     1      -2.916  -3.053   6.100  1.00  0.00     0.037 C 
BRANCH   7   8
ATOM      8  C   UNL     1      -2.789  -3.855   4.791  1.00  0.00     0.020 C 
BRANCH   8   9
ATOM      9  C   UNL     1      -1.548  -4.752   4.667  1.00  0.00     0.078 C 
BRANCH   9  10
ATOM     10  N   UNL     1      -1.805  -6.092   4.162  1.00  0.00    -0.330 NA
ATOM     11  H   UNL     1      -2.118  -6.697   4.920  1.00  0.00     0.118 HD
ATOM     12  H   UNL     1      -0.940  -6.510   3.817  1.00  0.00     0.118 HD
ENDBRANCH   9  10
ENDBRANCH   8   9
ENDBRANCH   7   8
ENDBRANCH   1   7
BRANCH   4  13
ATOM     13  N   UNL     1      -6.241  -5.320  10.211  1.00  0.00    -0.362 N 
ATOM     14  H   UNL     1      -5.749  -5.883  10.893  1.00  0.00     0.166 HD
BRANCH  13  15
ATOM     15  C   UNL     1      -7.609  -5.376  10.219  1.00  0.00     0.083 C 
BRANCH  15  16
ATOM     16  C   UNL     1      -8.461  -5.101  11.216  1.00  0.00     0.027 C 
BRANCH  16  17
ATOM     17  C   UNL     1      -9.653  -5.929  11.451  1.00  0.00    -0.003 A 
ATOM     18  C   UNL     1     -10.017  -6.381  12.732  1.00  0.00    -0.041 A 
ATOM     19  C   UNL     1     -10.466  -6.340  10.384  1.00  0.00     0.119 A 
ATOM     20  C   UNL     1     -11.157  -7.188  12.863  1.00  0.00     0.024 A 
ATOM     21  N   UNL     1     -11.578  -7.102  10.494  1.00  0.00    -0.264 NA
ATOM     22  C   UNL     1     -11.899  -7.506  11.736  1.00  0.00     0.111 A 
ATOM     23  C   UNL     1      -9.208  -6.063  13.958  1.00  0.00     0.045 C 
ENDBRANCH  16  17
ENDBRANCH  15  16
ENDBRANCH  13  15
ENDBRANCH   4  13
TORSDOF 8
ENDMDL
