MODEL 1
REMARK VINA RESULT:    -5.195      0.000      0.000
REMARK INTER + INTRA:          -8.107
REMARK INTER:                  -7.473
REMARK INTRA:                  -0.634
REMARK UNBOUND:                -0.634
REMARK SMILES Cc1ccncc1/C=C/Nc1ccc(CCCN)cc1
REMARK SMILES IDX 14 1 13 2 12 3 11 4 20 5 19 6 15 7 16 8 17 9 18 10 10 13
REMARK SMILES IDX 9 15 8 16 7 17 2 18 6 19 3 20 5 21 4 22 1 23
REMARK H PARENT 18 11 18 12 10 14
ROOT
ATOM      1  C   UNL     1       1.149 -10.524 -12.600  1.00  0.00    -0.048 A 
ATOM      2  C   UNL     1       1.166 -11.654 -11.780  1.00  0.00     0.006 A 
ATOM      3  C   UNL     1       0.980 -11.537 -10.406  1.00  0.00     0.026 A 
ATOM      4  C   UNL     1       0.849 -10.291  -9.788  1.00  0.00     0.038 A 
ATOM      5  C   UNL     1       0.888  -9.153 -10.603  1.00  0.00     0.026 A 
ATOM      6  C   UNL     1       1.037  -9.267 -11.993  1.00  0.00     0.006 A 
ENDROOT
BRANCH   1   7
ATOM      7  C   UNL     1       1.248 -10.646 -14.100  1.00  0.00     0.037 C 
BRANCH   7   8
ATOM      8  C   UNL     1       2.502 -10.044 -14.763  1.00  0.00     0.020 C 
BRANCH   8   9
ATOM      9  C   UNL     1       3.698 -10.993 -14.927  1.00  0.00     0.078 C 
BRANCH   9  10
ATOM     10  N   UNL     1       4.871 -10.647 -14.137  1.00  0.00    -0.330 NA
ATOM     11  H   UNL     1       4.776 -11.014 -13.191  1.00  0.00     0.118 HD
ATOM     12  H   UNL     1       4.938  -9.634 -14.032  1.00  0.00     0.118 HD
ENDBRANCH   9  10
ENDBRANCH   8   9
ENDBRANCH   7   8
ENDBRANCH   1   7
BRANCH   4  13
ATOM     13  N   UNL     1       0.780 -10.157  -8.388  1.00  0.00    -0.362 N 
ATOM     14  H   UNL     1       0.036 -10.658  -7.920  1.00  0.00     0.166 HD
BRANCH  13  15
ATOM     15  C   UNL     1       1.463  -9.221  -7.657  1.00  0.00     0.083 C 
BRANCH  15  16
ATOM     16  C   UNL     1       1.358  -8.925  -6.355  1.00  0.00     0.027 C 
BRANCH  16  17
ATOM     17  C   UNL     1       1.656  -7.574  -5.854  1.00  0.00    -0.003 A 
ATOM     18  C   UNL     1       0.924  -6.978  -4.812  1.00  0.00    -0.041 A 
ATOM     19  C   UNL     1       2.673  -6.800  -6.433  1.00  0.00     0.119 A 
ATOM     20  C   UNL     1       1.259  -5.675  -4.413  1.00  0.00     0.024 A 
ATOM     21  N   UNL     1       3.021  -5.550  -6.048  1.00  0.00    -0.264 NA
ATOM     22  C   UNL     1       2.305  -5.018  -5.042  1.00  0.00     0.111 A 
ATOM     23  C   UNL     1      -0.227  -7.671  -4.138  1.00  0.00     0.045 C 
ENDBRANCH  16  17
ENDBRANCH  15  16
ENDBRANCH  13  15
ENDBRANCH   4  13
TORSDOF 8
ENDMDL
MODEL 2
REMARK VINA RESULT:    -5.192      4.893      6.757
REMARK INTER + INTRA:          -8.103
REMARK INTER:                  -7.467
REMARK INTRA:                  -0.636
REMARK UNBOUND:                -0.634
REMARK SMILES Cc1ccncc1/C=C/Nc1ccc(CCCN)cc1
REMARK SMILES IDX 14 1 13 2 12 3 11 4 20 5 19 6 15 7 16 8 17 9 18 10 10 13
REMARK SMILES IDX 9 15 8 16 7 17 2 18 6 19 3 20 5 21 4 22 1 23
REMARK H PARENT 18 11 18 12 10 14
ROOT
ATOM      1  C   UNL     1       5.954 -13.605  -5.481  1.00  0.00    -0.048 A 
ATOM      2  C   UNL     1       5.286 -12.768  -4.585  1.00  0.00     0.006 A 
ATOM      3  C   UNL     1       4.808 -11.527  -4.994  1.00  0.00     0.026 A 
ATOM      4  C   UNL     1       5.043 -11.040  -6.283  1.00  0.00     0.038 A 
ATOM      5  C   UNL     1       5.762 -11.854  -7.165  1.00  0.00     0.026 A 
ATOM      6  C   UNL     1       6.214 -13.123  -6.770  1.00  0.00     0.006 A 
ENDROOT
BRANCH   1   7
ATOM      7  C   UNL     1       6.388 -14.993  -5.079  1.00  0.00     0.037 C 
BRANCH   7   8
ATOM      8  C   UNL     1       5.270 -15.986  -4.706  1.00  0.00     0.020 C 
BRANCH   8   9
ATOM      9  C   UNL     1       4.786 -16.910  -5.834  1.00  0.00     0.078 C 
BRANCH   9  10
ATOM     10  N   UNL     1       3.391 -16.740  -6.212  1.00  0.00    -0.330 NA
ATOM     11  H   UNL     1       3.309 -16.025  -6.933  1.00  0.00     0.118 HD
ATOM     12  H   UNL     1       2.851 -16.392  -5.419  1.00  0.00     0.118 HD
ENDBRANCH   9  10
ENDBRANCH   8   9
ENDBRANCH   7   8
ENDBRANCH   1   7
BRANCH   4  13
ATOM     13  N   UNL     1       4.667  -9.739  -6.667  1.00  0.00    -0.362 N 
ATOM     14  H   UNL     1       5.402  -9.043  -6.694  1.00  0.00     0.166 HD
BRANCH  13  15
ATOM     15  C   UNL     1       3.375  -9.290  -6.752  1.00  0.00     0.083 C 
BRANCH  15  16
ATOM     16  C   UNL     1       2.921  -8.035  -6.861  1.00  0.00     0.027 C 
BRANCH  16  17
ATOM     17  C   UNL     1       1.867  -7.526  -5.970  1.00  0.00    -0.003 A 
ATOM     18  C   UNL     1       1.793  -6.176  -5.584  1.00  0.00    -0.041 A 
ATOM     19  C   UNL     1       0.901  -8.389  -5.432  1.00  0.00     0.119 A 
ATOM     20  C   UNL     1       0.768  -5.780  -4.712  1.00  0.00     0.024 A 
ATOM     21  N   UNL     1      -0.104  -8.021  -4.604  1.00  0.00    -0.264 NA
ATOM     22  C   UNL     1      -0.148  -6.720  -4.266  1.00  0.00     0.111 A 
ATOM     23  C   UNL     1       2.793  -5.152  -6.042  1.00  0.00     0.045 C 
ENDBRANCH  16  17
ENDBRANCH  15  16
ENDBRANCH  13  15
ENDBRANCH   4  13
TORSDOF 8
ENDMDL
MODEL 3
REMARK VINA RESULT:    -5.106      4.939      6.590
REMARK INTER + INTRA:          -7.979
REMARK INTER:                  -7.317
REMARK INTRA:                  -0.662
REMARK UNBOUND:                -0.634
REMARK SMILES Cc1ccncc1/C=C/Nc1ccc(CCCN)cc1
REMARK SMILES IDX 14 1 13 2 12 3 11 4 20 5 19 6 15 7 16 8 17 9 18 10 10 13
REMARK SMILES IDX 9 15 8 16 7 17 2 18 6 19 3 20 5 21 4 22 1 23
REMARK H PARENT 18 11 18 12 10 14
ROOT
ATOM      1  C   UNL     1       6.100 -13.901  -5.658  1.00  0.00    -0.048 A 
ATOM      2  C   UNL     1       6.237 -13.323  -6.922  1.00  0.00     0.006 A 
ATOM      3  C   UNL     1       5.784 -12.029  -7.165  1.00  0.00     0.026 A 
ATOM      4  C   UNL     1       5.110 -11.294  -6.187  1.00  0.00     0.038 A 
ATOM      5  C   UNL     1       4.921 -11.894  -4.936  1.00  0.00     0.026 A 
ATOM      6  C   UNL     1       5.410 -13.183  -4.674  1.00  0.00     0.006 A 
ENDROOT
BRANCH   1   7
ATOM      7  C   UNL     1       6.677 -15.261  -5.355  1.00  0.00     0.037 C 
BRANCH   7   8
ATOM      8  C   UNL     1       5.678 -16.361  -4.947  1.00  0.00     0.020 C 
BRANCH   8   9
ATOM      9  C   UNL     1       4.922 -17.044  -6.096  1.00  0.00     0.078 C 
BRANCH   9  10
ATOM     10  N   UNL     1       3.510 -16.705  -6.191  1.00  0.00    -0.330 NA
ATOM     11  H   UNL     1       3.392 -15.693  -6.169  1.00  0.00     0.118 HD
ATOM     12  H   UNL     1       3.007 -17.057  -5.376  1.00  0.00     0.118 HD
ENDBRANCH   9  10
ENDBRANCH   8   9
ENDBRANCH   7   8
ENDBRANCH   1   7
BRANCH   4  13
ATOM     13  N   UNL     1       4.544 -10.034  -6.460  1.00  0.00    -0.362 N 
ATOM     14  H   UNL     1       5.003  -9.231  -6.048  1.00  0.00     0.166 HD
BRANCH  13  15
ATOM     15  C   UNL     1       3.306  -9.835  -7.011  1.00  0.00     0.083 C 
BRANCH  15  16
ATOM     16  C   UNL     1       2.298  -9.071  -6.571  1.00  0.00     0.027 C 
BRANCH  16  17
ATOM     17  C   UNL     1       2.474  -7.626  -6.359  1.00  0.00    -0.003 A 
ATOM     18  C   UNL     1       1.639  -6.881  -5.507  1.00  0.00    -0.041 A 
ATOM     19  C   UNL     1       3.474  -6.915  -7.040  1.00  0.00     0.119 A 
ATOM     20  C   UNL     1       1.862  -5.502  -5.382  1.00  0.00     0.024 A 
ATOM     21  N   UNL     1       3.714  -5.589  -6.917  1.00  0.00    -0.264 NA
ATOM     22  C   UNL     1       2.901  -4.914  -6.085  1.00  0.00     0.111 A 
ATOM     23  C   UNL     1       0.494  -7.503  -4.758  1.00  0.00     0.045 C 
ENDBRANCH  16  17
ENDBRANCH  15  16
ENDBRANCH  13  15
ENDBRANCH   4  13
TORSDOF 8
ENDMDL
MODEL 4
REMARK VINA RESULT:    -5.002      4.521      8.528
REMARK INTER + INTRA:          -7.829
REMARK INTER:                  -7.286
REMARK INTRA:                  -0.543
REMARK UNBOUND:                -0.634
REMARK SMILES Cc1ccncc1/C=C/Nc1ccc(CCCN)cc1
REMARK SMILES IDX 14 1 13 2 12 3 11 4 20 5 19 6 15 7 16 8 17 9 18 10 10 13
REMARK SMILES IDX 9 15 8 16 7 17 2 18 6 19 3 20 5 21 4 22 1 23
REMARK H PARENT 18 11 18 12 10 14
ROOT
ATOM      1  C   UNL     1       1.112  -6.943  -5.851  1.00  0.00    -0.048 A 
ATOM      2  C   UNL     1       2.419  -6.727  -6.292  1.00  0.00     0.006 A 
ATOM      3  C   UNL     1       3.191  -7.781  -6.770  1.00  0.00     0.026 A 
ATOM      4  C   UNL     1       2.723  -9.098  -6.755  1.00  0.00     0.038 A 
ATOM      5  C   UNL     1       1.433  -9.324  -6.260  1.00  0.00     0.026 A 
ATOM      6  C   UNL     1       0.636  -8.259  -5.812  1.00  0.00     0.006 A 
ENDROOT
BRANCH   1   7
ATOM      7  C   UNL     1       0.231  -5.795  -5.426  1.00  0.00     0.037 C 
BRANCH   7   8
ATOM      8  C   UNL     1      -0.698  -6.045  -4.223  1.00  0.00     0.020 C 
BRANCH   8   9
ATOM      9  C   UNL     1      -2.157  -5.596  -4.394  1.00  0.00     0.078 C 
BRANCH   9  10
ATOM     10  N   UNL     1      -2.367  -4.156  -4.344  1.00  0.00    -0.330 NA
ATOM     11  H   UNL     1      -1.743  -3.689  -5.000  1.00  0.00     0.118 HD
ATOM     12  H   UNL     1      -2.115  -3.795  -3.423  1.00  0.00     0.118 HD
ENDBRANCH   9  10
ENDBRANCH   8   9
ENDBRANCH   7   8
ENDBRANCH   1   7
BRANCH   4  13
ATOM     13  N   UNL     1       3.540 -10.183  -7.125  1.00  0.00    -0.362 N 
ATOM     14  H   UNL     1       3.403 -10.558  -8.055  1.00  0.00     0.166 HD
BRANCH  13  15
ATOM     15  C   UNL     1       4.304 -10.919  -6.258  1.00  0.00     0.083 C 
BRANCH  15  16
ATOM     16  C   UNL     1       5.580 -11.309  -6.377  1.00  0.00     0.027 C 
BRANCH  16  17
ATOM     17  C   UNL     1       5.928 -12.588  -7.015  1.00  0.00    -0.003 A 
ATOM     18  C   UNL     1       6.308 -13.721  -6.275  1.00  0.00    -0.041 A 
ATOM     19  C   UNL     1       5.933 -12.717  -8.412  1.00  0.00     0.119 A 
ATOM     20  C   UNL     1       6.648 -14.894  -6.966  1.00  0.00     0.024 A 
ATOM     21  N   UNL     1       6.240 -13.845  -9.094  1.00  0.00    -0.264 NA
ATOM     22  C   UNL     1       6.589 -14.910  -8.351  1.00  0.00     0.111 A 
ATOM     23  C   UNL     1       6.399 -13.709  -4.775  1.00  0.00     0.045 C 
ENDBRANCH  16  17
ENDBRANCH  15  16
ENDBRANCH  13  15
ENDBRANCH   4  13
TORSDOF 8
ENDMDL
MODEL 5
REMARK VINA RESULT:    -4.926      1.343      2.204
REMARK INTER + INTRA:          -7.719
REMARK INTER:                  -7.058
REMARK INTRA:                  -0.662
REMARK UNBOUND:                -0.634
REMARK SMILES Cc1ccncc1/C=C/Nc1ccc(CCCN)cc1
REMARK SMILES IDX 14 1 13 2 12 3 11 4 20 5 19 6 15 7 16 8 17 9 18 10 10 13
REMARK SMILES IDX 9 15 8 16 7 17 2 18 6 19 3 20 5 21 4 22 1 23
REMARK H PARENT 18 11 18 12 10 14
ROOT
ATOM      1  C   UNL     1       1.167 -11.093 -12.755  1.00  0.00    -0.048 A 
ATOM      2  C   UNL     1       0.926  -9.747 -12.472  1.00  0.00     0.006 A 
ATOM      3  C   UNL     1       0.911  -9.289 -11.157  1.00  0.00     0.026 A 
ATOM      4  C   UNL     1       1.057 -10.162 -10.076  1.00  0.00     0.038 A 
ATOM      5  C   UNL     1       1.242 -11.521 -10.357  1.00  0.00     0.026 A 
ATOM      6  C   UNL     1       1.296 -11.982 -11.681  1.00  0.00     0.006 A 
ENDROOT
BRANCH   1   7
ATOM      7  C   UNL     1       1.286 -11.583 -14.176  1.00  0.00     0.037 C 
BRANCH   7   8
ATOM      8  C   UNL     1       2.691 -12.007 -14.647  1.00  0.00     0.020 C 
BRANCH   8   9
ATOM      9  C   UNL     1       3.653 -10.866 -15.008  1.00  0.00     0.078 C 
BRANCH   9  10
ATOM     10  N   UNL     1       4.824 -10.754 -14.151  1.00  0.00    -0.330 NA
ATOM     11  H   UNL     1       5.134 -11.680 -13.861  1.00  0.00     0.118 HD
ATOM     12  H   UNL     1       4.583 -10.264 -13.288  1.00  0.00     0.118 HD
ENDBRANCH   9  10
ENDBRANCH   8   9
ENDBRANCH   7   8
ENDBRANCH   1   7
BRANCH   4  13
ATOM     13  N   UNL     1       0.925  -9.725  -8.744  1.00  0.00    -0.362 N 
ATOM     14  H   UNL     1       0.055  -9.268  -8.501  1.00  0.00     0.166 HD
BRANCH  13  15
ATOM     15  C   UNL     1       1.953  -9.639  -7.843  1.00  0.00     0.083 C 
BRANCH  15  16
ATOM     16  C   UNL     1       2.277  -8.630  -7.024  1.00  0.00     0.027 C 
BRANCH  16  17
ATOM     17  C   UNL     1       1.357  -8.180  -5.968  1.00  0.00    -0.003 A 
ATOM     18  C   UNL     1       1.393  -6.877  -5.441  1.00  0.00    -0.041 A 
ATOM     19  C   UNL     1       0.416  -9.059  -5.411  1.00  0.00     0.119 A 
ATOM     20  C   UNL     1       0.494  -6.538  -4.419  1.00  0.00     0.024 A 
ATOM     21  N   UNL     1      -0.470  -8.744  -4.437  1.00  0.00    -0.264 NA
ATOM     22  C   UNL     1      -0.410  -7.485  -3.966  1.00  0.00     0.111 A 
ATOM     23  C   UNL     1       2.385  -5.848  -5.907  1.00  0.00     0.045 C 
ENDBRANCH  16  17
ENDBRANCH  15  16
ENDBRANCH  13  15
ENDBRANCH   4  13
TORSDOF 8
ENDMDL
MODEL 6
REMARK VINA RESULT:    -4.917      4.567      8.522
REMARK INTER + INTRA:          -7.706
REMARK INTER:                  -7.188
REMARK INTRA:                  -0.519
REMARK UNBOUND:                -0.634
REMARK SMILES Cc1ccncc1/C=C/Nc1ccc(CCCN)cc1
REMARK SMILES IDX 14 1 13 2 12 3 11 4 20 5 19 6 15 7 16 8 17 9 18 10 10 13
REMARK SMILES IDX 9 15 8 16 7 17 2 18 6 19 3 20 5 21 4 22 1 23
REMARK H PARENT 18 11 18 12 10 14
ROOT
ATOM      1  C   UNL     1       1.633  -6.034  -5.658  1.00  0.00    -0.048 A 
ATOM      2  C   UNL     1       2.837  -6.106  -6.361  1.00  0.00     0.006 A 
ATOM      3  C   UNL     1       3.271  -7.311  -6.906  1.00  0.00     0.026 A 
ATOM      4  C   UNL     1       2.567  -8.501  -6.706  1.00  0.00     0.038 A 
ATOM      5  C   UNL     1       1.388  -8.441  -5.953  1.00  0.00     0.026 A 
ATOM      6  C   UNL     1       0.926  -7.222  -5.433  1.00  0.00     0.006 A 
ENDROOT
BRANCH   1   7
ATOM      7  C   UNL     1       1.103  -4.717  -5.150  1.00  0.00     0.037 C 
BRANCH   7   8
ATOM      8  C   UNL     1       1.415  -4.365  -3.683  1.00  0.00     0.020 C 
BRANCH   8   9
ATOM      9  C   UNL     1       2.903  -4.251  -3.319  1.00  0.00     0.078 C 
BRANCH   9  10
ATOM     10  N   UNL     1       3.531  -2.989  -3.683  1.00  0.00    -0.330 NA
ATOM     11  H   UNL     1       4.244  -3.146  -4.393  1.00  0.00     0.118 HD
ATOM     12  H   UNL     1       4.025  -2.598  -2.880  1.00  0.00     0.118 HD
ENDBRANCH   9  10
ENDBRANCH   8   9
ENDBRANCH   7   8
ENDBRANCH   1   7
BRANCH   4  13
ATOM     13  N   UNL     1       3.060  -9.742  -7.152  1.00  0.00    -0.362 N 
ATOM     14  H   UNL     1       2.639 -10.124  -7.990  1.00  0.00     0.166 HD
BRANCH  13  15
ATOM     15  C   UNL     1       3.862 -10.575  -6.417  1.00  0.00     0.083 C 
BRANCH  15  16
ATOM     16  C   UNL     1       5.138 -10.924  -6.628  1.00  0.00     0.027 C 
BRANCH  16  17
ATOM     17  C   UNL     1       5.644 -12.244  -6.222  1.00  0.00    -0.003 A 
ATOM     18  C   UNL     1       6.107 -13.192  -7.150  1.00  0.00    -0.041 A 
ATOM     19  C   UNL     1       5.649 -12.628  -4.872  1.00  0.00     0.119 A 
ATOM     20  C   UNL     1       6.550 -14.437  -6.678  1.00  0.00     0.024 A 
ATOM     21  N   UNL     1       6.090 -13.816  -4.398  1.00  0.00    -0.264 NA
ATOM     22  C   UNL     1       6.534 -14.693  -5.316  1.00  0.00     0.111 A 
ATOM     23  C   UNL     1       6.107 -12.935  -8.631  1.00  0.00     0.045 C 
ENDBRANCH  16  17
ENDBRANCH  15  16
ENDBRANCH  13  15
ENDBRANCH   4  13
TORSDOF 8
ENDMDL
MODEL 7
REMARK VINA RESULT:    -4.870      1.839      8.617
REMARK INTER + INTRA:          -7.639
REMARK INTER:                  -7.105
REMARK INTRA:                  -0.534
REMARK UNBOUND:                -0.634
REMARK SMILES Cc1ccncc1/C=C/Nc1ccc(CCCN)cc1
REMARK SMILES IDX 14 1 13 2 12 3 11 4 20 5 19 6 15 7 16 8 17 9 18 10 10 13
REMARK SMILES IDX 9 15 8 16 7 17 2 18 6 19 3 20 5 21 4 22 1 23
REMARK H PARENT 18 11 18 12 10 14
ROOT
ATOM      1  C   UNL     1       1.903  -7.301  -5.328  1.00  0.00    -0.048 A 
ATOM      2  C   UNL     1       0.921  -8.285  -5.462  1.00  0.00     0.006 A 
ATOM      3  C   UNL     1       0.986  -9.219  -6.492  1.00  0.00     0.026 A 
ATOM      4  C   UNL     1       1.983  -9.162  -7.469  1.00  0.00     0.038 A 
ATOM      5  C   UNL     1       2.936  -8.142  -7.369  1.00  0.00     0.026 A 
ATOM      6  C   UNL     1       2.897  -7.221  -6.311  1.00  0.00     0.006 A 
ENDROOT
BRANCH   1   7
ATOM      7  C   UNL     1       1.898  -6.348  -4.160  1.00  0.00     0.037 C 
BRANCH   7   8
ATOM      8  C   UNL     1       2.333  -4.898  -4.448  1.00  0.00     0.020 C 
BRANCH   8   9
ATOM      9  C   UNL     1       3.127  -4.199  -3.335  1.00  0.00     0.078 C 
BRANCH   9  10
ATOM     10  N   UNL     1       3.667  -2.894  -3.690  1.00  0.00    -0.330 NA
ATOM     11  H   UNL     1       4.365  -2.994  -4.425  1.00  0.00     0.118 HD
ATOM     12  H   UNL     1       4.163  -2.491  -2.895  1.00  0.00     0.118 HD
ENDBRANCH   9  10
ENDBRANCH   8   9
ENDBRANCH   7   8
ENDBRANCH   1   7
BRANCH   4  13
ATOM     13  N   UNL     1       1.988 -10.029  -8.579  1.00  0.00    -0.362 N 
ATOM     14  H   UNL     1       2.892 -10.347  -8.903  1.00  0.00     0.166 HD
BRANCH  13  15
ATOM     15  C   UNL     1       0.912 -10.261  -9.395  1.00  0.00     0.083 C 
BRANCH  15  16
ATOM     16  C   UNL     1       0.857 -10.293 -10.733  1.00  0.00     0.027 C 
BRANCH  16  17
ATOM     17  C   UNL     1       1.263 -11.491 -11.484  1.00  0.00    -0.003 A 
ATOM     18  C   UNL     1       1.251 -11.540 -12.889  1.00  0.00    -0.041 A 
ATOM     19  C   UNL     1       1.649 -12.662 -10.815  1.00  0.00     0.119 A 
ATOM     20  C   UNL     1       1.632 -12.731 -13.525  1.00  0.00     0.024 A 
ATOM     21  N   UNL     1       2.037 -13.813 -11.413  1.00  0.00    -0.264 NA
ATOM     22  C   UNL     1       2.021 -13.818 -12.758  1.00  0.00     0.111 A 
ATOM     23  C   UNL     1       0.808 -10.377 -13.731  1.00  0.00     0.045 C 
ENDBRANCH  16  17
ENDBRANCH  15  16
ENDBRANCH  13  15
ENDBRANCH   4  13
TORSDOF 8
ENDMDL
MODEL 8
REMARK VINA RESULT:    -4.779      2.116      8.604
REMARK INTER + INTRA:          -7.508
REMARK INTER:                  -7.096
REMARK INTRA:                  -0.412
REMARK UNBOUND:                -0.634
REMARK SMILES Cc1ccncc1/C=C/Nc1ccc(CCCN)cc1
REMARK SMILES IDX 14 1 13 2 12 3 11 4 20 5 19 6 15 7 16 8 17 9 18 10 10 13
REMARK SMILES IDX 9 15 8 16 7 17 2 18 6 19 3 20 5 21 4 22 1 23
REMARK H PARENT 18 11 18 12 10 14
ROOT
ATOM      1  C   UNL     1       0.982  -6.987  -4.792  1.00  0.00    -0.048 A 
ATOM      2  C   UNL     1       0.254  -8.177  -4.854  1.00  0.00     0.006 A 
ATOM      3  C   UNL     1       0.592  -9.169  -5.771  1.00  0.00     0.026 A 
ATOM      4  C   UNL     1       1.611  -8.983  -6.708  1.00  0.00     0.038 A 
ATOM      5  C   UNL     1       2.304  -7.767  -6.684  1.00  0.00     0.026 A 
ATOM      6  C   UNL     1       1.994  -6.779  -5.737  1.00  0.00     0.006 A 
ENDROOT
BRANCH   1   7
ATOM      7  C   UNL     1       0.690  -5.948  -3.737  1.00  0.00     0.037 C 
BRANCH   7   8
ATOM      8  C   UNL     1      -0.346  -4.867  -4.099  1.00  0.00     0.020 C 
BRANCH   8   9
ATOM      9  C   UNL     1      -1.709  -5.378  -4.590  1.00  0.00     0.078 C 
BRANCH   9  10
ATOM     10  N   UNL     1      -2.748  -5.434  -3.572  1.00  0.00    -0.330 NA
ATOM     11  H   UNL     1      -3.550  -5.958  -3.921  1.00  0.00     0.118 HD
ATOM     12  H   UNL     1      -3.099  -4.497  -3.376  1.00  0.00     0.118 HD
ENDBRANCH   9  10
ENDBRANCH   8   9
ENDBRANCH   7   8
ENDBRANCH   1   7
BRANCH   4  13
ATOM     13  N   UNL     1       1.879  -9.931  -7.714  1.00  0.00    -0.362 N 
ATOM     14  H   UNL     1       2.484 -10.702  -7.461  1.00  0.00     0.166 HD
BRANCH  13  15
ATOM     15  C   UNL     1       1.605  -9.758  -9.045  1.00  0.00     0.083 C 
BRANCH  15  16
ATOM     16  C   UNL     1       0.729 -10.411  -9.819  1.00  0.00     0.027 C 
BRANCH  16  17
ATOM     17  C   UNL     1       1.174 -11.427 -10.786  1.00  0.00    -0.003 A 
ATOM     18  C   UNL     1       1.151 -11.207 -12.174  1.00  0.00    -0.041 A 
ATOM     19  C   UNL     1       1.611 -12.688 -10.354  1.00  0.00     0.119 A 
ATOM     20  C   UNL     1       1.572 -12.240 -13.027  1.00  0.00     0.024 A 
ATOM     21  N   UNL     1       2.037 -13.688 -11.161  1.00  0.00    -0.264 NA
ATOM     22  C   UNL     1       2.009 -13.437 -12.482  1.00  0.00     0.111 A 
ATOM     23  C   UNL     1       0.657  -9.923 -12.778  1.00  0.00     0.045 C 
ENDBRANCH  16  17
ENDBRANCH  15  16
ENDBRANCH  13  15
ENDBRANCH   4  13
TORSDOF 8
ENDMDL
MODEL 9
REMARK VINA RESULT:    -4.776      2.017      8.561
REMARK INTER + INTRA:          -7.503
REMARK INTER:                  -6.906
REMARK INTRA:                  -0.597
REMARK UNBOUND:                -0.634
REMARK SMILES Cc1ccncc1/C=C/Nc1ccc(CCCN)cc1
REMARK SMILES IDX 14 1 13 2 12 3 11 4 20 5 19 6 15 7 16 8 17 9 18 10 10 13
REMARK SMILES IDX 9 15 8 16 7 17 2 18 6 19 3 20 5 21 4 22 1 23
REMARK H PARENT 18 11 18 12 10 14
ROOT
ATOM      1  C   UNL     1       0.936  -7.392  -4.839  1.00  0.00    -0.048 A 
ATOM      2  C   UNL     1       0.297  -8.605  -5.102  1.00  0.00     0.006 A 
ATOM      3  C   UNL     1       0.745  -9.437  -6.124  1.00  0.00     0.026 A 
ATOM      4  C   UNL     1       1.792  -9.061  -6.969  1.00  0.00     0.038 A 
ATOM      5  C   UNL     1       2.397  -7.819  -6.743  1.00  0.00     0.026 A 
ATOM      6  C   UNL     1       1.975  -6.993  -5.690  1.00  0.00     0.006 A 
ENDROOT
BRANCH   1   7
ATOM      7  C   UNL     1       0.525  -6.529  -3.673  1.00  0.00     0.037 C 
BRANCH   7   8
ATOM      8  C   UNL     1      -0.232  -5.229  -4.007  1.00  0.00     0.020 C 
BRANCH   8   9
ATOM      9  C   UNL     1      -1.724  -5.384  -4.337  1.00  0.00     0.078 C 
BRANCH   9  10
ATOM     10  N   UNL     1      -2.489  -4.145  -4.327  1.00  0.00    -0.330 NA
ATOM     11  H   UNL     1      -3.465  -4.336  -4.546  1.00  0.00     0.118 HD
ATOM     12  H   UNL     1      -2.159  -3.522  -5.065  1.00  0.00     0.118 HD
ENDBRANCH   9  10
ENDBRANCH   8   9
ENDBRANCH   7   8
ENDBRANCH   1   7
BRANCH   4  13
ATOM     13  N   UNL     1       2.172  -9.843  -8.077  1.00  0.00    -0.362 N 
ATOM     14  H   UNL     1       3.072 -10.303  -8.020  1.00  0.00     0.166 HD
BRANCH  13  15
ATOM     15  C   UNL     1       1.554  -9.821  -9.299  1.00  0.00     0.083 C 
BRANCH  15  16
ATOM     16  C   UNL     1       0.882 -10.796  -9.924  1.00  0.00     0.027 C 
BRANCH  16  17
ATOM     17  C   UNL     1       1.047 -11.031 -11.367  1.00  0.00    -0.003 A 
ATOM     18  C   UNL     1       1.533 -12.245 -11.883  1.00  0.00    -0.041 A 
ATOM     19  C   UNL     1       0.756 -10.022 -12.298  1.00  0.00     0.119 A 
ATOM     20  C   UNL     1       1.681 -12.376 -13.272  1.00  0.00     0.024 A 
ATOM     21  N   UNL     1       0.877 -10.138 -13.641  1.00  0.00    -0.264 NA
ATOM     22  C   UNL     1       1.336 -11.317 -14.096  1.00  0.00     0.111 A 
ATOM     23  C   UNL     1       1.933 -13.392 -10.998  1.00  0.00     0.045 C 
ENDBRANCH  16  17
ENDBRANCH  15  16
ENDBRANCH  13  15
ENDBRANCH   4  13
TORSDOF 8
ENDMDL
