MODEL 1
REMARK VINA RESULT:    -5.087      0.000      0.000
REMARK INTER + INTRA:          -8.064
REMARK INTER:                  -7.317
REMARK INTRA:                  -0.746
REMARK UNBOUND:                -0.746
REMARK SMILES Cc1ccncc1/C=C/Nc1ccc(CCCN)cc1
REMARK SMILES IDX 14 1 13 2 12 3 11 4 20 5 19 6 15 7 16 8 17 9 18 10 10 13
REMARK SMILES IDX 9 15 8 16 7 17 2 18 6 19 3 20 5 21 4 22 1 23
REMARK H PARENT 18 11 18 12 10 14
ROOT
ATOM      1  C   UNL     1       6.090  12.275  -5.813  1.00  0.00    -0.048 A 
ATOM      2  C   UNL     1       5.141  13.149  -5.279  1.00  0.00     0.006 A 
ATOM      3  C   UNL     1       4.119  12.675  -4.461  1.00  0.00     0.026 A 
ATOM      4  C   UNL     1       3.958  11.311  -4.208  1.00  0.00     0.038 A 
ATOM      5  C   UNL     1       4.876  10.427  -4.789  1.00  0.00     0.026 A 
ATOM      6  C   UNL     1       5.930  10.903  -5.583  1.00  0.00     0.006 A 
ENDROOT
BRANCH   1   7
ATOM      7  C   UNL     1       7.258  12.788  -6.617  1.00  0.00     0.037 C 
BRANCH   7   8
ATOM      8  C   UNL     1       7.453  12.181  -8.020  1.00  0.00     0.020 C 
BRANCH   8   9
ATOM      9  C   UNL     1       6.832  12.965  -9.186  1.00  0.00     0.078 C 
BRANCH   9  10
ATOM     10  N   UNL     1       5.497  12.534  -9.576  1.00  0.00    -0.330 NA
ATOM     11  H   UNL     1       4.815  13.251  -9.333  1.00  0.00     0.118 HD
ATOM     12  H   UNL     1       5.225  11.707  -9.044  1.00  0.00     0.118 HD
ENDBRANCH   9  10
ENDBRANCH   8   9
ENDBRANCH   7   8
ENDBRANCH   1   7
BRANCH   4  13
ATOM     13  N   UNL     1       2.860  10.813  -3.480  1.00  0.00    -0.362 N 
ATOM     14  H   UNL     1       2.945  10.815  -2.471  1.00  0.00     0.166 HD
BRANCH  13  15
ATOM     15  C   UNL     1       1.819  10.105  -4.020  1.00  0.00     0.083 C 
BRANCH  15  16
ATOM     16  C   UNL     1       0.999   9.225  -3.431  1.00  0.00     0.027 C 
BRANCH  16  17
ATOM     17  C   UNL     1       1.004   7.805  -3.813  1.00  0.00    -0.003 A 
ATOM     18  C   UNL     1       0.924   6.769  -2.866  1.00  0.00    -0.041 A 
ATOM     19  C   UNL     1       1.128   7.422  -5.157  1.00  0.00     0.119 A 
ATOM     20  C   UNL     1       0.959   5.440  -3.315  1.00  0.00     0.024 A 
ATOM     21  N   UNL     1       1.146   6.146  -5.609  1.00  0.00    -0.264 NA
ATOM     22  C   UNL     1       1.058   5.184  -4.674  1.00  0.00     0.111 A 
ATOM     23  C   UNL     1       0.841   7.034  -1.388  1.00  0.00     0.045 C 
ENDBRANCH  16  17
ENDBRANCH  15  16
ENDBRANCH  13  15
ENDBRANCH   4  13
TORSDOF 8
ENDMDL
MODEL 2
REMARK VINA RESULT:    -5.062      4.847      6.888
REMARK INTER + INTRA:          -8.028
REMARK INTER:                  -7.405
REMARK INTRA:                  -0.623
REMARK UNBOUND:                -0.746
REMARK SMILES Cc1ccncc1/C=C/Nc1ccc(CCCN)cc1
REMARK SMILES IDX 14 1 13 2 12 3 11 4 20 5 19 6 15 7 16 8 17 9 18 10 10 13
REMARK SMILES IDX 9 15 8 16 7 17 2 18 6 19 3 20 5 21 4 22 1 23
REMARK H PARENT 18 11 18 12 10 14
ROOT
ATOM      1  C   UNL     1      -3.023  13.374  -5.349  1.00  0.00    -0.048 A 
ATOM      2  C   UNL     1      -3.164  12.282  -4.489  1.00  0.00     0.006 A 
ATOM      3  C   UNL     1      -2.263  11.222  -4.534  1.00  0.00     0.026 A 
ATOM      4  C   UNL     1      -1.239  11.171  -5.483  1.00  0.00     0.038 A 
ATOM      5  C   UNL     1      -1.131  12.238  -6.383  1.00  0.00     0.026 A 
ATOM      6  C   UNL     1      -2.013  13.328  -6.318  1.00  0.00     0.006 A 
ENDROOT
BRANCH   1   7
ATOM      7  C   UNL     1      -3.931  14.573  -5.242  1.00  0.00     0.037 C 
BRANCH   7   8
ATOM      8  C   UNL     1      -3.773  15.451  -3.986  1.00  0.00     0.020 C 
BRANCH   8   9
ATOM      9  C   UNL     1      -2.809  16.640  -4.112  1.00  0.00     0.078 C 
BRANCH   9  10
ATOM     10  N   UNL     1      -1.701  16.637  -3.167  1.00  0.00    -0.330 NA
ATOM     11  H   UNL     1      -2.051  16.770  -2.219  1.00  0.00     0.118 HD
ATOM     12  H   UNL     1      -1.085  17.430  -3.345  1.00  0.00     0.118 HD
ENDBRANCH   9  10
ENDBRANCH   8   9
ENDBRANCH   7   8
ENDBRANCH   1   7
BRANCH   4  13
ATOM     13  N   UNL     1      -0.399  10.049  -5.612  1.00  0.00    -0.362 N 
ATOM     14  H   UNL     1      -0.520   9.483  -6.442  1.00  0.00     0.166 HD
BRANCH  13  15
ATOM     15  C   UNL     1       0.371   9.528  -4.605  1.00  0.00     0.083 C 
BRANCH  15  16
ATOM     16  C   UNL     1       1.008   8.351  -4.551  1.00  0.00     0.027 C 
BRANCH  16  17
ATOM     17  C   UNL     1       1.034   7.554  -3.315  1.00  0.00    -0.003 A 
ATOM     18  C   UNL     1       1.098   6.150  -3.323  1.00  0.00    -0.041 A 
ATOM     19  C   UNL     1       0.955   8.174  -2.058  1.00  0.00     0.119 A 
ATOM     20  C   UNL     1       1.094   5.467  -2.098  1.00  0.00     0.024 A 
ATOM     21  N   UNL     1       0.968   7.532  -0.866  1.00  0.00    -0.264 NA
ATOM     22  C   UNL     1       1.040   6.190  -0.916  1.00  0.00     0.111 A 
ATOM     23  C   UNL     1       1.132   5.354  -4.598  1.00  0.00     0.045 C 
ENDBRANCH  16  17
ENDBRANCH  15  16
ENDBRANCH  13  15
ENDBRANCH   4  13
TORSDOF 8
ENDMDL
MODEL 3
REMARK VINA RESULT:    -4.864      2.009      8.478
REMARK INTER + INTRA:          -7.743
REMARK INTER:                  -7.198
REMARK INTRA:                  -0.545
REMARK UNBOUND:                -0.746
REMARK SMILES Cc1ccncc1/C=C/Nc1ccc(CCCN)cc1
REMARK SMILES IDX 14 1 13 2 12 3 11 4 20 5 19 6 15 7 16 8 17 9 18 10 10 13
REMARK SMILES IDX 9 15 8 16 7 17 2 18 6 19 3 20 5 21 4 22 1 23
REMARK H PARENT 18 11 18 12 10 14
ROOT
ATOM      1  C   UNL     1       0.415   7.010  -2.965  1.00  0.00    -0.048 A 
ATOM      2  C   UNL     1       0.832   8.017  -2.092  1.00  0.00     0.006 A 
ATOM      3  C   UNL     1       1.418   9.182  -2.579  1.00  0.00     0.026 A 
ATOM      4  C   UNL     1       1.683   9.354  -3.940  1.00  0.00     0.038 A 
ATOM      5  C   UNL     1       1.318   8.321  -4.811  1.00  0.00     0.026 A 
ATOM      6  C   UNL     1       0.691   7.161  -4.330  1.00  0.00     0.006 A 
ENDROOT
BRANCH   1   7
ATOM      7  C   UNL     1      -0.312   5.790  -2.459  1.00  0.00     0.037 C 
BRANCH   7   8
ATOM      8  C   UNL     1       0.109   4.434  -3.059  1.00  0.00     0.020 C 
BRANCH   8   9
ATOM      9  C   UNL     1      -0.990   3.652  -3.792  1.00  0.00     0.078 C 
BRANCH   9  10
ATOM     10  N   UNL     1      -1.740   2.720  -2.962  1.00  0.00    -0.330 NA
ATOM     11  H   UNL     1      -1.110   2.029  -2.558  1.00  0.00     0.118 HD
ATOM     12  H   UNL     1      -2.397   2.189  -3.535  1.00  0.00     0.118 HD
ENDBRANCH   9  10
ENDBRANCH   8   9
ENDBRANCH   7   8
ENDBRANCH   1   7
BRANCH   4  13
ATOM     13  N   UNL     1       2.382  10.476  -4.426  1.00  0.00    -0.362 N 
ATOM     14  H   UNL     1       2.076  10.852  -5.314  1.00  0.00     0.166 HD
BRANCH  13  15
ATOM     15  C   UNL     1       3.578  10.926  -3.932  1.00  0.00     0.083 C 
BRANCH  15  16
ATOM     16  C   UNL     1       4.673  11.319  -4.597  1.00  0.00     0.027 C 
BRANCH  16  17
ATOM     17  C   UNL     1       4.795  12.688  -5.122  1.00  0.00    -0.003 A 
ATOM     18  C   UNL     1       5.927  13.125  -5.832  1.00  0.00    -0.041 A 
ATOM     19  C   UNL     1       3.786  13.637  -4.897  1.00  0.00     0.119 A 
ATOM     20  C   UNL     1       5.971  14.455  -6.276  1.00  0.00     0.024 A 
ATOM     21  N   UNL     1       3.805  14.919  -5.334  1.00  0.00    -0.264 NA
ATOM     22  C   UNL     1       4.900  15.296  -6.018  1.00  0.00     0.111 A 
ATOM     23  C   UNL     1       7.105  12.231  -6.098  1.00  0.00     0.045 C 
ENDBRANCH  16  17
ENDBRANCH  15  16
ENDBRANCH  13  15
ENDBRANCH   4  13
TORSDOF 8
ENDMDL
MODEL 4
REMARK VINA RESULT:    -4.864      4.453      6.678
REMARK INTER + INTRA:          -7.742
REMARK INTER:                  -7.087
REMARK INTRA:                  -0.656
REMARK UNBOUND:                -0.746
REMARK SMILES Cc1ccncc1/C=C/Nc1ccc(CCCN)cc1
REMARK SMILES IDX 14 1 13 2 12 3 11 4 20 5 19 6 15 7 16 8 17 9 18 10 10 13
REMARK SMILES IDX 9 15 8 16 7 17 2 18 6 19 3 20 5 21 4 22 1 23
REMARK H PARENT 18 11 18 12 10 14
ROOT
ATOM      1  C   UNL     1      -2.981  13.375  -5.436  1.00  0.00    -0.048 A 
ATOM      2  C   UNL     1      -3.143  12.342  -4.510  1.00  0.00     0.006 A 
ATOM      3  C   UNL     1      -2.231  11.292  -4.451  1.00  0.00     0.026 A 
ATOM      4  C   UNL     1      -1.172  11.190  -5.356  1.00  0.00     0.038 A 
ATOM      5  C   UNL     1      -1.042  12.195  -6.322  1.00  0.00     0.026 A 
ATOM      6  C   UNL     1      -1.936  13.276  -6.362  1.00  0.00     0.006 A 
ENDROOT
BRANCH   1   7
ATOM      7  C   UNL     1      -3.904  14.567  -5.443  1.00  0.00     0.037 C 
BRANCH   7   8
ATOM      8  C   UNL     1      -4.082  15.313  -4.107  1.00  0.00     0.020 C 
BRANCH   8   9
ATOM      9  C   UNL     1      -3.230  16.577  -3.922  1.00  0.00     0.078 C 
BRANCH   9  10
ATOM     10  N   UNL     1      -2.047  16.405  -3.091  1.00  0.00    -0.330 NA
ATOM     11  H   UNL     1      -1.377  17.149  -3.280  1.00  0.00     0.118 HD
ATOM     12  H   UNL     1      -1.569  15.538  -3.335  1.00  0.00     0.118 HD
ENDBRANCH   9  10
ENDBRANCH   8   9
ENDBRANCH   7   8
ENDBRANCH   1   7
BRANCH   4  13
ATOM     13  N   UNL     1      -0.317  10.071  -5.379  1.00  0.00    -0.362 N 
ATOM     14  H   UNL     1      -0.656   9.250  -5.862  1.00  0.00     0.166 HD
BRANCH  13  15
ATOM     15  C   UNL     1       0.798   9.923  -4.596  1.00  0.00     0.083 C 
BRANCH  15  16
ATOM     16  C   UNL     1       1.004   9.090  -3.568  1.00  0.00     0.027 C 
BRANCH  16  17
ATOM     17  C   UNL     1       0.972   7.631  -3.751  1.00  0.00    -0.003 A 
ATOM     18  C   UNL     1       0.841   6.738  -2.673  1.00  0.00    -0.041 A 
ATOM     19  C   UNL     1       1.111   7.063  -5.026  1.00  0.00     0.119 A 
ATOM     20  C   UNL     1       0.844   5.360  -2.935  1.00  0.00     0.024 A 
ATOM     21  N   UNL     1       1.098   5.737  -5.299  1.00  0.00    -0.264 NA
ATOM     22  C   UNL     1       0.961   4.916  -4.243  1.00  0.00     0.111 A 
ATOM     23  C   UNL     1       0.738   7.206  -1.248  1.00  0.00     0.045 C 
ENDBRANCH  16  17
ENDBRANCH  15  16
ENDBRANCH  13  15
ENDBRANCH   4  13
TORSDOF 8
ENDMDL
MODEL 5
REMARK VINA RESULT:    -4.836      4.664      8.313
REMARK INTER + INTRA:          -7.703
REMARK INTER:                  -7.136
REMARK INTRA:                  -0.567
REMARK UNBOUND:                -0.746
REMARK SMILES Cc1ccncc1/C=C/Nc1ccc(CCCN)cc1
REMARK SMILES IDX 14 1 13 2 12 3 11 4 20 5 19 6 15 7 16 8 17 9 18 10 10 13
REMARK SMILES IDX 9 15 8 16 7 17 2 18 6 19 3 20 5 21 4 22 1 23
REMARK H PARENT 18 11 18 12 10 14
ROOT
ATOM      1  C   UNL     1       1.508   7.074  -2.656  1.00  0.00    -0.048 A 
ATOM      2  C   UNL     1       1.176   7.084  -4.013  1.00  0.00     0.006 A 
ATOM      3  C   UNL     1       0.833   8.272  -4.651  1.00  0.00     0.026 A 
ATOM      4  C   UNL     1       0.730   9.476  -3.951  1.00  0.00     0.038 A 
ATOM      5  C   UNL     1       1.006   9.458  -2.579  1.00  0.00     0.026 A 
ATOM      6  C   UNL     1       1.391   8.270  -1.938  1.00  0.00     0.006 A 
ENDROOT
BRANCH   1   7
ATOM      7  C   UNL     1       1.979   5.813  -1.977  1.00  0.00     0.037 C 
BRANCH   7   8
ATOM      8  C   UNL     1       1.462   5.562  -0.547  1.00  0.00     0.020 C 
BRANCH   8   9
ATOM      9  C   UNL     1       2.530   5.243   0.509  1.00  0.00     0.078 C 
BRANCH   9  10
ATOM     10  N   UNL     1       2.983   3.860   0.528  1.00  0.00    -0.330 NA
ATOM     11  H   UNL     1       4.000   3.827   0.586  1.00  0.00     0.118 HD
ATOM     12  H   UNL     1       2.744   3.400  -0.351  1.00  0.00     0.118 HD
ENDBRANCH   9  10
ENDBRANCH   8   9
ENDBRANCH   7   8
ENDBRANCH   1   7
BRANCH   4  13
ATOM     13  N   UNL     1       0.268  10.656  -4.565  1.00  0.00    -0.362 N 
ATOM     14  H   UNL     1       0.611  11.530  -4.185  1.00  0.00     0.166 HD
BRANCH  13  15
ATOM     15  C   UNL     1      -0.782  10.723  -5.442  1.00  0.00     0.083 C 
BRANCH  15  16
ATOM     16  C   UNL     1      -1.817  11.574  -5.459  1.00  0.00     0.027 C 
BRANCH  16  17
ATOM     17  C   UNL     1      -1.711  12.888  -6.111  1.00  0.00    -0.003 A 
ATOM     18  C   UNL     1      -2.730  13.855  -6.029  1.00  0.00    -0.041 A 
ATOM     19  C   UNL     1      -0.588  13.220  -6.883  1.00  0.00     0.119 A 
ATOM     20  C   UNL     1      -2.557  15.074  -6.701  1.00  0.00     0.024 A 
ATOM     21  N   UNL     1      -0.398  14.398  -7.524  1.00  0.00    -0.264 NA
ATOM     22  C   UNL     1      -1.390  15.300  -7.413  1.00  0.00     0.111 A 
ATOM     23  C   UNL     1      -4.010  13.613  -5.280  1.00  0.00     0.045 C 
ENDBRANCH  16  17
ENDBRANCH  15  16
ENDBRANCH  13  15
ENDBRANCH   4  13
TORSDOF 8
ENDMDL
MODEL 6
REMARK VINA RESULT:    -4.749      2.208      8.327
REMARK INTER + INTRA:          -7.578
REMARK INTER:                  -6.949
REMARK INTRA:                  -0.629
REMARK UNBOUND:                -0.746
REMARK SMILES Cc1ccncc1/C=C/Nc1ccc(CCCN)cc1
REMARK SMILES IDX 14 1 13 2 12 3 11 4 20 5 19 6 15 7 16 8 17 9 18 10 10 13
REMARK SMILES IDX 9 15 8 16 7 17 2 18 6 19 3 20 5 21 4 22 1 23
REMARK H PARENT 18 11 18 12 10 14
ROOT
ATOM      1  C   UNL     1       0.625   6.971  -1.919  1.00  0.00    -0.048 A 
ATOM      2  C   UNL     1       0.886   8.213  -1.336  1.00  0.00     0.006 A 
ATOM      3  C   UNL     1       1.228   9.309  -2.124  1.00  0.00     0.026 A 
ATOM      4  C   UNL     1       1.398   9.193  -3.505  1.00  0.00     0.038 A 
ATOM      5  C   UNL     1       1.192   7.935  -4.084  1.00  0.00     0.026 A 
ATOM      6  C   UNL     1       0.810   6.835  -3.300  1.00  0.00     0.006 A 
ENDROOT
BRANCH   1   7
ATOM      7  C   UNL     1       0.156   5.803  -1.088  1.00  0.00     0.037 C 
BRANCH   7   8
ATOM      8  C   UNL     1       1.156   4.647  -0.893  1.00  0.00     0.020 C 
BRANCH   8   9
ATOM      9  C   UNL     1       2.402   4.969  -0.055  1.00  0.00     0.078 C 
BRANCH   9  10
ATOM     10  N   UNL     1       2.184   5.004   1.384  1.00  0.00    -0.330 NA
ATOM     11  H   UNL     1       1.269   5.404   1.588  1.00  0.00     0.118 HD
ATOM     12  H   UNL     1       2.859   5.628   1.826  1.00  0.00     0.118 HD
ENDBRANCH   9  10
ENDBRANCH   8   9
ENDBRANCH   7   8
ENDBRANCH   1   7
BRANCH   4  13
ATOM     13  N   UNL     1       1.859  10.267  -4.291  1.00  0.00    -0.362 N 
ATOM     14  H   UNL     1       1.180  10.711  -4.897  1.00  0.00     0.166 HD
BRANCH  13  15
ATOM     15  C   UNL     1       3.178  10.581  -4.490  1.00  0.00     0.083 C 
BRANCH  15  16
ATOM     16  C   UNL     1       3.852  11.676  -4.114  1.00  0.00     0.027 C 
BRANCH  16  17
ATOM     17  C   UNL     1       4.899  12.257  -4.968  1.00  0.00    -0.003 A 
ATOM     18  C   UNL     1       4.845  13.584  -5.430  1.00  0.00    -0.041 A 
ATOM     19  C   UNL     1       5.991  11.486  -5.392  1.00  0.00     0.119 A 
ATOM     20  C   UNL     1       5.875  14.050  -6.261  1.00  0.00     0.024 A 
ATOM     21  N   UNL     1       7.002  11.925  -6.179  1.00  0.00    -0.264 NA
ATOM     22  C   UNL     1       6.919  13.202  -6.592  1.00  0.00     0.111 A 
ATOM     23  C   UNL     1       3.706  14.506  -5.098  1.00  0.00     0.045 C 
ENDBRANCH  16  17
ENDBRANCH  15  16
ENDBRANCH  13  15
ENDBRANCH   4  13
TORSDOF 8
ENDMDL
MODEL 7
REMARK VINA RESULT:    -4.713      1.846      8.386
REMARK INTER + INTRA:          -7.526
REMARK INTER:                  -6.987
REMARK INTRA:                  -0.538
REMARK UNBOUND:                -0.746
REMARK SMILES Cc1ccncc1/C=C/Nc1ccc(CCCN)cc1
REMARK SMILES IDX 14 1 13 2 12 3 11 4 20 5 19 6 15 7 16 8 17 9 18 10 10 13
REMARK SMILES IDX 9 15 8 16 7 17 2 18 6 19 3 20 5 21 4 22 1 23
REMARK H PARENT 18 11 18 12 10 14
ROOT
ATOM      1  C   UNL     1       0.467   6.962  -2.883  1.00  0.00    -0.048 A 
ATOM      2  C   UNL     1       0.817   8.013  -2.033  1.00  0.00     0.006 A 
ATOM      3  C   UNL     1       1.300   9.213  -2.549  1.00  0.00     0.026 A 
ATOM      4  C   UNL     1       1.524   9.384  -3.917  1.00  0.00     0.038 A 
ATOM      5  C   UNL     1       1.227   8.310  -4.765  1.00  0.00     0.026 A 
ATOM      6  C   UNL     1       0.704   7.112  -4.255  1.00  0.00     0.006 A 
ENDROOT
BRANCH   1   7
ATOM      7  C   UNL     1      -0.151   5.696  -2.344  1.00  0.00     0.037 C 
BRANCH   7   8
ATOM      8  C   UNL     1       0.171   4.393  -3.102  1.00  0.00     0.020 C 
BRANCH   8   9
ATOM      9  C   UNL     1      -1.023   3.683  -3.757  1.00  0.00     0.078 C 
BRANCH   9  10
ATOM     10  N   UNL     1      -1.720   2.733  -2.901  1.00  0.00    -0.330 NA
ATOM     11  H   UNL     1      -1.655   3.028  -1.928  1.00  0.00     0.118 HD
ATOM     12  H   UNL     1      -1.263   1.822  -2.942  1.00  0.00     0.118 HD
ENDBRANCH   9  10
ENDBRANCH   8   9
ENDBRANCH   7   8
ENDBRANCH   1   7
BRANCH   4  13
ATOM     13  N   UNL     1       2.123  10.549  -4.433  1.00  0.00    -0.362 N 
ATOM     14  H   UNL     1       1.554  11.117  -5.049  1.00  0.00     0.166 HD
BRANCH  13  15
ATOM     15  C   UNL     1       3.462  10.831  -4.378  1.00  0.00     0.083 C 
BRANCH  15  16
ATOM     16  C   UNL     1       4.071  12.008  -4.182  1.00  0.00     0.027 C 
BRANCH  16  17
ATOM     17  C   UNL     1       5.096  12.501  -5.114  1.00  0.00    -0.003 A 
ATOM     18  C   UNL     1       5.048  13.788  -5.677  1.00  0.00    -0.041 A 
ATOM     19  C   UNL     1       6.160  11.678  -5.514  1.00  0.00     0.119 A 
ATOM     20  C   UNL     1       6.055  14.169  -6.577  1.00  0.00     0.024 A 
ATOM     21  N   UNL     1       7.149  12.035  -6.367  1.00  0.00    -0.264 NA
ATOM     22  C   UNL     1       7.073  13.277  -6.876  1.00  0.00     0.111 A 
ATOM     23  C   UNL     1       3.936  14.755  -5.379  1.00  0.00     0.045 C 
ENDBRANCH  16  17
ENDBRANCH  15  16
ENDBRANCH  13  15
ENDBRANCH   4  13
TORSDOF 8
ENDMDL
MODEL 8
REMARK VINA RESULT:    -4.707      1.292      1.857
REMARK INTER + INTRA:          -7.517
REMARK INTER:                  -6.868
REMARK INTRA:                  -0.649
REMARK UNBOUND:                -0.746
REMARK SMILES Cc1ccncc1/C=C/Nc1ccc(CCCN)cc1
REMARK SMILES IDX 14 1 13 2 12 3 11 4 20 5 19 6 15 7 16 8 17 9 18 10 10 13
REMARK SMILES IDX 9 15 8 16 7 17 2 18 6 19 3 20 5 21 4 22 1 23
REMARK H PARENT 18 11 18 12 10 14
ROOT
ATOM      1  C   UNL     1       5.913  12.207  -5.634  1.00  0.00    -0.048 A 
ATOM      2  C   UNL     1       4.885  12.993  -5.109  1.00  0.00     0.006 A 
ATOM      3  C   UNL     1       3.874  12.422  -4.342  1.00  0.00     0.026 A 
ATOM      4  C   UNL     1       3.803  11.042  -4.135  1.00  0.00     0.038 A 
ATOM      5  C   UNL     1       4.801  10.245  -4.709  1.00  0.00     0.026 A 
ATOM      6  C   UNL     1       5.845  10.821  -5.450  1.00  0.00     0.006 A 
ENDROOT
BRANCH   1   7
ATOM      7  C   UNL     1       7.067  12.827  -6.380  1.00  0.00     0.037 C 
BRANCH   7   8
ATOM      8  C   UNL     1       6.728  13.569  -7.688  1.00  0.00     0.020 C 
BRANCH   8   9
ATOM      9  C   UNL     1       6.700  12.710  -8.961  1.00  0.00     0.078 C 
BRANCH   9  10
ATOM     10  N   UNL     1       5.418  12.673  -9.651  1.00  0.00    -0.330 NA
ATOM     11  H   UNL     1       5.551  12.865 -10.643  1.00  0.00     0.118 HD
ATOM     12  H   UNL     1       4.812  13.418  -9.306  1.00  0.00     0.118 HD
ENDBRANCH   9  10
ENDBRANCH   8   9
ENDBRANCH   7   8
ENDBRANCH   1   7
BRANCH   4  13
ATOM     13  N   UNL     1       2.720  10.445  -3.463  1.00  0.00    -0.362 N 
ATOM     14  H   UNL     1       2.853  10.239  -2.480  1.00  0.00     0.166 HD
BRANCH  13  15
ATOM     15  C   UNL     1       1.625   9.896  -4.076  1.00  0.00     0.083 C 
BRANCH  15  16
ATOM     16  C   UNL     1       1.357   8.609  -4.335  1.00  0.00     0.027 C 
BRANCH  16  17
ATOM     17  C   UNL     1       1.155   7.639  -3.249  1.00  0.00    -0.003 A 
ATOM     18  C   UNL     1       1.080   6.254  -3.480  1.00  0.00    -0.041 A 
ATOM     19  C   UNL     1       0.990   8.067  -1.923  1.00  0.00     0.119 A 
ATOM     20  C   UNL     1       0.861   5.400  -2.388  1.00  0.00     0.024 A 
ATOM     21  N   UNL     1       0.796   7.256  -0.857  1.00  0.00    -0.264 NA
ATOM     22  C   UNL     1       0.740   5.938  -1.117  1.00  0.00     0.111 A 
ATOM     23  C   UNL     1       1.186   5.660  -4.856  1.00  0.00     0.045 C 
ENDBRANCH  16  17
ENDBRANCH  15  16
ENDBRANCH  13  15
ENDBRANCH   4  13
TORSDOF 8
ENDMDL
MODEL 9
REMARK VINA RESULT:    -4.661      4.651      8.431
REMARK INTER + INTRA:          -7.452
REMARK INTER:                  -6.908
REMARK INTRA:                  -0.544
REMARK UNBOUND:                -0.746
REMARK SMILES Cc1ccncc1/C=C/Nc1ccc(CCCN)cc1
REMARK SMILES IDX 14 1 13 2 12 3 11 4 20 5 19 6 15 7 16 8 17 9 18 10 10 13
REMARK SMILES IDX 9 15 8 16 7 17 2 18 6 19 3 20 5 21 4 22 1 23
REMARK H PARENT 18 11 18 12 10 14
ROOT
ATOM      1  C   UNL     1       1.311   6.737  -2.697  1.00  0.00    -0.048 A 
ATOM      2  C   UNL     1       1.160   6.753  -4.085  1.00  0.00     0.006 A 
ATOM      3  C   UNL     1       1.003   7.956  -4.768  1.00  0.00     0.026 A 
ATOM      4  C   UNL     1       0.911   9.175  -4.092  1.00  0.00     0.038 A 
ATOM      5  C   UNL     1       1.005   9.154  -2.696  1.00  0.00     0.026 A 
ATOM      6  C   UNL     1       1.202   7.949  -2.005  1.00  0.00     0.006 A 
ENDROOT
BRANCH   1   7
ATOM      7  C   UNL     1       1.583   5.451  -1.957  1.00  0.00     0.037 C 
BRANCH   7   8
ATOM      8  C   UNL     1       1.326   5.460  -0.438  1.00  0.00     0.020 C 
BRANCH   8   9
ATOM      9  C   UNL     1       2.559   5.251   0.455  1.00  0.00     0.078 C 
BRANCH   9  10
ATOM     10  N   UNL     1       3.010   3.872   0.568  1.00  0.00    -0.330 NA
ATOM     11  H   UNL     1       4.028   3.838   0.588  1.00  0.00     0.118 HD
ATOM     12  H   UNL     1       2.735   3.342  -0.259  1.00  0.00     0.118 HD
ENDBRANCH   9  10
ENDBRANCH   8   9
ENDBRANCH   7   8
ENDBRANCH   1   7
BRANCH   4  13
ATOM     13  N   UNL     1       0.633  10.380  -4.766  1.00  0.00    -0.362 N 
ATOM     14  H   UNL     1       1.424  10.975  -4.977  1.00  0.00     0.166 HD
BRANCH  13  15
ATOM     15  C   UNL     1      -0.617  10.919  -4.921  1.00  0.00     0.083 C 
BRANCH  15  16
ATOM     16  C   UNL     1      -1.153  11.515  -5.995  1.00  0.00     0.027 C 
BRANCH  16  17
ATOM     17  C   UNL     1      -2.029  12.687  -5.857  1.00  0.00    -0.003 A 
ATOM     18  C   UNL     1      -1.771  13.904  -6.514  1.00  0.00    -0.041 A 
ATOM     19  C   UNL     1      -3.156  12.650  -5.022  1.00  0.00     0.119 A 
ATOM     20  C   UNL     1      -2.646  14.980  -6.308  1.00  0.00     0.024 A 
ATOM     21  N   UNL     1      -4.020  13.673  -4.825  1.00  0.00    -0.264 NA
ATOM     22  C   UNL     1      -3.745  14.816  -5.478  1.00  0.00     0.111 A 
ATOM     23  C   UNL     1      -0.571  14.102  -7.397  1.00  0.00     0.045 C 
ENDBRANCH  16  17
ENDBRANCH  15  16
ENDBRANCH  13  15
ENDBRANCH   4  13
TORSDOF 8
ENDMDL
