MODEL 1
REMARK VINA RESULT:    -5.256      0.000      0.000
REMARK INTER + INTRA:          -8.184
REMARK INTER:                  -7.560
REMARK INTRA:                  -0.624
REMARK UNBOUND:                -0.624
REMARK SMILES Cc1ccncc1/C=C/Nc1ccc(CCCN)cc1
REMARK SMILES IDX 14 1 13 2 12 3 11 4 20 5 19 6 15 7 16 8 17 9 18 10 10 13
REMARK SMILES IDX 9 15 8 16 7 17 2 18 6 19 3 20 5 21 4 22 1 23
REMARK H PARENT 18 11 18 12 10 14
ROOT
ATOM      1  C   UNL     1      -1.250 -11.971  10.098  1.00  0.00    -0.048 A 
ATOM      2  C   UNL     1      -1.717 -10.961   9.256  1.00  0.00     0.006 A 
ATOM      3  C   UNL     1      -0.827 -10.134   8.575  1.00  0.00     0.026 A 
ATOM      4  C   UNL     1       0.553 -10.230   8.767  1.00  0.00     0.038 A 
ATOM      5  C   UNL     1       1.021 -11.206   9.656  1.00  0.00     0.026 A 
ATOM      6  C   UNL     1       0.130 -12.067  10.315  1.00  0.00     0.006 A 
ENDROOT
BRANCH   1   7
ATOM      7  C   UNL     1      -2.200 -12.936  10.761  1.00  0.00     0.037 C 
BRANCH   7   8
ATOM      8  C   UNL     1      -3.179 -13.687   9.838  1.00  0.00     0.020 C 
BRANCH   8   9
ATOM      9  C   UNL     1      -2.853 -15.163   9.567  1.00  0.00     0.078 C 
BRANCH   9  10
ATOM     10  N   UNL     1      -2.299 -15.439   8.250  1.00  0.00    -0.330 NA
ATOM     11  H   UNL     1      -1.310 -15.674   8.329  1.00  0.00     0.118 HD
ATOM     12  H   UNL     1      -2.334 -14.600   7.670  1.00  0.00     0.118 HD
ENDBRANCH   9  10
ENDBRANCH   8   9
ENDBRANCH   7   8
ENDBRANCH   1   7
BRANCH   4  13
ATOM     13  N   UNL     1       1.452  -9.322   8.176  1.00  0.00    -0.362 N 
ATOM     14  H   UNL     1       1.726  -8.524   8.736  1.00  0.00     0.166 HD
BRANCH  13  15
ATOM     15  C   UNL     1       1.773  -9.293   6.844  1.00  0.00     0.083 C 
BRANCH  15  16
ATOM     16  C   UNL     1       2.485  -8.384   6.165  1.00  0.00     0.027 C 
BRANCH  16  17
ATOM     17  C   UNL     1       1.929  -7.710   4.982  1.00  0.00    -0.003 A 
ATOM     18  C   UNL     1       2.242  -6.378   4.657  1.00  0.00    -0.041 A 
ATOM     19  C   UNL     1       1.021  -8.368   4.139  1.00  0.00     0.119 A 
ATOM     20  C   UNL     1       1.648  -5.805   3.522  1.00  0.00     0.024 A 
ATOM     21  N   UNL     1       0.453  -7.836   3.032  1.00  0.00    -0.264 NA
ATOM     22  C   UNL     1       0.785  -6.564   2.748  1.00  0.00     0.111 A 
ATOM     23  C   UNL     1       3.158  -5.537   5.501  1.00  0.00     0.045 C 
ENDBRANCH  16  17
ENDBRANCH  15  16
ENDBRANCH  13  15
ENDBRANCH   4  13
TORSDOF 8
ENDMDL
MODEL 2
REMARK VINA RESULT:    -5.223      4.868      6.778
REMARK INTER + INTRA:          -8.137
REMARK INTER:                  -7.450
REMARK INTRA:                  -0.687
REMARK UNBOUND:                -0.624
REMARK SMILES Cc1ccncc1/C=C/Nc1ccc(CCCN)cc1
REMARK SMILES IDX 14 1 13 2 12 3 11 4 20 5 19 6 15 7 16 8 17 9 18 10 10 13
REMARK SMILES IDX 9 15 8 16 7 17 2 18 6 19 3 20 5 21 4 22 1 23
REMARK H PARENT 18 11 18 12 10 14
ROOT
ATOM      1  C   UNL     1       6.356 -13.717   5.447  1.00  0.00    -0.048 A 
ATOM      2  C   UNL     1       5.077 -14.250   5.616  1.00  0.00     0.006 A 
ATOM      3  C   UNL     1       3.947 -13.493   5.322  1.00  0.00     0.026 A 
ATOM      4  C   UNL     1       4.044 -12.158   4.923  1.00  0.00     0.038 A 
ATOM      5  C   UNL     1       5.324 -11.604   4.807  1.00  0.00     0.026 A 
ATOM      6  C   UNL     1       6.468 -12.374   5.066  1.00  0.00     0.006 A 
ENDROOT
BRANCH   1   7
ATOM      7  C   UNL     1       7.588 -14.559   5.665  1.00  0.00     0.037 C 
BRANCH   7   8
ATOM      8  C   UNL     1       8.498 -14.160   6.843  1.00  0.00     0.020 C 
BRANCH   8   9
ATOM      9  C   UNL     1       8.071 -14.670   8.227  1.00  0.00     0.078 C 
BRANCH   9  10
ATOM     10  N   UNL     1       7.692 -13.631   9.175  1.00  0.00    -0.330 NA
ATOM     11  H   UNL     1       6.677 -13.571   9.240  1.00  0.00     0.118 HD
ATOM     12  H   UNL     1       7.999 -12.719   8.838  1.00  0.00     0.118 HD
ENDBRANCH   9  10
ENDBRANCH   8   9
ENDBRANCH   7   8
ENDBRANCH   1   7
BRANCH   4  13
ATOM     13  N   UNL     1       2.904 -11.351   4.739  1.00  0.00    -0.362 N 
ATOM     14  H   UNL     1       2.393 -11.478   3.874  1.00  0.00     0.166 HD
BRANCH  13  15
ATOM     15  C   UNL     1       2.589 -10.256   5.499  1.00  0.00     0.083 C 
BRANCH  15  16
ATOM     16  C   UNL     1       1.694  -9.289   5.258  1.00  0.00     0.027 C 
BRANCH  16  17
ATOM     17  C   UNL     1       2.084  -7.870   5.271  1.00  0.00    -0.003 A 
ATOM     18  C   UNL     1       1.596  -6.946   4.330  1.00  0.00    -0.041 A 
ATOM     19  C   UNL     1       3.002  -7.384   6.214  1.00  0.00     0.119 A 
ATOM     20  C   UNL     1       2.038  -5.616   4.400  1.00  0.00     0.024 A 
ATOM     21  N   UNL     1       3.425  -6.102   6.306  1.00  0.00    -0.264 NA
ATOM     22  C   UNL     1       2.928  -5.246   5.395  1.00  0.00     0.111 A 
ATOM     23  C   UNL     1       0.649  -7.340   3.231  1.00  0.00     0.045 C 
ENDBRANCH  16  17
ENDBRANCH  15  16
ENDBRANCH  13  15
ENDBRANCH   4  13
TORSDOF 8
ENDMDL
MODEL 3
REMARK VINA RESULT:    -5.181      1.309      2.190
REMARK INTER + INTRA:          -8.076
REMARK INTER:                  -7.432
REMARK INTRA:                  -0.643
REMARK UNBOUND:                -0.624
REMARK SMILES Cc1ccncc1/C=C/Nc1ccc(CCCN)cc1
REMARK SMILES IDX 14 1 13 2 12 3 11 4 20 5 19 6 15 7 16 8 17 9 18 10 10 13
REMARK SMILES IDX 9 15 8 16 7 17 2 18 6 19 3 20 5 21 4 22 1 23
REMARK H PARENT 18 11 18 12 10 14
ROOT
ATOM      1  C   UNL     1      -1.528 -12.149  10.200  1.00  0.00    -0.048 A 
ATOM      2  C   UNL     1      -0.160 -12.280  10.447  1.00  0.00     0.006 A 
ATOM      3  C   UNL     1       0.758 -11.437   9.827  1.00  0.00     0.026 A 
ATOM      4  C   UNL     1       0.358 -10.488   8.883  1.00  0.00     0.038 A 
ATOM      5  C   UNL     1      -1.008 -10.394   8.592  1.00  0.00     0.026 A 
ATOM      6  C   UNL     1      -1.941 -11.215   9.242  1.00  0.00     0.006 A 
ENDROOT
BRANCH   1   7
ATOM      7  C   UNL     1      -2.539 -12.988  10.941  1.00  0.00     0.037 C 
BRANCH   7   8
ATOM      8  C   UNL     1      -3.354 -13.992  10.101  1.00  0.00     0.020 C 
BRANCH   8   9
ATOM      9  C   UNL     1      -2.614 -15.267   9.672  1.00  0.00     0.078 C 
BRANCH   9  10
ATOM     10  N   UNL     1      -2.341 -15.370   8.246  1.00  0.00    -0.330 NA
ATOM     11  H   UNL     1      -1.337 -15.323   8.078  1.00  0.00     0.118 HD
ATOM     12  H   UNL     1      -2.738 -14.569   7.753  1.00  0.00     0.118 HD
ENDBRANCH   9  10
ENDBRANCH   8   9
ENDBRANCH   7   8
ENDBRANCH   1   7
BRANCH   4  13
ATOM     13  N   UNL     1       1.291  -9.715   8.165  1.00  0.00    -0.362 N 
ATOM     14  H   UNL     1       1.495  -8.793   8.532  1.00  0.00     0.166 HD
BRANCH  13  15
ATOM     15  C   UNL     1       1.736  -9.999   6.901  1.00  0.00     0.083 C 
BRANCH  15  16
ATOM     16  C   UNL     1       1.626  -9.271   5.782  1.00  0.00     0.027 C 
BRANCH  16  17
ATOM     17  C   UNL     1       2.196  -7.918   5.695  1.00  0.00    -0.003 A 
ATOM     18  C   UNL     1       1.851  -7.019   4.671  1.00  0.00    -0.041 A 
ATOM     19  C   UNL     1       3.149  -7.477   6.626  1.00  0.00     0.119 A 
ATOM     20  C   UNL     1       2.460  -5.755   4.649  1.00  0.00     0.024 A 
ATOM     21  N   UNL     1       3.733  -6.256   6.630  1.00  0.00    -0.264 NA
ATOM     22  C   UNL     1       3.370  -5.421   5.640  1.00  0.00     0.111 A 
ATOM     23  C   UNL     1       0.884  -7.378   3.577  1.00  0.00     0.045 C 
ENDBRANCH  16  17
ENDBRANCH  15  16
ENDBRANCH  13  15
ENDBRANCH   4  13
TORSDOF 8
ENDMDL
MODEL 4
REMARK VINA RESULT:    -5.038      4.952      6.729
REMARK INTER + INTRA:          -7.871
REMARK INTER:                  -7.217
REMARK INTRA:                  -0.653
REMARK UNBOUND:                -0.624
REMARK SMILES Cc1ccncc1/C=C/Nc1ccc(CCCN)cc1
REMARK SMILES IDX 14 1 13 2 12 3 11 4 20 5 19 6 15 7 16 8 17 9 18 10 10 13
REMARK SMILES IDX 9 15 8 16 7 17 2 18 6 19 3 20 5 21 4 22 1 23
REMARK H PARENT 18 11 18 12 10 14
ROOT
ATOM      1  C   UNL     1       6.365 -14.030   5.407  1.00  0.00    -0.048 A 
ATOM      2  C   UNL     1       6.582 -12.710   5.005  1.00  0.00     0.006 A 
ATOM      3  C   UNL     1       5.517 -11.824   4.873  1.00  0.00     0.026 A 
ATOM      4  C   UNL     1       4.195 -12.235   5.060  1.00  0.00     0.038 A 
ATOM      5  C   UNL     1       3.972 -13.573   5.408  1.00  0.00     0.026 A 
ATOM      6  C   UNL     1       5.045 -14.461   5.580  1.00  0.00     0.006 A 
ENDROOT
BRANCH   1   7
ATOM      7  C   UNL     1       7.519 -14.971   5.651  1.00  0.00     0.037 C 
BRANCH   7   8
ATOM      8  C   UNL     1       8.767 -14.374   6.329  1.00  0.00     0.020 C 
BRANCH   8   9
ATOM      9  C   UNL     1       8.792 -14.429   7.863  1.00  0.00     0.078 C 
BRANCH   9  10
ATOM     10  N   UNL     1       7.985 -13.417   8.529  1.00  0.00    -0.330 NA
ATOM     11  H   UNL     1       7.011 -13.717   8.566  1.00  0.00     0.118 HD
ATOM     12  H   UNL     1       7.984 -12.554   7.985  1.00  0.00     0.118 HD
ENDBRANCH   9  10
ENDBRANCH   8   9
ENDBRANCH   7   8
ENDBRANCH   1   7
BRANCH   4  13
ATOM     13  N   UNL     1       3.106 -11.377   4.813  1.00  0.00    -0.362 N 
ATOM     14  H   UNL     1       2.833 -11.256   3.846  1.00  0.00     0.166 HD
BRANCH  13  15
ATOM     15  C   UNL     1       2.568 -10.513   5.729  1.00  0.00     0.083 C 
BRANCH  15  16
ATOM     16  C   UNL     1       2.467  -9.178   5.675  1.00  0.00     0.027 C 
BRANCH  16  17
ATOM     17  C   UNL     1       1.647  -8.517   4.649  1.00  0.00    -0.003 A 
ATOM     18  C   UNL     1       1.721  -7.135   4.398  1.00  0.00    -0.041 A 
ATOM     19  C   UNL     1       0.716  -9.245   3.892  1.00  0.00     0.119 A 
ATOM     20  C   UNL     1       0.885  -6.582   3.416  1.00  0.00     0.024 A 
ATOM     21  N   UNL     1      -0.085  -8.731   2.930  1.00  0.00    -0.264 NA
ATOM     22  C   UNL     1       0.023  -7.408   2.713  1.00  0.00     0.111 A 
ATOM     23  C   UNL     1       2.635  -6.226   5.170  1.00  0.00     0.045 C 
ENDBRANCH  16  17
ENDBRANCH  15  16
ENDBRANCH  13  15
ENDBRANCH   4  13
TORSDOF 8
ENDMDL
MODEL 5
REMARK VINA RESULT:    -4.990      2.063      8.542
REMARK INTER + INTRA:          -7.802
REMARK INTER:                  -7.211
REMARK INTRA:                  -0.590
REMARK UNBOUND:                -0.624
REMARK SMILES Cc1ccncc1/C=C/Nc1ccc(CCCN)cc1
REMARK SMILES IDX 14 1 13 2 12 3 11 4 20 5 19 6 15 7 16 8 17 9 18 10 10 13
REMARK SMILES IDX 9 15 8 16 7 17 2 18 6 19 3 20 5 21 4 22 1 23
REMARK H PARENT 18 11 18 12 10 14
ROOT
ATOM      1  C   UNL     1       2.339  -6.251   4.425  1.00  0.00    -0.048 A 
ATOM      2  C   UNL     1       2.943  -6.456   5.667  1.00  0.00     0.006 A 
ATOM      3  C   UNL     1       2.819  -7.676   6.325  1.00  0.00     0.026 A 
ATOM      4  C   UNL     1       2.028  -8.707   5.812  1.00  0.00     0.038 A 
ATOM      5  C   UNL     1       1.375  -8.483   4.594  1.00  0.00     0.026 A 
ATOM      6  C   UNL     1       1.528  -7.269   3.908  1.00  0.00     0.006 A 
ENDROOT
BRANCH   1   7
ATOM      7  C   UNL     1       2.549  -4.971   3.656  1.00  0.00     0.037 C 
BRANCH   7   8
ATOM      8  C   UNL     1       1.396  -3.950   3.683  1.00  0.00     0.020 C 
BRANCH   8   9
ATOM      9  C   UNL     1       1.036  -3.378   5.062  1.00  0.00     0.078 C 
BRANCH   9  10
ATOM     10  N   UNL     1       2.017  -2.459   5.622  1.00  0.00    -0.330 NA
ATOM     11  H   UNL     1       2.425  -1.890   4.882  1.00  0.00     0.118 HD
ATOM     12  H   UNL     1       2.795  -2.980   6.026  1.00  0.00     0.118 HD
ENDBRANCH   9  10
ENDBRANCH   8   9
ENDBRANCH   7   8
ENDBRANCH   1   7
BRANCH   4  13
ATOM     13  N   UNL     1       1.802  -9.898   6.529  1.00  0.00    -0.362 N 
ATOM     14  H   UNL     1       2.267 -10.729   6.186  1.00  0.00     0.166 HD
BRANCH  13  15
ATOM     15  C   UNL     1       0.823 -10.070   7.471  1.00  0.00     0.083 C 
BRANCH  15  16
ATOM     16  C   UNL     1       0.945 -10.334   8.779  1.00  0.00     0.027 C 
BRANCH  16  17
ATOM     17  C   UNL     1      -0.056 -11.143   9.490  1.00  0.00    -0.003 A 
ATOM     18  C   UNL     1       0.295 -12.236  10.301  1.00  0.00    -0.041 A 
ATOM     19  C   UNL     1      -1.427 -10.874   9.354  1.00  0.00     0.119 A 
ATOM     20  C   UNL     1      -0.727 -12.969  10.924  1.00  0.00     0.024 A 
ATOM     21  N   UNL     1      -2.423 -11.559   9.962  1.00  0.00    -0.264 NA
ATOM     22  C   UNL     1      -2.047 -12.591  10.737  1.00  0.00     0.111 A 
ATOM     23  C   UNL     1       1.721 -12.670  10.493  1.00  0.00     0.045 C 
ENDBRANCH  16  17
ENDBRANCH  15  16
ENDBRANCH  13  15
ENDBRANCH   4  13
TORSDOF 8
ENDMDL
MODEL 6
REMARK VINA RESULT:    -4.983      4.662      8.550
REMARK INTER + INTRA:          -7.792
REMARK INTER:                  -7.252
REMARK INTRA:                  -0.540
REMARK UNBOUND:                -0.624
REMARK SMILES Cc1ccncc1/C=C/Nc1ccc(CCCN)cc1
REMARK SMILES IDX 14 1 13 2 12 3 11 4 20 5 19 6 15 7 16 8 17 9 18 10 10 13
REMARK SMILES IDX 9 15 8 16 7 17 2 18 6 19 3 20 5 21 4 22 1 23
REMARK H PARENT 18 11 18 12 10 14
ROOT
ATOM      1  C   UNL     1       1.034  -6.603   3.942  1.00  0.00    -0.048 A 
ATOM      2  C   UNL     1       1.931  -6.539   5.010  1.00  0.00     0.006 A 
ATOM      3  C   UNL     1       2.429  -7.701   5.591  1.00  0.00     0.026 A 
ATOM      4  C   UNL     1       1.996  -8.966   5.184  1.00  0.00     0.038 A 
ATOM      5  C   UNL     1       1.054  -9.031   4.151  1.00  0.00     0.026 A 
ATOM      6  C   UNL     1       0.577  -7.863   3.536  1.00  0.00     0.006 A 
ENDROOT
BRANCH   1   7
ATOM      7  C   UNL     1       0.566  -5.353   3.239  1.00  0.00     0.037 C 
BRANCH   7   8
ATOM      8  C   UNL     1       1.509  -4.765   2.172  1.00  0.00     0.020 C 
BRANCH   8   9
ATOM      9  C   UNL     1       1.805  -5.666   0.964  1.00  0.00     0.078 C 
BRANCH   9  10
ATOM     10  N   UNL     1       0.728  -5.763  -0.011  1.00  0.00    -0.330 NA
ATOM     11  H   UNL     1      -0.174  -5.742   0.463  1.00  0.00     0.118 HD
ATOM     12  H   UNL     1       0.766  -6.664  -0.488  1.00  0.00     0.118 HD
ENDBRANCH   9  10
ENDBRANCH   8   9
ENDBRANCH   7   8
ENDBRANCH   1   7
BRANCH   4  13
ATOM     13  N   UNL     1       2.405 -10.140   5.845  1.00  0.00    -0.362 N 
ATOM     14  H   UNL     1       1.963 -10.338   6.734  1.00  0.00     0.166 HD
BRANCH  13  15
ATOM     15  C   UNL     1       3.509 -10.880   5.515  1.00  0.00     0.083 C 
BRANCH  15  16
ATOM     16  C   UNL     1       3.577 -12.121   5.014  1.00  0.00     0.027 C 
BRANCH  16  17
ATOM     17  C   UNL     1       4.794 -12.935   5.158  1.00  0.00    -0.003 A 
ATOM     18  C   UNL     1       4.761 -14.266   5.609  1.00  0.00    -0.041 A 
ATOM     19  C   UNL     1       6.058 -12.394   4.881  1.00  0.00     0.119 A 
ATOM     20  C   UNL     1       5.972 -14.963   5.740  1.00  0.00     0.024 A 
ATOM     21  N   UNL     1       7.234 -13.057   4.985  1.00  0.00    -0.264 NA
ATOM     22  C   UNL     1       7.160 -14.331   5.410  1.00  0.00     0.111 A 
ATOM     23  C   UNL     1       3.482 -14.955   5.992  1.00  0.00     0.045 C 
ENDBRANCH  16  17
ENDBRANCH  15  16
ENDBRANCH  13  15
ENDBRANCH   4  13
TORSDOF 8
ENDMDL
MODEL 7
REMARK VINA RESULT:    -4.952      1.906      8.661
REMARK INTER + INTRA:          -7.746
REMARK INTER:                  -7.161
REMARK INTRA:                  -0.585
REMARK UNBOUND:                -0.624
REMARK SMILES Cc1ccncc1/C=C/Nc1ccc(CCCN)cc1
REMARK SMILES IDX 14 1 13 2 12 3 11 4 20 5 19 6 15 7 16 8 17 9 18 10 10 13
REMARK SMILES IDX 9 15 8 16 7 17 2 18 6 19 3 20 5 21 4 22 1 23
REMARK H PARENT 18 11 18 12 10 14
ROOT
ATOM      1  C   UNL     1       2.078  -7.309   4.165  1.00  0.00    -0.048 A 
ATOM      2  C   UNL     1       2.591  -7.155   5.455  1.00  0.00     0.006 A 
ATOM      3  C   UNL     1       2.423  -8.154   6.410  1.00  0.00     0.026 A 
ATOM      4  C   UNL     1       1.674  -9.303   6.144  1.00  0.00     0.038 A 
ATOM      5  C   UNL     1       1.111  -9.432   4.869  1.00  0.00     0.026 A 
ATOM      6  C   UNL     1       1.310  -8.447   3.890  1.00  0.00     0.006 A 
ENDROOT
BRANCH   1   7
ATOM      7  C   UNL     1       2.340  -6.281   3.093  1.00  0.00     0.037 C 
BRANCH   7   8
ATOM      8  C   UNL     1       1.165  -5.944   2.156  1.00  0.00     0.020 C 
BRANCH   8   9
ATOM      9  C   UNL     1       1.427  -6.127   0.654  1.00  0.00     0.078 C 
BRANCH   9  10
ATOM     10  N   UNL     1       2.036  -4.981  -0.008  1.00  0.00    -0.330 NA
ATOM     11  H   UNL     1       1.312  -4.349  -0.347  1.00  0.00     0.118 HD
ATOM     12  H   UNL     1       2.544  -5.285  -0.839  1.00  0.00     0.118 HD
ENDBRANCH   9  10
ENDBRANCH   8   9
ENDBRANCH   7   8
ENDBRANCH   1   7
BRANCH   4  13
ATOM     13  N   UNL     1       1.400 -10.259   7.140  1.00  0.00    -0.362 N 
ATOM     14  H   UNL     1       1.337 -11.224   6.839  1.00  0.00     0.166 HD
BRANCH  13  15
ATOM     15  C   UNL     1       0.964  -9.968   8.406  1.00  0.00     0.083 C 
BRANCH  15  16
ATOM     16  C   UNL     1      -0.087 -10.463   9.073  1.00  0.00     0.027 C 
BRANCH  16  17
ATOM     17  C   UNL     1       0.008 -11.730   9.813  1.00  0.00    -0.003 A 
ATOM     18  C   UNL     1      -1.127 -12.430  10.259  1.00  0.00    -0.041 A 
ATOM     19  C   UNL     1       1.256 -12.280  10.142  1.00  0.00     0.119 A 
ATOM     20  C   UNL     1      -0.945 -13.620  10.979  1.00  0.00     0.024 A 
ATOM     21  N   UNL     1       1.449 -13.435  10.820  1.00  0.00    -0.264 NA
ATOM     22  C   UNL     1       0.339 -14.080  11.221  1.00  0.00     0.111 A 
ATOM     23  C   UNL     1      -2.525 -11.929  10.024  1.00  0.00     0.045 C 
ENDBRANCH  16  17
ENDBRANCH  15  16
ENDBRANCH  13  15
ENDBRANCH   4  13
TORSDOF 8
ENDMDL
MODEL 8
REMARK VINA RESULT:    -4.948      4.513      8.489
REMARK INTER + INTRA:          -7.741
REMARK INTER:                  -7.234
REMARK INTRA:                  -0.507
REMARK UNBOUND:                -0.624
REMARK SMILES Cc1ccncc1/C=C/Nc1ccc(CCCN)cc1
REMARK SMILES IDX 14 1 13 2 12 3 11 4 20 5 19 6 15 7 16 8 17 9 18 10 10 13
REMARK SMILES IDX 9 15 8 16 7 17 2 18 6 19 3 20 5 21 4 22 1 23
REMARK H PARENT 18 11 18 12 10 14
ROOT
ATOM      1  C   UNL     1       1.493  -6.934   4.864  1.00  0.00    -0.048 A 
ATOM      2  C   UNL     1       0.981  -8.002   4.125  1.00  0.00     0.006 A 
ATOM      3  C   UNL     1       1.295  -9.316   4.463  1.00  0.00     0.026 A 
ATOM      4  C   UNL     1       2.187  -9.612   5.496  1.00  0.00     0.038 A 
ATOM      5  C   UNL     1       2.745  -8.540   6.202  1.00  0.00     0.026 A 
ATOM      6  C   UNL     1       2.403  -7.215   5.890  1.00  0.00     0.006 A 
ENDROOT
BRANCH   1   7
ATOM      7  C   UNL     1       1.081  -5.513   4.571  1.00  0.00     0.037 C 
BRANCH   7   8
ATOM      8  C   UNL     1       2.063  -4.406   4.998  1.00  0.00     0.020 C 
BRANCH   8   9
ATOM      9  C   UNL     1       1.447  -3.203   5.728  1.00  0.00     0.078 C 
BRANCH   9  10
ATOM     10  N   UNL     1       0.559  -2.381   4.918  1.00  0.00    -0.330 NA
ATOM     11  H   UNL     1       0.588  -2.689   3.947  1.00  0.00     0.118 HD
ATOM     12  H   UNL     1       0.887  -1.415   4.908  1.00  0.00     0.118 HD
ENDBRANCH   9  10
ENDBRANCH   8   9
ENDBRANCH   7   8
ENDBRANCH   1   7
BRANCH   4  13
ATOM     13  N   UNL     1       2.601 -10.931   5.767  1.00  0.00    -0.362 N 
ATOM     14  H   UNL     1       2.077 -11.436   6.471  1.00  0.00     0.166 HD
BRANCH  13  15
ATOM     15  C   UNL     1       3.785 -11.480   5.352  1.00  0.00     0.083 C 
BRANCH  15  16
ATOM     16  C   UNL     1       4.009 -12.661   4.761  1.00  0.00     0.027 C 
BRANCH  16  17
ATOM     17  C   UNL     1       4.449 -13.830   5.537  1.00  0.00    -0.003 A 
ATOM     18  C   UNL     1       5.799 -14.213   5.623  1.00  0.00    -0.041 A 
ATOM     19  C   UNL     1       3.520 -14.644   6.202  1.00  0.00     0.119 A 
ATOM     20  C   UNL     1       6.130 -15.356   6.366  1.00  0.00     0.024 A 
ATOM     21  N   UNL     1       3.823 -15.739   6.938  1.00  0.00    -0.264 NA
ATOM     22  C   UNL     1       5.125 -16.067   7.004  1.00  0.00     0.111 A 
ATOM     23  C   UNL     1       6.894 -13.464   4.917  1.00  0.00     0.045 C 
ENDBRANCH  16  17
ENDBRANCH  15  16
ENDBRANCH  13  15
ENDBRANCH   4  13
TORSDOF 8
ENDMDL
MODEL 9
REMARK VINA RESULT:    -4.936      4.610      8.560
REMARK INTER + INTRA:          -7.723
REMARK INTER:                  -7.162
REMARK INTRA:                  -0.562
REMARK UNBOUND:                -0.624
REMARK SMILES Cc1ccncc1/C=C/Nc1ccc(CCCN)cc1
REMARK SMILES IDX 14 1 13 2 12 3 11 4 20 5 19 6 15 7 16 8 17 9 18 10 10 13
REMARK SMILES IDX 9 15 8 16 7 17 2 18 6 19 3 20 5 21 4 22 1 23
REMARK H PARENT 18 11 18 12 10 14
ROOT
ATOM      1  C   UNL     1       1.426  -6.873   4.882  1.00  0.00    -0.048 A 
ATOM      2  C   UNL     1       0.995  -7.984   4.154  1.00  0.00     0.006 A 
ATOM      3  C   UNL     1       1.389  -9.268   4.518  1.00  0.00     0.026 A 
ATOM      4  C   UNL     1       2.284  -9.489   5.568  1.00  0.00     0.038 A 
ATOM      5  C   UNL     1       2.762  -8.371   6.263  1.00  0.00     0.026 A 
ATOM      6  C   UNL     1       2.338  -7.077   5.924  1.00  0.00     0.006 A 
ENDROOT
BRANCH   1   7
ATOM      7  C   UNL     1       0.926  -5.487   4.559  1.00  0.00     0.037 C 
BRANCH   7   8
ATOM      8  C   UNL     1       1.920  -4.328   4.766  1.00  0.00     0.020 C 
BRANCH   8   9
ATOM      9  C   UNL     1       1.441  -3.184   5.672  1.00  0.00     0.078 C 
BRANCH   9  10
ATOM     10  N   UNL     1       0.558  -2.220   5.031  1.00  0.00    -0.330 NA
ATOM     11  H   UNL     1      -0.359  -2.238   5.475  1.00  0.00     0.118 HD
ATOM     12  H   UNL     1       0.396  -2.483   4.059  1.00  0.00     0.118 HD
ENDBRANCH   9  10
ENDBRANCH   8   9
ENDBRANCH   7   8
ENDBRANCH   1   7
BRANCH   4  13
ATOM     13  N   UNL     1       2.780 -10.773   5.866  1.00  0.00    -0.362 N 
ATOM     14  H   UNL     1       2.440 -11.205   6.717  1.00  0.00     0.166 HD
BRANCH  13  15
ATOM     15  C   UNL     1       3.853 -11.360   5.250  1.00  0.00     0.083 C 
BRANCH  15  16
ATOM     16  C   UNL     1       3.987 -12.614   4.798  1.00  0.00     0.027 C 
BRANCH  16  17
ATOM     17  C   UNL     1       5.106 -13.465   5.231  1.00  0.00    -0.003 A 
ATOM     18  C   UNL     1       4.914 -14.658   5.949  1.00  0.00    -0.041 A 
ATOM     19  C   UNL     1       6.434 -13.093   4.971  1.00  0.00     0.119 A 
ATOM     20  C   UNL     1       6.039 -15.396   6.344  1.00  0.00     0.024 A 
ATOM     21  N   UNL     1       7.530 -13.802   5.329  1.00  0.00    -0.264 NA
ATOM     22  C   UNL     1       7.304 -14.942   6.006  1.00  0.00     0.111 A 
ATOM     23  C   UNL     1       3.549 -15.149   6.342  1.00  0.00     0.045 C 
ENDBRANCH  16  17
ENDBRANCH  15  16
ENDBRANCH  13  15
ENDBRANCH   4  13
TORSDOF 8
ENDMDL
