MODEL 1
REMARK VINA RESULT:    -5.064      0.000      0.000
REMARK INTER + INTRA:          -8.070
REMARK INTER:                  -7.285
REMARK INTRA:                  -0.785
REMARK UNBOUND:                -0.785
REMARK SMILES Cc1ccncc1/C=C/Nc1ccc(CCCN)cc1
REMARK SMILES IDX 14 1 13 2 12 3 11 4 20 5 19 6 15 7 16 8 17 9 18 10 10 13
REMARK SMILES IDX 9 15 8 16 7 17 2 18 6 19 3 20 5 21 4 22 1 23
REMARK H PARENT 18 11 18 12 10 14
ROOT
ATOM      1  C   UNL     1      -6.795 -14.738   1.334  1.00  0.00    -0.048 A 
ATOM      2  C   UNL     1      -7.248 -14.636   0.017  1.00  0.00     0.006 A 
ATOM      3  C   UNL     1      -6.963 -13.508  -0.747  1.00  0.00     0.026 A 
ATOM      4  C   UNL     1      -6.288 -12.410  -0.208  1.00  0.00     0.038 A 
ATOM      5  C   UNL     1      -5.883 -12.487   1.129  1.00  0.00     0.026 A 
ATOM      6  C   UNL     1      -6.134 -13.637   1.893  1.00  0.00     0.006 A 
ENDROOT
BRANCH   1   7
ATOM      7  C   UNL     1      -7.010 -15.995   2.138  1.00  0.00     0.037 C 
BRANCH   7   8
ATOM      8  C   UNL     1      -7.332 -15.813   3.634  1.00  0.00     0.020 C 
BRANCH   8   9
ATOM      9  C   UNL     1      -8.822 -15.828   4.009  1.00  0.00     0.078 C 
BRANCH   9  10
ATOM     10  N   UNL     1      -9.530 -14.579   3.769  1.00  0.00    -0.330 NA
ATOM     11  H   UNL     1      -9.211 -14.160   2.896  1.00  0.00     0.118 HD
ATOM     12  H   UNL     1      -9.303 -13.901   4.497  1.00  0.00     0.118 HD
ENDBRANCH   9  10
ENDBRANCH   8   9
ENDBRANCH   7   8
ENDBRANCH   1   7
BRANCH   4  13
ATOM     13  N   UNL     1      -6.101 -11.220  -0.938  1.00  0.00    -0.362 N 
ATOM     14  H   UNL     1      -5.194 -11.088  -1.367  1.00  0.00     0.166 HD
BRANCH  13  15
ATOM     15  C   UNL     1      -6.938 -10.137  -0.895  1.00  0.00     0.083 C 
BRANCH  15  16
ATOM     16  C   UNL     1      -6.691  -8.863  -1.227  1.00  0.00     0.027 C 
BRANCH  16  17
ATOM     17  C   UNL     1      -6.292  -7.875  -0.213  1.00  0.00    -0.003 A 
ATOM     18  C   UNL     1      -5.166  -7.048  -0.368  1.00  0.00    -0.041 A 
ATOM     19  C   UNL     1      -7.010  -7.743   0.985  1.00  0.00     0.119 A 
ATOM     20  C   UNL     1      -4.843  -6.148   0.659  1.00  0.00     0.024 A 
ATOM     21  N   UNL     1      -6.724  -6.869   1.978  1.00  0.00    -0.264 NA
ATOM     22  C   UNL     1      -5.645  -6.089   1.788  1.00  0.00     0.111 A 
ATOM     23  C   UNL     1      -4.275  -7.120  -1.577  1.00  0.00     0.045 C 
ENDBRANCH  16  17
ENDBRANCH  15  16
ENDBRANCH  13  15
ENDBRANCH   4  13
TORSDOF 8
ENDMDL
MODEL 2
REMARK VINA RESULT:    -4.978      2.296      8.302
REMARK INTER + INTRA:          -7.946
REMARK INTER:                  -7.333
REMARK INTRA:                  -0.613
REMARK UNBOUND:                -0.785
REMARK SMILES Cc1ccncc1/C=C/Nc1ccc(CCCN)cc1
REMARK SMILES IDX 14 1 13 2 12 3 11 4 20 5 19 6 15 7 16 8 17 9 18 10 10 13
REMARK SMILES IDX 9 15 8 16 7 17 2 18 6 19 3 20 5 21 4 22 1 23
REMARK H PARENT 18 11 18 12 10 14
ROOT
ATOM      1  C   UNL     1      -4.457  -6.671  -1.371  1.00  0.00    -0.048 A 
ATOM      2  C   UNL     1      -4.457  -7.714  -2.300  1.00  0.00     0.006 A 
ATOM      3  C   UNL     1      -5.332  -8.787  -2.162  1.00  0.00     0.026 A 
ATOM      4  C   UNL     1      -6.181  -8.903  -1.059  1.00  0.00     0.038 A 
ATOM      5  C   UNL     1      -6.141  -7.886  -0.097  1.00  0.00     0.026 A 
ATOM      6  C   UNL     1      -5.288  -6.782  -0.251  1.00  0.00     0.006 A 
ENDROOT
BRANCH   1   7
ATOM      7  C   UNL     1      -3.586  -5.455  -1.564  1.00  0.00     0.037 C 
BRANCH   7   8
ATOM      8  C   UNL     1      -2.360  -5.328  -0.639  1.00  0.00     0.020 C 
BRANCH   8   9
ATOM      9  C   UNL     1      -1.240  -6.356  -0.859  1.00  0.00     0.078 C 
BRANCH   9  10
ATOM     10  N   UNL     1      -0.330  -6.048  -1.953  1.00  0.00    -0.330 NA
ATOM     11  H   UNL     1       0.296  -5.291  -1.683  1.00  0.00     0.118 HD
ATOM     12  H   UNL     1      -0.851  -5.698  -2.757  1.00  0.00     0.118 HD
ENDBRANCH   9  10
ENDBRANCH   8   9
ENDBRANCH   7   8
ENDBRANCH   1   7
BRANCH   4  13
ATOM     13  N   UNL     1      -6.982 -10.043  -0.851  1.00  0.00    -0.362 N 
ATOM     14  H   UNL     1      -7.968  -9.948  -1.059  1.00  0.00     0.166 HD
BRANCH  13  15
ATOM     15  C   UNL     1      -6.589 -11.160  -0.163  1.00  0.00     0.083 C 
BRANCH  15  16
ATOM     16  C   UNL     1      -6.346 -12.394  -0.623  1.00  0.00     0.027 C 
BRANCH  16  17
ATOM     17  C   UNL     1      -6.540 -13.577   0.229  1.00  0.00    -0.003 A 
ATOM     18  C   UNL     1      -7.183 -14.740  -0.230  1.00  0.00    -0.041 A 
ATOM     19  C   UNL     1      -6.118 -13.577   1.567  1.00  0.00     0.119 A 
ATOM     20  C   UNL     1      -7.348 -15.814   0.657  1.00  0.00     0.024 A 
ATOM     21  N   UNL     1      -6.253 -14.611   2.431  1.00  0.00    -0.264 NA
ATOM     22  C   UNL     1      -6.864 -15.708   1.951  1.00  0.00     0.111 A 
ATOM     23  C   UNL     1      -7.734 -14.858  -1.624  1.00  0.00     0.045 C 
ENDBRANCH  16  17
ENDBRANCH  15  16
ENDBRANCH  13  15
ENDBRANCH   4  13
TORSDOF 8
ENDMDL
MODEL 3
REMARK VINA RESULT:    -4.957      1.349      2.127
REMARK INTER + INTRA:          -7.916
REMARK INTER:                  -7.276
REMARK INTRA:                  -0.640
REMARK UNBOUND:                -0.785
REMARK SMILES Cc1ccncc1/C=C/Nc1ccc(CCCN)cc1
REMARK SMILES IDX 14 1 13 2 12 3 11 4 20 5 19 6 15 7 16 8 17 9 18 10 10 13
REMARK SMILES IDX 9 15 8 16 7 17 2 18 6 19 3 20 5 21 4 22 1 23
REMARK H PARENT 18 11 18 12 10 14
ROOT
ATOM      1  C   UNL     1      -6.773 -14.772   1.368  1.00  0.00    -0.048 A 
ATOM      2  C   UNL     1      -7.250 -14.650   0.061  1.00  0.00     0.006 A 
ATOM      3  C   UNL     1      -6.949 -13.526  -0.703  1.00  0.00     0.026 A 
ATOM      4  C   UNL     1      -6.231 -12.451  -0.172  1.00  0.00     0.038 A 
ATOM      5  C   UNL     1      -5.801 -12.548   1.156  1.00  0.00     0.026 A 
ATOM      6  C   UNL     1      -6.069 -13.695   1.919  1.00  0.00     0.006 A 
ENDROOT
BRANCH   1   7
ATOM      7  C   UNL     1      -7.007 -16.028   2.170  1.00  0.00     0.037 C 
BRANCH   7   8
ATOM      8  C   UNL     1      -7.304 -15.845   3.671  1.00  0.00     0.020 C 
BRANCH   8   9
ATOM      9  C   UNL     1      -8.787 -15.851   4.070  1.00  0.00     0.078 C 
BRANCH   9  10
ATOM     10  N   UNL     1      -9.512 -14.626   3.764  1.00  0.00    -0.330 NA
ATOM     11  H   UNL     1      -8.859 -13.849   3.671  1.00  0.00     0.118 HD
ATOM     12  H   UNL     1     -10.124 -14.376   4.541  1.00  0.00     0.118 HD
ENDBRANCH   9  10
ENDBRANCH   8   9
ENDBRANCH   7   8
ENDBRANCH   1   7
BRANCH   4  13
ATOM     13  N   UNL     1      -6.026 -11.263  -0.899  1.00  0.00    -0.362 N 
ATOM     14  H   UNL     1      -5.122 -11.152  -1.342  1.00  0.00     0.166 HD
BRANCH  13  15
ATOM     15  C   UNL     1      -6.834 -10.158  -0.837  1.00  0.00     0.083 C 
BRANCH  15  16
ATOM     16  C   UNL     1      -6.524  -8.901  -0.494  1.00  0.00     0.027 C 
BRANCH  16  17
ATOM     17  C   UNL     1      -5.463  -8.160  -1.192  1.00  0.00    -0.003 A 
ATOM     18  C   UNL     1      -4.868  -7.006  -0.652  1.00  0.00    -0.041 A 
ATOM     19  C   UNL     1      -5.022  -8.560  -2.463  1.00  0.00     0.119 A 
ATOM     20  C   UNL     1      -3.879  -6.346  -1.397  1.00  0.00     0.024 A 
ATOM     21  N   UNL     1      -4.058  -7.946  -3.187  1.00  0.00    -0.264 NA
ATOM     22  C   UNL     1      -3.506  -6.852  -2.633  1.00  0.00     0.111 A 
ATOM     23  C   UNL     1      -5.280  -6.434   0.675  1.00  0.00     0.045 C 
ENDBRANCH  16  17
ENDBRANCH  15  16
ENDBRANCH  13  15
ENDBRANCH   4  13
TORSDOF 8
ENDMDL
MODEL 4
REMARK VINA RESULT:    -4.949      1.797      8.250
REMARK INTER + INTRA:          -7.905
REMARK INTER:                  -7.444
REMARK INTRA:                  -0.461
REMARK UNBOUND:                -0.785
REMARK SMILES Cc1ccncc1/C=C/Nc1ccc(CCCN)cc1
REMARK SMILES IDX 14 1 13 2 12 3 11 4 20 5 19 6 15 7 16 8 17 9 18 10 10 13
REMARK SMILES IDX 9 15 8 16 7 17 2 18 6 19 3 20 5 21 4 22 1 23
REMARK H PARENT 18 11 18 12 10 14
ROOT
ATOM      1  C   UNL     1      -4.495  -6.389  -1.044  1.00  0.00    -0.048 A 
ATOM      2  C   UNL     1      -4.306  -7.261  -2.118  1.00  0.00     0.006 A 
ATOM      3  C   UNL     1      -5.057  -8.428  -2.227  1.00  0.00     0.026 A 
ATOM      4  C   UNL     1      -5.966  -8.808  -1.236  1.00  0.00     0.038 A 
ATOM      5  C   UNL     1      -6.115  -7.963  -0.130  1.00  0.00     0.026 A 
ATOM      6  C   UNL     1      -5.388  -6.767  -0.034  1.00  0.00     0.006 A 
ENDROOT
BRANCH   1   7
ATOM      7  C   UNL     1      -3.760  -5.074  -0.967  1.00  0.00     0.037 C 
BRANCH   7   8
ATOM      8  C   UNL     1      -3.822  -4.325   0.378  1.00  0.00     0.020 C 
BRANCH   8   9
ATOM      9  C   UNL     1      -4.897  -3.235   0.493  1.00  0.00     0.078 C 
BRANCH   9  10
ATOM     10  N   UNL     1      -4.899  -2.502   1.751  1.00  0.00    -0.330 NA
ATOM     11  H   UNL     1      -3.960  -2.165   1.959  1.00  0.00     0.118 HD
ATOM     12  H   UNL     1      -5.143  -3.126   2.521  1.00  0.00     0.118 HD
ENDBRANCH   9  10
ENDBRANCH   8   9
ENDBRANCH   7   8
ENDBRANCH   1   7
BRANCH   4  13
ATOM     13  N   UNL     1      -6.641 -10.043  -1.280  1.00  0.00    -0.362 N 
ATOM     14  H   UNL     1      -7.415 -10.114  -1.928  1.00  0.00     0.166 HD
BRANCH  13  15
ATOM     15  C   UNL     1      -6.504 -11.044  -0.355  1.00  0.00     0.083 C 
BRANCH  15  16
ATOM     16  C   UNL     1      -6.018 -12.282  -0.514  1.00  0.00     0.027 C 
BRANCH  16  17
ATOM     17  C   UNL     1      -6.376 -13.366   0.413  1.00  0.00    -0.003 A 
ATOM     18  C   UNL     1      -7.028 -14.537  -0.012  1.00  0.00    -0.041 A 
ATOM     19  C   UNL     1      -6.110 -13.256   1.787  1.00  0.00     0.119 A 
ATOM     20  C   UNL     1      -7.355 -15.511   0.944  1.00  0.00     0.024 A 
ATOM     21  N   UNL     1      -6.402 -14.193   2.719  1.00  0.00    -0.264 NA
ATOM     22  C   UNL     1      -7.017 -15.302   2.272  1.00  0.00     0.111 A 
ATOM     23  C   UNL     1      -7.422 -14.764  -1.444  1.00  0.00     0.045 C 
ENDBRANCH  16  17
ENDBRANCH  15  16
ENDBRANCH  13  15
ENDBRANCH   4  13
TORSDOF 8
ENDMDL
MODEL 5
REMARK VINA RESULT:    -4.944      2.070      8.517
REMARK INTER + INTRA:          -7.898
REMARK INTER:                  -7.323
REMARK INTRA:                  -0.574
REMARK UNBOUND:                -0.785
REMARK SMILES Cc1ccncc1/C=C/Nc1ccc(CCCN)cc1
REMARK SMILES IDX 14 1 13 2 12 3 11 4 20 5 19 6 15 7 16 8 17 9 18 10 10 13
REMARK SMILES IDX 9 15 8 16 7 17 2 18 6 19 3 20 5 21 4 22 1 23
REMARK H PARENT 18 11 18 12 10 14
ROOT
ATOM      1  C   UNL     1      -5.464  -6.665  -0.559  1.00  0.00    -0.048 A 
ATOM      2  C   UNL     1      -5.043  -7.560  -1.545  1.00  0.00     0.006 A 
ATOM      3  C   UNL     1      -5.587  -8.839  -1.623  1.00  0.00     0.026 A 
ATOM      4  C   UNL     1      -6.509  -9.301  -0.680  1.00  0.00     0.038 A 
ATOM      5  C   UNL     1      -6.889  -8.424   0.343  1.00  0.00     0.026 A 
ATOM      6  C   UNL     1      -6.372  -7.121   0.404  1.00  0.00     0.006 A 
ENDROOT
BRANCH   1   7
ATOM      7  C   UNL     1      -4.956  -5.245  -0.525  1.00  0.00     0.037 C 
BRANCH   7   8
ATOM      8  C   UNL     1      -4.914  -4.558   0.853  1.00  0.00     0.020 C 
BRANCH   8   9
ATOM      9  C   UNL     1      -5.225  -3.054   0.865  1.00  0.00     0.078 C 
BRANCH   9  10
ATOM     10  N   UNL     1      -4.266  -2.222   0.151  1.00  0.00    -0.330 NA
ATOM     11  H   UNL     1      -4.730  -1.391  -0.214  1.00  0.00     0.118 HD
ATOM     12  H   UNL     1      -3.910  -2.718  -0.666  1.00  0.00     0.118 HD
ENDBRANCH   9  10
ENDBRANCH   8   9
ENDBRANCH   7   8
ENDBRANCH   1   7
BRANCH   4  13
ATOM     13  N   UNL     1      -6.973 -10.630  -0.682  1.00  0.00    -0.362 N 
ATOM     14  H   UNL     1      -7.976 -10.761  -0.645  1.00  0.00     0.166 HD
BRANCH  13  15
ATOM     15  C   UNL     1      -6.188 -11.733  -0.473  1.00  0.00     0.083 C 
BRANCH  15  16
ATOM     16  C   UNL     1      -6.326 -12.709   0.435  1.00  0.00     0.027 C 
BRANCH  16  17
ATOM     17  C   UNL     1      -6.820 -14.040   0.053  1.00  0.00    -0.003 A 
ATOM     18  C   UNL     1      -6.852 -15.119   0.954  1.00  0.00    -0.041 A 
ATOM     19  C   UNL     1      -7.250 -14.300  -1.257  1.00  0.00     0.119 A 
ATOM     20  C   UNL     1      -7.317 -16.363   0.500  1.00  0.00     0.024 A 
ATOM     21  N   UNL     1      -7.717 -15.488  -1.706  1.00  0.00    -0.264 NA
ATOM     22  C   UNL     1      -7.742 -16.493  -0.812  1.00  0.00     0.111 A 
ATOM     23  C   UNL     1      -6.372 -14.997   2.373  1.00  0.00     0.045 C 
ENDBRANCH  16  17
ENDBRANCH  15  16
ENDBRANCH  13  15
ENDBRANCH   4  13
TORSDOF 8
ENDMDL
MODEL 6
REMARK VINA RESULT:    -4.835      4.682      8.303
REMARK INTER + INTRA:          -7.740
REMARK INTER:                  -7.136
REMARK INTRA:                  -0.603
REMARK UNBOUND:                -0.785
REMARK SMILES Cc1ccncc1/C=C/Nc1ccc(CCCN)cc1
REMARK SMILES IDX 14 1 13 2 12 3 11 4 20 5 19 6 15 7 16 8 17 9 18 10 10 13
REMARK SMILES IDX 9 15 8 16 7 17 2 18 6 19 3 20 5 21 4 22 1 23
REMARK H PARENT 18 11 18 12 10 14
ROOT
ATOM      1  C   UNL     1      -4.590  -6.346   0.563  1.00  0.00    -0.048 A 
ATOM      2  C   UNL     1      -4.408  -7.231  -0.502  1.00  0.00     0.006 A 
ATOM      3  C   UNL     1      -5.404  -8.140  -0.848  1.00  0.00     0.026 A 
ATOM      4  C   UNL     1      -6.581  -8.256  -0.104  1.00  0.00     0.038 A 
ATOM      5  C   UNL     1      -6.740  -7.408   0.998  1.00  0.00     0.026 A 
ATOM      6  C   UNL     1      -5.756  -6.464   1.329  1.00  0.00     0.006 A 
ENDROOT
BRANCH   1   7
ATOM      7  C   UNL     1      -3.563  -5.291   0.885  1.00  0.00     0.037 C 
BRANCH   7   8
ATOM      8  C   UNL     1      -3.596  -4.009   0.029  1.00  0.00     0.020 C 
BRANCH   8   9
ATOM      9  C   UNL     1      -4.738  -3.027   0.331  1.00  0.00     0.078 C 
BRANCH   9  10
ATOM     10  N   UNL     1      -4.837  -2.608   1.722  1.00  0.00    -0.330 NA
ATOM     11  H   UNL     1      -3.911  -2.393   2.089  1.00  0.00     0.118 HD
ATOM     12  H   UNL     1      -5.187  -3.376   2.296  1.00  0.00     0.118 HD
ENDBRANCH   9  10
ENDBRANCH   8   9
ENDBRANCH   7   8
ENDBRANCH   1   7
BRANCH   4  13
ATOM     13  N   UNL     1      -7.538  -9.252  -0.376  1.00  0.00    -0.362 N 
ATOM     14  H   UNL     1      -7.420 -10.138   0.099  1.00  0.00     0.166 HD
BRANCH  13  15
ATOM     15  C   UNL     1      -8.444  -9.207  -1.403  1.00  0.00     0.083 C 
BRANCH  15  16
ATOM     16  C   UNL     1      -9.611  -8.552  -1.473  1.00  0.00     0.027 C 
BRANCH  16  17
ATOM     17  C   UNL     1     -10.542  -8.771  -2.591  1.00  0.00    -0.003 A 
ATOM     18  C   UNL     1     -11.677  -9.593  -2.477  1.00  0.00    -0.041 A 
ATOM     19  C   UNL     1     -10.308  -8.188  -3.845  1.00  0.00     0.119 A 
ATOM     20  C   UNL     1     -12.499  -9.766  -3.601  1.00  0.00     0.024 A 
ATOM     21  N   UNL     1     -11.100  -8.330  -4.934  1.00  0.00    -0.264 NA
ATOM     22  C   UNL     1     -12.181  -9.116  -4.783  1.00  0.00     0.111 A 
ATOM     23  C   UNL     1     -12.019 -10.322  -1.208  1.00  0.00     0.045 C 
ENDBRANCH  16  17
ENDBRANCH  15  16
ENDBRANCH  13  15
ENDBRANCH   4  13
TORSDOF 8
ENDMDL
MODEL 7
REMARK VINA RESULT:    -4.745      4.784      7.021
REMARK INTER + INTRA:          -7.610
REMARK INTER:                  -6.915
REMARK INTRA:                  -0.696
REMARK UNBOUND:                -0.785
REMARK SMILES Cc1ccncc1/C=C/Nc1ccc(CCCN)cc1
REMARK SMILES IDX 14 1 13 2 12 3 11 4 20 5 19 6 15 7 16 8 17 9 18 10 10 13
REMARK SMILES IDX 9 15 8 16 7 17 2 18 6 19 3 20 5 21 4 22 1 23
REMARK H PARENT 18 11 18 12 10 14
ROOT
ATOM      1  C   UNL     1     -11.494  -8.795  -3.705  1.00  0.00    -0.048 A 
ATOM      2  C   UNL     1     -10.392  -7.938  -3.716  1.00  0.00     0.006 A 
ATOM      3  C   UNL     1      -9.420  -8.018  -2.722  1.00  0.00     0.026 A 
ATOM      4  C   UNL     1      -9.547  -8.896  -1.644  1.00  0.00     0.038 A 
ATOM      5  C   UNL     1     -10.680  -9.717  -1.602  1.00  0.00     0.026 A 
ATOM      6  C   UNL     1     -11.644  -9.668  -2.621  1.00  0.00     0.006 A 
ENDROOT
BRANCH   1   7
ATOM      7  C   UNL     1     -12.500  -8.787  -4.829  1.00  0.00     0.037 C 
BRANCH   7   8
ATOM      8  C   UNL     1     -11.986  -9.206  -6.220  1.00  0.00     0.020 C 
BRANCH   8   9
ATOM      9  C   UNL     1     -12.301 -10.646  -6.649  1.00  0.00     0.078 C 
BRANCH   9  10
ATOM     10  N   UNL     1     -11.164 -11.556  -6.629  1.00  0.00    -0.330 NA
ATOM     11  H   UNL     1     -10.294 -11.026  -6.612  1.00  0.00     0.118 HD
ATOM     12  H   UNL     1     -11.136 -12.102  -7.490  1.00  0.00     0.118 HD
ENDBRANCH   9  10
ENDBRANCH   8   9
ENDBRANCH   7   8
ENDBRANCH   1   7
BRANCH   4  13
ATOM     13  N   UNL     1      -8.630  -8.899  -0.575  1.00  0.00    -0.362 N 
ATOM     14  H   UNL     1      -9.021  -8.879   0.359  1.00  0.00     0.166 HD
BRANCH  13  15
ATOM     15  C   UNL     1      -7.285  -8.671  -0.697  1.00  0.00     0.083 C 
BRANCH  15  16
ATOM     16  C   UNL     1      -6.526  -7.748  -0.092  1.00  0.00     0.027 C 
BRANCH  16  17
ATOM     17  C   UNL     1      -5.234  -7.334  -0.659  1.00  0.00    -0.003 A 
ATOM     18  C   UNL     1      -4.356  -6.468   0.017  1.00  0.00    -0.041 A 
ATOM     19  C   UNL     1      -4.837  -7.763  -1.935  1.00  0.00     0.119 A 
ATOM     20  C   UNL     1      -3.153  -6.104  -0.608  1.00  0.00     0.024 A 
ATOM     21  N   UNL     1      -3.673  -7.437  -2.544  1.00  0.00    -0.264 NA
ATOM     22  C   UNL     1      -2.856  -6.615  -1.862  1.00  0.00     0.111 A 
ATOM     23  C   UNL     1      -4.678  -5.889   1.366  1.00  0.00     0.045 C 
ENDBRANCH  16  17
ENDBRANCH  15  16
ENDBRANCH  13  15
ENDBRANCH   4  13
TORSDOF 8
ENDMDL
MODEL 8
REMARK VINA RESULT:    -4.657      2.378      8.423
REMARK INTER + INTRA:          -7.484
REMARK INTER:                  -6.871
REMARK INTRA:                  -0.613
REMARK UNBOUND:                -0.785
REMARK SMILES Cc1ccncc1/C=C/Nc1ccc(CCCN)cc1
REMARK SMILES IDX 14 1 13 2 12 3 11 4 20 5 19 6 15 7 16 8 17 9 18 10 10 13
REMARK SMILES IDX 9 15 8 16 7 17 2 18 6 19 3 20 5 21 4 22 1 23
REMARK H PARENT 18 11 18 12 10 14
ROOT
ATOM      1  C   UNL     1      -5.049  -7.082  -0.917  1.00  0.00    -0.048 A 
ATOM      2  C   UNL     1      -6.033  -7.201   0.067  1.00  0.00     0.006 A 
ATOM      3  C   UNL     1      -6.825  -8.343   0.145  1.00  0.00     0.026 A 
ATOM      4  C   UNL     1      -6.721  -9.372  -0.795  1.00  0.00     0.038 A 
ATOM      5  C   UNL     1      -5.773  -9.228  -1.816  1.00  0.00     0.026 A 
ATOM      6  C   UNL     1      -4.946  -8.096  -1.877  1.00  0.00     0.006 A 
ENDROOT
BRANCH   1   7
ATOM      7  C   UNL     1      -4.119  -5.895  -0.950  1.00  0.00     0.037 C 
BRANCH   7   8
ATOM      8  C   UNL     1      -2.838  -6.044  -1.793  1.00  0.00     0.020 C 
BRANCH   8   9
ATOM      9  C   UNL     1      -1.522  -6.142  -1.007  1.00  0.00     0.078 C 
BRANCH   9  10
ATOM     10  N   UNL     1      -0.319  -6.200  -1.826  1.00  0.00    -0.330 NA
ATOM     11  H   UNL     1       0.212  -5.336  -1.727  1.00  0.00     0.118 HD
ATOM     12  H   UNL     1      -0.568  -6.256  -2.813  1.00  0.00     0.118 HD
ENDBRANCH   9  10
ENDBRANCH   8   9
ENDBRANCH   7   8
ENDBRANCH   1   7
BRANCH   4  13
ATOM     13  N   UNL     1      -7.598 -10.473  -0.793  1.00  0.00    -0.362 N 
ATOM     14  H   UNL     1      -8.544 -10.300  -0.480  1.00  0.00     0.166 HD
BRANCH  13  15
ATOM     15  C   UNL     1      -7.212 -11.781  -0.930  1.00  0.00     0.083 C 
BRANCH  15  16
ATOM     16  C   UNL     1      -6.608 -12.582  -0.042  1.00  0.00     0.027 C 
BRANCH  16  17
ATOM     17  C   UNL     1      -6.884 -14.026  -0.009  1.00  0.00    -0.003 A 
ATOM     18  C   UNL     1      -6.793 -14.784   1.172  1.00  0.00    -0.041 A 
ATOM     19  C   UNL     1      -7.217 -14.723  -1.180  1.00  0.00     0.119 A 
ATOM     20  C   UNL     1      -7.049 -16.162   1.110  1.00  0.00     0.024 A 
ATOM     21  N   UNL     1      -7.485 -16.047  -1.254  1.00  0.00    -0.264 NA
ATOM     22  C   UNL     1      -7.397 -16.736  -0.102  1.00  0.00     0.111 A 
ATOM     23  C   UNL     1      -6.393 -14.178   2.488  1.00  0.00     0.045 C 
ENDBRANCH  16  17
ENDBRANCH  15  16
ENDBRANCH  13  15
ENDBRANCH   4  13
TORSDOF 8
ENDMDL
MODEL 9
REMARK VINA RESULT:    -4.388      2.686      3.955
REMARK INTER + INTRA:          -7.097
REMARK INTER:                  -6.349
REMARK INTRA:                  -0.748
REMARK UNBOUND:                -0.785
REMARK SMILES Cc1ccncc1/C=C/Nc1ccc(CCCN)cc1
REMARK SMILES IDX 14 1 13 2 12 3 11 4 20 5 19 6 15 7 16 8 17 9 18 10 10 13
REMARK SMILES IDX 9 15 8 16 7 17 2 18 6 19 3 20 5 21 4 22 1 23
REMARK H PARENT 18 11 18 12 10 14
ROOT
ATOM      1  C   UNL     1      -6.664 -12.203  -0.402  1.00  0.00    -0.048 A 
ATOM      2  C   UNL     1      -5.430 -11.674  -0.020  1.00  0.00     0.006 A 
ATOM      3  C   UNL     1      -5.216 -10.299  -0.017  1.00  0.00     0.026 A 
ATOM      4  C   UNL     1      -6.192  -9.406  -0.467  1.00  0.00     0.038 A 
ATOM      5  C   UNL     1      -7.410  -9.938  -0.904  1.00  0.00     0.026 A 
ATOM      6  C   UNL     1      -7.645 -11.321  -0.873  1.00  0.00     0.006 A 
ENDROOT
BRANCH   1   7
ATOM      7  C   UNL     1      -6.941 -13.683  -0.313  1.00  0.00     0.037 C 
BRANCH   7   8
ATOM      8  C   UNL     1      -7.428 -14.375  -1.601  1.00  0.00     0.020 C 
BRANCH   8   9
ATOM      9  C   UNL     1      -8.883 -14.865  -1.594  1.00  0.00     0.078 C 
BRANCH   9  10
ATOM     10  N   UNL     1      -9.748 -14.241  -2.585  1.00  0.00    -0.330 NA
ATOM     11  H   UNL     1     -10.305 -14.952  -3.057  1.00  0.00     0.118 HD
ATOM     12  H   UNL     1      -9.186 -13.804  -3.316  1.00  0.00     0.118 HD
ENDBRANCH   9  10
ENDBRANCH   8   9
ENDBRANCH   7   8
ENDBRANCH   1   7
BRANCH   4  13
ATOM     13  N   UNL     1      -5.941  -8.025  -0.579  1.00  0.00    -0.362 N 
ATOM     14  H   UNL     1      -5.290  -7.738  -1.300  1.00  0.00     0.166 HD
BRANCH  13  15
ATOM     15  C   UNL     1      -6.299  -7.086   0.352  1.00  0.00     0.083 C 
BRANCH  15  16
ATOM     16  C   UNL     1      -5.525  -6.411   1.212  1.00  0.00     0.027 C 
BRANCH  16  17
ATOM     17  C   UNL     1      -4.676  -5.298   0.760  1.00  0.00    -0.003 A 
ATOM     18  C   UNL     1      -3.335  -5.479   0.380  1.00  0.00    -0.041 A 
ATOM     19  C   UNL     1      -5.169  -3.984   0.727  1.00  0.00     0.119 A 
ATOM     20  C   UNL     1      -2.589  -4.358  -0.015  1.00  0.00     0.024 A 
ATOM     21  N   UNL     1      -4.469  -2.895   0.331  1.00  0.00    -0.264 NA
ATOM     22  C   UNL     1      -3.193  -3.111  -0.034  1.00  0.00     0.111 A 
ATOM     23  C   UNL     1      -2.662  -6.822   0.419  1.00  0.00     0.045 C 
ENDBRANCH  16  17
ENDBRANCH  15  16
ENDBRANCH  13  15
ENDBRANCH   4  13
TORSDOF 8
ENDMDL
