MODEL 1
REMARK VINA RESULT:    -5.101      0.000      0.000
REMARK INTER + INTRA:          -7.931
REMARK INTER:                  -7.337
REMARK INTRA:                  -0.593
REMARK UNBOUND:                -0.593
REMARK SMILES Cc1ccncc1/C=C/Nc1ccc(CCCN)cc1
REMARK SMILES IDX 14 1 13 2 12 3 11 4 20 5 19 6 15 7 16 8 17 9 18 10 10 13
REMARK SMILES IDX 9 15 8 16 7 17 2 18 6 19 3 20 5 21 4 22 1 23
REMARK H PARENT 18 11 18 12 10 14
ROOT
ATOM      1  C   UNL     1      -3.687 -11.771 -11.849  1.00  0.00    -0.048 A 
ATOM      2  C   UNL     1      -2.737 -11.095 -11.081  1.00  0.00     0.006 A 
ATOM      3  C   UNL     1      -3.130 -10.160 -10.127  1.00  0.00     0.026 A 
ATOM      4  C   UNL     1      -4.471  -9.808  -9.956  1.00  0.00     0.038 A 
ATOM      5  C   UNL     1      -5.420 -10.444 -10.765  1.00  0.00     0.026 A 
ATOM      6  C   UNL     1      -5.033 -11.415 -11.702  1.00  0.00     0.006 A 
ENDROOT
BRANCH   1   7
ATOM      7  C   UNL     1      -3.281 -12.858 -12.814  1.00  0.00     0.037 C 
BRANCH   7   8
ATOM      8  C   UNL     1      -2.417 -14.000 -12.245  1.00  0.00     0.020 C 
BRANCH   8   9
ATOM      9  C   UNL     1      -3.135 -15.339 -12.021  1.00  0.00     0.078 C 
BRANCH   9  10
ATOM     10  N   UNL     1      -3.404 -15.667 -10.628  1.00  0.00    -0.330 NA
ATOM     11  H   UNL     1      -2.621 -15.378 -10.044  1.00  0.00     0.118 HD
ATOM     12  H   UNL     1      -3.473 -16.679 -10.512  1.00  0.00     0.118 HD
ENDBRANCH   9  10
ENDBRANCH   8   9
ENDBRANCH   7   8
ENDBRANCH   1   7
BRANCH   4  13
ATOM     13  N   UNL     1      -4.864  -8.780  -9.078  1.00  0.00    -0.362 N 
ATOM     14  H   UNL     1      -5.250  -7.945  -9.501  1.00  0.00     0.166 HD
BRANCH  13  15
ATOM     15  C   UNL     1      -4.534  -8.715  -7.750  1.00  0.00     0.083 C 
BRANCH  15  16
ATOM     16  C   UNL     1      -4.878  -7.798  -6.837  1.00  0.00     0.027 C 
BRANCH  16  17
ATOM     17  C   UNL     1      -3.958  -7.419  -5.754  1.00  0.00    -0.003 A 
ATOM     18  C   UNL     1      -3.821  -6.091  -5.311  1.00  0.00    -0.041 A 
ATOM     19  C   UNL     1      -3.140  -8.376  -5.136  1.00  0.00     0.119 A 
ATOM     20  C   UNL     1      -2.902  -5.813  -4.288  1.00  0.00     0.024 A 
ATOM     21  N   UNL     1      -2.261  -8.129  -4.137  1.00  0.00    -0.264 NA
ATOM     22  C   UNL     1      -2.167  -6.849  -3.734  1.00  0.00     0.111 A 
ATOM     23  C   UNL     1      -4.596  -4.956  -5.919  1.00  0.00     0.045 C 
ENDBRANCH  16  17
ENDBRANCH  15  16
ENDBRANCH  13  15
ENDBRANCH   4  13
TORSDOF 8
ENDMDL
MODEL 2
REMARK VINA RESULT:    -5.028      1.933      8.771
REMARK INTER + INTRA:          -7.825
REMARK INTER:                  -7.248
REMARK INTRA:                  -0.577
REMARK UNBOUND:                -0.593
REMARK SMILES Cc1ccncc1/C=C/Nc1ccc(CCCN)cc1
REMARK SMILES IDX 14 1 13 2 12 3 11 4 20 5 19 6 15 7 16 8 17 9 18 10 10 13
REMARK SMILES IDX 9 15 8 16 7 17 2 18 6 19 3 20 5 21 4 22 1 23
REMARK H PARENT 18 11 18 12 10 14
ROOT
ATOM      1  C   UNL     1      -3.867  -7.173  -4.985  1.00  0.00    -0.048 A 
ATOM      2  C   UNL     1      -4.544  -6.693  -6.107  1.00  0.00     0.006 A 
ATOM      3  C   UNL     1      -4.941  -7.560  -7.122  1.00  0.00     0.026 A 
ATOM      4  C   UNL     1      -4.612  -8.918  -7.095  1.00  0.00     0.038 A 
ATOM      5  C   UNL     1      -3.883  -9.390  -5.997  1.00  0.00     0.026 A 
ATOM      6  C   UNL     1      -3.514  -8.528  -4.953  1.00  0.00     0.006 A 
ENDROOT
BRANCH   1   7
ATOM      7  C   UNL     1      -3.521  -6.262  -3.833  1.00  0.00     0.037 C 
BRANCH   7   8
ATOM      8  C   UNL     1      -2.125  -6.440  -3.206  1.00  0.00     0.020 C 
BRANCH   8   9
ATOM      9  C   UNL     1      -2.099  -6.825  -1.719  1.00  0.00     0.078 C 
BRANCH   9  10
ATOM     10  N   UNL     1      -2.111  -5.703  -0.792  1.00  0.00    -0.330 NA
ATOM     11  H   UNL     1      -2.717  -5.912   0.000  1.00  0.00     0.118 HD
ATOM     12  H   UNL     1      -2.519  -4.882  -1.239  1.00  0.00     0.118 HD
ENDBRANCH   9  10
ENDBRANCH   8   9
ENDBRANCH   7   8
ENDBRANCH   1   7
BRANCH   4  13
ATOM     13  N   UNL     1      -4.905  -9.776  -8.172  1.00  0.00    -0.362 N 
ATOM     14  H   UNL     1      -5.218 -10.710  -7.937  1.00  0.00     0.166 HD
BRANCH  13  15
ATOM     15  C   UNL     1      -4.562  -9.540  -9.477  1.00  0.00     0.083 C 
BRANCH  15  16
ATOM     16  C   UNL     1      -3.817 -10.286 -10.304  1.00  0.00     0.027 C 
BRANCH  16  17
ATOM     17  C   UNL     1      -4.435 -11.096 -11.364  1.00  0.00    -0.003 A 
ATOM     18  C   UNL     1      -3.734 -12.106 -12.046  1.00  0.00    -0.041 A 
ATOM     19  C   UNL     1      -5.758 -10.864 -11.768  1.00  0.00     0.119 A 
ATOM     20  C   UNL     1      -4.394 -12.816 -13.061  1.00  0.00     0.024 A 
ATOM     21  N   UNL     1      -6.415 -11.550 -12.733  1.00  0.00    -0.264 NA
ATOM     22  C   UNL     1      -5.714 -12.515 -13.355  1.00  0.00     0.111 A 
ATOM     23  C   UNL     1      -2.295 -12.426 -11.753  1.00  0.00     0.045 C 
ENDBRANCH  16  17
ENDBRANCH  15  16
ENDBRANCH  13  15
ENDBRANCH   4  13
TORSDOF 8
ENDMDL
MODEL 3
REMARK VINA RESULT:    -4.999      1.984      8.573
REMARK INTER + INTRA:          -7.783
REMARK INTER:                  -7.201
REMARK INTRA:                  -0.582
REMARK UNBOUND:                -0.593
REMARK SMILES Cc1ccncc1/C=C/Nc1ccc(CCCN)cc1
REMARK SMILES IDX 14 1 13 2 12 3 11 4 20 5 19 6 15 7 16 8 17 9 18 10 10 13
REMARK SMILES IDX 9 15 8 16 7 17 2 18 6 19 3 20 5 21 4 22 1 23
REMARK H PARENT 18 11 18 12 10 14
ROOT
ATOM      1  C   UNL     1      -4.114  -6.245  -5.472  1.00  0.00    -0.048 A 
ATOM      2  C   UNL     1      -5.041  -6.058  -6.500  1.00  0.00     0.006 A 
ATOM      3  C   UNL     1      -5.491  -7.137  -7.255  1.00  0.00     0.026 A 
ATOM      4  C   UNL     1      -4.980  -8.424  -7.070  1.00  0.00     0.038 A 
ATOM      5  C   UNL     1      -4.009  -8.603  -6.077  1.00  0.00     0.026 A 
ATOM      6  C   UNL     1      -3.580  -7.526  -5.287  1.00  0.00     0.006 A 
ENDROOT
BRANCH   1   7
ATOM      7  C   UNL     1      -3.696  -5.102  -4.581  1.00  0.00     0.037 C 
BRANCH   7   8
ATOM      8  C   UNL     1      -2.322  -4.466  -4.871  1.00  0.00     0.020 C 
BRANCH   8   9
ATOM      9  C   UNL     1      -2.180  -3.760  -6.227  1.00  0.00     0.078 C 
BRANCH   9  10
ATOM     10  N   UNL     1      -2.435  -2.327  -6.204  1.00  0.00    -0.330 NA
ATOM     11  H   UNL     1      -1.843  -1.856  -6.887  1.00  0.00     0.118 HD
ATOM     12  H   UNL     1      -2.171  -1.937  -5.299  1.00  0.00     0.118 HD
ENDBRANCH   9  10
ENDBRANCH   8   9
ENDBRANCH   7   8
ENDBRANCH   1   7
BRANCH   4  13
ATOM     13  N   UNL     1      -5.342  -9.496  -7.908  1.00  0.00    -0.362 N 
ATOM     14  H   UNL     1      -6.143 -10.046  -7.623  1.00  0.00     0.166 HD
BRANCH  13  15
ATOM     15  C   UNL     1      -4.560 -10.001  -8.913  1.00  0.00     0.083 C 
BRANCH  15  16
ATOM     16  C   UNL     1      -4.645  -9.796 -10.235  1.00  0.00     0.027 C 
BRANCH  16  17
ATOM     17  C   UNL     1      -4.244 -10.836 -11.194  1.00  0.00    -0.003 A 
ATOM     18  C   UNL     1      -5.156 -11.440 -12.077  1.00  0.00    -0.041 A 
ATOM     19  C   UNL     1      -2.920 -11.300 -11.241  1.00  0.00     0.119 A 
ATOM     20  C   UNL     1      -4.694 -12.441 -12.944  1.00  0.00     0.024 A 
ATOM     21  N   UNL     1      -2.454 -12.252 -12.083  1.00  0.00    -0.264 NA
ATOM     22  C   UNL     1      -3.355 -12.798 -12.918  1.00  0.00     0.111 A 
ATOM     23  C   UNL     1      -6.615 -11.078 -12.098  1.00  0.00     0.045 C 
ENDBRANCH  16  17
ENDBRANCH  15  16
ENDBRANCH  13  15
ENDBRANCH   4  13
TORSDOF 8
ENDMDL
MODEL 4
REMARK VINA RESULT:    -4.987      1.672      8.658
REMARK INTER + INTRA:          -7.767
REMARK INTER:                  -7.237
REMARK INTRA:                  -0.530
REMARK UNBOUND:                -0.593
REMARK SMILES Cc1ccncc1/C=C/Nc1ccc(CCCN)cc1
REMARK SMILES IDX 14 1 13 2 12 3 11 4 20 5 19 6 15 7 16 8 17 9 18 10 10 13
REMARK SMILES IDX 9 15 8 16 7 17 2 18 6 19 3 20 5 21 4 22 1 23
REMARK H PARENT 18 11 18 12 10 14
ROOT
ATOM      1  C   UNL     1      -3.857  -7.066  -4.974  1.00  0.00    -0.048 A 
ATOM      2  C   UNL     1      -4.590  -6.626  -6.078  1.00  0.00     0.006 A 
ATOM      3  C   UNL     1      -5.021  -7.525  -7.049  1.00  0.00     0.026 A 
ATOM      4  C   UNL     1      -4.674  -8.878  -7.000  1.00  0.00     0.038 A 
ATOM      5  C   UNL     1      -3.891  -9.310  -5.923  1.00  0.00     0.026 A 
ATOM      6  C   UNL     1      -3.487  -8.415  -4.921  1.00  0.00     0.006 A 
ENDROOT
BRANCH   1   7
ATOM      7  C   UNL     1      -3.472  -6.119  -3.865  1.00  0.00     0.037 C 
BRANCH   7   8
ATOM      8  C   UNL     1      -2.105  -6.358  -3.195  1.00  0.00     0.020 C 
BRANCH   8   9
ATOM      9  C   UNL     1      -2.141  -6.743  -1.709  1.00  0.00     0.078 C 
BRANCH   9  10
ATOM     10  N   UNL     1      -2.102  -5.621  -0.781  1.00  0.00    -0.330 NA
ATOM     11  H   UNL     1      -2.741  -4.890  -1.091  1.00  0.00     0.118 HD
ATOM     12  H   UNL     1      -1.175  -5.194  -0.785  1.00  0.00     0.118 HD
ENDBRANCH   9  10
ENDBRANCH   8   9
ENDBRANCH   7   8
ENDBRANCH   1   7
BRANCH   4  13
ATOM     13  N   UNL     1      -5.004  -9.769  -8.038  1.00  0.00    -0.362 N 
ATOM     14  H   UNL     1      -5.583 -10.561  -7.790  1.00  0.00     0.166 HD
BRANCH  13  15
ATOM     15  C   UNL     1      -4.406  -9.791  -9.270  1.00  0.00     0.083 C 
BRANCH  15  16
ATOM     16  C   UNL     1      -4.954 -10.009 -10.473  1.00  0.00     0.027 C 
BRANCH  16  17
ATOM     17  C   UNL     1      -4.384 -10.995 -11.403  1.00  0.00    -0.003 A 
ATOM     18  C   UNL     1      -5.149 -11.619 -12.404  1.00  0.00    -0.041 A 
ATOM     19  C   UNL     1      -3.040 -11.386 -11.303  1.00  0.00     0.119 A 
ATOM     20  C   UNL     1      -4.531 -12.566 -13.234  1.00  0.00     0.024 A 
ATOM     21  N   UNL     1      -2.423 -12.284 -12.106  1.00  0.00    -0.264 NA
ATOM     22  C   UNL     1      -3.186 -12.852 -13.057  1.00  0.00     0.111 A 
ATOM     23  C   UNL     1      -6.614 -11.336 -12.591  1.00  0.00     0.045 C 
ENDBRANCH  16  17
ENDBRANCH  15  16
ENDBRANCH  13  15
ENDBRANCH   4  13
TORSDOF 8
ENDMDL
MODEL 5
REMARK VINA RESULT:    -4.895      1.306      1.917
REMARK INTER + INTRA:          -7.635
REMARK INTER:                  -7.072
REMARK INTRA:                  -0.562
REMARK UNBOUND:                -0.593
REMARK SMILES Cc1ccncc1/C=C/Nc1ccc(CCCN)cc1
REMARK SMILES IDX 14 1 13 2 12 3 11 4 20 5 19 6 15 7 16 8 17 9 18 10 10 13
REMARK SMILES IDX 9 15 8 16 7 17 2 18 6 19 3 20 5 21 4 22 1 23
REMARK H PARENT 18 11 18 12 10 14
ROOT
ATOM      1  C   UNL     1      -3.858 -11.917 -12.196  1.00  0.00    -0.048 A 
ATOM      2  C   UNL     1      -2.815 -11.305 -11.499  1.00  0.00     0.006 A 
ATOM      3  C   UNL     1      -3.079 -10.428 -10.451  1.00  0.00     0.026 A 
ATOM      4  C   UNL     1      -4.385 -10.068 -10.109  1.00  0.00     0.038 A 
ATOM      5  C   UNL     1      -5.431 -10.638 -10.844  1.00  0.00     0.026 A 
ATOM      6  C   UNL     1      -5.172 -11.552 -11.877  1.00  0.00     0.006 A 
ENDROOT
BRANCH   1   7
ATOM      7  C   UNL     1      -3.585 -12.945 -13.265  1.00  0.00     0.037 C 
BRANCH   7   8
ATOM      8  C   UNL     1      -3.809 -14.420 -12.880  1.00  0.00     0.020 C 
BRANCH   8   9
ATOM      9  C   UNL     1      -2.845 -14.997 -11.834  1.00  0.00     0.078 C 
BRANCH   9  10
ATOM     10  N   UNL     1      -3.484 -15.664 -10.709  1.00  0.00    -0.330 NA
ATOM     11  H   UNL     1      -4.303 -16.180 -11.028  1.00  0.00     0.118 HD
ATOM     12  H   UNL     1      -3.838 -14.974 -10.046  1.00  0.00     0.118 HD
ENDBRANCH   9  10
ENDBRANCH   8   9
ENDBRANCH   7   8
ENDBRANCH   1   7
BRANCH   4  13
ATOM     13  N   UNL     1      -4.657  -9.092  -9.131  1.00  0.00    -0.362 N 
ATOM     14  H   UNL     1      -4.394  -8.141  -9.354  1.00  0.00     0.166 HD
BRANCH  13  15
ATOM     15  C   UNL     1      -5.000  -9.361  -7.832  1.00  0.00     0.083 C 
BRANCH  15  16
ATOM     16  C   UNL     1      -4.446  -8.907  -6.700  1.00  0.00     0.027 C 
BRANCH  16  17
ATOM     17  C   UNL     1      -4.445  -7.473  -6.374  1.00  0.00    -0.003 A 
ATOM     18  C   UNL     1      -3.583  -6.919  -5.411  1.00  0.00    -0.041 A 
ATOM     19  C   UNL     1      -5.345  -6.593  -6.994  1.00  0.00     0.119 A 
ATOM     20  C   UNL     1      -3.665  -5.544  -5.144  1.00  0.00     0.024 A 
ATOM     21  N   UNL     1      -5.425  -5.262  -6.762  1.00  0.00    -0.264 NA
ATOM     22  C   UNL     1      -4.578  -4.769  -5.842  1.00  0.00     0.111 A 
ATOM     23  C   UNL     1      -2.606  -7.753  -4.631  1.00  0.00     0.045 C 
ENDBRANCH  16  17
ENDBRANCH  15  16
ENDBRANCH  13  15
ENDBRANCH   4  13
TORSDOF 8
ENDMDL
MODEL 6
REMARK VINA RESULT:    -4.448      4.340      8.372
REMARK INTER + INTRA:          -6.991
REMARK INTER:                  -6.318
REMARK INTRA:                  -0.673
REMARK UNBOUND:                -0.593
REMARK SMILES Cc1ccncc1/C=C/Nc1ccc(CCCN)cc1
REMARK SMILES IDX 14 1 13 2 12 3 11 4 20 5 19 6 15 7 16 8 17 9 18 10 10 13
REMARK SMILES IDX 9 15 8 16 7 17 2 18 6 19 3 20 5 21 4 22 1 23
REMARK H PARENT 18 11 18 12 10 14
ROOT
ATOM      1  C   UNL     1      -3.663  -6.395  -5.145  1.00  0.00    -0.048 A 
ATOM      2  C   UNL     1      -4.599  -6.282  -6.174  1.00  0.00     0.006 A 
ATOM      3  C   UNL     1      -5.116  -7.417  -6.793  1.00  0.00     0.026 A 
ATOM      4  C   UNL     1      -4.664  -8.698  -6.467  1.00  0.00     0.038 A 
ATOM      5  C   UNL     1      -3.684  -8.810  -5.474  1.00  0.00     0.026 A 
ATOM      6  C   UNL     1      -3.188  -7.672  -4.820  1.00  0.00     0.006 A 
ENDROOT
BRANCH   1   7
ATOM      7  C   UNL     1      -3.172  -5.180  -4.399  1.00  0.00     0.037 C 
BRANCH   7   8
ATOM      8  C   UNL     1      -1.977  -4.426  -5.015  1.00  0.00     0.020 C 
BRANCH   8   9
ATOM      9  C   UNL     1      -2.327  -3.232  -5.915  1.00  0.00     0.078 C 
BRANCH   9  10
ATOM     10  N   UNL     1      -1.696  -3.245  -7.227  1.00  0.00    -0.330 NA
ATOM     11  H   UNL     1      -1.141  -2.400  -7.355  1.00  0.00     0.118 HD
ATOM     12  H   UNL     1      -2.406  -3.219  -7.959  1.00  0.00     0.118 HD
ENDBRANCH   9  10
ENDBRANCH   8   9
ENDBRANCH   7   8
ENDBRANCH   1   7
BRANCH   4  13
ATOM     13  N   UNL     1      -5.094  -9.840  -7.170  1.00  0.00    -0.362 N 
ATOM     14  H   UNL     1      -4.537 -10.119  -7.968  1.00  0.00     0.166 HD
BRANCH  13  15
ATOM     15  C   UNL     1      -6.319 -10.435  -7.022  1.00  0.00     0.083 C 
BRANCH  15  16
ATOM     16  C   UNL     1      -6.974 -10.752  -5.897  1.00  0.00     0.027 C 
BRANCH  16  17
ATOM     17  C   UNL     1      -7.994 -11.812  -5.883  1.00  0.00    -0.003 A 
ATOM     18  C   UNL     1      -9.332 -11.567  -5.525  1.00  0.00    -0.041 A 
ATOM     19  C   UNL     1      -7.658 -13.138  -6.194  1.00  0.00     0.119 A 
ATOM     20  C   UNL     1     -10.235 -12.641  -5.515  1.00  0.00     0.024 A 
ATOM     21  N   UNL     1      -8.520 -14.182  -6.207  1.00  0.00    -0.264 NA
ATOM     22  C   UNL     1      -9.792 -13.905  -5.868  1.00  0.00     0.111 A 
ATOM     23  C   UNL     1      -9.818 -10.205  -5.117  1.00  0.00     0.045 C 
ENDBRANCH  16  17
ENDBRANCH  15  16
ENDBRANCH  13  15
ENDBRANCH   4  13
TORSDOF 8
ENDMDL
MODEL 7
REMARK VINA RESULT:    -4.418      2.011      2.675
REMARK INTER + INTRA:          -6.949
REMARK INTER:                  -6.371
REMARK INTRA:                  -0.577
REMARK UNBOUND:                -0.593
REMARK SMILES Cc1ccncc1/C=C/Nc1ccc(CCCN)cc1
REMARK SMILES IDX 14 1 13 2 12 3 11 4 20 5 19 6 15 7 16 8 17 9 18 10 10 13
REMARK SMILES IDX 9 15 8 16 7 17 2 18 6 19 3 20 5 21 4 22 1 23
REMARK H PARENT 18 11 18 12 10 14
ROOT
ATOM      1  C   UNL     1      -4.130 -11.593 -11.933  1.00  0.00    -0.048 A 
ATOM      2  C   UNL     1      -5.407 -11.262 -11.476  1.00  0.00     0.006 A 
ATOM      3  C   UNL     1      -5.577 -10.324 -10.461  1.00  0.00     0.026 A 
ATOM      4  C   UNL     1      -4.485  -9.742  -9.813  1.00  0.00     0.038 A 
ATOM      5  C   UNL     1      -3.203 -10.116 -10.231  1.00  0.00     0.026 A 
ATOM      6  C   UNL     1      -3.026 -11.032 -11.280  1.00  0.00     0.006 A 
ENDROOT
BRANCH   1   7
ATOM      7  C   UNL     1      -3.937 -12.531 -13.099  1.00  0.00     0.037 C 
BRANCH   7   8
ATOM      8  C   UNL     1      -2.509 -13.060 -13.333  1.00  0.00     0.020 C 
BRANCH   8   9
ATOM      9  C   UNL     1      -2.008 -13.029 -14.784  1.00  0.00     0.078 C 
BRANCH   9  10
ATOM     10  N   UNL     1      -1.843 -11.697 -15.349  1.00  0.00    -0.330 NA
ATOM     11  H   UNL     1      -2.574 -11.077 -15.001  1.00  0.00     0.118 HD
ATOM     12  H   UNL     1      -1.971 -11.727 -16.361  1.00  0.00     0.118 HD
ENDBRANCH   9  10
ENDBRANCH   8   9
ENDBRANCH   7   8
ENDBRANCH   1   7
BRANCH   4  13
ATOM     13  N   UNL     1      -4.647  -8.884  -8.707  1.00  0.00    -0.362 N 
ATOM     14  H   UNL     1      -4.841  -7.912  -8.912  1.00  0.00     0.166 HD
BRANCH  13  15
ATOM     15  C   UNL     1      -4.315  -9.200  -7.417  1.00  0.00     0.083 C 
BRANCH  15  16
ATOM     16  C   UNL     1      -4.656  -8.579  -6.280  1.00  0.00     0.027 C 
BRANCH  16  17
ATOM     17  C   UNL     1      -4.235  -7.195  -6.012  1.00  0.00    -0.003 A 
ATOM     18  C   UNL     1      -3.111  -6.887  -5.226  1.00  0.00    -0.041 A 
ATOM     19  C   UNL     1      -4.974  -6.110  -6.508  1.00  0.00     0.119 A 
ATOM     20  C   UNL     1      -2.795  -5.539  -5.001  1.00  0.00     0.024 A 
ATOM     21  N   UNL     1      -4.673  -4.805  -6.316  1.00  0.00    -0.264 NA
ATOM     22  C   UNL     1      -3.585  -4.551  -5.567  1.00  0.00     0.111 A 
ATOM     23  C   UNL     1      -2.261  -7.949  -4.587  1.00  0.00     0.045 C 
ENDBRANCH  16  17
ENDBRANCH  15  16
ENDBRANCH  13  15
ENDBRANCH   4  13
TORSDOF 8
ENDMDL
MODEL 8
REMARK VINA RESULT:    -4.402      4.195      4.943
REMARK INTER + INTRA:          -6.926
REMARK INTER:                  -6.285
REMARK INTRA:                  -0.641
REMARK UNBOUND:                -0.593
REMARK SMILES Cc1ccncc1/C=C/Nc1ccc(CCCN)cc1
REMARK SMILES IDX 14 1 13 2 12 3 11 4 20 5 19 6 15 7 16 8 17 9 18 10 10 13
REMARK SMILES IDX 9 15 8 16 7 17 2 18 6 19 3 20 5 21 4 22 1 23
REMARK H PARENT 18 11 18 12 10 14
ROOT
ATOM      1  C   UNL     1      -8.075 -11.774  -5.967  1.00  0.00    -0.048 A 
ATOM      2  C   UNL     1      -7.066 -11.490  -6.890  1.00  0.00     0.006 A 
ATOM      3  C   UNL     1      -6.133 -10.488  -6.638  1.00  0.00     0.026 A 
ATOM      4  C   UNL     1      -6.215  -9.683  -5.499  1.00  0.00     0.038 A 
ATOM      5  C   UNL     1      -7.259  -9.929  -4.600  1.00  0.00     0.026 A 
ATOM      6  C   UNL     1      -8.180 -10.963  -4.831  1.00  0.00     0.006 A 
ENDROOT
BRANCH   1   7
ATOM      7  C   UNL     1      -9.029 -12.922  -6.182  1.00  0.00     0.037 C 
BRANCH   7   8
ATOM      8  C   UNL     1      -8.400 -14.308  -6.427  1.00  0.00     0.020 C 
BRANCH   8   9
ATOM      9  C   UNL     1      -8.587 -14.892  -7.835  1.00  0.00     0.078 C 
BRANCH   9  10
ATOM     10  N   UNL     1      -7.550 -14.534  -8.793  1.00  0.00    -0.330 NA
ATOM     11  H   UNL     1      -7.453 -15.269  -9.493  1.00  0.00     0.118 HD
ATOM     12  H   UNL     1      -6.644 -14.480  -8.326  1.00  0.00     0.118 HD
ENDBRANCH   9  10
ENDBRANCH   8   9
ENDBRANCH   7   8
ENDBRANCH   1   7
BRANCH   4  13
ATOM     13  N   UNL     1      -5.348  -8.592  -5.296  1.00  0.00    -0.362 N 
ATOM     14  H   UNL     1      -5.578  -7.965  -4.535  1.00  0.00     0.166 HD
BRANCH  13  15
ATOM     15  C   UNL     1      -4.390  -8.177  -6.183  1.00  0.00     0.083 C 
BRANCH  15  16
ATOM     16  C   UNL     1      -3.250  -7.514  -5.949  1.00  0.00     0.027 C 
BRANCH  16  17
ATOM     17  C   UNL     1      -2.861  -7.127  -4.584  1.00  0.00    -0.003 A 
ATOM     18  C   UNL     1      -3.278  -5.921  -3.995  1.00  0.00    -0.041 A 
ATOM     19  C   UNL     1      -2.013  -7.942  -3.819  1.00  0.00     0.119 A 
ATOM     20  C   UNL     1      -2.840  -5.618  -2.697  1.00  0.00     0.024 A 
ATOM     21  N   UNL     1      -1.596  -7.674  -2.560  1.00  0.00    -0.264 NA
ATOM     22  C   UNL     1      -2.024  -6.516  -2.027  1.00  0.00     0.111 A 
ATOM     23  C   UNL     1      -4.143  -4.928  -4.720  1.00  0.00     0.045 C 
ENDBRANCH  16  17
ENDBRANCH  15  16
ENDBRANCH  13  15
ENDBRANCH   4  13
TORSDOF 8
ENDMDL
MODEL 9
REMARK VINA RESULT:    -4.291      2.347      8.580
REMARK INTER + INTRA:          -6.766
REMARK INTER:                  -6.220
REMARK INTRA:                  -0.545
REMARK UNBOUND:                -0.593
REMARK SMILES Cc1ccncc1/C=C/Nc1ccc(CCCN)cc1
REMARK SMILES IDX 14 1 13 2 12 3 11 4 20 5 19 6 15 7 16 8 17 9 18 10 10 13
REMARK SMILES IDX 9 15 8 16 7 17 2 18 6 19 3 20 5 21 4 22 1 23
REMARK H PARENT 18 11 18 12 10 14
ROOT
ATOM      1  C   UNL     1      -3.938  -7.535  -5.505  1.00  0.00    -0.048 A 
ATOM      2  C   UNL     1      -3.696  -8.909  -5.457  1.00  0.00     0.006 A 
ATOM      3  C   UNL     1      -4.108  -9.740  -6.495  1.00  0.00     0.026 A 
ATOM      4  C   UNL     1      -4.843  -9.249  -7.578  1.00  0.00     0.038 A 
ATOM      5  C   UNL     1      -5.136  -7.881  -7.599  1.00  0.00     0.026 A 
ATOM      6  C   UNL     1      -4.689  -7.032  -6.574  1.00  0.00     0.006 A 
ENDROOT
BRANCH   1   7
ATOM      7  C   UNL     1      -3.408  -6.611  -4.437  1.00  0.00     0.037 C 
BRANCH   7   8
ATOM      8  C   UNL     1      -2.307  -7.176  -3.518  1.00  0.00     0.020 C 
BRANCH   8   9
ATOM      9  C   UNL     1      -2.419  -6.813  -2.031  1.00  0.00     0.078 C 
BRANCH   9  10
ATOM     10  N   UNL     1      -1.168  -6.861  -1.289  1.00  0.00    -0.330 NA
ATOM     11  H   UNL     1      -0.665  -5.981  -1.396  1.00  0.00     0.118 HD
ATOM     12  H   UNL     1      -0.554  -7.576  -1.681  1.00  0.00     0.118 HD
ENDBRANCH   9  10
ENDBRANCH   8   9
ENDBRANCH   7   8
ENDBRANCH   1   7
BRANCH   4  13
ATOM     13  N   UNL     1      -5.366 -10.101  -8.569  1.00  0.00    -0.362 N 
ATOM     14  H   UNL     1      -5.990 -10.834  -8.256  1.00  0.00     0.166 HD
BRANCH  13  15
ATOM     15  C   UNL     1      -4.906 -10.177  -9.857  1.00  0.00     0.083 C 
BRANCH  15  16
ATOM     16  C   UNL     1      -5.583 -10.050 -11.006  1.00  0.00     0.027 C 
BRANCH  16  17
ATOM     17  C   UNL     1      -6.355 -11.171 -11.563  1.00  0.00    -0.003 A 
ATOM     18  C   UNL     1      -7.230 -11.016 -12.653  1.00  0.00    -0.041 A 
ATOM     19  C   UNL     1      -6.276 -12.452 -10.996  1.00  0.00     0.119 A 
ATOM     20  C   UNL     1      -7.947 -12.134 -13.106  1.00  0.00     0.024 A 
ATOM     21  N   UNL     1      -6.946 -13.544 -11.431  1.00  0.00    -0.264 NA
ATOM     22  C   UNL     1      -7.766 -13.358 -12.481  1.00  0.00     0.111 A 
ATOM     23  C   UNL     1      -7.454  -9.690 -13.323  1.00  0.00     0.045 C 
ENDBRANCH  16  17
ENDBRANCH  15  16
ENDBRANCH  13  15
ENDBRANCH   4  13
TORSDOF 8
ENDMDL
