MODEL 1
REMARK VINA RESULT:    -5.215      0.000      0.000
REMARK INTER + INTRA:          -8.265
REMARK INTER:                  -7.502
REMARK INTRA:                  -0.763
REMARK UNBOUND:                -0.763
REMARK SMILES Cc1ccncc1/C=C/Nc1ccc(CCCN)cc1
REMARK SMILES IDX 14 1 13 2 12 3 11 4 20 5 19 6 15 7 16 8 17 9 18 10 10 13
REMARK SMILES IDX 9 15 8 16 7 17 2 18 6 19 3 20 5 21 4 22 1 23
REMARK H PARENT 18 11 18 12 10 14
ROOT
ATOM      1  C   UNL     1      11.863   2.915 -11.554  1.00  0.00    -0.048 A 
ATOM      2  C   UNL     1      11.916   4.308 -11.629  1.00  0.00     0.006 A 
ATOM      3  C   UNL     1      11.126   5.096 -10.797  1.00  0.00     0.026 A 
ATOM      4  C   UNL     1      10.201   4.531  -9.916  1.00  0.00     0.038 A 
ATOM      5  C   UNL     1      10.105   3.134  -9.880  1.00  0.00     0.026 A 
ATOM      6  C   UNL     1      10.926   2.335 -10.689  1.00  0.00     0.006 A 
ENDROOT
BRANCH   1   7
ATOM      7  C   UNL     1      12.785   2.052 -12.378  1.00  0.00     0.037 C 
BRANCH   7   8
ATOM      8  C   UNL     1      12.131   1.191 -13.475  1.00  0.00     0.020 C 
BRANCH   8   9
ATOM      9  C   UNL     1      11.883   1.889 -14.821  1.00  0.00     0.078 C 
BRANCH   9  10
ATOM     10  N   UNL     1      10.485   2.148 -15.131  1.00  0.00    -0.330 NA
ATOM     11  H   UNL     1       9.952   1.280 -15.093  1.00  0.00     0.118 HD
ATOM     12  H   UNL     1      10.394   2.482 -16.091  1.00  0.00     0.118 HD
ENDBRANCH   9  10
ENDBRANCH   8   9
ENDBRANCH   7   8
ENDBRANCH   1   7
BRANCH   4  13
ATOM     13  N   UNL     1       9.316   5.321  -9.159  1.00  0.00    -0.362 N 
ATOM     14  H   UNL     1       9.608   5.557  -8.219  1.00  0.00     0.166 HD
BRANCH  13  15
ATOM     15  C   UNL     1       8.010   5.572  -9.491  1.00  0.00     0.083 C 
BRANCH  15  16
ATOM     16  C   UNL     1       6.991   5.931  -8.700  1.00  0.00     0.027 C 
BRANCH  16  17
ATOM     17  C   UNL     1       5.975   4.956  -8.276  1.00  0.00    -0.003 A 
ATOM     18  C   UNL     1       5.562   4.830  -6.937  1.00  0.00    -0.041 A 
ATOM     19  C   UNL     1       5.396   4.072  -9.199  1.00  0.00     0.119 A 
ATOM     20  C   UNL     1       4.604   3.856  -6.616  1.00  0.00     0.024 A 
ATOM     21  N   UNL     1       4.459   3.140  -8.910  1.00  0.00    -0.264 NA
ATOM     22  C   UNL     1       4.083   3.057  -7.621  1.00  0.00     0.111 A 
ATOM     23  C   UNL     1       6.138   5.674  -5.835  1.00  0.00     0.045 C 
ENDBRANCH  16  17
ENDBRANCH  15  16
ENDBRANCH  13  15
ENDBRANCH   4  13
TORSDOF 8
ENDMDL
MODEL 2
REMARK VINA RESULT:    -5.202      4.836      6.899
REMARK INTER + INTRA:          -8.246
REMARK INTER:                  -7.585
REMARK INTRA:                  -0.660
REMARK UNBOUND:                -0.763
REMARK SMILES Cc1ccncc1/C=C/Nc1ccc(CCCN)cc1
REMARK SMILES IDX 14 1 13 2 12 3 11 4 20 5 19 6 15 7 16 8 17 9 18 10 10 13
REMARK SMILES IDX 9 15 8 16 7 17 2 18 6 19 3 20 5 21 4 22 1 23
REMARK H PARENT 18 11 18 12 10 14
ROOT
ATOM      1  C   UNL     1       6.225  10.163 -12.687  1.00  0.00    -0.048 A 
ATOM      2  C   UNL     1       6.629   9.027 -13.392  1.00  0.00     0.006 A 
ATOM      3  C   UNL     1       6.447   7.756 -12.854  1.00  0.00     0.026 A 
ATOM      4  C   UNL     1       5.930   7.571 -11.570  1.00  0.00     0.038 A 
ATOM      5  C   UNL     1       5.578   8.712 -10.839  1.00  0.00     0.026 A 
ATOM      6  C   UNL     1       5.723   9.994 -11.391  1.00  0.00     0.006 A 
ENDROOT
BRANCH   1   7
ATOM      7  C   UNL     1       6.324  11.538 -13.300  1.00  0.00     0.037 C 
BRANCH   7   8
ATOM      8  C   UNL     1       7.304  12.523 -12.634  1.00  0.00     0.020 C 
BRANCH   8   9
ATOM      9  C   UNL     1       8.679  12.662 -13.304  1.00  0.00     0.078 C 
BRANCH   9  10
ATOM     10  N   UNL     1       9.781  12.045 -12.580  1.00  0.00    -0.330 NA
ATOM     11  H   UNL     1       9.749  12.317 -11.598  1.00  0.00     0.118 HD
ATOM     12  H   UNL     1      10.672  12.395 -12.932  1.00  0.00     0.118 HD
ENDBRANCH   9  10
ENDBRANCH   8   9
ENDBRANCH   7   8
ENDBRANCH   1   7
BRANCH   4  13
ATOM     13  N   UNL     1       5.854   6.298 -10.974  1.00  0.00    -0.362 N 
ATOM     14  H   UNL     1       5.181   5.652 -11.367  1.00  0.00     0.166 HD
BRANCH  13  15
ATOM     15  C   UNL     1       6.419   5.961  -9.772  1.00  0.00     0.083 C 
BRANCH  15  16
ATOM     16  C   UNL     1       6.130   4.936  -8.960  1.00  0.00     0.027 C 
BRANCH  16  17
ATOM     17  C   UNL     1       6.034   5.120  -7.504  1.00  0.00    -0.003 A 
ATOM     18  C   UNL     1       5.155   4.369  -6.704  1.00  0.00    -0.041 A 
ATOM     19  C   UNL     1       6.802   6.096  -6.850  1.00  0.00     0.119 A 
ATOM     20  C   UNL     1       5.110   4.627  -5.326  1.00  0.00     0.024 A 
ATOM     21  N   UNL     1       6.785   6.345  -5.520  1.00  0.00    -0.264 NA
ATOM     22  C   UNL     1       5.938   5.599  -4.788  1.00  0.00     0.111 A 
ATOM     23  C   UNL     1       4.235   3.329  -7.279  1.00  0.00     0.045 C 
ENDBRANCH  16  17
ENDBRANCH  15  16
ENDBRANCH  13  15
ENDBRANCH   4  13
TORSDOF 8
ENDMDL
MODEL 3
REMARK VINA RESULT:    -5.031      1.350      2.308
REMARK INTER + INTRA:          -7.999
REMARK INTER:                  -7.340
REMARK INTRA:                  -0.659
REMARK UNBOUND:                -0.763
REMARK SMILES Cc1ccncc1/C=C/Nc1ccc(CCCN)cc1
REMARK SMILES IDX 14 1 13 2 12 3 11 4 20 5 19 6 15 7 16 8 17 9 18 10 10 13
REMARK SMILES IDX 9 15 8 16 7 17 2 18 6 19 3 20 5 21 4 22 1 23
REMARK H PARENT 18 11 18 12 10 14
ROOT
ATOM      1  C   UNL     1      11.893   2.970 -11.520  1.00  0.00    -0.048 A 
ATOM      2  C   UNL     1      11.033   2.360 -10.605  1.00  0.00     0.006 A 
ATOM      3  C   UNL     1      10.142   3.119  -9.852  1.00  0.00     0.026 A 
ATOM      4  C   UNL     1      10.127   4.514  -9.923  1.00  0.00     0.038 A 
ATOM      5  C   UNL     1      11.028   5.131 -10.798  1.00  0.00     0.026 A 
ATOM      6  C   UNL     1      11.902   4.369 -11.588  1.00  0.00     0.006 A 
ENDROOT
BRANCH   1   7
ATOM      7  C   UNL     1      12.791   2.151 -12.413  1.00  0.00     0.037 C 
BRANCH   7   8
ATOM      8  C   UNL     1      12.097   1.269 -13.470  1.00  0.00     0.020 C 
BRANCH   8   9
ATOM      9  C   UNL     1      11.863   1.919 -14.841  1.00  0.00     0.078 C 
BRANCH   9  10
ATOM     10  N   UNL     1      10.467   2.168 -15.174  1.00  0.00    -0.330 NA
ATOM     11  H   UNL     1      10.278   3.169 -15.161  1.00  0.00     0.118 HD
ATOM     12  H   UNL     1       9.859   1.765 -14.461  1.00  0.00     0.118 HD
ENDBRANCH   9  10
ENDBRANCH   8   9
ENDBRANCH   7   8
ENDBRANCH   1   7
BRANCH   4  13
ATOM     13  N   UNL     1       9.313   5.293  -9.079  1.00  0.00    -0.362 N 
ATOM     14  H   UNL     1       9.655   5.453  -8.139  1.00  0.00     0.166 HD
BRANCH  13  15
ATOM     15  C   UNL     1       8.009   5.626  -9.337  1.00  0.00     0.083 C 
BRANCH  15  16
ATOM     16  C   UNL     1       6.889   5.155  -8.773  1.00  0.00     0.027 C 
BRANCH  16  17
ATOM     17  C   UNL     1       6.559   5.454  -7.371  1.00  0.00    -0.003 A 
ATOM     18  C   UNL     1       5.514   4.807  -6.688  1.00  0.00    -0.041 A 
ATOM     19  C   UNL     1       7.260   6.440  -6.661  1.00  0.00     0.119 A 
ATOM     20  C   UNL     1       5.251   5.170  -5.358  1.00  0.00     0.024 A 
ATOM     21  N   UNL     1       7.032   6.790  -5.373  1.00  0.00    -0.264 NA
ATOM     22  C   UNL     1       6.031   6.141  -4.751  1.00  0.00     0.111 A 
ATOM     23  C   UNL     1       4.647   3.769  -7.343  1.00  0.00     0.045 C 
ENDBRANCH  16  17
ENDBRANCH  15  16
ENDBRANCH  13  15
ENDBRANCH   4  13
TORSDOF 8
ENDMDL
MODEL 4
REMARK VINA RESULT:    -5.011      4.471      6.575
REMARK INTER + INTRA:          -7.971
REMARK INTER:                  -7.337
REMARK INTRA:                  -0.634
REMARK UNBOUND:                -0.763
REMARK SMILES Cc1ccncc1/C=C/Nc1ccc(CCCN)cc1
REMARK SMILES IDX 14 1 13 2 12 3 11 4 20 5 19 6 15 7 16 8 17 9 18 10 10 13
REMARK SMILES IDX 9 15 8 16 7 17 2 18 6 19 3 20 5 21 4 22 1 23
REMARK H PARENT 18 11 18 12 10 14
ROOT
ATOM      1  C   UNL     1       6.277  10.155 -12.780  1.00  0.00    -0.048 A 
ATOM      2  C   UNL     1       6.717   8.979 -13.390  1.00  0.00     0.006 A 
ATOM      3  C   UNL     1       6.569   7.750 -12.754  1.00  0.00     0.026 A 
ATOM      4  C   UNL     1       6.050   7.653 -11.460  1.00  0.00     0.038 A 
ATOM      5  C   UNL     1       5.661   8.838 -10.824  1.00  0.00     0.026 A 
ATOM      6  C   UNL     1       5.773  10.076 -11.476  1.00  0.00     0.006 A 
ENDROOT
BRANCH   1   7
ATOM      7  C   UNL     1       6.340  11.479 -13.500  1.00  0.00     0.037 C 
BRANCH   7   8
ATOM      8  C   UNL     1       7.365  12.503 -12.975  1.00  0.00     0.020 C 
BRANCH   8   9
ATOM      9  C   UNL     1       8.787  12.384 -13.544  1.00  0.00     0.078 C 
BRANCH   9  10
ATOM     10  N   UNL     1       9.812  12.040 -12.569  1.00  0.00    -0.330 NA
ATOM     11  H   UNL     1      10.407  12.848 -12.388  1.00  0.00     0.118 HD
ATOM     12  H   UNL     1      10.432  11.324 -12.949  1.00  0.00     0.118 HD
ENDBRANCH   9  10
ENDBRANCH   8   9
ENDBRANCH   7   8
ENDBRANCH   1   7
BRANCH   4  13
ATOM     13  N   UNL     1       6.007   6.429 -10.765  1.00  0.00    -0.362 N 
ATOM     14  H   UNL     1       5.113   5.955 -10.735  1.00  0.00     0.166 HD
BRANCH  13  15
ATOM     15  C   UNL     1       6.989   5.970  -9.928  1.00  0.00     0.083 C 
BRANCH  15  16
ATOM     16  C   UNL     1       6.924   5.696  -8.618  1.00  0.00     0.027 C 
BRANCH  16  17
ATOM     17  C   UNL     1       5.851   4.854  -8.068  1.00  0.00    -0.003 A 
ATOM     18  C   UNL     1       5.433   4.945  -6.729  1.00  0.00    -0.041 A 
ATOM     19  C   UNL     1       5.217   3.887  -8.862  1.00  0.00     0.119 A 
ATOM     20  C   UNL     1       4.418   4.087  -6.280  1.00  0.00     0.024 A 
ATOM     21  N   UNL     1       4.224   3.064  -8.450  1.00  0.00    -0.264 NA
ATOM     22  C   UNL     1       3.846   3.187  -7.165  1.00  0.00     0.111 A 
ATOM     23  C   UNL     1       6.062   5.899  -5.753  1.00  0.00     0.045 C 
ENDBRANCH  16  17
ENDBRANCH  15  16
ENDBRANCH  13  15
ENDBRANCH   4  13
TORSDOF 8
ENDMDL
MODEL 5
REMARK VINA RESULT:    -4.848      2.355      8.422
REMARK INTER + INTRA:          -7.736
REMARK INTER:                  -7.153
REMARK INTRA:                  -0.582
REMARK UNBOUND:                -0.763
REMARK SMILES Cc1ccncc1/C=C/Nc1ccc(CCCN)cc1
REMARK SMILES IDX 14 1 13 2 12 3 11 4 20 5 19 6 15 7 16 8 17 9 18 10 10 13
REMARK SMILES IDX 9 15 8 16 7 17 2 18 6 19 3 20 5 21 4 22 1 23
REMARK H PARENT 18 11 18 12 10 14
ROOT
ATOM      1  C   UNL     1       5.812   5.631  -6.216  1.00  0.00    -0.048 A 
ATOM      2  C   UNL     1       6.976   6.401  -6.269  1.00  0.00     0.006 A 
ATOM      3  C   UNL     1       7.742   6.452  -7.429  1.00  0.00     0.026 A 
ATOM      4  C   UNL     1       7.425   5.681  -8.550  1.00  0.00     0.038 A 
ATOM      5  C   UNL     1       6.291   4.864  -8.479  1.00  0.00     0.026 A 
ATOM      6  C   UNL     1       5.492   4.838  -7.325  1.00  0.00     0.006 A 
ENDROOT
BRANCH   1   7
ATOM      7  C   UNL     1       4.920   5.647  -5.000  1.00  0.00     0.037 C 
BRANCH   7   8
ATOM      8  C   UNL     1       4.999   4.422  -4.068  1.00  0.00     0.020 C 
BRANCH   8   9
ATOM      9  C   UNL     1       6.344   4.200  -3.361  1.00  0.00     0.078 C 
BRANCH   9  10
ATOM     10  N   UNL     1       6.452   4.800  -2.039  1.00  0.00    -0.330 NA
ATOM     11  H   UNL     1       5.538   4.817  -1.588  1.00  0.00     0.118 HD
ATOM     12  H   UNL     1       6.735   5.777  -2.119  1.00  0.00     0.118 HD
ENDBRANCH   9  10
ENDBRANCH   8   9
ENDBRANCH   7   8
ENDBRANCH   1   7
BRANCH   4  13
ATOM     13  N   UNL     1       8.261   5.635  -9.683  1.00  0.00    -0.362 N 
ATOM     14  H   UNL     1       8.045   6.281 -10.432  1.00  0.00     0.166 HD
BRANCH  13  15
ATOM     15  C   UNL     1       9.158   4.637  -9.954  1.00  0.00     0.083 C 
BRANCH  15  16
ATOM     16  C   UNL     1      10.496   4.666  -9.906  1.00  0.00     0.027 C 
BRANCH  16  17
ATOM     17  C   UNL     1      11.300   4.803 -11.130  1.00  0.00    -0.003 A 
ATOM     18  C   UNL     1      12.008   3.727 -11.692  1.00  0.00    -0.041 A 
ATOM     19  C   UNL     1      11.423   6.044 -11.775  1.00  0.00     0.119 A 
ATOM     20  C   UNL     1      12.770   3.951 -12.849  1.00  0.00     0.024 A 
ATOM     21  N   UNL     1      12.139   6.274 -12.900  1.00  0.00    -0.264 NA
ATOM     22  C   UNL     1      12.794   5.217 -13.413  1.00  0.00     0.111 A 
ATOM     23  C   UNL     1      12.009   2.356 -11.076  1.00  0.00     0.045 C 
ENDBRANCH  16  17
ENDBRANCH  15  16
ENDBRANCH  13  15
ENDBRANCH   4  13
TORSDOF 8
ENDMDL
MODEL 6
REMARK VINA RESULT:    -4.846      4.638      8.326
REMARK INTER + INTRA:          -7.734
REMARK INTER:                  -7.191
REMARK INTRA:                  -0.542
REMARK UNBOUND:                -0.763
REMARK SMILES Cc1ccncc1/C=C/Nc1ccc(CCCN)cc1
REMARK SMILES IDX 14 1 13 2 12 3 11 4 20 5 19 6 15 7 16 8 17 9 18 10 10 13
REMARK SMILES IDX 9 15 8 16 7 17 2 18 6 19 3 20 5 21 4 22 1 23
REMARK H PARENT 18 11 18 12 10 14
ROOT
ATOM      1  C   UNL     1       5.993   4.510  -6.741  1.00  0.00    -0.048 A 
ATOM      2  C   UNL     1       5.404   4.164  -7.958  1.00  0.00     0.006 A 
ATOM      3  C   UNL     1       5.759   4.822  -9.132  1.00  0.00     0.026 A 
ATOM      4  C   UNL     1       6.651   5.897  -9.128  1.00  0.00     0.038 A 
ATOM      5  C   UNL     1       7.200   6.282  -7.899  1.00  0.00     0.026 A 
ATOM      6  C   UNL     1       6.875   5.597  -6.718  1.00  0.00     0.006 A 
ENDROOT
BRANCH   1   7
ATOM      7  C   UNL     1       5.693   3.739  -5.480  1.00  0.00     0.037 C 
BRANCH   7   8
ATOM      8  C   UNL     1       5.474   4.566  -4.199  1.00  0.00     0.020 C 
BRANCH   8   9
ATOM      9  C   UNL     1       6.488   4.336  -3.068  1.00  0.00     0.078 C 
BRANCH   9  10
ATOM     10  N   UNL     1       6.068   3.385  -2.049  1.00  0.00    -0.330 NA
ATOM     11  H   UNL     1       6.883   3.017  -1.559  1.00  0.00     0.118 HD
ATOM     12  H   UNL     1       5.623   2.577  -2.484  1.00  0.00     0.118 HD
ENDBRANCH   9  10
ENDBRANCH   8   9
ENDBRANCH   7   8
ENDBRANCH   1   7
BRANCH   4  13
ATOM     13  N   UNL     1       6.924   6.643 -10.291  1.00  0.00    -0.362 N 
ATOM     14  H   UNL     1       7.862   7.011 -10.385  1.00  0.00     0.166 HD
BRANCH  13  15
ATOM     15  C   UNL     1       5.974   7.117 -11.156  1.00  0.00     0.083 C 
BRANCH  15  16
ATOM     16  C   UNL     1       5.880   8.325 -11.729  1.00  0.00     0.027 C 
BRANCH  16  17
ATOM     17  C   UNL     1       6.608   8.639 -12.968  1.00  0.00    -0.003 A 
ATOM     18  C   UNL     1       6.553   9.907 -13.574  1.00  0.00    -0.041 A 
ATOM     19  C   UNL     1       7.369   7.659 -13.624  1.00  0.00     0.119 A 
ATOM     20  C   UNL     1       7.260  10.114 -14.768  1.00  0.00     0.024 A 
ATOM     21  N   UNL     1       8.070   7.847 -14.766  1.00  0.00    -0.264 NA
ATOM     22  C   UNL     1       8.000   9.075 -15.310  1.00  0.00     0.111 A 
ATOM     23  C   UNL     1       5.735  11.034 -13.009  1.00  0.00     0.045 C 
ENDBRANCH  16  17
ENDBRANCH  15  16
ENDBRANCH  13  15
ENDBRANCH   4  13
TORSDOF 8
ENDMDL
MODEL 7
REMARK VINA RESULT:    -4.731      4.627      8.400
REMARK INTER + INTRA:          -7.568
REMARK INTER:                  -7.070
REMARK INTRA:                  -0.498
REMARK UNBOUND:                -0.763
REMARK SMILES Cc1ccncc1/C=C/Nc1ccc(CCCN)cc1
REMARK SMILES IDX 14 1 13 2 12 3 11 4 20 5 19 6 15 7 16 8 17 9 18 10 10 13
REMARK SMILES IDX 9 15 8 16 7 17 2 18 6 19 3 20 5 21 4 22 1 23
REMARK H PARENT 18 11 18 12 10 14
ROOT
ATOM      1  C   UNL     1       5.360   4.160  -6.982  1.00  0.00    -0.048 A 
ATOM      2  C   UNL     1       5.088   3.846  -8.315  1.00  0.00     0.006 A 
ATOM      3  C   UNL     1       5.724   4.525  -9.349  1.00  0.00     0.026 A 
ATOM      4  C   UNL     1       6.593   5.590  -9.100  1.00  0.00     0.038 A 
ATOM      5  C   UNL     1       6.824   5.944  -7.765  1.00  0.00     0.026 A 
ATOM      6  C   UNL     1       6.214   5.237  -6.717  1.00  0.00     0.006 A 
ENDROOT
BRANCH   1   7
ATOM      7  C   UNL     1       4.754   3.365  -5.853  1.00  0.00     0.037 C 
BRANCH   7   8
ATOM      8  C   UNL     1       3.497   3.957  -5.186  1.00  0.00     0.020 C 
BRANCH   8   9
ATOM      9  C   UNL     1       2.284   4.168  -6.103  1.00  0.00     0.078 C 
BRANCH   9  10
ATOM     10  N   UNL     1       1.141   3.312  -5.819  1.00  0.00    -0.330 NA
ATOM     11  H   UNL     1       0.287   3.867  -5.794  1.00  0.00     0.118 HD
ATOM     12  H   UNL     1       1.230   2.905  -4.887  1.00  0.00     0.118 HD
ENDBRANCH   9  10
ENDBRANCH   8   9
ENDBRANCH   7   8
ENDBRANCH   1   7
BRANCH   4  13
ATOM     13  N   UNL     1       7.148   6.358 -10.142  1.00  0.00    -0.362 N 
ATOM     14  H   UNL     1       8.133   6.225 -10.329  1.00  0.00     0.166 HD
BRANCH  13  15
ATOM     15  C   UNL     1       6.536   7.432 -10.733  1.00  0.00     0.083 C 
BRANCH  15  16
ATOM     16  C   UNL     1       6.129   7.580 -12.001  1.00  0.00     0.027 C 
BRANCH  16  17
ATOM     17  C   UNL     1       6.333   8.845 -12.723  1.00  0.00    -0.003 A 
ATOM     18  C   UNL     1       7.144   8.937 -13.869  1.00  0.00    -0.041 A 
ATOM     19  C   UNL     1       5.747  10.036 -12.269  1.00  0.00     0.119 A 
ATOM     20  C   UNL     1       7.303  10.188 -14.483  1.00  0.00     0.024 A 
ATOM     21  N   UNL     1       5.876  11.247 -12.859  1.00  0.00    -0.264 NA
ATOM     22  C   UNL     1       6.651  11.293 -13.957  1.00  0.00     0.111 A 
ATOM     23  C   UNL     1       7.875   7.752 -14.434  1.00  0.00     0.045 C 
ENDBRANCH  16  17
ENDBRANCH  15  16
ENDBRANCH  13  15
ENDBRANCH   4  13
TORSDOF 8
ENDMDL
MODEL 8
REMARK VINA RESULT:    -4.724      1.770      8.331
REMARK INTER + INTRA:          -7.558
REMARK INTER:                  -7.030
REMARK INTRA:                  -0.529
REMARK UNBOUND:                -0.763
REMARK SMILES Cc1ccncc1/C=C/Nc1ccc(CCCN)cc1
REMARK SMILES IDX 14 1 13 2 12 3 11 4 20 5 19 6 15 7 16 8 17 9 18 10 10 13
REMARK SMILES IDX 9 15 8 16 7 17 2 18 6 19 3 20 5 21 4 22 1 23
REMARK H PARENT 18 11 18 12 10 14
ROOT
ATOM      1  C   UNL     1       5.574   5.261  -7.097  1.00  0.00    -0.048 A 
ATOM      2  C   UNL     1       6.741   6.002  -6.896  1.00  0.00     0.006 A 
ATOM      3  C   UNL     1       7.689   6.121  -7.908  1.00  0.00     0.026 A 
ATOM      4  C   UNL     1       7.551   5.448  -9.124  1.00  0.00     0.038 A 
ATOM      5  C   UNL     1       6.408   4.659  -9.306  1.00  0.00     0.026 A 
ATOM      6  C   UNL     1       5.431   4.566  -8.303  1.00  0.00     0.006 A 
ENDROOT
BRANCH   1   7
ATOM      7  C   UNL     1       4.494   5.207  -6.046  1.00  0.00     0.037 C 
BRANCH   7   8
ATOM      8  C   UNL     1       3.514   4.020  -6.121  1.00  0.00     0.020 C 
BRANCH   8   9
ATOM      9  C   UNL     1       2.043   4.341  -5.817  1.00  0.00     0.078 C 
BRANCH   9  10
ATOM     10  N   UNL     1       1.135   3.207  -5.908  1.00  0.00    -0.330 NA
ATOM     11  H   UNL     1       0.434   3.261  -5.170  1.00  0.00     0.118 HD
ATOM     12  H   UNL     1       1.641   2.337  -5.741  1.00  0.00     0.118 HD
ENDBRANCH   9  10
ENDBRANCH   8   9
ENDBRANCH   7   8
ENDBRANCH   1   7
BRANCH   4  13
ATOM     13  N   UNL     1       8.561   5.468 -10.105  1.00  0.00    -0.362 N 
ATOM     14  H   UNL     1       8.310   5.852 -11.007  1.00  0.00     0.166 HD
BRANCH  13  15
ATOM     15  C   UNL     1       9.747   4.789 -10.021  1.00  0.00     0.083 C 
BRANCH  15  16
ATOM     16  C   UNL     1      10.916   5.050 -10.622  1.00  0.00     0.027 C 
BRANCH  16  17
ATOM     17  C   UNL     1      11.651   4.001 -11.345  1.00  0.00    -0.003 A 
ATOM     18  C   UNL     1      12.392   4.267 -12.510  1.00  0.00    -0.041 A 
ATOM     19  C   UNL     1      11.611   2.667 -10.914  1.00  0.00     0.119 A 
ATOM     20  C   UNL     1      13.045   3.203 -13.150  1.00  0.00     0.024 A 
ATOM     21  N   UNL     1      12.249   1.632 -11.509  1.00  0.00    -0.264 NA
ATOM     22  C   UNL     1      12.955   1.928 -12.615  1.00  0.00     0.111 A 
ATOM     23  C   UNL     1      12.478   5.641 -13.113  1.00  0.00     0.045 C 
ENDBRANCH  16  17
ENDBRANCH  15  16
ENDBRANCH  13  15
ENDBRANCH   4  13
TORSDOF 8
ENDMDL
MODEL 9
REMARK VINA RESULT:    -4.707      4.729      8.444
REMARK INTER + INTRA:          -7.534
REMARK INTER:                  -7.043
REMARK INTRA:                  -0.491
REMARK UNBOUND:                -0.763
REMARK SMILES Cc1ccncc1/C=C/Nc1ccc(CCCN)cc1
REMARK SMILES IDX 14 1 13 2 12 3 11 4 20 5 19 6 15 7 16 8 17 9 18 10 10 13
REMARK SMILES IDX 9 15 8 16 7 17 2 18 6 19 3 20 5 21 4 22 1 23
REMARK H PARENT 18 11 18 12 10 14
ROOT
ATOM      1  C   UNL     1       5.842   4.544  -6.734  1.00  0.00    -0.048 A 
ATOM      2  C   UNL     1       5.352   4.183  -7.991  1.00  0.00     0.006 A 
ATOM      3  C   UNL     1       5.824   4.805  -9.143  1.00  0.00     0.026 A 
ATOM      4  C   UNL     1       6.741   5.858  -9.084  1.00  0.00     0.038 A 
ATOM      5  C   UNL     1       7.191   6.259  -7.820  1.00  0.00     0.026 A 
ATOM      6  C   UNL     1       6.747   5.610  -6.658  1.00  0.00     0.006 A 
ENDROOT
BRANCH   1   7
ATOM      7  C   UNL     1       5.413   3.810  -5.489  1.00  0.00     0.037 C 
BRANCH   7   8
ATOM      8  C   UNL     1       5.363   4.630  -4.185  1.00  0.00     0.020 C 
BRANCH   8   9
ATOM      9  C   UNL     1       6.467   4.332  -3.160  1.00  0.00     0.078 C 
BRANCH   9  10
ATOM     10  N   UNL     1       6.094   3.397  -2.107  1.00  0.00    -0.330 NA
ATOM     11  H   UNL     1       6.211   3.835  -1.194  1.00  0.00     0.118 HD
ATOM     12  H   UNL     1       6.724   2.595  -2.109  1.00  0.00     0.118 HD
ENDBRANCH   9  10
ENDBRANCH   8   9
ENDBRANCH   7   8
ENDBRANCH   1   7
BRANCH   4  13
ATOM     13  N   UNL     1       7.132   6.570 -10.234  1.00  0.00    -0.362 N 
ATOM     14  H   UNL     1       8.128   6.661 -10.395  1.00  0.00     0.166 HD
BRANCH  13  15
ATOM     15  C   UNL     1       6.300   7.350 -10.992  1.00  0.00     0.083 C 
BRANCH  15  16
ATOM     16  C   UNL     1       6.336   7.592 -12.309  1.00  0.00     0.027 C 
BRANCH  16  17
ATOM     17  C   UNL     1       6.384   8.967 -12.830  1.00  0.00    -0.003 A 
ATOM     18  C   UNL     1       7.116   9.312 -13.980  1.00  0.00    -0.041 A 
ATOM     19  C   UNL     1       5.721  10.011 -12.168  1.00  0.00     0.119 A 
ATOM     20  C   UNL     1       7.128  10.652 -14.394  1.00  0.00     0.024 A 
ATOM     21  N   UNL     1       5.707  11.305 -12.564  1.00  0.00    -0.264 NA
ATOM     22  C   UNL     1       6.411  11.594 -13.673  1.00  0.00     0.111 A 
ATOM     23  C   UNL     1       7.917   8.305 -14.757  1.00  0.00     0.045 C 
ENDBRANCH  16  17
ENDBRANCH  15  16
ENDBRANCH  13  15
ENDBRANCH   4  13
TORSDOF 8
ENDMDL
