MODEL 1
REMARK VINA RESULT:    -5.131      0.000      0.000
REMARK INTER + INTRA:          -7.993
REMARK INTER:                  -7.381
REMARK INTRA:                  -0.613
REMARK UNBOUND:                -0.613
REMARK SMILES Cc1ccncc1/C=C/Nc1ccc(CCCN)cc1
REMARK SMILES IDX 14 1 13 2 12 3 11 4 20 5 19 6 15 7 16 8 17 9 18 10 10 13
REMARK SMILES IDX 9 15 8 16 7 17 2 18 6 19 3 20 5 21 4 22 1 23
REMARK H PARENT 18 11 18 12 10 14
ROOT
ATOM      1  C   UNL     1     -10.086   2.560  14.081  1.00  0.00    -0.048 A 
ATOM      2  C   UNL     1      -9.309   1.850  13.163  1.00  0.00     0.006 A 
ATOM      3  C   UNL     1      -8.530   2.520  12.224  1.00  0.00     0.026 A 
ATOM      4  C   UNL     1      -8.554   3.912  12.112  1.00  0.00     0.038 A 
ATOM      5  C   UNL     1      -9.377   4.623  12.995  1.00  0.00     0.026 A 
ATOM      6  C   UNL     1     -10.135   3.955  13.969  1.00  0.00     0.006 A 
ENDROOT
BRANCH   1   7
ATOM      7  C   UNL     1     -10.855   1.849  15.167  1.00  0.00     0.037 C 
BRANCH   7   8
ATOM      8  C   UNL     1     -10.046   0.925  16.096  1.00  0.00     0.020 C 
BRANCH   8   9
ATOM      9  C   UNL     1      -9.723   1.485  17.489  1.00  0.00     0.078 C 
BRANCH   9  10
ATOM     10  N   UNL     1      -8.338   1.888  17.685  1.00  0.00    -0.330 NA
ATOM     11  H   UNL     1      -7.725   1.077  17.606  1.00  0.00     0.118 HD
ATOM     12  H   UNL     1      -8.204   2.240  18.633  1.00  0.00     0.118 HD
ENDBRANCH   9  10
ENDBRANCH   8   9
ENDBRANCH   7   8
ENDBRANCH   1   7
BRANCH   4  13
ATOM     13  N   UNL     1      -7.862   4.589  11.090  1.00  0.00    -0.362 N 
ATOM     14  H   UNL     1      -8.427   5.039  10.380  1.00  0.00     0.166 HD
BRANCH  13  15
ATOM     15  C   UNL     1      -6.520   4.470  10.842  1.00  0.00     0.083 C 
BRANCH  15  16
ATOM     16  C   UNL     1      -5.801   4.966   9.827  1.00  0.00     0.027 C 
BRANCH  16  17
ATOM     17  C   UNL     1      -4.727   4.181   9.199  1.00  0.00    -0.003 A 
ATOM     18  C   UNL     1      -4.422   4.280   7.830  1.00  0.00    -0.041 A 
ATOM     19  C   UNL     1      -3.977   3.260   9.946  1.00  0.00     0.119 A 
ATOM     20  C   UNL     1      -3.397   3.477   7.308  1.00  0.00     0.024 A 
ATOM     21  N   UNL     1      -2.974   2.491   9.463  1.00  0.00    -0.264 NA
ATOM     22  C   UNL     1      -2.706   2.621   8.151  1.00  0.00     0.111 A 
ATOM     23  C   UNL     1      -5.180   5.186   6.900  1.00  0.00     0.045 C 
ENDBRANCH  16  17
ENDBRANCH  15  16
ENDBRANCH  13  15
ENDBRANCH   4  13
TORSDOF 8
ENDMDL
MODEL 2
REMARK VINA RESULT:    -5.131      4.891      6.847
REMARK INTER + INTRA:          -7.993
REMARK INTER:                  -7.244
REMARK INTRA:                  -0.749
REMARK UNBOUND:                -0.613
REMARK SMILES Cc1ccncc1/C=C/Nc1ccc(CCCN)cc1
REMARK SMILES IDX 14 1 13 2 12 3 11 4 20 5 19 6 15 7 16 8 17 9 18 10 10 13
REMARK SMILES IDX 9 15 8 16 7 17 2 18 6 19 3 20 5 21 4 22 1 23
REMARK H PARENT 18 11 18 12 10 14
ROOT
ATOM      1  C   UNL     1      -4.245   9.537  14.345  1.00  0.00    -0.048 A 
ATOM      2  C   UNL     1      -4.558   8.415  15.115  1.00  0.00     0.006 A 
ATOM      3  C   UNL     1      -4.472   7.136  14.574  1.00  0.00     0.026 A 
ATOM      4  C   UNL     1      -4.148   6.929  13.230  1.00  0.00     0.038 A 
ATOM      5  C   UNL     1      -3.889   8.057  12.442  1.00  0.00     0.026 A 
ATOM      6  C   UNL     1      -3.937   9.347  12.992  1.00  0.00     0.006 A 
ENDROOT
BRANCH   1   7
ATOM      7  C   UNL     1      -4.236  10.920  14.948  1.00  0.00     0.037 C 
BRANCH   7   8
ATOM      8  C   UNL     1      -5.107  11.984  14.250  1.00  0.00     0.020 C 
BRANCH   8   9
ATOM      9  C   UNL     1      -6.502  12.211  14.851  1.00  0.00     0.078 C 
BRANCH   9  10
ATOM     10  N   UNL     1      -7.583  11.504  14.180  1.00  0.00    -0.330 NA
ATOM     11  H   UNL     1      -7.228  11.030  13.350  1.00  0.00     0.118 HD
ATOM     12  H   UNL     1      -8.279  12.167  13.839  1.00  0.00     0.118 HD
ENDBRANCH   9  10
ENDBRANCH   8   9
ENDBRANCH   7   8
ENDBRANCH   1   7
BRANCH   4  13
ATOM     13  N   UNL     1      -4.175   5.648  12.646  1.00  0.00    -0.362 N 
ATOM     14  H   UNL     1      -3.306   5.128  12.651  1.00  0.00     0.166 HD
BRANCH  13  15
ATOM     15  C   UNL     1      -5.189   5.167  11.861  1.00  0.00     0.083 C 
BRANCH  15  16
ATOM     16  C   UNL     1      -5.161   4.186  10.950  1.00  0.00     0.027 C 
BRANCH  16  17
ATOM     17  C   UNL     1      -5.160   4.484   9.510  1.00  0.00    -0.003 A 
ATOM     18  C   UNL     1      -4.322   3.813   8.602  1.00  0.00    -0.041 A 
ATOM     19  C   UNL     1      -5.983   5.491   8.983  1.00  0.00     0.119 A 
ATOM     20  C   UNL     1      -4.368   4.177   7.247  1.00  0.00     0.024 A 
ATOM     21  N   UNL     1      -6.053   5.842   7.677  1.00  0.00    -0.264 NA
ATOM     22  C   UNL     1      -5.243   5.171   6.839  1.00  0.00     0.111 A 
ATOM     23  C   UNL     1      -3.352   2.750   9.036  1.00  0.00     0.045 C 
ENDBRANCH  16  17
ENDBRANCH  15  16
ENDBRANCH  13  15
ENDBRANCH   4  13
TORSDOF 8
ENDMDL
MODEL 3
REMARK VINA RESULT:    -5.073      1.953      8.717
REMARK INTER + INTRA:          -7.910
REMARK INTER:                  -7.317
REMARK INTRA:                  -0.593
REMARK UNBOUND:                -0.613
REMARK SMILES Cc1ccncc1/C=C/Nc1ccc(CCCN)cc1
REMARK SMILES IDX 14 1 13 2 12 3 11 4 20 5 19 6 15 7 16 8 17 9 18 10 10 13
REMARK SMILES IDX 9 15 8 16 7 17 2 18 6 19 3 20 5 21 4 22 1 23
REMARK H PARENT 18 11 18 12 10 14
ROOT
ATOM      1  C   UNL     1      -3.843   3.917   8.893  1.00  0.00    -0.048 A 
ATOM      2  C   UNL     1      -4.985   4.660   8.591  1.00  0.00     0.006 A 
ATOM      3  C   UNL     1      -5.922   4.955   9.578  1.00  0.00     0.026 A 
ATOM      4  C   UNL     1      -5.798   4.457  10.877  1.00  0.00     0.038 A 
ATOM      5  C   UNL     1      -4.681   3.663  11.166  1.00  0.00     0.026 A 
ATOM      6  C   UNL     1      -3.714   3.395  10.186  1.00  0.00     0.006 A 
ENDROOT
BRANCH   1   7
ATOM      7  C   UNL     1      -2.772   3.677   7.858  1.00  0.00     0.037 C 
BRANCH   7   8
ATOM      8  C   UNL     1      -1.813   2.499   8.114  1.00  0.00     0.020 C 
BRANCH   8   9
ATOM      9  C   UNL     1      -0.355   2.710   7.679  1.00  0.00     0.078 C 
BRANCH   9  10
ATOM     10  N   UNL     1      -0.178   3.081   6.282  1.00  0.00    -0.330 NA
ATOM     11  H   UNL     1      -0.584   2.368   5.678  1.00  0.00     0.118 HD
ATOM     12  H   UNL     1       0.815   3.103   6.048  1.00  0.00     0.118 HD
ENDBRANCH   9  10
ENDBRANCH   8   9
ENDBRANCH   7   8
ENDBRANCH   1   7
BRANCH   4  13
ATOM     13  N   UNL     1      -6.800   4.650  11.848  1.00  0.00    -0.362 N 
ATOM     14  H   UNL     1      -6.501   5.021  12.741  1.00  0.00     0.166 HD
BRANCH  13  15
ATOM     15  C   UNL     1      -8.071   4.145  11.771  1.00  0.00     0.083 C 
BRANCH  15  16
ATOM     16  C   UNL     1      -8.644   3.184  12.507  1.00  0.00     0.027 C 
BRANCH  16  17
ATOM     17  C   UNL     1      -9.705   3.497  13.476  1.00  0.00    -0.003 A 
ATOM     18  C   UNL     1     -10.195   2.549  14.391  1.00  0.00    -0.041 A 
ATOM     19  C   UNL     1     -10.306   4.765  13.501  1.00  0.00     0.119 A 
ATOM     20  C   UNL     1     -11.226   2.925  15.266  1.00  0.00     0.024 A 
ATOM     21  N   UNL     1     -11.289   5.150  14.349  1.00  0.00    -0.264 NA
ATOM     22  C   UNL     1     -11.723   4.218  15.215  1.00  0.00     0.111 A 
ATOM     23  C   UNL     1      -9.681   1.137  14.440  1.00  0.00     0.045 C 
ENDBRANCH  16  17
ENDBRANCH  15  16
ENDBRANCH  13  15
ENDBRANCH   4  13
TORSDOF 8
ENDMDL
MODEL 4
REMARK VINA RESULT:    -5.043      4.841      8.432
REMARK INTER + INTRA:          -7.867
REMARK INTER:                  -7.274
REMARK INTRA:                  -0.593
REMARK UNBOUND:                -0.613
REMARK SMILES Cc1ccncc1/C=C/Nc1ccc(CCCN)cc1
REMARK SMILES IDX 14 1 13 2 12 3 11 4 20 5 19 6 15 7 16 8 17 9 18 10 10 13
REMARK SMILES IDX 9 15 8 16 7 17 2 18 6 19 3 20 5 21 4 22 1 23
REMARK H PARENT 18 11 18 12 10 14
ROOT
ATOM      1  C   UNL     1      -4.896   3.578   8.726  1.00  0.00    -0.048 A 
ATOM      2  C   UNL     1      -4.111   3.273   9.841  1.00  0.00     0.006 A 
ATOM      3  C   UNL     1      -4.250   3.991  11.025  1.00  0.00     0.026 A 
ATOM      4  C   UNL     1      -5.114   5.084  11.121  1.00  0.00     0.038 A 
ATOM      5  C   UNL     1      -5.860   5.427   9.987  1.00  0.00     0.026 A 
ATOM      6  C   UNL     1      -5.752   4.683   8.802  1.00  0.00     0.006 A 
ENDROOT
BRANCH   1   7
ATOM      7  C   UNL     1      -4.827   2.744   7.472  1.00  0.00     0.037 C 
BRANCH   7   8
ATOM      8  C   UNL     1      -4.648   3.505   6.144  1.00  0.00     0.020 C 
BRANCH   8   9
ATOM      9  C   UNL     1      -5.655   3.168   5.034  1.00  0.00     0.078 C 
BRANCH   9  10
ATOM     10  N   UNL     1      -5.280   2.047   4.183  1.00  0.00    -0.330 NA
ATOM     11  H   UNL     1      -4.917   2.389   3.295  1.00  0.00     0.118 HD
ATOM     12  H   UNL     1      -6.105   1.495   3.947  1.00  0.00     0.118 HD
ENDBRANCH   9  10
ENDBRANCH   8   9
ENDBRANCH   7   8
ENDBRANCH   1   7
BRANCH   4  13
ATOM     13  N   UNL     1      -5.172   5.888  12.276  1.00  0.00    -0.362 N 
ATOM     14  H   UNL     1      -6.094   6.108  12.630  1.00  0.00     0.166 HD
BRANCH  13  15
ATOM     15  C   UNL     1      -4.116   6.591  12.794  1.00  0.00     0.083 C 
BRANCH  15  16
ATOM     16  C   UNL     1      -3.970   7.915  12.935  1.00  0.00     0.027 C 
BRANCH  16  17
ATOM     17  C   UNL     1      -4.232   8.578  14.221  1.00  0.00    -0.003 A 
ATOM     18  C   UNL     1      -4.481   9.958  14.321  1.00  0.00    -0.041 A 
ATOM     19  C   UNL     1      -4.207   7.854  15.422  1.00  0.00     0.119 A 
ATOM     20  C   UNL     1      -4.698  10.514  15.591  1.00  0.00     0.024 A 
ATOM     21  N   UNL     1      -4.431   8.370  16.653  1.00  0.00    -0.264 NA
ATOM     22  C   UNL     1      -4.675   9.692  16.706  1.00  0.00     0.111 A 
ATOM     23  C   UNL     1      -4.485  10.864  13.122  1.00  0.00     0.045 C 
ENDBRANCH  16  17
ENDBRANCH  15  16
ENDBRANCH  13  15
ENDBRANCH   4  13
TORSDOF 8
ENDMDL
MODEL 5
REMARK VINA RESULT:    -5.034      4.581      8.500
REMARK INTER + INTRA:          -7.854
REMARK INTER:                  -7.267
REMARK INTRA:                  -0.586
REMARK UNBOUND:                -0.613
REMARK SMILES Cc1ccncc1/C=C/Nc1ccc(CCCN)cc1
REMARK SMILES IDX 14 1 13 2 12 3 11 4 20 5 19 6 15 7 16 8 17 9 18 10 10 13
REMARK SMILES IDX 9 15 8 16 7 17 2 18 6 19 3 20 5 21 4 22 1 23
REMARK H PARENT 18 11 18 12 10 14
ROOT
ATOM      1  C   UNL     1      -3.939   2.998   8.887  1.00  0.00    -0.048 A 
ATOM      2  C   UNL     1      -3.547   2.720  10.198  1.00  0.00     0.006 A 
ATOM      3  C   UNL     1      -4.098   3.419  11.268  1.00  0.00     0.026 A 
ATOM      4  C   UNL     1      -4.998   4.469  11.070  1.00  0.00     0.038 A 
ATOM      5  C   UNL     1      -5.350   4.786   9.753  1.00  0.00     0.026 A 
ATOM      6  C   UNL     1      -4.826   4.060   8.672  1.00  0.00     0.006 A 
ENDROOT
BRANCH   1   7
ATOM      7  C   UNL     1      -3.425   2.180   7.728  1.00  0.00     0.037 C 
BRANCH   7   8
ATOM      8  C   UNL     1      -2.307   2.813   6.877  1.00  0.00     0.020 C 
BRANCH   8   9
ATOM      9  C   UNL     1      -0.952   2.998   7.576  1.00  0.00     0.078 C 
BRANCH   9  10
ATOM     10  N   UNL     1      -0.058   1.851   7.500  1.00  0.00    -0.330 NA
ATOM     11  H   UNL     1      -0.582   0.990   7.650  1.00  0.00     0.118 HD
ATOM     12  H   UNL     1       0.627   1.889   8.255  1.00  0.00     0.118 HD
ENDBRANCH   9  10
ENDBRANCH   8   9
ENDBRANCH   7   8
ENDBRANCH   1   7
BRANCH   4  13
ATOM     13  N   UNL     1      -5.468   5.257  12.138  1.00  0.00    -0.362 N 
ATOM     14  H   UNL     1      -6.361   4.995  12.537  1.00  0.00     0.166 HD
BRANCH  13  15
ATOM     15  C   UNL     1      -4.952   6.474  12.499  1.00  0.00     0.083 C 
BRANCH  15  16
ATOM     16  C   UNL     1      -4.163   6.783  13.536  1.00  0.00     0.027 C 
BRANCH  16  17
ATOM     17  C   UNL     1      -4.183   8.127  14.134  1.00  0.00    -0.003 A 
ATOM     18  C   UNL     1      -4.463   8.343  15.495  1.00  0.00    -0.041 A 
ATOM     19  C   UNL     1      -3.957   9.268  13.348  1.00  0.00     0.119 A 
ATOM     20  C   UNL     1      -4.485   9.660  15.978  1.00  0.00     0.024 A 
ATOM     21  N   UNL     1      -3.957  10.543  13.801  1.00  0.00    -0.264 NA
ATOM     22  C   UNL     1      -4.219  10.708  15.110  1.00  0.00     0.111 A 
ATOM     23  C   UNL     1      -4.776   7.217  16.440  1.00  0.00     0.045 C 
ENDBRANCH  16  17
ENDBRANCH  15  16
ENDBRANCH  13  15
ENDBRANCH   4  13
TORSDOF 8
ENDMDL
MODEL 6
REMARK VINA RESULT:    -5.027      2.006      8.527
REMARK INTER + INTRA:          -7.844
REMARK INTER:                  -7.200
REMARK INTRA:                  -0.644
REMARK UNBOUND:                -0.613
REMARK SMILES Cc1ccncc1/C=C/Nc1ccc(CCCN)cc1
REMARK SMILES IDX 14 1 13 2 12 3 11 4 20 5 19 6 15 7 16 8 17 9 18 10 10 13
REMARK SMILES IDX 9 15 8 16 7 17 2 18 6 19 3 20 5 21 4 22 1 23
REMARK H PARENT 18 11 18 12 10 14
ROOT
ATOM      1  C   UNL     1      -4.542   4.503   7.966  1.00  0.00    -0.048 A 
ATOM      2  C   UNL     1      -5.656   5.335   8.086  1.00  0.00     0.006 A 
ATOM      3  C   UNL     1      -6.259   5.541   9.324  1.00  0.00     0.026 A 
ATOM      4  C   UNL     1      -5.825   4.869  10.470  1.00  0.00     0.038 A 
ATOM      5  C   UNL     1      -4.744   3.990  10.340  1.00  0.00     0.026 A 
ATOM      6  C   UNL     1      -4.108   3.808   9.102  1.00  0.00     0.006 A 
ENDROOT
BRANCH   1   7
ATOM      7  C   UNL     1      -3.820   4.351   6.650  1.00  0.00     0.037 C 
BRANCH   7   8
ATOM      8  C   UNL     1      -4.001   3.010   5.913  1.00  0.00     0.020 C 
BRANCH   8   9
ATOM      9  C   UNL     1      -5.373   2.778   5.264  1.00  0.00     0.078 C 
BRANCH   9  10
ATOM     10  N   UNL     1      -5.601   3.510   4.026  1.00  0.00    -0.330 NA
ATOM     11  H   UNL     1      -6.551   3.350   3.696  1.00  0.00     0.118 HD
ATOM     12  H   UNL     1      -4.992   3.153   3.290  1.00  0.00     0.118 HD
ENDBRANCH   9  10
ENDBRANCH   8   9
ENDBRANCH   7   8
ENDBRANCH   1   7
BRANCH   4  13
ATOM     13  N   UNL     1      -6.503   4.981  11.699  1.00  0.00    -0.362 N 
ATOM     14  H   UNL     1      -6.151   5.672  12.350  1.00  0.00     0.166 HD
BRANCH  13  15
ATOM     15  C   UNL     1      -7.413   4.075  12.176  1.00  0.00     0.083 C 
BRANCH  15  16
ATOM     16  C   UNL     1      -8.751   4.140  12.176  1.00  0.00     0.027 C 
BRANCH  16  17
ATOM     17  C   UNL     1      -9.548   3.432  13.189  1.00  0.00    -0.003 A 
ATOM     18  C   UNL     1     -10.431   4.100  14.056  1.00  0.00    -0.041 A 
ATOM     19  C   UNL     1      -9.430   2.044  13.357  1.00  0.00     0.119 A 
ATOM     20  C   UNL     1     -11.135   3.350  15.010  1.00  0.00     0.024 A 
ATOM     21  N   UNL     1     -10.114   1.303  14.259  1.00  0.00    -0.264 NA
ATOM     22  C   UNL     1     -10.956   1.977  15.064  1.00  0.00     0.111 A 
ATOM     23  C   UNL     1     -10.616   5.591  14.024  1.00  0.00     0.045 C 
ENDBRANCH  16  17
ENDBRANCH  15  16
ENDBRANCH  13  15
ENDBRANCH   4  13
TORSDOF 8
ENDMDL
MODEL 7
REMARK VINA RESULT:    -5.006      1.682      8.566
REMARK INTER + INTRA:          -7.814
REMARK INTER:                  -7.277
REMARK INTRA:                  -0.537
REMARK UNBOUND:                -0.613
REMARK SMILES Cc1ccncc1/C=C/Nc1ccc(CCCN)cc1
REMARK SMILES IDX 14 1 13 2 12 3 11 4 20 5 19 6 15 7 16 8 17 9 18 10 10 13
REMARK SMILES IDX 9 15 8 16 7 17 2 18 6 19 3 20 5 21 4 22 1 23
REMARK H PARENT 18 11 18 12 10 14
ROOT
ATOM      1  C   UNL     1      -3.900   3.966   9.065  1.00  0.00    -0.048 A 
ATOM      2  C   UNL     1      -5.055   4.693   8.769  1.00  0.00     0.006 A 
ATOM      3  C   UNL     1      -5.987   4.982   9.762  1.00  0.00     0.026 A 
ATOM      4  C   UNL     1      -5.845   4.494  11.064  1.00  0.00     0.038 A 
ATOM      5  C   UNL     1      -4.716   3.717  11.348  1.00  0.00     0.026 A 
ATOM      6  C   UNL     1      -3.754   3.455  10.361  1.00  0.00     0.006 A 
ENDROOT
BRANCH   1   7
ATOM      7  C   UNL     1      -2.836   3.733   8.023  1.00  0.00     0.037 C 
BRANCH   7   8
ATOM      8  C   UNL     1      -1.928   2.505   8.223  1.00  0.00     0.020 C 
BRANCH   8   9
ATOM      9  C   UNL     1      -0.481   2.648   7.727  1.00  0.00     0.078 C 
BRANCH   9  10
ATOM     10  N   UNL     1      -0.346   3.069   6.340  1.00  0.00    -0.330 NA
ATOM     11  H   UNL     1      -1.264   3.265   5.944  1.00  0.00     0.118 HD
ATOM     12  H   UNL     1       0.038   2.310   5.778  1.00  0.00     0.118 HD
ENDBRANCH   9  10
ENDBRANCH   8   9
ENDBRANCH   7   8
ENDBRANCH   1   7
BRANCH   4  13
ATOM     13  N   UNL     1      -6.841   4.682  12.041  1.00  0.00    -0.362 N 
ATOM     14  H   UNL     1      -6.570   5.191  12.873  1.00  0.00     0.166 HD
BRANCH  13  15
ATOM     15  C   UNL     1      -8.041   4.022  12.072  1.00  0.00     0.083 C 
BRANCH  15  16
ATOM     16  C   UNL     1      -9.169   4.350  12.716  1.00  0.00     0.027 C 
BRANCH  16  17
ATOM     17  C   UNL     1      -9.879   3.371  13.555  1.00  0.00    -0.003 A 
ATOM     18  C   UNL     1     -10.973   3.725  14.364  1.00  0.00    -0.041 A 
ATOM     19  C   UNL     1      -9.460   2.033  13.610  1.00  0.00     0.119 A 
ATOM     20  C   UNL     1     -11.577   2.733  15.151  1.00  0.00     0.024 A 
ATOM     21  N   UNL     1     -10.042   1.061  14.350  1.00  0.00    -0.264 NA
ATOM     22  C   UNL     1     -11.092   1.436  15.103  1.00  0.00     0.111 A 
ATOM     23  C   UNL     1     -11.494   5.133  14.443  1.00  0.00     0.045 C 
ENDBRANCH  16  17
ENDBRANCH  15  16
ENDBRANCH  13  15
ENDBRANCH   4  13
TORSDOF 8
ENDMDL
MODEL 8
REMARK VINA RESULT:    -4.948      4.744      6.536
REMARK INTER + INTRA:          -7.731
REMARK INTER:                  -7.073
REMARK INTRA:                  -0.658
REMARK UNBOUND:                -0.613
REMARK SMILES Cc1ccncc1/C=C/Nc1ccc(CCCN)cc1
REMARK SMILES IDX 14 1 13 2 12 3 11 4 20 5 19 6 15 7 16 8 17 9 18 10 10 13
REMARK SMILES IDX 9 15 8 16 7 17 2 18 6 19 3 20 5 21 4 22 1 23
REMARK H PARENT 18 11 18 12 10 14
ROOT
ATOM      1  C   UNL     1      -4.257   9.437  14.389  1.00  0.00    -0.048 A 
ATOM      2  C   UNL     1      -3.926   9.286  13.041  1.00  0.00     0.006 A 
ATOM      3  C   UNL     1      -3.985   8.037  12.431  1.00  0.00     0.026 A 
ATOM      4  C   UNL     1      -4.299   6.883  13.154  1.00  0.00     0.038 A 
ATOM      5  C   UNL     1      -4.576   7.025  14.519  1.00  0.00     0.026 A 
ATOM      6  C   UNL     1      -4.555   8.288  15.130  1.00  0.00     0.006 A 
ENDROOT
BRANCH   1   7
ATOM      7  C   UNL     1      -4.294  10.800  15.036  1.00  0.00     0.037 C 
BRANCH   7   8
ATOM      8  C   UNL     1      -5.176  11.865  14.355  1.00  0.00     0.020 C 
BRANCH   8   9
ATOM      9  C   UNL     1      -6.583  12.049  14.942  1.00  0.00     0.078 C 
BRANCH   9  10
ATOM     10  N   UNL     1      -7.665  11.517  14.125  1.00  0.00    -0.330 NA
ATOM     11  H   UNL     1      -8.558  11.662  14.593  1.00  0.00     0.118 HD
ATOM     12  H   UNL     1      -7.568  10.506  14.028  1.00  0.00     0.118 HD
ENDBRANCH   9  10
ENDBRANCH   8   9
ENDBRANCH   7   8
ENDBRANCH   1   7
BRANCH   4  13
ATOM     13  N   UNL     1      -4.246   5.602  12.571  1.00  0.00    -0.362 N 
ATOM     14  H   UNL     1      -3.349   5.133  12.589  1.00  0.00     0.166 HD
BRANCH  13  15
ATOM     15  C   UNL     1      -5.220   5.064  11.773  1.00  0.00     0.083 C 
BRANCH  15  16
ATOM     16  C   UNL     1      -5.235   4.912  10.443  1.00  0.00     0.027 C 
BRANCH  16  17
ATOM     17  C   UNL     1      -4.369   3.925   9.779  1.00  0.00    -0.003 A 
ATOM     18  C   UNL     1      -4.226   3.867   8.381  1.00  0.00    -0.041 A 
ATOM     19  C   UNL     1      -3.670   2.964  10.524  1.00  0.00     0.119 A 
ATOM     20  C   UNL     1      -3.398   2.879   7.829  1.00  0.00     0.024 A 
ATOM     21  N   UNL     1      -2.854   2.015  10.009  1.00  0.00    -0.264 NA
ATOM     22  C   UNL     1      -2.735   1.998   8.669  1.00  0.00     0.111 A 
ATOM     23  C   UNL     1      -4.958   4.801   7.458  1.00  0.00     0.045 C 
ENDBRANCH  16  17
ENDBRANCH  15  16
ENDBRANCH  13  15
ENDBRANCH   4  13
TORSDOF 8
ENDMDL
MODEL 9
REMARK VINA RESULT:    -4.915      1.336      2.225
REMARK INTER + INTRA:          -7.682
REMARK INTER:                  -7.144
REMARK INTRA:                  -0.538
REMARK UNBOUND:                -0.613
REMARK SMILES Cc1ccncc1/C=C/Nc1ccc(CCCN)cc1
REMARK SMILES IDX 14 1 13 2 12 3 11 4 20 5 19 6 15 7 16 8 17 9 18 10 10 13
REMARK SMILES IDX 9 15 8 16 7 17 2 18 6 19 3 20 5 21 4 22 1 23
REMARK H PARENT 18 11 18 12 10 14
ROOT
ATOM      1  C   UNL     1     -10.419   2.755  14.453  1.00  0.00    -0.048 A 
ATOM      2  C   UNL     1     -10.256   4.127  14.248  1.00  0.00     0.006 A 
ATOM      3  C   UNL     1      -9.484   4.600  13.190  1.00  0.00     0.026 A 
ATOM      4  C   UNL     1      -8.786   3.732  12.348  1.00  0.00     0.038 A 
ATOM      5  C   UNL     1      -8.903   2.358  12.587  1.00  0.00     0.026 A 
ATOM      6  C   UNL     1      -9.710   1.874  13.628  1.00  0.00     0.006 A 
ENDROOT
BRANCH   1   7
ATOM      7  C   UNL     1     -11.333   2.231  15.532  1.00  0.00     0.037 C 
BRANCH   7   8
ATOM      8  C   UNL     1     -10.769   2.211  16.966  1.00  0.00     0.020 C 
BRANCH   8   9
ATOM      9  C   UNL     1      -9.572   1.280  17.206  1.00  0.00     0.078 C 
BRANCH   9  10
ATOM     10  N   UNL     1      -8.375   1.936  17.714  1.00  0.00    -0.330 NA
ATOM     11  H   UNL     1      -7.558   1.351  17.545  1.00  0.00     0.118 HD
ATOM     12  H   UNL     1      -8.433   2.038  18.728  1.00  0.00     0.118 HD
ENDBRANCH   9  10
ENDBRANCH   8   9
ENDBRANCH   7   8
ENDBRANCH   1   7
BRANCH   4  13
ATOM     13  N   UNL     1      -7.910   4.205  11.352  1.00  0.00    -0.362 N 
ATOM     14  H   UNL     1      -8.184   4.041  10.391  1.00  0.00     0.166 HD
BRANCH  13  15
ATOM     15  C   UNL     1      -6.626   4.628  11.575  1.00  0.00     0.083 C 
BRANCH  15  16
ATOM     16  C   UNL     1      -5.509   4.333  10.897  1.00  0.00     0.027 C 
BRANCH  16  17
ATOM     17  C   UNL     1      -5.393   4.620   9.459  1.00  0.00    -0.003 A 
ATOM     18  C   UNL     1      -4.483   3.945   8.626  1.00  0.00    -0.041 A 
ATOM     19  C   UNL     1      -6.173   5.621   8.859  1.00  0.00     0.119 A 
ATOM     20  C   UNL     1      -4.421   4.298   7.270  1.00  0.00     0.024 A 
ATOM     21  N   UNL     1      -6.138   5.962   7.550  1.00  0.00    -0.264 NA
ATOM     22  C   UNL     1      -5.262   5.287   6.784  1.00  0.00     0.111 A 
ATOM     23  C   UNL     1      -3.549   2.889   9.145  1.00  0.00     0.045 C 
ENDBRANCH  16  17
ENDBRANCH  15  16
ENDBRANCH  13  15
ENDBRANCH   4  13
TORSDOF 8
ENDMDL
