MODEL 1
REMARK VINA RESULT:    -5.142      0.000      0.000
REMARK INTER + INTRA:          -8.157
REMARK INTER:                  -7.396
REMARK INTRA:                  -0.761
REMARK UNBOUND:                -0.761
REMARK SMILES Cc1ccncc1/C=C/Nc1ccc(CCCN)cc1
REMARK SMILES IDX 14 1 13 2 12 3 11 4 20 5 19 6 15 7 16 8 17 9 18 10 10 13
REMARK SMILES IDX 9 15 8 16 7 17 2 18 6 19 3 20 5 21 4 22 1 23
REMARK H PARENT 18 11 18 12 10 14
ROOT
ATOM      1  C   UNL     1      -4.062  10.502 -10.039  1.00  0.00    -0.048 A 
ATOM      2  C   UNL     1      -5.289   9.847 -10.166  1.00  0.00     0.006 A 
ATOM      3  C   UNL     1      -5.581   8.729  -9.391  1.00  0.00     0.026 A 
ATOM      4  C   UNL     1      -4.639   8.174  -8.522  1.00  0.00     0.038 A 
ATOM      5  C   UNL     1      -3.387   8.796  -8.435  1.00  0.00     0.026 A 
ATOM      6  C   UNL     1      -3.101   9.946  -9.185  1.00  0.00     0.006 A 
ENDROOT
BRANCH   1   7
ATOM      7  C   UNL     1      -3.773  11.773 -10.798  1.00  0.00     0.037 C 
BRANCH   7   8
ATOM      8  C   UNL     1      -2.773  11.669 -11.966  1.00  0.00     0.020 C 
BRANCH   8   9
ATOM      9  C   UNL     1      -3.337  11.134 -13.290  1.00  0.00     0.078 C 
BRANCH   9  10
ATOM     10  N   UNL     1      -2.758   9.877 -13.743  1.00  0.00    -0.330 NA
ATOM     11  H   UNL     1      -1.959  10.060 -14.350  1.00  0.00     0.118 HD
ATOM     12  H   UNL     1      -3.428   9.369 -14.320  1.00  0.00     0.118 HD
ENDBRANCH   9  10
ENDBRANCH   8   9
ENDBRANCH   7   8
ENDBRANCH   1   7
BRANCH   4  13
ATOM     13  N   UNL     1      -4.884   6.975  -7.825  1.00  0.00    -0.362 N 
ATOM     14  H   UNL     1      -5.214   7.063  -6.872  1.00  0.00     0.166 HD
BRANCH  13  15
ATOM     15  C   UNL     1      -4.473   5.734  -8.234  1.00  0.00     0.083 C 
BRANCH  15  16
ATOM     16  C   UNL     1      -4.251   4.633  -7.504  1.00  0.00     0.027 C 
BRANCH  16  17
ATOM     17  C   UNL     1      -2.890   4.252  -7.095  1.00  0.00    -0.003 A 
ATOM     18  C   UNL     1      -2.571   3.905  -5.770  1.00  0.00    -0.041 A 
ATOM     19  C   UNL     1      -1.834   4.256  -8.018  1.00  0.00     0.119 A 
ATOM     20  C   UNL     1      -1.242   3.577  -5.462  1.00  0.00     0.024 A 
ATOM     21  N   UNL     1      -0.551   3.925  -7.741  1.00  0.00    -0.264 NA
ATOM     22  C   UNL     1      -0.287   3.590  -6.466  1.00  0.00     0.111 A 
ATOM     23  C   UNL     1      -3.592   3.911  -4.668  1.00  0.00     0.045 C 
ENDBRANCH  16  17
ENDBRANCH  15  16
ENDBRANCH  13  15
ENDBRANCH   4  13
TORSDOF 8
ENDMDL
MODEL 2
REMARK VINA RESULT:    -5.117      1.489      1.629
REMARK INTER + INTRA:          -8.121
REMARK INTER:                  -7.463
REMARK INTRA:                  -0.658
REMARK UNBOUND:                -0.761
REMARK SMILES Cc1ccncc1/C=C/Nc1ccc(CCCN)cc1
REMARK SMILES IDX 14 1 13 2 12 3 11 4 20 5 19 6 15 7 16 8 17 9 18 10 10 13
REMARK SMILES IDX 9 15 8 16 7 17 2 18 6 19 3 20 5 21 4 22 1 23
REMARK H PARENT 18 11 18 12 10 14
ROOT
ATOM      1  C   UNL     1      -4.189  10.691  -9.996  1.00  0.00    -0.048 A 
ATOM      2  C   UNL     1      -5.371   9.987 -10.233  1.00  0.00     0.006 A 
ATOM      3  C   UNL     1      -5.641   8.801  -9.557  1.00  0.00     0.026 A 
ATOM      4  C   UNL     1      -4.713   8.231  -8.681  1.00  0.00     0.038 A 
ATOM      5  C   UNL     1      -3.503   8.906  -8.485  1.00  0.00     0.026 A 
ATOM      6  C   UNL     1      -3.242  10.122  -9.135  1.00  0.00     0.006 A 
ENDROOT
BRANCH   1   7
ATOM      7  C   UNL     1      -3.931  12.027 -10.646  1.00  0.00     0.037 C 
BRANCH   7   8
ATOM      8  C   UNL     1      -4.805  12.383 -11.864  1.00  0.00     0.020 C 
BRANCH   8   9
ATOM      9  C   UNL     1      -5.869  13.466 -11.636  1.00  0.00     0.078 C 
BRANCH   9  10
ATOM     10  N   UNL     1      -7.188  13.155 -12.169  1.00  0.00    -0.330 NA
ATOM     11  H   UNL     1      -7.441  12.196 -11.936  1.00  0.00     0.118 HD
ATOM     12  H   UNL     1      -7.174  13.195 -13.188  1.00  0.00     0.118 HD
ENDBRANCH   9  10
ENDBRANCH   8   9
ENDBRANCH   7   8
ENDBRANCH   1   7
BRANCH   4  13
ATOM     13  N   UNL     1      -4.927   6.973  -8.085  1.00  0.00    -0.362 N 
ATOM     14  H   UNL     1      -5.381   6.971  -7.180  1.00  0.00     0.166 HD
BRANCH  13  15
ATOM     15  C   UNL     1      -4.353   5.802  -8.503  1.00  0.00     0.083 C 
BRANCH  15  16
ATOM     16  C   UNL     1      -4.161   4.664  -7.822  1.00  0.00     0.027 C 
BRANCH  16  17
ATOM     17  C   UNL     1      -2.824   4.276  -7.348  1.00  0.00    -0.003 A 
ATOM     18  C   UNL     1      -2.566   3.950  -6.005  1.00  0.00    -0.041 A 
ATOM     19  C   UNL     1      -1.729   4.252  -8.224  1.00  0.00     0.119 A 
ATOM     20  C   UNL     1      -1.255   3.613  -5.633  1.00  0.00     0.024 A 
ATOM     21  N   UNL     1      -0.463   3.913  -7.887  1.00  0.00    -0.264 NA
ATOM     22  C   UNL     1      -0.258   3.598  -6.595  1.00  0.00     0.111 A 
ATOM     23  C   UNL     1      -3.633   3.986  -4.948  1.00  0.00     0.045 C 
ENDBRANCH  16  17
ENDBRANCH  15  16
ENDBRANCH  13  15
ENDBRANCH   4  13
TORSDOF 8
ENDMDL
MODEL 3
REMARK VINA RESULT:    -5.002      4.916      8.398
REMARK INTER + INTRA:          -7.956
REMARK INTER:                  -7.353
REMARK INTRA:                  -0.604
REMARK UNBOUND:                -0.761
REMARK SMILES Cc1ccncc1/C=C/Nc1ccc(CCCN)cc1
REMARK SMILES IDX 14 1 13 2 12 3 11 4 20 5 19 6 15 7 16 8 17 9 18 10 10 13
REMARK SMILES IDX 9 15 8 16 7 17 2 18 6 19 3 20 5 21 4 22 1 23
REMARK H PARENT 18 11 18 12 10 14
ROOT
ATOM      1  C   UNL     1      -2.975   4.477  -5.918  1.00  0.00    -0.048 A 
ATOM      2  C   UNL     1      -2.289   4.104  -7.075  1.00  0.00     0.006 A 
ATOM      3  C   UNL     1      -2.950   4.024  -8.298  1.00  0.00     0.026 A 
ATOM      4  C   UNL     1      -4.327   4.236  -8.401  1.00  0.00     0.038 A 
ATOM      5  C   UNL     1      -5.026   4.555  -7.231  1.00  0.00     0.026 A 
ATOM      6  C   UNL     1      -4.358   4.674  -6.002  1.00  0.00     0.006 A 
ENDROOT
BRANCH   1   7
ATOM      7  C   UNL     1      -2.251   4.665  -4.608  1.00  0.00     0.037 C 
BRANCH   7   8
ATOM      8  C   UNL     1      -2.963   4.147  -3.343  1.00  0.00     0.020 C 
BRANCH   8   9
ATOM      9  C   UNL     1      -2.428   4.676  -2.005  1.00  0.00     0.078 C 
BRANCH   9  10
ATOM     10  N   UNL     1      -3.210   4.298  -0.837  1.00  0.00    -0.330 NA
ATOM     11  H   UNL     1      -4.203   4.437  -1.021  1.00  0.00     0.118 HD
ATOM     12  H   UNL     1      -2.990   4.911  -0.052  1.00  0.00     0.118 HD
ENDBRANCH   9  10
ENDBRANCH   8   9
ENDBRANCH   7   8
ENDBRANCH   1   7
BRANCH   4  13
ATOM     13  N   UNL     1      -5.022   4.041  -9.610  1.00  0.00    -0.362 N 
ATOM     14  H   UNL     1      -5.596   4.810  -9.933  1.00  0.00     0.166 HD
BRANCH  13  15
ATOM     15  C   UNL     1      -5.184   2.832 -10.233  1.00  0.00     0.083 C 
BRANCH  15  16
ATOM     16  C   UNL     1      -6.303   2.119 -10.418  1.00  0.00     0.027 C 
BRANCH  16  17
ATOM     17  C   UNL     1      -7.166   2.346 -11.588  1.00  0.00    -0.003 A 
ATOM     18  C   UNL     1      -8.533   2.016 -11.592  1.00  0.00    -0.041 A 
ATOM     19  C   UNL     1      -6.641   2.872 -12.778  1.00  0.00     0.119 A 
ATOM     20  C   UNL     1      -9.277   2.243 -12.759  1.00  0.00     0.024 A 
ATOM     21  N   UNL     1      -7.348   3.114 -13.906  1.00  0.00    -0.264 NA
ATOM     22  C   UNL     1      -8.654   2.795 -13.867  1.00  0.00     0.111 A 
ATOM     23  C   UNL     1      -9.214   1.395 -10.404  1.00  0.00     0.045 C 
ENDBRANCH  16  17
ENDBRANCH  15  16
ENDBRANCH  13  15
ENDBRANCH   4  13
TORSDOF 8
ENDMDL
MODEL 4
REMARK VINA RESULT:    -4.984      1.420      2.171
REMARK INTER + INTRA:          -7.931
REMARK INTER:                  -7.273
REMARK INTRA:                  -0.658
REMARK UNBOUND:                -0.761
REMARK SMILES Cc1ccncc1/C=C/Nc1ccc(CCCN)cc1
REMARK SMILES IDX 14 1 13 2 12 3 11 4 20 5 19 6 15 7 16 8 17 9 18 10 10 13
REMARK SMILES IDX 9 15 8 16 7 17 2 18 6 19 3 20 5 21 4 22 1 23
REMARK H PARENT 18 11 18 12 10 14
ROOT
ATOM      1  C   UNL     1      -4.347  10.728 -10.371  1.00  0.00    -0.048 A 
ATOM      2  C   UNL     1      -5.490   9.927 -10.325  1.00  0.00     0.006 A 
ATOM      3  C   UNL     1      -5.568   8.852  -9.444  1.00  0.00     0.026 A 
ATOM      4  C   UNL     1      -4.489   8.487  -8.636  1.00  0.00     0.038 A 
ATOM      5  C   UNL     1      -3.321   9.255  -8.723  1.00  0.00     0.026 A 
ATOM      6  C   UNL     1      -3.250  10.363  -9.581  1.00  0.00     0.006 A 
ENDROOT
BRANCH   1   7
ATOM      7  C   UNL     1      -4.289  11.954 -11.248  1.00  0.00     0.037 C 
BRANCH   7   8
ATOM      8  C   UNL     1      -3.373  11.877 -12.485  1.00  0.00     0.020 C 
BRANCH   8   9
ATOM      9  C   UNL     1      -3.994  11.256 -13.744  1.00  0.00     0.078 C 
BRANCH   9  10
ATOM     10  N   UNL     1      -3.581   9.888 -14.023  1.00  0.00    -0.330 NA
ATOM     11  H   UNL     1      -3.926   9.264 -13.295  1.00  0.00     0.118 HD
ATOM     12  H   UNL     1      -2.564   9.813 -13.988  1.00  0.00     0.118 HD
ENDBRANCH   9  10
ENDBRANCH   8   9
ENDBRANCH   7   8
ENDBRANCH   1   7
BRANCH   4  13
ATOM     13  N   UNL     1      -4.518   7.332  -7.831  1.00  0.00    -0.362 N 
ATOM     14  H   UNL     1      -4.470   7.474  -6.830  1.00  0.00     0.166 HD
BRANCH  13  15
ATOM     15  C   UNL     1      -4.348   6.053  -8.292  1.00  0.00     0.083 C 
BRANCH  15  16
ATOM     16  C   UNL     1      -3.642   5.048  -7.756  1.00  0.00     0.027 C 
BRANCH  16  17
ATOM     17  C   UNL     1      -3.898   4.584  -6.384  1.00  0.00    -0.003 A 
ATOM     18  C   UNL     1      -2.908   3.964  -5.601  1.00  0.00    -0.041 A 
ATOM     19  C   UNL     1      -5.171   4.709  -5.808  1.00  0.00     0.119 A 
ATOM     20  C   UNL     1      -3.245   3.530  -4.310  1.00  0.00     0.024 A 
ATOM     21  N   UNL     1      -5.508   4.311  -4.559  1.00  0.00    -0.264 NA
ATOM     22  C   UNL     1      -4.532   3.732  -3.837  1.00  0.00     0.111 A 
ATOM     23  C   UNL     1      -1.516   3.717  -6.111  1.00  0.00     0.045 C 
ENDBRANCH  16  17
ENDBRANCH  15  16
ENDBRANCH  13  15
ENDBRANCH   4  13
TORSDOF 8
ENDMDL
MODEL 5
REMARK VINA RESULT:    -4.944      2.379      8.418
REMARK INTER + INTRA:          -7.872
REMARK INTER:                  -7.276
REMARK INTRA:                  -0.597
REMARK UNBOUND:                -0.761
REMARK SMILES Cc1ccncc1/C=C/Nc1ccc(CCCN)cc1
REMARK SMILES IDX 14 1 13 2 12 3 11 4 20 5 19 6 15 7 16 8 17 9 18 10 10 13
REMARK SMILES IDX 9 15 8 16 7 17 2 18 6 19 3 20 5 21 4 22 1 23
REMARK H PARENT 18 11 18 12 10 14
ROOT
ATOM      1  C   UNL     1      -3.457   3.678  -5.029  1.00  0.00    -0.048 A 
ATOM      2  C   UNL     1      -4.717   4.278  -5.083  1.00  0.00     0.006 A 
ATOM      3  C   UNL     1      -5.129   4.963  -6.222  1.00  0.00     0.026 A 
ATOM      4  C   UNL     1      -4.279   5.145  -7.315  1.00  0.00     0.038 A 
ATOM      5  C   UNL     1      -2.995   4.593  -7.240  1.00  0.00     0.026 A 
ATOM      6  C   UNL     1      -2.587   3.868  -6.110  1.00  0.00     0.006 A 
ENDROOT
BRANCH   1   7
ATOM      7  C   UNL     1      -3.037   2.848  -3.842  1.00  0.00     0.037 C 
BRANCH   7   8
ATOM      8  C   UNL     1      -2.018   3.485  -2.878  1.00  0.00     0.020 C 
BRANCH   8   9
ATOM      9  C   UNL     1      -2.519   4.689  -2.068  1.00  0.00     0.078 C 
BRANCH   9  10
ATOM     10  N   UNL     1      -3.138   4.358  -0.792  1.00  0.00    -0.330 NA
ATOM     11  H   UNL     1      -2.796   4.986  -0.065  1.00  0.00     0.118 HD
ATOM     12  H   UNL     1      -2.858   3.422  -0.498  1.00  0.00     0.118 HD
ENDBRANCH   9  10
ENDBRANCH   8   9
ENDBRANCH   7   8
ENDBRANCH   1   7
BRANCH   4  13
ATOM     13  N   UNL     1      -4.646   5.937  -8.420  1.00  0.00    -0.362 N 
ATOM     14  H   UNL     1      -5.087   5.459  -9.195  1.00  0.00     0.166 HD
BRANCH  13  15
ATOM     15  C   UNL     1      -4.229   7.225  -8.632  1.00  0.00     0.083 C 
BRANCH  15  16
ATOM     16  C   UNL     1      -4.924   8.366  -8.532  1.00  0.00     0.027 C 
BRANCH  16  17
ATOM     17  C   UNL     1      -5.396   9.078  -9.729  1.00  0.00    -0.003 A 
ATOM     18  C   UNL     1      -4.781  10.251 -10.200  1.00  0.00    -0.041 A 
ATOM     19  C   UNL     1      -6.520   8.628 -10.438  1.00  0.00     0.119 A 
ATOM     20  C   UNL     1      -5.311  10.881 -11.337  1.00  0.00     0.024 A 
ATOM     21  N   UNL     1      -7.033   9.212 -11.545  1.00  0.00    -0.264 NA
ATOM     22  C   UNL     1      -6.412  10.326 -11.970  1.00  0.00     0.111 A 
ATOM     23  C   UNL     1      -3.602  10.875  -9.508  1.00  0.00     0.045 C 
ENDBRANCH  16  17
ENDBRANCH  15  16
ENDBRANCH  13  15
ENDBRANCH   4  13
TORSDOF 8
ENDMDL
MODEL 6
REMARK VINA RESULT:    -4.942      2.027      8.458
REMARK INTER + INTRA:          -7.869
REMARK INTER:                  -7.331
REMARK INTRA:                  -0.538
REMARK UNBOUND:                -0.761
REMARK SMILES Cc1ccncc1/C=C/Nc1ccc(CCCN)cc1
REMARK SMILES IDX 14 1 13 2 12 3 11 4 20 5 19 6 15 7 16 8 17 9 18 10 10 13
REMARK SMILES IDX 9 15 8 16 7 17 2 18 6 19 3 20 5 21 4 22 1 23
REMARK H PARENT 18 11 18 12 10 14
ROOT
ATOM      1  C   UNL     1      -2.756   3.416  -5.836  1.00  0.00    -0.048 A 
ATOM      2  C   UNL     1      -3.953   4.038  -5.472  1.00  0.00     0.006 A 
ATOM      3  C   UNL     1      -4.578   4.935  -6.334  1.00  0.00     0.026 A 
ATOM      4  C   UNL     1      -3.999   5.306  -7.550  1.00  0.00     0.038 A 
ATOM      5  C   UNL     1      -2.771   4.726  -7.891  1.00  0.00     0.026 A 
ATOM      6  C   UNL     1      -2.156   3.792  -7.044  1.00  0.00     0.006 A 
ENDROOT
BRANCH   1   7
ATOM      7  C   UNL     1      -2.123   2.368  -4.956  1.00  0.00     0.037 C 
BRANCH   7   8
ATOM      8  C   UNL     1      -0.583   2.301  -4.959  1.00  0.00     0.020 C 
BRANCH   8   9
ATOM      9  C   UNL     1       0.029   0.896  -5.060  1.00  0.00     0.078 C 
BRANCH   9  10
ATOM     10  N   UNL     1      -0.035   0.107  -3.838  1.00  0.00    -0.330 NA
ATOM     11  H   UNL     1       0.733   0.362  -3.218  1.00  0.00     0.118 HD
ATOM     12  H   UNL     1       0.101  -0.881  -4.050  1.00  0.00     0.118 HD
ENDBRANCH   9  10
ENDBRANCH   8   9
ENDBRANCH   7   8
ENDBRANCH   1   7
BRANCH   4  13
ATOM     13  N   UNL     1      -4.565   6.300  -8.371  1.00  0.00    -0.362 N 
ATOM     14  H   UNL     1      -4.681   6.069  -9.350  1.00  0.00     0.166 HD
BRANCH  13  15
ATOM     15  C   UNL     1      -4.725   7.612  -8.013  1.00  0.00     0.083 C 
BRANCH  15  16
ATOM     16  C   UNL     1      -4.298   8.718  -8.638  1.00  0.00     0.027 C 
BRANCH  16  17
ATOM     17  C   UNL     1      -5.051   9.298  -9.760  1.00  0.00    -0.003 A 
ATOM     18  C   UNL     1      -4.705  10.529 -10.344  1.00  0.00    -0.041 A 
ATOM     19  C   UNL     1      -6.185   8.653 -10.275  1.00  0.00     0.119 A 
ATOM     20  C   UNL     1      -5.492  11.022 -11.396  1.00  0.00     0.024 A 
ATOM     21  N   UNL     1      -6.945   9.105 -11.300  1.00  0.00    -0.264 NA
ATOM     22  C   UNL     1      -6.576  10.281 -11.839  1.00  0.00     0.111 A 
ATOM     23  C   UNL     1      -3.546  11.353  -9.857  1.00  0.00     0.045 C 
ENDBRANCH  16  17
ENDBRANCH  15  16
ENDBRANCH  13  15
ENDBRANCH   4  13
TORSDOF 8
ENDMDL
MODEL 7
REMARK VINA RESULT:    -4.908      4.525      8.336
REMARK INTER + INTRA:          -7.821
REMARK INTER:                  -7.164
REMARK INTRA:                  -0.657
REMARK UNBOUND:                -0.761
REMARK SMILES Cc1ccncc1/C=C/Nc1ccc(CCCN)cc1
REMARK SMILES IDX 14 1 13 2 12 3 11 4 20 5 19 6 15 7 16 8 17 9 18 10 10 13
REMARK SMILES IDX 9 15 8 16 7 17 2 18 6 19 3 20 5 21 4 22 1 23
REMARK H PARENT 18 11 18 12 10 14
ROOT
ATOM      1  C   UNL     1      -1.651   3.936  -5.962  1.00  0.00    -0.048 A 
ATOM      2  C   UNL     1      -1.203   3.954  -7.284  1.00  0.00     0.006 A 
ATOM      3  C   UNL     1      -2.082   4.228  -8.328  1.00  0.00     0.026 A 
ATOM      4  C   UNL     1      -3.448   4.416  -8.104  1.00  0.00     0.038 A 
ATOM      5  C   UNL     1      -3.909   4.342  -6.784  1.00  0.00     0.026 A 
ATOM      6  C   UNL     1      -3.021   4.104  -5.724  1.00  0.00     0.006 A 
ENDROOT
BRANCH   1   7
ATOM      7  C   UNL     1      -0.691   3.741  -4.815  1.00  0.00     0.037 C 
BRANCH   7   8
ATOM      8  C   UNL     1      -0.854   2.451  -3.988  1.00  0.00     0.020 C 
BRANCH   8   9
ATOM      9  C   UNL     1      -0.433   1.148  -4.683  1.00  0.00     0.078 C 
BRANCH   9  10
ATOM     10  N   UNL     1       1.004   0.917  -4.741  1.00  0.00    -0.330 NA
ATOM     11  H   UNL     1       1.205  -0.069  -4.581  1.00  0.00     0.118 HD
ATOM     12  H   UNL     1       1.471   1.418  -3.985  1.00  0.00     0.118 HD
ENDBRANCH   9  10
ENDBRANCH   8   9
ENDBRANCH   7   8
ENDBRANCH   1   7
BRANCH   4  13
ATOM     13  N   UNL     1      -4.361   4.575  -9.165  1.00  0.00    -0.362 N 
ATOM     14  H   UNL     1      -4.552   5.524  -9.462  1.00  0.00     0.166 HD
BRANCH  13  15
ATOM     15  C   UNL     1      -5.187   3.591  -9.640  1.00  0.00     0.083 C 
BRANCH  15  16
ATOM     16  C   UNL     1      -5.145   2.944 -10.812  1.00  0.00     0.027 C 
BRANCH  16  17
ATOM     17  C   UNL     1      -5.995   3.353 -11.940  1.00  0.00    -0.003 A 
ATOM     18  C   UNL     1      -7.117   2.610 -12.347  1.00  0.00    -0.041 A 
ATOM     19  C   UNL     1      -5.693   4.500 -12.690  1.00  0.00     0.119 A 
ATOM     20  C   UNL     1      -7.860   3.060 -13.449  1.00  0.00     0.024 A 
ATOM     21  N   UNL     1      -6.409   4.957 -13.744  1.00  0.00    -0.264 NA
ATOM     22  C   UNL     1      -7.480   4.225 -14.096  1.00  0.00     0.111 A 
ATOM     23  C   UNL     1      -7.525   1.332 -11.668  1.00  0.00     0.045 C 
ENDBRANCH  16  17
ENDBRANCH  15  16
ENDBRANCH  13  15
ENDBRANCH   4  13
TORSDOF 8
ENDMDL
MODEL 8
REMARK VINA RESULT:    -4.875      2.325      8.309
REMARK INTER + INTRA:          -7.774
REMARK INTER:                  -7.273
REMARK INTRA:                  -0.501
REMARK UNBOUND:                -0.761
REMARK SMILES Cc1ccncc1/C=C/Nc1ccc(CCCN)cc1
REMARK SMILES IDX 14 1 13 2 12 3 11 4 20 5 19 6 15 7 16 8 17 9 18 10 10 13
REMARK SMILES IDX 9 15 8 16 7 17 2 18 6 19 3 20 5 21 4 22 1 23
REMARK H PARENT 18 11 18 12 10 14
ROOT
ATOM      1  C   UNL     1      -3.102   3.474  -4.885  1.00  0.00    -0.048 A 
ATOM      2  C   UNL     1      -4.362   4.074  -4.911  1.00  0.00     0.006 A 
ATOM      3  C   UNL     1      -4.824   4.708  -6.061  1.00  0.00     0.026 A 
ATOM      4  C   UNL     1      -4.021   4.837  -7.198  1.00  0.00     0.038 A 
ATOM      5  C   UNL     1      -2.735   4.286  -7.153  1.00  0.00     0.026 A 
ATOM      6  C   UNL     1      -2.280   3.612  -6.010  1.00  0.00     0.006 A 
ENDROOT
BRANCH   1   7
ATOM      7  C   UNL     1      -2.632   2.697  -3.681  1.00  0.00     0.037 C 
BRANCH   7   8
ATOM      8  C   UNL     1      -1.760   3.459  -2.663  1.00  0.00     0.020 C 
BRANCH   8   9
ATOM      9  C   UNL     1      -2.419   4.668  -1.983  1.00  0.00     0.078 C 
BRANCH   9  10
ATOM     10  N   UNL     1      -3.130   4.367  -0.749  1.00  0.00    -0.330 NA
ATOM     11  H   UNL     1      -2.839   5.010  -0.013  1.00  0.00     0.118 HD
ATOM     12  H   UNL     1      -2.877   3.437  -0.415  1.00  0.00     0.118 HD
ENDBRANCH   9  10
ENDBRANCH   8   9
ENDBRANCH   7   8
ENDBRANCH   1   7
BRANCH   4  13
ATOM     13  N   UNL     1      -4.435   5.579  -8.321  1.00  0.00    -0.362 N 
ATOM     14  H   UNL     1      -4.829   5.055  -9.092  1.00  0.00     0.166 HD
BRANCH  13  15
ATOM     15  C   UNL     1      -4.117   6.891  -8.552  1.00  0.00     0.083 C 
BRANCH  15  16
ATOM     16  C   UNL     1      -4.881   7.984  -8.415  1.00  0.00     0.027 C 
BRANCH  16  17
ATOM     17  C   UNL     1      -4.635   9.191  -9.218  1.00  0.00    -0.003 A 
ATOM     18  C   UNL     1      -5.491   9.591 -10.260  1.00  0.00    -0.041 A 
ATOM     19  C   UNL     1      -3.497   9.982  -8.998  1.00  0.00     0.119 A 
ATOM     20  C   UNL     1      -5.168  10.743 -10.992  1.00  0.00     0.024 A 
ATOM     21  N   UNL     1      -3.181  11.106  -9.683  1.00  0.00    -0.264 NA
ATOM     22  C   UNL     1      -4.029  11.461 -10.664  1.00  0.00     0.111 A 
ATOM     23  C   UNL     1      -6.716   8.807 -10.640  1.00  0.00     0.045 C 
ENDBRANCH  16  17
ENDBRANCH  15  16
ENDBRANCH  13  15
ENDBRANCH   4  13
TORSDOF 8
ENDMDL
MODEL 9
REMARK VINA RESULT:    -4.808      4.698      6.563
REMARK INTER + INTRA:          -7.677
REMARK INTER:                  -6.984
REMARK INTRA:                  -0.693
REMARK UNBOUND:                -0.761
REMARK SMILES Cc1ccncc1/C=C/Nc1ccc(CCCN)cc1
REMARK SMILES IDX 14 1 13 2 12 3 11 4 20 5 19 6 15 7 16 8 17 9 18 10 10 13
REMARK SMILES IDX 9 15 8 16 7 17 2 18 6 19 3 20 5 21 4 22 1 23
REMARK H PARENT 18 11 18 12 10 14
ROOT
ATOM      1  C   UNL     1      -7.275   2.316 -12.154  1.00  0.00    -0.048 A 
ATOM      2  C   UNL     1      -7.171   1.658 -10.926  1.00  0.00     0.006 A 
ATOM      3  C   UNL     1      -6.195   2.025 -10.004  1.00  0.00     0.026 A 
ATOM      4  C   UNL     1      -5.239   3.001 -10.299  1.00  0.00     0.038 A 
ATOM      5  C   UNL     1      -5.307   3.621 -11.552  1.00  0.00     0.026 A 
ATOM      6  C   UNL     1      -6.313   3.283 -12.470  1.00  0.00     0.006 A 
ENDROOT
BRANCH   1   7
ATOM      7  C   UNL     1      -8.390   1.997 -13.118  1.00  0.00     0.037 C 
BRANCH   7   8
ATOM      8  C   UNL     1      -9.786   2.546 -12.767  1.00  0.00     0.020 C 
BRANCH   8   9
ATOM      9  C   UNL     1     -10.228   3.802 -13.533  1.00  0.00     0.078 C 
BRANCH   9  10
ATOM     10  N   UNL     1     -10.178   5.039 -12.768  1.00  0.00    -0.330 NA
ATOM     11  H   UNL     1     -10.380   5.833 -13.375  1.00  0.00     0.118 HD
ATOM     12  H   UNL     1      -9.233   5.198 -12.417  1.00  0.00     0.118 HD
ENDBRANCH   9  10
ENDBRANCH   8   9
ENDBRANCH   7   8
ENDBRANCH   1   7
BRANCH   4  13
ATOM     13  N   UNL     1      -4.178   3.293  -9.420  1.00  0.00    -0.362 N 
ATOM     14  H   UNL     1      -3.588   2.517  -9.148  1.00  0.00     0.166 HD
BRANCH  13  15
ATOM     15  C   UNL     1      -4.042   4.462  -8.719  1.00  0.00     0.083 C 
BRANCH  15  16
ATOM     16  C   UNL     1      -3.113   4.803  -7.816  1.00  0.00     0.027 C 
BRANCH  16  17
ATOM     17  C   UNL     1      -3.197   4.337  -6.424  1.00  0.00    -0.003 A 
ATOM     18  C   UNL     1      -2.107   3.747  -5.759  1.00  0.00    -0.041 A 
ATOM     19  C   UNL     1      -4.398   4.431  -5.705  1.00  0.00     0.119 A 
ATOM     20  C   UNL     1      -2.281   3.308  -4.437  1.00  0.00     0.024 A 
ATOM     21  N   UNL     1      -4.578   4.029  -4.425  1.00  0.00    -0.264 NA
ATOM     22  C   UNL     1      -3.510   3.479  -3.820  1.00  0.00     0.111 A 
ATOM     23  C   UNL     1      -0.777   3.534  -6.425  1.00  0.00     0.045 C 
ENDBRANCH  16  17
ENDBRANCH  15  16
ENDBRANCH  13  15
ENDBRANCH   4  13
TORSDOF 8
ENDMDL
