MODEL 1
REMARK VINA RESULT:    -4.964      0.000      0.000
REMARK INTER + INTRA:          -7.733
REMARK INTER:                  -7.141
REMARK INTRA:                  -0.593
REMARK UNBOUND:                -0.593
REMARK SMILES Cc1ccncc1/C=C/Nc1ccc(CCCN)cc1
REMARK SMILES IDX 14 1 13 2 12 3 11 4 20 5 19 6 15 7 16 8 17 9 18 10 10 13
REMARK SMILES IDX 9 15 8 16 7 17 2 18 6 19 3 20 5 21 4 22 1 23
REMARK H PARENT 18 11 18 12 10 14
ROOT
ATOM      1  C   UNL     1       4.923  -3.791   8.562  1.00  0.00    -0.048 A 
ATOM      2  C   UNL     1       6.286  -3.774   8.261  1.00  0.00     0.006 A 
ATOM      3  C   UNL     1       7.225  -3.451   9.236  1.00  0.00     0.026 A 
ATOM      4  C   UNL     1       6.841  -3.059  10.521  1.00  0.00     0.038 A 
ATOM      5  C   UNL     1       5.472  -3.021  10.808  1.00  0.00     0.026 A 
ATOM      6  C   UNL     1       4.522  -3.382   9.839  1.00  0.00     0.006 A 
ENDROOT
BRANCH   1   7
ATOM      7  C   UNL     1       3.904  -4.236   7.543  1.00  0.00     0.037 C 
BRANCH   7   8
ATOM      8  C   UNL     1       2.613  -3.400   7.444  1.00  0.00     0.020 C 
BRANCH   8   9
ATOM      9  C   UNL     1       1.299  -4.161   7.671  1.00  0.00     0.078 C 
BRANCH   9  10
ATOM     10  N   UNL     1       0.695  -4.718   6.469  1.00  0.00    -0.330 NA
ATOM     11  H   UNL     1      -0.315  -4.585   6.492  1.00  0.00     0.118 HD
ATOM     12  H   UNL     1       0.837  -5.728   6.440  1.00  0.00     0.118 HD
ENDBRANCH   9  10
ENDBRANCH   8   9
ENDBRANCH   7   8
ENDBRANCH   1   7
BRANCH   4  13
ATOM     13  N   UNL     1       7.777  -2.618  11.476  1.00  0.00    -0.362 N 
ATOM     14  H   UNL     1       7.753  -3.072  12.380  1.00  0.00     0.166 HD
BRANCH  13  15
ATOM     15  C   UNL     1       8.525  -1.475  11.368  1.00  0.00     0.083 C 
BRANCH  15  16
ATOM     16  C   UNL     1       8.591  -0.426  12.198  1.00  0.00     0.027 C 
BRANCH  16  17
ATOM     17  C   UNL     1       9.594  -0.366  13.273  1.00  0.00    -0.003 A 
ATOM     18  C   UNL     1       9.474   0.506  14.369  1.00  0.00    -0.041 A 
ATOM     19  C   UNL     1      10.747  -1.164  13.226  1.00  0.00     0.119 A 
ATOM     20  C   UNL     1      10.489   0.516  15.337  1.00  0.00     0.024 A 
ATOM     21  N   UNL     1      11.726  -1.181  14.160  1.00  0.00    -0.264 NA
ATOM     22  C   UNL     1      11.571  -0.339  15.197  1.00  0.00     0.111 A 
ATOM     23  C   UNL     1       8.318   1.455  14.519  1.00  0.00     0.045 C 
ENDBRANCH  16  17
ENDBRANCH  15  16
ENDBRANCH  13  15
ENDBRANCH   4  13
TORSDOF 8
ENDMDL
MODEL 2
REMARK VINA RESULT:    -4.961      4.611      5.976
REMARK INTER + INTRA:          -7.729
REMARK INTER:                  -7.140
REMARK INTRA:                  -0.589
REMARK UNBOUND:                -0.593
REMARK SMILES Cc1ccncc1/C=C/Nc1ccc(CCCN)cc1
REMARK SMILES IDX 14 1 13 2 12 3 11 4 20 5 19 6 15 7 16 8 17 9 18 10 10 13
REMARK SMILES IDX 9 15 8 16 7 17 2 18 6 19 3 20 5 21 4 22 1 23
REMARK H PARENT 18 11 18 12 10 14
ROOT
ATOM      1  C   UNL     1       5.171  -2.772   8.450  1.00  0.00    -0.048 A 
ATOM      2  C   UNL     1       4.482  -2.939   9.653  1.00  0.00     0.006 A 
ATOM      3  C   UNL     1       5.094  -3.553  10.742  1.00  0.00     0.026 A 
ATOM      4  C   UNL     1       6.380  -4.092  10.652  1.00  0.00     0.038 A 
ATOM      5  C   UNL     1       7.050  -3.976   9.429  1.00  0.00     0.026 A 
ATOM      6  C   UNL     1       6.453  -3.324   8.339  1.00  0.00     0.006 A 
ENDROOT
BRANCH   1   7
ATOM      7  C   UNL     1       4.556  -2.019   7.297  1.00  0.00     0.037 C 
BRANCH   7   8
ATOM      8  C   UNL     1       4.800  -2.594   5.887  1.00  0.00     0.020 C 
BRANCH   8   9
ATOM      9  C   UNL     1       5.453  -1.641   4.876  1.00  0.00     0.078 C 
BRANCH   9  10
ATOM     10  N   UNL     1       4.524  -0.813   4.120  1.00  0.00    -0.330 NA
ATOM     11  H   UNL     1       3.569  -0.989   4.431  1.00  0.00     0.118 HD
ATOM     12  H   UNL     1       4.543  -1.074   3.134  1.00  0.00     0.118 HD
ENDBRANCH   9  10
ENDBRANCH   8   9
ENDBRANCH   7   8
ENDBRANCH   1   7
BRANCH   4  13
ATOM     13  N   UNL     1       6.958  -4.819  11.711  1.00  0.00    -0.362 N 
ATOM     14  H   UNL     1       7.896  -4.554  11.984  1.00  0.00     0.166 HD
BRANCH  13  15
ATOM     15  C   UNL     1       6.466  -5.994  12.213  1.00  0.00     0.083 C 
BRANCH  15  16
ATOM     16  C   UNL     1       7.067  -7.187  12.314  1.00  0.00     0.027 C 
BRANCH  16  17
ATOM     17  C   UNL     1       7.745  -7.597  13.554  1.00  0.00    -0.003 A 
ATOM     18  C   UNL     1       8.672  -8.654  13.593  1.00  0.00    -0.041 A 
ATOM     19  C   UNL     1       7.459  -6.964  14.773  1.00  0.00     0.119 A 
ATOM     20  C   UNL     1       9.254  -8.994  14.823  1.00  0.00     0.024 A 
ATOM     21  N   UNL     1       8.025  -7.268  15.964  1.00  0.00    -0.264 NA
ATOM     22  C   UNL     1       8.913  -8.277  15.959  1.00  0.00     0.111 A 
ATOM     23  C   UNL     1       9.031  -9.454  12.372  1.00  0.00     0.045 C 
ENDBRANCH  16  17
ENDBRANCH  15  16
ENDBRANCH  13  15
ENDBRANCH   4  13
TORSDOF 8
ENDMDL
MODEL 3
REMARK VINA RESULT:    -4.949      1.938      8.569
REMARK INTER + INTRA:          -7.712
REMARK INTER:                  -7.008
REMARK INTRA:                  -0.703
REMARK UNBOUND:                -0.593
REMARK SMILES Cc1ccncc1/C=C/Nc1ccc(CCCN)cc1
REMARK SMILES IDX 14 1 13 2 12 3 11 4 20 5 19 6 15 7 16 8 17 9 18 10 10 13
REMARK SMILES IDX 9 15 8 16 7 17 2 18 6 19 3 20 5 21 4 22 1 23
REMARK H PARENT 18 11 18 12 10 14
ROOT
ATOM      1  C   UNL     1       9.971   0.336  14.045  1.00  0.00    -0.048 A 
ATOM      2  C   UNL     1      10.483  -0.928  13.742  1.00  0.00     0.006 A 
ATOM      3  C   UNL     1       9.980  -1.659  12.669  1.00  0.00     0.026 A 
ATOM      4  C   UNL     1       8.903  -1.197  11.909  1.00  0.00     0.038 A 
ATOM      5  C   UNL     1       8.352   0.045  12.247  1.00  0.00     0.026 A 
ATOM      6  C   UNL     1       8.880   0.804  13.303  1.00  0.00     0.006 A 
ENDROOT
BRANCH   1   7
ATOM      7  C   UNL     1      10.574   1.180  15.140  1.00  0.00     0.037 C 
BRANCH   7   8
ATOM      8  C   UNL     1       9.669   2.264  15.755  1.00  0.00     0.020 C 
BRANCH   8   9
ATOM      9  C   UNL     1       8.939   1.877  17.050  1.00  0.00     0.078 C 
BRANCH   9  10
ATOM     10  N   UNL     1       7.944   0.824  16.904  1.00  0.00    -0.330 NA
ATOM     11  H   UNL     1       8.403  -0.084  16.844  1.00  0.00     0.118 HD
ATOM     12  H   UNL     1       7.441   0.935  16.024  1.00  0.00     0.118 HD
ENDBRANCH   9  10
ENDBRANCH   8   9
ENDBRANCH   7   8
ENDBRANCH   1   7
BRANCH   4  13
ATOM     13  N   UNL     1       8.314  -1.982  10.900  1.00  0.00    -0.362 N 
ATOM     14  H   UNL     1       8.438  -1.665   9.946  1.00  0.00     0.166 HD
BRANCH  13  15
ATOM     15  C   UNL     1       7.390  -2.970  11.117  1.00  0.00     0.083 C 
BRANCH  15  16
ATOM     16  C   UNL     1       6.713  -3.705  10.225  1.00  0.00     0.027 C 
BRANCH  16  17
ATOM     17  C   UNL     1       5.350  -3.336   9.811  1.00  0.00    -0.003 A 
ATOM     18  C   UNL     1       4.962  -3.276   8.461  1.00  0.00    -0.041 A 
ATOM     19  C   UNL     1       4.379  -2.989  10.762  1.00  0.00     0.119 A 
ATOM     20  C   UNL     1       3.648  -2.891   8.154  1.00  0.00     0.024 A 
ATOM     21  N   UNL     1       3.103  -2.633  10.485  1.00  0.00    -0.264 NA
ATOM     22  C   UNL     1       2.767  -2.596   9.183  1.00  0.00     0.111 A 
ATOM     23  C   UNL     1       5.914  -3.570   7.336  1.00  0.00     0.045 C 
ENDBRANCH  16  17
ENDBRANCH  15  16
ENDBRANCH  13  15
ENDBRANCH   4  13
TORSDOF 8
ENDMDL
MODEL 4
REMARK VINA RESULT:    -4.846      5.004      8.437
REMARK INTER + INTRA:          -7.563
REMARK INTER:                  -6.910
REMARK INTRA:                  -0.653
REMARK UNBOUND:                -0.593
REMARK SMILES Cc1ccncc1/C=C/Nc1ccc(CCCN)cc1
REMARK SMILES IDX 14 1 13 2 12 3 11 4 20 5 19 6 15 7 16 8 17 9 18 10 10 13
REMARK SMILES IDX 9 15 8 16 7 17 2 18 6 19 3 20 5 21 4 22 1 23
REMARK H PARENT 18 11 18 12 10 14
ROOT
ATOM      1  C   UNL     1       8.304  -8.378  13.899  1.00  0.00    -0.048 A 
ATOM      2  C   UNL     1       8.044  -7.148  14.506  1.00  0.00     0.006 A 
ATOM      3  C   UNL     1       7.201  -6.220  13.900  1.00  0.00     0.026 A 
ATOM      4  C   UNL     1       6.650  -6.448  12.636  1.00  0.00     0.038 A 
ATOM      5  C   UNL     1       6.956  -7.657  12.001  1.00  0.00     0.026 A 
ATOM      6  C   UNL     1       7.774  -8.612  12.624  1.00  0.00     0.006 A 
ENDROOT
BRANCH   1   7
ATOM      7  C   UNL     1       9.133  -9.431  14.591  1.00  0.00     0.037 C 
BRANCH   7   8
ATOM      8  C   UNL     1       9.648 -10.591  13.718  1.00  0.00     0.020 C 
BRANCH   8   9
ATOM      9  C   UNL     1      11.126 -10.519  13.306  1.00  0.00     0.078 C 
BRANCH   9  10
ATOM     10  N   UNL     1      11.554  -9.233  12.773  1.00  0.00    -0.330 NA
ATOM     11  H   UNL     1      12.451  -9.334  12.299  1.00  0.00     0.118 HD
ATOM     12  H   UNL     1      11.720  -8.575  13.534  1.00  0.00     0.118 HD
ENDBRANCH   9  10
ENDBRANCH   8   9
ENDBRANCH   7   8
ENDBRANCH   1   7
BRANCH   4  13
ATOM     13  N   UNL     1       5.895  -5.467  11.966  1.00  0.00    -0.362 N 
ATOM     14  H   UNL     1       4.893  -5.605  11.938  1.00  0.00     0.166 HD
BRANCH  13  15
ATOM     15  C   UNL     1       6.418  -4.502  11.146  1.00  0.00     0.083 C 
BRANCH  15  16
ATOM     16  C   UNL     1       5.798  -3.481  10.540  1.00  0.00     0.027 C 
BRANCH  16  17
ATOM     17  C   UNL     1       5.703  -3.409   9.074  1.00  0.00    -0.003 A 
ATOM     18  C   UNL     1       4.528  -3.011   8.413  1.00  0.00    -0.041 A 
ATOM     19  C   UNL     1       6.788  -3.778   8.264  1.00  0.00     0.119 A 
ATOM     20  C   UNL     1       4.516  -2.995   7.010  1.00  0.00     0.024 A 
ATOM     21  N   UNL     1       6.800  -3.751   6.911  1.00  0.00    -0.264 NA
ATOM     22  C   UNL     1       5.660  -3.355   6.315  1.00  0.00     0.111 A 
ATOM     23  C   UNL     1       3.274  -2.641   9.154  1.00  0.00     0.045 C 
ENDBRANCH  16  17
ENDBRANCH  15  16
ENDBRANCH  13  15
ENDBRANCH   4  13
TORSDOF 8
ENDMDL
MODEL 5
REMARK VINA RESULT:    -4.795      2.205      8.569
REMARK INTER + INTRA:          -7.491
REMARK INTER:                  -6.848
REMARK INTRA:                  -0.643
REMARK UNBOUND:                -0.593
REMARK SMILES Cc1ccncc1/C=C/Nc1ccc(CCCN)cc1
REMARK SMILES IDX 14 1 13 2 12 3 11 4 20 5 19 6 15 7 16 8 17 9 18 10 10 13
REMARK SMILES IDX 9 15 8 16 7 17 2 18 6 19 3 20 5 21 4 22 1 23
REMARK H PARENT 18 11 18 12 10 14
ROOT
ATOM      1  C   UNL     1      10.082   0.403  14.075  1.00  0.00    -0.048 A 
ATOM      2  C   UNL     1       9.058   0.946  13.296  1.00  0.00     0.006 A 
ATOM      3  C   UNL     1       8.418   0.177  12.328  1.00  0.00     0.026 A 
ATOM      4  C   UNL     1       8.823  -1.130  12.046  1.00  0.00     0.038 A 
ATOM      5  C   UNL     1       9.887  -1.657  12.787  1.00  0.00     0.026 A 
ATOM      6  C   UNL     1      10.511  -0.899  13.790  1.00  0.00     0.006 A 
ENDROOT
BRANCH   1   7
ATOM      7  C   UNL     1      10.714   1.193  15.193  1.00  0.00     0.037 C 
BRANCH   7   8
ATOM      8  C   UNL     1       9.834   2.263  15.867  1.00  0.00     0.020 C 
BRANCH   8   9
ATOM      9  C   UNL     1       9.042   1.805  17.100  1.00  0.00     0.078 C 
BRANCH   9  10
ATOM     10  N   UNL     1       7.896   0.954  16.814  1.00  0.00    -0.330 NA
ATOM     11  H   UNL     1       7.746   0.898  15.807  1.00  0.00     0.118 HD
ATOM     12  H   UNL     1       7.045   1.370  17.194  1.00  0.00     0.118 HD
ENDBRANCH   9  10
ENDBRANCH   8   9
ENDBRANCH   7   8
ENDBRANCH   1   7
BRANCH   4  13
ATOM     13  N   UNL     1       8.260  -1.872  10.989  1.00  0.00    -0.362 N 
ATOM     14  H   UNL     1       8.330  -1.468  10.064  1.00  0.00     0.166 HD
BRANCH  13  15
ATOM     15  C   UNL     1       7.420  -2.943  11.145  1.00  0.00     0.083 C 
BRANCH  15  16
ATOM     16  C   UNL     1       6.250  -3.194  10.544  1.00  0.00     0.027 C 
BRANCH  16  17
ATOM     17  C   UNL     1       6.170  -3.406   9.091  1.00  0.00    -0.003 A 
ATOM     18  C   UNL     1       4.967  -3.276   8.375  1.00  0.00    -0.041 A 
ATOM     19  C   UNL     1       7.302  -3.789   8.356  1.00  0.00     0.119 A 
ATOM     20  C   UNL     1       4.975  -3.520   6.993  1.00  0.00     0.024 A 
ATOM     21  N   UNL     1       7.332  -4.011   7.021  1.00  0.00    -0.264 NA
ATOM     22  C   UNL     1       6.164  -3.867   6.370  1.00  0.00     0.111 A 
ATOM     23  C   UNL     1       3.667  -2.924   9.042  1.00  0.00     0.045 C 
ENDBRANCH  16  17
ENDBRANCH  15  16
ENDBRANCH  13  15
ENDBRANCH   4  13
TORSDOF 8
ENDMDL
MODEL 6
REMARK VINA RESULT:    -4.790      4.250      5.480
REMARK INTER + INTRA:          -7.483
REMARK INTER:                  -6.959
REMARK INTRA:                  -0.525
REMARK UNBOUND:                -0.593
REMARK SMILES Cc1ccncc1/C=C/Nc1ccc(CCCN)cc1
REMARK SMILES IDX 14 1 13 2 12 3 11 4 20 5 19 6 15 7 16 8 17 9 18 10 10 13
REMARK SMILES IDX 9 15 8 16 7 17 2 18 6 19 3 20 5 21 4 22 1 23
REMARK H PARENT 18 11 18 12 10 14
ROOT
ATOM      1  C   UNL     1       4.248  -2.719   8.450  1.00  0.00    -0.048 A 
ATOM      2  C   UNL     1       3.847  -2.776   9.786  1.00  0.00     0.006 A 
ATOM      3  C   UNL     1       4.711  -3.249  10.769  1.00  0.00     0.026 A 
ATOM      4  C   UNL     1       5.974  -3.756  10.450  1.00  0.00     0.038 A 
ATOM      5  C   UNL     1       6.356  -3.753   9.104  1.00  0.00     0.026 A 
ATOM      6  C   UNL     1       5.503  -3.241   8.114  1.00  0.00     0.006 A 
ENDROOT
BRANCH   1   7
ATOM      7  C   UNL     1       3.359  -2.115   7.393  1.00  0.00     0.037 C 
BRANCH   7   8
ATOM      8  C   UNL     1       2.566  -3.099   6.511  1.00  0.00     0.020 C 
BRANCH   8   9
ATOM      9  C   UNL     1       1.724  -4.144   7.257  1.00  0.00     0.078 C 
BRANCH   9  10
ATOM     10  N   UNL     1       0.384  -3.708   7.622  1.00  0.00    -0.330 NA
ATOM     11  H   UNL     1      -0.251  -3.834   6.834  1.00  0.00     0.118 HD
ATOM     12  H   UNL     1       0.381  -2.706   7.818  1.00  0.00     0.118 HD
ENDBRANCH   9  10
ENDBRANCH   8   9
ENDBRANCH   7   8
ENDBRANCH   1   7
BRANCH   4  13
ATOM     13  N   UNL     1       6.806  -4.345  11.421  1.00  0.00    -0.362 N 
ATOM     14  H   UNL     1       7.589  -3.792  11.745  1.00  0.00     0.166 HD
BRANCH  13  15
ATOM     15  C   UNL     1       6.791  -5.672  11.763  1.00  0.00     0.083 C 
BRANCH  15  16
ATOM     16  C   UNL     1       6.617  -6.233  12.967  1.00  0.00     0.027 C 
BRANCH  16  17
ATOM     17  C   UNL     1       7.454  -7.357  13.412  1.00  0.00    -0.003 A 
ATOM     18  C   UNL     1       8.000  -7.425  14.706  1.00  0.00    -0.041 A 
ATOM     19  C   UNL     1       7.777  -8.405  12.536  1.00  0.00     0.119 A 
ATOM     20  C   UNL     1       8.809  -8.522  15.040  1.00  0.00     0.024 A 
ATOM     21  N   UNL     1       8.540  -9.479  12.847  1.00  0.00    -0.264 NA
ATOM     22  C   UNL     1       9.036  -9.512  14.097  1.00  0.00     0.111 A 
ATOM     23  C   UNL     1       7.781  -6.346  15.729  1.00  0.00     0.045 C 
ENDBRANCH  16  17
ENDBRANCH  15  16
ENDBRANCH  13  15
ENDBRANCH   4  13
TORSDOF 8
ENDMDL
MODEL 7
REMARK VINA RESULT:    -4.775      2.013      2.534
REMARK INTER + INTRA:          -7.461
REMARK INTER:                  -6.842
REMARK INTRA:                  -0.619
REMARK UNBOUND:                -0.593
REMARK SMILES Cc1ccncc1/C=C/Nc1ccc(CCCN)cc1
REMARK SMILES IDX 14 1 13 2 12 3 11 4 20 5 19 6 15 7 16 8 17 9 18 10 10 13
REMARK SMILES IDX 9 15 8 16 7 17 2 18 6 19 3 20 5 21 4 22 1 23
REMARK H PARENT 18 11 18 12 10 14
ROOT
ATOM      1  C   UNL     1       5.217  -3.646   7.655  1.00  0.00    -0.048 A 
ATOM      2  C   UNL     1       6.608  -3.766   7.678  1.00  0.00     0.006 A 
ATOM      3  C   UNL     1       7.314  -3.620   8.869  1.00  0.00     0.026 A 
ATOM      4  C   UNL     1       6.675  -3.272  10.061  1.00  0.00     0.038 A 
ATOM      5  C   UNL     1       5.286  -3.096  10.028  1.00  0.00     0.026 A 
ATOM      6  C   UNL     1       4.565  -3.280   8.839  1.00  0.00     0.006 A 
ENDROOT
BRANCH   1   7
ATOM      7  C   UNL     1       4.432  -3.902   6.393  1.00  0.00     0.037 C 
BRANCH   7   8
ATOM      8  C   UNL     1       3.820  -2.671   5.698  1.00  0.00     0.020 C 
BRANCH   8   9
ATOM      9  C   UNL     1       4.818  -1.636   5.158  1.00  0.00     0.078 C 
BRANCH   9  10
ATOM     10  N   UNL     1       5.576  -2.063   3.991  1.00  0.00    -0.330 NA
ATOM     11  H   UNL     1       5.492  -1.371   3.247  1.00  0.00     0.118 HD
ATOM     12  H   UNL     1       5.181  -2.923   3.610  1.00  0.00     0.118 HD
ENDBRANCH   9  10
ENDBRANCH   8   9
ENDBRANCH   7   8
ENDBRANCH   1   7
BRANCH   4  13
ATOM     13  N   UNL     1       7.395  -3.006  11.242  1.00  0.00    -0.362 N 
ATOM     14  H   UNL     1       7.323  -3.693  11.982  1.00  0.00     0.166 HD
BRANCH  13  15
ATOM     15  C   UNL     1       7.959  -1.799  11.559  1.00  0.00     0.083 C 
BRANCH  15  16
ATOM     16  C   UNL     1       9.235  -1.512  11.849  1.00  0.00     0.027 C 
BRANCH  16  17
ATOM     17  C   UNL     1       9.578  -0.570  12.925  1.00  0.00    -0.003 A 
ATOM     18  C   UNL     1      10.703  -0.745  13.750  1.00  0.00    -0.041 A 
ATOM     19  C   UNL     1       8.763   0.539  13.198  1.00  0.00     0.119 A 
ATOM     20  C   UNL     1      10.943   0.189  14.769  1.00  0.00     0.024 A 
ATOM     21  N   UNL     1       8.990   1.459  14.164  1.00  0.00    -0.264 NA
ATOM     22  C   UNL     1      10.080   1.262  14.926  1.00  0.00     0.111 A 
ATOM     23  C   UNL     1      11.633  -1.917  13.605  1.00  0.00     0.045 C 
ENDBRANCH  16  17
ENDBRANCH  15  16
ENDBRANCH  13  15
ENDBRANCH   4  13
TORSDOF 8
ENDMDL
MODEL 8
REMARK VINA RESULT:    -4.764      4.613      5.857
REMARK INTER + INTRA:          -7.446
REMARK INTER:                  -6.885
REMARK INTRA:                  -0.562
REMARK UNBOUND:                -0.593
REMARK SMILES Cc1ccncc1/C=C/Nc1ccc(CCCN)cc1
REMARK SMILES IDX 14 1 13 2 12 3 11 4 20 5 19 6 15 7 16 8 17 9 18 10 10 13
REMARK SMILES IDX 9 15 8 16 7 17 2 18 6 19 3 20 5 21 4 22 1 23
REMARK H PARENT 18 11 18 12 10 14
ROOT
ATOM      1  C   UNL     1       5.088  -2.722   8.388  1.00  0.00    -0.048 A 
ATOM      2  C   UNL     1       4.401  -2.866   9.595  1.00  0.00     0.006 A 
ATOM      3  C   UNL     1       5.018  -3.448  10.699  1.00  0.00     0.026 A 
ATOM      4  C   UNL     1       6.309  -3.977  10.622  1.00  0.00     0.038 A 
ATOM      5  C   UNL     1       6.978  -3.884   9.396  1.00  0.00     0.026 A 
ATOM      6  C   UNL     1       6.376  -3.264   8.291  1.00  0.00     0.006 A 
ENDROOT
BRANCH   1   7
ATOM      7  C   UNL     1       4.467  -2.004   7.217  1.00  0.00     0.037 C 
BRANCH   7   8
ATOM      8  C   UNL     1       4.764  -2.576   5.817  1.00  0.00     0.020 C 
BRANCH   8   9
ATOM      9  C   UNL     1       5.410  -1.606   4.817  1.00  0.00     0.078 C 
BRANCH   9  10
ATOM     10  N   UNL     1       4.475  -0.761   4.087  1.00  0.00    -0.330 NA
ATOM     11  H   UNL     1       4.862  -0.519   3.176  1.00  0.00     0.118 HD
ATOM     12  H   UNL     1       4.348   0.126   4.575  1.00  0.00     0.118 HD
ENDBRANCH   9  10
ENDBRANCH   8   9
ENDBRANCH   7   8
ENDBRANCH   1   7
BRANCH   4  13
ATOM     13  N   UNL     1       6.893  -4.672  11.698  1.00  0.00    -0.362 N 
ATOM     14  H   UNL     1       7.587  -4.171  12.239  1.00  0.00     0.166 HD
BRANCH  13  15
ATOM     15  C   UNL     1       6.792  -6.022  11.905  1.00  0.00     0.083 C 
BRANCH  15  16
ATOM     16  C   UNL     1       6.628  -6.691  13.054  1.00  0.00     0.027 C 
BRANCH  16  17
ATOM     17  C   UNL     1       7.632  -7.660  13.521  1.00  0.00    -0.003 A 
ATOM     18  C   UNL     1       8.231  -7.573  14.790  1.00  0.00    -0.041 A 
ATOM     19  C   UNL     1       8.065  -8.704  12.690  1.00  0.00     0.119 A 
ATOM     20  C   UNL     1       9.197  -8.525  15.146  1.00  0.00     0.024 A 
ATOM     21  N   UNL     1       8.983  -9.641  13.024  1.00  0.00    -0.264 NA
ATOM     22  C   UNL     1       9.526  -9.530  14.249  1.00  0.00     0.111 A 
ATOM     23  C   UNL     1       7.900  -6.475  15.762  1.00  0.00     0.045 C 
ENDBRANCH  16  17
ENDBRANCH  15  16
ENDBRANCH  13  15
ENDBRANCH   4  13
TORSDOF 8
ENDMDL
MODEL 9
REMARK VINA RESULT:    -4.607      6.777      7.770
REMARK INTER + INTRA:          -7.220
REMARK INTER:                  -6.016
REMARK INTRA:                  -1.204
REMARK UNBOUND:                -0.593
REMARK SMILES Cc1ccncc1/C=C/Nc1ccc(CCCN)cc1
REMARK SMILES IDX 14 1 13 2 12 3 11 4 20 5 19 6 15 7 16 8 17 9 18 10 10 13
REMARK SMILES IDX 9 15 8 16 7 17 2 18 6 19 3 20 5 21 4 22 1 23
REMARK H PARENT 18 11 18 12 10 14
ROOT
ATOM      1  C   UNL     1       8.699  -4.923  16.859  1.00  0.00    -0.048 A 
ATOM      2  C   UNL     1       8.980  -4.416  18.130  1.00  0.00     0.006 A 
ATOM      3  C   UNL     1       9.979  -3.464  18.310  1.00  0.00     0.026 A 
ATOM      4  C   UNL     1      10.786  -3.040  17.250  1.00  0.00     0.038 A 
ATOM      5  C   UNL     1      10.542  -3.590  15.986  1.00  0.00     0.026 A 
ATOM      6  C   UNL     1       9.510  -4.521  15.792  1.00  0.00     0.006 A 
ENDROOT
BRANCH   1   7
ATOM      7  C   UNL     1       7.553  -5.877  16.636  1.00  0.00     0.037 C 
BRANCH   7   8
ATOM      8  C   UNL     1       6.756  -6.306  17.883  1.00  0.00     0.020 C 
BRANCH   8   9
ATOM      9  C   UNL     1       5.260  -6.579  17.666  1.00  0.00     0.078 C 
BRANCH   9  10
ATOM     10  N   UNL     1       4.370  -5.903  18.598  1.00  0.00    -0.330 NA
ATOM     11  H   UNL     1       3.788  -5.231  18.100  1.00  0.00     0.118 HD
ATOM     12  H   UNL     1       4.911  -5.354  19.266  1.00  0.00     0.118 HD
ENDBRANCH   9  10
ENDBRANCH   8   9
ENDBRANCH   7   8
ENDBRANCH   1   7
BRANCH   4  13
ATOM     13  N   UNL     1      11.874  -2.169  17.446  1.00  0.00    -0.362 N 
ATOM     14  H   UNL     1      12.797  -2.584  17.426  1.00  0.00     0.166 HD
BRANCH  13  15
ATOM     15  C   UNL     1      11.774  -0.883  17.909  1.00  0.00     0.083 C 
BRANCH  15  16
ATOM     16  C   UNL     1      11.721   0.263  17.217  1.00  0.00     0.027 C 
BRANCH  16  17
ATOM     17  C   UNL     1      10.488   0.683  16.534  1.00  0.00    -0.003 A 
ATOM     18  C   UNL     1      10.303   0.528  15.148  1.00  0.00    -0.041 A 
ATOM     19  C   UNL     1       9.447   1.300  17.243  1.00  0.00     0.119 A 
ATOM     20  C   UNL     1       9.105   0.979  14.574  1.00  0.00     0.024 A 
ATOM     21  N   UNL     1       8.278   1.725  16.708  1.00  0.00    -0.264 NA
ATOM     22  C   UNL     1       8.135   1.550  15.382  1.00  0.00     0.111 A 
ATOM     23  C   UNL     1      11.357  -0.068  14.258  1.00  0.00     0.045 C 
ENDBRANCH  16  17
ENDBRANCH  15  16
ENDBRANCH  13  15
ENDBRANCH   4  13
TORSDOF 8
ENDMDL
