MODEL 1
REMARK VINA RESULT:    -4.628      0.000      0.000
REMARK INTER + INTRA:          -7.218
REMARK INTER:                  -6.658
REMARK INTRA:                  -0.560
REMARK UNBOUND:                -0.560
REMARK SMILES Cc1ccncc1/C=C/Nc1ccc(CCCN)cc1
REMARK SMILES IDX 14 1 13 2 12 3 11 4 20 5 19 6 15 7 16 8 17 9 18 10 10 13
REMARK SMILES IDX 9 15 8 16 7 17 2 18 6 19 3 20 5 21 4 22 1 23
REMARK H PARENT 18 11 18 12 10 14
ROOT
ATOM      1  C   UNL     1       2.508  -4.447  16.136  1.00  0.00    -0.048 A 
ATOM      2  C   UNL     1       2.953  -3.129  16.263  1.00  0.00     0.006 A 
ATOM      3  C   UNL     1       3.059  -2.304  15.148  1.00  0.00     0.026 A 
ATOM      4  C   UNL     1       2.802  -2.779  13.859  1.00  0.00     0.038 A 
ATOM      5  C   UNL     1       2.411  -4.116  13.723  1.00  0.00     0.026 A 
ATOM      6  C   UNL     1       2.265  -4.942  14.848  1.00  0.00     0.006 A 
ENDROOT
BRANCH   1   7
ATOM      7  C   UNL     1       2.292  -5.319  17.347  1.00  0.00     0.037 C 
BRANCH   7   8
ATOM      8  C   UNL     1       1.379  -6.546  17.163  1.00  0.00     0.020 C 
BRANCH   8   9
ATOM      9  C   UNL     1       0.042  -6.510  17.918  1.00  0.00     0.078 C 
BRANCH   9  10
ATOM     10  N   UNL     1      -1.143  -6.511  17.071  1.00  0.00    -0.330 NA
ATOM     11  H   UNL     1      -1.188  -7.376  16.536  1.00  0.00     0.118 HD
ATOM     12  H   UNL     1      -1.082  -5.764  16.379  1.00  0.00     0.118 HD
ENDBRANCH   9  10
ENDBRANCH   8   9
ENDBRANCH   7   8
ENDBRANCH   1   7
BRANCH   4  13
ATOM     13  N   UNL     1       3.022  -1.986  12.716  1.00  0.00    -0.362 N 
ATOM     14  H   UNL     1       2.258  -1.389  12.424  1.00  0.00     0.166 HD
BRANCH  13  15
ATOM     15  C   UNL     1       4.063  -2.146  11.841  1.00  0.00     0.083 C 
BRANCH  15  16
ATOM     16  C   UNL     1       4.630  -1.246  11.027  1.00  0.00     0.027 C 
BRANCH  16  17
ATOM     17  C   UNL     1       3.879  -0.648   9.912  1.00  0.00    -0.003 A 
ATOM     18  C   UNL     1       3.923  -1.171   8.607  1.00  0.00    -0.041 A 
ATOM     19  C   UNL     1       3.107   0.508  10.102  1.00  0.00     0.119 A 
ATOM     20  C   UNL     1       3.194  -0.524   7.597  1.00  0.00     0.024 A 
ATOM     21  N   UNL     1       2.385   1.134   9.143  1.00  0.00    -0.264 NA
ATOM     22  C   UNL     1       2.444   0.598   7.911  1.00  0.00     0.111 A 
ATOM     23  C   UNL     1       4.751  -2.373   8.250  1.00  0.00     0.045 C 
ENDBRANCH  16  17
ENDBRANCH  15  16
ENDBRANCH  13  15
ENDBRANCH   4  13
TORSDOF 8
ENDMDL
MODEL 2
REMARK VINA RESULT:    -4.593      5.725      8.584
REMARK INTER + INTRA:          -7.167
REMARK INTER:                  -6.597
REMARK INTRA:                  -0.570
REMARK UNBOUND:                -0.560
REMARK SMILES Cc1ccncc1/C=C/Nc1ccc(CCCN)cc1
REMARK SMILES IDX 14 1 13 2 12 3 11 4 20 5 19 6 15 7 16 8 17 9 18 10 10 13
REMARK SMILES IDX 9 15 8 16 7 17 2 18 6 19 3 20 5 21 4 22 1 23
REMARK H PARENT 18 11 18 12 10 14
ROOT
ATOM      1  C   UNL     1       3.490  -1.745   8.274  1.00  0.00    -0.048 A 
ATOM      2  C   UNL     1       4.614  -2.568   8.360  1.00  0.00     0.006 A 
ATOM      3  C   UNL     1       5.515  -2.433   9.412  1.00  0.00     0.026 A 
ATOM      4  C   UNL     1       5.375  -1.427  10.372  1.00  0.00     0.038 A 
ATOM      5  C   UNL     1       4.279  -0.564  10.255  1.00  0.00     0.026 A 
ATOM      6  C   UNL     1       3.346  -0.720   9.218  1.00  0.00     0.006 A 
ENDROOT
BRANCH   1   7
ATOM      7  C   UNL     1       2.454  -1.947   7.197  1.00  0.00     0.037 C 
BRANCH   7   8
ATOM      8  C   UNL     1       1.894  -0.677   6.528  1.00  0.00     0.020 C 
BRANCH   8   9
ATOM      9  C   UNL     1       0.384  -0.676   6.244  1.00  0.00     0.078 C 
BRANCH   9  10
ATOM     10  N   UNL     1      -0.020  -1.425   5.063  1.00  0.00    -0.330 NA
ATOM     11  H   UNL     1      -0.982  -1.746   5.166  1.00  0.00     0.118 HD
ATOM     12  H   UNL     1       0.543  -2.271   4.973  1.00  0.00     0.118 HD
ENDBRANCH   9  10
ENDBRANCH   8   9
ENDBRANCH   7   8
ENDBRANCH   1   7
BRANCH   4  13
ATOM     13  N   UNL     1       6.345  -1.209  11.369  1.00  0.00    -0.362 N 
ATOM     14  H   UNL     1       6.008  -1.133  12.321  1.00  0.00     0.166 HD
BRANCH  13  15
ATOM     15  C   UNL     1       7.643  -0.841  11.131  1.00  0.00     0.083 C 
BRANCH  15  16
ATOM     16  C   UNL     1       8.351   0.158  11.673  1.00  0.00     0.027 C 
BRANCH  16  17
ATOM     17  C   UNL     1       9.210  -0.065  12.846  1.00  0.00    -0.003 A 
ATOM     18  C   UNL     1       9.974   0.962  13.427  1.00  0.00    -0.041 A 
ATOM     19  C   UNL     1       9.330  -1.341  13.417  1.00  0.00     0.119 A 
ATOM     20  C   UNL     1      10.785   0.656  14.531  1.00  0.00     0.024 A 
ATOM     21  N   UNL     1      10.094  -1.649  14.491  1.00  0.00    -0.264 NA
ATOM     22  C   UNL     1      10.802  -0.639  15.025  1.00  0.00     0.111 A 
ATOM     23  C   UNL     1       9.983   2.364  12.886  1.00  0.00     0.045 C 
ENDBRANCH  16  17
ENDBRANCH  15  16
ENDBRANCH  13  15
ENDBRANCH   4  13
TORSDOF 8
ENDMDL
MODEL 3
REMARK VINA RESULT:    -4.579      5.651      8.436
REMARK INTER + INTRA:          -7.147
REMARK INTER:                  -6.608
REMARK INTRA:                  -0.539
REMARK UNBOUND:                -0.560
REMARK SMILES Cc1ccncc1/C=C/Nc1ccc(CCCN)cc1
REMARK SMILES IDX 14 1 13 2 12 3 11 4 20 5 19 6 15 7 16 8 17 9 18 10 10 13
REMARK SMILES IDX 9 15 8 16 7 17 2 18 6 19 3 20 5 21 4 22 1 23
REMARK H PARENT 18 11 18 12 10 14
ROOT
ATOM      1  C   UNL     1       3.456  -1.642   8.063  1.00  0.00    -0.048 A 
ATOM      2  C   UNL     1       4.550  -2.500   8.198  1.00  0.00     0.006 A 
ATOM      3  C   UNL     1       5.368  -2.435   9.322  1.00  0.00     0.026 A 
ATOM      4  C   UNL     1       5.177  -1.469  10.313  1.00  0.00     0.038 A 
ATOM      5  C   UNL     1       4.114  -0.572  10.151  1.00  0.00     0.026 A 
ATOM      6  C   UNL     1       3.263  -0.657   9.038  1.00  0.00     0.006 A 
ENDROOT
BRANCH   1   7
ATOM      7  C   UNL     1       2.504  -1.769   6.900  1.00  0.00     0.037 C 
BRANCH   7   8
ATOM      8  C   UNL     1       1.729  -0.499   6.499  1.00  0.00     0.020 C 
BRANCH   8   9
ATOM      9  C   UNL     1       0.232  -0.687   6.208  1.00  0.00     0.078 C 
BRANCH   9  10
ATOM     10  N   UNL     1      -0.069  -1.471   5.018  1.00  0.00    -0.330 NA
ATOM     11  H   UNL     1       0.588  -1.242   4.274  1.00  0.00     0.118 HD
ATOM     12  H   UNL     1      -0.990  -1.221   4.657  1.00  0.00     0.118 HD
ENDBRANCH   9  10
ENDBRANCH   8   9
ENDBRANCH   7   8
ENDBRANCH   1   7
BRANCH   4  13
ATOM     13  N   UNL     1       6.070  -1.321  11.391  1.00  0.00    -0.362 N 
ATOM     14  H   UNL     1       5.696  -1.485  12.317  1.00  0.00     0.166 HD
BRANCH  13  15
ATOM     15  C   UNL     1       7.306  -0.736  11.309  1.00  0.00     0.083 C 
BRANCH  15  16
ATOM     16  C   UNL     1       8.418  -1.005  12.006  1.00  0.00     0.027 C 
BRANCH  16  17
ATOM     17  C   UNL     1       9.188   0.065  12.657  1.00  0.00    -0.003 A 
ATOM     18  C   UNL     1       9.920  -0.144  13.839  1.00  0.00    -0.041 A 
ATOM     19  C   UNL     1       9.190   1.368  12.136  1.00  0.00     0.119 A 
ATOM     20  C   UNL     1      10.607   0.940  14.406  1.00  0.00     0.024 A 
ATOM     21  N   UNL     1       9.862   2.420  12.661  1.00  0.00    -0.264 NA
ATOM     22  C   UNL     1      10.558   2.178  13.785  1.00  0.00     0.111 A 
ATOM     23  C   UNL     1       9.961  -1.475  14.534  1.00  0.00     0.045 C 
ENDBRANCH  16  17
ENDBRANCH  15  16
ENDBRANCH  13  15
ENDBRANCH   4  13
TORSDOF 8
ENDMDL
MODEL 4
REMARK VINA RESULT:    -4.575      2.346      8.972
REMARK INTER + INTRA:          -7.141
REMARK INTER:                  -6.600
REMARK INTRA:                  -0.540
REMARK UNBOUND:                -0.560
REMARK SMILES Cc1ccncc1/C=C/Nc1ccc(CCCN)cc1
REMARK SMILES IDX 14 1 13 2 12 3 11 4 20 5 19 6 15 7 16 8 17 9 18 10 10 13
REMARK SMILES IDX 9 15 8 16 7 17 2 18 6 19 3 20 5 21 4 22 1 23
REMARK H PARENT 18 11 18 12 10 14
ROOT
ATOM      1  C   UNL     1       4.446  -1.535   7.738  1.00  0.00    -0.048 A 
ATOM      2  C   UNL     1       3.674  -0.677   8.524  1.00  0.00     0.006 A 
ATOM      3  C   UNL     1       3.721  -0.751   9.913  1.00  0.00     0.026 A 
ATOM      4  C   UNL     1       4.474  -1.727  10.569  1.00  0.00     0.038 A 
ATOM      5  C   UNL     1       5.206  -2.624   9.781  1.00  0.00     0.026 A 
ATOM      6  C   UNL     1       5.192  -2.530   8.381  1.00  0.00     0.006 A 
ENDROOT
BRANCH   1   7
ATOM      7  C   UNL     1       4.481  -1.398   6.236  1.00  0.00     0.037 C 
BRANCH   7   8
ATOM      8  C   UNL     1       4.873  -2.655   5.436  1.00  0.00     0.020 C 
BRANCH   8   9
ATOM      9  C   UNL     1       5.753  -2.420   4.200  1.00  0.00     0.078 C 
BRANCH   9  10
ATOM     10  N   UNL     1       5.167  -1.559   3.182  1.00  0.00    -0.330 NA
ATOM     11  H   UNL     1       5.709  -0.701   3.096  1.00  0.00     0.118 HD
ATOM     12  H   UNL     1       4.232  -1.265   3.466  1.00  0.00     0.118 HD
ENDBRANCH   9  10
ENDBRANCH   8   9
ENDBRANCH   7   8
ENDBRANCH   1   7
BRANCH   4  13
ATOM     13  N   UNL     1       4.434  -1.884  11.968  1.00  0.00    -0.362 N 
ATOM     14  H   UNL     1       5.312  -1.784  12.462  1.00  0.00     0.166 HD
BRANCH  13  15
ATOM     15  C   UNL     1       3.377  -2.405  12.666  1.00  0.00     0.083 C 
BRANCH  15  16
ATOM     16  C   UNL     1       2.972  -2.135  13.914  1.00  0.00     0.027 C 
BRANCH  16  17
ATOM     17  C   UNL     1       2.763  -3.208  14.897  1.00  0.00    -0.003 A 
ATOM     18  C   UNL     1       2.936  -3.011  16.278  1.00  0.00    -0.041 A 
ATOM     19  C   UNL     1       2.414  -4.503  14.485  1.00  0.00     0.119 A 
ATOM     20  C   UNL     1       2.740  -4.097  17.145  1.00  0.00     0.024 A 
ATOM     21  N   UNL     1       2.203  -5.557  15.308  1.00  0.00    -0.264 NA
ATOM     22  C   UNL     1       2.369  -5.326  16.622  1.00  0.00     0.111 A 
ATOM     23  C   UNL     1       3.361  -1.689  16.855  1.00  0.00     0.045 C 
ENDBRANCH  16  17
ENDBRANCH  15  16
ENDBRANCH  13  15
ENDBRANCH   4  13
TORSDOF 8
ENDMDL
MODEL 5
REMARK VINA RESULT:    -4.527      5.756      7.545
REMARK INTER + INTRA:          -7.073
REMARK INTER:                  -6.393
REMARK INTRA:                  -0.679
REMARK UNBOUND:                -0.560
REMARK SMILES Cc1ccncc1/C=C/Nc1ccc(CCCN)cc1
REMARK SMILES IDX 14 1 13 2 12 3 11 4 20 5 19 6 15 7 16 8 17 9 18 10 10 13
REMARK SMILES IDX 9 15 8 16 7 17 2 18 6 19 3 20 5 21 4 22 1 23
REMARK H PARENT 18 11 18 12 10 14
ROOT
ATOM      1  C   UNL     1       9.536   1.210  12.859  1.00  0.00    -0.048 A 
ATOM      2  C   UNL     1       9.417  -0.096  13.337  1.00  0.00     0.006 A 
ATOM      3  C   UNL     1       8.734  -1.062  12.604  1.00  0.00     0.026 A 
ATOM      4  C   UNL     1       8.080  -0.749  11.411  1.00  0.00     0.038 A 
ATOM      5  C   UNL     1       8.150   0.574  10.958  1.00  0.00     0.026 A 
ATOM      6  C   UNL     1       8.869   1.544  11.673  1.00  0.00     0.006 A 
ENDROOT
BRANCH   1   7
ATOM      7  C   UNL     1      10.358   2.239  13.593  1.00  0.00     0.037 C 
BRANCH   7   8
ATOM      8  C   UNL     1       9.741   3.644  13.736  1.00  0.00     0.020 C 
BRANCH   8   9
ATOM      9  C   UNL     1       9.157   3.986  15.114  1.00  0.00     0.078 C 
BRANCH   9  10
ATOM     10  N   UNL     1       7.757   3.631  15.295  1.00  0.00    -0.330 NA
ATOM     11  H   UNL     1       7.193   4.474  15.393  1.00  0.00     0.118 HD
ATOM     12  H   UNL     1       7.634   3.116  16.167  1.00  0.00     0.118 HD
ENDBRANCH   9  10
ENDBRANCH   8   9
ENDBRANCH   7   8
ENDBRANCH   1   7
BRANCH   4  13
ATOM     13  N   UNL     1       7.288  -1.690  10.726  1.00  0.00    -0.362 N 
ATOM     14  H   UNL     1       7.780  -2.382  10.174  1.00  0.00     0.166 HD
BRANCH  13  15
ATOM     15  C   UNL     1       5.934  -1.589  10.543  1.00  0.00     0.083 C 
BRANCH  15  16
ATOM     16  C   UNL     1       5.147  -2.243   9.678  1.00  0.00     0.027 C 
BRANCH  16  17
ATOM     17  C   UNL     1       4.224  -1.518   8.791  1.00  0.00    -0.003 A 
ATOM     18  C   UNL     1       3.972  -1.927   7.469  1.00  0.00    -0.041 A 
ATOM     19  C   UNL     1       3.578  -0.351   9.224  1.00  0.00     0.119 A 
ATOM     20  C   UNL     1       3.095  -1.164   6.684  1.00  0.00     0.024 A 
ATOM     21  N   UNL     1       2.716   0.387   8.486  1.00  0.00    -0.264 NA
ATOM     22  C   UNL     1       2.493  -0.041   7.230  1.00  0.00     0.111 A 
ATOM     23  C   UNL     1       4.637  -3.128   6.858  1.00  0.00     0.045 C 
ENDBRANCH  16  17
ENDBRANCH  15  16
ENDBRANCH  13  15
ENDBRANCH   4  13
TORSDOF 8
ENDMDL
MODEL 6
REMARK VINA RESULT:    -4.515      5.767      8.887
REMARK INTER + INTRA:          -7.055
REMARK INTER:                  -6.448
REMARK INTRA:                  -0.607
REMARK UNBOUND:                -0.560
REMARK SMILES Cc1ccncc1/C=C/Nc1ccc(CCCN)cc1
REMARK SMILES IDX 14 1 13 2 12 3 11 4 20 5 19 6 15 7 16 8 17 9 18 10 10 13
REMARK SMILES IDX 9 15 8 16 7 17 2 18 6 19 3 20 5 21 4 22 1 23
REMARK H PARENT 18 11 18 12 10 14
ROOT
ATOM      1  C   UNL     1       3.878  -2.376   7.129  1.00  0.00    -0.048 A 
ATOM      2  C   UNL     1       4.896  -3.215   7.585  1.00  0.00     0.006 A 
ATOM      3  C   UNL     1       5.441  -3.046   8.854  1.00  0.00     0.026 A 
ATOM      4  C   UNL     1       5.051  -1.992   9.684  1.00  0.00     0.038 A 
ATOM      5  C   UNL     1       4.070  -1.115   9.205  1.00  0.00     0.026 A 
ATOM      6  C   UNL     1       3.490  -1.304   7.941  1.00  0.00     0.006 A 
ENDROOT
BRANCH   1   7
ATOM      7  C   UNL     1       3.210  -2.612   5.797  1.00  0.00     0.037 C 
BRANCH   7   8
ATOM      8  C   UNL     1       3.634  -1.689   4.638  1.00  0.00     0.020 C 
BRANCH   8   9
ATOM      9  C   UNL     1       5.102  -1.790   4.199  1.00  0.00     0.078 C 
BRANCH   9  10
ATOM     10  N   UNL     1       5.518  -3.106   3.737  1.00  0.00    -0.330 NA
ATOM     11  H   UNL     1       6.523  -3.115   3.568  1.00  0.00     0.118 HD
ATOM     12  H   UNL     1       5.087  -3.315   2.837  1.00  0.00     0.118 HD
ENDBRANCH   9  10
ENDBRANCH   8   9
ENDBRANCH   7   8
ENDBRANCH   1   7
BRANCH   4  13
ATOM     13  N   UNL     1       5.681  -1.743  10.918  1.00  0.00    -0.362 N 
ATOM     14  H   UNL     1       5.205  -2.077  11.747  1.00  0.00     0.166 HD
BRANCH  13  15
ATOM     15  C   UNL     1       6.729  -0.880  11.102  1.00  0.00     0.083 C 
BRANCH  15  16
ATOM     16  C   UNL     1       7.970  -1.138  11.534  1.00  0.00     0.027 C 
BRANCH  16  17
ATOM     17  C   UNL     1       8.778  -0.101  12.195  1.00  0.00    -0.003 A 
ATOM     18  C   UNL     1       9.495  -0.345  13.380  1.00  0.00    -0.041 A 
ATOM     19  C   UNL     1       8.834   1.203  11.681  1.00  0.00     0.119 A 
ATOM     20  C   UNL     1      10.220   0.708  13.957  1.00  0.00     0.024 A 
ATOM     21  N   UNL     1       9.543   2.225  12.215  1.00  0.00    -0.264 NA
ATOM     22  C   UNL     1      10.223   1.950  13.342  1.00  0.00     0.111 A 
ATOM     23  C   UNL     1       9.480  -1.680  14.069  1.00  0.00     0.045 C 
ENDBRANCH  16  17
ENDBRANCH  15  16
ENDBRANCH  13  15
ENDBRANCH   4  13
TORSDOF 8
ENDMDL
MODEL 7
REMARK VINA RESULT:    -4.490      1.515      2.415
REMARK INTER + INTRA:          -7.019
REMARK INTER:                  -6.433
REMARK INTRA:                  -0.586
REMARK UNBOUND:                -0.560
REMARK SMILES Cc1ccncc1/C=C/Nc1ccc(CCCN)cc1
REMARK SMILES IDX 14 1 13 2 12 3 11 4 20 5 19 6 15 7 16 8 17 9 18 10 10 13
REMARK SMILES IDX 9 15 8 16 7 17 2 18 6 19 3 20 5 21 4 22 1 23
REMARK H PARENT 18 11 18 12 10 14
ROOT
ATOM      1  C   UNL     1       2.558  -4.181  15.698  1.00  0.00    -0.048 A 
ATOM      2  C   UNL     1       2.272  -4.652  14.415  1.00  0.00     0.006 A 
ATOM      3  C   UNL     1       2.513  -3.859  13.297  1.00  0.00     0.026 A 
ATOM      4  C   UNL     1       2.973  -2.545  13.417  1.00  0.00     0.038 A 
ATOM      5  C   UNL     1       3.207  -2.052  14.706  1.00  0.00     0.026 A 
ATOM      6  C   UNL     1       3.002  -2.860  15.834  1.00  0.00     0.006 A 
ENDROOT
BRANCH   1   7
ATOM      7  C   UNL     1       2.397  -5.067  16.908  1.00  0.00     0.037 C 
BRANCH   7   8
ATOM      8  C   UNL     1       1.570  -6.353  16.719  1.00  0.00     0.020 C 
BRANCH   8   9
ATOM      9  C   UNL     1       0.369  -6.526  17.660  1.00  0.00     0.078 C 
BRANCH   9  10
ATOM     10  N   UNL     1      -0.934  -6.465  17.013  1.00  0.00    -0.330 NA
ATOM     11  H   UNL     1      -1.349  -7.395  16.975  1.00  0.00     0.118 HD
ATOM     12  H   UNL     1      -0.830  -6.172  16.041  1.00  0.00     0.118 HD
ENDBRANCH   9  10
ENDBRANCH   8   9
ENDBRANCH   7   8
ENDBRANCH   1   7
BRANCH   4  13
ATOM     13  N   UNL     1       3.105  -1.698  12.300  1.00  0.00    -0.362 N 
ATOM     14  H   UNL     1       2.290  -1.158  12.040  1.00  0.00     0.166 HD
BRANCH  13  15
ATOM     15  C   UNL     1       4.141  -1.742  11.403  1.00  0.00     0.083 C 
BRANCH  15  16
ATOM     16  C   UNL     1       4.286  -1.081  10.247  1.00  0.00     0.027 C 
BRANCH  16  17
ATOM     17  C   UNL     1       4.426  -1.799   8.971  1.00  0.00    -0.003 A 
ATOM     18  C   UNL     1       3.779  -1.380   7.795  1.00  0.00    -0.041 A 
ATOM     19  C   UNL     1       5.192  -2.972   8.886  1.00  0.00     0.119 A 
ATOM     20  C   UNL     1       3.947  -2.139   6.627  1.00  0.00     0.024 A 
ATOM     21  N   UNL     1       5.379  -3.705   7.763  1.00  0.00    -0.264 NA
ATOM     22  C   UNL     1       4.752  -3.266   6.657  1.00  0.00     0.111 A 
ATOM     23  C   UNL     1       2.885  -0.173   7.755  1.00  0.00     0.045 C 
ENDBRANCH  16  17
ENDBRANCH  15  16
ENDBRANCH  13  15
ENDBRANCH   4  13
TORSDOF 8
ENDMDL
MODEL 8
REMARK VINA RESULT:    -4.456      2.196      2.809
REMARK INTER + INTRA:          -6.971
REMARK INTER:                  -6.289
REMARK INTRA:                  -0.681
REMARK UNBOUND:                -0.560
REMARK SMILES Cc1ccncc1/C=C/Nc1ccc(CCCN)cc1
REMARK SMILES IDX 14 1 13 2 12 3 11 4 20 5 19 6 15 7 16 8 17 9 18 10 10 13
REMARK SMILES IDX 9 15 8 16 7 17 2 18 6 19 3 20 5 21 4 22 1 23
REMARK H PARENT 18 11 18 12 10 14
ROOT
ATOM      1  C   UNL     1       2.688  -4.302  15.343  1.00  0.00    -0.048 A 
ATOM      2  C   UNL     1       3.067  -2.980  15.584  1.00  0.00     0.006 A 
ATOM      3  C   UNL     1       3.089  -2.047  14.551  1.00  0.00     0.026 A 
ATOM      4  C   UNL     1       2.813  -2.411  13.231  1.00  0.00     0.038 A 
ATOM      5  C   UNL     1       2.489  -3.749  12.978  1.00  0.00     0.026 A 
ATOM      6  C   UNL     1       2.427  -4.685  14.022  1.00  0.00     0.006 A 
ENDROOT
BRANCH   1   7
ATOM      7  C   UNL     1       2.563  -5.296  16.470  1.00  0.00     0.037 C 
BRANCH   7   8
ATOM      8  C   UNL     1       2.834  -6.773  16.124  1.00  0.00     0.020 C 
BRANCH   8   9
ATOM      9  C   UNL     1       4.159  -7.353  16.639  1.00  0.00     0.078 C 
BRANCH   9  10
ATOM     10  N   UNL     1       5.357  -6.758  16.064  1.00  0.00    -0.330 NA
ATOM     11  H   UNL     1       5.129  -5.863  15.634  1.00  0.00     0.118 HD
ATOM     12  H   UNL     1       5.712  -7.343  15.308  1.00  0.00     0.118 HD
ENDBRANCH   9  10
ENDBRANCH   8   9
ENDBRANCH   7   8
ENDBRANCH   1   7
BRANCH   4  13
ATOM     13  N   UNL     1       2.949  -1.502  12.164  1.00  0.00    -0.362 N 
ATOM     14  H   UNL     1       2.164  -0.887  11.988  1.00  0.00     0.166 HD
BRANCH  13  15
ATOM     15  C   UNL     1       3.929  -1.558  11.208  1.00  0.00     0.083 C 
BRANCH  15  16
ATOM     16  C   UNL     1       4.029  -0.877  10.059  1.00  0.00     0.027 C 
BRANCH  16  17
ATOM     17  C   UNL     1       4.202  -1.572   8.774  1.00  0.00    -0.003 A 
ATOM     18  C   UNL     1       3.604  -1.118   7.585  1.00  0.00    -0.041 A 
ATOM     19  C   UNL     1       4.952  -2.754   8.691  1.00  0.00     0.119 A 
ATOM     20  C   UNL     1       3.802  -1.855   6.408  1.00  0.00     0.024 A 
ATOM     21  N   UNL     1       5.167  -3.468   7.561  1.00  0.00    -0.264 NA
ATOM     22  C   UNL     1       4.587  -2.996   6.443  1.00  0.00     0.111 A 
ATOM     23  C   UNL     1       2.731   0.104   7.539  1.00  0.00     0.045 C 
ENDBRANCH  16  17
ENDBRANCH  15  16
ENDBRANCH  13  15
ENDBRANCH   4  13
TORSDOF 8
ENDMDL
MODEL 9
REMARK VINA RESULT:    -4.262      5.814      7.847
REMARK INTER + INTRA:          -6.691
REMARK INTER:                  -6.001
REMARK INTRA:                  -0.690
REMARK UNBOUND:                -0.560
REMARK SMILES Cc1ccncc1/C=C/Nc1ccc(CCCN)cc1
REMARK SMILES IDX 14 1 13 2 12 3 11 4 20 5 19 6 15 7 16 8 17 9 18 10 10 13
REMARK SMILES IDX 9 15 8 16 7 17 2 18 6 19 3 20 5 21 4 22 1 23
REMARK H PARENT 18 11 18 12 10 14
ROOT
ATOM      1  C   UNL     1       9.622   1.166  13.031  1.00  0.00    -0.048 A 
ATOM      2  C   UNL     1       9.000   1.595  11.858  1.00  0.00     0.006 A 
ATOM      3  C   UNL     1       8.180   0.736  11.132  1.00  0.00     0.026 A 
ATOM      4  C   UNL     1       8.012  -0.601  11.502  1.00  0.00     0.038 A 
ATOM      5  C   UNL     1       8.680  -1.049  12.648  1.00  0.00     0.026 A 
ATOM      6  C   UNL     1       9.477  -0.176  13.404  1.00  0.00     0.006 A 
ENDROOT
BRANCH   1   7
ATOM      7  C   UNL     1      10.431   2.116  13.879  1.00  0.00     0.037 C 
BRANCH   7   8
ATOM      8  C   UNL     1      10.023   3.601  13.834  1.00  0.00     0.020 C 
BRANCH   8   9
ATOM      9  C   UNL     1       9.281   4.134  15.069  1.00  0.00     0.078 C 
BRANCH   9  10
ATOM     10  N   UNL     1       7.913   3.658  15.218  1.00  0.00    -0.330 NA
ATOM     11  H   UNL     1       7.326   4.399  15.598  1.00  0.00     0.118 HD
ATOM     12  H   UNL     1       7.876   2.902  15.902  1.00  0.00     0.118 HD
ENDBRANCH   9  10
ENDBRANCH   8   9
ENDBRANCH   7   8
ENDBRANCH   1   7
BRANCH   4  13
ATOM     13  N   UNL     1       7.281  -1.506  10.709  1.00  0.00    -0.362 N 
ATOM     14  H   UNL     1       7.762  -1.902   9.911  1.00  0.00     0.166 HD
BRANCH  13  15
ATOM     15  C   UNL     1       5.925  -1.690  10.779  1.00  0.00     0.083 C 
BRANCH  15  16
ATOM     16  C   UNL     1       4.973  -1.291   9.925  1.00  0.00     0.027 C 
BRANCH  16  17
ATOM     17  C   UNL     1       4.747  -1.993   8.653  1.00  0.00    -0.003 A 
ATOM     18  C   UNL     1       3.852  -1.517   7.678  1.00  0.00    -0.041 A 
ATOM     19  C   UNL     1       5.397  -3.204   8.374  1.00  0.00     0.119 A 
ATOM     20  C   UNL     1       3.678  -2.262   6.502  1.00  0.00     0.024 A 
ATOM     21  N   UNL     1       5.255  -3.926   7.238  1.00  0.00    -0.264 NA
ATOM     22  C   UNL     1       4.398  -3.433   6.326  1.00  0.00     0.111 A 
ATOM     23  C   UNL     1       3.048  -0.262   7.868  1.00  0.00     0.045 C 
ENDBRANCH  16  17
ENDBRANCH  15  16
ENDBRANCH  13  15
ENDBRANCH   4  13
TORSDOF 8
ENDMDL
