MODEL 1
REMARK VINA RESULT:    -4.616      0.000      0.000
REMARK INTER + INTRA:          -7.195
REMARK INTER:                  -6.640
REMARK INTRA:                  -0.555
REMARK UNBOUND:                -0.555
REMARK SMILES Cc1ccncc1/C=C/Nc1ccc(CCCN)cc1
REMARK SMILES IDX 14 1 13 2 12 3 11 4 20 5 19 6 15 7 16 8 17 9 18 10 10 13
REMARK SMILES IDX 9 15 8 16 7 17 2 18 6 19 3 20 5 21 4 22 1 23
REMARK H PARENT 18 11 18 12 10 14
ROOT
ATOM      1  C   UNL     1      -6.077  -5.245   5.598  1.00  0.00    -0.048 A 
ATOM      2  C   UNL     1      -6.860  -6.175   4.911  1.00  0.00     0.006 A 
ATOM      3  C   UNL     1      -7.360  -7.299   5.560  1.00  0.00     0.026 A 
ATOM      4  C   UNL     1      -7.038  -7.581   6.890  1.00  0.00     0.038 A 
ATOM      5  C   UNL     1      -6.206  -6.679   7.564  1.00  0.00     0.026 A 
ATOM      6  C   UNL     1      -5.730  -5.523   6.925  1.00  0.00     0.006 A 
ENDROOT
BRANCH   1   7
ATOM      7  C   UNL     1      -5.613  -3.972   4.933  1.00  0.00     0.037 C 
BRANCH   7   8
ATOM      8  C   UNL     1      -4.174  -3.516   5.241  1.00  0.00     0.020 C 
BRANCH   8   9
ATOM      9  C   UNL     1      -4.031  -2.135   5.896  1.00  0.00     0.078 C 
BRANCH   9  10
ATOM     10  N   UNL     1      -4.066  -1.009   4.973  1.00  0.00    -0.330 NA
ATOM     11  H   UNL     1      -4.438  -1.308   4.073  1.00  0.00     0.118 HD
ATOM     12  H   UNL     1      -3.119  -0.681   4.783  1.00  0.00     0.118 HD
ENDBRANCH   9  10
ENDBRANCH   8   9
ENDBRANCH   7   8
ENDBRANCH   1   7
BRANCH   4  13
ATOM     13  N   UNL     1      -7.442  -8.775   7.517  1.00  0.00    -0.362 N 
ATOM     14  H   UNL     1      -7.923  -8.683   8.403  1.00  0.00     0.166 HD
BRANCH  13  15
ATOM     15  C   UNL     1      -7.017 -10.028   7.162  1.00  0.00     0.083 C 
BRANCH  15  16
ATOM     16  C   UNL     1      -7.712 -11.172   7.105  1.00  0.00     0.027 C 
BRANCH  16  17
ATOM     17  C   UNL     1      -7.402 -12.297   8.001  1.00  0.00    -0.003 A 
ATOM     18  C   UNL     1      -8.403 -13.048   8.641  1.00  0.00    -0.041 A 
ATOM     19  C   UNL     1      -6.073 -12.645   8.285  1.00  0.00     0.119 A 
ATOM     20  C   UNL     1      -8.019 -14.090   9.499  1.00  0.00     0.024 A 
ATOM     21  N   UNL     1      -5.686 -13.658   9.096  1.00  0.00    -0.264 NA
ATOM     22  C   UNL     1      -6.672 -14.359   9.682  1.00  0.00     0.111 A 
ATOM     23  C   UNL     1      -9.866 -12.751   8.470  1.00  0.00     0.045 C 
ENDBRANCH  16  17
ENDBRANCH  15  16
ENDBRANCH  13  15
ENDBRANCH   4  13
TORSDOF 8
ENDMDL
MODEL 2
REMARK VINA RESULT:    -4.595      4.582      5.663
REMARK INTER + INTRA:          -7.164
REMARK INTER:                  -6.608
REMARK INTRA:                  -0.556
REMARK UNBOUND:                -0.555
REMARK SMILES Cc1ccncc1/C=C/Nc1ccc(CCCN)cc1
REMARK SMILES IDX 14 1 13 2 12 3 11 4 20 5 19 6 15 7 16 8 17 9 18 10 10 13
REMARK SMILES IDX 9 15 8 16 7 17 2 18 6 19 3 20 5 21 4 22 1 23
REMARK H PARENT 18 11 18 12 10 14
ROOT
ATOM      1  C   UNL     1      -5.619  -6.251   5.495  1.00  0.00    -0.048 A 
ATOM      2  C   UNL     1      -5.410  -5.853   6.817  1.00  0.00     0.006 A 
ATOM      3  C   UNL     1      -6.347  -6.145   7.803  1.00  0.00     0.026 A 
ATOM      4  C   UNL     1      -7.558  -6.773   7.500  1.00  0.00     0.038 A 
ATOM      5  C   UNL     1      -7.794  -7.122   6.165  1.00  0.00     0.026 A 
ATOM      6  C   UNL     1      -6.836  -6.864   5.172  1.00  0.00     0.006 A 
ENDROOT
BRANCH   1   7
ATOM      7  C   UNL     1      -4.567  -6.029   4.437  1.00  0.00     0.037 C 
BRANCH   7   8
ATOM      8  C   UNL     1      -5.014  -5.291   3.160  1.00  0.00     0.020 C 
BRANCH   8   9
ATOM      9  C   UNL     1      -4.758  -6.022   1.835  1.00  0.00     0.078 C 
BRANCH   9  10
ATOM     10  N   UNL     1      -3.468  -5.747   1.219  1.00  0.00    -0.330 NA
ATOM     11  H   UNL     1      -2.794  -6.464   1.485  1.00  0.00     0.118 HD
ATOM     12  H   UNL     1      -3.088  -4.870   1.575  1.00  0.00     0.118 HD
ENDBRANCH   9  10
ENDBRANCH   8   9
ENDBRANCH   7   8
ENDBRANCH   1   7
BRANCH   4  13
ATOM     13  N   UNL     1      -8.560  -6.965   8.470  1.00  0.00    -0.362 N 
ATOM     14  H   UNL     1      -9.100  -7.818   8.402  1.00  0.00     0.166 HD
BRANCH  13  15
ATOM     15  C   UNL     1      -9.024  -5.995   9.318  1.00  0.00     0.083 C 
BRANCH  15  16
ATOM     16  C   UNL     1     -10.279  -5.749   9.716  1.00  0.00     0.027 C 
BRANCH  16  17
ATOM     17  C   UNL     1     -10.915  -6.550  10.773  1.00  0.00    -0.003 A 
ATOM     18  C   UNL     1     -12.288  -6.466  11.061  1.00  0.00    -0.041 A 
ATOM     19  C   UNL     1     -10.155  -7.417  11.574  1.00  0.00     0.119 A 
ATOM     20  C   UNL     1     -12.808  -7.249  12.103  1.00  0.00     0.024 A 
ATOM     21  N   UNL     1     -10.643  -8.192  12.571  1.00  0.00    -0.264 NA
ATOM     22  C   UNL     1     -11.962  -8.090  12.809  1.00  0.00     0.111 A 
ATOM     23  C   UNL     1     -13.210  -5.540  10.319  1.00  0.00     0.045 C 
ENDBRANCH  16  17
ENDBRANCH  15  16
ENDBRANCH  13  15
ENDBRANCH   4  13
TORSDOF 8
ENDMDL
MODEL 3
REMARK VINA RESULT:    -4.569      1.173      1.705
REMARK INTER + INTRA:          -7.128
REMARK INTER:                  -6.573
REMARK INTRA:                  -0.555
REMARK UNBOUND:                -0.555
REMARK SMILES Cc1ccncc1/C=C/Nc1ccc(CCCN)cc1
REMARK SMILES IDX 14 1 13 2 12 3 11 4 20 5 19 6 15 7 16 8 17 9 18 10 10 13
REMARK SMILES IDX 9 15 8 16 7 17 2 18 6 19 3 20 5 21 4 22 1 23
REMARK H PARENT 18 11 18 12 10 14
ROOT
ATOM      1  C   UNL     1      -6.303  -5.335   5.597  1.00  0.00    -0.048 A 
ATOM      2  C   UNL     1      -7.034  -6.303   4.904  1.00  0.00     0.006 A 
ATOM      3  C   UNL     1      -7.450  -7.468   5.541  1.00  0.00     0.026 A 
ATOM      4  C   UNL     1      -7.090  -7.750   6.861  1.00  0.00     0.038 A 
ATOM      5  C   UNL     1      -6.309  -6.807   7.539  1.00  0.00     0.026 A 
ATOM      6  C   UNL     1      -5.919  -5.612   6.914  1.00  0.00     0.006 A 
ENDROOT
BRANCH   1   7
ATOM      7  C   UNL     1      -5.934  -4.024   4.948  1.00  0.00     0.037 C 
BRANCH   7   8
ATOM      8  C   UNL     1      -4.457  -3.596   5.045  1.00  0.00     0.020 C 
BRANCH   8   9
ATOM      9  C   UNL     1      -4.174  -2.333   5.872  1.00  0.00     0.078 C 
BRANCH   9  10
ATOM     10  N   UNL     1      -4.079  -1.102   5.101  1.00  0.00    -0.330 NA
ATOM     11  H   UNL     1      -3.621  -0.379   5.653  1.00  0.00     0.118 HD
ATOM     12  H   UNL     1      -5.012  -0.741   4.899  1.00  0.00     0.118 HD
ENDBRANCH   9  10
ENDBRANCH   8   9
ENDBRANCH   7   8
ENDBRANCH   1   7
BRANCH   4  13
ATOM     13  N   UNL     1      -7.406  -8.979   7.472  1.00  0.00    -0.362 N 
ATOM     14  H   UNL     1      -7.614  -8.953   8.463  1.00  0.00     0.166 HD
BRANCH  13  15
ATOM     15  C   UNL     1      -7.205 -10.210   6.905  1.00  0.00     0.083 C 
BRANCH  15  16
ATOM     16  C   UNL     1      -6.742 -11.334   7.467  1.00  0.00     0.027 C 
BRANCH  16  17
ATOM     17  C   UNL     1      -7.644 -12.269   8.156  1.00  0.00    -0.003 A 
ATOM     18  C   UNL     1      -7.170 -13.357   8.909  1.00  0.00    -0.041 A 
ATOM     19  C   UNL     1      -9.036 -12.132   8.055  1.00  0.00     0.119 A 
ATOM     20  C   UNL     1      -8.101 -14.215   9.514  1.00  0.00     0.024 A 
ATOM     21  N   UNL     1      -9.948 -12.939   8.646  1.00  0.00    -0.264 NA
ATOM     22  C   UNL     1      -9.455 -13.962   9.366  1.00  0.00     0.111 A 
ATOM     23  C   UNL     1      -5.704 -13.656   9.058  1.00  0.00     0.045 C 
ENDBRANCH  16  17
ENDBRANCH  15  16
ENDBRANCH  13  15
ENDBRANCH   4  13
TORSDOF 8
ENDMDL
MODEL 4
REMARK VINA RESULT:    -4.246      1.635      8.603
REMARK INTER + INTRA:          -6.663
REMARK INTER:                  -6.013
REMARK INTRA:                  -0.650
REMARK UNBOUND:                -0.555
REMARK SMILES Cc1ccncc1/C=C/Nc1ccc(CCCN)cc1
REMARK SMILES IDX 14 1 13 2 12 3 11 4 20 5 19 6 15 7 16 8 17 9 18 10 10 13
REMARK SMILES IDX 9 15 8 16 7 17 2 18 6 19 3 20 5 21 4 22 1 23
REMARK H PARENT 18 11 18 12 10 14
ROOT
ATOM      1  C   UNL     1      -6.807 -13.179   8.778  1.00  0.00    -0.048 A 
ATOM      2  C   UNL     1      -5.740 -12.453   8.247  1.00  0.00     0.006 A 
ATOM      3  C   UNL     1      -5.965 -11.283   7.527  1.00  0.00     0.026 A 
ATOM      4  C   UNL     1      -7.257 -10.835   7.244  1.00  0.00     0.038 A 
ATOM      5  C   UNL     1      -8.330 -11.593   7.727  1.00  0.00     0.026 A 
ATOM      6  C   UNL     1      -8.109 -12.753   8.486  1.00  0.00     0.006 A 
ENDROOT
BRANCH   1   7
ATOM      7  C   UNL     1      -6.573 -14.391   9.644  1.00  0.00     0.037 C 
BRANCH   7   8
ATOM      8  C   UNL     1      -5.307 -14.379  10.524  1.00  0.00     0.020 C 
BRANCH   8   9
ATOM      9  C   UNL     1      -5.486 -13.847  11.953  1.00  0.00     0.078 C 
BRANCH   9  10
ATOM     10  N   UNL     1      -5.322 -12.408  12.100  1.00  0.00    -0.330 NA
ATOM     11  H   UNL     1      -5.554 -11.940  11.225  1.00  0.00     0.118 HD
ATOM     12  H   UNL     1      -4.343 -12.182  12.279  1.00  0.00     0.118 HD
ENDBRANCH   9  10
ENDBRANCH   8   9
ENDBRANCH   7   8
ENDBRANCH   1   7
BRANCH   4  13
ATOM     13  N   UNL     1      -7.494  -9.720   6.417  1.00  0.00    -0.362 N 
ATOM     14  H   UNL     1      -7.813  -9.912   5.475  1.00  0.00     0.166 HD
BRANCH  13  15
ATOM     15  C   UNL     1      -7.089  -8.441   6.693  1.00  0.00     0.083 C 
BRANCH  15  16
ATOM     16  C   UNL     1      -7.396  -7.301   6.060  1.00  0.00     0.027 C 
BRANCH  16  17
ATOM     17  C   UNL     1      -6.396  -6.238   5.876  1.00  0.00    -0.003 A 
ATOM     18  C   UNL     1      -6.234  -5.557   4.657  1.00  0.00    -0.041 A 
ATOM     19  C   UNL     1      -5.525  -5.882   6.917  1.00  0.00     0.119 A 
ATOM     20  C   UNL     1      -5.239  -4.572   4.562  1.00  0.00     0.024 A 
ATOM     21  N   UNL     1      -4.573  -4.923   6.848  1.00  0.00    -0.264 NA
ATOM     22  C   UNL     1      -4.455  -4.288   5.668  1.00  0.00     0.111 A 
ATOM     23  C   UNL     1      -7.062  -5.874   3.443  1.00  0.00     0.045 C 
ENDBRANCH  16  17
ENDBRANCH  15  16
ENDBRANCH  13  15
ENDBRANCH   4  13
TORSDOF 8
ENDMDL
MODEL 5
REMARK VINA RESULT:    -4.166      6.546      8.480
REMARK INTER + INTRA:          -6.547
REMARK INTER:                  -4.880
REMARK INTRA:                  -1.667
REMARK UNBOUND:                -0.555
REMARK SMILES Cc1ccncc1/C=C/Nc1ccc(CCCN)cc1
REMARK SMILES IDX 14 1 13 2 12 3 11 4 20 5 19 6 15 7 16 8 17 9 18 10 10 13
REMARK SMILES IDX 9 15 8 16 7 17 2 18 6 19 3 20 5 21 4 22 1 23
REMARK H PARENT 18 11 18 12 10 14
ROOT
ATOM      1  C   UNL     1      -7.685 -13.651   9.142  1.00  0.00    -0.048 A 
ATOM      2  C   UNL     1      -8.464 -12.673   8.521  1.00  0.00     0.006 A 
ATOM      3  C   UNL     1      -9.839 -12.621   8.731  1.00  0.00     0.026 A 
ATOM      4  C   UNL     1     -10.499 -13.581   9.501  1.00  0.00     0.038 A 
ATOM      5  C   UNL     1      -9.726 -14.596  10.079  1.00  0.00     0.026 A 
ATOM      6  C   UNL     1      -8.335 -14.631   9.902  1.00  0.00     0.006 A 
ENDROOT
BRANCH   1   7
ATOM      7  C   UNL     1      -6.183 -13.657   9.004  1.00  0.00     0.037 C 
BRANCH   7   8
ATOM      8  C   UNL     1      -5.375 -14.078  10.246  1.00  0.00     0.020 C 
BRANCH   8   9
ATOM      9  C   UNL     1      -4.679 -12.943  11.013  1.00  0.00     0.078 C 
BRANCH   9  10
ATOM     10  N   UNL     1      -5.429 -12.414  12.143  1.00  0.00    -0.330 NA
ATOM     11  H   UNL     1      -5.394 -13.069  12.923  1.00  0.00     0.118 HD
ATOM     12  H   UNL     1      -6.417 -12.330  11.901  1.00  0.00     0.118 HD
ENDBRANCH   9  10
ENDBRANCH   8   9
ENDBRANCH   7   8
ENDBRANCH   1   7
BRANCH   4  13
ATOM     13  N   UNL     1     -11.902 -13.604   9.621  1.00  0.00    -0.362 N 
ATOM     14  H   UNL     1     -12.420 -13.950   8.823  1.00  0.00     0.166 HD
BRANCH  13  15
ATOM     15  C   UNL     1     -12.614 -12.970  10.604  1.00  0.00     0.083 C 
BRANCH  15  16
ATOM     16  C   UNL     1     -12.175 -12.416  11.742  1.00  0.00     0.027 C 
BRANCH  16  17
ATOM     17  C   UNL     1     -11.675 -11.033  11.774  1.00  0.00    -0.003 A 
ATOM     18  C   UNL     1     -10.392 -10.706  12.246  1.00  0.00    -0.041 A 
ATOM     19  C   UNL     1     -12.486  -9.965  11.362  1.00  0.00     0.119 A 
ATOM     20  C   UNL     1     -10.003  -9.358  12.264  1.00  0.00     0.024 A 
ATOM     21  N   UNL     1     -12.121  -8.662  11.356  1.00  0.00    -0.264 NA
ATOM     22  C   UNL     1     -10.883  -8.390  11.806  1.00  0.00     0.111 A 
ATOM     23  C   UNL     1      -9.438 -11.744  12.768  1.00  0.00     0.045 C 
ENDBRANCH  16  17
ENDBRANCH  15  16
ENDBRANCH  13  15
ENDBRANCH   4  13
TORSDOF 8
ENDMDL
MODEL 6
REMARK VINA RESULT:    -4.106      4.972     12.229
REMARK INTER + INTRA:          -6.462
REMARK INTER:                  -5.972
REMARK INTRA:                  -0.489
REMARK UNBOUND:                -0.555
REMARK SMILES Cc1ccncc1/C=C/Nc1ccc(CCCN)cc1
REMARK SMILES IDX 14 1 13 2 12 3 11 4 20 5 19 6 15 7 16 8 17 9 18 10 10 13
REMARK SMILES IDX 9 15 8 16 7 17 2 18 6 19 3 20 5 21 4 22 1 23
REMARK H PARENT 18 11 18 12 10 14
ROOT
ATOM      1  C   UNL     1      -5.054  -4.384   4.855  1.00  0.00    -0.048 A 
ATOM      2  C   UNL     1      -4.625  -4.997   3.676  1.00  0.00     0.006 A 
ATOM      3  C   UNL     1      -3.880  -4.290   2.737  1.00  0.00     0.026 A 
ATOM      4  C   UNL     1      -3.601  -2.930   2.898  1.00  0.00     0.038 A 
ATOM      5  C   UNL     1      -4.079  -2.300   4.053  1.00  0.00     0.026 A 
ATOM      6  C   UNL     1      -4.798  -3.018   5.021  1.00  0.00     0.006 A 
ENDROOT
BRANCH   1   7
ATOM      7  C   UNL     1      -5.774  -5.167   5.924  1.00  0.00     0.037 C 
BRANCH   7   8
ATOM      8  C   UNL     1      -6.218  -6.596   5.556  1.00  0.00     0.020 C 
BRANCH   8   9
ATOM      9  C   UNL     1      -7.405  -7.158   6.352  1.00  0.00     0.078 C 
BRANCH   9  10
ATOM     10  N   UNL     1      -7.050  -8.108   7.396  1.00  0.00    -0.330 NA
ATOM     11  H   UNL     1      -7.860  -8.677   7.641  1.00  0.00     0.118 HD
ATOM     12  H   UNL     1      -6.796  -7.613   8.251  1.00  0.00     0.118 HD
ENDBRANCH   9  10
ENDBRANCH   8   9
ENDBRANCH   7   8
ENDBRANCH   1   7
BRANCH   4  13
ATOM     13  N   UNL     1      -2.952  -2.180   1.899  1.00  0.00    -0.362 N 
ATOM     14  H   UNL     1      -2.021  -2.480   1.638  1.00  0.00     0.166 HD
BRANCH  13  15
ATOM     15  C   UNL     1      -3.365  -0.954   1.449  1.00  0.00     0.083 C 
BRANCH  15  16
ATOM     16  C   UNL     1      -3.029  -0.309   0.323  1.00  0.00     0.027 C 
BRANCH  16  17
ATOM     17  C   UNL     1      -3.679   0.955  -0.054  1.00  0.00    -0.003 A 
ATOM     18  C   UNL     1      -4.630   1.035  -1.087  1.00  0.00    -0.041 A 
ATOM     19  C   UNL     1      -3.343   2.157   0.588  1.00  0.00     0.119 A 
ATOM     20  C   UNL     1      -5.184   2.286  -1.397  1.00  0.00     0.024 A 
ATOM     21  N   UNL     1      -3.881   3.368   0.313  1.00  0.00    -0.264 NA
ATOM     22  C   UNL     1      -4.794   3.402  -0.675  1.00  0.00     0.111 A 
ATOM     23  C   UNL     1      -5.044  -0.164  -1.893  1.00  0.00     0.045 C 
ENDBRANCH  16  17
ENDBRANCH  15  16
ENDBRANCH  13  15
ENDBRANCH   4  13
TORSDOF 8
ENDMDL
MODEL 7
REMARK VINA RESULT:    -4.025      2.244      8.746
REMARK INTER + INTRA:          -6.345
REMARK INTER:                  -5.692
REMARK INTRA:                  -0.653
REMARK UNBOUND:                -0.555
REMARK SMILES Cc1ccncc1/C=C/Nc1ccc(CCCN)cc1
REMARK SMILES IDX 14 1 13 2 12 3 11 4 20 5 19 6 15 7 16 8 17 9 18 10 10 13
REMARK SMILES IDX 9 15 8 16 7 17 2 18 6 19 3 20 5 21 4 22 1 23
REMARK H PARENT 18 11 18 12 10 14
ROOT
ATOM      1  C   UNL     1      -6.985 -13.699   9.156  1.00  0.00    -0.048 A 
ATOM      2  C   UNL     1      -5.879 -13.039   8.617  1.00  0.00     0.006 A 
ATOM      3  C   UNL     1      -6.040 -11.870   7.879  1.00  0.00     0.026 A 
ATOM      4  C   UNL     1      -7.306 -11.358   7.584  1.00  0.00     0.038 A 
ATOM      5  C   UNL     1      -8.419 -12.051   8.076  1.00  0.00     0.026 A 
ATOM      6  C   UNL     1      -8.261 -13.209   8.853  1.00  0.00     0.006 A 
ENDROOT
BRANCH   1   7
ATOM      7  C   UNL     1      -6.817 -14.909  10.041  1.00  0.00     0.037 C 
BRANCH   7   8
ATOM      8  C   UNL     1      -5.793 -14.791  11.186  1.00  0.00     0.020 C 
BRANCH   8   9
ATOM      9  C   UNL     1      -6.187 -13.870  12.350  1.00  0.00     0.078 C 
BRANCH   9  10
ATOM     10  N   UNL     1      -5.602 -12.537  12.305  1.00  0.00    -0.330 NA
ATOM     11  H   UNL     1      -6.317 -11.850  12.071  1.00  0.00     0.118 HD
ATOM     12  H   UNL     1      -4.912 -12.481  11.556  1.00  0.00     0.118 HD
ENDBRANCH   9  10
ENDBRANCH   8   9
ENDBRANCH   7   8
ENDBRANCH   1   7
BRANCH   4  13
ATOM     13  N   UNL     1      -7.481 -10.245   6.739  1.00  0.00    -0.362 N 
ATOM     14  H   UNL     1      -7.898 -10.423   5.835  1.00  0.00     0.166 HD
BRANCH  13  15
ATOM     15  C   UNL     1      -6.909  -9.016   6.936  1.00  0.00     0.083 C 
BRANCH  15  16
ATOM     16  C   UNL     1      -7.449  -7.799   6.791  1.00  0.00     0.027 C 
BRANCH  16  17
ATOM     17  C   UNL     1      -7.266  -7.027   5.553  1.00  0.00    -0.003 A 
ATOM     18  C   UNL     1      -6.313  -6.000   5.438  1.00  0.00    -0.041 A 
ATOM     19  C   UNL     1      -8.076  -7.263   4.432  1.00  0.00     0.119 A 
ATOM     20  C   UNL     1      -6.221  -5.297   4.227  1.00  0.00     0.024 A 
ATOM     21  N   UNL     1      -7.989  -6.607   3.251  1.00  0.00    -0.264 NA
ATOM     22  C   UNL     1      -7.059  -5.639   3.177  1.00  0.00     0.111 A 
ATOM     23  C   UNL     1      -5.415  -5.604   6.577  1.00  0.00     0.045 C 
ENDBRANCH  16  17
ENDBRANCH  15  16
ENDBRANCH  13  15
ENDBRANCH   4  13
TORSDOF 8
ENDMDL
MODEL 8
REMARK VINA RESULT:    -3.920      6.361      7.279
REMARK INTER + INTRA:          -6.193
REMARK INTER:                  -4.827
REMARK INTRA:                  -1.366
REMARK UNBOUND:                -0.555
REMARK SMILES Cc1ccncc1/C=C/Nc1ccc(CCCN)cc1
REMARK SMILES IDX 14 1 13 2 12 3 11 4 20 5 19 6 15 7 16 8 17 9 18 10 10 13
REMARK SMILES IDX 9 15 8 16 7 17 2 18 6 19 3 20 5 21 4 22 1 23
REMARK H PARENT 18 11 18 12 10 14
ROOT
ATOM      1  C   UNL     1     -10.154 -10.509  12.077  1.00  0.00    -0.048 A 
ATOM      2  C   UNL     1     -10.618 -10.699  10.774  1.00  0.00     0.006 A 
ATOM      3  C   UNL     1     -10.546 -11.952  10.170  1.00  0.00     0.026 A 
ATOM      4  C   UNL     1      -9.943 -13.038  10.808  1.00  0.00     0.038 A 
ATOM      5  C   UNL     1      -9.427 -12.834  12.093  1.00  0.00     0.026 A 
ATOM      6  C   UNL     1      -9.530 -11.584  12.721  1.00  0.00     0.006 A 
ENDROOT
BRANCH   1   7
ATOM      7  C   UNL     1     -10.318  -9.183  12.777  1.00  0.00     0.037 C 
BRANCH   7   8
ATOM      8  C   UNL     1     -10.392  -7.932  11.881  1.00  0.00     0.020 C 
BRANCH   8   9
ATOM      9  C   UNL     1     -11.725  -7.169  11.898  1.00  0.00     0.078 C 
BRANCH   9  10
ATOM     10  N   UNL     1     -12.382  -7.049  10.605  1.00  0.00    -0.330 NA
ATOM     11  H   UNL     1     -13.344  -7.379  10.670  1.00  0.00     0.118 HD
ATOM     12  H   UNL     1     -11.930  -7.659   9.923  1.00  0.00     0.118 HD
ENDBRANCH   9  10
ENDBRANCH   8   9
ENDBRANCH   7   8
ENDBRANCH   1   7
BRANCH   4  13
ATOM     13  N   UNL     1      -9.761 -14.275  10.160  1.00  0.00    -0.362 N 
ATOM     14  H   UNL     1     -10.240 -15.072  10.559  1.00  0.00     0.166 HD
BRANCH  13  15
ATOM     15  C   UNL     1      -8.804 -14.527   9.212  1.00  0.00     0.083 C 
BRANCH  15  16
ATOM     16  C   UNL     1      -7.581 -15.052   9.364  1.00  0.00     0.027 C 
BRANCH  16  17
ATOM     17  C   UNL     1      -6.481 -14.264   9.941  1.00  0.00    -0.003 A 
ATOM     18  C   UNL     1      -5.989 -14.494  11.238  1.00  0.00    -0.041 A 
ATOM     19  C   UNL     1      -5.895 -13.211   9.222  1.00  0.00     0.119 A 
ATOM     20  C   UNL     1      -4.953 -13.679  11.720  1.00  0.00     0.024 A 
ATOM     21  N   UNL     1      -4.884 -12.428   9.664  1.00  0.00    -0.264 NA
ATOM     22  C   UNL     1      -4.434 -12.685  10.905  1.00  0.00     0.111 A 
ATOM     23  C   UNL     1      -6.559 -15.553  12.139  1.00  0.00     0.045 C 
ENDBRANCH  16  17
ENDBRANCH  15  16
ENDBRANCH  13  15
ENDBRANCH   4  13
TORSDOF 8
ENDMDL
MODEL 9
REMARK VINA RESULT:    -3.795      6.229      7.538
REMARK INTER + INTRA:          -6.014
REMARK INTER:                  -4.369
REMARK INTRA:                  -1.644
REMARK UNBOUND:                -0.555
REMARK SMILES Cc1ccncc1/C=C/Nc1ccc(CCCN)cc1
REMARK SMILES IDX 14 1 13 2 12 3 11 4 20 5 19 6 15 7 16 8 17 9 18 10 10 13
REMARK SMILES IDX 9 15 8 16 7 17 2 18 6 19 3 20 5 21 4 22 1 23
REMARK H PARENT 18 11 18 12 10 14
ROOT
ATOM      1  C   UNL     1     -11.642  -8.194  12.638  1.00  0.00    -0.048 A 
ATOM      2  C   UNL     1     -12.404  -9.094  13.386  1.00  0.00     0.006 A 
ATOM      3  C   UNL     1     -11.893 -10.342  13.731  1.00  0.00     0.026 A 
ATOM      4  C   UNL     1     -10.641 -10.770  13.282  1.00  0.00     0.038 A 
ATOM      5  C   UNL     1      -9.900  -9.891  12.484  1.00  0.00     0.026 A 
ATOM      6  C   UNL     1     -10.394  -8.617  12.165  1.00  0.00     0.006 A 
ENDROOT
BRANCH   1   7
ATOM      7  C   UNL     1     -12.144  -6.802  12.343  1.00  0.00     0.037 C 
BRANCH   7   8
ATOM      8  C   UNL     1     -13.160  -6.662  11.193  1.00  0.00     0.020 C 
BRANCH   8   9
ATOM      9  C   UNL     1     -12.780  -5.680  10.075  1.00  0.00     0.078 C 
BRANCH   9  10
ATOM     10  N   UNL     1     -11.434  -5.842   9.544  1.00  0.00    -0.330 NA
ATOM     11  H   UNL     1     -10.839  -5.079   9.863  1.00  0.00     0.118 HD
ATOM     12  H   UNL     1     -11.447  -5.773   8.527  1.00  0.00     0.118 HD
ENDBRANCH   9  10
ENDBRANCH   8   9
ENDBRANCH   7   8
ENDBRANCH   1   7
BRANCH   4  13
ATOM     13  N   UNL     1     -10.169 -12.074  13.527  1.00  0.00    -0.362 N 
ATOM     14  H   UNL     1      -9.205 -12.159  13.826  1.00  0.00     0.166 HD
BRANCH  13  15
ATOM     15  C   UNL     1     -10.813 -13.223  13.152  1.00  0.00     0.083 C 
BRANCH  15  16
ATOM     16  C   UNL     1     -11.289 -13.572  11.950  1.00  0.00     0.027 C 
BRANCH  16  17
ATOM     17  C   UNL     1     -10.479 -13.409  10.733  1.00  0.00    -0.003 A 
ATOM     18  C   UNL     1     -10.815 -12.493   9.720  1.00  0.00    -0.041 A 
ATOM     19  C   UNL     1      -9.342 -14.201  10.514  1.00  0.00     0.119 A 
ATOM     20  C   UNL     1     -10.000 -12.419   8.581  1.00  0.00     0.024 A 
ATOM     21  N   UNL     1      -8.535 -14.131   9.430  1.00  0.00    -0.264 NA
ATOM     22  C   UNL     1      -8.884 -13.236   8.488  1.00  0.00     0.111 A 
ATOM     23  C   UNL     1     -12.035 -11.619   9.798  1.00  0.00     0.045 C 
ENDBRANCH  16  17
ENDBRANCH  15  16
ENDBRANCH  13  15
ENDBRANCH   4  13
TORSDOF 8
ENDMDL
