MODEL 1
REMARK VINA RESULT:    -5.784      0.000      0.000
REMARK INTER + INTRA:          -9.009
REMARK INTER:                  -8.319
REMARK INTRA:                  -0.690
REMARK UNBOUND:                -0.690
REMARK SMILES Cc1ccncc1/C=C/Nc1ccc(CCCN)cc1
REMARK SMILES IDX 14 1 13 2 12 3 11 4 20 5 19 6 15 7 16 8 17 9 18 10 10 13
REMARK SMILES IDX 9 15 8 16 7 17 2 18 6 19 3 20 5 21 4 22 1 23
REMARK H PARENT 18 11 18 12 10 14
ROOT
ATOM      1  C   UNL     1     -11.289  -4.168   7.053  1.00  0.00    -0.048 A 
ATOM      2  C   UNL     1     -11.566  -2.800   7.015  1.00  0.00     0.006 A 
ATOM      3  C   UNL     1     -11.228  -2.038   5.901  1.00  0.00     0.026 A 
ATOM      4  C   UNL     1     -10.536  -2.588   4.820  1.00  0.00     0.038 A 
ATOM      5  C   UNL     1     -10.207  -3.948   4.881  1.00  0.00     0.026 A 
ATOM      6  C   UNL     1     -10.579  -4.730   5.985  1.00  0.00     0.006 A 
ENDROOT
BRANCH   1   7
ATOM      7  C   UNL     1     -11.740  -5.024   8.210  1.00  0.00     0.037 C 
BRANCH   7   8
ATOM      8  C   UNL     1     -11.733  -4.364   9.603  1.00  0.00     0.020 C 
BRANCH   8   9
ATOM      9  C   UNL     1     -13.105  -4.182  10.269  1.00  0.00     0.078 C 
BRANCH   9  10
ATOM     10  N   UNL     1     -13.727  -2.884  10.050  1.00  0.00    -0.330 NA
ATOM     11  H   UNL     1     -14.158  -2.554  10.912  1.00  0.00     0.118 HD
ATOM     12  H   UNL     1     -14.491  -2.969   9.378  1.00  0.00     0.118 HD
ENDBRANCH   9  10
ENDBRANCH   8   9
ENDBRANCH   7   8
ENDBRANCH   1   7
BRANCH   4  13
ATOM     13  N   UNL     1     -10.086  -1.799   3.744  1.00  0.00    -0.362 N 
ATOM     14  H   UNL     1     -10.698  -1.050   3.443  1.00  0.00     0.166 HD
BRANCH  13  15
ATOM     15  C   UNL     1      -9.035  -2.117   2.926  1.00  0.00     0.083 C 
BRANCH  15  16
ATOM     16  C   UNL     1      -7.995  -1.360   2.551  1.00  0.00     0.027 C 
BRANCH  16  17
ATOM     17  C   UNL     1      -6.677  -1.954   2.282  1.00  0.00    -0.003 A 
ATOM     18  C   UNL     1      -5.549  -1.678   3.076  1.00  0.00    -0.041 A 
ATOM     19  C   UNL     1      -6.482  -2.804   1.183  1.00  0.00     0.119 A 
ATOM     20  C   UNL     1      -4.324  -2.270   2.734  1.00  0.00     0.024 A 
ATOM     21  N   UNL     1      -5.312  -3.397   0.850  1.00  0.00    -0.264 NA
ATOM     22  C   UNL     1      -4.259  -3.116   1.638  1.00  0.00     0.111 A 
ATOM     23  C   UNL     1      -5.602  -0.744   4.252  1.00  0.00     0.045 C 
ENDBRANCH  16  17
ENDBRANCH  15  16
ENDBRANCH  13  15
ENDBRANCH   4  13
TORSDOF 8
ENDMDL
MODEL 2
REMARK VINA RESULT:    -5.772      1.702      2.271
REMARK INTER + INTRA:          -8.992
REMARK INTER:                  -8.334
REMARK INTRA:                  -0.658
REMARK UNBOUND:                -0.690
REMARK SMILES Cc1ccncc1/C=C/Nc1ccc(CCCN)cc1
REMARK SMILES IDX 14 1 13 2 12 3 11 4 20 5 19 6 15 7 16 8 17 9 18 10 10 13
REMARK SMILES IDX 9 15 8 16 7 17 2 18 6 19 3 20 5 21 4 22 1 23
REMARK H PARENT 18 11 18 12 10 14
ROOT
ATOM      1  C   UNL     1     -11.288  -4.177   7.078  1.00  0.00    -0.048 A 
ATOM      2  C   UNL     1     -11.532  -2.803   7.034  1.00  0.00     0.006 A 
ATOM      3  C   UNL     1     -11.184  -2.055   5.912  1.00  0.00     0.026 A 
ATOM      4  C   UNL     1     -10.513  -2.629   4.829  1.00  0.00     0.038 A 
ATOM      5  C   UNL     1     -10.217  -3.996   4.897  1.00  0.00     0.026 A 
ATOM      6  C   UNL     1     -10.600  -4.762   6.008  1.00  0.00     0.006 A 
ENDROOT
BRANCH   1   7
ATOM      7  C   UNL     1     -11.751  -5.014   8.244  1.00  0.00     0.037 C 
BRANCH   7   8
ATOM      8  C   UNL     1     -11.750  -4.335   9.627  1.00  0.00     0.020 C 
BRANCH   8   9
ATOM      9  C   UNL     1     -13.122  -4.168  10.296  1.00  0.00     0.078 C 
BRANCH   9  10
ATOM     10  N   UNL     1     -13.775  -2.890  10.049  1.00  0.00    -0.330 NA
ATOM     11  H   UNL     1     -14.084  -2.480  10.929  1.00  0.00     0.118 HD
ATOM     12  H   UNL     1     -14.624  -3.030   9.500  1.00  0.00     0.118 HD
ENDBRANCH   9  10
ENDBRANCH   8   9
ENDBRANCH   7   8
ENDBRANCH   1   7
BRANCH   4  13
ATOM     13  N   UNL     1     -10.053  -1.858   3.745  1.00  0.00    -0.362 N 
ATOM     14  H   UNL     1     -10.495  -2.023   2.850  1.00  0.00     0.166 HD
BRANCH  13  15
ATOM     15  C   UNL     1      -8.907  -1.107   3.750  1.00  0.00     0.083 C 
BRANCH  15  16
ATOM     16  C   UNL     1      -7.641  -1.495   3.543  1.00  0.00     0.027 C 
BRANCH  16  17
ATOM     17  C   UNL     1      -6.585  -0.519   3.235  1.00  0.00    -0.003 A 
ATOM     18  C   UNL     1      -5.949  -0.466   1.983  1.00  0.00    -0.041 A 
ATOM     19  C   UNL     1      -6.139   0.389   4.208  1.00  0.00     0.119 A 
ATOM     20  C   UNL     1      -4.934   0.482   1.782  1.00  0.00     0.024 A 
ATOM     21  N   UNL     1      -5.175   1.321   4.025  1.00  0.00    -0.264 NA
ATOM     22  C   UNL     1      -4.597   1.347   2.811  1.00  0.00     0.111 A 
ATOM     23  C   UNL     1      -6.289  -1.413   0.867  1.00  0.00     0.045 C 
ENDBRANCH  16  17
ENDBRANCH  15  16
ENDBRANCH  13  15
ENDBRANCH   4  13
TORSDOF 8
ENDMDL
MODEL 3
REMARK VINA RESULT:    -5.654      1.354      8.341
REMARK INTER + INTRA:          -8.823
REMARK INTER:                  -8.350
REMARK INTRA:                  -0.473
REMARK UNBOUND:                -0.690
REMARK SMILES Cc1ccncc1/C=C/Nc1ccc(CCCN)cc1
REMARK SMILES IDX 14 1 13 2 12 3 11 4 20 5 19 6 15 7 16 8 17 9 18 10 10 13
REMARK SMILES IDX 9 15 8 16 7 17 2 18 6 19 3 20 5 21 4 22 1 23
REMARK H PARENT 18 11 18 12 10 14
ROOT
ATOM      1  C   UNL     1      -6.084  -0.672   2.875  1.00  0.00    -0.048 A 
ATOM      2  C   UNL     1      -7.360  -1.141   2.555  1.00  0.00     0.006 A 
ATOM      3  C   UNL     1      -8.434  -0.920   3.413  1.00  0.00     0.026 A 
ATOM      4  C   UNL     1      -8.264  -0.296   4.652  1.00  0.00     0.038 A 
ATOM      5  C   UNL     1      -6.975   0.124   4.999  1.00  0.00     0.026 A 
ATOM      6  C   UNL     1      -5.896  -0.062   4.121  1.00  0.00     0.006 A 
ENDROOT
BRANCH   1   7
ATOM      7  C   UNL     1      -4.935  -0.817   1.909  1.00  0.00     0.037 C 
BRANCH   7   8
ATOM      8  C   UNL     1      -3.951  -1.972   2.172  1.00  0.00     0.020 C 
BRANCH   8   9
ATOM      9  C   UNL     1      -4.432  -3.373   1.767  1.00  0.00     0.078 C 
BRANCH   9  10
ATOM     10  N   UNL     1      -3.704  -3.978   0.661  1.00  0.00    -0.330 NA
ATOM     11  H   UNL     1      -2.779  -3.559   0.582  1.00  0.00     0.118 HD
ATOM     12  H   UNL     1      -4.173  -3.774  -0.222  1.00  0.00     0.118 HD
ENDBRANCH   9  10
ENDBRANCH   8   9
ENDBRANCH   7   8
ENDBRANCH   1   7
BRANCH   4  13
ATOM     13  N   UNL     1      -9.321  -0.175   5.575  1.00  0.00    -0.362 N 
ATOM     14  H   UNL     1      -9.123   0.334   6.427  1.00  0.00     0.166 HD
BRANCH  13  15
ATOM     15  C   UNL     1     -10.486  -0.895   5.530  1.00  0.00     0.083 C 
BRANCH  15  16
ATOM     16  C   UNL     1     -10.691  -2.190   5.804  1.00  0.00     0.027 C 
BRANCH  16  17
ATOM     17  C   UNL     1     -11.487  -2.605   6.969  1.00  0.00    -0.003 A 
ATOM     18  C   UNL     1     -11.624  -3.952   7.348  1.00  0.00    -0.041 A 
ATOM     19  C   UNL     1     -12.184  -1.660   7.738  1.00  0.00     0.119 A 
ATOM     20  C   UNL     1     -12.422  -4.262   8.459  1.00  0.00     0.024 A 
ATOM     21  N   UNL     1     -12.944  -1.940   8.823  1.00  0.00    -0.264 NA
ATOM     22  C   UNL     1     -13.042  -3.238   9.159  1.00  0.00     0.111 A 
ATOM     23  C   UNL     1     -10.977  -5.072   6.584  1.00  0.00     0.045 C 
ENDBRANCH  16  17
ENDBRANCH  15  16
ENDBRANCH  13  15
ENDBRANCH   4  13
TORSDOF 8
ENDMDL
MODEL 4
REMARK VINA RESULT:    -5.651      3.797      5.401
REMARK INTER + INTRA:          -8.819
REMARK INTER:                  -7.944
REMARK INTRA:                  -0.875
REMARK UNBOUND:                -0.690
REMARK SMILES Cc1ccncc1/C=C/Nc1ccc(CCCN)cc1
REMARK SMILES IDX 14 1 13 2 12 3 11 4 20 5 19 6 15 7 16 8 17 9 18 10 10 13
REMARK SMILES IDX 9 15 8 16 7 17 2 18 6 19 3 20 5 21 4 22 1 23
REMARK H PARENT 18 11 18 12 10 14
ROOT
ATOM      1  C   UNL     1     -11.143  -4.218   6.608  1.00  0.00    -0.048 A 
ATOM      2  C   UNL     1     -11.521  -2.989   7.153  1.00  0.00     0.006 A 
ATOM      3  C   UNL     1     -11.331  -1.808   6.441  1.00  0.00     0.026 A 
ATOM      4  C   UNL     1     -10.692  -1.796   5.199  1.00  0.00     0.038 A 
ATOM      5  C   UNL     1     -10.262  -3.021   4.677  1.00  0.00     0.026 A 
ATOM      6  C   UNL     1     -10.484  -4.219   5.372  1.00  0.00     0.006 A 
ENDROOT
BRANCH   1   7
ATOM      7  C   UNL     1     -11.435  -5.513   7.324  1.00  0.00     0.037 C 
BRANCH   7   8
ATOM      8  C   UNL     1     -12.606  -5.500   8.326  1.00  0.00     0.020 C 
BRANCH   8   9
ATOM      9  C   UNL     1     -13.402  -6.808   8.447  1.00  0.00     0.078 C 
BRANCH   9  10
ATOM     10  N   UNL     1     -13.889  -7.351   7.187  1.00  0.00    -0.330 NA
ATOM     11  H   UNL     1     -13.238  -7.127   6.436  1.00  0.00     0.118 HD
ATOM     12  H   UNL     1     -14.769  -6.904   6.928  1.00  0.00     0.118 HD
ENDBRANCH   9  10
ENDBRANCH   8   9
ENDBRANCH   7   8
ENDBRANCH   1   7
BRANCH   4  13
ATOM     13  N   UNL     1     -10.390  -0.595   4.529  1.00  0.00    -0.362 N 
ATOM     14  H   UNL     1     -10.122   0.192   5.106  1.00  0.00     0.166 HD
BRANCH  13  15
ATOM     15  C   UNL     1     -10.676  -0.340   3.214  1.00  0.00     0.083 C 
BRANCH  15  16
ATOM     16  C   UNL     1     -11.787   0.179   2.675  1.00  0.00     0.027 C 
BRANCH  16  17
ATOM     17  C   UNL     1     -12.666  -0.627   1.815  1.00  0.00    -0.003 A 
ATOM     18  C   UNL     1     -13.792  -0.087   1.170  1.00  0.00    -0.041 A 
ATOM     19  C   UNL     1     -12.432  -1.998   1.631  1.00  0.00     0.119 A 
ATOM     20  C   UNL     1     -14.591  -0.934   0.386  1.00  0.00     0.024 A 
ATOM     21  N   UNL     1     -13.181  -2.825   0.864  1.00  0.00    -0.264 NA
ATOM     22  C   UNL     1     -14.244  -2.269   0.256  1.00  0.00     0.111 A 
ATOM     23  C   UNL     1     -14.193   1.354   1.322  1.00  0.00     0.045 C 
ENDBRANCH  16  17
ENDBRANCH  15  16
ENDBRANCH  13  15
ENDBRANCH   4  13
TORSDOF 8
ENDMDL
MODEL 5
REMARK VINA RESULT:    -5.648      2.168      2.688
REMARK INTER + INTRA:          -8.814
REMARK INTER:                  -8.176
REMARK INTRA:                  -0.638
REMARK UNBOUND:                -0.690
REMARK SMILES Cc1ccncc1/C=C/Nc1ccc(CCCN)cc1
REMARK SMILES IDX 14 1 13 2 12 3 11 4 20 5 19 6 15 7 16 8 17 9 18 10 10 13
REMARK SMILES IDX 9 15 8 16 7 17 2 18 6 19 3 20 5 21 4 22 1 23
REMARK H PARENT 18 11 18 12 10 14
ROOT
ATOM      1  C   UNL     1     -10.972  -2.369   6.072  1.00  0.00    -0.048 A 
ATOM      2  C   UNL     1     -10.458  -1.129   5.687  1.00  0.00     0.006 A 
ATOM      3  C   UNL     1      -9.891  -0.954   4.429  1.00  0.00     0.026 A 
ATOM      4  C   UNL     1      -9.743  -2.020   3.538  1.00  0.00     0.038 A 
ATOM      5  C   UNL     1     -10.207  -3.277   3.943  1.00  0.00     0.026 A 
ATOM      6  C   UNL     1     -10.815  -3.451   5.196  1.00  0.00     0.006 A 
ENDROOT
BRANCH   1   7
ATOM      7  C   UNL     1     -11.679  -2.546   7.392  1.00  0.00     0.037 C 
BRANCH   7   8
ATOM      8  C   UNL     1     -12.004  -1.262   8.180  1.00  0.00     0.020 C 
BRANCH   8   9
ATOM      9  C   UNL     1     -11.307  -1.113   9.541  1.00  0.00     0.078 C 
BRANCH   9  10
ATOM     10  N   UNL     1     -10.514   0.098   9.696  1.00  0.00    -0.330 NA
ATOM     11  H   UNL     1     -10.043   0.093  10.600  1.00  0.00     0.118 HD
ATOM     12  H   UNL     1     -11.122   0.918   9.709  1.00  0.00     0.118 HD
ENDBRANCH   9  10
ENDBRANCH   8   9
ENDBRANCH   7   8
ENDBRANCH   1   7
BRANCH   4  13
ATOM     13  N   UNL     1      -9.064  -1.877   2.312  1.00  0.00    -0.362 N 
ATOM     14  H   UNL     1      -9.538  -1.350   1.589  1.00  0.00     0.166 HD
BRANCH  13  15
ATOM     15  C   UNL     1      -7.959  -2.597   1.942  1.00  0.00     0.083 C 
BRANCH  15  16
ATOM     16  C   UNL     1      -7.014  -2.292   1.042  1.00  0.00     0.027 C 
BRANCH  16  17
ATOM     17  C   UNL     1      -5.917  -1.370   1.372  1.00  0.00    -0.003 A 
ATOM     18  C   UNL     1      -4.630  -1.822   1.715  1.00  0.00    -0.041 A 
ATOM     19  C   UNL     1      -6.125   0.017   1.395  1.00  0.00     0.119 A 
ATOM     20  C   UNL     1      -3.647  -0.874   2.039  1.00  0.00     0.024 A 
ATOM     21  N   UNL     1      -5.184   0.945   1.688  1.00  0.00    -0.264 NA
ATOM     22  C   UNL     1      -3.964   0.475   2.001  1.00  0.00     0.111 A 
ATOM     23  C   UNL     1      -4.281  -3.282   1.783  1.00  0.00     0.045 C 
ENDBRANCH  16  17
ENDBRANCH  15  16
ENDBRANCH  13  15
ENDBRANCH   4  13
TORSDOF 8
ENDMDL
MODEL 6
REMARK VINA RESULT:    -5.636      3.964      5.402
REMARK INTER + INTRA:          -8.797
REMARK INTER:                  -8.163
REMARK INTRA:                  -0.634
REMARK UNBOUND:                -0.690
REMARK SMILES Cc1ccncc1/C=C/Nc1ccc(CCCN)cc1
REMARK SMILES IDX 14 1 13 2 12 3 11 4 20 5 19 6 15 7 16 8 17 9 18 10 10 13
REMARK SMILES IDX 9 15 8 16 7 17 2 18 6 19 3 20 5 21 4 22 1 23
REMARK H PARENT 18 11 18 12 10 14
ROOT
ATOM      1  C   UNL     1     -12.026  -1.471   2.103  1.00  0.00    -0.048 A 
ATOM      2  C   UNL     1     -11.078  -2.494   2.056  1.00  0.00     0.006 A 
ATOM      3  C   UNL     1      -9.942  -2.449   2.860  1.00  0.00     0.026 A 
ATOM      4  C   UNL     1      -9.670  -1.351   3.680  1.00  0.00     0.038 A 
ATOM      5  C   UNL     1     -10.593  -0.298   3.686  1.00  0.00     0.026 A 
ATOM      6  C   UNL     1     -11.758  -0.356   2.907  1.00  0.00     0.006 A 
ENDROOT
BRANCH   1   7
ATOM      7  C   UNL     1     -13.308  -1.558   1.313  1.00  0.00     0.037 C 
BRANCH   7   8
ATOM      8  C   UNL     1     -13.630  -2.918   0.664  1.00  0.00     0.020 C 
BRANCH   8   9
ATOM      9  C   UNL     1     -13.732  -2.925  -0.868  1.00  0.00     0.078 C 
BRANCH   9  10
ATOM     10  N   UNL     1     -12.906  -3.922  -1.535  1.00  0.00    -0.330 NA
ATOM     11  H   UNL     1     -12.552  -4.593  -0.855  1.00  0.00     0.118 HD
ATOM     12  H   UNL     1     -12.080  -3.481  -1.940  1.00  0.00     0.118 HD
ENDBRANCH   9  10
ENDBRANCH   8   9
ENDBRANCH   7   8
ENDBRANCH   1   7
BRANCH   4  13
ATOM     13  N   UNL     1      -8.468  -1.244   4.405  1.00  0.00    -0.362 N 
ATOM     14  H   UNL     1      -8.285  -1.965   5.092  1.00  0.00     0.166 HD
BRANCH  13  15
ATOM     15  C   UNL     1      -7.671  -0.130   4.439  1.00  0.00     0.083 C 
BRANCH  15  16
ATOM     16  C   UNL     1      -6.351  -0.040   4.647  1.00  0.00     0.027 C 
BRANCH  16  17
ATOM     17  C   UNL     1      -5.391  -0.689   3.742  1.00  0.00    -0.003 A 
ATOM     18  C   UNL     1      -4.607   0.037   2.828  1.00  0.00    -0.041 A 
ATOM     19  C   UNL     1      -5.245  -2.085   3.728  1.00  0.00     0.119 A 
ATOM     20  C   UNL     1      -3.733  -0.665   1.984  1.00  0.00     0.024 A 
ATOM     21  N   UNL     1      -4.395  -2.776   2.933  1.00  0.00    -0.264 NA
ATOM     22  C   UNL     1      -3.655  -2.045   2.080  1.00  0.00     0.111 A 
ATOM     23  C   UNL     1      -4.700   1.531   2.697  1.00  0.00     0.045 C 
ENDBRANCH  16  17
ENDBRANCH  15  16
ENDBRANCH  13  15
ENDBRANCH   4  13
TORSDOF 8
ENDMDL
MODEL 7
REMARK VINA RESULT:    -5.620      3.152      5.350
REMARK INTER + INTRA:          -8.774
REMARK INTER:                  -7.894
REMARK INTRA:                  -0.880
REMARK UNBOUND:                -0.690
REMARK SMILES Cc1ccncc1/C=C/Nc1ccc(CCCN)cc1
REMARK SMILES IDX 14 1 13 2 12 3 11 4 20 5 19 6 15 7 16 8 17 9 18 10 10 13
REMARK SMILES IDX 9 15 8 16 7 17 2 18 6 19 3 20 5 21 4 22 1 23
REMARK H PARENT 18 11 18 12 10 14
ROOT
ATOM      1  C   UNL     1     -11.563  -4.257   7.088  1.00  0.00    -0.048 A 
ATOM      2  C   UNL     1     -11.840  -2.893   6.973  1.00  0.00     0.006 A 
ATOM      3  C   UNL     1     -11.357  -2.158   5.894  1.00  0.00     0.026 A 
ATOM      4  C   UNL     1     -10.520  -2.732   4.934  1.00  0.00     0.038 A 
ATOM      5  C   UNL     1     -10.195  -4.086   5.079  1.00  0.00     0.026 A 
ATOM      6  C   UNL     1     -10.710  -4.841   6.144  1.00  0.00     0.006 A 
ENDROOT
BRANCH   1   7
ATOM      7  C   UNL     1     -12.163  -5.084   8.197  1.00  0.00     0.037 C 
BRANCH   7   8
ATOM      8  C   UNL     1     -11.916  -4.594   9.637  1.00  0.00     0.020 C 
BRANCH   8   9
ATOM      9  C   UNL     1     -13.164  -4.183  10.432  1.00  0.00     0.078 C 
BRANCH   9  10
ATOM     10  N   UNL     1     -13.734  -2.895  10.060  1.00  0.00    -0.330 NA
ATOM     11  H   UNL     1     -14.599  -2.735  10.574  1.00  0.00     0.118 HD
ATOM     12  H   UNL     1     -13.998  -2.899   9.075  1.00  0.00     0.118 HD
ENDBRANCH   9  10
ENDBRANCH   8   9
ENDBRANCH   7   8
ENDBRANCH   1   7
BRANCH   4  13
ATOM     13  N   UNL     1      -9.933  -1.968   3.907  1.00  0.00    -0.362 N 
ATOM     14  H   UNL     1      -9.283  -1.246   4.193  1.00  0.00     0.166 HD
BRANCH  13  15
ATOM     15  C   UNL     1     -10.355  -1.952   2.604  1.00  0.00     0.083 C 
BRANCH  15  16
ATOM     16  C   UNL     1     -11.549  -2.288   2.098  1.00  0.00     0.027 C 
BRANCH  16  17
ATOM     17  C   UNL     1     -12.575  -1.270   1.824  1.00  0.00    -0.003 A 
ATOM     18  C   UNL     1     -13.667  -1.511   0.972  1.00  0.00    -0.041 A 
ATOM     19  C   UNL     1     -12.480   0.014   2.380  1.00  0.00     0.119 A 
ATOM     20  C   UNL     1     -14.587  -0.475   0.747  1.00  0.00     0.024 A 
ATOM     21  N   UNL     1     -13.367   1.019   2.187  1.00  0.00    -0.264 NA
ATOM     22  C   UNL     1     -14.403   0.747   1.375  1.00  0.00     0.111 A 
ATOM     23  C   UNL     1     -13.864  -2.823   0.267  1.00  0.00     0.045 C 
ENDBRANCH  16  17
ENDBRANCH  15  16
ENDBRANCH  13  15
ENDBRANCH   4  13
TORSDOF 8
ENDMDL
MODEL 8
REMARK VINA RESULT:    -5.564      1.115      1.261
REMARK INTER + INTRA:          -8.693
REMARK INTER:                  -7.967
REMARK INTRA:                  -0.727
REMARK UNBOUND:                -0.690
REMARK SMILES Cc1ccncc1/C=C/Nc1ccc(CCCN)cc1
REMARK SMILES IDX 14 1 13 2 12 3 11 4 20 5 19 6 15 7 16 8 17 9 18 10 10 13
REMARK SMILES IDX 9 15 8 16 7 17 2 18 6 19 3 20 5 21 4 22 1 23
REMARK H PARENT 18 11 18 12 10 14
ROOT
ATOM      1  C   UNL     1     -11.230  -3.790   6.703  1.00  0.00    -0.048 A 
ATOM      2  C   UNL     1     -11.314  -2.406   6.870  1.00  0.00     0.006 A 
ATOM      3  C   UNL     1     -10.836  -1.542   5.889  1.00  0.00     0.026 A 
ATOM      4  C   UNL     1     -10.188  -2.018   4.746  1.00  0.00     0.038 A 
ATOM      5  C   UNL     1     -10.052  -3.404   4.605  1.00  0.00     0.026 A 
ATOM      6  C   UNL     1     -10.567  -4.281   5.572  1.00  0.00     0.006 A 
ENDROOT
BRANCH   1   7
ATOM      7  C   UNL     1     -11.835  -4.736   7.710  1.00  0.00     0.037 C 
BRANCH   7   8
ATOM      8  C   UNL     1     -11.662  -4.367   9.196  1.00  0.00     0.020 C 
BRANCH   8   9
ATOM      9  C   UNL     1     -12.957  -4.157   9.993  1.00  0.00     0.078 C 
BRANCH   9  10
ATOM     10  N   UNL     1     -13.546  -2.831   9.872  1.00  0.00    -0.330 NA
ATOM     11  H   UNL     1     -12.859  -2.177   9.499  1.00  0.00     0.118 HD
ATOM     12  H   UNL     1     -13.794  -2.471  10.794  1.00  0.00     0.118 HD
ENDBRANCH   9  10
ENDBRANCH   8   9
ENDBRANCH   7   8
ENDBRANCH   1   7
BRANCH   4  13
ATOM     13  N   UNL     1      -9.597  -1.149   3.809  1.00  0.00    -0.362 N 
ATOM     14  H   UNL     1     -10.214  -0.495   3.344  1.00  0.00     0.166 HD
BRANCH  13  15
ATOM     15  C   UNL     1      -8.333  -1.291   3.300  1.00  0.00     0.083 C 
BRANCH  15  16
ATOM     16  C   UNL     1      -7.183  -0.755   3.730  1.00  0.00     0.027 C 
BRANCH  16  17
ATOM     17  C   UNL     1      -5.889  -1.186   3.179  1.00  0.00    -0.003 A 
ATOM     18  C   UNL     1      -4.950  -0.276   2.662  1.00  0.00    -0.041 A 
ATOM     19  C   UNL     1      -5.552  -2.546   3.113  1.00  0.00     0.119 A 
ATOM     20  C   UNL     1      -3.750  -0.775   2.133  1.00  0.00     0.024 A 
ATOM     21  N   UNL     1      -4.392  -3.043   2.623  1.00  0.00    -0.264 NA
ATOM     22  C   UNL     1      -3.515  -2.141   2.146  1.00  0.00     0.111 A 
ATOM     23  C   UNL     1      -5.202   1.205   2.620  1.00  0.00     0.045 C 
ENDBRANCH  16  17
ENDBRANCH  15  16
ENDBRANCH  13  15
ENDBRANCH   4  13
TORSDOF 8
ENDMDL
MODEL 9
REMARK VINA RESULT:    -5.539      2.192      8.061
REMARK INTER + INTRA:          -8.657
REMARK INTER:                  -7.664
REMARK INTRA:                  -0.994
REMARK UNBOUND:                -0.690
REMARK SMILES Cc1ccncc1/C=C/Nc1ccc(CCCN)cc1
REMARK SMILES IDX 14 1 13 2 12 3 11 4 20 5 19 6 15 7 16 8 17 9 18 10 10 13
REMARK SMILES IDX 9 15 8 16 7 17 2 18 6 19 3 20 5 21 4 22 1 23
REMARK H PARENT 18 11 18 12 10 14
ROOT
ATOM      1  C   UNL     1      -6.518  -0.628   3.837  1.00  0.00    -0.048 A 
ATOM      2  C   UNL     1      -7.473  -1.385   3.155  1.00  0.00     0.006 A 
ATOM      3  C   UNL     1      -8.816  -1.327   3.516  1.00  0.00     0.026 A 
ATOM      4  C   UNL     1      -9.247  -0.579   4.614  1.00  0.00     0.038 A 
ATOM      5  C   UNL     1      -8.283   0.136   5.334  1.00  0.00     0.026 A 
ATOM      6  C   UNL     1      -6.933   0.112   4.951  1.00  0.00     0.006 A 
ENDROOT
BRANCH   1   7
ATOM      7  C   UNL     1      -5.077  -0.603   3.392  1.00  0.00     0.037 C 
BRANCH   7   8
ATOM      8  C   UNL     1      -4.740   0.299   2.189  1.00  0.00     0.020 C 
BRANCH   8   9
ATOM      9  C   UNL     1      -4.699   1.808   2.469  1.00  0.00     0.078 C 
BRANCH   9  10
ATOM     10  N   UNL     1      -3.842   2.205   3.577  1.00  0.00    -0.330 NA
ATOM     11  H   UNL     1      -2.913   2.442   3.232  1.00  0.00     0.118 HD
ATOM     12  H   UNL     1      -3.704   1.420   4.214  1.00  0.00     0.118 HD
ENDBRANCH   9  10
ENDBRANCH   8   9
ENDBRANCH   7   8
ENDBRANCH   1   7
BRANCH   4  13
ATOM     13  N   UNL     1     -10.583  -0.611   5.057  1.00  0.00    -0.362 N 
ATOM     14  H   UNL     1     -10.767  -0.221   5.973  1.00  0.00     0.166 HD
BRANCH  13  15
ATOM     15  C   UNL     1     -11.584  -1.341   4.473  1.00  0.00     0.083 C 
BRANCH  15  16
ATOM     16  C   UNL     1     -12.173  -2.464   4.906  1.00  0.00     0.027 C 
BRANCH  16  17
ATOM     17  C   UNL     1     -12.251  -2.781   6.340  1.00  0.00    -0.003 A 
ATOM     18  C   UNL     1     -11.494  -3.810   6.927  1.00  0.00    -0.041 A 
ATOM     19  C   UNL     1     -13.126  -2.081   7.185  1.00  0.00     0.119 A 
ATOM     20  C   UNL     1     -11.647  -4.060   8.299  1.00  0.00     0.024 A 
ATOM     21  N   UNL     1     -13.272  -2.298   8.513  1.00  0.00    -0.264 NA
ATOM     22  C   UNL     1     -12.524  -3.283   9.039  1.00  0.00     0.111 A 
ATOM     23  C   UNL     1     -10.557  -4.675   6.131  1.00  0.00     0.045 C 
ENDBRANCH  16  17
ENDBRANCH  15  16
ENDBRANCH  13  15
ENDBRANCH   4  13
TORSDOF 8
ENDMDL
