MODEL 1
REMARK VINA RESULT:    -5.140      0.000      0.000
REMARK INTER + INTRA:          -8.199
REMARK INTER:                  -7.394
REMARK INTRA:                  -0.805
REMARK UNBOUND:                -0.805
REMARK SMILES Cc1ccncc1/C=C/Nc1ccc(CCCN)cc1
REMARK SMILES IDX 14 1 13 2 12 3 11 4 20 5 19 6 15 7 16 8 17 9 18 10 10 13
REMARK SMILES IDX 9 15 8 16 7 17 2 18 6 19 3 20 5 21 4 22 1 23
REMARK H PARENT 18 11 18 12 10 14
ROOT
ATOM      1  C   UNL     1      -7.857 -12.273  -8.693  1.00  0.00    -0.048 A 
ATOM      2  C   UNL     1      -9.111 -11.657  -8.710  1.00  0.00     0.006 A 
ATOM      3  C   UNL     1      -9.335 -10.482  -7.999  1.00  0.00     0.026 A 
ATOM      4  C   UNL     1      -8.349  -9.920  -7.184  1.00  0.00     0.038 A 
ATOM      5  C   UNL     1      -7.109 -10.568  -7.121  1.00  0.00     0.026 A 
ATOM      6  C   UNL     1      -6.865 -11.731  -7.866  1.00  0.00     0.006 A 
ENDROOT
BRANCH   1   7
ATOM      7  C   UNL     1      -7.573 -13.489  -9.539  1.00  0.00     0.037 C 
BRANCH   7   8
ATOM      8  C   UNL     1      -6.902 -14.682  -8.832  1.00  0.00     0.020 C 
BRANCH   8   9
ATOM      9  C   UNL     1      -7.843 -15.640  -8.088  1.00  0.00     0.078 C 
BRANCH   9  10
ATOM     10  N   UNL     1      -8.093 -15.298  -6.695  1.00  0.00    -0.330 NA
ATOM     11  H   UNL     1      -7.705 -14.379  -6.486  1.00  0.00     0.118 HD
ATOM     12  H   UNL     1      -7.603 -15.948  -6.080  1.00  0.00     0.118 HD
ENDBRANCH   9  10
ENDBRANCH   8   9
ENDBRANCH   7   8
ENDBRANCH   1   7
BRANCH   4  13
ATOM     13  N   UNL     1      -8.606  -8.801  -6.369  1.00  0.00    -0.362 N 
ATOM     14  H   UNL     1      -8.212  -7.919  -6.673  1.00  0.00     0.166 HD
BRANCH  13  15
ATOM     15  C   UNL     1      -9.111  -8.858  -5.097  1.00  0.00     0.083 C 
BRANCH  15  16
ATOM     16  C   UNL     1      -9.071  -7.933  -4.129  1.00  0.00     0.027 C 
BRANCH  16  17
ATOM     17  C   UNL     1      -7.989  -7.920  -3.133  1.00  0.00    -0.003 A 
ATOM     18  C   UNL     1      -7.171  -6.795  -2.923  1.00  0.00    -0.041 A 
ATOM     19  C   UNL     1      -7.701  -9.060  -2.368  1.00  0.00     0.119 A 
ATOM     20  C   UNL     1      -6.146  -6.876  -1.969  1.00  0.00     0.024 A 
ATOM     21  N   UNL     1      -6.728  -9.149  -1.431  1.00  0.00    -0.264 NA
ATOM     22  C   UNL     1      -5.974  -8.050  -1.252  1.00  0.00     0.111 A 
ATOM     23  C   UNL     1      -7.333  -5.525  -3.710  1.00  0.00     0.045 C 
ENDBRANCH  16  17
ENDBRANCH  15  16
ENDBRANCH  13  15
ENDBRANCH   4  13
TORSDOF 8
ENDMDL
MODEL 2
REMARK VINA RESULT:    -4.953      1.370      2.410
REMARK INTER + INTRA:          -7.929
REMARK INTER:                  -7.275
REMARK INTRA:                  -0.654
REMARK UNBOUND:                -0.805
REMARK SMILES Cc1ccncc1/C=C/Nc1ccc(CCCN)cc1
REMARK SMILES IDX 14 1 13 2 12 3 11 4 20 5 19 6 15 7 16 8 17 9 18 10 10 13
REMARK SMILES IDX 9 15 8 16 7 17 2 18 6 19 3 20 5 21 4 22 1 23
REMARK H PARENT 18 11 18 12 10 14
ROOT
ATOM      1  C   UNL     1      -7.828 -12.280  -8.579  1.00  0.00    -0.048 A 
ATOM      2  C   UNL     1      -6.820 -11.716  -7.795  1.00  0.00     0.006 A 
ATOM      3  C   UNL     1      -7.065 -10.577  -7.033  1.00  0.00     0.026 A 
ATOM      4  C   UNL     1      -8.293  -9.913  -7.084  1.00  0.00     0.038 A 
ATOM      5  C   UNL     1      -9.287 -10.445  -7.914  1.00  0.00     0.026 A 
ATOM      6  C   UNL     1      -9.058 -11.615  -8.654  1.00  0.00     0.006 A 
ENDROOT
BRANCH   1   7
ATOM      7  C   UNL     1      -7.605 -13.569  -9.329  1.00  0.00     0.037 C 
BRANCH   7   8
ATOM      8  C   UNL     1      -6.729 -14.630  -8.634  1.00  0.00     0.020 C 
BRANCH   8   9
ATOM      9  C   UNL     1      -7.482 -15.770  -7.931  1.00  0.00     0.078 C 
BRANCH   9  10
ATOM     10  N   UNL     1      -8.234 -15.373  -6.750  1.00  0.00    -0.330 NA
ATOM     11  H   UNL     1      -8.511 -16.198  -6.219  1.00  0.00     0.118 HD
ATOM     12  H   UNL     1      -9.106 -14.919  -7.024  1.00  0.00     0.118 HD
ENDBRANCH   9  10
ENDBRANCH   8   9
ENDBRANCH   7   8
ENDBRANCH   1   7
BRANCH   4  13
ATOM     13  N   UNL     1      -8.509  -8.696  -6.410  1.00  0.00    -0.362 N 
ATOM     14  H   UNL     1      -8.181  -7.857  -6.872  1.00  0.00     0.166 HD
BRANCH  13  15
ATOM     15  C   UNL     1      -8.884  -8.584  -5.097  1.00  0.00     0.083 C 
BRANCH  15  16
ATOM     16  C   UNL     1      -8.179  -8.130  -4.052  1.00  0.00     0.027 C 
BRANCH  16  17
ATOM     17  C   UNL     1      -7.795  -6.714  -3.949  1.00  0.00    -0.003 A 
ATOM     18  C   UNL     1      -6.934  -6.238  -2.945  1.00  0.00    -0.041 A 
ATOM     19  C   UNL     1      -8.311  -5.762  -4.841  1.00  0.00     0.119 A 
ATOM     20  C   UNL     1      -6.638  -4.867  -2.905  1.00  0.00     0.024 A 
ATOM     21  N   UNL     1      -8.023  -4.440  -4.827  1.00  0.00    -0.264 NA
ATOM     22  C   UNL     1      -7.188  -4.024  -3.858  1.00  0.00     0.111 A 
ATOM     23  C   UNL     1      -6.350  -7.138  -1.892  1.00  0.00     0.045 C 
ENDBRANCH  16  17
ENDBRANCH  15  16
ENDBRANCH  13  15
ENDBRANCH   4  13
TORSDOF 8
ENDMDL
MODEL 3
REMARK VINA RESULT:    -4.889      2.061      8.432
REMARK INTER + INTRA:          -7.837
REMARK INTER:                  -7.296
REMARK INTRA:                  -0.541
REMARK UNBOUND:                -0.805
REMARK SMILES Cc1ccncc1/C=C/Nc1ccc(CCCN)cc1
REMARK SMILES IDX 14 1 13 2 12 3 11 4 20 5 19 6 15 7 16 8 17 9 18 10 10 13
REMARK SMILES IDX 9 15 8 16 7 17 2 18 6 19 3 20 5 21 4 22 1 23
REMARK H PARENT 18 11 18 12 10 14
ROOT
ATOM      1  C   UNL     1      -7.442  -6.481  -2.567  1.00  0.00    -0.048 A 
ATOM      2  C   UNL     1      -7.806  -6.000  -3.827  1.00  0.00     0.006 A 
ATOM      3  C   UNL     1      -8.350  -6.853  -4.783  1.00  0.00     0.026 A 
ATOM      4  C   UNL     1      -8.479  -8.225  -4.551  1.00  0.00     0.038 A 
ATOM      5  C   UNL     1      -8.062  -8.718  -3.309  1.00  0.00     0.026 A 
ATOM      6  C   UNL     1      -7.548  -7.857  -2.328  1.00  0.00     0.006 A 
ENDROOT
BRANCH   1   7
ATOM      7  C   UNL     1      -6.946  -5.550  -1.490  1.00  0.00     0.037 C 
BRANCH   7   8
ATOM      8  C   UNL     1      -5.862  -6.101  -0.544  1.00  0.00     0.020 C 
BRANCH   8   9
ATOM      9  C   UNL     1      -5.960  -5.659   0.924  1.00  0.00     0.078 C 
BRANCH   9  10
ATOM     10  N   UNL     1      -5.668  -4.253   1.164  1.00  0.00    -0.330 NA
ATOM     11  H   UNL     1      -6.454  -3.809   1.638  1.00  0.00     0.118 HD
ATOM     12  H   UNL     1      -5.570  -3.758   0.277  1.00  0.00     0.118 HD
ENDBRANCH   9  10
ENDBRANCH   8   9
ENDBRANCH   7   8
ENDBRANCH   1   7
BRANCH   4  13
ATOM     13  N   UNL     1      -8.917  -9.111  -5.555  1.00  0.00    -0.362 N 
ATOM     14  H   UNL     1      -9.571  -9.829  -5.272  1.00  0.00     0.166 HD
BRANCH  13  15
ATOM     15  C   UNL     1      -8.343  -9.237  -6.792  1.00  0.00     0.083 C 
BRANCH  15  16
ATOM     16  C   UNL     1      -7.895 -10.339  -7.408  1.00  0.00     0.027 C 
BRANCH  16  17
ATOM     17  C   UNL     1      -8.812 -11.231  -8.134  1.00  0.00    -0.003 A 
ATOM     18  C   UNL     1      -8.360 -12.349  -8.858  1.00  0.00    -0.041 A 
ATOM     19  C   UNL     1     -10.191 -10.976  -8.164  1.00  0.00     0.119 A 
ATOM     20  C   UNL     1      -9.301 -13.133  -9.542  1.00  0.00     0.024 A 
ATOM     21  N   UNL     1     -11.114 -11.732  -8.804  1.00  0.00    -0.264 NA
ATOM     22  C   UNL     1     -10.644 -12.798  -9.477  1.00  0.00     0.111 A 
ATOM     23  C   UNL     1      -6.905 -12.709  -8.957  1.00  0.00     0.045 C 
ENDBRANCH  16  17
ENDBRANCH  15  16
ENDBRANCH  13  15
ENDBRANCH   4  13
TORSDOF 8
ENDMDL
MODEL 4
REMARK VINA RESULT:    -4.818      2.461      8.362
REMARK INTER + INTRA:          -7.736
REMARK INTER:                  -7.067
REMARK INTRA:                  -0.669
REMARK UNBOUND:                -0.805
REMARK SMILES Cc1ccncc1/C=C/Nc1ccc(CCCN)cc1
REMARK SMILES IDX 14 1 13 2 12 3 11 4 20 5 19 6 15 7 16 8 17 9 18 10 10 13
REMARK SMILES IDX 9 15 8 16 7 17 2 18 6 19 3 20 5 21 4 22 1 23
REMARK H PARENT 18 11 18 12 10 14
ROOT
ATOM      1  C   UNL     1      -7.414  -5.396  -3.536  1.00  0.00    -0.048 A 
ATOM      2  C   UNL     1      -8.140  -5.268  -4.723  1.00  0.00     0.006 A 
ATOM      3  C   UNL     1      -8.749  -6.375  -5.306  1.00  0.00     0.026 A 
ATOM      4  C   UNL     1      -8.596  -7.658  -4.777  1.00  0.00     0.038 A 
ATOM      5  C   UNL     1      -7.822  -7.797  -3.619  1.00  0.00     0.026 A 
ATOM      6  C   UNL     1      -7.237  -6.679  -3.005  1.00  0.00     0.006 A 
ENDROOT
BRANCH   1   7
ATOM      7  C   UNL     1      -6.835  -4.190  -2.841  1.00  0.00     0.037 C 
BRANCH   7   8
ATOM      8  C   UNL     1      -5.299  -4.123  -2.736  1.00  0.00     0.020 C 
BRANCH   8   9
ATOM      9  C   UNL     1      -4.549  -3.799  -4.037  1.00  0.00     0.078 C 
BRANCH   9  10
ATOM     10  N   UNL     1      -4.513  -2.388  -4.392  1.00  0.00    -0.330 NA
ATOM     11  H   UNL     1      -4.886  -1.826  -3.628  1.00  0.00     0.118 HD
ATOM     12  H   UNL     1      -5.128  -2.210  -5.187  1.00  0.00     0.118 HD
ENDBRANCH   9  10
ENDBRANCH   8   9
ENDBRANCH   7   8
ENDBRANCH   1   7
BRANCH   4  13
ATOM     13  N   UNL     1      -9.109  -8.797  -5.427  1.00  0.00    -0.362 N 
ATOM     14  H   UNL     1     -10.049  -9.078  -5.177  1.00  0.00     0.166 HD
BRANCH  13  15
ATOM     15  C   UNL     1      -8.363  -9.684  -6.157  1.00  0.00     0.083 C 
BRANCH  15  16
ATOM     16  C   UNL     1      -8.338  -9.878  -7.482  1.00  0.00     0.027 C 
BRANCH  16  17
ATOM     17  C   UNL     1      -9.101 -10.969  -8.107  1.00  0.00    -0.003 A 
ATOM     18  C   UNL     1      -8.479 -12.088  -8.688  1.00  0.00    -0.041 A 
ATOM     19  C   UNL     1     -10.501 -10.917  -8.182  1.00  0.00     0.119 A 
ATOM     20  C   UNL     1      -9.282 -13.072  -9.284  1.00  0.00     0.024 A 
ATOM     21  N   UNL     1     -11.292 -11.865  -8.737  1.00  0.00    -0.264 NA
ATOM     22  C   UNL     1     -10.660 -12.924  -9.274  1.00  0.00     0.111 A 
ATOM     23  C   UNL     1      -6.985 -12.249  -8.727  1.00  0.00     0.045 C 
ENDBRANCH  16  17
ENDBRANCH  15  16
ENDBRANCH  13  15
ENDBRANCH   4  13
TORSDOF 8
ENDMDL
MODEL 5
REMARK VINA RESULT:    -4.804      2.338      8.286
REMARK INTER + INTRA:          -7.715
REMARK INTER:                  -7.090
REMARK INTRA:                  -0.625
REMARK UNBOUND:                -0.805
REMARK SMILES Cc1ccncc1/C=C/Nc1ccc(CCCN)cc1
REMARK SMILES IDX 14 1 13 2 12 3 11 4 20 5 19 6 15 7 16 8 17 9 18 10 10 13
REMARK SMILES IDX 9 15 8 16 7 17 2 18 6 19 3 20 5 21 4 22 1 23
REMARK H PARENT 18 11 18 12 10 14
ROOT
ATOM      1  C   UNL     1      -7.241  -5.442  -3.244  1.00  0.00    -0.048 A 
ATOM      2  C   UNL     1      -7.913  -5.337  -4.464  1.00  0.00     0.006 A 
ATOM      3  C   UNL     1      -8.545  -6.443  -5.024  1.00  0.00     0.026 A 
ATOM      4  C   UNL     1      -8.468  -7.707  -4.435  1.00  0.00     0.038 A 
ATOM      5  C   UNL     1      -7.747  -7.826  -3.241  1.00  0.00     0.026 A 
ATOM      6  C   UNL     1      -7.139  -6.707  -2.652  1.00  0.00     0.006 A 
ENDROOT
BRANCH   1   7
ATOM      7  C   UNL     1      -6.639  -4.231  -2.578  1.00  0.00     0.037 C 
BRANCH   7   8
ATOM      8  C   UNL     1      -5.102  -4.120  -2.603  1.00  0.00     0.020 C 
BRANCH   8   9
ATOM      9  C   UNL     1      -4.473  -3.794  -3.965  1.00  0.00     0.078 C 
BRANCH   9  10
ATOM     10  N   UNL     1      -4.561  -2.397  -4.366  1.00  0.00    -0.330 NA
ATOM     11  H   UNL     1      -3.640  -1.962  -4.320  1.00  0.00     0.118 HD
ATOM     12  H   UNL     1      -5.141  -1.878  -3.707  1.00  0.00     0.118 HD
ENDBRANCH   9  10
ENDBRANCH   8   9
ENDBRANCH   7   8
ENDBRANCH   1   7
BRANCH   4  13
ATOM     13  N   UNL     1      -9.003  -8.852  -5.056  1.00  0.00    -0.362 N 
ATOM     14  H   UNL     1      -9.839  -9.245  -4.641  1.00  0.00     0.166 HD
BRANCH  13  15
ATOM     15  C   UNL     1      -8.354  -9.609  -5.995  1.00  0.00     0.083 C 
BRANCH  15  16
ATOM     16  C   UNL     1      -8.606  -9.730  -7.305  1.00  0.00     0.027 C 
BRANCH  16  17
ATOM     17  C   UNL     1      -8.410 -11.010  -8.003  1.00  0.00    -0.003 A 
ATOM     18  C   UNL     1      -9.476 -11.729  -8.573  1.00  0.00    -0.041 A 
ATOM     19  C   UNL     1      -7.136 -11.591  -8.097  1.00  0.00     0.119 A 
ATOM     20  C   UNL     1      -9.202 -12.955  -9.200  1.00  0.00     0.024 A 
ATOM     21  N   UNL     1      -6.853 -12.762  -8.713  1.00  0.00    -0.264 NA
ATOM     22  C   UNL     1      -7.896 -13.415  -9.254  1.00  0.00     0.111 A 
ATOM     23  C   UNL     1     -10.899 -11.252  -8.500  1.00  0.00     0.045 C 
ENDBRANCH  16  17
ENDBRANCH  15  16
ENDBRANCH  13  15
ENDBRANCH   4  13
TORSDOF 8
ENDMDL
MODEL 6
REMARK VINA RESULT:    -4.730      1.757      8.288
REMARK INTER + INTRA:          -7.608
REMARK INTER:                  -7.088
REMARK INTRA:                  -0.520
REMARK UNBOUND:                -0.805
REMARK SMILES Cc1ccncc1/C=C/Nc1ccc(CCCN)cc1
REMARK SMILES IDX 14 1 13 2 12 3 11 4 20 5 19 6 15 7 16 8 17 9 18 10 10 13
REMARK SMILES IDX 9 15 8 16 7 17 2 18 6 19 3 20 5 21 4 22 1 23
REMARK H PARENT 18 11 18 12 10 14
ROOT
ATOM      1  C   UNL     1      -7.485  -6.626  -2.935  1.00  0.00    -0.048 A 
ATOM      2  C   UNL     1      -7.983  -6.195  -4.166  1.00  0.00     0.006 A 
ATOM      3  C   UNL     1      -8.633  -7.081  -5.020  1.00  0.00     0.026 A 
ATOM      4  C   UNL     1      -8.743  -8.441  -4.717  1.00  0.00     0.038 A 
ATOM      5  C   UNL     1      -8.194  -8.886  -3.508  1.00  0.00     0.026 A 
ATOM      6  C   UNL     1      -7.572  -7.989  -2.627  1.00  0.00     0.006 A 
ENDROOT
BRANCH   1   7
ATOM      7  C   UNL     1      -6.869  -5.655  -1.959  1.00  0.00     0.037 C 
BRANCH   7   8
ATOM      8  C   UNL     1      -6.117  -6.264  -0.759  1.00  0.00     0.020 C 
BRANCH   8   9
ATOM      9  C   UNL     1      -6.097  -5.418   0.523  1.00  0.00     0.078 C 
BRANCH   9  10
ATOM     10  N   UNL     1      -5.054  -5.769   1.475  1.00  0.00    -0.330 NA
ATOM     11  H   UNL     1      -5.341  -6.578   2.025  1.00  0.00     0.118 HD
ATOM     12  H   UNL     1      -4.924  -5.013   2.148  1.00  0.00     0.118 HD
ENDBRANCH   9  10
ENDBRANCH   8   9
ENDBRANCH   7   8
ENDBRANCH   1   7
BRANCH   4  13
ATOM     13  N   UNL     1      -9.293  -9.364  -5.627  1.00  0.00    -0.362 N 
ATOM     14  H   UNL     1     -10.142  -9.834  -5.340  1.00  0.00     0.166 HD
BRANCH  13  15
ATOM     15  C   UNL     1      -8.646  -9.855  -6.730  1.00  0.00     0.083 C 
BRANCH  15  16
ATOM     16  C   UNL     1      -9.162 -10.376  -7.851  1.00  0.00     0.027 C 
BRANCH  16  17
ATOM     17  C   UNL     1      -8.616 -11.609  -8.440  1.00  0.00    -0.003 A 
ATOM     18  C   UNL     1      -9.435 -12.593  -9.021  1.00  0.00    -0.041 A 
ATOM     19  C   UNL     1      -7.239 -11.872  -8.410  1.00  0.00     0.119 A 
ATOM     20  C   UNL     1      -8.834 -13.750  -9.539  1.00  0.00     0.024 A 
ATOM     21  N   UNL     1      -6.641 -12.974  -8.920  1.00  0.00    -0.264 NA
ATOM     22  C   UNL     1      -7.456 -13.888  -9.476  1.00  0.00     0.111 A 
ATOM     23  C   UNL     1     -10.932 -12.466  -9.074  1.00  0.00     0.045 C 
ENDBRANCH  16  17
ENDBRANCH  15  16
ENDBRANCH  13  15
ENDBRANCH   4  13
TORSDOF 8
ENDMDL
MODEL 7
REMARK VINA RESULT:    -4.558      2.115      2.954
REMARK INTER + INTRA:          -7.361
REMARK INTER:                  -6.701
REMARK INTRA:                  -0.660
REMARK UNBOUND:                -0.805
REMARK SMILES Cc1ccncc1/C=C/Nc1ccc(CCCN)cc1
REMARK SMILES IDX 14 1 13 2 12 3 11 4 20 5 19 6 15 7 16 8 17 9 18 10 10 13
REMARK SMILES IDX 9 15 8 16 7 17 2 18 6 19 3 20 5 21 4 22 1 23
REMARK H PARENT 18 11 18 12 10 14
ROOT
ATOM      1  C   UNL     1      -7.943 -12.519  -9.222  1.00  0.00    -0.048 A 
ATOM      2  C   UNL     1      -9.039 -11.700  -8.939  1.00  0.00     0.006 A 
ATOM      3  C   UNL     1      -8.961 -10.727  -7.947  1.00  0.00     0.026 A 
ATOM      4  C   UNL     1      -7.822 -10.583  -7.151  1.00  0.00     0.038 A 
ATOM      5  C   UNL     1      -6.743 -11.441  -7.395  1.00  0.00     0.026 A 
ATOM      6  C   UNL     1      -6.802 -12.399  -8.419  1.00  0.00     0.006 A 
ENDROOT
BRANCH   1   7
ATOM      7  C   UNL     1      -7.981 -13.507 -10.361  1.00  0.00     0.037 C 
BRANCH   7   8
ATOM      8  C   UNL     1      -6.729 -14.384 -10.557  1.00  0.00     0.020 C 
BRANCH   8   9
ATOM      9  C   UNL     1      -6.006 -14.233 -11.904  1.00  0.00     0.078 C 
BRANCH   9  10
ATOM     10  N   UNL     1      -5.004 -13.177 -11.949  1.00  0.00    -0.330 NA
ATOM     11  H   UNL     1      -4.098 -13.567 -12.205  1.00  0.00     0.118 HD
ATOM     12  H   UNL     1      -4.876 -12.775 -11.020  1.00  0.00     0.118 HD
ENDBRANCH   9  10
ENDBRANCH   8   9
ENDBRANCH   7   8
ENDBRANCH   1   7
BRANCH   4  13
ATOM     13  N   UNL     1      -7.779  -9.683  -6.069  1.00  0.00    -0.362 N 
ATOM     14  H   UNL     1      -7.060  -9.841  -5.374  1.00  0.00     0.166 HD
BRANCH  13  15
ATOM     15  C   UNL     1      -8.769  -8.790  -5.755  1.00  0.00     0.083 C 
BRANCH  15  16
ATOM     16  C   UNL     1      -8.943  -8.080  -4.632  1.00  0.00     0.027 C 
BRANCH  16  17
ATOM     17  C   UNL     1      -8.385  -6.726  -4.493  1.00  0.00    -0.003 A 
ATOM     18  C   UNL     1      -7.471  -6.387  -3.479  1.00  0.00    -0.041 A 
ATOM     19  C   UNL     1      -8.778  -5.693  -5.358  1.00  0.00     0.119 A 
ATOM     20  C   UNL     1      -7.007  -5.065  -3.405  1.00  0.00     0.024 A 
ATOM     21  N   UNL     1      -8.326  -4.418  -5.311  1.00  0.00    -0.264 NA
ATOM     22  C   UNL     1      -7.446  -4.136  -4.334  1.00  0.00     0.111 A 
ATOM     23  C   UNL     1      -7.005  -7.380  -2.452  1.00  0.00     0.045 C 
ENDBRANCH  16  17
ENDBRANCH  15  16
ENDBRANCH  13  15
ENDBRANCH   4  13
TORSDOF 8
ENDMDL
MODEL 8
REMARK VINA RESULT:    -4.538      4.251      6.119
REMARK INTER + INTRA:          -7.333
REMARK INTER:                  -6.505
REMARK INTRA:                  -0.828
REMARK UNBOUND:                -0.805
REMARK SMILES Cc1ccncc1/C=C/Nc1ccc(CCCN)cc1
REMARK SMILES IDX 14 1 13 2 12 3 11 4 20 5 19 6 15 7 16 8 17 9 18 10 10 13
REMARK SMILES IDX 9 15 8 16 7 17 2 18 6 19 3 20 5 21 4 22 1 23
REMARK H PARENT 18 11 18 12 10 14
ROOT
ATOM      1  C   UNL     1     -10.209  -8.708  -3.897  1.00  0.00    -0.048 A 
ATOM      2  C   UNL     1      -9.680  -7.747  -3.033  1.00  0.00     0.006 A 
ATOM      3  C   UNL     1      -8.483  -7.103  -3.333  1.00  0.00     0.026 A 
ATOM      4  C   UNL     1      -7.731  -7.444  -4.460  1.00  0.00     0.038 A 
ATOM      5  C   UNL     1      -8.232  -8.447  -5.299  1.00  0.00     0.026 A 
ATOM      6  C   UNL     1      -9.457  -9.073  -5.021  1.00  0.00     0.006 A 
ENDROOT
BRANCH   1   7
ATOM      7  C   UNL     1     -11.553  -9.340  -3.634  1.00  0.00     0.037 C 
BRANCH   7   8
ATOM      8  C   UNL     1     -12.530  -8.543  -2.749  1.00  0.00     0.020 C 
BRANCH   8   9
ATOM      9  C   UNL     1     -14.008  -8.592  -3.164  1.00  0.00     0.078 C 
BRANCH   9  10
ATOM     10  N   UNL     1     -14.580  -7.313  -3.559  1.00  0.00    -0.330 NA
ATOM     11  H   UNL     1     -14.925  -7.366  -4.516  1.00  0.00     0.118 HD
ATOM     12  H   UNL     1     -13.857  -6.593  -3.569  1.00  0.00     0.118 HD
ENDBRANCH   9  10
ENDBRANCH   8   9
ENDBRANCH   7   8
ENDBRANCH   1   7
BRANCH   4  13
ATOM     13  N   UNL     1      -6.464  -6.882  -4.708  1.00  0.00    -0.362 N 
ATOM     14  H   UNL     1      -5.855  -7.392  -5.334  1.00  0.00     0.166 HD
BRANCH  13  15
ATOM     15  C   UNL     1      -5.906  -5.861  -3.983  1.00  0.00     0.083 C 
BRANCH  15  16
ATOM     16  C   UNL     1      -4.938  -5.912  -3.059  1.00  0.00     0.027 C 
BRANCH  16  17
ATOM     17  C   UNL     1      -5.203  -5.554  -1.657  1.00  0.00    -0.003 A 
ATOM     18  C   UNL     1      -5.662  -6.489  -0.714  1.00  0.00    -0.041 A 
ATOM     19  C   UNL     1      -5.043  -4.234  -1.209  1.00  0.00     0.119 A 
ATOM     20  C   UNL     1      -5.913  -6.057   0.597  1.00  0.00     0.024 A 
ATOM     21  N   UNL     1      -5.263  -3.803   0.055  1.00  0.00    -0.264 NA
ATOM     22  C   UNL     1      -5.691  -4.730   0.931  1.00  0.00     0.111 A 
ATOM     23  C   UNL     1      -5.929  -7.925  -1.068  1.00  0.00     0.045 C 
ENDBRANCH  16  17
ENDBRANCH  15  16
ENDBRANCH  13  15
ENDBRANCH   4  13
TORSDOF 8
ENDMDL
MODEL 9
REMARK VINA RESULT:    -4.192      4.111      5.332
REMARK INTER + INTRA:          -6.834
REMARK INTER:                  -6.187
REMARK INTRA:                  -0.648
REMARK UNBOUND:                -0.805
REMARK SMILES Cc1ccncc1/C=C/Nc1ccc(CCCN)cc1
REMARK SMILES IDX 14 1 13 2 12 3 11 4 20 5 19 6 15 7 16 8 17 9 18 10 10 13
REMARK SMILES IDX 9 15 8 16 7 17 2 18 6 19 3 20 5 21 4 22 1 23
REMARK H PARENT 18 11 18 12 10 14
ROOT
ATOM      1  C   UNL     1     -11.927  -9.697  -3.699  1.00  0.00    -0.048 A 
ATOM      2  C   UNL     1     -11.753  -8.987  -2.510  1.00  0.00     0.006 A 
ATOM      3  C   UNL     1     -10.621  -8.202  -2.310  1.00  0.00     0.026 A 
ATOM      4  C   UNL     1      -9.588  -8.156  -3.248  1.00  0.00     0.038 A 
ATOM      5  C   UNL     1      -9.735  -8.912  -4.417  1.00  0.00     0.026 A 
ATOM      6  C   UNL     1     -10.891  -9.675  -4.641  1.00  0.00     0.006 A 
ENDROOT
BRANCH   1   7
ATOM      7  C   UNL     1     -13.194 -10.470  -3.969  1.00  0.00     0.037 C 
BRANCH   7   8
ATOM      8  C   UNL     1     -13.034 -11.965  -4.307  1.00  0.00     0.020 C 
BRANCH   8   9
ATOM      9  C   UNL     1     -13.441 -12.381  -5.728  1.00  0.00     0.078 C 
BRANCH   9  10
ATOM     10  N   UNL     1     -12.499 -13.261  -6.404  1.00  0.00    -0.330 NA
ATOM     11  H   UNL     1     -11.549 -13.060  -6.095  1.00  0.00     0.118 HD
ATOM     12  H   UNL     1     -12.504 -13.077  -7.408  1.00  0.00     0.118 HD
ENDBRANCH   9  10
ENDBRANCH   8   9
ENDBRANCH   7   8
ENDBRANCH   1   7
BRANCH   4  13
ATOM     13  N   UNL     1      -8.389  -7.460  -3.002  1.00  0.00    -0.362 N 
ATOM     14  H   UNL     1      -8.323  -6.522  -3.376  1.00  0.00     0.166 HD
BRANCH  13  15
ATOM     15  C   UNL     1      -7.235  -8.030  -2.532  1.00  0.00     0.083 C 
BRANCH  15  16
ATOM     16  C   UNL     1      -6.366  -7.559  -1.628  1.00  0.00     0.027 C 
BRANCH  16  17
ATOM     17  C   UNL     1      -5.668  -6.281  -1.837  1.00  0.00    -0.003 A 
ATOM     18  C   UNL     1      -5.506  -5.334  -0.810  1.00  0.00    -0.041 A 
ATOM     19  C   UNL     1      -5.162  -5.936  -3.099  1.00  0.00     0.119 A 
ATOM     20  C   UNL     1      -4.848  -4.130  -1.102  1.00  0.00     0.024 A 
ATOM     21  N   UNL     1      -4.509  -4.787  -3.393  1.00  0.00    -0.264 NA
ATOM     22  C   UNL     1      -4.365  -3.911  -2.383  1.00  0.00     0.111 A 
ATOM     23  C   UNL     1      -6.045  -5.549   0.576  1.00  0.00     0.045 C 
ENDBRANCH  16  17
ENDBRANCH  15  16
ENDBRANCH  13  15
ENDBRANCH   4  13
TORSDOF 8
ENDMDL
