MODEL 1
REMARK VINA RESULT:    -5.132      0.000      0.000
REMARK INTER + INTRA:          -7.965
REMARK INTER:                  -7.382
REMARK INTRA:                  -0.583
REMARK UNBOUND:                -0.583
REMARK SMILES Cc1ccncc1/C=C/Nc1ccc(CCCN)cc1
REMARK SMILES IDX 14 1 13 2 12 3 11 4 20 5 19 6 15 7 16 8 17 9 18 10 10 13
REMARK SMILES IDX 9 15 8 16 7 17 2 18 6 19 3 20 5 21 4 22 1 23
REMARK H PARENT 18 11 18 12 10 14
ROOT
ATOM      1  C   UNL     1       3.633  -1.711  -7.457  1.00  0.00    -0.048 A 
ATOM      2  C   UNL     1       4.307  -2.928  -7.582  1.00  0.00     0.006 A 
ATOM      3  C   UNL     1       4.624  -3.437  -8.838  1.00  0.00     0.026 A 
ATOM      4  C   UNL     1       4.218  -2.798 -10.012  1.00  0.00     0.038 A 
ATOM      5  C   UNL     1       3.492  -1.607  -9.887  1.00  0.00     0.026 A 
ATOM      6  C   UNL     1       3.202  -1.069  -8.624  1.00  0.00     0.006 A 
ENDROOT
BRANCH   1   7
ATOM      7  C   UNL     1       3.372  -1.099  -6.103  1.00  0.00     0.037 C 
BRANCH   7   8
ATOM      8  C   UNL     1       2.089  -0.258  -5.959  1.00  0.00     0.020 C 
BRANCH   8   9
ATOM      9  C   UNL     1       2.262   1.132  -5.331  1.00  0.00     0.078 C 
BRANCH   9  10
ATOM     10  N   UNL     1       2.426   1.138  -3.884  1.00  0.00    -0.330 NA
ATOM     11  H   UNL     1       3.012   0.355  -3.596  1.00  0.00     0.118 HD
ATOM     12  H   UNL     1       1.526   0.988  -3.428  1.00  0.00     0.118 HD
ENDBRANCH   9  10
ENDBRANCH   8   9
ENDBRANCH   7   8
ENDBRANCH   1   7
BRANCH   4  13
ATOM     13  N   UNL     1       4.431  -3.368 -11.282  1.00  0.00    -0.362 N 
ATOM     14  H   UNL     1       4.797  -2.754 -11.999  1.00  0.00     0.166 HD
BRANCH  13  15
ATOM     15  C   UNL     1       3.951  -4.586 -11.684  1.00  0.00     0.083 C 
BRANCH  15  16
ATOM     16  C   UNL     1       3.141  -4.879 -12.709  1.00  0.00     0.027 C 
BRANCH  16  17
ATOM     17  C   UNL     1       3.666  -5.468 -13.951  1.00  0.00    -0.003 A 
ATOM     18  C   UNL     1       2.874  -5.633 -15.101  1.00  0.00    -0.041 A 
ATOM     19  C   UNL     1       4.988  -5.931 -14.025  1.00  0.00     0.119 A 
ATOM     20  C   UNL     1       3.448  -6.226 -16.235  1.00  0.00     0.024 A 
ATOM     21  N   UNL     1       5.563  -6.489 -15.116  1.00  0.00    -0.264 NA
ATOM     22  C   UNL     1       4.776  -6.620 -16.199  1.00  0.00     0.111 A 
ATOM     23  C   UNL     1       1.426  -5.232 -15.145  1.00  0.00     0.045 C 
ENDBRANCH  16  17
ENDBRANCH  15  16
ENDBRANCH  13  15
ENDBRANCH   4  13
TORSDOF 8
ENDMDL
MODEL 2
REMARK VINA RESULT:    -5.125      4.565      5.941
REMARK INTER + INTRA:          -7.955
REMARK INTER:                  -7.369
REMARK INTRA:                  -0.586
REMARK UNBOUND:                -0.583
REMARK SMILES Cc1ccncc1/C=C/Nc1ccc(CCCN)cc1
REMARK SMILES IDX 14 1 13 2 12 3 11 4 20 5 19 6 15 7 16 8 17 9 18 10 10 13
REMARK SMILES IDX 9 15 8 16 7 17 2 18 6 19 3 20 5 21 4 22 1 23
REMARK H PARENT 18 11 18 12 10 14
ROOT
ATOM      1  C   UNL     1       3.231  -2.659  -7.576  1.00  0.00    -0.048 A 
ATOM      2  C   UNL     1       2.980  -1.565  -8.407  1.00  0.00     0.006 A 
ATOM      3  C   UNL     1       3.748  -1.348  -9.547  1.00  0.00     0.026 A 
ATOM      4  C   UNL     1       4.839  -2.163  -9.861  1.00  0.00     0.038 A 
ATOM      5  C   UNL     1       5.127  -3.227  -8.999  1.00  0.00     0.026 A 
ATOM      6  C   UNL     1       4.332  -3.473  -7.868  1.00  0.00     0.006 A 
ENDROOT
BRANCH   1   7
ATOM      7  C   UNL     1       2.344  -2.962  -6.395  1.00  0.00     0.037 C 
BRANCH   7   8
ATOM      8  C   UNL     1       2.965  -3.798  -5.259  1.00  0.00     0.020 C 
BRANCH   8   9
ATOM      9  C   UNL     1       2.030  -4.807  -4.576  1.00  0.00     0.078 C 
BRANCH   9  10
ATOM     10  N   UNL     1       0.847  -4.228  -3.956  1.00  0.00    -0.330 NA
ATOM     11  H   UNL     1       0.018  -4.757  -4.225  1.00  0.00     0.118 HD
ATOM     12  H   UNL     1       0.693  -3.282  -4.308  1.00  0.00     0.118 HD
ENDBRANCH   9  10
ENDBRANCH   8   9
ENDBRANCH   7   8
ENDBRANCH   1   7
BRANCH   4  13
ATOM     13  N   UNL     1       5.691  -1.880 -10.946  1.00  0.00    -0.362 N 
ATOM     14  H   UNL     1       5.908  -2.649 -11.566  1.00  0.00     0.166 HD
BRANCH  13  15
ATOM     15  C   UNL     1       6.439  -0.739 -11.076  1.00  0.00     0.083 C 
BRANCH  15  16
ATOM     16  C   UNL     1       7.771  -0.601 -11.113  1.00  0.00     0.027 C 
BRANCH  16  17
ATOM     17  C   UNL     1       8.471  -0.294 -12.370  1.00  0.00    -0.003 A 
ATOM     18  C   UNL     1       9.873  -0.303 -12.474  1.00  0.00    -0.041 A 
ATOM     19  C   UNL     1       7.756   0.063 -13.523  1.00  0.00     0.119 A 
ATOM     20  C   UNL     1      10.459   0.026 -13.705  1.00  0.00     0.024 A 
ATOM     21  N   UNL     1       8.304   0.366 -14.722  1.00  0.00    -0.264 NA
ATOM     22  C   UNL     1       9.647   0.337 -14.784  1.00  0.00     0.111 A 
ATOM     23  C   UNL     1      10.765  -0.614 -11.305  1.00  0.00     0.045 C 
ENDBRANCH  16  17
ENDBRANCH  15  16
ENDBRANCH  13  15
ENDBRANCH   4  13
TORSDOF 8
ENDMDL
MODEL 3
REMARK VINA RESULT:    -5.087      2.081      2.624
REMARK INTER + INTRA:          -7.901
REMARK INTER:                  -7.432
REMARK INTRA:                  -0.469
REMARK UNBOUND:                -0.583
REMARK SMILES Cc1ccncc1/C=C/Nc1ccc(CCCN)cc1
REMARK SMILES IDX 14 1 13 2 12 3 11 4 20 5 19 6 15 7 16 8 17 9 18 10 10 13
REMARK SMILES IDX 9 15 8 16 7 17 2 18 6 19 3 20 5 21 4 22 1 23
REMARK H PARENT 18 11 18 12 10 14
ROOT
ATOM      1  C   UNL     1       3.741  -2.396  -6.779  1.00  0.00    -0.048 A 
ATOM      2  C   UNL     1       4.590  -3.451  -7.121  1.00  0.00     0.006 A 
ATOM      3  C   UNL     1       4.969  -3.657  -8.444  1.00  0.00     0.026 A 
ATOM      4  C   UNL     1       4.459  -2.873  -9.483  1.00  0.00     0.038 A 
ATOM      5  C   UNL     1       3.564  -1.851  -9.148  1.00  0.00     0.026 A 
ATOM      6  C   UNL     1       3.208  -1.614  -7.811  1.00  0.00     0.006 A 
ENDROOT
BRANCH   1   7
ATOM      7  C   UNL     1       3.404  -2.101  -5.339  1.00  0.00     0.037 C 
BRANCH   7   8
ATOM      8  C   UNL     1       2.104  -2.721  -4.792  1.00  0.00     0.020 C 
BRANCH   8   9
ATOM      9  C   UNL     1       1.981  -4.247  -4.919  1.00  0.00     0.078 C 
BRANCH   9  10
ATOM     10  N   UNL     1       2.327  -4.994  -3.718  1.00  0.00    -0.330 NA
ATOM     11  H   UNL     1       2.583  -5.950  -3.963  1.00  0.00     0.118 HD
ATOM     12  H   UNL     1       1.514  -5.077  -3.108  1.00  0.00     0.118 HD
ENDBRANCH   9  10
ENDBRANCH   8   9
ENDBRANCH   7   8
ENDBRANCH   1   7
BRANCH   4  13
ATOM     13  N   UNL     1       4.745  -3.151 -10.833  1.00  0.00    -0.362 N 
ATOM     14  H   UNL     1       5.533  -2.664 -11.240  1.00  0.00     0.166 HD
BRANCH  13  15
ATOM     15  C   UNL     1       3.905  -3.811 -11.691  1.00  0.00     0.083 C 
BRANCH  15  16
ATOM     16  C   UNL     1       4.032  -5.033 -12.225  1.00  0.00     0.027 C 
BRANCH  16  17
ATOM     17  C   UNL     1       3.449  -5.356 -13.536  1.00  0.00    -0.003 A 
ATOM     18  C   UNL     1       4.227  -5.804 -14.618  1.00  0.00    -0.041 A 
ATOM     19  C   UNL     1       2.076  -5.191 -13.773  1.00  0.00     0.119 A 
ATOM     20  C   UNL     1       3.592  -6.067 -15.841  1.00  0.00     0.024 A 
ATOM     21  N   UNL     1       1.445  -5.457 -14.940  1.00  0.00    -0.264 NA
ATOM     22  C   UNL     1       2.222  -5.893 -15.948  1.00  0.00     0.111 A 
ATOM     23  C   UNL     1       5.717  -5.975 -14.521  1.00  0.00     0.045 C 
ENDBRANCH  16  17
ENDBRANCH  15  16
ENDBRANCH  13  15
ENDBRANCH   4  13
TORSDOF 8
ENDMDL
MODEL 4
REMARK VINA RESULT:    -5.086      1.970      8.632
REMARK INTER + INTRA:          -7.899
REMARK INTER:                  -7.220
REMARK INTRA:                  -0.679
REMARK UNBOUND:                -0.583
REMARK SMILES Cc1ccncc1/C=C/Nc1ccc(CCCN)cc1
REMARK SMILES IDX 14 1 13 2 12 3 11 4 20 5 19 6 15 7 16 8 17 9 18 10 10 13
REMARK SMILES IDX 9 15 8 16 7 17 2 18 6 19 3 20 5 21 4 22 1 23
REMARK H PARENT 18 11 18 12 10 14
ROOT
ATOM      1  C   UNL     1       2.612  -5.568 -14.698  1.00  0.00    -0.048 A 
ATOM      2  C   UNL     1       3.993  -5.668 -14.523  1.00  0.00     0.006 A 
ATOM      3  C   UNL     1       4.574  -5.406 -13.285  1.00  0.00     0.026 A 
ATOM      4  C   UNL     1       3.814  -4.962 -12.200  1.00  0.00     0.038 A 
ATOM      5  C   UNL     1       2.436  -4.807 -12.390  1.00  0.00     0.026 A 
ATOM      6  C   UNL     1       1.840  -5.107 -13.625  1.00  0.00     0.006 A 
ENDROOT
BRANCH   1   7
ATOM      7  C   UNL     1       1.961  -5.947 -16.005  1.00  0.00     0.037 C 
BRANCH   7   8
ATOM      8  C   UNL     1       0.973  -4.928 -16.606  1.00  0.00     0.020 C 
BRANCH   8   9
ATOM      9  C   UNL     1       1.517  -4.053 -17.745  1.00  0.00     0.078 C 
BRANCH   9  10
ATOM     10  N   UNL     1       2.235  -2.861 -17.316  1.00  0.00    -0.330 NA
ATOM     11  H   UNL     1       1.770  -2.446 -16.510  1.00  0.00     0.118 HD
ATOM     12  H   UNL     1       2.203  -2.150 -18.047  1.00  0.00     0.118 HD
ENDBRANCH   9  10
ENDBRANCH   8   9
ENDBRANCH   7   8
ENDBRANCH   1   7
BRANCH   4  13
ATOM     13  N   UNL     1       4.408  -4.581 -10.982  1.00  0.00    -0.362 N 
ATOM     14  H   UNL     1       4.793  -5.325 -10.412  1.00  0.00     0.166 HD
BRANCH  13  15
ATOM     15  C   UNL     1       4.279  -3.348 -10.400  1.00  0.00     0.083 C 
BRANCH  15  16
ATOM     16  C   UNL     1       4.563  -2.971  -9.146  1.00  0.00     0.027 C 
BRANCH  16  17
ATOM     17  C   UNL     1       3.643  -2.117  -8.380  1.00  0.00    -0.003 A 
ATOM     18  C   UNL     1       3.456  -2.263  -6.994  1.00  0.00    -0.041 A 
ATOM     19  C   UNL     1       2.875  -1.132  -9.019  1.00  0.00     0.119 A 
ATOM     20  C   UNL     1       2.540  -1.421  -6.346  1.00  0.00     0.024 A 
ATOM     21  N   UNL     1       2.001  -0.300  -8.406  1.00  0.00    -0.264 NA
ATOM     22  C   UNL     1       1.857  -0.464  -7.079  1.00  0.00     0.111 A 
ATOM     23  C   UNL     1       4.172  -3.313  -6.192  1.00  0.00     0.045 C 
ENDBRANCH  16  17
ENDBRANCH  15  16
ENDBRANCH  13  15
ENDBRANCH   4  13
TORSDOF 8
ENDMDL
MODEL 5
REMARK VINA RESULT:    -5.059      2.292      8.891
REMARK INTER + INTRA:          -7.860
REMARK INTER:                  -7.274
REMARK INTRA:                  -0.586
REMARK UNBOUND:                -0.583
REMARK SMILES Cc1ccncc1/C=C/Nc1ccc(CCCN)cc1
REMARK SMILES IDX 14 1 13 2 12 3 11 4 20 5 19 6 15 7 16 8 17 9 18 10 10 13
REMARK SMILES IDX 9 15 8 16 7 17 2 18 6 19 3 20 5 21 4 22 1 23
REMARK H PARENT 18 11 18 12 10 14
ROOT
ATOM      1  C   UNL     1       2.835  -6.033 -15.405  1.00  0.00    -0.048 A 
ATOM      2  C   UNL     1       4.199  -6.008 -15.108  1.00  0.00     0.006 A 
ATOM      3  C   UNL     1       4.645  -5.624 -13.846  1.00  0.00     0.026 A 
ATOM      4  C   UNL     1       3.760  -5.178 -12.862  1.00  0.00     0.038 A 
ATOM      5  C   UNL     1       2.396  -5.149 -13.177  1.00  0.00     0.026 A 
ATOM      6  C   UNL     1       1.938  -5.571 -14.434  1.00  0.00     0.006 A 
ENDROOT
BRANCH   1   7
ATOM      7  C   UNL     1       2.334  -6.543 -16.733  1.00  0.00     0.037 C 
BRANCH   7   8
ATOM      8  C   UNL     1       0.861  -6.991 -16.791  1.00  0.00     0.020 C 
BRANCH   8   9
ATOM      9  C   UNL     1       0.620  -8.469 -17.131  1.00  0.00     0.078 C 
BRANCH   9  10
ATOM     10  N   UNL     1      -0.035  -9.242 -16.085  1.00  0.00    -0.330 NA
ATOM     11  H   UNL     1      -0.603  -8.629 -15.502  1.00  0.00     0.118 HD
ATOM     12  H   UNL     1       0.661  -9.647 -15.458  1.00  0.00     0.118 HD
ENDBRANCH   9  10
ENDBRANCH   8   9
ENDBRANCH   7   8
ENDBRANCH   1   7
BRANCH   4  13
ATOM     13  N   UNL     1       4.212  -4.676 -11.626  1.00  0.00    -0.362 N 
ATOM     14  H   UNL     1       4.700  -5.327 -11.023  1.00  0.00     0.166 HD
BRANCH  13  15
ATOM     15  C   UNL     1       3.827  -3.481 -11.079  1.00  0.00     0.083 C 
BRANCH  15  16
ATOM     16  C   UNL     1       4.463  -2.720 -10.179  1.00  0.00     0.027 C 
BRANCH  16  17
ATOM     17  C   UNL     1       4.489  -3.085  -8.754  1.00  0.00    -0.003 A 
ATOM     18  C   UNL     1       3.710  -2.421  -7.791  1.00  0.00    -0.041 A 
ATOM     19  C   UNL     1       5.334  -4.104  -8.288  1.00  0.00     0.119 A 
ATOM     20  C   UNL     1       3.814  -2.818  -6.449  1.00  0.00     0.024 A 
ATOM     21  N   UNL     1       5.433  -4.512  -7.002  1.00  0.00    -0.264 NA
ATOM     22  C   UNL     1       4.665  -3.858  -6.111  1.00  0.00     0.111 A 
ATOM     23  C   UNL     1       2.801  -1.276  -8.141  1.00  0.00     0.045 C 
ENDBRANCH  16  17
ENDBRANCH  15  16
ENDBRANCH  13  15
ENDBRANCH   4  13
TORSDOF 8
ENDMDL
MODEL 6
REMARK VINA RESULT:    -5.049      2.151      8.911
REMARK INTER + INTRA:          -7.846
REMARK INTER:                  -7.198
REMARK INTRA:                  -0.648
REMARK UNBOUND:                -0.583
REMARK SMILES Cc1ccncc1/C=C/Nc1ccc(CCCN)cc1
REMARK SMILES IDX 14 1 13 2 12 3 11 4 20 5 19 6 15 7 16 8 17 9 18 10 10 13
REMARK SMILES IDX 9 15 8 16 7 17 2 18 6 19 3 20 5 21 4 22 1 23
REMARK H PARENT 18 11 18 12 10 14
ROOT
ATOM      1  C   UNL     1       2.883  -5.918 -15.170  1.00  0.00    -0.048 A 
ATOM      2  C   UNL     1       4.234  -5.852 -14.823  1.00  0.00     0.006 A 
ATOM      3  C   UNL     1       4.622  -5.439 -13.552  1.00  0.00     0.026 A 
ATOM      4  C   UNL     1       3.689  -5.003 -12.607  1.00  0.00     0.038 A 
ATOM      5  C   UNL     1       2.338  -5.014 -12.973  1.00  0.00     0.026 A 
ATOM      6  C   UNL     1       1.938  -5.466 -14.240  1.00  0.00     0.006 A 
ENDROOT
BRANCH   1   7
ATOM      7  C   UNL     1       2.445  -6.459 -16.508  1.00  0.00     0.037 C 
BRANCH   7   8
ATOM      8  C   UNL     1       0.959  -6.839 -16.648  1.00  0.00     0.020 C 
BRANCH   8   9
ATOM      9  C   UNL     1       0.671  -8.283 -17.084  1.00  0.00     0.078 C 
BRANCH   9  10
ATOM     10  N   UNL     1       0.021  -9.112 -16.078  1.00  0.00    -0.330 NA
ATOM     11  H   UNL     1      -0.975  -9.187 -16.278  1.00  0.00     0.118 HD
ATOM     12  H   UNL     1       0.083  -8.666 -15.162  1.00  0.00     0.118 HD
ENDBRANCH   9  10
ENDBRANCH   8   9
ENDBRANCH   7   8
ENDBRANCH   1   7
BRANCH   4  13
ATOM     13  N   UNL     1       4.082  -4.472 -11.363  1.00  0.00    -0.362 N 
ATOM     14  H   UNL     1       3.894  -5.041 -10.547  1.00  0.00     0.166 HD
BRANCH  13  15
ATOM     15  C   UNL     1       4.450  -3.170 -11.150  1.00  0.00     0.083 C 
BRANCH  15  16
ATOM     16  C   UNL     1       4.731  -2.549  -9.996  1.00  0.00     0.027 C 
BRANCH  16  17
ATOM     17  C   UNL     1       3.706  -1.775  -9.279  1.00  0.00    -0.003 A 
ATOM     18  C   UNL     1       3.373  -2.027  -7.936  1.00  0.00    -0.041 A 
ATOM     19  C   UNL     1       2.983  -0.764  -9.928  1.00  0.00     0.119 A 
ATOM     20  C   UNL     1       2.366  -1.257  -7.336  1.00  0.00     0.024 A 
ATOM     21  N   UNL     1       2.021   0.001  -9.359  1.00  0.00    -0.264 NA
ATOM     22  C   UNL     1       1.738  -0.264  -8.072  1.00  0.00     0.111 A 
ATOM     23  C   UNL     1       4.029  -3.117  -7.135  1.00  0.00     0.045 C 
ENDBRANCH  16  17
ENDBRANCH  15  16
ENDBRANCH  13  15
ENDBRANCH   4  13
TORSDOF 8
ENDMDL
MODEL 7
REMARK VINA RESULT:    -5.040      2.221      8.422
REMARK INTER + INTRA:          -7.834
REMARK INTER:                  -7.212
REMARK INTRA:                  -0.621
REMARK UNBOUND:                -0.583
REMARK SMILES Cc1ccncc1/C=C/Nc1ccc(CCCN)cc1
REMARK SMILES IDX 14 1 13 2 12 3 11 4 20 5 19 6 15 7 16 8 17 9 18 10 10 13
REMARK SMILES IDX 9 15 8 16 7 17 2 18 6 19 3 20 5 21 4 22 1 23
REMARK H PARENT 18 11 18 12 10 14
ROOT
ATOM      1  C   UNL     1       2.656  -5.645 -14.780  1.00  0.00    -0.048 A 
ATOM      2  C   UNL     1       4.035  -5.670 -14.556  1.00  0.00     0.006 A 
ATOM      3  C   UNL     1       4.560  -5.303 -13.321  1.00  0.00     0.026 A 
ATOM      4  C   UNL     1       3.746  -4.824 -12.292  1.00  0.00     0.038 A 
ATOM      5  C   UNL     1       2.369  -4.745 -12.534  1.00  0.00     0.026 A 
ATOM      6  C   UNL     1       1.830  -5.150 -13.764  1.00  0.00     0.006 A 
ENDROOT
BRANCH   1   7
ATOM      7  C   UNL     1       2.068  -6.137 -16.079  1.00  0.00     0.037 C 
BRANCH   7   8
ATOM      8  C   UNL     1       1.032  -5.221 -16.759  1.00  0.00     0.020 C 
BRANCH   8   9
ATOM      9  C   UNL     1       1.594  -4.183 -17.742  1.00  0.00     0.078 C 
BRANCH   9  10
ATOM     10  N   UNL     1       1.970  -2.910 -17.145  1.00  0.00    -0.330 NA
ATOM     11  H   UNL     1       1.792  -2.929 -16.142  1.00  0.00     0.118 HD
ATOM     12  H   UNL     1       1.382  -2.162 -17.513  1.00  0.00     0.118 HD
ENDBRANCH   9  10
ENDBRANCH   8   9
ENDBRANCH   7   8
ENDBRANCH   1   7
BRANCH   4  13
ATOM     13  N   UNL     1       4.281  -4.339 -11.083  1.00  0.00    -0.362 N 
ATOM     14  H   UNL     1       4.288  -4.980 -10.300  1.00  0.00     0.166 HD
BRANCH  13  15
ATOM     15  C   UNL     1       4.547  -3.021 -10.818  1.00  0.00     0.083 C 
BRANCH  15  16
ATOM     16  C   UNL     1       4.070  -2.243  -9.838  1.00  0.00     0.027 C 
BRANCH  16  17
ATOM     17  C   UNL     1       4.080  -2.690  -8.437  1.00  0.00    -0.003 A 
ATOM     18  C   UNL     1       3.250  -2.117  -7.457  1.00  0.00    -0.041 A 
ATOM     19  C   UNL     1       4.959  -3.696  -8.009  1.00  0.00     0.119 A 
ATOM     20  C   UNL     1       3.340  -2.588  -6.138  1.00  0.00     0.024 A 
ATOM     21  N   UNL     1       5.046  -4.174  -6.746  1.00  0.00    -0.264 NA
ATOM     22  C   UNL     1       4.230  -3.608  -5.839  1.00  0.00     0.111 A 
ATOM     23  C   UNL     1       2.299  -0.995  -7.764  1.00  0.00     0.045 C 
ENDBRANCH  16  17
ENDBRANCH  15  16
ENDBRANCH  13  15
ENDBRANCH   4  13
TORSDOF 8
ENDMDL
MODEL 8
REMARK VINA RESULT:    -5.015      1.233      1.776
REMARK INTER + INTRA:          -7.798
REMARK INTER:                  -7.305
REMARK INTRA:                  -0.493
REMARK UNBOUND:                -0.583
REMARK SMILES Cc1ccncc1/C=C/Nc1ccc(CCCN)cc1
REMARK SMILES IDX 14 1 13 2 12 3 11 4 20 5 19 6 15 7 16 8 17 9 18 10 10 13
REMARK SMILES IDX 9 15 8 16 7 17 2 18 6 19 3 20 5 21 4 22 1 23
REMARK H PARENT 18 11 18 12 10 14
ROOT
ATOM      1  C   UNL     1       3.657  -2.061  -6.857  1.00  0.00    -0.048 A 
ATOM      2  C   UNL     1       4.391  -3.236  -7.028  1.00  0.00     0.006 A 
ATOM      3  C   UNL     1       4.799  -3.640  -8.296  1.00  0.00     0.026 A 
ATOM      4  C   UNL     1       4.427  -2.937  -9.444  1.00  0.00     0.038 A 
ATOM      5  C   UNL     1       3.642  -1.789  -9.279  1.00  0.00     0.026 A 
ATOM      6  C   UNL     1       3.260  -1.356  -8.000  1.00  0.00     0.006 A 
ENDROOT
BRANCH   1   7
ATOM      7  C   UNL     1       3.296  -1.559  -5.481  1.00  0.00     0.037 C 
BRANCH   7   8
ATOM      8  C   UNL     1       2.038  -0.675  -5.375  1.00  0.00     0.020 C 
BRANCH   8   9
ATOM      9  C   UNL     1       2.285   0.830  -5.198  1.00  0.00     0.078 C 
BRANCH   9  10
ATOM     10  N   UNL     1       2.409   1.276  -3.818  1.00  0.00    -0.330 NA
ATOM     11  H   UNL     1       3.134   0.740  -3.342  1.00  0.00     0.118 HD
ATOM     12  H   UNL     1       1.547   1.083  -3.308  1.00  0.00     0.118 HD
ENDBRANCH   9  10
ENDBRANCH   8   9
ENDBRANCH   7   8
ENDBRANCH   1   7
BRANCH   4  13
ATOM     13  N   UNL     1       4.735  -3.404 -10.736  1.00  0.00    -0.362 N 
ATOM     14  H   UNL     1       5.650  -3.169 -11.098  1.00  0.00     0.166 HD
BRANCH  13  15
ATOM     15  C   UNL     1       3.822  -3.915 -11.621  1.00  0.00     0.083 C 
BRANCH  15  16
ATOM     16  C   UNL     1       3.759  -5.142 -12.156  1.00  0.00     0.027 C 
BRANCH  16  17
ATOM     17  C   UNL     1       3.259  -5.352 -13.523  1.00  0.00    -0.003 A 
ATOM     18  C   UNL     1       4.083  -5.815 -14.564  1.00  0.00    -0.041 A 
ATOM     19  C   UNL     1       1.929  -5.056 -13.857  1.00  0.00     0.119 A 
ATOM     20  C   UNL     1       3.531  -5.965 -15.845  1.00  0.00     0.024 A 
ATOM     21  N   UNL     1       1.376  -5.211 -15.083  1.00  0.00    -0.264 NA
ATOM     22  C   UNL     1       2.193  -5.666 -16.049  1.00  0.00     0.111 A 
ATOM     23  C   UNL     1       5.541  -6.120 -14.361  1.00  0.00     0.045 C 
ENDBRANCH  16  17
ENDBRANCH  15  16
ENDBRANCH  13  15
ENDBRANCH   4  13
TORSDOF 8
ENDMDL
MODEL 9
REMARK VINA RESULT:    -4.991      4.239      5.417
REMARK INTER + INTRA:          -7.763
REMARK INTER:                  -7.412
REMARK INTRA:                  -0.351
REMARK UNBOUND:                -0.583
REMARK SMILES Cc1ccncc1/C=C/Nc1ccc(CCCN)cc1
REMARK SMILES IDX 14 1 13 2 12 3 11 4 20 5 19 6 15 7 16 8 17 9 18 10 10 13
REMARK SMILES IDX 9 15 8 16 7 17 2 18 6 19 3 20 5 21 4 22 1 23
REMARK H PARENT 18 11 18 12 10 14
ROOT
ATOM      1  C   UNL     1       2.543  -1.798  -7.385  1.00  0.00    -0.048 A 
ATOM      2  C   UNL     1       2.337  -0.890  -8.425  1.00  0.00     0.006 A 
ATOM      3  C   UNL     1       3.111  -0.944  -9.580  1.00  0.00     0.026 A 
ATOM      4  C   UNL     1       4.166  -1.850  -9.712  1.00  0.00     0.038 A 
ATOM      5  C   UNL     1       4.411  -2.724  -8.646  1.00  0.00     0.026 A 
ATOM      6  C   UNL     1       3.609  -2.699  -7.495  1.00  0.00     0.006 A 
ENDROOT
BRANCH   1   7
ATOM      7  C   UNL     1       1.646  -1.814  -6.172  1.00  0.00     0.037 C 
BRANCH   7   8
ATOM      8  C   UNL     1       2.043  -0.888  -5.006  1.00  0.00     0.020 C 
BRANCH   8   9
ATOM      9  C   UNL     1       2.406   0.555  -5.386  1.00  0.00     0.078 C 
BRANCH   9  10
ATOM     10  N   UNL     1       1.416   1.557  -5.017  1.00  0.00    -0.330 NA
ATOM     11  H   UNL     1       0.843   1.214  -4.248  1.00  0.00     0.118 HD
ATOM     12  H   UNL     1       0.770   1.713  -5.791  1.00  0.00     0.118 HD
ENDBRANCH   9  10
ENDBRANCH   8   9
ENDBRANCH   7   8
ENDBRANCH   1   7
BRANCH   4  13
ATOM     13  N   UNL     1       5.028  -1.832 -10.826  1.00  0.00    -0.362 N 
ATOM     14  H   UNL     1       4.716  -2.332 -11.649  1.00  0.00     0.166 HD
BRANCH  13  15
ATOM     15  C   UNL     1       6.334  -1.422 -10.797  1.00  0.00     0.083 C 
BRANCH  15  16
ATOM     16  C   UNL     1       6.883  -0.309 -11.302  1.00  0.00     0.027 C 
BRANCH  16  17
ATOM     17  C   UNL     1       8.266  -0.300 -11.802  1.00  0.00    -0.003 A 
ATOM     18  C   UNL     1       8.575  -0.110 -13.161  1.00  0.00    -0.041 A 
ATOM     19  C   UNL     1       9.346  -0.523 -10.936  1.00  0.00     0.119 A 
ATOM     20  C   UNL     1       9.921  -0.140 -13.556  1.00  0.00     0.024 A 
ATOM     21  N   UNL     1      10.651  -0.538 -11.297  1.00  0.00    -0.264 NA
ATOM     22  C   UNL     1      10.906  -0.342 -12.603  1.00  0.00     0.111 A 
ATOM     23  C   UNL     1       7.514   0.086 -14.207  1.00  0.00     0.045 C 
ENDBRANCH  16  17
ENDBRANCH  15  16
ENDBRANCH  13  15
ENDBRANCH   4  13
TORSDOF 8
ENDMDL
