MODEL 1
REMARK VINA RESULT:    -5.231      0.000      0.000
REMARK INTER + INTRA:          -8.132
REMARK INTER:                  -7.524
REMARK INTRA:                  -0.608
REMARK UNBOUND:                -0.608
REMARK SMILES Cc1ccncc1/C=C/Nc1ccc(CCCN)cc1
REMARK SMILES IDX 14 1 13 2 12 3 11 4 20 5 19 6 15 7 16 8 17 9 18 10 10 13
REMARK SMILES IDX 9 15 8 16 7 17 2 18 6 19 3 20 5 21 4 22 1 23
REMARK H PARENT 18 11 18 12 10 14
ROOT
ATOM      1  C   UNL     1       5.632 -12.574  -6.877  1.00  0.00    -0.048 A 
ATOM      2  C   UNL     1       5.545 -11.607  -5.873  1.00  0.00     0.006 A 
ATOM      3  C   UNL     1       4.501 -10.687  -5.862  1.00  0.00     0.026 A 
ATOM      4  C   UNL     1       3.551 -10.645  -6.886  1.00  0.00     0.038 A 
ATOM      5  C   UNL     1       3.670 -11.578  -7.923  1.00  0.00     0.026 A 
ATOM      6  C   UNL     1       4.698 -12.532  -7.919  1.00  0.00     0.006 A 
ENDROOT
BRANCH   1   7
ATOM      7  C   UNL     1       6.700 -13.639  -6.845  1.00  0.00     0.037 C 
BRANCH   7   8
ATOM      8  C   UNL     1       6.652 -14.631  -5.666  1.00  0.00     0.020 C 
BRANCH   8   9
ATOM      9  C   UNL     1       5.926 -15.958  -5.932  1.00  0.00     0.078 C 
BRANCH   9  10
ATOM     10  N   UNL     1       4.758 -16.198  -5.095  1.00  0.00    -0.330 NA
ATOM     11  H   UNL     1       4.024 -15.527  -5.320  1.00  0.00     0.118 HD
ATOM     12  H   UNL     1       4.988 -16.033  -4.115  1.00  0.00     0.118 HD
ENDBRANCH   9  10
ENDBRANCH   8   9
ENDBRANCH   7   8
ENDBRANCH   1   7
BRANCH   4  13
ATOM     13  N   UNL     1       2.563  -9.643  -6.943  1.00  0.00    -0.362 N 
ATOM     14  H   UNL     1       2.582  -9.033  -7.751  1.00  0.00     0.166 HD
BRANCH  13  15
ATOM     15  C   UNL     1       1.762  -9.273  -5.896  1.00  0.00     0.083 C 
BRANCH  15  16
ATOM     16  C   UNL     1       0.903  -8.249  -5.809  1.00  0.00     0.027 C 
BRANCH  16  17
ATOM     17  C   UNL     1       0.635  -7.585  -4.524  1.00  0.00    -0.003 A 
ATOM     18  C   UNL     1       0.345  -6.213  -4.430  1.00  0.00    -0.041 A 
ATOM     19  C   UNL     1       0.697  -8.301  -3.319  1.00  0.00     0.119 A 
ATOM     20  C   UNL     1       0.126  -5.656  -3.161  1.00  0.00     0.024 A 
ATOM     21  N   UNL     1       0.470  -7.783  -2.088  1.00  0.00    -0.264 NA
ATOM     22  C   UNL     1       0.187  -6.470  -2.040  1.00  0.00     0.111 A 
ATOM     23  C   UNL     1       0.300  -5.315  -5.634  1.00  0.00     0.045 C 
ENDBRANCH  16  17
ENDBRANCH  15  16
ENDBRANCH  13  15
ENDBRANCH   4  13
TORSDOF 8
ENDMDL
MODEL 2
REMARK VINA RESULT:    -5.210      4.886      6.768
REMARK INTER + INTRA:          -8.102
REMARK INTER:                  -7.464
REMARK INTRA:                  -0.638
REMARK UNBOUND:                -0.608
REMARK SMILES Cc1ccncc1/C=C/Nc1ccc(CCCN)cc1
REMARK SMILES IDX 14 1 13 2 12 3 11 4 20 5 19 6 15 7 16 8 17 9 18 10 10 13
REMARK SMILES IDX 9 15 8 16 7 17 2 18 6 19 3 20 5 21 4 22 1 23
REMARK H PARENT 18 11 18 12 10 14
ROOT
ATOM      1  C   UNL     1      -3.404 -12.782  -7.872  1.00  0.00    -0.048 A 
ATOM      2  C   UNL     1      -2.419 -13.564  -7.265  1.00  0.00     0.006 A 
ATOM      3  C   UNL     1      -1.624 -13.042  -6.248  1.00  0.00     0.026 A 
ATOM      4  C   UNL     1      -1.726 -11.706  -5.852  1.00  0.00     0.038 A 
ATOM      5  C   UNL     1      -2.675 -10.906  -6.499  1.00  0.00     0.026 A 
ATOM      6  C   UNL     1      -3.505 -11.437  -7.498  1.00  0.00     0.006 A 
ENDROOT
BRANCH   1   7
ATOM      7  C   UNL     1      -4.338 -13.365  -8.903  1.00  0.00     0.037 C 
BRANCH   7   8
ATOM      8  C   UNL     1      -4.271 -12.759 -10.318  1.00  0.00     0.020 C 
BRANCH   8   9
ATOM      9  C   UNL     1      -3.406 -13.517 -11.335  1.00  0.00     0.078 C 
BRANCH   9  10
ATOM     10  N   UNL     1      -2.237 -12.791 -11.810  1.00  0.00    -0.330 NA
ATOM     11  H   UNL     1      -2.518 -11.890 -12.194  1.00  0.00     0.118 HD
ATOM     12  H   UNL     1      -1.801 -13.294 -12.583  1.00  0.00     0.118 HD
ENDBRANCH   9  10
ENDBRANCH   8   9
ENDBRANCH   7   8
ENDBRANCH   1   7
BRANCH   4  13
ATOM     13  N   UNL     1      -0.846 -11.141  -4.909  1.00  0.00    -0.362 N 
ATOM     14  H   UNL     1      -0.955 -11.441  -3.949  1.00  0.00     0.166 HD
BRANCH  13  15
ATOM     15  C   UNL     1      -0.048 -10.051  -5.139  1.00  0.00     0.083 C 
BRANCH  15  16
ATOM     16  C   UNL     1       0.655  -9.318  -4.265  1.00  0.00     0.027 C 
BRANCH  16  17
ATOM     17  C   UNL     1       0.654  -7.849  -4.329  1.00  0.00    -0.003 A 
ATOM     18  C   UNL     1       0.684  -7.044  -3.176  1.00  0.00    -0.041 A 
ATOM     19  C   UNL     1       0.584  -7.182  -5.561  1.00  0.00     0.119 A 
ATOM     20  C   UNL     1       0.657  -5.649  -3.327  1.00  0.00     0.024 A 
ATOM     21  N   UNL     1       0.575  -5.839  -5.726  1.00  0.00    -0.264 NA
ATOM     22  C   UNL     1       0.615  -5.103  -4.601  1.00  0.00     0.111 A 
ATOM     23  C   UNL     1       0.706  -7.624  -1.790  1.00  0.00     0.045 C 
ENDBRANCH  16  17
ENDBRANCH  15  16
ENDBRANCH  13  15
ENDBRANCH   4  13
TORSDOF 8
ENDMDL
MODEL 3
REMARK VINA RESULT:    -5.105      4.990      8.493
REMARK INTER + INTRA:          -7.951
REMARK INTER:                  -7.353
REMARK INTRA:                  -0.598
REMARK UNBOUND:                -0.608
REMARK SMILES Cc1ccncc1/C=C/Nc1ccc(CCCN)cc1
REMARK SMILES IDX 14 1 13 2 12 3 11 4 20 5 19 6 15 7 16 8 17 9 18 10 10 13
REMARK SMILES IDX 9 15 8 16 7 17 2 18 6 19 3 20 5 21 4 22 1 23
REMARK H PARENT 18 11 18 12 10 14
ROOT
ATOM      1  C   UNL     1       1.035  -7.518  -4.376  1.00  0.00    -0.048 A 
ATOM      2  C   UNL     1       0.651  -8.595  -3.575  1.00  0.00     0.006 A 
ATOM      3  C   UNL     1       0.223  -9.789  -4.148  1.00  0.00     0.026 A 
ATOM      4  C   UNL     1       0.087  -9.930  -5.532  1.00  0.00     0.038 A 
ATOM      5  C   UNL     1       0.418  -8.831  -6.334  1.00  0.00     0.026 A 
ATOM      6  C   UNL     1       0.886  -7.638  -5.763  1.00  0.00     0.006 A 
ENDROOT
BRANCH   1   7
ATOM      7  C   UNL     1       1.595  -6.255  -3.770  1.00  0.00     0.037 C 
BRANCH   7   8
ATOM      8  C   UNL     1       1.204  -4.929  -4.450  1.00  0.00     0.020 C 
BRANCH   8   9
ATOM      9  C   UNL     1       1.972  -3.682  -3.986  1.00  0.00     0.078 C 
BRANCH   9  10
ATOM     10  N   UNL     1       1.780  -2.498  -4.811  1.00  0.00    -0.330 NA
ATOM     11  H   UNL     1       0.813  -2.184  -4.750  1.00  0.00     0.118 HD
ATOM     12  H   UNL     1       1.932  -2.727  -5.794  1.00  0.00     0.118 HD
ENDBRANCH   9  10
ENDBRANCH   8   9
ENDBRANCH   7   8
ENDBRANCH   1   7
BRANCH   4  13
ATOM     13  N   UNL     1      -0.457 -11.092  -6.112  1.00  0.00    -0.362 N 
ATOM     14  H   UNL     1       0.112 -11.563  -6.804  1.00  0.00     0.166 HD
BRANCH  13  15
ATOM     15  C   UNL     1      -1.767 -11.479  -6.007  1.00  0.00     0.083 C 
BRANCH  15  16
ATOM     16  C   UNL     1      -2.748 -11.399  -6.916  1.00  0.00     0.027 C 
BRANCH  16  17
ATOM     17  C   UNL     1      -3.188 -12.584  -7.667  1.00  0.00    -0.003 A 
ATOM     18  C   UNL     1      -3.874 -12.489  -8.891  1.00  0.00    -0.041 A 
ATOM     19  C   UNL     1      -2.970 -13.876  -7.166  1.00  0.00     0.119 A 
ATOM     20  C   UNL     1      -4.279 -13.670  -9.531  1.00  0.00     0.024 A 
ATOM     21  N   UNL     1      -3.338 -15.026  -7.778  1.00  0.00    -0.264 NA
ATOM     22  C   UNL     1      -3.983 -14.894  -8.951  1.00  0.00     0.111 A 
ATOM     23  C   UNL     1      -4.222 -11.167  -9.518  1.00  0.00     0.045 C 
ENDBRANCH  16  17
ENDBRANCH  15  16
ENDBRANCH  13  15
ENDBRANCH   4  13
TORSDOF 8
ENDMDL
MODEL 4
REMARK VINA RESULT:    -5.057      1.944      8.697
REMARK INTER + INTRA:          -7.882
REMARK INTER:                  -7.346
REMARK INTRA:                  -0.536
REMARK UNBOUND:                -0.608
REMARK SMILES Cc1ccncc1/C=C/Nc1ccc(CCCN)cc1
REMARK SMILES IDX 14 1 13 2 12 3 11 4 20 5 19 6 15 7 16 8 17 9 18 10 10 13
REMARK SMILES IDX 9 15 8 16 7 17 2 18 6 19 3 20 5 21 4 22 1 23
REMARK H PARENT 18 11 18 12 10 14
ROOT
ATOM      1  C   UNL     1       0.116  -7.430  -3.876  1.00  0.00    -0.048 A 
ATOM      2  C   UNL     1       0.493  -7.149  -5.191  1.00  0.00     0.006 A 
ATOM      3  C   UNL     1       1.031  -8.143  -6.003  1.00  0.00     0.026 A 
ATOM      4  C   UNL     1       1.285  -9.428  -5.518  1.00  0.00     0.038 A 
ATOM      5  C   UNL     1       0.960  -9.696  -4.183  1.00  0.00     0.026 A 
ATOM      6  C   UNL     1       0.382  -8.708  -3.370  1.00  0.00     0.006 A 
ENDROOT
BRANCH   1   7
ATOM      7  C   UNL     1      -0.559  -6.390  -3.018  1.00  0.00     0.037 C 
BRANCH   7   8
ATOM      8  C   UNL     1      -0.262  -6.439  -1.507  1.00  0.00     0.020 C 
BRANCH   8   9
ATOM      9  C   UNL     1      -1.435  -6.091  -0.578  1.00  0.00     0.078 C 
BRANCH   9  10
ATOM     10  N   UNL     1      -1.858  -4.698  -0.617  1.00  0.00    -0.330 NA
ATOM     11  H   UNL     1      -2.792  -4.628  -1.018  1.00  0.00     0.118 HD
ATOM     12  H   UNL     1      -1.252  -4.164  -1.241  1.00  0.00     0.118 HD
ENDBRANCH   9  10
ENDBRANCH   8   9
ENDBRANCH   7   8
ENDBRANCH   1   7
BRANCH   4  13
ATOM     13  N   UNL     1       1.937 -10.403  -6.297  1.00  0.00    -0.362 N 
ATOM     14  H   UNL     1       1.547 -11.337  -6.276  1.00  0.00     0.166 HD
BRANCH  13  15
ATOM     15  C   UNL     1       3.176 -10.253  -6.861  1.00  0.00     0.083 C 
BRANCH  15  16
ATOM     16  C   UNL     1       4.246 -11.055  -6.775  1.00  0.00     0.027 C 
BRANCH  16  17
ATOM     17  C   UNL     1       4.389 -12.231  -7.647  1.00  0.00    -0.003 A 
ATOM     18  C   UNL     1       5.556 -13.015  -7.671  1.00  0.00    -0.041 A 
ATOM     19  C   UNL     1       3.363 -12.601  -8.530  1.00  0.00     0.119 A 
ATOM     20  C   UNL     1       5.616 -14.106  -8.551  1.00  0.00     0.024 A 
ATOM     21  N   UNL     1       3.398 -13.660  -9.371  1.00  0.00    -0.264 NA
ATOM     22  C   UNL     1       4.527 -14.391  -9.358  1.00  0.00     0.111 A 
ATOM     23  C   UNL     1       6.753 -12.702  -6.818  1.00  0.00     0.045 C 
ENDBRANCH  16  17
ENDBRANCH  15  16
ENDBRANCH  13  15
ENDBRANCH   4  13
TORSDOF 8
ENDMDL
MODEL 5
REMARK VINA RESULT:    -5.030      1.320      2.211
REMARK INTER + INTRA:          -7.843
REMARK INTER:                  -7.210
REMARK INTRA:                  -0.632
REMARK UNBOUND:                -0.608
REMARK SMILES Cc1ccncc1/C=C/Nc1ccc(CCCN)cc1
REMARK SMILES IDX 14 1 13 2 12 3 11 4 20 5 19 6 15 7 16 8 17 9 18 10 10 13
REMARK SMILES IDX 9 15 8 16 7 17 2 18 6 19 3 20 5 21 4 22 1 23
REMARK H PARENT 18 11 18 12 10 14
ROOT
ATOM      1  C   UNL     1       5.799 -12.782  -7.032  1.00  0.00    -0.048 A 
ATOM      2  C   UNL     1       4.773 -12.708  -7.977  1.00  0.00     0.006 A 
ATOM      3  C   UNL     1       3.810 -11.706  -7.902  1.00  0.00     0.026 A 
ATOM      4  C   UNL     1       3.785 -10.791  -6.846  1.00  0.00     0.038 A 
ATOM      5  C   UNL     1       4.780 -10.899  -5.868  1.00  0.00     0.026 A 
ATOM      6  C   UNL     1       5.776 -11.884  -5.959  1.00  0.00     0.006 A 
ENDROOT
BRANCH   1   7
ATOM      7  C   UNL     1       6.905 -13.799  -7.160  1.00  0.00     0.037 C 
BRANCH   7   8
ATOM      8  C   UNL     1       7.235 -14.623  -5.900  1.00  0.00     0.020 C 
BRANCH   8   9
ATOM      9  C   UNL     1       6.407 -15.900  -5.694  1.00  0.00     0.078 C 
BRANCH   9  10
ATOM     10  N   UNL     1       5.197 -15.728  -4.902  1.00  0.00    -0.330 NA
ATOM     11  H   UNL     1       5.433 -15.373  -3.977  1.00  0.00     0.118 HD
ATOM     12  H   UNL     1       4.749 -16.631  -4.743  1.00  0.00     0.118 HD
ENDBRANCH   9  10
ENDBRANCH   8   9
ENDBRANCH   7   8
ENDBRANCH   1   7
BRANCH   4  13
ATOM     13  N   UNL     1       2.747  -9.851  -6.700  1.00  0.00    -0.362 N 
ATOM     14  H   UNL     1       2.978  -8.885  -6.895  1.00  0.00     0.166 HD
BRANCH  13  15
ATOM     15  C   UNL     1       1.551 -10.097  -6.079  1.00  0.00     0.083 C 
BRANCH  15  16
ATOM     16  C   UNL     1       0.902  -9.357  -5.171  1.00  0.00     0.027 C 
BRANCH  16  17
ATOM     17  C   UNL     1       0.722  -7.909  -5.355  1.00  0.00    -0.003 A 
ATOM     18  C   UNL     1       0.567  -7.025  -4.273  1.00  0.00    -0.041 A 
ATOM     19  C   UNL     1       0.659  -7.350  -6.640  1.00  0.00     0.119 A 
ATOM     20  C   UNL     1       0.377  -5.660  -4.540  1.00  0.00     0.024 A 
ATOM     21  N   UNL     1       0.494  -6.035  -6.915  1.00  0.00    -0.264 NA
ATOM     22  C   UNL     1       0.359  -5.220  -5.853  1.00  0.00     0.111 A 
ATOM     23  C   UNL     1       0.560  -7.494  -2.845  1.00  0.00     0.045 C 
ENDBRANCH  16  17
ENDBRANCH  15  16
ENDBRANCH  13  15
ENDBRANCH   4  13
TORSDOF 8
ENDMDL
MODEL 6
REMARK VINA RESULT:    -4.931      2.046      8.601
REMARK INTER + INTRA:          -7.701
REMARK INTER:                  -7.104
REMARK INTRA:                  -0.597
REMARK UNBOUND:                -0.608
REMARK SMILES Cc1ccncc1/C=C/Nc1ccc(CCCN)cc1
REMARK SMILES IDX 14 1 13 2 12 3 11 4 20 5 19 6 15 7 16 8 17 9 18 10 10 13
REMARK SMILES IDX 9 15 8 16 7 17 2 18 6 19 3 20 5 21 4 22 1 23
REMARK H PARENT 18 11 18 12 10 14
ROOT
ATOM      1  C   UNL     1       0.277  -6.380  -4.584  1.00  0.00    -0.048 A 
ATOM      2  C   UNL     1       0.532  -6.558  -5.945  1.00  0.00     0.006 A 
ATOM      3  C   UNL     1       0.854  -7.815  -6.449  1.00  0.00     0.026 A 
ATOM      4  C   UNL     1       1.009  -8.922  -5.611  1.00  0.00     0.038 A 
ATOM      5  C   UNL     1       0.808  -8.733  -4.238  1.00  0.00     0.026 A 
ATOM      6  C   UNL     1       0.447  -7.476  -3.729  1.00  0.00     0.006 A 
ENDROOT
BRANCH   1   7
ATOM      7  C   UNL     1      -0.171  -5.045  -4.042  1.00  0.00     0.037 C 
BRANCH   7   8
ATOM      8  C   UNL     1       0.879  -4.227  -3.265  1.00  0.00     0.020 C 
BRANCH   8   9
ATOM      9  C   UNL     1       2.055  -3.684  -4.091  1.00  0.00     0.078 C 
BRANCH   9  10
ATOM     10  N   UNL     1       1.800  -2.421  -4.768  1.00  0.00    -0.330 NA
ATOM     11  H   UNL     1       1.052  -1.916  -4.294  1.00  0.00     0.118 HD
ATOM     12  H   UNL     1       1.458  -2.592  -5.714  1.00  0.00     0.118 HD
ENDBRANCH   9  10
ENDBRANCH   8   9
ENDBRANCH   7   8
ENDBRANCH   1   7
BRANCH   4  13
ATOM     13  N   UNL     1       1.449 -10.168  -6.097  1.00  0.00    -0.362 N 
ATOM     14  H   UNL     1       0.751 -10.897  -6.177  1.00  0.00     0.166 HD
BRANCH  13  15
ATOM     15  C   UNL     1       2.762 -10.540  -6.221  1.00  0.00     0.083 C 
BRANCH  15  16
ATOM     16  C   UNL     1       3.465 -10.803  -7.330  1.00  0.00     0.027 C 
BRANCH  16  17
ATOM     17  C   UNL     1       4.509 -11.839  -7.342  1.00  0.00    -0.003 A 
ATOM     18  C   UNL     1       4.441 -12.968  -8.179  1.00  0.00    -0.041 A 
ATOM     19  C   UNL     1       5.612 -11.760  -6.479  1.00  0.00     0.119 A 
ATOM     20  C   UNL     1       5.469 -13.920  -8.109  1.00  0.00     0.024 A 
ATOM     21  N   UNL     1       6.621 -12.660  -6.412  1.00  0.00    -0.264 NA
ATOM     22  C   UNL     1       6.525 -13.720  -7.234  1.00  0.00     0.111 A 
ATOM     23  C   UNL     1       3.289 -13.208  -9.114  1.00  0.00     0.045 C 
ENDBRANCH  16  17
ENDBRANCH  15  16
ENDBRANCH  13  15
ENDBRANCH   4  13
TORSDOF 8
ENDMDL
MODEL 7
REMARK VINA RESULT:    -4.870      4.582      8.553
REMARK INTER + INTRA:          -7.613
REMARK INTER:                  -7.100
REMARK INTRA:                  -0.512
REMARK UNBOUND:                -0.608
REMARK SMILES Cc1ccncc1/C=C/Nc1ccc(CCCN)cc1
REMARK SMILES IDX 14 1 13 2 12 3 11 4 20 5 19 6 15 7 16 8 17 9 18 10 10 13
REMARK SMILES IDX 9 15 8 16 7 17 2 18 6 19 3 20 5 21 4 22 1 23
REMARK H PARENT 18 11 18 12 10 14
ROOT
ATOM      1  C   UNL     1       0.952  -6.841  -3.466  1.00  0.00    -0.048 A 
ATOM      2  C   UNL     1       0.710  -8.082  -2.875  1.00  0.00     0.006 A 
ATOM      3  C   UNL     1       0.552  -9.223  -3.657  1.00  0.00     0.026 A 
ATOM      4  C   UNL     1       0.552  -9.159  -5.053  1.00  0.00     0.038 A 
ATOM      5  C   UNL     1       0.739  -7.906  -5.647  1.00  0.00     0.026 A 
ATOM      6  C   UNL     1       0.936  -6.759  -4.864  1.00  0.00     0.006 A 
ENDROOT
BRANCH   1   7
ATOM      7  C   UNL     1       1.225  -5.617  -2.628  1.00  0.00     0.037 C 
BRANCH   7   8
ATOM      8  C   UNL     1       0.894  -4.254  -3.266  1.00  0.00     0.020 C 
BRANCH   8   9
ATOM      9  C   UNL     1       2.093  -3.439  -3.772  1.00  0.00     0.078 C 
BRANCH   9  10
ATOM     10  N   UNL     1       1.785  -2.479  -4.823  1.00  0.00    -0.330 NA
ATOM     11  H   UNL     1       1.073  -2.859  -5.445  1.00  0.00     0.118 HD
ATOM     12  H   UNL     1       2.606  -2.324  -5.409  1.00  0.00     0.118 HD
ENDBRANCH   9  10
ENDBRANCH   8   9
ENDBRANCH   7   8
ENDBRANCH   1   7
BRANCH   4  13
ATOM     13  N   UNL     1       0.276 -10.287  -5.849  1.00  0.00    -0.362 N 
ATOM     14  H   UNL     1       1.049 -10.671  -6.378  1.00  0.00     0.166 HD
BRANCH  13  15
ATOM     15  C   UNL     1      -0.981 -10.736  -6.160  1.00  0.00     0.083 C 
BRANCH  15  16
ATOM     16  C   UNL     1      -1.559 -11.907  -5.859  1.00  0.00     0.027 C 
BRANCH  16  17
ATOM     17  C   UNL     1      -2.410 -12.608  -6.832  1.00  0.00    -0.003 A 
ATOM     18  C   UNL     1      -2.057 -13.851  -7.385  1.00  0.00    -0.041 A 
ATOM     19  C   UNL     1      -3.611 -12.037  -7.281  1.00  0.00     0.119 A 
ATOM     20  C   UNL     1      -2.916 -14.440  -8.325  1.00  0.00     0.024 A 
ATOM     21  N   UNL     1      -4.460 -12.599  -8.173  1.00  0.00    -0.264 NA
ATOM     22  C   UNL     1      -4.091 -13.792  -8.672  1.00  0.00     0.111 A 
ATOM     23  C   UNL     1      -0.774 -14.552  -7.035  1.00  0.00     0.045 C 
ENDBRANCH  16  17
ENDBRANCH  15  16
ENDBRANCH  13  15
ENDBRANCH   4  13
TORSDOF 8
ENDMDL
MODEL 8
REMARK VINA RESULT:    -4.795      4.606      6.376
REMARK INTER + INTRA:          -7.505
REMARK INTER:                  -6.883
REMARK INTRA:                  -0.622
REMARK UNBOUND:                -0.608
REMARK SMILES Cc1ccncc1/C=C/Nc1ccc(CCCN)cc1
REMARK SMILES IDX 14 1 13 2 12 3 11 4 20 5 19 6 15 7 16 8 17 9 18 10 10 13
REMARK SMILES IDX 9 15 8 16 7 17 2 18 6 19 3 20 5 21 4 22 1 23
REMARK H PARENT 18 11 18 12 10 14
ROOT
ATOM      1  C   UNL     1      -3.143 -12.610  -7.365  1.00  0.00    -0.048 A 
ATOM      2  C   UNL     1      -1.960 -13.238  -6.971  1.00  0.00     0.006 A 
ATOM      3  C   UNL     1      -1.018 -12.561  -6.201  1.00  0.00     0.026 A 
ATOM      4  C   UNL     1      -1.181 -11.215  -5.862  1.00  0.00     0.038 A 
ATOM      5  C   UNL     1      -2.341 -10.567  -6.305  1.00  0.00     0.026 A 
ATOM      6  C   UNL     1      -3.311 -11.256  -7.049  1.00  0.00     0.006 A 
ENDROOT
BRANCH   1   7
ATOM      7  C   UNL     1      -4.215 -13.363  -8.113  1.00  0.00     0.037 C 
BRANCH   7   8
ATOM      8  C   UNL     1      -3.896 -13.757  -9.568  1.00  0.00     0.020 C 
BRANCH   8   9
ATOM      9  C   UNL     1      -4.046 -12.645 -10.615  1.00  0.00     0.078 C 
BRANCH   9  10
ATOM     10  N   UNL     1      -2.872 -12.420 -11.447  1.00  0.00    -0.330 NA
ATOM     11  H   UNL     1      -2.098 -12.085 -10.875  1.00  0.00     0.118 HD
ATOM     12  H   UNL     1      -3.056 -11.677 -12.121  1.00  0.00     0.118 HD
ENDBRANCH   9  10
ENDBRANCH   8   9
ENDBRANCH   7   8
ENDBRANCH   1   7
BRANCH   4  13
ATOM     13  N   UNL     1      -0.180 -10.491  -5.186  1.00  0.00    -0.362 N 
ATOM     14  H   UNL     1       0.107 -10.848  -4.283  1.00  0.00     0.166 HD
BRANCH  13  15
ATOM     15  C   UNL     1       0.240  -9.232  -5.526  1.00  0.00     0.083 C 
BRANCH  15  16
ATOM     16  C   UNL     1       1.062  -8.408  -4.865  1.00  0.00     0.027 C 
BRANCH  16  17
ATOM     17  C   UNL     1       0.567  -7.546  -3.781  1.00  0.00    -0.003 A 
ATOM     18  C   UNL     1       0.189  -6.208  -3.994  1.00  0.00    -0.041 A 
ATOM     19  C   UNL     1       0.486  -8.021  -2.463  1.00  0.00     0.119 A 
ATOM     20  C   UNL     1      -0.250  -5.449  -2.899  1.00  0.00     0.024 A 
ATOM     21  N   UNL     1       0.049  -7.308  -1.399  1.00  0.00    -0.264 NA
ATOM     22  C   UNL     1      -0.313  -6.036  -1.645  1.00  0.00     0.111 A 
ATOM     23  C   UNL     1       0.276  -5.553  -5.344  1.00  0.00     0.045 C 
ENDBRANCH  16  17
ENDBRANCH  15  16
ENDBRANCH  13  15
ENDBRANCH   4  13
TORSDOF 8
ENDMDL
MODEL 9
REMARK VINA RESULT:    -4.709      4.618      8.649
REMARK INTER + INTRA:          -7.381
REMARK INTER:                  -6.846
REMARK INTRA:                  -0.535
REMARK UNBOUND:                -0.608
REMARK SMILES Cc1ccncc1/C=C/Nc1ccc(CCCN)cc1
REMARK SMILES IDX 14 1 13 2 12 3 11 4 20 5 19 6 15 7 16 8 17 9 18 10 10 13
REMARK SMILES IDX 9 15 8 16 7 17 2 18 6 19 3 20 5 21 4 22 1 23
REMARK H PARENT 18 11 18 12 10 14
ROOT
ATOM      1  C   UNL     1       0.908  -7.335  -3.296  1.00  0.00    -0.048 A 
ATOM      2  C   UNL     1       0.883  -7.142  -4.679  1.00  0.00     0.006 A 
ATOM      3  C   UNL     1       0.609  -8.202  -5.539  1.00  0.00     0.026 A 
ATOM      4  C   UNL     1       0.429  -9.503  -5.063  1.00  0.00     0.038 A 
ATOM      5  C   UNL     1       0.510  -9.708  -3.680  1.00  0.00     0.026 A 
ATOM      6  C   UNL     1       0.748  -8.637  -2.806  1.00  0.00     0.006 A 
ENDROOT
BRANCH   1   7
ATOM      7  C   UNL     1       1.103  -6.177  -2.350  1.00  0.00     0.037 C 
BRANCH   7   8
ATOM      8  C   UNL     1      -0.141  -5.325  -2.033  1.00  0.00     0.020 C 
BRANCH   8   9
ATOM      9  C   UNL     1      -1.076  -5.877  -0.947  1.00  0.00     0.078 C 
BRANCH   9  10
ATOM     10  N   UNL     1      -2.014  -4.911  -0.393  1.00  0.00    -0.330 NA
ATOM     11  H   UNL     1      -1.758  -3.969  -0.687  1.00  0.00     0.118 HD
ATOM     12  H   UNL     1      -1.952  -4.905   0.626  1.00  0.00     0.118 HD
ENDBRANCH   9  10
ENDBRANCH   8   9
ENDBRANCH   7   8
ENDBRANCH   1   7
BRANCH   4  13
ATOM     13  N   UNL     1       0.270 -10.599  -5.933  1.00  0.00    -0.362 N 
ATOM     14  H   UNL     1       1.074 -10.854  -6.493  1.00  0.00     0.166 HD
BRANCH  13  15
ATOM     15  C   UNL     1      -0.931 -11.167  -6.264  1.00  0.00     0.083 C 
BRANCH  15  16
ATOM     16  C   UNL     1      -1.307 -12.451  -6.194  1.00  0.00     0.027 C 
BRANCH  16  17
ATOM     17  C   UNL     1      -2.387 -12.977  -7.042  1.00  0.00    -0.003 A 
ATOM     18  C   UNL     1      -2.287 -14.206  -7.717  1.00  0.00    -0.041 A 
ATOM     19  C   UNL     1      -3.565 -12.242  -7.244  1.00  0.00     0.119 A 
ATOM     20  C   UNL     1      -3.356 -14.621  -8.525  1.00  0.00     0.024 A 
ATOM     21  N   UNL     1      -4.613 -12.635  -8.005  1.00  0.00    -0.264 NA
ATOM     22  C   UNL     1      -4.483 -13.821  -8.626  1.00  0.00     0.111 A 
ATOM     23  C   UNL     1      -1.060 -15.071  -7.634  1.00  0.00     0.045 C 
ENDBRANCH  16  17
ENDBRANCH  15  16
ENDBRANCH  13  15
ENDBRANCH   4  13
TORSDOF 8
ENDMDL
