MODEL 1
REMARK VINA RESULT:    -5.114      0.000      0.000
REMARK INTER + INTRA:          -7.983
REMARK INTER:                  -7.357
REMARK INTRA:                  -0.626
REMARK UNBOUND:                -0.626
REMARK SMILES Cc1ccncc1/C=C/Nc1ccc(CCCN)cc1
REMARK SMILES IDX 14 1 13 2 12 3 11 4 20 5 19 6 15 7 16 8 17 9 18 10 10 13
REMARK SMILES IDX 9 15 8 16 7 17 2 18 6 19 3 20 5 21 4 22 1 23
REMARK H PARENT 18 11 18 12 10 14
ROOT
ATOM      1  C   UNL     1      12.590 -11.295   1.635  1.00  0.00    -0.048 A 
ATOM      2  C   UNL     1      11.402 -10.624   1.931  1.00  0.00     0.006 A 
ATOM      3  C   UNL     1      10.879  -9.682   1.049  1.00  0.00     0.026 A 
ATOM      4  C   UNL     1      11.556  -9.317  -0.117  1.00  0.00     0.038 A 
ATOM      5  C   UNL     1      12.776  -9.948  -0.387  1.00  0.00     0.026 A 
ATOM      6  C   UNL     1      13.289 -10.926   0.479  1.00  0.00     0.006 A 
ENDROOT
BRANCH   1   7
ATOM      7  C   UNL     1      13.113 -12.389   2.533  1.00  0.00     0.037 C 
BRANCH   7   8
ATOM      8  C   UNL     1      12.196 -13.609   2.742  1.00  0.00     0.020 C 
BRANCH   8   9
ATOM      9  C   UNL     1      12.599 -14.891   1.999  1.00  0.00     0.078 C 
BRANCH   9  10
ATOM     10  N   UNL     1      11.704 -15.285   0.921  1.00  0.00    -0.330 NA
ATOM     11  H   UNL     1      11.319 -16.210   1.108  1.00  0.00     0.118 HD
ATOM     12  H   UNL     1      12.223 -15.377   0.048  1.00  0.00     0.118 HD
ENDBRANCH   9  10
ENDBRANCH   8   9
ENDBRANCH   7   8
ENDBRANCH   1   7
BRANCH   4  13
ATOM     13  N   UNL     1      11.095  -8.282  -0.953  1.00  0.00    -0.362 N 
ATOM     14  H   UNL     1      11.571  -7.392  -0.878  1.00  0.00     0.166 HD
BRANCH  13  15
ATOM     15  C   UNL     1       9.916  -8.306  -1.651  1.00  0.00     0.083 C 
BRANCH  15  16
ATOM     16  C   UNL     1       9.250  -7.293  -2.220  1.00  0.00     0.027 C 
BRANCH  16  17
ATOM     17  C   UNL     1       7.814  -7.090  -1.971  1.00  0.00    -0.003 A 
ATOM     18  C   UNL     1       7.224  -5.814  -1.962  1.00  0.00    -0.041 A 
ATOM     19  C   UNL     1       6.972  -8.176  -1.690  1.00  0.00     0.119 A 
ATOM     20  C   UNL     1       5.851  -5.708  -1.692  1.00  0.00     0.024 A 
ATOM     21  N   UNL     1       5.643  -8.094  -1.444  1.00  0.00    -0.264 NA
ATOM     22  C   UNL     1       5.114  -6.857  -1.455  1.00  0.00     0.111 A 
ATOM     23  C   UNL     1       8.017  -4.558  -2.194  1.00  0.00     0.045 C 
ENDBRANCH  16  17
ENDBRANCH  15  16
ENDBRANCH  13  15
ENDBRANCH   4  13
TORSDOF 8
ENDMDL
MODEL 2
REMARK VINA RESULT:    -5.078      4.829      6.803
REMARK INTER + INTRA:          -7.931
REMARK INTER:                  -7.281
REMARK INTRA:                  -0.649
REMARK UNBOUND:                -0.626
REMARK SMILES Cc1ccncc1/C=C/Nc1ccc(CCCN)cc1
REMARK SMILES IDX 14 1 13 2 12 3 11 4 20 5 19 6 15 7 16 8 17 9 18 10 10 13
REMARK SMILES IDX 9 15 8 16 7 17 2 18 6 19 3 20 5 21 4 22 1 23
REMARK H PARENT 18 11 18 12 10 14
ROOT
ATOM      1  C   UNL     1      11.089 -11.108  -7.195  1.00  0.00    -0.048 A 
ATOM      2  C   UNL     1      10.364  -9.916  -7.138  1.00  0.00     0.006 A 
ATOM      3  C   UNL     1       9.635  -9.582  -6.000  1.00  0.00     0.026 A 
ATOM      4  C   UNL     1       9.537 -10.452  -4.911  1.00  0.00     0.038 A 
ATOM      5  C   UNL     1      10.218 -11.673  -4.991  1.00  0.00     0.026 A 
ATOM      6  C   UNL     1      10.985 -11.998  -6.120  1.00  0.00     0.006 A 
ENDROOT
BRANCH   1   7
ATOM      7  C   UNL     1      11.962 -11.433  -8.381  1.00  0.00     0.037 C 
BRANCH   7   8
ATOM      8  C   UNL     1      12.705 -10.254  -9.038  1.00  0.00     0.020 C 
BRANCH   8   9
ATOM      9  C   UNL     1      14.224 -10.207  -8.816  1.00  0.00     0.078 C 
BRANCH   9  10
ATOM     10  N   UNL     1      14.637  -9.885  -7.457  1.00  0.00    -0.330 NA
ATOM     11  H   UNL     1      15.622 -10.113  -7.329  1.00  0.00     0.118 HD
ATOM     12  H   UNL     1      14.133 -10.467  -6.789  1.00  0.00     0.118 HD
ENDBRANCH   9  10
ENDBRANCH   8   9
ENDBRANCH   7   8
ENDBRANCH   1   7
BRANCH   4  13
ATOM     13  N   UNL     1       8.707 -10.174  -3.808  1.00  0.00    -0.362 N 
ATOM     14  H   UNL     1       7.835 -10.685  -3.756  1.00  0.00     0.166 HD
BRANCH  13  15
ATOM     15  C   UNL     1       8.862  -9.109  -2.962  1.00  0.00     0.083 C 
BRANCH  15  16
ATOM     16  C   UNL     1       8.027  -8.648  -2.020  1.00  0.00     0.027 C 
BRANCH  16  17
ATOM     17  C   UNL     1       7.702  -7.217  -1.924  1.00  0.00    -0.003 A 
ATOM     18  C   UNL     1       6.423  -6.756  -1.567  1.00  0.00    -0.041 A 
ATOM     19  C   UNL     1       8.662  -6.240  -2.226  1.00  0.00     0.119 A 
ATOM     20  C   UNL     1       6.193  -5.373  -1.522  1.00  0.00     0.024 A 
ATOM     21  N   UNL     1       8.463  -4.902  -2.170  1.00  0.00    -0.264 NA
ATOM     22  C   UNL     1       7.229  -4.501  -1.816  1.00  0.00     0.111 A 
ATOM     23  C   UNL     1       5.285  -7.692  -1.270  1.00  0.00     0.045 C 
ENDBRANCH  16  17
ENDBRANCH  15  16
ENDBRANCH  13  15
ENDBRANCH   4  13
TORSDOF 8
ENDMDL
MODEL 3
REMARK VINA RESULT:    -4.929      4.551      8.464
REMARK INTER + INTRA:          -7.716
REMARK INTER:                  -7.169
REMARK INTRA:                  -0.547
REMARK UNBOUND:                -0.626
REMARK SMILES Cc1ccncc1/C=C/Nc1ccc(CCCN)cc1
REMARK SMILES IDX 14 1 13 2 12 3 11 4 20 5 19 6 15 7 16 8 17 9 18 10 10 13
REMARK SMILES IDX 9 15 8 16 7 17 2 18 6 19 3 20 5 21 4 22 1 23
REMARK H PARENT 18 11 18 12 10 14
ROOT
ATOM      1  C   UNL     1       7.570  -6.626  -1.332  1.00  0.00    -0.048 A 
ATOM      2  C   UNL     1       7.036  -7.878  -1.648  1.00  0.00     0.006 A 
ATOM      3  C   UNL     1       7.807  -8.834  -2.303  1.00  0.00     0.026 A 
ATOM      4  C   UNL     1       9.105  -8.556  -2.736  1.00  0.00     0.038 A 
ATOM      5  C   UNL     1       9.622  -7.283  -2.471  1.00  0.00     0.026 A 
ATOM      6  C   UNL     1       8.864  -6.327  -1.777  1.00  0.00     0.006 A 
ENDROOT
BRANCH   1   7
ATOM      7  C   UNL     1       6.780  -5.619  -0.534  1.00  0.00     0.037 C 
BRANCH   7   8
ATOM      8  C   UNL     1       6.722  -4.185  -1.095  1.00  0.00     0.020 C 
BRANCH   8   9
ATOM      9  C   UNL     1       7.200  -3.073  -0.149  1.00  0.00     0.078 C 
BRANCH   9  10
ATOM     10  N   UNL     1       6.156  -2.468   0.666  1.00  0.00    -0.330 NA
ATOM     11  H   UNL     1       5.587  -3.193   1.099  1.00  0.00     0.118 HD
ATOM     12  H   UNL     1       5.516  -1.934   0.077  1.00  0.00     0.118 HD
ENDBRANCH   9  10
ENDBRANCH   8   9
ENDBRANCH   7   8
ENDBRANCH   1   7
BRANCH   4  13
ATOM     13  N   UNL     1       9.847  -9.476  -3.503  1.00  0.00    -0.362 N 
ATOM     14  H   UNL     1      10.854  -9.435  -3.412  1.00  0.00     0.166 HD
BRANCH  13  15
ATOM     15  C   UNL     1       9.340 -10.226  -4.530  1.00  0.00     0.083 C 
BRANCH  15  16
ATOM     16  C   UNL     1       9.875 -10.489  -5.730  1.00  0.00     0.027 C 
BRANCH  16  17
ATOM     17  C   UNL     1      10.855 -11.571  -5.907  1.00  0.00    -0.003 A 
ATOM     18  C   UNL     1      11.467 -11.840  -7.144  1.00  0.00    -0.041 A 
ATOM     19  C   UNL     1      11.194 -12.416  -4.839  1.00  0.00     0.119 A 
ATOM     20  C   UNL     1      12.373 -12.908  -7.230  1.00  0.00     0.024 A 
ATOM     21  N   UNL     1      12.078 -13.439  -4.901  1.00  0.00    -0.264 NA
ATOM     22  C   UNL     1      12.650 -13.658  -6.098  1.00  0.00     0.111 A 
ATOM     23  C   UNL     1      11.156 -11.049  -8.384  1.00  0.00     0.045 C 
ENDBRANCH  16  17
ENDBRANCH  15  16
ENDBRANCH  13  15
ENDBRANCH   4  13
TORSDOF 8
ENDMDL
MODEL 4
REMARK VINA RESULT:    -4.918      1.286      2.138
REMARK INTER + INTRA:          -7.701
REMARK INTER:                  -7.048
REMARK INTRA:                  -0.653
REMARK UNBOUND:                -0.626
REMARK SMILES Cc1ccncc1/C=C/Nc1ccc(CCCN)cc1
REMARK SMILES IDX 14 1 13 2 12 3 11 4 20 5 19 6 15 7 16 8 17 9 18 10 10 13
REMARK SMILES IDX 9 15 8 16 7 17 2 18 6 19 3 20 5 21 4 22 1 23
REMARK H PARENT 18 11 18 12 10 14
ROOT
ATOM      1  C   UNL     1      12.839 -11.381   1.477  1.00  0.00    -0.048 A 
ATOM      2  C   UNL     1      13.355 -10.962   0.249  1.00  0.00     0.006 A 
ATOM      3  C   UNL     1      12.737  -9.944  -0.471  1.00  0.00     0.026 A 
ATOM      4  C   UNL     1      11.544  -9.361  -0.038  1.00  0.00     0.038 A 
ATOM      5  C   UNL     1      10.994  -9.820   1.165  1.00  0.00     0.026 A 
ATOM      6  C   UNL     1      11.633 -10.819   1.915  1.00  0.00     0.006 A 
ENDROOT
BRANCH   1   7
ATOM      7  C   UNL     1      13.555 -12.411   2.314  1.00  0.00     0.037 C 
BRANCH   7   8
ATOM      8  C   UNL     1      12.690 -13.235   3.288  1.00  0.00     0.020 C 
BRANCH   8   9
ATOM      9  C   UNL     1      12.352 -14.665   2.844  1.00  0.00     0.078 C 
BRANCH   9  10
ATOM     10  N   UNL     1      11.600 -14.763   1.601  1.00  0.00    -0.330 NA
ATOM     11  H   UNL     1      10.857 -15.453   1.696  1.00  0.00     0.118 HD
ATOM     12  H   UNL     1      12.201 -15.109   0.852  1.00  0.00     0.118 HD
ENDBRANCH   9  10
ENDBRANCH   8   9
ENDBRANCH   7   8
ENDBRANCH   1   7
BRANCH   4  13
ATOM     13  N   UNL     1      10.850  -8.416  -0.818  1.00  0.00    -0.362 N 
ATOM     14  H   UNL     1      10.851  -7.461  -0.483  1.00  0.00     0.166 HD
BRANCH  13  15
ATOM     15  C   UNL     1       9.978  -8.725  -1.829  1.00  0.00     0.083 C 
BRANCH  15  16
ATOM     16  C   UNL     1       8.698  -8.360  -1.982  1.00  0.00     0.027 C 
BRANCH  16  17
ATOM     17  C   UNL     1       8.305  -6.943  -1.976  1.00  0.00    -0.003 A 
ATOM     18  C   UNL     1       6.999  -6.524  -1.663  1.00  0.00    -0.041 A 
ATOM     19  C   UNL     1       9.222  -5.940  -2.323  1.00  0.00     0.119 A 
ATOM     20  C   UNL     1       6.703  -5.153  -1.704  1.00  0.00     0.024 A 
ATOM     21  N   UNL     1       8.958  -4.612  -2.351  1.00  0.00    -0.264 NA
ATOM     22  C   UNL     1       7.701  -4.251  -2.036  1.00  0.00     0.111 A 
ATOM     23  C   UNL     1       5.902  -7.495  -1.325  1.00  0.00     0.045 C 
ENDBRANCH  16  17
ENDBRANCH  15  16
ENDBRANCH  13  15
ENDBRANCH   4  13
TORSDOF 8
ENDMDL
MODEL 5
REMARK VINA RESULT:    -4.902      4.386      8.461
REMARK INTER + INTRA:          -7.677
REMARK INTER:                  -7.150
REMARK INTRA:                  -0.527
REMARK UNBOUND:                -0.626
REMARK SMILES Cc1ccncc1/C=C/Nc1ccc(CCCN)cc1
REMARK SMILES IDX 14 1 13 2 12 3 11 4 20 5 19 6 15 7 16 8 17 9 18 10 10 13
REMARK SMILES IDX 9 15 8 16 7 17 2 18 6 19 3 20 5 21 4 22 1 23
REMARK H PARENT 18 11 18 12 10 14
ROOT
ATOM      1  C   UNL     1       6.604  -7.135  -1.414  1.00  0.00    -0.048 A 
ATOM      2  C   UNL     1       6.417  -8.511  -1.556  1.00  0.00     0.006 A 
ATOM      3  C   UNL     1       7.452  -9.326  -2.007  1.00  0.00     0.026 A 
ATOM      4  C   UNL     1       8.680  -8.794  -2.408  1.00  0.00     0.038 A 
ATOM      5  C   UNL     1       8.849  -7.407  -2.320  1.00  0.00     0.026 A 
ATOM      6  C   UNL     1       7.823  -6.586  -1.829  1.00  0.00     0.006 A 
ENDROOT
BRANCH   1   7
ATOM      7  C   UNL     1       5.524  -6.257  -0.831  1.00  0.00     0.037 C 
BRANCH   7   8
ATOM      8  C   UNL     1       4.641  -5.489  -1.833  1.00  0.00     0.020 C 
BRANCH   8   9
ATOM      9  C   UNL     1       3.719  -6.345  -2.712  1.00  0.00     0.078 C 
BRANCH   9  10
ATOM     10  N   UNL     1       2.322  -6.366  -2.302  1.00  0.00    -0.330 NA
ATOM     11  H   UNL     1       2.216  -6.919  -1.453  1.00  0.00     0.118 HD
ATOM     12  H   UNL     1       1.755  -6.836  -3.008  1.00  0.00     0.118 HD
ENDBRANCH   9  10
ENDBRANCH   8   9
ENDBRANCH   7   8
ENDBRANCH   1   7
BRANCH   4  13
ATOM     13  N   UNL     1       9.688  -9.596  -2.977  1.00  0.00    -0.362 N 
ATOM     14  H   UNL     1      10.429  -9.901  -2.358  1.00  0.00     0.166 HD
BRANCH  13  15
ATOM     15  C   UNL     1       9.880  -9.774  -4.321  1.00  0.00     0.083 C 
BRANCH  15  16
ATOM     16  C   UNL     1       9.644 -10.858  -5.072  1.00  0.00     0.027 C 
BRANCH  16  17
ATOM     17  C   UNL     1      10.737 -11.747  -5.493  1.00  0.00    -0.003 A 
ATOM     18  C   UNL     1      11.269 -11.726  -6.794  1.00  0.00    -0.041 A 
ATOM     19  C   UNL     1      11.276 -12.693  -4.608  1.00  0.00     0.119 A 
ATOM     20  C   UNL     1      12.295 -12.626  -7.118  1.00  0.00     0.024 A 
ATOM     21  N   UNL     1      12.277 -13.556  -4.898  1.00  0.00    -0.264 NA
ATOM     22  C   UNL     1      12.766 -13.498  -6.149  1.00  0.00     0.111 A 
ATOM     23  C   UNL     1      10.751 -10.801  -7.860  1.00  0.00     0.045 C 
ENDBRANCH  16  17
ENDBRANCH  15  16
ENDBRANCH  13  15
ENDBRANCH   4  13
TORSDOF 8
ENDMDL
MODEL 6
REMARK VINA RESULT:    -4.879      4.539      6.469
REMARK INTER + INTRA:          -7.644
REMARK INTER:                  -6.949
REMARK INTRA:                  -0.695
REMARK UNBOUND:                -0.626
REMARK SMILES Cc1ccncc1/C=C/Nc1ccc(CCCN)cc1
REMARK SMILES IDX 14 1 13 2 12 3 11 4 20 5 19 6 15 7 16 8 17 9 18 10 10 13
REMARK SMILES IDX 9 15 8 16 7 17 2 18 6 19 3 20 5 21 4 22 1 23
REMARK H PARENT 18 11 18 12 10 14
ROOT
ATOM      1  C   UNL     1      10.981 -11.000  -6.897  1.00  0.00    -0.048 A 
ATOM      2  C   UNL     1      10.298  -9.783  -6.940  1.00  0.00     0.006 A 
ATOM      3  C   UNL     1       9.544  -9.352  -5.852  1.00  0.00     0.026 A 
ATOM      4  C   UNL     1       9.377 -10.149  -4.716  1.00  0.00     0.038 A 
ATOM      5  C   UNL     1      10.015 -11.395  -4.695  1.00  0.00     0.026 A 
ATOM      6  C   UNL     1      10.808 -11.817  -5.773  1.00  0.00     0.006 A 
ENDROOT
BRANCH   1   7
ATOM      7  C   UNL     1      11.882 -11.430  -8.028  1.00  0.00     0.037 C 
BRANCH   7   8
ATOM      8  C   UNL     1      12.508 -10.307  -8.879  1.00  0.00     0.020 C 
BRANCH   8   9
ATOM      9  C   UNL     1      14.037 -10.180  -8.807  1.00  0.00     0.078 C 
BRANCH   9  10
ATOM     10  N   UNL     1      14.566  -9.854  -7.490  1.00  0.00    -0.330 NA
ATOM     11  H   UNL     1      15.192  -9.053  -7.555  1.00  0.00     0.118 HD
ATOM     12  H   UNL     1      15.140 -10.622  -7.142  1.00  0.00     0.118 HD
ENDBRANCH   9  10
ENDBRANCH   8   9
ENDBRANCH   7   8
ENDBRANCH   1   7
BRANCH   4  13
ATOM     13  N   UNL     1       8.521  -9.773  -3.664  1.00  0.00    -0.362 N 
ATOM     14  H   UNL     1       7.527  -9.858  -3.835  1.00  0.00     0.166 HD
BRANCH  13  15
ATOM     15  C   UNL     1       8.908  -9.076  -2.550  1.00  0.00     0.083 C 
BRANCH  15  16
ATOM     16  C   UNL     1       8.762  -7.773  -2.276  1.00  0.00     0.027 C 
BRANCH  16  17
ATOM     17  C   UNL     1       7.434  -7.192  -2.026  1.00  0.00    -0.003 A 
ATOM     18  C   UNL     1       7.199  -5.806  -2.055  1.00  0.00    -0.041 A 
ATOM     19  C   UNL     1       6.339  -8.009  -1.707  1.00  0.00     0.119 A 
ATOM     20  C   UNL     1       5.906  -5.335  -1.782  1.00  0.00     0.024 A 
ATOM     21  N   UNL     1       5.082  -7.573  -1.458  1.00  0.00    -0.264 NA
ATOM     22  C   UNL     1       4.896  -6.242  -1.505  1.00  0.00     0.111 A 
ATOM     23  C   UNL     1       8.291  -4.811  -2.331  1.00  0.00     0.045 C 
ENDBRANCH  16  17
ENDBRANCH  15  16
ENDBRANCH  13  15
ENDBRANCH   4  13
TORSDOF 8
ENDMDL
MODEL 7
REMARK VINA RESULT:    -4.879      9.259     10.996
REMARK INTER + INTRA:          -7.644
REMARK INTER:                  -6.729
REMARK INTRA:                  -0.915
REMARK UNBOUND:                -0.626
REMARK SMILES Cc1ccncc1/C=C/Nc1ccc(CCCN)cc1
REMARK SMILES IDX 14 1 13 2 12 3 11 4 20 5 19 6 15 7 16 8 17 9 18 10 10 13
REMARK SMILES IDX 9 15 8 16 7 17 2 18 6 19 3 20 5 21 4 22 1 23
REMARK H PARENT 18 11 18 12 10 14
ROOT
ATOM      1  C   UNL     1      10.589 -10.501  -6.712  1.00  0.00    -0.048 A 
ATOM      2  C   UNL     1      10.839 -11.861  -6.520  1.00  0.00     0.006 A 
ATOM      3  C   UNL     1      11.755 -12.535  -7.322  1.00  0.00     0.026 A 
ATOM      4  C   UNL     1      12.397 -11.904  -8.390  1.00  0.00     0.038 A 
ATOM      5  C   UNL     1      12.105 -10.554  -8.619  1.00  0.00     0.026 A 
ATOM      6  C   UNL     1      11.211  -9.859  -7.790  1.00  0.00     0.006 A 
ENDROOT
BRANCH   1   7
ATOM      7  C   UNL     1       9.675  -9.737  -5.787  1.00  0.00     0.037 C 
BRANCH   7   8
ATOM      8  C   UNL     1       9.691 -10.151  -4.302  1.00  0.00     0.020 C 
BRANCH   8   9
ATOM      9  C   UNL     1       9.359  -9.043  -3.291  1.00  0.00     0.078 C 
BRANCH   9  10
ATOM     10  N   UNL     1       8.869  -9.513  -2.003  1.00  0.00    -0.330 NA
ATOM     11  H   UNL     1       8.840  -8.741  -1.338  1.00  0.00     0.118 HD
ATOM     12  H   UNL     1       9.520 -10.191  -1.605  1.00  0.00     0.118 HD
ENDBRANCH   9  10
ENDBRANCH   8   9
ENDBRANCH   7   8
ENDBRANCH   1   7
BRANCH   4  13
ATOM     13  N   UNL     1      13.233 -12.608  -9.277  1.00  0.00    -0.362 N 
ATOM     14  H   UNL     1      14.007 -13.115  -8.867  1.00  0.00     0.166 HD
BRANCH  13  15
ATOM     15  C   UNL     1      13.237 -12.453 -10.638  1.00  0.00     0.083 C 
BRANCH  15  16
ATOM     16  C   UNL     1      13.028 -13.368 -11.594  1.00  0.00     0.027 C 
BRANCH  16  17
ATOM     17  C   UNL     1      11.848 -14.245 -11.565  1.00  0.00    -0.003 A 
ATOM     18  C   UNL     1      11.946 -15.635 -11.379  1.00  0.00    -0.041 A 
ATOM     19  C   UNL     1      10.560 -13.725 -11.761  1.00  0.00     0.119 A 
ATOM     20  C   UNL     1      10.770 -16.401 -11.388  1.00  0.00     0.024 A 
ATOM     21  N   UNL     1       9.414 -14.446 -11.755  1.00  0.00    -0.264 NA
ATOM     22  C   UNL     1       9.548 -15.770 -11.565  1.00  0.00     0.111 A 
ATOM     23  C   UNL     1      13.266 -16.333 -11.210  1.00  0.00     0.045 C 
ENDBRANCH  16  17
ENDBRANCH  15  16
ENDBRANCH  13  15
ENDBRANCH   4  13
TORSDOF 8
ENDMDL
MODEL 8
REMARK VINA RESULT:    -4.857      4.527      8.495
REMARK INTER + INTRA:          -7.612
REMARK INTER:                  -7.141
REMARK INTRA:                  -0.471
REMARK UNBOUND:                -0.626
REMARK SMILES Cc1ccncc1/C=C/Nc1ccc(CCCN)cc1
REMARK SMILES IDX 14 1 13 2 12 3 11 4 20 5 19 6 15 7 16 8 17 9 18 10 10 13
REMARK SMILES IDX 9 15 8 16 7 17 2 18 6 19 3 20 5 21 4 22 1 23
REMARK H PARENT 18 11 18 12 10 14
ROOT
ATOM      1  C   UNL     1       6.498  -6.718  -1.347  1.00  0.00    -0.048 A 
ATOM      2  C   UNL     1       6.293  -8.094  -1.472  1.00  0.00     0.006 A 
ATOM      3  C   UNL     1       7.318  -8.927  -1.911  1.00  0.00     0.026 A 
ATOM      4  C   UNL     1       8.555  -8.417  -2.314  1.00  0.00     0.038 A 
ATOM      5  C   UNL     1       8.742  -7.031  -2.243  1.00  0.00     0.026 A 
ATOM      6  C   UNL     1       7.725  -6.190  -1.765  1.00  0.00     0.006 A 
ENDROOT
BRANCH   1   7
ATOM      7  C   UNL     1       5.429  -5.819  -0.778  1.00  0.00     0.037 C 
BRANCH   7   8
ATOM      8  C   UNL     1       4.497  -5.125  -1.791  1.00  0.00     0.020 C 
BRANCH   8   9
ATOM      9  C   UNL     1       3.729  -6.053  -2.744  1.00  0.00     0.078 C 
BRANCH   9  10
ATOM     10  N   UNL     1       2.400  -6.437  -2.290  1.00  0.00    -0.330 NA
ATOM     11  H   UNL     1       2.263  -7.439  -2.420  1.00  0.00     0.118 HD
ATOM     12  H   UNL     1       1.688  -5.987  -2.865  1.00  0.00     0.118 HD
ENDBRANCH   9  10
ENDBRANCH   8   9
ENDBRANCH   7   8
ENDBRANCH   1   7
BRANCH   4  13
ATOM     13  N   UNL     1       9.554  -9.239  -2.870  1.00  0.00    -0.362 N 
ATOM     14  H   UNL     1      10.347  -9.452  -2.279  1.00  0.00     0.166 HD
BRANCH  13  15
ATOM     15  C   UNL     1       9.660  -9.551  -4.199  1.00  0.00     0.083 C 
BRANCH  15  16
ATOM     16  C   UNL     1       9.562 -10.745  -4.798  1.00  0.00     0.027 C 
BRANCH  16  17
ATOM     17  C   UNL     1      10.403 -11.089  -5.955  1.00  0.00    -0.003 A 
ATOM     18  C   UNL     1      11.329 -12.146  -5.926  1.00  0.00    -0.041 A 
ATOM     19  C   UNL     1      10.340 -10.338  -7.139  1.00  0.00     0.119 A 
ATOM     20  C   UNL     1      12.109 -12.391  -7.067  1.00  0.00     0.024 A 
ATOM     21  N   UNL     1      11.072 -10.571  -8.253  1.00  0.00    -0.264 NA
ATOM     22  C   UNL     1      11.939 -11.597  -8.190  1.00  0.00     0.111 A 
ATOM     23  C   UNL     1      11.540 -12.999  -4.706  1.00  0.00     0.045 C 
ENDBRANCH  16  17
ENDBRANCH  15  16
ENDBRANCH  13  15
ENDBRANCH   4  13
TORSDOF 8
ENDMDL
MODEL 9
REMARK VINA RESULT:    -4.759      1.738      8.502
REMARK INTER + INTRA:          -7.471
REMARK INTER:                  -7.142
REMARK INTRA:                  -0.329
REMARK UNBOUND:                -0.626
REMARK SMILES Cc1ccncc1/C=C/Nc1ccc(CCCN)cc1
REMARK SMILES IDX 14 1 13 2 12 3 11 4 20 5 19 6 15 7 16 8 17 9 18 10 10 13
REMARK SMILES IDX 9 15 8 16 7 17 2 18 6 19 3 20 5 21 4 22 1 23
REMARK H PARENT 18 11 18 12 10 14
ROOT
ATOM      1  C   UNL     1       6.960  -5.954  -2.131  1.00  0.00    -0.048 A 
ATOM      2  C   UNL     1       8.312  -5.611  -2.206  1.00  0.00     0.006 A 
ATOM      3  C   UNL     1       9.297  -6.594  -2.188  1.00  0.00     0.026 A 
ATOM      4  C   UNL     1       8.980  -7.944  -2.016  1.00  0.00     0.038 A 
ATOM      5  C   UNL     1       7.629  -8.284  -1.883  1.00  0.00     0.026 A 
ATOM      6  C   UNL     1       6.629  -7.301  -1.939  1.00  0.00     0.006 A 
ENDROOT
BRANCH   1   7
ATOM      7  C   UNL     1       5.881  -4.907  -2.251  1.00  0.00     0.037 C 
BRANCH   7   8
ATOM      8  C   UNL     1       4.471  -5.310  -1.778  1.00  0.00     0.020 C 
BRANCH   8   9
ATOM      9  C   UNL     1       3.583  -6.001  -2.823  1.00  0.00     0.078 C 
BRANCH   9  10
ATOM     10  N   UNL     1       2.299  -6.473  -2.323  1.00  0.00    -0.330 NA
ATOM     11  H   UNL     1       1.546  -5.901  -2.703  1.00  0.00     0.118 HD
ATOM     12  H   UNL     1       2.250  -6.353  -1.311  1.00  0.00     0.118 HD
ENDBRANCH   9  10
ENDBRANCH   8   9
ENDBRANCH   7   8
ENDBRANCH   1   7
BRANCH   4  13
ATOM     13  N   UNL     1       9.976  -8.930  -1.878  1.00  0.00    -0.362 N 
ATOM     14  H   UNL     1      10.121  -9.544  -2.670  1.00  0.00     0.166 HD
BRANCH  13  15
ATOM     15  C   UNL     1      10.568  -9.283  -0.694  1.00  0.00     0.083 C 
BRANCH  15  16
ATOM     16  C   UNL     1      11.867  -9.298  -0.369  1.00  0.00     0.027 C 
BRANCH  16  17
ATOM     17  C   UNL     1      12.419 -10.329   0.523  1.00  0.00    -0.003 A 
ATOM     18  C   UNL     1      13.453 -11.194   0.126  1.00  0.00    -0.041 A 
ATOM     19  C   UNL     1      11.899 -10.518   1.812  1.00  0.00     0.119 A 
ATOM     20  C   UNL     1      13.904 -12.166   1.032  1.00  0.00     0.024 A 
ATOM     21  N   UNL     1      12.334 -11.438   2.705  1.00  0.00    -0.264 NA
ATOM     22  C   UNL     1      13.331 -12.240   2.292  1.00  0.00     0.111 A 
ATOM     23  C   UNL     1      14.066 -11.140  -1.245  1.00  0.00     0.045 C 
ENDBRANCH  16  17
ENDBRANCH  15  16
ENDBRANCH  13  15
ENDBRANCH   4  13
TORSDOF 8
ENDMDL
