MODEL 1
REMARK VINA RESULT:    -5.164      0.000      0.000
REMARK INTER + INTRA:          -8.042
REMARK INTER:                  -7.429
REMARK INTRA:                  -0.614
REMARK UNBOUND:                -0.614
REMARK SMILES Cc1ccncc1/C=C/Nc1ccc(CCCN)cc1
REMARK SMILES IDX 14 1 13 2 12 3 11 4 20 5 19 6 15 7 16 8 17 9 18 10 10 13
REMARK SMILES IDX 9 15 8 16 7 17 2 18 6 19 3 20 5 21 4 22 1 23
REMARK H PARENT 18 11 18 12 10 14
ROOT
ATOM      1  C   UNL     1       0.549   5.206 -15.898  1.00  0.00    -0.048 A 
ATOM      2  C   UNL     1       0.418   5.485 -14.536  1.00  0.00     0.006 A 
ATOM      3  C   UNL     1       0.390   4.455 -13.600  1.00  0.00     0.026 A 
ATOM      4  C   UNL     1       0.413   3.113 -13.987  1.00  0.00     0.038 A 
ATOM      5  C   UNL     1       0.487   2.831 -15.356  1.00  0.00     0.026 A 
ATOM      6  C   UNL     1       0.554   3.866 -16.302  1.00  0.00     0.006 A 
ENDROOT
BRANCH   1   7
ATOM      7  C   UNL     1       0.682   6.315 -16.912  1.00  0.00     0.037 C 
BRANCH   7   8
ATOM      8  C   UNL     1       1.790   7.355 -16.659  1.00  0.00     0.020 C 
BRANCH   8   9
ATOM      9  C   UNL     1       2.996   7.298 -17.608  1.00  0.00     0.078 C 
BRANCH   9  10
ATOM     10  N   UNL     1       4.175   6.637 -17.067  1.00  0.00    -0.330 NA
ATOM     11  H   UNL     1       3.896   5.924 -16.394  1.00  0.00     0.118 HD
ATOM     12  H   UNL     1       4.741   7.303 -16.541  1.00  0.00     0.118 HD
ENDBRANCH   9  10
ENDBRANCH   8   9
ENDBRANCH   7   8
ENDBRANCH   1   7
BRANCH   4  13
ATOM     13  N   UNL     1       0.265   2.067 -13.055  1.00  0.00    -0.362 N 
ATOM     14  H   UNL     1      -0.673   1.717 -12.911  1.00  0.00     0.166 HD
BRANCH  13  15
ATOM     15  C   UNL     1       1.226   1.674 -12.161  1.00  0.00     0.083 C 
BRANCH  15  16
ATOM     16  C   UNL     1       1.139   0.786 -11.163  1.00  0.00     0.027 C 
BRANCH  16  17
ATOM     17  C   UNL     1       1.504   1.149  -9.785  1.00  0.00    -0.003 A 
ATOM     18  C   UNL     1       0.855   0.604  -8.664  1.00  0.00    -0.041 A 
ATOM     19  C   UNL     1       2.506   2.098  -9.533  1.00  0.00     0.119 A 
ATOM     20  C   UNL     1       1.251   1.024  -7.385  1.00  0.00     0.024 A 
ATOM     21  N   UNL     1       2.912   2.502  -8.307  1.00  0.00    -0.264 NA
ATOM     22  C   UNL     1       2.274   1.950  -7.260  1.00  0.00     0.111 A 
ATOM     23  C   UNL     1      -0.272  -0.383  -8.787  1.00  0.00     0.045 C 
ENDBRANCH  16  17
ENDBRANCH  15  16
ENDBRANCH  13  15
ENDBRANCH   4  13
TORSDOF 8
ENDMDL
MODEL 2
REMARK VINA RESULT:    -5.131      4.861      6.827
REMARK INTER + INTRA:          -7.994
REMARK INTER:                  -7.355
REMARK INTRA:                  -0.639
REMARK UNBOUND:                -0.614
REMARK SMILES Cc1ccncc1/C=C/Nc1ccc(CCCN)cc1
REMARK SMILES IDX 14 1 13 2 12 3 11 4 20 5 19 6 15 7 16 8 17 9 18 10 10 13
REMARK SMILES IDX 9 15 8 16 7 17 2 18 6 19 3 20 5 21 4 22 1 23
REMARK H PARENT 18 11 18 12 10 14
ROOT
ATOM      1  C   UNL     1       5.417  -2.262 -14.893  1.00  0.00    -0.048 A 
ATOM      2  C   UNL     1       5.568  -0.922 -15.258  1.00  0.00     0.006 A 
ATOM      3  C   UNL     1       5.234   0.097 -14.370  1.00  0.00     0.026 A 
ATOM      4  C   UNL     1       4.669  -0.175 -13.122  1.00  0.00     0.038 A 
ATOM      5  C   UNL     1       4.464  -1.517 -12.778  1.00  0.00     0.026 A 
ATOM      6  C   UNL     1       4.834  -2.550 -13.653  1.00  0.00     0.006 A 
ENDROOT
BRANCH   1   7
ATOM      7  C   UNL     1       5.869  -3.374 -15.807  1.00  0.00     0.037 C 
BRANCH   7   8
ATOM      8  C   UNL     1       4.866  -4.519 -16.050  1.00  0.00     0.020 C 
BRANCH   8   9
ATOM      9  C   UNL     1       4.142  -4.504 -17.404  1.00  0.00     0.078 C 
BRANCH   9  10
ATOM     10  N   UNL     1       2.903  -3.739 -17.429  1.00  0.00    -0.330 NA
ATOM     11  H   UNL     1       2.117  -4.355 -17.636  1.00  0.00     0.118 HD
ATOM     12  H   UNL     1       2.924  -3.060 -18.190  1.00  0.00     0.118 HD
ENDBRANCH   9  10
ENDBRANCH   8   9
ENDBRANCH   7   8
ENDBRANCH   1   7
BRANCH   4  13
ATOM     13  N   UNL     1       4.220   0.851 -12.269  1.00  0.00    -0.362 N 
ATOM     14  H   UNL     1       4.912   1.522 -11.962  1.00  0.00     0.166 HD
BRANCH  13  15
ATOM     15  C   UNL     1       3.008   0.862 -11.629  1.00  0.00     0.083 C 
BRANCH  15  16
ATOM     16  C   UNL     1       2.522   1.753 -10.754  1.00  0.00     0.027 C 
BRANCH  16  17
ATOM     17  C   UNL     1       1.615   1.342  -9.672  1.00  0.00    -0.003 A 
ATOM     18  C   UNL     1       1.739   1.829  -8.359  1.00  0.00    -0.041 A 
ATOM     19  C   UNL     1       0.597   0.404  -9.904  1.00  0.00     0.119 A 
ATOM     20  C   UNL     1       0.845   1.365  -7.382  1.00  0.00     0.024 A 
ATOM     21  N   UNL     1      -0.284  -0.040  -8.977  1.00  0.00    -0.264 NA
ATOM     22  C   UNL     1      -0.139   0.456  -7.736  1.00  0.00     0.111 A 
ATOM     23  C   UNL     1       2.817   2.796  -7.957  1.00  0.00     0.045 C 
ENDBRANCH  16  17
ENDBRANCH  15  16
ENDBRANCH  13  15
ENDBRANCH   4  13
TORSDOF 8
ENDMDL
MODEL 3
REMARK VINA RESULT:    -5.017      1.221      2.098
REMARK INTER + INTRA:          -7.830
REMARK INTER:                  -7.204
REMARK INTRA:                  -0.625
REMARK UNBOUND:                -0.614
REMARK SMILES Cc1ccncc1/C=C/Nc1ccc(CCCN)cc1
REMARK SMILES IDX 14 1 13 2 12 3 11 4 20 5 19 6 15 7 16 8 17 9 18 10 10 13
REMARK SMILES IDX 9 15 8 16 7 17 2 18 6 19 3 20 5 21 4 22 1 23
REMARK H PARENT 18 11 18 12 10 14
ROOT
ATOM      1  C   UNL     1       0.458   5.266 -15.864  1.00  0.00    -0.048 A 
ATOM      2  C   UNL     1       0.542   3.946 -16.311  1.00  0.00     0.006 A 
ATOM      3  C   UNL     1       0.521   2.887 -15.408  1.00  0.00     0.026 A 
ATOM      4  C   UNL     1       0.494   3.103 -14.028  1.00  0.00     0.038 A 
ATOM      5  C   UNL     1       0.468   4.428 -13.576  1.00  0.00     0.026 A 
ATOM      6  C   UNL     1       0.450   5.498 -14.483  1.00  0.00     0.006 A 
ENDROOT
BRANCH   1   7
ATOM      7  C   UNL     1       0.379   6.416 -16.837  1.00  0.00     0.037 C 
BRANCH   7   8
ATOM      8  C   UNL     1       1.371   7.575 -16.621  1.00  0.00     0.020 C 
BRANCH   8   9
ATOM      9  C   UNL     1       2.663   7.518 -17.449  1.00  0.00     0.078 C 
BRANCH   9  10
ATOM     10  N   UNL     1       3.816   6.963 -16.754  1.00  0.00    -0.330 NA
ATOM     11  H   UNL     1       3.673   7.012 -15.747  1.00  0.00     0.118 HD
ATOM     12  H   UNL     1       4.645   7.529 -16.940  1.00  0.00     0.118 HD
ENDBRANCH   9  10
ENDBRANCH   8   9
ENDBRANCH   7   8
ENDBRANCH   1   7
BRANCH   4  13
ATOM     13  N   UNL     1       0.593   2.042 -13.107  1.00  0.00    -0.362 N 
ATOM     14  H   UNL     1      -0.277   1.680 -12.737  1.00  0.00     0.166 HD
BRANCH  13  15
ATOM     15  C   UNL     1       1.750   1.646 -12.491  1.00  0.00     0.083 C 
BRANCH  15  16
ATOM     16  C   UNL     1       2.086   1.718 -11.196  1.00  0.00     0.027 C 
BRANCH  16  17
ATOM     17  C   UNL     1       1.271   1.065 -10.160  1.00  0.00    -0.003 A 
ATOM     18  C   UNL     1       1.432   1.338  -8.791  1.00  0.00    -0.041 A 
ATOM     19  C   UNL     1       0.311   0.100 -10.502  1.00  0.00     0.119 A 
ATOM     20  C   UNL     1       0.628   0.652  -7.867  1.00  0.00     0.024 A 
ATOM     21  N   UNL     1      -0.484  -0.558  -9.627  1.00  0.00    -0.264 NA
ATOM     22  C   UNL     1      -0.307  -0.262  -8.327  1.00  0.00     0.111 A 
ATOM     23  C   UNL     1       2.459   2.309  -8.279  1.00  0.00     0.045 C 
ENDBRANCH  16  17
ENDBRANCH  15  16
ENDBRANCH  13  15
ENDBRANCH   4  13
TORSDOF 8
ENDMDL
MODEL 4
REMARK VINA RESULT:    -4.982      1.949      8.677
REMARK INTER + INTRA:          -7.781
REMARK INTER:                  -7.238
REMARK INTRA:                  -0.543
REMARK UNBOUND:                -0.614
REMARK SMILES Cc1ccncc1/C=C/Nc1ccc(CCCN)cc1
REMARK SMILES IDX 14 1 13 2 12 3 11 4 20 5 19 6 15 7 16 8 17 9 18 10 10 13
REMARK SMILES IDX 9 15 8 16 7 17 2 18 6 19 3 20 5 21 4 22 1 23
REMARK H PARENT 18 11 18 12 10 14
ROOT
ATOM      1  C   UNL     1       1.853   0.944  -9.053  1.00  0.00    -0.048 A 
ATOM      2  C   UNL     1       0.859   0.395  -9.866  1.00  0.00     0.006 A 
ATOM      3  C   UNL     1       0.800   0.703 -11.222  1.00  0.00     0.026 A 
ATOM      4  C   UNL     1       1.675   1.624 -11.803  1.00  0.00     0.038 A 
ATOM      5  C   UNL     1       2.636   2.219 -10.977  1.00  0.00     0.026 A 
ATOM      6  C   UNL     1       2.725   1.884  -9.617  1.00  0.00     0.006 A 
ENDROOT
BRANCH   1   7
ATOM      7  C   UNL     1       1.990   0.541  -7.606  1.00  0.00     0.037 C 
BRANCH   7   8
ATOM      8  C   UNL     1       2.533   1.610  -6.639  1.00  0.00     0.020 C 
BRANCH   8   9
ATOM      9  C   UNL     1       3.625   1.144  -5.664  1.00  0.00     0.078 C 
BRANCH   9  10
ATOM     10  N   UNL     1       3.148   0.351  -4.540  1.00  0.00    -0.330 NA
ATOM     11  H   UNL     1       3.369  -0.633  -4.688  1.00  0.00     0.118 HD
ATOM     12  H   UNL     1       2.130   0.397  -4.483  1.00  0.00     0.118 HD
ENDBRANCH   9  10
ENDBRANCH   8   9
ENDBRANCH   7   8
ENDBRANCH   1   7
BRANCH   4  13
ATOM     13  N   UNL     1       1.545   2.030 -13.145  1.00  0.00    -0.362 N 
ATOM     14  H   UNL     1       2.392   2.041 -13.700  1.00  0.00     0.166 HD
BRANCH  13  15
ATOM     15  C   UNL     1       0.441   2.643 -13.674  1.00  0.00     0.083 C 
BRANCH  15  16
ATOM     16  C   UNL     1       0.360   3.782 -14.375  1.00  0.00     0.027 C 
BRANCH  16  17
ATOM     17  C   UNL     1       0.636   3.808 -15.820  1.00  0.00    -0.003 A 
ATOM     18  C   UNL     1       0.502   4.975 -16.592  1.00  0.00    -0.041 A 
ATOM     19  C   UNL     1       1.012   2.641 -16.502  1.00  0.00     0.119 A 
ATOM     20  C   UNL     1       0.762   4.905 -17.969  1.00  0.00     0.024 A 
ATOM     21  N   UNL     1       1.283   2.560 -17.825  1.00  0.00    -0.264 NA
ATOM     22  C   UNL     1       1.154   3.699 -18.528  1.00  0.00     0.111 A 
ATOM     23  C   UNL     1       0.055   6.283 -16.003  1.00  0.00     0.045 C 
ENDBRANCH  16  17
ENDBRANCH  15  16
ENDBRANCH  13  15
ENDBRANCH   4  13
TORSDOF 8
ENDMDL
MODEL 5
REMARK VINA RESULT:    -4.933      4.957      8.495
REMARK INTER + INTRA:          -7.710
REMARK INTER:                  -7.103
REMARK INTRA:                  -0.606
REMARK UNBOUND:                -0.614
REMARK SMILES Cc1ccncc1/C=C/Nc1ccc(CCCN)cc1
REMARK SMILES IDX 14 1 13 2 12 3 11 4 20 5 19 6 15 7 16 8 17 9 18 10 10 13
REMARK SMILES IDX 9 15 8 16 7 17 2 18 6 19 3 20 5 21 4 22 1 23
REMARK H PARENT 18 11 18 12 10 14
ROOT
ATOM      1  C   UNL     1       1.319   1.489  -9.673  1.00  0.00    -0.048 A 
ATOM      2  C   UNL     1       2.599   2.002  -9.893  1.00  0.00     0.006 A 
ATOM      3  C   UNL     1       3.291   1.709 -11.065  1.00  0.00     0.026 A 
ATOM      4  C   UNL     1       2.770   0.836 -12.023  1.00  0.00     0.038 A 
ATOM      5  C   UNL     1       1.510   0.276 -11.778  1.00  0.00     0.026 A 
ATOM      6  C   UNL     1       0.792   0.598 -10.616  1.00  0.00     0.006 A 
ENDROOT
BRANCH   1   7
ATOM      7  C   UNL     1       0.520   1.880  -8.455  1.00  0.00     0.037 C 
BRANCH   7   8
ATOM      8  C   UNL     1      -0.494   0.845  -7.932  1.00  0.00     0.020 C 
BRANCH   8   9
ATOM      9  C   UNL     1      -1.402   1.312  -6.785  1.00  0.00     0.078 C 
BRANCH   9  10
ATOM     10  N   UNL     1      -2.536   0.443  -6.504  1.00  0.00    -0.330 NA
ATOM     11  H   UNL     1      -2.463  -0.413  -7.052  1.00  0.00     0.118 HD
ATOM     12  H   UNL     1      -3.403   0.887  -6.806  1.00  0.00     0.118 HD
ENDBRANCH   9  10
ENDBRANCH   8   9
ENDBRANCH   7   8
ENDBRANCH   1   7
BRANCH   4  13
ATOM     13  N   UNL     1       3.512   0.442 -13.153  1.00  0.00    -0.362 N 
ATOM     14  H   UNL     1       3.105   0.644 -14.057  1.00  0.00     0.166 HD
BRANCH  13  15
ATOM     15  C   UNL     1       4.589  -0.404 -13.125  1.00  0.00     0.083 C 
BRANCH  15  16
ATOM     16  C   UNL     1       4.653  -1.703 -13.446  1.00  0.00     0.027 C 
BRANCH  16  17
ATOM     17  C   UNL     1       5.221  -2.144 -14.729  1.00  0.00    -0.003 A 
ATOM     18  C   UNL     1       4.874  -3.369 -15.326  1.00  0.00    -0.041 A 
ATOM     19  C   UNL     1       6.174  -1.363 -15.401  1.00  0.00     0.119 A 
ATOM     20  C   UNL     1       5.481  -3.723 -16.540  1.00  0.00     0.024 A 
ATOM     21  N   UNL     1       6.756  -1.681 -16.581  1.00  0.00    -0.264 NA
ATOM     22  C   UNL     1       6.391  -2.856 -17.124  1.00  0.00     0.111 A 
ATOM     23  C   UNL     1       3.907  -4.328 -14.690  1.00  0.00     0.045 C 
ENDBRANCH  16  17
ENDBRANCH  15  16
ENDBRANCH  13  15
ENDBRANCH   4  13
TORSDOF 8
ENDMDL
MODEL 6
REMARK VINA RESULT:    -4.923      1.658      8.595
REMARK INTER + INTRA:          -7.695
REMARK INTER:                  -7.092
REMARK INTRA:                  -0.603
REMARK UNBOUND:                -0.614
REMARK SMILES Cc1ccncc1/C=C/Nc1ccc(CCCN)cc1
REMARK SMILES IDX 14 1 13 2 12 3 11 4 20 5 19 6 15 7 16 8 17 9 18 10 10 13
REMARK SMILES IDX 9 15 8 16 7 17 2 18 6 19 3 20 5 21 4 22 1 23
REMARK H PARENT 18 11 18 12 10 14
ROOT
ATOM      1  C   UNL     1       1.828   1.050  -9.576  1.00  0.00    -0.048 A 
ATOM      2  C   UNL     1       0.811   0.558 -10.397  1.00  0.00     0.006 A 
ATOM      3  C   UNL     1       0.725   0.946 -11.731  1.00  0.00     0.026 A 
ATOM      4  C   UNL     1       1.595   1.894 -12.275  1.00  0.00     0.038 A 
ATOM      5  C   UNL     1       2.580   2.431 -11.438  1.00  0.00     0.026 A 
ATOM      6  C   UNL     1       2.696   2.014 -10.103  1.00  0.00     0.006 A 
ENDROOT
BRANCH   1   7
ATOM      7  C   UNL     1       1.993   0.559  -8.159  1.00  0.00     0.037 C 
BRANCH   7   8
ATOM      8  C   UNL     1       2.594   1.555  -7.148  1.00  0.00     0.020 C 
BRANCH   8   9
ATOM      9  C   UNL     1       2.841   1.012  -5.733  1.00  0.00     0.078 C 
BRANCH   9  10
ATOM     10  N   UNL     1       3.841   1.736  -4.962  1.00  0.00    -0.330 NA
ATOM     11  H   UNL     1       3.407   2.175  -4.152  1.00  0.00     0.118 HD
ATOM     12  H   UNL     1       4.225   2.502  -5.516  1.00  0.00     0.118 HD
ENDBRANCH   9  10
ENDBRANCH   8   9
ENDBRANCH   7   8
ENDBRANCH   1   7
BRANCH   4  13
ATOM     13  N   UNL     1       1.440   2.380 -13.588  1.00  0.00    -0.362 N 
ATOM     14  H   UNL     1       2.193   2.187 -14.236  1.00  0.00     0.166 HD
BRANCH  13  15
ATOM     15  C   UNL     1       0.496   3.293 -13.977  1.00  0.00     0.083 C 
BRANCH  15  16
ATOM     16  C   UNL     1       0.620   4.615 -14.155  1.00  0.00     0.027 C 
BRANCH  16  17
ATOM     17  C   UNL     1       0.596   5.208 -15.501  1.00  0.00    -0.003 A 
ATOM     18  C   UNL     1       1.121   6.484 -15.772  1.00  0.00    -0.041 A 
ATOM     19  C   UNL     1       0.005   4.528 -16.577  1.00  0.00     0.119 A 
ATOM     20  C   UNL     1       1.035   6.984 -17.081  1.00  0.00     0.024 A 
ATOM     21  N   UNL     1      -0.071   4.988 -17.848  1.00  0.00    -0.264 NA
ATOM     22  C   UNL     1       0.451   6.208 -18.069  1.00  0.00     0.111 A 
ATOM     23  C   UNL     1       1.735   7.345 -14.704  1.00  0.00     0.045 C 
ENDBRANCH  16  17
ENDBRANCH  15  16
ENDBRANCH  13  15
ENDBRANCH   4  13
TORSDOF 8
ENDMDL
MODEL 7
REMARK VINA RESULT:    -4.878      2.037      8.585
REMARK INTER + INTRA:          -7.631
REMARK INTER:                  -7.038
REMARK INTRA:                  -0.592
REMARK UNBOUND:                -0.614
REMARK SMILES Cc1ccncc1/C=C/Nc1ccc(CCCN)cc1
REMARK SMILES IDX 14 1 13 2 12 3 11 4 20 5 19 6 15 7 16 8 17 9 18 10 10 13
REMARK SMILES IDX 9 15 8 16 7 17 2 18 6 19 3 20 5 21 4 22 1 23
REMARK H PARENT 18 11 18 12 10 14
ROOT
ATOM      1  C   UNL     1       1.004   0.518  -8.680  1.00  0.00    -0.048 A 
ATOM      2  C   UNL     1       0.291   0.057  -9.788  1.00  0.00     0.006 A 
ATOM      3  C   UNL     1       0.633   0.467 -11.074  1.00  0.00     0.026 A 
ATOM      4  C   UNL     1       1.643   1.406 -11.298  1.00  0.00     0.038 A 
ATOM      5  C   UNL     1       2.321   1.912 -10.183  1.00  0.00     0.026 A 
ATOM      6  C   UNL     1       2.006   1.474  -8.888  1.00  0.00     0.006 A 
ENDROOT
BRANCH   1   7
ATOM      7  C   UNL     1       0.708   0.005  -7.293  1.00  0.00     0.037 C 
BRANCH   7   8
ATOM      8  C   UNL     1      -0.053   0.958  -6.350  1.00  0.00     0.020 C 
BRANCH   8   9
ATOM      9  C   UNL     1      -1.471   1.351  -6.792  1.00  0.00     0.078 C 
BRANCH   9  10
ATOM     10  N   UNL     1      -2.508   0.384  -6.462  1.00  0.00    -0.330 NA
ATOM     11  H   UNL     1      -2.298  -0.515  -6.894  1.00  0.00     0.118 HD
ATOM     12  H   UNL     1      -3.401   0.677  -6.861  1.00  0.00     0.118 HD
ENDBRANCH   9  10
ENDBRANCH   8   9
ENDBRANCH   7   8
ENDBRANCH   1   7
BRANCH   4  13
ATOM     13  N   UNL     1       1.915   1.913 -12.583  1.00  0.00    -0.362 N 
ATOM     14  H   UNL     1       2.814   1.675 -12.985  1.00  0.00     0.166 HD
BRANCH  13  15
ATOM     15  C   UNL     1       1.188   2.892 -13.208  1.00  0.00     0.083 C 
BRANCH  15  16
ATOM     16  C   UNL     1       0.480   2.824 -14.343  1.00  0.00     0.027 C 
BRANCH  16  17
ATOM     17  C   UNL     1       0.483   3.932 -15.310  1.00  0.00    -0.003 A 
ATOM     18  C   UNL     1       0.790   3.746 -16.670  1.00  0.00    -0.041 A 
ATOM     19  C   UNL     1       0.212   5.246 -14.900  1.00  0.00     0.119 A 
ATOM     20  C   UNL     1       0.793   4.863 -17.519  1.00  0.00     0.024 A 
ATOM     21  N   UNL     1       0.193   6.332 -15.708  1.00  0.00    -0.264 NA
ATOM     22  C   UNL     1       0.482   6.111 -17.003  1.00  0.00     0.111 A 
ATOM     23  C   UNL     1       1.152   2.402 -17.236  1.00  0.00     0.045 C 
ENDBRANCH  16  17
ENDBRANCH  15  16
ENDBRANCH  13  15
ENDBRANCH   4  13
TORSDOF 8
ENDMDL
MODEL 8
REMARK VINA RESULT:    -4.875      4.427      8.479
REMARK INTER + INTRA:          -7.627
REMARK INTER:                  -6.979
REMARK INTRA:                  -0.647
REMARK UNBOUND:                -0.614
REMARK SMILES Cc1ccncc1/C=C/Nc1ccc(CCCN)cc1
REMARK SMILES IDX 14 1 13 2 12 3 11 4 20 5 19 6 15 7 16 8 17 9 18 10 10 13
REMARK SMILES IDX 9 15 8 16 7 17 2 18 6 19 3 20 5 21 4 22 1 23
REMARK H PARENT 18 11 18 12 10 14
ROOT
ATOM      1  C   UNL     1       1.817   1.966  -8.503  1.00  0.00    -0.048 A 
ATOM      2  C   UNL     1       2.948   2.596  -9.026  1.00  0.00     0.006 A 
ATOM      3  C   UNL     1       3.308   2.419 -10.359  1.00  0.00     0.026 A 
ATOM      4  C   UNL     1       2.605   1.552 -11.198  1.00  0.00     0.038 A 
ATOM      5  C   UNL     1       1.503   0.875 -10.660  1.00  0.00     0.026 A 
ATOM      6  C   UNL     1       1.113   1.079  -9.327  1.00  0.00     0.006 A 
ENDROOT
BRANCH   1   7
ATOM      7  C   UNL     1       1.360   2.229  -7.090  1.00  0.00     0.037 C 
BRANCH   7   8
ATOM      8  C   UNL     1       1.604   1.106  -6.064  1.00  0.00     0.020 C 
BRANCH   8   9
ATOM      9  C   UNL     1       3.070   0.842  -5.690  1.00  0.00     0.078 C 
BRANCH   9  10
ATOM     10  N   UNL     1       3.694   1.878  -4.879  1.00  0.00    -0.330 NA
ATOM     11  H   UNL     1       3.076   2.684  -4.807  1.00  0.00     0.118 HD
ATOM     12  H   UNL     1       4.539   2.221  -5.336  1.00  0.00     0.118 HD
ENDBRANCH   9  10
ENDBRANCH   8   9
ENDBRANCH   7   8
ENDBRANCH   1   7
BRANCH   4  13
ATOM     13  N   UNL     1       3.032   1.276 -12.511  1.00  0.00    -0.362 N 
ATOM     14  H   UNL     1       2.755   1.936 -13.227  1.00  0.00     0.166 HD
BRANCH  13  15
ATOM     15  C   UNL     1       3.558   0.083 -12.928  1.00  0.00     0.083 C 
BRANCH  15  16
ATOM     16  C   UNL     1       4.814  -0.207 -13.294  1.00  0.00     0.027 C 
BRANCH  16  17
ATOM     17  C   UNL     1       5.180  -0.358 -14.710  1.00  0.00    -0.003 A 
ATOM     18  C   UNL     1       5.545  -1.596 -15.267  1.00  0.00    -0.041 A 
ATOM     19  C   UNL     1       5.216   0.753 -15.567  1.00  0.00     0.119 A 
ATOM     20  C   UNL     1       5.903  -1.647 -16.622  1.00  0.00     0.024 A 
ATOM     21  N   UNL     1       5.542   0.719 -16.880  1.00  0.00    -0.264 NA
ATOM     22  C   UNL     1       5.875  -0.485 -17.377  1.00  0.00     0.111 A 
ATOM     23  C   UNL     1       5.602  -2.859 -14.453  1.00  0.00     0.045 C 
ENDBRANCH  16  17
ENDBRANCH  15  16
ENDBRANCH  13  15
ENDBRANCH   4  13
TORSDOF 8
ENDMDL
MODEL 9
REMARK VINA RESULT:    -4.651      4.890      8.680
REMARK INTER + INTRA:          -7.304
REMARK INTER:                  -6.797
REMARK INTRA:                  -0.507
REMARK UNBOUND:                -0.614
REMARK SMILES Cc1ccncc1/C=C/Nc1ccc(CCCN)cc1
REMARK SMILES IDX 14 1 13 2 12 3 11 4 20 5 19 6 15 7 16 8 17 9 18 10 10 13
REMARK SMILES IDX 9 15 8 16 7 17 2 18 6 19 3 20 5 21 4 22 1 23
REMARK H PARENT 18 11 18 12 10 14
ROOT
ATOM      1  C   UNL     1       1.300   1.493  -9.562  1.00  0.00    -0.048 A 
ATOM      2  C   UNL     1       0.697   0.708 -10.548  1.00  0.00     0.006 A 
ATOM      3  C   UNL     1       1.363   0.426 -11.737  1.00  0.00     0.026 A 
ATOM      4  C   UNL     1       2.615   0.974 -12.023  1.00  0.00     0.038 A 
ATOM      5  C   UNL     1       3.197   1.807 -11.060  1.00  0.00     0.026 A 
ATOM      6  C   UNL     1       2.547   2.065  -9.843  1.00  0.00     0.006 A 
ENDROOT
BRANCH   1   7
ATOM      7  C   UNL     1       0.632   1.722  -8.230  1.00  0.00     0.037 C 
BRANCH   7   8
ATOM      8  C   UNL     1      -0.513   0.761  -7.855  1.00  0.00     0.020 C 
BRANCH   8   9
ATOM      9  C   UNL     1      -1.472   1.250  -6.760  1.00  0.00     0.078 C 
BRANCH   9  10
ATOM     10  N   UNL     1      -2.670   0.441  -6.585  1.00  0.00    -0.330 NA
ATOM     11  H   UNL     1      -3.482   1.043  -6.460  1.00  0.00     0.118 HD
ATOM     12  H   UNL     1      -2.602  -0.107  -5.728  1.00  0.00     0.118 HD
ENDBRANCH   9  10
ENDBRANCH   8   9
ENDBRANCH   7   8
ENDBRANCH   1   7
BRANCH   4  13
ATOM     13  N   UNL     1       3.242   0.790 -13.271  1.00  0.00    -0.362 N 
ATOM     14  H   UNL     1       2.714   1.067 -14.089  1.00  0.00     0.166 HD
BRANCH  13  15
ATOM     15  C   UNL     1       4.373   0.045 -13.476  1.00  0.00     0.083 C 
BRANCH  15  16
ATOM     16  C   UNL     1       5.162  -0.013 -14.557  1.00  0.00     0.027 C 
BRANCH  16  17
ATOM     17  C   UNL     1       5.530  -1.302 -15.163  1.00  0.00    -0.003 A 
ATOM     18  C   UNL     1       5.898  -1.422 -16.515  1.00  0.00    -0.041 A 
ATOM     19  C   UNL     1       5.492  -2.487 -14.413  1.00  0.00     0.119 A 
ATOM     20  C   UNL     1       6.211  -2.694 -17.018  1.00  0.00     0.024 A 
ATOM     21  N   UNL     1       5.808  -3.719 -14.877  1.00  0.00    -0.264 NA
ATOM     22  C   UNL     1       6.163  -3.791 -16.172  1.00  0.00     0.111 A 
ATOM     23  C   UNL     1       5.929  -0.244 -17.447  1.00  0.00     0.045 C 
ENDBRANCH  16  17
ENDBRANCH  15  16
ENDBRANCH  13  15
ENDBRANCH   4  13
TORSDOF 8
ENDMDL
