MODEL 1
REMARK VINA RESULT:    -5.135      0.000      0.000
REMARK INTER + INTRA:          -8.036
REMARK INTER:                  -7.387
REMARK INTRA:                  -0.649
REMARK UNBOUND:                -0.649
REMARK SMILES Cc1ccncc1/C=C/Nc1ccc(CCCN)cc1
REMARK SMILES IDX 14 1 13 2 12 3 11 4 20 5 19 6 15 7 16 8 17 9 18 10 10 13
REMARK SMILES IDX 9 15 8 16 7 17 2 18 6 19 3 20 5 21 4 22 1 23
REMARK H PARENT 18 11 18 12 10 14
ROOT
ATOM      1  C   UNL     1       7.852  10.865   8.234  1.00  0.00    -0.048 A 
ATOM      2  C   UNL     1       9.186  10.480   8.084  1.00  0.00     0.006 A 
ATOM      3  C   UNL     1       9.526   9.389   7.290  1.00  0.00     0.026 A 
ATOM      4  C   UNL     1       8.551   8.595   6.680  1.00  0.00     0.038 A 
ATOM      5  C   UNL     1       7.210   8.946   6.876  1.00  0.00     0.026 A 
ATOM      6  C   UNL     1       6.863  10.068   7.644  1.00  0.00     0.006 A 
ENDROOT
BRANCH   1   7
ATOM      7  C   UNL     1       7.479  12.104   9.009  1.00  0.00     0.037 C 
BRANCH   7   8
ATOM      8  C   UNL     1       6.519  11.913  10.199  1.00  0.00     0.020 C 
BRANCH   8   9
ATOM      9  C   UNL     1       7.176  11.813  11.584  1.00  0.00     0.078 C 
BRANCH   9  10
ATOM     10  N   UNL     1       7.350  10.457  12.086  1.00  0.00    -0.330 NA
ATOM     11  H   UNL     1       6.788   9.807  11.538  1.00  0.00     0.118 HD
ATOM     12  H   UNL     1       6.994  10.387  13.040  1.00  0.00     0.118 HD
ENDBRANCH   9  10
ENDBRANCH   8   9
ENDBRANCH   7   8
ENDBRANCH   1   7
BRANCH   4  13
ATOM     13  N   UNL     1       8.881   7.422   5.975  1.00  0.00    -0.362 N 
ATOM     14  H   UNL     1       9.628   7.496   5.295  1.00  0.00     0.166 HD
BRANCH  13  15
ATOM     15  C   UNL     1       8.118   6.285   5.948  1.00  0.00     0.083 C 
BRANCH  15  16
ATOM     16  C   UNL     1       8.169   5.252   5.096  1.00  0.00     0.027 C 
BRANCH  16  17
ATOM     17  C   UNL     1       7.012   4.365   4.904  1.00  0.00    -0.003 A 
ATOM     18  C   UNL     1       6.714   3.773   3.664  1.00  0.00    -0.041 A 
ATOM     19  C   UNL     1       6.124   4.102   5.958  1.00  0.00     0.119 A 
ATOM     20  C   UNL     1       5.575   2.958   3.563  1.00  0.00     0.024 A 
ATOM     21  N   UNL     1       5.032   3.305   5.882  1.00  0.00    -0.264 NA
ATOM     22  C   UNL     1       4.786   2.749   4.683  1.00  0.00     0.111 A 
ATOM     23  C   UNL     1       7.548   4.011   2.437  1.00  0.00     0.045 C 
ENDBRANCH  16  17
ENDBRANCH  15  16
ENDBRANCH  13  15
ENDBRANCH   4  13
TORSDOF 8
ENDMDL
MODEL 2
REMARK VINA RESULT:    -4.996      4.636      8.489
REMARK INTER + INTRA:          -7.836
REMARK INTER:                  -7.255
REMARK INTRA:                  -0.581
REMARK UNBOUND:                -0.649
REMARK SMILES Cc1ccncc1/C=C/Nc1ccc(CCCN)cc1
REMARK SMILES IDX 14 1 13 2 12 3 11 4 20 5 19 6 15 7 16 8 17 9 18 10 10 13
REMARK SMILES IDX 9 15 8 16 7 17 2 18 6 19 3 20 5 21 4 22 1 23
REMARK H PARENT 18 11 18 12 10 14
ROOT
ATOM      1  C   UNL     1       6.359   4.390   4.334  1.00  0.00    -0.048 A 
ATOM      2  C   UNL     1       6.085   4.124   5.677  1.00  0.00     0.006 A 
ATOM      3  C   UNL     1       7.017   4.426   6.666  1.00  0.00     0.026 A 
ATOM      4  C   UNL     1       8.281   4.928   6.351  1.00  0.00     0.038 A 
ATOM      5  C   UNL     1       8.579   5.142   5.000  1.00  0.00     0.026 A 
ATOM      6  C   UNL     1       7.629   4.876   4.002  1.00  0.00     0.006 A 
ENDROOT
BRANCH   1   7
ATOM      7  C   UNL     1       5.320   4.161   3.265  1.00  0.00     0.037 C 
BRANCH   7   8
ATOM      8  C   UNL     1       5.840   3.802   1.860  1.00  0.00     0.020 C 
BRANCH   8   9
ATOM      9  C   UNL     1       5.423   4.748   0.725  1.00  0.00     0.078 C 
BRANCH   9  10
ATOM     10  N   UNL     1       4.078   4.535   0.209  1.00  0.00    -0.330 NA
ATOM     11  H   UNL     1       4.022   3.629  -0.254  1.00  0.00     0.118 HD
ATOM     12  H   UNL     1       3.865   5.224  -0.513  1.00  0.00     0.118 HD
ENDBRANCH   9  10
ENDBRANCH   8   9
ENDBRANCH   7   8
ENDBRANCH   1   7
BRANCH   4  13
ATOM     13  N   UNL     1       9.271   5.124   7.333  1.00  0.00    -0.362 N 
ATOM     14  H   UNL     1       9.849   5.949   7.238  1.00  0.00     0.166 HD
BRANCH  13  15
ATOM     15  C   UNL     1       9.674   4.176   8.237  1.00  0.00     0.083 C 
BRANCH  15  16
ATOM     16  C   UNL     1      10.904   3.696   8.467  1.00  0.00     0.027 C 
BRANCH  16  17
ATOM     17  C   UNL     1      11.761   4.267   9.517  1.00  0.00    -0.003 A 
ATOM     18  C   UNL     1      13.024   3.735   9.831  1.00  0.00    -0.041 A 
ATOM     19  C   UNL     1      11.328   5.359  10.284  1.00  0.00     0.119 A 
ATOM     20  C   UNL     1      13.766   4.327  10.864  1.00  0.00     0.024 A 
ATOM     21  N   UNL     1      12.038   5.953  11.271  1.00  0.00    -0.264 NA
ATOM     22  C   UNL     1      13.245   5.422  11.535  1.00  0.00     0.111 A 
ATOM     23  C   UNL     1      13.589   2.534   9.127  1.00  0.00     0.045 C 
ENDBRANCH  16  17
ENDBRANCH  15  16
ENDBRANCH  13  15
ENDBRANCH   4  13
TORSDOF 8
ENDMDL
MODEL 3
REMARK VINA RESULT:    -4.995      1.944      8.668
REMARK INTER + INTRA:          -7.834
REMARK INTER:                  -7.265
REMARK INTRA:                  -0.570
REMARK UNBOUND:                -0.649
REMARK SMILES Cc1ccncc1/C=C/Nc1ccc(CCCN)cc1
REMARK SMILES IDX 14 1 13 2 12 3 11 4 20 5 19 6 15 7 16 8 17 9 18 10 10 13
REMARK SMILES IDX 9 15 8 16 7 17 2 18 6 19 3 20 5 21 4 22 1 23
REMARK H PARENT 18 11 18 12 10 14
ROOT
ATOM      1  C   UNL     1       6.643   3.595   4.934  1.00  0.00    -0.048 A 
ATOM      2  C   UNL     1       7.528   4.461   4.288  1.00  0.00     0.006 A 
ATOM      3  C   UNL     1       8.163   5.482   4.990  1.00  0.00     0.026 A 
ATOM      4  C   UNL     1       7.884   5.727   6.337  1.00  0.00     0.038 A 
ATOM      5  C   UNL     1       6.954   4.895   6.972  1.00  0.00     0.026 A 
ATOM      6  C   UNL     1       6.340   3.840   6.279  1.00  0.00     0.006 A 
ENDROOT
BRANCH   1   7
ATOM      7  C   UNL     1       6.027   2.425   4.209  1.00  0.00     0.037 C 
BRANCH   7   8
ATOM      8  C   UNL     1       4.585   2.050   4.600  1.00  0.00     0.020 C 
BRANCH   8   9
ATOM      9  C   UNL     1       4.289   0.548   4.724  1.00  0.00     0.078 C 
BRANCH   9  10
ATOM     10  N   UNL     1       4.233  -0.175   3.462  1.00  0.00    -0.330 NA
ATOM     11  H   UNL     1       4.248   0.482   2.683  1.00  0.00     0.118 HD
ATOM     12  H   UNL     1       3.347  -0.674   3.382  1.00  0.00     0.118 HD
ENDBRANCH   9  10
ENDBRANCH   8   9
ENDBRANCH   7   8
ENDBRANCH   1   7
BRANCH   4  13
ATOM     13  N   UNL     1       8.431   6.829   7.022  1.00  0.00    -0.362 N 
ATOM     14  H   UNL     1       8.567   6.722   8.020  1.00  0.00     0.166 HD
BRANCH  13  15
ATOM     15  C   UNL     1       8.549   8.092   6.505  1.00  0.00     0.083 C 
BRANCH  15  16
ATOM     16  C   UNL     1       8.181   9.263   7.041  1.00  0.00     0.027 C 
BRANCH  16  17
ATOM     17  C   UNL     1       9.095  10.026   7.904  1.00  0.00    -0.003 A 
ATOM     18  C   UNL     1       8.708  11.217   8.545  1.00  0.00    -0.041 A 
ATOM     19  C   UNL     1      10.421   9.610   8.094  1.00  0.00     0.119 A 
ATOM     20  C   UNL     1       9.651  11.895   9.333  1.00  0.00     0.024 A 
ATOM     21  N   UNL     1      11.338  10.243   8.864  1.00  0.00    -0.264 NA
ATOM     22  C   UNL     1      10.927  11.371   9.468  1.00  0.00     0.111 A 
ATOM     23  C   UNL     1       7.335  11.807   8.387  1.00  0.00     0.045 C 
ENDBRANCH  16  17
ENDBRANCH  15  16
ENDBRANCH  13  15
ENDBRANCH   4  13
TORSDOF 8
ENDMDL
MODEL 4
REMARK VINA RESULT:    -4.909      2.025      8.489
REMARK INTER + INTRA:          -7.711
REMARK INTER:                  -7.220
REMARK INTRA:                  -0.491
REMARK UNBOUND:                -0.649
REMARK SMILES Cc1ccncc1/C=C/Nc1ccc(CCCN)cc1
REMARK SMILES IDX 14 1 13 2 12 3 11 4 20 5 19 6 15 7 16 8 17 9 18 10 10 13
REMARK SMILES IDX 9 15 8 16 7 17 2 18 6 19 3 20 5 21 4 22 1 23
REMARK H PARENT 18 11 18 12 10 14
ROOT
ATOM      1  C   UNL     1       6.754   3.642   3.794  1.00  0.00    -0.048 A 
ATOM      2  C   UNL     1       7.841   4.475   3.517  1.00  0.00     0.006 A 
ATOM      3  C   UNL     1       8.408   5.259   4.517  1.00  0.00     0.026 A 
ATOM      4  C   UNL     1       7.870   5.303   5.806  1.00  0.00     0.038 A 
ATOM      5  C   UNL     1       6.746   4.512   6.070  1.00  0.00     0.026 A 
ATOM      6  C   UNL     1       6.193   3.691   5.076  1.00  0.00     0.006 A 
ENDROOT
BRANCH   1   7
ATOM      7  C   UNL     1       6.195   2.714   2.745  1.00  0.00     0.037 C 
BRANCH   7   8
ATOM      8  C   UNL     1       4.975   3.220   1.952  1.00  0.00     0.020 C 
BRANCH   8   9
ATOM      9  C   UNL     1       5.181   4.517   1.156  1.00  0.00     0.078 C 
BRANCH   9  10
ATOM     10  N   UNL     1       5.557   4.331  -0.238  1.00  0.00    -0.330 NA
ATOM     11  H   UNL     1       4.903   3.697  -0.694  1.00  0.00     0.118 HD
ATOM     12  H   UNL     1       6.467   3.874  -0.299  1.00  0.00     0.118 HD
ENDBRANCH   9  10
ENDBRANCH   8   9
ENDBRANCH   7   8
ENDBRANCH   1   7
BRANCH   4  13
ATOM     13  N   UNL     1       8.364   6.182   6.789  1.00  0.00    -0.362 N 
ATOM     14  H   UNL     1       8.825   5.760   7.585  1.00  0.00     0.166 HD
BRANCH  13  15
ATOM     15  C   UNL     1       8.049   7.512   6.879  1.00  0.00     0.083 C 
BRANCH  15  16
ATOM     16  C   UNL     1       8.846   8.581   6.746  1.00  0.00     0.027 C 
BRANCH  16  17
ATOM     17  C   UNL     1       8.632   9.795   7.549  1.00  0.00    -0.003 A 
ATOM     18  C   UNL     1       9.644  10.361   8.344  1.00  0.00    -0.041 A 
ATOM     19  C   UNL     1       7.378  10.424   7.582  1.00  0.00     0.119 A 
ATOM     20  C   UNL     1       9.347  11.507   9.097  1.00  0.00     0.024 A 
ATOM     21  N   UNL     1       7.080  11.539   8.289  1.00  0.00    -0.264 NA
ATOM     22  C   UNL     1       8.077  12.057   9.029  1.00  0.00     0.111 A 
ATOM     23  C   UNL     1      11.018   9.761   8.445  1.00  0.00     0.045 C 
ENDBRANCH  16  17
ENDBRANCH  15  16
ENDBRANCH  13  15
ENDBRANCH   4  13
TORSDOF 8
ENDMDL
MODEL 5
REMARK VINA RESULT:    -4.830      1.295      1.839
REMARK INTER + INTRA:          -7.597
REMARK INTER:                  -6.926
REMARK INTRA:                  -0.671
REMARK UNBOUND:                -0.649
REMARK SMILES Cc1ccncc1/C=C/Nc1ccc(CCCN)cc1
REMARK SMILES IDX 14 1 13 2 12 3 11 4 20 5 19 6 15 7 16 8 17 9 18 10 10 13
REMARK SMILES IDX 9 15 8 16 7 17 2 18 6 19 3 20 5 21 4 22 1 23
REMARK H PARENT 18 11 18 12 10 14
ROOT
ATOM      1  C   UNL     1       8.027  10.426   7.851  1.00  0.00    -0.048 A 
ATOM      2  C   UNL     1       9.312   9.879   7.858  1.00  0.00     0.006 A 
ATOM      3  C   UNL     1       9.556   8.629   7.295  1.00  0.00     0.026 A 
ATOM      4  C   UNL     1       8.522   7.846   6.777  1.00  0.00     0.038 A 
ATOM      5  C   UNL     1       7.224   8.369   6.820  1.00  0.00     0.026 A 
ATOM      6  C   UNL     1       6.978   9.644   7.351  1.00  0.00     0.006 A 
ENDROOT
BRANCH   1   7
ATOM      7  C   UNL     1       7.769  11.820   8.365  1.00  0.00     0.037 C 
BRANCH   7   8
ATOM      8  C   UNL     1       6.847  11.944   9.594  1.00  0.00     0.020 C 
BRANCH   8   9
ATOM      9  C   UNL     1       7.515  11.741  10.961  1.00  0.00     0.078 C 
BRANCH   9  10
ATOM     10  N   UNL     1       7.011  10.614  11.732  1.00  0.00    -0.330 NA
ATOM     11  H   UNL     1       7.735   9.902  11.823  1.00  0.00     0.118 HD
ATOM     12  H   UNL     1       6.245  10.162  11.233  1.00  0.00     0.118 HD
ENDBRANCH   9  10
ENDBRANCH   8   9
ENDBRANCH   7   8
ENDBRANCH   1   7
BRANCH   4  13
ATOM     13  N   UNL     1       8.742   6.534   6.315  1.00  0.00    -0.362 N 
ATOM     14  H   UNL     1       9.604   6.089   6.604  1.00  0.00     0.166 HD
BRANCH  13  15
ATOM     15  C   UNL     1       8.024   5.924   5.321  1.00  0.00     0.083 C 
BRANCH  15  16
ATOM     16  C   UNL     1       7.486   4.697   5.297  1.00  0.00     0.027 C 
BRANCH  16  17
ATOM     17  C   UNL     1       6.655   4.251   4.168  1.00  0.00    -0.003 A 
ATOM     18  C   UNL     1       5.378   3.691   4.347  1.00  0.00    -0.041 A 
ATOM     19  C   UNL     1       7.127   4.334   2.850  1.00  0.00     0.119 A 
ATOM     20  C   UNL     1       4.662   3.270   3.216  1.00  0.00     0.024 A 
ATOM     21  N   UNL     1       6.443   3.950   1.747  1.00  0.00    -0.264 NA
ATOM     22  C   UNL     1       5.222   3.428   1.959  1.00  0.00     0.111 A 
ATOM     23  C   UNL     1       4.770   3.492   5.707  1.00  0.00     0.045 C 
ENDBRANCH  16  17
ENDBRANCH  15  16
ENDBRANCH  13  15
ENDBRANCH   4  13
TORSDOF 8
ENDMDL
MODEL 6
REMARK VINA RESULT:    -4.806      1.674      8.585
REMARK INTER + INTRA:          -7.563
REMARK INTER:                  -7.025
REMARK INTRA:                  -0.538
REMARK UNBOUND:                -0.649
REMARK SMILES Cc1ccncc1/C=C/Nc1ccc(CCCN)cc1
REMARK SMILES IDX 14 1 13 2 12 3 11 4 20 5 19 6 15 7 16 8 17 9 18 10 10 13
REMARK SMILES IDX 9 15 8 16 7 17 2 18 6 19 3 20 5 21 4 22 1 23
REMARK H PARENT 18 11 18 12 10 14
ROOT
ATOM      1  C   UNL     1       6.829   3.617   4.737  1.00  0.00    -0.048 A 
ATOM      2  C   UNL     1       7.784   4.492   4.214  1.00  0.00     0.006 A 
ATOM      3  C   UNL     1       8.364   5.472   5.014  1.00  0.00     0.026 A 
ATOM      4  C   UNL     1       7.961   5.669   6.337  1.00  0.00     0.038 A 
ATOM      5  C   UNL     1       6.963   4.829   6.846  1.00  0.00     0.026 A 
ATOM      6  C   UNL     1       6.402   3.815   6.055  1.00  0.00     0.006 A 
ENDROOT
BRANCH   1   7
ATOM      7  C   UNL     1       6.268   2.488   3.909  1.00  0.00     0.037 C 
BRANCH   7   8
ATOM      8  C   UNL     1       4.770   2.176   4.090  1.00  0.00     0.020 C 
BRANCH   8   9
ATOM      9  C   UNL     1       4.434   0.779   4.633  1.00  0.00     0.078 C 
BRANCH   9  10
ATOM     10  N   UNL     1       4.149  -0.224   3.617  1.00  0.00    -0.330 NA
ATOM     11  H   UNL     1       5.020  -0.574   3.218  1.00  0.00     0.118 HD
ATOM     12  H   UNL     1       3.643   0.198   2.838  1.00  0.00     0.118 HD
ENDBRANCH   9  10
ENDBRANCH   8   9
ENDBRANCH   7   8
ENDBRANCH   1   7
BRANCH   4  13
ATOM     13  N   UNL     1       8.456   6.733   7.116  1.00  0.00    -0.362 N 
ATOM     14  H   UNL     1       8.775   6.503   8.049  1.00  0.00     0.166 HD
BRANCH  13  15
ATOM     15  C   UNL     1       8.304   8.060   6.814  1.00  0.00     0.083 C 
BRANCH  15  16
ATOM     16  C   UNL     1       9.154   9.076   7.013  1.00  0.00     0.027 C 
BRANCH  16  17
ATOM     17  C   UNL     1       8.778  10.234   7.838  1.00  0.00    -0.003 A 
ATOM     18  C   UNL     1       9.671  10.843   8.737  1.00  0.00    -0.041 A 
ATOM     19  C   UNL     1       7.479  10.762   7.786  1.00  0.00     0.119 A 
ATOM     20  C   UNL     1       9.222  11.929   9.502  1.00  0.00     0.024 A 
ATOM     21  N   UNL     1       7.034  11.820   8.504  1.00  0.00    -0.264 NA
ATOM     22  C   UNL     1       7.921  12.381   9.345  1.00  0.00     0.111 A 
ATOM     23  C   UNL     1      11.076  10.347   8.933  1.00  0.00     0.045 C 
ENDBRANCH  16  17
ENDBRANCH  15  16
ENDBRANCH  13  15
ENDBRANCH   4  13
TORSDOF 8
ENDMDL
MODEL 7
REMARK VINA RESULT:    -4.723      3.073      8.987
REMARK INTER + INTRA:          -7.443
REMARK INTER:                  -6.575
REMARK INTRA:                  -0.868
REMARK UNBOUND:                -0.649
REMARK SMILES Cc1ccncc1/C=C/Nc1ccc(CCCN)cc1
REMARK SMILES IDX 14 1 13 2 12 3 11 4 20 5 19 6 15 7 16 8 17 9 18 10 10 13
REMARK SMILES IDX 9 15 8 16 7 17 2 18 6 19 3 20 5 21 4 22 1 23
REMARK H PARENT 18 11 18 12 10 14
ROOT
ATOM      1  C   UNL     1       8.241   9.012   7.007  1.00  0.00    -0.048 A 
ATOM      2  C   UNL     1       7.125   9.761   7.388  1.00  0.00     0.006 A 
ATOM      3  C   UNL     1       7.274  10.943   8.106  1.00  0.00     0.026 A 
ATOM      4  C   UNL     1       8.527  11.384   8.539  1.00  0.00     0.038 A 
ATOM      5  C   UNL     1       9.642  10.604   8.208  1.00  0.00     0.026 A 
ATOM      6  C   UNL     1       9.501   9.431   7.450  1.00  0.00     0.006 A 
ENDROOT
BRANCH   1   7
ATOM      7  C   UNL     1       8.099   7.785   6.143  1.00  0.00     0.037 C 
BRANCH   7   8
ATOM      8  C   UNL     1       8.289   6.423   6.839  1.00  0.00     0.020 C 
BRANCH   8   9
ATOM      9  C   UNL     1       8.833   5.287   5.959  1.00  0.00     0.078 C 
BRANCH   9  10
ATOM     10  N   UNL     1       9.109   5.656   4.578  1.00  0.00    -0.330 NA
ATOM     11  H   UNL     1       9.947   6.235   4.533  1.00  0.00     0.118 HD
ATOM     12  H   UNL     1       8.355   6.238   4.212  1.00  0.00     0.118 HD
ENDBRANCH   9  10
ENDBRANCH   8   9
ENDBRANCH   7   8
ENDBRANCH   1   7
BRANCH   4  13
ATOM     13  N   UNL     1       8.674  12.513   9.367  1.00  0.00    -0.362 N 
ATOM     14  H   UNL     1       8.740  13.411   8.903  1.00  0.00     0.166 HD
BRANCH  13  15
ATOM     15  C   UNL     1       8.988  12.471  10.700  1.00  0.00     0.083 C 
BRANCH  15  16
ATOM     16  C   UNL     1      10.102  12.883  11.319  1.00  0.00     0.027 C 
BRANCH  16  17
ATOM     17  C   UNL     1      10.760  12.049  12.337  1.00  0.00    -0.003 A 
ATOM     18  C   UNL     1      11.923  11.306  12.066  1.00  0.00    -0.041 A 
ATOM     19  C   UNL     1      10.223  11.931  13.628  1.00  0.00     0.119 A 
ATOM     20  C   UNL     1      12.472  10.518  13.089  1.00  0.00     0.024 A 
ATOM     21  N   UNL     1      10.749  11.189  14.630  1.00  0.00    -0.264 NA
ATOM     22  C   UNL     1      11.867  10.501  14.335  1.00  0.00     0.111 A 
ATOM     23  C   UNL     1      12.575  11.297  10.712  1.00  0.00     0.045 C 
ENDBRANCH  16  17
ENDBRANCH  15  16
ENDBRANCH  13  15
ENDBRANCH   4  13
TORSDOF 8
ENDMDL
MODEL 8
REMARK VINA RESULT:    -4.707      3.083      9.146
REMARK INTER + INTRA:          -7.420
REMARK INTER:                  -6.618
REMARK INTRA:                  -0.802
REMARK UNBOUND:                -0.649
REMARK SMILES Cc1ccncc1/C=C/Nc1ccc(CCCN)cc1
REMARK SMILES IDX 14 1 13 2 12 3 11 4 20 5 19 6 15 7 16 8 17 9 18 10 10 13
REMARK SMILES IDX 9 15 8 16 7 17 2 18 6 19 3 20 5 21 4 22 1 23
REMARK H PARENT 18 11 18 12 10 14
ROOT
ATOM      1  C   UNL     1       8.288   9.015   6.996  1.00  0.00    -0.048 A 
ATOM      2  C   UNL     1       7.147   9.711   7.398  1.00  0.00     0.006 A 
ATOM      3  C   UNL     1       7.254  10.875   8.155  1.00  0.00     0.026 A 
ATOM      4  C   UNL     1       8.491  11.345   8.603  1.00  0.00     0.038 A 
ATOM      5  C   UNL     1       9.632  10.616   8.248  1.00  0.00     0.026 A 
ATOM      6  C   UNL     1       9.533   9.464   7.454  1.00  0.00     0.006 A 
ENDROOT
BRANCH   1   7
ATOM      7  C   UNL     1       8.191   7.812   6.092  1.00  0.00     0.037 C 
BRANCH   7   8
ATOM      8  C   UNL     1       8.429   6.436   6.744  1.00  0.00     0.020 C 
BRANCH   8   9
ATOM      9  C   UNL     1       8.618   5.257   5.779  1.00  0.00     0.078 C 
BRANCH   9  10
ATOM     10  N   UNL     1       9.182   5.607   4.483  1.00  0.00    -0.330 NA
ATOM     11  H   UNL     1       9.645   4.796   4.073  1.00  0.00     0.118 HD
ATOM     12  H   UNL     1       9.911   6.311   4.595  1.00  0.00     0.118 HD
ENDBRANCH   9  10
ENDBRANCH   8   9
ENDBRANCH   7   8
ENDBRANCH   1   7
BRANCH   4  13
ATOM     13  N   UNL     1       8.597  12.452   9.467  1.00  0.00    -0.362 N 
ATOM     14  H   UNL     1       7.771  13.027   9.573  1.00  0.00     0.166 HD
BRANCH  13  15
ATOM     15  C   UNL     1       9.775  12.949   9.960  1.00  0.00     0.083 C 
BRANCH  15  16
ATOM     16  C   UNL     1      10.133  13.170  11.232  1.00  0.00     0.027 C 
BRANCH  16  17
ATOM     17  C   UNL     1      10.912  12.177  11.988  1.00  0.00    -0.003 A 
ATOM     18  C   UNL     1      10.695  11.931  13.355  1.00  0.00    -0.041 A 
ATOM     19  C   UNL     1      11.943  11.452  11.372  1.00  0.00     0.119 A 
ATOM     20  C   UNL     1      11.499  10.983  14.005  1.00  0.00     0.024 A 
ATOM     21  N   UNL     1      12.717  10.522  11.980  1.00  0.00    -0.264 NA
ATOM     22  C   UNL     1      12.472  10.307  13.285  1.00  0.00     0.111 A 
ATOM     23  C   UNL     1       9.660  12.674  14.152  1.00  0.00     0.045 C 
ENDBRANCH  16  17
ENDBRANCH  15  16
ENDBRANCH  13  15
ENDBRANCH   4  13
TORSDOF 8
ENDMDL
MODEL 9
REMARK VINA RESULT:    -4.683      4.596      8.520
REMARK INTER + INTRA:          -7.386
REMARK INTER:                  -6.858
REMARK INTRA:                  -0.528
REMARK UNBOUND:                -0.649
REMARK SMILES Cc1ccncc1/C=C/Nc1ccc(CCCN)cc1
REMARK SMILES IDX 14 1 13 2 12 3 11 4 20 5 19 6 15 7 16 8 17 9 18 10 10 13
REMARK SMILES IDX 9 15 8 16 7 17 2 18 6 19 3 20 5 21 4 22 1 23
REMARK H PARENT 18 11 18 12 10 14
ROOT
ATOM      1  C   UNL     1       5.813   3.731   4.404  1.00  0.00    -0.048 A 
ATOM      2  C   UNL     1       5.649   3.767   5.790  1.00  0.00     0.006 A 
ATOM      3  C   UNL     1       6.597   4.383   6.602  1.00  0.00     0.026 A 
ATOM      4  C   UNL     1       7.777   4.915   6.076  1.00  0.00     0.038 A 
ATOM      5  C   UNL     1       7.970   4.828   4.692  1.00  0.00     0.026 A 
ATOM      6  C   UNL     1       6.999   4.243   3.865  1.00  0.00     0.006 A 
ENDROOT
BRANCH   1   7
ATOM      7  C   UNL     1       4.746   3.157   3.507  1.00  0.00     0.037 C 
BRANCH   7   8
ATOM      8  C   UNL     1       4.747   1.627   3.321  1.00  0.00     0.020 C 
BRANCH   8   9
ATOM      9  C   UNL     1       4.016   0.817   4.402  1.00  0.00     0.078 C 
BRANCH   9  10
ATOM     10  N   UNL     1       4.838  -0.164   5.097  1.00  0.00    -0.330 NA
ATOM     11  H   UNL     1       5.800   0.166   5.155  1.00  0.00     0.118 HD
ATOM     12  H   UNL     1       4.878  -1.031   4.561  1.00  0.00     0.118 HD
ENDBRANCH   9  10
ENDBRANCH   8   9
ENDBRANCH   7   8
ENDBRANCH   1   7
BRANCH   4  13
ATOM     13  N   UNL     1       8.794   5.432   6.901  1.00  0.00    -0.362 N 
ATOM     14  H   UNL     1       8.934   6.434   6.876  1.00  0.00     0.166 HD
BRANCH  13  15
ATOM     15  C   UNL     1       9.755   4.679   7.523  1.00  0.00     0.083 C 
BRANCH  15  16
ATOM     16  C   UNL     1      10.178   4.730   8.793  1.00  0.00     0.027 C 
BRANCH  16  17
ATOM     17  C   UNL     1      11.453   4.116   9.197  1.00  0.00    -0.003 A 
ATOM     18  C   UNL     1      12.242   4.634  10.239  1.00  0.00    -0.041 A 
ATOM     19  C   UNL     1      11.957   2.994   8.522  1.00  0.00     0.119 A 
ATOM     20  C   UNL     1      13.457   4.000  10.543  1.00  0.00     0.024 A 
ATOM     21  N   UNL     1      13.117   2.360   8.813  1.00  0.00    -0.264 NA
ATOM     22  C   UNL     1      13.839   2.879   9.822  1.00  0.00     0.111 A 
ATOM     23  C   UNL     1      11.851   5.862  11.011  1.00  0.00     0.045 C 
ENDBRANCH  16  17
ENDBRANCH  15  16
ENDBRANCH  13  15
ENDBRANCH   4  13
TORSDOF 8
ENDMDL
