MODEL 1
REMARK VINA RESULT:    -5.115      0.000      0.000
REMARK INTER + INTRA:          -7.937
REMARK INTER:                  -7.358
REMARK INTRA:                  -0.580
REMARK UNBOUND:                -0.580
REMARK SMILES Cc1ccncc1/C=C/Nc1ccc(CCCN)cc1
REMARK SMILES IDX 14 1 13 2 12 3 11 4 20 5 19 6 15 7 16 8 17 9 18 10 10 13
REMARK SMILES IDX 9 15 8 16 7 17 2 18 6 19 3 20 5 21 4 22 1 23
REMARK H PARENT 18 11 18 12 10 14
ROOT
ATOM      1  C   UNL     1       8.216  -8.298  -1.025  1.00  0.00    -0.048 A 
ATOM      2  C   UNL     1       7.732  -9.549  -0.634  1.00  0.00     0.006 A 
ATOM      3  C   UNL     1       8.281 -10.717  -1.154  1.00  0.00     0.026 A 
ATOM      4  C   UNL     1       9.274 -10.685  -2.136  1.00  0.00     0.038 A 
ATOM      5  C   UNL     1       9.720  -9.432  -2.571  1.00  0.00     0.026 A 
ATOM      6  C   UNL     1       9.197  -8.251  -2.022  1.00  0.00     0.006 A 
ENDROOT
BRANCH   1   7
ATOM      7  C   UNL     1       7.699  -7.029  -0.394  1.00  0.00     0.037 C 
BRANCH   7   8
ATOM      8  C   UNL     1       7.324  -5.883  -1.353  1.00  0.00     0.020 C 
BRANCH   8   9
ATOM      9  C   UNL     1       8.062  -4.554  -1.135  1.00  0.00     0.078 C 
BRANCH   9  10
ATOM     10  N   UNL     1       7.395  -3.620  -0.239  1.00  0.00    -0.330 NA
ATOM     11  H   UNL     1       8.024  -3.352   0.517  1.00  0.00     0.118 HD
ATOM     12  H   UNL     1       6.601  -4.073   0.214  1.00  0.00     0.118 HD
ENDBRANCH   9  10
ENDBRANCH   8   9
ENDBRANCH   7   8
ENDBRANCH   1   7
BRANCH   4  13
ATOM     13  N   UNL     1       9.749 -11.859  -2.752  1.00  0.00    -0.362 N 
ATOM     14  H   UNL     1      10.754 -11.970  -2.804  1.00  0.00     0.166 HD
BRANCH  13  15
ATOM     15  C   UNL     1       8.985 -12.715  -3.499  1.00  0.00     0.083 C 
BRANCH  15  16
ATOM     16  C   UNL     1       9.214 -13.203  -4.726  1.00  0.00     0.027 C 
BRANCH  16  17
ATOM     17  C   UNL     1       9.938 -14.469  -4.919  1.00  0.00    -0.003 A 
ATOM     18  C   UNL     1      10.334 -14.925  -6.189  1.00  0.00    -0.041 A 
ATOM     19  C   UNL     1      10.232 -15.303  -3.830  1.00  0.00     0.119 A 
ATOM     20  C   UNL     1      10.999 -16.156  -6.285  1.00  0.00     0.024 A 
ATOM     21  N   UNL     1      10.888 -16.485  -3.903  1.00  0.00    -0.264 NA
ATOM     22  C   UNL     1      11.259 -16.882  -5.133  1.00  0.00     0.111 A 
ATOM     23  C   UNL     1      10.036 -14.159  -7.447  1.00  0.00     0.045 C 
ENDBRANCH  16  17
ENDBRANCH  15  16
ENDBRANCH  13  15
ENDBRANCH   4  13
TORSDOF 8
ENDMDL
MODEL 2
REMARK VINA RESULT:    -5.105      1.911      8.725
REMARK INTER + INTRA:          -7.922
REMARK INTER:                  -7.307
REMARK INTRA:                  -0.615
REMARK UNBOUND:                -0.580
REMARK SMILES Cc1ccncc1/C=C/Nc1ccc(CCCN)cc1
REMARK SMILES IDX 14 1 13 2 12 3 11 4 20 5 19 6 15 7 16 8 17 9 18 10 10 13
REMARK SMILES IDX 9 15 8 16 7 17 2 18 6 19 3 20 5 21 4 22 1 23
REMARK H PARENT 18 11 18 12 10 14
ROOT
ATOM      1  C   UNL     1      10.013 -14.535  -6.086  1.00  0.00    -0.048 A 
ATOM      2  C   UNL     1       9.287 -13.349  -6.212  1.00  0.00     0.006 A 
ATOM      3  C   UNL     1       8.908 -12.624  -5.086  1.00  0.00     0.026 A 
ATOM      4  C   UNL     1       9.168 -13.090  -3.794  1.00  0.00     0.038 A 
ATOM      5  C   UNL     1       9.846 -14.308  -3.666  1.00  0.00     0.026 A 
ATOM      6  C   UNL     1      10.263 -15.024  -4.798  1.00  0.00     0.006 A 
ENDROOT
BRANCH   1   7
ATOM      7  C   UNL     1      10.516 -15.275  -7.300  1.00  0.00     0.037 C 
BRANCH   7   8
ATOM      8  C   UNL     1      11.331 -14.458  -8.320  1.00  0.00     0.020 C 
BRANCH   8   9
ATOM      9  C   UNL     1      12.852 -14.671  -8.293  1.00  0.00     0.078 C 
BRANCH   9  10
ATOM     10  N   UNL     1      13.606 -13.638  -7.599  1.00  0.00    -0.330 NA
ATOM     11  H   UNL     1      13.746 -12.836  -8.213  1.00  0.00     0.118 HD
ATOM     12  H   UNL     1      14.542 -13.976  -7.375  1.00  0.00     0.118 HD
ENDBRANCH   9  10
ENDBRANCH   8   9
ENDBRANCH   7   8
ENDBRANCH   1   7
BRANCH   4  13
ATOM     13  N   UNL     1       8.684 -12.424  -2.652  1.00  0.00    -0.362 N 
ATOM     14  H   UNL     1       7.894 -12.847  -2.180  1.00  0.00     0.166 HD
BRANCH  13  15
ATOM     15  C   UNL     1       9.023 -11.148  -2.288  1.00  0.00     0.083 C 
BRANCH  15  16
ATOM     16  C   UNL     1       8.579 -10.417  -1.257  1.00  0.00     0.027 C 
BRANCH  16  17
ATOM     17  C   UNL     1       8.221  -9.000  -1.426  1.00  0.00    -0.003 A 
ATOM     18  C   UNL     1       7.154  -8.405  -0.730  1.00  0.00    -0.041 A 
ATOM     19  C   UNL     1       8.916  -8.185  -2.331  1.00  0.00     0.119 A 
ATOM     20  C   UNL     1       6.865  -7.052  -0.969  1.00  0.00     0.024 A 
ATOM     21  N   UNL     1       8.662  -6.875  -2.560  1.00  0.00    -0.264 NA
ATOM     22  C   UNL     1       7.641  -6.339  -1.868  1.00  0.00     0.111 A 
ATOM     23  C   UNL     1       6.290  -9.173   0.230  1.00  0.00     0.045 C 
ENDBRANCH  16  17
ENDBRANCH  15  16
ENDBRANCH  13  15
ENDBRANCH   4  13
TORSDOF 8
ENDMDL
MODEL 3
REMARK VINA RESULT:    -5.092      4.730      8.497
REMARK INTER + INTRA:          -7.904
REMARK INTER:                  -7.266
REMARK INTRA:                  -0.638
REMARK UNBOUND:                -0.580
REMARK SMILES Cc1ccncc1/C=C/Nc1ccc(CCCN)cc1
REMARK SMILES IDX 14 1 13 2 12 3 11 4 20 5 19 6 15 7 16 8 17 9 18 10 10 13
REMARK SMILES IDX 9 15 8 16 7 17 2 18 6 19 3 20 5 21 4 22 1 23
REMARK H PARENT 18 11 18 12 10 14
ROOT
ATOM      1  C   UNL     1      14.264 -11.942   1.454  1.00  0.00    -0.048 A 
ATOM      2  C   UNL     1      14.550 -12.035   0.090  1.00  0.00     0.006 A 
ATOM      3  C   UNL     1      13.796 -11.330  -0.844  1.00  0.00     0.026 A 
ATOM      4  C   UNL     1      12.686 -10.572  -0.466  1.00  0.00     0.038 A 
ATOM      5  C   UNL     1      12.363 -10.523   0.895  1.00  0.00     0.026 A 
ATOM      6  C   UNL     1      13.142 -11.201   1.845  1.00  0.00     0.006 A 
ENDROOT
BRANCH   1   7
ATOM      7  C   UNL     1      15.135 -12.619   2.482  1.00  0.00     0.037 C 
BRANCH   7   8
ATOM      8  C   UNL     1      14.453 -13.663   3.387  1.00  0.00     0.020 C 
BRANCH   8   9
ATOM      9  C   UNL     1      14.618 -15.131   2.965  1.00  0.00     0.078 C 
BRANCH   9  10
ATOM     10  N   UNL     1      13.464 -15.712   2.294  1.00  0.00    -0.330 NA
ATOM     11  H   UNL     1      12.832 -16.123   2.979  1.00  0.00     0.118 HD
ATOM     12  H   UNL     1      13.758 -16.484   1.695  1.00  0.00     0.118 HD
ENDBRANCH   9  10
ENDBRANCH   8   9
ENDBRANCH   7   8
ENDBRANCH   1   7
BRANCH   4  13
ATOM     13  N   UNL     1      11.848  -9.954  -1.415  1.00  0.00    -0.362 N 
ATOM     14  H   UNL     1      12.298  -9.352  -2.093  1.00  0.00     0.166 HD
BRANCH  13  15
ATOM     15  C   UNL     1      10.482  -9.898  -1.334  1.00  0.00     0.083 C 
BRANCH  15  16
ATOM     16  C   UNL     1       9.618  -9.208  -2.090  1.00  0.00     0.027 C 
BRANCH  16  17
ATOM     17  C   UNL     1       8.303  -8.804  -1.568  1.00  0.00    -0.003 A 
ATOM     18  C   UNL     1       7.701  -7.580  -1.908  1.00  0.00    -0.041 A 
ATOM     19  C   UNL     1       7.604  -9.622  -0.667  1.00  0.00     0.119 A 
ATOM     20  C   UNL     1       6.455  -7.263  -1.345  1.00  0.00     0.024 A 
ATOM     21  N   UNL     1       6.395  -9.340  -0.130  1.00  0.00    -0.264 NA
ATOM     22  C   UNL     1       5.847  -8.164  -0.486  1.00  0.00     0.111 A 
ATOM     23  C   UNL     1       8.361  -6.584  -2.819  1.00  0.00     0.045 C 
ENDBRANCH  16  17
ENDBRANCH  15  16
ENDBRANCH  13  15
ENDBRANCH   4  13
TORSDOF 8
ENDMDL
MODEL 4
REMARK VINA RESULT:    -5.046      2.104      2.613
REMARK INTER + INTRA:          -7.838
REMARK INTER:                  -7.354
REMARK INTRA:                  -0.484
REMARK UNBOUND:                -0.580
REMARK SMILES Cc1ccncc1/C=C/Nc1ccc(CCCN)cc1
REMARK SMILES IDX 14 1 13 2 12 3 11 4 20 5 19 6 15 7 16 8 17 9 18 10 10 13
REMARK SMILES IDX 9 15 8 16 7 17 2 18 6 19 3 20 5 21 4 22 1 23
REMARK H PARENT 18 11 18 12 10 14
ROOT
ATOM      1  C   UNL     1       7.377  -8.459  -0.691  1.00  0.00    -0.048 A 
ATOM      2  C   UNL     1       7.239  -9.787  -0.282  1.00  0.00     0.006 A 
ATOM      3  C   UNL     1       8.122 -10.764  -0.732  1.00  0.00     0.026 A 
ATOM      4  C   UNL     1       9.123 -10.474  -1.662  1.00  0.00     0.038 A 
ATOM      5  C   UNL     1       9.228  -9.154  -2.116  1.00  0.00     0.026 A 
ATOM      6  C   UNL     1       8.364  -8.157  -1.637  1.00  0.00     0.006 A 
ENDROOT
BRANCH   1   7
ATOM      7  C   UNL     1       6.491  -7.374  -0.132  1.00  0.00     0.037 C 
BRANCH   7   8
ATOM      8  C   UNL     1       5.228  -7.026  -0.944  1.00  0.00     0.020 C 
BRANCH   8   9
ATOM      9  C   UNL     1       4.220  -8.168  -1.144  1.00  0.00     0.078 C 
BRANCH   9  10
ATOM     10  N   UNL     1       3.048  -8.112  -0.282  1.00  0.00    -0.330 NA
ATOM     11  H   UNL     1       3.084  -8.864   0.405  1.00  0.00     0.118 HD
ATOM     12  H   UNL     1       2.202  -8.280  -0.827  1.00  0.00     0.118 HD
ENDBRANCH   9  10
ENDBRANCH   8   9
ENDBRANCH   7   8
ENDBRANCH   1   7
BRANCH   4  13
ATOM     13  N   UNL     1       9.943 -11.479  -2.211  1.00  0.00    -0.362 N 
ATOM     14  H   UNL     1      10.851 -11.609  -1.783  1.00  0.00     0.166 HD
BRANCH  13  15
ATOM     15  C   UNL     1       9.720 -12.100  -3.411  1.00  0.00     0.083 C 
BRANCH  15  16
ATOM     16  C   UNL     1       9.225 -13.322  -3.652  1.00  0.00     0.027 C 
BRANCH  16  17
ATOM     17  C   UNL     1       9.628 -14.087  -4.841  1.00  0.00    -0.003 A 
ATOM     18  C   UNL     1      10.307 -15.315  -4.753  1.00  0.00    -0.041 A 
ATOM     19  C   UNL     1       9.380 -13.595  -6.131  1.00  0.00     0.119 A 
ATOM     20  C   UNL     1      10.676 -15.968  -5.939  1.00  0.00     0.024 A 
ATOM     21  N   UNL     1       9.713 -14.219  -7.285  1.00  0.00    -0.264 NA
ATOM     22  C   UNL     1      10.352 -15.396  -7.160  1.00  0.00     0.111 A 
ATOM     23  C   UNL     1      10.684 -15.933  -3.436  1.00  0.00     0.045 C 
ENDBRANCH  16  17
ENDBRANCH  15  16
ENDBRANCH  13  15
ENDBRANCH   4  13
TORSDOF 8
ENDMDL
MODEL 5
REMARK VINA RESULT:    -5.011      1.130      1.681
REMARK INTER + INTRA:          -7.787
REMARK INTER:                  -7.235
REMARK INTRA:                  -0.552
REMARK UNBOUND:                -0.580
REMARK SMILES Cc1ccncc1/C=C/Nc1ccc(CCCN)cc1
REMARK SMILES IDX 14 1 13 2 12 3 11 4 20 5 19 6 15 7 16 8 17 9 18 10 10 13
REMARK SMILES IDX 9 15 8 16 7 17 2 18 6 19 3 20 5 21 4 22 1 23
REMARK H PARENT 18 11 18 12 10 14
ROOT
ATOM      1  C   UNL     1       8.031  -8.125  -1.056  1.00  0.00    -0.048 A 
ATOM      2  C   UNL     1       7.623  -9.386  -0.616  1.00  0.00     0.006 A 
ATOM      3  C   UNL     1       8.287 -10.535  -1.039  1.00  0.00     0.026 A 
ATOM      4  C   UNL     1       9.326 -10.479  -1.971  1.00  0.00     0.038 A 
ATOM      5  C   UNL     1       9.699  -9.220  -2.456  1.00  0.00     0.026 A 
ATOM      6  C   UNL     1       9.059  -8.055  -2.004  1.00  0.00     0.006 A 
ENDROOT
BRANCH   1   7
ATOM      7  C   UNL     1       7.386  -6.868  -0.527  1.00  0.00     0.037 C 
BRANCH   7   8
ATOM      8  C   UNL     1       7.318  -5.668  -1.491  1.00  0.00     0.020 C 
BRANCH   8   9
ATOM      9  C   UNL     1       8.068  -4.404  -1.046  1.00  0.00     0.078 C 
BRANCH   9  10
ATOM     10  N   UNL     1       7.336  -3.547  -0.123  1.00  0.00    -0.330 NA
ATOM     11  H   UNL     1       7.585  -2.571  -0.282  1.00  0.00     0.118 HD
ATOM     12  H   UNL     1       7.614  -3.747   0.838  1.00  0.00     0.118 HD
ENDBRANCH   9  10
ENDBRANCH   8   9
ENDBRANCH   7   8
ENDBRANCH   1   7
BRANCH   4  13
ATOM     13  N   UNL     1       9.921 -11.643  -2.492  1.00  0.00    -0.362 N 
ATOM     14  H   UNL     1      10.845 -11.874  -2.149  1.00  0.00     0.166 HD
BRANCH  13  15
ATOM     15  C   UNL     1       9.471 -12.328  -3.590  1.00  0.00     0.083 C 
BRANCH  15  16
ATOM     16  C   UNL     1       9.237 -13.639  -3.731  1.00  0.00     0.027 C 
BRANCH  16  17
ATOM     17  C   UNL     1       9.709 -14.374  -4.915  1.00  0.00    -0.003 A 
ATOM     18  C   UNL     1      10.511 -15.526  -4.817  1.00  0.00    -0.041 A 
ATOM     19  C   UNL     1       9.405 -13.926  -6.209  1.00  0.00     0.119 A 
ATOM     20  C   UNL     1      10.937 -16.152  -5.998  1.00  0.00     0.024 A 
ATOM     21  N   UNL     1       9.793 -14.528  -7.358  1.00  0.00    -0.264 NA
ATOM     22  C   UNL     1      10.550 -15.631  -7.223  1.00  0.00     0.111 A 
ATOM     23  C   UNL     1      10.958 -16.086  -3.496  1.00  0.00     0.045 C 
ENDBRANCH  16  17
ENDBRANCH  15  16
ENDBRANCH  13  15
ENDBRANCH   4  13
TORSDOF 8
ENDMDL
MODEL 6
REMARK VINA RESULT:    -4.970      2.193      8.542
REMARK INTER + INTRA:          -7.729
REMARK INTER:                  -7.066
REMARK INTRA:                  -0.663
REMARK UNBOUND:                -0.580
REMARK SMILES Cc1ccncc1/C=C/Nc1ccc(CCCN)cc1
REMARK SMILES IDX 14 1 13 2 12 3 11 4 20 5 19 6 15 7 16 8 17 9 18 10 10 13
REMARK SMILES IDX 9 15 8 16 7 17 2 18 6 19 3 20 5 21 4 22 1 23
REMARK H PARENT 18 11 18 12 10 14
ROOT
ATOM      1  C   UNL     1      10.160 -14.817  -6.154  1.00  0.00    -0.048 A 
ATOM      2  C   UNL     1       9.460 -13.629  -6.373  1.00  0.00     0.006 A 
ATOM      3  C   UNL     1       9.105 -12.807  -5.307  1.00  0.00     0.026 A 
ATOM      4  C   UNL     1       9.362 -13.173  -3.984  1.00  0.00     0.038 A 
ATOM      5  C   UNL     1      10.013 -14.391  -3.759  1.00  0.00     0.026 A 
ATOM      6  C   UNL     1      10.408 -15.205  -4.832  1.00  0.00     0.006 A 
ENDROOT
BRANCH   1   7
ATOM      7  C   UNL     1      10.639 -15.665  -7.306  1.00  0.00     0.037 C 
BRANCH   7   8
ATOM      8  C   UNL     1      11.534 -14.970  -8.351  1.00  0.00     0.020 C 
BRANCH   8   9
ATOM      9  C   UNL     1      13.030 -14.896  -8.014  1.00  0.00     0.078 C 
BRANCH   9  10
ATOM     10  N   UNL     1      13.511 -13.575  -7.636  1.00  0.00    -0.330 NA
ATOM     11  H   UNL     1      12.727 -12.931  -7.544  1.00  0.00     0.118 HD
ATOM     12  H   UNL     1      14.097 -13.189  -8.376  1.00  0.00     0.118 HD
ENDBRANCH   9  10
ENDBRANCH   8   9
ENDBRANCH   7   8
ENDBRANCH   1   7
BRANCH   4  13
ATOM     13  N   UNL     1       8.900 -12.406  -2.897  1.00  0.00    -0.362 N 
ATOM     14  H   UNL     1       7.916 -12.479  -2.674  1.00  0.00     0.166 HD
BRANCH  13  15
ATOM     15  C   UNL     1       9.605 -11.396  -2.296  1.00  0.00     0.083 C 
BRANCH  15  16
ATOM     16  C   UNL     1       9.298 -10.096  -2.192  1.00  0.00     0.027 C 
BRANCH  16  17
ATOM     17  C   UNL     1       8.187  -9.642  -1.342  1.00  0.00    -0.003 A 
ATOM     18  C   UNL     1       7.694  -8.326  -1.384  1.00  0.00    -0.041 A 
ATOM     19  C   UNL     1       7.590 -10.508  -0.413  1.00  0.00     0.119 A 
ATOM     20  C   UNL     1       6.647  -7.970  -0.521  1.00  0.00     0.024 A 
ATOM     21  N   UNL     1       6.568 -10.187   0.413  1.00  0.00    -0.264 NA
ATOM     22  C   UNL     1       6.118  -8.922   0.336  1.00  0.00     0.111 A 
ATOM     23  C   UNL     1       8.275  -7.278  -2.292  1.00  0.00     0.045 C 
ENDBRANCH  16  17
ENDBRANCH  15  16
ENDBRANCH  13  15
ENDBRANCH   4  13
TORSDOF 8
ENDMDL
MODEL 7
REMARK VINA RESULT:    -4.950      2.291      8.946
REMARK INTER + INTRA:          -7.700
REMARK INTER:                  -7.115
REMARK INTRA:                  -0.585
REMARK UNBOUND:                -0.580
REMARK SMILES Cc1ccncc1/C=C/Nc1ccc(CCCN)cc1
REMARK SMILES IDX 14 1 13 2 12 3 11 4 20 5 19 6 15 7 16 8 17 9 18 10 10 13
REMARK SMILES IDX 9 15 8 16 7 17 2 18 6 19 3 20 5 21 4 22 1 23
REMARK H PARENT 18 11 18 12 10 14
ROOT
ATOM      1  C   UNL     1      10.017 -15.445  -6.431  1.00  0.00    -0.048 A 
ATOM      2  C   UNL     1       9.433 -14.184  -6.572  1.00  0.00     0.006 A 
ATOM      3  C   UNL     1       9.271 -13.349  -5.470  1.00  0.00     0.026 A 
ATOM      4  C   UNL     1       9.611 -13.764  -4.181  1.00  0.00     0.038 A 
ATOM      5  C   UNL     1      10.145 -15.050  -4.030  1.00  0.00     0.026 A 
ATOM      6  C   UNL     1      10.346 -15.881  -5.142  1.00  0.00     0.006 A 
ENDROOT
BRANCH   1   7
ATOM      7  C   UNL     1      10.290 -16.317  -7.631  1.00  0.00     0.037 C 
BRANCH   7   8
ATOM      8  C   UNL     1       9.353 -16.142  -8.841  1.00  0.00     0.020 C 
BRANCH   8   9
ATOM      9  C   UNL     1       8.443 -17.336  -9.167  1.00  0.00     0.078 C 
BRANCH   9  10
ATOM     10  N   UNL     1       7.024 -17.023  -9.250  1.00  0.00    -0.330 NA
ATOM     11  H   UNL     1       6.728 -16.519  -8.415  1.00  0.00     0.118 HD
ATOM     12  H   UNL     1       6.474 -17.883  -9.258  1.00  0.00     0.118 HD
ENDBRANCH   9  10
ENDBRANCH   8   9
ENDBRANCH   7   8
ENDBRANCH   1   7
BRANCH   4  13
ATOM     13  N   UNL     1       9.341 -12.972  -3.048  1.00  0.00    -0.362 N 
ATOM     14  H   UNL     1       9.036 -13.460  -2.215  1.00  0.00     0.166 HD
BRANCH  13  15
ATOM     15  C   UNL     1       9.210 -11.609  -3.060  1.00  0.00     0.083 C 
BRANCH  15  16
ATOM     16  C   UNL     1       9.430 -10.730  -2.073  1.00  0.00     0.027 C 
BRANCH  16  17
ATOM     17  C   UNL     1       8.331 -10.248  -1.223  1.00  0.00    -0.003 A 
ATOM     18  C   UNL     1       7.885  -8.915  -1.251  1.00  0.00    -0.041 A 
ATOM     19  C   UNL     1       7.700 -11.105  -0.308  1.00  0.00     0.119 A 
ATOM     20  C   UNL     1       6.846  -8.534  -0.388  1.00  0.00     0.024 A 
ATOM     21  N   UNL     1       6.686 -10.759   0.518  1.00  0.00    -0.264 NA
ATOM     22  C   UNL     1       6.280  -9.478   0.455  1.00  0.00     0.111 A 
ATOM     23  C   UNL     1       8.506  -7.877  -2.143  1.00  0.00     0.045 C 
ENDBRANCH  16  17
ENDBRANCH  15  16
ENDBRANCH  13  15
ENDBRANCH   4  13
TORSDOF 8
ENDMDL
MODEL 8
REMARK VINA RESULT:    -4.747      4.537      5.660
REMARK INTER + INTRA:          -7.407
REMARK INTER:                  -7.082
REMARK INTRA:                  -0.325
REMARK UNBOUND:                -0.580
REMARK SMILES Cc1ccncc1/C=C/Nc1ccc(CCCN)cc1
REMARK SMILES IDX 14 1 13 2 12 3 11 4 20 5 19 6 15 7 16 8 17 9 18 10 10 13
REMARK SMILES IDX 9 15 8 16 7 17 2 18 6 19 3 20 5 21 4 22 1 23
REMARK H PARENT 18 11 18 12 10 14
ROOT
ATOM      1  C   UNL     1       7.339  -7.465  -1.378  1.00  0.00    -0.048 A 
ATOM      2  C   UNL     1       8.345  -7.156  -2.296  1.00  0.00     0.006 A 
ATOM      3  C   UNL     1       9.341  -8.081  -2.596  1.00  0.00     0.026 A 
ATOM      4  C   UNL     1       9.418  -9.312  -1.940  1.00  0.00     0.038 A 
ATOM      5  C   UNL     1       8.442  -9.601  -0.979  1.00  0.00     0.026 A 
ATOM      6  C   UNL     1       7.414  -8.688  -0.700  1.00  0.00     0.006 A 
ENDROOT
BRANCH   1   7
ATOM      7  C   UNL     1       6.198  -6.512  -1.120  1.00  0.00     0.037 C 
BRANCH   7   8
ATOM      8  C   UNL     1       4.804  -6.953  -1.606  1.00  0.00     0.020 C 
BRANCH   8   9
ATOM      9  C   UNL     1       4.109  -8.034  -0.765  1.00  0.00     0.078 C 
BRANCH   9  10
ATOM     10  N   UNL     1       2.991  -8.698  -1.419  1.00  0.00    -0.330 NA
ATOM     11  H   UNL     1       2.114  -8.418  -0.981  1.00  0.00     0.118 HD
ATOM     12  H   UNL     1       3.053  -9.707  -1.283  1.00  0.00     0.118 HD
ENDBRANCH   9  10
ENDBRANCH   8   9
ENDBRANCH   7   8
ENDBRANCH   1   7
BRANCH   4  13
ATOM     13  N   UNL     1      10.489 -10.202  -2.151  1.00  0.00    -0.362 N 
ATOM     14  H   UNL     1      10.535 -10.650  -3.058  1.00  0.00     0.166 HD
BRANCH  13  15
ATOM     15  C   UNL     1      11.302 -10.695  -1.166  1.00  0.00     0.083 C 
BRANCH  15  16
ATOM     16  C   UNL     1      12.539 -10.314  -0.821  1.00  0.00     0.027 C 
BRANCH  16  17
ATOM     17  C   UNL     1      13.308 -11.049   0.195  1.00  0.00    -0.003 A 
ATOM     18  C   UNL     1      14.479 -11.762  -0.115  1.00  0.00    -0.041 A 
ATOM     19  C   UNL     1      12.874 -11.098   1.529  1.00  0.00     0.119 A 
ATOM     20  C   UNL     1      15.138 -12.456   0.912  1.00  0.00     0.024 A 
ATOM     21  N   UNL     1      13.507 -11.747   2.534  1.00  0.00    -0.264 NA
ATOM     22  C   UNL     1      14.628 -12.409   2.200  1.00  0.00     0.111 A 
ATOM     23  C   UNL     1      15.028 -11.840  -1.512  1.00  0.00     0.045 C 
ENDBRANCH  16  17
ENDBRANCH  15  16
ENDBRANCH  13  15
ENDBRANCH   4  13
TORSDOF 8
ENDMDL
MODEL 9
REMARK VINA RESULT:    -4.685      1.969      2.390
REMARK INTER + INTRA:          -7.319
REMARK INTER:                  -6.702
REMARK INTRA:                  -0.617
REMARK UNBOUND:                -0.580
REMARK SMILES Cc1ccncc1/C=C/Nc1ccc(CCCN)cc1
REMARK SMILES IDX 14 1 13 2 12 3 11 4 20 5 19 6 15 7 16 8 17 9 18 10 10 13
REMARK SMILES IDX 9 15 8 16 7 17 2 18 6 19 3 20 5 21 4 22 1 23
REMARK H PARENT 18 11 18 12 10 14
ROOT
ATOM      1  C   UNL     1       7.324  -8.153  -0.900  1.00  0.00    -0.048 A 
ATOM      2  C   UNL     1       8.316  -7.781  -1.810  1.00  0.00     0.006 A 
ATOM      3  C   UNL     1       9.151  -8.737  -2.380  1.00  0.00     0.026 A 
ATOM      4  C   UNL     1       9.082 -10.083  -2.011  1.00  0.00     0.038 A 
ATOM      5  C   UNL     1       8.126 -10.449  -1.057  1.00  0.00     0.026 A 
ATOM      6  C   UNL     1       7.256  -9.495  -0.507  1.00  0.00     0.006 A 
ENDROOT
BRANCH   1   7
ATOM      7  C   UNL     1       6.348  -7.141  -0.353  1.00  0.00     0.037 C 
BRANCH   7   8
ATOM      8  C   UNL     1       5.011  -6.993  -1.104  1.00  0.00     0.020 C 
BRANCH   8   9
ATOM      9  C   UNL     1       3.871  -7.909  -0.637  1.00  0.00     0.078 C 
BRANCH   9  10
ATOM     10  N   UNL     1       3.340  -8.801  -1.659  1.00  0.00    -0.330 NA
ATOM     11  H   UNL     1       3.565  -8.442  -2.586  1.00  0.00     0.118 HD
ATOM     12  H   UNL     1       2.321  -8.821  -1.613  1.00  0.00     0.118 HD
ENDBRANCH   9  10
ENDBRANCH   8   9
ENDBRANCH   7   8
ENDBRANCH   1   7
BRANCH   4  13
ATOM     13  N   UNL     1      10.001 -11.035  -2.494  1.00  0.00    -0.362 N 
ATOM     14  H   UNL     1      10.913 -10.690  -2.764  1.00  0.00     0.166 HD
BRANCH  13  15
ATOM     15  C   UNL     1       9.680 -12.315  -2.862  1.00  0.00     0.083 C 
BRANCH  15  16
ATOM     16  C   UNL     1       9.320 -12.784  -4.064  1.00  0.00     0.027 C 
BRANCH  16  17
ATOM     17  C   UNL     1       9.786 -14.094  -4.542  1.00  0.00    -0.003 A 
ATOM     18  C   UNL     1      10.000 -14.368  -5.905  1.00  0.00    -0.041 A 
ATOM     19  C   UNL     1      10.004 -15.151  -3.646  1.00  0.00     0.119 A 
ATOM     20  C   UNL     1      10.423 -15.653  -6.276  1.00  0.00     0.024 A 
ATOM     21  N   UNL     1      10.428 -16.391  -3.985  1.00  0.00    -0.264 NA
ATOM     22  C   UNL     1      10.631 -16.611  -5.296  1.00  0.00     0.111 A 
ATOM     23  C   UNL     1       9.756 -13.345  -6.979  1.00  0.00     0.045 C 
ENDBRANCH  16  17
ENDBRANCH  15  16
ENDBRANCH  13  15
ENDBRANCH   4  13
TORSDOF 8
ENDMDL
