MODEL 1
REMARK VINA RESULT:    -5.061      0.000      0.000
REMARK INTER + INTRA:          -8.025
REMARK INTER:                  -7.280
REMARK INTRA:                  -0.745
REMARK UNBOUND:                -0.745
REMARK SMILES Cc1ccncc1/C=C/Nc1ccc(CCCN)cc1
REMARK SMILES IDX 14 1 13 2 12 3 11 4 20 5 19 6 15 7 16 8 17 9 18 10 10 13
REMARK SMILES IDX 9 15 8 16 7 17 2 18 6 19 3 20 5 21 4 22 1 23
REMARK H PARENT 18 11 18 12 10 14
ROOT
ATOM      1  C   UNL     1      14.157   8.211   5.494  1.00  0.00    -0.048 A 
ATOM      2  C   UNL     1      15.100   7.234   5.166  1.00  0.00     0.006 A 
ATOM      3  C   UNL     1      14.696   5.967   4.758  1.00  0.00     0.026 A 
ATOM      4  C   UNL     1      13.349   5.599   4.734  1.00  0.00     0.038 A 
ATOM      5  C   UNL     1      12.405   6.560   5.117  1.00  0.00     0.026 A 
ATOM      6  C   UNL     1      12.804   7.852   5.493  1.00  0.00     0.006 A 
ENDROOT
BRANCH   1   7
ATOM      7  C   UNL     1      14.578   9.618   5.840  1.00  0.00     0.037 C 
BRANCH   7   8
ATOM      8  C   UNL     1      13.881  10.271   7.048  1.00  0.00     0.020 C 
BRANCH   8   9
ATOM      9  C   UNL     1      14.607  10.144   8.395  1.00  0.00     0.078 C 
BRANCH   9  10
ATOM     10  N   UNL     1      14.363   8.899   9.111  1.00  0.00    -0.330 NA
ATOM     11  H   UNL     1      15.087   8.218   8.883  1.00  0.00     0.118 HD
ATOM     12  H   UNL     1      13.486   8.481   8.800  1.00  0.00     0.118 HD
ENDBRANCH   9  10
ENDBRANCH   8   9
ENDBRANCH   7   8
ENDBRANCH   1   7
BRANCH   4  13
ATOM     13  N   UNL     1      12.941   4.285   4.438  1.00  0.00    -0.362 N 
ATOM     14  H   UNL     1      12.837   4.052   3.458  1.00  0.00     0.166 HD
BRANCH  13  15
ATOM     15  C   UNL     1      12.435   3.397   5.351  1.00  0.00     0.083 C 
BRANCH  15  16
ATOM     16  C   UNL     1      11.702   2.296   5.143  1.00  0.00     0.027 C 
BRANCH  16  17
ATOM     17  C   UNL     1      10.313   2.203   5.619  1.00  0.00    -0.003 A 
ATOM     18  C   UNL     1       9.276   1.685   4.823  1.00  0.00    -0.041 A 
ATOM     19  C   UNL     1       9.957   2.670   6.893  1.00  0.00     0.119 A 
ATOM     20  C   UNL     1       7.975   1.655   5.347  1.00  0.00     0.024 A 
ATOM     21  N   UNL     1       8.711   2.632   7.420  1.00  0.00    -0.264 NA
ATOM     22  C   UNL     1       7.748   2.121   6.632  1.00  0.00     0.111 A 
ATOM     23  C   UNL     1       9.505   1.199   3.419  1.00  0.00     0.045 C 
ENDBRANCH  16  17
ENDBRANCH  15  16
ENDBRANCH  13  15
ENDBRANCH   4  13
TORSDOF 8
ENDMDL
MODEL 2
REMARK VINA RESULT:    -5.050      1.982      8.496
REMARK INTER + INTRA:          -8.009
REMARK INTER:                  -7.410
REMARK INTRA:                  -0.600
REMARK UNBOUND:                -0.745
REMARK SMILES Cc1ccncc1/C=C/Nc1ccc(CCCN)cc1
REMARK SMILES IDX 14 1 13 2 12 3 11 4 20 5 19 6 15 7 16 8 17 9 18 10 10 13
REMARK SMILES IDX 9 15 8 16 7 17 2 18 6 19 3 20 5 21 4 22 1 23
REMARK H PARENT 18 11 18 12 10 14
ROOT
ATOM      1  C   UNL     1       9.381   1.391   5.180  1.00  0.00    -0.048 A 
ATOM      2  C   UNL     1      10.249   1.557   4.099  1.00  0.00     0.006 A 
ATOM      3  C   UNL     1      11.409   2.315   4.229  1.00  0.00     0.026 A 
ATOM      4  C   UNL     1      11.709   2.997   5.410  1.00  0.00     0.038 A 
ATOM      5  C   UNL     1      10.811   2.878   6.477  1.00  0.00     0.026 A 
ATOM      6  C   UNL     1       9.660   2.084   6.365  1.00  0.00     0.006 A 
ENDROOT
BRANCH   1   7
ATOM      7  C   UNL     1       8.175   0.491   5.082  1.00  0.00     0.037 C 
BRANCH   7   8
ATOM      8  C   UNL     1       7.018   0.776   6.059  1.00  0.00     0.020 C 
BRANCH   8   9
ATOM      9  C   UNL     1       6.238  -0.450   6.556  1.00  0.00     0.078 C 
BRANCH   9  10
ATOM     10  N   UNL     1       5.638  -1.264   5.509  1.00  0.00    -0.330 NA
ATOM     11  H   UNL     1       5.365  -2.171   5.886  1.00  0.00     0.118 HD
ATOM     12  H   UNL     1       6.325  -1.465   4.783  1.00  0.00     0.118 HD
ENDBRANCH   9  10
ENDBRANCH   8   9
ENDBRANCH   7   8
ENDBRANCH   1   7
BRANCH   4  13
ATOM     13  N   UNL     1      12.817   3.860   5.510  1.00  0.00    -0.362 N 
ATOM     14  H   UNL     1      13.405   3.752   6.327  1.00  0.00     0.166 HD
BRANCH  13  15
ATOM     15  C   UNL     1      13.010   4.978   4.742  1.00  0.00     0.083 C 
BRANCH  15  16
ATOM     16  C   UNL     1      12.910   6.269   5.088  1.00  0.00     0.027 C 
BRANCH  16  17
ATOM     17  C   UNL     1      14.101   7.125   5.191  1.00  0.00    -0.003 A 
ATOM     18  C   UNL     1      14.093   8.348   5.885  1.00  0.00    -0.041 A 
ATOM     19  C   UNL     1      15.301   6.767   4.559  1.00  0.00     0.119 A 
ATOM     20  C   UNL     1      15.268   9.114   5.913  1.00  0.00     0.024 A 
ATOM     21  N   UNL     1      16.448   7.485   4.591  1.00  0.00    -0.264 NA
ATOM     22  C   UNL     1      16.403   8.644   5.272  1.00  0.00     0.111 A 
ATOM     23  C   UNL     1      12.862   8.880   6.563  1.00  0.00     0.045 C 
ENDBRANCH  16  17
ENDBRANCH  15  16
ENDBRANCH  13  15
ENDBRANCH   4  13
TORSDOF 8
ENDMDL
MODEL 3
REMARK VINA RESULT:    -5.004      2.201      8.320
REMARK INTER + INTRA:          -7.943
REMARK INTER:                  -7.413
REMARK INTRA:                  -0.530
REMARK UNBOUND:                -0.745
REMARK SMILES Cc1ccncc1/C=C/Nc1ccc(CCCN)cc1
REMARK SMILES IDX 14 1 13 2 12 3 11 4 20 5 19 6 15 7 16 8 17 9 18 10 10 13
REMARK SMILES IDX 9 15 8 16 7 17 2 18 6 19 3 20 5 21 4 22 1 23
REMARK H PARENT 18 11 18 12 10 14
ROOT
ATOM      1  C   UNL     1       9.386   1.110   3.971  1.00  0.00    -0.048 A 
ATOM      2  C   UNL     1      10.517   1.305   3.176  1.00  0.00     0.006 A 
ATOM      3  C   UNL     1      11.624   1.987   3.671  1.00  0.00     0.026 A 
ATOM      4  C   UNL     1      11.619   2.566   4.943  1.00  0.00     0.038 A 
ATOM      5  C   UNL     1      10.465   2.419   5.721  1.00  0.00     0.026 A 
ATOM      6  C   UNL     1       9.359   1.700   5.241  1.00  0.00     0.006 A 
ENDROOT
BRANCH   1   7
ATOM      7  C   UNL     1       8.220   0.286   3.482  1.00  0.00     0.037 C 
BRANCH   7   8
ATOM      8  C   UNL     1       7.017   1.061   2.911  1.00  0.00     0.020 C 
BRANCH   8   9
ATOM      9  C   UNL     1       7.298   1.923   1.671  1.00  0.00     0.078 C 
BRANCH   9  10
ATOM     10  N   UNL     1       7.017   1.277   0.397  1.00  0.00    -0.330 NA
ATOM     11  H   UNL     1       7.517   0.391   0.338  1.00  0.00     0.118 HD
ATOM     12  H   UNL     1       7.376   1.845  -0.371  1.00  0.00     0.118 HD
ENDBRANCH   9  10
ENDBRANCH   8   9
ENDBRANCH   7   8
ENDBRANCH   1   7
BRANCH   4  13
ATOM     13  N   UNL     1      12.688   3.357   5.405  1.00  0.00    -0.362 N 
ATOM     14  H   UNL     1      13.364   2.902   6.005  1.00  0.00     0.166 HD
BRANCH  13  15
ATOM     15  C   UNL     1      12.744   4.723   5.320  1.00  0.00     0.083 C 
BRANCH  15  16
ATOM     16  C   UNL     1      13.534   5.492   4.560  1.00  0.00     0.027 C 
BRANCH  16  17
ATOM     17  C   UNL     1      13.977   6.818   5.019  1.00  0.00    -0.003 A 
ATOM     18  C   UNL     1      15.334   7.178   5.088  1.00  0.00    -0.041 A 
ATOM     19  C   UNL     1      13.048   7.778   5.449  1.00  0.00     0.119 A 
ATOM     20  C   UNL     1      15.669   8.456   5.560  1.00  0.00     0.024 A 
ATOM     21  N   UNL     1      13.352   9.020   5.890  1.00  0.00    -0.264 NA
ATOM     22  C   UNL     1      14.660   9.331   5.932  1.00  0.00     0.111 A 
ATOM     23  C   UNL     1      16.438   6.231   4.710  1.00  0.00     0.045 C 
ENDBRANCH  16  17
ENDBRANCH  15  16
ENDBRANCH  13  15
ENDBRANCH   4  13
TORSDOF 8
ENDMDL
MODEL 4
REMARK VINA RESULT:    -4.977      1.840      8.394
REMARK INTER + INTRA:          -7.904
REMARK INTER:                  -7.342
REMARK INTRA:                  -0.562
REMARK UNBOUND:                -0.745
REMARK SMILES Cc1ccncc1/C=C/Nc1ccc(CCCN)cc1
REMARK SMILES IDX 14 1 13 2 12 3 11 4 20 5 19 6 15 7 16 8 17 9 18 10 10 13
REMARK SMILES IDX 9 15 8 16 7 17 2 18 6 19 3 20 5 21 4 22 1 23
REMARK H PARENT 18 11 18 12 10 14
ROOT
ATOM      1  C   UNL     1       9.110   1.287   4.994  1.00  0.00    -0.048 A 
ATOM      2  C   UNL     1       9.941   1.375   3.875  1.00  0.00     0.006 A 
ATOM      3  C   UNL     1      11.172   2.020   3.954  1.00  0.00     0.026 A 
ATOM      4  C   UNL     1      11.586   2.667   5.121  1.00  0.00     0.038 A 
ATOM      5  C   UNL     1      10.729   2.628   6.227  1.00  0.00     0.026 A 
ATOM      6  C   UNL     1       9.504   1.946   6.165  1.00  0.00     0.006 A 
ENDROOT
BRANCH   1   7
ATOM      7  C   UNL     1       7.822   0.504   4.950  1.00  0.00     0.037 C 
BRANCH   7   8
ATOM      8  C   UNL     1       6.865   0.677   6.146  1.00  0.00     0.020 C 
BRANCH   8   9
ATOM      9  C   UNL     1       6.108  -0.583   6.589  1.00  0.00     0.078 C 
BRANCH   9  10
ATOM     10  N   UNL     1       5.580  -1.398   5.505  1.00  0.00    -0.330 NA
ATOM     11  H   UNL     1       5.807  -0.973   4.607  1.00  0.00     0.118 HD
ATOM     12  H   UNL     1       4.561  -1.422   5.546  1.00  0.00     0.118 HD
ENDBRANCH   9  10
ENDBRANCH   8   9
ENDBRANCH   7   8
ENDBRANCH   1   7
BRANCH   4  13
ATOM     13  N   UNL     1      12.774   3.422   5.172  1.00  0.00    -0.362 N 
ATOM     14  H   UNL     1      13.632   2.909   5.329  1.00  0.00     0.166 HD
BRANCH  13  15
ATOM     15  C   UNL     1      12.829   4.786   5.283  1.00  0.00     0.083 C 
BRANCH  15  16
ATOM     16  C   UNL     1      13.458   5.673   4.501  1.00  0.00     0.027 C 
BRANCH  16  17
ATOM     17  C   UNL     1      13.921   6.964   5.033  1.00  0.00    -0.003 A 
ATOM     18  C   UNL     1      15.279   7.330   5.048  1.00  0.00    -0.041 A 
ATOM     19  C   UNL     1      13.016   7.880   5.588  1.00  0.00     0.119 A 
ATOM     20  C   UNL     1      15.636   8.571   5.596  1.00  0.00     0.024 A 
ATOM     21  N   UNL     1      13.341   9.088   6.105  1.00  0.00    -0.264 NA
ATOM     22  C   UNL     1      14.648   9.406   6.093  1.00  0.00     0.111 A 
ATOM     23  C   UNL     1      16.362   6.424   4.535  1.00  0.00     0.045 C 
ENDBRANCH  16  17
ENDBRANCH  15  16
ENDBRANCH  13  15
ENDBRANCH   4  13
TORSDOF 8
ENDMDL
MODEL 5
REMARK VINA RESULT:    -4.958      1.353      2.066
REMARK INTER + INTRA:          -7.876
REMARK INTER:                  -7.286
REMARK INTRA:                  -0.590
REMARK UNBOUND:                -0.745
REMARK SMILES Cc1ccncc1/C=C/Nc1ccc(CCCN)cc1
REMARK SMILES IDX 14 1 13 2 12 3 11 4 20 5 19 6 15 7 16 8 17 9 18 10 10 13
REMARK SMILES IDX 9 15 8 16 7 17 2 18 6 19 3 20 5 21 4 22 1 23
REMARK H PARENT 18 11 18 12 10 14
ROOT
ATOM      1  C   UNL     1      14.123   8.252   5.504  1.00  0.00    -0.048 A 
ATOM      2  C   UNL     1      15.079   7.273   5.224  1.00  0.00     0.006 A 
ATOM      3  C   UNL     1      14.692   5.987   4.859  1.00  0.00     0.026 A 
ATOM      4  C   UNL     1      13.348   5.606   4.834  1.00  0.00     0.038 A 
ATOM      5  C   UNL     1      12.391   6.571   5.170  1.00  0.00     0.026 A 
ATOM      6  C   UNL     1      12.773   7.879   5.502  1.00  0.00     0.006 A 
ENDROOT
BRANCH   1   7
ATOM      7  C   UNL     1      14.527   9.674   5.803  1.00  0.00     0.037 C 
BRANCH   7   8
ATOM      8  C   UNL     1      13.965  10.296   7.096  1.00  0.00     0.020 C 
BRANCH   8   9
ATOM      9  C   UNL     1      14.753  10.006   8.381  1.00  0.00     0.078 C 
BRANCH   9  10
ATOM     10  N   UNL     1      14.260   8.882   9.165  1.00  0.00    -0.330 NA
ATOM     11  H   UNL     1      14.313   9.100  10.159  1.00  0.00     0.118 HD
ATOM     12  H   UNL     1      14.862   8.069   9.031  1.00  0.00     0.118 HD
ENDBRANCH   9  10
ENDBRANCH   8   9
ENDBRANCH   7   8
ENDBRANCH   1   7
BRANCH   4  13
ATOM     13  N   UNL     1      12.956   4.277   4.582  1.00  0.00    -0.362 N 
ATOM     14  H   UNL     1      12.798   4.026   3.614  1.00  0.00     0.166 HD
BRANCH  13  15
ATOM     15  C   UNL     1      12.530   3.392   5.536  1.00  0.00     0.083 C 
BRANCH  15  16
ATOM     16  C   UNL     1      11.328   2.818   5.681  1.00  0.00     0.027 C 
BRANCH  16  17
ATOM     17  C   UNL     1      10.695   2.087   4.572  1.00  0.00    -0.003 A 
ATOM     18  C   UNL     1       9.355   1.665   4.615  1.00  0.00    -0.041 A 
ATOM     19  C   UNL     1      11.427   1.745   3.425  1.00  0.00     0.119 A 
ATOM     20  C   UNL     1       8.837   0.953   3.523  1.00  0.00     0.024 A 
ATOM     21  N   UNL     1      10.939   1.074   2.356  1.00  0.00    -0.264 NA
ATOM     22  C   UNL     1       9.650   0.696   2.431  1.00  0.00     0.111 A 
ATOM     23  C   UNL     1       8.470   1.917   5.804  1.00  0.00     0.045 C 
ENDBRANCH  16  17
ENDBRANCH  15  16
ENDBRANCH  13  15
ENDBRANCH   4  13
TORSDOF 8
ENDMDL
MODEL 6
REMARK VINA RESULT:    -4.877      2.311      8.464
REMARK INTER + INTRA:          -7.760
REMARK INTER:                  -7.138
REMARK INTRA:                  -0.622
REMARK UNBOUND:                -0.745
REMARK SMILES Cc1ccncc1/C=C/Nc1ccc(CCCN)cc1
REMARK SMILES IDX 14 1 13 2 12 3 11 4 20 5 19 6 15 7 16 8 17 9 18 10 10 13
REMARK SMILES IDX 9 15 8 16 7 17 2 18 6 19 3 20 5 21 4 22 1 23
REMARK H PARENT 18 11 18 12 10 14
ROOT
ATOM      1  C   UNL     1       9.460   1.239   4.139  1.00  0.00    -0.048 A 
ATOM      2  C   UNL     1       9.356   1.749   5.434  1.00  0.00     0.006 A 
ATOM      3  C   UNL     1      10.367   2.543   5.968  1.00  0.00     0.026 A 
ATOM      4  C   UNL     1      11.549   2.793   5.267  1.00  0.00     0.038 A 
ATOM      5  C   UNL     1      11.679   2.235   3.990  1.00  0.00     0.026 A 
ATOM      6  C   UNL     1      10.647   1.465   3.431  1.00  0.00     0.006 A 
ENDROOT
BRANCH   1   7
ATOM      7  C   UNL     1       8.329   0.462   3.512  1.00  0.00     0.037 C 
BRANCH   7   8
ATOM      8  C   UNL     1       7.133   1.282   2.991  1.00  0.00     0.020 C 
BRANCH   8   9
ATOM      9  C   UNL     1       7.334   1.981   1.638  1.00  0.00     0.078 C 
BRANCH   9  10
ATOM     10  N   UNL     1       7.067   1.151   0.472  1.00  0.00    -0.330 NA
ATOM     11  H   UNL     1       7.879   1.144  -0.144  1.00  0.00     0.118 HD
ATOM     12  H   UNL     1       6.309   1.553  -0.080  1.00  0.00     0.118 HD
ENDBRANCH   9  10
ENDBRANCH   8   9
ENDBRANCH   7   8
ENDBRANCH   1   7
BRANCH   4  13
ATOM     13  N   UNL     1      12.624   3.495   5.846  1.00  0.00    -0.362 N 
ATOM     14  H   UNL     1      12.725   3.422   6.851  1.00  0.00     0.166 HD
BRANCH  13  15
ATOM     15  C   UNL     1      13.368   4.452   5.209  1.00  0.00     0.083 C 
BRANCH  15  16
ATOM     16  C   UNL     1      13.152   5.771   5.121  1.00  0.00     0.027 C 
BRANCH  16  17
ATOM     17  C   UNL     1      14.270   6.725   5.071  1.00  0.00    -0.003 A 
ATOM     18  C   UNL     1      14.166   8.036   5.567  1.00  0.00    -0.041 A 
ATOM     19  C   UNL     1      15.493   6.369   4.482  1.00  0.00     0.119 A 
ATOM     20  C   UNL     1      15.275   8.889   5.458  1.00  0.00     0.024 A 
ATOM     21  N   UNL     1      16.578   7.173   4.384  1.00  0.00    -0.264 NA
ATOM     22  C   UNL     1      16.443   8.416   4.879  1.00  0.00     0.111 A 
ATOM     23  C   UNL     1      12.899   8.568   6.175  1.00  0.00     0.045 C 
ENDBRANCH  16  17
ENDBRANCH  15  16
ENDBRANCH  13  15
ENDBRANCH   4  13
TORSDOF 8
ENDMDL
MODEL 7
REMARK VINA RESULT:    -4.549      1.495      2.030
REMARK INTER + INTRA:          -7.289
REMARK INTER:                  -6.643
REMARK INTRA:                  -0.645
REMARK UNBOUND:                -0.745
REMARK SMILES Cc1ccncc1/C=C/Nc1ccc(CCCN)cc1
REMARK SMILES IDX 14 1 13 2 12 3 11 4 20 5 19 6 15 7 16 8 17 9 18 10 10 13
REMARK SMILES IDX 9 15 8 16 7 17 2 18 6 19 3 20 5 21 4 22 1 23
REMARK H PARENT 18 11 18 12 10 14
ROOT
ATOM      1  C   UNL     1      14.281   8.248   5.653  1.00  0.00    -0.048 A 
ATOM      2  C   UNL     1      12.907   8.008   5.587  1.00  0.00     0.006 A 
ATOM      3  C   UNL     1      12.422   6.757   5.217  1.00  0.00     0.026 A 
ATOM      4  C   UNL     1      13.279   5.726   4.826  1.00  0.00     0.038 A 
ATOM      5  C   UNL     1      14.655   5.982   4.838  1.00  0.00     0.026 A 
ATOM      6  C   UNL     1      15.152   7.230   5.246  1.00  0.00     0.006 A 
ENDROOT
BRANCH   1   7
ATOM      7  C   UNL     1      14.820   9.567   6.148  1.00  0.00     0.037 C 
BRANCH   7   8
ATOM      8  C   UNL     1      15.819  10.296   5.228  1.00  0.00     0.020 C 
BRANCH   8   9
ATOM      9  C   UNL     1      15.404  11.699   4.762  1.00  0.00     0.078 C 
BRANCH   9  10
ATOM     10  N   UNL     1      14.178  11.749   3.978  1.00  0.00    -0.330 NA
ATOM     11  H   UNL     1      14.398  11.921   2.998  1.00  0.00     0.118 HD
ATOM     12  H   UNL     1      13.605  12.541   4.272  1.00  0.00     0.118 HD
ENDBRANCH   9  10
ENDBRANCH   8   9
ENDBRANCH   7   8
ENDBRANCH   1   7
BRANCH   4  13
ATOM     13  N   UNL     1      12.792   4.498   4.338  1.00  0.00    -0.362 N 
ATOM     14  H   UNL     1      12.583   4.453   3.348  1.00  0.00     0.166 HD
BRANCH  13  15
ATOM     15  C   UNL     1      12.342   3.467   5.121  1.00  0.00     0.083 C 
BRANCH  15  16
ATOM     16  C   UNL     1      11.635   2.385   4.770  1.00  0.00     0.027 C 
BRANCH  16  17
ATOM     17  C   UNL     1      10.263   2.180   5.260  1.00  0.00    -0.003 A 
ATOM     18  C   UNL     1       9.268   1.568   4.479  1.00  0.00    -0.041 A 
ATOM     19  C   UNL     1       9.879   2.628   6.533  1.00  0.00     0.119 A 
ATOM     20  C   UNL     1       7.978   1.433   5.015  1.00  0.00     0.024 A 
ATOM     21  N   UNL     1       8.645   2.490   7.072  1.00  0.00    -0.264 NA
ATOM     22  C   UNL     1       7.723   1.891   6.298  1.00  0.00     0.111 A 
ATOM     23  C   UNL     1       9.525   1.088   3.078  1.00  0.00     0.045 C 
ENDBRANCH  16  17
ENDBRANCH  15  16
ENDBRANCH  13  15
ENDBRANCH   4  13
TORSDOF 8
ENDMDL
MODEL 8
REMARK VINA RESULT:    -4.510      4.806      8.338
REMARK INTER + INTRA:          -7.232
REMARK INTER:                  -6.620
REMARK INTRA:                  -0.612
REMARK UNBOUND:                -0.745
REMARK SMILES Cc1ccncc1/C=C/Nc1ccc(CCCN)cc1
REMARK SMILES IDX 14 1 13 2 12 3 11 4 20 5 19 6 15 7 16 8 17 9 18 10 10 13
REMARK SMILES IDX 9 15 8 16 7 17 2 18 6 19 3 20 5 21 4 22 1 23
REMARK H PARENT 18 11 18 12 10 14
ROOT
ATOM      1  C   UNL     1       8.063   1.956   4.652  1.00  0.00    -0.048 A 
ATOM      2  C   UNL     1       7.902   2.131   6.028  1.00  0.00     0.006 A 
ATOM      3  C   UNL     1       9.006   2.316   6.855  1.00  0.00     0.026 A 
ATOM      4  C   UNL     1      10.310   2.255   6.359  1.00  0.00     0.038 A 
ATOM      5  C   UNL     1      10.476   2.023   4.989  1.00  0.00     0.026 A 
ATOM      6  C   UNL     1       9.366   1.875   4.144  1.00  0.00     0.006 A 
ENDROOT
BRANCH   1   7
ATOM      7  C   UNL     1       6.872   1.856   3.732  1.00  0.00     0.037 C 
BRANCH   7   8
ATOM      8  C   UNL     1       7.041   0.983   2.474  1.00  0.00     0.020 C 
BRANCH   8   9
ATOM      9  C   UNL     1       6.776   1.679   1.131  1.00  0.00     0.078 C 
BRANCH   9  10
ATOM     10  N   UNL     1       7.516   2.916   0.923  1.00  0.00    -0.330 NA
ATOM     11  H   UNL     1       8.479   2.707   0.661  1.00  0.00     0.118 HD
ATOM     12  H   UNL     1       7.578   3.440   1.796  1.00  0.00     0.118 HD
ENDBRANCH   9  10
ENDBRANCH   8   9
ENDBRANCH   7   8
ENDBRANCH   1   7
BRANCH   4  13
ATOM     13  N   UNL     1      11.433   2.322   7.207  1.00  0.00    -0.362 N 
ATOM     14  H   UNL     1      11.448   3.076   7.882  1.00  0.00     0.166 HD
BRANCH  13  15
ATOM     15  C   UNL     1      12.595   1.622   7.022  1.00  0.00     0.083 C 
BRANCH  15  16
ATOM     16  C   UNL     1      13.847   1.955   7.365  1.00  0.00     0.027 C 
BRANCH  16  17
ATOM     17  C   UNL     1      14.826   0.932   7.762  1.00  0.00    -0.003 A 
ATOM     18  C   UNL     1      15.908   1.215   8.614  1.00  0.00    -0.041 A 
ATOM     19  C   UNL     1      14.739  -0.377   7.266  1.00  0.00     0.119 A 
ATOM     20  C   UNL     1      16.810   0.185   8.923  1.00  0.00     0.024 A 
ATOM     21  N   UNL     1      15.589  -1.387   7.567  1.00  0.00    -0.264 NA
ATOM     22  C   UNL     1      16.605  -1.080   8.393  1.00  0.00     0.111 A 
ATOM     23  C   UNL     1      16.154   2.587   9.175  1.00  0.00     0.045 C 
ENDBRANCH  16  17
ENDBRANCH  15  16
ENDBRANCH  13  15
ENDBRANCH   4  13
TORSDOF 8
ENDMDL
MODEL 9
REMARK VINA RESULT:    -4.398      1.790      2.301
REMARK INTER + INTRA:          -7.071
REMARK INTER:                  -6.362
REMARK INTRA:                  -0.709
REMARK UNBOUND:                -0.745
REMARK SMILES Cc1ccncc1/C=C/Nc1ccc(CCCN)cc1
REMARK SMILES IDX 14 1 13 2 12 3 11 4 20 5 19 6 15 7 16 8 17 9 18 10 10 13
REMARK SMILES IDX 9 15 8 16 7 17 2 18 6 19 3 20 5 21 4 22 1 23
REMARK H PARENT 18 11 18 12 10 14
ROOT
ATOM      1  C   UNL     1      14.404   7.848   5.371  1.00  0.00    -0.048 A 
ATOM      2  C   UNL     1      15.129   6.699   5.047  1.00  0.00     0.006 A 
ATOM      3  C   UNL     1      14.475   5.525   4.685  1.00  0.00     0.026 A 
ATOM      4  C   UNL     1      13.082   5.426   4.708  1.00  0.00     0.038 A 
ATOM      5  C   UNL     1      12.355   6.561   5.088  1.00  0.00     0.026 A 
ATOM      6  C   UNL     1      13.008   7.758   5.416  1.00  0.00     0.006 A 
ENDROOT
BRANCH   1   7
ATOM      7  C   UNL     1      15.100   9.153   5.665  1.00  0.00     0.037 C 
BRANCH   7   8
ATOM      8  C   UNL     1      14.199  10.378   5.912  1.00  0.00     0.020 C 
BRANCH   8   9
ATOM      9  C   UNL     1      14.666  11.696   5.278  1.00  0.00     0.078 C 
BRANCH   9  10
ATOM     10  N   UNL     1      14.374  11.834   3.858  1.00  0.00    -0.330 NA
ATOM     11  H   UNL     1      14.511  10.941   3.386  1.00  0.00     0.118 HD
ATOM     12  H   UNL     1      15.035  12.478   3.424  1.00  0.00     0.118 HD
ENDBRANCH   9  10
ENDBRANCH   8   9
ENDBRANCH   7   8
ENDBRANCH   1   7
BRANCH   4  13
ATOM     13  N   UNL     1      12.418   4.210   4.459  1.00  0.00    -0.362 N 
ATOM     14  H   UNL     1      11.812   4.180   3.649  1.00  0.00     0.166 HD
BRANCH  13  15
ATOM     15  C   UNL     1      12.325   3.173   5.350  1.00  0.00     0.083 C 
BRANCH  15  16
ATOM     16  C   UNL     1      11.370   2.918   6.255  1.00  0.00     0.027 C 
BRANCH  16  17
ATOM     17  C   UNL     1      10.075   2.349   5.856  1.00  0.00    -0.003 A 
ATOM     18  C   UNL     1       8.949   2.373   6.698  1.00  0.00    -0.041 A 
ATOM     19  C   UNL     1       9.919   1.715   4.614  1.00  0.00     0.119 A 
ATOM     20  C   UNL     1       7.757   1.785   6.248  1.00  0.00     0.024 A 
ATOM     21  N   UNL     1       8.773   1.158   4.157  1.00  0.00    -0.264 NA
ATOM     22  C   UNL     1       7.716   1.210   4.987  1.00  0.00     0.111 A 
ATOM     23  C   UNL     1       8.988   2.972   8.076  1.00  0.00     0.045 C 
ENDBRANCH  16  17
ENDBRANCH  15  16
ENDBRANCH  13  15
ENDBRANCH   4  13
TORSDOF 8
ENDMDL
