MODEL 1
REMARK VINA RESULT:    -5.029      0.000      0.000
REMARK INTER + INTRA:          -7.892
REMARK INTER:                  -7.234
REMARK INTRA:                  -0.658
REMARK UNBOUND:                -0.658
REMARK SMILES Cc1ccncc1/C=C/Nc1ccc(CCCN)cc1
REMARK SMILES IDX 14 1 13 2 12 3 11 4 20 5 19 6 15 7 16 8 17 9 18 10 10 13
REMARK SMILES IDX 9 15 8 16 7 17 2 18 6 19 3 20 5 21 4 22 1 23
REMARK H PARENT 18 11 18 12 10 14
ROOT
ATOM      1  C   UNL     1      -7.865 -14.354  -1.138  1.00  0.00    -0.048 A 
ATOM      2  C   UNL     1      -7.764 -12.969  -1.282  1.00  0.00     0.006 A 
ATOM      3  C   UNL     1      -6.734 -12.264  -0.665  1.00  0.00     0.026 A 
ATOM      4  C   UNL     1      -5.816 -12.896   0.177  1.00  0.00     0.038 A 
ATOM      5  C   UNL     1      -5.951 -14.277   0.368  1.00  0.00     0.026 A 
ATOM      6  C   UNL     1      -6.964 -14.998  -0.282  1.00  0.00     0.006 A 
ENDROOT
BRANCH   1   7
ATOM      7  C   UNL     1      -8.915 -15.141  -1.882  1.00  0.00     0.037 C 
BRANCH   7   8
ATOM      8  C   UNL     1      -9.327 -14.607  -3.267  1.00  0.00     0.020 C 
BRANCH   8   9
ATOM      9  C   UNL     1      -8.827 -15.412  -4.476  1.00  0.00     0.078 C 
BRANCH   9  10
ATOM     10  N   UNL     1      -7.414 -15.245  -4.784  1.00  0.00    -0.330 NA
ATOM     11  H   UNL     1      -7.230 -15.537  -5.743  1.00  0.00     0.118 HD
ATOM     12  H   UNL     1      -6.851 -15.862  -4.198  1.00  0.00     0.118 HD
ENDBRANCH   9  10
ENDBRANCH   8   9
ENDBRANCH   7   8
ENDBRANCH   1   7
BRANCH   4  13
ATOM     13  N   UNL     1      -4.846 -12.173   0.898  1.00  0.00    -0.362 N 
ATOM     14  H   UNL     1      -5.064 -11.957   1.863  1.00  0.00     0.166 HD
BRANCH  13  15
ATOM     15  C   UNL     1      -3.774 -11.530   0.338  1.00  0.00     0.083 C 
BRANCH  15  16
ATOM     16  C   UNL     1      -2.935 -10.645   0.893  1.00  0.00     0.027 C 
BRANCH  16  17
ATOM     17  C   UNL     1      -2.685  -9.338   0.267  1.00  0.00    -0.003 A 
ATOM     18  C   UNL     1      -2.470  -8.170   1.020  1.00  0.00    -0.041 A 
ATOM     19  C   UNL     1      -2.689  -9.195  -1.129  1.00  0.00     0.119 A 
ATOM     20  C   UNL     1      -2.263  -6.959   0.342  1.00  0.00     0.024 A 
ATOM     21  N   UNL     1      -2.474  -8.039  -1.799  1.00  0.00    -0.264 NA
ATOM     22  C   UNL     1      -2.262  -6.947  -1.044  1.00  0.00     0.111 A 
ATOM     23  C   UNL     1      -2.492  -8.166   2.523  1.00  0.00     0.045 C 
ENDBRANCH  16  17
ENDBRANCH  15  16
ENDBRANCH  13  15
ENDBRANCH   4  13
TORSDOF 8
ENDMDL
MODEL 2
REMARK VINA RESULT:    -5.017      4.860      8.442
REMARK INTER + INTRA:          -7.874
REMARK INTER:                  -7.278
REMARK INTRA:                  -0.596
REMARK UNBOUND:                -0.658
REMARK SMILES Cc1ccncc1/C=C/Nc1ccc(CCCN)cc1
REMARK SMILES IDX 14 1 13 2 12 3 11 4 20 5 19 6 15 7 16 8 17 9 18 10 10 13
REMARK SMILES IDX 9 15 8 16 7 17 2 18 6 19 3 20 5 21 4 22 1 23
REMARK H PARENT 18 11 18 12 10 14
ROOT
ATOM      1  C   UNL     1      -3.043  -8.981   0.442  1.00  0.00    -0.048 A 
ATOM      2  C   UNL     1      -3.129  -9.980   1.413  1.00  0.00     0.006 A 
ATOM      3  C   UNL     1      -2.766 -11.291   1.117  1.00  0.00     0.026 A 
ATOM      4  C   UNL     1      -2.380 -11.671  -0.171  1.00  0.00     0.038 A 
ATOM      5  C   UNL     1      -2.348 -10.681  -1.160  1.00  0.00     0.026 A 
ATOM      6  C   UNL     1      -2.676  -9.350  -0.858  1.00  0.00     0.006 A 
ENDROOT
BRANCH   1   7
ATOM      7  C   UNL     1      -3.337  -7.540   0.777  1.00  0.00     0.037 C 
BRANCH   7   8
ATOM      8  C   UNL     1      -3.128  -7.114   2.243  1.00  0.00     0.020 C 
BRANCH   8   9
ATOM      9  C   UNL     1      -4.125  -6.083   2.793  1.00  0.00     0.078 C 
BRANCH   9  10
ATOM     10  N   UNL     1      -3.764  -5.505   4.080  1.00  0.00    -0.330 NA
ATOM     11  H   UNL     1      -4.164  -6.059   4.836  1.00  0.00     0.118 HD
ATOM     12  H   UNL     1      -4.175  -4.576   4.175  1.00  0.00     0.118 HD
ENDBRANCH   9  10
ENDBRANCH   8   9
ENDBRANCH   7   8
ENDBRANCH   1   7
BRANCH   4  13
ATOM     13  N   UNL     1      -2.126 -13.015  -0.506  1.00  0.00    -0.362 N 
ATOM     14  H   UNL     1      -2.778 -13.703  -0.150  1.00  0.00     0.166 HD
BRANCH  13  15
ATOM     15  C   UNL     1      -0.954 -13.480  -1.043  1.00  0.00     0.083 C 
BRANCH  15  16
ATOM     16  C   UNL     1       0.129 -13.961  -0.419  1.00  0.00     0.027 C 
BRANCH  16  17
ATOM     17  C   UNL     1       0.586 -15.341  -0.640  1.00  0.00    -0.003 A 
ATOM     18  C   UNL     1       1.292 -16.068   0.335  1.00  0.00    -0.041 A 
ATOM     19  C   UNL     1       0.363 -15.985  -1.867  1.00  0.00     0.119 A 
ATOM     20  C   UNL     1       1.711 -17.372   0.031  1.00  0.00     0.024 A 
ATOM     21  N   UNL     1       0.745 -17.247  -2.170  1.00  0.00    -0.264 NA
ATOM     22  C   UNL     1       1.409 -17.913  -1.208  1.00  0.00     0.111 A 
ATOM     23  C   UNL     1       1.646 -15.484   1.674  1.00  0.00     0.045 C 
ENDBRANCH  16  17
ENDBRANCH  15  16
ENDBRANCH  13  15
ENDBRANCH   4  13
TORSDOF 8
ENDMDL
MODEL 3
REMARK VINA RESULT:    -4.989      4.839      7.023
REMARK INTER + INTRA:          -7.834
REMARK INTER:                  -7.023
REMARK INTRA:                  -0.812
REMARK UNBOUND:                -0.658
REMARK SMILES Cc1ccncc1/C=C/Nc1ccc(CCCN)cc1
REMARK SMILES IDX 14 1 13 2 12 3 11 4 20 5 19 6 15 7 16 8 17 9 18 10 10 13
REMARK SMILES IDX 9 15 8 16 7 17 2 18 6 19 3 20 5 21 4 22 1 23
REMARK H PARENT 18 11 18 12 10 14
ROOT
ATOM      1  C   UNL     1       1.016 -15.755  -0.420  1.00  0.00    -0.048 A 
ATOM      2  C   UNL     1      -0.019 -15.806  -1.356  1.00  0.00     0.006 A 
ATOM      3  C   UNL     1      -0.794 -14.680  -1.620  1.00  0.00     0.026 A 
ATOM      4  C   UNL     1      -0.621 -13.489  -0.911  1.00  0.00     0.038 A 
ATOM      5  C   UNL     1       0.379 -13.454   0.068  1.00  0.00     0.026 A 
ATOM      6  C   UNL     1       1.188 -14.574   0.312  1.00  0.00     0.006 A 
ENDROOT
BRANCH   1   7
ATOM      7  C   UNL     1       1.926 -16.936  -0.197  1.00  0.00     0.037 C 
BRANCH   7   8
ATOM      8  C   UNL     1       2.331 -17.233   1.260  1.00  0.00     0.020 C 
BRANCH   8   9
ATOM      9  C   UNL     1       1.405 -18.181   2.036  1.00  0.00     0.078 C 
BRANCH   9  10
ATOM     10  N   UNL     1       0.256 -17.543   2.662  1.00  0.00    -0.330 NA
ATOM     11  H   UNL     1      -0.093 -18.123   3.424  1.00  0.00     0.118 HD
ATOM     12  H   UNL     1      -0.514 -17.474   1.997  1.00  0.00     0.118 HD
ENDBRANCH   9  10
ENDBRANCH   8   9
ENDBRANCH   7   8
ENDBRANCH   1   7
BRANCH   4  13
ATOM     13  N   UNL     1      -1.478 -12.386  -1.089  1.00  0.00    -0.362 N 
ATOM     14  H   UNL     1      -1.111 -11.607  -1.622  1.00  0.00     0.166 HD
BRANCH  13  15
ATOM     15  C   UNL     1      -2.641 -12.179  -0.397  1.00  0.00     0.083 C 
BRANCH  15  16
ATOM     16  C   UNL     1      -3.326 -11.042  -0.214  1.00  0.00     0.027 C 
BRANCH  16  17
ATOM     17  C   UNL     1      -3.026 -10.144   0.911  1.00  0.00    -0.003 A 
ATOM     18  C   UNL     1      -2.669  -8.797   0.726  1.00  0.00    -0.041 A 
ATOM     19  C   UNL     1      -3.049 -10.614   2.233  1.00  0.00     0.119 A 
ATOM     20  C   UNL     1      -2.375  -8.016   1.854  1.00  0.00     0.024 A 
ATOM     21  N   UNL     1      -2.786  -9.871   3.333  1.00  0.00    -0.264 NA
ATOM     22  C   UNL     1      -2.458  -8.585   3.115  1.00  0.00     0.111 A 
ATOM     23  C   UNL     1      -2.552  -8.175  -0.638  1.00  0.00     0.045 C 
ENDBRANCH  16  17
ENDBRANCH  15  16
ENDBRANCH  13  15
ENDBRANCH   4  13
TORSDOF 8
ENDMDL
MODEL 4
REMARK VINA RESULT:    -4.973      4.768      8.497
REMARK INTER + INTRA:          -7.811
REMARK INTER:                  -7.276
REMARK INTRA:                  -0.535
REMARK UNBOUND:                -0.658
REMARK SMILES Cc1ccncc1/C=C/Nc1ccc(CCCN)cc1
REMARK SMILES IDX 14 1 13 2 12 3 11 4 20 5 19 6 15 7 16 8 17 9 18 10 10 13
REMARK SMILES IDX 9 15 8 16 7 17 2 18 6 19 3 20 5 21 4 22 1 23
REMARK H PARENT 18 11 18 12 10 14
ROOT
ATOM      1  C   UNL     1      -3.055  -8.503   0.572  1.00  0.00    -0.048 A 
ATOM      2  C   UNL     1      -2.677  -8.909  -0.710  1.00  0.00     0.006 A 
ATOM      3  C   UNL     1      -2.489 -10.257  -1.001  1.00  0.00     0.026 A 
ATOM      4  C   UNL     1      -2.591 -11.240  -0.014  1.00  0.00     0.038 A 
ATOM      5  C   UNL     1      -2.914 -10.829   1.284  1.00  0.00     0.026 A 
ATOM      6  C   UNL     1      -3.143  -9.475   1.575  1.00  0.00     0.006 A 
ENDROOT
BRANCH   1   7
ATOM      7  C   UNL     1      -3.360  -7.057   0.874  1.00  0.00     0.037 C 
BRANCH   7   8
ATOM      8  C   UNL     1      -2.927  -6.533   2.257  1.00  0.00     0.020 C 
BRANCH   8   9
ATOM      9  C   UNL     1      -4.054  -6.019   3.165  1.00  0.00     0.078 C 
BRANCH   9  10
ATOM     10  N   UNL     1      -4.472  -4.648   2.911  1.00  0.00    -0.330 NA
ATOM     11  H   UNL     1      -4.647  -4.167   3.792  1.00  0.00     0.118 HD
ATOM     12  H   UNL     1      -5.363  -4.639   2.413  1.00  0.00     0.118 HD
ENDBRANCH   9  10
ENDBRANCH   8   9
ENDBRANCH   7   8
ENDBRANCH   1   7
BRANCH   4  13
ATOM     13  N   UNL     1      -2.286 -12.590  -0.274  1.00  0.00    -0.362 N 
ATOM     14  H   UNL     1      -2.956 -13.277   0.048  1.00  0.00     0.166 HD
BRANCH  13  15
ATOM     15  C   UNL     1      -1.062 -13.050  -0.684  1.00  0.00     0.083 C 
BRANCH  15  16
ATOM     16  C   UNL     1      -0.771 -14.112  -1.447  1.00  0.00     0.027 C 
BRANCH  16  17
ATOM     17  C   UNL     1       0.238 -15.097  -1.029  1.00  0.00    -0.003 A 
ATOM     18  C   UNL     1       0.449 -16.302  -1.723  1.00  0.00    -0.041 A 
ATOM     19  C   UNL     1       1.016 -14.887   0.120  1.00  0.00     0.119 A 
ATOM     20  C   UNL     1       1.417 -17.197  -1.240  1.00  0.00     0.024 A 
ATOM     21  N   UNL     1       1.965 -15.731   0.589  1.00  0.00    -0.264 NA
ATOM     22  C   UNL     1       2.144 -16.867  -0.108  1.00  0.00     0.111 A 
ATOM     23  C   UNL     1      -0.350 -16.681  -2.938  1.00  0.00     0.045 C 
ENDBRANCH  16  17
ENDBRANCH  15  16
ENDBRANCH  13  15
ENDBRANCH   4  13
TORSDOF 8
ENDMDL
MODEL 5
REMARK VINA RESULT:    -4.969      4.600      8.452
REMARK INTER + INTRA:          -7.806
REMARK INTER:                  -7.263
REMARK INTRA:                  -0.542
REMARK UNBOUND:                -0.658
REMARK SMILES Cc1ccncc1/C=C/Nc1ccc(CCCN)cc1
REMARK SMILES IDX 14 1 13 2 12 3 11 4 20 5 19 6 15 7 16 8 17 9 18 10 10 13
REMARK SMILES IDX 9 15 8 16 7 17 2 18 6 19 3 20 5 21 4 22 1 23
REMARK H PARENT 18 11 18 12 10 14
ROOT
ATOM      1  C   UNL     1      -2.774  -8.122  -0.358  1.00  0.00    -0.048 A 
ATOM      2  C   UNL     1      -2.611  -8.779  -1.580  1.00  0.00     0.006 A 
ATOM      3  C   UNL     1      -2.639 -10.168  -1.649  1.00  0.00     0.026 A 
ATOM      4  C   UNL     1      -2.753 -10.956  -0.500  1.00  0.00     0.038 A 
ATOM      5  C   UNL     1      -2.859 -10.300   0.732  1.00  0.00     0.026 A 
ATOM      6  C   UNL     1      -2.870  -8.899   0.803  1.00  0.00     0.006 A 
ENDROOT
BRANCH   1   7
ATOM      7  C   UNL     1      -2.847  -6.617  -0.284  1.00  0.00     0.037 C 
BRANCH   7   8
ATOM      8  C   UNL     1      -1.534  -5.877   0.038  1.00  0.00     0.020 C 
BRANCH   8   9
ATOM      9  C   UNL     1      -0.463  -5.895  -1.063  1.00  0.00     0.078 C 
BRANCH   9  10
ATOM     10  N   UNL     1      -0.413  -4.699  -1.892  1.00  0.00    -0.330 NA
ATOM     11  H   UNL     1      -0.758  -3.896  -1.367  1.00  0.00     0.118 HD
ATOM     12  H   UNL     1      -1.043  -4.796  -2.688  1.00  0.00     0.118 HD
ENDBRANCH   9  10
ENDBRANCH   8   9
ENDBRANCH   7   8
ENDBRANCH   1   7
BRANCH   4  13
ATOM     13  N   UNL     1      -2.662 -12.361  -0.549  1.00  0.00    -0.362 N 
ATOM     14  H   UNL     1      -3.535 -12.873  -0.531  1.00  0.00     0.166 HD
BRANCH  13  15
ATOM     15  C   UNL     1      -1.511 -13.078  -0.361  1.00  0.00     0.083 C 
BRANCH  15  16
ATOM     16  C   UNL     1      -0.677 -13.593  -1.274  1.00  0.00     0.027 C 
BRANCH  16  17
ATOM     17  C   UNL     1       0.165 -14.759  -0.966  1.00  0.00    -0.003 A 
ATOM     18  C   UNL     1       0.104 -15.951  -1.709  1.00  0.00    -0.041 A 
ATOM     19  C   UNL     1       1.048 -14.741   0.124  1.00  0.00     0.119 A 
ATOM     20  C   UNL     1       0.925 -17.024  -1.331  1.00  0.00     0.024 A 
ATOM     21  N   UNL     1       1.860 -15.760   0.492  1.00  0.00    -0.264 NA
ATOM     22  C   UNL     1       1.780 -16.879  -0.250  1.00  0.00     0.111 A 
ATOM     23  C   UNL     1      -0.836 -16.129  -2.869  1.00  0.00     0.045 C 
ENDBRANCH  16  17
ENDBRANCH  15  16
ENDBRANCH  13  15
ENDBRANCH   4  13
TORSDOF 8
ENDMDL
MODEL 6
REMARK VINA RESULT:    -4.958      1.668      8.514
REMARK INTER + INTRA:          -7.790
REMARK INTER:                  -7.181
REMARK INTRA:                  -0.609
REMARK UNBOUND:                -0.658
REMARK SMILES Cc1ccncc1/C=C/Nc1ccc(CCCN)cc1
REMARK SMILES IDX 14 1 13 2 12 3 11 4 20 5 19 6 15 7 16 8 17 9 18 10 10 13
REMARK SMILES IDX 9 15 8 16 7 17 2 18 6 19 3 20 5 21 4 22 1 23
REMARK H PARENT 18 11 18 12 10 14
ROOT
ATOM      1  C   UNL     1      -2.354  -9.100   0.171  1.00  0.00    -0.048 A 
ATOM      2  C   UNL     1      -2.919  -9.755   1.267  1.00  0.00     0.006 A 
ATOM      3  C   UNL     1      -3.586 -10.966   1.105  1.00  0.00     0.026 A 
ATOM      4  C   UNL     1      -3.782 -11.530  -0.158  1.00  0.00     0.038 A 
ATOM      5  C   UNL     1      -3.265 -10.846  -1.264  1.00  0.00     0.026 A 
ATOM      6  C   UNL     1      -2.559  -9.644  -1.103  1.00  0.00     0.006 A 
ENDROOT
BRANCH   1   7
ATOM      7  C   UNL     1      -1.543  -7.841   0.347  1.00  0.00     0.037 C 
BRANCH   7   8
ATOM      8  C   UNL     1      -1.618  -6.805  -0.792  1.00  0.00     0.020 C 
BRANCH   8   9
ATOM      9  C   UNL     1      -0.455  -5.805  -0.869  1.00  0.00     0.078 C 
BRANCH   9  10
ATOM     10  N   UNL     1      -0.567  -4.812  -1.928  1.00  0.00    -0.330 NA
ATOM     11  H   UNL     1       0.145  -4.093  -1.809  1.00  0.00     0.118 HD
ATOM     12  H   UNL     1      -1.461  -4.325  -1.860  1.00  0.00     0.118 HD
ENDBRANCH   9  10
ENDBRANCH   8   9
ENDBRANCH   7   8
ENDBRANCH   1   7
BRANCH   4  13
ATOM     13  N   UNL     1      -4.557 -12.691  -0.342  1.00  0.00    -0.362 N 
ATOM     14  H   UNL     1      -4.153 -13.421  -0.915  1.00  0.00     0.166 HD
BRANCH  13  15
ATOM     15  C   UNL     1      -5.886 -12.803  -0.030  1.00  0.00     0.083 C 
BRANCH  15  16
ATOM     16  C   UNL     1      -6.951 -12.764  -0.841  1.00  0.00     0.027 C 
BRANCH  16  17
ATOM     17  C   UNL     1      -7.666 -13.993  -1.220  1.00  0.00    -0.003 A 
ATOM     18  C   UNL     1      -8.334 -14.128  -2.450  1.00  0.00    -0.041 A 
ATOM     19  C   UNL     1      -7.742 -15.082  -0.338  1.00  0.00     0.119 A 
ATOM     20  C   UNL     1      -9.011 -15.327  -2.720  1.00  0.00     0.024 A 
ATOM     21  N   UNL     1      -8.375 -16.251  -0.591  1.00  0.00    -0.264 NA
ATOM     22  C   UNL     1      -8.994 -16.345  -1.781  1.00  0.00     0.111 A 
ATOM     23  C   UNL     1      -8.380 -13.022  -3.466  1.00  0.00     0.045 C 
ENDBRANCH  16  17
ENDBRANCH  15  16
ENDBRANCH  13  15
ENDBRANCH   4  13
TORSDOF 8
ENDMDL
MODEL 7
REMARK VINA RESULT:    -4.911      2.083      8.441
REMARK INTER + INTRA:          -7.721
REMARK INTER:                  -7.230
REMARK INTRA:                  -0.491
REMARK UNBOUND:                -0.658
REMARK SMILES Cc1ccncc1/C=C/Nc1ccc(CCCN)cc1
REMARK SMILES IDX 14 1 13 2 12 3 11 4 20 5 19 6 15 7 16 8 17 9 18 10 10 13
REMARK SMILES IDX 9 15 8 16 7 17 2 18 6 19 3 20 5 21 4 22 1 23
REMARK H PARENT 18 11 18 12 10 14
ROOT
ATOM      1  C   UNL     1      -2.238  -8.027   1.219  1.00  0.00    -0.048 A 
ATOM      2  C   UNL     1      -2.617  -8.996   2.151  1.00  0.00     0.006 A 
ATOM      3  C   UNL     1      -2.925 -10.291   1.745  1.00  0.00     0.026 A 
ATOM      4  C   UNL     1      -2.944 -10.649   0.394  1.00  0.00     0.038 A 
ATOM      5  C   UNL     1      -2.619  -9.664  -0.546  1.00  0.00     0.026 A 
ATOM      6  C   UNL     1      -2.270  -8.367  -0.139  1.00  0.00     0.006 A 
ENDROOT
BRANCH   1   7
ATOM      7  C   UNL     1      -1.804  -6.651   1.657  1.00  0.00     0.037 C 
BRANCH   7   8
ATOM      8  C   UNL     1      -2.895  -5.563   1.702  1.00  0.00     0.020 C 
BRANCH   8   9
ATOM      9  C   UNL     1      -4.069  -5.826   2.656  1.00  0.00     0.078 C 
BRANCH   9  10
ATOM     10  N   UNL     1      -3.818  -5.485   4.049  1.00  0.00    -0.330 NA
ATOM     11  H   UNL     1      -3.389  -4.562   4.110  1.00  0.00     0.118 HD
ATOM     12  H   UNL     1      -3.138  -6.130   4.452  1.00  0.00     0.118 HD
ENDBRANCH   9  10
ENDBRANCH   8   9
ENDBRANCH   7   8
ENDBRANCH   1   7
BRANCH   4  13
ATOM     13  N   UNL     1      -3.370 -11.922  -0.032  1.00  0.00    -0.362 N 
ATOM     14  H   UNL     1      -2.649 -12.566  -0.331  1.00  0.00     0.166 HD
BRANCH  13  15
ATOM     15  C   UNL     1      -4.668 -12.259  -0.314  1.00  0.00     0.083 C 
BRANCH  15  16
ATOM     16  C   UNL     1      -5.510 -13.035   0.381  1.00  0.00     0.027 C 
BRANCH  16  17
ATOM     17  C   UNL     1      -6.610 -13.751  -0.283  1.00  0.00    -0.003 A 
ATOM     18  C   UNL     1      -6.670 -15.155  -0.341  1.00  0.00    -0.041 A 
ATOM     19  C   UNL     1      -7.639 -13.049  -0.928  1.00  0.00     0.119 A 
ATOM     20  C   UNL     1      -7.743 -15.756  -1.016  1.00  0.00     0.024 A 
ATOM     21  N   UNL     1      -8.691 -13.613  -1.568  1.00  0.00    -0.264 NA
ATOM     22  C   UNL     1      -8.718 -14.957  -1.593  1.00  0.00     0.111 A 
ATOM     23  C   UNL     1      -5.607 -16.031   0.260  1.00  0.00     0.045 C 
ENDBRANCH  16  17
ENDBRANCH  15  16
ENDBRANCH  13  15
ENDBRANCH   4  13
TORSDOF 8
ENDMDL
MODEL 8
REMARK VINA RESULT:    -4.880      1.402      2.283
REMARK INTER + INTRA:          -7.678
REMARK INTER:                  -7.013
REMARK INTRA:                  -0.666
REMARK UNBOUND:                -0.658
REMARK SMILES Cc1ccncc1/C=C/Nc1ccc(CCCN)cc1
REMARK SMILES IDX 14 1 13 2 12 3 11 4 20 5 19 6 15 7 16 8 17 9 18 10 10 13
REMARK SMILES IDX 9 15 8 16 7 17 2 18 6 19 3 20 5 21 4 22 1 23
REMARK H PARENT 18 11 18 12 10 14
ROOT
ATOM      1  C   UNL     1      -7.337 -13.681  -0.773  1.00  0.00    -0.048 A 
ATOM      2  C   UNL     1      -6.306 -14.503  -0.313  1.00  0.00     0.006 A 
ATOM      3  C   UNL     1      -5.101 -13.956   0.118  1.00  0.00     0.026 A 
ATOM      4  C   UNL     1      -4.848 -12.584   0.033  1.00  0.00     0.038 A 
ATOM      5  C   UNL     1      -5.860 -11.766  -0.482  1.00  0.00     0.026 A 
ATOM      6  C   UNL     1      -7.091 -12.307  -0.881  1.00  0.00     0.006 A 
ENDROOT
BRANCH   1   7
ATOM      7  C   UNL     1      -8.682 -14.252  -1.147  1.00  0.00     0.037 C 
BRANCH   7   8
ATOM      8  C   UNL     1      -8.728 -15.155  -2.395  1.00  0.00     0.020 C 
BRANCH   8   9
ATOM      9  C   UNL     1      -8.623 -14.438  -3.749  1.00  0.00     0.078 C 
BRANCH   9  10
ATOM     10  N   UNL     1      -7.680 -15.030  -4.687  1.00  0.00    -0.330 NA
ATOM     11  H   UNL     1      -6.750 -14.640  -4.538  1.00  0.00     0.118 HD
ATOM     12  H   UNL     1      -7.931 -14.780  -5.643  1.00  0.00     0.118 HD
ENDBRANCH   9  10
ENDBRANCH   8   9
ENDBRANCH   7   8
ENDBRANCH   1   7
BRANCH   4  13
ATOM     13  N   UNL     1      -3.590 -12.039   0.355  1.00  0.00    -0.362 N 
ATOM     14  H   UNL     1      -2.810 -12.683   0.385  1.00  0.00     0.166 HD
BRANCH  13  15
ATOM     15  C   UNL     1      -3.389 -10.785   0.870  1.00  0.00     0.083 C 
BRANCH  15  16
ATOM     16  C   UNL     1      -2.655  -9.778   0.381  1.00  0.00     0.027 C 
BRANCH  16  17
ATOM     17  C   UNL     1      -2.800  -8.408   0.897  1.00  0.00    -0.003 A 
ATOM     18  C   UNL     1      -2.812  -7.282   0.055  1.00  0.00    -0.041 A 
ATOM     19  C   UNL     1      -2.896  -8.165   2.276  1.00  0.00     0.119 A 
ATOM     20  C   UNL     1      -2.931  -6.009   0.634  1.00  0.00     0.024 A 
ATOM     21  N   UNL     1      -3.029  -6.946   2.849  1.00  0.00    -0.264 NA
ATOM     22  C   UNL     1      -3.047  -5.895   2.011  1.00  0.00     0.111 A 
ATOM     23  C   UNL     1      -2.664  -7.391  -1.436  1.00  0.00     0.045 C 
ENDBRANCH  16  17
ENDBRANCH  15  16
ENDBRANCH  13  15
ENDBRANCH   4  13
TORSDOF 8
ENDMDL
MODEL 9
REMARK VINA RESULT:    -4.755      4.589      6.366
REMARK INTER + INTRA:          -7.498
REMARK INTER:                  -6.898
REMARK INTRA:                  -0.601
REMARK UNBOUND:                -0.658
REMARK SMILES Cc1ccncc1/C=C/Nc1ccc(CCCN)cc1
REMARK SMILES IDX 14 1 13 2 12 3 11 4 20 5 19 6 15 7 16 8 17 9 18 10 10 13
REMARK SMILES IDX 9 15 8 16 7 17 2 18 6 19 3 20 5 21 4 22 1 23
REMARK H PARENT 18 11 18 12 10 14
ROOT
ATOM      1  C   UNL     1       0.368 -14.656  -0.647  1.00  0.00    -0.048 A 
ATOM      2  C   UNL     1       0.882 -13.410  -0.284  1.00  0.00     0.006 A 
ATOM      3  C   UNL     1       0.074 -12.277  -0.295  1.00  0.00     0.026 A 
ATOM      4  C   UNL     1      -1.249 -12.326  -0.741  1.00  0.00     0.038 A 
ATOM      5  C   UNL     1      -1.750 -13.564  -1.161  1.00  0.00     0.026 A 
ATOM      6  C   UNL     1      -0.951 -14.717  -1.115  1.00  0.00     0.006 A 
ENDROOT
BRANCH   1   7
ATOM      7  C   UNL     1       1.204 -15.907  -0.543  1.00  0.00     0.037 C 
BRANCH   7   8
ATOM      8  C   UNL     1       1.756 -16.255   0.854  1.00  0.00     0.020 C 
BRANCH   8   9
ATOM      9  C   UNL     1       1.255 -17.572   1.466  1.00  0.00     0.078 C 
BRANCH   9  10
ATOM     10  N   UNL     1       0.458 -17.424   2.676  1.00  0.00    -0.330 NA
ATOM     11  H   UNL     1      -0.462 -17.840   2.540  1.00  0.00     0.118 HD
ATOM     12  H   UNL     1       0.287 -16.436   2.865  1.00  0.00     0.118 HD
ENDBRANCH   9  10
ENDBRANCH   8   9
ENDBRANCH   7   8
ENDBRANCH   1   7
BRANCH   4  13
ATOM     13  N   UNL     1      -2.035 -11.164  -0.869  1.00  0.00    -0.362 N 
ATOM     14  H   UNL     1      -1.911 -10.622  -1.714  1.00  0.00     0.166 HD
BRANCH  13  15
ATOM     15  C   UNL     1      -2.745 -10.585   0.149  1.00  0.00     0.083 C 
BRANCH  15  16
ATOM     16  C   UNL     1      -3.266  -9.353   0.222  1.00  0.00     0.027 C 
BRANCH  16  17
ATOM     17  C   UNL     1      -2.450  -8.162  -0.059  1.00  0.00    -0.003 A 
ATOM     18  C   UNL     1      -1.823  -7.421   0.958  1.00  0.00    -0.041 A 
ATOM     19  C   UNL     1      -2.294  -7.691  -1.371  1.00  0.00     0.119 A 
ATOM     20  C   UNL     1      -1.081  -6.284   0.603  1.00  0.00     0.024 A 
ATOM     21  N   UNL     1      -1.568  -6.606  -1.732  1.00  0.00    -0.264 NA
ATOM     22  C   UNL     1      -0.975  -5.930  -0.733  1.00  0.00     0.111 A 
ATOM     23  C   UNL     1      -1.950  -7.781   2.412  1.00  0.00     0.045 C 
ENDBRANCH  16  17
ENDBRANCH  15  16
ENDBRANCH  13  15
ENDBRANCH   4  13
TORSDOF 8
ENDMDL
