MODEL 1
REMARK VINA RESULT:    -5.176      0.000      0.000
REMARK INTER + INTRA:          -8.115
REMARK INTER:                  -7.446
REMARK INTRA:                  -0.669
REMARK UNBOUND:                -0.669
REMARK SMILES Cc1ccncc1/C=C/Nc1ccc(CCCN)cc1
REMARK SMILES IDX 14 1 13 2 12 3 11 4 20 5 19 6 15 7 16 8 17 9 18 10 10 13
REMARK SMILES IDX 9 15 8 16 7 17 2 18 6 19 3 20 5 21 4 22 1 23
REMARK H PARENT 18 11 18 12 10 14
ROOT
ATOM      1  C   UNL     1      -3.177   7.853 -11.860  1.00  0.00    -0.048 A 
ATOM      2  C   UNL     1      -2.613   9.100 -11.583  1.00  0.00     0.006 A 
ATOM      3  C   UNL     1      -1.822   9.288 -10.453  1.00  0.00     0.026 A 
ATOM      4  C   UNL     1      -1.628   8.268  -9.518  1.00  0.00     0.038 A 
ATOM      5  C   UNL     1      -2.240   7.033  -9.765  1.00  0.00     0.026 A 
ATOM      6  C   UNL     1      -3.006   6.827 -10.922  1.00  0.00     0.006 A 
ENDROOT
BRANCH   1   7
ATOM      7  C   UNL     1      -3.951   7.611 -13.131  1.00  0.00     0.037 C 
BRANCH   7   8
ATOM      8  C   UNL     1      -5.451   7.293 -12.978  1.00  0.00     0.020 C 
BRANCH   8   9
ATOM      9  C   UNL     1      -6.417   8.459 -13.235  1.00  0.00     0.078 C 
BRANCH   9  10
ATOM     10  N   UNL     1      -7.136   8.932 -12.061  1.00  0.00    -0.330 NA
ATOM     11  H   UNL     1      -8.127   8.710 -12.147  1.00  0.00     0.118 HD
ATOM     12  H   UNL     1      -7.087   9.949 -12.005  1.00  0.00     0.118 HD
ENDBRANCH   9  10
ENDBRANCH   8   9
ENDBRANCH   7   8
ENDBRANCH   1   7
BRANCH   4  13
ATOM     13  N   UNL     1      -0.929   8.484  -8.315  1.00  0.00    -0.362 N 
ATOM     14  H   UNL     1       0.076   8.582  -8.385  1.00  0.00     0.166 HD
BRANCH  13  15
ATOM     15  C   UNL     1      -1.458   8.317  -7.062  1.00  0.00     0.083 C 
BRANCH  15  16
ATOM     16  C   UNL     1      -0.829   8.076  -5.905  1.00  0.00     0.027 C 
BRANCH  16  17
ATOM     17  C   UNL     1      -1.266   6.991  -5.012  1.00  0.00    -0.003 A 
ATOM     18  C   UNL     1      -0.375   6.300  -4.173  1.00  0.00    -0.041 A 
ATOM     19  C   UNL     1      -2.605   6.573  -4.990  1.00  0.00     0.119 A 
ATOM     20  C   UNL     1      -0.873   5.262  -3.370  1.00  0.00     0.024 A 
ATOM     21  N   UNL     1      -3.105   5.586  -4.210  1.00  0.00    -0.264 NA
ATOM     22  C   UNL     1      -2.224   4.956  -3.414  1.00  0.00     0.111 A 
ATOM     23  C   UNL     1       1.096   6.607  -4.134  1.00  0.00     0.045 C 
ENDBRANCH  16  17
ENDBRANCH  15  16
ENDBRANCH  13  15
ENDBRANCH   4  13
TORSDOF 8
ENDMDL
MODEL 2
REMARK VINA RESULT:    -5.074      4.780      6.848
REMARK INTER + INTRA:          -7.967
REMARK INTER:                  -7.309
REMARK INTRA:                  -0.658
REMARK UNBOUND:                -0.669
REMARK SMILES Cc1ccncc1/C=C/Nc1ccc(CCCN)cc1
REMARK SMILES IDX 14 1 13 2 12 3 11 4 20 5 19 6 15 7 16 8 17 9 18 10 10 13
REMARK SMILES IDX 9 15 8 16 7 17 2 18 6 19 3 20 5 21 4 22 1 23
REMARK H PARENT 18 11 18 12 10 14
ROOT
ATOM      1  C   UNL     1      -3.310  13.849  -4.947  1.00  0.00    -0.048 A 
ATOM      2  C   UNL     1      -4.186  13.346  -5.911  1.00  0.00     0.006 A 
ATOM      3  C   UNL     1      -4.339  11.973  -6.083  1.00  0.00     0.026 A 
ATOM      4  C   UNL     1      -3.574  11.054  -5.360  1.00  0.00     0.038 A 
ATOM      5  C   UNL     1      -2.655  11.559  -4.433  1.00  0.00     0.026 A 
ATOM      6  C   UNL     1      -2.523  12.941  -4.228  1.00  0.00     0.006 A 
ENDROOT
BRANCH   1   7
ATOM      7  C   UNL     1      -3.210  15.331  -4.682  1.00  0.00     0.037 C 
BRANCH   7   8
ATOM      8  C   UNL     1      -1.864  16.003  -5.014  1.00  0.00     0.020 C 
BRANCH   8   9
ATOM      9  C   UNL     1      -1.729  16.574  -6.433  1.00  0.00     0.078 C 
BRANCH   9  10
ATOM     10  N   UNL     1      -0.798  15.862  -7.298  1.00  0.00    -0.330 NA
ATOM     11  H   UNL     1      -0.658  14.913  -6.953  1.00  0.00     0.118 HD
ATOM     12  H   UNL     1       0.121  16.303  -7.264  1.00  0.00     0.118 HD
ENDBRANCH   9  10
ENDBRANCH   8   9
ENDBRANCH   7   8
ENDBRANCH   1   7
BRANCH   4  13
ATOM     13  N   UNL     1      -3.638   9.670  -5.612  1.00  0.00    -0.362 N 
ATOM     14  H   UNL     1      -4.558   9.247  -5.593  1.00  0.00     0.166 HD
BRANCH  13  15
ATOM     15  C   UNL     1      -2.559   8.827  -5.624  1.00  0.00     0.083 C 
BRANCH  15  16
ATOM     16  C   UNL     1      -2.525   7.495  -5.480  1.00  0.00     0.027 C 
BRANCH  16  17
ATOM     17  C   UNL     1      -1.349   6.821  -4.911  1.00  0.00    -0.003 A 
ATOM     18  C   UNL     1      -1.448   5.634  -4.163  1.00  0.00    -0.041 A 
ATOM     19  C   UNL     1      -0.064   7.363  -5.064  1.00  0.00     0.119 A 
ATOM     20  C   UNL     1      -0.277   5.070  -3.636  1.00  0.00     0.024 A 
ATOM     21  N   UNL     1       1.078   6.823  -4.578  1.00  0.00    -0.264 NA
ATOM     22  C   UNL     1       0.942   5.684  -3.876  1.00  0.00     0.111 A 
ATOM     23  C   UNL     1      -2.766   4.972  -3.875  1.00  0.00     0.045 C 
ENDBRANCH  16  17
ENDBRANCH  15  16
ENDBRANCH  13  15
ENDBRANCH   4  13
TORSDOF 8
ENDMDL
MODEL 3
REMARK VINA RESULT:    -5.060      1.350      1.932
REMARK INTER + INTRA:          -7.947
REMARK INTER:                  -7.299
REMARK INTRA:                  -0.647
REMARK UNBOUND:                -0.669
REMARK SMILES Cc1ccncc1/C=C/Nc1ccc(CCCN)cc1
REMARK SMILES IDX 14 1 13 2 12 3 11 4 20 5 19 6 15 7 16 8 17 9 18 10 10 13
REMARK SMILES IDX 9 15 8 16 7 17 2 18 6 19 3 20 5 21 4 22 1 23
REMARK H PARENT 18 11 18 12 10 14
ROOT
ATOM      1  C   UNL     1      -3.207   8.046 -12.170  1.00  0.00    -0.048 A 
ATOM      2  C   UNL     1      -2.657   9.258 -11.747  1.00  0.00     0.006 A 
ATOM      3  C   UNL     1      -1.960   9.340 -10.545  1.00  0.00     0.026 A 
ATOM      4  C   UNL     1      -1.850   8.243  -9.686  1.00  0.00     0.038 A 
ATOM      5  C   UNL     1      -2.449   7.042 -10.083  1.00  0.00     0.026 A 
ATOM      6  C   UNL     1      -3.121   6.944 -11.311  1.00  0.00     0.006 A 
ENDROOT
BRANCH   1   7
ATOM      7  C   UNL     1      -3.877   7.921 -13.516  1.00  0.00     0.037 C 
BRANCH   7   8
ATOM      8  C   UNL     1      -5.155   7.062 -13.575  1.00  0.00     0.020 C 
BRANCH   8   9
ATOM      9  C   UNL     1      -6.485   7.828 -13.513  1.00  0.00     0.078 C 
BRANCH   9  10
ATOM     10  N   UNL     1      -6.842   8.334 -12.195  1.00  0.00    -0.330 NA
ATOM     11  H   UNL     1      -7.573   9.039 -12.279  1.00  0.00     0.118 HD
ATOM     12  H   UNL     1      -6.046   8.814 -11.775  1.00  0.00     0.118 HD
ENDBRANCH   9  10
ENDBRANCH   8   9
ENDBRANCH   7   8
ENDBRANCH   1   7
BRANCH   4  13
ATOM     13  N   UNL     1      -1.249   8.349  -8.417  1.00  0.00    -0.362 N 
ATOM     14  H   UNL     1      -0.297   8.016  -8.336  1.00  0.00     0.166 HD
BRANCH  13  15
ATOM     15  C   UNL     1      -1.921   8.619  -7.254  1.00  0.00     0.083 C 
BRANCH  15  16
ATOM     16  C   UNL     1      -2.024   7.875  -6.145  1.00  0.00     0.027 C 
BRANCH  16  17
ATOM     17  C   UNL     1      -0.829   7.427  -5.414  1.00  0.00    -0.003 A 
ATOM     18  C   UNL     1      -0.865   6.375  -4.482  1.00  0.00    -0.041 A 
ATOM     19  C   UNL     1       0.406   8.068  -5.592  1.00  0.00     0.119 A 
ATOM     20  C   UNL     1       0.317   6.028  -3.811  1.00  0.00     0.024 A 
ATOM     21  N   UNL     1       1.560   7.735  -4.967  1.00  0.00    -0.264 NA
ATOM     22  C   UNL     1       1.486   6.717  -4.091  1.00  0.00     0.111 A 
ATOM     23  C   UNL     1      -2.131   5.635  -4.152  1.00  0.00     0.045 C 
ENDBRANCH  16  17
ENDBRANCH  15  16
ENDBRANCH  13  15
ENDBRANCH   4  13
TORSDOF 8
ENDMDL
MODEL 4
REMARK VINA RESULT:    -4.974      4.567      8.428
REMARK INTER + INTRA:          -7.823
REMARK INTER:                  -7.282
REMARK INTRA:                  -0.542
REMARK UNBOUND:                -0.669
REMARK SMILES Cc1ccncc1/C=C/Nc1ccc(CCCN)cc1
REMARK SMILES IDX 14 1 13 2 12 3 11 4 20 5 19 6 15 7 16 8 17 9 18 10 10 13
REMARK SMILES IDX 9 15 8 16 7 17 2 18 6 19 3 20 5 21 4 22 1 23
REMARK H PARENT 18 11 18 12 10 14
ROOT
ATOM      1  C   UNL     1      -0.668   6.248  -4.960  1.00  0.00    -0.048 A 
ATOM      2  C   UNL     1      -2.057   6.343  -4.846  1.00  0.00     0.006 A 
ATOM      3  C   UNL     1      -2.731   7.472  -5.303  1.00  0.00     0.026 A 
ATOM      4  C   UNL     1      -2.046   8.576  -5.816  1.00  0.00     0.038 A 
ATOM      5  C   UNL     1      -0.650   8.505  -5.878  1.00  0.00     0.026 A 
ATOM      6  C   UNL     1       0.033   7.354  -5.455  1.00  0.00     0.006 A 
ENDROOT
BRANCH   1   7
ATOM      7  C   UNL     1       0.063   4.990  -4.562  1.00  0.00     0.037 C 
BRANCH   7   8
ATOM      8  C   UNL     1       1.520   5.158  -4.089  1.00  0.00     0.020 C 
BRANCH   8   9
ATOM      9  C   UNL     1       2.475   4.004  -4.428  1.00  0.00     0.078 C 
BRANCH   9  10
ATOM     10  N   UNL     1       2.102   2.712  -3.869  1.00  0.00    -0.330 NA
ATOM     11  H   UNL     1       1.089   2.607  -3.879  1.00  0.00     0.118 HD
ATOM     12  H   UNL     1       2.372   2.663  -2.886  1.00  0.00     0.118 HD
ENDBRANCH   9  10
ENDBRANCH   8   9
ENDBRANCH   7   8
ENDBRANCH   1   7
BRANCH   4  13
ATOM     13  N   UNL     1      -2.711   9.766  -6.169  1.00  0.00    -0.362 N 
ATOM     14  H   UNL     1      -2.446  10.191  -7.048  1.00  0.00     0.166 HD
BRANCH  13  15
ATOM     15  C   UNL     1      -3.481  10.514  -5.318  1.00  0.00     0.083 C 
BRANCH  15  16
ATOM     16  C   UNL     1      -3.394  11.818  -5.025  1.00  0.00     0.027 C 
BRANCH  16  17
ATOM     17  C   UNL     1      -3.983  12.838  -5.906  1.00  0.00    -0.003 A 
ATOM     18  C   UNL     1      -3.955  14.209  -5.596  1.00  0.00    -0.041 A 
ATOM     19  C   UNL     1      -4.639  12.473  -7.091  1.00  0.00     0.119 A 
ATOM     20  C   UNL     1      -4.562  15.113  -6.482  1.00  0.00     0.024 A 
ATOM     21  N   UNL     1      -5.214  13.332  -7.965  1.00  0.00    -0.264 NA
ATOM     22  C   UNL     1      -5.158  14.636  -7.638  1.00  0.00     0.111 A 
ATOM     23  C   UNL     1      -3.334  14.737  -4.333  1.00  0.00     0.045 C 
ENDBRANCH  16  17
ENDBRANCH  15  16
ENDBRANCH  13  15
ENDBRANCH   4  13
TORSDOF 8
ENDMDL
MODEL 5
REMARK VINA RESULT:    -4.946      1.693      8.448
REMARK INTER + INTRA:          -7.784
REMARK INTER:                  -7.177
REMARK INTRA:                  -0.607
REMARK UNBOUND:                -0.669
REMARK SMILES Cc1ccncc1/C=C/Nc1ccc(CCCN)cc1
REMARK SMILES IDX 14 1 13 2 12 3 11 4 20 5 19 6 15 7 16 8 17 9 18 10 10 13
REMARK SMILES IDX 9 15 8 16 7 17 2 18 6 19 3 20 5 21 4 22 1 23
REMARK H PARENT 18 11 18 12 10 14
ROOT
ATOM      1  C   UNL     1      -1.351   6.990  -4.553  1.00  0.00    -0.048 A 
ATOM      2  C   UNL     1      -0.329   7.553  -5.321  1.00  0.00     0.006 A 
ATOM      3  C   UNL     1      -0.608   8.152  -6.546  1.00  0.00     0.026 A 
ATOM      4  C   UNL     1      -1.896   8.145  -7.088  1.00  0.00     0.038 A 
ATOM      5  C   UNL     1      -2.911   7.531  -6.345  1.00  0.00     0.026 A 
ATOM      6  C   UNL     1      -2.643   6.959  -5.092  1.00  0.00     0.006 A 
ENDROOT
BRANCH   1   7
ATOM      7  C   UNL     1      -1.077   6.429  -3.181  1.00  0.00     0.037 C 
BRANCH   7   8
ATOM      8  C   UNL     1      -2.000   5.291  -2.702  1.00  0.00     0.020 C 
BRANCH   8   9
ATOM      9  C   UNL     1      -1.931   4.953  -1.205  1.00  0.00     0.078 C 
BRANCH   9  10
ATOM     10  N   UNL     1      -2.799   3.864  -0.780  1.00  0.00    -0.330 NA
ATOM     11  H   UNL     1      -3.561   3.745  -1.446  1.00  0.00     0.118 HD
ATOM     12  H   UNL     1      -3.245   4.096   0.108  1.00  0.00     0.118 HD
ENDBRANCH   9  10
ENDBRANCH   8   9
ENDBRANCH   7   8
ENDBRANCH   1   7
BRANCH   4  13
ATOM     13  N   UNL     1      -2.163   8.642  -8.377  1.00  0.00    -0.362 N 
ATOM     14  H   UNL     1      -2.821   9.409  -8.441  1.00  0.00     0.166 HD
BRANCH  13  15
ATOM     15  C   UNL     1      -1.813   8.017  -9.545  1.00  0.00     0.083 C 
BRANCH  15  16
ATOM     16  C   UNL     1      -2.583   7.333 -10.402  1.00  0.00     0.027 C 
BRANCH  16  17
ATOM     17  C   UNL     1      -3.103   7.960 -11.627  1.00  0.00    -0.003 A 
ATOM     18  C   UNL     1      -4.229   7.465 -12.308  1.00  0.00    -0.041 A 
ATOM     19  C   UNL     1      -2.462   9.073 -12.193  1.00  0.00     0.119 A 
ATOM     20  C   UNL     1      -4.643   8.110 -13.483  1.00  0.00     0.024 A 
ATOM     21  N   UNL     1      -2.859   9.717 -13.315  1.00  0.00    -0.264 NA
ATOM     22  C   UNL     1      -3.945   9.220 -13.933  1.00  0.00     0.111 A 
ATOM     23  C   UNL     1      -4.979   6.249 -11.844  1.00  0.00     0.045 C 
ENDBRANCH  16  17
ENDBRANCH  15  16
ENDBRANCH  13  15
ENDBRANCH   4  13
TORSDOF 8
ENDMDL
MODEL 6
REMARK VINA RESULT:    -4.860      4.437      6.528
REMARK INTER + INTRA:          -7.660
REMARK INTER:                  -6.991
REMARK INTRA:                  -0.669
REMARK UNBOUND:                -0.669
REMARK SMILES Cc1ccncc1/C=C/Nc1ccc(CCCN)cc1
REMARK SMILES IDX 14 1 13 2 12 3 11 4 20 5 19 6 15 7 16 8 17 9 18 10 10 13
REMARK SMILES IDX 9 15 8 16 7 17 2 18 6 19 3 20 5 21 4 22 1 23
REMARK H PARENT 18 11 18 12 10 14
ROOT
ATOM      1  C   UNL     1      -3.343  13.470  -5.052  1.00  0.00    -0.048 A 
ATOM      2  C   UNL     1      -4.103  12.827  -6.032  1.00  0.00     0.006 A 
ATOM      3  C   UNL     1      -4.165  11.437  -6.084  1.00  0.00     0.026 A 
ATOM      4  C   UNL     1      -3.416  10.638  -5.218  1.00  0.00     0.038 A 
ATOM      5  C   UNL     1      -2.609  11.281  -4.271  1.00  0.00     0.026 A 
ATOM      6  C   UNL     1      -2.573  12.682  -4.189  1.00  0.00     0.006 A 
ENDROOT
BRANCH   1   7
ATOM      7  C   UNL     1      -3.349  14.972  -4.922  1.00  0.00     0.037 C 
BRANCH   7   8
ATOM      8  C   UNL     1      -1.974  15.666  -4.861  1.00  0.00     0.020 C 
BRANCH   8   9
ATOM      9  C   UNL     1      -1.625  16.575  -6.049  1.00  0.00     0.078 C 
BRANCH   9  10
ATOM     10  N   UNL     1      -0.920  15.918  -7.140  1.00  0.00    -0.330 NA
ATOM     11  H   UNL     1       0.082  16.087  -7.060  1.00  0.00     0.118 HD
ATOM     12  H   UNL     1      -1.196  16.326  -8.033  1.00  0.00     0.118 HD
ENDBRANCH   9  10
ENDBRANCH   8   9
ENDBRANCH   7   8
ENDBRANCH   1   7
BRANCH   4  13
ATOM     13  N   UNL     1      -3.380   9.236  -5.341  1.00  0.00    -0.362 N 
ATOM     14  H   UNL     1      -3.929   8.707  -4.675  1.00  0.00     0.166 HD
BRANCH  13  15
ATOM     15  C   UNL     1      -2.482   8.540  -6.106  1.00  0.00     0.083 C 
BRANCH  15  16
ATOM     16  C   UNL     1      -1.358   7.914  -5.731  1.00  0.00     0.027 C 
BRANCH  16  17
ATOM     17  C   UNL     1      -1.383   6.841  -4.725  1.00  0.00    -0.003 A 
ATOM     18  C   UNL     1      -0.232   6.437  -4.026  1.00  0.00    -0.041 A 
ATOM     19  C   UNL     1      -2.568   6.143  -4.447  1.00  0.00     0.119 A 
ATOM     20  C   UNL     1      -0.340   5.388  -3.100  1.00  0.00     0.024 A 
ATOM     21  N   UNL     1      -2.693   5.142  -3.545  1.00  0.00    -0.264 NA
ATOM     22  C   UNL     1      -1.573   4.790  -2.889  1.00  0.00     0.111 A 
ATOM     23  C   UNL     1       1.114   7.061  -4.263  1.00  0.00     0.045 C 
ENDBRANCH  16  17
ENDBRANCH  15  16
ENDBRANCH  13  15
ENDBRANCH   4  13
TORSDOF 8
ENDMDL
MODEL 7
REMARK VINA RESULT:    -4.847      4.534      8.452
REMARK INTER + INTRA:          -7.641
REMARK INTER:                  -7.004
REMARK INTRA:                  -0.637
REMARK UNBOUND:                -0.669
REMARK SMILES Cc1ccncc1/C=C/Nc1ccc(CCCN)cc1
REMARK SMILES IDX 14 1 13 2 12 3 11 4 20 5 19 6 15 7 16 8 17 9 18 10 10 13
REMARK SMILES IDX 9 15 8 16 7 17 2 18 6 19 3 20 5 21 4 22 1 23
REMARK H PARENT 18 11 18 12 10 14
ROOT
ATOM      1  C   UNL     1      -1.692   5.675  -4.394  1.00  0.00    -0.048 A 
ATOM      2  C   UNL     1      -3.009   6.048  -4.671  1.00  0.00     0.006 A 
ATOM      3  C   UNL     1      -3.282   7.212  -5.383  1.00  0.00     0.026 A 
ATOM      4  C   UNL     1      -2.265   8.086  -5.777  1.00  0.00     0.038 A 
ATOM      5  C   UNL     1      -0.948   7.741  -5.450  1.00  0.00     0.026 A 
ATOM      6  C   UNL     1      -0.664   6.549  -4.766  1.00  0.00     0.006 A 
ENDROOT
BRANCH   1   7
ATOM      7  C   UNL     1      -1.378   4.366  -3.713  1.00  0.00     0.037 C 
BRANCH   7   8
ATOM      8  C   UNL     1      -0.830   4.449  -2.275  1.00  0.00     0.020 C 
BRANCH   8   9
ATOM      9  C   UNL     1      -1.831   4.889  -1.197  1.00  0.00     0.078 C 
BRANCH   9  10
ATOM     10  N   UNL     1      -2.763   3.857  -0.764  1.00  0.00    -0.330 NA
ATOM     11  H   UNL     1      -2.846   3.866   0.251  1.00  0.00     0.118 HD
ATOM     12  H   UNL     1      -2.399   2.933  -1.000  1.00  0.00     0.118 HD
ENDBRANCH   9  10
ENDBRANCH   8   9
ENDBRANCH   7   8
ENDBRANCH   1   7
BRANCH   4  13
ATOM     13  N   UNL     1      -2.542   9.322  -6.392  1.00  0.00    -0.362 N 
ATOM     14  H   UNL     1      -2.402   9.373  -7.393  1.00  0.00     0.166 HD
BRANCH  13  15
ATOM     15  C   UNL     1      -2.732  10.503  -5.724  1.00  0.00     0.083 C 
BRANCH  15  16
ATOM     16  C   UNL     1      -3.851  11.227  -5.588  1.00  0.00     0.027 C 
BRANCH  16  17
ATOM     17  C   UNL     1      -3.804  12.696  -5.527  1.00  0.00    -0.003 A 
ATOM     18  C   UNL     1      -4.392  13.511  -6.511  1.00  0.00    -0.041 A 
ATOM     19  C   UNL     1      -3.128  13.352  -4.487  1.00  0.00     0.119 A 
ATOM     20  C   UNL     1      -4.280  14.904  -6.387  1.00  0.00     0.024 A 
ATOM     21  N   UNL     1      -3.026  14.694  -4.343  1.00  0.00    -0.264 NA
ATOM     22  C   UNL     1      -3.609  15.439  -5.298  1.00  0.00     0.111 A 
ATOM     23  C   UNL     1      -5.101  12.943  -7.708  1.00  0.00     0.045 C 
ENDBRANCH  16  17
ENDBRANCH  15  16
ENDBRANCH  13  15
ENDBRANCH   4  13
TORSDOF 8
ENDMDL
MODEL 8
REMARK VINA RESULT:    -4.780      2.160      8.413
REMARK INTER + INTRA:          -7.545
REMARK INTER:                  -6.945
REMARK INTRA:                  -0.601
REMARK UNBOUND:                -0.669
REMARK SMILES Cc1ccncc1/C=C/Nc1ccc(CCCN)cc1
REMARK SMILES IDX 14 1 13 2 12 3 11 4 20 5 19 6 15 7 16 8 17 9 18 10 10 13
REMARK SMILES IDX 9 15 8 16 7 17 2 18 6 19 3 20 5 21 4 22 1 23
REMARK H PARENT 18 11 18 12 10 14
ROOT
ATOM      1  C   UNL     1      -0.203   6.149  -3.829  1.00  0.00    -0.048 A 
ATOM      2  C   UNL     1       0.554   7.072  -4.552  1.00  0.00     0.006 A 
ATOM      3  C   UNL     1      -0.049   7.908  -5.488  1.00  0.00     0.026 A 
ATOM      4  C   UNL     1      -1.407   7.804  -5.794  1.00  0.00     0.038 A 
ATOM      5  C   UNL     1      -2.157   6.839  -5.111  1.00  0.00     0.026 A 
ATOM      6  C   UNL     1      -1.562   6.020  -4.139  1.00  0.00     0.006 A 
ENDROOT
BRANCH   1   7
ATOM      7  C   UNL     1       0.420   5.309  -2.742  1.00  0.00     0.037 C 
BRANCH   7   8
ATOM      8  C   UNL     1       0.743   3.845  -3.099  1.00  0.00     0.020 C 
BRANCH   8   9
ATOM      9  C   UNL     1       1.866   3.633  -4.125  1.00  0.00     0.078 C 
BRANCH   9  10
ATOM     10  N   UNL     1       3.174   4.126  -3.716  1.00  0.00    -0.330 NA
ATOM     11  H   UNL     1       3.821   3.346  -3.607  1.00  0.00     0.118 HD
ATOM     12  H   UNL     1       3.113   4.562  -2.796  1.00  0.00     0.118 HD
ENDBRANCH   9  10
ENDBRANCH   8   9
ENDBRANCH   7   8
ENDBRANCH   1   7
BRANCH   4  13
ATOM     13  N   UNL     1      -1.999   8.563  -6.823  1.00  0.00    -0.362 N 
ATOM     14  H   UNL     1      -2.536   9.373  -6.538  1.00  0.00     0.166 HD
BRANCH  13  15
ATOM     15  C   UNL     1      -2.120   8.156  -8.125  1.00  0.00     0.083 C 
BRANCH  15  16
ATOM     16  C   UNL     1      -1.664   8.742  -9.240  1.00  0.00     0.027 C 
BRANCH  16  17
ATOM     17  C   UNL     1      -2.297   8.495 -10.544  1.00  0.00    -0.003 A 
ATOM     18  C   UNL     1      -2.612   9.534 -11.438  1.00  0.00    -0.041 A 
ATOM     19  C   UNL     1      -2.651   7.196 -10.938  1.00  0.00     0.119 A 
ATOM     20  C   UNL     1      -3.238   9.212 -12.652  1.00  0.00     0.024 A 
ATOM     21  N   UNL     1      -3.238   6.866 -12.112  1.00  0.00    -0.264 NA
ATOM     22  C   UNL     1      -3.515   7.886 -12.944  1.00  0.00     0.111 A 
ATOM     23  C   UNL     1      -2.338  10.977 -11.122  1.00  0.00     0.045 C 
ENDBRANCH  16  17
ENDBRANCH  15  16
ENDBRANCH  13  15
ENDBRANCH   4  13
TORSDOF 8
ENDMDL
MODEL 9
REMARK VINA RESULT:    -4.677      4.658      8.501
REMARK INTER + INTRA:          -7.396
REMARK INTER:                  -6.878
REMARK INTRA:                  -0.518
REMARK UNBOUND:                -0.669
REMARK SMILES Cc1ccncc1/C=C/Nc1ccc(CCCN)cc1
REMARK SMILES IDX 14 1 13 2 12 3 11 4 20 5 19 6 15 7 16 8 17 9 18 10 10 13
REMARK SMILES IDX 9 15 8 16 7 17 2 18 6 19 3 20 5 21 4 22 1 23
REMARK H PARENT 18 11 18 12 10 14
ROOT
ATOM      1  C   UNL     1      -0.813   6.317  -4.973  1.00  0.00    -0.048 A 
ATOM      2  C   UNL     1      -0.074   7.382  -5.493  1.00  0.00     0.006 A 
ATOM      3  C   UNL     1      -0.708   8.550  -5.908  1.00  0.00     0.026 A 
ATOM      4  C   UNL     1      -2.099   8.672  -5.895  1.00  0.00     0.038 A 
ATOM      5  C   UNL     1      -2.845   7.583  -5.428  1.00  0.00     0.026 A 
ATOM      6  C   UNL     1      -2.209   6.418  -4.972  1.00  0.00     0.006 A 
ENDROOT
BRANCH   1   7
ATOM      7  C   UNL     1      -0.131   5.088  -4.427  1.00  0.00     0.037 C 
BRANCH   7   8
ATOM      8  C   UNL     1       1.339   5.247  -3.992  1.00  0.00     0.020 C 
BRANCH   8   9
ATOM      9  C   UNL     1       2.309   4.166  -4.489  1.00  0.00     0.078 C 
BRANCH   9  10
ATOM     10  N   UNL     1       2.123   2.851  -3.891  1.00  0.00    -0.330 NA
ATOM     11  H   UNL     1       3.024   2.466  -3.608  1.00  0.00     0.118 HD
ATOM     12  H   UNL     1       1.754   2.199  -4.584  1.00  0.00     0.118 HD
ENDBRANCH   9  10
ENDBRANCH   8   9
ENDBRANCH   7   8
ENDBRANCH   1   7
BRANCH   4  13
ATOM     13  N   UNL     1      -2.752   9.802  -6.424  1.00  0.00    -0.362 N 
ATOM     14  H   UNL     1      -2.719   9.917  -7.429  1.00  0.00     0.166 HD
BRANCH  13  15
ATOM     15  C   UNL     1      -3.193  10.868  -5.685  1.00  0.00     0.083 C 
BRANCH  15  16
ATOM     16  C   UNL     1      -4.127  11.779  -5.989  1.00  0.00     0.027 C 
BRANCH  16  17
ATOM     17  C   UNL     1      -3.943  13.200  -5.655  1.00  0.00    -0.003 A 
ATOM     18  C   UNL     1      -4.408  14.236  -6.484  1.00  0.00    -0.041 A 
ATOM     19  C   UNL     1      -3.251  13.583  -4.497  1.00  0.00     0.119 A 
ATOM     20  C   UNL     1      -4.169  15.564  -6.102  1.00  0.00     0.024 A 
ATOM     21  N   UNL     1      -3.026  14.859  -4.104  1.00  0.00    -0.264 NA
ATOM     22  C   UNL     1      -3.495  15.821  -4.918  1.00  0.00     0.111 A 
ATOM     23  C   UNL     1      -5.119  13.970  -7.782  1.00  0.00     0.045 C 
ENDBRANCH  16  17
ENDBRANCH  15  16
ENDBRANCH  13  15
ENDBRANCH   4  13
TORSDOF 8
ENDMDL
