MODEL 1
REMARK VINA RESULT:    -4.991      0.000      0.000
REMARK INTER + INTRA:          -7.948
REMARK INTER:                  -7.179
REMARK INTRA:                  -0.768
REMARK UNBOUND:                -0.768
REMARK SMILES Cc1ccncc1/C=C/Nc1ccc(CCCN)cc1
REMARK SMILES IDX 14 1 13 2 12 3 11 4 20 5 19 6 15 7 16 8 17 9 18 10 10 13
REMARK SMILES IDX 9 15 8 16 7 17 2 18 6 19 3 20 5 21 4 22 1 23
REMARK H PARENT 18 11 18 12 10 14
ROOT
ATOM      1  C   UNL     1     -14.776   5.825   6.306  1.00  0.00    -0.048 A 
ATOM      2  C   UNL     1     -15.309   4.603   5.889  1.00  0.00     0.006 A 
ATOM      3  C   UNL     1     -14.536   3.700   5.165  1.00  0.00     0.026 A 
ATOM      4  C   UNL     1     -13.234   4.009   4.763  1.00  0.00     0.038 A 
ATOM      5  C   UNL     1     -12.718   5.257   5.131  1.00  0.00     0.026 A 
ATOM      6  C   UNL     1     -13.479   6.156   5.894  1.00  0.00     0.006 A 
ENDROOT
BRANCH   1   7
ATOM      7  C   UNL     1     -15.569   6.767   7.176  1.00  0.00     0.037 C 
BRANCH   7   8
ATOM      8  C   UNL     1     -15.397   8.273   6.902  1.00  0.00     0.020 C 
BRANCH   8   9
ATOM      9  C   UNL     1     -16.516   8.943   6.090  1.00  0.00     0.078 C 
BRANCH   9  10
ATOM     10  N   UNL     1     -16.518   8.627   4.669  1.00  0.00    -0.330 NA
ATOM     11  H   UNL     1     -15.843   9.214   4.180  1.00  0.00     0.118 HD
ATOM     12  H   UNL     1     -17.424   8.854   4.260  1.00  0.00     0.118 HD
ENDBRANCH   9  10
ENDBRANCH   8   9
ENDBRANCH   7   8
ENDBRANCH   1   7
BRANCH   4  13
ATOM     13  N   UNL     1     -12.490   3.152   3.930  1.00  0.00    -0.362 N 
ATOM     14  H   UNL     1     -11.767   2.601   4.376  1.00  0.00     0.166 HD
BRANCH  13  15
ATOM     15  C   UNL     1     -12.489   3.197   2.561  1.00  0.00     0.083 C 
BRANCH  15  16
ATOM     16  C   UNL     1     -11.599   2.688   1.698  1.00  0.00     0.027 C 
BRANCH  16  17
ATOM     17  C   UNL     1     -10.496   3.506   1.171  1.00  0.00    -0.003 A 
ATOM     18  C   UNL     1      -9.159   3.073   1.195  1.00  0.00    -0.041 A 
ATOM     19  C   UNL     1     -10.735   4.786   0.650  1.00  0.00     0.119 A 
ATOM     20  C   UNL     1      -8.165   3.927   0.692  1.00  0.00     0.024 A 
ATOM     21  N   UNL     1      -9.792   5.615   0.145  1.00  0.00    -0.264 NA
ATOM     22  C   UNL     1      -8.526   5.162   0.176  1.00  0.00     0.111 A 
ATOM     23  C   UNL     1      -8.752   1.747   1.773  1.00  0.00     0.045 C 
ENDBRANCH  16  17
ENDBRANCH  15  16
ENDBRANCH  13  15
ENDBRANCH   4  13
TORSDOF 8
ENDMDL
MODEL 2
REMARK VINA RESULT:    -4.862      1.321      2.011
REMARK INTER + INTRA:          -7.763
REMARK INTER:                  -7.133
REMARK INTRA:                  -0.629
REMARK UNBOUND:                -0.768
REMARK SMILES Cc1ccncc1/C=C/Nc1ccc(CCCN)cc1
REMARK SMILES IDX 14 1 13 2 12 3 11 4 20 5 19 6 15 7 16 8 17 9 18 10 10 13
REMARK SMILES IDX 9 15 8 16 7 17 2 18 6 19 3 20 5 21 4 22 1 23
REMARK H PARENT 18 11 18 12 10 14
ROOT
ATOM      1  C   UNL     1     -14.776   5.765   6.268  1.00  0.00    -0.048 A 
ATOM      2  C   UNL     1     -15.314   4.559   5.814  1.00  0.00     0.006 A 
ATOM      3  C   UNL     1     -14.538   3.665   5.082  1.00  0.00     0.026 A 
ATOM      4  C   UNL     1     -13.227   3.970   4.708  1.00  0.00     0.038 A 
ATOM      5  C   UNL     1     -12.704   5.203   5.114  1.00  0.00     0.026 A 
ATOM      6  C   UNL     1     -13.469   6.092   5.886  1.00  0.00     0.006 A 
ENDROOT
BRANCH   1   7
ATOM      7  C   UNL     1     -15.574   6.694   7.148  1.00  0.00     0.037 C 
BRANCH   7   8
ATOM      8  C   UNL     1     -15.421   8.204   6.877  1.00  0.00     0.020 C 
BRANCH   8   9
ATOM      9  C   UNL     1     -16.554   8.862   6.075  1.00  0.00     0.078 C 
BRANCH   9  10
ATOM     10  N   UNL     1     -16.514   8.620   4.640  1.00  0.00    -0.330 NA
ATOM     11  H   UNL     1     -15.547   8.594   4.318  1.00  0.00     0.118 HD
ATOM     12  H   UNL     1     -16.948   9.396   4.140  1.00  0.00     0.118 HD
ENDBRANCH   9  10
ENDBRANCH   8   9
ENDBRANCH   7   8
ENDBRANCH   1   7
BRANCH   4  13
ATOM     13  N   UNL     1     -12.477   3.125   3.868  1.00  0.00    -0.362 N 
ATOM     14  H   UNL     1     -11.817   2.504   4.320  1.00  0.00     0.166 HD
BRANCH  13  15
ATOM     15  C   UNL     1     -12.384   3.256   2.507  1.00  0.00     0.083 C 
BRANCH  15  16
ATOM     16  C   UNL     1     -11.313   3.545   1.757  1.00  0.00     0.027 C 
BRANCH  16  17
ATOM     17  C   UNL     1     -10.118   2.688   1.774  1.00  0.00    -0.003 A 
ATOM     18  C   UNL     1      -8.895   3.088   1.206  1.00  0.00    -0.041 A 
ATOM     19  C   UNL     1     -10.162   1.403   2.334  1.00  0.00     0.119 A 
ATOM     20  C   UNL     1      -7.811   2.199   1.245  1.00  0.00     0.024 A 
ATOM     21  N   UNL     1      -9.121   0.539   2.396  1.00  0.00    -0.264 NA
ATOM     22  C   UNL     1      -7.966   0.962   1.850  1.00  0.00     0.111 A 
ATOM     23  C   UNL     1      -8.721   4.417   0.525  1.00  0.00     0.045 C 
ENDBRANCH  16  17
ENDBRANCH  15  16
ENDBRANCH  13  15
ENDBRANCH   4  13
TORSDOF 8
ENDMDL
MODEL 3
REMARK VINA RESULT:    -4.825      1.802      8.325
REMARK INTER + INTRA:          -7.709
REMARK INTER:                  -7.107
REMARK INTRA:                  -0.602
REMARK UNBOUND:                -0.768
REMARK SMILES Cc1ccncc1/C=C/Nc1ccc(CCCN)cc1
REMARK SMILES IDX 14 1 13 2 12 3 11 4 20 5 19 6 15 7 16 8 17 9 18 10 10 13
REMARK SMILES IDX 9 15 8 16 7 17 2 18 6 19 3 20 5 21 4 22 1 23
REMARK H PARENT 18 11 18 12 10 14
ROOT
ATOM      1  C   UNL     1      -9.870   2.972   1.005  1.00  0.00    -0.048 A 
ATOM      2  C   UNL     1     -10.231   2.087   2.022  1.00  0.00     0.006 A 
ATOM      3  C   UNL     1     -11.385   2.297   2.771  1.00  0.00     0.026 A 
ATOM      4  C   UNL     1     -12.178   3.433   2.590  1.00  0.00     0.038 A 
ATOM      5  C   UNL     1     -11.787   4.351   1.609  1.00  0.00     0.026 A 
ATOM      6  C   UNL     1     -10.645   4.125   0.825  1.00  0.00     0.006 A 
ENDROOT
BRANCH   1   7
ATOM      7  C   UNL     1      -8.679   2.702   0.121  1.00  0.00     0.037 C 
BRANCH   7   8
ATOM      8  C   UNL     1      -7.896   3.931  -0.381  1.00  0.00     0.020 C 
BRANCH   8   9
ATOM      9  C   UNL     1      -6.741   3.644  -1.352  1.00  0.00     0.078 C 
BRANCH   9  10
ATOM     10  N   UNL     1      -6.342   4.770  -2.184  1.00  0.00    -0.330 NA
ATOM     11  H   UNL     1      -7.083   5.470  -2.201  1.00  0.00     0.118 HD
ATOM     12  H   UNL     1      -6.228   4.469  -3.152  1.00  0.00     0.118 HD
ENDBRANCH   9  10
ENDBRANCH   8   9
ENDBRANCH   7   8
ENDBRANCH   1   7
BRANCH   4  13
ATOM     13  N   UNL     1     -13.279   3.712   3.423  1.00  0.00    -0.362 N 
ATOM     14  H   UNL     1     -14.178   3.813   2.969  1.00  0.00     0.166 HD
BRANCH  13  15
ATOM     15  C   UNL     1     -13.190   4.106   4.732  1.00  0.00     0.083 C 
BRANCH  15  16
ATOM     16  C   UNL     1     -13.235   5.342   5.248  1.00  0.00     0.027 C 
BRANCH  16  17
ATOM     17  C   UNL     1     -14.366   5.778   6.081  1.00  0.00    -0.003 A 
ATOM     18  C   UNL     1     -14.713   7.132   6.232  1.00  0.00    -0.041 A 
ATOM     19  C   UNL     1     -15.132   4.847   6.799  1.00  0.00     0.119 A 
ATOM     20  C   UNL     1     -15.793   7.462   7.066  1.00  0.00     0.024 A 
ATOM     21  N   UNL     1     -16.187   5.147   7.593  1.00  0.00    -0.264 NA
ATOM     22  C   UNL     1     -16.494   6.451   7.704  1.00  0.00     0.111 A 
ATOM     23  C   UNL     1     -13.946   8.239   5.565  1.00  0.00     0.045 C 
ENDBRANCH  16  17
ENDBRANCH  15  16
ENDBRANCH  13  15
ENDBRANCH   4  13
TORSDOF 8
ENDMDL
MODEL 4
REMARK VINA RESULT:    -4.776      2.216      8.311
REMARK INTER + INTRA:          -7.639
REMARK INTER:                  -7.056
REMARK INTRA:                  -0.583
REMARK UNBOUND:                -0.768
REMARK SMILES Cc1ccncc1/C=C/Nc1ccc(CCCN)cc1
REMARK SMILES IDX 14 1 13 2 12 3 11 4 20 5 19 6 15 7 16 8 17 9 18 10 10 13
REMARK SMILES IDX 9 15 8 16 7 17 2 18 6 19 3 20 5 21 4 22 1 23
REMARK H PARENT 18 11 18 12 10 14
ROOT
ATOM      1  C   UNL     1      -8.756   2.235   1.202  1.00  0.00    -0.048 A 
ATOM      2  C   UNL     1      -9.505   1.430   2.063  1.00  0.00     0.006 A 
ATOM      3  C   UNL     1     -10.799   1.792   2.428  1.00  0.00     0.026 A 
ATOM      4  C   UNL     1     -11.365   3.000   2.015  1.00  0.00     0.038 A 
ATOM      5  C   UNL     1     -10.594   3.835   1.197  1.00  0.00     0.026 A 
ATOM      6  C   UNL     1      -9.304   3.458   0.795  1.00  0.00     0.006 A 
ENDROOT
BRANCH   1   7
ATOM      7  C   UNL     1      -7.394   1.805   0.720  1.00  0.00     0.037 C 
BRANCH   7   8
ATOM      8  C   UNL     1      -6.179   2.453   1.411  1.00  0.00     0.020 C 
BRANCH   8   9
ATOM      9  C   UNL     1      -5.982   2.105   2.894  1.00  0.00     0.078 C 
BRANCH   9  10
ATOM     10  N   UNL     1      -5.389   0.800   3.146  1.00  0.00    -0.330 NA
ATOM     11  H   UNL     1      -5.251   0.303   2.267  1.00  0.00     0.118 HD
ATOM     12  H   UNL     1      -6.030   0.221   3.690  1.00  0.00     0.118 HD
ENDBRANCH   9  10
ENDBRANCH   8   9
ENDBRANCH   7   8
ENDBRANCH   1   7
BRANCH   4  13
ATOM     13  N   UNL     1     -12.625   3.428   2.475  1.00  0.00    -0.362 N 
ATOM     14  H   UNL     1     -13.388   3.391   1.811  1.00  0.00     0.166 HD
BRANCH  13  15
ATOM     15  C   UNL     1     -12.841   4.116   3.640  1.00  0.00     0.083 C 
BRANCH  15  16
ATOM     16  C   UNL     1     -13.482   3.722   4.749  1.00  0.00     0.027 C 
BRANCH  16  17
ATOM     17  C   UNL     1     -14.293   4.664   5.535  1.00  0.00    -0.003 A 
ATOM     18  C   UNL     1     -15.677   4.496   5.719  1.00  0.00    -0.041 A 
ATOM     19  C   UNL     1     -13.714   5.805   6.110  1.00  0.00     0.119 A 
ATOM     20  C   UNL     1     -16.378   5.455   6.465  1.00  0.00     0.024 A 
ATOM     21  N   UNL     1     -14.373   6.731   6.846  1.00  0.00    -0.264 NA
ATOM     22  C   UNL     1     -15.693   6.530   7.008  1.00  0.00     0.111 A 
ATOM     23  C   UNL     1     -16.435   3.348   5.115  1.00  0.00     0.045 C 
ENDBRANCH  16  17
ENDBRANCH  15  16
ENDBRANCH  13  15
ENDBRANCH   4  13
TORSDOF 8
ENDMDL
MODEL 5
REMARK VINA RESULT:    -4.708      1.641      2.064
REMARK INTER + INTRA:          -7.541
REMARK INTER:                  -6.890
REMARK INTRA:                  -0.650
REMARK UNBOUND:                -0.768
REMARK SMILES Cc1ccncc1/C=C/Nc1ccc(CCCN)cc1
REMARK SMILES IDX 14 1 13 2 12 3 11 4 20 5 19 6 15 7 16 8 17 9 18 10 10 13
REMARK SMILES IDX 9 15 8 16 7 17 2 18 6 19 3 20 5 21 4 22 1 23
REMARK H PARENT 18 11 18 12 10 14
ROOT
ATOM      1  C   UNL     1     -15.111   5.589   6.547  1.00  0.00    -0.048 A 
ATOM      2  C   UNL     1     -13.822   6.044   6.261  1.00  0.00     0.006 A 
ATOM      3  C   UNL     1     -13.018   5.372   5.345  1.00  0.00     0.026 A 
ATOM      4  C   UNL     1     -13.434   4.184   4.740  1.00  0.00     0.038 A 
ATOM      5  C   UNL     1     -14.705   3.695   5.068  1.00  0.00     0.026 A 
ATOM      6  C   UNL     1     -15.534   4.389   5.962  1.00  0.00     0.006 A 
ENDROOT
BRANCH   1   7
ATOM      7  C   UNL     1     -16.028   6.364   7.460  1.00  0.00     0.037 C 
BRANCH   7   8
ATOM      8  C   UNL     1     -15.393   7.517   8.261  1.00  0.00     0.020 C 
BRANCH   8   9
ATOM      9  C   UNL     1     -15.600   7.474   9.782  1.00  0.00     0.078 C 
BRANCH   9  10
ATOM     10  N   UNL     1     -14.443   7.033  10.548  1.00  0.00    -0.330 NA
ATOM     11  H   UNL     1     -14.703   6.892  11.523  1.00  0.00     0.118 HD
ATOM     12  H   UNL     1     -13.729   7.763  10.558  1.00  0.00     0.118 HD
ENDBRANCH   9  10
ENDBRANCH   8   9
ENDBRANCH   7   8
ENDBRANCH   1   7
BRANCH   4  13
ATOM     13  N   UNL     1     -12.582   3.436   3.905  1.00  0.00    -0.362 N 
ATOM     14  H   UNL     1     -11.751   3.049   4.334  1.00  0.00     0.166 HD
BRANCH  13  15
ATOM     15  C   UNL     1     -12.653   3.410   2.537  1.00  0.00     0.083 C 
BRANCH  15  16
ATOM     16  C   UNL     1     -11.783   2.899   1.655  1.00  0.00     0.027 C 
BRANCH  16  17
ATOM     17  C   UNL     1     -10.669   3.704   1.130  1.00  0.00    -0.003 A 
ATOM     18  C   UNL     1      -9.333   3.270   1.184  1.00  0.00    -0.041 A 
ATOM     19  C   UNL     1     -10.897   4.974   0.579  1.00  0.00     0.119 A 
ATOM     20  C   UNL     1      -8.330   4.111   0.681  1.00  0.00     0.024 A 
ATOM     21  N   UNL     1      -9.943   5.791   0.074  1.00  0.00    -0.264 NA
ATOM     22  C   UNL     1      -8.679   5.336   0.135  1.00  0.00     0.111 A 
ATOM     23  C   UNL     1      -8.939   1.954   1.796  1.00  0.00     0.045 C 
ENDBRANCH  16  17
ENDBRANCH  15  16
ENDBRANCH  13  15
ENDBRANCH   4  13
TORSDOF 8
ENDMDL
MODEL 6
REMARK VINA RESULT:    -4.688      1.751      8.343
REMARK INTER + INTRA:          -7.511
REMARK INTER:                  -6.980
REMARK INTRA:                  -0.532
REMARK UNBOUND:                -0.768
REMARK SMILES Cc1ccncc1/C=C/Nc1ccc(CCCN)cc1
REMARK SMILES IDX 14 1 13 2 12 3 11 4 20 5 19 6 15 7 16 8 17 9 18 10 10 13
REMARK SMILES IDX 9 15 8 16 7 17 2 18 6 19 3 20 5 21 4 22 1 23
REMARK H PARENT 18 11 18 12 10 14
ROOT
ATOM      1  C   UNL     1      -8.942   2.574   0.939  1.00  0.00    -0.048 A 
ATOM      2  C   UNL     1      -9.569   1.745   1.871  1.00  0.00     0.006 A 
ATOM      3  C   UNL     1     -10.820   2.072   2.385  1.00  0.00     0.026 A 
ATOM      4  C   UNL     1     -11.457   3.271   2.053  1.00  0.00     0.038 A 
ATOM      5  C   UNL     1     -10.804   4.131   1.163  1.00  0.00     0.026 A 
ATOM      6  C   UNL     1      -9.560   3.787   0.611  1.00  0.00     0.006 A 
ENDROOT
BRANCH   1   7
ATOM      7  C   UNL     1      -7.635   2.180   0.298  1.00  0.00     0.037 C 
BRANCH   7   8
ATOM      8  C   UNL     1      -6.730   3.329  -0.190  1.00  0.00     0.020 C 
BRANCH   8   9
ATOM      9  C   UNL     1      -6.648   3.521  -1.711  1.00  0.00     0.078 C 
BRANCH   9  10
ATOM     10  N   UNL     1      -6.276   4.861  -2.143  1.00  0.00    -0.330 NA
ATOM     11  H   UNL     1      -5.939   5.402  -1.348  1.00  0.00     0.118 HD
ATOM     12  H   UNL     1      -7.097   5.361  -2.486  1.00  0.00     0.118 HD
ENDBRANCH   9  10
ENDBRANCH   8   9
ENDBRANCH   7   8
ENDBRANCH   1   7
BRANCH   4  13
ATOM     13  N   UNL     1     -12.665   3.664   2.660  1.00  0.00    -0.362 N 
ATOM     14  H   UNL     1     -13.464   3.779   2.049  1.00  0.00     0.166 HD
BRANCH  13  15
ATOM     15  C   UNL     1     -12.779   4.143   3.939  1.00  0.00     0.083 C 
BRANCH  15  16
ATOM     16  C   UNL     1     -13.589   3.736   4.925  1.00  0.00     0.027 C 
BRANCH  16  17
ATOM     17  C   UNL     1     -14.431   4.690   5.662  1.00  0.00    -0.003 A 
ATOM     18  C   UNL     1     -15.827   4.549   5.755  1.00  0.00    -0.041 A 
ATOM     19  C   UNL     1     -13.870   5.818   6.280  1.00  0.00     0.119 A 
ATOM     20  C   UNL     1     -16.558   5.519   6.458  1.00  0.00     0.024 A 
ATOM     21  N   UNL     1     -14.557   6.753   6.976  1.00  0.00    -0.264 NA
ATOM     22  C   UNL     1     -15.889   6.578   7.050  1.00  0.00     0.111 A 
ATOM     23  C   UNL     1     -16.566   3.418   5.096  1.00  0.00     0.045 C 
ENDBRANCH  16  17
ENDBRANCH  15  16
ENDBRANCH  13  15
ENDBRANCH   4  13
TORSDOF 8
ENDMDL
MODEL 7
REMARK VINA RESULT:    -4.615      2.122      2.931
REMARK INTER + INTRA:          -7.407
REMARK INTER:                  -6.869
REMARK INTRA:                  -0.538
REMARK UNBOUND:                -0.768
REMARK SMILES Cc1ccncc1/C=C/Nc1ccc(CCCN)cc1
REMARK SMILES IDX 14 1 13 2 12 3 11 4 20 5 19 6 15 7 16 8 17 9 18 10 10 13
REMARK SMILES IDX 9 15 8 16 7 17 2 18 6 19 3 20 5 21 4 22 1 23
REMARK H PARENT 18 11 18 12 10 14
ROOT
ATOM      1  C   UNL     1     -15.152   5.724   6.542  1.00  0.00    -0.048 A 
ATOM      2  C   UNL     1     -13.871   6.181   6.227  1.00  0.00     0.006 A 
ATOM      3  C   UNL     1     -13.054   5.463   5.358  1.00  0.00     0.026 A 
ATOM      4  C   UNL     1     -13.449   4.231   4.832  1.00  0.00     0.038 A 
ATOM      5  C   UNL     1     -14.712   3.744   5.192  1.00  0.00     0.026 A 
ATOM      6  C   UNL     1     -15.554   4.481   6.038  1.00  0.00     0.006 A 
ENDROOT
BRANCH   1   7
ATOM      7  C   UNL     1     -16.083   6.542   7.401  1.00  0.00     0.037 C 
BRANCH   7   8
ATOM      8  C   UNL     1     -15.428   7.548   8.368  1.00  0.00     0.020 C 
BRANCH   8   9
ATOM      9  C   UNL     1     -15.678   7.305   9.864  1.00  0.00     0.078 C 
BRANCH   9  10
ATOM     10  N   UNL     1     -14.481   7.071  10.658  1.00  0.00    -0.330 NA
ATOM     11  H   UNL     1     -14.155   7.946  11.064  1.00  0.00     0.118 HD
ATOM     12  H   UNL     1     -13.720   6.747  10.060  1.00  0.00     0.118 HD
ENDBRANCH   9  10
ENDBRANCH   8   9
ENDBRANCH   7   8
ENDBRANCH   1   7
BRANCH   4  13
ATOM     13  N   UNL     1     -12.583   3.444   4.049  1.00  0.00    -0.362 N 
ATOM     14  H   UNL     1     -11.808   3.005   4.530  1.00  0.00     0.166 HD
BRANCH  13  15
ATOM     15  C   UNL     1     -12.557   3.436   2.679  1.00  0.00     0.083 C 
BRANCH  15  16
ATOM     16  C   UNL     1     -11.511   3.569   1.853  1.00  0.00     0.027 C 
BRANCH  16  17
ATOM     17  C   UNL     1     -10.379   2.631   1.901  1.00  0.00    -0.003 A 
ATOM     18  C   UNL     1      -9.119   2.942   1.358  1.00  0.00    -0.041 A 
ATOM     19  C   UNL     1     -10.525   1.355   2.465  1.00  0.00     0.119 A 
ATOM     20  C   UNL     1      -8.100   1.979   1.426  1.00  0.00     0.024 A 
ATOM     21  N   UNL     1      -9.548   0.422   2.554  1.00  0.00    -0.264 NA
ATOM     22  C   UNL     1      -8.355   0.760   2.033  1.00  0.00     0.111 A 
ATOM     23  C   UNL     1      -8.838   4.251   0.676  1.00  0.00     0.045 C 
ENDBRANCH  16  17
ENDBRANCH  15  16
ENDBRANCH  13  15
ENDBRANCH   4  13
TORSDOF 8
ENDMDL
MODEL 8
REMARK VINA RESULT:    -4.415      4.226      5.994
REMARK INTER + INTRA:          -7.119
REMARK INTER:                  -6.284
REMARK INTRA:                  -0.834
REMARK UNBOUND:                -0.768
REMARK SMILES Cc1ccncc1/C=C/Nc1ccc(CCCN)cc1
REMARK SMILES IDX 14 1 13 2 12 3 11 4 20 5 19 6 15 7 16 8 17 9 18 10 10 13
REMARK SMILES IDX 9 15 8 16 7 17 2 18 6 19 3 20 5 21 4 22 1 23
REMARK H PARENT 18 11 18 12 10 14
ROOT
ATOM      1  C   UNL     1     -13.360   2.846   0.649  1.00  0.00    -0.048 A 
ATOM      2  C   UNL     1     -13.376   3.222   1.994  1.00  0.00     0.006 A 
ATOM      3  C   UNL     1     -12.187   3.420   2.690  1.00  0.00     0.026 A 
ATOM      4  C   UNL     1     -10.944   3.177   2.100  1.00  0.00     0.038 A 
ATOM      5  C   UNL     1     -10.928   2.745   0.769  1.00  0.00     0.026 A 
ATOM      6  C   UNL     1     -12.122   2.581   0.050  1.00  0.00     0.006 A 
ENDROOT
BRANCH   1   7
ATOM      7  C   UNL     1     -14.638   2.726  -0.143  1.00  0.00     0.037 C 
BRANCH   7   8
ATOM      8  C   UNL     1     -14.852   1.411  -0.916  1.00  0.00     0.020 C 
BRANCH   8   9
ATOM      9  C   UNL     1     -16.310   0.957  -1.083  1.00  0.00     0.078 C 
BRANCH   9  10
ATOM     10  N   UNL     1     -16.629  -0.326  -0.473  1.00  0.00    -0.330 NA
ATOM     11  H   UNL     1     -16.711  -0.221   0.538  1.00  0.00     0.118 HD
ATOM     12  H   UNL     1     -15.864  -0.984  -0.618  1.00  0.00     0.118 HD
ENDBRANCH   9  10
ENDBRANCH   8   9
ENDBRANCH   7   8
ENDBRANCH   1   7
BRANCH   4  13
ATOM     13  N   UNL     1      -9.744   3.260   2.832  1.00  0.00    -0.362 N 
ATOM     14  H   UNL     1      -9.758   3.836   3.664  1.00  0.00     0.166 HD
BRANCH  13  15
ATOM     15  C   UNL     1      -8.520   2.843   2.378  1.00  0.00     0.083 C 
BRANCH  15  16
ATOM     16  C   UNL     1      -7.472   3.576   1.979  1.00  0.00     0.027 C 
BRANCH  16  17
ATOM     17  C   UNL     1      -7.069   3.621   0.565  1.00  0.00    -0.003 A 
ATOM     18  C   UNL     1      -7.636   4.522  -0.353  1.00  0.00    -0.041 A 
ATOM     19  C   UNL     1      -6.113   2.726   0.061  1.00  0.00     0.119 A 
ATOM     20  C   UNL     1      -7.210   4.481  -1.689  1.00  0.00     0.024 A 
ATOM     21  N   UNL     1      -5.678   2.684  -1.220  1.00  0.00    -0.264 NA
ATOM     22  C   UNL     1      -6.237   3.568  -2.065  1.00  0.00     0.111 A 
ATOM     23  C   UNL     1      -8.708   5.500   0.038  1.00  0.00     0.045 C 
ENDBRANCH  16  17
ENDBRANCH  15  16
ENDBRANCH  13  15
ENDBRANCH   4  13
TORSDOF 8
ENDMDL
MODEL 9
REMARK VINA RESULT:    -4.187      2.176      3.232
REMARK INTER + INTRA:          -6.791
REMARK INTER:                  -6.146
REMARK INTRA:                  -0.646
REMARK UNBOUND:                -0.768
REMARK SMILES Cc1ccncc1/C=C/Nc1ccc(CCCN)cc1
REMARK SMILES IDX 14 1 13 2 12 3 11 4 20 5 19 6 15 7 16 8 17 9 18 10 10 13
REMARK SMILES IDX 9 15 8 16 7 17 2 18 6 19 3 20 5 21 4 22 1 23
REMARK H PARENT 18 11 18 12 10 14
ROOT
ATOM      1  C   UNL     1     -13.567   4.170   4.763  1.00  0.00    -0.048 A 
ATOM      2  C   UNL     1     -12.225   4.263   5.141  1.00  0.00     0.006 A 
ATOM      3  C   UNL     1     -11.212   3.919   4.251  1.00  0.00     0.026 A 
ATOM      4  C   UNL     1     -11.493   3.398   2.986  1.00  0.00     0.038 A 
ATOM      5  C   UNL     1     -12.839   3.250   2.627  1.00  0.00     0.026 A 
ATOM      6  C   UNL     1     -13.864   3.631   3.506  1.00  0.00     0.006 A 
ENDROOT
BRANCH   1   7
ATOM      7  C   UNL     1     -14.670   4.634   5.681  1.00  0.00     0.037 C 
BRANCH   7   8
ATOM      8  C   UNL     1     -14.447   5.975   6.407  1.00  0.00     0.020 C 
BRANCH   8   9
ATOM      9  C   UNL     1     -15.625   6.489   7.248  1.00  0.00     0.078 C 
BRANCH   9  10
ATOM     10  N   UNL     1     -15.908   5.714   8.448  1.00  0.00    -0.330 NA
ATOM     11  H   UNL     1     -15.616   4.747   8.315  1.00  0.00     0.118 HD
ATOM     12  H   UNL     1     -16.914   5.676   8.612  1.00  0.00     0.118 HD
ENDBRANCH   9  10
ENDBRANCH   8   9
ENDBRANCH   7   8
ENDBRANCH   1   7
BRANCH   4  13
ATOM     13  N   UNL     1     -10.477   2.937   2.127  1.00  0.00    -0.362 N 
ATOM     14  H   UNL     1     -10.154   3.583   1.418  1.00  0.00     0.166 HD
BRANCH  13  15
ATOM     15  C   UNL     1     -10.083   1.630   2.012  1.00  0.00     0.083 C 
BRANCH  15  16
ATOM     16  C   UNL     1      -8.845   1.123   1.947  1.00  0.00     0.027 C 
BRANCH  16  17
ATOM     17  C   UNL     1      -7.815   1.733   1.093  1.00  0.00    -0.003 A 
ATOM     18  C   UNL     1      -6.549   2.099   1.582  1.00  0.00    -0.041 A 
ATOM     19  C   UNL     1      -8.073   2.012  -0.258  1.00  0.00     0.119 A 
ATOM     20  C   UNL     1      -5.634   2.698   0.703  1.00  0.00     0.024 A 
ATOM     21  N   UNL     1      -7.197   2.573  -1.123  1.00  0.00    -0.264 NA
ATOM     22  C   UNL     1      -5.993   2.900  -0.620  1.00  0.00     0.111 A 
ATOM     23  C   UNL     1      -6.156   1.908   3.020  1.00  0.00     0.045 C 
ENDBRANCH  16  17
ENDBRANCH  15  16
ENDBRANCH  13  15
ENDBRANCH   4  13
TORSDOF 8
ENDMDL
