MODEL 1
REMARK VINA RESULT:    -5.214      0.000      0.000
REMARK INTER + INTRA:          -8.165
REMARK INTER:                  -7.500
REMARK INTRA:                  -0.665
REMARK UNBOUND:                -0.665
REMARK SMILES Cc1ccncc1/C=C/Nc1ccc(CCCN)cc1
REMARK SMILES IDX 14 1 13 2 12 3 11 4 20 5 19 6 15 7 16 8 17 9 18 10 10 13
REMARK SMILES IDX 9 15 8 16 7 17 2 18 6 19 3 20 5 21 4 22 1 23
REMARK H PARENT 18 11 18 12 10 14
ROOT
ATOM      1  C   UNL     1       6.396  -5.912  12.030  1.00  0.00    -0.048 A 
ATOM      2  C   UNL     1       7.729  -5.771  11.637  1.00  0.00     0.006 A 
ATOM      3  C   UNL     1       8.051  -5.234  10.394  1.00  0.00     0.026 A 
ATOM      4  C   UNL     1       7.063  -4.890   9.467  1.00  0.00     0.038 A 
ATOM      5  C   UNL     1       5.727  -5.084   9.838  1.00  0.00     0.026 A 
ATOM      6  C   UNL     1       5.396  -5.589  11.104  1.00  0.00     0.006 A 
ENDROOT
BRANCH   1   7
ATOM      7  C   UNL     1       6.036  -6.397  13.411  1.00  0.00     0.037 C 
BRANCH   7   8
ATOM      8  C   UNL     1       5.366  -7.782  13.505  1.00  0.00     0.020 C 
BRANCH   8   9
ATOM      9  C   UNL     1       6.295  -8.958  13.839  1.00  0.00     0.078 C 
BRANCH   9  10
ATOM     10  N   UNL     1       6.481  -9.920  12.762  1.00  0.00    -0.330 NA
ATOM     11  H   UNL     1       6.323 -10.866  13.107  1.00  0.00     0.118 HD
ATOM     12  H   UNL     1       7.449  -9.905  12.440  1.00  0.00     0.118 HD
ENDBRANCH   9  10
ENDBRANCH   8   9
ENDBRANCH   7   8
ENDBRANCH   1   7
BRANCH   4  13
ATOM     13  N   UNL     1       7.382  -4.459   8.166  1.00  0.00    -0.362 N 
ATOM     14  H   UNL     1       7.759  -3.524   8.077  1.00  0.00     0.166 HD
BRANCH  13  15
ATOM     15  C   UNL     1       6.990  -5.089   7.014  1.00  0.00     0.083 C 
BRANCH  15  16
ATOM     16  C   UNL     1       6.891  -4.597   5.772  1.00  0.00     0.027 C 
BRANCH  16  17
ATOM     17  C   UNL     1       5.701  -4.848   4.946  1.00  0.00    -0.003 A 
ATOM     18  C   UNL     1       5.258  -3.942   3.966  1.00  0.00    -0.041 A 
ATOM     19  C   UNL     1       4.926  -6.003   5.132  1.00  0.00     0.119 A 
ATOM     20  C   UNL     1       4.099  -4.249   3.239  1.00  0.00     0.024 A 
ATOM     21  N   UNL     1       3.816  -6.324   4.427  1.00  0.00    -0.264 NA
ATOM     22  C   UNL     1       3.430  -5.437   3.493  1.00  0.00     0.111 A 
ATOM     23  C   UNL     1       5.961  -2.641   3.698  1.00  0.00     0.045 C 
ENDBRANCH  16  17
ENDBRANCH  15  16
ENDBRANCH  13  15
ENDBRANCH   4  13
TORSDOF 8
ENDMDL
MODEL 2
REMARK VINA RESULT:    -5.003      1.432      2.016
REMARK INTER + INTRA:          -7.861
REMARK INTER:                  -7.229
REMARK INTRA:                  -0.632
REMARK UNBOUND:                -0.665
REMARK SMILES Cc1ccncc1/C=C/Nc1ccc(CCCN)cc1
REMARK SMILES IDX 14 1 13 2 12 3 11 4 20 5 19 6 15 7 16 8 17 9 18 10 10 13
REMARK SMILES IDX 9 15 8 16 7 17 2 18 6 19 3 20 5 21 4 22 1 23
REMARK H PARENT 18 11 18 12 10 14
ROOT
ATOM      1  C   UNL     1       6.773  -6.016  12.358  1.00  0.00    -0.048 A 
ATOM      2  C   UNL     1       8.014  -5.874  11.735  1.00  0.00     0.006 A 
ATOM      3  C   UNL     1       8.107  -5.371  10.441  1.00  0.00     0.026 A 
ATOM      4  C   UNL     1       6.968  -5.065   9.691  1.00  0.00     0.038 A 
ATOM      5  C   UNL     1       5.720  -5.261  10.294  1.00  0.00     0.026 A 
ATOM      6  C   UNL     1       5.622  -5.731  11.613  1.00  0.00     0.006 A 
ENDROOT
BRANCH   1   7
ATOM      7  C   UNL     1       6.667  -6.464  13.794  1.00  0.00     0.037 C 
BRANCH   7   8
ATOM      8  C   UNL     1       7.598  -7.611  14.232  1.00  0.00     0.020 C 
BRANCH   8   9
ATOM      9  C   UNL     1       6.986  -9.020  14.211  1.00  0.00     0.078 C 
BRANCH   9  10
ATOM     10  N   UNL     1       7.250  -9.787  13.002  1.00  0.00    -0.330 NA
ATOM     11  H   UNL     1       7.818  -9.239  12.358  1.00  0.00     0.118 HD
ATOM     12  H   UNL     1       6.378  -9.975  12.507  1.00  0.00     0.118 HD
ENDBRANCH   9  10
ENDBRANCH   8   9
ENDBRANCH   7   8
ENDBRANCH   1   7
BRANCH   4  13
ATOM     13  N   UNL     1       7.048  -4.670   8.342  1.00  0.00    -0.362 N 
ATOM     14  H   UNL     1       6.843  -3.699   8.141  1.00  0.00     0.166 HD
BRANCH  13  15
ATOM     15  C   UNL     1       7.126  -5.529   7.278  1.00  0.00     0.083 C 
BRANCH  15  16
ATOM     16  C   UNL     1       6.356  -5.590   6.184  1.00  0.00     0.027 C 
BRANCH  16  17
ATOM     17  C   UNL     1       6.240  -4.445   5.269  1.00  0.00    -0.003 A 
ATOM     18  C   UNL     1       5.186  -4.321   4.346  1.00  0.00    -0.041 A 
ATOM     19  C   UNL     1       7.212  -3.434   5.255  1.00  0.00     0.119 A 
ATOM     20  C   UNL     1       5.166  -3.207   3.493  1.00  0.00     0.024 A 
ATOM     21  N   UNL     1       7.198  -2.344   4.452  1.00  0.00    -0.264 NA
ATOM     22  C   UNL     1       6.169  -2.256   3.590  1.00  0.00     0.111 A 
ATOM     23  C   UNL     1       4.106  -5.357   4.214  1.00  0.00     0.045 C 
ENDBRANCH  16  17
ENDBRANCH  15  16
ENDBRANCH  13  15
ENDBRANCH   4  13
TORSDOF 8
ENDMDL
MODEL 3
REMARK VINA RESULT:    -4.941      1.971      8.574
REMARK INTER + INTRA:          -7.773
REMARK INTER:                  -7.228
REMARK INTRA:                  -0.545
REMARK UNBOUND:                -0.665
REMARK SMILES Cc1ccncc1/C=C/Nc1ccc(CCCN)cc1
REMARK SMILES IDX 14 1 13 2 12 3 11 4 20 5 19 6 15 7 16 8 17 9 18 10 10 13
REMARK SMILES IDX 9 15 8 16 7 17 2 18 6 19 3 20 5 21 4 22 1 23
REMARK H PARENT 18 11 18 12 10 14
ROOT
ATOM      1  C   UNL     1       5.455  -4.744   3.986  1.00  0.00    -0.048 A 
ATOM      2  C   UNL     1       6.353  -3.848   4.570  1.00  0.00     0.006 A 
ATOM      3  C   UNL     1       6.970  -4.148   5.781  1.00  0.00     0.026 A 
ATOM      4  C   UNL     1       6.658  -5.309   6.493  1.00  0.00     0.038 A 
ATOM      5  C   UNL     1       5.715  -6.181   5.937  1.00  0.00     0.026 A 
ATOM      6  C   UNL     1       5.119  -5.902   4.697  1.00  0.00     0.006 A 
ENDROOT
BRANCH   1   7
ATOM      7  C   UNL     1       4.858  -4.477   2.627  1.00  0.00     0.037 C 
BRANCH   7   8
ATOM      8  C   UNL     1       3.396  -4.913   2.415  1.00  0.00     0.020 C 
BRANCH   8   9
ATOM      9  C   UNL     1       3.119  -5.754   1.160  1.00  0.00     0.078 C 
BRANCH   9  10
ATOM     10  N   UNL     1       2.998  -4.993  -0.075  1.00  0.00    -0.330 NA
ATOM     11  H   UNL     1       3.454  -5.492  -0.838  1.00  0.00     0.118 HD
ATOM     12  H   UNL     1       3.497  -4.107   0.008  1.00  0.00     0.118 HD
ENDBRANCH   9  10
ENDBRANCH   8   9
ENDBRANCH   7   8
ENDBRANCH   1   7
BRANCH   4  13
ATOM     13  N   UNL     1       7.187  -5.561   7.774  1.00  0.00    -0.362 N 
ATOM     14  H   UNL     1       7.519  -6.501   7.951  1.00  0.00     0.166 HD
BRANCH  13  15
ATOM     15  C   UNL     1       7.053  -4.729   8.853  1.00  0.00     0.083 C 
BRANCH  15  16
ATOM     16  C   UNL     1       6.653  -5.018  10.099  1.00  0.00     0.027 C 
BRANCH  16  17
ATOM     17  C   UNL     1       7.572  -5.629  11.072  1.00  0.00    -0.003 A 
ATOM     18  C   UNL     1       7.167  -5.988  12.369  1.00  0.00    -0.041 A 
ATOM     19  C   UNL     1       8.920  -5.845  10.750  1.00  0.00     0.119 A 
ATOM     20  C   UNL     1       8.115  -6.543  13.242  1.00  0.00     0.024 A 
ATOM     21  N   UNL     1       9.843  -6.395  11.573  1.00  0.00    -0.264 NA
ATOM     22  C   UNL     1       9.415  -6.735  12.802  1.00  0.00     0.111 A 
ATOM     23  C   UNL     1       5.766  -5.763  12.866  1.00  0.00     0.045 C 
ENDBRANCH  16  17
ENDBRANCH  15  16
ENDBRANCH  13  15
ENDBRANCH   4  13
TORSDOF 8
ENDMDL
MODEL 4
REMARK VINA RESULT:    -4.854      2.222      8.538
REMARK INTER + INTRA:          -7.647
REMARK INTER:                  -6.996
REMARK INTRA:                  -0.651
REMARK UNBOUND:                -0.665
REMARK SMILES Cc1ccncc1/C=C/Nc1ccc(CCCN)cc1
REMARK SMILES IDX 14 1 13 2 12 3 11 4 20 5 19 6 15 7 16 8 17 9 18 10 10 13
REMARK SMILES IDX 9 15 8 16 7 17 2 18 6 19 3 20 5 21 4 22 1 23
REMARK H PARENT 18 11 18 12 10 14
ROOT
ATOM      1  C   UNL     1       5.759  -3.591   3.975  1.00  0.00    -0.048 A 
ATOM      2  C   UNL     1       6.848  -3.037   4.651  1.00  0.00     0.006 A 
ATOM      3  C   UNL     1       7.462  -3.725   5.694  1.00  0.00     0.026 A 
ATOM      4  C   UNL     1       6.968  -4.949   6.154  1.00  0.00     0.038 A 
ATOM      5  C   UNL     1       5.841  -5.478   5.514  1.00  0.00     0.026 A 
ATOM      6  C   UNL     1       5.242  -4.807   4.437  1.00  0.00     0.006 A 
ENDROOT
BRANCH   1   7
ATOM      7  C   UNL     1       5.150  -2.902   2.779  1.00  0.00     0.037 C 
BRANCH   7   8
ATOM      8  C   UNL     1       3.687  -2.440   2.918  1.00  0.00     0.020 C 
BRANCH   8   9
ATOM      9  C   UNL     1       3.465  -1.127   3.684  1.00  0.00     0.078 C 
BRANCH   9  10
ATOM     10  N   UNL     1       4.097   0.044   3.095  1.00  0.00    -0.330 NA
ATOM     11  H   UNL     1       4.167  -0.069   2.085  1.00  0.00     0.118 HD
ATOM     12  H   UNL     1       5.058   0.129   3.427  1.00  0.00     0.118 HD
ENDBRANCH   9  10
ENDBRANCH   8   9
ENDBRANCH   7   8
ENDBRANCH   1   7
BRANCH   4  13
ATOM     13  N   UNL     1       7.509  -5.592   7.283  1.00  0.00    -0.362 N 
ATOM     14  H   UNL     1       8.257  -6.253   7.114  1.00  0.00     0.166 HD
BRANCH  13  15
ATOM     15  C   UNL     1       6.943  -5.590   8.531  1.00  0.00     0.083 C 
BRANCH  15  16
ATOM     16  C   UNL     1       7.301  -4.897   9.620  1.00  0.00     0.027 C 
BRANCH  16  17
ATOM     17  C   UNL     1       7.922  -5.562  10.776  1.00  0.00    -0.003 A 
ATOM     18  C   UNL     1       7.208  -5.855  11.951  1.00  0.00    -0.041 A 
ATOM     19  C   UNL     1       9.284  -5.900  10.765  1.00  0.00     0.119 A 
ATOM     20  C   UNL     1       7.885  -6.469  13.015  1.00  0.00     0.024 A 
ATOM     21  N   UNL     1       9.948  -6.508  11.776  1.00  0.00    -0.264 NA
ATOM     22  C   UNL     1       9.228  -6.782  12.878  1.00  0.00     0.111 A 
ATOM     23  C   UNL     1       5.757  -5.500  12.120  1.00  0.00     0.045 C 
ENDBRANCH  16  17
ENDBRANCH  15  16
ENDBRANCH  13  15
ENDBRANCH   4  13
TORSDOF 8
ENDMDL
MODEL 5
REMARK VINA RESULT:    -4.850      2.128      8.424
REMARK INTER + INTRA:          -7.641
REMARK INTER:                  -6.996
REMARK INTRA:                  -0.645
REMARK UNBOUND:                -0.665
REMARK SMILES Cc1ccncc1/C=C/Nc1ccc(CCCN)cc1
REMARK SMILES IDX 14 1 13 2 12 3 11 4 20 5 19 6 15 7 16 8 17 9 18 10 10 13
REMARK SMILES IDX 9 15 8 16 7 17 2 18 6 19 3 20 5 21 4 22 1 23
REMARK H PARENT 18 11 18 12 10 14
ROOT
ATOM      1  C   UNL     1       5.530  -3.648   3.745  1.00  0.00    -0.048 A 
ATOM      2  C   UNL     1       6.602  -3.051   4.410  1.00  0.00     0.006 A 
ATOM      3  C   UNL     1       7.252  -3.712   5.449  1.00  0.00     0.026 A 
ATOM      4  C   UNL     1       6.812  -4.953   5.915  1.00  0.00     0.038 A 
ATOM      5  C   UNL     1       5.701  -5.528   5.286  1.00  0.00     0.026 A 
ATOM      6  C   UNL     1       5.066  -4.884   4.214  1.00  0.00     0.006 A 
ENDROOT
BRANCH   1   7
ATOM      7  C   UNL     1       4.883  -2.987   2.554  1.00  0.00     0.037 C 
BRANCH   7   8
ATOM      8  C   UNL     1       3.472  -2.404   2.768  1.00  0.00     0.020 C 
BRANCH   8   9
ATOM      9  C   UNL     1       3.391  -1.135   3.628  1.00  0.00     0.078 C 
BRANCH   9  10
ATOM     10  N   UNL     1       4.089   0.022   3.085  1.00  0.00    -0.330 NA
ATOM     11  H   UNL     1       4.318  -0.137   2.105  1.00  0.00     0.118 HD
ATOM     12  H   UNL     1       4.984   0.146   3.558  1.00  0.00     0.118 HD
ENDBRANCH   9  10
ENDBRANCH   8   9
ENDBRANCH   7   8
ENDBRANCH   1   7
BRANCH   4  13
ATOM     13  N   UNL     1       7.388  -5.573   7.040  1.00  0.00    -0.362 N 
ATOM     14  H   UNL     1       8.123  -6.247   6.861  1.00  0.00     0.166 HD
BRANCH  13  15
ATOM     15  C   UNL     1       6.871  -5.531   8.308  1.00  0.00     0.083 C 
BRANCH  15  16
ATOM     16  C   UNL     1       7.318  -4.868   9.382  1.00  0.00     0.027 C 
BRANCH  16  17
ATOM     17  C   UNL     1       7.076  -5.371  10.743  1.00  0.00    -0.003 A 
ATOM     18  C   UNL     1       8.104  -5.894  11.548  1.00  0.00    -0.041 A 
ATOM     19  C   UNL     1       5.783  -5.383  11.286  1.00  0.00     0.119 A 
ATOM     20  C   UNL     1       7.781  -6.375  12.826  1.00  0.00     0.024 A 
ATOM     21  N   UNL     1       5.456  -5.826  12.523  1.00  0.00    -0.264 NA
ATOM     22  C   UNL     1       6.468  -6.310  13.265  1.00  0.00     0.111 A 
ATOM     23  C   UNL     1       9.526  -5.991  11.073  1.00  0.00     0.045 C 
ENDBRANCH  16  17
ENDBRANCH  15  16
ENDBRANCH  13  15
ENDBRANCH   4  13
TORSDOF 8
ENDMDL
MODEL 6
REMARK VINA RESULT:    -4.812      4.462      8.403
REMARK INTER + INTRA:          -7.587
REMARK INTER:                  -7.093
REMARK INTRA:                  -0.495
REMARK UNBOUND:                -0.665
REMARK SMILES Cc1ccncc1/C=C/Nc1ccc(CCCN)cc1
REMARK SMILES IDX 14 1 13 2 12 3 11 4 20 5 19 6 15 7 16 8 17 9 18 10 10 13
REMARK SMILES IDX 9 15 8 16 7 17 2 18 6 19 3 20 5 21 4 22 1 23
REMARK H PARENT 18 11 18 12 10 14
ROOT
ATOM      1  C   UNL     1       4.415  -4.823   4.439  1.00  0.00    -0.048 A 
ATOM      2  C   UNL     1       4.336  -6.144   4.885  1.00  0.00     0.006 A 
ATOM      3  C   UNL     1       5.392  -6.722   5.583  1.00  0.00     0.026 A 
ATOM      4  C   UNL     1       6.591  -6.038   5.795  1.00  0.00     0.038 A 
ATOM      5  C   UNL     1       6.694  -4.733   5.299  1.00  0.00     0.026 A 
ATOM      6  C   UNL     1       5.618  -4.131   4.627  1.00  0.00     0.006 A 
ENDROOT
BRANCH   1   7
ATOM      7  C   UNL     1       3.241  -4.153   3.770  1.00  0.00     0.037 C 
BRANCH   7   8
ATOM      8  C   UNL     1       3.250  -4.117   2.230  1.00  0.00     0.020 C 
BRANCH   8   9
ATOM      9  C   UNL     1       3.418  -5.471   1.525  1.00  0.00     0.078 C 
BRANCH   9  10
ATOM     10  N   UNL     1       2.238  -5.947   0.818  1.00  0.00    -0.330 NA
ATOM     11  H   UNL     1       2.431  -6.008  -0.181  1.00  0.00     0.118 HD
ATOM     12  H   UNL     1       1.477  -5.273   0.909  1.00  0.00     0.118 HD
ENDBRANCH   9  10
ENDBRANCH   8   9
ENDBRANCH   7   8
ENDBRANCH   1   7
BRANCH   4  13
ATOM     13  N   UNL     1       7.705  -6.656   6.395  1.00  0.00    -0.362 N 
ATOM     14  H   UNL     1       7.746  -6.635   7.407  1.00  0.00     0.166 HD
BRANCH  13  15
ATOM     15  C   UNL     1       8.837  -7.046   5.729  1.00  0.00     0.083 C 
BRANCH  15  16
ATOM     16  C   UNL     1       9.317  -8.280   5.528  1.00  0.00     0.027 C 
BRANCH  16  17
ATOM     17  C   UNL     1      10.369  -8.839   6.391  1.00  0.00    -0.003 A 
ATOM     18  C   UNL     1      11.691  -9.020   5.949  1.00  0.00    -0.041 A 
ATOM     19  C   UNL     1      10.080  -9.256   7.700  1.00  0.00     0.119 A 
ATOM     20  C   UNL     1      12.626  -9.582   6.831  1.00  0.00     0.024 A 
ATOM     21  N   UNL     1      10.973  -9.783   8.569  1.00  0.00    -0.264 NA
ATOM     22  C   UNL     1      12.229  -9.931   8.112  1.00  0.00     0.111 A 
ATOM     23  C   UNL     1      12.128  -8.668   4.554  1.00  0.00     0.045 C 
ENDBRANCH  16  17
ENDBRANCH  15  16
ENDBRANCH  13  15
ENDBRANCH   4  13
TORSDOF 8
ENDMDL
MODEL 7
REMARK VINA RESULT:    -4.718      1.788      8.523
REMARK INTER + INTRA:          -7.452
REMARK INTER:                  -6.892
REMARK INTRA:                  -0.560
REMARK UNBOUND:                -0.665
REMARK SMILES Cc1ccncc1/C=C/Nc1ccc(CCCN)cc1
REMARK SMILES IDX 14 1 13 2 12 3 11 4 20 5 19 6 15 7 16 8 17 9 18 10 10 13
REMARK SMILES IDX 9 15 8 16 7 17 2 18 6 19 3 20 5 21 4 22 1 23
REMARK H PARENT 18 11 18 12 10 14
ROOT
ATOM      1  C   UNL     1       5.469  -4.690   3.965  1.00  0.00    -0.048 A 
ATOM      2  C   UNL     1       6.369  -3.855   4.631  1.00  0.00     0.006 A 
ATOM      3  C   UNL     1       6.955  -4.254   5.829  1.00  0.00     0.026 A 
ATOM      4  C   UNL     1       6.611  -5.459   6.447  1.00  0.00     0.038 A 
ATOM      5  C   UNL     1       5.666  -6.272   5.808  1.00  0.00     0.026 A 
ATOM      6  C   UNL     1       5.101  -5.892   4.582  1.00  0.00     0.006 A 
ENDROOT
BRANCH   1   7
ATOM      7  C   UNL     1       4.906  -4.313   2.618  1.00  0.00     0.037 C 
BRANCH   7   8
ATOM      8  C   UNL     1       3.441  -4.708   2.346  1.00  0.00     0.020 C 
BRANCH   8   9
ATOM      9  C   UNL     1       3.210  -5.671   1.172  1.00  0.00     0.078 C 
BRANCH   9  10
ATOM     10  N   UNL     1       3.006  -5.030  -0.119  1.00  0.00    -0.330 NA
ATOM     11  H   UNL     1       2.568  -5.683  -0.767  1.00  0.00     0.118 HD
ATOM     12  H   UNL     1       3.904  -4.790  -0.538  1.00  0.00     0.118 HD
ENDBRANCH   9  10
ENDBRANCH   8   9
ENDBRANCH   7   8
ENDBRANCH   1   7
BRANCH   4  13
ATOM     13  N   UNL     1       7.109  -5.814   7.715  1.00  0.00    -0.362 N 
ATOM     14  H   UNL     1       7.635  -6.678   7.771  1.00  0.00     0.166 HD
BRANCH  13  15
ATOM     15  C   UNL     1       6.728  -5.234   8.896  1.00  0.00     0.083 C 
BRANCH  15  16
ATOM     16  C   UNL     1       7.482  -4.873   9.942  1.00  0.00     0.027 C 
BRANCH  16  17
ATOM     17  C   UNL     1       7.305  -5.500  11.261  1.00  0.00    -0.003 A 
ATOM     18  C   UNL     1       8.348  -6.173  11.922  1.00  0.00    -0.041 A 
ATOM     19  C   UNL     1       6.058  -5.482  11.905  1.00  0.00     0.119 A 
ATOM     20  C   UNL     1       8.086  -6.764  13.168  1.00  0.00     0.024 A 
ATOM     21  N   UNL     1       5.793  -6.031  13.113  1.00  0.00    -0.264 NA
ATOM     22  C   UNL     1       6.818  -6.658  13.718  1.00  0.00     0.111 A 
ATOM     23  C   UNL     1       9.719  -6.316  11.325  1.00  0.00     0.045 C 
ENDBRANCH  16  17
ENDBRANCH  15  16
ENDBRANCH  13  15
ENDBRANCH   4  13
TORSDOF 8
ENDMDL
MODEL 8
REMARK VINA RESULT:    -4.613      4.686      8.498
REMARK INTER + INTRA:          -7.300
REMARK INTER:                  -6.826
REMARK INTRA:                  -0.474
REMARK UNBOUND:                -0.665
REMARK SMILES Cc1ccncc1/C=C/Nc1ccc(CCCN)cc1
REMARK SMILES IDX 14 1 13 2 12 3 11 4 20 5 19 6 15 7 16 8 17 9 18 10 10 13
REMARK SMILES IDX 9 15 8 16 7 17 2 18 6 19 3 20 5 21 4 22 1 23
REMARK H PARENT 18 11 18 12 10 14
ROOT
ATOM      1  C   UNL     1       4.207  -4.119   3.941  1.00  0.00    -0.048 A 
ATOM      2  C   UNL     1       5.374  -3.381   4.148  1.00  0.00     0.006 A 
ATOM      3  C   UNL     1       6.488  -3.966   4.741  1.00  0.00     0.026 A 
ATOM      4  C   UNL     1       6.459  -5.278   5.220  1.00  0.00     0.038 A 
ATOM      5  C   UNL     1       5.270  -6.001   5.065  1.00  0.00     0.026 A 
ATOM      6  C   UNL     1       4.156  -5.429   4.433  1.00  0.00     0.006 A 
ENDROOT
BRANCH   1   7
ATOM      7  C   UNL     1       3.028  -3.527   3.209  1.00  0.00     0.037 C 
BRANCH   7   8
ATOM      8  C   UNL     1       3.075  -3.576   1.669  1.00  0.00     0.020 C 
BRANCH   8   9
ATOM      9  C   UNL     1       3.359  -4.951   1.047  1.00  0.00     0.078 C 
BRANCH   9  10
ATOM     10  N   UNL     1       2.209  -5.840   0.969  1.00  0.00    -0.330 NA
ATOM     11  H   UNL     1       2.519  -6.796   0.796  1.00  0.00     0.118 HD
ATOM     12  H   UNL     1       1.627  -5.592   0.169  1.00  0.00     0.118 HD
ENDBRANCH   9  10
ENDBRANCH   8   9
ENDBRANCH   7   8
ENDBRANCH   1   7
BRANCH   4  13
ATOM     13  N   UNL     1       7.541  -5.837   5.928  1.00  0.00    -0.362 N 
ATOM     14  H   UNL     1       8.004  -5.236   6.598  1.00  0.00     0.166 HD
BRANCH  13  15
ATOM     15  C   UNL     1       8.164  -7.012   5.603  1.00  0.00     0.083 C 
BRANCH  15  16
ATOM     16  C   UNL     1       8.886  -7.830   6.381  1.00  0.00     0.027 C 
BRANCH  16  17
ATOM     17  C   UNL     1      10.191  -8.346   5.941  1.00  0.00    -0.003 A 
ATOM     18  C   UNL     1      10.978  -9.189   6.744  1.00  0.00    -0.041 A 
ATOM     19  C   UNL     1      10.727  -7.979   4.697  1.00  0.00     0.119 A 
ATOM     20  C   UNL     1      12.223  -9.616   6.256  1.00  0.00     0.024 A 
ATOM     21  N   UNL     1      11.917  -8.396   4.204  1.00  0.00    -0.264 NA
ATOM     22  C   UNL     1      12.636  -9.209   4.997  1.00  0.00     0.111 A 
ATOM     23  C   UNL     1      10.552  -9.618   8.120  1.00  0.00     0.045 C 
ENDBRANCH  16  17
ENDBRANCH  15  16
ENDBRANCH  13  15
ENDBRANCH   4  13
TORSDOF 8
ENDMDL
MODEL 9
REMARK VINA RESULT:    -4.513      3.108      8.326
REMARK INTER + INTRA:          -7.157
REMARK INTER:                  -6.137
REMARK INTRA:                  -1.020
REMARK UNBOUND:                -0.665
REMARK SMILES Cc1ccncc1/C=C/Nc1ccc(CCCN)cc1
REMARK SMILES IDX 14 1 13 2 12 3 11 4 20 5 19 6 15 7 16 8 17 9 18 10 10 13
REMARK SMILES IDX 9 15 8 16 7 17 2 18 6 19 3 20 5 21 4 22 1 23
REMARK H PARENT 18 11 18 12 10 14
ROOT
ATOM      1  C   UNL     1       6.804  -5.217   9.503  1.00  0.00    -0.048 A 
ATOM      2  C   UNL     1       5.728  -5.342  10.384  1.00  0.00     0.006 A 
ATOM      3  C   UNL     1       5.943  -5.563  11.742  1.00  0.00     0.026 A 
ATOM      4  C   UNL     1       7.228  -5.745  12.259  1.00  0.00     0.038 A 
ATOM      5  C   UNL     1       8.305  -5.676  11.367  1.00  0.00     0.026 A 
ATOM      6  C   UNL     1       8.096  -5.416  10.004  1.00  0.00     0.006 A 
ENDROOT
BRANCH   1   7
ATOM      7  C   UNL     1       6.588  -4.878   8.050  1.00  0.00     0.037 C 
BRANCH   7   8
ATOM      8  C   UNL     1       7.239  -5.816   7.016  1.00  0.00     0.020 C 
BRANCH   8   9
ATOM      9  C   UNL     1       6.423  -6.084   5.742  1.00  0.00     0.078 C 
BRANCH   9  10
ATOM     10  N   UNL     1       5.360  -7.069   5.888  1.00  0.00    -0.330 NA
ATOM     11  H   UNL     1       5.749  -8.010   5.844  1.00  0.00     0.118 HD
ATOM     12  H   UNL     1       4.711  -7.004   5.103  1.00  0.00     0.118 HD
ENDBRANCH   9  10
ENDBRANCH   8   9
ENDBRANCH   7   8
ENDBRANCH   1   7
BRANCH   4  13
ATOM     13  N   UNL     1       7.446  -6.086  13.608  1.00  0.00    -0.362 N 
ATOM     14  H   UNL     1       7.352  -5.341  14.286  1.00  0.00     0.166 HD
BRANCH  13  15
ATOM     15  C   UNL     1       8.014  -7.257  14.036  1.00  0.00     0.083 C 
BRANCH  15  16
ATOM     16  C   UNL     1       9.269  -7.487  14.446  1.00  0.00     0.027 C 
BRANCH  16  17
ATOM     17  C   UNL     1      10.192  -8.308  13.648  1.00  0.00    -0.003 A 
ATOM     18  C   UNL     1      11.369  -7.787  13.083  1.00  0.00    -0.041 A 
ATOM     19  C   UNL     1       9.910  -9.657  13.384  1.00  0.00     0.119 A 
ATOM     20  C   UNL     1      12.182  -8.635  12.315  1.00  0.00     0.024 A 
ATOM     21  N   UNL     1      10.691 -10.494  12.661  1.00  0.00    -0.264 NA
ATOM     22  C   UNL     1      11.813  -9.960  12.145  1.00  0.00     0.111 A 
ATOM     23  C   UNL     1      11.768  -6.346  13.240  1.00  0.00     0.045 C 
ENDBRANCH  16  17
ENDBRANCH  15  16
ENDBRANCH  13  15
ENDBRANCH   4  13
TORSDOF 8
ENDMDL
