MODEL 1
REMARK VINA RESULT:    -5.159      0.000      0.000
REMARK INTER + INTRA:          -8.065
REMARK INTER:                  -7.421
REMARK INTRA:                  -0.644
REMARK UNBOUND:                -0.644
REMARK SMILES Cc1ccncc1/C=C/Nc1ccc(CCCN)cc1
REMARK SMILES IDX 14 1 13 2 12 3 11 4 20 5 19 6 15 7 16 8 17 9 18 10 10 13
REMARK SMILES IDX 9 15 8 16 7 17 2 18 6 19 3 20 5 21 4 22 1 23
REMARK H PARENT 18 11 18 12 10 14
ROOT
ATOM      1  C   UNL     1     -14.465   8.979   1.815  1.00  0.00    -0.048 A 
ATOM      2  C   UNL     1     -13.116   8.624   1.743  1.00  0.00     0.006 A 
ATOM      3  C   UNL     1     -12.739   7.352   1.321  1.00  0.00     0.026 A 
ATOM      4  C   UNL     1     -13.685   6.366   1.032  1.00  0.00     0.038 A 
ATOM      5  C   UNL     1     -15.037   6.704   1.159  1.00  0.00     0.026 A 
ATOM      6  C   UNL     1     -15.424   7.996   1.547  1.00  0.00     0.006 A 
ENDROOT
BRANCH   1   7
ATOM      7  C   UNL     1     -14.883  10.383   2.173  1.00  0.00     0.037 C 
BRANCH   7   8
ATOM      8  C   UNL     1     -14.639  11.471   1.109  1.00  0.00     0.020 C 
BRANCH   8   9
ATOM      9  C   UNL     1     -15.801  11.738   0.141  1.00  0.00     0.078 C 
BRANCH   9  10
ATOM     10  N   UNL     1     -15.479  11.569  -1.269  1.00  0.00    -0.330 NA
ATOM     11  H   UNL     1     -14.545  11.929  -1.459  1.00  0.00     0.118 HD
ATOM     12  H   UNL     1     -16.110  12.129  -1.843  1.00  0.00     0.118 HD
ENDBRANCH   9  10
ENDBRANCH   8   9
ENDBRANCH   7   8
ENDBRANCH   1   7
BRANCH   4  13
ATOM     13  N   UNL     1     -13.311   5.044   0.721  1.00  0.00    -0.362 N 
ATOM     14  H   UNL     1     -13.480   4.345   1.433  1.00  0.00     0.166 HD
BRANCH  13  15
ATOM     15  C   UNL     1     -12.520   4.684  -0.338  1.00  0.00     0.083 C 
BRANCH  15  16
ATOM     16  C   UNL     1     -11.811   3.562  -0.520  1.00  0.00     0.027 C 
BRANCH  16  17
ATOM     17  C   UNL     1     -10.421   3.608  -0.999  1.00  0.00    -0.003 A 
ATOM     18  C   UNL     1      -9.479   2.615  -0.676  1.00  0.00    -0.041 A 
ATOM     19  C   UNL     1      -9.963   4.682  -1.777  1.00  0.00     0.119 A 
ATOM     20  C   UNL     1      -8.167   2.750  -1.155  1.00  0.00     0.024 A 
ATOM     21  N   UNL     1      -8.707   4.818  -2.262  1.00  0.00    -0.264 NA
ATOM     22  C   UNL     1      -7.838   3.844  -1.940  1.00  0.00     0.111 A 
ATOM     23  C   UNL     1      -9.817   1.437   0.194  1.00  0.00     0.045 C 
ENDBRANCH  16  17
ENDBRANCH  15  16
ENDBRANCH  13  15
ENDBRANCH   4  13
TORSDOF 8
ENDMDL
MODEL 2
REMARK VINA RESULT:    -5.148      0.756      1.386
REMARK INTER + INTRA:          -8.050
REMARK INTER:                  -7.265
REMARK INTRA:                  -0.785
REMARK UNBOUND:                -0.644
REMARK SMILES Cc1ccncc1/C=C/Nc1ccc(CCCN)cc1
REMARK SMILES IDX 14 1 13 2 12 3 11 4 20 5 19 6 15 7 16 8 17 9 18 10 10 13
REMARK SMILES IDX 9 15 8 16 7 17 2 18 6 19 3 20 5 21 4 22 1 23
REMARK H PARENT 18 11 18 12 10 14
ROOT
ATOM      1  C   UNL     1     -14.804   9.021   1.940  1.00  0.00    -0.048 A 
ATOM      2  C   UNL     1     -15.676   8.002   1.551  1.00  0.00     0.006 A 
ATOM      3  C   UNL     1     -15.186   6.764   1.146  1.00  0.00     0.026 A 
ATOM      4  C   UNL     1     -13.815   6.518   1.040  1.00  0.00     0.038 A 
ATOM      5  C   UNL     1     -12.939   7.558   1.376  1.00  0.00     0.026 A 
ATOM      6  C   UNL     1     -13.427   8.796   1.821  1.00  0.00     0.006 A 
ENDROOT
BRANCH   1   7
ATOM      7  C   UNL     1     -15.325  10.331   2.476  1.00  0.00     0.037 C 
BRANCH   7   8
ATOM      8  C   UNL     1     -14.817  11.612   1.785  1.00  0.00     0.020 C 
BRANCH   8   9
ATOM      9  C   UNL     1     -15.531  12.004   0.484  1.00  0.00     0.078 C 
BRANCH   9  10
ATOM     10  N   UNL     1     -14.879  11.552  -0.737  1.00  0.00    -0.330 NA
ATOM     11  H   UNL     1     -15.494  10.920  -1.248  1.00  0.00     0.118 HD
ATOM     12  H   UNL     1     -14.050  11.002  -0.509  1.00  0.00     0.118 HD
ENDBRANCH   9  10
ENDBRANCH   8   9
ENDBRANCH   7   8
ENDBRANCH   1   7
BRANCH   4  13
ATOM     13  N   UNL     1     -13.313   5.310   0.519  1.00  0.00    -0.362 N 
ATOM     14  H   UNL     1     -13.031   4.608   1.191  1.00  0.00     0.166 HD
BRANCH  13  15
ATOM     15  C   UNL     1     -12.942   5.115  -0.785  1.00  0.00     0.083 C 
BRANCH  15  16
ATOM     16  C   UNL     1     -12.146   4.171  -1.305  1.00  0.00     0.027 C 
BRANCH  16  17
ATOM     17  C   UNL     1     -10.753   4.467  -1.674  1.00  0.00    -0.003 A 
ATOM     18  C   UNL     1      -9.674   3.678  -1.239  1.00  0.00    -0.041 A 
ATOM     19  C   UNL     1     -10.439   5.589  -2.456  1.00  0.00     0.119 A 
ATOM     20  C   UNL     1      -8.374   4.047  -1.618  1.00  0.00     0.024 A 
ATOM     21  N   UNL     1      -9.193   5.949  -2.845  1.00  0.00    -0.264 NA
ATOM     22  C   UNL     1      -8.189   5.163  -2.418  1.00  0.00     0.111 A 
ATOM     23  C   UNL     1      -9.860   2.479  -0.353  1.00  0.00     0.045 C 
ENDBRANCH  16  17
ENDBRANCH  15  16
ENDBRANCH  13  15
ENDBRANCH   4  13
TORSDOF 8
ENDMDL
MODEL 3
REMARK VINA RESULT:    -5.012      1.314      1.890
REMARK INTER + INTRA:          -7.854
REMARK INTER:                  -7.201
REMARK INTRA:                  -0.652
REMARK UNBOUND:                -0.644
REMARK SMILES Cc1ccncc1/C=C/Nc1ccc(CCCN)cc1
REMARK SMILES IDX 14 1 13 2 12 3 11 4 20 5 19 6 15 7 16 8 17 9 18 10 10 13
REMARK SMILES IDX 9 15 8 16 7 17 2 18 6 19 3 20 5 21 4 22 1 23
REMARK H PARENT 18 11 18 12 10 14
ROOT
ATOM      1  C   UNL     1     -14.805   9.025   1.920  1.00  0.00    -0.048 A 
ATOM      2  C   UNL     1     -13.424   8.837   1.830  1.00  0.00     0.006 A 
ATOM      3  C   UNL     1     -12.901   7.646   1.335  1.00  0.00     0.026 A 
ATOM      4  C   UNL     1     -13.725   6.574   0.984  1.00  0.00     0.038 A 
ATOM      5  C   UNL     1     -15.107   6.741   1.127  1.00  0.00     0.026 A 
ATOM      6  C   UNL     1     -15.642   7.953   1.591  1.00  0.00     0.006 A 
ENDROOT
BRANCH   1   7
ATOM      7  C   UNL     1     -15.385  10.346   2.360  1.00  0.00     0.037 C 
BRANCH   7   8
ATOM      8  C   UNL     1     -14.642  11.616   1.901  1.00  0.00     0.020 C 
BRANCH   8   9
ATOM      9  C   UNL     1     -15.178  12.287   0.628  1.00  0.00     0.078 C 
BRANCH   9  10
ATOM     10  N   UNL     1     -14.889  11.577  -0.610  1.00  0.00    -0.330 NA
ATOM     11  H   UNL     1     -15.711  11.056  -0.913  1.00  0.00     0.118 HD
ATOM     12  H   UNL     1     -14.165  10.876  -0.453  1.00  0.00     0.118 HD
ENDBRANCH   9  10
ENDBRANCH   8   9
ENDBRANCH   7   8
ENDBRANCH   1   7
BRANCH   4  13
ATOM     13  N   UNL     1     -13.199   5.327   0.595  1.00  0.00    -0.362 N 
ATOM     14  H   UNL     1     -12.888   4.714   1.338  1.00  0.00     0.166 HD
BRANCH  13  15
ATOM     15  C   UNL     1     -12.843   4.993  -0.685  1.00  0.00     0.083 C 
BRANCH  15  16
ATOM     16  C   UNL     1     -11.637   4.670  -1.170  1.00  0.00     0.027 C 
BRANCH  16  17
ATOM     17  C   UNL     1     -10.911   3.487  -0.682  1.00  0.00    -0.003 A 
ATOM     18  C   UNL     1      -9.543   3.284  -0.937  1.00  0.00    -0.041 A 
ATOM     19  C   UNL     1     -11.575   2.481   0.036  1.00  0.00     0.119 A 
ATOM     20  C   UNL     1      -8.935   2.115  -0.455  1.00  0.00     0.024 A 
ATOM     21  N   UNL     1     -10.999   1.357   0.523  1.00  0.00    -0.264 NA
ATOM     22  C   UNL     1      -9.688   1.203   0.267  1.00  0.00     0.111 A 
ATOM     23  C   UNL     1      -8.721   4.253  -1.739  1.00  0.00     0.045 C 
ENDBRANCH  16  17
ENDBRANCH  15  16
ENDBRANCH  13  15
ENDBRANCH   4  13
TORSDOF 8
ENDMDL
MODEL 4
REMARK VINA RESULT:    -4.942      1.693      8.516
REMARK INTER + INTRA:          -7.752
REMARK INTER:                  -7.140
REMARK INTRA:                  -0.613
REMARK UNBOUND:                -0.644
REMARK SMILES Cc1ccncc1/C=C/Nc1ccc(CCCN)cc1
REMARK SMILES IDX 14 1 13 2 12 3 11 4 20 5 19 6 15 7 16 8 17 9 18 10 10 13
REMARK SMILES IDX 9 15 8 16 7 17 2 18 6 19 3 20 5 21 4 22 1 23
REMARK H PARENT 18 11 18 12 10 14
ROOT
ATOM      1  C   UNL     1     -10.157   3.440  -1.400  1.00  0.00    -0.048 A 
ATOM      2  C   UNL     1     -11.054   2.961  -0.443  1.00  0.00     0.006 A 
ATOM      3  C   UNL     1     -12.184   3.697  -0.097  1.00  0.00     0.026 A 
ATOM      4  C   UNL     1     -12.423   4.966  -0.630  1.00  0.00     0.038 A 
ATOM      5  C   UNL     1     -11.494   5.472  -1.547  1.00  0.00     0.026 A 
ATOM      6  C   UNL     1     -10.373   4.718  -1.928  1.00  0.00     0.006 A 
ENDROOT
BRANCH   1   7
ATOM      7  C   UNL     1      -8.985   2.608  -1.856  1.00  0.00     0.037 C 
BRANCH   7   8
ATOM      8  C   UNL     1      -7.736   3.375  -2.333  1.00  0.00     0.020 C 
BRANCH   8   9
ATOM      9  C   UNL     1      -6.920   2.706  -3.448  1.00  0.00     0.078 C 
BRANCH   9  10
ATOM     10  N   UNL     1      -5.611   3.295  -3.692  1.00  0.00    -0.330 NA
ATOM     11  H   UNL     1      -5.711   4.283  -3.921  1.00  0.00     0.118 HD
ATOM     12  H   UNL     1      -5.179   2.867  -4.511  1.00  0.00     0.118 HD
ENDBRANCH   9  10
ENDBRANCH   8   9
ENDBRANCH   7   8
ENDBRANCH   1   7
BRANCH   4  13
ATOM     13  N   UNL     1     -13.498   5.765  -0.197  1.00  0.00    -0.362 N 
ATOM     14  H   UNL     1     -14.173   6.038  -0.901  1.00  0.00     0.166 HD
BRANCH  13  15
ATOM     15  C   UNL     1     -13.562   6.401   1.014  1.00  0.00     0.083 C 
BRANCH  15  16
ATOM     16  C   UNL     1     -13.289   7.677   1.315  1.00  0.00     0.027 C 
BRANCH  16  17
ATOM     17  C   UNL     1     -14.361   8.625   1.660  1.00  0.00    -0.003 A 
ATOM     18  C   UNL     1     -14.207  10.016   1.529  1.00  0.00    -0.041 A 
ATOM     19  C   UNL     1     -15.584   8.171   2.176  1.00  0.00     0.119 A 
ATOM     20  C   UNL     1     -15.272  10.850   1.903  1.00  0.00     0.024 A 
ATOM     21  N   UNL     1     -16.627   8.960   2.526  1.00  0.00    -0.264 NA
ATOM     22  C   UNL     1     -16.445  10.284   2.377  1.00  0.00     0.111 A 
ATOM     23  C   UNL     1     -12.932  10.643   1.039  1.00  0.00     0.045 C 
ENDBRANCH  16  17
ENDBRANCH  15  16
ENDBRANCH  13  15
ENDBRANCH   4  13
TORSDOF 8
ENDMDL
MODEL 5
REMARK VINA RESULT:    -4.835      2.067      8.495
REMARK INTER + INTRA:          -7.598
REMARK INTER:                  -7.117
REMARK INTRA:                  -0.481
REMARK UNBOUND:                -0.644
REMARK SMILES Cc1ccncc1/C=C/Nc1ccc(CCCN)cc1
REMARK SMILES IDX 14 1 13 2 12 3 11 4 20 5 19 6 15 7 16 8 17 9 18 10 10 13
REMARK SMILES IDX 9 15 8 16 7 17 2 18 6 19 3 20 5 21 4 22 1 23
REMARK H PARENT 18 11 18 12 10 14
ROOT
ATOM      1  C   UNL     1      -9.383   2.460  -0.863  1.00  0.00    -0.048 A 
ATOM      2  C   UNL     1     -10.506   2.084  -0.123  1.00  0.00     0.006 A 
ATOM      3  C   UNL     1     -11.667   2.851  -0.156  1.00  0.00     0.026 A 
ATOM      4  C   UNL     1     -11.729   4.056  -0.860  1.00  0.00     0.038 A 
ATOM      5  C   UNL     1     -10.584   4.463  -1.556  1.00  0.00     0.026 A 
ATOM      6  C   UNL     1      -9.424   3.675  -1.558  1.00  0.00     0.006 A 
ENDROOT
BRANCH   1   7
ATOM      7  C   UNL     1      -8.155   1.586  -0.916  1.00  0.00     0.037 C 
BRANCH   7   8
ATOM      8  C   UNL     1      -7.027   1.916   0.081  1.00  0.00     0.020 C 
BRANCH   8   9
ATOM      9  C   UNL     1      -7.420   1.922   1.565  1.00  0.00     0.078 C 
BRANCH   9  10
ATOM     10  N   UNL     1      -7.278   0.642   2.244  1.00  0.00    -0.330 NA
ATOM     11  H   UNL     1      -7.192   0.788   3.249  1.00  0.00     0.118 HD
ATOM     12  H   UNL     1      -6.411   0.187   1.959  1.00  0.00     0.118 HD
ENDBRANCH   9  10
ENDBRANCH   8   9
ENDBRANCH   7   8
ENDBRANCH   1   7
BRANCH   4  13
ATOM     13  N   UNL     1     -12.858   4.895  -0.801  1.00  0.00    -0.362 N 
ATOM     14  H   UNL     1     -13.522   4.818  -1.561  1.00  0.00     0.166 HD
BRANCH  13  15
ATOM     15  C   UNL     1     -12.995   5.964   0.045  1.00  0.00     0.083 C 
BRANCH  15  16
ATOM     16  C   UNL     1     -13.834   6.122   1.078  1.00  0.00     0.027 C 
BRANCH  16  17
ATOM     17  C   UNL     1     -14.363   7.448   1.433  1.00  0.00    -0.003 A 
ATOM     18  C   UNL     1     -15.724   7.777   1.302  1.00  0.00    -0.041 A 
ATOM     19  C   UNL     1     -13.510   8.465   1.889  1.00  0.00     0.119 A 
ATOM     20  C   UNL     1     -16.140   9.073   1.642  1.00  0.00     0.024 A 
ATOM     21  N   UNL     1     -13.897   9.714   2.237  1.00  0.00    -0.264 NA
ATOM     22  C   UNL     1     -15.208   9.987   2.107  1.00  0.00     0.111 A 
ATOM     23  C   UNL     1     -16.740   6.802   0.776  1.00  0.00     0.045 C 
ENDBRANCH  16  17
ENDBRANCH  15  16
ENDBRANCH  13  15
ENDBRANCH   4  13
TORSDOF 8
ENDMDL
MODEL 6
REMARK VINA RESULT:    -4.724      1.683      8.493
REMARK INTER + INTRA:          -7.439
REMARK INTER:                  -6.930
REMARK INTRA:                  -0.509
REMARK UNBOUND:                -0.644
REMARK SMILES Cc1ccncc1/C=C/Nc1ccc(CCCN)cc1
REMARK SMILES IDX 14 1 13 2 12 3 11 4 20 5 19 6 15 7 16 8 17 9 18 10 10 13
REMARK SMILES IDX 9 15 8 16 7 17 2 18 6 19 3 20 5 21 4 22 1 23
REMARK H PARENT 18 11 18 12 10 14
ROOT
ATOM      1  C   UNL     1      -9.574   2.793  -1.190  1.00  0.00    -0.048 A 
ATOM      2  C   UNL     1     -10.608   2.391  -0.342  1.00  0.00     0.006 A 
ATOM      3  C   UNL     1     -11.760   3.161  -0.213  1.00  0.00     0.026 A 
ATOM      4  C   UNL     1     -11.895   4.392  -0.859  1.00  0.00     0.038 A 
ATOM      5  C   UNL     1     -10.835   4.824  -1.665  1.00  0.00     0.026 A 
ATOM      6  C   UNL     1      -9.687   4.034  -1.829  1.00  0.00     0.006 A 
ENDROOT
BRANCH   1   7
ATOM      7  C   UNL     1      -8.365   1.920  -1.417  1.00  0.00     0.037 C 
BRANCH   7   8
ATOM      8  C   UNL     1      -7.072   2.630  -1.860  1.00  0.00     0.020 C 
BRANCH   8   9
ATOM      9  C   UNL     1      -6.681   2.460  -3.335  1.00  0.00     0.078 C 
BRANCH   9  10
ATOM     10  N   UNL     1      -5.572   3.293  -3.778  1.00  0.00    -0.330 NA
ATOM     11  H   UNL     1      -4.711   2.998  -3.321  1.00  0.00     0.118 HD
ATOM     12  H   UNL     1      -5.720   4.259  -3.487  1.00  0.00     0.118 HD
ENDBRANCH   9  10
ENDBRANCH   8   9
ENDBRANCH   7   8
ENDBRANCH   1   7
BRANCH   4  13
ATOM     13  N   UNL     1     -13.005   5.231  -0.639  1.00  0.00    -0.362 N 
ATOM     14  H   UNL     1     -13.694   5.274  -1.379  1.00  0.00     0.166 HD
BRANCH  13  15
ATOM     15  C   UNL     1     -13.093   6.167   0.357  1.00  0.00     0.083 C 
BRANCH  15  16
ATOM     16  C   UNL     1     -14.055   6.337   1.274  1.00  0.00     0.027 C 
BRANCH  16  17
ATOM     17  C   UNL     1     -14.622   7.666   1.546  1.00  0.00    -0.003 A 
ATOM     18  C   UNL     1     -15.967   7.981   1.280  1.00  0.00    -0.041 A 
ATOM     19  C   UNL     1     -13.822   8.700   2.053  1.00  0.00     0.119 A 
ATOM     20  C   UNL     1     -16.420   9.282   1.547  1.00  0.00     0.024 A 
ATOM     21  N   UNL     1     -14.246   9.955   2.333  1.00  0.00    -0.264 NA
ATOM     22  C   UNL     1     -15.541  10.214   2.075  1.00  0.00     0.111 A 
ATOM     23  C   UNL     1     -16.923   6.986   0.685  1.00  0.00     0.045 C 
ENDBRANCH  16  17
ENDBRANCH  15  16
ENDBRANCH  13  15
ENDBRANCH   4  13
TORSDOF 8
ENDMDL
MODEL 7
REMARK VINA RESULT:    -4.651      2.064      4.231
REMARK INTER + INTRA:          -7.335
REMARK INTER:                  -6.474
REMARK INTRA:                  -0.861
REMARK UNBOUND:                -0.644
REMARK SMILES Cc1ccncc1/C=C/Nc1ccc(CCCN)cc1
REMARK SMILES IDX 14 1 13 2 12 3 11 4 20 5 19 6 15 7 16 8 17 9 18 10 10 13
REMARK SMILES IDX 9 15 8 16 7 17 2 18 6 19 3 20 5 21 4 22 1 23
REMARK H PARENT 18 11 18 12 10 14
ROOT
ATOM      1  C   UNL     1     -12.848   5.460  -0.193  1.00  0.00    -0.048 A 
ATOM      2  C   UNL     1     -13.342   4.953  -1.396  1.00  0.00     0.006 A 
ATOM      3  C   UNL     1     -12.554   4.134  -2.200  1.00  0.00     0.026 A 
ATOM      4  C   UNL     1     -11.224   3.853  -1.876  1.00  0.00     0.038 A 
ATOM      5  C   UNL     1     -10.710   4.407  -0.698  1.00  0.00     0.026 A 
ATOM      6  C   UNL     1     -11.512   5.202   0.135  1.00  0.00     0.006 A 
ENDROOT
BRANCH   1   7
ATOM      7  C   UNL     1     -13.725   6.264   0.734  1.00  0.00     0.037 C 
BRANCH   7   8
ATOM      8  C   UNL     1     -13.048   7.418   1.500  1.00  0.00     0.020 C 
BRANCH   8   9
ATOM      9  C   UNL     1     -13.927   8.644   1.784  1.00  0.00     0.078 C 
BRANCH   9  10
ATOM     10  N   UNL     1     -15.203   8.663   1.083  1.00  0.00    -0.330 NA
ATOM     11  H   UNL     1     -15.438   7.725   0.762  1.00  0.00     0.118 HD
ATOM     12  H   UNL     1     -15.132   9.232   0.239  1.00  0.00     0.118 HD
ENDBRANCH   9  10
ENDBRANCH   8   9
ENDBRANCH   7   8
ENDBRANCH   1   7
BRANCH   4  13
ATOM     13  N   UNL     1     -10.386   3.125  -2.741  1.00  0.00    -0.362 N 
ATOM     14  H   UNL     1     -10.830   2.671  -3.530  1.00  0.00     0.166 HD
BRANCH  13  15
ATOM     15  C   UNL     1      -9.091   2.774  -2.465  1.00  0.00     0.083 C 
BRANCH  15  16
ATOM     16  C   UNL     1      -8.618   1.644  -1.924  1.00  0.00     0.027 C 
BRANCH  16  17
ATOM     17  C   UNL     1      -7.984   1.641  -0.596  1.00  0.00    -0.003 A 
ATOM     18  C   UNL     1      -8.711   1.413   0.586  1.00  0.00    -0.041 A 
ATOM     19  C   UNL     1      -6.615   1.909  -0.452  1.00  0.00     0.119 A 
ATOM     20  C   UNL     1      -8.032   1.452   1.813  1.00  0.00     0.024 A 
ATOM     21  N   UNL     1      -5.941   1.933   0.722  1.00  0.00    -0.264 NA
ATOM     22  C   UNL     1      -6.668   1.699   1.828  1.00  0.00     0.111 A 
ATOM     23  C   UNL     1     -10.194   1.166   0.584  1.00  0.00     0.045 C 
ENDBRANCH  16  17
ENDBRANCH  15  16
ENDBRANCH  13  15
ENDBRANCH   4  13
TORSDOF 8
ENDMDL
MODEL 8
REMARK VINA RESULT:    -4.590      4.174      5.811
REMARK INTER + INTRA:          -7.247
REMARK INTER:                  -6.396
REMARK INTRA:                  -0.851
REMARK UNBOUND:                -0.644
REMARK SMILES Cc1ccncc1/C=C/Nc1ccc(CCCN)cc1
REMARK SMILES IDX 14 1 13 2 12 3 11 4 20 5 19 6 15 7 16 8 17 9 18 10 10 13
REMARK SMILES IDX 9 15 8 16 7 17 2 18 6 19 3 20 5 21 4 22 1 23
REMARK H PARENT 18 11 18 12 10 14
ROOT
ATOM      1  C   UNL     1     -13.277   4.358  -2.618  1.00  0.00    -0.048 A 
ATOM      2  C   UNL     1     -12.111   3.611  -2.800  1.00  0.00     0.006 A 
ATOM      3  C   UNL     1     -11.158   3.524  -1.790  1.00  0.00     0.026 A 
ATOM      4  C   UNL     1     -11.291   4.236  -0.595  1.00  0.00     0.038 A 
ATOM      5  C   UNL     1     -12.433   5.030  -0.433  1.00  0.00     0.026 A 
ATOM      6  C   UNL     1     -13.415   5.091  -1.433  1.00  0.00     0.006 A 
ENDROOT
BRANCH   1   7
ATOM      7  C   UNL     1     -14.363   4.378  -3.664  1.00  0.00     0.037 C 
BRANCH   7   8
ATOM      8  C   UNL     1     -14.733   3.026  -4.304  1.00  0.00     0.020 C 
BRANCH   8   9
ATOM      9  C   UNL     1     -16.175   2.894  -4.815  1.00  0.00     0.078 C 
BRANCH   9  10
ATOM     10  N   UNL     1     -17.013   1.971  -4.064  1.00  0.00    -0.330 NA
ATOM     11  H   UNL     1     -17.591   2.486  -3.400  1.00  0.00     0.118 HD
ATOM     12  H   UNL     1     -16.433   1.351  -3.498  1.00  0.00     0.118 HD
ENDBRANCH   9  10
ENDBRANCH   8   9
ENDBRANCH   7   8
ENDBRANCH   1   7
BRANCH   4  13
ATOM     13  N   UNL     1     -10.277   4.247   0.382  1.00  0.00    -0.362 N 
ATOM     14  H   UNL     1     -10.275   5.028   1.026  1.00  0.00     0.166 HD
BRANCH  13  15
ATOM     15  C   UNL     1      -9.167   3.444   0.366  1.00  0.00     0.083 C 
BRANCH  15  16
ATOM     16  C   UNL     1      -7.901   3.757   0.057  1.00  0.00     0.027 C 
BRANCH  16  17
ATOM     17  C   UNL     1      -7.265   3.240  -1.164  1.00  0.00    -0.003 A 
ATOM     18  C   UNL     1      -7.356   3.903  -2.400  1.00  0.00    -0.041 A 
ATOM     19  C   UNL     1      -6.563   2.025  -1.150  1.00  0.00     0.119 A 
ATOM     20  C   UNL     1      -6.738   3.327  -3.521  1.00  0.00     0.024 A 
ATOM     21  N   UNL     1      -5.947   1.465  -2.217  1.00  0.00    -0.264 NA
ATOM     22  C   UNL     1      -6.048   2.134  -3.379  1.00  0.00     0.111 A 
ATOM     23  C   UNL     1      -8.121   5.185  -2.571  1.00  0.00     0.045 C 
ENDBRANCH  16  17
ENDBRANCH  15  16
ENDBRANCH  13  15
ENDBRANCH   4  13
TORSDOF 8
ENDMDL
MODEL 9
REMARK VINA RESULT:    -4.553      4.411      8.330
REMARK INTER + INTRA:          -7.193
REMARK INTER:                  -6.689
REMARK INTRA:                  -0.504
REMARK UNBOUND:                -0.644
REMARK SMILES Cc1ccncc1/C=C/Nc1ccc(CCCN)cc1
REMARK SMILES IDX 14 1 13 2 12 3 11 4 20 5 19 6 15 7 16 8 17 9 18 10 10 13
REMARK SMILES IDX 9 15 8 16 7 17 2 18 6 19 3 20 5 21 4 22 1 23
REMARK H PARENT 18 11 18 12 10 14
ROOT
ATOM      1  C   UNL     1      -8.793   2.745  -0.970  1.00  0.00    -0.048 A 
ATOM      2  C   UNL     1      -8.800   3.911  -1.739  1.00  0.00     0.006 A 
ATOM      3  C   UNL     1      -9.951   4.687  -1.842  1.00  0.00     0.026 A 
ATOM      4  C   UNL     1     -11.154   4.293  -1.251  1.00  0.00     0.038 A 
ATOM      5  C   UNL     1     -11.163   3.095  -0.527  1.00  0.00     0.026 A 
ATOM      6  C   UNL     1      -9.996   2.329  -0.388  1.00  0.00     0.006 A 
ENDROOT
BRANCH   1   7
ATOM      7  C   UNL     1      -7.527   1.951  -0.769  1.00  0.00     0.037 C 
BRANCH   7   8
ATOM      8  C   UNL     1      -6.768   2.181   0.552  1.00  0.00     0.020 C 
BRANCH   8   9
ATOM      9  C   UNL     1      -7.251   1.360   1.757  1.00  0.00     0.078 C 
BRANCH   9  10
ATOM     10  N   UNL     1      -7.674   2.145   2.908  1.00  0.00    -0.330 NA
ATOM     11  H   UNL     1      -8.039   1.531   3.634  1.00  0.00     0.118 HD
ATOM     12  H   UNL     1      -8.450   2.756   2.650  1.00  0.00     0.118 HD
ENDBRANCH   9  10
ENDBRANCH   8   9
ENDBRANCH   7   8
ENDBRANCH   1   7
BRANCH   4  13
ATOM     13  N   UNL     1     -12.350   5.010  -1.449  1.00  0.00    -0.362 N 
ATOM     14  H   UNL     1     -12.494   5.825  -0.866  1.00  0.00     0.166 HD
BRANCH  13  15
ATOM     15  C   UNL     1     -13.425   4.555  -2.167  1.00  0.00     0.083 C 
BRANCH  15  16
ATOM     16  C   UNL     1     -13.603   4.525  -3.494  1.00  0.00     0.027 C 
BRANCH  16  17
ATOM     17  C   UNL     1     -14.813   3.936  -4.087  1.00  0.00    -0.003 A 
ATOM     18  C   UNL     1     -15.957   4.699  -4.382  1.00  0.00    -0.041 A 
ATOM     19  C   UNL     1     -14.889   2.560  -4.351  1.00  0.00     0.119 A 
ATOM     20  C   UNL     1     -17.078   4.053  -4.925  1.00  0.00     0.024 A 
ATOM     21  N   UNL     1     -15.955   1.923  -4.891  1.00  0.00    -0.264 NA
ATOM     22  C   UNL     1     -17.025   2.689  -5.168  1.00  0.00     0.111 A 
ATOM     23  C   UNL     1     -16.035   6.174  -4.101  1.00  0.00     0.045 C 
ENDBRANCH  16  17
ENDBRANCH  15  16
ENDBRANCH  13  15
ENDBRANCH   4  13
TORSDOF 8
ENDMDL
