MODEL 1
REMARK VINA RESULT:    -5.126      0.000      0.000
REMARK INTER + INTRA:          -8.192
REMARK INTER:                  -7.373
REMARK INTRA:                  -0.820
REMARK UNBOUND:                -0.820
REMARK SMILES Cc1ccncc1/C=C/Nc1ccc(CCCN)cc1
REMARK SMILES IDX 14 1 13 2 12 3 11 4 20 5 19 6 15 7 16 8 17 9 18 10 10 13
REMARK SMILES IDX 9 15 8 16 7 17 2 18 6 19 3 20 5 21 4 22 1 23
REMARK H PARENT 18 11 18 12 10 14
ROOT
ATOM      1  C   UNL     1     -10.276  -6.976   8.474  1.00  0.00    -0.048 A 
ATOM      2  C   UNL     1     -11.199  -7.051   7.428  1.00  0.00     0.006 A 
ATOM      3  C   UNL     1     -10.850  -6.646   6.143  1.00  0.00     0.026 A 
ATOM      4  C   UNL     1      -9.603  -6.083   5.866  1.00  0.00     0.038 A 
ATOM      5  C   UNL     1      -8.696  -5.955   6.925  1.00  0.00     0.026 A 
ATOM      6  C   UNL     1      -9.028  -6.396   8.215  1.00  0.00     0.006 A 
ENDROOT
BRANCH   1   7
ATOM      7  C   UNL     1     -10.608  -7.504   9.847  1.00  0.00     0.037 C 
BRANCH   7   8
ATOM      8  C   UNL     1     -10.454  -6.520  11.022  1.00  0.00     0.020 C 
BRANCH   8   9
ATOM      9  C   UNL     1     -11.650  -5.594  11.286  1.00  0.00     0.078 C 
BRANCH   9  10
ATOM     10  N   UNL     1     -11.554  -4.275  10.677  1.00  0.00    -0.330 NA
ATOM     11  H   UNL     1     -10.942  -4.311   9.862  1.00  0.00     0.118 HD
ATOM     12  H   UNL     1     -11.111  -3.621  11.322  1.00  0.00     0.118 HD
ENDBRANCH   9  10
ENDBRANCH   8   9
ENDBRANCH   7   8
ENDBRANCH   1   7
BRANCH   4  13
ATOM     13  N   UNL     1      -9.286  -5.563   4.596  1.00  0.00    -0.362 N 
ATOM     14  H   UNL     1      -8.862  -6.202   3.936  1.00  0.00     0.166 HD
BRANCH  13  15
ATOM     15  C   UNL     1      -9.267  -4.230   4.279  1.00  0.00     0.083 C 
BRANCH  15  16
ATOM     16  C   UNL     1      -8.567  -3.597   3.329  1.00  0.00     0.027 C 
BRANCH  16  17
ATOM     17  C   UNL     1      -7.328  -2.873   3.651  1.00  0.00    -0.003 A 
ATOM     18  C   UNL     1      -6.110  -3.134   2.997  1.00  0.00    -0.041 A 
ATOM     19  C   UNL     1      -7.303  -1.904   4.665  1.00  0.00     0.119 A 
ATOM     20  C   UNL     1      -4.970  -2.413   3.383  1.00  0.00     0.024 A 
ATOM     21  N   UNL     1      -6.217  -1.188   5.038  1.00  0.00    -0.264 NA
ATOM     22  C   UNL     1      -5.074  -1.459   4.383  1.00  0.00     0.111 A 
ATOM     23  C   UNL     1      -5.979  -4.183   1.928  1.00  0.00     0.045 C 
ENDBRANCH  16  17
ENDBRANCH  15  16
ENDBRANCH  13  15
ENDBRANCH   4  13
TORSDOF 8
ENDMDL
MODEL 2
REMARK VINA RESULT:    -4.968      1.842      8.275
REMARK INTER + INTRA:          -7.966
REMARK INTER:                  -7.363
REMARK INTRA:                  -0.603
REMARK UNBOUND:                -0.820
REMARK SMILES Cc1ccncc1/C=C/Nc1ccc(CCCN)cc1
REMARK SMILES IDX 14 1 13 2 12 3 11 4 20 5 19 6 15 7 16 8 17 9 18 10 10 13
REMARK SMILES IDX 9 15 8 16 7 17 2 18 6 19 3 20 5 21 4 22 1 23
REMARK H PARENT 18 11 18 12 10 14
ROOT
ATOM      1  C   UNL     1      -6.580  -3.091   2.726  1.00  0.00    -0.048 A 
ATOM      2  C   UNL     1      -7.084  -4.350   2.395  1.00  0.00     0.006 A 
ATOM      3  C   UNL     1      -8.105  -4.927   3.144  1.00  0.00     0.026 A 
ATOM      4  C   UNL     1      -8.608  -4.311   4.292  1.00  0.00     0.038 A 
ATOM      5  C   UNL     1      -8.065  -3.074   4.659  1.00  0.00     0.026 A 
ATOM      6  C   UNL     1      -7.062  -2.470   3.885  1.00  0.00     0.006 A 
ENDROOT
BRANCH   1   7
ATOM      7  C   UNL     1      -5.546  -2.412   1.864  1.00  0.00     0.037 C 
BRANCH   7   8
ATOM      8  C   UNL     1      -4.522  -1.516   2.588  1.00  0.00     0.020 C 
BRANCH   8   9
ATOM      9  C   UNL     1      -3.639  -0.639   1.688  1.00  0.00     0.078 C 
BRANCH   9  10
ATOM     10  N   UNL     1      -2.904   0.409   2.380  1.00  0.00    -0.330 NA
ATOM     11  H   UNL     1      -2.780   1.212   1.765  1.00  0.00     0.118 HD
ATOM     12  H   UNL     1      -1.961   0.089   2.604  1.00  0.00     0.118 HD
ENDBRANCH   9  10
ENDBRANCH   8   9
ENDBRANCH   7   8
ENDBRANCH   1   7
BRANCH   4  13
ATOM     13  N   UNL     1      -9.556  -4.942   5.121  1.00  0.00    -0.362 N 
ATOM     14  H   UNL     1     -10.394  -4.416   5.334  1.00  0.00     0.166 HD
BRANCH  13  15
ATOM     15  C   UNL     1      -9.323  -6.075   5.854  1.00  0.00     0.083 C 
BRANCH  15  16
ATOM     16  C   UNL     1      -9.111  -6.203   7.170  1.00  0.00     0.027 C 
BRANCH  16  17
ATOM     17  C   UNL     1     -10.181  -6.648   8.075  1.00  0.00    -0.003 A 
ATOM     18  C   UNL     1     -10.199  -6.317   9.442  1.00  0.00    -0.041 A 
ATOM     19  C   UNL     1     -11.223  -7.464   7.611  1.00  0.00     0.119 A 
ATOM     20  C   UNL     1     -11.246  -6.804  10.239  1.00  0.00     0.024 A 
ATOM     21  N   UNL     1     -12.250  -7.927   8.362  1.00  0.00    -0.264 NA
ATOM     22  C   UNL     1     -12.237  -7.582   9.661  1.00  0.00     0.111 A 
ATOM     23  C   UNL     1      -9.118  -5.495  10.085  1.00  0.00     0.045 C 
ENDBRANCH  16  17
ENDBRANCH  15  16
ENDBRANCH  13  15
ENDBRANCH   4  13
TORSDOF 8
ENDMDL
MODEL 3
REMARK VINA RESULT:    -4.942      1.390      2.164
REMARK INTER + INTRA:          -7.928
REMARK INTER:                  -7.319
REMARK INTRA:                  -0.609
REMARK UNBOUND:                -0.820
REMARK SMILES Cc1ccncc1/C=C/Nc1ccc(CCCN)cc1
REMARK SMILES IDX 14 1 13 2 12 3 11 4 20 5 19 6 15 7 16 8 17 9 18 10 10 13
REMARK SMILES IDX 9 15 8 16 7 17 2 18 6 19 3 20 5 21 4 22 1 23
REMARK H PARENT 18 11 18 12 10 14
ROOT
ATOM      1  C   UNL     1     -10.305  -6.979   8.597  1.00  0.00    -0.048 A 
ATOM      2  C   UNL     1     -11.218  -7.065   7.544  1.00  0.00     0.006 A 
ATOM      3  C   UNL     1     -10.851  -6.693   6.254  1.00  0.00     0.026 A 
ATOM      4  C   UNL     1      -9.593  -6.151   5.978  1.00  0.00     0.038 A 
ATOM      5  C   UNL     1      -8.696  -6.012   7.043  1.00  0.00     0.026 A 
ATOM      6  C   UNL     1      -9.047  -6.421   8.339  1.00  0.00     0.006 A 
ENDROOT
BRANCH   1   7
ATOM      7  C   UNL     1     -10.658  -7.473   9.978  1.00  0.00     0.037 C 
BRANCH   7   8
ATOM      8  C   UNL     1     -10.615  -6.435  11.115  1.00  0.00     0.020 C 
BRANCH   8   9
ATOM      9  C   UNL     1     -11.843  -5.521  11.240  1.00  0.00     0.078 C 
BRANCH   9  10
ATOM     10  N   UNL     1     -11.711  -4.221  10.598  1.00  0.00    -0.330 NA
ATOM     11  H   UNL     1     -11.822  -3.479  11.287  1.00  0.00     0.118 HD
ATOM     12  H   UNL     1     -12.464  -4.084   9.924  1.00  0.00     0.118 HD
ENDBRANCH   9  10
ENDBRANCH   8   9
ENDBRANCH   7   8
ENDBRANCH   1   7
BRANCH   4  13
ATOM     13  N   UNL     1      -9.257  -5.663   4.700  1.00  0.00    -0.362 N 
ATOM     14  H   UNL     1      -8.858  -6.329   4.050  1.00  0.00     0.166 HD
BRANCH  13  15
ATOM     15  C   UNL     1      -9.187  -4.337   4.363  1.00  0.00     0.083 C 
BRANCH  15  16
ATOM     16  C   UNL     1      -8.122  -3.614   3.993  1.00  0.00     0.027 C 
BRANCH  16  17
ATOM     17  C   UNL     1      -7.249  -4.051   2.893  1.00  0.00    -0.003 A 
ATOM     18  C   UNL     1      -5.999  -3.457   2.640  1.00  0.00    -0.041 A 
ATOM     19  C   UNL     1      -7.652  -5.068   2.015  1.00  0.00     0.119 A 
ATOM     20  C   UNL     1      -5.241  -3.919   1.554  1.00  0.00     0.024 A 
ATOM     21  N   UNL     1      -6.925  -5.538   0.974  1.00  0.00    -0.264 NA
ATOM     22  C   UNL     1      -5.732  -4.951   0.771  1.00  0.00     0.111 A 
ATOM     23  C   UNL     1      -5.467  -2.321   3.468  1.00  0.00     0.045 C 
ENDBRANCH  16  17
ENDBRANCH  15  16
ENDBRANCH  13  15
ENDBRANCH   4  13
TORSDOF 8
ENDMDL
MODEL 4
REMARK VINA RESULT:    -4.877      2.352      8.251
REMARK INTER + INTRA:          -7.835
REMARK INTER:                  -7.313
REMARK INTRA:                  -0.522
REMARK UNBOUND:                -0.820
REMARK SMILES Cc1ccncc1/C=C/Nc1ccc(CCCN)cc1
REMARK SMILES IDX 14 1 13 2 12 3 11 4 20 5 19 6 15 7 16 8 17 9 18 10 10 13
REMARK SMILES IDX 9 15 8 16 7 17 2 18 6 19 3 20 5 21 4 22 1 23
REMARK H PARENT 18 11 18 12 10 14
ROOT
ATOM      1  C   UNL     1      -5.545  -3.489   1.854  1.00  0.00    -0.048 A 
ATOM      2  C   UNL     1      -6.396  -4.561   1.576  1.00  0.00     0.006 A 
ATOM      3  C   UNL     1      -7.569  -4.743   2.304  1.00  0.00     0.026 A 
ATOM      4  C   UNL     1      -7.899  -3.916   3.380  1.00  0.00     0.038 A 
ATOM      5  C   UNL     1      -7.017  -2.875   3.696  1.00  0.00     0.026 A 
ATOM      6  C   UNL     1      -5.853  -2.663   2.942  1.00  0.00     0.006 A 
ENDROOT
BRANCH   1   7
ATOM      7  C   UNL     1      -4.325  -3.222   1.008  1.00  0.00     0.037 C 
BRANCH   7   8
ATOM      8  C   UNL     1      -2.982  -3.757   1.543  1.00  0.00     0.020 C 
BRANCH   8   9
ATOM      9  C   UNL     1      -2.893  -5.277   1.739  1.00  0.00     0.078 C 
BRANCH   9  10
ATOM     10  N   UNL     1      -2.542  -6.032   0.545  1.00  0.00    -0.330 NA
ATOM     11  H   UNL     1      -2.793  -7.013   0.666  1.00  0.00     0.118 HD
ATOM     12  H   UNL     1      -1.531  -6.025   0.409  1.00  0.00     0.118 HD
ENDBRANCH   9  10
ENDBRANCH   8   9
ENDBRANCH   7   8
ENDBRANCH   1   7
BRANCH   4  13
ATOM     13  N   UNL     1      -9.020  -4.166   4.194  1.00  0.00    -0.362 N 
ATOM     14  H   UNL     1      -9.820  -3.560   4.064  1.00  0.00     0.166 HD
BRANCH  13  15
ATOM     15  C   UNL     1      -9.020  -4.975   5.299  1.00  0.00     0.083 C 
BRANCH  15  16
ATOM     16  C   UNL     1      -9.659  -6.136   5.498  1.00  0.00     0.027 C 
BRANCH  16  17
ATOM     17  C   UNL     1     -10.099  -6.544   6.840  1.00  0.00    -0.003 A 
ATOM     18  C   UNL     1     -11.445  -6.812   7.144  1.00  0.00    -0.041 A 
ATOM     19  C   UNL     1      -9.182  -6.647   7.897  1.00  0.00     0.119 A 
ATOM     20  C   UNL     1     -11.781  -7.173   8.458  1.00  0.00     0.024 A 
ATOM     21  N   UNL     1      -9.485  -7.011   9.165  1.00  0.00    -0.264 NA
ATOM     22  C   UNL     1     -10.782  -7.268   9.414  1.00  0.00     0.111 A 
ATOM     23  C   UNL     1     -12.540  -6.689   6.122  1.00  0.00     0.045 C 
ENDBRANCH  16  17
ENDBRANCH  15  16
ENDBRANCH  13  15
ENDBRANCH   4  13
TORSDOF 8
ENDMDL
MODEL 5
REMARK VINA RESULT:    -4.783      1.634      1.788
REMARK INTER + INTRA:          -7.700
REMARK INTER:                  -7.009
REMARK INTRA:                  -0.691
REMARK UNBOUND:                -0.820
REMARK SMILES Cc1ccncc1/C=C/Nc1ccc(CCCN)cc1
REMARK SMILES IDX 14 1 13 2 12 3 11 4 20 5 19 6 15 7 16 8 17 9 18 10 10 13
REMARK SMILES IDX 9 15 8 16 7 17 2 18 6 19 3 20 5 21 4 22 1 23
REMARK H PARENT 18 11 18 12 10 14
ROOT
ATOM      1  C   UNL     1     -10.757  -7.107   8.423  1.00  0.00    -0.048 A 
ATOM      2  C   UNL     1     -11.437  -7.006   7.208  1.00  0.00     0.006 A 
ATOM      3  C   UNL     1     -10.787  -6.550   6.065  1.00  0.00     0.026 A 
ATOM      4  C   UNL     1      -9.463  -6.104   6.105  1.00  0.00     0.038 A 
ATOM      5  C   UNL     1      -8.797  -6.151   7.336  1.00  0.00     0.026 A 
ATOM      6  C   UNL     1      -9.436  -6.646   8.482  1.00  0.00     0.006 A 
ENDROOT
BRANCH   1   7
ATOM      7  C   UNL     1     -11.422  -7.694   9.643  1.00  0.00     0.037 C 
BRANCH   7   8
ATOM      8  C   UNL     1     -10.494  -8.127  10.795  1.00  0.00     0.020 C 
BRANCH   8   9
ATOM      9  C   UNL     1     -10.665  -9.570  11.291  1.00  0.00     0.078 C 
BRANCH   9  10
ATOM     10  N   UNL     1      -9.530 -10.446  11.040  1.00  0.00    -0.330 NA
ATOM     11  H   UNL     1      -9.236 -10.366  10.067  1.00  0.00     0.118 HD
ATOM     12  H   UNL     1      -9.803 -11.421  11.163  1.00  0.00     0.118 HD
ENDBRANCH   9  10
ENDBRANCH   8   9
ENDBRANCH   7   8
ENDBRANCH   1   7
BRANCH   4  13
ATOM     13  N   UNL     1      -8.837  -5.530   4.982  1.00  0.00    -0.362 N 
ATOM     14  H   UNL     1      -7.918  -5.883   4.745  1.00  0.00     0.166 HD
BRANCH  13  15
ATOM     15  C   UNL     1      -9.248  -4.383   4.357  1.00  0.00     0.083 C 
BRANCH  15  16
ATOM     16  C   UNL     1      -8.629  -3.667   3.410  1.00  0.00     0.027 C 
BRANCH  16  17
ATOM     17  C   UNL     1      -7.410  -2.899   3.709  1.00  0.00    -0.003 A 
ATOM     18  C   UNL     1      -6.193  -3.127   3.044  1.00  0.00    -0.041 A 
ATOM     19  C   UNL     1      -7.406  -1.919   4.713  1.00  0.00     0.119 A 
ATOM     20  C   UNL     1      -5.073  -2.366   3.409  1.00  0.00     0.024 A 
ATOM     21  N   UNL     1      -6.340  -1.164   5.065  1.00  0.00    -0.264 NA
ATOM     22  C   UNL     1      -5.196  -1.404   4.400  1.00  0.00     0.111 A 
ATOM     23  C   UNL     1      -6.040  -4.183   1.985  1.00  0.00     0.045 C 
ENDBRANCH  16  17
ENDBRANCH  15  16
ENDBRANCH  13  15
ENDBRANCH   4  13
TORSDOF 8
ENDMDL
MODEL 6
REMARK VINA RESULT:    -4.781      1.826      8.257
REMARK INTER + INTRA:          -7.696
REMARK INTER:                  -7.150
REMARK INTRA:                  -0.546
REMARK UNBOUND:                -0.820
REMARK SMILES Cc1ccncc1/C=C/Nc1ccc(CCCN)cc1
REMARK SMILES IDX 14 1 13 2 12 3 11 4 20 5 19 6 15 7 16 8 17 9 18 10 10 13
REMARK SMILES IDX 9 15 8 16 7 17 2 18 6 19 3 20 5 21 4 22 1 23
REMARK H PARENT 18 11 18 12 10 14
ROOT
ATOM      1  C   UNL     1      -5.698  -3.364   1.976  1.00  0.00    -0.048 A 
ATOM      2  C   UNL     1      -6.399  -4.526   1.648  1.00  0.00     0.006 A 
ATOM      3  C   UNL     1      -7.583  -4.851   2.304  1.00  0.00     0.026 A 
ATOM      4  C   UNL     1      -8.071  -4.076   3.359  1.00  0.00     0.038 A 
ATOM      5  C   UNL     1      -7.339  -2.941   3.727  1.00  0.00     0.026 A 
ATOM      6  C   UNL     1      -6.165  -2.588   3.044  1.00  0.00     0.006 A 
ENDROOT
BRANCH   1   7
ATOM      7  C   UNL     1      -4.469  -2.950   1.205  1.00  0.00     0.037 C 
BRANCH   7   8
ATOM      8  C   UNL     1      -3.475  -2.025   1.933  1.00  0.00     0.020 C 
BRANCH   8   9
ATOM      9  C   UNL     1      -3.371  -0.590   1.395  1.00  0.00     0.078 C 
BRANCH   9  10
ATOM     10  N   UNL     1      -2.901   0.396   2.358  1.00  0.00    -0.330 NA
ATOM     11  H   UNL     1      -2.425   1.156   1.874  1.00  0.00     0.118 HD
ATOM     12  H   UNL     1      -2.201  -0.019   2.972  1.00  0.00     0.118 HD
ENDBRANCH   9  10
ENDBRANCH   8   9
ENDBRANCH   7   8
ENDBRANCH   1   7
BRANCH   4  13
ATOM     13  N   UNL     1      -9.201  -4.462   4.105  1.00  0.00    -0.362 N 
ATOM     14  H   UNL     1     -10.086  -4.054   3.831  1.00  0.00     0.166 HD
BRANCH  13  15
ATOM     15  C   UNL     1      -9.160  -5.126   5.302  1.00  0.00     0.083 C 
BRANCH  15  16
ATOM     16  C   UNL     1      -9.638  -6.338   5.614  1.00  0.00     0.027 C 
BRANCH  16  17
ATOM     17  C   UNL     1     -10.138  -6.635   6.965  1.00  0.00    -0.003 A 
ATOM     18  C   UNL     1     -11.503  -6.831   7.238  1.00  0.00    -0.041 A 
ATOM     19  C   UNL     1      -9.261  -6.698   8.059  1.00  0.00     0.119 A 
ATOM     20  C   UNL     1     -11.895  -7.087   8.561  1.00  0.00     0.024 A 
ATOM     21  N   UNL     1      -9.620  -6.960   9.337  1.00  0.00    -0.264 NA
ATOM     22  C   UNL     1     -10.933  -7.152   9.556  1.00  0.00     0.111 A 
ATOM     23  C   UNL     1     -12.558  -6.740   6.172  1.00  0.00     0.045 C 
ENDBRANCH  16  17
ENDBRANCH  15  16
ENDBRANCH  13  15
ENDBRANCH   4  13
TORSDOF 8
ENDMDL
MODEL 7
REMARK VINA RESULT:    -4.758      2.418      8.384
REMARK INTER + INTRA:          -7.664
REMARK INTER:                  -7.176
REMARK INTRA:                  -0.488
REMARK UNBOUND:                -0.820
REMARK SMILES Cc1ccncc1/C=C/Nc1ccc(CCCN)cc1
REMARK SMILES IDX 14 1 13 2 12 3 11 4 20 5 19 6 15 7 16 8 17 9 18 10 10 13
REMARK SMILES IDX 9 15 8 16 7 17 2 18 6 19 3 20 5 21 4 22 1 23
REMARK H PARENT 18 11 18 12 10 14
ROOT
ATOM      1  C   UNL     1      -5.945  -3.713   1.886  1.00  0.00    -0.048 A 
ATOM      2  C   UNL     1      -6.255  -2.888   2.969  1.00  0.00     0.006 A 
ATOM      3  C   UNL     1      -7.311  -3.200   3.820  1.00  0.00     0.026 A 
ATOM      4  C   UNL     1      -8.143  -4.296   3.583  1.00  0.00     0.038 A 
ATOM      5  C   UNL     1      -7.869  -5.092   2.464  1.00  0.00     0.026 A 
ATOM      6  C   UNL     1      -6.782  -4.805   1.625  1.00  0.00     0.006 A 
ENDROOT
BRANCH   1   7
ATOM      7  C   UNL     1      -4.742  -3.441   1.017  1.00  0.00     0.037 C 
BRANCH   7   8
ATOM      8  C   UNL     1      -3.383  -3.945   1.540  1.00  0.00     0.020 C 
BRANCH   8   9
ATOM      9  C   UNL     1      -3.251  -5.464   1.718  1.00  0.00     0.078 C 
BRANCH   9  10
ATOM     10  N   UNL     1      -2.532  -6.149   0.654  1.00  0.00    -0.330 NA
ATOM     11  H   UNL     1      -3.103  -6.904   0.276  1.00  0.00     0.118 HD
ATOM     12  H   UNL     1      -1.696  -6.599   1.027  1.00  0.00     0.118 HD
ENDBRANCH   9  10
ENDBRANCH   8   9
ENDBRANCH   7   8
ENDBRANCH   1   7
BRANCH   4  13
ATOM     13  N   UNL     1      -9.284  -4.550   4.369  1.00  0.00    -0.362 N 
ATOM     14  H   UNL     1     -10.125  -4.042   4.127  1.00  0.00     0.166 HD
BRANCH  13  15
ATOM     15  C   UNL     1      -9.276  -5.216   5.566  1.00  0.00     0.083 C 
BRANCH  15  16
ATOM     16  C   UNL     1      -9.709  -6.452   5.849  1.00  0.00     0.027 C 
BRANCH  16  17
ATOM     17  C   UNL     1     -10.948  -6.669   6.612  1.00  0.00    -0.003 A 
ATOM     18  C   UNL     1     -10.944  -7.006   7.977  1.00  0.00    -0.041 A 
ATOM     19  C   UNL     1     -12.202  -6.583   5.988  1.00  0.00     0.119 A 
ATOM     20  C   UNL     1     -12.171  -7.219   8.622  1.00  0.00     0.024 A 
ATOM     21  N   UNL     1     -13.395  -6.768   6.599  1.00  0.00    -0.264 NA
ATOM     22  C   UNL     1     -13.350  -7.079   7.907  1.00  0.00     0.111 A 
ATOM     23  C   UNL     1      -9.672  -7.184   8.758  1.00  0.00     0.045 C 
ENDBRANCH  16  17
ENDBRANCH  15  16
ENDBRANCH  13  15
ENDBRANCH   4  13
TORSDOF 8
ENDMDL
MODEL 8
REMARK VINA RESULT:    -4.430      4.205      6.047
REMARK INTER + INTRA:          -7.192
REMARK INTER:                  -6.395
REMARK INTRA:                  -0.797
REMARK UNBOUND:                -0.820
REMARK SMILES Cc1ccncc1/C=C/Nc1ccc(CCCN)cc1
REMARK SMILES IDX 14 1 13 2 12 3 11 4 20 5 19 6 15 7 16 8 17 9 18 10 10 13
REMARK SMILES IDX 9 15 8 16 7 17 2 18 6 19 3 20 5 21 4 22 1 23
REMARK H PARENT 18 11 18 12 10 14
ROOT
ATOM      1  C   UNL     1      -9.955  -2.945   3.363  1.00  0.00    -0.048 A 
ATOM      2  C   UNL     1      -9.783  -3.982   4.281  1.00  0.00     0.006 A 
ATOM      3  C   UNL     1      -8.537  -4.577   4.456  1.00  0.00     0.026 A 
ATOM      4  C   UNL     1      -7.438  -4.218   3.671  1.00  0.00     0.038 A 
ATOM      5  C   UNL     1      -7.623  -3.217   2.710  1.00  0.00     0.026 A 
ATOM      6  C   UNL     1      -8.868  -2.587   2.557  1.00  0.00     0.006 A 
ENDROOT
BRANCH   1   7
ATOM      7  C   UNL     1     -11.274  -2.225   3.237  1.00  0.00     0.037 C 
BRANCH   7   8
ATOM      8  C   UNL     1     -11.531  -1.478   1.914  1.00  0.00     0.020 C 
BRANCH   8   9
ATOM      9  C   UNL     1     -12.990  -1.440   1.434  1.00  0.00     0.078 C 
BRANCH   9  10
ATOM     10  N   UNL     1     -13.480  -2.682   0.855  1.00  0.00    -0.330 NA
ATOM     11  H   UNL     1     -14.485  -2.763   1.002  1.00  0.00     0.118 HD
ATOM     12  H   UNL     1     -13.068  -3.481   1.337  1.00  0.00     0.118 HD
ENDBRANCH   9  10
ENDBRANCH   8   9
ENDBRANCH   7   8
ENDBRANCH   1   7
BRANCH   4  13
ATOM     13  N   UNL     1      -6.207  -4.896   3.759  1.00  0.00    -0.362 N 
ATOM     14  H   UNL     1      -6.079  -5.503   4.559  1.00  0.00     0.166 HD
BRANCH  13  15
ATOM     15  C   UNL     1      -5.099  -4.608   3.007  1.00  0.00     0.083 C 
BRANCH  15  16
ATOM     16  C   UNL     1      -4.007  -3.908   3.343  1.00  0.00     0.027 C 
BRANCH  16  17
ATOM     17  C   UNL     1      -3.688  -2.631   2.687  1.00  0.00    -0.003 A 
ATOM     18  C   UNL     1      -4.209  -1.404   3.133  1.00  0.00    -0.041 A 
ATOM     19  C   UNL     1      -2.870  -2.592   1.548  1.00  0.00     0.119 A 
ATOM     20  C   UNL     1      -3.872  -0.235   2.434  1.00  0.00     0.024 A 
ATOM     21  N   UNL     1      -2.521  -1.472   0.872  1.00  0.00    -0.264 NA
ATOM     22  C   UNL     1      -3.030  -0.317   1.336  1.00  0.00     0.111 A 
ATOM     23  C   UNL     1      -5.141  -1.304   4.307  1.00  0.00     0.045 C 
ENDBRANCH  16  17
ENDBRANCH  15  16
ENDBRANCH  13  15
ENDBRANCH   4  13
TORSDOF 8
ENDMDL
MODEL 9
REMARK VINA RESULT:    -4.236      2.153      3.544
REMARK INTER + INTRA:          -6.913
REMARK INTER:                  -6.224
REMARK INTRA:                  -0.688
REMARK UNBOUND:                -0.820
REMARK SMILES Cc1ccncc1/C=C/Nc1ccc(CCCN)cc1
REMARK SMILES IDX 14 1 13 2 12 3 11 4 20 5 19 6 15 7 16 8 17 9 18 10 10 13
REMARK SMILES IDX 9 15 8 16 7 17 2 18 6 19 3 20 5 21 4 22 1 23
REMARK H PARENT 18 11 18 12 10 14
ROOT
ATOM      1  C   UNL     1      -9.755  -5.835   5.677  1.00  0.00    -0.048 A 
ATOM      2  C   UNL     1      -8.402  -6.126   5.488  1.00  0.00     0.006 A 
ATOM      3  C   UNL     1      -7.598  -5.293   4.715  1.00  0.00     0.026 A 
ATOM      4  C   UNL     1      -8.124  -4.189   4.039  1.00  0.00     0.038 A 
ATOM      5  C   UNL     1      -9.492  -3.929   4.182  1.00  0.00     0.026 A 
ATOM      6  C   UNL     1     -10.299  -4.743   4.991  1.00  0.00     0.006 A 
ENDROOT
BRANCH   1   7
ATOM      7  C   UNL     1     -10.612  -6.672   6.594  1.00  0.00     0.037 C 
BRANCH   7   8
ATOM      8  C   UNL     1     -10.135  -6.809   8.053  1.00  0.00     0.020 C 
BRANCH   8   9
ATOM      9  C   UNL     1     -11.237  -6.834   9.122  1.00  0.00     0.078 C 
BRANCH   9  10
ATOM     10  N   UNL     1     -11.422  -5.584   9.844  1.00  0.00    -0.330 NA
ATOM     11  H   UNL     1     -11.988  -4.942   9.291  1.00  0.00     0.118 HD
ATOM     12  H   UNL     1     -10.524  -5.116   9.972  1.00  0.00     0.118 HD
ENDBRANCH   9  10
ENDBRANCH   8   9
ENDBRANCH   7   8
ENDBRANCH   1   7
BRANCH   4  13
ATOM     13  N   UNL     1      -7.343  -3.413   3.161  1.00  0.00    -0.362 N 
ATOM     14  H   UNL     1      -7.148  -3.814   2.252  1.00  0.00     0.166 HD
BRANCH  13  15
ATOM     15  C   UNL     1      -6.628  -2.302   3.523  1.00  0.00     0.083 C 
BRANCH  15  16
ATOM     16  C   UNL     1      -5.337  -2.203   3.867  1.00  0.00     0.027 C 
BRANCH  16  17
ATOM     17  C   UNL     1      -4.287  -2.878   3.089  1.00  0.00    -0.003 A 
ATOM     18  C   UNL     1      -3.526  -2.212   2.112  1.00  0.00    -0.041 A 
ATOM     19  C   UNL     1      -4.027  -4.245   3.267  1.00  0.00     0.119 A 
ATOM     20  C   UNL     1      -2.560  -2.939   1.399  1.00  0.00     0.024 A 
ATOM     21  N   UNL     1      -3.088  -4.957   2.601  1.00  0.00    -0.264 NA
ATOM     22  C   UNL     1      -2.374  -4.283   1.683  1.00  0.00     0.111 A 
ATOM     23  C   UNL     1      -3.735  -0.762   1.780  1.00  0.00     0.045 C 
ENDBRANCH  16  17
ENDBRANCH  15  16
ENDBRANCH  13  15
ENDBRANCH   4  13
TORSDOF 8
ENDMDL
