MODEL 1
REMARK VINA RESULT:    -5.351      0.000      0.000
REMARK INTER + INTRA:          -8.360
REMARK INTER:                  -7.697
REMARK INTRA:                  -0.663
REMARK UNBOUND:                -0.663
REMARK SMILES Cc1ccncc1/C=C/Nc1ccc(CCCN)cc1
REMARK SMILES IDX 14 1 13 2 12 3 11 4 20 5 19 6 15 7 16 8 17 9 18 10 10 13
REMARK SMILES IDX 9 15 8 16 7 17 2 18 6 19 3 20 5 21 4 22 1 23
REMARK H PARENT 18 11 18 12 10 14
ROOT
ATOM      1  C   UNL     1      -3.723   1.746  15.381  1.00  0.00    -0.048 A 
ATOM      2  C   UNL     1      -2.443   1.291  15.707  1.00  0.00     0.006 A 
ATOM      3  C   UNL     1      -1.581   0.827  14.717  1.00  0.00     0.026 A 
ATOM      4  C   UNL     1      -1.985   0.725  13.384  1.00  0.00     0.038 A 
ATOM      5  C   UNL     1      -3.287   1.127  13.065  1.00  0.00     0.026 A 
ATOM      6  C   UNL     1      -4.147   1.632  14.052  1.00  0.00     0.006 A 
ENDROOT
BRANCH   1   7
ATOM      7  C   UNL     1      -4.628   2.345  16.428  1.00  0.00     0.037 C 
BRANCH   7   8
ATOM      8  C   UNL     1      -5.616   3.427  15.951  1.00  0.00     0.020 C 
BRANCH   8   9
ATOM      9  C   UNL     1      -5.616   4.738  16.750  1.00  0.00     0.078 C 
BRANCH   9  10
ATOM     10  N   UNL     1      -5.801   5.943  15.954  1.00  0.00    -0.330 NA
ATOM     11  H   UNL     1      -5.351   6.735  16.411  1.00  0.00     0.118 HD
ATOM     12  H   UNL     1      -6.791   6.183  15.904  1.00  0.00     0.118 HD
ENDBRANCH   9  10
ENDBRANCH   8   9
ENDBRANCH   7   8
ENDBRANCH   1   7
BRANCH   4  13
ATOM     13  N   UNL     1      -1.161   0.146  12.399  1.00  0.00    -0.362 N 
ATOM     14  H   UNL     1      -0.800   0.767  11.686  1.00  0.00     0.166 HD
BRANCH  13  15
ATOM     15  C   UNL     1      -1.025  -1.200  12.185  1.00  0.00     0.083 C 
BRANCH  15  16
ATOM     16  C   UNL     1      -0.443  -1.839  11.162  1.00  0.00     0.027 C 
BRANCH  16  17
ATOM     17  C   UNL     1      -1.157  -2.057   9.895  1.00  0.00    -0.003 A 
ATOM     18  C   UNL     1      -0.730  -1.489   8.681  1.00  0.00    -0.041 A 
ATOM     19  C   UNL     1      -2.332  -2.822   9.853  1.00  0.00     0.119 A 
ATOM     20  C   UNL     1      -1.484  -1.729   7.523  1.00  0.00     0.024 A 
ATOM     21  N   UNL     1      -3.061  -3.078   8.742  1.00  0.00    -0.264 NA
ATOM     22  C   UNL     1      -2.615  -2.526   7.600  1.00  0.00     0.111 A 
ATOM     23  C   UNL     1       0.482  -0.604   8.589  1.00  0.00     0.045 C 
ENDBRANCH  16  17
ENDBRANCH  15  16
ENDBRANCH  13  15
ENDBRANCH   4  13
TORSDOF 8
ENDMDL
MODEL 2
REMARK VINA RESULT:    -5.345      5.129      8.446
REMARK INTER + INTRA:          -8.351
REMARK INTER:                  -7.675
REMARK INTRA:                  -0.676
REMARK UNBOUND:                -0.663
REMARK SMILES Cc1ccncc1/C=C/Nc1ccc(CCCN)cc1
REMARK SMILES IDX 14 1 13 2 12 3 11 4 20 5 19 6 15 7 16 8 17 9 18 10 10 13
REMARK SMILES IDX 9 15 8 16 7 17 2 18 6 19 3 20 5 21 4 22 1 23
REMARK H PARENT 18 11 18 12 10 14
ROOT
ATOM      1  C   UNL     1       1.740  -5.799  15.017  1.00  0.00    -0.048 A 
ATOM      2  C   UNL     1       0.439  -5.318  15.178  1.00  0.00     0.006 A 
ATOM      3  C   UNL     1      -0.192  -4.617  14.154  1.00  0.00     0.026 A 
ATOM      4  C   UNL     1       0.473  -4.302  12.967  1.00  0.00     0.038 A 
ATOM      5  C   UNL     1       1.797  -4.734  12.826  1.00  0.00     0.026 A 
ATOM      6  C   UNL     1       2.424  -5.474  13.840  1.00  0.00     0.006 A 
ENDROOT
BRANCH   1   7
ATOM      7  C   UNL     1       2.396  -6.646  16.079  1.00  0.00     0.037 C 
BRANCH   7   8
ATOM      8  C   UNL     1       3.540  -7.570  15.617  1.00  0.00     0.020 C 
BRANCH   8   9
ATOM      9  C   UNL     1       3.385  -9.058  15.966  1.00  0.00     0.078 C 
BRANCH   9  10
ATOM     10  N   UNL     1       3.795  -9.981  14.918  1.00  0.00    -0.330 NA
ATOM     11  H   UNL     1       2.974 -10.384  14.467  1.00  0.00     0.118 HD
ATOM     12  H   UNL     1       4.299 -10.771  15.322  1.00  0.00     0.118 HD
ENDBRANCH   9  10
ENDBRANCH   8   9
ENDBRANCH   7   8
ENDBRANCH   1   7
BRANCH   4  13
ATOM     13  N   UNL     1      -0.117  -3.492  11.977  1.00  0.00    -0.362 N 
ATOM     14  H   UNL     1      -0.124  -3.860  11.034  1.00  0.00     0.166 HD
BRANCH  13  15
ATOM     15  C   UNL     1      -0.439  -2.170  12.137  1.00  0.00     0.083 C 
BRANCH  15  16
ATOM     16  C   UNL     1      -0.871  -1.289  11.225  1.00  0.00     0.027 C 
BRANCH  16  17
ATOM     17  C   UNL     1       0.009  -0.816  10.146  1.00  0.00    -0.003 A 
ATOM     18  C   UNL     1      -0.236  -1.106   8.792  1.00  0.00    -0.041 A 
ATOM     19  C   UNL     1       1.165  -0.075  10.433  1.00  0.00     0.119 A 
ATOM     20  C   UNL     1       0.669  -0.635   7.828  1.00  0.00     0.024 A 
ATOM     21  N   UNL     1       2.038   0.401   9.514  1.00  0.00    -0.264 NA
ATOM     22  C   UNL     1       1.765   0.111   8.230  1.00  0.00     0.111 A 
ATOM     23  C   UNL     1      -1.407  -1.934   8.345  1.00  0.00     0.045 C 
ENDBRANCH  16  17
ENDBRANCH  15  16
ENDBRANCH  13  15
ENDBRANCH   4  13
TORSDOF 8
ENDMDL
MODEL 3
REMARK VINA RESULT:    -5.266      1.463      2.235
REMARK INTER + INTRA:          -8.238
REMARK INTER:                  -7.668
REMARK INTRA:                  -0.570
REMARK UNBOUND:                -0.663
REMARK SMILES Cc1ccncc1/C=C/Nc1ccc(CCCN)cc1
REMARK SMILES IDX 14 1 13 2 12 3 11 4 20 5 19 6 15 7 16 8 17 9 18 10 10 13
REMARK SMILES IDX 9 15 8 16 7 17 2 18 6 19 3 20 5 21 4 22 1 23
REMARK H PARENT 18 11 18 12 10 14
ROOT
ATOM      1  C   UNL     1      -3.767   1.831  15.629  1.00  0.00    -0.048 A 
ATOM      2  C   UNL     1      -2.585   1.223  16.055  1.00  0.00     0.006 A 
ATOM      3  C   UNL     1      -1.681   0.704  15.132  1.00  0.00     0.026 A 
ATOM      4  C   UNL     1      -1.954   0.700  13.762  1.00  0.00     0.038 A 
ATOM      5  C   UNL     1      -3.166   1.258  13.338  1.00  0.00     0.026 A 
ATOM      6  C   UNL     1      -4.063   1.818  14.260  1.00  0.00     0.006 A 
ENDROOT
BRANCH   1   7
ATOM      7  C   UNL     1      -4.706   2.487  16.611  1.00  0.00     0.037 C 
BRANCH   7   8
ATOM      8  C   UNL     1      -5.660   3.557  16.048  1.00  0.00     0.020 C 
BRANCH   8   9
ATOM      9  C   UNL     1      -5.650   4.914  16.767  1.00  0.00     0.078 C 
BRANCH   9  10
ATOM     10  N   UNL     1      -5.802   6.072  15.898  1.00  0.00    -0.330 NA
ATOM     11  H   UNL     1      -5.511   5.837  14.950  1.00  0.00     0.118 HD
ATOM     12  H   UNL     1      -5.177   6.821  16.197  1.00  0.00     0.118 HD
ENDBRANCH   9  10
ENDBRANCH   8   9
ENDBRANCH   7   8
ENDBRANCH   1   7
BRANCH   4  13
ATOM     13  N   UNL     1      -1.101   0.071  12.835  1.00  0.00    -0.362 N 
ATOM     14  H   UNL     1      -0.112   0.262  12.926  1.00  0.00     0.166 HD
BRANCH  13  15
ATOM     15  C   UNL     1      -1.517  -0.556  11.690  1.00  0.00     0.083 C 
BRANCH  15  16
ATOM     16  C   UNL     1      -0.842  -1.395  10.893  1.00  0.00     0.027 C 
BRANCH  16  17
ATOM     17  C   UNL     1       0.012  -0.893   9.806  1.00  0.00    -0.003 A 
ATOM     18  C   UNL     1      -0.254  -1.163   8.452  1.00  0.00    -0.041 A 
ATOM     19  C   UNL     1       1.165  -0.145  10.084  1.00  0.00     0.119 A 
ATOM     20  C   UNL     1       0.626  -0.665   7.479  1.00  0.00     0.024 A 
ATOM     21  N   UNL     1       2.015   0.358   9.158  1.00  0.00    -0.264 NA
ATOM     22  C   UNL     1       1.721   0.087   7.874  1.00  0.00     0.111 A 
ATOM     23  C   UNL     1      -1.425  -1.997   8.013  1.00  0.00     0.045 C 
ENDBRANCH  16  17
ENDBRANCH  15  16
ENDBRANCH  13  15
ENDBRANCH   4  13
TORSDOF 8
ENDMDL
MODEL 4
REMARK VINA RESULT:    -5.260      5.292      8.227
REMARK INTER + INTRA:          -8.229
REMARK INTER:                  -7.650
REMARK INTRA:                  -0.579
REMARK UNBOUND:                -0.663
REMARK SMILES Cc1ccncc1/C=C/Nc1ccc(CCCN)cc1
REMARK SMILES IDX 14 1 13 2 12 3 11 4 20 5 19 6 15 7 16 8 17 9 18 10 10 13
REMARK SMILES IDX 9 15 8 16 7 17 2 18 6 19 3 20 5 21 4 22 1 23
REMARK H PARENT 18 11 18 12 10 14
ROOT
ATOM      1  C   UNL     1       1.869  -5.868  15.238  1.00  0.00    -0.048 A 
ATOM      2  C   UNL     1       0.589  -5.437  15.590  1.00  0.00     0.006 A 
ATOM      3  C   UNL     1      -0.209  -4.759  14.672  1.00  0.00     0.026 A 
ATOM      4  C   UNL     1       0.263  -4.418  13.403  1.00  0.00     0.038 A 
ATOM      5  C   UNL     1       1.568  -4.800  13.069  1.00  0.00     0.026 A 
ATOM      6  C   UNL     1       2.363  -5.517  13.976  1.00  0.00     0.006 A 
ENDROOT
BRANCH   1   7
ATOM      7  C   UNL     1       2.704  -6.690  16.188  1.00  0.00     0.037 C 
BRANCH   7   8
ATOM      8  C   UNL     1       3.669  -7.712  15.555  1.00  0.00     0.020 C 
BRANCH   8   9
ATOM      9  C   UNL     1       3.423  -9.184  15.917  1.00  0.00     0.078 C 
BRANCH   9  10
ATOM     10  N   UNL     1       3.784 -10.141  14.881  1.00  0.00    -0.330 NA
ATOM     11  H   UNL     1       3.760  -9.691  13.966  1.00  0.00     0.118 HD
ATOM     12  H   UNL     1       3.092 -10.889  14.836  1.00  0.00     0.118 HD
ENDBRANCH   9  10
ENDBRANCH   8   9
ENDBRANCH   7   8
ENDBRANCH   1   7
BRANCH   4  13
ATOM     13  N   UNL     1      -0.493  -3.630  12.514  1.00  0.00    -0.362 N 
ATOM     14  H   UNL     1      -1.473  -3.865  12.420  1.00  0.00     0.166 HD
BRANCH  13  15
ATOM     15  C   UNL     1       0.034  -2.761  11.596  1.00  0.00     0.083 C 
BRANCH  15  16
ATOM     16  C   UNL     1      -0.567  -1.763  10.934  1.00  0.00     0.027 C 
BRANCH  16  17
ATOM     17  C   UNL     1      -1.209  -1.991   9.631  1.00  0.00    -0.003 A 
ATOM     18  C   UNL     1      -0.729  -1.413   8.442  1.00  0.00    -0.041 A 
ATOM     19  C   UNL     1      -2.367  -2.776   9.527  1.00  0.00     0.119 A 
ATOM     20  C   UNL     1      -1.417  -1.663   7.245  1.00  0.00     0.024 A 
ATOM     21  N   UNL     1      -3.032  -3.043   8.378  1.00  0.00    -0.264 NA
ATOM     22  C   UNL     1      -2.537  -2.480   7.262  1.00  0.00     0.111 A 
ATOM     23  C   UNL     1       0.470  -0.506   8.415  1.00  0.00     0.045 C 
ENDBRANCH  16  17
ENDBRANCH  15  16
ENDBRANCH  13  15
ENDBRANCH   4  13
TORSDOF 8
ENDMDL
MODEL 5
REMARK VINA RESULT:    -5.123      1.953      2.192
REMARK INTER + INTRA:          -8.032
REMARK INTER:                  -7.374
REMARK INTRA:                  -0.657
REMARK UNBOUND:                -0.663
REMARK SMILES Cc1ccncc1/C=C/Nc1ccc(CCCN)cc1
REMARK SMILES IDX 14 1 13 2 12 3 11 4 20 5 19 6 15 7 16 8 17 9 18 10 10 13
REMARK SMILES IDX 9 15 8 16 7 17 2 18 6 19 3 20 5 21 4 22 1 23
REMARK H PARENT 18 11 18 12 10 14
ROOT
ATOM      1  C   UNL     1      -3.838   1.526  14.869  1.00  0.00    -0.048 A 
ATOM      2  C   UNL     1      -2.603   1.186  15.425  1.00  0.00     0.006 A 
ATOM      3  C   UNL     1      -1.545   0.784  14.614  1.00  0.00     0.026 A 
ATOM      4  C   UNL     1      -1.698   0.631  13.234  1.00  0.00     0.038 A 
ATOM      5  C   UNL     1      -2.953   0.917  12.682  1.00  0.00     0.026 A 
ATOM      6  C   UNL     1      -4.012   1.359  13.490  1.00  0.00     0.006 A 
ENDROOT
BRANCH   1   7
ATOM      7  C   UNL     1      -4.959   2.058  15.726  1.00  0.00     0.037 C 
BRANCH   7   8
ATOM      8  C   UNL     1      -6.342   1.405  15.540  1.00  0.00     0.020 C 
BRANCH   8   9
ATOM      9  C   UNL     1      -6.724   0.330  16.569  1.00  0.00     0.078 C 
BRANCH   9  10
ATOM     10  N   UNL     1      -6.271  -1.016  16.249  1.00  0.00    -0.330 NA
ATOM     11  H   UNL     1      -5.253  -1.058  16.277  1.00  0.00     0.118 HD
ATOM     12  H   UNL     1      -6.528  -1.255  15.290  1.00  0.00     0.118 HD
ENDBRANCH   9  10
ENDBRANCH   8   9
ENDBRANCH   7   8
ENDBRANCH   1   7
BRANCH   4  13
ATOM     13  N   UNL     1      -0.670   0.112  12.424  1.00  0.00    -0.362 N 
ATOM     14  H   UNL     1       0.272   0.415  12.637  1.00  0.00     0.166 HD
BRANCH  13  15
ATOM     15  C   UNL     1      -0.865  -0.547  11.239  1.00  0.00     0.083 C 
BRANCH  15  16
ATOM     16  C   UNL     1       0.012  -0.801  10.259  1.00  0.00     0.027 C 
BRANCH  16  17
ATOM     17  C   UNL     1      -0.436  -1.263   8.936  1.00  0.00    -0.003 A 
ATOM     18  C   UNL     1       0.235  -0.918   7.750  1.00  0.00    -0.041 A 
ATOM     19  C   UNL     1      -1.591  -2.048   8.802  1.00  0.00     0.119 A 
ATOM     20  C   UNL     1      -0.275  -1.383   6.528  1.00  0.00     0.024 A 
ATOM     21  N   UNL     1      -2.087  -2.519   7.634  1.00  0.00    -0.264 NA
ATOM     22  C   UNL     1      -1.412  -2.176   6.522  1.00  0.00     0.111 A 
ATOM     23  C   UNL     1       1.454  -0.039   7.741  1.00  0.00     0.045 C 
ENDBRANCH  16  17
ENDBRANCH  15  16
ENDBRANCH  13  15
ENDBRANCH   4  13
TORSDOF 8
ENDMDL
MODEL 6
REMARK VINA RESULT:    -5.084      5.534      7.456
REMARK INTER + INTRA:          -7.976
REMARK INTER:                  -7.334
REMARK INTRA:                  -0.643
REMARK UNBOUND:                -0.663
REMARK SMILES Cc1ccncc1/C=C/Nc1ccc(CCCN)cc1
REMARK SMILES IDX 14 1 13 2 12 3 11 4 20 5 19 6 15 7 16 8 17 9 18 10 10 13
REMARK SMILES IDX 9 15 8 16 7 17 2 18 6 19 3 20 5 21 4 22 1 23
REMARK H PARENT 18 11 18 12 10 14
ROOT
ATOM      1  C   UNL     1       1.872  -5.449  14.587  1.00  0.00    -0.048 A 
ATOM      2  C   UNL     1       2.273  -5.082  13.301  1.00  0.00     0.006 A 
ATOM      3  C   UNL     1       1.395  -4.428  12.442  1.00  0.00     0.026 A 
ATOM      4  C   UNL     1       0.066  -4.186  12.799  1.00  0.00     0.038 A 
ATOM      5  C   UNL     1      -0.354  -4.604  14.067  1.00  0.00     0.026 A 
ATOM      6  C   UNL     1       0.538  -5.230  14.952  1.00  0.00     0.006 A 
ENDROOT
BRANCH   1   7
ATOM      7  C   UNL     1       2.843  -6.067  15.561  1.00  0.00     0.037 C 
BRANCH   7   8
ATOM      8  C   UNL     1       4.248  -5.437  15.630  1.00  0.00     0.020 C 
BRANCH   8   9
ATOM      9  C   UNL     1       4.563  -4.631  16.899  1.00  0.00     0.078 C 
BRANCH   9  10
ATOM     10  N   UNL     1       4.096  -3.252  16.883  1.00  0.00    -0.330 NA
ATOM     11  H   UNL     1       3.126  -3.209  17.192  1.00  0.00     0.118 HD
ATOM     12  H   UNL     1       4.095  -2.892  15.929  1.00  0.00     0.118 HD
ENDBRANCH   9  10
ENDBRANCH   8   9
ENDBRANCH   7   8
ENDBRANCH   1   7
BRANCH   4  13
ATOM     13  N   UNL     1      -0.859  -3.633  11.893  1.00  0.00    -0.362 N 
ATOM     14  H   UNL     1      -1.641  -4.220  11.627  1.00  0.00     0.166 HD
BRANCH  13  15
ATOM     15  C   UNL     1      -0.653  -2.494  11.161  1.00  0.00     0.083 C 
BRANCH  15  16
ATOM     16  C   UNL     1      -1.289  -2.068  10.061  1.00  0.00     0.027 C 
BRANCH  16  17
ATOM     17  C   UNL     1      -0.567  -1.380   8.981  1.00  0.00    -0.003 A 
ATOM     18  C   UNL     1      -0.958  -1.473   7.634  1.00  0.00    -0.041 A 
ATOM     19  C   UNL     1       0.582  -0.622   9.253  1.00  0.00     0.119 A 
ATOM     20  C   UNL     1      -0.197  -0.804   6.663  1.00  0.00     0.024 A 
ATOM     21  N   UNL     1       1.317   0.044   8.332  1.00  0.00    -0.264 NA
ATOM     22  C   UNL     1       0.905  -0.061   7.056  1.00  0.00     0.111 A 
ATOM     23  C   UNL     1      -2.137  -2.294   7.193  1.00  0.00     0.045 C 
ENDBRANCH  16  17
ENDBRANCH  15  16
ENDBRANCH  13  15
ENDBRANCH   4  13
TORSDOF 8
ENDMDL
MODEL 7
REMARK VINA RESULT:    -4.965      5.441      8.283
REMARK INTER + INTRA:          -7.805
REMARK INTER:                  -7.200
REMARK INTRA:                  -0.605
REMARK UNBOUND:                -0.663
REMARK SMILES Cc1ccncc1/C=C/Nc1ccc(CCCN)cc1
REMARK SMILES IDX 14 1 13 2 12 3 11 4 20 5 19 6 15 7 16 8 17 9 18 10 10 13
REMARK SMILES IDX 9 15 8 16 7 17 2 18 6 19 3 20 5 21 4 22 1 23
REMARK H PARENT 18 11 18 12 10 14
ROOT
ATOM      1  C   UNL     1      -0.577  -0.905   8.919  1.00  0.00    -0.048 A 
ATOM      2  C   UNL     1      -1.323  -2.048   9.213  1.00  0.00     0.006 A 
ATOM      3  C   UNL     1      -1.216  -2.668  10.454  1.00  0.00     0.026 A 
ATOM      4  C   UNL     1      -0.308  -2.223  11.418  1.00  0.00     0.038 A 
ATOM      5  C   UNL     1       0.482  -1.111  11.104  1.00  0.00     0.026 A 
ATOM      6  C   UNL     1       0.350  -0.459   9.869  1.00  0.00     0.006 A 
ENDROOT
BRANCH   1   7
ATOM      7  C   UNL     1      -0.759  -0.167   7.617  1.00  0.00     0.037 C 
BRANCH   7   8
ATOM      8  C   UNL     1       0.518   0.362   6.937  1.00  0.00     0.020 C 
BRANCH   8   9
ATOM      9  C   UNL     1       0.356   1.639   6.099  1.00  0.00     0.078 C 
BRANCH   9  10
ATOM     10  N   UNL     1       1.492   1.966   5.250  1.00  0.00    -0.330 NA
ATOM     11  H   UNL     1       2.249   2.351   5.813  1.00  0.00     0.118 HD
ATOM     12  H   UNL     1       1.239   2.704   4.592  1.00  0.00     0.118 HD
ENDBRANCH   9  10
ENDBRANCH   8   9
ENDBRANCH   7   8
ENDBRANCH   1   7
BRANCH   4  13
ATOM     13  N   UNL     1      -0.108  -2.915  12.628  1.00  0.00    -0.362 N 
ATOM     14  H   UNL     1      -0.124  -2.361  13.476  1.00  0.00     0.166 HD
BRANCH  13  15
ATOM     15  C   UNL     1       0.354  -4.201  12.727  1.00  0.00     0.083 C 
BRANCH  15  16
ATOM     16  C   UNL     1       1.576  -4.637  13.060  1.00  0.00     0.027 C 
BRANCH  16  17
ATOM     17  C   UNL     1       1.841  -5.224  14.383  1.00  0.00    -0.003 A 
ATOM     18  C   UNL     1       3.114  -5.197  14.979  1.00  0.00    -0.041 A 
ATOM     19  C   UNL     1       0.825  -5.879  15.096  1.00  0.00     0.119 A 
ATOM     20  C   UNL     1       3.284  -5.802  16.233  1.00  0.00     0.024 A 
ATOM     21  N   UNL     1       0.968  -6.452  16.314  1.00  0.00    -0.264 NA
ATOM     22  C   UNL     1       2.198  -6.396  16.855  1.00  0.00     0.111 A 
ATOM     23  C   UNL     1       4.305  -4.577  14.304  1.00  0.00     0.045 C 
ENDBRANCH  16  17
ENDBRANCH  15  16
ENDBRANCH  13  15
ENDBRANCH   4  13
TORSDOF 8
ENDMDL
MODEL 8
REMARK VINA RESULT:    -4.940      5.249      7.262
REMARK INTER + INTRA:          -7.768
REMARK INTER:                  -7.114
REMARK INTRA:                  -0.655
REMARK UNBOUND:                -0.663
REMARK SMILES Cc1ccncc1/C=C/Nc1ccc(CCCN)cc1
REMARK SMILES IDX 14 1 13 2 12 3 11 4 20 5 19 6 15 7 16 8 17 9 18 10 10 13
REMARK SMILES IDX 9 15 8 16 7 17 2 18 6 19 3 20 5 21 4 22 1 23
REMARK H PARENT 18 11 18 12 10 14
ROOT
ATOM      1  C   UNL     1       1.858  -5.497  14.762  1.00  0.00    -0.048 A 
ATOM      2  C   UNL     1       2.402  -5.170  13.519  1.00  0.00     0.006 A 
ATOM      3  C   UNL     1       1.647  -4.487  12.570  1.00  0.00     0.026 A 
ATOM      4  C   UNL     1       0.303  -4.174  12.792  1.00  0.00     0.038 A 
ATOM      5  C   UNL     1      -0.260  -4.552  14.016  1.00  0.00     0.026 A 
ATOM      6  C   UNL     1       0.508  -5.207  14.991  1.00  0.00     0.006 A 
ENDROOT
BRANCH   1   7
ATOM      7  C   UNL     1       2.697  -6.147  15.834  1.00  0.00     0.037 C 
BRANCH   7   8
ATOM      8  C   UNL     1       4.205  -5.833  15.818  1.00  0.00     0.020 C 
BRANCH   8   9
ATOM      9  C   UNL     1       4.694  -4.820  16.864  1.00  0.00     0.078 C 
BRANCH   9  10
ATOM     10  N   UNL     1       4.155  -3.476  16.718  1.00  0.00    -0.330 NA
ATOM     11  H   UNL     1       4.642  -2.835  17.343  1.00  0.00     0.118 HD
ATOM     12  H   UNL     1       3.178  -3.455  17.013  1.00  0.00     0.118 HD
ENDBRANCH   9  10
ENDBRANCH   8   9
ENDBRANCH   7   8
ENDBRANCH   1   7
BRANCH   4  13
ATOM     13  N   UNL     1      -0.500  -3.590  11.793  1.00  0.00    -0.362 N 
ATOM     14  H   UNL     1      -0.809  -4.198  11.045  1.00  0.00     0.166 HD
BRANCH  13  15
ATOM     15  C   UNL     1      -0.675  -2.243  11.619  1.00  0.00     0.083 C 
BRANCH  15  16
ATOM     16  C   UNL     1      -0.359  -1.478  10.565  1.00  0.00     0.027 C 
BRANCH  16  17
ATOM     17  C   UNL     1      -0.922  -1.747   9.233  1.00  0.00    -0.003 A 
ATOM     18  C   UNL     1      -0.330  -1.263   8.052  1.00  0.00    -0.041 A 
ATOM     19  C   UNL     1      -2.111  -2.477   9.088  1.00  0.00     0.119 A 
ATOM     20  C   UNL     1      -0.946  -1.547   6.824  1.00  0.00     0.024 A 
ATOM     21  N   UNL     1      -2.709  -2.774   7.910  1.00  0.00    -0.264 NA
ATOM     22  C   UNL     1      -2.108  -2.302   6.804  1.00  0.00     0.111 A 
ATOM     23  C   UNL     1       0.916  -0.423   8.063  1.00  0.00     0.045 C 
ENDBRANCH  16  17
ENDBRANCH  15  16
ENDBRANCH  13  15
ENDBRANCH   4  13
TORSDOF 8
ENDMDL
MODEL 9
REMARK VINA RESULT:    -4.912      2.396      8.843
REMARK INTER + INTRA:          -7.728
REMARK INTER:                  -7.161
REMARK INTRA:                  -0.568
REMARK UNBOUND:                -0.663
REMARK SMILES Cc1ccncc1/C=C/Nc1ccc(CCCN)cc1
REMARK SMILES IDX 14 1 13 2 12 3 11 4 20 5 19 6 15 7 16 8 17 9 18 10 10 13
REMARK SMILES IDX 9 15 8 16 7 17 2 18 6 19 3 20 5 21 4 22 1 23
REMARK H PARENT 18 11 18 12 10 14
ROOT
ATOM      1  C   UNL     1      -0.364  -1.726   8.133  1.00  0.00    -0.048 A 
ATOM      2  C   UNL     1       0.431  -0.742   8.723  1.00  0.00     0.006 A 
ATOM      3  C   UNL     1       0.335  -0.472  10.085  1.00  0.00     0.026 A 
ATOM      4  C   UNL     1      -0.607  -1.114  10.893  1.00  0.00     0.038 A 
ATOM      5  C   UNL     1      -1.445  -2.061  10.292  1.00  0.00     0.026 A 
ATOM      6  C   UNL     1      -1.326  -2.364   8.927  1.00  0.00     0.006 A 
ENDROOT
BRANCH   1   7
ATOM      7  C   UNL     1      -0.198  -2.098   6.681  1.00  0.00     0.037 C 
BRANCH   7   8
ATOM      8  C   UNL     1      -1.404  -2.768   5.995  1.00  0.00     0.020 C 
BRANCH   8   9
ATOM      9  C   UNL     1      -1.074  -3.853   4.960  1.00  0.00     0.078 C 
BRANCH   9  10
ATOM     10  N   UNL     1      -0.116  -3.456   3.938  1.00  0.00    -0.330 NA
ATOM     11  H   UNL     1       0.153  -2.482   4.071  1.00  0.00     0.118 HD
ATOM     12  H   UNL     1      -0.549  -3.497   3.015  1.00  0.00     0.118 HD
ENDBRANCH   9  10
ENDBRANCH   8   9
ENDBRANCH   7   8
ENDBRANCH   1   7
BRANCH   4  13
ATOM     13  N   UNL     1      -0.792  -0.762  12.244  1.00  0.00    -0.362 N 
ATOM     14  H   UNL     1      -0.226  -1.255  12.923  1.00  0.00     0.166 HD
BRANCH  13  15
ATOM     15  C   UNL     1      -1.834  -0.012  12.722  1.00  0.00     0.083 C 
BRANCH  15  16
ATOM     16  C   UNL     1      -1.810   1.030  13.564  1.00  0.00     0.027 C 
BRANCH  16  17
ATOM     17  C   UNL     1      -2.086   0.856  14.998  1.00  0.00    -0.003 A 
ATOM     18  C   UNL     1      -3.239   1.377  15.612  1.00  0.00    -0.041 A 
ATOM     19  C   UNL     1      -1.177   0.186  15.830  1.00  0.00     0.119 A 
ATOM     20  C   UNL     1      -3.413   1.186  16.992  1.00  0.00     0.024 A 
ATOM     21  N   UNL     1      -1.338  -0.023  17.158  1.00  0.00    -0.264 NA
ATOM     22  C   UNL     1      -2.457   0.482  17.707  1.00  0.00     0.111 A 
ATOM     23  C   UNL     1      -4.270   2.163  14.852  1.00  0.00     0.045 C 
ENDBRANCH  16  17
ENDBRANCH  15  16
ENDBRANCH  13  15
ENDBRANCH   4  13
TORSDOF 8
ENDMDL
