MODEL 1
REMARK VINA RESULT:    -5.076      0.000      0.000
REMARK INTER + INTRA:          -7.944
REMARK INTER:                  -7.301
REMARK INTRA:                  -0.643
REMARK UNBOUND:                -0.643
REMARK SMILES Cc1ccncc1/C=C/Nc1ccc(CCCN)cc1
REMARK SMILES IDX 14 1 13 2 12 3 11 4 20 5 19 6 15 7 16 8 17 9 18 10 10 13
REMARK SMILES IDX 9 15 8 16 7 17 2 18 6 19 3 20 5 21 4 22 1 23
REMARK H PARENT 18 11 18 12 10 14
ROOT
ATOM      1  C   UNL     1      -8.218   0.527  13.314  1.00  0.00    -0.048 A 
ATOM      2  C   UNL     1      -8.975   1.688  13.145  1.00  0.00     0.006 A 
ATOM      3  C   UNL     1      -8.871   2.441  11.978  1.00  0.00     0.026 A 
ATOM      4  C   UNL     1      -7.957   2.111  10.974  1.00  0.00     0.038 A 
ATOM      5  C   UNL     1      -7.157   0.979  11.168  1.00  0.00     0.026 A 
ATOM      6  C   UNL     1      -7.285   0.195  12.325  1.00  0.00     0.006 A 
ENDROOT
BRANCH   1   7
ATOM      7  C   UNL     1      -8.396  -0.350  14.528  1.00  0.00     0.037 C 
BRANCH   7   8
ATOM      8  C   UNL     1      -7.154  -0.563  15.416  1.00  0.00     0.020 C 
BRANCH   8   9
ATOM      9  C   UNL     1      -7.188   0.114  16.794  1.00  0.00     0.078 C 
BRANCH   9  10
ATOM     10  N   UNL     1      -6.373   1.314  16.911  1.00  0.00    -0.330 NA
ATOM     11  H   UNL     1      -5.387   1.077  16.803  1.00  0.00     0.118 HD
ATOM     12  H   UNL     1      -6.458   1.707  17.848  1.00  0.00     0.118 HD
ENDBRANCH   9  10
ENDBRANCH   8   9
ENDBRANCH   7   8
ENDBRANCH   1   7
BRANCH   4  13
ATOM     13  N   UNL     1      -7.761   2.932   9.847  1.00  0.00    -0.362 N 
ATOM     14  H   UNL     1      -8.576   3.123   9.277  1.00  0.00     0.166 HD
BRANCH  13  15
ATOM     15  C   UNL     1      -6.540   3.271   9.328  1.00  0.00     0.083 C 
BRANCH  15  16
ATOM     16  C   UNL     1      -6.225   3.643   8.080  1.00  0.00     0.027 C 
BRANCH  16  17
ATOM     17  C   UNL     1      -4.957   3.230   7.459  1.00  0.00    -0.003 A 
ATOM     18  C   UNL     1      -4.806   3.101   6.067  1.00  0.00    -0.041 A 
ATOM     19  C   UNL     1      -3.842   2.906   8.247  1.00  0.00     0.119 A 
ATOM     20  C   UNL     1      -3.568   2.678   5.560  1.00  0.00     0.024 A 
ATOM     21  N   UNL     1      -2.636   2.514   7.773  1.00  0.00    -0.264 NA
ATOM     22  C   UNL     1      -2.528   2.413   6.436  1.00  0.00     0.111 A 
ATOM     23  C   UNL     1      -5.933   3.363   5.108  1.00  0.00     0.045 C 
ENDBRANCH  16  17
ENDBRANCH  15  16
ENDBRANCH  13  15
ENDBRANCH   4  13
TORSDOF 8
ENDMDL
MODEL 2
REMARK VINA RESULT:    -5.058      4.638      6.741
REMARK INTER + INTRA:          -7.918
REMARK INTER:                  -7.296
REMARK INTRA:                  -0.622
REMARK UNBOUND:                -0.643
REMARK SMILES Cc1ccncc1/C=C/Nc1ccc(CCCN)cc1
REMARK SMILES IDX 14 1 13 2 12 3 11 4 20 5 19 6 15 7 16 8 17 9 18 10 10 13
REMARK SMILES IDX 9 15 8 16 7 17 2 18 6 19 3 20 5 21 4 22 1 23
REMARK H PARENT 18 11 18 12 10 14
ROOT
ATOM      1  C   UNL     1      -6.895   8.952  11.410  1.00  0.00    -0.048 A 
ATOM      2  C   UNL     1      -6.438   8.638  10.128  1.00  0.00     0.006 A 
ATOM      3  C   UNL     1      -5.854   7.403   9.865  1.00  0.00     0.026 A 
ATOM      4  C   UNL     1      -5.632   6.467  10.878  1.00  0.00     0.038 A 
ATOM      5  C   UNL     1      -6.038   6.804  12.175  1.00  0.00     0.026 A 
ATOM      6  C   UNL     1      -6.662   8.032  12.439  1.00  0.00     0.006 A 
ENDROOT
BRANCH   1   7
ATOM      7  C   UNL     1      -7.620  10.246  11.685  1.00  0.00     0.037 C 
BRANCH   7   8
ATOM      8  C   UNL     1      -8.839  10.558  10.796  1.00  0.00     0.020 C 
BRANCH   8   9
ATOM      9  C   UNL     1     -10.192  10.651  11.516  1.00  0.00     0.078 C 
BRANCH   9  10
ATOM     10  N   UNL     1     -11.002   9.442  11.463  1.00  0.00    -0.330 NA
ATOM     11  H   UNL     1     -11.979   9.668  11.645  1.00  0.00     0.118 HD
ATOM     12  H   UNL     1     -10.726   8.801  12.208  1.00  0.00     0.118 HD
ENDBRANCH   9  10
ENDBRANCH   8   9
ENDBRANCH   7   8
ENDBRANCH   1   7
BRANCH   4  13
ATOM     13  N   UNL     1      -4.935   5.266  10.643  1.00  0.00    -0.362 N 
ATOM     14  H   UNL     1      -4.002   5.199  11.031  1.00  0.00     0.166 HD
BRANCH  13  15
ATOM     15  C   UNL     1      -5.308   4.310   9.737  1.00  0.00     0.083 C 
BRANCH  15  16
ATOM     16  C   UNL     1      -4.572   3.338   9.181  1.00  0.00     0.027 C 
BRANCH  16  17
ATOM     17  C   UNL     1      -4.594   3.100   7.730  1.00  0.00    -0.003 A 
ATOM     18  C   UNL     1      -3.493   2.569   7.036  1.00  0.00    -0.041 A 
ATOM     19  C   UNL     1      -5.721   3.434   6.964  1.00  0.00     0.119 A 
ATOM     20  C   UNL     1      -3.591   2.397   5.647  1.00  0.00     0.024 A 
ATOM     21  N   UNL     1      -5.839   3.258   5.627  1.00  0.00    -0.264 NA
ATOM     22  C   UNL     1      -4.768   2.739   5.000  1.00  0.00     0.111 A 
ATOM     23  C   UNL     1      -2.203   2.217   7.722  1.00  0.00     0.045 C 
ENDBRANCH  16  17
ENDBRANCH  15  16
ENDBRANCH  13  15
ENDBRANCH   4  13
TORSDOF 8
ENDMDL
MODEL 3
REMARK VINA RESULT:    -4.805      1.437      2.274
REMARK INTER + INTRA:          -7.555
REMARK INTER:                  -7.039
REMARK INTRA:                  -0.515
REMARK UNBOUND:                -0.643
REMARK SMILES Cc1ccncc1/C=C/Nc1ccc(CCCN)cc1
REMARK SMILES IDX 14 1 13 2 12 3 11 4 20 5 19 6 15 7 16 8 17 9 18 10 10 13
REMARK SMILES IDX 9 15 8 16 7 17 2 18 6 19 3 20 5 21 4 22 1 23
REMARK H PARENT 18 11 18 12 10 14
ROOT
ATOM      1  C   UNL     1      -8.273   1.060  12.592  1.00  0.00    -0.048 A 
ATOM      2  C   UNL     1      -7.413   0.414  11.702  1.00  0.00     0.006 A 
ATOM      3  C   UNL     1      -6.865   1.098  10.620  1.00  0.00     0.026 A 
ATOM      4  C   UNL     1      -7.213   2.422  10.340  1.00  0.00     0.038 A 
ATOM      5  C   UNL     1      -8.119   3.053  11.200  1.00  0.00     0.026 A 
ATOM      6  C   UNL     1      -8.644   2.381  12.313  1.00  0.00     0.006 A 
ENDROOT
BRANCH   1   7
ATOM      7  C   UNL     1      -8.792   0.359  13.823  1.00  0.00     0.037 C 
BRANCH   7   8
ATOM      8  C   UNL     1      -7.749  -0.359  14.702  1.00  0.00     0.020 C 
BRANCH   8   9
ATOM      9  C   UNL     1      -7.658   0.113  16.160  1.00  0.00     0.078 C 
BRANCH   9  10
ATOM     10  N   UNL     1      -6.362   0.648  16.554  1.00  0.00    -0.330 NA
ATOM     11  H   UNL     1      -5.731   0.659  15.753  1.00  0.00     0.118 HD
ATOM     12  H   UNL     1      -5.922   0.034  17.239  1.00  0.00     0.118 HD
ENDBRANCH   9  10
ENDBRANCH   8   9
ENDBRANCH   7   8
ENDBRANCH   1   7
BRANCH   4  13
ATOM     13  N   UNL     1      -6.757   3.082   9.183  1.00  0.00    -0.362 N 
ATOM     14  H   UNL     1      -7.431   3.213   8.439  1.00  0.00     0.166 HD
BRANCH  13  15
ATOM     15  C   UNL     1      -5.441   3.323   8.886  1.00  0.00     0.083 C 
BRANCH  15  16
ATOM     16  C   UNL     1      -4.900   3.774   7.747  1.00  0.00     0.027 C 
BRANCH  16  17
ATOM     17  C   UNL     1      -4.871   2.942   6.535  1.00  0.00    -0.003 A 
ATOM     18  C   UNL     1      -3.825   2.043   6.262  1.00  0.00    -0.041 A 
ATOM     19  C   UNL     1      -5.884   3.041   5.569  1.00  0.00     0.119 A 
ATOM     20  C   UNL     1      -3.864   1.304   5.070  1.00  0.00     0.024 A 
ATOM     21  N   UNL     1      -5.947   2.323   4.423  1.00  0.00    -0.264 NA
ATOM     22  C   UNL     1      -4.933   1.468   4.203  1.00  0.00     0.111 A 
ATOM     23  C   UNL     1      -2.649   1.874   7.183  1.00  0.00     0.045 C 
ENDBRANCH  16  17
ENDBRANCH  15  16
ENDBRANCH  13  15
ENDBRANCH   4  13
TORSDOF 8
ENDMDL
MODEL 4
REMARK VINA RESULT:    -4.801      4.482      6.266
REMARK INTER + INTRA:          -7.549
REMARK INTER:                  -7.033
REMARK INTRA:                  -0.516
REMARK UNBOUND:                -0.643
REMARK SMILES Cc1ccncc1/C=C/Nc1ccc(CCCN)cc1
REMARK SMILES IDX 14 1 13 2 12 3 11 4 20 5 19 6 15 7 16 8 17 9 18 10 10 13
REMARK SMILES IDX 9 15 8 16 7 17 2 18 6 19 3 20 5 21 4 22 1 23
REMARK H PARENT 18 11 18 12 10 14
ROOT
ATOM      1  C   UNL     1      -6.454   8.182  11.318  1.00  0.00    -0.048 A 
ATOM      2  C   UNL     1      -6.027   8.100   9.991  1.00  0.00     0.006 A 
ATOM      3  C   UNL     1      -5.623   6.883   9.449  1.00  0.00     0.026 A 
ATOM      4  C   UNL     1      -5.554   5.723  10.225  1.00  0.00     0.038 A 
ATOM      5  C   UNL     1      -5.928   5.816  11.571  1.00  0.00     0.026 A 
ATOM      6  C   UNL     1      -6.373   7.032  12.112  1.00  0.00     0.006 A 
ENDROOT
BRANCH   1   7
ATOM      7  C   UNL     1      -6.990   9.472  11.886  1.00  0.00     0.037 C 
BRANCH   7   8
ATOM      8  C   UNL     1      -8.002  10.244  11.017  1.00  0.00     0.020 C 
BRANCH   8   9
ATOM      9  C   UNL     1      -9.371  10.514  11.657  1.00  0.00     0.078 C 
BRANCH   9  10
ATOM     10  N   UNL     1     -10.494   9.850  11.011  1.00  0.00    -0.330 NA
ATOM     11  H   UNL     1     -10.833  10.414  10.233  1.00  0.00     0.118 HD
ATOM     12  H   UNL     1     -11.279   9.777  11.659  1.00  0.00     0.118 HD
ENDBRANCH   9  10
ENDBRANCH   8   9
ENDBRANCH   7   8
ENDBRANCH   1   7
BRANCH   4  13
ATOM     13  N   UNL     1      -5.034   4.517   9.717  1.00  0.00    -0.362 N 
ATOM     14  H   UNL     1      -4.119   4.241  10.050  1.00  0.00     0.166 HD
BRANCH  13  15
ATOM     15  C   UNL     1      -5.540   3.840   8.639  1.00  0.00     0.083 C 
BRANCH  15  16
ATOM     16  C   UNL     1      -5.027   2.790   7.984  1.00  0.00     0.027 C 
BRANCH  16  17
ATOM     17  C   UNL     1      -3.833   2.930   7.136  1.00  0.00    -0.003 A 
ATOM     18  C   UNL     1      -3.911   3.282   5.776  1.00  0.00    -0.041 A 
ATOM     19  C   UNL     1      -2.552   2.677   7.648  1.00  0.00     0.119 A 
ATOM     20  C   UNL     1      -2.724   3.371   5.034  1.00  0.00     0.024 A 
ATOM     21  N   UNL     1      -1.396   2.775   6.951  1.00  0.00    -0.264 NA
ATOM     22  C   UNL     1      -1.511   3.124   5.658  1.00  0.00     0.111 A 
ATOM     23  C   UNL     1      -5.222   3.529   5.083  1.00  0.00     0.045 C 
ENDBRANCH  16  17
ENDBRANCH  15  16
ENDBRANCH  13  15
ENDBRANCH   4  13
TORSDOF 8
ENDMDL
MODEL 5
REMARK VINA RESULT:    -4.767      2.018      3.407
REMARK INTER + INTRA:          -7.499
REMARK INTER:                  -6.794
REMARK INTRA:                  -0.705
REMARK UNBOUND:                -0.643
REMARK SMILES Cc1ccncc1/C=C/Nc1ccc(CCCN)cc1
REMARK SMILES IDX 14 1 13 2 12 3 11 4 20 5 19 6 15 7 16 8 17 9 18 10 10 13
REMARK SMILES IDX 9 15 8 16 7 17 2 18 6 19 3 20 5 21 4 22 1 23
REMARK H PARENT 18 11 18 12 10 14
ROOT
ATOM      1  C   UNL     1      -7.448   2.673  11.073  1.00  0.00    -0.048 A 
ATOM      2  C   UNL     1      -7.115   4.019  11.234  1.00  0.00     0.006 A 
ATOM      3  C   UNL     1      -6.327   4.674  10.293  1.00  0.00     0.026 A 
ATOM      4  C   UNL     1      -5.777   3.998   9.201  1.00  0.00     0.038 A 
ATOM      5  C   UNL     1      -6.063   2.634   9.068  1.00  0.00     0.026 A 
ATOM      6  C   UNL     1      -6.888   1.978   9.994  1.00  0.00     0.006 A 
ENDROOT
BRANCH   1   7
ATOM      7  C   UNL     1      -8.383   1.979  12.032  1.00  0.00     0.037 C 
BRANCH   7   8
ATOM      8  C   UNL     1      -7.980   0.564  12.489  1.00  0.00     0.020 C 
BRANCH   8   9
ATOM      9  C   UNL     1      -8.495   0.130  13.869  1.00  0.00     0.078 C 
BRANCH   9  10
ATOM     10  N   UNL     1      -8.424   1.154  14.902  1.00  0.00    -0.330 NA
ATOM     11  H   UNL     1      -9.122   0.971  15.623  1.00  0.00     0.118 HD
ATOM     12  H   UNL     1      -8.667   2.065  14.512  1.00  0.00     0.118 HD
ENDBRANCH   9  10
ENDBRANCH   8   9
ENDBRANCH   7   8
ENDBRANCH   1   7
BRANCH   4  13
ATOM     13  N   UNL     1      -4.883   4.624   8.311  1.00  0.00    -0.362 N 
ATOM     14  H   UNL     1      -4.987   5.624   8.191  1.00  0.00     0.166 HD
BRANCH  13  15
ATOM     15  C   UNL     1      -4.075   3.966   7.422  1.00  0.00     0.083 C 
BRANCH  15  16
ATOM     16  C   UNL     1      -3.998   4.099   6.091  1.00  0.00     0.027 C 
BRANCH  16  17
ATOM     17  C   UNL     1      -4.349   2.990   5.192  1.00  0.00    -0.003 A 
ATOM     18  C   UNL     1      -3.380   2.156   4.608  1.00  0.00    -0.041 A 
ATOM     19  C   UNL     1      -5.686   2.739   4.847  1.00  0.00     0.119 A 
ATOM     20  C   UNL     1      -3.801   1.135   3.743  1.00  0.00     0.024 A 
ATOM     21  N   UNL     1      -6.111   1.748   4.029  1.00  0.00    -0.264 NA
ATOM     22  C   UNL     1      -5.155   0.966   3.498  1.00  0.00     0.111 A 
ATOM     23  C   UNL     1      -1.908   2.344   4.847  1.00  0.00     0.045 C 
ENDBRANCH  16  17
ENDBRANCH  15  16
ENDBRANCH  13  15
ENDBRANCH   4  13
TORSDOF 8
ENDMDL
MODEL 6
REMARK VINA RESULT:    -4.764      4.059      5.674
REMARK INTER + INTRA:          -7.495
REMARK INTER:                  -6.666
REMARK INTRA:                  -0.828
REMARK UNBOUND:                -0.643
REMARK SMILES Cc1ccncc1/C=C/Nc1ccc(CCCN)cc1
REMARK SMILES IDX 14 1 13 2 12 3 11 4 20 5 19 6 15 7 16 8 17 9 18 10 10 13
REMARK SMILES IDX 9 15 8 16 7 17 2 18 6 19 3 20 5 21 4 22 1 23
REMARK H PARENT 18 11 18 12 10 14
ROOT
ATOM      1  C   UNL     1      -5.834   5.419  10.346  1.00  0.00    -0.048 A 
ATOM      2  C   UNL     1      -5.001   5.385   9.225  1.00  0.00     0.006 A 
ATOM      3  C   UNL     1      -4.966   4.265   8.400  1.00  0.00     0.026 A 
ATOM      4  C   UNL     1      -5.695   3.112   8.700  1.00  0.00     0.038 A 
ATOM      5  C   UNL     1      -6.486   3.123   9.855  1.00  0.00     0.026 A 
ATOM      6  C   UNL     1      -6.555   4.264  10.670  1.00  0.00     0.006 A 
ENDROOT
BRANCH   1   7
ATOM      7  C   UNL     1      -5.957   6.663  11.190  1.00  0.00     0.037 C 
BRANCH   7   8
ATOM      8  C   UNL     1      -6.263   7.977  10.445  1.00  0.00     0.020 C 
BRANCH   8   9
ATOM      9  C   UNL     1      -6.640   9.178  11.325  1.00  0.00     0.078 C 
BRANCH   9  10
ATOM     10  N   UNL     1      -7.949   9.092  11.956  1.00  0.00    -0.330 NA
ATOM     11  H   UNL     1      -8.509   9.907  11.708  1.00  0.00     0.118 HD
ATOM     12  H   UNL     1      -7.853   9.125  12.971  1.00  0.00     0.118 HD
ENDBRANCH   9  10
ENDBRANCH   8   9
ENDBRANCH   7   8
ENDBRANCH   1   7
BRANCH   4  13
ATOM     13  N   UNL     1      -5.573   1.934   7.937  1.00  0.00    -0.362 N 
ATOM     14  H   UNL     1      -5.629   1.058   8.441  1.00  0.00     0.166 HD
BRANCH  13  15
ATOM     15  C   UNL     1      -5.136   1.885   6.640  1.00  0.00     0.083 C 
BRANCH  15  16
ATOM     16  C   UNL     1      -4.044   1.292   6.138  1.00  0.00     0.027 C 
BRANCH  16  17
ATOM     17  C   UNL     1      -2.878   2.080   5.709  1.00  0.00    -0.003 A 
ATOM     18  C   UNL     1      -1.892   2.519   6.610  1.00  0.00    -0.041 A 
ATOM     19  C   UNL     1      -2.722   2.463   4.368  1.00  0.00     0.119 A 
ATOM     20  C   UNL     1      -0.825   3.287   6.120  1.00  0.00     0.024 A 
ATOM     21  N   UNL     1      -1.691   3.187   3.876  1.00  0.00    -0.264 NA
ATOM     22  C   UNL     1      -0.763   3.580   4.767  1.00  0.00     0.111 A 
ATOM     23  C   UNL     1      -1.961   2.228   8.083  1.00  0.00     0.045 C 
ENDBRANCH  16  17
ENDBRANCH  15  16
ENDBRANCH  13  15
ENDBRANCH   4  13
TORSDOF 8
ENDMDL
MODEL 7
REMARK VINA RESULT:    -4.643      3.964      4.883
REMARK INTER + INTRA:          -7.322
REMARK INTER:                  -6.675
REMARK INTRA:                  -0.647
REMARK UNBOUND:                -0.643
REMARK SMILES Cc1ccncc1/C=C/Nc1ccc(CCCN)cc1
REMARK SMILES IDX 14 1 13 2 12 3 11 4 20 5 19 6 15 7 16 8 17 9 18 10 10 13
REMARK SMILES IDX 9 15 8 16 7 17 2 18 6 19 3 20 5 21 4 22 1 23
REMARK H PARENT 18 11 18 12 10 14
ROOT
ATOM      1  C   UNL     1      -6.347   6.412  11.799  1.00  0.00    -0.048 A 
ATOM      2  C   UNL     1      -6.797   5.097  11.661  1.00  0.00     0.006 A 
ATOM      3  C   UNL     1      -6.441   4.338  10.549  1.00  0.00     0.026 A 
ATOM      4  C   UNL     1      -5.693   4.880   9.501  1.00  0.00     0.038 A 
ATOM      5  C   UNL     1      -5.290   6.216   9.612  1.00  0.00     0.026 A 
ATOM      6  C   UNL     1      -5.613   6.974  10.748  1.00  0.00     0.006 A 
ENDROOT
BRANCH   1   7
ATOM      7  C   UNL     1      -6.641   7.210  13.045  1.00  0.00     0.037 C 
BRANCH   7   8
ATOM      8  C   UNL     1      -7.307   6.453  14.210  1.00  0.00     0.020 C 
BRANCH   8   9
ATOM      9  C   UNL     1      -8.577   7.094  14.790  1.00  0.00     0.078 C 
BRANCH   9  10
ATOM     10  N   UNL     1      -9.828   6.548  14.283  1.00  0.00    -0.330 NA
ATOM     11  H   UNL     1     -10.470   7.305  14.051  1.00  0.00     0.118 HD
ATOM     12  H   UNL     1     -10.296   6.007  15.011  1.00  0.00     0.118 HD
ENDBRANCH   9  10
ENDBRANCH   8   9
ENDBRANCH   7   8
ENDBRANCH   1   7
BRANCH   4  13
ATOM     13  N   UNL     1      -5.431   4.157   8.322  1.00  0.00    -0.362 N 
ATOM     14  H   UNL     1      -5.964   4.418   7.501  1.00  0.00     0.166 HD
BRANCH  13  15
ATOM     15  C   UNL     1      -4.720   2.988   8.263  1.00  0.00     0.083 C 
BRANCH  15  16
ATOM     16  C   UNL     1      -3.537   2.746   7.683  1.00  0.00     0.027 C 
BRANCH  16  17
ATOM     17  C   UNL     1      -3.454   2.176   6.330  1.00  0.00    -0.003 A 
ATOM     18  C   UNL     1      -2.435   2.524   5.425  1.00  0.00    -0.041 A 
ATOM     19  C   UNL     1      -4.426   1.276   5.867  1.00  0.00     0.119 A 
ATOM     20  C   UNL     1      -2.445   1.950   4.145  1.00  0.00     0.024 A 
ATOM     21  N   UNL     1      -4.440   0.699   4.643  1.00  0.00    -0.264 NA
ATOM     22  C   UNL     1      -3.444   1.050   3.810  1.00  0.00     0.111 A 
ATOM     23  C   UNL     1      -1.360   3.517   5.768  1.00  0.00     0.045 C 
ENDBRANCH  16  17
ENDBRANCH  15  16
ENDBRANCH  13  15
ENDBRANCH   4  13
TORSDOF 8
ENDMDL
MODEL 8
REMARK VINA RESULT:    -4.630      3.906      4.612
REMARK INTER + INTRA:          -7.303
REMARK INTER:                  -6.588
REMARK INTRA:                  -0.715
REMARK UNBOUND:                -0.643
REMARK SMILES Cc1ccncc1/C=C/Nc1ccc(CCCN)cc1
REMARK SMILES IDX 14 1 13 2 12 3 11 4 20 5 19 6 15 7 16 8 17 9 18 10 10 13
REMARK SMILES IDX 9 15 8 16 7 17 2 18 6 19 3 20 5 21 4 22 1 23
REMARK H PARENT 18 11 18 12 10 14
ROOT
ATOM      1  C   UNL     1      -6.420   6.552  12.007  1.00  0.00    -0.048 A 
ATOM      2  C   UNL     1      -5.668   7.165  11.003  1.00  0.00     0.006 A 
ATOM      3  C   UNL     1      -5.371   6.488   9.823  1.00  0.00     0.026 A 
ATOM      4  C   UNL     1      -5.744   5.156   9.630  1.00  0.00     0.038 A 
ATOM      5  C   UNL     1      -6.449   4.521  10.660  1.00  0.00     0.026 A 
ATOM      6  C   UNL     1      -6.784   5.210  11.835  1.00  0.00     0.006 A 
ENDROOT
BRANCH   1   7
ATOM      7  C   UNL     1      -6.833   7.307  13.245  1.00  0.00     0.037 C 
BRANCH   7   8
ATOM      8  C   UNL     1      -7.449   6.478  14.388  1.00  0.00     0.020 C 
BRANCH   8   9
ATOM      9  C   UNL     1      -8.809   6.961  14.913  1.00  0.00     0.078 C 
BRANCH   9  10
ATOM     10  N   UNL     1      -9.967   6.388  14.241  1.00  0.00    -0.330 NA
ATOM     11  H   UNL     1     -10.797   6.500  14.821  1.00  0.00     0.118 HD
ATOM     12  H   UNL     1      -9.846   5.382  14.128  1.00  0.00     0.118 HD
ENDBRANCH   9  10
ENDBRANCH   8   9
ENDBRANCH   7   8
ENDBRANCH   1   7
BRANCH   4  13
ATOM     13  N   UNL     1      -5.345   4.429   8.492  1.00  0.00    -0.362 N 
ATOM     14  H   UNL     1      -5.349   4.927   7.611  1.00  0.00     0.166 HD
BRANCH  13  15
ATOM     15  C   UNL     1      -5.207   3.067   8.442  1.00  0.00     0.083 C 
BRANCH  15  16
ATOM     16  C   UNL     1      -4.691   2.304   7.469  1.00  0.00     0.027 C 
BRANCH  16  17
ATOM     17  C   UNL     1      -3.445   2.682   6.785  1.00  0.00    -0.003 A 
ATOM     18  C   UNL     1      -3.435   3.293   5.519  1.00  0.00    -0.041 A 
ATOM     19  C   UNL     1      -2.196   2.408   7.362  1.00  0.00     0.119 A 
ATOM     20  C   UNL     1      -2.200   3.599   4.928  1.00  0.00     0.024 A 
ATOM     21  N   UNL     1      -0.996   2.712   6.814  1.00  0.00    -0.264 NA
ATOM     22  C   UNL     1      -1.029   3.305   5.608  1.00  0.00     0.111 A 
ATOM     23  C   UNL     1      -4.698   3.595   4.761  1.00  0.00     0.045 C 
ENDBRANCH  16  17
ENDBRANCH  15  16
ENDBRANCH  13  15
ENDBRANCH   4  13
TORSDOF 8
ENDMDL
MODEL 9
REMARK VINA RESULT:    -4.570      4.344      8.409
REMARK INTER + INTRA:          -7.217
REMARK INTER:                  -6.604
REMARK INTRA:                  -0.612
REMARK UNBOUND:                -0.643
REMARK SMILES Cc1ccncc1/C=C/Nc1ccc(CCCN)cc1
REMARK SMILES IDX 14 1 13 2 12 3 11 4 20 5 19 6 15 7 16 8 17 9 18 10 10 13
REMARK SMILES IDX 9 15 8 16 7 17 2 18 6 19 3 20 5 21 4 22 1 23
REMARK H PARENT 18 11 18 12 10 14
ROOT
ATOM      1  C   UNL     1      -3.762   2.538   7.479  1.00  0.00    -0.048 A 
ATOM      2  C   UNL     1      -3.275   2.770   8.766  1.00  0.00     0.006 A 
ATOM      3  C   UNL     1      -4.056   3.424   9.715  1.00  0.00     0.026 A 
ATOM      4  C   UNL     1      -5.316   3.938   9.397  1.00  0.00     0.038 A 
ATOM      5  C   UNL     1      -5.783   3.756   8.090  1.00  0.00     0.026 A 
ATOM      6  C   UNL     1      -5.015   3.064   7.140  1.00  0.00     0.006 A 
ENDROOT
BRANCH   1   7
ATOM      7  C   UNL     1      -2.966   1.743   6.474  1.00  0.00     0.037 C 
BRANCH   7   8
ATOM      8  C   UNL     1      -2.355   2.529   5.298  1.00  0.00     0.020 C 
BRANCH   8   9
ATOM      9  C   UNL     1      -1.239   3.520   5.657  1.00  0.00     0.078 C 
BRANCH   9  10
ATOM     10  N   UNL     1       0.113   2.994   5.537  1.00  0.00    -0.330 NA
ATOM     11  H   UNL     1       0.084   1.983   5.407  1.00  0.00     0.118 HD
ATOM     12  H   UNL     1       0.627   3.144   6.405  1.00  0.00     0.118 HD
ENDBRANCH   9  10
ENDBRANCH   8   9
ENDBRANCH   7   8
ENDBRANCH   1   7
BRANCH   4  13
ATOM     13  N   UNL     1      -6.061   4.703  10.315  1.00  0.00    -0.362 N 
ATOM     14  H   UNL     1      -6.730   4.202  10.885  1.00  0.00     0.166 HD
BRANCH  13  15
ATOM     15  C   UNL     1      -6.136   6.071  10.314  1.00  0.00     0.083 C 
BRANCH  15  16
ATOM     16  C   UNL     1      -5.644   6.945  11.202  1.00  0.00     0.027 C 
BRANCH  16  17
ATOM     17  C   UNL     1      -6.477   7.473  12.293  1.00  0.00    -0.003 A 
ATOM     18  C   UNL     1      -6.993   8.781  12.284  1.00  0.00    -0.041 A 
ATOM     19  C   UNL     1      -6.764   6.691  13.423  1.00  0.00     0.119 A 
ATOM     20  C   UNL     1      -7.759   9.211  13.378  1.00  0.00     0.024 A 
ATOM     21  N   UNL     1      -7.516   7.084  14.477  1.00  0.00    -0.264 NA
ATOM     22  C   UNL     1      -7.999   8.338  14.427  1.00  0.00     0.111 A 
ATOM     23  C   UNL     1      -6.720   9.745  11.164  1.00  0.00     0.045 C 
ENDBRANCH  16  17
ENDBRANCH  15  16
ENDBRANCH  13  15
ENDBRANCH   4  13
TORSDOF 8
ENDMDL
