MODEL 1
REMARK VINA RESULT:    -4.853      0.000      0.000
REMARK INTER + INTRA:          -7.705
REMARK INTER:                  -6.981
REMARK INTRA:                  -0.724
REMARK UNBOUND:                -0.724
REMARK SMILES Cc1ccncc1/C=C/Nc1ccc(CCCN)cc1
REMARK SMILES IDX 14 1 13 2 12 3 11 4 20 5 19 6 15 7 16 8 17 9 18 10 10 13
REMARK SMILES IDX 9 15 8 16 7 17 2 18 6 19 3 20 5 21 4 22 1 23
REMARK H PARENT 18 11 18 12 10 14
ROOT
ATOM      1  C   UNL     1       7.873  -6.461  10.336  1.00  0.00    -0.048 A 
ATOM      2  C   UNL     1       7.729  -5.355  11.176  1.00  0.00     0.006 A 
ATOM      3  C   UNL     1       7.019  -4.233  10.758  1.00  0.00     0.026 A 
ATOM      4  C   UNL     1       6.495  -4.138   9.466  1.00  0.00     0.038 A 
ATOM      5  C   UNL     1       6.688  -5.223   8.603  1.00  0.00     0.026 A 
ATOM      6  C   UNL     1       7.369  -6.372   9.032  1.00  0.00     0.006 A 
ENDROOT
BRANCH   1   7
ATOM      7  C   UNL     1       8.552  -7.720  10.813  1.00  0.00     0.037 C 
BRANCH   7   8
ATOM      8  C   UNL     1       7.873  -8.475  11.973  1.00  0.00     0.020 C 
BRANCH   8   9
ATOM      9  C   UNL     1       8.536  -8.331  13.350  1.00  0.00     0.078 C 
BRANCH   9  10
ATOM     10  N   UNL     1       7.677  -7.790  14.393  1.00  0.00    -0.330 NA
ATOM     11  H   UNL     1       7.409  -8.529  15.043  1.00  0.00     0.118 HD
ATOM     12  H   UNL     1       6.804  -7.452  13.989  1.00  0.00     0.118 HD
ENDBRANCH   9  10
ENDBRANCH   8   9
ENDBRANCH   7   8
ENDBRANCH   1   7
BRANCH   4  13
ATOM     13  N   UNL     1       5.881  -2.961   8.997  1.00  0.00    -0.362 N 
ATOM     14  H   UNL     1       5.331  -2.437   9.667  1.00  0.00     0.166 HD
BRANCH  13  15
ATOM     15  C   UNL     1       5.756  -2.615   7.677  1.00  0.00     0.083 C 
BRANCH  15  16
ATOM     16  C   UNL     1       4.670  -2.205   7.009  1.00  0.00     0.027 C 
BRANCH  16  17
ATOM     17  C   UNL     1       4.075  -3.027   5.944  1.00  0.00    -0.003 A 
ATOM     18  C   UNL     1       4.264  -2.744   4.579  1.00  0.00    -0.041 A 
ATOM     19  C   UNL     1       3.252  -4.120   6.253  1.00  0.00     0.119 A 
ATOM     20  C   UNL     1       3.640  -3.566   3.628  1.00  0.00     0.024 A 
ATOM     21  N   UNL     1       2.658  -4.934   5.349  1.00  0.00    -0.264 NA
ATOM     22  C   UNL     1       2.870  -4.637   4.055  1.00  0.00     0.111 A 
ATOM     23  C   UNL     1       5.077  -1.573   4.105  1.00  0.00     0.045 C 
ENDBRANCH  16  17
ENDBRANCH  15  16
ENDBRANCH  13  15
ENDBRANCH   4  13
TORSDOF 8
ENDMDL
MODEL 2
REMARK VINA RESULT:    -4.811      1.413      2.285
REMARK INTER + INTRA:          -7.644
REMARK INTER:                  -6.986
REMARK INTRA:                  -0.658
REMARK UNBOUND:                -0.724
REMARK SMILES Cc1ccncc1/C=C/Nc1ccc(CCCN)cc1
REMARK SMILES IDX 14 1 13 2 12 3 11 4 20 5 19 6 15 7 16 8 17 9 18 10 10 13
REMARK SMILES IDX 9 15 8 16 7 17 2 18 6 19 3 20 5 21 4 22 1 23
REMARK H PARENT 18 11 18 12 10 14
ROOT
ATOM      1  C   UNL     1       8.132  -7.188  10.603  1.00  0.00    -0.048 A 
ATOM      2  C   UNL     1       7.921  -7.504   9.259  1.00  0.00     0.006 A 
ATOM      3  C   UNL     1       7.431  -6.549   8.373  1.00  0.00     0.026 A 
ATOM      4  C   UNL     1       7.060  -5.272   8.804  1.00  0.00     0.038 A 
ATOM      5  C   UNL     1       7.219  -4.972  10.163  1.00  0.00     0.026 A 
ATOM      6  C   UNL     1       7.748  -5.919  11.053  1.00  0.00     0.006 A 
ENDROOT
BRANCH   1   7
ATOM      7  C   UNL     1       8.757  -8.183  11.549  1.00  0.00     0.037 C 
BRANCH   7   8
ATOM      8  C   UNL     1       7.973  -8.496  12.839  1.00  0.00     0.020 C 
BRANCH   8   9
ATOM      9  C   UNL     1       8.686  -8.162  14.158  1.00  0.00     0.078 C 
BRANCH   9  10
ATOM     10  N   UNL     1       7.894  -7.391  15.106  1.00  0.00    -0.330 NA
ATOM     11  H   UNL     1       8.180  -6.413  15.085  1.00  0.00     0.118 HD
ATOM     12  H   UNL     1       8.078  -7.709  16.058  1.00  0.00     0.118 HD
ENDBRANCH   9  10
ENDBRANCH   8   9
ENDBRANCH   7   8
ENDBRANCH   1   7
BRANCH   4  13
ATOM     13  N   UNL     1       6.454  -4.341   7.940  1.00  0.00    -0.362 N 
ATOM     14  H   UNL     1       7.066  -3.847   7.303  1.00  0.00     0.166 HD
BRANCH  13  15
ATOM     15  C   UNL     1       5.172  -3.875   8.067  1.00  0.00     0.083 C 
BRANCH  15  16
ATOM     16  C   UNL     1       4.199  -3.815   7.148  1.00  0.00     0.027 C 
BRANCH  16  17
ATOM     17  C   UNL     1       4.203  -2.782   6.101  1.00  0.00    -0.003 A 
ATOM     18  C   UNL     1       3.865  -3.061   4.765  1.00  0.00    -0.041 A 
ATOM     19  C   UNL     1       4.587  -1.464   6.391  1.00  0.00     0.119 A 
ATOM     20  C   UNL     1       3.918  -2.021   3.825  1.00  0.00     0.024 A 
ATOM     21  N   UNL     1       4.627  -0.445   5.501  1.00  0.00    -0.264 NA
ATOM     22  C   UNL     1       4.287  -0.750   4.236  1.00  0.00     0.111 A 
ATOM     23  C   UNL     1       3.487  -4.440   4.301  1.00  0.00     0.045 C 
ENDBRANCH  16  17
ENDBRANCH  15  16
ENDBRANCH  13  15
ENDBRANCH   4  13
TORSDOF 8
ENDMDL
MODEL 3
REMARK VINA RESULT:    -4.799      2.373      3.361
REMARK INTER + INTRA:          -7.627
REMARK INTER:                  -7.028
REMARK INTRA:                  -0.599
REMARK UNBOUND:                -0.724
REMARK SMILES Cc1ccncc1/C=C/Nc1ccc(CCCN)cc1
REMARK SMILES IDX 14 1 13 2 12 3 11 4 20 5 19 6 15 7 16 8 17 9 18 10 10 13
REMARK SMILES IDX 9 15 8 16 7 17 2 18 6 19 3 20 5 21 4 22 1 23
REMARK H PARENT 18 11 18 12 10 14
ROOT
ATOM      1  C   UNL     1       7.504  -3.387  12.463  1.00  0.00    -0.048 A 
ATOM      2  C   UNL     1       7.806  -4.658  11.968  1.00  0.00     0.006 A 
ATOM      3  C   UNL     1       7.423  -5.030  10.683  1.00  0.00     0.026 A 
ATOM      4  C   UNL     1       6.660  -4.185   9.873  1.00  0.00     0.038 A 
ATOM      5  C   UNL     1       6.306  -2.932  10.389  1.00  0.00     0.026 A 
ATOM      6  C   UNL     1       6.723  -2.537  11.670  1.00  0.00     0.006 A 
ENDROOT
BRANCH   1   7
ATOM      7  C   UNL     1       8.000  -2.937  13.813  1.00  0.00     0.037 C 
BRANCH   7   8
ATOM      8  C   UNL     1       9.517  -3.042  14.063  1.00  0.00     0.020 C 
BRANCH   8   9
ATOM      9  C   UNL     1       9.966  -4.154  15.022  1.00  0.00     0.078 C 
BRANCH   9  10
ATOM     10  N   UNL     1      10.678  -5.258  14.394  1.00  0.00    -0.330 NA
ATOM     11  H   UNL     1      11.521  -5.476  14.922  1.00  0.00     0.118 HD
ATOM     12  H   UNL     1      11.000  -4.986  13.465  1.00  0.00     0.118 HD
ENDBRANCH   9  10
ENDBRANCH   8   9
ENDBRANCH   7   8
ENDBRANCH   1   7
BRANCH   4  13
ATOM     13  N   UNL     1       6.167  -4.599   8.621  1.00  0.00    -0.362 N 
ATOM     14  H   UNL     1       6.268  -5.581   8.395  1.00  0.00     0.166 HD
BRANCH  13  15
ATOM     15  C   UNL     1       5.808  -3.755   7.603  1.00  0.00     0.083 C 
BRANCH  15  16
ATOM     16  C   UNL     1       4.609  -3.580   7.033  1.00  0.00     0.027 C 
BRANCH  16  17
ATOM     17  C   UNL     1       4.415  -2.606   5.949  1.00  0.00    -0.003 A 
ATOM     18  C   UNL     1       3.933  -2.975   4.680  1.00  0.00    -0.041 A 
ATOM     19  C   UNL     1       4.745  -1.254   6.129  1.00  0.00     0.119 A 
ATOM     20  C   UNL     1       3.801  -1.985   3.695  1.00  0.00     0.024 A 
ATOM     21  N   UNL     1       4.608  -0.283   5.195  1.00  0.00    -0.264 NA
ATOM     22  C   UNL     1       4.134  -0.674   3.999  1.00  0.00     0.111 A 
ATOM     23  C   UNL     1       3.592  -4.397   4.332  1.00  0.00     0.045 C 
ENDBRANCH  16  17
ENDBRANCH  15  16
ENDBRANCH  13  15
ENDBRANCH   4  13
TORSDOF 8
ENDMDL
MODEL 4
REMARK VINA RESULT:    -4.785      2.317      3.082
REMARK INTER + INTRA:          -7.607
REMARK INTER:                  -6.963
REMARK INTRA:                  -0.644
REMARK UNBOUND:                -0.724
REMARK SMILES Cc1ccncc1/C=C/Nc1ccc(CCCN)cc1
REMARK SMILES IDX 14 1 13 2 12 3 11 4 20 5 19 6 15 7 16 8 17 9 18 10 10 13
REMARK SMILES IDX 9 15 8 16 7 17 2 18 6 19 3 20 5 21 4 22 1 23
REMARK H PARENT 18 11 18 12 10 14
ROOT
ATOM      1  C   UNL     1       7.456  -3.226  12.598  1.00  0.00    -0.048 A 
ATOM      2  C   UNL     1       7.633  -4.347  11.785  1.00  0.00     0.006 A 
ATOM      3  C   UNL     1       7.200  -4.341  10.462  1.00  0.00     0.026 A 
ATOM      4  C   UNL     1       6.509  -3.253   9.924  1.00  0.00     0.038 A 
ATOM      5  C   UNL     1       6.281  -2.149  10.755  1.00  0.00     0.026 A 
ATOM      6  C   UNL     1       6.749  -2.135  12.078  1.00  0.00     0.006 A 
ENDROOT
BRANCH   1   7
ATOM      7  C   UNL     1       8.010  -3.184  14.001  1.00  0.00     0.037 C 
BRANCH   7   8
ATOM      8  C   UNL     1       9.532  -3.375  14.149  1.00  0.00     0.020 C 
BRANCH   8   9
ATOM      9  C   UNL     1       9.979  -4.509  15.084  1.00  0.00     0.078 C 
BRANCH   9  10
ATOM     10  N   UNL     1      10.784  -5.545  14.452  1.00  0.00    -0.330 NA
ATOM     11  H   UNL     1      11.656  -5.147  14.105  1.00  0.00     0.118 HD
ATOM     12  H   UNL     1      10.304  -5.911  13.629  1.00  0.00     0.118 HD
ENDBRANCH   9  10
ENDBRANCH   8   9
ENDBRANCH   7   8
ENDBRANCH   1   7
BRANCH   4  13
ATOM     13  N   UNL     1       5.964  -3.285   8.625  1.00  0.00    -0.362 N 
ATOM     14  H   UNL     1       4.968  -3.448   8.555  1.00  0.00     0.166 HD
BRANCH  13  15
ATOM     15  C   UNL     1       6.697  -3.373   7.471  1.00  0.00     0.083 C 
BRANCH  15  16
ATOM     16  C   UNL     1       6.674  -2.578   6.393  1.00  0.00     0.027 C 
BRANCH  16  17
ATOM     17  C   UNL     1       5.669  -2.758   5.335  1.00  0.00    -0.003 A 
ATOM     18  C   UNL     1       5.027  -1.673   4.712  1.00  0.00    -0.041 A 
ATOM     19  C   UNL     1       5.276  -4.041   4.927  1.00  0.00     0.119 A 
ATOM     20  C   UNL     1       4.062  -1.935   3.728  1.00  0.00     0.024 A 
ATOM     21  N   UNL     1       4.360  -4.312   3.968  1.00  0.00    -0.264 NA
ATOM     22  C   UNL     1       3.776  -3.248   3.388  1.00  0.00     0.111 A 
ATOM     23  C   UNL     1       5.311  -0.246   5.088  1.00  0.00     0.045 C 
ENDBRANCH  16  17
ENDBRANCH  15  16
ENDBRANCH  13  15
ENDBRANCH   4  13
TORSDOF 8
ENDMDL
MODEL 5
REMARK VINA RESULT:    -4.702      3.353      8.728
REMARK INTER + INTRA:          -7.487
REMARK INTER:                  -6.869
REMARK INTRA:                  -0.618
REMARK UNBOUND:                -0.724
REMARK SMILES Cc1ccncc1/C=C/Nc1ccc(CCCN)cc1
REMARK SMILES IDX 14 1 13 2 12 3 11 4 20 5 19 6 15 7 16 8 17 9 18 10 10 13
REMARK SMILES IDX 9 15 8 16 7 17 2 18 6 19 3 20 5 21 4 22 1 23
REMARK H PARENT 18 11 18 12 10 14
ROOT
ATOM      1  C   UNL     1       6.228  -3.067   6.570  1.00  0.00    -0.048 A 
ATOM      2  C   UNL     1       7.386  -2.835   7.315  1.00  0.00     0.006 A 
ATOM      3  C   UNL     1       7.498  -3.307   8.619  1.00  0.00     0.026 A 
ATOM      4  C   UNL     1       6.438  -3.957   9.256  1.00  0.00     0.038 A 
ATOM      5  C   UNL     1       5.256  -4.140   8.530  1.00  0.00     0.026 A 
ATOM      6  C   UNL     1       5.151  -3.700   7.202  1.00  0.00     0.006 A 
ENDROOT
BRANCH   1   7
ATOM      7  C   UNL     1       6.133  -2.650   5.124  1.00  0.00     0.037 C 
BRANCH   7   8
ATOM      8  C   UNL     1       5.118  -1.539   4.789  1.00  0.00     0.020 C 
BRANCH   8   9
ATOM      9  C   UNL     1       5.531  -0.111   5.174  1.00  0.00     0.078 C 
BRANCH   9  10
ATOM     10  N   UNL     1       6.143   0.662   4.103  1.00  0.00    -0.330 NA
ATOM     11  H   UNL     1       6.202   1.644   4.371  1.00  0.00     0.118 HD
ATOM     12  H   UNL     1       5.552   0.641   3.272  1.00  0.00     0.118 HD
ENDBRANCH   9  10
ENDBRANCH   8   9
ENDBRANCH   7   8
ENDBRANCH   1   7
BRANCH   4  13
ATOM     13  N   UNL     1       6.501  -4.330  10.612  1.00  0.00    -0.362 N 
ATOM     14  H   UNL     1       5.744  -4.904  10.961  1.00  0.00     0.166 HD
BRANCH  13  15
ATOM     15  C   UNL     1       7.348  -3.779  11.537  1.00  0.00     0.083 C 
BRANCH  15  16
ATOM     16  C   UNL     1       7.136  -2.754  12.373  1.00  0.00     0.027 C 
BRANCH  16  17
ATOM     17  C   UNL     1       7.573  -2.811  13.776  1.00  0.00    -0.003 A 
ATOM     18  C   UNL     1       6.725  -2.473  14.845  1.00  0.00    -0.041 A 
ATOM     19  C   UNL     1       8.888  -3.175  14.106  1.00  0.00     0.119 A 
ATOM     20  C   UNL     1       7.231  -2.532  16.152  1.00  0.00     0.024 A 
ATOM     21  N   UNL     1       9.387  -3.254  15.361  1.00  0.00    -0.264 NA
ATOM     22  C   UNL     1       8.541  -2.933  16.357  1.00  0.00     0.111 A 
ATOM     23  C   UNL     1       5.309  -2.014  14.634  1.00  0.00     0.045 C 
ENDBRANCH  16  17
ENDBRANCH  15  16
ENDBRANCH  13  15
ENDBRANCH   4  13
TORSDOF 8
ENDMDL
MODEL 6
REMARK VINA RESULT:    -4.666      3.440      8.592
REMARK INTER + INTRA:          -7.436
REMARK INTER:                  -6.901
REMARK INTRA:                  -0.535
REMARK UNBOUND:                -0.724
REMARK SMILES Cc1ccncc1/C=C/Nc1ccc(CCCN)cc1
REMARK SMILES IDX 14 1 13 2 12 3 11 4 20 5 19 6 15 7 16 8 17 9 18 10 10 13
REMARK SMILES IDX 9 15 8 16 7 17 2 18 6 19 3 20 5 21 4 22 1 23
REMARK H PARENT 18 11 18 12 10 14
ROOT
ATOM      1  C   UNL     1       5.963  -3.139   6.311  1.00  0.00    -0.048 A 
ATOM      2  C   UNL     1       7.156  -2.880   6.989  1.00  0.00     0.006 A 
ATOM      3  C   UNL     1       7.325  -3.288   8.309  1.00  0.00     0.026 A 
ATOM      4  C   UNL     1       6.292  -3.897   9.026  1.00  0.00     0.038 A 
ATOM      5  C   UNL     1       5.076  -4.106   8.365  1.00  0.00     0.026 A 
ATOM      6  C   UNL     1       4.912  -3.732   7.023  1.00  0.00     0.006 A 
ENDROOT
BRANCH   1   7
ATOM      7  C   UNL     1       5.803  -2.793   4.852  1.00  0.00     0.037 C 
BRANCH   7   8
ATOM      8  C   UNL     1       4.983  -1.530   4.527  1.00  0.00     0.020 C 
BRANCH   8   9
ATOM      9  C   UNL     1       5.501  -0.216   5.130  1.00  0.00     0.078 C 
BRANCH   9  10
ATOM     10  N   UNL     1       6.128   0.692   4.180  1.00  0.00    -0.330 NA
ATOM     11  H   UNL     1       5.487   0.891   3.413  1.00  0.00     0.118 HD
ATOM     12  H   UNL     1       6.939   0.247   3.750  1.00  0.00     0.118 HD
ENDBRANCH   9  10
ENDBRANCH   8   9
ENDBRANCH   7   8
ENDBRANCH   1   7
BRANCH   4  13
ATOM     13  N   UNL     1       6.416  -4.204  10.395  1.00  0.00    -0.362 N 
ATOM     14  H   UNL     1       6.341  -5.181  10.650  1.00  0.00     0.166 HD
BRANCH  13  15
ATOM     15  C   UNL     1       6.372  -3.286  11.410  1.00  0.00     0.083 C 
BRANCH  15  16
ATOM     16  C   UNL     1       7.343  -2.909  12.253  1.00  0.00     0.027 C 
BRANCH  16  17
ATOM     17  C   UNL     1       7.047  -2.566  13.652  1.00  0.00    -0.003 A 
ATOM     18  C   UNL     1       7.959  -2.804  14.696  1.00  0.00    -0.041 A 
ATOM     19  C   UNL     1       5.808  -2.014  14.011  1.00  0.00     0.119 A 
ATOM     20  C   UNL     1       7.586  -2.468  16.006  1.00  0.00     0.024 A 
ATOM     21  N   UNL     1       5.439  -1.668  15.266  1.00  0.00    -0.264 NA
ATOM     22  C   UNL     1       6.342  -1.902  16.235  1.00  0.00     0.111 A 
ATOM     23  C   UNL     1       9.301  -3.439  14.463  1.00  0.00     0.045 C 
ENDBRANCH  16  17
ENDBRANCH  15  16
ENDBRANCH  13  15
ENDBRANCH   4  13
TORSDOF 8
ENDMDL
MODEL 7
REMARK VINA RESULT:    -4.660      3.440      4.467
REMARK INTER + INTRA:          -7.427
REMARK INTER:                  -6.807
REMARK INTRA:                  -0.620
REMARK UNBOUND:                -0.724
REMARK SMILES Cc1ccncc1/C=C/Nc1ccc(CCCN)cc1
REMARK SMILES IDX 14 1 13 2 12 3 11 4 20 5 19 6 15 7 16 8 17 9 18 10 10 13
REMARK SMILES IDX 9 15 8 16 7 17 2 18 6 19 3 20 5 21 4 22 1 23
REMARK H PARENT 18 11 18 12 10 14
ROOT
ATOM      1  C   UNL     1       6.257  -2.162  14.483  1.00  0.00    -0.048 A 
ATOM      2  C   UNL     1       5.461  -1.868  13.374  1.00  0.00     0.006 A 
ATOM      3  C   UNL     1       5.825  -2.302  12.103  1.00  0.00     0.026 A 
ATOM      4  C   UNL     1       7.028  -2.975  11.876  1.00  0.00     0.038 A 
ATOM      5  C   UNL     1       7.855  -3.221  12.978  1.00  0.00     0.026 A 
ATOM      6  C   UNL     1       7.475  -2.819  14.268  1.00  0.00     0.006 A 
ENDROOT
BRANCH   1   7
ATOM      7  C   UNL     1       5.824  -1.784  15.878  1.00  0.00     0.037 C 
BRANCH   7   8
ATOM      8  C   UNL     1       5.496  -2.944  16.838  1.00  0.00     0.020 C 
BRANCH   8   9
ATOM      9  C   UNL     1       4.087  -3.542  16.716  1.00  0.00     0.078 C 
BRANCH   9  10
ATOM     10  N   UNL     1       4.039  -4.995  16.646  1.00  0.00    -0.330 NA
ATOM     11  H   UNL     1       4.276  -5.396  17.552  1.00  0.00     0.118 HD
ATOM     12  H   UNL     1       4.749  -5.339  15.999  1.00  0.00     0.118 HD
ENDBRANCH   9  10
ENDBRANCH   8   9
ENDBRANCH   7   8
ENDBRANCH   1   7
BRANCH   4  13
ATOM     13  N   UNL     1       7.459  -3.312  10.578  1.00  0.00    -0.362 N 
ATOM     14  H   UNL     1       8.454  -3.262  10.403  1.00  0.00     0.166 HD
BRANCH  13  15
ATOM     15  C   UNL     1       6.636  -3.447   9.491  1.00  0.00     0.083 C 
BRANCH  15  16
ATOM     16  C   UNL     1       6.943  -3.405   8.188  1.00  0.00     0.027 C 
BRANCH  16  17
ATOM     17  C   UNL     1       5.894  -3.333   7.160  1.00  0.00    -0.003 A 
ATOM     18  C   UNL     1       6.083  -2.669   5.935  1.00  0.00    -0.041 A 
ATOM     19  C   UNL     1       4.630  -3.900   7.381  1.00  0.00     0.119 A 
ATOM     20  C   UNL     1       5.020  -2.627   5.020  1.00  0.00     0.024 A 
ATOM     21  N   UNL     1       3.600  -3.884   6.502  1.00  0.00    -0.264 NA
ATOM     22  C   UNL     1       3.823  -3.248   5.338  1.00  0.00     0.111 A 
ATOM     23  C   UNL     1       7.369  -1.971   5.588  1.00  0.00     0.045 C 
ENDBRANCH  16  17
ENDBRANCH  15  16
ENDBRANCH  13  15
ENDBRANCH   4  13
TORSDOF 8
ENDMDL
MODEL 8
REMARK VINA RESULT:    -4.649      2.020      8.285
REMARK INTER + INTRA:          -7.411
REMARK INTER:                  -6.753
REMARK INTRA:                  -0.659
REMARK UNBOUND:                -0.724
REMARK SMILES Cc1ccncc1/C=C/Nc1ccc(CCCN)cc1
REMARK SMILES IDX 14 1 13 2 12 3 11 4 20 5 19 6 15 7 16 8 17 9 18 10 10 13
REMARK SMILES IDX 9 15 8 16 7 17 2 18 6 19 3 20 5 21 4 22 1 23
REMARK H PARENT 18 11 18 12 10 14
ROOT
ATOM      1  C   UNL     1       4.580  -3.176   6.627  1.00  0.00    -0.048 A 
ATOM      2  C   UNL     1       4.104  -4.091   7.568  1.00  0.00     0.006 A 
ATOM      3  C   UNL     1       4.926  -4.548   8.594  1.00  0.00     0.026 A 
ATOM      4  C   UNL     1       6.270  -4.174   8.677  1.00  0.00     0.038 A 
ATOM      5  C   UNL     1       6.764  -3.300   7.702  1.00  0.00     0.026 A 
ATOM      6  C   UNL     1       5.929  -2.807   6.687  1.00  0.00     0.006 A 
ENDROOT
BRANCH   1   7
ATOM      7  C   UNL     1       3.671  -2.597   5.572  1.00  0.00     0.037 C 
BRANCH   7   8
ATOM      8  C   UNL     1       3.924  -3.045   4.120  1.00  0.00     0.020 C 
BRANCH   8   9
ATOM      9  C   UNL     1       3.469  -4.468   3.765  1.00  0.00     0.078 C 
BRANCH   9  10
ATOM     10  N   UNL     1       2.048  -4.726   3.954  1.00  0.00    -0.330 NA
ATOM     11  H   UNL     1       1.591  -4.839   3.051  1.00  0.00     0.118 HD
ATOM     12  H   UNL     1       1.600  -3.919   4.388  1.00  0.00     0.118 HD
ENDBRANCH   9  10
ENDBRANCH   8   9
ENDBRANCH   7   8
ENDBRANCH   1   7
BRANCH   4  13
ATOM     13  N   UNL     1       7.137  -4.723   9.641  1.00  0.00    -0.362 N 
ATOM     14  H   UNL     1       7.383  -4.129  10.422  1.00  0.00     0.166 HD
BRANCH  13  15
ATOM     15  C   UNL     1       7.862  -5.874   9.475  1.00  0.00     0.083 C 
BRANCH  15  16
ATOM     16  C   UNL     1       7.726  -7.055  10.092  1.00  0.00     0.027 C 
BRANCH  16  17
ATOM     17  C   UNL     1       8.866  -7.972  10.243  1.00  0.00    -0.003 A 
ATOM     18  C   UNL     1       9.133  -8.652  11.445  1.00  0.00    -0.041 A 
ATOM     19  C   UNL     1       9.769  -8.177   9.189  1.00  0.00     0.119 A 
ATOM     20  C   UNL     1      10.257  -9.489  11.510  1.00  0.00     0.024 A 
ATOM     21  N   UNL     1      10.847  -8.994   9.229  1.00  0.00    -0.264 NA
ATOM     22  C   UNL     1      11.063  -9.635  10.392  1.00  0.00     0.111 A 
ATOM     23  C   UNL     1       8.280  -8.484  12.671  1.00  0.00     0.045 C 
ENDBRANCH  16  17
ENDBRANCH  15  16
ENDBRANCH  13  15
ENDBRANCH   4  13
TORSDOF 8
ENDMDL
MODEL 9
REMARK VINA RESULT:    -4.609      3.220      4.565
REMARK INTER + INTRA:          -7.354
REMARK INTER:                  -6.712
REMARK INTRA:                  -0.642
REMARK UNBOUND:                -0.724
REMARK SMILES Cc1ccncc1/C=C/Nc1ccc(CCCN)cc1
REMARK SMILES IDX 14 1 13 2 12 3 11 4 20 5 19 6 15 7 16 8 17 9 18 10 10 13
REMARK SMILES IDX 9 15 8 16 7 17 2 18 6 19 3 20 5 21 4 22 1 23
REMARK H PARENT 18 11 18 12 10 14
ROOT
ATOM      1  C   UNL     1       6.288  -2.316  13.849  1.00  0.00    -0.048 A 
ATOM      2  C   UNL     1       7.452  -3.012  13.519  1.00  0.00     0.006 A 
ATOM      3  C   UNL     1       7.848  -3.145  12.191  1.00  0.00     0.026 A 
ATOM      4  C   UNL     1       7.064  -2.660  11.142  1.00  0.00     0.038 A 
ATOM      5  C   UNL     1       5.867  -2.011  11.468  1.00  0.00     0.026 A 
ATOM      6  C   UNL     1       5.483  -1.841  12.807  1.00  0.00     0.006 A 
ENDROOT
BRANCH   1   7
ATOM      7  C   UNL     1       5.902  -2.078  15.288  1.00  0.00     0.037 C 
BRANCH   7   8
ATOM      8  C   UNL     1       4.481  -2.506  15.702  1.00  0.00     0.020 C 
BRANCH   8   9
ATOM      9  C   UNL     1       4.386  -3.448  16.912  1.00  0.00     0.078 C 
BRANCH   9  10
ATOM     10  N   UNL     1       3.998  -4.815  16.597  1.00  0.00    -0.330 NA
ATOM     11  H   UNL     1       4.630  -5.205  15.899  1.00  0.00     0.118 HD
ATOM     12  H   UNL     1       3.074  -4.828  16.166  1.00  0.00     0.118 HD
ENDBRANCH   9  10
ENDBRANCH   8   9
ENDBRANCH   7   8
ENDBRANCH   1   7
BRANCH   4  13
ATOM     13  N   UNL     1       7.397  -2.894   9.794  1.00  0.00    -0.362 N 
ATOM     14  H   UNL     1       7.792  -2.116   9.281  1.00  0.00     0.166 HD
BRANCH  13  15
ATOM     15  C   UNL     1       6.999  -3.986   9.068  1.00  0.00     0.083 C 
BRANCH  15  16
ATOM     16  C   UNL     1       5.944  -4.121   8.253  1.00  0.00     0.027 C 
BRANCH  16  17
ATOM     17  C   UNL     1       5.730  -3.202   7.125  1.00  0.00    -0.003 A 
ATOM     18  C   UNL     1       4.473  -3.033   6.518  1.00  0.00    -0.041 A 
ATOM     19  C   UNL     1       6.797  -2.475   6.576  1.00  0.00     0.119 A 
ATOM     20  C   UNL     1       4.362  -2.153   5.430  1.00  0.00     0.024 A 
ATOM     21  N   UNL     1       6.705  -1.610   5.539  1.00  0.00    -0.264 NA
ATOM     22  C   UNL     1       5.485  -1.468   4.992  1.00  0.00     0.111 A 
ATOM     23  C   UNL     1       3.254  -3.788   6.968  1.00  0.00     0.045 C 
ENDBRANCH  16  17
ENDBRANCH  15  16
ENDBRANCH  13  15
ENDBRANCH   4  13
TORSDOF 8
ENDMDL
