MODEL 1
REMARK VINA RESULT:    -5.091      0.000      0.000
REMARK INTER + INTRA:          -7.958
REMARK INTER:                  -7.323
REMARK INTRA:                  -0.635
REMARK UNBOUND:                -0.635
REMARK SMILES Cc1ccncc1/C=C/Nc1ccc(CCCN)cc1
REMARK SMILES IDX 14 1 13 2 12 3 11 4 20 5 19 6 15 7 16 8 17 9 18 10 10 13
REMARK SMILES IDX 9 15 8 16 7 17 2 18 6 19 3 20 5 21 4 22 1 23
REMARK H PARENT 18 11 18 12 10 14
ROOT
ATOM      1  C   UNL     1       8.909   4.638  12.500  1.00  0.00    -0.048 A 
ATOM      2  C   UNL     1       8.132   3.777  11.721  1.00  0.00     0.006 A 
ATOM      3  C   UNL     1       7.856   4.078  10.391  1.00  0.00     0.026 A 
ATOM      4  C   UNL     1       8.273   5.278   9.809  1.00  0.00     0.038 A 
ATOM      5  C   UNL     1       9.003   6.168  10.606  1.00  0.00     0.026 A 
ATOM      6  C   UNL     1       9.318   5.852  11.936  1.00  0.00     0.006 A 
ENDROOT
BRANCH   1   7
ATOM      7  C   UNL     1       9.300   4.275  13.911  1.00  0.00     0.037 C 
BRANCH   7   8
ATOM      8  C   UNL     1      10.182   3.024  14.084  1.00  0.00     0.020 C 
BRANCH   8   9
ATOM      9  C   UNL     1      11.659   3.282  14.417  1.00  0.00     0.078 C 
BRANCH   9  10
ATOM     10  N   UNL     1      12.599   2.912  13.369  1.00  0.00    -0.330 NA
ATOM     11  H   UNL     1      12.364   3.393  12.503  1.00  0.00     0.118 HD
ATOM     12  H   UNL     1      12.518   1.916  13.159  1.00  0.00     0.118 HD
ENDBRANCH   9  10
ENDBRANCH   8   9
ENDBRANCH   7   8
ENDBRANCH   1   7
BRANCH   4  13
ATOM     13  N   UNL     1       7.896   5.642   8.503  1.00  0.00    -0.362 N 
ATOM     14  H   UNL     1       7.134   6.303   8.417  1.00  0.00     0.166 HD
BRANCH  13  15
ATOM     15  C   UNL     1       8.294   4.993   7.364  1.00  0.00     0.083 C 
BRANCH  15  16
ATOM     16  C   UNL     1       7.757   5.031   6.137  1.00  0.00     0.027 C 
BRANCH  16  17
ATOM     17  C   UNL     1       7.366   3.798   5.438  1.00  0.00    -0.003 A 
ATOM     18  C   UNL     1       6.292   3.753   4.532  1.00  0.00    -0.041 A 
ATOM     19  C   UNL     1       8.037   2.590   5.681  1.00  0.00     0.119 A 
ATOM     20  C   UNL     1       5.971   2.528   3.927  1.00  0.00     0.024 A 
ATOM     21  N   UNL     1       7.752   1.404   5.093  1.00  0.00    -0.264 NA
ATOM     22  C   UNL     1       6.725   1.404   4.225  1.00  0.00     0.111 A 
ATOM     23  C   UNL     1       5.453   4.960   4.218  1.00  0.00     0.045 C 
ENDBRANCH  16  17
ENDBRANCH  15  16
ENDBRANCH  13  15
ENDBRANCH   4  13
TORSDOF 8
ENDMDL
MODEL 2
REMARK VINA RESULT:    -5.076      4.714      6.834
REMARK INTER + INTRA:          -7.937
REMARK INTER:                  -7.286
REMARK INTRA:                  -0.650
REMARK UNBOUND:                -0.635
REMARK SMILES Cc1ccncc1/C=C/Nc1ccc(CCCN)cc1
REMARK SMILES IDX 14 1 13 2 12 3 11 4 20 5 19 6 15 7 16 8 17 9 18 10 10 13
REMARK SMILES IDX 9 15 8 16 7 17 2 18 6 19 3 20 5 21 4 22 1 23
REMARK H PARENT 18 11 18 12 10 14
ROOT
ATOM      1  C   UNL     1      13.297   7.833   5.154  1.00  0.00    -0.048 A 
ATOM      2  C   UNL     1      12.267   7.417   4.309  1.00  0.00     0.006 A 
ATOM      3  C   UNL     1      11.454   6.342   4.655  1.00  0.00     0.026 A 
ATOM      4  C   UNL     1      11.683   5.594   5.813  1.00  0.00     0.038 A 
ATOM      5  C   UNL     1      12.751   5.975   6.634  1.00  0.00     0.026 A 
ATOM      6  C   UNL     1      13.550   7.082   6.308  1.00  0.00     0.006 A 
ENDROOT
BRANCH   1   7
ATOM      7  C   UNL     1      14.119   9.057   4.839  1.00  0.00     0.037 C 
BRANCH   7   8
ATOM      8  C   UNL     1      13.393  10.415   4.905  1.00  0.00     0.020 C 
BRANCH   8   9
ATOM      9  C   UNL     1      13.639  11.249   6.171  1.00  0.00     0.078 C 
BRANCH   9  10
ATOM     10  N   UNL     1      12.454  11.512   6.975  1.00  0.00    -0.330 NA
ATOM     11  H   UNL     1      12.589  11.159   7.921  1.00  0.00     0.118 HD
ATOM     12  H   UNL     1      11.655  10.997   6.603  1.00  0.00     0.118 HD
ENDBRANCH   9  10
ENDBRANCH   8   9
ENDBRANCH   7   8
ENDBRANCH   1   7
BRANCH   4  13
ATOM     13  N   UNL     1      10.941   4.435   6.110  1.00  0.00    -0.362 N 
ATOM     14  H   UNL     1      11.391   3.547   5.924  1.00  0.00     0.166 HD
BRANCH  13  15
ATOM     15  C   UNL     1       9.597   4.413   6.377  1.00  0.00     0.083 C 
BRANCH  15  16
ATOM     16  C   UNL     1       8.727   3.402   6.250  1.00  0.00     0.027 C 
BRANCH  16  17
ATOM     17  C   UNL     1       7.488   3.557   5.472  1.00  0.00    -0.003 A 
ATOM     18  C   UNL     1       6.861   2.475   4.829  1.00  0.00    -0.041 A 
ATOM     19  C   UNL     1       6.894   4.818   5.307  1.00  0.00     0.119 A 
ATOM     20  C   UNL     1       5.695   2.716   4.087  1.00  0.00     0.024 A 
ATOM     21  N   UNL     1       5.761   5.065   4.611  1.00  0.00    -0.264 NA
ATOM     22  C   UNL     1       5.185   4.003   4.018  1.00  0.00     0.111 A 
ATOM     23  C   UNL     1       7.417   1.080   4.876  1.00  0.00     0.045 C 
ENDBRANCH  16  17
ENDBRANCH  15  16
ENDBRANCH  13  15
ENDBRANCH   4  13
TORSDOF 8
ENDMDL
MODEL 3
REMARK VINA RESULT:    -4.870      4.709      8.516
REMARK INTER + INTRA:          -7.639
REMARK INTER:                  -7.170
REMARK INTRA:                  -0.469
REMARK UNBOUND:                -0.635
REMARK SMILES Cc1ccncc1/C=C/Nc1ccc(CCCN)cc1
REMARK SMILES IDX 14 1 13 2 12 3 11 4 20 5 19 6 15 7 16 8 17 9 18 10 10 13
REMARK SMILES IDX 9 15 8 16 7 17 2 18 6 19 3 20 5 21 4 22 1 23
REMARK H PARENT 18 11 18 12 10 14
ROOT
ATOM      1  C   UNL     1       6.394   2.457   4.596  1.00  0.00    -0.048 A 
ATOM      2  C   UNL     1       7.519   1.816   5.119  1.00  0.00     0.006 A 
ATOM      3  C   UNL     1       8.473   2.530   5.839  1.00  0.00     0.026 A 
ATOM      4  C   UNL     1       8.385   3.915   5.998  1.00  0.00     0.038 A 
ATOM      5  C   UNL     1       7.287   4.568   5.425  1.00  0.00     0.026 A 
ATOM      6  C   UNL     1       6.302   3.848   4.731  1.00  0.00     0.006 A 
ENDROOT
BRANCH   1   7
ATOM      7  C   UNL     1       5.305   1.679   3.903  1.00  0.00     0.037 C 
BRANCH   7   8
ATOM      8  C   UNL     1       5.407   1.560   2.370  1.00  0.00     0.020 C 
BRANCH   8   9
ATOM      9  C   UNL     1       6.742   1.034   1.823  1.00  0.00     0.078 C 
BRANCH   9  10
ATOM     10  N   UNL     1       6.976  -0.387   2.034  1.00  0.00    -0.330 NA
ATOM     11  H   UNL     1       6.732  -0.910   1.194  1.00  0.00     0.118 HD
ATOM     12  H   UNL     1       6.359  -0.741   2.765  1.00  0.00     0.118 HD
ENDBRANCH   9  10
ENDBRANCH   8   9
ENDBRANCH   7   8
ENDBRANCH   1   7
BRANCH   4  13
ATOM     13  N   UNL     1       9.405   4.660   6.620  1.00  0.00    -0.362 N 
ATOM     14  H   UNL     1       9.306   4.823   7.614  1.00  0.00     0.166 HD
BRANCH  13  15
ATOM     15  C   UNL     1      10.362   5.382   5.958  1.00  0.00     0.083 C 
BRANCH  15  16
ATOM     16  C   UNL     1      11.696   5.271   6.015  1.00  0.00     0.027 C 
BRANCH  16  17
ATOM     17  C   UNL     1      12.569   6.419   5.728  1.00  0.00    -0.003 A 
ATOM     18  C   UNL     1      13.661   6.759   6.546  1.00  0.00    -0.041 A 
ATOM     19  C   UNL     1      12.319   7.257   4.630  1.00  0.00     0.119 A 
ATOM     20  C   UNL     1      14.428   7.886   6.213  1.00  0.00     0.024 A 
ATOM     21  N   UNL     1      13.059   8.336   4.284  1.00  0.00    -0.264 NA
ATOM     22  C   UNL     1      14.101   8.623   5.085  1.00  0.00     0.111 A 
ATOM     23  C   UNL     1      14.012   5.982   7.784  1.00  0.00     0.045 C 
ENDBRANCH  16  17
ENDBRANCH  15  16
ENDBRANCH  13  15
ENDBRANCH   4  13
TORSDOF 8
ENDMDL
MODEL 4
REMARK VINA RESULT:    -4.804      2.018      8.674
REMARK INTER + INTRA:          -7.545
REMARK INTER:                  -6.964
REMARK INTRA:                  -0.581
REMARK UNBOUND:                -0.635
REMARK SMILES Cc1ccncc1/C=C/Nc1ccc(CCCN)cc1
REMARK SMILES IDX 14 1 13 2 12 3 11 4 20 5 19 6 15 7 16 8 17 9 18 10 10 13
REMARK SMILES IDX 9 15 8 16 7 17 2 18 6 19 3 20 5 21 4 22 1 23
REMARK H PARENT 18 11 18 12 10 14
ROOT
ATOM      1  C   UNL     1       7.304   3.391   4.674  1.00  0.00    -0.048 A 
ATOM      2  C   UNL     1       6.940   4.673   5.090  1.00  0.00     0.006 A 
ATOM      3  C   UNL     1       7.540   5.257   6.202  1.00  0.00     0.026 A 
ATOM      4  C   UNL     1       8.465   4.560   6.985  1.00  0.00     0.038 A 
ATOM      5  C   UNL     1       8.788   3.253   6.602  1.00  0.00     0.026 A 
ATOM      6  C   UNL     1       8.215   2.674   5.460  1.00  0.00     0.006 A 
ENDROOT
BRANCH   1   7
ATOM      7  C   UNL     1       6.735   2.788   3.414  1.00  0.00     0.037 C 
BRANCH   7   8
ATOM      8  C   UNL     1       6.704   1.250   3.336  1.00  0.00     0.020 C 
BRANCH   8   9
ATOM      9  C   UNL     1       7.228   0.631   2.032  1.00  0.00     0.078 C 
BRANCH   9  10
ATOM     10  N   UNL     1       6.339   0.764   0.887  1.00  0.00    -0.330 NA
ATOM     11  H   UNL     1       6.420   1.698   0.488  1.00  0.00     0.118 HD
ATOM     12  H   UNL     1       5.367   0.678   1.185  1.00  0.00     0.118 HD
ENDBRANCH   9  10
ENDBRANCH   8   9
ENDBRANCH   7   8
ENDBRANCH   1   7
BRANCH   4  13
ATOM     13  N   UNL     1       8.986   5.099   8.177  1.00  0.00    -0.362 N 
ATOM     14  H   UNL     1       9.995   5.134   8.256  1.00  0.00     0.166 HD
BRANCH  13  15
ATOM     15  C   UNL     1       8.259   5.332   9.314  1.00  0.00     0.083 C 
BRANCH  15  16
ATOM     16  C   UNL     1       8.445   4.851  10.550  1.00  0.00     0.027 C 
BRANCH  16  17
ATOM     17  C   UNL     1       9.011   5.690  11.617  1.00  0.00    -0.003 A 
ATOM     18  C   UNL     1       9.199   5.218  12.928  1.00  0.00    -0.041 A 
ATOM     19  C   UNL     1       9.357   7.028  11.373  1.00  0.00     0.119 A 
ATOM     20  C   UNL     1       9.724   6.094  13.891  1.00  0.00     0.024 A 
ATOM     21  N   UNL     1       9.880   7.881  12.285  1.00  0.00    -0.264 NA
ATOM     22  C   UNL     1      10.054   7.389  13.525  1.00  0.00     0.111 A 
ATOM     23  C   UNL     1       8.823   3.824  13.343  1.00  0.00     0.045 C 
ENDBRANCH  16  17
ENDBRANCH  15  16
ENDBRANCH  13  15
ENDBRANCH   4  13
TORSDOF 8
ENDMDL
MODEL 5
REMARK VINA RESULT:    -4.803      1.150      2.008
REMARK INTER + INTRA:          -7.543
REMARK INTER:                  -6.866
REMARK INTRA:                  -0.677
REMARK UNBOUND:                -0.635
REMARK SMILES Cc1ccncc1/C=C/Nc1ccc(CCCN)cc1
REMARK SMILES IDX 14 1 13 2 12 3 11 4 20 5 19 6 15 7 16 8 17 9 18 10 10 13
REMARK SMILES IDX 9 15 8 16 7 17 2 18 6 19 3 20 5 21 4 22 1 23
REMARK H PARENT 18 11 18 12 10 14
ROOT
ATOM      1  C   UNL     1       8.877   4.788  12.374  1.00  0.00    -0.048 A 
ATOM      2  C   UNL     1       9.318   5.919  11.683  1.00  0.00     0.006 A 
ATOM      3  C   UNL     1       8.952   6.129  10.356  1.00  0.00     0.026 A 
ATOM      4  C   UNL     1       8.202   5.188   9.646  1.00  0.00     0.038 A 
ATOM      5  C   UNL     1       7.806   4.027  10.321  1.00  0.00     0.026 A 
ATOM      6  C   UNL     1       8.140   3.828  11.670  1.00  0.00     0.006 A 
ENDROOT
BRANCH   1   7
ATOM      7  C   UNL     1       9.182   4.600  13.839  1.00  0.00     0.037 C 
BRANCH   7   8
ATOM      8  C   UNL     1       9.743   3.227  14.258  1.00  0.00     0.020 C 
BRANCH   8   9
ATOM      9  C   UNL     1      11.255   3.168  14.517  1.00  0.00     0.078 C 
BRANCH   9  10
ATOM     10  N   UNL     1      12.045   2.615  13.425  1.00  0.00    -0.330 NA
ATOM     11  H   UNL     1      11.778   3.053  12.545  1.00  0.00     0.118 HD
ATOM     12  H   UNL     1      11.839   1.622  13.311  1.00  0.00     0.118 HD
ENDBRANCH   9  10
ENDBRANCH   8   9
ENDBRANCH   7   8
ENDBRANCH   1   7
BRANCH   4  13
ATOM     13  N   UNL     1       7.929   5.336   8.273  1.00  0.00    -0.362 N 
ATOM     14  H   UNL     1       7.014   5.694   8.028  1.00  0.00     0.166 HD
BRANCH  13  15
ATOM     15  C   UNL     1       8.686   4.805   7.263  1.00  0.00     0.083 C 
BRANCH  15  16
ATOM     16  C   UNL     1       8.491   3.681   6.561  1.00  0.00     0.027 C 
BRANCH  16  17
ATOM     17  C   UNL     1       7.426   3.588   5.552  1.00  0.00    -0.003 A 
ATOM     18  C   UNL     1       7.099   2.380   4.909  1.00  0.00    -0.041 A 
ATOM     19  C   UNL     1       6.707   4.726   5.158  1.00  0.00     0.119 A 
ATOM     20  C   UNL     1       6.084   2.386   3.941  1.00  0.00     0.024 A 
ATOM     21  N   UNL     1       5.713   4.746   4.238  1.00  0.00    -0.264 NA
ATOM     22  C   UNL     1       5.424   3.570   3.653  1.00  0.00     0.111 A 
ATOM     23  C   UNL     1       7.824   1.095   5.195  1.00  0.00     0.045 C 
ENDBRANCH  16  17
ENDBRANCH  15  16
ENDBRANCH  13  15
ENDBRANCH   4  13
TORSDOF 8
ENDMDL
MODEL 6
REMARK VINA RESULT:    -4.758      1.769      8.545
REMARK INTER + INTRA:          -7.478
REMARK INTER:                  -6.945
REMARK INTRA:                  -0.533
REMARK UNBOUND:                -0.635
REMARK SMILES Cc1ccncc1/C=C/Nc1ccc(CCCN)cc1
REMARK SMILES IDX 14 1 13 2 12 3 11 4 20 5 19 6 15 7 16 8 17 9 18 10 10 13
REMARK SMILES IDX 9 15 8 16 7 17 2 18 6 19 3 20 5 21 4 22 1 23
REMARK H PARENT 18 11 18 12 10 14
ROOT
ATOM      1  C   UNL     1       7.238   3.459   4.616  1.00  0.00    -0.048 A 
ATOM      2  C   UNL     1       6.957   4.738   5.102  1.00  0.00     0.006 A 
ATOM      3  C   UNL     1       7.635   5.242   6.208  1.00  0.00     0.026 A 
ATOM      4  C   UNL     1       8.558   4.469   6.916  1.00  0.00     0.038 A 
ATOM      5  C   UNL     1       8.799   3.166   6.464  1.00  0.00     0.026 A 
ATOM      6  C   UNL     1       8.147   2.666   5.327  1.00  0.00     0.006 A 
ENDROOT
BRANCH   1   7
ATOM      7  C   UNL     1       6.584   2.941   3.360  1.00  0.00     0.037 C 
BRANCH   7   8
ATOM      8  C   UNL     1       6.424   1.413   3.243  1.00  0.00     0.020 C 
BRANCH   8   9
ATOM      9  C   UNL     1       7.175   0.743   2.083  1.00  0.00     0.078 C 
BRANCH   9  10
ATOM     10  N   UNL     1       6.434   0.667   0.832  1.00  0.00    -0.330 NA
ATOM     11  H   UNL     1       6.996   0.200   0.122  1.00  0.00     0.118 HD
ATOM     12  H   UNL     1       6.260   1.605   0.469  1.00  0.00     0.118 HD
ENDBRANCH   9  10
ENDBRANCH   8   9
ENDBRANCH   7   8
ENDBRANCH   1   7
BRANCH   4  13
ATOM     13  N   UNL     1       9.158   4.928   8.104  1.00  0.00    -0.362 N 
ATOM     14  H   UNL     1      10.170   4.954   8.121  1.00  0.00     0.166 HD
BRANCH  13  15
ATOM     15  C   UNL     1       8.507   5.093   9.298  1.00  0.00     0.083 C 
BRANCH  15  16
ATOM     16  C   UNL     1       8.771   5.947  10.295  1.00  0.00     0.027 C 
BRANCH  16  17
ATOM     17  C   UNL     1       8.918   5.478  11.681  1.00  0.00    -0.003 A 
ATOM     18  C   UNL     1       9.528   6.257  12.680  1.00  0.00    -0.041 A 
ATOM     19  C   UNL     1       8.481   4.199  12.058  1.00  0.00     0.119 A 
ATOM     20  C   UNL     1       9.648   5.723  13.972  1.00  0.00     0.024 A 
ATOM     21  N   UNL     1       8.573   3.675  13.303  1.00  0.00    -0.264 NA
ATOM     22  C   UNL     1       9.153   4.455  14.233  1.00  0.00     0.111 A 
ATOM     23  C   UNL     1      10.089   7.624  12.404  1.00  0.00     0.045 C 
ENDBRANCH  16  17
ENDBRANCH  15  16
ENDBRANCH  13  15
ENDBRANCH   4  13
TORSDOF 8
ENDMDL
MODEL 7
REMARK VINA RESULT:    -4.749      1.969      8.508
REMARK INTER + INTRA:          -7.466
REMARK INTER:                  -6.862
REMARK INTRA:                  -0.604
REMARK UNBOUND:                -0.635
REMARK SMILES Cc1ccncc1/C=C/Nc1ccc(CCCN)cc1
REMARK SMILES IDX 14 1 13 2 12 3 11 4 20 5 19 6 15 7 16 8 17 9 18 10 10 13
REMARK SMILES IDX 9 15 8 16 7 17 2 18 6 19 3 20 5 21 4 22 1 23
REMARK H PARENT 18 11 18 12 10 14
ROOT
ATOM      1  C   UNL     1       6.515   3.990   4.480  1.00  0.00    -0.048 A 
ATOM      2  C   UNL     1       6.518   5.259   5.063  1.00  0.00     0.006 A 
ATOM      3  C   UNL     1       7.389   5.559   6.107  1.00  0.00     0.026 A 
ATOM      4  C   UNL     1       8.230   4.590   6.660  1.00  0.00     0.038 A 
ATOM      5  C   UNL     1       8.186   3.302   6.114  1.00  0.00     0.026 A 
ATOM      6  C   UNL     1       7.338   3.004   5.037  1.00  0.00     0.006 A 
ENDROOT
BRANCH   1   7
ATOM      7  C   UNL     1       5.649   3.684   3.284  1.00  0.00     0.037 C 
BRANCH   7   8
ATOM      8  C   UNL     1       4.484   2.700   3.507  1.00  0.00     0.020 C 
BRANCH   8   9
ATOM      9  C   UNL     1       3.278   3.250   4.284  1.00  0.00     0.078 C 
BRANCH   9  10
ATOM     10  N   UNL     1       2.111   2.380   4.306  1.00  0.00    -0.330 NA
ATOM     11  H   UNL     1       2.052   1.899   5.203  1.00  0.00     0.118 HD
ATOM     12  H   UNL     1       2.209   1.643   3.607  1.00  0.00     0.118 HD
ENDBRANCH   9  10
ENDBRANCH   8   9
ENDBRANCH   7   8
ENDBRANCH   1   7
BRANCH   4  13
ATOM     13  N   UNL     1       9.025   4.853   7.792  1.00  0.00    -0.362 N 
ATOM     14  H   UNL     1      10.016   4.981   7.631  1.00  0.00     0.166 HD
BRANCH  13  15
ATOM     15  C   UNL     1       8.616   4.696   9.090  1.00  0.00     0.083 C 
BRANCH  15  16
ATOM     16  C   UNL     1       8.409   5.628  10.030  1.00  0.00     0.027 C 
BRANCH  16  17
ATOM     17  C   UNL     1       8.751   5.378  11.438  1.00  0.00    -0.003 A 
ATOM     18  C   UNL     1       9.428   6.323  12.230  1.00  0.00    -0.041 A 
ATOM     19  C   UNL     1       8.444   4.151  12.046  1.00  0.00     0.119 A 
ATOM     20  C   UNL     1       9.736   5.993  13.558  1.00  0.00     0.024 A 
ATOM     21  N   UNL     1       8.718   3.823  13.331  1.00  0.00    -0.264 NA
ATOM     22  C   UNL     1       9.357   4.757  14.058  1.00  0.00     0.111 A 
ATOM     23  C   UNL     1       9.865   7.657  11.692  1.00  0.00     0.045 C 
ENDBRANCH  16  17
ENDBRANCH  15  16
ENDBRANCH  13  15
ENDBRANCH   4  13
TORSDOF 8
ENDMDL
MODEL 8
REMARK VINA RESULT:    -4.676      4.710      6.488
REMARK INTER + INTRA:          -7.360
REMARK INTER:                  -6.933
REMARK INTRA:                  -0.427
REMARK UNBOUND:                -0.635
REMARK SMILES Cc1ccncc1/C=C/Nc1ccc(CCCN)cc1
REMARK SMILES IDX 14 1 13 2 12 3 11 4 20 5 19 6 15 7 16 8 17 9 18 10 10 13
REMARK SMILES IDX 9 15 8 16 7 17 2 18 6 19 3 20 5 21 4 22 1 23
REMARK H PARENT 18 11 18 12 10 14
ROOT
ATOM      1  C   UNL     1      13.019   7.219   5.364  1.00  0.00    -0.048 A 
ATOM      2  C   UNL     1      12.028   6.958   4.417  1.00  0.00     0.006 A 
ATOM      3  C   UNL     1      11.004   6.056   4.691  1.00  0.00     0.026 A 
ATOM      4  C   UNL     1      10.971   5.325   5.881  1.00  0.00     0.038 A 
ATOM      5  C   UNL     1      11.997   5.544   6.808  1.00  0.00     0.026 A 
ATOM      6  C   UNL     1      13.010   6.480   6.553  1.00  0.00     0.006 A 
ENDROOT
BRANCH   1   7
ATOM      7  C   UNL     1      14.076   8.268   5.120  1.00  0.00     0.037 C 
BRANCH   7   8
ATOM      8  C   UNL     1      13.583   9.650   4.648  1.00  0.00     0.020 C 
BRANCH   8   9
ATOM      9  C   UNL     1      13.736  10.799   5.655  1.00  0.00     0.078 C 
BRANCH   9  10
ATOM     10  N   UNL     1      12.485  11.364   6.139  1.00  0.00    -0.330 NA
ATOM     11  H   UNL     1      11.834  10.617   6.377  1.00  0.00     0.118 HD
ATOM     12  H   UNL     1      12.030  11.898   5.399  1.00  0.00     0.118 HD
ENDBRANCH   9  10
ENDBRANCH   8   9
ENDBRANCH   7   8
ENDBRANCH   1   7
BRANCH   4  13
ATOM     13  N   UNL     1      10.007   4.325   6.114  1.00  0.00    -0.362 N 
ATOM     14  H   UNL     1      10.351   3.426   6.426  1.00  0.00     0.166 HD
BRANCH  13  15
ATOM     15  C   UNL     1       8.699   4.392   5.714  1.00  0.00     0.083 C 
BRANCH  15  16
ATOM     16  C   UNL     1       7.722   3.487   5.863  1.00  0.00     0.027 C 
BRANCH  16  17
ATOM     17  C   UNL     1       7.196   2.736   4.713  1.00  0.00    -0.003 A 
ATOM     18  C   UNL     1       6.203   3.256   3.864  1.00  0.00    -0.041 A 
ATOM     19  C   UNL     1       7.645   1.436   4.437  1.00  0.00     0.119 A 
ATOM     20  C   UNL     1       5.740   2.462   2.803  1.00  0.00     0.024 A 
ATOM     21  N   UNL     1       7.223   0.664   3.408  1.00  0.00    -0.264 NA
ATOM     22  C   UNL     1       6.280   1.199   2.613  1.00  0.00     0.111 A 
ATOM     23  C   UNL     1       5.593   4.613   4.075  1.00  0.00     0.045 C 
ENDBRANCH  16  17
ENDBRANCH  15  16
ENDBRANCH  13  15
ENDBRANCH   4  13
TORSDOF 8
ENDMDL
MODEL 9
REMARK VINA RESULT:    -4.384      2.565      3.368
REMARK INTER + INTRA:          -6.941
REMARK INTER:                  -6.458
REMARK INTRA:                  -0.483
REMARK UNBOUND:                -0.635
REMARK SMILES Cc1ccncc1/C=C/Nc1ccc(CCCN)cc1
REMARK SMILES IDX 14 1 13 2 12 3 11 4 20 5 19 6 15 7 16 8 17 9 18 10 10 13
REMARK SMILES IDX 9 15 8 16 7 17 2 18 6 19 3 20 5 21 4 22 1 23
REMARK H PARENT 18 11 18 12 10 14
ROOT
ATOM      1  C   UNL     1       8.904   5.661  10.184  1.00  0.00    -0.048 A 
ATOM      2  C   UNL     1       9.636   5.794   9.001  1.00  0.00     0.006 A 
ATOM      3  C   UNL     1       9.189   5.210   7.820  1.00  0.00     0.026 A 
ATOM      4  C   UNL     1       8.044   4.409   7.786  1.00  0.00     0.038 A 
ATOM      5  C   UNL     1       7.341   4.228   8.983  1.00  0.00     0.026 A 
ATOM      6  C   UNL     1       7.766   4.846  10.169  1.00  0.00     0.006 A 
ENDROOT
BRANCH   1   7
ATOM      7  C   UNL     1       9.324   6.373  11.445  1.00  0.00     0.037 C 
BRANCH   7   8
ATOM      8  C   UNL     1      10.048   7.722  11.271  1.00  0.00     0.020 C 
BRANCH   8   9
ATOM      9  C   UNL     1      11.583   7.668  11.276  1.00  0.00     0.078 C 
BRANCH   9  10
ATOM     10  N   UNL     1      12.236   8.671  10.446  1.00  0.00    -0.330 NA
ATOM     11  H   UNL     1      11.537   9.258   9.993  1.00  0.00     0.118 HD
ATOM     12  H   UNL     1      12.748   8.220   9.688  1.00  0.00     0.118 HD
ENDBRANCH   9  10
ENDBRANCH   8   9
ENDBRANCH   7   8
ENDBRANCH   1   7
BRANCH   4  13
ATOM     13  N   UNL     1       7.653   3.718   6.624  1.00  0.00    -0.362 N 
ATOM     14  H   UNL     1       7.740   2.710   6.643  1.00  0.00     0.166 HD
BRANCH  13  15
ATOM     15  C   UNL     1       7.416   4.304   5.408  1.00  0.00     0.083 C 
BRANCH  15  16
ATOM     16  C   UNL     1       6.284   4.339   4.692  1.00  0.00     0.027 C 
BRANCH  16  17
ATOM     17  C   UNL     1       5.968   3.287   3.715  1.00  0.00    -0.003 A 
ATOM     18  C   UNL     1       4.676   2.750   3.576  1.00  0.00    -0.041 A 
ATOM     19  C   UNL     1       6.968   2.743   2.895  1.00  0.00     0.119 A 
ATOM     20  C   UNL     1       4.467   1.732   2.634  1.00  0.00     0.024 A 
ATOM     21  N   UNL     1       6.780   1.773   1.969  1.00  0.00    -0.264 NA
ATOM     22  C   UNL     1       5.529   1.292   1.860  1.00  0.00     0.111 A 
ATOM     23  C   UNL     1       3.522   3.201   4.426  1.00  0.00     0.045 C 
ENDBRANCH  16  17
ENDBRANCH  15  16
ENDBRANCH  13  15
ENDBRANCH   4  13
TORSDOF 8
ENDMDL
