MODEL 1
REMARK VINA RESULT:    -3.494      0.000      0.000
REMARK INTER + INTRA:          -6.487
REMARK INTER:                  -5.026
REMARK INTRA:                  -1.461
REMARK UNBOUND:                -1.461
REMARK SMILES Cc1ccncc1/C=C/Nc1ccc(CCCN)cc1
REMARK SMILES IDX 14 1 13 2 12 3 11 4 20 5 19 6 15 7 16 8 17 9 18 10 10 13
REMARK SMILES IDX 9 15 8 16 7 17 2 18 6 19 3 20 5 21 4 22 1 23
REMARK H PARENT 18 11 18 12 10 14
ROOT
ATOM      1  C   UNL     1      -9.976   3.526  -7.467  1.00  0.00    -0.048 A 
ATOM      2  C   UNL     1      -8.598   3.329  -7.349  1.00  0.00     0.006 A 
ATOM      3  C   UNL     1      -8.087   2.414  -6.434  1.00  0.00     0.026 A 
ATOM      4  C   UNL     1      -8.918   1.721  -5.550  1.00  0.00     0.038 A 
ATOM      5  C   UNL     1     -10.295   1.960  -5.628  1.00  0.00     0.026 A 
ATOM      6  C   UNL     1     -10.819   2.853  -6.576  1.00  0.00     0.006 A 
ENDROOT
BRANCH   1   7
ATOM      7  C   UNL     1     -10.546   4.439  -8.524  1.00  0.00     0.037 C 
BRANCH   7   8
ATOM      8  C   UNL     1      -9.589   4.877  -9.649  1.00  0.00     0.020 C 
BRANCH   8   9
ATOM      9  C   UNL     1      -9.906   4.336 -11.051  1.00  0.00     0.078 C 
BRANCH   9  10
ATOM     10  N   UNL     1     -11.266   4.576 -11.511  1.00  0.00    -0.330 NA
ATOM     11  H   UNL     1     -11.329   4.415 -12.515  1.00  0.00     0.118 HD
ATOM     12  H   UNL     1     -11.515   5.556 -11.375  1.00  0.00     0.118 HD
ENDBRANCH   9  10
ENDBRANCH   8   9
ENDBRANCH   7   8
ENDBRANCH   1   7
BRANCH   4  13
ATOM     13  N   UNL     1      -8.400   0.885  -4.543  1.00  0.00    -0.362 N 
ATOM     14  H   UNL     1      -8.102  -0.039  -4.828  1.00  0.00     0.166 HD
BRANCH  13  15
ATOM     15  C   UNL     1      -8.507   1.122  -3.198  1.00  0.00     0.083 C 
BRANCH  15  16
ATOM     16  C   UNL     1      -7.985   2.118  -2.470  1.00  0.00     0.027 C 
BRANCH  16  17
ATOM     17  C   UNL     1      -6.813   2.872  -2.942  1.00  0.00    -0.003 A 
ATOM     18  C   UNL     1      -6.914   4.175  -3.461  1.00  0.00    -0.041 A 
ATOM     19  C   UNL     1      -5.534   2.297  -2.926  1.00  0.00     0.119 A 
ATOM     20  C   UNL     1      -5.748   4.813  -3.911  1.00  0.00     0.024 A 
ATOM     21  N   UNL     1      -4.397   2.905  -3.339  1.00  0.00    -0.264 NA
ATOM     22  C   UNL     1      -4.533   4.154  -3.820  1.00  0.00     0.111 A 
ATOM     23  C   UNL     1      -8.229   4.891  -3.588  1.00  0.00     0.045 C 
ENDBRANCH  16  17
ENDBRANCH  15  16
ENDBRANCH  13  15
ENDBRANCH   4  13
TORSDOF 8
ENDMDL
MODEL 2
REMARK VINA RESULT:    -3.455      2.811      4.399
REMARK INTER + INTRA:          -6.430
REMARK INTER:                  -4.995
REMARK INTRA:                  -1.435
REMARK UNBOUND:                -1.461
REMARK SMILES Cc1ccncc1/C=C/Nc1ccc(CCCN)cc1
REMARK SMILES IDX 14 1 13 2 12 3 11 4 20 5 19 6 15 7 16 8 17 9 18 10 10 13
REMARK SMILES IDX 9 15 8 16 7 17 2 18 6 19 3 20 5 21 4 22 1 23
REMARK H PARENT 18 11 18 12 10 14
ROOT
ATOM      1  C   UNL     1     -11.385   2.148  -5.719  1.00  0.00    -0.048 A 
ATOM      2  C   UNL     1     -10.779   2.010  -4.468  1.00  0.00     0.006 A 
ATOM      3  C   UNL     1      -9.568   2.638  -4.193  1.00  0.00     0.026 A 
ATOM      4  C   UNL     1      -8.878   3.359  -5.170  1.00  0.00     0.038 A 
ATOM      5  C   UNL     1      -9.456   3.450  -6.442  1.00  0.00     0.026 A 
ATOM      6  C   UNL     1     -10.696   2.851  -6.714  1.00  0.00     0.006 A 
ENDROOT
BRANCH   1   7
ATOM      7  C   UNL     1     -12.744   1.556  -5.997  1.00  0.00     0.037 C 
BRANCH   7   8
ATOM      8  C   UNL     1     -13.695   1.410  -4.793  1.00  0.00     0.020 C 
BRANCH   8   9
ATOM      9  C   UNL     1     -15.167   1.760  -5.051  1.00  0.00     0.078 C 
BRANCH   9  10
ATOM     10  N   UNL     1     -15.589   1.660  -6.441  1.00  0.00    -0.330 NA
ATOM     11  H   UNL     1     -15.843   2.581  -6.796  1.00  0.00     0.118 HD
ATOM     12  H   UNL     1     -16.437   1.097  -6.512  1.00  0.00     0.118 HD
ENDBRANCH   9  10
ENDBRANCH   8   9
ENDBRANCH   7   8
ENDBRANCH   1   7
BRANCH   4  13
ATOM     13  N   UNL     1      -7.598   3.896  -4.935  1.00  0.00    -0.362 N 
ATOM     14  H   UNL     1      -7.560   4.781  -4.445  1.00  0.00     0.166 HD
BRANCH  13  15
ATOM     15  C   UNL     1      -6.444   3.457  -5.528  1.00  0.00     0.083 C 
BRANCH  15  16
ATOM     16  C   UNL     1      -5.882   2.242  -5.488  1.00  0.00     0.027 C 
BRANCH  16  17
ATOM     17  C   UNL     1      -6.096   1.340  -4.345  1.00  0.00    -0.003 A 
ATOM     18  C   UNL     1      -6.900   0.190  -4.432  1.00  0.00    -0.041 A 
ATOM     19  C   UNL     1      -5.528   1.619  -3.093  1.00  0.00     0.119 A 
ATOM     20  C   UNL     1      -7.069  -0.602  -3.286  1.00  0.00     0.024 A 
ATOM     21  N   UNL     1      -5.667   0.857  -1.983  1.00  0.00    -0.264 NA
ATOM     22  C   UNL     1      -6.434  -0.240  -2.109  1.00  0.00     0.111 A 
ATOM     23  C   UNL     1      -7.612  -0.200  -5.697  1.00  0.00     0.045 C 
ENDBRANCH  16  17
ENDBRANCH  15  16
ENDBRANCH  13  15
ENDBRANCH   4  13
TORSDOF 8
ENDMDL
MODEL 3
REMARK VINA RESULT:    -2.922      0.849      1.572
REMARK INTER + INTRA:          -5.664
REMARK INTER:                  -4.732
REMARK INTRA:                  -0.932
REMARK UNBOUND:                -1.461
REMARK SMILES Cc1ccncc1/C=C/Nc1ccc(CCCN)cc1
REMARK SMILES IDX 14 1 13 2 12 3 11 4 20 5 19 6 15 7 16 8 17 9 18 10 10 13
REMARK SMILES IDX 9 15 8 16 7 17 2 18 6 19 3 20 5 21 4 22 1 23
REMARK H PARENT 18 11 18 12 10 14
ROOT
ATOM      1  C   UNL     1      -9.968   3.673  -7.668  1.00  0.00    -0.048 A 
ATOM      2  C   UNL     1      -8.616   3.489  -7.369  1.00  0.00     0.006 A 
ATOM      3  C   UNL     1      -8.224   2.602  -6.370  1.00  0.00     0.026 A 
ATOM      4  C   UNL     1      -9.159   1.927  -5.582  1.00  0.00     0.038 A 
ATOM      5  C   UNL     1     -10.516   2.153  -5.844  1.00  0.00     0.026 A 
ATOM      6  C   UNL     1     -10.917   3.017  -6.875  1.00  0.00     0.006 A 
ENDROOT
BRANCH   1   7
ATOM      7  C   UNL     1     -10.401   4.553  -8.814  1.00  0.00     0.037 C 
BRANCH   7   8
ATOM      8  C   UNL     1      -9.456   4.620 -10.030  1.00  0.00     0.020 C 
BRANCH   8   9
ATOM      9  C   UNL     1     -10.123   4.503 -11.408  1.00  0.00     0.078 C 
BRANCH   9  10
ATOM     10  N   UNL     1     -11.566   4.698 -11.412  1.00  0.00    -0.330 NA
ATOM     11  H   UNL     1     -11.800   5.564 -11.897  1.00  0.00     0.118 HD
ATOM     12  H   UNL     1     -11.907   4.818 -10.458  1.00  0.00     0.118 HD
ENDBRANCH   9  10
ENDBRANCH   8   9
ENDBRANCH   7   8
ENDBRANCH   1   7
BRANCH   4  13
ATOM     13  N   UNL     1      -8.773   1.121  -4.494  1.00  0.00    -0.362 N 
ATOM     14  H   UNL     1      -8.524   0.163  -4.704  1.00  0.00     0.166 HD
BRANCH  13  15
ATOM     15  C   UNL     1      -8.952   1.448  -3.176  1.00  0.00     0.083 C 
BRANCH  15  16
ATOM     16  C   UNL     1      -8.209   2.242  -2.394  1.00  0.00     0.027 C 
BRANCH  16  17
ATOM     17  C   UNL     1      -7.128   3.068  -2.953  1.00  0.00    -0.003 A 
ATOM     18  C   UNL     1      -5.817   2.586  -3.113  1.00  0.00    -0.041 A 
ATOM     19  C   UNL     1      -7.358   4.402  -3.320  1.00  0.00     0.119 A 
ATOM     20  C   UNL     1      -4.840   3.449  -3.633  1.00  0.00     0.024 A 
ATOM     21  N   UNL     1      -6.432   5.243  -3.839  1.00  0.00    -0.264 NA
ATOM     22  C   UNL     1      -5.193   4.742  -3.986  1.00  0.00     0.111 A 
ATOM     23  C   UNL     1      -5.417   1.194  -2.712  1.00  0.00     0.045 C 
ENDBRANCH  16  17
ENDBRANCH  15  16
ENDBRANCH  13  15
ENDBRANCH   4  13
TORSDOF 8
ENDMDL
MODEL 4
REMARK VINA RESULT:    -2.832      2.818      4.455
REMARK INTER + INTRA:          -5.535
REMARK INTER:                  -4.614
REMARK INTRA:                  -0.922
REMARK UNBOUND:                -1.461
REMARK SMILES Cc1ccncc1/C=C/Nc1ccc(CCCN)cc1
REMARK SMILES IDX 14 1 13 2 12 3 11 4 20 5 19 6 15 7 16 8 17 9 18 10 10 13
REMARK SMILES IDX 9 15 8 16 7 17 2 18 6 19 3 20 5 21 4 22 1 23
REMARK H PARENT 18 11 18 12 10 14
ROOT
ATOM      1  C   UNL     1     -11.809   1.993  -5.666  1.00  0.00    -0.048 A 
ATOM      2  C   UNL     1     -11.278   2.712  -6.739  1.00  0.00     0.006 A 
ATOM      3  C   UNL     1      -9.971   3.188  -6.698  1.00  0.00     0.026 A 
ATOM      4  C   UNL     1      -9.171   3.035  -5.563  1.00  0.00     0.038 A 
ATOM      5  C   UNL     1      -9.721   2.363  -4.465  1.00  0.00     0.026 A 
ATOM      6  C   UNL     1     -11.026   1.848  -4.515  1.00  0.00     0.006 A 
ENDROOT
BRANCH   1   7
ATOM      7  C   UNL     1     -13.187   1.386  -5.739  1.00  0.00     0.037 C 
BRANCH   7   8
ATOM      8  C   UNL     1     -14.144   1.700  -4.572  1.00  0.00     0.020 C 
BRANCH   8   9
ATOM      9  C   UNL     1     -15.638   1.760  -4.924  1.00  0.00     0.078 C 
BRANCH   9  10
ATOM     10  N   UNL     1     -15.930   1.967  -6.335  1.00  0.00    -0.330 NA
ATOM     11  H   UNL     1     -16.922   2.167  -6.460  1.00  0.00     0.118 HD
ATOM     12  H   UNL     1     -15.755   1.110  -6.860  1.00  0.00     0.118 HD
ENDBRANCH   9  10
ENDBRANCH   8   9
ENDBRANCH   7   8
ENDBRANCH   1   7
BRANCH   4  13
ATOM     13  N   UNL     1      -7.892   3.616  -5.469  1.00  0.00    -0.362 N 
ATOM     14  H   UNL     1      -7.843   4.543  -5.067  1.00  0.00     0.166 HD
BRANCH  13  15
ATOM     15  C   UNL     1      -6.771   3.145  -6.100  1.00  0.00     0.083 C 
BRANCH  15  16
ATOM     16  C   UNL     1      -5.901   2.210  -5.694  1.00  0.00     0.027 C 
BRANCH  16  17
ATOM     17  C   UNL     1      -6.251   1.255  -4.632  1.00  0.00    -0.003 A 
ATOM     18  C   UNL     1      -5.895   1.458  -3.287  1.00  0.00    -0.041 A 
ATOM     19  C   UNL     1      -6.933   0.065  -4.930  1.00  0.00     0.119 A 
ATOM     20  C   UNL     1      -6.248   0.483  -2.341  1.00  0.00     0.024 A 
ATOM     21  N   UNL     1      -7.296  -0.877  -4.028  1.00  0.00    -0.264 NA
ATOM     22  C   UNL     1      -6.946  -0.641  -2.751  1.00  0.00     0.111 A 
ATOM     23  C   UNL     1      -5.117   2.661  -2.834  1.00  0.00     0.045 C 
ENDBRANCH  16  17
ENDBRANCH  15  16
ENDBRANCH  13  15
ENDBRANCH   4  13
TORSDOF 8
ENDMDL
MODEL 5
REMARK VINA RESULT:    -2.706      4.525      6.352
REMARK INTER + INTRA:          -5.353
REMARK INTER:                  -4.856
REMARK INTRA:                  -0.497
REMARK UNBOUND:                -1.461
REMARK SMILES Cc1ccncc1/C=C/Nc1ccc(CCCN)cc1
REMARK SMILES IDX 14 1 13 2 12 3 11 4 20 5 19 6 15 7 16 8 17 9 18 10 10 13
REMARK SMILES IDX 9 15 8 16 7 17 2 18 6 19 3 20 5 21 4 22 1 23
REMARK H PARENT 18 11 18 12 10 14
ROOT
ATOM      1  C   UNL     1      -7.160   1.637  -4.187  1.00  0.00    -0.048 A 
ATOM      2  C   UNL     1      -7.068   0.699  -3.156  1.00  0.00     0.006 A 
ATOM      3  C   UNL     1      -6.019   0.748  -2.243  1.00  0.00     0.026 A 
ATOM      4  C   UNL     1      -4.984   1.679  -2.366  1.00  0.00     0.038 A 
ATOM      5  C   UNL     1      -5.046   2.584  -3.432  1.00  0.00     0.026 A 
ATOM      6  C   UNL     1      -6.121   2.564  -4.333  1.00  0.00     0.006 A 
ENDROOT
BRANCH   1   7
ATOM      7  C   UNL     1      -8.345   1.656  -5.121  1.00  0.00     0.037 C 
BRANCH   7   8
ATOM      8  C   UNL     1      -9.066   3.007  -5.294  1.00  0.00     0.020 C 
BRANCH   8   9
ATOM      9  C   UNL     1     -10.179   3.044  -6.352  1.00  0.00     0.078 C 
BRANCH   9  10
ATOM     10  N   UNL     1     -11.359   2.253  -6.032  1.00  0.00    -0.330 NA
ATOM     11  H   UNL     1     -11.231   1.293  -6.348  1.00  0.00     0.118 HD
ATOM     12  H   UNL     1     -12.168   2.604  -6.544  1.00  0.00     0.118 HD
ENDBRANCH   9  10
ENDBRANCH   8   9
ENDBRANCH   7   8
ENDBRANCH   1   7
BRANCH   4  13
ATOM     13  N   UNL     1      -3.860   1.658  -1.518  1.00  0.00    -0.362 N 
ATOM     14  H   UNL     1      -2.954   1.618  -1.966  1.00  0.00     0.166 HD
BRANCH  13  15
ATOM     15  C   UNL     1      -3.903   1.433  -0.167  1.00  0.00     0.083 C 
BRANCH  15  16
ATOM     16  C   UNL     1      -2.949   1.627   0.753  1.00  0.00     0.027 C 
BRANCH  16  17
ATOM     17  C   UNL     1      -3.223   1.440   2.186  1.00  0.00    -0.003 A 
ATOM     18  C   UNL     1      -3.124   2.489   3.116  1.00  0.00    -0.041 A 
ATOM     19  C   UNL     1      -3.563   0.177   2.694  1.00  0.00     0.119 A 
ATOM     20  C   UNL     1      -3.380   2.217   4.469  1.00  0.00     0.024 A 
ATOM     21  N   UNL     1      -3.831  -0.099   3.992  1.00  0.00    -0.264 NA
ATOM     22  C   UNL     1      -3.735   0.933   4.850  1.00  0.00     0.111 A 
ATOM     23  C   UNL     1      -2.717   3.881   2.719  1.00  0.00     0.045 C 
ENDBRANCH  16  17
ENDBRANCH  15  16
ENDBRANCH  13  15
ENDBRANCH   4  13
TORSDOF 8
ENDMDL
MODEL 6
REMARK VINA RESULT:    -2.669      2.462      4.383
REMARK INTER + INTRA:          -5.301
REMARK INTER:                  -4.710
REMARK INTRA:                  -0.591
REMARK UNBOUND:                -1.461
REMARK SMILES Cc1ccncc1/C=C/Nc1ccc(CCCN)cc1
REMARK SMILES IDX 14 1 13 2 12 3 11 4 20 5 19 6 15 7 16 8 17 9 18 10 10 13
REMARK SMILES IDX 9 15 8 16 7 17 2 18 6 19 3 20 5 21 4 22 1 23
REMARK H PARENT 18 11 18 12 10 14
ROOT
ATOM      1  C   UNL     1     -11.265   5.121 -11.714  1.00  0.00    -0.048 A 
ATOM      2  C   UNL     1     -11.923   5.362 -10.507  1.00  0.00     0.006 A 
ATOM      3  C   UNL     1     -11.305   5.079  -9.292  1.00  0.00     0.026 A 
ATOM      4  C   UNL     1     -10.046   4.476  -9.234  1.00  0.00     0.038 A 
ATOM      5  C   UNL     1      -9.408   4.181 -10.445  1.00  0.00     0.026 A 
ATOM      6  C   UNL     1     -10.010   4.500 -11.672  1.00  0.00     0.006 A 
ENDROOT
BRANCH   1   7
ATOM      7  C   UNL     1     -11.882   5.516 -13.032  1.00  0.00     0.037 C 
BRANCH   7   8
ATOM      8  C   UNL     1     -13.357   5.127 -13.250  1.00  0.00     0.020 C 
BRANCH   8   9
ATOM      9  C   UNL     1     -14.121   5.943 -14.302  1.00  0.00     0.078 C 
BRANCH   9  10
ATOM     10  N   UNL     1     -15.115   6.862 -13.765  1.00  0.00    -0.330 NA
ATOM     11  H   UNL     1     -15.608   7.326 -14.527  1.00  0.00     0.118 HD
ATOM     12  H   UNL     1     -14.658   7.608 -13.241  1.00  0.00     0.118 HD
ENDBRANCH   9  10
ENDBRANCH   8   9
ENDBRANCH   7   8
ENDBRANCH   1   7
BRANCH   4  13
ATOM     13  N   UNL     1      -9.466   4.078  -8.014  1.00  0.00    -0.362 N 
ATOM     14  H   UNL     1      -8.466   4.203  -7.924  1.00  0.00     0.166 HD
BRANCH  13  15
ATOM     15  C   UNL     1     -10.091   3.316  -7.063  1.00  0.00     0.083 C 
BRANCH  15  16
ATOM     16  C   UNL     1      -9.924   3.318  -5.734  1.00  0.00     0.027 C 
BRANCH  16  17
ATOM     17  C   UNL     1      -8.775   2.646  -5.109  1.00  0.00    -0.003 A 
ATOM     18  C   UNL     1      -7.994   3.257  -4.112  1.00  0.00    -0.041 A 
ATOM     19  C   UNL     1      -8.382   1.362  -5.517  1.00  0.00     0.119 A 
ATOM     20  C   UNL     1      -6.900   2.554  -3.587  1.00  0.00     0.024 A 
ATOM     21  N   UNL     1      -7.341   0.663  -5.009  1.00  0.00    -0.264 NA
ATOM     22  C   UNL     1      -6.625   1.277  -4.051  1.00  0.00     0.111 A 
ATOM     23  C   UNL     1      -8.267   4.650  -3.617  1.00  0.00     0.045 C 
ENDBRANCH  16  17
ENDBRANCH  15  16
ENDBRANCH  13  15
ENDBRANCH   4  13
TORSDOF 8
ENDMDL
MODEL 7
REMARK VINA RESULT:    -2.664      2.552      4.402
REMARK INTER + INTRA:          -5.293
REMARK INTER:                  -4.705
REMARK INTRA:                  -0.588
REMARK UNBOUND:                -1.461
REMARK SMILES Cc1ccncc1/C=C/Nc1ccc(CCCN)cc1
REMARK SMILES IDX 14 1 13 2 12 3 11 4 20 5 19 6 15 7 16 8 17 9 18 10 10 13
REMARK SMILES IDX 9 15 8 16 7 17 2 18 6 19 3 20 5 21 4 22 1 23
REMARK H PARENT 18 11 18 12 10 14
ROOT
ATOM      1  C   UNL     1     -11.194   5.089 -11.590  1.00  0.00    -0.048 A 
ATOM      2  C   UNL     1     -11.881   5.340 -10.401  1.00  0.00     0.006 A 
ATOM      3  C   UNL     1     -11.304   5.041  -9.170  1.00  0.00     0.026 A 
ATOM      4  C   UNL     1     -10.060   4.412  -9.079  1.00  0.00     0.038 A 
ATOM      5  C   UNL     1      -9.394   4.108 -10.273  1.00  0.00     0.026 A 
ATOM      6  C   UNL     1      -9.955   4.442 -11.515  1.00  0.00     0.006 A 
ENDROOT
BRANCH   1   7
ATOM      7  C   UNL     1     -11.766   5.501 -12.924  1.00  0.00     0.037 C 
BRANCH   7   8
ATOM      8  C   UNL     1     -13.246   5.155 -13.179  1.00  0.00     0.020 C 
BRANCH   8   9
ATOM      9  C   UNL     1     -13.949   5.970 -14.273  1.00  0.00     0.078 C 
BRANCH   9  10
ATOM     10  N   UNL     1     -14.826   7.025 -13.787  1.00  0.00    -0.330 NA
ATOM     11  H   UNL     1     -14.803   7.820 -14.424  1.00  0.00     0.118 HD
ATOM     12  H   UNL     1     -14.486   7.381 -12.893  1.00  0.00     0.118 HD
ENDBRANCH   9  10
ENDBRANCH   8   9
ENDBRANCH   7   8
ENDBRANCH   1   7
BRANCH   4  13
ATOM     13  N   UNL     1      -9.523   4.000  -7.844  1.00  0.00    -0.362 N 
ATOM     14  H   UNL     1      -8.529   4.137  -7.712  1.00  0.00     0.166 HD
BRANCH  13  15
ATOM     15  C   UNL     1     -10.174   3.210  -6.933  1.00  0.00     0.083 C 
BRANCH  15  16
ATOM     16  C   UNL     1      -9.676   2.264  -6.126  1.00  0.00     0.027 C 
BRANCH  16  17
ATOM     17  C   UNL     1      -8.527   2.537  -5.250  1.00  0.00    -0.003 A 
ATOM     18  C   UNL     1      -7.499   1.601  -5.040  1.00  0.00    -0.041 A 
ATOM     19  C   UNL     1      -8.430   3.748  -4.547  1.00  0.00     0.119 A 
ATOM     20  C   UNL     1      -6.451   1.935  -4.169  1.00  0.00     0.024 A 
ATOM     21  N   UNL     1      -7.418   4.093  -3.717  1.00  0.00    -0.264 NA
ATOM     22  C   UNL     1      -6.449   3.175  -3.551  1.00  0.00     0.111 A 
ATOM     23  C   UNL     1      -7.502   0.244  -5.686  1.00  0.00     0.045 C 
ENDBRANCH  16  17
ENDBRANCH  15  16
ENDBRANCH  13  15
ENDBRANCH   4  13
TORSDOF 8
ENDMDL
MODEL 8
REMARK VINA RESULT:    -2.140      4.468      6.399
REMARK INTER + INTRA:          -4.539
REMARK INTER:                  -4.008
REMARK INTRA:                  -0.531
REMARK UNBOUND:                -1.461
REMARK SMILES Cc1ccncc1/C=C/Nc1ccc(CCCN)cc1
REMARK SMILES IDX 14 1 13 2 12 3 11 4 20 5 19 6 15 7 16 8 17 9 18 10 10 13
REMARK SMILES IDX 9 15 8 16 7 17 2 18 6 19 3 20 5 21 4 22 1 23
REMARK H PARENT 18 11 18 12 10 14
ROOT
ATOM      1  C   UNL     1      -7.053   1.591  -3.960  1.00  0.00    -0.048 A 
ATOM      2  C   UNL     1      -6.906   0.575  -3.013  1.00  0.00     0.006 A 
ATOM      3  C   UNL     1      -5.872   0.615  -2.083  1.00  0.00     0.026 A 
ATOM      4  C   UNL     1      -4.903   1.621  -2.109  1.00  0.00     0.038 A 
ATOM      5  C   UNL     1      -5.016   2.610  -3.093  1.00  0.00     0.026 A 
ATOM      6  C   UNL     1      -6.079   2.596  -4.009  1.00  0.00     0.006 A 
ENDROOT
BRANCH   1   7
ATOM      7  C   UNL     1      -8.227   1.612  -4.907  1.00  0.00     0.037 C 
BRANCH   7   8
ATOM      8  C   UNL     1      -8.821   2.993  -5.242  1.00  0.00     0.020 C 
BRANCH   8   9
ATOM      9  C   UNL     1      -9.936   3.009  -6.298  1.00  0.00     0.078 C 
BRANCH   9  10
ATOM     10  N   UNL     1     -11.128   2.249  -5.946  1.00  0.00    -0.330 NA
ATOM     11  H   UNL     1     -11.042   1.291  -6.281  1.00  0.00     0.118 HD
ATOM     12  H   UNL     1     -11.943   2.634  -6.424  1.00  0.00     0.118 HD
ENDBRANCH   9  10
ENDBRANCH   8   9
ENDBRANCH   7   8
ENDBRANCH   1   7
BRANCH   4  13
ATOM     13  N   UNL     1      -3.788   1.603  -1.248  1.00  0.00    -0.362 N 
ATOM     14  H   UNL     1      -2.876   1.613  -1.687  1.00  0.00     0.166 HD
BRANCH  13  15
ATOM     15  C   UNL     1      -3.838   1.318   0.091  1.00  0.00     0.083 C 
BRANCH  15  16
ATOM     16  C   UNL     1      -2.884   1.460   1.021  1.00  0.00     0.027 C 
BRANCH  16  17
ATOM     17  C   UNL     1      -3.075   2.348   2.178  1.00  0.00    -0.003 A 
ATOM     18  C   UNL     1      -3.219   1.859   3.489  1.00  0.00    -0.041 A 
ATOM     19  C   UNL     1      -3.161   3.739   2.012  1.00  0.00     0.119 A 
ATOM     20  C   UNL     1      -3.422   2.775   4.532  1.00  0.00     0.024 A 
ATOM     21  N   UNL     1      -3.338   4.637   3.009  1.00  0.00    -0.264 NA
ATOM     22  C   UNL     1      -3.461   4.131   4.249  1.00  0.00     0.111 A 
ATOM     23  C   UNL     1      -3.202   0.390   3.805  1.00  0.00     0.045 C 
ENDBRANCH  16  17
ENDBRANCH  15  16
ENDBRANCH  13  15
ENDBRANCH   4  13
TORSDOF 8
ENDMDL
MODEL 9
REMARK VINA RESULT:    -1.626      3.068      7.444
REMARK INTER + INTRA:          -3.799
REMARK INTER:                  -3.314
REMARK INTRA:                  -0.486
REMARK UNBOUND:                -1.461
REMARK SMILES Cc1ccncc1/C=C/Nc1ccc(CCCN)cc1
REMARK SMILES IDX 14 1 13 2 12 3 11 4 20 5 19 6 15 7 16 8 17 9 18 10 10 13
REMARK SMILES IDX 9 15 8 16 7 17 2 18 6 19 3 20 5 21 4 22 1 23
REMARK H PARENT 18 11 18 12 10 14
ROOT
ATOM      1  C   UNL     1      -6.656   2.721  -3.987  1.00  0.00    -0.048 A 
ATOM      2  C   UNL     1      -7.672   3.505  -3.436  1.00  0.00     0.006 A 
ATOM      3  C   UNL     1      -8.845   3.749  -4.144  1.00  0.00     0.026 A 
ATOM      4  C   UNL     1      -9.019   3.290  -5.452  1.00  0.00     0.038 A 
ATOM      5  C   UNL     1      -7.977   2.552  -6.028  1.00  0.00     0.026 A 
ATOM      6  C   UNL     1      -6.808   2.271  -5.304  1.00  0.00     0.006 A 
ENDROOT
BRANCH   1   7
ATOM      7  C   UNL     1      -5.425   2.366  -3.191  1.00  0.00     0.037 C 
BRANCH   7   8
ATOM      8  C   UNL     1      -5.477   1.054  -2.386  1.00  0.00     0.020 C 
BRANCH   8   9
ATOM      9  C   UNL     1      -6.636   0.103  -2.720  1.00  0.00     0.078 C 
BRANCH   9  10
ATOM     10  N   UNL     1      -6.274  -1.305  -2.799  1.00  0.00    -0.330 NA
ATOM     11  H   UNL     1      -7.074  -1.885  -2.550  1.00  0.00     0.118 HD
ATOM     12  H   UNL     1      -5.554  -1.522  -2.110  1.00  0.00     0.118 HD
ENDBRANCH   9  10
ENDBRANCH   8   9
ENDBRANCH   7   8
ENDBRANCH   1   7
BRANCH   4  13
ATOM     13  N   UNL     1     -10.150   3.633  -6.217  1.00  0.00    -0.362 N 
ATOM     14  H   UNL     1     -10.384   4.617  -6.267  1.00  0.00     0.166 HD
BRANCH  13  15
ATOM     15  C   UNL     1     -11.086   2.742  -6.673  1.00  0.00     0.083 C 
BRANCH  15  16
ATOM     16  C   UNL     1     -11.676   1.730  -6.024  1.00  0.00     0.027 C 
BRANCH  16  17
ATOM     17  C   UNL     1     -13.133   1.699  -5.824  1.00  0.00    -0.003 A 
ATOM     18  C   UNL     1     -13.717   1.586  -4.550  1.00  0.00    -0.041 A 
ATOM     19  C   UNL     1     -14.010   1.744  -6.918  1.00  0.00     0.119 A 
ATOM     20  C   UNL     1     -15.116   1.539  -4.452  1.00  0.00     0.024 A 
ATOM     21  N   UNL     1     -15.361   1.719  -6.840  1.00  0.00    -0.264 NA
ATOM     22  C   UNL     1     -15.882   1.620  -5.604  1.00  0.00     0.111 A 
ATOM     23  C   UNL     1     -12.897   1.474  -3.296  1.00  0.00     0.045 C 
ENDBRANCH  16  17
ENDBRANCH  15  16
ENDBRANCH  13  15
ENDBRANCH   4  13
TORSDOF 8
ENDMDL
