MODEL 1
REMARK VINA RESULT:    -3.423      0.000      0.000
REMARK INTER + INTRA:          -6.282
REMARK INTER:                  -4.923
REMARK INTRA:                  -1.359
REMARK UNBOUND:                -1.359
REMARK SMILES Cc1ccncc1/C=C/Nc1ccc(CCCN)cc1
REMARK SMILES IDX 14 1 13 2 12 3 11 4 20 5 19 6 15 7 16 8 17 9 18 10 10 13
REMARK SMILES IDX 9 15 8 16 7 17 2 18 6 19 3 20 5 21 4 22 1 23
REMARK H PARENT 18 11 18 12 10 14
ROOT
ATOM      1  C   UNL     1      -1.682   7.599   9.813  1.00  0.00    -0.048 A 
ATOM      2  C   UNL     1      -1.814   6.263   9.429  1.00  0.00     0.006 A 
ATOM      3  C   UNL     1      -0.856   5.658   8.621  1.00  0.00     0.026 A 
ATOM      4  C   UNL     1       0.225   6.376   8.104  1.00  0.00     0.038 A 
ATOM      5  C   UNL     1       0.329   7.730   8.442  1.00  0.00     0.026 A 
ATOM      6  C   UNL     1      -0.614   8.336   9.287  1.00  0.00     0.006 A 
ENDROOT
BRANCH   1   7
ATOM      7  C   UNL     1      -2.659   8.237  10.768  1.00  0.00     0.037 C 
BRANCH   7   8
ATOM      8  C   UNL     1      -3.411   7.290  11.723  1.00  0.00     0.020 C 
BRANCH   8   9
ATOM      9  C   UNL     1      -3.425   7.698  13.204  1.00  0.00     0.078 C 
BRANCH   9  10
ATOM     10  N   UNL     1      -3.461   9.134  13.446  1.00  0.00    -0.330 NA
ATOM     11  H   UNL     1      -2.941   9.358  14.293  1.00  0.00     0.118 HD
ATOM     12  H   UNL     1      -4.419   9.436  13.626  1.00  0.00     0.118 HD
ENDBRANCH   9  10
ENDBRANCH   8   9
ENDBRANCH   7   8
ENDBRANCH   1   7
BRANCH   4  13
ATOM     13  N   UNL     1       1.132   5.802   7.192  1.00  0.00    -0.362 N 
ATOM     14  H   UNL     1       1.949   5.353   7.585  1.00  0.00     0.166 HD
BRANCH  13  15
ATOM     15  C   UNL     1       1.129   6.026   5.840  1.00  0.00     0.083 C 
BRANCH  15  16
ATOM     16  C   UNL     1       0.093   6.262   5.024  1.00  0.00     0.027 C 
BRANCH  16  17
ATOM     17  C   UNL     1      -1.132   5.451   5.095  1.00  0.00    -0.003 A 
ATOM     18  C   UNL     1      -2.384   6.003   5.420  1.00  0.00    -0.041 A 
ATOM     19  C   UNL     1      -1.093   4.066   4.875  1.00  0.00     0.119 A 
ATOM     20  C   UNL     1      -3.498   5.153   5.489  1.00  0.00     0.024 A 
ATOM     21  N   UNL     1      -2.160   3.235   4.920  1.00  0.00    -0.264 NA
ATOM     22  C   UNL     1      -3.341   3.802   5.225  1.00  0.00     0.111 A 
ATOM     23  C   UNL     1      -2.563   7.462   5.733  1.00  0.00     0.045 C 
ENDBRANCH  16  17
ENDBRANCH  15  16
ENDBRANCH  13  15
ENDBRANCH   4  13
TORSDOF 8
ENDMDL
MODEL 2
REMARK VINA RESULT:    -3.418      2.679      4.341
REMARK INTER + INTRA:          -6.275
REMARK INTER:                  -4.919
REMARK INTRA:                  -1.355
REMARK UNBOUND:                -1.359
REMARK SMILES Cc1ccncc1/C=C/Nc1ccc(CCCN)cc1
REMARK SMILES IDX 14 1 13 2 12 3 11 4 20 5 19 6 15 7 16 8 17 9 18 10 10 13
REMARK SMILES IDX 9 15 8 16 7 17 2 18 6 19 3 20 5 21 4 22 1 23
REMARK H PARENT 18 11 18 12 10 14
ROOT
ATOM      1  C   UNL     1       0.129   8.851   8.796  1.00  0.00    -0.048 A 
ATOM      2  C   UNL     1       0.272   8.584   7.433  1.00  0.00     0.006 A 
ATOM      3  C   UNL     1      -0.672   7.818   6.756  1.00  0.00     0.026 A 
ATOM      4  C   UNL     1      -1.747   7.225   7.422  1.00  0.00     0.038 A 
ATOM      5  C   UNL     1      -1.861   7.445   8.800  1.00  0.00     0.026 A 
ATOM      6  C   UNL     1      -0.934   8.248   9.480  1.00  0.00     0.006 A 
ENDROOT
BRANCH   1   7
ATOM      7  C   UNL     1       1.089   9.763   9.519  1.00  0.00     0.037 C 
BRANCH   7   8
ATOM      8  C   UNL     1       1.787  10.843   8.671  1.00  0.00     0.020 C 
BRANCH   8   9
ATOM      9  C   UNL     1       1.751  12.271   9.237  1.00  0.00     0.078 C 
BRANCH   9  10
ATOM     10  N   UNL     1       1.738  12.356  10.690  1.00  0.00    -0.330 NA
ATOM     11  H   UNL     1       2.672  12.576  11.035  1.00  0.00     0.118 HD
ATOM     12  H   UNL     1       1.504  11.449  11.094  1.00  0.00     0.118 HD
ENDBRANCH   9  10
ENDBRANCH   8   9
ENDBRANCH   7   8
ENDBRANCH   1   7
BRANCH   4  13
ATOM     13  N   UNL     1      -2.638   6.352   6.768  1.00  0.00    -0.362 N 
ATOM     14  H   UNL     1      -3.557   6.719   6.552  1.00  0.00     0.166 HD
BRANCH  13  15
ATOM     15  C   UNL     1      -2.455   5.001   6.637  1.00  0.00     0.083 C 
BRANCH  15  16
ATOM     16  C   UNL     1      -1.379   4.261   6.935  1.00  0.00     0.027 C 
BRANCH  16  17
ATOM     17  C   UNL     1      -0.124   4.401   6.181  1.00  0.00    -0.003 A 
ATOM     18  C   UNL     1       1.104   4.685   6.805  1.00  0.00    -0.041 A 
ATOM     19  C   UNL     1      -0.110   4.293   4.782  1.00  0.00     0.119 A 
ATOM     20  C   UNL     1       2.249   4.826   6.006  1.00  0.00     0.024 A 
ATOM     21  N   UNL     1       0.988   4.409   3.998  1.00  0.00    -0.264 NA
ATOM     22  C   UNL     1       2.144   4.670   4.633  1.00  0.00     0.111 A 
ATOM     23  C   UNL     1       1.225   4.880   8.290  1.00  0.00     0.045 C 
ENDBRANCH  16  17
ENDBRANCH  15  16
ENDBRANCH  13  15
ENDBRANCH   4  13
TORSDOF 8
ENDMDL
MODEL 3
REMARK VINA RESULT:    -3.129      4.202      6.132
REMARK INTER + INTRA:          -5.860
REMARK INTER:                  -5.360
REMARK INTRA:                  -0.500
REMARK UNBOUND:                -1.359
REMARK SMILES Cc1ccncc1/C=C/Nc1ccc(CCCN)cc1
REMARK SMILES IDX 14 1 13 2 12 3 11 4 20 5 19 6 15 7 16 8 17 9 18 10 10 13
REMARK SMILES IDX 9 15 8 16 7 17 2 18 6 19 3 20 5 21 4 22 1 23
REMARK H PARENT 18 11 18 12 10 14
ROOT
ATOM      1  C   UNL     1      -1.281   5.796   6.088  1.00  0.00    -0.048 A 
ATOM      2  C   UNL     1      -2.272   4.863   5.777  1.00  0.00     0.006 A 
ATOM      3  C   UNL     1      -1.999   3.789   4.936  1.00  0.00     0.026 A 
ATOM      4  C   UNL     1      -0.757   3.645   4.312  1.00  0.00     0.038 A 
ATOM      5  C   UNL     1       0.221   4.610   4.578  1.00  0.00     0.026 A 
ATOM      6  C   UNL     1      -0.037   5.675   5.455  1.00  0.00     0.006 A 
ENDROOT
BRANCH   1   7
ATOM      7  C   UNL     1      -1.535   6.906   7.076  1.00  0.00     0.037 C 
BRANCH   7   8
ATOM      8  C   UNL     1      -0.412   7.202   8.089  1.00  0.00     0.020 C 
BRANCH   8   9
ATOM      9  C   UNL     1      -0.698   8.316   9.106  1.00  0.00     0.078 C 
BRANCH   9  10
ATOM     10  N   UNL     1       0.301   9.374   9.156  1.00  0.00    -0.330 NA
ATOM     11  H   UNL     1       1.220   8.998   8.929  1.00  0.00     0.118 HD
ATOM     12  H   UNL     1       0.381   9.737  10.107  1.00  0.00     0.118 HD
ENDBRANCH   9  10
ENDBRANCH   8   9
ENDBRANCH   7   8
ENDBRANCH   1   7
BRANCH   4  13
ATOM     13  N   UNL     1      -0.511   2.629   3.369  1.00  0.00    -0.362 N 
ATOM     14  H   UNL     1      -0.020   2.901   2.526  1.00  0.00     0.166 HD
BRANCH  13  15
ATOM     15  C   UNL     1      -1.097   1.391   3.381  1.00  0.00     0.083 C 
BRANCH  15  16
ATOM     16  C   UNL     1      -0.731   0.275   2.736  1.00  0.00     0.027 C 
BRANCH  16  17
ATOM     17  C   UNL     1      -1.236  -1.043   3.148  1.00  0.00    -0.003 A 
ATOM     18  C   UNL     1      -0.381  -2.098   3.514  1.00  0.00    -0.041 A 
ATOM     19  C   UNL     1      -2.612  -1.317   3.156  1.00  0.00     0.119 A 
ATOM     20  C   UNL     1      -0.946  -3.331   3.871  1.00  0.00     0.024 A 
ATOM     21  N   UNL     1      -3.175  -2.494   3.514  1.00  0.00    -0.264 NA
ATOM     22  C   UNL     1      -2.325  -3.475   3.867  1.00  0.00     0.111 A 
ATOM     23  C   UNL     1       1.116  -1.962   3.499  1.00  0.00     0.045 C 
ENDBRANCH  16  17
ENDBRANCH  15  16
ENDBRANCH  13  15
ENDBRANCH   4  13
TORSDOF 8
ENDMDL
MODEL 4
REMARK VINA RESULT:    -2.644      4.435      6.040
REMARK INTER + INTRA:          -5.162
REMARK INTER:                  -4.634
REMARK INTRA:                  -0.528
REMARK UNBOUND:                -1.359
REMARK SMILES Cc1ccncc1/C=C/Nc1ccc(CCCN)cc1
REMARK SMILES IDX 14 1 13 2 12 3 11 4 20 5 19 6 15 7 16 8 17 9 18 10 10 13
REMARK SMILES IDX 9 15 8 16 7 17 2 18 6 19 3 20 5 21 4 22 1 23
REMARK H PARENT 18 11 18 12 10 14
ROOT
ATOM      1  C   UNL     1      -0.124   5.399   6.615  1.00  0.00    -0.048 A 
ATOM      2  C   UNL     1       0.735   5.430   5.515  1.00  0.00     0.006 A 
ATOM      3  C   UNL     1       0.491   4.634   4.400  1.00  0.00     0.026 A 
ATOM      4  C   UNL     1      -0.568   3.723   4.369  1.00  0.00     0.038 A 
ATOM      5  C   UNL     1      -1.397   3.649   5.495  1.00  0.00     0.026 A 
ATOM      6  C   UNL     1      -1.178   4.477   6.606  1.00  0.00     0.006 A 
ENDROOT
BRANCH   1   7
ATOM      7  C   UNL     1       0.072   6.329   7.786  1.00  0.00     0.037 C 
BRANCH   7   8
ATOM      8  C   UNL     1      -0.928   7.494   7.920  1.00  0.00     0.020 C 
BRANCH   8   9
ATOM      9  C   UNL     1      -1.065   8.106   9.321  1.00  0.00     0.078 C 
BRANCH   9  10
ATOM     10  N   UNL     1      -0.217   9.262   9.573  1.00  0.00    -0.330 NA
ATOM     11  H   UNL     1       0.748   8.964   9.709  1.00  0.00     0.118 HD
ATOM     12  H   UNL     1      -0.489   9.714  10.447  1.00  0.00     0.118 HD
ENDBRANCH   9  10
ENDBRANCH   8   9
ENDBRANCH   7   8
ENDBRANCH   1   7
BRANCH   4  13
ATOM     13  N   UNL     1      -0.751   2.830   3.295  1.00  0.00    -0.362 N 
ATOM     14  H   UNL     1      -1.321   2.013   3.475  1.00  0.00     0.166 HD
BRANCH  13  15
ATOM     15  C   UNL     1      -0.025   2.845   2.133  1.00  0.00     0.083 C 
BRANCH  15  16
ATOM     16  C   UNL     1      -0.351   2.364   0.926  1.00  0.00     0.027 C 
BRANCH  16  17
ATOM     17  C   UNL     1       0.212   2.944  -0.302  1.00  0.00    -0.003 A 
ATOM     18  C   UNL     1      -0.584   3.275  -1.413  1.00  0.00    -0.041 A 
ATOM     19  C   UNL     1       1.593   3.157  -0.431  1.00  0.00     0.119 A 
ATOM     20  C   UNL     1       0.038   3.802  -2.555  1.00  0.00     0.024 A 
ATOM     21  N   UNL     1       2.207   3.680  -1.518  1.00  0.00    -0.264 NA
ATOM     22  C   UNL     1       1.411   3.994  -2.555  1.00  0.00     0.111 A 
ATOM     23  C   UNL     1      -2.070   3.050  -1.434  1.00  0.00     0.045 C 
ENDBRANCH  16  17
ENDBRANCH  15  16
ENDBRANCH  13  15
ENDBRANCH   4  13
TORSDOF 8
ENDMDL
MODEL 5
REMARK VINA RESULT:    -2.508      9.227     10.315
REMARK INTER + INTRA:          -4.967
REMARK INTER:                  -4.557
REMARK INTRA:                  -0.409
REMARK UNBOUND:                -1.359
REMARK SMILES Cc1ccncc1/C=C/Nc1ccc(CCCN)cc1
REMARK SMILES IDX 14 1 13 2 12 3 11 4 20 5 19 6 15 7 16 8 17 9 18 10 10 13
REMARK SMILES IDX 9 15 8 16 7 17 2 18 6 19 3 20 5 21 4 22 1 23
REMARK H PARENT 18 11 18 12 10 14
ROOT
ATOM      1  C   UNL     1      -1.132  -2.307   3.107  1.00  0.00    -0.048 A 
ATOM      2  C   UNL     1      -0.225  -2.441   2.055  1.00  0.00     0.006 A 
ATOM      3  C   UNL     1       0.099  -1.350   1.252  1.00  0.00     0.026 A 
ATOM      4  C   UNL     1      -0.524  -0.111   1.417  1.00  0.00     0.038 A 
ATOM      5  C   UNL     1      -1.477   0.010   2.435  1.00  0.00     0.026 A 
ATOM      6  C   UNL     1      -1.778  -1.076   3.272  1.00  0.00     0.006 A 
ENDROOT
BRANCH   1   7
ATOM      7  C   UNL     1      -1.415  -3.454   4.045  1.00  0.00     0.037 C 
BRANCH   7   8
ATOM      8  C   UNL     1      -0.641  -3.465   5.378  1.00  0.00     0.020 C 
BRANCH   8   9
ATOM      9  C   UNL     1       0.671  -2.667   5.401  1.00  0.00     0.078 C 
BRANCH   9  10
ATOM     10  N   UNL     1       1.882  -3.475   5.430  1.00  0.00    -0.330 NA
ATOM     11  H   UNL     1       1.665  -4.417   5.752  1.00  0.00     0.118 HD
ATOM     12  H   UNL     1       2.540  -3.098   6.113  1.00  0.00     0.118 HD
ENDBRANCH   9  10
ENDBRANCH   8   9
ENDBRANCH   7   8
ENDBRANCH   1   7
BRANCH   4  13
ATOM     13  N   UNL     1      -0.291   0.962   0.535  1.00  0.00    -0.362 N 
ATOM     14  H   UNL     1       0.029   1.829   0.949  1.00  0.00     0.166 HD
BRANCH  13  15
ATOM     15  C   UNL     1      -0.700   1.005  -0.771  1.00  0.00     0.083 C 
BRANCH  15  16
ATOM     16  C   UNL     1      -0.279   1.800  -1.764  1.00  0.00     0.027 C 
BRANCH  16  17
ATOM     17  C   UNL     1      -0.817   3.158  -1.934  1.00  0.00    -0.003 A 
ATOM     18  C   UNL     1      -0.012   4.247  -2.310  1.00  0.00    -0.041 A 
ATOM     19  C   UNL     1      -2.171   3.431  -1.685  1.00  0.00     0.119 A 
ATOM     20  C   UNL     1      -0.603   5.514  -2.426  1.00  0.00     0.024 A 
ATOM     21  N   UNL     1      -2.761   4.643  -1.809  1.00  0.00    -0.264 NA
ATOM     22  C   UNL     1      -1.959   5.657  -2.181  1.00  0.00     0.111 A 
ATOM     23  C   UNL     1       1.465   4.109  -2.555  1.00  0.00     0.045 C 
ENDBRANCH  16  17
ENDBRANCH  15  16
ENDBRANCH  13  15
ENDBRANCH   4  13
TORSDOF 8
ENDMDL
MODEL 6
REMARK VINA RESULT:    -2.365      4.336      6.432
REMARK INTER + INTRA:          -4.760
REMARK INTER:                  -4.211
REMARK INTRA:                  -0.549
REMARK UNBOUND:                -1.359
REMARK SMILES Cc1ccncc1/C=C/Nc1ccc(CCCN)cc1
REMARK SMILES IDX 14 1 13 2 12 3 11 4 20 5 19 6 15 7 16 8 17 9 18 10 10 13
REMARK SMILES IDX 9 15 8 16 7 17 2 18 6 19 3 20 5 21 4 22 1 23
REMARK H PARENT 18 11 18 12 10 14
ROOT
ATOM      1  C   UNL     1      -1.287   5.539   5.863  1.00  0.00    -0.048 A 
ATOM      2  C   UNL     1      -0.067   5.389   5.201  1.00  0.00     0.006 A 
ATOM      3  C   UNL     1       0.149   4.313   4.345  1.00  0.00     0.026 A 
ATOM      4  C   UNL     1      -0.807   3.309   4.176  1.00  0.00     0.038 A 
ATOM      5  C   UNL     1      -2.009   3.428   4.883  1.00  0.00     0.026 A 
ATOM      6  C   UNL     1      -2.247   4.531   5.718  1.00  0.00     0.006 A 
ENDROOT
BRANCH   1   7
ATOM      7  C   UNL     1      -1.570   6.753   6.713  1.00  0.00     0.037 C 
BRANCH   7   8
ATOM      8  C   UNL     1      -1.157   6.670   8.195  1.00  0.00     0.020 C 
BRANCH   8   9
ATOM      9  C   UNL     1      -1.167   7.995   8.972  1.00  0.00     0.078 C 
BRANCH   9  10
ATOM     10  N   UNL     1       0.133   8.637   9.108  1.00  0.00    -0.330 NA
ATOM     11  H   UNL     1       0.846   7.940   9.317  1.00  0.00     0.118 HD
ATOM     12  H   UNL     1       0.129   9.272   9.907  1.00  0.00     0.118 HD
ENDBRANCH   9  10
ENDBRANCH   8   9
ENDBRANCH   7   8
ENDBRANCH   1   7
BRANCH   4  13
ATOM     13  N   UNL     1      -0.550   2.158   3.406  1.00  0.00    -0.362 N 
ATOM     14  H   UNL     1       0.181   2.232   2.709  1.00  0.00     0.166 HD
BRANCH  13  15
ATOM     15  C   UNL     1      -1.364   1.058   3.347  1.00  0.00     0.083 C 
BRANCH  15  16
ATOM     16  C   UNL     1      -1.173  -0.102   2.705  1.00  0.00     0.027 C 
BRANCH  16  17
ATOM     17  C   UNL     1      -0.456  -1.217   3.342  1.00  0.00    -0.003 A 
ATOM     18  C   UNL     1      -1.051  -2.473   3.555  1.00  0.00    -0.041 A 
ATOM     19  C   UNL     1       0.859  -1.056   3.804  1.00  0.00     0.119 A 
ATOM     20  C   UNL     1      -0.302  -3.474   4.192  1.00  0.00     0.024 A 
ATOM     21  N   UNL     1       1.601  -2.016   4.405  1.00  0.00    -0.264 NA
ATOM     22  C   UNL     1       1.001  -3.206   4.581  1.00  0.00     0.111 A 
ATOM     23  C   UNL     1      -2.470  -2.768   3.159  1.00  0.00     0.045 C 
ENDBRANCH  16  17
ENDBRANCH  15  16
ENDBRANCH  13  15
ENDBRANCH   4  13
TORSDOF 8
ENDMDL
MODEL 7
REMARK VINA RESULT:    -2.218      2.663      4.357
REMARK INTER + INTRA:          -4.549
REMARK INTER:                  -4.281
REMARK INTRA:                  -0.268
REMARK UNBOUND:                -1.359
REMARK SMILES Cc1ccncc1/C=C/Nc1ccc(CCCN)cc1
REMARK SMILES IDX 14 1 13 2 12 3 11 4 20 5 19 6 15 7 16 8 17 9 18 10 10 13
REMARK SMILES IDX 9 15 8 16 7 17 2 18 6 19 3 20 5 21 4 22 1 23
REMARK H PARENT 18 11 18 12 10 14
ROOT
ATOM      1  C   UNL     1       0.349   9.044   8.876  1.00  0.00    -0.048 A 
ATOM      2  C   UNL     1      -0.681   8.504   9.648  1.00  0.00     0.006 A 
ATOM      3  C   UNL     1      -1.533   7.537   9.121  1.00  0.00     0.026 A 
ATOM      4  C   UNL     1      -1.442   7.131   7.787  1.00  0.00     0.038 A 
ATOM      5  C   UNL     1      -0.445   7.714   6.995  1.00  0.00     0.026 A 
ATOM      6  C   UNL     1       0.441   8.660   7.533  1.00  0.00     0.006 A 
ENDROOT
BRANCH   1   7
ATOM      7  C   UNL     1       1.340  10.016   9.467  1.00  0.00     0.037 C 
BRANCH   7   8
ATOM      8  C   UNL     1       1.787  11.183   8.565  1.00  0.00     0.020 C 
BRANCH   8   9
ATOM      9  C   UNL     1       1.817  12.569   9.223  1.00  0.00     0.078 C 
BRANCH   9  10
ATOM     10  N   UNL     1       1.717  12.563  10.676  1.00  0.00    -0.330 NA
ATOM     11  H   UNL     1       1.455  11.635  11.003  1.00  0.00     0.118 HD
ATOM     12  H   UNL     1       0.965  13.182  10.979  1.00  0.00     0.118 HD
ENDBRANCH   9  10
ENDBRANCH   8   9
ENDBRANCH   7   8
ENDBRANCH   1   7
BRANCH   4  13
ATOM     13  N   UNL     1      -2.373   6.244   7.214  1.00  0.00    -0.362 N 
ATOM     14  H   UNL     1      -3.210   6.656   6.821  1.00  0.00     0.166 HD
BRANCH  13  15
ATOM     15  C   UNL     1      -2.359   4.884   7.373  1.00  0.00     0.083 C 
BRANCH  15  16
ATOM     16  C   UNL     1      -1.311   4.055   7.471  1.00  0.00     0.027 C 
BRANCH  16  17
ATOM     17  C   UNL     1      -0.066   4.310   6.730  1.00  0.00    -0.003 A 
ATOM     18  C   UNL     1      -0.003   4.271   5.325  1.00  0.00    -0.041 A 
ATOM     19  C   UNL     1       1.135   4.570   7.407  1.00  0.00     0.119 A 
ATOM     20  C   UNL     1       1.231   4.503   4.700  1.00  0.00     0.024 A 
ATOM     21  N   UNL     1       2.329   4.813   6.819  1.00  0.00    -0.264 NA
ATOM     22  C   UNL     1       2.347   4.777   5.475  1.00  0.00     0.111 A 
ATOM     23  C   UNL     1      -1.200   3.952   4.475  1.00  0.00     0.045 C 
ENDBRANCH  16  17
ENDBRANCH  15  16
ENDBRANCH  13  15
ENDBRANCH   4  13
TORSDOF 8
ENDMDL
MODEL 8
REMARK VINA RESULT:    -0.953      1.507      2.018
REMARK INTER + INTRA:          -2.730
REMARK INTER:                  -1.927
REMARK INTRA:                  -0.803
REMARK UNBOUND:                -1.359
REMARK SMILES Cc1ccncc1/C=C/Nc1ccc(CCCN)cc1
REMARK SMILES IDX 14 1 13 2 12 3 11 4 20 5 19 6 15 7 16 8 17 9 18 10 10 13
REMARK SMILES IDX 9 15 8 16 7 17 2 18 6 19 3 20 5 21 4 22 1 23
REMARK H PARENT 18 11 18 12 10 14
ROOT
ATOM      1  C   UNL     1      -1.976   7.622  10.135  1.00  0.00    -0.048 A 
ATOM      2  C   UNL     1      -2.014   6.362   9.534  1.00  0.00     0.006 A 
ATOM      3  C   UNL     1      -1.045   5.987   8.608  1.00  0.00     0.026 A 
ATOM      4  C   UNL     1      -0.051   6.874   8.188  1.00  0.00     0.038 A 
ATOM      5  C   UNL     1      -0.046   8.158   8.748  1.00  0.00     0.026 A 
ATOM      6  C   UNL     1      -0.997   8.529   9.710  1.00  0.00     0.006 A 
ENDROOT
BRANCH   1   7
ATOM      7  C   UNL     1      -2.960   8.003  11.212  1.00  0.00     0.037 C 
BRANCH   7   8
ATOM      8  C   UNL     1      -3.586   6.848  12.018  1.00  0.00     0.020 C 
BRANCH   8   9
ATOM      9  C   UNL     1      -5.063   6.546  11.726  1.00  0.00     0.078 C 
BRANCH   9  10
ATOM     10  N   UNL     1      -5.332   5.197  11.249  1.00  0.00    -0.330 NA
ATOM     11  H   UNL     1      -6.004   5.225  10.484  1.00  0.00     0.118 HD
ATOM     12  H   UNL     1      -5.778   4.647  11.984  1.00  0.00     0.118 HD
ENDBRANCH   9  10
ENDBRANCH   8   9
ENDBRANCH   7   8
ENDBRANCH   1   7
BRANCH   4  13
ATOM     13  N   UNL     1       0.859   6.543   7.166  1.00  0.00    -0.362 N 
ATOM     14  H   UNL     1       1.680   6.019   7.442  1.00  0.00     0.166 HD
BRANCH  13  15
ATOM     15  C   UNL     1       0.853   7.084   5.908  1.00  0.00     0.083 C 
BRANCH  15  16
ATOM     16  C   UNL     1      -0.021   6.894   4.910  1.00  0.00     0.027 C 
BRANCH  16  17
ATOM     17  C   UNL     1      -1.223   6.068   5.097  1.00  0.00    -0.003 A 
ATOM     18  C   UNL     1      -1.204   4.667   4.968  1.00  0.00    -0.041 A 
ATOM     19  C   UNL     1      -2.465   6.657   5.379  1.00  0.00     0.119 A 
ATOM     20  C   UNL     1      -2.402   3.958   5.140  1.00  0.00     0.024 A 
ATOM     21  N   UNL     1      -3.626   5.987   5.565  1.00  0.00    -0.264 NA
ATOM     22  C   UNL     1      -3.564   4.649   5.443  1.00  0.00     0.111 A 
ATOM     23  C   UNL     1       0.045   3.909   4.616  1.00  0.00     0.045 C 
ENDBRANCH  16  17
ENDBRANCH  15  16
ENDBRANCH  13  15
ENDBRANCH   4  13
TORSDOF 8
ENDMDL
MODEL 9
REMARK VINA RESULT:    -0.545      4.411      8.722
REMARK INTER + INTRA:          -2.142
REMARK INTER:                  -1.605
REMARK INTRA:                  -0.537
REMARK UNBOUND:                -1.359
REMARK SMILES Cc1ccncc1/C=C/Nc1ccc(CCCN)cc1
REMARK SMILES IDX 14 1 13 2 12 3 11 4 20 5 19 6 15 7 16 8 17 9 18 10 10 13
REMARK SMILES IDX 9 15 8 16 7 17 2 18 6 19 3 20 5 21 4 22 1 23
REMARK H PARENT 18 11 18 12 10 14
ROOT
ATOM      1  C   UNL     1      -1.338  -1.287   2.673  1.00  0.00    -0.048 A 
ATOM      2  C   UNL     1      -1.636  -0.352   3.666  1.00  0.00     0.006 A 
ATOM      3  C   UNL     1      -1.353   0.998   3.479  1.00  0.00     0.026 A 
ATOM      4  C   UNL     1      -0.696   1.456   2.335  1.00  0.00     0.038 A 
ATOM      5  C   UNL     1      -0.345   0.512   1.363  1.00  0.00     0.026 A 
ATOM      6  C   UNL     1      -0.662  -0.845   1.529  1.00  0.00     0.006 A 
ENDROOT
BRANCH   1   7
ATOM      7  C   UNL     1      -1.730  -2.736   2.821  1.00  0.00     0.037 C 
BRANCH   7   8
ATOM      8  C   UNL     1      -1.192  -3.475   4.061  1.00  0.00     0.020 C 
BRANCH   8   9
ATOM      9  C   UNL     1       0.333  -3.461   4.245  1.00  0.00     0.078 C 
BRANCH   9  10
ATOM     10  N   UNL     1       0.789  -3.099   5.579  1.00  0.00    -0.330 NA
ATOM     11  H   UNL     1       0.590  -3.856   6.232  1.00  0.00     0.118 HD
ATOM     12  H   UNL     1       0.264  -2.295   5.924  1.00  0.00     0.118 HD
ENDBRANCH   9  10
ENDBRANCH   8   9
ENDBRANCH   7   8
ENDBRANCH   1   7
BRANCH   4  13
ATOM     13  N   UNL     1      -0.300   2.800   2.192  1.00  0.00    -0.362 N 
ATOM     14  H   UNL     1      -0.151   3.131   1.247  1.00  0.00     0.166 HD
BRANCH  13  15
ATOM     15  C   UNL     1       0.138   3.600   3.214  1.00  0.00     0.083 C 
BRANCH  15  16
ATOM     16  C   UNL     1      -0.573   4.241   4.151  1.00  0.00     0.027 C 
BRANCH  16  17
ATOM     17  C   UNL     1      -0.004   4.525   5.477  1.00  0.00    -0.003 A 
ATOM     18  C   UNL     1      -0.807   4.736   6.613  1.00  0.00    -0.041 A 
ATOM     19  C   UNL     1       1.383   4.637   5.657  1.00  0.00     0.119 A 
ATOM     20  C   UNL     1      -0.182   5.025   7.835  1.00  0.00     0.024 A 
ATOM     21  N   UNL     1       2.002   4.898   6.832  1.00  0.00    -0.264 NA
ATOM     22  C   UNL     1       1.201   5.083   7.896  1.00  0.00     0.111 A 
ATOM     23  C   UNL     1      -2.308   4.700   6.554  1.00  0.00     0.045 C 
ENDBRANCH  16  17
ENDBRANCH  15  16
ENDBRANCH  13  15
ENDBRANCH   4  13
TORSDOF 8
ENDMDL
