MODEL 1
REMARK VINA RESULT:    -5.074      0.000      0.000
REMARK INTER + INTRA:          -8.041
REMARK INTER:                  -7.299
REMARK INTRA:                  -0.742
REMARK UNBOUND:                -0.742
REMARK SMILES Cc1ccncc1/C=C/Nc1ccc(CCCN)cc1
REMARK SMILES IDX 14 1 13 2 12 3 11 4 20 5 19 6 15 7 16 8 17 9 18 10 10 13
REMARK SMILES IDX 9 15 8 16 7 17 2 18 6 19 3 20 5 21 4 22 1 23
REMARK H PARENT 18 11 18 12 10 14
ROOT
ATOM      1  C   UNL     1     -14.690   6.886   4.937  1.00  0.00    -0.048 A 
ATOM      2  C   UNL     1     -15.071   5.652   5.468  1.00  0.00     0.006 A 
ATOM      3  C   UNL     1     -14.254   4.534   5.323  1.00  0.00     0.026 A 
ATOM      4  C   UNL     1     -13.071   4.582   4.581  1.00  0.00     0.038 A 
ATOM      5  C   UNL     1     -12.716   5.806   4.001  1.00  0.00     0.026 A 
ATOM      6  C   UNL     1     -13.516   6.945   4.176  1.00  0.00     0.006 A 
ENDROOT
BRANCH   1   7
ATOM      7  C   UNL     1     -15.516   8.125   5.174  1.00  0.00     0.037 C 
BRANCH   7   8
ATOM      8  C   UNL     1     -15.596   9.135   4.012  1.00  0.00     0.020 C 
BRANCH   8   9
ATOM      9  C   UNL     1     -16.830   9.021   3.105  1.00  0.00     0.078 C 
BRANCH   9  10
ATOM     10  N   UNL     1     -16.805   7.905   2.169  1.00  0.00    -0.330 NA
ATOM     11  H   UNL     1     -17.747   7.707   1.837  1.00  0.00     0.118 HD
ATOM     12  H   UNL     1     -16.498   7.056   2.643  1.00  0.00     0.118 HD
ENDBRANCH   9  10
ENDBRANCH   8   9
ENDBRANCH   7   8
ENDBRANCH   1   7
BRANCH   4  13
ATOM     13  N   UNL     1     -12.302   3.430   4.331  1.00  0.00    -0.362 N 
ATOM     14  H   UNL     1     -11.513   3.268   4.943  1.00  0.00     0.166 HD
BRANCH  13  15
ATOM     15  C   UNL     1     -12.379   2.670   3.194  1.00  0.00     0.083 C 
BRANCH  15  16
ATOM     16  C   UNL     1     -11.537   1.729   2.746  1.00  0.00     0.027 C 
BRANCH  16  17
ATOM     17  C   UNL     1     -10.625   1.995   1.624  1.00  0.00    -0.003 A 
ATOM     18  C   UNL     1      -9.250   1.703   1.683  1.00  0.00    -0.041 A 
ATOM     19  C   UNL     1     -11.091   2.594   0.444  1.00  0.00     0.119 A 
ATOM     20  C   UNL     1      -8.447   2.011   0.575  1.00  0.00     0.024 A 
ATOM     21  N   UNL     1     -10.334   2.882  -0.641  1.00  0.00    -0.264 NA
ATOM     22  C   UNL     1      -9.027   2.579  -0.549  1.00  0.00     0.111 A 
ATOM     23  C   UNL     1      -8.606   1.110   2.904  1.00  0.00     0.045 C 
ENDBRANCH  16  17
ENDBRANCH  15  16
ENDBRANCH  13  15
ENDBRANCH   4  13
TORSDOF 8
ENDMDL
MODEL 2
REMARK VINA RESULT:    -4.843      1.776      8.373
REMARK INTER + INTRA:          -7.709
REMARK INTER:                  -7.098
REMARK INTRA:                  -0.611
REMARK UNBOUND:                -0.742
REMARK SMILES Cc1ccncc1/C=C/Nc1ccc(CCCN)cc1
REMARK SMILES IDX 14 1 13 2 12 3 11 4 20 5 19 6 15 7 16 8 17 9 18 10 10 13
REMARK SMILES IDX 9 15 8 16 7 17 2 18 6 19 3 20 5 21 4 22 1 23
REMARK H PARENT 18 11 18 12 10 14
ROOT
ATOM      1  C   UNL     1      -9.943   1.485   1.669  1.00  0.00    -0.048 A 
ATOM      2  C   UNL     1      -9.966   1.514   3.065  1.00  0.00     0.006 A 
ATOM      3  C   UNL     1     -11.016   2.126   3.745  1.00  0.00     0.026 A 
ATOM      4  C   UNL     1     -12.036   2.796   3.066  1.00  0.00     0.038 A 
ATOM      5  C   UNL     1     -11.984   2.816   1.667  1.00  0.00     0.026 A 
ATOM      6  C   UNL     1     -10.949   2.168   0.975  1.00  0.00     0.006 A 
ENDROOT
BRANCH   1   7
ATOM      7  C   UNL     1      -8.866   0.739   0.922  1.00  0.00     0.037 C 
BRANCH   7   8
ATOM      8  C   UNL     1      -8.287   1.428  -0.329  1.00  0.00     0.020 C 
BRANCH   8   9
ATOM      9  C   UNL     1      -7.257   0.617  -1.129  1.00  0.00     0.078 C 
BRANCH   9  10
ATOM     10  N   UNL     1      -7.806  -0.152  -2.237  1.00  0.00    -0.330 NA
ATOM     11  H   UNL     1      -8.276   0.470  -2.894  1.00  0.00     0.118 HD
ATOM     12  H   UNL     1      -8.529  -0.789  -1.899  1.00  0.00     0.118 HD
ENDBRANCH   9  10
ENDBRANCH   8   9
ENDBRANCH   7   8
ENDBRANCH   1   7
BRANCH   4  13
ATOM     13  N   UNL     1     -13.035   3.517   3.747  1.00  0.00    -0.362 N 
ATOM     14  H   UNL     1     -13.995   3.291   3.519  1.00  0.00     0.166 HD
BRANCH  13  15
ATOM     15  C   UNL     1     -12.816   4.651   4.484  1.00  0.00     0.083 C 
BRANCH  15  16
ATOM     16  C   UNL     1     -13.085   5.926   4.174  1.00  0.00     0.027 C 
BRANCH  16  17
ATOM     17  C   UNL     1     -14.312   6.583   4.649  1.00  0.00    -0.003 A 
ATOM     18  C   UNL     1     -14.860   7.710   4.011  1.00  0.00    -0.041 A 
ATOM     19  C   UNL     1     -14.973   6.127   5.800  1.00  0.00     0.119 A 
ATOM     20  C   UNL     1     -16.021   8.290   4.545  1.00  0.00     0.024 A 
ATOM     21  N   UNL     1     -16.103   6.663   6.318  1.00  0.00    -0.264 NA
ATOM     22  C   UNL     1     -16.602   7.733   5.674  1.00  0.00     0.111 A 
ATOM     23  C   UNL     1     -14.226   8.337   2.801  1.00  0.00     0.045 C 
ENDBRANCH  16  17
ENDBRANCH  15  16
ENDBRANCH  13  15
ENDBRANCH   4  13
TORSDOF 8
ENDMDL
MODEL 3
REMARK VINA RESULT:    -4.826      1.491      2.097
REMARK INTER + INTRA:          -7.683
REMARK INTER:                  -7.079
REMARK INTRA:                  -0.604
REMARK UNBOUND:                -0.742
REMARK SMILES Cc1ccncc1/C=C/Nc1ccc(CCCN)cc1
REMARK SMILES IDX 14 1 13 2 12 3 11 4 20 5 19 6 15 7 16 8 17 9 18 10 10 13
REMARK SMILES IDX 9 15 8 16 7 17 2 18 6 19 3 20 5 21 4 22 1 23
REMARK H PARENT 18 11 18 12 10 14
ROOT
ATOM      1  C   UNL     1     -14.143   6.452   4.792  1.00  0.00    -0.048 A 
ATOM      2  C   UNL     1     -14.628   5.201   5.181  1.00  0.00     0.006 A 
ATOM      3  C   UNL     1     -13.903   4.044   4.916  1.00  0.00     0.026 A 
ATOM      4  C   UNL     1     -12.710   4.077   4.190  1.00  0.00     0.038 A 
ATOM      5  C   UNL     1     -12.250   5.324   3.750  1.00  0.00     0.026 A 
ATOM      6  C   UNL     1     -12.958   6.499   4.047  1.00  0.00     0.006 A 
ENDROOT
BRANCH   1   7
ATOM      7  C   UNL     1     -14.869   7.721   5.161  1.00  0.00     0.037 C 
BRANCH   7   8
ATOM      8  C   UNL     1     -15.248   8.663   4.002  1.00  0.00     0.020 C 
BRANCH   8   9
ATOM      9  C   UNL     1     -16.683   8.534   3.471  1.00  0.00     0.078 C 
BRANCH   9  10
ATOM     10  N   UNL     1     -16.800   7.923   2.155  1.00  0.00    -0.330 NA
ATOM     11  H   UNL     1     -17.742   7.559   2.021  1.00  0.00     0.118 HD
ATOM     12  H   UNL     1     -16.182   7.114   2.087  1.00  0.00     0.118 HD
ENDBRANCH   9  10
ENDBRANCH   8   9
ENDBRANCH   7   8
ENDBRANCH   1   7
BRANCH   4  13
ATOM     13  N   UNL     1     -12.033   2.900   3.816  1.00  0.00    -0.362 N 
ATOM     14  H   UNL     1     -11.724   2.296   4.567  1.00  0.00     0.166 HD
BRANCH  13  15
ATOM     15  C   UNL     1     -11.543   2.645   2.562  1.00  0.00     0.083 C 
BRANCH  15  16
ATOM     16  C   UNL     1     -10.811   1.607   2.136  1.00  0.00     0.027 C 
BRANCH  16  17
ATOM     17  C   UNL     1      -9.346   1.603   2.267  1.00  0.00    -0.003 A 
ATOM     18  C   UNL     1      -8.495   2.030   1.232  1.00  0.00    -0.041 A 
ATOM     19  C   UNL     1      -8.729   1.129   3.435  1.00  0.00     0.119 A 
ATOM     20  C   UNL     1      -7.108   1.971   1.432  1.00  0.00     0.024 A 
ATOM     21  N   UNL     1      -7.393   1.081   3.651  1.00  0.00    -0.264 NA
ATOM     22  C   UNL     1      -6.614   1.508   2.642  1.00  0.00     0.111 A 
ATOM     23  C   UNL     1      -9.018   2.512  -0.092  1.00  0.00     0.045 C 
ENDBRANCH  16  17
ENDBRANCH  15  16
ENDBRANCH  13  15
ENDBRANCH   4  13
TORSDOF 8
ENDMDL
MODEL 4
REMARK VINA RESULT:    -4.795      2.240      8.339
REMARK INTER + INTRA:          -7.639
REMARK INTER:                  -7.120
REMARK INTRA:                  -0.519
REMARK UNBOUND:                -0.742
REMARK SMILES Cc1ccncc1/C=C/Nc1ccc(CCCN)cc1
REMARK SMILES IDX 14 1 13 2 12 3 11 4 20 5 19 6 15 7 16 8 17 9 18 10 10 13
REMARK SMILES IDX 9 15 8 16 7 17 2 18 6 19 3 20 5 21 4 22 1 23
REMARK H PARENT 18 11 18 12 10 14
ROOT
ATOM      1  C   UNL     1      -8.610   1.036   2.126  1.00  0.00    -0.048 A 
ATOM      2  C   UNL     1      -9.085   0.905   3.433  1.00  0.00     0.006 A 
ATOM      3  C   UNL     1     -10.379   1.299   3.761  1.00  0.00     0.026 A 
ATOM      4  C   UNL     1     -11.218   1.907   2.824  1.00  0.00     0.038 A 
ATOM      5  C   UNL     1     -10.723   2.091   1.528  1.00  0.00     0.026 A 
ATOM      6  C   UNL     1      -9.433   1.660   1.182  1.00  0.00     0.006 A 
ENDROOT
BRANCH   1   7
ATOM      7  C   UNL     1      -7.247   0.520   1.736  1.00  0.00     0.037 C 
BRANCH   7   8
ATOM      8  C   UNL     1      -6.098   1.547   1.716  1.00  0.00     0.020 C 
BRANCH   8   9
ATOM      9  C   UNL     1      -5.776   2.222   3.056  1.00  0.00     0.078 C 
BRANCH   9  10
ATOM     10  N   UNL     1      -4.886   1.468   3.927  1.00  0.00    -0.330 NA
ATOM     11  H   UNL     1      -4.025   1.239   3.432  1.00  0.00     0.118 HD
ATOM     12  H   UNL     1      -5.308   0.571   4.169  1.00  0.00     0.118 HD
ENDBRANCH   9  10
ENDBRANCH   8   9
ENDBRANCH   7   8
ENDBRANCH   1   7
BRANCH   4  13
ATOM     13  N   UNL     1     -12.483   2.416   3.178  1.00  0.00    -0.362 N 
ATOM     14  H   UNL     1     -13.285   1.851   2.930  1.00  0.00     0.166 HD
BRANCH  13  15
ATOM     15  C   UNL     1     -12.723   3.702   3.587  1.00  0.00     0.083 C 
BRANCH  15  16
ATOM     16  C   UNL     1     -13.178   4.143   4.767  1.00  0.00     0.027 C 
BRANCH  16  17
ATOM     17  C   UNL     1     -13.912   5.412   4.874  1.00  0.00    -0.003 A 
ATOM     18  C   UNL     1     -15.228   5.483   5.365  1.00  0.00    -0.041 A 
ATOM     19  C   UNL     1     -13.333   6.617   4.449  1.00  0.00     0.119 A 
ATOM     20  C   UNL     1     -15.864   6.733   5.410  1.00  0.00     0.024 A 
ATOM     21  N   UNL     1     -13.925   7.833   4.502  1.00  0.00    -0.264 NA
ATOM     22  C   UNL     1     -15.179   7.861   4.987  1.00  0.00     0.111 A 
ATOM     23  C   UNL     1     -15.990   4.264   5.805  1.00  0.00     0.045 C 
ENDBRANCH  16  17
ENDBRANCH  15  16
ENDBRANCH  13  15
ENDBRANCH   4  13
TORSDOF 8
ENDMDL
MODEL 5
REMARK VINA RESULT:    -4.717      1.797      8.425
REMARK INTER + INTRA:          -7.527
REMARK INTER:                  -6.979
REMARK INTRA:                  -0.547
REMARK UNBOUND:                -0.742
REMARK SMILES Cc1ccncc1/C=C/Nc1ccc(CCCN)cc1
REMARK SMILES IDX 14 1 13 2 12 3 11 4 20 5 19 6 15 7 16 8 17 9 18 10 10 13
REMARK SMILES IDX 9 15 8 16 7 17 2 18 6 19 3 20 5 21 4 22 1 23
REMARK H PARENT 18 11 18 12 10 14
ROOT
ATOM      1  C   UNL     1      -9.462   1.409   1.319  1.00  0.00    -0.048 A 
ATOM      2  C   UNL     1      -9.516   1.313   2.711  1.00  0.00     0.006 A 
ATOM      3  C   UNL     1     -10.643   1.736   3.409  1.00  0.00     0.026 A 
ATOM      4  C   UNL     1     -11.722   2.340   2.760  1.00  0.00     0.038 A 
ATOM      5  C   UNL     1     -11.646   2.489   1.370  1.00  0.00     0.026 A 
ATOM      6  C   UNL     1     -10.528   2.029   0.657  1.00  0.00     0.006 A 
ENDROOT
BRANCH   1   7
ATOM      7  C   UNL     1      -8.290   0.862   0.543  1.00  0.00     0.037 C 
BRANCH   7   8
ATOM      8  C   UNL     1      -8.104   1.389  -0.893  1.00  0.00     0.020 C 
BRANCH   8   9
ATOM      9  C   UNL     1      -7.418   0.431  -1.878  1.00  0.00     0.078 C 
BRANCH   9  10
ATOM     10  N   UNL     1      -6.266  -0.281  -1.343  1.00  0.00    -0.330 NA
ATOM     11  H   UNL     1      -5.692   0.352  -0.789  1.00  0.00     0.118 HD
ATOM     12  H   UNL     1      -5.666  -0.599  -2.104  1.00  0.00     0.118 HD
ENDBRANCH   9  10
ENDBRANCH   8   9
ENDBRANCH   7   8
ENDBRANCH   1   7
BRANCH   4  13
ATOM     13  N   UNL     1     -12.812   2.877   3.471  1.00  0.00    -0.362 N 
ATOM     14  H   UNL     1     -13.668   2.337   3.467  1.00  0.00     0.166 HD
BRANCH  13  15
ATOM     15  C   UNL     1     -12.884   4.163   3.938  1.00  0.00     0.083 C 
BRANCH  15  16
ATOM     16  C   UNL     1     -13.456   4.626   5.057  1.00  0.00     0.027 C 
BRANCH  16  17
ATOM     17  C   UNL     1     -14.310   5.823   5.038  1.00  0.00    -0.003 A 
ATOM     18  C   UNL     1     -15.667   5.789   5.406  1.00  0.00    -0.041 A 
ATOM     19  C   UNL     1     -13.805   7.060   4.609  1.00  0.00     0.119 A 
ATOM     20  C   UNL     1     -16.415   6.974   5.336  1.00  0.00     0.024 A 
ATOM     21  N   UNL     1     -14.507   8.216   4.552  1.00  0.00    -0.264 NA
ATOM     22  C   UNL     1     -15.799   8.144   4.921  1.00  0.00     0.111 A 
ATOM     23  C   UNL     1     -16.352   4.521   5.835  1.00  0.00     0.045 C 
ENDBRANCH  16  17
ENDBRANCH  15  16
ENDBRANCH  13  15
ENDBRANCH   4  13
TORSDOF 8
ENDMDL
MODEL 6
REMARK VINA RESULT:    -4.658      1.544      1.976
REMARK INTER + INTRA:          -7.441
REMARK INTER:                  -6.838
REMARK INTRA:                  -0.604
REMARK UNBOUND:                -0.742
REMARK SMILES Cc1ccncc1/C=C/Nc1ccc(CCCN)cc1
REMARK SMILES IDX 14 1 13 2 12 3 11 4 20 5 19 6 15 7 16 8 17 9 18 10 10 13
REMARK SMILES IDX 9 15 8 16 7 17 2 18 6 19 3 20 5 21 4 22 1 23
REMARK H PARENT 18 11 18 12 10 14
ROOT
ATOM      1  C   UNL     1     -14.822   6.840   5.128  1.00  0.00    -0.048 A 
ATOM      2  C   UNL     1     -13.608   7.023   4.463  1.00  0.00     0.006 A 
ATOM      3  C   UNL     1     -12.799   5.934   4.149  1.00  0.00     0.026 A 
ATOM      4  C   UNL     1     -13.127   4.638   4.552  1.00  0.00     0.038 A 
ATOM      5  C   UNL     1     -14.316   4.460   5.269  1.00  0.00     0.026 A 
ATOM      6  C   UNL     1     -15.155   5.548   5.555  1.00  0.00     0.006 A 
ENDROOT
BRANCH   1   7
ATOM      7  C   UNL     1     -15.754   7.997   5.384  1.00  0.00     0.037 C 
BRANCH   7   8
ATOM      8  C   UNL     1     -15.195   9.408   5.115  1.00  0.00     0.020 C 
BRANCH   8   9
ATOM      9  C   UNL     1     -15.269  10.396   6.289  1.00  0.00     0.078 C 
BRANCH   9  10
ATOM     10  N   UNL     1     -14.028  10.564   7.031  1.00  0.00    -0.330 NA
ATOM     11  H   UNL     1     -13.607  11.465   6.809  1.00  0.00     0.118 HD
ATOM     12  H   UNL     1     -13.346   9.864   6.738  1.00  0.00     0.118 HD
ENDBRANCH   9  10
ENDBRANCH   8   9
ENDBRANCH   7   8
ENDBRANCH   1   7
BRANCH   4  13
ATOM     13  N   UNL     1     -12.257   3.551   4.343  1.00  0.00    -0.362 N 
ATOM     14  H   UNL     1     -11.475   3.466   4.980  1.00  0.00     0.166 HD
BRANCH  13  15
ATOM     15  C   UNL     1     -12.237   2.769   3.218  1.00  0.00     0.083 C 
BRANCH  15  16
ATOM     16  C   UNL     1     -11.379   1.798   2.878  1.00  0.00     0.027 C 
BRANCH  16  17
ATOM     17  C   UNL     1     -10.447   1.963   1.752  1.00  0.00    -0.003 A 
ATOM     18  C   UNL     1      -9.095   1.586   1.831  1.00  0.00    -0.041 A 
ATOM     19  C   UNL     1     -10.869   2.549   0.549  1.00  0.00     0.119 A 
ATOM     20  C   UNL     1      -8.270   1.801   0.717  1.00  0.00     0.024 A 
ATOM     21  N   UNL     1     -10.091   2.748  -0.540  1.00  0.00    -0.264 NA
ATOM     22  C   UNL     1      -8.807   2.365  -0.429  1.00  0.00     0.111 A 
ATOM     23  C   UNL     1      -8.496   0.996   3.076  1.00  0.00     0.045 C 
ENDBRANCH  16  17
ENDBRANCH  15  16
ENDBRANCH  13  15
ENDBRANCH   4  13
TORSDOF 8
ENDMDL
MODEL 7
REMARK VINA RESULT:    -4.533      4.197      5.995
REMARK INTER + INTRA:          -7.262
REMARK INTER:                  -6.478
REMARK INTRA:                  -0.784
REMARK UNBOUND:                -0.742
REMARK SMILES Cc1ccncc1/C=C/Nc1ccc(CCCN)cc1
REMARK SMILES IDX 14 1 13 2 12 3 11 4 20 5 19 6 15 7 16 8 17 9 18 10 10 13
REMARK SMILES IDX 9 15 8 16 7 17 2 18 6 19 3 20 5 21 4 22 1 23
REMARK H PARENT 18 11 18 12 10 14
ROOT
ATOM      1  C   UNL     1     -13.420   1.036   2.281  1.00  0.00    -0.048 A 
ATOM      2  C   UNL     1     -13.367   2.233   2.997  1.00  0.00     0.006 A 
ATOM      3  C   UNL     1     -12.161   2.907   3.167  1.00  0.00     0.026 A 
ATOM      4  C   UNL     1     -10.955   2.379   2.699  1.00  0.00     0.038 A 
ATOM      5  C   UNL     1     -10.999   1.150   2.029  1.00  0.00     0.026 A 
ATOM      6  C   UNL     1     -12.217   0.485   1.822  1.00  0.00     0.006 A 
ENDROOT
BRANCH   1   7
ATOM      7  C   UNL     1     -14.734   0.350   2.004  1.00  0.00     0.037 C 
BRANCH   7   8
ATOM      8  C   UNL     1     -14.766  -1.180   2.184  1.00  0.00     0.020 C 
BRANCH   8   9
ATOM      9  C   UNL     1     -16.119  -1.782   2.591  1.00  0.00     0.078 C 
BRANCH   9  10
ATOM     10  N   UNL     1     -16.200  -2.238   3.971  1.00  0.00    -0.330 NA
ATOM     11  H   UNL     1     -16.395  -3.238   3.997  1.00  0.00     0.118 HD
ATOM     12  H   UNL     1     -16.988  -1.794   4.443  1.00  0.00     0.118 HD
ENDBRANCH   9  10
ENDBRANCH   8   9
ENDBRANCH   7   8
ENDBRANCH   1   7
BRANCH   4  13
ATOM     13  N   UNL     1      -9.718   2.994   2.969  1.00  0.00    -0.362 N 
ATOM     14  H   UNL     1      -9.747   3.964   3.257  1.00  0.00     0.166 HD
BRANCH  13  15
ATOM     15  C   UNL     1      -8.496   2.476   2.631  1.00  0.00     0.083 C 
BRANCH  15  16
ATOM     16  C   UNL     1      -7.666   2.841   1.644  1.00  0.00     0.027 C 
BRANCH  16  17
ATOM     17  C   UNL     1      -7.365   1.933   0.527  1.00  0.00    -0.003 A 
ATOM     18  C   UNL     1      -8.182   1.845  -0.614  1.00  0.00    -0.041 A 
ATOM     19  C   UNL     1      -6.254   1.078   0.575  1.00  0.00     0.119 A 
ATOM     20  C   UNL     1      -7.834   0.934  -1.623  1.00  0.00     0.024 A 
ATOM     21  N   UNL     1      -5.894   0.207  -0.397  1.00  0.00    -0.264 NA
ATOM     22  C   UNL     1      -6.694   0.159  -1.477  1.00  0.00     0.111 A 
ATOM     23  C   UNL     1      -9.432   2.664  -0.774  1.00  0.00     0.045 C 
ENDBRANCH  16  17
ENDBRANCH  15  16
ENDBRANCH  13  15
ENDBRANCH   4  13
TORSDOF 8
ENDMDL
MODEL 8
REMARK VINA RESULT:    -4.416      4.492      6.450
REMARK INTER + INTRA:          -7.094
REMARK INTER:                  -6.322
REMARK INTRA:                  -0.772
REMARK UNBOUND:                -0.742
REMARK SMILES Cc1ccncc1/C=C/Nc1ccc(CCCN)cc1
REMARK SMILES IDX 14 1 13 2 12 3 11 4 20 5 19 6 15 7 16 8 17 9 18 10 10 13
REMARK SMILES IDX 9 15 8 16 7 17 2 18 6 19 3 20 5 21 4 22 1 23
REMARK H PARENT 18 11 18 12 10 14
ROOT
ATOM      1  C   UNL     1     -15.176  -0.915   2.182  1.00  0.00    -0.048 A 
ATOM      2  C   UNL     1     -13.833  -1.155   1.882  1.00  0.00     0.006 A 
ATOM      3  C   UNL     1     -12.889  -0.137   1.984  1.00  0.00     0.026 A 
ATOM      4  C   UNL     1     -13.256   1.171   2.311  1.00  0.00     0.038 A 
ATOM      5  C   UNL     1     -14.610   1.426   2.557  1.00  0.00     0.026 A 
ATOM      6  C   UNL     1     -15.560   0.395   2.493  1.00  0.00     0.006 A 
ENDROOT
BRANCH   1   7
ATOM      7  C   UNL     1     -16.189  -2.031   2.173  1.00  0.00     0.037 C 
BRANCH   7   8
ATOM      8  C   UNL     1     -16.830  -2.395   3.527  1.00  0.00     0.020 C 
BRANCH   8   9
ATOM      9  C   UNL     1     -15.941  -3.178   4.504  1.00  0.00     0.078 C 
BRANCH   9  10
ATOM     10  N   UNL     1     -16.188  -2.908   5.913  1.00  0.00    -0.330 NA
ATOM     11  H   UNL     1     -15.305  -2.760   6.400  1.00  0.00     0.118 HD
ATOM     12  H   UNL     1     -16.613  -3.722   6.358  1.00  0.00     0.118 HD
ENDBRANCH   9  10
ENDBRANCH   8   9
ENDBRANCH   7   8
ENDBRANCH   1   7
BRANCH   4  13
ATOM     13  N   UNL     1     -12.326   2.229   2.300  1.00  0.00    -0.362 N 
ATOM     14  H   UNL     1     -12.546   3.032   2.876  1.00  0.00     0.166 HD
BRANCH  13  15
ATOM     15  C   UNL     1     -11.306   2.365   1.396  1.00  0.00     0.083 C 
BRANCH  15  16
ATOM     16  C   UNL     1      -9.987   2.437   1.615  1.00  0.00     0.027 C 
BRANCH  16  17
ATOM     17  C   UNL     1      -9.028   1.780   0.713  1.00  0.00    -0.003 A 
ATOM     18  C   UNL     1      -8.091   0.835   1.167  1.00  0.00    -0.041 A 
ATOM     19  C   UNL     1      -8.986   2.104  -0.652  1.00  0.00     0.119 A 
ATOM     20  C   UNL     1      -7.197   0.274   0.242  1.00  0.00     0.024 A 
ATOM     21  N   UNL     1      -8.142   1.560  -1.560  1.00  0.00    -0.264 NA
ATOM     22  C   UNL     1      -7.268   0.653  -1.089  1.00  0.00     0.111 A 
ATOM     23  C   UNL     1      -7.989   0.434   2.612  1.00  0.00     0.045 C 
ENDBRANCH  16  17
ENDBRANCH  15  16
ENDBRANCH  13  15
ENDBRANCH   4  13
TORSDOF 8
ENDMDL
MODEL 9
REMARK VINA RESULT:    -4.379      2.222      3.581
REMARK INTER + INTRA:          -7.040
REMARK INTER:                  -6.398
REMARK INTRA:                  -0.642
REMARK UNBOUND:                -0.742
REMARK SMILES Cc1ccncc1/C=C/Nc1ccc(CCCN)cc1
REMARK SMILES IDX 14 1 13 2 12 3 11 4 20 5 19 6 15 7 16 8 17 9 18 10 10 13
REMARK SMILES IDX 9 15 8 16 7 17 2 18 6 19 3 20 5 21 4 22 1 23
REMARK H PARENT 18 11 18 12 10 14
ROOT
ATOM      1  C   UNL     1     -13.379   4.006   4.284  1.00  0.00    -0.048 A 
ATOM      2  C   UNL     1     -13.783   2.885   3.556  1.00  0.00     0.006 A 
ATOM      3  C   UNL     1     -12.851   2.103   2.880  1.00  0.00     0.026 A 
ATOM      4  C   UNL     1     -11.498   2.448   2.838  1.00  0.00     0.038 A 
ATOM      5  C   UNL     1     -11.100   3.604   3.521  1.00  0.00     0.026 A 
ATOM      6  C   UNL     1     -12.029   4.375   4.236  1.00  0.00     0.006 A 
ENDROOT
BRANCH   1   7
ATOM      7  C   UNL     1     -14.364   4.802   5.102  1.00  0.00     0.037 C 
BRANCH   7   8
ATOM      8  C   UNL     1     -14.302   6.335   4.960  1.00  0.00     0.020 C 
BRANCH   8   9
ATOM      9  C   UNL     1     -15.543   7.107   5.433  1.00  0.00     0.078 C 
BRANCH   9  10
ATOM     10  N   UNL     1     -15.351   7.905   6.635  1.00  0.00    -0.330 NA
ATOM     11  H   UNL     1     -16.184   7.860   7.220  1.00  0.00     0.118 HD
ATOM     12  H   UNL     1     -15.241   8.889   6.390  1.00  0.00     0.118 HD
ENDBRANCH   9  10
ENDBRANCH   8   9
ENDBRANCH   7   8
ENDBRANCH   1   7
BRANCH   4  13
ATOM     13  N   UNL     1     -10.570   1.730   2.060  1.00  0.00    -0.362 N 
ATOM     14  H   UNL     1      -9.919   1.138   2.561  1.00  0.00     0.166 HD
BRANCH  13  15
ATOM     15  C   UNL     1     -10.314   1.963   0.735  1.00  0.00     0.083 C 
BRANCH  15  16
ATOM     16  C   UNL     1      -9.266   2.577   0.171  1.00  0.00     0.027 C 
BRANCH  16  17
ATOM     17  C   UNL     1      -7.891   2.296   0.612  1.00  0.00    -0.003 A 
ATOM     18  C   UNL     1      -7.084   1.324  -0.006  1.00  0.00    -0.041 A 
ATOM     19  C   UNL     1      -7.335   2.971   1.709  1.00  0.00     0.119 A 
ATOM     20  C   UNL     1      -5.792   1.104   0.494  1.00  0.00     0.024 A 
ATOM     21  N   UNL     1      -6.085   2.783   2.193  1.00  0.00    -0.264 NA
ATOM     22  C   UNL     1      -5.341   1.853   1.569  1.00  0.00     0.111 A 
ATOM     23  C   UNL     1      -7.570   0.489  -1.157  1.00  0.00     0.045 C 
ENDBRANCH  16  17
ENDBRANCH  15  16
ENDBRANCH  13  15
ENDBRANCH   4  13
TORSDOF 8
ENDMDL
