MODEL 1
REMARK VINA RESULT:    -5.067      0.000      0.000
REMARK INTER + INTRA:          -7.940
REMARK INTER:                  -7.289
REMARK INTRA:                  -0.652
REMARK UNBOUND:                -0.652
REMARK SMILES Cc1ccncc1/C=C/Nc1ccc(CCCN)cc1
REMARK SMILES IDX 14 1 13 2 12 3 11 4 20 5 19 6 15 7 16 8 17 9 18 10 10 13
REMARK SMILES IDX 9 15 8 16 7 17 2 18 6 19 3 20 5 21 4 22 1 23
REMARK H PARENT 18 11 18 12 10 14
ROOT
ATOM      1  C   UNL     1       3.596   7.191  13.407  1.00  0.00    -0.048 A 
ATOM      2  C   UNL     1       2.379   7.134  14.089  1.00  0.00     0.006 A 
ATOM      3  C   UNL     1       1.247   6.603  13.478  1.00  0.00     0.026 A 
ATOM      4  C   UNL     1       1.263   6.183  12.146  1.00  0.00     0.038 A 
ATOM      5  C   UNL     1       2.468   6.292  11.443  1.00  0.00     0.026 A 
ATOM      6  C   UNL     1       3.623   6.792  12.065  1.00  0.00     0.006 A 
ENDROOT
BRANCH   1   7
ATOM      7  C   UNL     1       4.852   7.671  14.090  1.00  0.00     0.037 C 
BRANCH   7   8
ATOM      8  C   UNL     1       5.480   8.971  13.552  1.00  0.00     0.020 C 
BRANCH   8   9
ATOM      9  C   UNL     1       4.945  10.277  14.155  1.00  0.00     0.078 C 
BRANCH   9  10
ATOM     10  N   UNL     1       4.122  11.077  13.259  1.00  0.00    -0.330 NA
ATOM     11  H   UNL     1       3.942  10.563  12.398  1.00  0.00     0.118 HD
ATOM     12  H   UNL     1       4.626  11.918  12.975  1.00  0.00     0.118 HD
ENDBRANCH   9  10
ENDBRANCH   8   9
ENDBRANCH   7   8
ENDBRANCH   1   7
BRANCH   4  13
ATOM     13  N   UNL     1       0.094   5.756  11.486  1.00  0.00    -0.362 N 
ATOM     14  H   UNL     1      -0.524   5.145  12.006  1.00  0.00     0.166 HD
BRANCH  13  15
ATOM     15  C   UNL     1      -0.138   5.887  10.142  1.00  0.00     0.083 C 
BRANCH  15  16
ATOM     16  C   UNL     1      -1.066   5.291   9.382  1.00  0.00     0.027 C 
BRANCH  16  17
ATOM     17  C   UNL     1      -0.960   5.284   7.915  1.00  0.00    -0.003 A 
ATOM     18  C   UNL     1      -1.468   4.237   7.127  1.00  0.00    -0.041 A 
ATOM     19  C   UNL     1      -0.304   6.322   7.237  1.00  0.00     0.119 A 
ATOM     20  C   UNL     1      -1.303   4.299   5.735  1.00  0.00     0.024 A 
ATOM     21  N   UNL     1      -0.151   6.407   5.894  1.00  0.00    -0.264 NA
ATOM     22  C   UNL     1      -0.659   5.391   5.174  1.00  0.00     0.111 A 
ATOM     23  C   UNL     1      -2.146   3.036   7.725  1.00  0.00     0.045 C 
ENDBRANCH  16  17
ENDBRANCH  15  16
ENDBRANCH  13  15
ENDBRANCH   4  13
TORSDOF 8
ENDMDL
MODEL 2
REMARK VINA RESULT:    -5.022      4.642      8.566
REMARK INTER + INTRA:          -7.876
REMARK INTER:                  -7.325
REMARK INTRA:                  -0.551
REMARK UNBOUND:                -0.652
REMARK SMILES Cc1ccncc1/C=C/Nc1ccc(CCCN)cc1
REMARK SMILES IDX 14 1 13 2 12 3 11 4 20 5 19 6 15 7 16 8 17 9 18 10 10 13
REMARK SMILES IDX 9 15 8 16 7 17 2 18 6 19 3 20 5 21 4 22 1 23
REMARK H PARENT 18 11 18 12 10 14
ROOT
ATOM      1  C   UNL     1      -0.441   5.166   6.648  1.00  0.00    -0.048 A 
ATOM      2  C   UNL     1      -0.123   6.524   6.705  1.00  0.00     0.006 A 
ATOM      3  C   UNL     1      -0.329   7.254   7.872  1.00  0.00     0.026 A 
ATOM      4  C   UNL     1      -0.928   6.682   8.997  1.00  0.00     0.038 A 
ATOM      5  C   UNL     1      -1.300   5.334   8.923  1.00  0.00     0.026 A 
ATOM      6  C   UNL     1      -1.060   4.584   7.762  1.00  0.00     0.006 A 
ENDROOT
BRANCH   1   7
ATOM      7  C   UNL     1      -0.130   4.342   5.424  1.00  0.00     0.037 C 
BRANCH   7   8
ATOM      8  C   UNL     1      -1.297   4.079   4.452  1.00  0.00     0.020 C 
BRANCH   8   9
ATOM      9  C   UNL     1      -1.913   5.319   3.788  1.00  0.00     0.078 C 
BRANCH   9  10
ATOM     10  N   UNL     1      -1.288   5.722   2.537  1.00  0.00    -0.330 NA
ATOM     11  H   UNL     1      -1.973   5.705   1.783  1.00  0.00     0.118 HD
ATOM     12  H   UNL     1      -0.570   5.047   2.269  1.00  0.00     0.118 HD
ENDBRANCH   9  10
ENDBRANCH   8   9
ENDBRANCH   7   8
ENDBRANCH   1   7
BRANCH   4  13
ATOM     13  N   UNL     1      -1.247   7.443  10.138  1.00  0.00    -0.362 N 
ATOM     14  H   UNL     1      -0.607   7.380  10.920  1.00  0.00     0.166 HD
BRANCH  13  15
ATOM     15  C   UNL     1      -2.458   8.041  10.366  1.00  0.00     0.083 C 
BRANCH  15  16
ATOM     16  C   UNL     1      -2.771   9.344  10.367  1.00  0.00     0.027 C 
BRANCH  16  17
ATOM     17  C   UNL     1      -3.802   9.879  11.269  1.00  0.00    -0.003 A 
ATOM     18  C   UNL     1      -3.554  10.948  12.148  1.00  0.00    -0.041 A 
ATOM     19  C   UNL     1      -5.084   9.310  11.315  1.00  0.00     0.119 A 
ATOM     20  C   UNL     1      -4.588  11.380  12.992  1.00  0.00     0.024 A 
ATOM     21  N   UNL     1      -6.098   9.726  12.109  1.00  0.00    -0.264 NA
ATOM     22  C   UNL     1      -5.824  10.756  12.928  1.00  0.00     0.111 A 
ATOM     23  C   UNL     1      -2.211  11.616  12.243  1.00  0.00     0.045 C 
ENDBRANCH  16  17
ENDBRANCH  15  16
ENDBRANCH  13  15
ENDBRANCH   4  13
TORSDOF 8
ENDMDL
MODEL 3
REMARK VINA RESULT:    -5.020      5.021      6.899
REMARK INTER + INTRA:          -7.873
REMARK INTER:                  -7.193
REMARK INTRA:                  -0.680
REMARK UNBOUND:                -0.652
REMARK SMILES Cc1ccncc1/C=C/Nc1ccc(CCCN)cc1
REMARK SMILES IDX 14 1 13 2 12 3 11 4 20 5 19 6 15 7 16 8 17 9 18 10 10 13
REMARK SMILES IDX 9 15 8 16 7 17 2 18 6 19 3 20 5 21 4 22 1 23
REMARK H PARENT 18 11 18 12 10 14
ROOT
ATOM      1  C   UNL     1      -4.863  10.297  12.095  1.00  0.00    -0.048 A 
ATOM      2  C   UNL     1      -5.232   9.277  11.215  1.00  0.00     0.006 A 
ATOM      3  C   UNL     1      -4.283   8.656  10.409  1.00  0.00     0.026 A 
ATOM      4  C   UNL     1      -2.951   9.076  10.390  1.00  0.00     0.038 A 
ATOM      5  C   UNL     1      -2.590  10.136  11.230  1.00  0.00     0.026 A 
ATOM      6  C   UNL     1      -3.535  10.741  12.073  1.00  0.00     0.006 A 
ENDROOT
BRANCH   1   7
ATOM      7  C   UNL     1      -5.862  10.908  13.045  1.00  0.00     0.037 C 
BRANCH   7   8
ATOM      8  C   UNL     1      -7.009   9.996  13.524  1.00  0.00     0.020 C 
BRANCH   8   9
ATOM      9  C   UNL     1      -6.847   9.390  14.925  1.00  0.00     0.078 C 
BRANCH   9  10
ATOM     10  N   UNL     1      -5.837   8.347  15.032  1.00  0.00    -0.330 NA
ATOM     11  H   UNL     1      -5.010   8.606  14.496  1.00  0.00     0.118 HD
ATOM     12  H   UNL     1      -6.178   7.483  14.609  1.00  0.00     0.118 HD
ENDBRANCH   9  10
ENDBRANCH   8   9
ENDBRANCH   7   8
ENDBRANCH   1   7
BRANCH   4  13
ATOM     13  N   UNL     1      -2.012   8.533   9.493  1.00  0.00    -0.362 N 
ATOM     14  H   UNL     1      -1.906   9.007   8.604  1.00  0.00     0.166 HD
BRANCH  13  15
ATOM     15  C   UNL     1      -1.433   7.297   9.617  1.00  0.00     0.083 C 
BRANCH  15  16
ATOM     16  C   UNL     1      -0.670   6.629   8.743  1.00  0.00     0.027 C 
BRANCH  16  17
ATOM     17  C   UNL     1      -1.074   5.311   8.230  1.00  0.00    -0.003 A 
ATOM     18  C   UNL     1      -0.873   4.928   6.892  1.00  0.00    -0.041 A 
ATOM     19  C   UNL     1      -1.720   4.383   9.061  1.00  0.00     0.119 A 
ATOM     20  C   UNL     1      -1.310   3.660   6.481  1.00  0.00     0.024 A 
ATOM     21  N   UNL     1      -2.133   3.150   8.685  1.00  0.00    -0.264 NA
ATOM     22  C   UNL     1      -1.914   2.817   7.401  1.00  0.00     0.111 A 
ATOM     23  C   UNL     1      -0.241   5.842   5.880  1.00  0.00     0.045 C 
ENDBRANCH  16  17
ENDBRANCH  15  16
ENDBRANCH  13  15
ENDBRANCH   4  13
TORSDOF 8
ENDMDL
MODEL 4
REMARK VINA RESULT:    -5.016      1.979      8.716
REMARK INTER + INTRA:          -7.866
REMARK INTER:                  -7.297
REMARK INTRA:                  -0.569
REMARK UNBOUND:                -0.652
REMARK SMILES Cc1ccncc1/C=C/Nc1ccc(CCCN)cc1
REMARK SMILES IDX 14 1 13 2 12 3 11 4 20 5 19 6 15 7 16 8 17 9 18 10 10 13
REMARK SMILES IDX 9 15 8 16 7 17 2 18 6 19 3 20 5 21 4 22 1 23
REMARK H PARENT 18 11 18 12 10 14
ROOT
ATOM      1  C   UNL     1      -1.336   5.379   7.190  1.00  0.00    -0.048 A 
ATOM      2  C   UNL     1      -1.549   4.582   8.317  1.00  0.00     0.006 A 
ATOM      3  C   UNL     1      -1.163   5.021   9.580  1.00  0.00     0.026 A 
ATOM      4  C   UNL     1      -0.483   6.229   9.760  1.00  0.00     0.038 A 
ATOM      5  C   UNL     1      -0.219   7.002   8.623  1.00  0.00     0.026 A 
ATOM      6  C   UNL     1      -0.640   6.582   7.352  1.00  0.00     0.006 A 
ENDROOT
BRANCH   1   7
ATOM      7  C   UNL     1      -1.840   4.960   5.832  1.00  0.00     0.037 C 
BRANCH   7   8
ATOM      8  C   UNL     1      -1.006   5.409   4.616  1.00  0.00     0.020 C 
BRANCH   8   9
ATOM      9  C   UNL     1      -1.798   5.747   3.344  1.00  0.00     0.078 C 
BRANCH   9  10
ATOM     10  N   UNL     1      -2.475   4.618   2.722  1.00  0.00    -0.330 NA
ATOM     11  H   UNL     1      -2.747   4.856   1.769  1.00  0.00     0.118 HD
ATOM     12  H   UNL     1      -3.347   4.417   3.213  1.00  0.00     0.118 HD
ENDBRANCH   9  10
ENDBRANCH   8   9
ENDBRANCH   7   8
ENDBRANCH   1   7
BRANCH   4  13
ATOM     13  N   UNL     1       0.015   6.623  11.016  1.00  0.00    -0.362 N 
ATOM     14  H   UNL     1      -0.247   7.545  11.340  1.00  0.00     0.166 HD
BRANCH  13  15
ATOM     15  C   UNL     1       1.011   5.977  11.700  1.00  0.00     0.083 C 
BRANCH  15  16
ATOM     16  C   UNL     1       2.130   6.480  12.239  1.00  0.00     0.027 C 
BRANCH  16  17
ATOM     17  C   UNL     1       2.205   6.812  13.670  1.00  0.00    -0.003 A 
ATOM     18  C   UNL     1       3.408   7.180  14.297  1.00  0.00    -0.041 A 
ATOM     19  C   UNL     1       1.066   6.738  14.486  1.00  0.00     0.119 A 
ATOM     20  C   UNL     1       3.394   7.457  15.672  1.00  0.00     0.024 A 
ATOM     21  N   UNL     1       1.031   7.019  15.810  1.00  0.00    -0.264 NA
ATOM     22  C   UNL     1       2.200   7.376  16.371  1.00  0.00     0.111 A 
ATOM     23  C   UNL     1       4.714   7.248  13.555  1.00  0.00     0.045 C 
ENDBRANCH  16  17
ENDBRANCH  15  16
ENDBRANCH  13  15
ENDBRANCH   4  13
TORSDOF 8
ENDMDL
MODEL 5
REMARK VINA RESULT:    -5.009      4.725      8.510
REMARK INTER + INTRA:          -7.857
REMARK INTER:                  -7.280
REMARK INTRA:                  -0.578
REMARK UNBOUND:                -0.652
REMARK SMILES Cc1ccncc1/C=C/Nc1ccc(CCCN)cc1
REMARK SMILES IDX 14 1 13 2 12 3 11 4 20 5 19 6 15 7 16 8 17 9 18 10 10 13
REMARK SMILES IDX 9 15 8 16 7 17 2 18 6 19 3 20 5 21 4 22 1 23
REMARK H PARENT 18 11 18 12 10 14
ROOT
ATOM      1  C   UNL     1      -0.625   4.704   7.548  1.00  0.00    -0.048 A 
ATOM      2  C   UNL     1      -0.401   6.048   7.243  1.00  0.00     0.006 A 
ATOM      3  C   UNL     1      -0.681   7.044   8.174  1.00  0.00     0.026 A 
ATOM      4  C   UNL     1      -1.264   6.749   9.409  1.00  0.00     0.038 A 
ATOM      5  C   UNL     1      -1.542   5.407   9.694  1.00  0.00     0.026 A 
ATOM      6  C   UNL     1      -1.226   4.395   8.774  1.00  0.00     0.006 A 
ENDROOT
BRANCH   1   7
ATOM      7  C   UNL     1      -0.232   3.610   6.587  1.00  0.00     0.037 C 
BRANCH   7   8
ATOM      8  C   UNL     1      -1.192   2.410   6.476  1.00  0.00     0.020 C 
BRANCH   8   9
ATOM      9  C   UNL     1      -0.543   1.020   6.542  1.00  0.00     0.078 C 
BRANCH   9  10
ATOM     10  N   UNL     1       0.088   0.576   5.307  1.00  0.00    -0.330 NA
ATOM     11  H   UNL     1      -0.065   1.263   4.570  1.00  0.00     0.118 HD
ATOM     12  H   UNL     1      -0.352  -0.283   4.976  1.00  0.00     0.118 HD
ENDBRANCH   9  10
ENDBRANCH   8   9
ENDBRANCH   7   8
ENDBRANCH   1   7
BRANCH   4  13
ATOM     13  N   UNL     1      -1.659   7.760  10.306  1.00  0.00    -0.362 N 
ATOM     14  H   UNL     1      -1.401   7.632  11.277  1.00  0.00     0.166 HD
BRANCH  13  15
ATOM     15  C   UNL     1      -2.566   8.747  10.023  1.00  0.00     0.083 C 
BRANCH  15  16
ATOM     16  C   UNL     1      -3.684   9.082  10.680  1.00  0.00     0.027 C 
BRANCH  16  17
ATOM     17  C   UNL     1      -3.716  10.236  11.591  1.00  0.00    -0.003 A 
ATOM     18  C   UNL     1      -4.833  10.534  12.391  1.00  0.00    -0.041 A 
ATOM     19  C   UNL     1      -2.629  11.119  11.672  1.00  0.00     0.119 A 
ATOM     20  C   UNL     1      -4.788  11.669  13.215  1.00  0.00     0.024 A 
ATOM     21  N   UNL     1      -2.563  12.208  12.474  1.00  0.00    -0.264 NA
ATOM     22  C   UNL     1      -3.647  12.454  13.230  1.00  0.00     0.111 A 
ATOM     23  C   UNL     1      -6.086   9.704  12.365  1.00  0.00     0.045 C 
ENDBRANCH  16  17
ENDBRANCH  15  16
ENDBRANCH  13  15
ENDBRANCH   4  13
TORSDOF 8
ENDMDL
MODEL 6
REMARK VINA RESULT:    -4.964      1.650      8.601
REMARK INTER + INTRA:          -7.792
REMARK INTER:                  -7.235
REMARK INTRA:                  -0.558
REMARK UNBOUND:                -0.652
REMARK SMILES Cc1ccncc1/C=C/Nc1ccc(CCCN)cc1
REMARK SMILES IDX 14 1 13 2 12 3 11 4 20 5 19 6 15 7 16 8 17 9 18 10 10 13
REMARK SMILES IDX 9 15 8 16 7 17 2 18 6 19 3 20 5 21 4 22 1 23
REMARK H PARENT 18 11 18 12 10 14
ROOT
ATOM      1  C   UNL     1      -1.467   5.196   7.054  1.00  0.00    -0.048 A 
ATOM      2  C   UNL     1      -1.605   4.465   8.235  1.00  0.00     0.006 A 
ATOM      3  C   UNL     1      -1.179   4.992   9.451  1.00  0.00     0.026 A 
ATOM      4  C   UNL     1      -0.531   6.227   9.527  1.00  0.00     0.038 A 
ATOM      5  C   UNL     1      -0.340   6.936   8.335  1.00  0.00     0.026 A 
ATOM      6  C   UNL     1      -0.802   6.427   7.112  1.00  0.00     0.006 A 
ENDROOT
BRANCH   1   7
ATOM      7  C   UNL     1      -2.015   4.679   5.747  1.00  0.00     0.037 C 
BRANCH   7   8
ATOM      8  C   UNL     1      -1.134   4.880   4.499  1.00  0.00     0.020 C 
BRANCH   8   9
ATOM      9  C   UNL     1      -1.775   5.657   3.340  1.00  0.00     0.078 C 
BRANCH   9  10
ATOM     10  N   UNL     1      -2.585   4.854   2.435  1.00  0.00    -0.330 NA
ATOM     11  H   UNL     1      -2.458   3.863   2.639  1.00  0.00     0.118 HD
ATOM     12  H   UNL     1      -2.265   4.978   1.474  1.00  0.00     0.118 HD
ENDBRANCH   9  10
ENDBRANCH   8   9
ENDBRANCH   7   8
ENDBRANCH   1   7
BRANCH   4  13
ATOM     13  N   UNL     1       0.009   6.712  10.733  1.00  0.00    -0.362 N 
ATOM     14  H   UNL     1      -0.428   7.536  11.128  1.00  0.00     0.166 HD
BRANCH  13  15
ATOM     15  C   UNL     1       1.209   6.323  11.266  1.00  0.00     0.083 C 
BRANCH  15  16
ATOM     16  C   UNL     1       1.507   5.996  12.531  1.00  0.00     0.027 C 
BRANCH  16  17
ATOM     17  C   UNL     1       2.553   6.713  13.277  1.00  0.00    -0.003 A 
ATOM     18  C   UNL     1       2.346   7.210  14.576  1.00  0.00    -0.041 A 
ATOM     19  C   UNL     1       3.805   6.965  12.697  1.00  0.00     0.119 A 
ATOM     20  C   UNL     1       3.391   7.903  15.206  1.00  0.00     0.024 A 
ATOM     21  N   UNL     1       4.829   7.616  13.297  1.00  0.00    -0.264 NA
ATOM     22  C   UNL     1       4.596   8.067  14.542  1.00  0.00     0.111 A 
ATOM     23  C   UNL     1       1.036   7.058  15.296  1.00  0.00     0.045 C 
ENDBRANCH  16  17
ENDBRANCH  15  16
ENDBRANCH  13  15
ENDBRANCH   4  13
TORSDOF 8
ENDMDL
MODEL 7
REMARK VINA RESULT:    -4.917      4.807      8.625
REMARK INTER + INTRA:          -7.724
REMARK INTER:                  -7.212
REMARK INTRA:                  -0.512
REMARK UNBOUND:                -0.652
REMARK SMILES Cc1ccncc1/C=C/Nc1ccc(CCCN)cc1
REMARK SMILES IDX 14 1 13 2 12 3 11 4 20 5 19 6 15 7 16 8 17 9 18 10 10 13
REMARK SMILES IDX 9 15 8 16 7 17 2 18 6 19 3 20 5 21 4 22 1 23
REMARK H PARENT 18 11 18 12 10 14
ROOT
ATOM      1  C   UNL     1      -0.566   4.890   7.308  1.00  0.00    -0.048 A 
ATOM      2  C   UNL     1      -0.344   6.263   7.178  1.00  0.00     0.006 A 
ATOM      3  C   UNL     1      -0.631   7.131   8.228  1.00  0.00     0.026 A 
ATOM      4  C   UNL     1      -1.218   6.680   9.412  1.00  0.00     0.038 A 
ATOM      5  C   UNL     1      -1.494   5.312   9.522  1.00  0.00     0.026 A 
ATOM      6  C   UNL     1      -1.172   4.426   8.482  1.00  0.00     0.006 A 
ENDROOT
BRANCH   1   7
ATOM      7  C   UNL     1      -0.166   3.928   6.218  1.00  0.00     0.037 C 
BRANCH   7   8
ATOM      8  C   UNL     1      -1.017   2.652   6.075  1.00  0.00     0.020 C 
BRANCH   8   9
ATOM      9  C   UNL     1      -0.326   1.335   6.456  1.00  0.00     0.078 C 
BRANCH   9  10
ATOM     10  N   UNL     1      -1.125   0.136   6.244  1.00  0.00    -0.330 NA
ATOM     11  H   UNL     1      -0.614  -0.525   5.660  1.00  0.00     0.118 HD
ATOM     12  H   UNL     1      -1.971   0.366   5.721  1.00  0.00     0.118 HD
ENDBRANCH   9  10
ENDBRANCH   8   9
ENDBRANCH   7   8
ENDBRANCH   1   7
BRANCH   4  13
ATOM     13  N   UNL     1      -1.620   7.567  10.429  1.00  0.00    -0.362 N 
ATOM     14  H   UNL     1      -1.276   7.375  11.361  1.00  0.00     0.166 HD
BRANCH  13  15
ATOM     15  C   UNL     1      -2.622   8.493  10.309  1.00  0.00     0.083 C 
BRANCH  15  16
ATOM     16  C   UNL     1      -2.684   9.740  10.793  1.00  0.00     0.027 C 
BRANCH  16  17
ATOM     17  C   UNL     1      -3.868  10.217  11.523  1.00  0.00    -0.003 A 
ATOM     18  C   UNL     1      -3.854  11.390  12.299  1.00  0.00    -0.041 A 
ATOM     19  C   UNL     1      -5.066   9.488  11.505  1.00  0.00     0.119 A 
ATOM     20  C   UNL     1      -5.022  11.759  12.983  1.00  0.00     0.024 A 
ATOM     21  N   UNL     1      -6.207   9.839  12.145  1.00  0.00    -0.264 NA
ATOM     22  C   UNL     1      -6.156  10.971  12.868  1.00  0.00     0.111 A 
ATOM     23  C   UNL     1      -2.623  12.239  12.452  1.00  0.00     0.045 C 
ENDBRANCH  16  17
ENDBRANCH  15  16
ENDBRANCH  13  15
ENDBRANCH   4  13
TORSDOF 8
ENDMDL
MODEL 8
REMARK VINA RESULT:    -4.871      1.266      1.836
REMARK INTER + INTRA:          -7.659
REMARK INTER:                  -7.033
REMARK INTRA:                  -0.626
REMARK UNBOUND:                -0.652
REMARK SMILES Cc1ccncc1/C=C/Nc1ccc(CCCN)cc1
REMARK SMILES IDX 14 1 13 2 12 3 11 4 20 5 19 6 15 7 16 8 17 9 18 10 10 13
REMARK SMILES IDX 9 15 8 16 7 17 2 18 6 19 3 20 5 21 4 22 1 23
REMARK H PARENT 18 11 18 12 10 14
ROOT
ATOM      1  C   UNL     1       3.406   7.215  13.567  1.00  0.00    -0.048 A 
ATOM      2  C   UNL     1       2.103   7.167  14.066  1.00  0.00     0.006 A 
ATOM      3  C   UNL     1       1.077   6.596  13.320  1.00  0.00     0.026 A 
ATOM      4  C   UNL     1       1.291   6.122  12.023  1.00  0.00     0.038 A 
ATOM      5  C   UNL     1       2.585   6.221  11.499  1.00  0.00     0.026 A 
ATOM      6  C   UNL     1       3.632   6.761  12.262  1.00  0.00     0.006 A 
ENDROOT
BRANCH   1   7
ATOM      7  C   UNL     1       4.545   7.739  14.406  1.00  0.00     0.037 C 
BRANCH   7   8
ATOM      8  C   UNL     1       5.688   8.449  13.654  1.00  0.00     0.020 C 
BRANCH   8   9
ATOM      9  C   UNL     1       5.653   9.984  13.672  1.00  0.00     0.078 C 
BRANCH   9  10
ATOM     10  N   UNL     1       4.450  10.580  13.109  1.00  0.00    -0.330 NA
ATOM     11  H   UNL     1       3.928   9.880  12.584  1.00  0.00     0.118 HD
ATOM     12  H   UNL     1       4.698  11.301  12.432  1.00  0.00     0.118 HD
ENDBRANCH   9  10
ENDBRANCH   8   9
ENDBRANCH   7   8
ENDBRANCH   1   7
BRANCH   4  13
ATOM     13  N   UNL     1       0.235   5.652  11.218  1.00  0.00    -0.362 N 
ATOM     14  H   UNL     1       0.133   4.648  11.144  1.00  0.00     0.166 HD
BRANCH  13  15
ATOM     15  C   UNL     1      -0.484   6.423  10.343  1.00  0.00     0.083 C 
BRANCH  15  16
ATOM     16  C   UNL     1      -0.574   6.328   9.010  1.00  0.00     0.027 C 
BRANCH  16  17
ATOM     17  C   UNL     1      -1.081   5.107   8.365  1.00  0.00    -0.003 A 
ATOM     18  C   UNL     1      -0.953   4.873   6.985  1.00  0.00    -0.041 A 
ATOM     19  C   UNL     1      -1.757   4.128   9.109  1.00  0.00     0.119 A 
ATOM     20  C   UNL     1      -1.487   3.692   6.448  1.00  0.00     0.024 A 
ATOM     21  N   UNL     1      -2.263   2.975   8.611  1.00  0.00    -0.264 NA
ATOM     22  C   UNL     1      -2.111   2.784   7.289  1.00  0.00     0.111 A 
ATOM     23  C   UNL     1      -0.299   5.861   6.060  1.00  0.00     0.045 C 
ENDBRANCH  16  17
ENDBRANCH  15  16
ENDBRANCH  13  15
ENDBRANCH   4  13
TORSDOF 8
ENDMDL
MODEL 9
REMARK VINA RESULT:    -4.743      4.700      6.464
REMARK INTER + INTRA:          -7.474
REMARK INTER:                  -6.860
REMARK INTRA:                  -0.614
REMARK UNBOUND:                -0.652
REMARK SMILES Cc1ccncc1/C=C/Nc1ccc(CCCN)cc1
REMARK SMILES IDX 14 1 13 2 12 3 11 4 20 5 19 6 15 7 16 8 17 9 18 10 10 13
REMARK SMILES IDX 9 15 8 16 7 17 2 18 6 19 3 20 5 21 4 22 1 23
REMARK H PARENT 18 11 18 12 10 14
ROOT
ATOM      1  C   UNL     1      -4.575   9.991  11.717  1.00  0.00    -0.048 A 
ATOM      2  C   UNL     1      -3.225  10.339  11.788  1.00  0.00     0.006 A 
ATOM      3  C   UNL     1      -2.285   9.708  10.979  1.00  0.00     0.026 A 
ATOM      4  C   UNL     1      -2.638   8.657  10.129  1.00  0.00     0.038 A 
ATOM      5  C   UNL     1      -3.983   8.268  10.099  1.00  0.00     0.026 A 
ATOM      6  C   UNL     1      -4.941   8.927  10.884  1.00  0.00     0.006 A 
ENDROOT
BRANCH   1   7
ATOM      7  C   UNL     1      -5.616  10.736  12.514  1.00  0.00     0.037 C 
BRANCH   7   8
ATOM      8  C   UNL     1      -6.704   9.885  13.198  1.00  0.00     0.020 C 
BRANCH   8   9
ATOM      9  C   UNL     1      -6.515   9.631  14.700  1.00  0.00     0.078 C 
BRANCH   9  10
ATOM     10  N   UNL     1      -5.765   8.428  15.031  1.00  0.00    -0.330 NA
ATOM     11  H   UNL     1      -5.160   8.168  14.252  1.00  0.00     0.118 HD
ATOM     12  H   UNL     1      -6.401   7.640  15.157  1.00  0.00     0.118 HD
ENDBRANCH   9  10
ENDBRANCH   8   9
ENDBRANCH   7   8
ENDBRANCH   1   7
BRANCH   4  13
ATOM     13  N   UNL     1      -1.676   7.935   9.397  1.00  0.00    -0.362 N 
ATOM     14  H   UNL     1      -1.137   8.457   8.718  1.00  0.00     0.166 HD
BRANCH  13  15
ATOM     15  C   UNL     1      -1.593   6.569   9.349  1.00  0.00     0.083 C 
BRANCH  15  16
ATOM     16  C   UNL     1      -0.709   5.798   8.701  1.00  0.00     0.027 C 
BRANCH  16  17
ATOM     17  C   UNL     1      -0.881   5.475   7.276  1.00  0.00    -0.003 A 
ATOM     18  C   UNL     1      -1.521   4.301   6.841  1.00  0.00    -0.041 A 
ATOM     19  C   UNL     1      -0.370   6.321   6.280  1.00  0.00     0.119 A 
ATOM     20  C   UNL     1      -1.620   4.059   5.462  1.00  0.00     0.024 A 
ATOM     21  N   UNL     1      -0.473   6.112   4.946  1.00  0.00    -0.264 NA
ATOM     22  C   UNL     1      -1.100   4.983   4.570  1.00  0.00     0.111 A 
ATOM     23  C   UNL     1      -2.067   3.280   7.799  1.00  0.00     0.045 C 
ENDBRANCH  16  17
ENDBRANCH  15  16
ENDBRANCH  13  15
ENDBRANCH   4  13
TORSDOF 8
ENDMDL
