MODEL 1
REMARK VINA RESULT:    -5.181      0.000      0.000
REMARK INTER + INTRA:          -8.052
REMARK INTER:                  -7.453
REMARK INTRA:                  -0.599
REMARK UNBOUND:                -0.599
REMARK SMILES Cc1ccncc1/C=C/Nc1ccc(CCCN)cc1
REMARK SMILES IDX 14 1 13 2 12 3 11 4 20 5 19 6 15 7 16 8 17 9 18 10 10 13
REMARK SMILES IDX 9 15 8 16 7 17 2 18 6 19 3 20 5 21 4 22 1 23
REMARK H PARENT 18 11 18 12 10 14
ROOT
ATOM      1  C   UNL     1      -7.987   6.205  -1.207  1.00  0.00    -0.048 A 
ATOM      2  C   UNL     1      -7.445   7.354  -1.786  1.00  0.00     0.006 A 
ATOM      3  C   UNL     1      -8.248   8.231  -2.510  1.00  0.00     0.026 A 
ATOM      4  C   UNL     1      -9.597   7.959  -2.751  1.00  0.00     0.038 A 
ATOM      5  C   UNL     1     -10.129   6.778  -2.219  1.00  0.00     0.026 A 
ATOM      6  C   UNL     1      -9.333   5.910  -1.456  1.00  0.00     0.006 A 
ENDROOT
BRANCH   1   7
ATOM      7  C   UNL     1      -7.150   5.301  -0.337  1.00  0.00     0.037 C 
BRANCH   7   8
ATOM      8  C   UNL     1      -7.647   3.852  -0.166  1.00  0.00     0.020 C 
BRANCH   8   9
ATOM      9  C   UNL     1      -7.305   3.176   1.170  1.00  0.00     0.078 C 
BRANCH   9  10
ATOM     10  N   UNL     1      -7.297   1.721   1.139  1.00  0.00    -0.330 NA
ATOM     11  H   UNL     1      -6.408   1.369   1.491  1.00  0.00     0.118 HD
ATOM     12  H   UNL     1      -7.361   1.389   0.176  1.00  0.00     0.118 HD
ENDBRANCH   9  10
ENDBRANCH   8   9
ENDBRANCH   7   8
ENDBRANCH   1   7
BRANCH   4  13
ATOM     13  N   UNL     1     -10.385   8.780  -3.581  1.00  0.00    -0.362 N 
ATOM     14  H   UNL     1     -11.222   9.173  -3.168  1.00  0.00     0.166 HD
BRANCH  13  15
ATOM     15  C   UNL     1     -10.253   8.874  -4.941  1.00  0.00     0.083 C 
BRANCH  15  16
ATOM     16  C   UNL     1     -10.999   8.315  -5.903  1.00  0.00     0.027 C 
BRANCH  16  17
ATOM     17  C   UNL     1     -11.856   9.134  -6.775  1.00  0.00    -0.003 A 
ATOM     18  C   UNL     1     -12.914   8.587  -7.521  1.00  0.00    -0.041 A 
ATOM     19  C   UNL     1     -11.623  10.509  -6.926  1.00  0.00     0.119 A 
ATOM     20  C   UNL     1     -13.667   9.436  -8.346  1.00  0.00     0.024 A 
ATOM     21  N   UNL     1     -12.350  11.346  -7.703  1.00  0.00    -0.264 NA
ATOM     22  C   UNL     1     -13.359  10.787  -8.394  1.00  0.00     0.111 A 
ATOM     23  C   UNL     1     -13.242   7.120  -7.496  1.00  0.00     0.045 C 
ENDBRANCH  16  17
ENDBRANCH  15  16
ENDBRANCH  13  15
ENDBRANCH   4  13
TORSDOF 8
ENDMDL
MODEL 2
REMARK VINA RESULT:    -5.159      4.843      8.390
REMARK INTER + INTRA:          -8.019
REMARK INTER:                  -7.310
REMARK INTRA:                  -0.709
REMARK UNBOUND:                -0.599
REMARK SMILES Cc1ccncc1/C=C/Nc1ccc(CCCN)cc1
REMARK SMILES IDX 14 1 13 2 12 3 11 4 20 5 19 6 15 7 16 8 17 9 18 10 10 13
REMARK SMILES IDX 9 15 8 16 7 17 2 18 6 19 3 20 5 21 4 22 1 23
REMARK H PARENT 18 11 18 12 10 14
ROOT
ATOM      1  C   UNL     1     -12.208  11.813   1.572  1.00  0.00    -0.048 A 
ATOM      2  C   UNL     1     -10.980  11.202   1.836  1.00  0.00     0.006 A 
ATOM      3  C   UNL     1     -10.590  10.062   1.140  1.00  0.00     0.026 A 
ATOM      4  C   UNL     1     -11.435   9.443   0.216  1.00  0.00     0.038 A 
ATOM      5  C   UNL     1     -12.690  10.021  -0.009  1.00  0.00     0.026 A 
ATOM      6  C   UNL     1     -13.073  11.193   0.662  1.00  0.00     0.006 A 
ENDROOT
BRANCH   1   7
ATOM      7  C   UNL     1     -12.599  13.104   2.245  1.00  0.00     0.037 C 
BRANCH   7   8
ATOM      8  C   UNL     1     -11.470  14.123   2.496  1.00  0.00     0.020 C 
BRANCH   8   9
ATOM      9  C   UNL     1     -11.384  15.291   1.503  1.00  0.00     0.078 C 
BRANCH   9  10
ATOM     10  N   UNL     1     -10.869  14.942   0.186  1.00  0.00    -0.330 NA
ATOM     11  H   UNL     1     -11.631  14.908  -0.489  1.00  0.00     0.118 HD
ATOM     12  H   UNL     1     -10.474  14.002   0.201  1.00  0.00     0.118 HD
ENDBRANCH   9  10
ENDBRANCH   8   9
ENDBRANCH   7   8
ENDBRANCH   1   7
BRANCH   4  13
ATOM     13  N   UNL     1     -11.096   8.224  -0.403  1.00  0.00    -0.362 N 
ATOM     14  H   UNL     1     -11.403   7.378   0.060  1.00  0.00     0.166 HD
BRANCH  13  15
ATOM     15  C   UNL     1     -10.184   8.088  -1.417  1.00  0.00     0.083 C 
BRANCH  15  16
ATOM     16  C   UNL     1      -9.558   6.986  -1.849  1.00  0.00     0.027 C 
BRANCH  16  17
ATOM     17  C   UNL     1      -8.102   6.834  -1.713  1.00  0.00    -0.003 A 
ATOM     18  C   UNL     1      -7.498   5.605  -1.393  1.00  0.00    -0.041 A 
ATOM     19  C   UNL     1      -7.246   7.936  -1.863  1.00  0.00     0.119 A 
ATOM     20  C   UNL     1      -6.102   5.555  -1.259  1.00  0.00     0.024 A 
ATOM     21  N   UNL     1      -5.897   7.901  -1.755  1.00  0.00    -0.264 NA
ATOM     22  C   UNL     1      -5.357   6.706  -1.458  1.00  0.00     0.111 A 
ATOM     23  C   UNL     1      -8.296   4.355  -1.151  1.00  0.00     0.045 C 
ENDBRANCH  16  17
ENDBRANCH  15  16
ENDBRANCH  13  15
ENDBRANCH   4  13
TORSDOF 8
ENDMDL
MODEL 3
REMARK VINA RESULT:    -5.156      4.495      5.924
REMARK INTER + INTRA:          -8.016
REMARK INTER:                  -7.403
REMARK INTRA:                  -0.613
REMARK UNBOUND:                -0.599
REMARK SMILES Cc1ccncc1/C=C/Nc1ccc(CCCN)cc1
REMARK SMILES IDX 14 1 13 2 12 3 11 4 20 5 19 6 15 7 16 8 17 9 18 10 10 13
REMARK SMILES IDX 9 15 8 16 7 17 2 18 6 19 3 20 5 21 4 22 1 23
REMARK H PARENT 18 11 18 12 10 14
ROOT
ATOM      1  C   UNL     1      -7.966   4.982  -1.510  1.00  0.00    -0.048 A 
ATOM      2  C   UNL     1      -9.348   4.875  -1.342  1.00  0.00     0.006 A 
ATOM      3  C   UNL     1     -10.165   5.997  -1.446  1.00  0.00     0.026 A 
ATOM      4  C   UNL     1      -9.633   7.274  -1.643  1.00  0.00     0.038 A 
ATOM      5  C   UNL     1      -8.242   7.390  -1.755  1.00  0.00     0.026 A 
ATOM      6  C   UNL     1      -7.417   6.257  -1.689  1.00  0.00     0.006 A 
ENDROOT
BRANCH   1   7
ATOM      7  C   UNL     1      -7.082   3.759  -1.500  1.00  0.00     0.037 C 
BRANCH   7   8
ATOM      8  C   UNL     1      -6.204   3.551  -0.251  1.00  0.00     0.020 C 
BRANCH   8   9
ATOM      9  C   UNL     1      -6.951   3.217   1.049  1.00  0.00     0.078 C 
BRANCH   9  10
ATOM     10  N   UNL     1      -7.326   1.819   1.201  1.00  0.00    -0.330 NA
ATOM     11  H   UNL     1      -7.972   1.714   1.983  1.00  0.00     0.118 HD
ATOM     12  H   UNL     1      -6.509   1.260   1.446  1.00  0.00     0.118 HD
ENDBRANCH   9  10
ENDBRANCH   8   9
ENDBRANCH   7   8
ENDBRANCH   1   7
BRANCH   4  13
ATOM     13  N   UNL     1     -10.441   8.427  -1.630  1.00  0.00    -0.362 N 
ATOM     14  H   UNL     1     -10.698   8.812  -2.531  1.00  0.00     0.166 HD
BRANCH  13  15
ATOM     15  C   UNL     1     -10.684   9.200  -0.526  1.00  0.00     0.083 C 
BRANCH  15  16
ATOM     16  C   UNL     1     -11.819   9.345   0.172  1.00  0.00     0.027 C 
BRANCH  16  17
ATOM     17  C   UNL     1     -12.135  10.606   0.858  1.00  0.00    -0.003 A 
ATOM     18  C   UNL     1     -13.374  11.255   0.710  1.00  0.00    -0.041 A 
ATOM     19  C   UNL     1     -11.185  11.241   1.672  1.00  0.00     0.119 A 
ATOM     20  C   UNL     1     -13.584  12.469   1.383  1.00  0.00     0.024 A 
ATOM     21  N   UNL     1     -11.377  12.402   2.341  1.00  0.00    -0.264 NA
ATOM     22  C   UNL     1     -12.577  12.987   2.182  1.00  0.00     0.111 A 
ATOM     23  C   UNL     1     -14.464  10.716  -0.172  1.00  0.00     0.045 C 
ENDBRANCH  16  17
ENDBRANCH  15  16
ENDBRANCH  13  15
ENDBRANCH   4  13
TORSDOF 8
ENDMDL
MODEL 4
REMARK VINA RESULT:    -5.147      2.118      2.704
REMARK INTER + INTRA:          -8.002
REMARK INTER:                  -7.433
REMARK INTRA:                  -0.569
REMARK UNBOUND:                -0.599
REMARK SMILES Cc1ccncc1/C=C/Nc1ccc(CCCN)cc1
REMARK SMILES IDX 14 1 13 2 12 3 11 4 20 5 19 6 15 7 16 8 17 9 18 10 10 13
REMARK SMILES IDX 9 15 8 16 7 17 2 18 6 19 3 20 5 21 4 22 1 23
REMARK H PARENT 18 11 18 12 10 14
ROOT
ATOM      1  C   UNL     1      -6.749   6.203  -1.169  1.00  0.00    -0.048 A 
ATOM      2  C   UNL     1      -6.530   7.480  -1.689  1.00  0.00     0.006 A 
ATOM      3  C   UNL     1      -7.589   8.236  -2.183  1.00  0.00     0.026 A 
ATOM      4  C   UNL     1      -8.887   7.723  -2.250  1.00  0.00     0.038 A 
ATOM      5  C   UNL     1      -9.097   6.421  -1.781  1.00  0.00     0.026 A 
ATOM      6  C   UNL     1      -8.041   5.668  -1.246  1.00  0.00     0.006 A 
ENDROOT
BRANCH   1   7
ATOM      7  C   UNL     1      -5.628   5.414  -0.539  1.00  0.00     0.037 C 
BRANCH   7   8
ATOM      8  C   UNL     1      -5.023   4.276  -1.384  1.00  0.00     0.020 C 
BRANCH   8   9
ATOM      9  C   UNL     1      -4.344   4.698  -2.695  1.00  0.00     0.078 C 
BRANCH   9  10
ATOM     10  N   UNL     1      -2.937   5.052  -2.573  1.00  0.00    -0.330 NA
ATOM     11  H   UNL     1      -2.589   5.408  -3.463  1.00  0.00     0.118 HD
ATOM     12  H   UNL     1      -2.381   4.220  -2.375  1.00  0.00     0.118 HD
ENDBRANCH   9  10
ENDBRANCH   8   9
ENDBRANCH   7   8
ENDBRANCH   1   7
BRANCH   4  13
ATOM     13  N   UNL     1      -9.939   8.436  -2.857  1.00  0.00    -0.362 N 
ATOM     14  H   UNL     1     -10.588   8.903  -2.236  1.00  0.00     0.166 HD
BRANCH  13  15
ATOM     15  C   UNL     1     -10.293   8.335  -4.176  1.00  0.00     0.083 C 
BRANCH  15  16
ATOM     16  C   UNL     1     -10.238   9.264  -5.140  1.00  0.00     0.027 C 
BRANCH  16  17
ATOM     17  C   UNL     1     -11.249   9.315  -6.207  1.00  0.00    -0.003 A 
ATOM     18  C   UNL     1     -11.882  10.511  -6.590  1.00  0.00    -0.041 A 
ATOM     19  C   UNL     1     -11.654   8.147  -6.870  1.00  0.00     0.119 A 
ATOM     20  C   UNL     1     -12.852  10.465  -7.603  1.00  0.00     0.024 A 
ATOM     21  N   UNL     1     -12.575   8.088  -7.860  1.00  0.00    -0.264 NA
ATOM     22  C   UNL     1     -13.151   9.253  -8.205  1.00  0.00     0.111 A 
ATOM     23  C   UNL     1     -11.584  11.827  -5.929  1.00  0.00     0.045 C 
ENDBRANCH  16  17
ENDBRANCH  15  16
ENDBRANCH  13  15
ENDBRANCH   4  13
TORSDOF 8
ENDMDL
MODEL 5
REMARK VINA RESULT:    -5.096      4.890      6.619
REMARK INTER + INTRA:          -7.929
REMARK INTER:                  -7.345
REMARK INTRA:                  -0.585
REMARK UNBOUND:                -0.599
REMARK SMILES Cc1ccncc1/C=C/Nc1ccc(CCCN)cc1
REMARK SMILES IDX 14 1 13 2 12 3 11 4 20 5 19 6 15 7 16 8 17 9 18 10 10 13
REMARK SMILES IDX 9 15 8 16 7 17 2 18 6 19 3 20 5 21 4 22 1 23
REMARK H PARENT 18 11 18 12 10 14
ROOT
ATOM      1  C   UNL     1      -7.885   6.183  -1.943  1.00  0.00    -0.048 A 
ATOM      2  C   UNL     1      -7.602   7.543  -2.086  1.00  0.00     0.006 A 
ATOM      3  C   UNL     1      -8.543   8.506  -1.734  1.00  0.00     0.026 A 
ATOM      4  C   UNL     1      -9.824   8.153  -1.301  1.00  0.00     0.038 A 
ATOM      5  C   UNL     1     -10.129   6.790  -1.210  1.00  0.00     0.026 A 
ATOM      6  C   UNL     1      -9.171   5.815  -1.528  1.00  0.00     0.006 A 
ENDROOT
BRANCH   1   7
ATOM      7  C   UNL     1      -6.840   5.134  -2.225  1.00  0.00     0.037 C 
BRANCH   7   8
ATOM      8  C   UNL     1      -5.374   5.530  -1.963  1.00  0.00     0.020 C 
BRANCH   8   9
ATOM      9  C   UNL     1      -4.308   4.604  -2.567  1.00  0.00     0.078 C 
BRANCH   9  10
ATOM     10  N   UNL     1      -2.963   5.160  -2.612  1.00  0.00    -0.330 NA
ATOM     11  H   UNL     1      -2.978   6.073  -3.064  1.00  0.00     0.118 HD
ATOM     12  H   UNL     1      -2.360   4.577  -3.193  1.00  0.00     0.118 HD
ENDBRANCH   9  10
ENDBRANCH   8   9
ENDBRANCH   7   8
ENDBRANCH   1   7
BRANCH   4  13
ATOM     13  N   UNL     1     -10.819   9.119  -1.056  1.00  0.00    -0.362 N 
ATOM     14  H   UNL     1     -10.962   9.816  -1.777  1.00  0.00     0.166 HD
BRANCH  13  15
ATOM     15  C   UNL     1     -11.413   9.341   0.158  1.00  0.00     0.083 C 
BRANCH  15  16
ATOM     16  C   UNL     1     -11.153  10.291   1.066  1.00  0.00     0.027 C 
BRANCH  16  17
ATOM     17  C   UNL     1     -12.099  11.390   1.311  1.00  0.00    -0.003 A 
ATOM     18  C   UNL     1     -11.682  12.659   1.750  1.00  0.00    -0.041 A 
ATOM     19  C   UNL     1     -13.479  11.201   1.150  1.00  0.00     0.119 A 
ATOM     20  C   UNL     1     -12.654  13.644   1.983  1.00  0.00     0.024 A 
ATOM     21  N   UNL     1     -14.429  12.144   1.353  1.00  0.00    -0.264 NA
ATOM     22  C   UNL     1     -13.990  13.348   1.763  1.00  0.00     0.111 A 
ATOM     23  C   UNL     1     -10.240  12.986   2.016  1.00  0.00     0.045 C 
ENDBRANCH  16  17
ENDBRANCH  15  16
ENDBRANCH  13  15
ENDBRANCH   4  13
TORSDOF 8
ENDMDL
MODEL 6
REMARK VINA RESULT:    -5.096      1.137      1.774
REMARK INTER + INTRA:          -7.929
REMARK INTER:                  -7.371
REMARK INTRA:                  -0.558
REMARK UNBOUND:                -0.599
REMARK SMILES Cc1ccncc1/C=C/Nc1ccc(CCCN)cc1
REMARK SMILES IDX 14 1 13 2 12 3 11 4 20 5 19 6 15 7 16 8 17 9 18 10 10 13
REMARK SMILES IDX 9 15 8 16 7 17 2 18 6 19 3 20 5 21 4 22 1 23
REMARK H PARENT 18 11 18 12 10 14
ROOT
ATOM      1  C   UNL     1      -7.507   5.818  -0.902  1.00  0.00    -0.048 A 
ATOM      2  C   UNL     1      -6.942   6.938  -1.516  1.00  0.00     0.006 A 
ATOM      3  C   UNL     1      -7.743   7.870  -2.168  1.00  0.00     0.026 A 
ATOM      4  C   UNL     1      -9.121   7.685  -2.302  1.00  0.00     0.038 A 
ATOM      5  C   UNL     1      -9.682   6.534  -1.737  1.00  0.00     0.026 A 
ATOM      6  C   UNL     1      -8.884   5.609  -1.045  1.00  0.00     0.006 A 
ENDROOT
BRANCH   1   7
ATOM      7  C   UNL     1      -6.662   4.854  -0.107  1.00  0.00     0.037 C 
BRANCH   7   8
ATOM      8  C   UNL     1      -7.111   3.380  -0.104  1.00  0.00     0.020 C 
BRANCH   8   9
ATOM      9  C   UNL     1      -7.275   2.728   1.277  1.00  0.00     0.078 C 
BRANCH   9  10
ATOM     10  N   UNL     1      -6.031   2.468   1.986  1.00  0.00    -0.330 NA
ATOM     11  H   UNL     1      -5.404   1.917   1.400  1.00  0.00     0.118 HD
ATOM     12  H   UNL     1      -6.209   1.893   2.810  1.00  0.00     0.118 HD
ENDBRANCH   9  10
ENDBRANCH   8   9
ENDBRANCH   7   8
ENDBRANCH   1   7
BRANCH   4  13
ATOM     13  N   UNL     1      -9.920   8.562  -3.062  1.00  0.00    -0.362 N 
ATOM     14  H   UNL     1     -10.387   9.304  -2.556  1.00  0.00     0.166 HD
BRANCH  13  15
ATOM     15  C   UNL     1     -10.312   8.340  -4.355  1.00  0.00     0.083 C 
BRANCH  15  16
ATOM     16  C   UNL     1     -10.235   9.158  -5.414  1.00  0.00     0.027 C 
BRANCH  16  17
ATOM     17  C   UNL     1     -11.338   9.256  -6.382  1.00  0.00    -0.003 A 
ATOM     18  C   UNL     1     -11.963  10.477  -6.691  1.00  0.00    -0.041 A 
ATOM     19  C   UNL     1     -11.842   8.111  -7.017  1.00  0.00     0.119 A 
ATOM     20  C   UNL     1     -13.025  10.477  -7.609  1.00  0.00     0.024 A 
ATOM     21  N   UNL     1     -12.853   8.096  -7.917  1.00  0.00    -0.264 NA
ATOM     22  C   UNL     1     -13.419   9.284  -8.194  1.00  0.00     0.111 A 
ATOM     23  C   UNL     1     -11.561  11.773  -6.046  1.00  0.00     0.045 C 
ENDBRANCH  16  17
ENDBRANCH  15  16
ENDBRANCH  13  15
ENDBRANCH   4  13
TORSDOF 8
ENDMDL
MODEL 7
REMARK VINA RESULT:    -5.032      5.041      8.595
REMARK INTER + INTRA:          -7.837
REMARK INTER:                  -7.164
REMARK INTRA:                  -0.673
REMARK UNBOUND:                -0.599
REMARK SMILES Cc1ccncc1/C=C/Nc1ccc(CCCN)cc1
REMARK SMILES IDX 14 1 13 2 12 3 11 4 20 5 19 6 15 7 16 8 17 9 18 10 10 13
REMARK SMILES IDX 9 15 8 16 7 17 2 18 6 19 3 20 5 21 4 22 1 23
REMARK H PARENT 18 11 18 12 10 14
ROOT
ATOM      1  C   UNL     1     -12.456  12.151   1.764  1.00  0.00    -0.048 A 
ATOM      2  C   UNL     1     -13.315  11.567   0.832  1.00  0.00     0.006 A 
ATOM      3  C   UNL     1     -12.960  10.391   0.177  1.00  0.00     0.026 A 
ATOM      4  C   UNL     1     -11.710   9.797   0.366  1.00  0.00     0.038 A 
ATOM      5  C   UNL     1     -10.825  10.413   1.259  1.00  0.00     0.026 A 
ATOM      6  C   UNL     1     -11.192  11.578   1.950  1.00  0.00     0.006 A 
ENDROOT
BRANCH   1   7
ATOM      7  C   UNL     1     -12.871  13.368   2.553  1.00  0.00     0.037 C 
BRANCH   7   8
ATOM      8  C   UNL     1     -11.843  14.511   2.654  1.00  0.00     0.020 C 
BRANCH   8   9
ATOM      9  C   UNL     1     -11.732  15.428   1.427  1.00  0.00     0.078 C 
BRANCH   9  10
ATOM     10  N   UNL     1     -10.865  14.934   0.366  1.00  0.00    -0.330 NA
ATOM     11  H   UNL     1     -10.598  15.700  -0.250  1.00  0.00     0.118 HD
ATOM     12  H   UNL     1     -11.372  14.273  -0.223  1.00  0.00     0.118 HD
ENDBRANCH   9  10
ENDBRANCH   8   9
ENDBRANCH   7   8
ENDBRANCH   1   7
BRANCH   4  13
ATOM     13  N   UNL     1     -11.298   8.676  -0.380  1.00  0.00    -0.362 N 
ATOM     14  H   UNL     1     -11.911   7.871  -0.366  1.00  0.00     0.166 HD
BRANCH  13  15
ATOM     15  C   UNL     1     -10.042   8.500  -0.898  1.00  0.00     0.083 C 
BRANCH  15  16
ATOM     16  C   UNL     1      -9.638   7.674  -1.872  1.00  0.00     0.027 C 
BRANCH  16  17
ATOM     17  C   UNL     1      -9.314   6.267  -1.592  1.00  0.00    -0.003 A 
ATOM     18  C   UNL     1      -7.991   5.800  -1.502  1.00  0.00    -0.041 A 
ATOM     19  C   UNL     1     -10.331   5.312  -1.438  1.00  0.00     0.119 A 
ATOM     20  C   UNL     1      -7.772   4.436  -1.256  1.00  0.00     0.024 A 
ATOM     21  N   UNL     1     -10.138   3.997  -1.182  1.00  0.00    -0.264 NA
ATOM     22  C   UNL     1      -8.858   3.591  -1.094  1.00  0.00     0.111 A 
ATOM     23  C   UNL     1      -6.805   6.702  -1.700  1.00  0.00     0.045 C 
ENDBRANCH  16  17
ENDBRANCH  15  16
ENDBRANCH  13  15
ENDBRANCH   4  13
TORSDOF 8
ENDMDL
MODEL 8
REMARK VINA RESULT:    -5.031      1.812      8.747
REMARK INTER + INTRA:          -7.836
REMARK INTER:                  -7.175
REMARK INTRA:                  -0.661
REMARK UNBOUND:                -0.599
REMARK SMILES Cc1ccncc1/C=C/Nc1ccc(CCCN)cc1
REMARK SMILES IDX 14 1 13 2 12 3 11 4 20 5 19 6 15 7 16 8 17 9 18 10 10 13
REMARK SMILES IDX 9 15 8 16 7 17 2 18 6 19 3 20 5 21 4 22 1 23
REMARK H PARENT 18 11 18 12 10 14
ROOT
ATOM      1  C   UNL     1     -12.253   9.546  -7.297  1.00  0.00    -0.048 A 
ATOM      2  C   UNL     1     -11.829  10.516  -6.387  1.00  0.00     0.006 A 
ATOM      3  C   UNL     1     -10.905  10.204  -5.395  1.00  0.00     0.026 A 
ATOM      4  C   UNL     1     -10.428   8.902  -5.222  1.00  0.00     0.038 A 
ATOM      5  C   UNL     1     -10.895   7.916  -6.098  1.00  0.00     0.026 A 
ATOM      6  C   UNL     1     -11.798   8.233  -7.125  1.00  0.00     0.006 A 
ENDROOT
BRANCH   1   7
ATOM      7  C   UNL     1     -13.176   9.895  -8.437  1.00  0.00     0.037 C 
BRANCH   7   8
ATOM      8  C   UNL     1     -13.334   8.839  -9.549  1.00  0.00     0.020 C 
BRANCH   8   9
ATOM      9  C   UNL     1     -13.126   9.338 -10.986  1.00  0.00     0.078 C 
BRANCH   9  10
ATOM     10  N   UNL     1     -11.826   9.026 -11.564  1.00  0.00    -0.330 NA
ATOM     11  H   UNL     1     -11.097   9.131 -10.860  1.00  0.00     0.118 HD
ATOM     12  H   UNL     1     -11.597   9.697 -12.298  1.00  0.00     0.118 HD
ENDBRANCH   9  10
ENDBRANCH   8   9
ENDBRANCH   7   8
ENDBRANCH   1   7
BRANCH   4  13
ATOM     13  N   UNL     1      -9.585   8.554  -4.148  1.00  0.00    -0.362 N 
ATOM     14  H   UNL     1      -8.640   8.280  -4.384  1.00  0.00     0.166 HD
BRANCH  13  15
ATOM     15  C   UNL     1     -10.009   8.313  -2.868  1.00  0.00     0.083 C 
BRANCH  15  16
ATOM     16  C   UNL     1      -9.307   7.876  -1.814  1.00  0.00     0.027 C 
BRANCH  16  17
ATOM     17  C   UNL     1      -9.126   6.438  -1.562  1.00  0.00    -0.003 A 
ATOM     18  C   UNL     1      -7.856   5.850  -1.429  1.00  0.00    -0.041 A 
ATOM     19  C   UNL     1     -10.231   5.577  -1.482  1.00  0.00     0.119 A 
ATOM     20  C   UNL     1      -7.773   4.466  -1.214  1.00  0.00     0.024 A 
ATOM     21  N   UNL     1     -10.170   4.243  -1.257  1.00  0.00    -0.264 NA
ATOM     22  C   UNL     1      -8.938   3.720  -1.126  1.00  0.00     0.111 A 
ATOM     23  C   UNL     1      -6.585   6.644  -1.548  1.00  0.00     0.045 C 
ENDBRANCH  16  17
ENDBRANCH  15  16
ENDBRANCH  13  15
ENDBRANCH   4  13
TORSDOF 8
ENDMDL
MODEL 9
REMARK VINA RESULT:    -5.016      1.861      8.329
REMARK INTER + INTRA:          -7.815
REMARK INTER:                  -7.107
REMARK INTRA:                  -0.708
REMARK UNBOUND:                -0.599
REMARK SMILES Cc1ccncc1/C=C/Nc1ccc(CCCN)cc1
REMARK SMILES IDX 14 1 13 2 12 3 11 4 20 5 19 6 15 7 16 8 17 9 18 10 10 13
REMARK SMILES IDX 9 15 8 16 7 17 2 18 6 19 3 20 5 21 4 22 1 23
REMARK H PARENT 18 11 18 12 10 14
ROOT
ATOM      1  C   UNL     1     -12.068   9.237  -7.404  1.00  0.00    -0.048 A 
ATOM      2  C   UNL     1     -11.885  10.340  -6.569  1.00  0.00     0.006 A 
ATOM      3  C   UNL     1     -11.036  10.266  -5.468  1.00  0.00     0.026 A 
ATOM      4  C   UNL     1     -10.401   9.073  -5.114  1.00  0.00     0.038 A 
ATOM      5  C   UNL     1     -10.628   7.950  -5.918  1.00  0.00     0.026 A 
ATOM      6  C   UNL     1     -11.452   8.030  -7.051  1.00  0.00     0.006 A 
ENDROOT
BRANCH   1   7
ATOM      7  C   UNL     1     -12.905   9.335  -8.655  1.00  0.00     0.037 C 
BRANCH   7   8
ATOM      8  C   UNL     1     -14.037   8.302  -8.813  1.00  0.00     0.020 C 
BRANCH   8   9
ATOM      9  C   UNL     1     -15.119   8.317  -7.724  1.00  0.00     0.078 C 
BRANCH   9  10
ATOM     10  N   UNL     1     -14.983   7.285  -6.706  1.00  0.00    -0.330 NA
ATOM     11  H   UNL     1     -14.911   7.712  -5.783  1.00  0.00     0.118 HD
ATOM     12  H   UNL     1     -14.111   6.773  -6.839  1.00  0.00     0.118 HD
ENDBRANCH   9  10
ENDBRANCH   8   9
ENDBRANCH   7   8
ENDBRANCH   1   7
BRANCH   4  13
ATOM     13  N   UNL     1      -9.637   8.958  -3.937  1.00  0.00    -0.362 N 
ATOM     14  H   UNL     1      -8.685   9.303  -3.977  1.00  0.00     0.166 HD
BRANCH  13  15
ATOM     15  C   UNL     1      -9.984   8.202  -2.849  1.00  0.00     0.083 C 
BRANCH  15  16
ATOM     16  C   UNL     1      -9.220   7.784  -1.830  1.00  0.00     0.027 C 
BRANCH  16  17
ATOM     17  C   UNL     1      -9.034   6.352  -1.556  1.00  0.00    -0.003 A 
ATOM     18  C   UNL     1      -7.761   5.771  -1.413  1.00  0.00    -0.041 A 
ATOM     19  C   UNL     1     -10.135   5.487  -1.461  1.00  0.00     0.119 A 
ATOM     20  C   UNL     1      -7.673   4.391  -1.175  1.00  0.00     0.024 A 
ATOM     21  N   UNL     1     -10.068   4.158  -1.215  1.00  0.00    -0.264 NA
ATOM     22  C   UNL     1      -8.834   3.642  -1.075  1.00  0.00     0.111 A 
ATOM     23  C   UNL     1      -6.494   6.568  -1.544  1.00  0.00     0.045 C 
ENDBRANCH  16  17
ENDBRANCH  15  16
ENDBRANCH  13  15
ENDBRANCH   4  13
TORSDOF 8
ENDMDL
