MODEL 1
REMARK VINA RESULT:    -4.973      0.000      0.000
REMARK INTER + INTRA:          -7.810
REMARK INTER:                  -7.153
REMARK INTRA:                  -0.657
REMARK UNBOUND:                -0.657
REMARK SMILES Cc1ccncc1/C=C/Nc1ccc(CCCN)cc1
REMARK SMILES IDX 14 1 13 2 12 3 11 4 20 5 19 6 15 7 16 8 17 9 18 10 10 13
REMARK SMILES IDX 9 15 8 16 7 17 2 18 6 19 3 20 5 21 4 22 1 23
REMARK H PARENT 18 11 18 12 10 14
ROOT
ATOM      1  C   UNL     1      -8.343  -8.508   8.358  1.00  0.00    -0.048 A 
ATOM      2  C   UNL     1      -9.432  -7.636   8.304  1.00  0.00     0.006 A 
ATOM      3  C   UNL     1      -9.415  -6.529   7.460  1.00  0.00     0.026 A 
ATOM      4  C   UNL     1      -8.289  -6.206   6.698  1.00  0.00     0.038 A 
ATOM      5  C   UNL     1      -7.175  -7.049   6.794  1.00  0.00     0.026 A 
ATOM      6  C   UNL     1      -7.201  -8.187   7.614  1.00  0.00     0.006 A 
ENDROOT
BRANCH   1   7
ATOM      7  C   UNL     1      -8.389  -9.764   9.192  1.00  0.00     0.037 C 
BRANCH   7   8
ATOM      8  C   UNL     1      -7.596  -9.746  10.513  1.00  0.00     0.020 C 
BRANCH   8   9
ATOM      9  C   UNL     1      -8.393  -9.374  11.772  1.00  0.00     0.078 C 
BRANCH   9  10
ATOM     10  N   UNL     1      -8.020  -8.107  12.384  1.00  0.00    -0.330 NA
ATOM     11  H   UNL     1      -7.948  -7.383  11.671  1.00  0.00     0.118 HD
ATOM     12  H   UNL     1      -7.090  -8.177  12.798  1.00  0.00     0.118 HD
ENDBRANCH   9  10
ENDBRANCH   8   9
ENDBRANCH   7   8
ENDBRANCH   1   7
BRANCH   4  13
ATOM     13  N   UNL     1      -8.221  -5.026   5.934  1.00  0.00    -0.362 N 
ATOM     14  H   UNL     1      -8.893  -4.931   5.183  1.00  0.00     0.166 HD
BRANCH  13  15
ATOM     15  C   UNL     1      -7.179  -4.136   5.960  1.00  0.00     0.083 C 
BRANCH  15  16
ATOM     16  C   UNL     1      -6.789  -3.264   5.021  1.00  0.00     0.027 C 
BRANCH  16  17
ATOM     17  C   UNL     1      -5.368  -2.935   4.830  1.00  0.00    -0.003 A 
ATOM     18  C   UNL     1      -4.852  -2.514   3.592  1.00  0.00    -0.041 A 
ATOM     19  C   UNL     1      -4.451  -3.067   5.883  1.00  0.00     0.119 A 
ATOM     20  C   UNL     1      -3.479  -2.244   3.491  1.00  0.00     0.024 A 
ATOM     21  N   UNL     1      -3.128  -2.794   5.808  1.00  0.00    -0.264 NA
ATOM     22  C   UNL     1      -2.674  -2.385   4.610  1.00  0.00     0.111 A 
ATOM     23  C   UNL     1      -5.710  -2.381   2.365  1.00  0.00     0.045 C 
ENDBRANCH  16  17
ENDBRANCH  15  16
ENDBRANCH  13  15
ENDBRANCH   4  13
TORSDOF 8
ENDMDL
MODEL 2
REMARK VINA RESULT:    -4.779      1.245      2.060
REMARK INTER + INTRA:          -7.531
REMARK INTER:                  -6.866
REMARK INTRA:                  -0.665
REMARK UNBOUND:                -0.657
REMARK SMILES Cc1ccncc1/C=C/Nc1ccc(CCCN)cc1
REMARK SMILES IDX 14 1 13 2 12 3 11 4 20 5 19 6 15 7 16 8 17 9 18 10 10 13
REMARK SMILES IDX 9 15 8 16 7 17 2 18 6 19 3 20 5 21 4 22 1 23
REMARK H PARENT 18 11 18 12 10 14
ROOT
ATOM      1  C   UNL     1      -8.496  -8.230   8.176  1.00  0.00    -0.048 A 
ATOM      2  C   UNL     1      -7.296  -8.093   7.476  1.00  0.00     0.006 A 
ATOM      3  C   UNL     1      -7.030  -6.939   6.743  1.00  0.00     0.026 A 
ATOM      4  C   UNL     1      -7.974  -5.918   6.617  1.00  0.00     0.038 A 
ATOM      5  C   UNL     1      -9.200  -6.080   7.272  1.00  0.00     0.026 A 
ATOM      6  C   UNL     1      -9.460  -7.223   8.043  1.00  0.00     0.006 A 
ENDROOT
BRANCH   1   7
ATOM      7  C   UNL     1      -8.755  -9.429   9.054  1.00  0.00     0.037 C 
BRANCH   7   8
ATOM      8  C   UNL     1      -7.612  -9.857   9.995  1.00  0.00     0.020 C 
BRANCH   8   9
ATOM      9  C   UNL     1      -7.895  -9.732  11.499  1.00  0.00     0.078 C 
BRANCH   9  10
ATOM     10  N   UNL     1      -7.814  -8.379  12.030  1.00  0.00    -0.330 NA
ATOM     11  H   UNL     1      -7.276  -8.376  12.896  1.00  0.00     0.118 HD
ATOM     12  H   UNL     1      -8.743  -8.045  12.285  1.00  0.00     0.118 HD
ENDBRANCH   9  10
ENDBRANCH   8   9
ENDBRANCH   7   8
ENDBRANCH   1   7
BRANCH   4  13
ATOM     13  N   UNL     1      -7.758  -4.804   5.782  1.00  0.00    -0.362 N 
ATOM     14  H   UNL     1      -7.875  -4.953   4.788  1.00  0.00     0.166 HD
BRANCH  13  15
ATOM     15  C   UNL     1      -7.166  -3.634   6.177  1.00  0.00     0.083 C 
BRANCH  15  16
ATOM     16  C   UNL     1      -5.902  -3.225   6.002  1.00  0.00     0.027 C 
BRANCH  16  17
ATOM     17  C   UNL     1      -5.350  -3.012   4.655  1.00  0.00    -0.003 A 
ATOM     18  C   UNL     1      -3.969  -2.896   4.416  1.00  0.00    -0.041 A 
ATOM     19  C   UNL     1      -6.195  -2.875   3.544  1.00  0.00     0.119 A 
ATOM     20  C   UNL     1      -3.529  -2.669   3.103  1.00  0.00     0.024 A 
ATOM     21  N   UNL     1      -5.787  -2.674   2.269  1.00  0.00    -0.264 NA
ATOM     22  C   UNL     1      -4.459  -2.578   2.080  1.00  0.00     0.111 A 
ATOM     23  C   UNL     1      -2.952  -2.968   5.521  1.00  0.00     0.045 C 
ENDBRANCH  16  17
ENDBRANCH  15  16
ENDBRANCH  13  15
ENDBRANCH   4  13
TORSDOF 8
ENDMDL
MODEL 3
REMARK VINA RESULT:    -4.528      5.445      7.311
REMARK INTER + INTRA:          -7.170
REMARK INTER:                  -6.530
REMARK INTRA:                  -0.639
REMARK UNBOUND:                -0.657
REMARK SMILES Cc1ccncc1/C=C/Nc1ccc(CCCN)cc1
REMARK SMILES IDX 14 1 13 2 12 3 11 4 20 5 19 6 15 7 16 8 17 9 18 10 10 13
REMARK SMILES IDX 9 15 8 16 7 17 2 18 6 19 3 20 5 21 4 22 1 23
REMARK H PARENT 18 11 18 12 10 14
ROOT
ATOM      1  C   UNL     1     -10.570   0.248   9.539  1.00  0.00    -0.048 A 
ATOM      2  C   UNL     1     -10.022  -0.919  10.076  1.00  0.00     0.006 A 
ATOM      3  C   UNL     1      -8.881  -1.489   9.519  1.00  0.00     0.026 A 
ATOM      4  C   UNL     1      -8.289  -0.967   8.366  1.00  0.00     0.038 A 
ATOM      5  C   UNL     1      -8.871   0.170   7.794  1.00  0.00     0.026 A 
ATOM      6  C   UNL     1      -9.999   0.771   8.373  1.00  0.00     0.006 A 
ENDROOT
BRANCH   1   7
ATOM      7  C   UNL     1     -11.745   0.931  10.192  1.00  0.00     0.037 C 
BRANCH   7   8
ATOM      8  C   UNL     1     -12.062   2.364   9.723  1.00  0.00     0.020 C 
BRANCH   8   9
ATOM      9  C   UNL     1     -12.132   3.433  10.823  1.00  0.00     0.078 C 
BRANCH   9  10
ATOM     10  N   UNL     1     -11.052   4.409  10.802  1.00  0.00    -0.330 NA
ATOM     11  H   UNL     1     -10.660   4.516  11.737  1.00  0.00     0.118 HD
ATOM     12  H   UNL     1     -11.414   5.329  10.551  1.00  0.00     0.118 HD
ENDBRANCH   9  10
ENDBRANCH   8   9
ENDBRANCH   7   8
ENDBRANCH   1   7
BRANCH   4  13
ATOM     13  N   UNL     1      -7.208  -1.606   7.730  1.00  0.00    -0.362 N 
ATOM     14  H   UNL     1      -6.340  -1.087   7.678  1.00  0.00     0.166 HD
BRANCH  13  15
ATOM     15  C   UNL     1      -7.307  -2.739   6.967  1.00  0.00     0.083 C 
BRANCH  15  16
ATOM     16  C   UNL     1      -6.362  -3.362   6.251  1.00  0.00     0.027 C 
BRANCH  16  17
ATOM     17  C   UNL     1      -6.174  -3.072   4.821  1.00  0.00    -0.003 A 
ATOM     18  C   UNL     1      -4.909  -2.811   4.265  1.00  0.00    -0.041 A 
ATOM     19  C   UNL     1      -7.271  -3.005   3.950  1.00  0.00     0.119 A 
ATOM     20  C   UNL     1      -4.822  -2.520   2.895  1.00  0.00     0.024 A 
ATOM     21  N   UNL     1      -7.204  -2.743   2.624  1.00  0.00    -0.264 NA
ATOM     22  C   UNL     1      -5.976  -2.509   2.127  1.00  0.00     0.111 A 
ATOM     23  C   UNL     1      -3.654  -2.796   5.091  1.00  0.00     0.045 C 
ENDBRANCH  16  17
ENDBRANCH  15  16
ENDBRANCH  13  15
ENDBRANCH   4  13
TORSDOF 8
ENDMDL
MODEL 4
REMARK VINA RESULT:    -4.510      6.043      9.832
REMARK INTER + INTRA:          -7.144
REMARK INTER:                  -6.613
REMARK INTRA:                  -0.531
REMARK UNBOUND:                -0.657
REMARK SMILES Cc1ccncc1/C=C/Nc1ccc(CCCN)cc1
REMARK SMILES IDX 14 1 13 2 12 3 11 4 20 5 19 6 15 7 16 8 17 9 18 10 10 13
REMARK SMILES IDX 9 15 8 16 7 17 2 18 6 19 3 20 5 21 4 22 1 23
REMARK H PARENT 18 11 18 12 10 14
ROOT
ATOM      1  C   UNL     1      -2.904  -2.181   3.274  1.00  0.00    -0.048 A 
ATOM      2  C   UNL     1      -3.129  -2.960   2.137  1.00  0.00     0.006 A 
ATOM      3  C   UNL     1      -2.389  -2.754   0.977  1.00  0.00     0.026 A 
ATOM      4  C   UNL     1      -1.455  -1.720   0.878  1.00  0.00     0.038 A 
ATOM      5  C   UNL     1      -1.268  -0.902   1.999  1.00  0.00     0.026 A 
ATOM      6  C   UNL     1      -1.984  -1.129   3.184  1.00  0.00     0.006 A 
ENDROOT
BRANCH   1   7
ATOM      7  C   UNL     1      -3.628  -2.460   4.568  1.00  0.00     0.037 C 
BRANCH   7   8
ATOM      8  C   UNL     1      -2.765  -2.924   5.757  1.00  0.00     0.020 C 
BRANCH   8   9
ATOM      9  C   UNL     1      -3.487  -3.043   7.107  1.00  0.00     0.078 C 
BRANCH   9  10
ATOM     10  N   UNL     1      -2.615  -3.237   8.257  1.00  0.00    -0.330 NA
ATOM     11  H   UNL     1      -2.724  -2.463   8.911  1.00  0.00     0.118 HD
ATOM     12  H   UNL     1      -1.638  -3.212   7.965  1.00  0.00     0.118 HD
ENDBRANCH   9  10
ENDBRANCH   8   9
ENDBRANCH   7   8
ENDBRANCH   1   7
BRANCH   4  13
ATOM     13  N   UNL     1      -0.789  -1.430  -0.328  1.00  0.00    -0.362 N 
ATOM     14  H   UNL     1      -0.520  -2.221  -0.900  1.00  0.00     0.166 HD
BRANCH  13  15
ATOM     15  C   UNL     1      -0.259  -0.210  -0.656  1.00  0.00     0.083 C 
BRANCH  15  16
ATOM     16  C   UNL     1       0.063   0.274  -1.863  1.00  0.00     0.027 C 
BRANCH  16  17
ATOM     17  C   UNL     1      -0.078   1.706  -2.172  1.00  0.00    -0.003 A 
ATOM     18  C   UNL     1      -1.010   2.187  -3.108  1.00  0.00    -0.041 A 
ATOM     19  C   UNL     1       0.752   2.659  -1.561  1.00  0.00     0.119 A 
ATOM     20  C   UNL     1      -1.062   3.566  -3.359  1.00  0.00     0.024 A 
ATOM     21  N   UNL     1       0.703   3.994  -1.779  1.00  0.00    -0.264 NA
ATOM     22  C   UNL     1      -0.208   4.416  -2.674  1.00  0.00     0.111 A 
ATOM     23  C   UNL     1      -1.925   1.273  -3.875  1.00  0.00     0.045 C 
ENDBRANCH  16  17
ENDBRANCH  15  16
ENDBRANCH  13  15
ENDBRANCH   4  13
TORSDOF 8
ENDMDL
MODEL 5
REMARK VINA RESULT:    -4.463      4.042      5.537
REMARK INTER + INTRA:          -7.077
REMARK INTER:                  -6.317
REMARK INTRA:                  -0.760
REMARK UNBOUND:                -0.657
REMARK SMILES Cc1ccncc1/C=C/Nc1ccc(CCCN)cc1
REMARK SMILES IDX 14 1 13 2 12 3 11 4 20 5 19 6 15 7 16 8 17 9 18 10 10 13
REMARK SMILES IDX 9 15 8 16 7 17 2 18 6 19 3 20 5 21 4 22 1 23
REMARK H PARENT 18 11 18 12 10 14
ROOT
ATOM      1  C   UNL     1      -7.650  -2.098   7.514  1.00  0.00    -0.048 A 
ATOM      2  C   UNL     1      -6.724  -1.527   6.640  1.00  0.00     0.006 A 
ATOM      3  C   UNL     1      -6.120  -2.292   5.646  1.00  0.00     0.026 A 
ATOM      4  C   UNL     1      -6.354  -3.664   5.535  1.00  0.00     0.038 A 
ATOM      5  C   UNL     1      -7.240  -4.250   6.447  1.00  0.00     0.026 A 
ATOM      6  C   UNL     1      -7.881  -3.476   7.427  1.00  0.00     0.006 A 
ENDROOT
BRANCH   1   7
ATOM      7  C   UNL     1      -8.386  -1.259   8.529  1.00  0.00     0.037 C 
BRANCH   7   8
ATOM      8  C   UNL     1      -8.962   0.081   8.031  1.00  0.00     0.020 C 
BRANCH   8   9
ATOM      9  C   UNL     1     -10.199   0.601   8.777  1.00  0.00     0.078 C 
BRANCH   9  10
ATOM     10  N   UNL     1     -10.912  -0.399   9.558  1.00  0.00    -0.330 NA
ATOM     11  H   UNL     1     -10.522  -1.324   9.381  1.00  0.00     0.118 HD
ATOM     12  H   UNL     1     -11.886  -0.452   9.258  1.00  0.00     0.118 HD
ENDBRANCH   9  10
ENDBRANCH   8   9
ENDBRANCH   7   8
ENDBRANCH   1   7
BRANCH   4  13
ATOM     13  N   UNL     1      -5.658  -4.466   4.610  1.00  0.00    -0.362 N 
ATOM     14  H   UNL     1      -5.536  -5.440   4.855  1.00  0.00     0.166 HD
BRANCH  13  15
ATOM     15  C   UNL     1      -4.925  -3.988   3.556  1.00  0.00     0.083 C 
BRANCH  15  16
ATOM     16  C   UNL     1      -3.597  -3.981   3.383  1.00  0.00     0.027 C 
BRANCH  16  17
ATOM     17  C   UNL     1      -2.817  -2.741   3.516  1.00  0.00    -0.003 A 
ATOM     18  C   UNL     1      -2.340  -2.027   2.403  1.00  0.00    -0.041 A 
ATOM     19  C   UNL     1      -2.481  -2.235   4.781  1.00  0.00     0.119 A 
ATOM     20  C   UNL     1      -1.583  -0.866   2.621  1.00  0.00     0.024 A 
ATOM     21  N   UNL     1      -1.767  -1.108   5.009  1.00  0.00    -0.264 NA
ATOM     22  C   UNL     1      -1.338  -0.447   3.919  1.00  0.00     0.111 A 
ATOM     23  C   UNL     1      -2.580  -2.484   0.991  1.00  0.00     0.045 C 
ENDBRANCH  16  17
ENDBRANCH  15  16
ENDBRANCH  13  15
ENDBRANCH   4  13
TORSDOF 8
ENDMDL
MODEL 6
REMARK VINA RESULT:    -4.376      5.044      6.816
REMARK INTER + INTRA:          -6.952
REMARK INTER:                  -6.393
REMARK INTRA:                  -0.559
REMARK UNBOUND:                -0.657
REMARK SMILES Cc1ccncc1/C=C/Nc1ccc(CCCN)cc1
REMARK SMILES IDX 14 1 13 2 12 3 11 4 20 5 19 6 15 7 16 8 17 9 18 10 10 13
REMARK SMILES IDX 9 15 8 16 7 17 2 18 6 19 3 20 5 21 4 22 1 23
REMARK H PARENT 18 11 18 12 10 14
ROOT
ATOM      1  C   UNL     1     -10.118   0.020   9.451  1.00  0.00    -0.048 A 
ATOM      2  C   UNL     1      -9.523  -1.167   9.882  1.00  0.00     0.006 A 
ATOM      3  C   UNL     1      -8.458  -1.723   9.180  1.00  0.00     0.026 A 
ATOM      4  C   UNL     1      -7.997  -1.165   7.985  1.00  0.00     0.038 A 
ATOM      5  C   UNL     1      -8.630  -0.006   7.521  1.00  0.00     0.026 A 
ATOM      6  C   UNL     1      -9.680   0.580   8.245  1.00  0.00     0.006 A 
ENDROOT
BRANCH   1   7
ATOM      7  C   UNL     1     -11.205   0.687  10.257  1.00  0.00     0.037 C 
BRANCH   7   8
ATOM      8  C   UNL     1     -11.958   1.847   9.577  1.00  0.00     0.020 C 
BRANCH   8   9
ATOM      9  C   UNL     1     -12.275   3.057  10.468  1.00  0.00     0.078 C 
BRANCH   9  10
ATOM     10  N   UNL     1     -11.153   3.950  10.717  1.00  0.00    -0.330 NA
ATOM     11  H   UNL     1     -10.456   3.847   9.980  1.00  0.00     0.118 HD
ATOM     12  H   UNL     1     -10.678   3.687  11.581  1.00  0.00     0.118 HD
ENDBRANCH   9  10
ENDBRANCH   8   9
ENDBRANCH   7   8
ENDBRANCH   1   7
BRANCH   4  13
ATOM     13  N   UNL     1      -7.001  -1.788   7.209  1.00  0.00    -0.362 N 
ATOM     14  H   UNL     1      -6.157  -1.254   7.040  1.00  0.00     0.166 HD
BRANCH  13  15
ATOM     15  C   UNL     1      -7.184  -2.924   6.466  1.00  0.00     0.083 C 
BRANCH  15  16
ATOM     16  C   UNL     1      -6.737  -3.211   5.236  1.00  0.00     0.027 C 
BRANCH  16  17
ATOM     17  C   UNL     1      -5.367  -2.868   4.824  1.00  0.00    -0.003 A 
ATOM     18  C   UNL     1      -5.051  -2.472   3.513  1.00  0.00    -0.041 A 
ATOM     19  C   UNL     1      -4.299  -2.962   5.729  1.00  0.00     0.119 A 
ATOM     20  C   UNL     1      -3.713  -2.186   3.199  1.00  0.00     0.024 A 
ATOM     21  N   UNL     1      -3.006  -2.674   5.448  1.00  0.00    -0.264 NA
ATOM     22  C   UNL     1      -2.746  -2.288   4.186  1.00  0.00     0.111 A 
ATOM     23  C   UNL     1      -6.087  -2.380   2.428  1.00  0.00     0.045 C 
ENDBRANCH  16  17
ENDBRANCH  15  16
ENDBRANCH  13  15
ENDBRANCH   4  13
TORSDOF 8
ENDMDL
MODEL 7
REMARK VINA RESULT:    -4.365      1.883      8.645
REMARK INTER + INTRA:          -6.936
REMARK INTER:                  -6.370
REMARK INTRA:                  -0.566
REMARK UNBOUND:                -0.657
REMARK SMILES Cc1ccncc1/C=C/Nc1ccc(CCCN)cc1
REMARK SMILES IDX 14 1 13 2 12 3 11 4 20 5 19 6 15 7 16 8 17 9 18 10 10 13
REMARK SMILES IDX 9 15 8 16 7 17 2 18 6 19 3 20 5 21 4 22 1 23
REMARK H PARENT 18 11 18 12 10 14
ROOT
ATOM      1  C   UNL     1      -4.944  -2.280   4.589  1.00  0.00    -0.048 A 
ATOM      2  C   UNL     1      -6.180  -2.707   4.100  1.00  0.00     0.006 A 
ATOM      3  C   UNL     1      -7.055  -3.425   4.909  1.00  0.00     0.026 A 
ATOM      4  C   UNL     1      -6.703  -3.812   6.205  1.00  0.00     0.038 A 
ATOM      5  C   UNL     1      -5.441  -3.433   6.677  1.00  0.00     0.026 A 
ATOM      6  C   UNL     1      -4.570  -2.676   5.879  1.00  0.00     0.006 A 
ENDROOT
BRANCH   1   7
ATOM      7  C   UNL     1      -4.031  -1.415   3.756  1.00  0.00     0.037 C 
BRANCH   7   8
ATOM      8  C   UNL     1      -2.519  -1.689   3.876  1.00  0.00     0.020 C 
BRANCH   8   9
ATOM      9  C   UNL     1      -1.631  -0.461   4.123  1.00  0.00     0.078 C 
BRANCH   9  10
ATOM     10  N   UNL     1      -1.264   0.284   2.927  1.00  0.00    -0.330 NA
ATOM     11  H   UNL     1      -2.096   0.486   2.374  1.00  0.00     0.118 HD
ATOM     12  H   UNL     1      -0.668  -0.286   2.326  1.00  0.00     0.118 HD
ENDBRANCH   9  10
ENDBRANCH   8   9
ENDBRANCH   7   8
ENDBRANCH   1   7
BRANCH   4  13
ATOM     13  N   UNL     1      -7.533  -4.639   6.986  1.00  0.00    -0.362 N 
ATOM     14  H   UNL     1      -7.480  -4.517   7.990  1.00  0.00     0.166 HD
BRANCH  13  15
ATOM     15  C   UNL     1      -8.195  -5.744   6.523  1.00  0.00     0.083 C 
BRANCH  15  16
ATOM     16  C   UNL     1      -8.260  -6.974   7.050  1.00  0.00     0.027 C 
BRANCH  16  17
ATOM     17  C   UNL     1      -9.224  -7.297   8.114  1.00  0.00    -0.003 A 
ATOM     18  C   UNL     1      -9.202  -8.522   8.804  1.00  0.00    -0.041 A 
ATOM     19  C   UNL     1     -10.242  -6.396   8.460  1.00  0.00     0.119 A 
ATOM     20  C   UNL     1     -10.174  -8.757   9.789  1.00  0.00     0.024 A 
ATOM     21  N   UNL     1     -11.175  -6.600   9.419  1.00  0.00    -0.264 NA
ATOM     22  C   UNL     1     -11.116  -7.779  10.064  1.00  0.00     0.111 A 
ATOM     23  C   UNL     1      -8.201  -9.600   8.499  1.00  0.00     0.045 C 
ENDBRANCH  16  17
ENDBRANCH  15  16
ENDBRANCH  13  15
ENDBRANCH   4  13
TORSDOF 8
ENDMDL
MODEL 8
REMARK VINA RESULT:    -4.320      3.920      9.934
REMARK INTER + INTRA:          -6.871
REMARK INTER:                  -5.530
REMARK INTRA:                  -1.342
REMARK UNBOUND:                -0.657
REMARK SMILES Cc1ccncc1/C=C/Nc1ccc(CCCN)cc1
REMARK SMILES IDX 14 1 13 2 12 3 11 4 20 5 19 6 15 7 16 8 17 9 18 10 10 13
REMARK SMILES IDX 9 15 8 16 7 17 2 18 6 19 3 20 5 21 4 22 1 23
REMARK H PARENT 18 11 18 12 10 14
ROOT
ATOM      1  C   UNL     1      -8.306  -9.582   9.311  1.00  0.00    -0.048 A 
ATOM      2  C   UNL     1      -8.528 -10.936   9.051  1.00  0.00     0.006 A 
ATOM      3  C   UNL     1      -8.379 -11.886  10.057  1.00  0.00     0.026 A 
ATOM      4  C   UNL     1      -7.930 -11.537  11.333  1.00  0.00     0.038 A 
ATOM      5  C   UNL     1      -7.653 -10.187  11.579  1.00  0.00     0.026 A 
ATOM      6  C   UNL     1      -7.838  -9.219  10.580  1.00  0.00     0.006 A 
ENDROOT
BRANCH   1   7
ATOM      7  C   UNL     1      -8.562  -8.533   8.258  1.00  0.00     0.037 C 
BRANCH   7   8
ATOM      8  C   UNL     1      -7.326  -7.962   7.536  1.00  0.00     0.020 C 
BRANCH   8   9
ATOM      9  C   UNL     1      -7.543  -6.653   6.762  1.00  0.00     0.078 C 
BRANCH   9  10
ATOM     10  N   UNL     1      -8.848  -6.036   6.951  1.00  0.00    -0.330 NA
ATOM     11  H   UNL     1      -8.762  -5.021   6.916  1.00  0.00     0.118 HD
ATOM     12  H   UNL     1      -9.206  -6.248   7.882  1.00  0.00     0.118 HD
ENDBRANCH   9  10
ENDBRANCH   8   9
ENDBRANCH   7   8
ENDBRANCH   1   7
BRANCH   4  13
ATOM     13  N   UNL     1      -7.663 -12.506  12.320  1.00  0.00    -0.362 N 
ATOM     14  H   UNL     1      -6.834 -13.072  12.188  1.00  0.00     0.166 HD
BRANCH  13  15
ATOM     15  C   UNL     1      -8.552 -12.909  13.281  1.00  0.00     0.083 C 
BRANCH  15  16
ATOM     16  C   UNL     1      -9.890 -12.849  13.274  1.00  0.00     0.027 C 
BRANCH  16  17
ATOM     17  C   UNL     1     -10.595 -11.561  13.360  1.00  0.00    -0.003 A 
ATOM     18  C   UNL     1     -11.476 -11.116  12.359  1.00  0.00    -0.041 A 
ATOM     19  C   UNL     1     -10.384 -10.696  14.445  1.00  0.00     0.119 A 
ATOM     20  C   UNL     1     -12.089  -9.863  12.510  1.00  0.00     0.024 A 
ATOM     21  N   UNL     1     -10.981  -9.493  14.614  1.00  0.00    -0.264 NA
ATOM     22  C   UNL     1     -11.824  -9.106  13.640  1.00  0.00     0.111 A 
ATOM     23  C   UNL     1     -11.754 -11.916  11.118  1.00  0.00     0.045 C 
ENDBRANCH  16  17
ENDBRANCH  15  16
ENDBRANCH  13  15
ENDBRANCH   4  13
TORSDOF 8
ENDMDL
MODEL 9
REMARK VINA RESULT:    -4.274      4.528      8.500
REMARK INTER + INTRA:          -6.805
REMARK INTER:                  -6.144
REMARK INTRA:                  -0.661
REMARK UNBOUND:                -0.657
REMARK SMILES Cc1ccncc1/C=C/Nc1ccc(CCCN)cc1
REMARK SMILES IDX 14 1 13 2 12 3 11 4 20 5 19 6 15 7 16 8 17 9 18 10 10 13
REMARK SMILES IDX 9 15 8 16 7 17 2 18 6 19 3 20 5 21 4 22 1 23
REMARK H PARENT 18 11 18 12 10 14
ROOT
ATOM      1  C   UNL     1      -3.943  -2.872   4.235  1.00  0.00    -0.048 A 
ATOM      2  C   UNL     1      -3.683  -3.022   5.599  1.00  0.00     0.006 A 
ATOM      3  C   UNL     1      -4.725  -3.178   6.508  1.00  0.00     0.026 A 
ATOM      4  C   UNL     1      -6.062  -3.113   6.107  1.00  0.00     0.038 A 
ATOM      5  C   UNL     1      -6.325  -2.905   4.748  1.00  0.00     0.026 A 
ATOM      6  C   UNL     1      -5.278  -2.786   3.821  1.00  0.00     0.006 A 
ENDROOT
BRANCH   1   7
ATOM      7  C   UNL     1      -2.821  -2.804   3.229  1.00  0.00     0.037 C 
BRANCH   7   8
ATOM      8  C   UNL     1      -2.415  -1.400   2.740  1.00  0.00     0.020 C 
BRANCH   8   9
ATOM      9  C   UNL     1      -1.357  -0.672   3.582  1.00  0.00     0.078 C 
BRANCH   9  10
ATOM     10  N   UNL     1      -1.887   0.282   4.545  1.00  0.00    -0.330 NA
ATOM     11  H   UNL     1      -2.887   0.131   4.672  1.00  0.00     0.118 HD
ATOM     12  H   UNL     1      -1.798   1.232   4.183  1.00  0.00     0.118 HD
ENDBRANCH   9  10
ENDBRANCH   8   9
ENDBRANCH   7   8
ENDBRANCH   1   7
BRANCH   4  13
ATOM     13  N   UNL     1      -7.120  -3.150   7.035  1.00  0.00    -0.362 N 
ATOM     14  H   UNL     1      -7.457  -4.066   7.304  1.00  0.00     0.166 HD
BRANCH  13  15
ATOM     15  C   UNL     1      -7.883  -2.071   7.396  1.00  0.00     0.083 C 
BRANCH  15  16
ATOM     16  C   UNL     1      -7.912  -1.406   8.558  1.00  0.00     0.027 C 
BRANCH  16  17
ATOM     17  C   UNL     1      -9.096  -0.636   8.967  1.00  0.00    -0.003 A 
ATOM     18  C   UNL     1      -9.957  -1.065   9.993  1.00  0.00    -0.041 A 
ATOM     19  C   UNL     1      -9.441   0.556   8.313  1.00  0.00     0.119 A 
ATOM     20  C   UNL     1     -11.079  -0.281  10.303  1.00  0.00     0.024 A 
ATOM     21  N   UNL     1     -10.508   1.333   8.611  1.00  0.00    -0.264 NA
ATOM     22  C   UNL     1     -11.302   0.895   9.604  1.00  0.00     0.111 A 
ATOM     23  C   UNL     1      -9.740  -2.350  10.741  1.00  0.00     0.045 C 
ENDBRANCH  16  17
ENDBRANCH  15  16
ENDBRANCH  13  15
ENDBRANCH   4  13
TORSDOF 8
ENDMDL
