MODEL 1
REMARK VINA RESULT:    -5.080      0.000      0.000
REMARK INTER + INTRA:          -7.979
REMARK INTER:                  -7.308
REMARK INTRA:                  -0.671
REMARK UNBOUND:                -0.671
REMARK SMILES Cc1ccncc1/C=C/Nc1ccc(CCCN)cc1
REMARK SMILES IDX 14 1 13 2 12 3 11 4 20 5 19 6 15 7 16 8 17 9 18 10 10 13
REMARK SMILES IDX 9 15 8 16 7 17 2 18 6 19 3 20 5 21 4 22 1 23
REMARK H PARENT 18 11 18 12 10 14
ROOT
ATOM      1  C   UNL     1     -11.894   2.968  11.235  1.00  0.00    -0.048 A 
ATOM      2  C   UNL     1     -13.043   2.744  10.474  1.00  0.00     0.006 A 
ATOM      3  C   UNL     1     -12.947   2.390   9.131  1.00  0.00     0.026 A 
ATOM      4  C   UNL     1     -11.713   2.322   8.478  1.00  0.00     0.038 A 
ATOM      5  C   UNL     1     -10.564   2.602   9.227  1.00  0.00     0.026 A 
ATOM      6  C   UNL     1     -10.652   2.922  10.590  1.00  0.00     0.006 A 
ENDROOT
BRANCH   1   7
ATOM      7  C   UNL     1     -11.981   3.253  12.714  1.00  0.00     0.037 C 
BRANCH   7   8
ATOM      8  C   UNL     1     -11.566   4.665  13.172  1.00  0.00     0.020 C 
BRANCH   8   9
ATOM      9  C   UNL     1     -12.713   5.651  13.440  1.00  0.00     0.078 C 
BRANCH   9  10
ATOM     10  N   UNL     1     -12.800   6.763  12.504  1.00  0.00    -0.330 NA
ATOM     11  H   UNL     1     -12.286   6.542  11.652  1.00  0.00     0.118 HD
ATOM     12  H   UNL     1     -12.343   7.587  12.894  1.00  0.00     0.118 HD
ENDBRANCH   9  10
ENDBRANCH   8   9
ENDBRANCH   7   8
ENDBRANCH   1   7
BRANCH   4  13
ATOM     13  N   UNL     1     -11.616   2.081   7.094  1.00  0.00    -0.362 N 
ATOM     14  H   UNL     1     -11.792   1.134   6.785  1.00  0.00     0.166 HD
BRANCH  13  15
ATOM     15  C   UNL     1     -11.062   2.945   6.187  1.00  0.00     0.083 C 
BRANCH  15  16
ATOM     16  C   UNL     1     -10.540   2.684   4.981  1.00  0.00     0.027 C 
BRANCH  16  17
ATOM     17  C   UNL     1      -9.210   3.186   4.602  1.00  0.00    -0.003 A 
ATOM     18  C   UNL     1      -8.371   2.496   3.709  1.00  0.00    -0.041 A 
ATOM     19  C   UNL     1      -8.703   4.371   5.155  1.00  0.00     0.119 A 
ATOM     20  C   UNL     1      -7.107   3.034   3.420  1.00  0.00     0.024 A 
ATOM     21  N   UNL     1      -7.495   4.913   4.875  1.00  0.00    -0.264 NA
ATOM     22  C   UNL     1      -6.726   4.229   4.009  1.00  0.00     0.111 A 
ATOM     23  C   UNL     1      -8.764   1.188   3.083  1.00  0.00     0.045 C 
ENDBRANCH  16  17
ENDBRANCH  15  16
ENDBRANCH  13  15
ENDBRANCH   4  13
TORSDOF 8
ENDMDL
MODEL 2
REMARK VINA RESULT:    -4.955      1.690      8.447
REMARK INTER + INTRA:          -7.798
REMARK INTER:                  -7.186
REMARK INTRA:                  -0.612
REMARK UNBOUND:                -0.671
REMARK SMILES Cc1ccncc1/C=C/Nc1ccc(CCCN)cc1
REMARK SMILES IDX 14 1 13 2 12 3 11 4 20 5 19 6 15 7 16 8 17 9 18 10 10 13
REMARK SMILES IDX 9 15 8 16 7 17 2 18 6 19 3 20 5 21 4 22 1 23
REMARK H PARENT 18 11 18 12 10 14
ROOT
ATOM      1  C   UNL     1      -9.110   3.324   4.235  1.00  0.00    -0.048 A 
ATOM      2  C   UNL     1      -9.947   2.229   4.464  1.00  0.00     0.006 A 
ATOM      3  C   UNL     1     -10.866   2.243   5.508  1.00  0.00     0.026 A 
ATOM      4  C   UNL     1     -10.934   3.309   6.409  1.00  0.00     0.038 A 
ATOM      5  C   UNL     1     -10.057   4.382   6.216  1.00  0.00     0.026 A 
ATOM      6  C   UNL     1      -9.154   4.390   5.141  1.00  0.00     0.006 A 
ENDROOT
BRANCH   1   7
ATOM      7  C   UNL     1      -8.182   3.362   3.047  1.00  0.00     0.037 C 
BRANCH   7   8
ATOM      8  C   UNL     1      -6.838   4.091   3.243  1.00  0.00     0.020 C 
BRANCH   8   9
ATOM      9  C   UNL     1      -6.299   4.848   2.020  1.00  0.00     0.078 C 
BRANCH   9  10
ATOM     10  N   UNL     1      -4.888   5.199   2.087  1.00  0.00    -0.330 NA
ATOM     11  H   UNL     1      -4.330   4.493   1.609  1.00  0.00     0.118 HD
ATOM     12  H   UNL     1      -4.568   5.190   3.056  1.00  0.00     0.118 HD
ENDBRANCH   9  10
ENDBRANCH   8   9
ENDBRANCH   7   8
ENDBRANCH   1   7
BRANCH   4  13
ATOM     13  N   UNL     1     -11.777   3.278   7.537  1.00  0.00    -0.362 N 
ATOM     14  H   UNL     1     -12.450   4.029   7.621  1.00  0.00     0.166 HD
BRANCH  13  15
ATOM     15  C   UNL     1     -11.589   2.478   8.632  1.00  0.00     0.083 C 
BRANCH  15  16
ATOM     16  C   UNL     1     -11.089   2.793   9.834  1.00  0.00     0.027 C 
BRANCH  16  17
ATOM     17  C   UNL     1     -11.964   2.958  11.005  1.00  0.00    -0.003 A 
ATOM     18  C   UNL     1     -11.593   3.728  12.121  1.00  0.00    -0.041 A 
ATOM     19  C   UNL     1     -13.209   2.313  11.069  1.00  0.00     0.119 A 
ATOM     20  C   UNL     1     -12.479   3.813  13.206  1.00  0.00     0.024 A 
ATOM     21  N   UNL     1     -14.083   2.398  12.099  1.00  0.00    -0.264 NA
ATOM     22  C   UNL     1     -13.696   3.151  13.144  1.00  0.00     0.111 A 
ATOM     23  C   UNL     1     -10.267   4.430  12.210  1.00  0.00     0.045 C 
ENDBRANCH  16  17
ENDBRANCH  15  16
ENDBRANCH  13  15
ENDBRANCH   4  13
TORSDOF 8
ENDMDL
MODEL 3
REMARK VINA RESULT:    -4.910      1.982      8.557
REMARK INTER + INTRA:          -7.733
REMARK INTER:                  -7.189
REMARK INTRA:                  -0.544
REMARK UNBOUND:                -0.671
REMARK SMILES Cc1ccncc1/C=C/Nc1ccc(CCCN)cc1
REMARK SMILES IDX 14 1 13 2 12 3 11 4 20 5 19 6 15 7 16 8 17 9 18 10 10 13
REMARK SMILES IDX 9 15 8 16 7 17 2 18 6 19 3 20 5 21 4 22 1 23
REMARK H PARENT 18 11 18 12 10 14
ROOT
ATOM      1  C   UNL     1      -8.721   3.126   3.784  1.00  0.00    -0.048 A 
ATOM      2  C   UNL     1      -9.618   2.072   3.964  1.00  0.00     0.006 A 
ATOM      3  C   UNL     1     -10.595   2.132   4.954  1.00  0.00     0.026 A 
ATOM      4  C   UNL     1     -10.666   3.204   5.848  1.00  0.00     0.038 A 
ATOM      5  C   UNL     1      -9.731   4.235   5.704  1.00  0.00     0.026 A 
ATOM      6  C   UNL     1      -8.768   4.198   4.684  1.00  0.00     0.006 A 
ENDROOT
BRANCH   1   7
ATOM      7  C   UNL     1      -7.724   3.118   2.651  1.00  0.00     0.037 C 
BRANCH   7   8
ATOM      8  C   UNL     1      -6.368   3.800   2.918  1.00  0.00     0.020 C 
BRANCH   8   9
ATOM      9  C   UNL     1      -5.991   4.944   1.965  1.00  0.00     0.078 C 
BRANCH   9  10
ATOM     10  N   UNL     1      -5.281   4.534   0.762  1.00  0.00    -0.330 NA
ATOM     11  H   UNL     1      -5.414   5.226   0.026  1.00  0.00     0.118 HD
ATOM     12  H   UNL     1      -5.678   3.668   0.397  1.00  0.00     0.118 HD
ENDBRANCH   9  10
ENDBRANCH   8   9
ENDBRANCH   7   8
ENDBRANCH   1   7
BRANCH   4  13
ATOM     13  N   UNL     1     -11.574   3.216   6.925  1.00  0.00    -0.362 N 
ATOM     14  H   UNL     1     -12.123   4.057   7.046  1.00  0.00     0.166 HD
BRANCH  13  15
ATOM     15  C   UNL     1     -11.585   2.306   7.948  1.00  0.00     0.083 C 
BRANCH  15  16
ATOM     16  C   UNL     1     -11.573   2.520   9.271  1.00  0.00     0.027 C 
BRANCH  16  17
ATOM     17  C   UNL     1     -12.818   2.769  10.013  1.00  0.00    -0.003 A 
ATOM     18  C   UNL     1     -12.860   2.825  11.418  1.00  0.00    -0.041 A 
ATOM     19  C   UNL     1     -14.039   2.926   9.340  1.00  0.00     0.119 A 
ATOM     20  C   UNL     1     -14.095   3.043  12.047  1.00  0.00     0.024 A 
ATOM     21  N   UNL     1     -15.235   3.156   9.930  1.00  0.00    -0.264 NA
ATOM     22  C   UNL     1     -15.233   3.212  11.274  1.00  0.00     0.111 A 
ATOM     23  C   UNL     1     -11.638   2.620  12.268  1.00  0.00     0.045 C 
ENDBRANCH  16  17
ENDBRANCH  15  16
ENDBRANCH  13  15
ENDBRANCH   4  13
TORSDOF 8
ENDMDL
MODEL 4
REMARK VINA RESULT:    -4.866      2.201      8.504
REMARK INTER + INTRA:          -7.671
REMARK INTER:                  -7.116
REMARK INTRA:                  -0.555
REMARK UNBOUND:                -0.671
REMARK SMILES Cc1ccncc1/C=C/Nc1ccc(CCCN)cc1
REMARK SMILES IDX 14 1 13 2 12 3 11 4 20 5 19 6 15 7 16 8 17 9 18 10 10 13
REMARK SMILES IDX 9 15 8 16 7 17 2 18 6 19 3 20 5 21 4 22 1 23
REMARK H PARENT 18 11 18 12 10 14
ROOT
ATOM      1  C   UNL     1      -8.677   2.347   3.560  1.00  0.00    -0.048 A 
ATOM      2  C   UNL     1      -9.749   1.489   3.813  1.00  0.00     0.006 A 
ATOM      3  C   UNL     1     -10.745   1.844   4.718  1.00  0.00     0.026 A 
ATOM      4  C   UNL     1     -10.671   3.024   5.462  1.00  0.00     0.038 A 
ATOM      5  C   UNL     1      -9.567   3.859   5.251  1.00  0.00     0.026 A 
ATOM      6  C   UNL     1      -8.580   3.525   4.311  1.00  0.00     0.006 A 
ENDROOT
BRANCH   1   7
ATOM      7  C   UNL     1      -7.647   2.020   2.508  1.00  0.00     0.037 C 
BRANCH   7   8
ATOM      8  C   UNL     1      -6.325   1.402   3.003  1.00  0.00     0.020 C 
BRANCH   8   9
ATOM      9  C   UNL     1      -6.436   0.027   3.678  1.00  0.00     0.078 C 
BRANCH   9  10
ATOM     10  N   UNL     1      -6.395  -1.110   2.770  1.00  0.00    -0.330 NA
ATOM     11  H   UNL     1      -6.938  -1.882   3.153  1.00  0.00     0.118 HD
ATOM     12  H   UNL     1      -5.440  -1.461   2.689  1.00  0.00     0.118 HD
ENDBRANCH   9  10
ENDBRANCH   8   9
ENDBRANCH   7   8
ENDBRANCH   1   7
BRANCH   4  13
ATOM     13  N   UNL     1     -11.611   3.332   6.464  1.00  0.00    -0.362 N 
ATOM     14  H   UNL     1     -12.422   3.866   6.178  1.00  0.00     0.166 HD
BRANCH  13  15
ATOM     15  C   UNL     1     -11.393   3.195   7.810  1.00  0.00     0.083 C 
BRANCH  15  16
ATOM     16  C   UNL     1     -11.916   2.307   8.665  1.00  0.00     0.027 C 
BRANCH  16  17
ATOM     17  C   UNL     1     -12.982   2.689   9.604  1.00  0.00    -0.003 A 
ATOM     18  C   UNL     1     -12.754   2.838  10.983  1.00  0.00    -0.041 A 
ATOM     19  C   UNL     1     -14.297   2.885   9.157  1.00  0.00     0.119 A 
ATOM     20  C   UNL     1     -13.833   3.182  11.811  1.00  0.00     0.024 A 
ATOM     21  N   UNL     1     -15.346   3.234   9.939  1.00  0.00    -0.264 NA
ATOM     22  C   UNL     1     -15.085   3.377  11.251  1.00  0.00     0.111 A 
ATOM     23  C   UNL     1     -11.406   2.605  11.606  1.00  0.00     0.045 C 
ENDBRANCH  16  17
ENDBRANCH  15  16
ENDBRANCH  13  15
ENDBRANCH   4  13
TORSDOF 8
ENDMDL
MODEL 5
REMARK VINA RESULT:    -4.857      2.124      8.414
REMARK INTER + INTRA:          -7.658
REMARK INTER:                  -7.136
REMARK INTRA:                  -0.521
REMARK UNBOUND:                -0.671
REMARK SMILES Cc1ccncc1/C=C/Nc1ccc(CCCN)cc1
REMARK SMILES IDX 14 1 13 2 12 3 11 4 20 5 19 6 15 7 16 8 17 9 18 10 10 13
REMARK SMILES IDX 9 15 8 16 7 17 2 18 6 19 3 20 5 21 4 22 1 23
REMARK H PARENT 18 11 18 12 10 14
ROOT
ATOM      1  C   UNL     1      -8.406   2.454   3.448  1.00  0.00    -0.048 A 
ATOM      2  C   UNL     1      -9.517   1.648   3.704  1.00  0.00     0.006 A 
ATOM      3  C   UNL     1     -10.491   2.048   4.614  1.00  0.00     0.026 A 
ATOM      4  C   UNL     1     -10.359   3.223   5.358  1.00  0.00     0.038 A 
ATOM      5  C   UNL     1      -9.217   4.005   5.144  1.00  0.00     0.026 A 
ATOM      6  C   UNL     1      -8.251   3.625   4.200  1.00  0.00     0.006 A 
ENDROOT
BRANCH   1   7
ATOM      7  C   UNL     1      -7.396   2.079   2.393  1.00  0.00     0.037 C 
BRANCH   7   8
ATOM      8  C   UNL     1      -6.112   1.380   2.880  1.00  0.00     0.020 C 
BRANCH   8   9
ATOM      9  C   UNL     1      -6.311   0.059   3.637  1.00  0.00     0.078 C 
BRANCH   9  10
ATOM     10  N   UNL     1      -6.375  -1.129   2.797  1.00  0.00    -0.330 NA
ATOM     11  H   UNL     1      -5.725  -1.834   3.141  1.00  0.00     0.118 HD
ATOM     12  H   UNL     1      -6.063  -0.907   1.851  1.00  0.00     0.118 HD
ENDBRANCH   9  10
ENDBRANCH   8   9
ENDBRANCH   7   8
ENDBRANCH   1   7
BRANCH   4  13
ATOM     13  N   UNL     1     -11.279   3.575   6.364  1.00  0.00    -0.362 N 
ATOM     14  H   UNL     1     -11.935   4.314   6.142  1.00  0.00     0.166 HD
BRANCH  13  15
ATOM     15  C   UNL     1     -11.191   3.187   7.675  1.00  0.00     0.083 C 
BRANCH  15  16
ATOM     16  C   UNL     1     -12.009   2.393   8.378  1.00  0.00     0.027 C 
BRANCH  16  17
ATOM     17  C   UNL     1     -12.240   2.616   9.813  1.00  0.00    -0.003 A 
ATOM     18  C   UNL     1     -13.517   2.883  10.339  1.00  0.00    -0.041 A 
ATOM     19  C   UNL     1     -11.173   2.609  10.724  1.00  0.00     0.119 A 
ATOM     20  C   UNL     1     -13.644   3.109  11.718  1.00  0.00     0.024 A 
ATOM     21  N   UNL     1     -11.280   2.807  12.058  1.00  0.00    -0.264 NA
ATOM     22  C   UNL     1     -12.518   3.049  12.524  1.00  0.00     0.111 A 
ATOM     23  C   UNL     1     -14.741   2.974   9.472  1.00  0.00     0.045 C 
ENDBRANCH  16  17
ENDBRANCH  15  16
ENDBRANCH  13  15
ENDBRANCH   4  13
TORSDOF 8
ENDMDL
MODEL 6
REMARK VINA RESULT:    -4.787      1.392      2.027
REMARK INTER + INTRA:          -7.557
REMARK INTER:                  -6.944
REMARK INTRA:                  -0.613
REMARK UNBOUND:                -0.671
REMARK SMILES Cc1ccncc1/C=C/Nc1ccc(CCCN)cc1
REMARK SMILES IDX 14 1 13 2 12 3 11 4 20 5 19 6 15 7 16 8 17 9 18 10 10 13
REMARK SMILES IDX 9 15 8 16 7 17 2 18 6 19 3 20 5 21 4 22 1 23
REMARK H PARENT 18 11 18 12 10 14
ROOT
ATOM      1  C   UNL     1     -12.506   2.866  11.503  1.00  0.00    -0.048 A 
ATOM      2  C   UNL     1     -13.389   2.732  10.429  1.00  0.00     0.006 A 
ATOM      3  C   UNL     1     -12.911   2.527   9.138  1.00  0.00     0.026 A 
ATOM      4  C   UNL     1     -11.542   2.526   8.855  1.00  0.00     0.038 A 
ATOM      5  C   UNL     1     -10.657   2.717   9.923  1.00  0.00     0.026 A 
ATOM      6  C   UNL     1     -11.133   2.886  11.232  1.00  0.00     0.006 A 
ENDROOT
BRANCH   1   7
ATOM      7  C   UNL     1     -13.012   2.987  12.918  1.00  0.00     0.037 C 
BRANCH   7   8
ATOM      8  C   UNL     1     -13.593   4.353  13.331  1.00  0.00     0.020 C 
BRANCH   8   9
ATOM      9  C   UNL     1     -12.596   5.521  13.382  1.00  0.00     0.078 C 
BRANCH   9  10
ATOM     10  N   UNL     1     -12.933   6.655  12.533  1.00  0.00    -0.330 NA
ATOM     11  H   UNL     1     -12.606   7.520  12.961  1.00  0.00     0.118 HD
ATOM     12  H   UNL     1     -13.946   6.751  12.461  1.00  0.00     0.118 HD
ENDBRANCH   9  10
ENDBRANCH   8   9
ENDBRANCH   7   8
ENDBRANCH   1   7
BRANCH   4  13
ATOM     13  N   UNL     1     -11.054   2.439   7.537  1.00  0.00    -0.362 N 
ATOM     14  H   UNL     1     -10.355   1.730   7.358  1.00  0.00     0.166 HD
BRANCH  13  15
ATOM     15  C   UNL     1     -11.254   3.383   6.565  1.00  0.00     0.083 C 
BRANCH  15  16
ATOM     16  C   UNL     1     -10.461   3.722   5.540  1.00  0.00     0.027 C 
BRANCH  16  17
ATOM     17  C   UNL     1      -9.864   2.699   4.668  1.00  0.00    -0.003 A 
ATOM     18  C   UNL     1      -8.553   2.806   4.169  1.00  0.00    -0.041 A 
ATOM     19  C   UNL     1     -10.603   1.578   4.263  1.00  0.00     0.119 A 
ATOM     20  C   UNL     1      -8.070   1.796   3.324  1.00  0.00     0.024 A 
ATOM     21  N   UNL     1     -10.146   0.586   3.463  1.00  0.00    -0.264 NA
ATOM     22  C   UNL     1      -8.885   0.719   3.014  1.00  0.00     0.111 A 
ATOM     23  C   UNL     1      -7.668   3.980   4.479  1.00  0.00     0.045 C 
ENDBRANCH  16  17
ENDBRANCH  15  16
ENDBRANCH  13  15
ENDBRANCH   4  13
TORSDOF 8
ENDMDL
MODEL 7
REMARK VINA RESULT:    -4.769      1.769      8.484
REMARK INTER + INTRA:          -7.530
REMARK INTER:                  -6.994
REMARK INTRA:                  -0.536
REMARK UNBOUND:                -0.671
REMARK SMILES Cc1ccncc1/C=C/Nc1ccc(CCCN)cc1
REMARK SMILES IDX 14 1 13 2 12 3 11 4 20 5 19 6 15 7 16 8 17 9 18 10 10 13
REMARK SMILES IDX 9 15 8 16 7 17 2 18 6 19 3 20 5 21 4 22 1 23
REMARK H PARENT 18 11 18 12 10 14
ROOT
ATOM      1  C   UNL     1      -8.652   3.134   3.752  1.00  0.00    -0.048 A 
ATOM      2  C   UNL     1      -9.568   2.110   4.003  1.00  0.00     0.006 A 
ATOM      3  C   UNL     1     -10.546   2.256   4.982  1.00  0.00     0.026 A 
ATOM      4  C   UNL     1     -10.602   3.388   5.799  1.00  0.00     0.038 A 
ATOM      5  C   UNL     1      -9.649   4.392   5.586  1.00  0.00     0.026 A 
ATOM      6  C   UNL     1      -8.685   4.267   4.575  1.00  0.00     0.006 A 
ENDROOT
BRANCH   1   7
ATOM      7  C   UNL     1      -7.653   3.030   2.627  1.00  0.00     0.037 C 
BRANCH   7   8
ATOM      8  C   UNL     1      -6.268   3.660   2.872  1.00  0.00     0.020 C 
BRANCH   8   9
ATOM      9  C   UNL     1      -5.920   4.878   2.003  1.00  0.00     0.078 C 
BRANCH   9  10
ATOM     10  N   UNL     1      -5.284   4.564   0.731  1.00  0.00    -0.330 NA
ATOM     11  H   UNL     1      -5.701   3.726   0.330  1.00  0.00     0.118 HD
ATOM     12  H   UNL     1      -4.300   4.337   0.877  1.00  0.00     0.118 HD
ENDBRANCH   9  10
ENDBRANCH   8   9
ENDBRANCH   7   8
ENDBRANCH   1   7
BRANCH   4  13
ATOM     13  N   UNL     1     -11.512   3.491   6.868  1.00  0.00    -0.362 N 
ATOM     14  H   UNL     1     -12.236   4.193   6.783  1.00  0.00     0.166 HD
BRANCH  13  15
ATOM     15  C   UNL     1     -11.344   2.909   8.097  1.00  0.00     0.083 C 
BRANCH  15  16
ATOM     16  C   UNL     1     -12.237   2.259   8.854  1.00  0.00     0.027 C 
BRANCH  16  17
ATOM     17  C   UNL     1     -12.466   2.637  10.257  1.00  0.00    -0.003 A 
ATOM     18  C   UNL     1     -13.730   3.022  10.738  1.00  0.00    -0.041 A 
ATOM     19  C   UNL     1     -11.407   2.664  11.177  1.00  0.00     0.119 A 
ATOM     20  C   UNL     1     -13.855   3.390  12.086  1.00  0.00     0.024 A 
ATOM     21  N   UNL     1     -11.513   3.000  12.484  1.00  0.00    -0.264 NA
ATOM     22  C   UNL     1     -12.739   3.352  12.908  1.00  0.00     0.111 A 
ATOM     23  C   UNL     1     -14.941   3.090   9.851  1.00  0.00     0.045 C 
ENDBRANCH  16  17
ENDBRANCH  15  16
ENDBRANCH  13  15
ENDBRANCH   4  13
TORSDOF 8
ENDMDL
MODEL 8
REMARK VINA RESULT:    -4.755      4.037      5.645
REMARK INTER + INTRA:          -7.511
REMARK INTER:                  -6.665
REMARK INTRA:                  -0.845
REMARK UNBOUND:                -0.671
REMARK SMILES Cc1ccncc1/C=C/Nc1ccc(CCCN)cc1
REMARK SMILES IDX 14 1 13 2 12 3 11 4 20 5 19 6 15 7 16 8 17 9 18 10 10 13
REMARK SMILES IDX 9 15 8 16 7 17 2 18 6 19 3 20 5 21 4 22 1 23
REMARK H PARENT 18 11 18 12 10 14
ROOT
ATOM      1  C   UNL     1     -12.034   4.625   5.230  1.00  0.00    -0.048 A 
ATOM      2  C   UNL     1     -11.068   4.473   4.234  1.00  0.00     0.006 A 
ATOM      3  C   UNL     1     -10.031   3.557   4.383  1.00  0.00     0.026 A 
ATOM      4  C   UNL     1      -9.873   2.815   5.556  1.00  0.00     0.038 A 
ATOM      5  C   UNL     1     -10.809   3.008   6.580  1.00  0.00     0.026 A 
ATOM      6  C   UNL     1     -11.877   3.903   6.419  1.00  0.00     0.006 A 
ENDROOT
BRANCH   1   7
ATOM      7  C   UNL     1     -13.217   5.541   5.037  1.00  0.00     0.037 C 
BRANCH   7   8
ATOM      8  C   UNL     1     -13.688   5.766   3.588  1.00  0.00     0.020 C 
BRANCH   8   9
ATOM      9  C   UNL     1     -15.207   5.858   3.380  1.00  0.00     0.078 C 
BRANCH   9  10
ATOM     10  N   UNL     1     -15.987   6.011   4.600  1.00  0.00    -0.330 NA
ATOM     11  H   UNL     1     -16.256   6.987   4.721  1.00  0.00     0.118 HD
ATOM     12  H   UNL     1     -15.415   5.782   5.414  1.00  0.00     0.118 HD
ENDBRANCH   9  10
ENDBRANCH   8   9
ENDBRANCH   7   8
ENDBRANCH   1   7
BRANCH   4  13
ATOM     13  N   UNL     1      -8.761   1.975   5.762  1.00  0.00    -0.362 N 
ATOM     14  H   UNL     1      -8.545   1.735   6.721  1.00  0.00     0.166 HD
BRANCH  13  15
ATOM     15  C   UNL     1      -7.820   1.678   4.813  1.00  0.00     0.083 C 
BRANCH  15  16
ATOM     16  C   UNL     1      -6.574   2.152   4.680  1.00  0.00     0.027 C 
BRANCH  16  17
ATOM     17  C   UNL     1      -6.198   2.995   3.535  1.00  0.00    -0.003 A 
ATOM     18  C   UNL     1      -6.347   4.393   3.546  1.00  0.00    -0.041 A 
ATOM     19  C   UNL     1      -5.703   2.423   2.353  1.00  0.00     0.119 A 
ATOM     20  C   UNL     1      -5.986   5.118   2.400  1.00  0.00     0.024 A 
ATOM     21  N   UNL     1      -5.333   3.109   1.246  1.00  0.00    -0.264 NA
ATOM     22  C   UNL     1      -5.481   4.445   1.299  1.00  0.00     0.111 A 
ATOM     23  C   UNL     1      -6.916   5.132   4.724  1.00  0.00     0.045 C 
ENDBRANCH  16  17
ENDBRANCH  15  16
ENDBRANCH  13  15
ENDBRANCH   4  13
TORSDOF 8
ENDMDL
MODEL 9
REMARK VINA RESULT:    -4.531      2.176      4.095
REMARK INTER + INTRA:          -7.189
REMARK INTER:                  -6.447
REMARK INTRA:                  -0.741
REMARK UNBOUND:                -0.671
REMARK SMILES Cc1ccncc1/C=C/Nc1ccc(CCCN)cc1
REMARK SMILES IDX 14 1 13 2 12 3 11 4 20 5 19 6 15 7 16 8 17 9 18 10 10 13
REMARK SMILES IDX 9 15 8 16 7 17 2 18 6 19 3 20 5 21 4 22 1 23
REMARK H PARENT 18 11 18 12 10 14
ROOT
ATOM      1  C   UNL     1     -11.444   3.077   7.280  1.00  0.00    -0.048 A 
ATOM      2  C   UNL     1     -10.223   2.506   6.918  1.00  0.00     0.006 A 
ATOM      3  C   UNL     1      -9.576   2.895   5.749  1.00  0.00     0.026 A 
ATOM      4  C   UNL     1     -10.153   3.805   4.861  1.00  0.00     0.038 A 
ATOM      5  C   UNL     1     -11.405   4.337   5.195  1.00  0.00     0.026 A 
ATOM      6  C   UNL     1     -12.044   3.977   6.391  1.00  0.00     0.006 A 
ENDROOT
BRANCH   1   7
ATOM      7  C   UNL     1     -12.106   2.738   8.593  1.00  0.00     0.037 C 
BRANCH   7   8
ATOM      8  C   UNL     1     -11.185   2.630   9.824  1.00  0.00     0.020 C 
BRANCH   8   9
ATOM      9  C   UNL     1     -11.869   2.771  11.191  1.00  0.00     0.078 C 
BRANCH   9  10
ATOM     10  N   UNL     1     -13.314   2.591  11.178  1.00  0.00    -0.330 NA
ATOM     11  H   UNL     1     -13.730   3.046  11.989  1.00  0.00     0.118 HD
ATOM     12  H   UNL     1     -13.546   1.602  11.270  1.00  0.00     0.118 HD
ENDBRANCH   9  10
ENDBRANCH   8   9
ENDBRANCH   7   8
ENDBRANCH   1   7
BRANCH   4  13
ATOM     13  N   UNL     1      -9.561   4.114   3.621  1.00  0.00    -0.362 N 
ATOM     14  H   UNL     1     -10.191   4.333   2.859  1.00  0.00     0.166 HD
BRANCH  13  15
ATOM     15  C   UNL     1      -8.247   3.892   3.305  1.00  0.00     0.083 C 
BRANCH  15  16
ATOM     16  C   UNL     1      -7.726   3.069   2.385  1.00  0.00     0.027 C 
BRANCH  16  17
ATOM     17  C   UNL     1      -7.059   1.817   2.774  1.00  0.00    -0.003 A 
ATOM     18  C   UNL     1      -7.775   0.647   3.085  1.00  0.00    -0.041 A 
ATOM     19  C   UNL     1      -5.663   1.750   2.888  1.00  0.00     0.119 A 
ATOM     20  C   UNL     1      -7.060  -0.498   3.470  1.00  0.00     0.024 A 
ATOM     21  N   UNL     1      -4.957   0.650   3.241  1.00  0.00    -0.264 NA
ATOM     22  C   UNL     1      -5.676  -0.451   3.521  1.00  0.00     0.111 A 
ATOM     23  C   UNL     1      -9.276   0.591   3.057  1.00  0.00     0.045 C 
ENDBRANCH  16  17
ENDBRANCH  15  16
ENDBRANCH  13  15
ENDBRANCH   4  13
TORSDOF 8
ENDMDL
