MODEL 1
REMARK VINA RESULT:    -5.104      0.000      0.000
REMARK INTER + INTRA:          -8.008
REMARK INTER:                  -7.342
REMARK INTRA:                  -0.666
REMARK UNBOUND:                -0.666
REMARK SMILES Cc1ccncc1/C=C/Nc1ccc(CCCN)cc1
REMARK SMILES IDX 14 1 13 2 12 3 11 4 20 5 19 6 15 7 16 8 17 9 18 10 10 13
REMARK SMILES IDX 9 15 8 16 7 17 2 18 6 19 3 20 5 21 4 22 1 23
REMARK H PARENT 18 11 18 12 10 14
ROOT
ATOM      1  C   UNL     1       3.216   0.555 -16.123  1.00  0.00    -0.048 A 
ATOM      2  C   UNL     1       4.084  -0.533 -16.238  1.00  0.00     0.006 A 
ATOM      3  C   UNL     1       4.452  -1.270 -15.117  1.00  0.00     0.026 A 
ATOM      4  C   UNL     1       4.034  -0.908 -13.834  1.00  0.00     0.038 A 
ATOM      5  C   UNL     1       3.209   0.216 -13.710  1.00  0.00     0.026 A 
ATOM      6  C   UNL     1       2.804   0.940 -14.842  1.00  0.00     0.006 A 
ENDROOT
BRANCH   1   7
ATOM      7  C   UNL     1       2.731   1.298 -17.342  1.00  0.00     0.037 C 
BRANCH   7   8
ATOM      8  C   UNL     1       2.984   2.818 -17.372  1.00  0.00     0.020 C 
BRANCH   8   9
ATOM      9  C   UNL     1       4.154   3.288 -18.249  1.00  0.00     0.078 C 
BRANCH   9  10
ATOM     10  N   UNL     1       5.435   3.387 -17.565  1.00  0.00    -0.330 NA
ATOM     11  H   UNL     1       5.423   2.821 -16.718  1.00  0.00     0.118 HD
ATOM     12  H   UNL     1       5.593   4.345 -17.251  1.00  0.00     0.118 HD
ENDBRANCH   9  10
ENDBRANCH   8   9
ENDBRANCH   7   8
ENDBRANCH   1   7
BRANCH   4  13
ATOM     13  N   UNL     1       4.497  -1.577 -12.684  1.00  0.00    -0.362 N 
ATOM     14  H   UNL     1       4.477  -2.588 -12.708  1.00  0.00     0.166 HD
BRANCH  13  15
ATOM     15  C   UNL     1       4.723  -0.982 -11.471  1.00  0.00     0.083 C 
BRANCH  15  16
ATOM     16  C   UNL     1       4.649  -1.512 -10.243  1.00  0.00     0.027 C 
BRANCH  16  17
ATOM     17  C   UNL     1       4.441  -0.664  -9.059  1.00  0.00    -0.003 A 
ATOM     18  C   UNL     1       3.857  -1.151  -7.876  1.00  0.00    -0.041 A 
ATOM     19  C   UNL     1       4.788   0.695  -9.077  1.00  0.00     0.119 A 
ATOM     20  C   UNL     1       3.673  -0.268  -6.801  1.00  0.00     0.024 A 
ATOM     21  N   UNL     1       4.635   1.557  -8.044  1.00  0.00    -0.264 NA
ATOM     22  C   UNL     1       4.082   1.051  -6.927  1.00  0.00     0.111 A 
ATOM     23  C   UNL     1       3.388  -2.572  -7.736  1.00  0.00     0.045 C 
ENDBRANCH  16  17
ENDBRANCH  15  16
ENDBRANCH  13  15
ENDBRANCH   4  13
TORSDOF 8
ENDMDL
MODEL 2
REMARK VINA RESULT:    -5.046      2.180      8.545
REMARK INTER + INTRA:          -7.924
REMARK INTER:                  -7.298
REMARK INTRA:                  -0.626
REMARK UNBOUND:                -0.666
REMARK SMILES Cc1ccncc1/C=C/Nc1ccc(CCCN)cc1
REMARK SMILES IDX 14 1 13 2 12 3 11 4 20 5 19 6 15 7 16 8 17 9 18 10 10 13
REMARK SMILES IDX 9 15 8 16 7 17 2 18 6 19 3 20 5 21 4 22 1 23
REMARK H PARENT 18 11 18 12 10 14
ROOT
ATOM      1  C   UNL     1       4.040  -1.578  -8.265  1.00  0.00    -0.048 A 
ATOM      2  C   UNL     1       3.994  -2.627  -9.185  1.00  0.00     0.006 A 
ATOM      3  C   UNL     1       4.469  -2.457 -10.482  1.00  0.00     0.026 A 
ATOM      4  C   UNL     1       4.933  -1.219 -10.935  1.00  0.00     0.038 A 
ATOM      5  C   UNL     1       4.927  -0.151 -10.031  1.00  0.00     0.026 A 
ATOM      6  C   UNL     1       4.485  -0.327  -8.710  1.00  0.00     0.006 A 
ENDROOT
BRANCH   1   7
ATOM      7  C   UNL     1       3.623  -1.779  -6.830  1.00  0.00     0.037 C 
BRANCH   7   8
ATOM      8  C   UNL     1       2.282  -1.148  -6.404  1.00  0.00     0.020 C 
BRANCH   8   9
ATOM      9  C   UNL     1       1.018  -1.795  -6.989  1.00  0.00     0.078 C 
BRANCH   9  10
ATOM     10  N   UNL     1       0.366  -2.765  -6.122  1.00  0.00    -0.330 NA
ATOM     11  H   UNL     1       1.054  -3.213  -5.518  1.00  0.00     0.118 HD
ATOM     12  H   UNL     1      -0.040  -3.518  -6.678  1.00  0.00     0.118 HD
ENDBRANCH   9  10
ENDBRANCH   8   9
ENDBRANCH   7   8
ENDBRANCH   1   7
BRANCH   4  13
ATOM     13  N   UNL     1       5.303  -1.009 -12.277  1.00  0.00    -0.362 N 
ATOM     14  H   UNL     1       6.277  -1.157 -12.508  1.00  0.00     0.166 HD
BRANCH  13  15
ATOM     15  C   UNL     1       4.523  -0.385 -13.215  1.00  0.00     0.083 C 
BRANCH  15  16
ATOM     16  C   UNL     1       3.853  -0.916 -14.247  1.00  0.00     0.027 C 
BRANCH  16  17
ATOM     17  C   UNL     1       4.390  -0.856 -15.615  1.00  0.00    -0.003 A 
ATOM     18  C   UNL     1       3.805  -0.068 -16.621  1.00  0.00    -0.041 A 
ATOM     19  C   UNL     1       5.504  -1.626 -15.985  1.00  0.00     0.119 A 
ATOM     20  C   UNL     1       4.367  -0.089 -17.906  1.00  0.00     0.024 A 
ATOM     21  N   UNL     1       6.070  -1.644 -17.214  1.00  0.00    -0.264 NA
ATOM     22  C   UNL     1       5.487  -0.870 -18.147  1.00  0.00     0.111 A 
ATOM     23  C   UNL     1       2.577   0.764 -16.379  1.00  0.00     0.045 C 
ENDBRANCH  16  17
ENDBRANCH  15  16
ENDBRANCH  13  15
ENDBRANCH   4  13
TORSDOF 8
ENDMDL
MODEL 3
REMARK VINA RESULT:    -5.042      4.670      6.885
REMARK INTER + INTRA:          -7.919
REMARK INTER:                  -7.226
REMARK INTRA:                  -0.693
REMARK UNBOUND:                -0.666
REMARK SMILES Cc1ccncc1/C=C/Nc1ccc(CCCN)cc1
REMARK SMILES IDX 14 1 13 2 12 3 11 4 20 5 19 6 15 7 16 8 17 9 18 10 10 13
REMARK SMILES IDX 9 15 8 16 7 17 2 18 6 19 3 20 5 21 4 22 1 23
REMARK H PARENT 18 11 18 12 10 14
ROOT
ATOM      1  C   UNL     1      10.550  -2.538 -11.997  1.00  0.00    -0.048 A 
ATOM      2  C   UNL     1      10.201  -1.535 -12.903  1.00  0.00     0.006 A 
ATOM      3  C   UNL     1       9.209  -0.609 -12.591  1.00  0.00     0.026 A 
ATOM      4  C   UNL     1       8.476  -0.693 -11.405  1.00  0.00     0.038 A 
ATOM      5  C   UNL     1       8.786  -1.733 -10.520  1.00  0.00     0.026 A 
ATOM      6  C   UNL     1       9.811  -2.646 -10.812  1.00  0.00     0.006 A 
ENDROOT
BRANCH   1   7
ATOM      7  C   UNL     1      11.690  -3.484 -12.280  1.00  0.00     0.037 C 
BRANCH   7   8
ATOM      8  C   UNL     1      11.360  -4.989 -12.267  1.00  0.00     0.020 C 
BRANCH   8   9
ATOM      9  C   UNL     1      11.552  -5.732 -13.597  1.00  0.00     0.078 C 
BRANCH   9  10
ATOM     10  N   UNL     1      10.390  -5.734 -14.474  1.00  0.00    -0.330 NA
ATOM     11  H   UNL     1       9.854  -6.590 -14.340  1.00  0.00     0.118 HD
ATOM     12  H   UNL     1      10.687  -5.747 -15.450  1.00  0.00     0.118 HD
ENDBRANCH   9  10
ENDBRANCH   8   9
ENDBRANCH   7   8
ENDBRANCH   1   7
BRANCH   4  13
ATOM     13  N   UNL     1       7.393   0.166 -11.137  1.00  0.00    -0.362 N 
ATOM     14  H   UNL     1       7.617   1.137 -10.958  1.00  0.00     0.166 HD
BRANCH  13  15
ATOM     15  C   UNL     1       6.119  -0.247 -10.850  1.00  0.00     0.083 C 
BRANCH  15  16
ATOM     16  C   UNL     1       5.239   0.267  -9.980  1.00  0.00     0.027 C 
BRANCH  16  17
ATOM     17  C   UNL     1       4.462  -0.600  -9.080  1.00  0.00    -0.003 A 
ATOM     18  C   UNL     1       3.875  -0.123  -7.895  1.00  0.00    -0.041 A 
ATOM     19  C   UNL     1       4.306  -1.967  -9.355  1.00  0.00     0.119 A 
ATOM     20  C   UNL     1       3.171  -1.024  -7.082  1.00  0.00     0.024 A 
ATOM     21  N   UNL     1       3.615  -2.845  -8.592  1.00  0.00    -0.264 NA
ATOM     22  C   UNL     1       3.060  -2.349  -7.472  1.00  0.00     0.111 A 
ATOM     23  C   UNL     1       4.009   1.306  -7.449  1.00  0.00     0.045 C 
ENDBRANCH  16  17
ENDBRANCH  15  16
ENDBRANCH  13  15
ENDBRANCH   4  13
TORSDOF 8
ENDMDL
MODEL 4
REMARK VINA RESULT:    -5.024      4.470      8.424
REMARK INTER + INTRA:          -7.893
REMARK INTER:                  -7.356
REMARK INTRA:                  -0.538
REMARK UNBOUND:                -0.666
REMARK SMILES Cc1ccncc1/C=C/Nc1ccc(CCCN)cc1
REMARK SMILES IDX 14 1 13 2 12 3 11 4 20 5 19 6 15 7 16 8 17 9 18 10 10 13
REMARK SMILES IDX 9 15 8 16 7 17 2 18 6 19 3 20 5 21 4 22 1 23
REMARK H PARENT 18 11 18 12 10 14
ROOT
ATOM      1  C   UNL     1       4.085   0.412  -8.397  1.00  0.00    -0.048 A 
ATOM      2  C   UNL     1       4.907   1.353  -9.020  1.00  0.00     0.006 A 
ATOM      3  C   UNL     1       5.637   1.018 -10.157  1.00  0.00     0.026 A 
ATOM      4  C   UNL     1       5.638  -0.282 -10.669  1.00  0.00     0.038 A 
ATOM      5  C   UNL     1       4.859  -1.241 -10.012  1.00  0.00     0.026 A 
ATOM      6  C   UNL     1       4.091  -0.900  -8.888  1.00  0.00     0.006 A 
ENDROOT
BRANCH   1   7
ATOM      7  C   UNL     1       3.212   0.790  -7.227  1.00  0.00     0.037 C 
BRANCH   7   8
ATOM      8  C   UNL     1       3.757   0.461  -5.823  1.00  0.00     0.020 C 
BRANCH   8   9
ATOM      9  C   UNL     1       5.020   1.222  -5.396  1.00  0.00     0.078 C 
BRANCH   9  10
ATOM     10  N   UNL     1       4.809   2.246  -4.383  1.00  0.00    -0.330 NA
ATOM     11  H   UNL     1       5.488   2.137  -3.630  1.00  0.00     0.118 HD
ATOM     12  H   UNL     1       3.896   2.124  -3.945  1.00  0.00     0.118 HD
ENDBRANCH   9  10
ENDBRANCH   8   9
ENDBRANCH   7   8
ENDBRANCH   1   7
BRANCH   4  13
ATOM     13  N   UNL     1       6.466  -0.657 -11.745  1.00  0.00    -0.362 N 
ATOM     14  H   UNL     1       6.070  -0.573 -12.673  1.00  0.00     0.166 HD
BRANCH  13  15
ATOM     15  C   UNL     1       7.639  -1.354 -11.624  1.00  0.00     0.083 C 
BRANCH  15  16
ATOM     16  C   UNL     1       8.899  -0.915 -11.738  1.00  0.00     0.027 C 
BRANCH  16  17
ATOM     17  C   UNL     1       9.710  -1.226 -12.925  1.00  0.00    -0.003 A 
ATOM     18  C   UNL     1      10.787  -2.129 -12.887  1.00  0.00    -0.041 A 
ATOM     19  C   UNL     1       9.459  -0.596 -14.154  1.00  0.00     0.119 A 
ATOM     20  C   UNL     1      11.523  -2.350 -14.061  1.00  0.00     0.024 A 
ATOM     21  N   UNL     1      10.147  -0.812 -15.299  1.00  0.00    -0.264 NA
ATOM     22  C   UNL     1      11.164  -1.689 -15.224  1.00  0.00     0.111 A 
ATOM     23  C   UNL     1      11.201  -2.834 -11.626  1.00  0.00     0.045 C 
ENDBRANCH  16  17
ENDBRANCH  15  16
ENDBRANCH  13  15
ENDBRANCH   4  13
TORSDOF 8
ENDMDL
MODEL 5
REMARK VINA RESULT:    -5.015      1.920      8.625
REMARK INTER + INTRA:          -7.881
REMARK INTER:                  -7.322
REMARK INTRA:                  -0.559
REMARK UNBOUND:                -0.666
REMARK SMILES Cc1ccncc1/C=C/Nc1ccc(CCCN)cc1
REMARK SMILES IDX 14 1 13 2 12 3 11 4 20 5 19 6 15 7 16 8 17 9 18 10 10 13
REMARK SMILES IDX 9 15 8 16 7 17 2 18 6 19 3 20 5 21 4 22 1 23
REMARK H PARENT 18 11 18 12 10 14
ROOT
ATOM      1  C   UNL     1       4.536  -0.652  -8.130  1.00  0.00    -0.048 A 
ATOM      2  C   UNL     1       4.192  -1.781  -8.877  1.00  0.00     0.006 A 
ATOM      3  C   UNL     1       4.422  -1.822 -10.249  1.00  0.00     0.026 A 
ATOM      4  C   UNL     1       4.928  -0.719 -10.940  1.00  0.00     0.038 A 
ATOM      5  C   UNL     1       5.220   0.434 -10.201  1.00  0.00     0.026 A 
ATOM      6  C   UNL     1       5.027   0.468  -8.812  1.00  0.00     0.006 A 
ENDROOT
BRANCH   1   7
ATOM      7  C   UNL     1       4.386  -0.633  -6.629  1.00  0.00     0.037 C 
BRANCH   7   8
ATOM      8  C   UNL     1       3.965   0.705  -5.993  1.00  0.00     0.020 C 
BRANCH   8   9
ATOM      9  C   UNL     1       4.986   1.352  -5.046  1.00  0.00     0.078 C 
BRANCH   9  10
ATOM     10  N   UNL     1       4.866   0.957  -3.650  1.00  0.00    -0.330 NA
ATOM     11  H   UNL     1       5.474   1.535  -3.071  1.00  0.00     0.118 HD
ATOM     12  H   UNL     1       5.199   0.001  -3.525  1.00  0.00     0.118 HD
ENDBRANCH   9  10
ENDBRANCH   8   9
ENDBRANCH   7   8
ENDBRANCH   1   7
BRANCH   4  13
ATOM     13  N   UNL     1       5.051  -0.711 -12.342  1.00  0.00    -0.362 N 
ATOM     14  H   UNL     1       5.869  -0.253 -12.724  1.00  0.00     0.166 HD
BRANCH  13  15
ATOM     15  C   UNL     1       4.050  -1.038 -13.218  1.00  0.00     0.083 C 
BRANCH  15  16
ATOM     16  C   UNL     1       3.586  -0.348 -14.268  1.00  0.00     0.027 C 
BRANCH  16  17
ATOM     17  C   UNL     1       4.152  -0.535 -15.612  1.00  0.00    -0.003 A 
ATOM     18  C   UNL     1       3.657   0.144 -16.740  1.00  0.00    -0.041 A 
ATOM     19  C   UNL     1       5.201  -1.440 -15.832  1.00  0.00     0.119 A 
ATOM     20  C   UNL     1       4.240  -0.112 -17.990  1.00  0.00     0.024 A 
ATOM     21  N   UNL     1       5.787  -1.685 -17.028  1.00  0.00    -0.264 NA
ATOM     22  C   UNL     1       5.292  -1.010 -18.080  1.00  0.00     0.111 A 
ATOM     23  C   UNL     1       2.502   1.102 -16.660  1.00  0.00     0.045 C 
ENDBRANCH  16  17
ENDBRANCH  15  16
ENDBRANCH  13  15
ENDBRANCH   4  13
TORSDOF 8
ENDMDL
MODEL 6
REMARK VINA RESULT:    -4.978      2.037      8.440
REMARK INTER + INTRA:          -7.827
REMARK INTER:                  -7.259
REMARK INTRA:                  -0.569
REMARK UNBOUND:                -0.666
REMARK SMILES Cc1ccncc1/C=C/Nc1ccc(CCCN)cc1
REMARK SMILES IDX 14 1 13 2 12 3 11 4 20 5 19 6 15 7 16 8 17 9 18 10 10 13
REMARK SMILES IDX 9 15 8 16 7 17 2 18 6 19 3 20 5 21 4 22 1 23
REMARK H PARENT 18 11 18 12 10 14
ROOT
ATOM      1  C   UNL     1       3.947  -1.184  -7.643  1.00  0.00    -0.048 A 
ATOM      2  C   UNL     1       4.537  -0.011  -8.118  1.00  0.00     0.006 A 
ATOM      3  C   UNL     1       4.963   0.086  -9.439  1.00  0.00     0.026 A 
ATOM      4  C   UNL     1       4.891  -1.002 -10.313  1.00  0.00     0.038 A 
ATOM      5  C   UNL     1       4.351  -2.197  -9.823  1.00  0.00     0.026 A 
ATOM      6  C   UNL     1       3.884  -2.288  -8.503  1.00  0.00     0.006 A 
ENDROOT
BRANCH   1   7
ATOM      7  C   UNL     1       3.389  -1.267  -6.244  1.00  0.00     0.037 C 
BRANCH   7   8
ATOM      8  C   UNL     1       1.969  -0.708  -6.031  1.00  0.00     0.020 C 
BRANCH   8   9
ATOM      9  C   UNL     1       0.828  -1.507  -6.678  1.00  0.00     0.078 C 
BRANCH   9  10
ATOM     10  N   UNL     1       0.579  -2.814  -6.087  1.00  0.00    -0.330 NA
ATOM     11  H   UNL     1       1.461  -3.251  -5.824  1.00  0.00     0.118 HD
ATOM     12  H   UNL     1       0.159  -3.437  -6.776  1.00  0.00     0.118 HD
ENDBRANCH   9  10
ENDBRANCH   8   9
ENDBRANCH   7   8
ENDBRANCH   1   7
BRANCH   4  13
ATOM     13  N   UNL     1       5.428  -0.949 -11.614  1.00  0.00    -0.362 N 
ATOM     14  H   UNL     1       6.423  -1.111 -11.701  1.00  0.00     0.166 HD
BRANCH  13  15
ATOM     15  C   UNL     1       4.775  -0.451 -12.710  1.00  0.00     0.083 C 
BRANCH  15  16
ATOM     16  C   UNL     1       4.192  -1.111 -13.719  1.00  0.00     0.027 C 
BRANCH  16  17
ATOM     17  C   UNL     1       3.830  -0.427 -14.970  1.00  0.00    -0.003 A 
ATOM     18  C   UNL     1       4.449  -0.722 -16.197  1.00  0.00    -0.041 A 
ATOM     19  C   UNL     1       2.863   0.590 -14.980  1.00  0.00     0.119 A 
ATOM     20  C   UNL     1       4.060  -0.004 -17.338  1.00  0.00     0.024 A 
ATOM     21  N   UNL     1       2.463   1.280 -16.074  1.00  0.00    -0.264 NA
ATOM     22  C   UNL     1       3.072   0.962 -17.230  1.00  0.00     0.111 A 
ATOM     23  C   UNL     1       5.539  -1.750 -16.322  1.00  0.00     0.045 C 
ENDBRANCH  16  17
ENDBRANCH  15  16
ENDBRANCH  13  15
ENDBRANCH   4  13
TORSDOF 8
ENDMDL
MODEL 7
REMARK VINA RESULT:    -4.976      4.469      6.398
REMARK INTER + INTRA:          -7.824
REMARK INTER:                  -7.168
REMARK INTRA:                  -0.655
REMARK UNBOUND:                -0.666
REMARK SMILES Cc1ccncc1/C=C/Nc1ccc(CCCN)cc1
REMARK SMILES IDX 14 1 13 2 12 3 11 4 20 5 19 6 15 7 16 8 17 9 18 10 10 13
REMARK SMILES IDX 9 15 8 16 7 17 2 18 6 19 3 20 5 21 4 22 1 23
REMARK H PARENT 18 11 18 12 10 14
ROOT
ATOM      1  C   UNL     1      10.082  -2.050 -11.954  1.00  0.00    -0.048 A 
ATOM      2  C   UNL     1       9.401  -2.169 -10.740  1.00  0.00     0.006 A 
ATOM      3  C   UNL     1       8.115  -1.656 -10.594  1.00  0.00     0.026 A 
ATOM      4  C   UNL     1       7.492  -0.940 -11.619  1.00  0.00     0.038 A 
ATOM      5  C   UNL     1       8.196  -0.771 -12.817  1.00  0.00     0.026 A 
ATOM      6  C   UNL     1       9.476  -1.320 -12.984  1.00  0.00     0.006 A 
ENDROOT
BRANCH   1   7
ATOM      7  C   UNL     1      11.432  -2.690 -12.157  1.00  0.00     0.037 C 
BRANCH   7   8
ATOM      8  C   UNL     1      11.476  -4.230 -12.159  1.00  0.00     0.020 C 
BRANCH   8   9
ATOM      9  C   UNL     1      11.567  -4.900 -13.538  1.00  0.00     0.078 C 
BRANCH   9  10
ATOM     10  N   UNL     1      10.455  -5.779 -13.870  1.00  0.00    -0.330 NA
ATOM     11  H   UNL     1      10.014  -5.471 -14.735  1.00  0.00     0.118 HD
ATOM     12  H   UNL     1       9.731  -5.715 -13.155  1.00  0.00     0.118 HD
ENDBRANCH   9  10
ENDBRANCH   8   9
ENDBRANCH   7   8
ENDBRANCH   1   7
BRANCH   4  13
ATOM     13  N   UNL     1       6.242  -0.317 -11.437  1.00  0.00    -0.362 N 
ATOM     14  H   UNL     1       5.795   0.055 -12.266  1.00  0.00     0.166 HD
BRANCH  13  15
ATOM     15  C   UNL     1       5.719   0.049 -10.226  1.00  0.00     0.083 C 
BRANCH  15  16
ATOM     16  C   UNL     1       4.638  -0.428  -9.593  1.00  0.00     0.027 C 
BRANCH  16  17
ATOM     17  C   UNL     1       4.392  -0.127  -8.174  1.00  0.00    -0.003 A 
ATOM     18  C   UNL     1       3.892  -1.086  -7.276  1.00  0.00    -0.041 A 
ATOM     19  C   UNL     1       4.614   1.160  -7.662  1.00  0.00     0.119 A 
ATOM     20  C   UNL     1       3.663  -0.708  -5.944  1.00  0.00     0.024 A 
ATOM     21  N   UNL     1       4.416   1.537  -6.377  1.00  0.00    -0.264 NA
ATOM     22  C   UNL     1       3.947   0.589  -5.547  1.00  0.00     0.111 A 
ATOM     23  C   UNL     1       3.558  -2.489  -7.700  1.00  0.00     0.045 C 
ENDBRANCH  16  17
ENDBRANCH  15  16
ENDBRANCH  13  15
ENDBRANCH   4  13
TORSDOF 8
ENDMDL
MODEL 8
REMARK VINA RESULT:    -4.928      4.582      8.421
REMARK INTER + INTRA:          -7.754
REMARK INTER:                  -7.199
REMARK INTRA:                  -0.555
REMARK UNBOUND:                -0.666
REMARK SMILES Cc1ccncc1/C=C/Nc1ccc(CCCN)cc1
REMARK SMILES IDX 14 1 13 2 12 3 11 4 20 5 19 6 15 7 16 8 17 9 18 10 10 13
REMARK SMILES IDX 9 15 8 16 7 17 2 18 6 19 3 20 5 21 4 22 1 23
REMARK H PARENT 18 11 18 12 10 14
ROOT
ATOM      1  C   UNL     1       3.623  -0.115  -8.149  1.00  0.00    -0.048 A 
ATOM      2  C   UNL     1       3.861  -1.236  -8.947  1.00  0.00     0.006 A 
ATOM      3  C   UNL     1       4.853  -1.217  -9.922  1.00  0.00     0.026 A 
ATOM      4  C   UNL     1       5.591  -0.062 -10.193  1.00  0.00     0.038 A 
ATOM      5  C   UNL     1       5.315   1.080  -9.432  1.00  0.00     0.026 A 
ATOM      6  C   UNL     1       4.342   1.055  -8.421  1.00  0.00     0.006 A 
ENDROOT
BRANCH   1   7
ATOM      7  C   UNL     1       2.621  -0.157  -7.022  1.00  0.00     0.037 C 
BRANCH   7   8
ATOM      8  C   UNL     1       2.222  -1.552  -6.503  1.00  0.00     0.020 C 
BRANCH   8   9
ATOM      9  C   UNL     1       0.771  -1.980  -6.768  1.00  0.00     0.078 C 
BRANCH   9  10
ATOM     10  N   UNL     1      -0.225  -1.334  -5.926  1.00  0.00    -0.330 NA
ATOM     11  H   UNL     1      -1.082  -1.178  -6.455  1.00  0.00     0.118 HD
ATOM     12  H   UNL     1       0.097  -0.407  -5.647  1.00  0.00     0.118 HD
ENDBRANCH   9  10
ENDBRANCH   8   9
ENDBRANCH   7   8
ENDBRANCH   1   7
BRANCH   4  13
ATOM     13  N   UNL     1       6.512   0.001 -11.256  1.00  0.00    -0.362 N 
ATOM     14  H   UNL     1       6.358   0.723 -11.948  1.00  0.00     0.166 HD
BRANCH  13  15
ATOM     15  C   UNL     1       7.425  -0.974 -11.559  1.00  0.00     0.083 C 
BRANCH  15  16
ATOM     16  C   UNL     1       8.763  -0.915 -11.541  1.00  0.00     0.027 C 
BRANCH  16  17
ATOM     17  C   UNL     1       9.555  -1.202 -12.747  1.00  0.00    -0.003 A 
ATOM     18  C   UNL     1      10.624  -2.114 -12.748  1.00  0.00    -0.041 A 
ATOM     19  C   UNL     1       9.293  -0.536 -13.954  1.00  0.00     0.119 A 
ATOM     20  C   UNL     1      11.342  -2.310 -13.938  1.00  0.00     0.024 A 
ATOM     21  N   UNL     1       9.963  -0.726 -15.115  1.00  0.00    -0.264 NA
ATOM     22  C   UNL     1      10.973  -1.614 -15.078  1.00  0.00     0.111 A 
ATOM     23  C   UNL     1      11.049  -2.857 -11.513  1.00  0.00     0.045 C 
ENDBRANCH  16  17
ENDBRANCH  15  16
ENDBRANCH  13  15
ENDBRANCH   4  13
TORSDOF 8
ENDMDL
MODEL 9
REMARK VINA RESULT:    -4.857      1.326      1.860
REMARK INTER + INTRA:          -7.653
REMARK INTER:                  -7.012
REMARK INTRA:                  -0.640
REMARK UNBOUND:                -0.666
REMARK SMILES Cc1ccncc1/C=C/Nc1ccc(CCCN)cc1
REMARK SMILES IDX 14 1 13 2 12 3 11 4 20 5 19 6 15 7 16 8 17 9 18 10 10 13
REMARK SMILES IDX 9 15 8 16 7 17 2 18 6 19 3 20 5 21 4 22 1 23
REMARK H PARENT 18 11 18 12 10 14
ROOT
ATOM      1  C   UNL     1       3.523   0.122 -15.761  1.00  0.00    -0.048 A 
ATOM      2  C   UNL     1       4.553  -0.799 -15.558  1.00  0.00     0.006 A 
ATOM      3  C   UNL     1       4.849  -1.265 -14.281  1.00  0.00     0.026 A 
ATOM      4  C   UNL     1       4.186  -0.776 -13.152  1.00  0.00     0.038 A 
ATOM      5  C   UNL     1       3.192   0.190 -13.348  1.00  0.00     0.026 A 
ATOM      6  C   UNL     1       2.863   0.634 -14.637  1.00  0.00     0.006 A 
ENDROOT
BRANCH   1   7
ATOM      7  C   UNL     1       3.127   0.556 -17.150  1.00  0.00     0.037 C 
BRANCH   7   8
ATOM      8  C   UNL     1       2.906   2.066 -17.365  1.00  0.00     0.020 C 
BRANCH   8   9
ATOM      9  C   UNL     1       3.987   2.796 -18.176  1.00  0.00     0.078 C 
BRANCH   9  10
ATOM     10  N   UNL     1       5.017   3.449 -17.381  1.00  0.00    -0.330 NA
ATOM     11  H   UNL     1       5.443   2.778 -16.743  1.00  0.00     0.118 HD
ATOM     12  H   UNL     1       4.600   4.166 -16.786  1.00  0.00     0.118 HD
ENDBRANCH   9  10
ENDBRANCH   8   9
ENDBRANCH   7   8
ENDBRANCH   1   7
BRANCH   4  13
ATOM     13  N   UNL     1       4.561  -1.153 -11.848  1.00  0.00    -0.362 N 
ATOM     14  H   UNL     1       4.295  -2.083 -11.550  1.00  0.00     0.166 HD
BRANCH  13  15
ATOM     15  C   UNL     1       5.015  -0.291 -10.884  1.00  0.00     0.083 C 
BRANCH  15  16
ATOM     16  C   UNL     1       5.268  -0.528  -9.590  1.00  0.00     0.027 C 
BRANCH  16  17
ATOM     17  C   UNL     1       4.181  -0.819  -8.642  1.00  0.00    -0.003 A 
ATOM     18  C   UNL     1       3.642   0.160  -7.789  1.00  0.00    -0.041 A 
ATOM     19  C   UNL     1       3.658  -2.115  -8.523  1.00  0.00     0.119 A 
ATOM     20  C   UNL     1       2.623  -0.209  -6.898  1.00  0.00     0.024 A 
ATOM     21  N   UNL     1       2.664  -2.485  -7.682  1.00  0.00    -0.264 NA
ATOM     22  C   UNL     1       2.168  -1.518  -6.890  1.00  0.00     0.111 A 
ATOM     23  C   UNL     1       4.144   1.577  -7.772  1.00  0.00     0.045 C 
ENDBRANCH  16  17
ENDBRANCH  15  16
ENDBRANCH  13  15
ENDBRANCH   4  13
TORSDOF 8
ENDMDL
