MODEL 1
REMARK VINA RESULT:    -5.356      0.000      0.000
REMARK INTER + INTRA:          -8.997
REMARK INTER:                  -7.705
REMARK INTRA:                  -1.292
REMARK UNBOUND:                -1.292
REMARK SMILES Cc1ccncc1/C=C/Nc1ccc(CCCN)cc1
REMARK SMILES IDX 14 1 13 2 12 3 11 4 20 5 19 6 15 7 16 8 17 9 18 10 10 13
REMARK SMILES IDX 9 15 8 16 7 17 2 18 6 19 3 20 5 21 4 22 1 23
REMARK H PARENT 18 11 18 12 10 14
ROOT
ATOM      1  C   UNL     1       7.782   1.689  -5.340  1.00  0.00    -0.048 A 
ATOM      2  C   UNL     1       8.107   2.772  -6.159  1.00  0.00     0.006 A 
ATOM      3  C   UNL     1       9.390   2.907  -6.682  1.00  0.00     0.026 A 
ATOM      4  C   UNL     1      10.414   2.018  -6.349  1.00  0.00     0.038 A 
ATOM      5  C   UNL     1      10.104   0.963  -5.482  1.00  0.00     0.026 A 
ATOM      6  C   UNL     1       8.803   0.800  -4.982  1.00  0.00     0.006 A 
ENDROOT
BRANCH   1   7
ATOM      7  C   UNL     1       6.372   1.476  -4.850  1.00  0.00     0.037 C 
BRANCH   7   8
ATOM      8  C   UNL     1       5.559   2.740  -4.511  1.00  0.00     0.020 C 
BRANCH   8   9
ATOM      9  C   UNL     1       5.205   2.937  -3.030  1.00  0.00     0.078 C 
BRANCH   9  10
ATOM     10  N   UNL     1       3.930   3.595  -2.784  1.00  0.00    -0.330 NA
ATOM     11  H   UNL     1       3.211   2.900  -2.586  1.00  0.00     0.118 HD
ATOM     12  H   UNL     1       3.617   4.080  -3.625  1.00  0.00     0.118 HD
ENDBRANCH   9  10
ENDBRANCH   8   9
ENDBRANCH   7   8
ENDBRANCH   1   7
BRANCH   4  13
ATOM     13  N   UNL     1      11.741   2.216  -6.777  1.00  0.00    -0.362 N 
ATOM     14  H   UNL     1      12.359   2.695  -6.135  1.00  0.00     0.166 HD
BRANCH  13  15
ATOM     15  C   UNL     1      12.180   2.048  -8.064  1.00  0.00     0.083 C 
BRANCH  15  16
ATOM     16  C   UNL     1      12.189   0.941  -8.817  1.00  0.00     0.027 C 
BRANCH  16  17
ATOM     17  C   UNL     1      11.487   0.891 -10.108  1.00  0.00    -0.003 A 
ATOM     18  C   UNL     1      10.268   0.212 -10.278  1.00  0.00    -0.041 A 
ATOM     19  C   UNL     1      12.034   1.499 -11.249  1.00  0.00     0.119 A 
ATOM     20  C   UNL     1       9.677   0.195 -11.551  1.00  0.00     0.024 A 
ATOM     21  N   UNL     1      11.470   1.507 -12.479  1.00  0.00    -0.264 NA
ATOM     22  C   UNL     1      10.299   0.855 -12.599  1.00  0.00     0.111 A 
ATOM     23  C   UNL     1       9.596  -0.528  -9.156  1.00  0.00     0.045 C 
ENDBRANCH  16  17
ENDBRANCH  15  16
ENDBRANCH  13  15
ENDBRANCH   4  13
TORSDOF 8
ENDMDL
MODEL 2
REMARK VINA RESULT:    -5.184      1.804      2.034
REMARK INTER + INTRA:          -8.749
REMARK INTER:                  -7.513
REMARK INTRA:                  -1.236
REMARK UNBOUND:                -1.292
REMARK SMILES Cc1ccncc1/C=C/Nc1ccc(CCCN)cc1
REMARK SMILES IDX 14 1 13 2 12 3 11 4 20 5 19 6 15 7 16 8 17 9 18 10 10 13
REMARK SMILES IDX 9 15 8 16 7 17 2 18 6 19 3 20 5 21 4 22 1 23
REMARK H PARENT 18 11 18 12 10 14
ROOT
ATOM      1  C   UNL     1       7.908   1.120  -5.057  1.00  0.00    -0.048 A 
ATOM      2  C   UNL     1       7.931   2.295  -5.812  1.00  0.00     0.006 A 
ATOM      3  C   UNL     1       9.109   2.730  -6.412  1.00  0.00     0.026 A 
ATOM      4  C   UNL     1      10.319   2.059  -6.222  1.00  0.00     0.038 A 
ATOM      5  C   UNL     1      10.309   0.912  -5.420  1.00  0.00     0.026 A 
ATOM      6  C   UNL     1       9.117   0.447  -4.843  1.00  0.00     0.006 A 
ENDROOT
BRANCH   1   7
ATOM      7  C   UNL     1       6.619   0.585  -4.486  1.00  0.00     0.037 C 
BRANCH   7   8
ATOM      8  C   UNL     1       6.742  -0.425  -3.329  1.00  0.00     0.020 C 
BRANCH   8   9
ATOM      9  C   UNL     1       6.076  -1.790  -3.553  1.00  0.00     0.078 C 
BRANCH   9  10
ATOM     10  N   UNL     1       6.043  -2.658  -2.384  1.00  0.00    -0.330 NA
ATOM     11  H   UNL     1       6.928  -2.601  -1.882  1.00  0.00     0.118 HD
ATOM     12  H   UNL     1       5.955  -3.633  -2.673  1.00  0.00     0.118 HD
ENDBRANCH   9  10
ENDBRANCH   8   9
ENDBRANCH   7   8
ENDBRANCH   1   7
BRANCH   4  13
ATOM     13  N   UNL     1      11.535   2.558  -6.728  1.00  0.00    -0.362 N 
ATOM     14  H   UNL     1      12.003   3.263  -6.172  1.00  0.00     0.166 HD
BRANCH  13  15
ATOM     15  C   UNL     1      11.991   2.362  -8.005  1.00  0.00     0.083 C 
BRANCH  15  16
ATOM     16  C   UNL     1      12.121   1.218  -8.689  1.00  0.00     0.027 C 
BRANCH  16  17
ATOM     17  C   UNL     1      11.497   1.045 -10.010  1.00  0.00    -0.003 A 
ATOM     18  C   UNL     1      10.342   0.267 -10.202  1.00  0.00    -0.041 A 
ATOM     19  C   UNL     1      12.061   1.629 -11.154  1.00  0.00     0.119 A 
ATOM     20  C   UNL     1       9.826   0.136 -11.501  1.00  0.00     0.024 A 
ATOM     21  N   UNL     1      11.567   1.528 -12.410  1.00  0.00    -0.264 NA
ATOM     22  C   UNL     1      10.455   0.784 -12.552  1.00  0.00     0.111 A 
ATOM     23  C   UNL     1       9.664  -0.459  -9.075  1.00  0.00     0.045 C 
ENDBRANCH  16  17
ENDBRANCH  15  16
ENDBRANCH  13  15
ENDBRANCH   4  13
TORSDOF 8
ENDMDL
MODEL 3
REMARK VINA RESULT:    -4.868      2.569      7.771
REMARK INTER + INTRA:          -8.296
REMARK INTER:                  -7.538
REMARK INTRA:                  -0.757
REMARK UNBOUND:                -1.292
REMARK SMILES Cc1ccncc1/C=C/Nc1ccc(CCCN)cc1
REMARK SMILES IDX 14 1 13 2 12 3 11 4 20 5 19 6 15 7 16 8 17 9 18 10 10 13
REMARK SMILES IDX 9 15 8 16 7 17 2 18 6 19 3 20 5 21 4 22 1 23
REMARK H PARENT 18 11 18 12 10 14
ROOT
ATOM      1  C   UNL     1      11.677   2.393  -7.749  1.00  0.00    -0.048 A 
ATOM      2  C   UNL     1      11.487   3.362  -6.762  1.00  0.00     0.006 A 
ATOM      3  C   UNL     1      10.357   3.336  -5.950  1.00  0.00     0.026 A 
ATOM      4  C   UNL     1       9.340   2.397  -6.140  1.00  0.00     0.038 A 
ATOM      5  C   UNL     1       9.503   1.460  -7.167  1.00  0.00     0.026 A 
ATOM      6  C   UNL     1      10.658   1.457  -7.964  1.00  0.00     0.006 A 
ENDROOT
BRANCH   1   7
ATOM      7  C   UNL     1      12.944   2.350  -8.567  1.00  0.00     0.037 C 
BRANCH   7   8
ATOM      8  C   UNL     1      13.698   3.682  -8.744  1.00  0.00     0.020 C 
BRANCH   8   9
ATOM      9  C   UNL     1      13.247   4.560  -9.920  1.00  0.00     0.078 C 
BRANCH   9  10
ATOM     10  N   UNL     1      12.677   3.835 -11.047  1.00  0.00    -0.330 NA
ATOM     11  H   UNL     1      12.870   4.332 -11.915  1.00  0.00     0.118 HD
ATOM     12  H   UNL     1      11.660   3.807 -10.968  1.00  0.00     0.118 HD
ENDBRANCH   9  10
ENDBRANCH   8   9
ENDBRANCH   7   8
ENDBRANCH   1   7
BRANCH   4  13
ATOM     13  N   UNL     1       8.141   2.439  -5.402  1.00  0.00    -0.362 N 
ATOM     14  H   UNL     1       8.123   1.917  -4.535  1.00  0.00     0.166 HD
BRANCH  13  15
ATOM     15  C   UNL     1       6.944   2.903  -5.880  1.00  0.00     0.083 C 
BRANCH  15  16
ATOM     16  C   UNL     1       5.702   2.629  -5.458  1.00  0.00     0.027 C 
BRANCH  16  17
ATOM     17  C   UNL     1       5.436   1.501  -4.553  1.00  0.00    -0.003 A 
ATOM     18  C   UNL     1       5.104   1.683  -3.199  1.00  0.00    -0.041 A 
ATOM     19  C   UNL     1       5.542   0.177  -5.003  1.00  0.00     0.119 A 
ATOM     20  C   UNL     1       4.889   0.550  -2.399  1.00  0.00     0.024 A 
ATOM     21  N   UNL     1       5.321  -0.927  -4.251  1.00  0.00    -0.264 NA
ATOM     22  C   UNL     1       4.996  -0.711  -2.964  1.00  0.00     0.111 A 
ATOM     23  C   UNL     1       5.009   3.045  -2.570  1.00  0.00     0.045 C 
ENDBRANCH  16  17
ENDBRANCH  15  16
ENDBRANCH  13  15
ENDBRANCH   4  13
TORSDOF 8
ENDMDL
MODEL 4
REMARK VINA RESULT:    -4.846      2.541      4.639
REMARK INTER + INTRA:          -8.263
REMARK INTER:                  -7.104
REMARK INTRA:                  -1.159
REMARK UNBOUND:                -1.292
REMARK SMILES Cc1ccncc1/C=C/Nc1ccc(CCCN)cc1
REMARK SMILES IDX 14 1 13 2 12 3 11 4 20 5 19 6 15 7 16 8 17 9 18 10 10 13
REMARK SMILES IDX 9 15 8 16 7 17 2 18 6 19 3 20 5 21 4 22 1 23
REMARK H PARENT 18 11 18 12 10 14
ROOT
ATOM      1  C   UNL     1       7.826   1.535  -4.458  1.00  0.00    -0.048 A 
ATOM      2  C   UNL     1       8.980   0.783  -4.685  1.00  0.00     0.006 A 
ATOM      3  C   UNL     1       9.769   1.015  -5.809  1.00  0.00     0.026 A 
ATOM      4  C   UNL     1       9.399   1.944  -6.784  1.00  0.00     0.038 A 
ATOM      5  C   UNL     1       8.211   2.659  -6.585  1.00  0.00     0.026 A 
ATOM      6  C   UNL     1       7.432   2.457  -5.436  1.00  0.00     0.006 A 
ENDROOT
BRANCH   1   7
ATOM      7  C   UNL     1       7.019   1.363  -3.195  1.00  0.00     0.037 C 
BRANCH   7   8
ATOM      8  C   UNL     1       5.517   1.697  -3.283  1.00  0.00     0.020 C 
BRANCH   8   9
ATOM      9  C   UNL     1       5.008   2.771  -2.310  1.00  0.00     0.078 C 
BRANCH   9  10
ATOM     10  N   UNL     1       3.915   3.590  -2.815  1.00  0.00    -0.330 NA
ATOM     11  H   UNL     1       4.278   4.318  -3.428  1.00  0.00     0.118 HD
ATOM     12  H   UNL     1       3.460   4.082  -2.046  1.00  0.00     0.118 HD
ENDBRANCH   9  10
ENDBRANCH   8   9
ENDBRANCH   7   8
ENDBRANCH   1   7
BRANCH   4  13
ATOM     13  N   UNL     1      10.127   2.099  -7.979  1.00  0.00    -0.362 N 
ATOM     14  H   UNL     1       9.774   1.610  -8.792  1.00  0.00     0.166 HD
BRANCH  13  15
ATOM     15  C   UNL     1      11.385   2.634  -8.065  1.00  0.00     0.083 C 
BRANCH  15  16
ATOM     16  C   UNL     1      11.778   3.903  -7.894  1.00  0.00     0.027 C 
BRANCH  16  17
ATOM     17  C   UNL     1      12.782   4.260  -6.880  1.00  0.00    -0.003 A 
ATOM     18  C   UNL     1      12.429   4.669  -5.582  1.00  0.00    -0.041 A 
ATOM     19  C   UNL     1      14.151   4.243  -7.186  1.00  0.00     0.119 A 
ATOM     20  C   UNL     1      13.450   5.015  -4.684  1.00  0.00     0.024 A 
ATOM     21  N   UNL     1      15.149   4.556  -6.327  1.00  0.00    -0.264 NA
ATOM     22  C   UNL     1      14.772   4.933  -5.092  1.00  0.00     0.111 A 
ATOM     23  C   UNL     1      10.999   4.786  -5.135  1.00  0.00     0.045 C 
ENDBRANCH  16  17
ENDBRANCH  15  16
ENDBRANCH  13  15
ENDBRANCH   4  13
TORSDOF 8
ENDMDL
MODEL 5
REMARK VINA RESULT:    -4.768      2.086      8.079
REMARK INTER + INTRA:          -8.150
REMARK INTER:                  -7.477
REMARK INTRA:                  -0.673
REMARK UNBOUND:                -1.292
REMARK SMILES Cc1ccncc1/C=C/Nc1ccc(CCCN)cc1
REMARK SMILES IDX 14 1 13 2 12 3 11 4 20 5 19 6 15 7 16 8 17 9 18 10 10 13
REMARK SMILES IDX 9 15 8 16 7 17 2 18 6 19 3 20 5 21 4 22 1 23
REMARK H PARENT 18 11 18 12 10 14
ROOT
ATOM      1  C   UNL     1      11.598   2.215  -7.969  1.00  0.00    -0.048 A 
ATOM      2  C   UNL     1      11.445   3.268  -7.065  1.00  0.00     0.006 A 
ATOM      3  C   UNL     1      10.358   3.307  -6.197  1.00  0.00     0.026 A 
ATOM      4  C   UNL     1       9.346   2.345  -6.248  1.00  0.00     0.038 A 
ATOM      5  C   UNL     1       9.469   1.319  -7.193  1.00  0.00     0.026 A 
ATOM      6  C   UNL     1      10.583   1.254  -8.045  1.00  0.00     0.006 A 
ENDROOT
BRANCH   1   7
ATOM      7  C   UNL     1      12.823   2.109  -8.844  1.00  0.00     0.037 C 
BRANCH   7   8
ATOM      8  C   UNL     1      13.005   3.203  -9.914  1.00  0.00     0.020 C 
BRANCH   8   9
ATOM      9  C   UNL     1      13.376   2.713 -11.321  1.00  0.00     0.078 C 
BRANCH   9  10
ATOM     10  N   UNL     1      12.570   3.269 -12.399  1.00  0.00    -0.330 NA
ATOM     11  H   UNL     1      13.171   3.730 -13.082  1.00  0.00     0.118 HD
ATOM     12  H   UNL     1      11.956   3.999 -12.038  1.00  0.00     0.118 HD
ENDBRANCH   9  10
ENDBRANCH   8   9
ENDBRANCH   7   8
ENDBRANCH   1   7
BRANCH   4  13
ATOM     13  N   UNL     1       8.186   2.443  -5.457  1.00  0.00    -0.362 N 
ATOM     14  H   UNL     1       8.142   1.847  -4.640  1.00  0.00     0.166 HD
BRANCH  13  15
ATOM     15  C   UNL     1       7.030   3.073  -5.836  1.00  0.00     0.083 C 
BRANCH  15  16
ATOM     16  C   UNL     1       5.761   2.766  -5.535  1.00  0.00     0.027 C 
BRANCH  16  17
ATOM     17  C   UNL     1       5.393   2.276  -4.197  1.00  0.00    -0.003 A 
ATOM     18  C   UNL     1       5.333   0.907  -3.886  1.00  0.00    -0.041 A 
ATOM     19  C   UNL     1       5.045   3.171  -3.174  1.00  0.00     0.119 A 
ATOM     20  C   UNL     1       4.949   0.526  -2.591  1.00  0.00     0.024 A 
ATOM     21  N   UNL     1       4.690   2.822  -1.916  1.00  0.00    -0.264 NA
ATOM     22  C   UNL     1       4.653   1.504  -1.654  1.00  0.00     0.111 A 
ATOM     23  C   UNL     1       5.627  -0.163  -4.900  1.00  0.00     0.045 C 
ENDBRANCH  16  17
ENDBRANCH  15  16
ENDBRANCH  13  15
ENDBRANCH   4  13
TORSDOF 8
ENDMDL
MODEL 6
REMARK VINA RESULT:    -4.751      2.877      7.820
REMARK INTER + INTRA:          -8.127
REMARK INTER:                  -7.280
REMARK INTRA:                  -0.847
REMARK UNBOUND:                -1.292
REMARK SMILES Cc1ccncc1/C=C/Nc1ccc(CCCN)cc1
REMARK SMILES IDX 14 1 13 2 12 3 11 4 20 5 19 6 15 7 16 8 17 9 18 10 10 13
REMARK SMILES IDX 9 15 8 16 7 17 2 18 6 19 3 20 5 21 4 22 1 23
REMARK H PARENT 18 11 18 12 10 14
ROOT
ATOM      1  C   UNL     1      11.369   3.364  -7.383  1.00  0.00    -0.048 A 
ATOM      2  C   UNL     1      11.188   2.070  -7.875  1.00  0.00     0.006 A 
ATOM      3  C   UNL     1      10.312   1.188  -7.250  1.00  0.00     0.026 A 
ATOM      4  C   UNL     1       9.645   1.531  -6.071  1.00  0.00     0.038 A 
ATOM      5  C   UNL     1       9.870   2.808  -5.544  1.00  0.00     0.026 A 
ATOM      6  C   UNL     1      10.722   3.715  -6.192  1.00  0.00     0.006 A 
ENDROOT
BRANCH   1   7
ATOM      7  C   UNL     1      12.238   4.361  -8.109  1.00  0.00     0.037 C 
BRANCH   7   8
ATOM      8  C   UNL     1      13.549   3.824  -8.715  1.00  0.00     0.020 C 
BRANCH   8   9
ATOM      9  C   UNL     1      13.787   4.147 -10.197  1.00  0.00     0.078 C 
BRANCH   9  10
ATOM     10  N   UNL     1      12.634   3.949 -11.063  1.00  0.00    -0.330 NA
ATOM     11  H   UNL     1      11.791   4.295 -10.607  1.00  0.00     0.118 HD
ATOM     12  H   UNL     1      12.474   2.952 -11.213  1.00  0.00     0.118 HD
ENDBRANCH   9  10
ENDBRANCH   8   9
ENDBRANCH   7   8
ENDBRANCH   1   7
BRANCH   4  13
ATOM     13  N   UNL     1       8.851   0.604  -5.369  1.00  0.00    -0.362 N 
ATOM     14  H   UNL     1       7.853   0.642  -5.536  1.00  0.00     0.166 HD
BRANCH  13  15
ATOM     15  C   UNL     1       9.281  -0.150  -4.309  1.00  0.00     0.083 C 
BRANCH  15  16
ATOM     16  C   UNL     1       8.671  -0.395  -3.142  1.00  0.00     0.027 C 
BRANCH  16  17
ATOM     17  C   UNL     1       7.204  -0.462  -3.049  1.00  0.00    -0.003 A 
ATOM     18  C   UNL     1       6.418   0.657  -2.719  1.00  0.00    -0.041 A 
ATOM     19  C   UNL     1       6.524  -1.672  -3.252  1.00  0.00     0.119 A 
ATOM     20  C   UNL     1       5.027   0.499  -2.628  1.00  0.00     0.024 A 
ATOM     21  N   UNL     1       5.183  -1.837  -3.186  1.00  0.00    -0.264 NA
ATOM     22  C   UNL     1       4.465  -0.743  -2.877  1.00  0.00     0.111 A 
ATOM     23  C   UNL     1       7.018   2.003  -2.424  1.00  0.00     0.045 C 
ENDBRANCH  16  17
ENDBRANCH  15  16
ENDBRANCH  13  15
ENDBRANCH   4  13
TORSDOF 8
ENDMDL
MODEL 7
REMARK VINA RESULT:    -4.742      2.908      4.116
REMARK INTER + INTRA:          -8.114
REMARK INTER:                  -7.202
REMARK INTRA:                  -0.912
REMARK UNBOUND:                -1.292
REMARK SMILES Cc1ccncc1/C=C/Nc1ccc(CCCN)cc1
REMARK SMILES IDX 14 1 13 2 12 3 11 4 20 5 19 6 15 7 16 8 17 9 18 10 10 13
REMARK SMILES IDX 9 15 8 16 7 17 2 18 6 19 3 20 5 21 4 22 1 23
REMARK H PARENT 18 11 18 12 10 14
ROOT
ATOM      1  C   UNL     1       8.002   0.949  -4.164  1.00  0.00    -0.048 A 
ATOM      2  C   UNL     1       7.467   2.007  -4.903  1.00  0.00     0.006 A 
ATOM      3  C   UNL     1       8.039   2.390  -6.112  1.00  0.00     0.026 A 
ATOM      4  C   UNL     1       9.207   1.791  -6.592  1.00  0.00     0.038 A 
ATOM      5  C   UNL     1       9.777   0.769  -5.824  1.00  0.00     0.026 A 
ATOM      6  C   UNL     1       9.183   0.353  -4.623  1.00  0.00     0.006 A 
ENDROOT
BRANCH   1   7
ATOM      7  C   UNL     1       7.333   0.459  -2.905  1.00  0.00     0.037 C 
BRANCH   7   8
ATOM      8  C   UNL     1       6.002  -0.298  -3.079  1.00  0.00     0.020 C 
BRANCH   8   9
ATOM      9  C   UNL     1       6.115  -1.776  -3.481  1.00  0.00     0.078 C 
BRANCH   9  10
ATOM     10  N   UNL     1       6.008  -2.723  -2.380  1.00  0.00    -0.330 NA
ATOM     11  H   UNL     1       6.009  -3.676  -2.739  1.00  0.00     0.118 HD
ATOM     12  H   UNL     1       5.112  -2.610  -1.905  1.00  0.00     0.118 HD
ENDBRANCH   9  10
ENDBRANCH   8   9
ENDBRANCH   7   8
ENDBRANCH   1   7
BRANCH   4  13
ATOM     13  N   UNL     1       9.858   2.253  -7.752  1.00  0.00    -0.362 N 
ATOM     14  H   UNL     1       9.290   2.760  -8.419  1.00  0.00     0.166 HD
BRANCH  13  15
ATOM     15  C   UNL     1      11.104   1.857  -8.160  1.00  0.00     0.083 C 
BRANCH  15  16
ATOM     16  C   UNL     1      12.291   2.433  -7.933  1.00  0.00     0.027 C 
BRANCH  16  17
ATOM     17  C   UNL     1      12.532   3.843  -8.276  1.00  0.00    -0.003 A 
ATOM     18  C   UNL     1      12.357   4.885  -7.348  1.00  0.00    -0.041 A 
ATOM     19  C   UNL     1      12.915   4.213  -9.574  1.00  0.00     0.119 A 
ATOM     20  C   UNL     1      12.585   6.205  -7.766  1.00  0.00     0.024 A 
ATOM     21  N   UNL     1      13.156   5.479  -9.989  1.00  0.00    -0.264 NA
ATOM     22  C   UNL     1      12.988   6.446  -9.070  1.00  0.00     0.111 A 
ATOM     23  C   UNL     1      11.898   4.639  -5.938  1.00  0.00     0.045 C 
ENDBRANCH  16  17
ENDBRANCH  15  16
ENDBRANCH  13  15
ENDBRANCH   4  13
TORSDOF 8
ENDMDL
MODEL 8
REMARK VINA RESULT:    -4.729      1.736      2.557
REMARK INTER + INTRA:          -8.095
REMARK INTER:                  -7.288
REMARK INTRA:                  -0.807
REMARK UNBOUND:                -1.292
REMARK SMILES Cc1ccncc1/C=C/Nc1ccc(CCCN)cc1
REMARK SMILES IDX 14 1 13 2 12 3 11 4 20 5 19 6 15 7 16 8 17 9 18 10 10 13
REMARK SMILES IDX 9 15 8 16 7 17 2 18 6 19 3 20 5 21 4 22 1 23
REMARK H PARENT 18 11 18 12 10 14
ROOT
ATOM      1  C   UNL     1       6.789   1.177  -4.642  1.00  0.00    -0.048 A 
ATOM      2  C   UNL     1       7.833   0.313  -4.303  1.00  0.00     0.006 A 
ATOM      3  C   UNL     1       9.136   0.579  -4.713  1.00  0.00     0.026 A 
ATOM      4  C   UNL     1       9.438   1.667  -5.536  1.00  0.00     0.038 A 
ATOM      5  C   UNL     1       8.383   2.502  -5.923  1.00  0.00     0.026 A 
ATOM      6  C   UNL     1       7.073   2.261  -5.482  1.00  0.00     0.006 A 
ENDROOT
BRANCH   1   7
ATOM      7  C   UNL     1       5.392   0.955  -4.120  1.00  0.00     0.037 C 
BRANCH   7   8
ATOM      8  C   UNL     1       5.099   1.452  -2.691  1.00  0.00     0.020 C 
BRANCH   8   9
ATOM      9  C   UNL     1       5.071   2.975  -2.500  1.00  0.00     0.078 C 
BRANCH   9  10
ATOM     10  N   UNL     1       3.785   3.605  -2.764  1.00  0.00    -0.330 NA
ATOM     11  H   UNL     1       3.880   4.291  -3.512  1.00  0.00     0.118 HD
ATOM     12  H   UNL     1       3.477   4.131  -1.947  1.00  0.00     0.118 HD
ENDBRANCH   9  10
ENDBRANCH   8   9
ENDBRANCH   7   8
ENDBRANCH   1   7
BRANCH   4  13
ATOM     13  N   UNL     1      10.731   1.874  -6.051  1.00  0.00    -0.362 N 
ATOM     14  H   UNL     1      11.486   1.375  -5.598  1.00  0.00     0.166 HD
BRANCH  13  15
ATOM     15  C   UNL     1      11.075   2.872  -6.925  1.00  0.00     0.083 C 
BRANCH  15  16
ATOM     16  C   UNL     1      11.367   2.790  -8.230  1.00  0.00     0.027 C 
BRANCH  16  17
ATOM     17  C   UNL     1      12.352   1.818  -8.730  1.00  0.00    -0.003 A 
ATOM     18  C   UNL     1      11.981   0.552  -9.217  1.00  0.00    -0.041 A 
ATOM     19  C   UNL     1      13.724   2.107  -8.705  1.00  0.00     0.119 A 
ATOM     20  C   UNL     1      12.988  -0.323  -9.653  1.00  0.00     0.024 A 
ATOM     21  N   UNL     1      14.706   1.282  -9.138  1.00  0.00    -0.264 NA
ATOM     22  C   UNL     1      14.312   0.084  -9.606  1.00  0.00     0.111 A 
ATOM     23  C   UNL     1      10.552   0.089  -9.251  1.00  0.00     0.045 C 
ENDBRANCH  16  17
ENDBRANCH  15  16
ENDBRANCH  13  15
ENDBRANCH   4  13
TORSDOF 8
ENDMDL
MODEL 9
REMARK VINA RESULT:    -4.696      2.233      7.998
REMARK INTER + INTRA:          -8.047
REMARK INTER:                  -7.551
REMARK INTRA:                  -0.496
REMARK UNBOUND:                -1.292
REMARK SMILES Cc1ccncc1/C=C/Nc1ccc(CCCN)cc1
REMARK SMILES IDX 14 1 13 2 12 3 11 4 20 5 19 6 15 7 16 8 17 9 18 10 10 13
REMARK SMILES IDX 9 15 8 16 7 17 2 18 6 19 3 20 5 21 4 22 1 23
REMARK H PARENT 18 11 18 12 10 14
ROOT
ATOM      1  C   UNL     1      11.662   2.540  -8.082  1.00  0.00    -0.048 A 
ATOM      2  C   UNL     1      11.569   3.200  -6.855  1.00  0.00     0.006 A 
ATOM      3  C   UNL     1      10.764   2.698  -5.837  1.00  0.00     0.026 A 
ATOM      4  C   UNL     1       9.964   1.569  -6.026  1.00  0.00     0.038 A 
ATOM      5  C   UNL     1      10.012   0.938  -7.275  1.00  0.00     0.026 A 
ATOM      6  C   UNL     1      10.851   1.417  -8.292  1.00  0.00     0.006 A 
ENDROOT
BRANCH   1   7
ATOM      7  C   UNL     1      12.607   3.017  -9.156  1.00  0.00     0.037 C 
BRANCH   7   8
ATOM      8  C   UNL     1      12.655   2.187 -10.454  1.00  0.00     0.020 C 
BRANCH   8   9
ATOM      9  C   UNL     1      13.393   2.830 -11.637  1.00  0.00     0.078 C 
BRANCH   9  10
ATOM     10  N   UNL     1      12.544   3.228 -12.750  1.00  0.00    -0.330 NA
ATOM     11  H   UNL     1      11.568   3.241 -12.456  1.00  0.00     0.118 HD
ATOM     12  H   UNL     1      12.596   2.536 -13.497  1.00  0.00     0.118 HD
ENDBRANCH   9  10
ENDBRANCH   8   9
ENDBRANCH   7   8
ENDBRANCH   1   7
BRANCH   4  13
ATOM     13  N   UNL     1       9.058   1.125  -5.043  1.00  0.00    -0.362 N 
ATOM     14  H   UNL     1       8.341   1.780  -4.757  1.00  0.00     0.166 HD
BRANCH  13  15
ATOM     15  C   UNL     1       9.225   0.003  -4.275  1.00  0.00     0.083 C 
BRANCH  15  16
ATOM     16  C   UNL     1       8.584  -0.358  -3.155  1.00  0.00     0.027 C 
BRANCH  16  17
ATOM     17  C   UNL     1       7.281   0.225  -2.802  1.00  0.00    -0.003 A 
ATOM     18  C   UNL     1       6.076  -0.489  -2.931  1.00  0.00    -0.041 A 
ATOM     19  C   UNL     1       7.184   1.549  -2.349  1.00  0.00     0.119 A 
ATOM     20  C   UNL     1       4.874   0.152  -2.593  1.00  0.00     0.024 A 
ATOM     21  N   UNL     1       6.035   2.176  -2.002  1.00  0.00    -0.264 NA
ATOM     22  C   UNL     1       4.906   1.458  -2.131  1.00  0.00     0.111 A 
ATOM     23  C   UNL     1       6.027  -1.897  -3.454  1.00  0.00     0.045 C 
ENDBRANCH  16  17
ENDBRANCH  15  16
ENDBRANCH  13  15
ENDBRANCH   4  13
TORSDOF 8
ENDMDL
