MODEL 1
REMARK VINA RESULT:    -5.077      0.000      0.000
REMARK INTER + INTRA:          -7.922
REMARK INTER:                  -7.302
REMARK INTRA:                  -0.620
REMARK UNBOUND:                -0.620
REMARK SMILES Cc1ccncc1/C=C/Nc1ccc(CCCN)cc1
REMARK SMILES IDX 14 1 13 2 12 3 11 4 20 5 19 6 15 7 16 8 17 9 18 10 10 13
REMARK SMILES IDX 9 15 8 16 7 17 2 18 6 19 3 20 5 21 4 22 1 23
REMARK H PARENT 18 11 18 12 10 14
ROOT
ATOM      1  C   UNL     1      -6.678  15.033  -2.932  1.00  0.00    -0.048 A 
ATOM      2  C   UNL     1      -6.630  13.787  -2.303  1.00  0.00     0.006 A 
ATOM      3  C   UNL     1      -5.497  12.985  -2.400  1.00  0.00     0.026 A 
ATOM      4  C   UNL     1      -4.404  13.354  -3.188  1.00  0.00     0.038 A 
ATOM      5  C   UNL     1      -4.473  14.578  -3.865  1.00  0.00     0.026 A 
ATOM      6  C   UNL     1      -5.597  15.408  -3.739  1.00  0.00     0.006 A 
ENDROOT
BRANCH   1   7
ATOM      7  C   UNL     1      -7.858  15.954  -2.751  1.00  0.00     0.037 C 
BRANCH   7   8
ATOM      8  C   UNL     1      -8.230  16.327  -1.303  1.00  0.00     0.020 C 
BRANCH   8   9
ATOM      9  C   UNL     1      -7.857  17.748  -0.856  1.00  0.00     0.078 C 
BRANCH   9  10
ATOM     10  N   UNL     1      -6.677  17.838  -0.009  1.00  0.00    -0.330 NA
ATOM     11  H   UNL     1      -5.936  18.341  -0.495  1.00  0.00     0.118 HD
ATOM     12  H   UNL     1      -6.302  16.906   0.171  1.00  0.00     0.118 HD
ENDBRANCH   9  10
ENDBRANCH   8   9
ENDBRANCH   7   8
ENDBRANCH   1   7
BRANCH   4  13
ATOM     13  N   UNL     1      -3.306  12.496  -3.387  1.00  0.00    -0.362 N 
ATOM     14  H   UNL     1      -3.224  12.068  -4.300  1.00  0.00     0.166 HD
BRANCH  13  15
ATOM     15  C   UNL     1      -2.507  12.003  -2.389  1.00  0.00     0.083 C 
BRANCH  15  16
ATOM     16  C   UNL     1      -1.581  11.037  -2.447  1.00  0.00     0.027 C 
BRANCH  16  17
ATOM     17  C   UNL     1      -1.490  10.006  -1.402  1.00  0.00    -0.003 A 
ATOM     18  C   UNL     1      -1.062   8.694  -1.672  1.00  0.00    -0.041 A 
ATOM     19  C   UNL     1      -1.868  10.285  -0.080  1.00  0.00     0.119 A 
ATOM     20  C   UNL     1      -1.027   7.766  -0.620  1.00  0.00     0.024 A 
ATOM     21  N   UNL     1      -1.824   9.408   0.950  1.00  0.00    -0.264 NA
ATOM     22  C   UNL     1      -1.400   8.166   0.653  1.00  0.00     0.111 A 
ATOM     23  C   UNL     1      -0.678   8.241  -3.053  1.00  0.00     0.045 C 
ENDBRANCH  16  17
ENDBRANCH  15  16
ENDBRANCH  13  15
ENDBRANCH   4  13
TORSDOF 8
ENDMDL
MODEL 2
REMARK VINA RESULT:    -5.011      4.686      8.467
REMARK INTER + INTRA:          -7.827
REMARK INTER:                  -7.253
REMARK INTRA:                  -0.574
REMARK UNBOUND:                -0.620
REMARK SMILES Cc1ccncc1/C=C/Nc1ccc(CCCN)cc1
REMARK SMILES IDX 14 1 13 2 12 3 11 4 20 5 19 6 15 7 16 8 17 9 18 10 10 13
REMARK SMILES IDX 9 15 8 16 7 17 2 18 6 19 3 20 5 21 4 22 1 23
REMARK H PARENT 18 11 18 12 10 14
ROOT
ATOM      1  C   UNL     1      -1.879   9.315  -1.477  1.00  0.00    -0.048 A 
ATOM      2  C   UNL     1      -1.901  10.071  -0.303  1.00  0.00     0.006 A 
ATOM      3  C   UNL     1      -1.662  11.442  -0.336  1.00  0.00     0.026 A 
ATOM      4  C   UNL     1      -1.315  12.096  -1.521  1.00  0.00     0.038 A 
ATOM      5  C   UNL     1      -1.237  11.329  -2.689  1.00  0.00     0.026 A 
ATOM      6  C   UNL     1      -1.515   9.954  -2.669  1.00  0.00     0.006 A 
ENDROOT
BRANCH   1   7
ATOM      7  C   UNL     1      -2.236   7.850  -1.469  1.00  0.00     0.037 C 
BRANCH   7   8
ATOM      8  C   UNL     1      -1.561   6.967  -2.536  1.00  0.00     0.020 C 
BRANCH   8   9
ATOM      9  C   UNL     1      -2.400   5.799  -3.073  1.00  0.00     0.078 C 
BRANCH   9  10
ATOM     10  N   UNL     1      -2.796   4.816  -2.075  1.00  0.00    -0.330 NA
ATOM     11  H   UNL     1      -3.779   4.938  -1.837  1.00  0.00     0.118 HD
ATOM     12  H   UNL     1      -2.283   4.970  -1.206  1.00  0.00     0.118 HD
ENDBRANCH   9  10
ENDBRANCH   8   9
ENDBRANCH   7   8
ENDBRANCH   1   7
BRANCH   4  13
ATOM     13  N   UNL     1      -0.955  13.457  -1.541  1.00  0.00    -0.362 N 
ATOM     14  H   UNL     1      -1.465  14.052  -2.182  1.00  0.00     0.166 HD
BRANCH  13  15
ATOM     15  C   UNL     1       0.175  13.977  -0.968  1.00  0.00     0.083 C 
BRANCH  15  16
ATOM     16  C   UNL     1       1.123  14.748  -1.516  1.00  0.00     0.027 C 
BRANCH  16  17
ATOM     17  C   UNL     1       1.097  16.211  -1.365  1.00  0.00    -0.003 A 
ATOM     18  C   UNL     1       2.132  17.036  -1.839  1.00  0.00    -0.041 A 
ATOM     19  C   UNL     1       0.039  16.846  -0.698  1.00  0.00     0.119 A 
ATOM     20  C   UNL     1       2.038  18.421  -1.631  1.00  0.00     0.024 A 
ATOM     21  N   UNL     1      -0.076  18.181  -0.505  1.00  0.00    -0.264 NA
ATOM     22  C   UNL     1       0.928  18.938  -0.981  1.00  0.00     0.111 A 
ATOM     23  C   UNL     1       3.351  16.486  -2.524  1.00  0.00     0.045 C 
ENDBRANCH  16  17
ENDBRANCH  15  16
ENDBRANCH  13  15
ENDBRANCH   4  13
TORSDOF 8
ENDMDL
MODEL 3
REMARK VINA RESULT:    -5.008      4.944      6.920
REMARK INTER + INTRA:          -7.824
REMARK INTER:                  -7.111
REMARK INTRA:                  -0.713
REMARK UNBOUND:                -0.620
REMARK SMILES Cc1ccncc1/C=C/Nc1ccc(CCCN)cc1
REMARK SMILES IDX 14 1 13 2 12 3 11 4 20 5 19 6 15 7 16 8 17 9 18 10 10 13
REMARK SMILES IDX 9 15 8 16 7 17 2 18 6 19 3 20 5 21 4 22 1 23
REMARK H PARENT 18 11 18 12 10 14
ROOT
ATOM      1  C   UNL     1       2.313  16.524  -2.046  1.00  0.00    -0.048 A 
ATOM      2  C   UNL     1       1.092  16.934  -1.506  1.00  0.00     0.006 A 
ATOM      3  C   UNL     1       0.191  16.002  -0.999  1.00  0.00     0.026 A 
ATOM      4  C   UNL     1       0.435  14.629  -1.079  1.00  0.00     0.038 A 
ATOM      5  C   UNL     1       1.634  14.214  -1.672  1.00  0.00     0.026 A 
ATOM      6  C   UNL     1       2.563  15.150  -2.151  1.00  0.00     0.006 A 
ENDROOT
BRANCH   1   7
ATOM      7  C   UNL     1       3.340  17.529  -2.507  1.00  0.00     0.037 C 
BRANCH   7   8
ATOM      8  C   UNL     1       3.913  17.332  -3.923  1.00  0.00     0.020 C 
BRANCH   8   9
ATOM      9  C   UNL     1       3.143  18.015  -5.063  1.00  0.00     0.078 C 
BRANCH   9  10
ATOM     10  N   UNL     1       2.193  17.161  -5.762  1.00  0.00    -0.330 NA
ATOM     11  H   UNL     1       1.778  17.667  -6.543  1.00  0.00     0.118 HD
ATOM     12  H   UNL     1       1.415  16.923  -5.146  1.00  0.00     0.118 HD
ENDBRANCH   9  10
ENDBRANCH   8   9
ENDBRANCH   7   8
ENDBRANCH   1   7
BRANCH   4  13
ATOM     13  N   UNL     1      -0.522  13.678  -0.677  1.00  0.00    -0.362 N 
ATOM     14  H   UNL     1      -0.614  13.519   0.319  1.00  0.00     0.166 HD
BRANCH  13  15
ATOM     15  C   UNL     1      -1.140  12.787  -1.514  1.00  0.00     0.083 C 
BRANCH  15  16
ATOM     16  C   UNL     1      -1.839  11.686  -1.210  1.00  0.00     0.027 C 
BRANCH  16  17
ATOM     17  C   UNL     1      -1.488  10.378  -1.782  1.00  0.00    -0.003 A 
ATOM     18  C   UNL     1      -1.453   9.202  -1.012  1.00  0.00    -0.041 A 
ATOM     19  C   UNL     1      -1.131  10.256  -3.134  1.00  0.00     0.119 A 
ATOM     20  C   UNL     1      -1.084   7.999  -1.634  1.00  0.00     0.024 A 
ATOM     21  N   UNL     1      -0.790   9.102  -3.753  1.00  0.00    -0.264 NA
ATOM     22  C   UNL     1      -0.778   7.998  -2.986  1.00  0.00     0.111 A 
ATOM     23  C   UNL     1      -1.760   9.195   0.459  1.00  0.00     0.045 C 
ENDBRANCH  16  17
ENDBRANCH  15  16
ENDBRANCH  13  15
ENDBRANCH   4  13
TORSDOF 8
ENDMDL
MODEL 4
REMARK VINA RESULT:    -4.993      1.997      8.725
REMARK INTER + INTRA:          -7.802
REMARK INTER:                  -7.228
REMARK INTRA:                  -0.573
REMARK UNBOUND:                -0.620
REMARK SMILES Cc1ccncc1/C=C/Nc1ccc(CCCN)cc1
REMARK SMILES IDX 14 1 13 2 12 3 11 4 20 5 19 6 15 7 16 8 17 9 18 10 10 13
REMARK SMILES IDX 9 15 8 16 7 17 2 18 6 19 3 20 5 21 4 22 1 23
REMARK H PARENT 18 11 18 12 10 14
ROOT
ATOM      1  C   UNL     1      -0.969   9.598  -0.841  1.00  0.00    -0.048 A 
ATOM      2  C   UNL     1      -1.114   9.803  -2.214  1.00  0.00     0.006 A 
ATOM      3  C   UNL     1      -1.703  10.967  -2.700  1.00  0.00     0.026 A 
ATOM      4  C   UNL     1      -2.239  11.930  -1.842  1.00  0.00     0.038 A 
ATOM      5  C   UNL     1      -2.145  11.699  -0.465  1.00  0.00     0.026 A 
ATOM      6  C   UNL     1      -1.518  10.546   0.032  1.00  0.00     0.006 A 
ENDROOT
BRANCH   1   7
ATOM      7  C   UNL     1      -0.243   8.390  -0.304  1.00  0.00     0.037 C 
BRANCH   7   8
ATOM      8  C   UNL     1      -0.851   7.713   0.940  1.00  0.00     0.020 C 
BRANCH   8   9
ATOM      9  C   UNL     1       0.137   7.346   2.057  1.00  0.00     0.078 C 
BRANCH   9  10
ATOM     10  N   UNL     1       0.909   6.134   1.821  1.00  0.00    -0.330 NA
ATOM     11  H   UNL     1       0.330   5.313   1.994  1.00  0.00     0.118 HD
ATOM     12  H   UNL     1       1.678   6.072   2.488  1.00  0.00     0.118 HD
ENDBRANCH   9  10
ENDBRANCH   8   9
ENDBRANCH   7   8
ENDBRANCH   1   7
BRANCH   4  13
ATOM     13  N   UNL     1      -2.941  13.051  -2.326  1.00  0.00    -0.362 N 
ATOM     14  H   UNL     1      -2.678  13.951  -1.945  1.00  0.00     0.166 HD
BRANCH  13  15
ATOM     15  C   UNL     1      -4.097  12.993  -3.058  1.00  0.00     0.083 C 
BRANCH  15  16
ATOM     16  C   UNL     1      -5.251  13.646  -2.869  1.00  0.00     0.027 C 
BRANCH  16  17
ATOM     17  C   UNL     1      -5.556  14.884  -3.602  1.00  0.00    -0.003 A 
ATOM     18  C   UNL     1      -6.759  15.590  -3.423  1.00  0.00    -0.041 A 
ATOM     19  C   UNL     1      -4.659  15.398  -4.551  1.00  0.00     0.119 A 
ATOM     20  C   UNL     1      -6.979  16.750  -4.181  1.00  0.00     0.024 A 
ATOM     21  N   UNL     1      -4.847  16.524  -5.277  1.00  0.00    -0.264 NA
ATOM     22  C   UNL     1      -6.005  17.176  -5.071  1.00  0.00     0.111 A 
ATOM     23  C   UNL     1      -7.832  15.125  -2.479  1.00  0.00     0.045 C 
ENDBRANCH  16  17
ENDBRANCH  15  16
ENDBRANCH  13  15
ENDBRANCH   4  13
TORSDOF 8
ENDMDL
MODEL 5
REMARK VINA RESULT:    -4.989      4.659      8.527
REMARK INTER + INTRA:          -7.796
REMARK INTER:                  -7.229
REMARK INTRA:                  -0.566
REMARK UNBOUND:                -0.620
REMARK SMILES Cc1ccncc1/C=C/Nc1ccc(CCCN)cc1
REMARK SMILES IDX 14 1 13 2 12 3 11 4 20 5 19 6 15 7 16 8 17 9 18 10 10 13
REMARK SMILES IDX 9 15 8 16 7 17 2 18 6 19 3 20 5 21 4 22 1 23
REMARK H PARENT 18 11 18 12 10 14
ROOT
ATOM      1  C   UNL     1      -1.847   8.946  -0.337  1.00  0.00    -0.048 A 
ATOM      2  C   UNL     1      -2.023   9.988   0.576  1.00  0.00     0.006 A 
ATOM      3  C   UNL     1      -1.927  11.315   0.167  1.00  0.00     0.026 A 
ATOM      4  C   UNL     1      -1.578  11.654  -1.143  1.00  0.00     0.038 A 
ATOM      5  C   UNL     1      -1.345  10.610  -2.046  1.00  0.00     0.026 A 
ATOM      6  C   UNL     1      -1.477   9.271  -1.648  1.00  0.00     0.006 A 
ENDROOT
BRANCH   1   7
ATOM      7  C   UNL     1      -2.047   7.508   0.071  1.00  0.00     0.037 C 
BRANCH   7   8
ATOM      8  C   UNL     1      -0.774   6.678   0.327  1.00  0.00     0.020 C 
BRANCH   8   9
ATOM      9  C   UNL     1       0.153   7.191   1.439  1.00  0.00     0.078 C 
BRANCH   9  10
ATOM     10  N   UNL     1      -0.195   6.751   2.782  1.00  0.00    -0.330 NA
ATOM     11  H   UNL     1      -0.833   7.419   3.214  1.00  0.00     0.118 HD
ATOM     12  H   UNL     1       0.634   6.742   3.375  1.00  0.00     0.118 HD
ENDBRANCH   9  10
ENDBRANCH   8   9
ENDBRANCH   7   8
ENDBRANCH   1   7
BRANCH   4  13
ATOM     13  N   UNL     1      -1.363  12.990  -1.534  1.00  0.00    -0.362 N 
ATOM     14  H   UNL     1      -2.128  13.453  -2.008  1.00  0.00     0.166 HD
BRANCH  13  15
ATOM     15  C   UNL     1      -0.143  13.612  -1.555  1.00  0.00     0.083 C 
BRANCH  15  16
ATOM     16  C   UNL     1       0.297  14.636  -0.812  1.00  0.00     0.027 C 
BRANCH  16  17
ATOM     17  C   UNL     1       1.194  15.657  -1.375  1.00  0.00    -0.003 A 
ATOM     18  C   UNL     1       0.911  17.032  -1.303  1.00  0.00    -0.041 A 
ATOM     19  C   UNL     1       2.367  15.290  -2.051  1.00  0.00     0.119 A 
ATOM     20  C   UNL     1       1.809  17.937  -1.888  1.00  0.00     0.024 A 
ATOM     21  N   UNL     1       3.254  16.149  -2.605  1.00  0.00    -0.264 NA
ATOM     22  C   UNL     1       2.953  17.456  -2.507  1.00  0.00     0.111 A 
ATOM     23  C   UNL     1      -0.337  17.564  -0.656  1.00  0.00     0.045 C 
ENDBRANCH  16  17
ENDBRANCH  15  16
ENDBRANCH  13  15
ENDBRANCH   4  13
TORSDOF 8
ENDMDL
MODEL 6
REMARK VINA RESULT:    -4.947      2.013      8.527
REMARK INTER + INTRA:          -7.736
REMARK INTER:                  -7.070
REMARK INTRA:                  -0.666
REMARK UNBOUND:                -0.620
REMARK SMILES Cc1ccncc1/C=C/Nc1ccc(CCCN)cc1
REMARK SMILES IDX 14 1 13 2 12 3 11 4 20 5 19 6 15 7 16 8 17 9 18 10 10 13
REMARK SMILES IDX 9 15 8 16 7 17 2 18 6 19 3 20 5 21 4 22 1 23
REMARK H PARENT 18 11 18 12 10 14
ROOT
ATOM      1  C   UNL     1      -0.902   8.858  -1.890  1.00  0.00    -0.048 A 
ATOM      2  C   UNL     1      -0.960   9.466  -3.146  1.00  0.00     0.006 A 
ATOM      3  C   UNL     1      -1.351  10.796  -3.274  1.00  0.00     0.026 A 
ATOM      4  C   UNL     1      -1.773  11.544  -2.173  1.00  0.00     0.038 A 
ATOM      5  C   UNL     1      -1.770  10.919  -0.920  1.00  0.00     0.026 A 
ATOM      6  C   UNL     1      -1.340   9.590  -0.779  1.00  0.00     0.006 A 
ENDROOT
BRANCH   1   7
ATOM      7  C   UNL     1      -0.384   7.451  -1.726  1.00  0.00     0.037 C 
BRANCH   7   8
ATOM      8  C   UNL     1      -1.406   6.384  -1.289  1.00  0.00     0.020 C 
BRANCH   8   9
ATOM      9  C   UNL     1      -2.405   5.928  -2.362  1.00  0.00     0.078 C 
BRANCH   9  10
ATOM     10  N   UNL     1      -1.816   5.218  -3.488  1.00  0.00    -0.330 NA
ATOM     11  H   UNL     1      -1.468   5.883  -4.177  1.00  0.00     0.118 HD
ATOM     12  H   UNL     1      -2.529   4.672  -3.972  1.00  0.00     0.118 HD
ENDBRANCH   9  10
ENDBRANCH   8   9
ENDBRANCH   7   8
ENDBRANCH   1   7
BRANCH   4  13
ATOM     13  N   UNL     1      -2.282  12.850  -2.311  1.00  0.00    -0.362 N 
ATOM     14  H   UNL     1      -1.642  13.610  -2.120  1.00  0.00     0.166 HD
BRANCH  13  15
ATOM     15  C   UNL     1      -3.611  13.163  -2.427  1.00  0.00     0.083 C 
BRANCH  15  16
ATOM     16  C   UNL     1      -4.295  13.558  -3.509  1.00  0.00     0.027 C 
BRANCH  16  17
ATOM     17  C   UNL     1      -5.476  14.427  -3.388  1.00  0.00    -0.003 A 
ATOM     18  C   UNL     1      -5.580  15.656  -4.064  1.00  0.00    -0.041 A 
ATOM     19  C   UNL     1      -6.545  14.076  -2.550  1.00  0.00     0.119 A 
ATOM     20  C   UNL     1      -6.732  16.434  -3.873  1.00  0.00     0.024 A 
ATOM     21  N   UNL     1      -7.670  14.806  -2.369  1.00  0.00    -0.264 NA
ATOM     22  C   UNL     1      -7.737  15.969  -3.040  1.00  0.00     0.111 A 
ATOM     23  C   UNL     1      -4.487  16.182  -4.951  1.00  0.00     0.045 C 
ENDBRANCH  16  17
ENDBRANCH  15  16
ENDBRANCH  13  15
ENDBRANCH   4  13
TORSDOF 8
ENDMDL
MODEL 7
REMARK VINA RESULT:    -4.936      1.712      8.600
REMARK INTER + INTRA:          -7.720
REMARK INTER:                  -7.179
REMARK INTRA:                  -0.541
REMARK UNBOUND:                -0.620
REMARK SMILES Cc1ccncc1/C=C/Nc1ccc(CCCN)cc1
REMARK SMILES IDX 14 1 13 2 12 3 11 4 20 5 19 6 15 7 16 8 17 9 18 10 10 13
REMARK SMILES IDX 9 15 8 16 7 17 2 18 6 19 3 20 5 21 4 22 1 23
REMARK H PARENT 18 11 18 12 10 14
ROOT
ATOM      1  C   UNL     1      -0.989   9.310  -0.969  1.00  0.00    -0.048 A 
ATOM      2  C   UNL     1      -1.065   9.628  -2.326  1.00  0.00     0.006 A 
ATOM      3  C   UNL     1      -1.541  10.868  -2.740  1.00  0.00     0.026 A 
ATOM      4  C   UNL     1      -2.031  11.806  -1.827  1.00  0.00     0.038 A 
ATOM      5  C   UNL     1      -2.008  11.466  -0.469  1.00  0.00     0.026 A 
ATOM      6  C   UNL     1      -1.493  10.232  -0.044  1.00  0.00     0.006 A 
ENDROOT
BRANCH   1   7
ATOM      7  C   UNL     1      -0.381   8.010  -0.504  1.00  0.00     0.037 C 
BRANCH   7   8
ATOM      8  C   UNL     1      -0.884   7.453   0.842  1.00  0.00     0.020 C 
BRANCH   8   9
ATOM      9  C   UNL     1       0.175   7.297   1.944  1.00  0.00     0.078 C 
BRANCH   9  10
ATOM     10  N   UNL     1       0.975   6.084   1.861  1.00  0.00    -0.330 NA
ATOM     11  H   UNL     1       0.485   5.380   1.310  1.00  0.00     0.118 HD
ATOM     12  H   UNL     1       1.091   5.675   2.788  1.00  0.00     0.118 HD
ENDBRANCH   9  10
ENDBRANCH   8   9
ENDBRANCH   7   8
ENDBRANCH   1   7
BRANCH   4  13
ATOM     13  N   UNL     1      -2.623  13.013  -2.245  1.00  0.00    -0.362 N 
ATOM     14  H   UNL     1      -2.099  13.861  -2.068  1.00  0.00     0.166 HD
BRANCH  13  15
ATOM     15  C   UNL     1      -3.932  13.151  -2.626  1.00  0.00     0.083 C 
BRANCH  15  16
ATOM     16  C   UNL     1      -4.446  13.851  -3.646  1.00  0.00     0.027 C 
BRANCH  16  17
ATOM     17  C   UNL     1      -5.649  14.680  -3.471  1.00  0.00    -0.003 A 
ATOM     18  C   UNL     1      -5.826  15.903  -4.143  1.00  0.00    -0.041 A 
ATOM     19  C   UNL     1      -6.665  14.295  -2.585  1.00  0.00     0.119 A 
ATOM     20  C   UNL     1      -6.993  16.642  -3.900  1.00  0.00     0.024 A 
ATOM     21  N   UNL     1      -7.805  14.986  -2.352  1.00  0.00    -0.264 NA
ATOM     22  C   UNL     1      -7.943  16.145  -3.020  1.00  0.00     0.111 A 
ATOM     23  C   UNL     1      -4.793  16.463  -5.080  1.00  0.00     0.045 C 
ENDBRANCH  16  17
ENDBRANCH  15  16
ENDBRANCH  13  15
ENDBRANCH   4  13
TORSDOF 8
ENDMDL
MODEL 8
REMARK VINA RESULT:    -4.914      4.721      8.574
REMARK INTER + INTRA:          -7.688
REMARK INTER:                  -7.162
REMARK INTRA:                  -0.526
REMARK UNBOUND:                -0.620
REMARK SMILES Cc1ccncc1/C=C/Nc1ccc(CCCN)cc1
REMARK SMILES IDX 14 1 13 2 12 3 11 4 20 5 19 6 15 7 16 8 17 9 18 10 10 13
REMARK SMILES IDX 9 15 8 16 7 17 2 18 6 19 3 20 5 21 4 22 1 23
REMARK H PARENT 18 11 18 12 10 14
ROOT
ATOM      1  C   UNL     1      -1.836   9.050  -1.104  1.00  0.00    -0.048 A 
ATOM      2  C   UNL     1      -1.890   9.920  -0.013  1.00  0.00     0.006 A 
ATOM      3  C   UNL     1      -1.733  11.292  -0.190  1.00  0.00     0.026 A 
ATOM      4  C   UNL     1      -1.441  11.840  -1.442  1.00  0.00     0.038 A 
ATOM      5  C   UNL     1      -1.330  10.962  -2.527  1.00  0.00     0.026 A 
ATOM      6  C   UNL     1      -1.524   9.583  -2.361  1.00  0.00     0.006 A 
ENDROOT
BRANCH   1   7
ATOM      7  C   UNL     1      -2.104   7.575  -0.939  1.00  0.00     0.037 C 
BRANCH   7   8
ATOM      8  C   UNL     1      -1.409   6.630  -1.938  1.00  0.00     0.020 C 
BRANCH   8   9
ATOM      9  C   UNL     1      -2.333   5.864  -2.896  1.00  0.00     0.078 C 
BRANCH   9  10
ATOM     10  N   UNL     1      -2.912   4.645  -2.350  1.00  0.00    -0.330 NA
ATOM     11  H   UNL     1      -2.257   3.871  -2.455  1.00  0.00     0.118 HD
ATOM     12  H   UNL     1      -3.739   4.378  -2.884  1.00  0.00     0.118 HD
ENDBRANCH   9  10
ENDBRANCH   8   9
ENDBRANCH   7   8
ENDBRANCH   1   7
BRANCH   4  13
ATOM     13  N   UNL     1      -1.163  13.210  -1.608  1.00  0.00    -0.362 N 
ATOM     14  H   UNL     1      -1.828  13.745  -2.153  1.00  0.00     0.166 HD
BRANCH  13  15
ATOM     15  C   UNL     1       0.035  13.807  -1.318  1.00  0.00     0.083 C 
BRANCH  15  16
ATOM     16  C   UNL     1       0.274  15.031  -0.829  1.00  0.00     0.027 C 
BRANCH  16  17
ATOM     17  C   UNL     1       1.277  15.914  -1.444  1.00  0.00    -0.003 A 
ATOM     18  C   UNL     1       1.154  17.315  -1.436  1.00  0.00    -0.041 A 
ATOM     19  C   UNL     1       2.394  15.384  -2.106  1.00  0.00     0.119 A 
ATOM     20  C   UNL     1       2.145  18.082  -2.067  1.00  0.00     0.024 A 
ATOM     21  N   UNL     1       3.368  16.109  -2.704  1.00  0.00    -0.264 NA
ATOM     22  C   UNL     1       3.220  17.446  -2.666  1.00  0.00     0.111 A 
ATOM     23  C   UNL     1      -0.019  18.016  -0.810  1.00  0.00     0.045 C 
ENDBRANCH  16  17
ENDBRANCH  15  16
ENDBRANCH  13  15
ENDBRANCH   4  13
TORSDOF 8
ENDMDL
MODEL 9
REMARK VINA RESULT:    -4.866      4.769      6.617
REMARK INTER + INTRA:          -7.619
REMARK INTER:                  -7.024
REMARK INTRA:                  -0.595
REMARK UNBOUND:                -0.620
REMARK SMILES Cc1ccncc1/C=C/Nc1ccc(CCCN)cc1
REMARK SMILES IDX 14 1 13 2 12 3 11 4 20 5 19 6 15 7 16 8 17 9 18 10 10 13
REMARK SMILES IDX 9 15 8 16 7 17 2 18 6 19 3 20 5 21 4 22 1 23
REMARK H PARENT 18 11 18 12 10 14
ROOT
ATOM      1  C   UNL     1       2.200  16.444  -1.958  1.00  0.00    -0.048 A 
ATOM      2  C   UNL     1       0.951  16.772  -1.426  1.00  0.00     0.006 A 
ATOM      3  C   UNL     1       0.091  15.777  -0.969  1.00  0.00     0.026 A 
ATOM      4  C   UNL     1       0.406  14.422  -1.094  1.00  0.00     0.038 A 
ATOM      5  C   UNL     1       1.634  14.091  -1.680  1.00  0.00     0.026 A 
ATOM      6  C   UNL     1       2.521  15.090  -2.108  1.00  0.00     0.006 A 
ENDROOT
BRANCH   1   7
ATOM      7  C   UNL     1       3.180  17.516  -2.363  1.00  0.00     0.037 C 
BRANCH   7   8
ATOM      8  C   UNL     1       3.764  17.418  -3.786  1.00  0.00     0.020 C 
BRANCH   8   9
ATOM      9  C   UNL     1       2.963  18.122  -4.892  1.00  0.00     0.078 C 
BRANCH   9  10
ATOM     10  N   UNL     1       2.242  17.232  -5.791  1.00  0.00    -0.330 NA
ATOM     11  H   UNL     1       2.879  16.848  -6.488  1.00  0.00     0.118 HD
ATOM     12  H   UNL     1       1.544  17.756  -6.319  1.00  0.00     0.118 HD
ENDBRANCH   9  10
ENDBRANCH   8   9
ENDBRANCH   7   8
ENDBRANCH   1   7
BRANCH   4  13
ATOM     13  N   UNL     1      -0.508  13.410  -0.744  1.00  0.00    -0.362 N 
ATOM     14  H   UNL     1      -0.368  12.963   0.154  1.00  0.00     0.166 HD
BRANCH  13  15
ATOM     15  C   UNL     1      -1.390  12.818  -1.609  1.00  0.00     0.083 C 
BRANCH  15  16
ATOM     16  C   UNL     1      -1.545  11.520  -1.902  1.00  0.00     0.027 C 
BRANCH  16  17
ATOM     17  C   UNL     1      -1.627  10.504  -0.841  1.00  0.00    -0.003 A 
ATOM     18  C   UNL     1      -1.337   9.148  -1.072  1.00  0.00    -0.041 A 
ATOM     19  C   UNL     1      -2.042  10.849   0.454  1.00  0.00     0.119 A 
ATOM     20  C   UNL     1      -1.464   8.241  -0.009  1.00  0.00     0.024 A 
ATOM     21  N   UNL     1      -2.152   9.991   1.495  1.00  0.00    -0.264 NA
ATOM     22  C   UNL     1      -1.857   8.704   1.237  1.00  0.00     0.111 A 
ATOM     23  C   UNL     1      -0.933   8.630  -2.424  1.00  0.00     0.045 C 
ENDBRANCH  16  17
ENDBRANCH  15  16
ENDBRANCH  13  15
ENDBRANCH   4  13
TORSDOF 8
ENDMDL
