MODEL 1
REMARK VINA RESULT:    -5.069      0.000      0.000
REMARK INTER + INTRA:          -7.867
REMARK INTER:                  -7.292
REMARK INTRA:                  -0.575
REMARK UNBOUND:                -0.575
REMARK SMILES Cc1ccncc1/C=C/Nc1ccc(CCCN)cc1
REMARK SMILES IDX 14 1 13 2 12 3 11 4 20 5 19 6 15 7 16 8 17 9 18 10 10 13
REMARK SMILES IDX 9 15 8 16 7 17 2 18 6 19 3 20 5 21 4 22 1 23
REMARK H PARENT 18 11 18 12 10 14
ROOT
ATOM      1  C   UNL     1       6.125   1.867   6.562  1.00  0.00    -0.048 A 
ATOM      2  C   UNL     1       6.077   3.173   7.055  1.00  0.00     0.006 A 
ATOM      3  C   UNL     1       6.481   3.456   8.357  1.00  0.00     0.026 A 
ATOM      4  C   UNL     1       6.872   2.445   9.238  1.00  0.00     0.038 A 
ATOM      5  C   UNL     1       6.867   1.128   8.763  1.00  0.00     0.026 A 
ATOM      6  C   UNL     1       6.497   0.842   7.440  1.00  0.00     0.006 A 
ENDROOT
BRANCH   1   7
ATOM      7  C   UNL     1       5.787   1.563   5.124  1.00  0.00     0.037 C 
BRANCH   7   8
ATOM      8  C   UNL     1       4.818   0.390   4.875  1.00  0.00     0.020 C 
BRANCH   8   9
ATOM      9  C   UNL     1       5.348  -0.742   3.983  1.00  0.00     0.078 C 
BRANCH   9  10
ATOM     10  N   UNL     1       5.029  -0.613   2.569  1.00  0.00    -0.330 NA
ATOM     11  H   UNL     1       4.424   0.194   2.420  1.00  0.00     0.118 HD
ATOM     12  H   UNL     1       4.490  -1.420   2.254  1.00  0.00     0.118 HD
ENDBRANCH   9  10
ENDBRANCH   8   9
ENDBRANCH   7   8
ENDBRANCH   1   7
BRANCH   4  13
ATOM     13  N   UNL     1       7.167   2.709  10.589  1.00  0.00    -0.362 N 
ATOM     14  H   UNL     1       7.949   2.205  10.990  1.00  0.00     0.166 HD
BRANCH  13  15
ATOM     15  C   UNL     1       6.343   3.379  11.454  1.00  0.00     0.083 C 
BRANCH  15  16
ATOM     16  C   UNL     1       5.996   3.062  12.709  1.00  0.00     0.027 C 
BRANCH  16  17
ATOM     17  C   UNL     1       6.929   3.253  13.829  1.00  0.00    -0.003 A 
ATOM     18  C   UNL     1       6.774   2.594  15.061  1.00  0.00    -0.041 A 
ATOM     19  C   UNL     1       8.008   4.144  13.723  1.00  0.00     0.119 A 
ATOM     20  C   UNL     1       7.698   2.852  16.085  1.00  0.00     0.024 A 
ATOM     21  N   UNL     1       8.918   4.392  14.694  1.00  0.00    -0.264 NA
ATOM     22  C   UNL     1       8.741   3.735  15.854  1.00  0.00     0.111 A 
ATOM     23  C   UNL     1       5.634   1.653  15.332  1.00  0.00     0.045 C 
ENDBRANCH  16  17
ENDBRANCH  15  16
ENDBRANCH  13  15
ENDBRANCH   4  13
TORSDOF 8
ENDMDL
MODEL 2
REMARK VINA RESULT:    -5.027      1.077      1.658
REMARK INTER + INTRA:          -7.806
REMARK INTER:                  -7.256
REMARK INTRA:                  -0.550
REMARK UNBOUND:                -0.575
REMARK SMILES Cc1ccncc1/C=C/Nc1ccc(CCCN)cc1
REMARK SMILES IDX 14 1 13 2 12 3 11 4 20 5 19 6 15 7 16 8 17 9 18 10 10 13
REMARK SMILES IDX 9 15 8 16 7 17 2 18 6 19 3 20 5 21 4 22 1 23
REMARK H PARENT 18 11 18 12 10 14
ROOT
ATOM      1  C   UNL     1       5.991   1.903   6.467  1.00  0.00    -0.048 A 
ATOM      2  C   UNL     1       6.010   3.200   6.982  1.00  0.00     0.006 A 
ATOM      3  C   UNL     1       6.512   3.451   8.256  1.00  0.00     0.026 A 
ATOM      4  C   UNL     1       6.941   2.416   9.091  1.00  0.00     0.038 A 
ATOM      5  C   UNL     1       6.870   1.108   8.596  1.00  0.00     0.026 A 
ATOM      6  C   UNL     1       6.400   0.853   7.299  1.00  0.00     0.006 A 
ENDROOT
BRANCH   1   7
ATOM      7  C   UNL     1       5.544   1.632   5.052  1.00  0.00     0.037 C 
BRANCH   7   8
ATOM      8  C   UNL     1       4.689   0.369   4.827  1.00  0.00     0.020 C 
BRANCH   8   9
ATOM      9  C   UNL     1       5.329  -0.734   3.971  1.00  0.00     0.078 C 
BRANCH   9  10
ATOM     10  N   UNL     1       5.050  -0.646   2.545  1.00  0.00    -0.330 NA
ATOM     11  H   UNL     1       5.844  -0.231   2.059  1.00  0.00     0.118 HD
ATOM     12  H   UNL     1       4.267  -0.014   2.378  1.00  0.00     0.118 HD
ENDBRANCH   9  10
ENDBRANCH   8   9
ENDBRANCH   7   8
ENDBRANCH   1   7
BRANCH   4  13
ATOM     13  N   UNL     1       7.338   2.649  10.422  1.00  0.00    -0.362 N 
ATOM     14  H   UNL     1       8.293   2.412  10.659  1.00  0.00     0.166 HD
BRANCH  13  15
ATOM     15  C   UNL     1       6.483   2.920  11.457  1.00  0.00     0.083 C 
BRANCH  15  16
ATOM     16  C   UNL     1       6.620   3.799  12.459  1.00  0.00     0.027 C 
BRANCH  16  17
ATOM     17  C   UNL     1       6.741   3.351  13.854  1.00  0.00    -0.003 A 
ATOM     18  C   UNL     1       7.868   3.640  14.644  1.00  0.00    -0.041 A 
ATOM     19  C   UNL     1       5.737   2.574  14.450  1.00  0.00     0.119 A 
ATOM     20  C   UNL     1       7.913   3.153  15.959  1.00  0.00     0.024 A 
ATOM     21  N   UNL     1       5.756   2.111  15.722  1.00  0.00    -0.264 NA
ATOM     22  C   UNL     1       6.845   2.417  16.448  1.00  0.00     0.111 A 
ATOM     23  C   UNL     1       9.042   4.418  14.118  1.00  0.00     0.045 C 
ENDBRANCH  16  17
ENDBRANCH  15  16
ENDBRANCH  13  15
ENDBRANCH   4  13
TORSDOF 8
ENDMDL
MODEL 3
REMARK VINA RESULT:    -5.011      1.934      8.619
REMARK INTER + INTRA:          -7.783
REMARK INTER:                  -7.123
REMARK INTRA:                  -0.660
REMARK UNBOUND:                -0.575
REMARK SMILES Cc1ccncc1/C=C/Nc1ccc(CCCN)cc1
REMARK SMILES IDX 14 1 13 2 12 3 11 4 20 5 19 6 15 7 16 8 17 9 18 10 10 13
REMARK SMILES IDX 9 15 8 16 7 17 2 18 6 19 3 20 5 21 4 22 1 23
REMARK H PARENT 18 11 18 12 10 14
ROOT
ATOM      1  C   UNL     1       6.521   2.831  15.004  1.00  0.00    -0.048 A 
ATOM      2  C   UNL     1       5.586   2.232  14.156  1.00  0.00     0.006 A 
ATOM      3  C   UNL     1       5.645   2.431  12.780  1.00  0.00     0.026 A 
ATOM      4  C   UNL     1       6.584   3.290  12.204  1.00  0.00     0.038 A 
ATOM      5  C   UNL     1       7.487   3.935  13.058  1.00  0.00     0.026 A 
ATOM      6  C   UNL     1       7.456   3.709  14.442  1.00  0.00     0.006 A 
ENDROOT
BRANCH   1   7
ATOM      7  C   UNL     1       6.529   2.543  16.484  1.00  0.00     0.037 C 
BRANCH   7   8
ATOM      8  C   UNL     1       6.797   1.085  16.904  1.00  0.00     0.020 C 
BRANCH   8   9
ATOM      9  C   UNL     1       8.272   0.694  17.075  1.00  0.00     0.078 C 
BRANCH   9  10
ATOM     10  N   UNL     1       8.705  -0.440  16.271  1.00  0.00    -0.330 NA
ATOM     11  H   UNL     1       8.501  -1.311  16.758  1.00  0.00     0.118 HD
ATOM     12  H   UNL     1       9.719  -0.422  16.155  1.00  0.00     0.118 HD
ENDBRANCH   9  10
ENDBRANCH   8   9
ENDBRANCH   7   8
ENDBRANCH   1   7
BRANCH   4  13
ATOM     13  N   UNL     1       6.575   3.588  10.828  1.00  0.00    -0.362 N 
ATOM     14  H   UNL     1       5.922   4.298  10.521  1.00  0.00     0.166 HD
BRANCH  13  15
ATOM     15  C   UNL     1       7.178   2.830   9.859  1.00  0.00     0.083 C 
BRANCH  15  16
ATOM     16  C   UNL     1       7.053   2.904   8.527  1.00  0.00     0.027 C 
BRANCH  16  17
ATOM     17  C   UNL     1       6.364   1.850   7.767  1.00  0.00    -0.003 A 
ATOM     18  C   UNL     1       5.527   2.133   6.673  1.00  0.00    -0.041 A 
ATOM     19  C   UNL     1       6.487   0.501   8.134  1.00  0.00     0.119 A 
ATOM     20  C   UNL     1       4.890   1.068   6.019  1.00  0.00     0.024 A 
ATOM     21  N   UNL     1       5.894  -0.539   7.503  1.00  0.00    -0.264 NA
ATOM     22  C   UNL     1       5.110  -0.229   6.456  1.00  0.00     0.111 A 
ATOM     23  C   UNL     1       5.262   3.536   6.205  1.00  0.00     0.045 C 
ENDBRANCH  16  17
ENDBRANCH  15  16
ENDBRANCH  13  15
ENDBRANCH   4  13
TORSDOF 8
ENDMDL
MODEL 4
REMARK VINA RESULT:    -5.003      2.130      2.643
REMARK INTER + INTRA:          -7.772
REMARK INTER:                  -7.219
REMARK INTRA:                  -0.553
REMARK UNBOUND:                -0.575
REMARK SMILES Cc1ccncc1/C=C/Nc1ccc(CCCN)cc1
REMARK SMILES IDX 14 1 13 2 12 3 11 4 20 5 19 6 15 7 16 8 17 9 18 10 10 13
REMARK SMILES IDX 9 15 8 16 7 17 2 18 6 19 3 20 5 21 4 22 1 23
REMARK H PARENT 18 11 18 12 10 14
ROOT
ATOM      1  C   UNL     1       5.338   2.529   6.045  1.00  0.00    -0.048 A 
ATOM      2  C   UNL     1       5.667   3.787   6.554  1.00  0.00     0.006 A 
ATOM      3  C   UNL     1       6.398   3.908   7.732  1.00  0.00     0.026 A 
ATOM      4  C   UNL     1       6.760   2.790   8.487  1.00  0.00     0.038 A 
ATOM      5  C   UNL     1       6.382   1.530   8.008  1.00  0.00     0.026 A 
ATOM      6  C   UNL     1       5.678   1.400   6.800  1.00  0.00     0.006 A 
ENDROOT
BRANCH   1   7
ATOM      7  C   UNL     1       4.636   2.383   4.718  1.00  0.00     0.037 C 
BRANCH   7   8
ATOM      8  C   UNL     1       3.115   2.140   4.764  1.00  0.00     0.020 C 
BRANCH   8   9
ATOM      9  C   UNL     1       2.283   3.212   5.483  1.00  0.00     0.078 C 
BRANCH   9  10
ATOM     10  N   UNL     1       2.134   4.465   4.756  1.00  0.00    -0.330 NA
ATOM     11  H   UNL     1       2.394   5.248   5.355  1.00  0.00     0.118 HD
ATOM     12  H   UNL     1       1.154   4.618   4.517  1.00  0.00     0.118 HD
ENDBRANCH   9  10
ENDBRANCH   8   9
ENDBRANCH   7   8
ENDBRANCH   1   7
BRANCH   4  13
ATOM     13  N   UNL     1       7.394   2.910   9.739  1.00  0.00    -0.362 N 
ATOM     14  H   UNL     1       8.406   2.913   9.737  1.00  0.00     0.166 HD
BRANCH  13  15
ATOM     15  C   UNL     1       6.769   2.764  10.949  1.00  0.00     0.083 C 
BRANCH  15  16
ATOM     16  C   UNL     1       6.608   3.662  11.931  1.00  0.00     0.027 C 
BRANCH  16  17
ATOM     17  C   UNL     1       6.617   3.255  13.344  1.00  0.00    -0.003 A 
ATOM     18  C   UNL     1       7.620   3.665  14.240  1.00  0.00    -0.041 A 
ATOM     19  C   UNL     1       5.630   2.398  13.853  1.00  0.00     0.119 A 
ATOM     20  C   UNL     1       7.565   3.211  15.566  1.00  0.00     0.024 A 
ATOM     21  N   UNL     1       5.552   1.965  15.133  1.00  0.00    -0.264 NA
ATOM     22  C   UNL     1       6.524   2.386  15.961  1.00  0.00     0.111 A 
ATOM     23  C   UNL     1       8.768   4.539  13.818  1.00  0.00     0.045 C 
ENDBRANCH  16  17
ENDBRANCH  15  16
ENDBRANCH  13  15
ENDBRANCH   4  13
TORSDOF 8
ENDMDL
MODEL 5
REMARK VINA RESULT:    -4.627      2.100      8.616
REMARK INTER + INTRA:          -7.231
REMARK INTER:                  -6.542
REMARK INTRA:                  -0.689
REMARK UNBOUND:                -0.575
REMARK SMILES Cc1ccncc1/C=C/Nc1ccc(CCCN)cc1
REMARK SMILES IDX 14 1 13 2 12 3 11 4 20 5 19 6 15 7 16 8 17 9 18 10 10 13
REMARK SMILES IDX 9 15 8 16 7 17 2 18 6 19 3 20 5 21 4 22 1 23
REMARK H PARENT 18 11 18 12 10 14
ROOT
ATOM      1  C   UNL     1       6.280   3.024  13.951  1.00  0.00    -0.048 A 
ATOM      2  C   UNL     1       5.256   2.626  13.089  1.00  0.00     0.006 A 
ATOM      3  C   UNL     1       5.442   2.640  11.710  1.00  0.00     0.026 A 
ATOM      4  C   UNL     1       6.621   3.121  11.135  1.00  0.00     0.038 A 
ATOM      5  C   UNL     1       7.628   3.574  11.996  1.00  0.00     0.026 A 
ATOM      6  C   UNL     1       7.459   3.527  13.389  1.00  0.00     0.006 A 
ENDROOT
BRANCH   1   7
ATOM      7  C   UNL     1       6.125   2.919  15.447  1.00  0.00     0.037 C 
BRANCH   7   8
ATOM      8  C   UNL     1       6.029   1.497  16.034  1.00  0.00     0.020 C 
BRANCH   8   9
ATOM      9  C   UNL     1       7.303   0.956  16.699  1.00  0.00     0.078 C 
BRANCH   9  10
ATOM     10  N   UNL     1       7.825  -0.274  16.120  1.00  0.00    -0.330 NA
ATOM     11  H   UNL     1       7.296  -0.517  15.283  1.00  0.00     0.118 HD
ATOM     12  H   UNL     1       7.688  -1.053  16.765  1.00  0.00     0.118 HD
ENDBRANCH   9  10
ENDBRANCH   8   9
ENDBRANCH   7   8
ENDBRANCH   1   7
BRANCH   4  13
ATOM     13  N   UNL     1       6.772   3.249   9.741  1.00  0.00    -0.362 N 
ATOM     14  H   UNL     1       6.745   4.189   9.366  1.00  0.00     0.166 HD
BRANCH  13  15
ATOM     15  C   UNL     1       6.692   2.214   8.847  1.00  0.00     0.083 C 
BRANCH  15  16
ATOM     16  C   UNL     1       6.615   2.256   7.510  1.00  0.00     0.027 C 
BRANCH  16  17
ATOM     17  C   UNL     1       5.318   2.344   6.824  1.00  0.00    -0.003 A 
ATOM     18  C   UNL     1       4.860   3.532   6.226  1.00  0.00    -0.041 A 
ATOM     19  C   UNL     1       4.455   1.239   6.770  1.00  0.00     0.119 A 
ATOM     20  C   UNL     1       3.598   3.535   5.613  1.00  0.00     0.024 A 
ATOM     21  N   UNL     1       3.243   1.219   6.168  1.00  0.00    -0.264 NA
ATOM     22  C   UNL     1       2.845   2.371   5.599  1.00  0.00     0.111 A 
ATOM     23  C   UNL     1       5.656   4.806   6.255  1.00  0.00     0.045 C 
ENDBRANCH  16  17
ENDBRANCH  15  16
ENDBRANCH  13  15
ENDBRANCH   4  13
TORSDOF 8
ENDMDL
MODEL 6
REMARK VINA RESULT:    -4.297      3.830      8.544
REMARK INTER + INTRA:          -6.756
REMARK INTER:                  -6.044
REMARK INTRA:                  -0.712
REMARK UNBOUND:                -0.575
REMARK SMILES Cc1ccncc1/C=C/Nc1ccc(CCCN)cc1
REMARK SMILES IDX 14 1 13 2 12 3 11 4 20 5 19 6 15 7 16 8 17 9 18 10 10 13
REMARK SMILES IDX 9 15 8 16 7 17 2 18 6 19 3 20 5 21 4 22 1 23
REMARK H PARENT 18 11 18 12 10 14
ROOT
ATOM      1  C   UNL     1      10.702   2.135   9.215  1.00  0.00    -0.048 A 
ATOM      2  C   UNL     1      10.545   1.625   7.924  1.00  0.00     0.006 A 
ATOM      3  C   UNL     1       9.279   1.482   7.366  1.00  0.00     0.026 A 
ATOM      4  C   UNL     1       8.121   1.766   8.094  1.00  0.00     0.038 A 
ATOM      5  C   UNL     1       8.274   2.224   9.408  1.00  0.00     0.026 A 
ATOM      6  C   UNL     1       9.550   2.406   9.963  1.00  0.00     0.006 A 
ENDROOT
BRANCH   1   7
ATOM      7  C   UNL     1      12.072   2.389   9.793  1.00  0.00     0.037 C 
BRANCH   7   8
ATOM      8  C   UNL     1      12.485   1.522  10.998  1.00  0.00     0.020 C 
BRANCH   8   9
ATOM      9  C   UNL     1      12.649   2.260  12.334  1.00  0.00     0.078 C 
BRANCH   9  10
ATOM     10  N   UNL     1      11.678   1.902  13.358  1.00  0.00    -0.330 NA
ATOM     11  H   UNL     1      11.998   2.225  14.270  1.00  0.00     0.118 HD
ATOM     12  H   UNL     1      11.608   0.887  13.437  1.00  0.00     0.118 HD
ENDBRANCH   9  10
ENDBRANCH   8   9
ENDBRANCH   7   8
ENDBRANCH   1   7
BRANCH   4  13
ATOM     13  N   UNL     1       6.836   1.512   7.578  1.00  0.00    -0.362 N 
ATOM     14  H   UNL     1       6.313   2.312   7.245  1.00  0.00     0.166 HD
BRANCH  13  15
ATOM     15  C   UNL     1       6.152   0.334   7.727  1.00  0.00     0.083 C 
BRANCH  15  16
ATOM     16  C   UNL     1       5.185  -0.185   6.959  1.00  0.00     0.027 C 
BRANCH  16  17
ATOM     17  C   UNL     1       4.268   0.678   6.200  1.00  0.00    -0.003 A 
ATOM     18  C   UNL     1       4.231   0.689   4.795  1.00  0.00    -0.041 A 
ATOM     19  C   UNL     1       3.406   1.568   6.860  1.00  0.00     0.119 A 
ATOM     20  C   UNL     1       3.341   1.562   4.150  1.00  0.00     0.024 A 
ATOM     21  N   UNL     1       2.530   2.403   6.255  1.00  0.00    -0.264 NA
ATOM     22  C   UNL     1       2.517   2.377   4.910  1.00  0.00     0.111 A 
ATOM     23  C   UNL     1       5.136  -0.173   3.960  1.00  0.00     0.045 C 
ENDBRANCH  16  17
ENDBRANCH  15  16
ENDBRANCH  13  15
ENDBRANCH   4  13
TORSDOF 8
ENDMDL
MODEL 7
REMARK VINA RESULT:    -4.276      3.620      8.212
REMARK INTER + INTRA:          -6.725
REMARK INTER:                  -6.078
REMARK INTRA:                  -0.647
REMARK UNBOUND:                -0.575
REMARK SMILES Cc1ccncc1/C=C/Nc1ccc(CCCN)cc1
REMARK SMILES IDX 14 1 13 2 12 3 11 4 20 5 19 6 15 7 16 8 17 9 18 10 10 13
REMARK SMILES IDX 9 15 8 16 7 17 2 18 6 19 3 20 5 21 4 22 1 23
REMARK H PARENT 18 11 18 12 10 14
ROOT
ATOM      1  C   UNL     1       9.140   2.130   9.052  1.00  0.00    -0.048 A 
ATOM      2  C   UNL     1       8.534   1.813   7.835  1.00  0.00     0.006 A 
ATOM      3  C   UNL     1       7.169   2.013   7.647  1.00  0.00     0.026 A 
ATOM      4  C   UNL     1       6.346   2.461   8.683  1.00  0.00     0.038 A 
ATOM      5  C   UNL     1       6.942   2.726   9.921  1.00  0.00     0.026 A 
ATOM      6  C   UNL     1       8.324   2.562  10.105  1.00  0.00     0.006 A 
ENDROOT
BRANCH   1   7
ATOM      7  C   UNL     1      10.632   2.012   9.235  1.00  0.00     0.037 C 
BRANCH   7   8
ATOM      8  C   UNL     1      11.510   2.417   8.035  1.00  0.00     0.020 C 
BRANCH   8   9
ATOM      9  C   UNL     1      12.836   3.112   8.375  1.00  0.00     0.078 C 
BRANCH   9  10
ATOM     10  N   UNL     1      12.999   4.440   7.800  1.00  0.00    -0.330 NA
ATOM     11  H   UNL     1      12.747   5.150   8.486  1.00  0.00     0.118 HD
ATOM     12  H   UNL     1      12.351   4.569   7.023  1.00  0.00     0.118 HD
ENDBRANCH   9  10
ENDBRANCH   8   9
ENDBRANCH   7   8
ENDBRANCH   1   7
BRANCH   4  13
ATOM     13  N   UNL     1       4.948   2.553   8.536  1.00  0.00    -0.362 N 
ATOM     14  H   UNL     1       4.397   2.489   9.383  1.00  0.00     0.166 HD
BRANCH  13  15
ATOM     15  C   UNL     1       4.279   2.463   7.344  1.00  0.00     0.083 C 
BRANCH  15  16
ATOM     16  C   UNL     1       3.610   1.424   6.827  1.00  0.00     0.027 C 
BRANCH  16  17
ATOM     17  C   UNL     1       4.186   0.607   5.748  1.00  0.00    -0.003 A 
ATOM     18  C   UNL     1       3.878   0.822   4.393  1.00  0.00    -0.041 A 
ATOM     19  C   UNL     1       5.049  -0.460   6.036  1.00  0.00     0.119 A 
ATOM     20  C   UNL     1       4.454  -0.019   3.429  1.00  0.00     0.024 A 
ATOM     21  N   UNL     1       5.627  -1.270   5.118  1.00  0.00    -0.264 NA
ATOM     22  C   UNL     1       5.316  -1.026   3.833  1.00  0.00     0.111 A 
ATOM     23  C   UNL     1       2.926   1.896   3.944  1.00  0.00     0.045 C 
ENDBRANCH  16  17
ENDBRANCH  15  16
ENDBRANCH  13  15
ENDBRANCH   4  13
TORSDOF 8
ENDMDL
MODEL 8
REMARK VINA RESULT:    -4.267      1.739      8.846
REMARK INTER + INTRA:          -6.714
REMARK INTER:                  -6.001
REMARK INTRA:                  -0.713
REMARK UNBOUND:                -0.575
REMARK SMILES Cc1ccncc1/C=C/Nc1ccc(CCCN)cc1
REMARK SMILES IDX 14 1 13 2 12 3 11 4 20 5 19 6 15 7 16 8 17 9 18 10 10 13
REMARK SMILES IDX 9 15 8 16 7 17 2 18 6 19 3 20 5 21 4 22 1 23
REMARK H PARENT 18 11 18 12 10 14
ROOT
ATOM      1  C   UNL     1       6.935   3.197  12.326  1.00  0.00    -0.048 A 
ATOM      2  C   UNL     1       5.593   3.270  11.948  1.00  0.00     0.006 A 
ATOM      3  C   UNL     1       5.212   3.024  10.632  1.00  0.00     0.026 A 
ATOM      4  C   UNL     1       6.153   2.773   9.631  1.00  0.00     0.038 A 
ATOM      5  C   UNL     1       7.504   2.756   9.998  1.00  0.00     0.026 A 
ATOM      6  C   UNL     1       7.892   2.966  11.330  1.00  0.00     0.006 A 
ENDROOT
BRANCH   1   7
ATOM      7  C   UNL     1       7.351   3.363  13.767  1.00  0.00     0.037 C 
BRANCH   7   8
ATOM      8  C   UNL     1       8.346   4.499  14.074  1.00  0.00     0.020 C 
BRANCH   8   9
ATOM      9  C   UNL     1       9.752   4.062  14.509  1.00  0.00     0.078 C 
BRANCH   9  10
ATOM     10  N   UNL     1      10.832   4.514  13.643  1.00  0.00    -0.330 NA
ATOM     11  H   UNL     1      10.644   4.242  12.679  1.00  0.00     0.118 HD
ATOM     12  H   UNL     1      11.703   4.047  13.894  1.00  0.00     0.118 HD
ENDBRANCH   9  10
ENDBRANCH   8   9
ENDBRANCH   7   8
ENDBRANCH   1   7
BRANCH   4  13
ATOM     13  N   UNL     1       5.785   2.641   8.279  1.00  0.00    -0.362 N 
ATOM     14  H   UNL     1       5.415   1.743   7.994  1.00  0.00     0.166 HD
BRANCH  13  15
ATOM     15  C   UNL     1       6.121   3.524   7.286  1.00  0.00     0.083 C 
BRANCH  15  16
ATOM     16  C   UNL     1       5.466   3.812   6.154  1.00  0.00     0.027 C 
BRANCH  16  17
ATOM     17  C   UNL     1       4.968   2.747   5.270  1.00  0.00    -0.003 A 
ATOM     18  C   UNL     1       3.598   2.555   5.020  1.00  0.00    -0.041 A 
ATOM     19  C   UNL     1       5.852   1.844   4.662  1.00  0.00     0.119 A 
ATOM     20  C   UNL     1       3.207   1.499   4.182  1.00  0.00     0.024 A 
ATOM     21  N   UNL     1       5.494   0.832   3.837  1.00  0.00    -0.264 NA
ATOM     22  C   UNL     1       4.176   0.686   3.615  1.00  0.00     0.111 A 
ATOM     23  C   UNL     1       2.537   3.414   5.648  1.00  0.00     0.045 C 
ENDBRANCH  16  17
ENDBRANCH  15  16
ENDBRANCH  13  15
ENDBRANCH   4  13
TORSDOF 8
ENDMDL
