MODEL 1
REMARK VINA RESULT:    -5.144      0.000      0.000
REMARK INTER + INTRA:          -8.051
REMARK INTER:                  -7.399
REMARK INTRA:                  -0.651
REMARK UNBOUND:                -0.651
REMARK SMILES Cc1ccncc1/C=C/Nc1ccc(CCCN)cc1
REMARK SMILES IDX 14 1 13 2 12 3 11 4 20 5 19 6 15 7 16 8 17 9 18 10 10 13
REMARK SMILES IDX 9 15 8 16 7 17 2 18 6 19 3 20 5 21 4 22 1 23
REMARK H PARENT 18 11 18 12 10 14
ROOT
ATOM      1  C   UNL     1     -12.902   9.999  -1.930  1.00  0.00    -0.048 A 
ATOM      2  C   UNL     1     -13.401   9.892  -0.631  1.00  0.00     0.006 A 
ATOM      3  C   UNL     1     -12.719   9.159   0.335  1.00  0.00     0.026 A 
ATOM      4  C   UNL     1     -11.560   8.442   0.027  1.00  0.00     0.038 A 
ATOM      5  C   UNL     1     -11.089   8.501  -1.290  1.00  0.00     0.026 A 
ATOM      6  C   UNL     1     -11.752   9.270  -2.259  1.00  0.00     0.006 A 
ENDROOT
BRANCH   1   7
ATOM      7  C   UNL     1     -13.577  10.872  -2.957  1.00  0.00     0.037 C 
BRANCH   7   8
ATOM      8  C   UNL     1     -13.879  10.227  -4.324  1.00  0.00     0.020 C 
BRANCH   8   9
ATOM      9  C   UNL     1     -15.331   9.786  -4.555  1.00  0.00     0.078 C 
BRANCH   9  10
ATOM     10  N   UNL     1     -15.620   8.405  -4.196  1.00  0.00    -0.330 NA
ATOM     11  H   UNL     1     -15.852   7.868  -5.031  1.00  0.00     0.118 HD
ATOM     12  H   UNL     1     -16.450   8.362  -3.604  1.00  0.00     0.118 HD
ENDBRANCH   9  10
ENDBRANCH   8   9
ENDBRANCH   7   8
ENDBRANCH   1   7
BRANCH   4  13
ATOM     13  N   UNL     1     -10.932   7.603   0.967  1.00  0.00    -0.362 N 
ATOM     14  H   UNL     1     -10.648   8.030   1.839  1.00  0.00     0.166 HD
BRANCH  13  15
ATOM     15  C   UNL     1     -10.453   6.348   0.698  1.00  0.00     0.083 C 
BRANCH  15  16
ATOM     16  C   UNL     1      -9.649   5.573   1.439  1.00  0.00     0.027 C 
BRANCH  16  17
ATOM     17  C   UNL     1      -8.692   4.648   0.812  1.00  0.00    -0.003 A 
ATOM     18  C   UNL     1      -7.413   4.411   1.345  1.00  0.00    -0.041 A 
ATOM     19  C   UNL     1      -9.010   3.985  -0.383  1.00  0.00     0.119 A 
ATOM     20  C   UNL     1      -6.554   3.532   0.669  1.00  0.00     0.024 A 
ATOM     21  N   UNL     1      -8.201   3.120  -1.038  1.00  0.00    -0.264 NA
ATOM     22  C   UNL     1      -6.989   2.912  -0.492  1.00  0.00     0.111 A 
ATOM     23  C   UNL     1      -6.920   5.096   2.589  1.00  0.00     0.045 C 
ENDBRANCH  16  17
ENDBRANCH  15  16
ENDBRANCH  13  15
ENDBRANCH   4  13
TORSDOF 8
ENDMDL
MODEL 2
REMARK VINA RESULT:    -5.003      1.225      2.096
REMARK INTER + INTRA:          -7.847
REMARK INTER:                  -7.190
REMARK INTRA:                  -0.657
REMARK UNBOUND:                -0.651
REMARK SMILES Cc1ccncc1/C=C/Nc1ccc(CCCN)cc1
REMARK SMILES IDX 14 1 13 2 12 3 11 4 20 5 19 6 15 7 16 8 17 9 18 10 10 13
REMARK SMILES IDX 9 15 8 16 7 17 2 18 6 19 3 20 5 21 4 22 1 23
REMARK H PARENT 18 11 18 12 10 14
ROOT
ATOM      1  C   UNL     1     -13.032  10.085  -1.824  1.00  0.00    -0.048 A 
ATOM      2  C   UNL     1     -11.872   9.435  -2.252  1.00  0.00     0.006 A 
ATOM      3  C   UNL     1     -11.218   8.531  -1.420  1.00  0.00     0.026 A 
ATOM      4  C   UNL     1     -11.645   8.299  -0.111  1.00  0.00     0.038 A 
ATOM      5  C   UNL     1     -12.774   8.993   0.339  1.00  0.00     0.026 A 
ATOM      6  C   UNL     1     -13.460   9.877  -0.508  1.00  0.00     0.006 A 
ENDROOT
BRANCH   1   7
ATOM      7  C   UNL     1     -13.806  10.990  -2.751  1.00  0.00     0.037 C 
BRANCH   7   8
ATOM      8  C   UNL     1     -13.957  10.519  -4.210  1.00  0.00     0.020 C 
BRANCH   8   9
ATOM      9  C   UNL     1     -15.335   9.965  -4.600  1.00  0.00     0.078 C 
BRANCH   9  10
ATOM     10  N   UNL     1     -15.552   8.565  -4.264  1.00  0.00    -0.330 NA
ATOM     11  H   UNL     1     -16.324   8.480  -3.604  1.00  0.00     0.118 HD
ATOM     12  H   UNL     1     -14.737   8.188  -3.780  1.00  0.00     0.118 HD
ENDBRANCH   9  10
ENDBRANCH   8   9
ENDBRANCH   7   8
ENDBRANCH   1   7
BRANCH   4  13
ATOM     13  N   UNL     1     -10.920   7.477   0.774  1.00  0.00    -0.362 N 
ATOM     14  H   UNL     1     -10.135   7.904   1.250  1.00  0.00     0.166 HD
BRANCH  13  15
ATOM     15  C   UNL     1     -11.030   6.113   0.843  1.00  0.00     0.083 C 
BRANCH  15  16
ATOM     16  C   UNL     1     -10.157   5.174   0.454  1.00  0.00     0.027 C 
BRANCH  16  17
ATOM     17  C   UNL     1      -8.835   5.053   1.088  1.00  0.00    -0.003 A 
ATOM     18  C   UNL     1      -7.796   4.291   0.525  1.00  0.00    -0.041 A 
ATOM     19  C   UNL     1      -8.568   5.672   2.318  1.00  0.00     0.119 A 
ATOM     20  C   UNL     1      -6.574   4.210   1.209  1.00  0.00     0.024 A 
ATOM     21  N   UNL     1      -7.390   5.618   2.983  1.00  0.00    -0.264 NA
ATOM     22  C   UNL     1      -6.418   4.888   2.407  1.00  0.00     0.111 A 
ATOM     23  C   UNL     1      -7.961   3.532  -0.761  1.00  0.00     0.045 C 
ENDBRANCH  16  17
ENDBRANCH  15  16
ENDBRANCH  13  15
ENDBRANCH   4  13
TORSDOF 8
ENDMDL
MODEL 3
REMARK VINA RESULT:    -4.909      1.639      8.517
REMARK INTER + INTRA:          -7.713
REMARK INTER:                  -7.107
REMARK INTRA:                  -0.606
REMARK UNBOUND:                -0.651
REMARK SMILES Cc1ccncc1/C=C/Nc1ccc(CCCN)cc1
REMARK SMILES IDX 14 1 13 2 12 3 11 4 20 5 19 6 15 7 16 8 17 9 18 10 10 13
REMARK SMILES IDX 9 15 8 16 7 17 2 18 6 19 3 20 5 21 4 22 1 23
REMARK H PARENT 18 11 18 12 10 14
ROOT
ATOM      1  C   UNL     1      -8.721   4.272   0.835  1.00  0.00    -0.048 A 
ATOM      2  C   UNL     1      -8.844   5.356   1.706  1.00  0.00     0.006 A 
ATOM      3  C   UNL     1      -9.895   6.259   1.573  1.00  0.00     0.026 A 
ATOM      4  C   UNL     1     -10.815   6.162   0.525  1.00  0.00     0.038 A 
ATOM      5  C   UNL     1     -10.659   5.107  -0.382  1.00  0.00     0.026 A 
ATOM      6  C   UNL     1      -9.624   4.172  -0.230  1.00  0.00     0.006 A 
ENDROOT
BRANCH   1   7
ATOM      7  C   UNL     1      -7.646   3.232   1.031  1.00  0.00     0.037 C 
BRANCH   7   8
ATOM      8  C   UNL     1      -7.206   2.447  -0.220  1.00  0.00     0.020 C 
BRANCH   8   9
ATOM      9  C   UNL     1      -6.192   1.318   0.014  1.00  0.00     0.078 C 
BRANCH   9  10
ATOM     10  N   UNL     1      -6.281   0.207  -0.922  1.00  0.00    -0.330 NA
ATOM     11  H   UNL     1      -5.347  -0.080  -1.212  1.00  0.00     0.118 HD
ATOM     12  H   UNL     1      -6.753   0.503  -1.776  1.00  0.00     0.118 HD
ENDBRANCH   9  10
ENDBRANCH   8   9
ENDBRANCH   7   8
ENDBRANCH   1   7
BRANCH   4  13
ATOM     13  N   UNL     1     -11.808   7.137   0.314  1.00  0.00    -0.362 N 
ATOM     14  H   UNL     1     -12.769   6.823   0.359  1.00  0.00     0.166 HD
BRANCH  13  15
ATOM     15  C   UNL     1     -11.580   8.390  -0.190  1.00  0.00     0.083 C 
BRANCH  15  16
ATOM     16  C   UNL     1     -11.717   8.833  -1.447  1.00  0.00     0.027 C 
BRANCH  16  17
ATOM     17  C   UNL     1     -12.787   9.774  -1.810  1.00  0.00    -0.003 A 
ATOM     18  C   UNL     1     -13.263   9.903  -3.127  1.00  0.00    -0.041 A 
ATOM     19  C   UNL     1     -13.358  10.621  -0.848  1.00  0.00     0.119 A 
ATOM     20  C   UNL     1     -14.271  10.844  -3.390  1.00  0.00     0.024 A 
ATOM     21  N   UNL     1     -14.342  11.521  -1.081  1.00  0.00    -0.264 NA
ATOM     22  C   UNL     1     -14.778  11.607  -2.351  1.00  0.00     0.111 A 
ATOM     23  C   UNL     1     -12.706   9.098  -4.267  1.00  0.00     0.045 C 
ENDBRANCH  16  17
ENDBRANCH  15  16
ENDBRANCH  13  15
ENDBRANCH   4  13
TORSDOF 8
ENDMDL
MODEL 4
REMARK VINA RESULT:    -4.874      2.140      8.528
REMARK INTER + INTRA:          -7.662
REMARK INTER:                  -7.062
REMARK INTRA:                  -0.600
REMARK UNBOUND:                -0.651
REMARK SMILES Cc1ccncc1/C=C/Nc1ccc(CCCN)cc1
REMARK SMILES IDX 14 1 13 2 12 3 11 4 20 5 19 6 15 7 16 8 17 9 18 10 10 13
REMARK SMILES IDX 9 15 8 16 7 17 2 18 6 19 3 20 5 21 4 22 1 23
REMARK H PARENT 18 11 18 12 10 14
ROOT
ATOM      1  C   UNL     1      -7.657   4.463   1.506  1.00  0.00    -0.048 A 
ATOM      2  C   UNL     1      -8.102   5.458   2.380  1.00  0.00     0.006 A 
ATOM      3  C   UNL     1      -9.371   6.011   2.239  1.00  0.00     0.026 A 
ATOM      4  C   UNL     1     -10.213   5.654   1.183  1.00  0.00     0.038 A 
ATOM      5  C   UNL     1      -9.746   4.698   0.273  1.00  0.00     0.026 A 
ATOM      6  C   UNL     1      -8.483   4.109   0.432  1.00  0.00     0.006 A 
ENDROOT
BRANCH   1   7
ATOM      7  C   UNL     1      -6.326   3.785   1.709  1.00  0.00     0.037 C 
BRANCH   7   8
ATOM      8  C   UNL     1      -5.171   4.241   0.796  1.00  0.00     0.020 C 
BRANCH   8   9
ATOM      9  C   UNL     1      -4.663   5.674   1.018  1.00  0.00     0.078 C 
BRANCH   9  10
ATOM     10  N   UNL     1      -3.685   5.821   2.086  1.00  0.00    -0.330 NA
ATOM     11  H   UNL     1      -2.802   6.160   1.706  1.00  0.00     0.118 HD
ATOM     12  H   UNL     1      -3.475   4.912   2.498  1.00  0.00     0.118 HD
ENDBRANCH   9  10
ENDBRANCH   8   9
ENDBRANCH   7   8
ENDBRANCH   1   7
BRANCH   4  13
ATOM     13  N   UNL     1     -11.448   6.295   0.966  1.00  0.00    -0.362 N 
ATOM     14  H   UNL     1     -12.252   5.905   1.442  1.00  0.00     0.166 HD
BRANCH  13  15
ATOM     15  C   UNL     1     -11.688   7.219  -0.016  1.00  0.00     0.083 C 
BRANCH  15  16
ATOM     16  C   UNL     1     -11.770   8.553   0.079  1.00  0.00     0.027 C 
BRANCH  16  17
ATOM     17  C   UNL     1     -13.050   9.252  -0.109  1.00  0.00    -0.003 A 
ATOM     18  C   UNL     1     -13.325  10.029  -1.248  1.00  0.00    -0.041 A 
ATOM     19  C   UNL     1     -14.049   9.203   0.876  1.00  0.00     0.119 A 
ATOM     20  C   UNL     1     -14.563  10.682  -1.336  1.00  0.00     0.024 A 
ATOM     21  N   UNL     1     -15.255   9.812   0.799  1.00  0.00    -0.264 NA
ATOM     22  C   UNL     1     -15.484  10.537  -0.310  1.00  0.00     0.111 A 
ATOM     23  C   UNL     1     -12.326  10.213  -2.356  1.00  0.00     0.045 C 
ENDBRANCH  16  17
ENDBRANCH  15  16
ENDBRANCH  13  15
ENDBRANCH   4  13
TORSDOF 8
ENDMDL
MODEL 5
REMARK VINA RESULT:    -4.865      2.005      8.416
REMARK INTER + INTRA:          -7.649
REMARK INTER:                  -7.158
REMARK INTRA:                  -0.491
REMARK UNBOUND:                -0.651
REMARK SMILES Cc1ccncc1/C=C/Nc1ccc(CCCN)cc1
REMARK SMILES IDX 14 1 13 2 12 3 11 4 20 5 19 6 15 7 16 8 17 9 18 10 10 13
REMARK SMILES IDX 9 15 8 16 7 17 2 18 6 19 3 20 5 21 4 22 1 23
REMARK H PARENT 18 11 18 12 10 14
ROOT
ATOM      1  C   UNL     1      -7.348   4.158   1.306  1.00  0.00    -0.048 A 
ATOM      2  C   UNL     1      -7.794   5.124   2.211  1.00  0.00     0.006 A 
ATOM      3  C   UNL     1      -9.062   5.683   2.085  1.00  0.00     0.026 A 
ATOM      4  C   UNL     1      -9.901   5.364   1.015  1.00  0.00     0.038 A 
ATOM      5  C   UNL     1      -9.432   4.438   0.075  1.00  0.00     0.026 A 
ATOM      6  C   UNL     1      -8.170   3.842   0.217  1.00  0.00     0.006 A 
ENDROOT
BRANCH   1   7
ATOM      7  C   UNL     1      -6.018   3.471   1.489  1.00  0.00     0.037 C 
BRANCH   7   8
ATOM      8  C   UNL     1      -4.823   4.060   0.715  1.00  0.00     0.020 C 
BRANCH   8   9
ATOM      9  C   UNL     1      -4.522   5.545   0.968  1.00  0.00     0.078 C 
BRANCH   9  10
ATOM     10  N   UNL     1      -3.631   5.809   2.089  1.00  0.00    -0.330 NA
ATOM     11  H   UNL     1      -3.020   6.596   1.871  1.00  0.00     0.118 HD
ATOM     12  H   UNL     1      -3.010   5.014   2.240  1.00  0.00     0.118 HD
ENDBRANCH   9  10
ENDBRANCH   8   9
ENDBRANCH   7   8
ENDBRANCH   1   7
BRANCH   4  13
ATOM     13  N   UNL     1     -11.134   6.013   0.816  1.00  0.00    -0.362 N 
ATOM     14  H   UNL     1     -11.956   5.547   1.178  1.00  0.00     0.166 HD
BRANCH  13  15
ATOM     15  C   UNL     1     -11.334   7.069  -0.034  1.00  0.00     0.083 C 
BRANCH  15  16
ATOM     16  C   UNL     1     -11.594   8.350   0.256  1.00  0.00     0.027 C 
BRANCH  16  17
ATOM     17  C   UNL     1     -12.338   9.208  -0.679  1.00  0.00    -0.003 A 
ATOM     18  C   UNL     1     -13.610   9.726  -0.380  1.00  0.00    -0.041 A 
ATOM     19  C   UNL     1     -11.813   9.517  -1.944  1.00  0.00     0.119 A 
ATOM     20  C   UNL     1     -14.259  10.516  -1.340  1.00  0.00     0.024 A 
ATOM     21  N   UNL     1     -12.418  10.292  -2.874  1.00  0.00    -0.264 NA
ATOM     22  C   UNL     1     -13.629  10.776  -2.547  1.00  0.00     0.111 A 
ATOM     23  C   UNL     1     -14.314   9.431   0.915  1.00  0.00     0.045 C 
ENDBRANCH  16  17
ENDBRANCH  15  16
ENDBRANCH  13  15
ENDBRANCH   4  13
TORSDOF 8
ENDMDL
MODEL 6
REMARK VINA RESULT:    -4.859      1.933      8.609
REMARK INTER + INTRA:          -7.640
REMARK INTER:                  -7.099
REMARK INTRA:                  -0.541
REMARK UNBOUND:                -0.651
REMARK SMILES Cc1ccncc1/C=C/Nc1ccc(CCCN)cc1
REMARK SMILES IDX 14 1 13 2 12 3 11 4 20 5 19 6 15 7 16 8 17 9 18 10 10 13
REMARK SMILES IDX 9 15 8 16 7 17 2 18 6 19 3 20 5 21 4 22 1 23
REMARK H PARENT 18 11 18 12 10 14
ROOT
ATOM      1  C   UNL     1      -8.164   3.994   1.032  1.00  0.00    -0.048 A 
ATOM      2  C   UNL     1      -8.305   5.069   1.912  1.00  0.00     0.006 A 
ATOM      3  C   UNL     1      -9.389   5.935   1.809  1.00  0.00     0.026 A 
ATOM      4  C   UNL     1     -10.329   5.811   0.783  1.00  0.00     0.038 A 
ATOM      5  C   UNL     1     -10.158   4.767  -0.135  1.00  0.00     0.026 A 
ATOM      6  C   UNL     1      -9.088   3.868  -0.012  1.00  0.00     0.006 A 
ENDROOT
BRANCH   1   7
ATOM      7  C   UNL     1      -7.050   2.991   1.197  1.00  0.00     0.037 C 
BRANCH   7   8
ATOM      8  C   UNL     1      -6.443   2.413  -0.096  1.00  0.00     0.020 C 
BRANCH   8   9
ATOM      9  C   UNL     1      -6.527   0.888  -0.257  1.00  0.00     0.078 C 
BRANCH   9  10
ATOM     10  N   UNL     1      -5.433   0.144   0.351  1.00  0.00    -0.330 NA
ATOM     11  H   UNL     1      -4.735   0.788   0.719  1.00  0.00     0.118 HD
ATOM     12  H   UNL     1      -4.949  -0.410  -0.356  1.00  0.00     0.118 HD
ENDBRANCH   9  10
ENDBRANCH   8   9
ENDBRANCH   7   8
ENDBRANCH   1   7
BRANCH   4  13
ATOM     13  N   UNL     1     -11.361   6.752   0.601  1.00  0.00    -0.362 N 
ATOM     14  H   UNL     1     -12.299   6.385   0.504  1.00  0.00     0.166 HD
BRANCH  13  15
ATOM     15  C   UNL     1     -11.169   8.073   0.292  1.00  0.00     0.083 C 
BRANCH  15  16
ATOM     16  C   UNL     1     -11.712   8.798  -0.695  1.00  0.00     0.027 C 
BRANCH  16  17
ATOM     17  C   UNL     1     -13.028   9.437  -0.536  1.00  0.00    -0.003 A 
ATOM     18  C   UNL     1     -13.542  10.348  -1.475  1.00  0.00    -0.041 A 
ATOM     19  C   UNL     1     -13.817   9.186   0.597  1.00  0.00     0.119 A 
ATOM     20  C   UNL     1     -14.796  10.930  -1.233  1.00  0.00     0.024 A 
ATOM     21  N   UNL     1     -15.035   9.725   0.838  1.00  0.00    -0.264 NA
ATOM     22  C   UNL     1     -15.497  10.584  -0.088  1.00  0.00     0.111 A 
ATOM     23  C   UNL     1     -12.781  10.749  -2.707  1.00  0.00     0.045 C 
ENDBRANCH  16  17
ENDBRANCH  15  16
ENDBRANCH  13  15
ENDBRANCH   4  13
TORSDOF 8
ENDMDL
MODEL 7
REMARK VINA RESULT:    -4.708      1.675      8.508
REMARK INTER + INTRA:          -7.423
REMARK INTER:                  -6.931
REMARK INTRA:                  -0.492
REMARK UNBOUND:                -0.651
REMARK SMILES Cc1ccncc1/C=C/Nc1ccc(CCCN)cc1
REMARK SMILES IDX 14 1 13 2 12 3 11 4 20 5 19 6 15 7 16 8 17 9 18 10 10 13
REMARK SMILES IDX 9 15 8 16 7 17 2 18 6 19 3 20 5 21 4 22 1 23
REMARK H PARENT 18 11 18 12 10 14
ROOT
ATOM      1  C   UNL     1      -7.877   4.024   1.062  1.00  0.00    -0.048 A 
ATOM      2  C   UNL     1      -8.123   5.049   1.977  1.00  0.00     0.006 A 
ATOM      3  C   UNL     1      -9.306   5.780   1.924  1.00  0.00     0.026 A 
ATOM      4  C   UNL     1     -10.251   5.572   0.916  1.00  0.00     0.038 A 
ATOM      5  C   UNL     1      -9.980   4.582  -0.036  1.00  0.00     0.026 A 
ATOM      6  C   UNL     1      -8.806   3.816   0.035  1.00  0.00     0.006 A 
ENDROOT
BRANCH   1   7
ATOM      7  C   UNL     1      -6.646   3.159   1.171  1.00  0.00     0.037 C 
BRANCH   7   8
ATOM      8  C   UNL     1      -6.213   2.408  -0.103  1.00  0.00     0.020 C 
BRANCH   8   9
ATOM      9  C   UNL     1      -6.514   0.902  -0.133  1.00  0.00     0.078 C 
BRANCH   9  10
ATOM     10  N   UNL     1      -5.429   0.049   0.331  1.00  0.00    -0.330 NA
ATOM     11  H   UNL     1      -5.666  -0.930   0.177  1.00  0.00     0.118 HD
ATOM     12  H   UNL     1      -5.312   0.146   1.340  1.00  0.00     0.118 HD
ENDBRANCH   9  10
ENDBRANCH   8   9
ENDBRANCH   7   8
ENDBRANCH   1   7
BRANCH   4  13
ATOM     13  N   UNL     1     -11.392   6.386   0.786  1.00  0.00    -0.362 N 
ATOM     14  H   UNL     1     -12.244   6.046   1.214  1.00  0.00     0.166 HD
BRANCH  13  15
ATOM     15  C   UNL     1     -11.503   7.447  -0.074  1.00  0.00     0.083 C 
BRANCH  15  16
ATOM     16  C   UNL     1     -11.854   8.713   0.187  1.00  0.00     0.027 C 
BRANCH  16  17
ATOM     17  C   UNL     1     -12.665   9.490  -0.762  1.00  0.00    -0.003 A 
ATOM     18  C   UNL     1     -13.979   9.898  -0.473  1.00  0.00    -0.041 A 
ATOM     19  C   UNL     1     -12.165   9.827  -2.029  1.00  0.00     0.119 A 
ATOM     20  C   UNL     1     -14.691  10.616  -1.446  1.00  0.00     0.024 A 
ATOM     21  N   UNL     1     -12.831  10.533  -2.972  1.00  0.00    -0.264 NA
ATOM     22  C   UNL     1     -14.081  10.914  -2.654  1.00  0.00     0.111 A 
ATOM     23  C   UNL     1     -14.660   9.560   0.823  1.00  0.00     0.045 C 
ENDBRANCH  16  17
ENDBRANCH  15  16
ENDBRANCH  13  15
ENDBRANCH   4  13
TORSDOF 8
ENDMDL
MODEL 8
REMARK VINA RESULT:    -4.620      2.139      2.832
REMARK INTER + INTRA:          -7.297
REMARK INTER:                  -6.735
REMARK INTRA:                  -0.563
REMARK UNBOUND:                -0.651
REMARK SMILES Cc1ccncc1/C=C/Nc1ccc(CCCN)cc1
REMARK SMILES IDX 14 1 13 2 12 3 11 4 20 5 19 6 15 7 16 8 17 9 18 10 10 13
REMARK SMILES IDX 9 15 8 16 7 17 2 18 6 19 3 20 5 21 4 22 1 23
REMARK H PARENT 18 11 18 12 10 14
ROOT
ATOM      1  C   UNL     1     -13.483  10.481  -2.044  1.00  0.00    -0.048 A 
ATOM      2  C   UNL     1     -13.891  10.235  -0.732  1.00  0.00     0.006 A 
ATOM      3  C   UNL     1     -13.124   9.437   0.112  1.00  0.00     0.026 A 
ATOM      4  C   UNL     1     -11.968   8.794  -0.338  1.00  0.00     0.038 A 
ATOM      5  C   UNL     1     -11.588   8.995  -1.670  1.00  0.00     0.026 A 
ATOM      6  C   UNL     1     -12.337   9.829  -2.515  1.00  0.00     0.006 A 
ENDROOT
BRANCH   1   7
ATOM      7  C   UNL     1     -14.251  11.424  -2.937  1.00  0.00     0.037 C 
BRANCH   7   8
ATOM      8  C   UNL     1     -13.866  12.914  -2.863  1.00  0.00     0.020 C 
BRANCH   8   9
ATOM      9  C   UNL     1     -13.135  13.482  -4.088  1.00  0.00     0.078 C 
BRANCH   9  10
ATOM     10  N   UNL     1     -11.989  14.328  -3.783  1.00  0.00    -0.330 NA
ATOM     11  H   UNL     1     -11.153  13.958  -4.234  1.00  0.00     0.118 HD
ATOM     12  H   UNL     1     -11.792  14.306  -2.782  1.00  0.00     0.118 HD
ENDBRANCH   9  10
ENDBRANCH   8   9
ENDBRANCH   7   8
ENDBRANCH   1   7
BRANCH   4  13
ATOM     13  N   UNL     1     -11.254   7.892   0.474  1.00  0.00    -0.362 N 
ATOM     14  H   UNL     1     -10.759   8.287   1.264  1.00  0.00     0.166 HD
BRANCH  13  15
ATOM     15  C   UNL     1     -10.969   6.595   0.139  1.00  0.00     0.083 C 
BRANCH  15  16
ATOM     16  C   UNL     1     -10.650   5.566   0.936  1.00  0.00     0.027 C 
BRANCH  16  17
ATOM     17  C   UNL     1      -9.324   5.472   1.565  1.00  0.00    -0.003 A 
ATOM     18  C   UNL     1      -8.301   4.658   1.047  1.00  0.00    -0.041 A 
ATOM     19  C   UNL     1      -9.036   6.171   2.746  1.00  0.00     0.119 A 
ATOM     20  C   UNL     1      -7.072   4.608   1.724  1.00  0.00     0.024 A 
ATOM     21  N   UNL     1      -7.852   6.148   3.401  1.00  0.00    -0.264 NA
ATOM     22  C   UNL     1      -6.895   5.367   2.870  1.00  0.00     0.111 A 
ATOM     23  C   UNL     1      -8.488   3.813  -0.181  1.00  0.00     0.045 C 
ENDBRANCH  16  17
ENDBRANCH  15  16
ENDBRANCH  13  15
ENDBRANCH   4  13
TORSDOF 8
ENDMDL
MODEL 9
REMARK VINA RESULT:    -4.428      2.065      3.344
REMARK INTER + INTRA:          -7.020
REMARK INTER:                  -6.142
REMARK INTRA:                  -0.879
REMARK UNBOUND:                -0.651
REMARK SMILES Cc1ccncc1/C=C/Nc1ccc(CCCN)cc1
REMARK SMILES IDX 14 1 13 2 12 3 11 4 20 5 19 6 15 7 16 8 17 9 18 10 10 13
REMARK SMILES IDX 9 15 8 16 7 17 2 18 6 19 3 20 5 21 4 22 1 23
REMARK H PARENT 18 11 18 12 10 14
ROOT
ATOM      1  C   UNL     1     -11.855   7.692   0.293  1.00  0.00    -0.048 A 
ATOM      2  C   UNL     1     -12.399   6.498   0.773  1.00  0.00     0.006 A 
ATOM      3  C   UNL     1     -11.619   5.349   0.864  1.00  0.00     0.026 A 
ATOM      4  C   UNL     1     -10.298   5.322   0.411  1.00  0.00     0.038 A 
ATOM      5  C   UNL     1      -9.769   6.503  -0.123  1.00  0.00     0.026 A 
ATOM      6  C   UNL     1     -10.538   7.675  -0.182  1.00  0.00     0.006 A 
ENDROOT
BRANCH   1   7
ATOM      7  C   UNL     1     -12.660   8.967   0.284  1.00  0.00     0.037 C 
BRANCH   7   8
ATOM      8  C   UNL     1     -12.717   9.739  -1.049  1.00  0.00     0.020 C 
BRANCH   8   9
ATOM      9  C   UNL     1     -14.040  10.456  -1.356  1.00  0.00     0.078 C 
BRANCH   9  10
ATOM     10  N   UNL     1     -15.239   9.723  -0.976  1.00  0.00    -0.330 NA
ATOM     11  H   UNL     1     -16.022  10.008  -1.563  1.00  0.00     0.118 HD
ATOM     12  H   UNL     1     -15.511   9.963  -0.022  1.00  0.00     0.118 HD
ENDBRANCH   9  10
ENDBRANCH   8   9
ENDBRANCH   7   8
ENDBRANCH   1   7
BRANCH   4  13
ATOM     13  N   UNL     1      -9.542   4.135   0.390  1.00  0.00    -0.362 N 
ATOM     14  H   UNL     1      -8.987   3.935   1.213  1.00  0.00     0.166 HD
BRANCH  13  15
ATOM     15  C   UNL     1      -9.301   3.380  -0.728  1.00  0.00     0.083 C 
BRANCH  15  16
ATOM     16  C   UNL     1      -8.143   3.155  -1.362  1.00  0.00     0.027 C 
BRANCH  16  17
ATOM     17  C   UNL     1      -6.951   2.697  -0.632  1.00  0.00    -0.003 A 
ATOM     18  C   UNL     1      -5.957   3.583  -0.180  1.00  0.00    -0.041 A 
ATOM     19  C   UNL     1      -6.737   1.332  -0.387  1.00  0.00     0.119 A 
ATOM     20  C   UNL     1      -4.839   3.059   0.488  1.00  0.00     0.024 A 
ATOM     21  N   UNL     1      -5.674   0.811   0.270  1.00  0.00    -0.264 NA
ATOM     22  C   UNL     1      -4.751   1.691   0.696  1.00  0.00     0.111 A 
ATOM     23  C   UNL     1      -6.030   5.065  -0.421  1.00  0.00     0.045 C 
ENDBRANCH  16  17
ENDBRANCH  15  16
ENDBRANCH  13  15
ENDBRANCH   4  13
TORSDOF 8
ENDMDL
