MODEL 1
REMARK VINA RESULT:    -5.041      0.000      0.000
REMARK INTER + INTRA:          -7.851
REMARK INTER:                  -7.251
REMARK INTRA:                  -0.600
REMARK UNBOUND:                -0.600
REMARK SMILES Cc1ccncc1/C=C/Nc1ccc(CCCN)cc1
REMARK SMILES IDX 14 1 13 2 12 3 11 4 20 5 19 6 15 7 16 8 17 9 18 10 10 13
REMARK SMILES IDX 9 15 8 16 7 17 2 18 6 19 3 20 5 21 4 22 1 23
REMARK H PARENT 18 11 18 12 10 14
ROOT
ATOM      1  C   UNL     1      -5.099   7.193   1.017  1.00  0.00    -0.048 A 
ATOM      2  C   UNL     1      -6.345   6.938   1.593  1.00  0.00     0.006 A 
ATOM      3  C   UNL     1      -7.060   7.954   2.218  1.00  0.00     0.026 A 
ATOM      4  C   UNL     1      -6.532   9.239   2.363  1.00  0.00     0.038 A 
ATOM      5  C   UNL     1      -5.258   9.483   1.836  1.00  0.00     0.026 A 
ATOM      6  C   UNL     1      -4.548   8.471   1.171  1.00  0.00     0.006 A 
ENDROOT
BRANCH   1   7
ATOM      7  C   UNL     1      -4.360   6.126   0.249  1.00  0.00     0.037 C 
BRANCH   7   8
ATOM      8  C   UNL     1      -2.829   6.083   0.423  1.00  0.00     0.020 C 
BRANCH   8   9
ATOM      9  C   UNL     1      -2.008   5.967  -0.870  1.00  0.00     0.078 C 
BRANCH   9  10
ATOM     10  N   UNL     1      -0.603   5.636  -0.679  1.00  0.00    -0.330 NA
ATOM     11  H   UNL     1      -0.015   6.357  -1.096  1.00  0.00     0.118 HD
ATOM     12  H   UNL     1      -0.374   4.775  -1.176  1.00  0.00     0.118 HD
ENDBRANCH   9  10
ENDBRANCH   8   9
ENDBRANCH   7   8
ENDBRANCH   1   7
BRANCH   4  13
ATOM     13  N   UNL     1      -7.197  10.240   3.097  1.00  0.00    -0.362 N 
ATOM     14  H   UNL     1      -7.368  11.116   2.620  1.00  0.00     0.166 HD
BRANCH  13  15
ATOM     15  C   UNL     1      -7.394  10.215   4.452  1.00  0.00     0.083 C 
BRANCH  15  16
ATOM     16  C   UNL     1      -6.806  10.950   5.406  1.00  0.00     0.027 C 
BRANCH  16  17
ATOM     17  C   UNL     1      -7.522  12.050   6.070  1.00  0.00    -0.003 A 
ATOM     18  C   UNL     1      -6.855  13.057   6.790  1.00  0.00    -0.041 A 
ATOM     19  C   UNL     1      -8.923  12.117   6.044  1.00  0.00     0.119 A 
ATOM     20  C   UNL     1      -7.617  14.057   7.414  1.00  0.00     0.024 A 
ATOM     21  N   UNL     1      -9.672  13.083   6.624  1.00  0.00    -0.264 NA
ATOM     22  C   UNL     1      -8.998  14.034   7.295  1.00  0.00     0.111 A 
ATOM     23  C   UNL     1      -5.361  13.080   6.946  1.00  0.00     0.045 C 
ENDBRANCH  16  17
ENDBRANCH  15  16
ENDBRANCH  13  15
ENDBRANCH   4  13
TORSDOF 8
ENDMDL
MODEL 2
REMARK VINA RESULT:    -5.033      1.732      8.615
REMARK INTER + INTRA:          -7.839
REMARK INTER:                  -7.230
REMARK INTRA:                  -0.609
REMARK UNBOUND:                -0.600
REMARK SMILES Cc1ccncc1/C=C/Nc1ccc(CCCN)cc1
REMARK SMILES IDX 14 1 13 2 12 3 11 4 20 5 19 6 15 7 16 8 17 9 18 10 10 13
REMARK SMILES IDX 9 15 8 16 7 17 2 18 6 19 3 20 5 21 4 22 1 23
REMARK H PARENT 18 11 18 12 10 14
ROOT
ATOM      1  C   UNL     1      -7.440  12.407   6.489  1.00  0.00    -0.048 A 
ATOM      2  C   UNL     1      -6.385  11.496   6.396  1.00  0.00     0.006 A 
ATOM      3  C   UNL     1      -6.403  10.484   5.441  1.00  0.00     0.026 A 
ATOM      4  C   UNL     1      -7.500  10.292   4.598  1.00  0.00     0.038 A 
ATOM      5  C   UNL     1      -8.582  11.170   4.728  1.00  0.00     0.026 A 
ATOM      6  C   UNL     1      -8.554  12.215   5.663  1.00  0.00     0.006 A 
ENDROOT
BRANCH   1   7
ATOM      7  C   UNL     1      -7.387  13.567   7.451  1.00  0.00     0.037 C 
BRANCH   7   8
ATOM      8  C   UNL     1      -6.253  14.589   7.240  1.00  0.00     0.020 C 
BRANCH   8   9
ATOM      9  C   UNL     1      -6.644  15.892   6.528  1.00  0.00     0.078 C 
BRANCH   9  10
ATOM     10  N   UNL     1      -5.978  16.122   5.254  1.00  0.00    -0.330 NA
ATOM     11  H   UNL     1      -6.669  16.299   4.526  1.00  0.00     0.118 HD
ATOM     12  H   UNL     1      -5.482  15.280   4.960  1.00  0.00     0.118 HD
ENDBRANCH   9  10
ENDBRANCH   8   9
ENDBRANCH   7   8
ENDBRANCH   1   7
BRANCH   4  13
ATOM     13  N   UNL     1      -7.576   9.200   3.712  1.00  0.00    -0.362 N 
ATOM     14  H   UNL     1      -8.140   8.413   4.008  1.00  0.00     0.166 HD
BRANCH  13  15
ATOM     15  C   UNL     1      -6.759   9.013   2.628  1.00  0.00     0.083 C 
BRANCH  15  16
ATOM     16  C   UNL     1      -6.672   7.958   1.807  1.00  0.00     0.027 C 
BRANCH  16  17
ATOM     17  C   UNL     1      -5.375   7.332   1.507  1.00  0.00    -0.003 A 
ATOM     18  C   UNL     1      -5.226   5.942   1.356  1.00  0.00    -0.041 A 
ATOM     19  C   UNL     1      -4.211   8.107   1.395  1.00  0.00     0.119 A 
ATOM     20  C   UNL     1      -3.947   5.426   1.093  1.00  0.00     0.024 A 
ATOM     21  N   UNL     1      -2.974   7.628   1.125  1.00  0.00    -0.264 NA
ATOM     22  C   UNL     1      -2.874   6.295   0.977  1.00  0.00     0.111 A 
ATOM     23  C   UNL     1      -6.378   4.989   1.503  1.00  0.00     0.045 C 
ENDBRANCH  16  17
ENDBRANCH  15  16
ENDBRANCH  13  15
ENDBRANCH   4  13
TORSDOF 8
ENDMDL
MODEL 3
REMARK VINA RESULT:    -5.009      4.710      6.240
REMARK INTER + INTRA:          -7.804
REMARK INTER:                  -7.214
REMARK INTRA:                  -0.590
REMARK UNBOUND:                -0.600
REMARK SMILES Cc1ccncc1/C=C/Nc1ccc(CCCN)cc1
REMARK SMILES IDX 14 1 13 2 12 3 11 4 20 5 19 6 15 7 16 8 17 9 18 10 10 13
REMARK SMILES IDX 9 15 8 16 7 17 2 18 6 19 3 20 5 21 4 22 1 23
REMARK H PARENT 18 11 18 12 10 14
ROOT
ATOM      1  C   UNL     1      -5.016   6.628   1.887  1.00  0.00    -0.048 A 
ATOM      2  C   UNL     1      -4.280   7.740   1.474  1.00  0.00     0.006 A 
ATOM      3  C   UNL     1      -4.909   8.956   1.225  1.00  0.00     0.026 A 
ATOM      4  C   UNL     1      -6.298   9.091   1.301  1.00  0.00     0.038 A 
ATOM      5  C   UNL     1      -7.043   7.961   1.660  1.00  0.00     0.026 A 
ATOM      6  C   UNL     1      -6.410   6.742   1.949  1.00  0.00     0.006 A 
ENDROOT
BRANCH   1   7
ATOM      7  C   UNL     1      -4.334   5.334   2.256  1.00  0.00     0.037 C 
BRANCH   7   8
ATOM      8  C   UNL     1      -5.203   4.062   2.231  1.00  0.00     0.020 C 
BRANCH   8   9
ATOM      9  C   UNL     1      -4.869   2.997   3.286  1.00  0.00     0.078 C 
BRANCH   9  10
ATOM     10  N   UNL     1      -3.473   2.587   3.326  1.00  0.00    -0.330 NA
ATOM     11  H   UNL     1      -3.236   2.248   4.258  1.00  0.00     0.118 HD
ATOM     12  H   UNL     1      -2.866   3.391   3.165  1.00  0.00     0.118 HD
ENDBRANCH   9  10
ENDBRANCH   8   9
ENDBRANCH   7   8
ENDBRANCH   1   7
BRANCH   4  13
ATOM     13  N   UNL     1      -6.952  10.283   0.936  1.00  0.00    -0.362 N 
ATOM     14  H   UNL     1      -7.610  10.663   1.604  1.00  0.00     0.166 HD
BRANCH  13  15
ATOM     15  C   UNL     1      -6.961  10.815  -0.326  1.00  0.00     0.083 C 
BRANCH  15  16
ATOM     16  C   UNL     1      -7.981  10.933  -1.187  1.00  0.00     0.027 C 
BRANCH  16  17
ATOM     17  C   UNL     1      -8.546  12.248  -1.524  1.00  0.00    -0.003 A 
ATOM     18  C   UNL     1      -9.695  12.394  -2.321  1.00  0.00    -0.041 A 
ATOM     19  C   UNL     1      -7.928  13.430  -1.087  1.00  0.00     0.119 A 
ATOM     20  C   UNL     1     -10.152  13.688  -2.614  1.00  0.00     0.024 A 
ATOM     21  N   UNL     1      -8.366  14.684  -1.345  1.00  0.00    -0.264 NA
ATOM     22  C   UNL     1      -9.473  14.782  -2.103  1.00  0.00     0.111 A 
ATOM     23  C   UNL     1     -10.426  11.216  -2.901  1.00  0.00     0.045 C 
ENDBRANCH  16  17
ENDBRANCH  15  16
ENDBRANCH  13  15
ENDBRANCH   4  13
TORSDOF 8
ENDMDL
MODEL 4
REMARK VINA RESULT:    -4.924      2.283      8.374
REMARK INTER + INTRA:          -7.682
REMARK INTER:                  -7.042
REMARK INTRA:                  -0.640
REMARK UNBOUND:                -0.600
REMARK SMILES Cc1ccncc1/C=C/Nc1ccc(CCCN)cc1
REMARK SMILES IDX 14 1 13 2 12 3 11 4 20 5 19 6 15 7 16 8 17 9 18 10 10 13
REMARK SMILES IDX 9 15 8 16 7 17 2 18 6 19 3 20 5 21 4 22 1 23
REMARK H PARENT 18 11 18 12 10 14
ROOT
ATOM      1  C   UNL     1      -7.320  12.563   6.587  1.00  0.00    -0.048 A 
ATOM      2  C   UNL     1      -8.455  12.413   5.786  1.00  0.00     0.006 A 
ATOM      3  C   UNL     1      -8.551  11.360   4.880  1.00  0.00     0.026 A 
ATOM      4  C   UNL     1      -7.496  10.467   4.681  1.00  0.00     0.038 A 
ATOM      5  C   UNL     1      -6.335  10.650   5.442  1.00  0.00     0.026 A 
ATOM      6  C   UNL     1      -6.247  11.686   6.384  1.00  0.00     0.006 A 
ENDROOT
BRANCH   1   7
ATOM      7  C   UNL     1      -7.246  13.638   7.642  1.00  0.00     0.037 C 
BRANCH   7   8
ATOM      8  C   UNL     1      -6.087  14.646   7.522  1.00  0.00     0.020 C 
BRANCH   8   9
ATOM      9  C   UNL     1      -6.407  15.956   6.788  1.00  0.00     0.078 C 
BRANCH   9  10
ATOM     10  N   UNL     1      -6.002  15.993   5.390  1.00  0.00    -0.330 NA
ATOM     11  H   UNL     1      -5.770  16.947   5.119  1.00  0.00     0.118 HD
ATOM     12  H   UNL     1      -6.781  15.720   4.791  1.00  0.00     0.118 HD
ENDBRANCH   9  10
ENDBRANCH   8   9
ENDBRANCH   7   8
ENDBRANCH   1   7
BRANCH   4  13
ATOM     13  N   UNL     1      -7.539   9.474   3.684  1.00  0.00    -0.362 N 
ATOM     14  H   UNL     1      -7.866   8.559   3.968  1.00  0.00     0.166 HD
BRANCH  13  15
ATOM     15  C   UNL     1      -6.944   9.574   2.454  1.00  0.00     0.083 C 
BRANCH  15  16
ATOM     16  C   UNL     1      -5.910   8.884   1.956  1.00  0.00     0.027 C 
BRANCH  16  17
ATOM     17  C   UNL     1      -5.987   7.427   1.764  1.00  0.00    -0.003 A 
ATOM     18  C   UNL     1      -4.858   6.645   1.467  1.00  0.00    -0.041 A 
ATOM     19  C   UNL     1      -7.218   6.757   1.834  1.00  0.00     0.119 A 
ATOM     20  C   UNL     1      -5.025   5.265   1.275  1.00  0.00     0.024 A 
ATOM     21  N   UNL     1      -7.395   5.425   1.669  1.00  0.00    -0.264 NA
ATOM     22  C   UNL     1      -6.289   4.710   1.396  1.00  0.00     0.111 A 
ATOM     23  C   UNL     1      -3.486   7.239   1.310  1.00  0.00     0.045 C 
ENDBRANCH  16  17
ENDBRANCH  15  16
ENDBRANCH  13  15
ENDBRANCH   4  13
TORSDOF 8
ENDMDL
MODEL 5
REMARK VINA RESULT:    -4.902      2.163      2.924
REMARK INTER + INTRA:          -7.651
REMARK INTER:                  -7.064
REMARK INTRA:                  -0.588
REMARK UNBOUND:                -0.600
REMARK SMILES Cc1ccncc1/C=C/Nc1ccc(CCCN)cc1
REMARK SMILES IDX 14 1 13 2 12 3 11 4 20 5 19 6 15 7 16 8 17 9 18 10 10 13
REMARK SMILES IDX 9 15 8 16 7 17 2 18 6 19 3 20 5 21 4 22 1 23
REMARK H PARENT 18 11 18 12 10 14
ROOT
ATOM      1  C   UNL     1      -5.218   5.977   1.110  1.00  0.00    -0.048 A 
ATOM      2  C   UNL     1      -4.446   7.141   1.080  1.00  0.00     0.006 A 
ATOM      3  C   UNL     1      -4.967   8.350   1.532  1.00  0.00     0.026 A 
ATOM      4  C   UNL     1      -6.293   8.464   1.955  1.00  0.00     0.038 A 
ATOM      5  C   UNL     1      -7.085   7.310   1.933  1.00  0.00     0.026 A 
ATOM      6  C   UNL     1      -6.554   6.080   1.515  1.00  0.00     0.006 A 
ENDROOT
BRANCH   1   7
ATOM      7  C   UNL     1      -4.634   4.643   0.719  1.00  0.00     0.037 C 
BRANCH   7   8
ATOM      8  C   UNL     1      -3.731   3.952   1.759  1.00  0.00     0.020 C 
BRANCH   8   9
ATOM      9  C   UNL     1      -4.428   3.461   3.037  1.00  0.00     0.078 C 
BRANCH   9  10
ATOM     10  N   UNL     1      -5.168   2.215   2.894  1.00  0.00    -0.330 NA
ATOM     11  H   UNL     1      -4.522   1.427   2.866  1.00  0.00     0.118 HD
ATOM     12  H   UNL     1      -5.659   2.198   2.000  1.00  0.00     0.118 HD
ENDBRANCH   9  10
ENDBRANCH   8   9
ENDBRANCH   7   8
ENDBRANCH   1   7
BRANCH   4  13
ATOM     13  N   UNL     1      -6.861   9.706   2.300  1.00  0.00    -0.362 N 
ATOM     14  H   UNL     1      -7.134  10.308   1.534  1.00  0.00     0.166 HD
BRANCH  13  15
ATOM     15  C   UNL     1      -6.833  10.257   3.553  1.00  0.00     0.083 C 
BRANCH  15  16
ATOM     16  C   UNL     1      -7.826  10.383   4.444  1.00  0.00     0.027 C 
BRANCH  16  17
ATOM     17  C   UNL     1      -7.788  11.420   5.486  1.00  0.00    -0.003 A 
ATOM     18  C   UNL     1      -8.853  12.313   5.700  1.00  0.00    -0.041 A 
ATOM     19  C   UNL     1      -6.654  11.586   6.295  1.00  0.00     0.119 A 
ATOM     20  C   UNL     1      -8.724  13.288   6.700  1.00  0.00     0.024 A 
ATOM     21  N   UNL     1      -6.520  12.509   7.276  1.00  0.00    -0.264 NA
ATOM     22  C   UNL     1      -7.564  13.338   7.457  1.00  0.00     0.111 A 
ATOM     23  C   UNL     1     -10.106  12.285   4.871  1.00  0.00     0.045 C 
ENDBRANCH  16  17
ENDBRANCH  15  16
ENDBRANCH  13  15
ENDBRANCH   4  13
TORSDOF 8
ENDMDL
MODEL 6
REMARK VINA RESULT:    -4.896      4.773      6.126
REMARK INTER + INTRA:          -7.642
REMARK INTER:                  -7.078
REMARK INTRA:                  -0.564
REMARK UNBOUND:                -0.600
REMARK SMILES Cc1ccncc1/C=C/Nc1ccc(CCCN)cc1
REMARK SMILES IDX 14 1 13 2 12 3 11 4 20 5 19 6 15 7 16 8 17 9 18 10 10 13
REMARK SMILES IDX 9 15 8 16 7 17 2 18 6 19 3 20 5 21 4 22 1 23
REMARK H PARENT 18 11 18 12 10 14
ROOT
ATOM      1  C   UNL     1      -4.120   6.605   1.772  1.00  0.00    -0.048 A 
ATOM      2  C   UNL     1      -3.582   7.837   1.398  1.00  0.00     0.006 A 
ATOM      3  C   UNL     1      -4.398   8.956   1.256  1.00  0.00     0.026 A 
ATOM      4  C   UNL     1      -5.785   8.873   1.404  1.00  0.00     0.038 A 
ATOM      5  C   UNL     1      -6.333   7.625   1.723  1.00  0.00     0.026 A 
ATOM      6  C   UNL     1      -5.511   6.503   1.905  1.00  0.00     0.006 A 
ENDROOT
BRANCH   1   7
ATOM      7  C   UNL     1      -3.235   5.411   2.027  1.00  0.00     0.037 C 
BRANCH   7   8
ATOM      8  C   UNL     1      -3.856   4.023   1.780  1.00  0.00     0.020 C 
BRANCH   8   9
ATOM      9  C   UNL     1      -4.053   3.142   3.022  1.00  0.00     0.078 C 
BRANCH   9  10
ATOM     10  N   UNL     1      -5.239   2.298   2.997  1.00  0.00    -0.330 NA
ATOM     11  H   UNL     1      -5.079   1.490   2.396  1.00  0.00     0.118 HD
ATOM     12  H   UNL     1      -6.020   2.801   2.575  1.00  0.00     0.118 HD
ENDBRANCH   9  10
ENDBRANCH   8   9
ENDBRANCH   7   8
ENDBRANCH   1   7
BRANCH   4  13
ATOM     13  N   UNL     1      -6.628   9.972   1.146  1.00  0.00    -0.362 N 
ATOM     14  H   UNL     1      -6.973  10.478   1.951  1.00  0.00     0.166 HD
BRANCH  13  15
ATOM     15  C   UNL     1      -7.211  10.243  -0.063  1.00  0.00     0.083 C 
BRANCH  15  16
ATOM     16  C   UNL     1      -7.150  11.360  -0.800  1.00  0.00     0.027 C 
BRANCH  16  17
ATOM     17  C   UNL     1      -8.324  11.851  -1.538  1.00  0.00    -0.003 A 
ATOM     18  C   UNL     1      -8.771  13.181  -1.444  1.00  0.00    -0.041 A 
ATOM     19  C   UNL     1      -9.078  10.989  -2.348  1.00  0.00     0.119 A 
ATOM     20  C   UNL     1      -9.914  13.560  -2.163  1.00  0.00     0.024 A 
ATOM     21  N   UNL     1     -10.172  11.342  -3.062  1.00  0.00    -0.264 NA
ATOM     22  C   UNL     1     -10.563  12.624  -2.953  1.00  0.00     0.111 A 
ATOM     23  C   UNL     1      -8.091  14.199  -0.572  1.00  0.00     0.045 C 
ENDBRANCH  16  17
ENDBRANCH  15  16
ENDBRANCH  13  15
ENDBRANCH   4  13
TORSDOF 8
ENDMDL
MODEL 7
REMARK VINA RESULT:    -4.850      1.079      1.717
REMARK INTER + INTRA:          -7.575
REMARK INTER:                  -7.022
REMARK INTRA:                  -0.553
REMARK UNBOUND:                -0.600
REMARK SMILES Cc1ccncc1/C=C/Nc1ccc(CCCN)cc1
REMARK SMILES IDX 14 1 13 2 12 3 11 4 20 5 19 6 15 7 16 8 17 9 18 10 10 13
REMARK SMILES IDX 9 15 8 16 7 17 2 18 6 19 3 20 5 21 4 22 1 23
REMARK H PARENT 18 11 18 12 10 14
ROOT
ATOM      1  C   UNL     1      -4.863   6.701   0.871  1.00  0.00    -0.048 A 
ATOM      2  C   UNL     1      -6.110   6.424   1.434  1.00  0.00     0.006 A 
ATOM      3  C   UNL     1      -6.871   7.438   2.009  1.00  0.00     0.026 A 
ATOM      4  C   UNL     1      -6.389   8.745   2.114  1.00  0.00     0.038 A 
ATOM      5  C   UNL     1      -5.115   9.013   1.600  1.00  0.00     0.026 A 
ATOM      6  C   UNL     1      -4.359   8.003   0.985  1.00  0.00     0.006 A 
ENDROOT
BRANCH   1   7
ATOM      7  C   UNL     1      -4.075   5.632   0.156  1.00  0.00     0.037 C 
BRANCH   7   8
ATOM      8  C   UNL     1      -2.555   5.605   0.414  1.00  0.00     0.020 C 
BRANCH   8   9
ATOM      9  C   UNL     1      -1.660   5.820  -0.815  1.00  0.00     0.078 C 
BRANCH   9  10
ATOM     10  N   UNL     1      -1.356   4.615  -1.573  1.00  0.00    -0.330 NA
ATOM     11  H   UNL     1      -0.359   4.578  -1.785  1.00  0.00     0.118 HD
ATOM     12  H   UNL     1      -1.826   4.640  -2.478  1.00  0.00     0.118 HD
ENDBRANCH   9  10
ENDBRANCH   8   9
ENDBRANCH   7   8
ENDBRANCH   1   7
BRANCH   4  13
ATOM     13  N   UNL     1      -7.102   9.749   2.798  1.00  0.00    -0.362 N 
ATOM     14  H   UNL     1      -7.789  10.264   2.263  1.00  0.00     0.166 HD
BRANCH  13  15
ATOM     15  C   UNL     1      -6.765  10.245   4.030  1.00  0.00     0.083 C 
BRANCH  15  16
ATOM     16  C   UNL     1      -7.526  10.382   5.124  1.00  0.00     0.027 C 
BRANCH  16  17
ATOM     17  C   UNL     1      -7.539  11.636   5.891  1.00  0.00    -0.003 A 
ATOM     18  C   UNL     1      -8.666  12.475   5.947  1.00  0.00    -0.041 A 
ATOM     19  C   UNL     1      -6.396  12.071   6.578  1.00  0.00     0.119 A 
ATOM     20  C   UNL     1      -8.585  13.666   6.684  1.00  0.00     0.024 A 
ATOM     21  N   UNL     1      -6.306  13.208   7.308  1.00  0.00    -0.264 NA
ATOM     22  C   UNL     1      -7.407  13.978   7.345  1.00  0.00     0.111 A 
ATOM     23  C   UNL     1      -9.941  12.160   5.215  1.00  0.00     0.045 C 
ENDBRANCH  16  17
ENDBRANCH  15  16
ENDBRANCH  13  15
ENDBRANCH   4  13
TORSDOF 8
ENDMDL
MODEL 8
REMARK VINA RESULT:    -4.648      4.256      5.424
REMARK INTER + INTRA:          -7.286
REMARK INTER:                  -6.828
REMARK INTRA:                  -0.458
REMARK UNBOUND:                -0.600
REMARK SMILES Cc1ccncc1/C=C/Nc1ccc(CCCN)cc1
REMARK SMILES IDX 14 1 13 2 12 3 11 4 20 5 19 6 15 7 16 8 17 9 18 10 10 13
REMARK SMILES IDX 9 15 8 16 7 17 2 18 6 19 3 20 5 21 4 22 1 23
REMARK H PARENT 18 11 18 12 10 14
ROOT
ATOM      1  C   UNL     1      -4.016   7.041   1.601  1.00  0.00    -0.048 A 
ATOM      2  C   UNL     1      -3.583   8.352   1.388  1.00  0.00     0.006 A 
ATOM      3  C   UNL     1      -4.500   9.394   1.284  1.00  0.00     0.026 A 
ATOM      4  C   UNL     1      -5.877   9.164   1.309  1.00  0.00     0.038 A 
ATOM      5  C   UNL     1      -6.313   7.843   1.465  1.00  0.00     0.026 A 
ATOM      6  C   UNL     1      -5.394   6.792   1.609  1.00  0.00     0.006 A 
ENDROOT
BRANCH   1   7
ATOM      7  C   UNL     1      -3.031   5.919   1.816  1.00  0.00     0.037 C 
BRANCH   7   8
ATOM      8  C   UNL     1      -2.628   5.105   0.572  1.00  0.00     0.020 C 
BRANCH   8   9
ATOM      9  C   UNL     1      -2.011   5.904  -0.586  1.00  0.00     0.078 C 
BRANCH   9  10
ATOM     10  N   UNL     1      -0.619   5.591  -0.876  1.00  0.00    -0.330 NA
ATOM     11  H   UNL     1      -0.485   4.581  -0.896  1.00  0.00     0.118 HD
ATOM     12  H   UNL     1      -0.018   5.931  -0.124  1.00  0.00     0.118 HD
ENDBRANCH   9  10
ENDBRANCH   8   9
ENDBRANCH   7   8
ENDBRANCH   1   7
BRANCH   4  13
ATOM     13  N   UNL     1      -6.809  10.195   1.085  1.00  0.00    -0.362 N 
ATOM     14  H   UNL     1      -7.166  10.670   1.905  1.00  0.00     0.166 HD
BRANCH  13  15
ATOM     15  C   UNL     1      -7.450  10.427  -0.103  1.00  0.00     0.083 C 
BRANCH  15  16
ATOM     16  C   UNL     1      -7.324  11.461  -0.945  1.00  0.00     0.027 C 
BRANCH  16  17
ATOM     17  C   UNL     1      -8.264  12.592  -0.908  1.00  0.00    -0.003 A 
ATOM     18  C   UNL     1      -9.246  12.788  -1.896  1.00  0.00    -0.041 A 
ATOM     19  C   UNL     1      -8.193  13.555   0.109  1.00  0.00     0.119 A 
ATOM     20  C   UNL     1     -10.087  13.907  -1.797  1.00  0.00     0.024 A 
ATOM     21  N   UNL     1      -9.007  14.630   0.229  1.00  0.00    -0.264 NA
ATOM     22  C   UNL     1      -9.939  14.777  -0.729  1.00  0.00     0.111 A 
ATOM     23  C   UNL     1      -9.400  11.865  -3.072  1.00  0.00     0.045 C 
ENDBRANCH  16  17
ENDBRANCH  15  16
ENDBRANCH  13  15
ENDBRANCH   4  13
TORSDOF 8
ENDMDL
MODEL 9
REMARK VINA RESULT:    -4.468      1.989      8.765
REMARK INTER + INTRA:          -7.027
REMARK INTER:                  -6.440
REMARK INTRA:                  -0.587
REMARK UNBOUND:                -0.600
REMARK SMILES Cc1ccncc1/C=C/Nc1ccc(CCCN)cc1
REMARK SMILES IDX 14 1 13 2 12 3 11 4 20 5 19 6 15 7 16 8 17 9 18 10 10 13
REMARK SMILES IDX 9 15 8 16 7 17 2 18 6 19 3 20 5 21 4 22 1 23
REMARK H PARENT 18 11 18 12 10 14
ROOT
ATOM      1  C   UNL     1      -7.819  12.355   6.367  1.00  0.00    -0.048 A 
ATOM      2  C   UNL     1      -6.662  11.575   6.432  1.00  0.00     0.006 A 
ATOM      3  C   UNL     1      -6.398  10.613   5.462  1.00  0.00     0.026 A 
ATOM      4  C   UNL     1      -7.308  10.336   4.439  1.00  0.00     0.038 A 
ATOM      5  C   UNL     1      -8.495  11.078   4.405  1.00  0.00     0.026 A 
ATOM      6  C   UNL     1      -8.748  12.076   5.358  1.00  0.00     0.006 A 
ENDROOT
BRANCH   1   7
ATOM      7  C   UNL     1      -8.066  13.469   7.353  1.00  0.00     0.037 C 
BRANCH   7   8
ATOM      8  C   UNL     1      -7.078  13.582   8.531  1.00  0.00     0.020 C 
BRANCH   8   9
ATOM      9  C   UNL     1      -7.704  13.794   9.917  1.00  0.00     0.078 C 
BRANCH   9  10
ATOM     10  N   UNL     1      -7.788  12.599  10.743  1.00  0.00    -0.330 NA
ATOM     11  H   UNL     1      -8.678  12.579  11.239  1.00  0.00     0.118 HD
ATOM     12  H   UNL     1      -7.072  12.622  11.469  1.00  0.00     0.118 HD
ENDBRANCH   9  10
ENDBRANCH   8   9
ENDBRANCH   7   8
ENDBRANCH   1   7
BRANCH   4  13
ATOM     13  N   UNL     1      -7.104   9.284   3.525  1.00  0.00    -0.362 N 
ATOM     14  H   UNL     1      -7.211   8.344   3.884  1.00  0.00     0.166 HD
BRANCH  13  15
ATOM     15  C   UNL     1      -6.532   9.423   2.288  1.00  0.00     0.083 C 
BRANCH  15  16
ATOM     16  C   UNL     1      -5.348   8.975   1.849  1.00  0.00     0.027 C 
BRANCH  16  17
ATOM     17  C   UNL     1      -5.119   7.544   1.601  1.00  0.00    -0.003 A 
ATOM     18  C   UNL     1      -3.839   7.018   1.352  1.00  0.00    -0.041 A 
ATOM     19  C   UNL     1      -6.190   6.639   1.566  1.00  0.00     0.119 A 
ATOM     20  C   UNL     1      -3.713   5.643   1.101  1.00  0.00     0.024 A 
ATOM     21  N   UNL     1      -6.084   5.308   1.343  1.00  0.00    -0.264 NA
ATOM     22  C   UNL     1      -4.843   4.841   1.119  1.00  0.00     0.111 A 
ATOM     23  C   UNL     1      -2.609   7.880   1.306  1.00  0.00     0.045 C 
ENDBRANCH  16  17
ENDBRANCH  15  16
ENDBRANCH  13  15
ENDBRANCH   4  13
TORSDOF 8
ENDMDL
