MODEL 1
REMARK VINA RESULT:    -5.102      0.000      0.000
REMARK INTER + INTRA:          -7.941
REMARK INTER:                  -7.338
REMARK INTRA:                  -0.603
REMARK UNBOUND:                -0.603
REMARK SMILES Cc1ccncc1/C=C/Nc1ccc(CCCN)cc1
REMARK SMILES IDX 14 1 13 2 12 3 11 4 20 5 19 6 15 7 16 8 17 9 18 10 10 13
REMARK SMILES IDX 9 15 8 16 7 17 2 18 6 19 3 20 5 21 4 22 1 23
REMARK H PARENT 18 11 18 12 10 14
ROOT
ATOM      1  C   UNL     1      -1.060  -9.241   3.096  1.00  0.00    -0.048 A 
ATOM      2  C   UNL     1      -2.358  -9.725   3.274  1.00  0.00     0.006 A 
ATOM      3  C   UNL     1      -2.620 -11.091   3.226  1.00  0.00     0.026 A 
ATOM      4  C   UNL     1      -1.619 -12.018   2.923  1.00  0.00     0.038 A 
ATOM      5  C   UNL     1      -0.328 -11.529   2.688  1.00  0.00     0.026 A 
ATOM      6  C   UNL     1      -0.051 -10.156   2.773  1.00  0.00     0.006 A 
ENDROOT
BRANCH   1   7
ATOM      7  C   UNL     1      -0.747  -7.773   3.246  1.00  0.00     0.037 C 
BRANCH   7   8
ATOM      8  C   UNL     1       0.337  -7.198   2.313  1.00  0.00     0.020 C 
BRANCH   8   9
ATOM      9  C   UNL     1       1.160  -6.031   2.877  1.00  0.00     0.078 C 
BRANCH   9  10
ATOM     10  N   UNL     1       0.400  -4.823   3.163  1.00  0.00    -0.330 NA
ATOM     11  H   UNL     1      -0.596  -4.998   3.033  1.00  0.00     0.118 HD
ATOM     12  H   UNL     1       0.638  -4.090   2.495  1.00  0.00     0.118 HD
ENDBRANCH   9  10
ENDBRANCH   8   9
ENDBRANCH   7   8
ENDBRANCH   1   7
BRANCH   4  13
ATOM     13  N   UNL     1      -1.899 -13.388   2.755  1.00  0.00    -0.362 N 
ATOM     14  H   UNL     1      -1.288 -14.038   3.233  1.00  0.00     0.166 HD
BRANCH  13  15
ATOM     15  C   UNL     1      -2.750 -13.902   1.813  1.00  0.00     0.083 C 
BRANCH  15  16
ATOM     16  C   UNL     1      -2.461 -14.574   0.690  1.00  0.00     0.027 C 
BRANCH  16  17
ATOM     17  C   UNL     1      -2.682 -16.025   0.593  1.00  0.00    -0.003 A 
ATOM     18  C   UNL     1      -2.010 -16.828  -0.346  1.00  0.00    -0.041 A 
ATOM     19  C   UNL     1      -3.614 -16.669   1.421  1.00  0.00     0.119 A 
ATOM     20  C   UNL     1      -2.298 -18.201  -0.387  1.00  0.00     0.024 A 
ATOM     21  N   UNL     1      -3.890 -17.994   1.407  1.00  0.00    -0.264 NA
ATOM     22  C   UNL     1      -3.221 -18.730   0.502  1.00  0.00     0.111 A 
ATOM     23  C   UNL     1      -1.025 -16.263  -1.331  1.00  0.00     0.045 C 
ENDBRANCH  16  17
ENDBRANCH  15  16
ENDBRANCH  13  15
ENDBRANCH   4  13
TORSDOF 8
ENDMDL
MODEL 2
REMARK VINA RESULT:    -5.099      4.721      6.427
REMARK INTER + INTRA:          -7.936
REMARK INTER:                  -7.338
REMARK INTRA:                  -0.599
REMARK UNBOUND:                -0.603
REMARK SMILES Cc1ccncc1/C=C/Nc1ccc(CCCN)cc1
REMARK SMILES IDX 14 1 13 2 12 3 11 4 20 5 19 6 15 7 16 8 17 9 18 10 10 13
REMARK SMILES IDX 9 15 8 16 7 17 2 18 6 19 3 20 5 21 4 22 1 23
REMARK H PARENT 18 11 18 12 10 14
ROOT
ATOM      1  C   UNL     1      -1.667  -9.554   2.486  1.00  0.00    -0.048 A 
ATOM      2  C   UNL     1      -0.360 -10.040   2.569  1.00  0.00     0.006 A 
ATOM      3  C   UNL     1      -0.085 -11.227   3.241  1.00  0.00     0.026 A 
ATOM      4  C   UNL     1      -1.082 -11.932   3.920  1.00  0.00     0.038 A 
ATOM      5  C   UNL     1      -2.383 -11.416   3.886  1.00  0.00     0.026 A 
ATOM      6  C   UNL     1      -2.673 -10.240   3.178  1.00  0.00     0.006 A 
ENDROOT
BRANCH   1   7
ATOM      7  C   UNL     1      -1.993  -8.324   1.676  1.00  0.00     0.037 C 
BRANCH   7   8
ATOM      8  C   UNL     1      -3.089  -7.397   2.236  1.00  0.00     0.020 C 
BRANCH   8   9
ATOM      9  C   UNL     1      -4.230  -7.045   1.271  1.00  0.00     0.078 C 
BRANCH   9  10
ATOM     10  N   UNL     1      -5.042  -5.903   1.668  1.00  0.00    -0.330 NA
ATOM     11  H   UNL     1      -4.485  -5.256   2.224  1.00  0.00     0.118 HD
ATOM     12  H   UNL     1      -5.800  -6.207   2.280  1.00  0.00     0.118 HD
ENDBRANCH   9  10
ENDBRANCH   8   9
ENDBRANCH   7   8
ENDBRANCH   1   7
BRANCH   4  13
ATOM     13  N   UNL     1      -0.791 -13.067   4.701  1.00  0.00    -0.362 N 
ATOM     14  H   UNL     1      -1.414 -13.858   4.602  1.00  0.00     0.166 HD
BRANCH  13  15
ATOM     15  C   UNL     1       0.093 -13.091   5.747  1.00  0.00     0.083 C 
BRANCH  15  16
ATOM     16  C   UNL     1      -0.156 -13.128   7.063  1.00  0.00     0.027 C 
BRANCH  16  17
ATOM     17  C   UNL     1       0.175 -14.314   7.868  1.00  0.00    -0.003 A 
ATOM     18  C   UNL     1      -0.482 -14.614   9.074  1.00  0.00    -0.041 A 
ATOM     19  C   UNL     1       1.203 -15.185   7.477  1.00  0.00     0.119 A 
ATOM     20  C   UNL     1      -0.087 -15.753   9.792  1.00  0.00     0.024 A 
ATOM     21  N   UNL     1       1.584 -16.297   8.147  1.00  0.00    -0.264 NA
ATOM     22  C   UNL     1       0.925 -16.556   9.291  1.00  0.00     0.111 A 
ATOM     23  C   UNL     1      -1.565 -13.739   9.640  1.00  0.00     0.045 C 
ENDBRANCH  16  17
ENDBRANCH  15  16
ENDBRANCH  13  15
ENDBRANCH   4  13
TORSDOF 8
ENDMDL
MODEL 3
REMARK VINA RESULT:    -5.094      2.029      8.447
REMARK INTER + INTRA:          -7.930
REMARK INTER:                  -7.152
REMARK INTRA:                  -0.778
REMARK UNBOUND:                -0.603
REMARK SMILES Cc1ccncc1/C=C/Nc1ccc(CCCN)cc1
REMARK SMILES IDX 14 1 13 2 12 3 11 4 20 5 19 6 15 7 16 8 17 9 18 10 10 13
REMARK SMILES IDX 9 15 8 16 7 17 2 18 6 19 3 20 5 21 4 22 1 23
REMARK H PARENT 18 11 18 12 10 14
ROOT
ATOM      1  C   UNL     1      -2.432 -16.821  -0.035  1.00  0.00    -0.048 A 
ATOM      2  C   UNL     1      -2.924 -16.880   1.270  1.00  0.00     0.006 A 
ATOM      3  C   UNL     1      -3.110 -15.718   2.013  1.00  0.00     0.026 A 
ATOM      4  C   UNL     1      -2.742 -14.465   1.517  1.00  0.00     0.038 A 
ATOM      5  C   UNL     1      -2.195 -14.410   0.229  1.00  0.00     0.026 A 
ATOM      6  C   UNL     1      -2.041 -15.574  -0.539  1.00  0.00     0.006 A 
ENDROOT
BRANCH   1   7
ATOM      7  C   UNL     1      -2.322 -18.062  -0.885  1.00  0.00     0.037 C 
BRANCH   7   8
ATOM      8  C   UNL     1      -0.901 -18.495  -1.295  1.00  0.00     0.020 C 
BRANCH   8   9
ATOM      9  C   UNL     1      -0.055 -19.156  -0.197  1.00  0.00     0.078 C 
BRANCH   9  10
ATOM     10  N   UNL     1       1.105 -18.388   0.232  1.00  0.00    -0.330 NA
ATOM     11  H   UNL     1       1.907 -19.005   0.351  1.00  0.00     0.118 HD
ATOM     12  H   UNL     1       0.936 -17.980   1.152  1.00  0.00     0.118 HD
ENDBRANCH   9  10
ENDBRANCH   8   9
ENDBRANCH   7   8
ENDBRANCH   1   7
BRANCH   4  13
ATOM     13  N   UNL     1      -2.815 -13.301   2.305  1.00  0.00    -0.362 N 
ATOM     14  H   UNL     1      -3.587 -12.673   2.118  1.00  0.00     0.166 HD
BRANCH  13  15
ATOM     15  C   UNL     1      -1.808 -12.834   3.107  1.00  0.00     0.083 C 
BRANCH  15  16
ATOM     16  C   UNL     1      -1.628 -11.605   3.610  1.00  0.00     0.027 C 
BRANCH  16  17
ATOM     17  C   UNL     1      -0.809 -10.606   2.906  1.00  0.00    -0.003 A 
ATOM     18  C   UNL     1      -1.271  -9.304   2.643  1.00  0.00    -0.041 A 
ATOM     19  C   UNL     1       0.470 -10.930   2.429  1.00  0.00     0.119 A 
ATOM     20  C   UNL     1      -0.433  -8.421   1.944  1.00  0.00     0.024 A 
ATOM     21  N   UNL     1       1.297 -10.086   1.770  1.00  0.00    -0.264 NA
ATOM     22  C   UNL     1       0.824  -8.847   1.546  1.00  0.00     0.111 A 
ATOM     23  C   UNL     1      -2.641  -8.838   3.049  1.00  0.00     0.045 C 
ENDBRANCH  16  17
ENDBRANCH  15  16
ENDBRANCH  13  15
ENDBRANCH   4  13
TORSDOF 8
ENDMDL
MODEL 4
REMARK VINA RESULT:    -5.057      4.807      8.450
REMARK INTER + INTRA:          -7.877
REMARK INTER:                  -7.260
REMARK INTRA:                  -0.617
REMARK UNBOUND:                -0.603
REMARK SMILES Cc1ccncc1/C=C/Nc1ccc(CCCN)cc1
REMARK SMILES IDX 14 1 13 2 12 3 11 4 20 5 19 6 15 7 16 8 17 9 18 10 10 13
REMARK SMILES IDX 9 15 8 16 7 17 2 18 6 19 3 20 5 21 4 22 1 23
REMARK H PARENT 18 11 18 12 10 14
ROOT
ATOM      1  C   UNL     1       0.085 -14.597   8.423  1.00  0.00    -0.048 A 
ATOM      2  C   UNL     1      -0.328 -13.264   8.374  1.00  0.00     0.006 A 
ATOM      3  C   UNL     1      -0.280 -12.549   7.181  1.00  0.00     0.026 A 
ATOM      4  C   UNL     1       0.252 -13.106   6.015  1.00  0.00     0.038 A 
ATOM      5  C   UNL     1       0.719 -14.424   6.077  1.00  0.00     0.026 A 
ATOM      6  C   UNL     1       0.638 -15.162   7.268  1.00  0.00     0.006 A 
ENDROOT
BRANCH   1   7
ATOM      7  C   UNL     1      -0.057 -15.412   9.685  1.00  0.00     0.037 C 
BRANCH   7   8
ATOM      8  C   UNL     1      -1.470 -15.507  10.292  1.00  0.00     0.020 C 
BRANCH   8   9
ATOM      9  C   UNL     1      -2.266 -16.775   9.952  1.00  0.00     0.078 C 
BRANCH   9  10
ATOM     10  N   UNL     1      -3.448 -16.559   9.130  1.00  0.00    -0.330 NA
ATOM     11  H   UNL     1      -3.239 -15.892   8.388  1.00  0.00     0.118 HD
ATOM     12  H   UNL     1      -4.188 -16.128   9.685  1.00  0.00     0.118 HD
ENDBRANCH   9  10
ENDBRANCH   8   9
ENDBRANCH   7   8
ENDBRANCH   1   7
BRANCH   4  13
ATOM     13  N   UNL     1       0.414 -12.352   4.837  1.00  0.00    -0.362 N 
ATOM     14  H   UNL     1       1.338 -11.978   4.660  1.00  0.00     0.166 HD
BRANCH  13  15
ATOM     15  C   UNL     1      -0.612 -11.877   4.064  1.00  0.00     0.083 C 
BRANCH  15  16
ATOM     16  C   UNL     1      -0.561 -11.101   2.974  1.00  0.00     0.027 C 
BRANCH  16  17
ATOM     17  C   UNL     1      -1.382  -9.885   2.865  1.00  0.00    -0.003 A 
ATOM     18  C   UNL     1      -0.914  -8.712   2.247  1.00  0.00    -0.041 A 
ATOM     19  C   UNL     1      -2.671  -9.836   3.417  1.00  0.00     0.119 A 
ATOM     20  C   UNL     1      -1.755  -7.589   2.208  1.00  0.00     0.024 A 
ATOM     21  N   UNL     1      -3.501  -8.768   3.373  1.00  0.00    -0.264 NA
ATOM     22  C   UNL     1      -3.022  -7.668   2.764  1.00  0.00     0.111 A 
ATOM     23  C   UNL     1       0.466  -8.607   1.661  1.00  0.00     0.045 C 
ENDBRANCH  16  17
ENDBRANCH  15  16
ENDBRANCH  13  15
ENDBRANCH   4  13
TORSDOF 8
ENDMDL
MODEL 5
REMARK VINA RESULT:    -4.990      2.045      2.631
REMARK INTER + INTRA:          -7.781
REMARK INTER:                  -7.322
REMARK INTRA:                  -0.459
REMARK UNBOUND:                -0.603
REMARK SMILES Cc1ccncc1/C=C/Nc1ccc(CCCN)cc1
REMARK SMILES IDX 14 1 13 2 12 3 11 4 20 5 19 6 15 7 16 8 17 9 18 10 10 13
REMARK SMILES IDX 9 15 8 16 7 17 2 18 6 19 3 20 5 21 4 22 1 23
REMARK H PARENT 18 11 18 12 10 14
ROOT
ATOM      1  C   UNL     1      -2.131  -8.528   3.139  1.00  0.00    -0.048 A 
ATOM      2  C   UNL     1      -3.227  -9.297   3.536  1.00  0.00     0.006 A 
ATOM      3  C   UNL     1      -3.130 -10.683   3.619  1.00  0.00     0.026 A 
ATOM      4  C   UNL     1      -1.969 -11.360   3.237  1.00  0.00     0.038 A 
ATOM      5  C   UNL     1      -0.888 -10.594   2.783  1.00  0.00     0.026 A 
ATOM      6  C   UNL     1      -0.968  -9.194   2.734  1.00  0.00     0.006 A 
ENDROOT
BRANCH   1   7
ATOM      7  C   UNL     1      -2.193  -7.021   3.142  1.00  0.00     0.037 C 
BRANCH   7   8
ATOM      8  C   UNL     1      -2.612  -6.343   1.823  1.00  0.00     0.020 C 
BRANCH   8   9
ATOM      9  C   UNL     1      -3.961  -6.786   1.238  1.00  0.00     0.078 C 
BRANCH   9  10
ATOM     10  N   UNL     1      -5.093  -5.941   1.592  1.00  0.00    -0.330 NA
ATOM     11  H   UNL     1      -5.704  -5.821   0.785  1.00  0.00     0.118 HD
ATOM     12  H   UNL     1      -4.770  -5.004   1.832  1.00  0.00     0.118 HD
ENDBRANCH   9  10
ENDBRANCH   8   9
ENDBRANCH   7   8
ENDBRANCH   1   7
BRANCH   4  13
ATOM     13  N   UNL     1      -1.904 -12.766   3.204  1.00  0.00    -0.362 N 
ATOM     14  H   UNL     1      -1.561 -13.224   4.039  1.00  0.00     0.166 HD
BRANCH  13  15
ATOM     15  C   UNL     1      -2.017 -13.529   2.072  1.00  0.00     0.083 C 
BRANCH  15  16
ATOM     16  C   UNL     1      -3.028 -14.316   1.681  1.00  0.00     0.027 C 
BRANCH  16  17
ATOM     17  C   UNL     1      -2.785 -15.526   0.881  1.00  0.00    -0.003 A 
ATOM     18  C   UNL     1      -3.153 -16.809   1.324  1.00  0.00    -0.041 A 
ATOM     19  C   UNL     1      -2.133 -15.450  -0.359  1.00  0.00     0.119 A 
ATOM     20  C   UNL     1      -2.863 -17.913   0.507  1.00  0.00     0.024 A 
ATOM     21  N   UNL     1      -1.861 -16.502  -1.166  1.00  0.00    -0.264 NA
ATOM     22  C   UNL     1      -2.237 -17.711  -0.713  1.00  0.00     0.111 A 
ATOM     23  C   UNL     1      -3.810 -17.043   2.655  1.00  0.00     0.045 C 
ENDBRANCH  16  17
ENDBRANCH  15  16
ENDBRANCH  13  15
ENDBRANCH   4  13
TORSDOF 8
ENDMDL
MODEL 6
REMARK VINA RESULT:    -4.835      5.089      8.545
REMARK INTER + INTRA:          -7.557
REMARK INTER:                  -6.869
REMARK INTRA:                  -0.687
REMARK UNBOUND:                -0.603
REMARK SMILES Cc1ccncc1/C=C/Nc1ccc(CCCN)cc1
REMARK SMILES IDX 14 1 13 2 12 3 11 4 20 5 19 6 15 7 16 8 17 9 18 10 10 13
REMARK SMILES IDX 9 15 8 16 7 17 2 18 6 19 3 20 5 21 4 22 1 23
REMARK H PARENT 18 11 18 12 10 14
ROOT
ATOM      1  C   UNL     1       0.268 -14.868   8.873  1.00  0.00    -0.048 A 
ATOM      2  C   UNL     1       0.712 -15.558   7.743  1.00  0.00     0.006 A 
ATOM      3  C   UNL     1       0.742 -14.937   6.498  1.00  0.00     0.026 A 
ATOM      4  C   UNL     1       0.261 -13.638   6.316  1.00  0.00     0.038 A 
ATOM      5  C   UNL     1      -0.237 -12.964   7.437  1.00  0.00     0.026 A 
ATOM      6  C   UNL     1      -0.234 -13.572   8.702  1.00  0.00     0.006 A 
ENDROOT
BRANCH   1   7
ATOM      7  C   UNL     1       0.326 -15.495  10.244  1.00  0.00     0.037 C 
BRANCH   7   8
ATOM      8  C   UNL     1      -1.017 -15.682  10.975  1.00  0.00     0.020 C 
BRANCH   8   9
ATOM      9  C   UNL     1      -2.052 -16.570  10.268  1.00  0.00     0.078 C 
BRANCH   9  10
ATOM     10  N   UNL     1      -3.111 -15.849   9.576  1.00  0.00    -0.330 NA
ATOM     11  H   UNL     1      -3.881 -16.481   9.363  1.00  0.00     0.118 HD
ATOM     12  H   UNL     1      -2.775 -15.513   8.673  1.00  0.00     0.118 HD
ENDBRANCH   9  10
ENDBRANCH   8   9
ENDBRANCH   7   8
ENDBRANCH   1   7
BRANCH   4  13
ATOM     13  N   UNL     1       0.178 -13.047   5.040  1.00  0.00    -0.362 N 
ATOM     14  H   UNL     1       0.992 -13.135   4.445  1.00  0.00     0.166 HD
BRANCH  13  15
ATOM     15  C   UNL     1      -0.793 -12.163   4.649  1.00  0.00     0.083 C 
BRANCH  15  16
ATOM     16  C   UNL     1      -1.145 -11.786   3.413  1.00  0.00     0.027 C 
BRANCH  16  17
ATOM     17  C   UNL     1      -0.515 -10.629   2.761  1.00  0.00    -0.003 A 
ATOM     18  C   UNL     1      -1.184  -9.405   2.585  1.00  0.00    -0.041 A 
ATOM     19  C   UNL     1       0.788 -10.714   2.246  1.00  0.00     0.119 A 
ATOM     20  C   UNL     1      -0.516  -8.359   1.930  1.00  0.00     0.024 A 
ATOM     21  N   UNL     1       1.453  -9.710   1.628  1.00  0.00    -0.264 NA
ATOM     22  C   UNL     1       0.783  -8.552   1.488  1.00  0.00     0.111 A 
ATOM     23  C   UNL     1      -2.601  -9.190   3.039  1.00  0.00     0.045 C 
ENDBRANCH  16  17
ENDBRANCH  15  16
ENDBRANCH  13  15
ENDBRANCH   4  13
TORSDOF 8
ENDMDL
MODEL 7
REMARK VINA RESULT:    -4.830      2.282      8.465
REMARK INTER + INTRA:          -7.550
REMARK INTER:                  -6.901
REMARK INTRA:                  -0.649
REMARK UNBOUND:                -0.603
REMARK SMILES Cc1ccncc1/C=C/Nc1ccc(CCCN)cc1
REMARK SMILES IDX 14 1 13 2 12 3 11 4 20 5 19 6 15 7 16 8 17 9 18 10 10 13
REMARK SMILES IDX 9 15 8 16 7 17 2 18 6 19 3 20 5 21 4 22 1 23
REMARK H PARENT 18 11 18 12 10 14
ROOT
ATOM      1  C   UNL     1      -2.562 -17.025  -0.137  1.00  0.00    -0.048 A 
ATOM      2  C   UNL     1      -3.032 -17.101   1.176  1.00  0.00     0.006 A 
ATOM      3  C   UNL     1      -3.187 -15.951   1.943  1.00  0.00     0.026 A 
ATOM      4  C   UNL     1      -2.810 -14.694   1.463  1.00  0.00     0.038 A 
ATOM      5  C   UNL     1      -2.285 -14.623   0.167  1.00  0.00     0.026 A 
ATOM      6  C   UNL     1      -2.162 -15.775  -0.625  1.00  0.00     0.006 A 
ENDROOT
BRANCH   1   7
ATOM      7  C   UNL     1      -2.485 -18.252  -1.011  1.00  0.00     0.037 C 
BRANCH   7   8
ATOM      8  C   UNL     1      -1.240 -18.383  -1.910  1.00  0.00     0.020 C 
BRANCH   8   9
ATOM      9  C   UNL     1       0.006 -18.990  -1.250  1.00  0.00     0.078 C 
BRANCH   9  10
ATOM     10  N   UNL     1       0.766 -18.073  -0.411  1.00  0.00    -0.330 NA
ATOM     11  H   UNL     1       0.683 -18.345   0.567  1.00  0.00     0.118 HD
ATOM     12  H   UNL     1       0.371 -17.135  -0.469  1.00  0.00     0.118 HD
ENDBRANCH   9  10
ENDBRANCH   8   9
ENDBRANCH   7   8
ENDBRANCH   1   7
BRANCH   4  13
ATOM     13  N   UNL     1      -2.852 -13.544   2.274  1.00  0.00    -0.362 N 
ATOM     14  H   UNL     1      -3.770 -13.198   2.524  1.00  0.00     0.166 HD
BRANCH  13  15
ATOM     15  C   UNL     1      -1.783 -12.726   2.529  1.00  0.00     0.083 C 
BRANCH  15  16
ATOM     16  C   UNL     1      -1.634 -11.805   3.489  1.00  0.00     0.027 C 
BRANCH  16  17
ATOM     17  C   UNL     1      -2.409 -10.555   3.474  1.00  0.00    -0.003 A 
ATOM     18  C   UNL     1      -1.884  -9.348   2.980  1.00  0.00    -0.041 A 
ATOM     19  C   UNL     1      -3.711 -10.509   3.994  1.00  0.00     0.119 A 
ATOM     20  C   UNL     1      -2.684  -8.196   3.025  1.00  0.00     0.024 A 
ATOM     21  N   UNL     1      -4.503  -9.412   4.028  1.00  0.00    -0.264 NA
ATOM     22  C   UNL     1      -3.969  -8.279   3.538  1.00  0.00     0.111 A 
ATOM     23  C   UNL     1      -0.484  -9.239   2.443  1.00  0.00     0.045 C 
ENDBRANCH  16  17
ENDBRANCH  15  16
ENDBRANCH  13  15
ENDBRANCH   4  13
TORSDOF 8
ENDMDL
MODEL 8
REMARK VINA RESULT:    -4.788      4.357      5.719
REMARK INTER + INTRA:          -7.490
REMARK INTER:                  -7.057
REMARK INTRA:                  -0.434
REMARK UNBOUND:                -0.603
REMARK SMILES Cc1ccncc1/C=C/Nc1ccc(CCCN)cc1
REMARK SMILES IDX 14 1 13 2 12 3 11 4 20 5 19 6 15 7 16 8 17 9 18 10 10 13
REMARK SMILES IDX 9 15 8 16 7 17 2 18 6 19 3 20 5 21 4 22 1 23
REMARK H PARENT 18 11 18 12 10 14
ROOT
ATOM      1  C   UNL     1      -1.223  -8.761   2.108  1.00  0.00    -0.048 A 
ATOM      2  C   UNL     1      -0.038  -9.500   2.079  1.00  0.00     0.006 A 
ATOM      3  C   UNL     1       0.022 -10.767   2.652  1.00  0.00     0.026 A 
ATOM      4  C   UNL     1      -1.065 -11.312   3.340  1.00  0.00     0.038 A 
ATOM      5  C   UNL     1      -2.235 -10.548   3.419  1.00  0.00     0.026 A 
ATOM      6  C   UNL     1      -2.314  -9.286   2.810  1.00  0.00     0.006 A 
ENDROOT
BRANCH   1   7
ATOM      7  C   UNL     1      -1.330  -7.432   1.403  1.00  0.00     0.037 C 
BRANCH   7   8
ATOM      8  C   UNL     1      -1.037  -6.176   2.247  1.00  0.00     0.020 C 
BRANCH   8   9
ATOM      9  C   UNL     1       0.404  -6.028   2.757  1.00  0.00     0.078 C 
BRANCH   9  10
ATOM     10  N   UNL     1       0.749  -4.704   3.254  1.00  0.00    -0.330 NA
ATOM     11  H   UNL     1       1.731  -4.506   3.068  1.00  0.00     0.118 HD
ATOM     12  H   UNL     1       0.651  -4.673   4.269  1.00  0.00     0.118 HD
ENDBRANCH   9  10
ENDBRANCH   8   9
ENDBRANCH   7   8
ENDBRANCH   1   7
BRANCH   4  13
ATOM     13  N   UNL     1      -0.973 -12.540   4.023  1.00  0.00    -0.362 N 
ATOM     14  H   UNL     1      -1.519 -13.308   3.652  1.00  0.00     0.166 HD
BRANCH  13  15
ATOM     15  C   UNL     1      -0.424 -12.704   5.267  1.00  0.00     0.083 C 
BRANCH  15  16
ATOM     16  C   UNL     1       0.442 -13.633   5.694  1.00  0.00     0.027 C 
BRANCH  16  17
ATOM     17  C   UNL     1       0.391 -14.147   7.071  1.00  0.00    -0.003 A 
ATOM     18  C   UNL     1       0.976 -15.371   7.441  1.00  0.00    -0.041 A 
ATOM     19  C   UNL     1      -0.286 -13.442   8.078  1.00  0.00     0.119 A 
ATOM     20  C   UNL     1       0.860 -15.797   8.773  1.00  0.00     0.024 A 
ATOM     21  N   UNL     1      -0.392 -13.830   9.370  1.00  0.00    -0.264 NA
ATOM     22  C   UNL     1       0.189 -15.001   9.687  1.00  0.00     0.111 A 
ATOM     23  C   UNL     1       1.686 -16.254   6.454  1.00  0.00     0.045 C 
ENDBRANCH  16  17
ENDBRANCH  15  16
ENDBRANCH  13  15
ENDBRANCH   4  13
TORSDOF 8
ENDMDL
MODEL 9
REMARK VINA RESULT:    -4.620      1.207      2.060
REMARK INTER + INTRA:          -7.248
REMARK INTER:                  -6.697
REMARK INTRA:                  -0.550
REMARK UNBOUND:                -0.603
REMARK SMILES Cc1ccncc1/C=C/Nc1ccc(CCCN)cc1
REMARK SMILES IDX 14 1 13 2 12 3 11 4 20 5 19 6 15 7 16 8 17 9 18 10 10 13
REMARK SMILES IDX 9 15 8 16 7 17 2 18 6 19 3 20 5 21 4 22 1 23
REMARK H PARENT 18 11 18 12 10 14
ROOT
ATOM      1  C   UNL     1      -1.449  -8.821   3.298  1.00  0.00    -0.048 A 
ATOM      2  C   UNL     1      -0.320  -9.588   3.004  1.00  0.00     0.006 A 
ATOM      3  C   UNL     1      -0.435 -10.951   2.747  1.00  0.00     0.026 A 
ATOM      4  C   UNL     1      -1.660 -11.614   2.849  1.00  0.00     0.038 A 
ATOM      5  C   UNL     1      -2.784 -10.857   3.199  1.00  0.00     0.026 A 
ATOM      6  C   UNL     1      -2.680  -9.475   3.422  1.00  0.00     0.006 A 
ENDROOT
BRANCH   1   7
ATOM      7  C   UNL     1      -1.351  -7.326   3.479  1.00  0.00     0.037 C 
BRANCH   7   8
ATOM      8  C   UNL     1      -0.577  -6.548   2.397  1.00  0.00     0.020 C 
BRANCH   8   9
ATOM      9  C   UNL     1       0.465  -5.542   2.908  1.00  0.00     0.078 C 
BRANCH   9  10
ATOM     10  N   UNL     1       1.752  -5.590   2.229  1.00  0.00    -0.330 NA
ATOM     11  H   UNL     1       2.176  -4.663   2.220  1.00  0.00     0.118 HD
ATOM     12  H   UNL     1       1.622  -5.841   1.248  1.00  0.00     0.118 HD
ENDBRANCH   9  10
ENDBRANCH   8   9
ENDBRANCH   7   8
ENDBRANCH   1   7
BRANCH   4  13
ATOM     13  N   UNL     1      -1.764 -13.012   2.707  1.00  0.00    -0.362 N 
ATOM     14  H   UNL     1      -1.061 -13.569   3.176  1.00  0.00     0.166 HD
BRANCH  13  15
ATOM     15  C   UNL     1      -2.565 -13.648   1.796  1.00  0.00     0.083 C 
BRANCH  15  16
ATOM     16  C   UNL     1      -3.145 -14.853   1.877  1.00  0.00     0.027 C 
BRANCH  16  17
ATOM     17  C   UNL     1      -2.841 -15.912   0.902  1.00  0.00    -0.003 A 
ATOM     18  C   UNL     1      -3.233 -17.248   1.093  1.00  0.00    -0.041 A 
ATOM     19  C   UNL     1      -2.103 -15.631  -0.258  1.00  0.00     0.119 A 
ATOM     20  C   UNL     1      -2.880 -18.199   0.123  1.00  0.00     0.024 A 
ATOM     21  N   UNL     1      -1.769 -16.532  -1.212  1.00  0.00    -0.264 NA
ATOM     22  C   UNL     1      -2.171 -17.798  -0.998  1.00  0.00     0.111 A 
ATOM     23  C   UNL     1      -3.981 -17.700   2.315  1.00  0.00     0.045 C 
ENDBRANCH  16  17
ENDBRANCH  15  16
ENDBRANCH  13  15
ENDBRANCH   4  13
TORSDOF 8
ENDMDL
