MODEL 1
REMARK VINA RESULT:    -5.165      0.000      0.000
REMARK INTER + INTRA:          -8.030
REMARK INTER:                  -7.430
REMARK INTRA:                  -0.600
REMARK UNBOUND:                -0.600
REMARK SMILES Cc1ccncc1/C=C/Nc1ccc(CCCN)cc1
REMARK SMILES IDX 14 1 13 2 12 3 11 4 20 5 19 6 15 7 16 8 17 9 18 10 10 13
REMARK SMILES IDX 9 15 8 16 7 17 2 18 6 19 3 20 5 21 4 22 1 23
REMARK H PARENT 18 11 18 12 10 14
ROOT
ATOM      1  C   UNL     1       3.076   2.376   7.039  1.00  0.00    -0.048 A 
ATOM      2  C   UNL     1       2.820   3.749   7.052  1.00  0.00     0.006 A 
ATOM      3  C   UNL     1       2.636   4.426   8.254  1.00  0.00     0.026 A 
ATOM      4  C   UNL     1       2.621   3.753   9.479  1.00  0.00     0.038 A 
ATOM      5  C   UNL     1       2.820   2.367   9.463  1.00  0.00     0.026 A 
ATOM      6  C   UNL     1       3.045   1.685   8.257  1.00  0.00     0.006 A 
ENDROOT
BRANCH   1   7
ATOM      7  C   UNL     1       3.377   1.650   5.752  1.00  0.00     0.037 C 
BRANCH   7   8
ATOM      8  C   UNL     1       3.081   0.138   5.724  1.00  0.00     0.020 C 
BRANCH   8   9
ATOM      9  C   UNL     1       4.055  -0.724   4.909  1.00  0.00     0.078 C 
BRANCH   9  10
ATOM     10  N   UNL     1       4.181  -0.352   3.507  1.00  0.00    -0.330 NA
ATOM     11  H   UNL     1       3.723  -1.047   2.919  1.00  0.00     0.118 HD
ATOM     12  H   UNL     1       5.162  -0.362   3.228  1.00  0.00     0.118 HD
ENDBRANCH   9  10
ENDBRANCH   8   9
ENDBRANCH   7   8
ENDBRANCH   1   7
BRANCH   4  13
ATOM     13  N   UNL     1       2.318   4.411  10.686  1.00  0.00    -0.362 N 
ATOM     14  H   UNL     1       2.967   4.279  11.451  1.00  0.00     0.166 HD
BRANCH  13  15
ATOM     15  C   UNL     1       1.111   4.988  10.980  1.00  0.00     0.083 C 
BRANCH  15  16
ATOM     16  C   UNL     1       0.201   4.626  11.895  1.00  0.00     0.027 C 
BRANCH  16  17
ATOM     17  C   UNL     1       0.111   5.311  13.193  1.00  0.00    -0.003 A 
ATOM     18  C   UNL     1      -0.627   4.790  14.271  1.00  0.00    -0.041 A 
ATOM     19  C   UNL     1       0.737   6.550  13.398  1.00  0.00     0.119 A 
ATOM     20  C   UNL     1      -0.680   5.521  15.467  1.00  0.00     0.024 A 
ATOM     21  N   UNL     1       0.711   7.259  14.550  1.00  0.00    -0.264 NA
ATOM     22  C   UNL     1       0.003   6.724  15.561  1.00  0.00     0.111 A 
ATOM     23  C   UNL     1      -1.391   3.500  14.174  1.00  0.00     0.045 C 
ENDBRANCH  16  17
ENDBRANCH  15  16
ENDBRANCH  13  15
ENDBRANCH   4  13
TORSDOF 8
ENDMDL
MODEL 2
REMARK VINA RESULT:    -5.140      4.519      5.880
REMARK INTER + INTRA:          -7.995
REMARK INTER:                  -7.406
REMARK INTRA:                  -0.589
REMARK UNBOUND:                -0.600
REMARK SMILES Cc1ccncc1/C=C/Nc1ccc(CCCN)cc1
REMARK SMILES IDX 14 1 13 2 12 3 11 4 20 5 19 6 15 7 16 8 17 9 18 10 10 13
REMARK SMILES IDX 9 15 8 16 7 17 2 18 6 19 3 20 5 21 4 22 1 23
REMARK H PARENT 18 11 18 12 10 14
ROOT
ATOM      1  C   UNL     1       2.107   2.871   7.052  1.00  0.00    -0.048 A 
ATOM      2  C   UNL     1       2.561   1.878   7.923  1.00  0.00     0.006 A 
ATOM      3  C   UNL     1       3.225   2.214   9.099  1.00  0.00     0.026 A 
ATOM      4  C   UNL     1       3.531   3.541   9.413  1.00  0.00     0.038 A 
ATOM      5  C   UNL     1       3.127   4.534   8.513  1.00  0.00     0.026 A 
ATOM      6  C   UNL     1       2.423   4.203   7.344  1.00  0.00     0.006 A 
ENDROOT
BRANCH   1   7
ATOM      7  C   UNL     1       1.299   2.525   5.826  1.00  0.00     0.037 C 
BRANCH   7   8
ATOM      8  C   UNL     1       1.577   3.353   4.557  1.00  0.00     0.020 C 
BRANCH   8   9
ATOM      9  C   UNL     1       0.341   3.883   3.815  1.00  0.00     0.078 C 
BRANCH   9  10
ATOM     10  N   UNL     1      -0.378   2.891   3.029  1.00  0.00    -0.330 NA
ATOM     11  H   UNL     1      -0.132   1.953   3.343  1.00  0.00     0.118 HD
ATOM     12  H   UNL     1      -0.087   2.937   2.053  1.00  0.00     0.118 HD
ENDBRANCH   9  10
ENDBRANCH   8   9
ENDBRANCH   7   8
ENDBRANCH   1   7
BRANCH   4  13
ATOM     13  N   UNL     1       4.305   3.879  10.540  1.00  0.00    -0.362 N 
ATOM     14  H   UNL     1       3.963   4.638  11.115  1.00  0.00     0.166 HD
BRANCH  13  15
ATOM     15  C   UNL     1       5.585   3.447  10.767  1.00  0.00     0.083 C 
BRANCH  15  16
ATOM     16  C   UNL     1       6.706   4.166  10.916  1.00  0.00     0.027 C 
BRANCH  16  17
ATOM     17  C   UNL     1       7.222   4.504  12.251  1.00  0.00    -0.003 A 
ATOM     18  C   UNL     1       8.184   5.509  12.456  1.00  0.00    -0.041 A 
ATOM     19  C   UNL     1       6.797   3.799  13.387  1.00  0.00     0.119 A 
ATOM     20  C   UNL     1       8.640   5.751  13.761  1.00  0.00     0.024 A 
ATOM     21  N   UNL     1       7.213   4.030  14.654  1.00  0.00    -0.264 NA
ATOM     22  C   UNL     1       8.125   5.006  14.810  1.00  0.00     0.111 A 
ATOM     23  C   UNL     1       8.767   6.307  11.323  1.00  0.00     0.045 C 
ENDBRANCH  16  17
ENDBRANCH  15  16
ENDBRANCH  13  15
ENDBRANCH   4  13
TORSDOF 8
ENDMDL
MODEL 3
REMARK VINA RESULT:    -5.042      1.895      8.680
REMARK INTER + INTRA:          -7.853
REMARK INTER:                  -7.214
REMARK INTRA:                  -0.639
REMARK UNBOUND:                -0.600
REMARK SMILES Cc1ccncc1/C=C/Nc1ccc(CCCN)cc1
REMARK SMILES IDX 14 1 13 2 12 3 11 4 20 5 19 6 15 7 16 8 17 9 18 10 10 13
REMARK SMILES IDX 9 15 8 16 7 17 2 18 6 19 3 20 5 21 4 22 1 23
REMARK H PARENT 18 11 18 12 10 14
ROOT
ATOM      1  C   UNL     1      -0.564   4.955  14.002  1.00  0.00    -0.048 A 
ATOM      2  C   UNL     1      -0.981   4.146  12.943  1.00  0.00     0.006 A 
ATOM      3  C   UNL     1      -0.307   4.165  11.725  1.00  0.00     0.026 A 
ATOM      4  C   UNL     1       0.755   5.042  11.490  1.00  0.00     0.038 A 
ATOM      5  C   UNL     1       1.138   5.895  12.533  1.00  0.00     0.026 A 
ATOM      6  C   UNL     1       0.487   5.853  13.775  1.00  0.00     0.006 A 
ENDROOT
BRANCH   1   7
ATOM      7  C   UNL     1      -1.222   4.870  15.356  1.00  0.00     0.037 C 
BRANCH   7   8
ATOM      8  C   UNL     1      -1.924   3.542  15.701  1.00  0.00     0.020 C 
BRANCH   8   9
ATOM      9  C   UNL     1      -1.250   2.686  16.783  1.00  0.00     0.078 C 
BRANCH   9  10
ATOM     10  N   UNL     1       0.134   2.326  16.510  1.00  0.00    -0.330 NA
ATOM     11  H   UNL     1       0.613   3.103  16.056  1.00  0.00     0.118 HD
ATOM     12  H   UNL     1       0.172   1.555  15.843  1.00  0.00     0.118 HD
ENDBRANCH   9  10
ENDBRANCH   8   9
ENDBRANCH   7   8
ENDBRANCH   1   7
BRANCH   4  13
ATOM     13  N   UNL     1       1.364   5.152  10.226  1.00  0.00    -0.362 N 
ATOM     14  H   UNL     1       0.987   5.851   9.599  1.00  0.00     0.166 HD
BRANCH  13  15
ATOM     15  C   UNL     1       2.233   4.236   9.694  1.00  0.00     0.083 C 
BRANCH  15  16
ATOM     16  C   UNL     1       2.826   4.231   8.492  1.00  0.00     0.027 C 
BRANCH  16  17
ATOM     17  C   UNL     1       2.760   3.053   7.614  1.00  0.00    -0.003 A 
ATOM     18  C   UNL     1       2.689   3.159   6.214  1.00  0.00    -0.041 A 
ATOM     19  C   UNL     1       2.727   1.757   8.151  1.00  0.00     0.119 A 
ATOM     20  C   UNL     1       2.605   1.983   5.453  1.00  0.00     0.024 A 
ATOM     21  N   UNL     1       2.663   0.613   7.431  1.00  0.00    -0.264 NA
ATOM     22  C   UNL     1       2.607   0.755   6.095  1.00  0.00     0.111 A 
ATOM     23  C   UNL     1       2.662   4.485   5.508  1.00  0.00     0.045 C 
ENDBRANCH  16  17
ENDBRANCH  15  16
ENDBRANCH  13  15
ENDBRANCH   4  13
TORSDOF 8
ENDMDL
MODEL 4
REMARK VINA RESULT:    -5.037      4.778      8.457
REMARK INTER + INTRA:          -7.845
REMARK INTER:                  -7.227
REMARK INTRA:                  -0.619
REMARK UNBOUND:                -0.600
REMARK SMILES Cc1ccncc1/C=C/Nc1ccc(CCCN)cc1
REMARK SMILES IDX 14 1 13 2 12 3 11 4 20 5 19 6 15 7 16 8 17 9 18 10 10 13
REMARK SMILES IDX 9 15 8 16 7 17 2 18 6 19 3 20 5 21 4 22 1 23
REMARK H PARENT 18 11 18 12 10 14
ROOT
ATOM      1  C   UNL     1       8.206   5.297  12.147  1.00  0.00    -0.048 A 
ATOM      2  C   UNL     1       8.010   5.140  10.774  1.00  0.00     0.006 A 
ATOM      3  C   UNL     1       6.936   4.399  10.289  1.00  0.00     0.026 A 
ATOM      4  C   UNL     1       6.065   3.725  11.148  1.00  0.00     0.038 A 
ATOM      5  C   UNL     1       6.293   3.835  12.525  1.00  0.00     0.026 A 
ATOM      6  C   UNL     1       7.352   4.612  13.020  1.00  0.00     0.006 A 
ENDROOT
BRANCH   1   7
ATOM      7  C   UNL     1       9.305   6.180  12.683  1.00  0.00     0.037 C 
BRANCH   7   8
ATOM      8  C   UNL     1       9.239   7.673  12.307  1.00  0.00     0.020 C 
BRANCH   8   9
ATOM      9  C   UNL     1       8.656   8.611  13.374  1.00  0.00     0.078 C 
BRANCH   9  10
ATOM     10  N   UNL     1       7.416   9.275  12.999  1.00  0.00    -0.330 NA
ATOM     11  H   UNL     1       6.821   8.633  12.476  1.00  0.00     0.118 HD
ATOM     12  H   UNL     1       7.609  10.048  12.362  1.00  0.00     0.118 HD
ENDBRANCH   9  10
ENDBRANCH   8   9
ENDBRANCH   7   8
ENDBRANCH   1   7
BRANCH   4  13
ATOM     13  N   UNL     1       5.050   2.878  10.664  1.00  0.00    -0.362 N 
ATOM     14  H   UNL     1       5.200   1.882  10.769  1.00  0.00     0.166 HD
BRANCH  13  15
ATOM     15  C   UNL     1       4.022   3.274   9.849  1.00  0.00     0.083 C 
BRANCH  15  16
ATOM     16  C   UNL     1       3.157   2.525   9.154  1.00  0.00     0.027 C 
BRANCH  16  17
ATOM     17  C   UNL     1       2.801   2.861   7.767  1.00  0.00    -0.003 A 
ATOM     18  C   UNL     1       2.435   1.884   6.824  1.00  0.00    -0.041 A 
ATOM     19  C   UNL     1       2.850   4.188   7.313  1.00  0.00     0.119 A 
ATOM     20  C   UNL     1       2.134   2.290   5.515  1.00  0.00     0.024 A 
ATOM     21  N   UNL     1       2.546   4.599   6.059  1.00  0.00    -0.264 NA
ATOM     22  C   UNL     1       2.191   3.636   5.190  1.00  0.00     0.111 A 
ATOM     23  C   UNL     1       2.393   0.420   7.158  1.00  0.00     0.045 C 
ENDBRANCH  16  17
ENDBRANCH  15  16
ENDBRANCH  13  15
ENDBRANCH   4  13
TORSDOF 8
ENDMDL
MODEL 5
REMARK VINA RESULT:    -5.001      4.165      5.397
REMARK INTER + INTRA:          -7.793
REMARK INTER:                  -7.310
REMARK INTRA:                  -0.484
REMARK UNBOUND:                -0.600
REMARK SMILES Cc1ccncc1/C=C/Nc1ccc(CCCN)cc1
REMARK SMILES IDX 14 1 13 2 12 3 11 4 20 5 19 6 15 7 16 8 17 9 18 10 10 13
REMARK SMILES IDX 9 15 8 16 7 17 2 18 6 19 3 20 5 21 4 22 1 23
REMARK H PARENT 18 11 18 12 10 14
ROOT
ATOM      1  C   UNL     1       2.202   1.912   6.833  1.00  0.00    -0.048 A 
ATOM      2  C   UNL     1       2.557   1.189   7.974  1.00  0.00     0.006 A 
ATOM      3  C   UNL     1       3.041   1.840   9.105  1.00  0.00     0.026 A 
ATOM      4  C   UNL     1       3.262   3.219   9.118  1.00  0.00     0.038 A 
ATOM      5  C   UNL     1       2.960   3.938   7.955  1.00  0.00     0.026 A 
ATOM      6  C   UNL     1       2.436   3.292   6.825  1.00  0.00     0.006 A 
ENDROOT
BRANCH   1   7
ATOM      7  C   UNL     1       1.583   1.230   5.639  1.00  0.00     0.037 C 
BRANCH   7   8
ATOM      8  C   UNL     1       2.531   0.873   4.478  1.00  0.00     0.020 C 
BRANCH   8   9
ATOM      9  C   UNL     1       3.754   0.021   4.845  1.00  0.00     0.078 C 
BRANCH   9  10
ATOM     10  N   UNL     1       3.602  -1.408   4.610  1.00  0.00    -0.330 NA
ATOM     11  H   UNL     1       4.341  -1.740   3.992  1.00  0.00     0.118 HD
ATOM     12  H   UNL     1       2.729  -1.592   4.116  1.00  0.00     0.118 HD
ENDBRANCH   9  10
ENDBRANCH   8   9
ENDBRANCH   7   8
ENDBRANCH   1   7
BRANCH   4  13
ATOM     13  N   UNL     1       3.862   3.867  10.215  1.00  0.00    -0.362 N 
ATOM     14  H   UNL     1       3.266   4.472  10.766  1.00  0.00     0.166 HD
BRANCH  13  15
ATOM     15  C   UNL     1       5.211   3.945  10.436  1.00  0.00     0.083 C 
BRANCH  15  16
ATOM     16  C   UNL     1       5.920   3.535  11.496  1.00  0.00     0.027 C 
BRANCH  16  17
ATOM     17  C   UNL     1       7.048   4.327  12.011  1.00  0.00    -0.003 A 
ATOM     18  C   UNL     1       7.295   4.483  13.386  1.00  0.00    -0.041 A 
ATOM     19  C   UNL     1       7.914   4.999  11.135  1.00  0.00     0.119 A 
ATOM     20  C   UNL     1       8.380   5.275  13.790  1.00  0.00     0.024 A 
ATOM     21  N   UNL     1       8.975   5.752  11.507  1.00  0.00    -0.264 NA
ATOM     22  C   UNL     1       9.184   5.870  12.830  1.00  0.00     0.111 A 
ATOM     23  C   UNL     1       6.416   3.864  14.436  1.00  0.00     0.045 C 
ENDBRANCH  16  17
ENDBRANCH  15  16
ENDBRANCH  13  15
ENDBRANCH   4  13
TORSDOF 8
ENDMDL
MODEL 6
REMARK VINA RESULT:    -4.984      2.025      2.587
REMARK INTER + INTRA:          -7.769
REMARK INTER:                  -7.225
REMARK INTRA:                  -0.544
REMARK UNBOUND:                -0.600
REMARK SMILES Cc1ccncc1/C=C/Nc1ccc(CCCN)cc1
REMARK SMILES IDX 14 1 13 2 12 3 11 4 20 5 19 6 15 7 16 8 17 9 18 10 10 13
REMARK SMILES IDX 9 15 8 16 7 17 2 18 6 19 3 20 5 21 4 22 1 23
REMARK H PARENT 18 11 18 12 10 14
ROOT
ATOM      1  C   UNL     1       2.873   3.066   6.287  1.00  0.00    -0.048 A 
ATOM      2  C   UNL     1       2.785   4.377   6.759  1.00  0.00     0.006 A 
ATOM      3  C   UNL     1       2.738   4.639   8.125  1.00  0.00     0.026 A 
ATOM      4  C   UNL     1       2.699   3.608   9.067  1.00  0.00     0.038 A 
ATOM      5  C   UNL     1       2.730   2.291   8.593  1.00  0.00     0.026 A 
ATOM      6  C   UNL     1       2.815   2.022   7.219  1.00  0.00     0.006 A 
ENDROOT
BRANCH   1   7
ATOM      7  C   UNL     1       3.026   2.775   4.815  1.00  0.00     0.037 C 
BRANCH   7   8
ATOM      8  C   UNL     1       1.766   2.291   4.071  1.00  0.00     0.020 C 
BRANCH   8   9
ATOM      9  C   UNL     1       0.568   3.252   4.080  1.00  0.00     0.078 C 
BRANCH   9  10
ATOM     10  N   UNL     1       0.545   4.217   2.989  1.00  0.00    -0.330 NA
ATOM     11  H   UNL     1       0.779   3.756   2.111  1.00  0.00     0.118 HD
ATOM     12  H   UNL     1       1.268   4.923   3.129  1.00  0.00     0.118 HD
ENDBRANCH   9  10
ENDBRANCH   8   9
ENDBRANCH   7   8
ENDBRANCH   1   7
BRANCH   4  13
ATOM     13  N   UNL     1       2.532   3.862  10.442  1.00  0.00    -0.362 N 
ATOM     14  H   UNL     1       3.235   3.482  11.063  1.00  0.00     0.166 HD
BRANCH  13  15
ATOM     15  C   UNL     1       1.386   4.347  11.015  1.00  0.00     0.083 C 
BRANCH  15  16
ATOM     16  C   UNL     1       1.227   5.399  11.829  1.00  0.00     0.027 C 
BRANCH  16  17
ATOM     17  C   UNL     1       0.269   5.361  12.944  1.00  0.00    -0.003 A 
ATOM     18  C   UNL     1       0.359   6.229  14.047  1.00  0.00    -0.041 A 
ATOM     19  C   UNL     1      -0.768   4.416  12.970  1.00  0.00     0.119 A 
ATOM     20  C   UNL     1      -0.583   6.109  15.079  1.00  0.00     0.024 A 
ATOM     21  N   UNL     1      -1.696   4.298  13.948  1.00  0.00    -0.264 NA
ATOM     22  C   UNL     1      -1.582   5.153  14.981  1.00  0.00     0.111 A 
ATOM     23  C   UNL     1       1.451   7.254  14.176  1.00  0.00     0.045 C 
ENDBRANCH  16  17
ENDBRANCH  15  16
ENDBRANCH  13  15
ENDBRANCH   4  13
TORSDOF 8
ENDMDL
MODEL 7
REMARK VINA RESULT:    -4.958      4.879      8.608
REMARK INTER + INTRA:          -7.732
REMARK INTER:                  -7.100
REMARK INTRA:                  -0.631
REMARK UNBOUND:                -0.600
REMARK SMILES Cc1ccncc1/C=C/Nc1ccc(CCCN)cc1
REMARK SMILES IDX 14 1 13 2 12 3 11 4 20 5 19 6 15 7 16 8 17 9 18 10 10 13
REMARK SMILES IDX 9 15 8 16 7 17 2 18 6 19 3 20 5 21 4 22 1 23
REMARK H PARENT 18 11 18 12 10 14
ROOT
ATOM      1  C   UNL     1       8.282   5.409  12.432  1.00  0.00    -0.048 A 
ATOM      2  C   UNL     1       7.338   4.709  13.186  1.00  0.00     0.006 A 
ATOM      3  C   UNL     1       6.371   3.925  12.564  1.00  0.00     0.026 A 
ATOM      4  C   UNL     1       6.257   3.871  11.172  1.00  0.00     0.038 A 
ATOM      5  C   UNL     1       7.167   4.618  10.415  1.00  0.00     0.026 A 
ATOM      6  C   UNL     1       8.168   5.379  11.036  1.00  0.00     0.006 A 
ENDROOT
BRANCH   1   7
ATOM      7  C   UNL     1       9.396   6.179  13.095  1.00  0.00     0.037 C 
BRANCH   7   8
ATOM      8  C   UNL     1       9.433   7.699  12.843  1.00  0.00     0.020 C 
BRANCH   8   9
ATOM      9  C   UNL     1       8.510   8.551  13.726  1.00  0.00     0.078 C 
BRANCH   9  10
ATOM     10  N   UNL     1       7.439   9.236  13.017  1.00  0.00    -0.330 NA
ATOM     11  H   UNL     1       7.661  10.226  12.921  1.00  0.00     0.118 HD
ATOM     12  H   UNL     1       6.577   9.200  13.562  1.00  0.00     0.118 HD
ENDBRANCH   9  10
ENDBRANCH   8   9
ENDBRANCH   7   8
ENDBRANCH   1   7
BRANCH   4  13
ATOM     13  N   UNL     1       5.208   3.177  10.538  1.00  0.00    -0.362 N 
ATOM     14  H   UNL     1       5.444   2.291  10.109  1.00  0.00     0.166 HD
BRANCH  13  15
ATOM     15  C   UNL     1       3.984   3.713  10.237  1.00  0.00     0.083 C 
BRANCH  15  16
ATOM     16  C   UNL     1       3.338   3.741   9.064  1.00  0.00     0.027 C 
BRANCH  16  17
ATOM     17  C   UNL     1       2.987   2.499   8.358  1.00  0.00    -0.003 A 
ATOM     18  C   UNL     1       2.665   2.475   6.990  1.00  0.00    -0.041 A 
ATOM     19  C   UNL     1       2.922   1.276   9.043  1.00  0.00     0.119 A 
ATOM     20  C   UNL     1       2.318   1.250   6.401  1.00  0.00     0.024 A 
ATOM     21  N   UNL     1       2.607   0.083   8.486  1.00  0.00    -0.264 NA
ATOM     22  C   UNL     1       2.315   0.100   7.174  1.00  0.00     0.111 A 
ATOM     23  C   UNL     1       2.641   3.719   6.147  1.00  0.00     0.045 C 
ENDBRANCH  16  17
ENDBRANCH  15  16
ENDBRANCH  13  15
ENDBRANCH   4  13
TORSDOF 8
ENDMDL
MODEL 8
REMARK VINA RESULT:    -4.907      1.410      1.978
REMARK INTER + INTRA:          -7.660
REMARK INTER:                  -7.136
REMARK INTRA:                  -0.524
REMARK UNBOUND:                -0.600
REMARK SMILES Cc1ccncc1/C=C/Nc1ccc(CCCN)cc1
REMARK SMILES IDX 14 1 13 2 12 3 11 4 20 5 19 6 15 7 16 8 17 9 18 10 10 13
REMARK SMILES IDX 9 15 8 16 7 17 2 18 6 19 3 20 5 21 4 22 1 23
REMARK H PARENT 18 11 18 12 10 14
ROOT
ATOM      1  C   UNL     1       2.797   2.950   5.953  1.00  0.00    -0.048 A 
ATOM      2  C   UNL     1       2.737   4.334   6.129  1.00  0.00     0.006 A 
ATOM      3  C   UNL     1       2.767   4.890   7.404  1.00  0.00     0.026 A 
ATOM      4  C   UNL     1       2.779   4.092   8.551  1.00  0.00     0.038 A 
ATOM      5  C   UNL     1       2.783   2.703   8.377  1.00  0.00     0.026 A 
ATOM      6  C   UNL     1       2.791   2.137   7.093  1.00  0.00     0.006 A 
ENDROOT
BRANCH   1   7
ATOM      7  C   UNL     1       2.868   2.340   4.575  1.00  0.00     0.037 C 
BRANCH   7   8
ATOM      8  C   UNL     1       2.578   0.831   4.471  1.00  0.00     0.020 C 
BRANCH   8   9
ATOM      9  C   UNL     1       3.804  -0.081   4.318  1.00  0.00     0.078 C 
BRANCH   9  10
ATOM     10  N   UNL     1       3.612  -1.452   4.768  1.00  0.00    -0.330 NA
ATOM     11  H   UNL     1       2.966  -1.473   5.557  1.00  0.00     0.118 HD
ATOM     12  H   UNL     1       4.489  -1.833   5.123  1.00  0.00     0.118 HD
ENDBRANCH   9  10
ENDBRANCH   8   9
ENDBRANCH   7   8
ENDBRANCH   1   7
BRANCH   4  13
ATOM     13  N   UNL     1       2.689   4.644   9.843  1.00  0.00    -0.362 N 
ATOM     14  H   UNL     1       3.518   5.103  10.199  1.00  0.00     0.166 HD
BRANCH  13  15
ATOM     15  C   UNL     1       1.681   4.388  10.735  1.00  0.00     0.083 C 
BRANCH  15  16
ATOM     16  C   UNL     1       0.739   5.215  11.206  1.00  0.00     0.027 C 
BRANCH  16  17
ATOM     17  C   UNL     1       0.065   4.952  12.487  1.00  0.00    -0.003 A 
ATOM     18  C   UNL     1       0.239   5.775  13.613  1.00  0.00    -0.041 A 
ATOM     19  C   UNL     1      -0.761   3.830  12.648  1.00  0.00     0.119 A 
ATOM     20  C   UNL     1      -0.423   5.438  14.803  1.00  0.00     0.024 A 
ATOM     21  N   UNL     1      -1.420   3.499  13.783  1.00  0.00    -0.264 NA
ATOM     22  C   UNL     1      -1.237   4.316  14.835  1.00  0.00     0.111 A 
ATOM     23  C   UNL     1       1.138   6.980  13.598  1.00  0.00     0.045 C 
ENDBRANCH  16  17
ENDBRANCH  15  16
ENDBRANCH  13  15
ENDBRANCH   4  13
TORSDOF 8
ENDMDL
MODEL 9
REMARK VINA RESULT:    -4.785      2.179      8.411
REMARK INTER + INTRA:          -7.483
REMARK INTER:                  -6.842
REMARK INTRA:                  -0.641
REMARK UNBOUND:                -0.600
REMARK SMILES Cc1ccncc1/C=C/Nc1ccc(CCCN)cc1
REMARK SMILES IDX 14 1 13 2 12 3 11 4 20 5 19 6 15 7 16 8 17 9 18 10 10 13
REMARK SMILES IDX 9 15 8 16 7 17 2 18 6 19 3 20 5 21 4 22 1 23
REMARK H PARENT 18 11 18 12 10 14
ROOT
ATOM      1  C   UNL     1      -0.462   4.937  13.211  1.00  0.00    -0.048 A 
ATOM      2  C   UNL     1       0.787   5.562  13.214  1.00  0.00     0.006 A 
ATOM      3  C   UNL     1       1.620   5.490  12.102  1.00  0.00     0.026 A 
ATOM      4  C   UNL     1       1.279   4.732  10.979  1.00  0.00     0.038 A 
ATOM      5  C   UNL     1       0.052   4.058  10.997  1.00  0.00     0.026 A 
ATOM      6  C   UNL     1      -0.809   4.159  12.101  1.00  0.00     0.006 A 
ENDROOT
BRANCH   1   7
ATOM      7  C   UNL     1      -1.415   5.092  14.369  1.00  0.00     0.037 C 
BRANCH   7   8
ATOM      8  C   UNL     1      -0.991   4.451  15.705  1.00  0.00     0.020 C 
BRANCH   8   9
ATOM      9  C   UNL     1      -1.174   2.930  15.810  1.00  0.00     0.078 C 
BRANCH   9  10
ATOM     10  N   UNL     1      -0.036   2.211  16.364  1.00  0.00    -0.330 NA
ATOM     11  H   UNL     1       0.536   2.841  16.924  1.00  0.00     0.118 HD
ATOM     12  H   UNL     1       0.572   1.883  15.614  1.00  0.00     0.118 HD
ENDBRANCH   9  10
ENDBRANCH   8   9
ENDBRANCH   7   8
ENDBRANCH   1   7
BRANCH   4  13
ATOM     13  N   UNL     1       2.167   4.557   9.901  1.00  0.00    -0.362 N 
ATOM     14  H   UNL     1       2.330   5.364   9.311  1.00  0.00     0.166 HD
BRANCH  13  15
ATOM     15  C   UNL     1       2.614   3.346   9.444  1.00  0.00     0.083 C 
BRANCH  15  16
ATOM     16  C   UNL     1       3.278   3.060   8.316  1.00  0.00     0.027 C 
BRANCH  16  17
ATOM     17  C   UNL     1       2.603   3.081   7.009  1.00  0.00    -0.003 A 
ATOM     18  C   UNL     1       2.083   1.920   6.411  1.00  0.00    -0.041 A 
ATOM     19  C   UNL     1       2.484   4.274   6.280  1.00  0.00     0.119 A 
ATOM     20  C   UNL     1       1.475   2.026   5.150  1.00  0.00     0.024 A 
ATOM     21  N   UNL     1       1.886   4.397   5.072  1.00  0.00    -0.264 NA
ATOM     22  C   UNL     1       1.392   3.266   4.537  1.00  0.00     0.111 A 
ATOM     23  C   UNL     1       2.188   0.566   7.055  1.00  0.00     0.045 C 
ENDBRANCH  16  17
ENDBRANCH  15  16
ENDBRANCH  13  15
ENDBRANCH   4  13
TORSDOF 8
ENDMDL
