MODEL 1
REMARK VINA RESULT:    -5.162      0.000      0.000
REMARK INTER + INTRA:          -8.158
REMARK INTER:                  -7.425
REMARK INTRA:                  -0.733
REMARK UNBOUND:                -0.733
REMARK SMILES Cc1ccncc1/C=C/Nc1ccc(CCCN)cc1
REMARK SMILES IDX 14 1 13 2 12 3 11 4 20 5 19 6 15 7 16 8 17 9 18 10 10 13
REMARK SMILES IDX 9 15 8 16 7 17 2 18 6 19 3 20 5 21 4 22 1 23
REMARK H PARENT 18 11 18 12 10 14
ROOT
ATOM      1  C   UNL     1       3.149  16.717  -0.015  1.00  0.00    -0.048 A 
ATOM      2  C   UNL     1       2.395  16.862  -1.181  1.00  0.00     0.006 A 
ATOM      3  C   UNL     1       1.878  15.748  -1.836  1.00  0.00     0.026 A 
ATOM      4  C   UNL     1       2.155  14.450  -1.402  1.00  0.00     0.038 A 
ATOM      5  C   UNL     1       2.958  14.301  -0.265  1.00  0.00     0.026 A 
ATOM      6  C   UNL     1       3.450  15.422   0.421  1.00  0.00     0.006 A 
ENDROOT
BRANCH   1   7
ATOM      7  C   UNL     1       3.629  17.920   0.759  1.00  0.00     0.037 C 
BRANCH   7   8
ATOM      8  C   UNL     1       5.153  18.134   0.828  1.00  0.00     0.020 C 
BRANCH   8   9
ATOM      9  C   UNL     1       5.793  18.817  -0.389  1.00  0.00     0.078 C 
BRANCH   9  10
ATOM     10  N   UNL     1       6.705  17.980  -1.155  1.00  0.00    -0.330 NA
ATOM     11  H   UNL     1       7.547  17.794  -0.612  1.00  0.00     0.118 HD
ATOM     12  H   UNL     1       7.022  18.477  -1.989  1.00  0.00     0.118 HD
ENDBRANCH   9  10
ENDBRANCH   8   9
ENDBRANCH   7   8
ENDBRANCH   1   7
BRANCH   4  13
ATOM     13  N   UNL     1       1.735  13.317  -2.126  1.00  0.00    -0.362 N 
ATOM     14  H   UNL     1       0.828  12.936  -1.888  1.00  0.00     0.166 HD
BRANCH  13  15
ATOM     15  C   UNL     1       2.546  12.555  -2.925  1.00  0.00     0.083 C 
BRANCH  15  16
ATOM     16  C   UNL     1       2.355  11.310  -3.380  1.00  0.00     0.027 C 
BRANCH  16  17
ATOM     17  C   UNL     1       3.131  10.178  -2.852  1.00  0.00    -0.003 A 
ATOM     18  C   UNL     1       2.535   8.955  -2.495  1.00  0.00    -0.041 A 
ATOM     19  C   UNL     1       4.515  10.288  -2.646  1.00  0.00     0.119 A 
ATOM     20  C   UNL     1       3.347   7.935  -1.976  1.00  0.00     0.024 A 
ATOM     21  N   UNL     1       5.315   9.309  -2.163  1.00  0.00    -0.264 NA
ATOM     22  C   UNL     1       4.709   8.152  -1.843  1.00  0.00     0.111 A 
ATOM     23  C   UNL     1       1.056   8.717  -2.613  1.00  0.00     0.045 C 
ENDBRANCH  16  17
ENDBRANCH  15  16
ENDBRANCH  13  15
ENDBRANCH   4  13
TORSDOF 8
ENDMDL
MODEL 2
REMARK VINA RESULT:    -5.157      4.656      6.890
REMARK INTER + INTRA:          -8.151
REMARK INTER:                  -7.345
REMARK INTRA:                  -0.805
REMARK UNBOUND:                -0.733
REMARK SMILES Cc1ccncc1/C=C/Nc1ccc(CCCN)cc1
REMARK SMILES IDX 14 1 13 2 12 3 11 4 20 5 19 6 15 7 16 8 17 9 18 10 10 13
REMARK SMILES IDX 9 15 8 16 7 17 2 18 6 19 3 20 5 21 4 22 1 23
REMARK H PARENT 18 11 18 12 10 14
ROOT
ATOM      1  C   UNL     1       3.298  14.106  -8.812  1.00  0.00    -0.048 A 
ATOM      2  C   UNL     1       4.113  14.691  -7.841  1.00  0.00     0.006 A 
ATOM      3  C   UNL     1       4.407  14.017  -6.660  1.00  0.00     0.026 A 
ATOM      4  C   UNL     1       3.841  12.774  -6.366  1.00  0.00     0.038 A 
ATOM      5  C   UNL     1       2.978  12.211  -7.314  1.00  0.00     0.026 A 
ATOM      6  C   UNL     1       2.708  12.869  -8.524  1.00  0.00     0.006 A 
ENDROOT
BRANCH   1   7
ATOM      7  C   UNL     1       3.054  14.782 -10.138  1.00  0.00     0.037 C 
BRANCH   7   8
ATOM      8  C   UNL     1       1.588  15.094 -10.497  1.00  0.00     0.020 C 
BRANCH   8   9
ATOM      9  C   UNL     1       1.045  16.441  -9.999  1.00  0.00     0.078 C 
BRANCH   9  10
ATOM     10  N   UNL     1       0.231  16.368  -8.793  1.00  0.00    -0.330 NA
ATOM     11  H   UNL     1       0.831  16.322  -7.970  1.00  0.00     0.118 HD
ATOM     12  H   UNL     1      -0.310  15.503  -8.786  1.00  0.00     0.118 HD
ENDBRANCH   9  10
ENDBRANCH   8   9
ENDBRANCH   7   8
ENDBRANCH   1   7
BRANCH   4  13
ATOM     13  N   UNL     1       4.038  12.140  -5.124  1.00  0.00    -0.362 N 
ATOM     14  H   UNL     1       4.655  11.338  -5.117  1.00  0.00     0.166 HD
BRANCH  13  15
ATOM     15  C   UNL     1       3.279  12.359  -4.005  1.00  0.00     0.083 C 
BRANCH  15  16
ATOM     16  C   UNL     1       3.082  11.561  -2.948  1.00  0.00     0.027 C 
BRANCH  16  17
ATOM     17  C   UNL     1       2.000  10.565  -2.936  1.00  0.00    -0.003 A 
ATOM     18  C   UNL     1       2.224   9.211  -2.630  1.00  0.00    -0.041 A 
ATOM     19  C   UNL     1       0.686  10.925  -3.272  1.00  0.00     0.119 A 
ATOM     20  C   UNL     1       1.138   8.323  -2.665  1.00  0.00     0.024 A 
ATOM     21  N   UNL     1      -0.375  10.086  -3.293  1.00  0.00    -0.264 NA
ATOM     22  C   UNL     1      -0.122   8.802  -2.985  1.00  0.00     0.111 A 
ATOM     23  C   UNL     1       3.590   8.675  -2.304  1.00  0.00     0.045 C 
ENDBRANCH  16  17
ENDBRANCH  15  16
ENDBRANCH  13  15
ENDBRANCH   4  13
TORSDOF 8
ENDMDL
MODEL 3
REMARK VINA RESULT:    -4.968      1.374      2.055
REMARK INTER + INTRA:          -7.879
REMARK INTER:                  -7.287
REMARK INTRA:                  -0.592
REMARK UNBOUND:                -0.733
REMARK SMILES Cc1ccncc1/C=C/Nc1ccc(CCCN)cc1
REMARK SMILES IDX 14 1 13 2 12 3 11 4 20 5 19 6 15 7 16 8 17 9 18 10 10 13
REMARK SMILES IDX 9 15 8 16 7 17 2 18 6 19 3 20 5 21 4 22 1 23
REMARK H PARENT 18 11 18 12 10 14
ROOT
ATOM      1  C   UNL     1       3.045  16.844  -0.112  1.00  0.00    -0.048 A 
ATOM      2  C   UNL     1       2.350  16.882  -1.323  1.00  0.00     0.006 A 
ATOM      3  C   UNL     1       1.890  15.709  -1.915  1.00  0.00     0.026 A 
ATOM      4  C   UNL     1       2.170  14.455  -1.368  1.00  0.00     0.038 A 
ATOM      5  C   UNL     1       2.917  14.412  -0.184  1.00  0.00     0.026 A 
ATOM      6  C   UNL     1       3.350  15.593   0.437  1.00  0.00     0.006 A 
ENDROOT
BRANCH   1   7
ATOM      7  C   UNL     1       3.460  18.113   0.589  1.00  0.00     0.037 C 
BRANCH   7   8
ATOM      8  C   UNL     1       4.608  18.915  -0.053  1.00  0.00     0.020 C 
BRANCH   8   9
ATOM      9  C   UNL     1       6.009  18.295   0.060  1.00  0.00     0.078 C 
BRANCH   9  10
ATOM     10  N   UNL     1       6.676  18.047  -1.210  1.00  0.00    -0.330 NA
ATOM     11  H   UNL     1       7.404  17.344  -1.090  1.00  0.00     0.118 HD
ATOM     12  H   UNL     1       7.159  18.889  -1.524  1.00  0.00     0.118 HD
ENDBRANCH   9  10
ENDBRANCH   8   9
ENDBRANCH   7   8
ENDBRANCH   1   7
BRANCH   4  13
ATOM     13  N   UNL     1       1.812  13.261  -2.023  1.00  0.00    -0.362 N 
ATOM     14  H   UNL     1       1.006  12.767  -1.659  1.00  0.00     0.166 HD
BRANCH  13  15
ATOM     15  C   UNL     1       2.600  12.596  -2.924  1.00  0.00     0.083 C 
BRANCH  15  16
ATOM     16  C   UNL     1       3.014  11.322  -2.908  1.00  0.00     0.027 C 
BRANCH  16  17
ATOM     17  C   UNL     1       2.054  10.210  -2.824  1.00  0.00    -0.003 A 
ATOM     18  C   UNL     1       2.431   8.917  -2.420  1.00  0.00    -0.041 A 
ATOM     19  C   UNL     1       0.711  10.390  -3.187  1.00  0.00     0.119 A 
ATOM     20  C   UNL     1       1.455   7.909  -2.392  1.00  0.00     0.024 A 
ATOM     21  N   UNL     1      -0.246   9.434  -3.149  1.00  0.00    -0.264 NA
ATOM     22  C   UNL     1       0.151   8.213  -2.748  1.00  0.00     0.111 A 
ATOM     23  C   UNL     1       3.846   8.569  -2.055  1.00  0.00     0.045 C 
ENDBRANCH  16  17
ENDBRANCH  15  16
ENDBRANCH  13  15
ENDBRANCH   4  13
TORSDOF 8
ENDMDL
MODEL 4
REMARK VINA RESULT:    -4.967      4.606      6.538
REMARK INTER + INTRA:          -7.878
REMARK INTER:                  -7.214
REMARK INTRA:                  -0.664
REMARK UNBOUND:                -0.733
REMARK SMILES Cc1ccncc1/C=C/Nc1ccc(CCCN)cc1
REMARK SMILES IDX 14 1 13 2 12 3 11 4 20 5 19 6 15 7 16 8 17 9 18 10 10 13
REMARK SMILES IDX 9 15 8 16 7 17 2 18 6 19 3 20 5 21 4 22 1 23
REMARK H PARENT 18 11 18 12 10 14
ROOT
ATOM      1  C   UNL     1       3.313  14.223  -8.752  1.00  0.00    -0.048 A 
ATOM      2  C   UNL     1       4.166  14.695  -7.752  1.00  0.00     0.006 A 
ATOM      3  C   UNL     1       4.449  13.916  -6.634  1.00  0.00     0.026 A 
ATOM      4  C   UNL     1       3.838  12.676  -6.431  1.00  0.00     0.038 A 
ATOM      5  C   UNL     1       2.940  12.226  -7.406  1.00  0.00     0.026 A 
ATOM      6  C   UNL     1       2.679  12.991  -8.553  1.00  0.00     0.006 A 
ENDROOT
BRANCH   1   7
ATOM      7  C   UNL     1       3.078  15.014 -10.014  1.00  0.00     0.037 C 
BRANCH   7   8
ATOM      8  C   UNL     1       1.610  15.245 -10.422  1.00  0.00     0.020 C 
BRANCH   8   9
ATOM      9  C   UNL     1       0.971  16.551  -9.928  1.00  0.00     0.078 C 
BRANCH   9  10
ATOM     10  N   UNL     1       0.122  16.415  -8.752  1.00  0.00    -0.330 NA
ATOM     11  H   UNL     1      -0.450  15.575  -8.830  1.00  0.00     0.118 HD
ATOM     12  H   UNL     1      -0.538  17.191  -8.703  1.00  0.00     0.118 HD
ENDBRANCH   9  10
ENDBRANCH   8   9
ENDBRANCH   7   8
ENDBRANCH   1   7
BRANCH   4  13
ATOM     13  N   UNL     1       4.028  11.937  -5.248  1.00  0.00    -0.362 N 
ATOM     14  H   UNL     1       4.627  11.123  -5.312  1.00  0.00     0.166 HD
BRANCH  13  15
ATOM     15  C   UNL     1       3.281  12.078  -4.109  1.00  0.00     0.083 C 
BRANCH  15  16
ATOM     16  C   UNL     1       2.560  11.160  -3.451  1.00  0.00     0.027 C 
BRANCH  16  17
ATOM     17  C   UNL     1       3.199   9.982  -2.844  1.00  0.00    -0.003 A 
ATOM     18  C   UNL     1       2.474   8.830  -2.490  1.00  0.00    -0.041 A 
ATOM     19  C   UNL     1       4.572   9.977  -2.554  1.00  0.00     0.119 A 
ATOM     20  C   UNL     1       3.159   7.761  -1.893  1.00  0.00     0.024 A 
ATOM     21  N   UNL     1       5.250   8.948  -1.995  1.00  0.00    -0.264 NA
ATOM     22  C   UNL     1       4.525   7.860  -1.681  1.00  0.00     0.111 A 
ATOM     23  C   UNL     1       0.989   8.720  -2.693  1.00  0.00     0.045 C 
ENDBRANCH  16  17
ENDBRANCH  15  16
ENDBRANCH  13  15
ENDBRANCH   4  13
TORSDOF 8
ENDMDL
MODEL 5
REMARK VINA RESULT:    -4.910      2.239      8.374
REMARK INTER + INTRA:          -7.796
REMARK INTER:                  -7.157
REMARK INTRA:                  -0.639
REMARK UNBOUND:                -0.733
REMARK SMILES Cc1ccncc1/C=C/Nc1ccc(CCCN)cc1
REMARK SMILES IDX 14 1 13 2 12 3 11 4 20 5 19 6 15 7 16 8 17 9 18 10 10 13
REMARK SMILES IDX 9 15 8 16 7 17 2 18 6 19 3 20 5 21 4 22 1 23
REMARK H PARENT 18 11 18 12 10 14
ROOT
ATOM      1  C   UNL     1       1.582   8.567  -2.813  1.00  0.00    -0.048 A 
ATOM      2  C   UNL     1       0.563   9.502  -3.005  1.00  0.00     0.006 A 
ATOM      3  C   UNL     1       0.860  10.848  -3.193  1.00  0.00     0.026 A 
ATOM      4  C   UNL     1       2.171  11.325  -3.121  1.00  0.00     0.038 A 
ATOM      5  C   UNL     1       3.189  10.397  -2.873  1.00  0.00     0.026 A 
ATOM      6  C   UNL     1       2.899   9.033  -2.720  1.00  0.00     0.006 A 
ENDROOT
BRANCH   1   7
ATOM      7  C   UNL     1       1.279   7.093  -2.709  1.00  0.00     0.037 C 
BRANCH   7   8
ATOM      8  C   UNL     1       1.423   6.454  -1.314  1.00  0.00     0.020 C 
BRANCH   8   9
ATOM      9  C   UNL     1       0.344   6.827  -0.288  1.00  0.00     0.078 C 
BRANCH   9  10
ATOM     10  N   UNL     1      -0.993   6.340  -0.597  1.00  0.00    -0.330 NA
ATOM     11  H   UNL     1      -1.490   7.023  -1.168  1.00  0.00     0.118 HD
ATOM     12  H   UNL     1      -1.541   6.250   0.259  1.00  0.00     0.118 HD
ENDBRANCH   9  10
ENDBRANCH   8   9
ENDBRANCH   7   8
ENDBRANCH   1   7
BRANCH   4  13
ATOM     13  N   UNL     1       2.468  12.700  -3.192  1.00  0.00    -0.362 N 
ATOM     14  H   UNL     1       2.738  13.060  -4.098  1.00  0.00     0.166 HD
BRANCH  13  15
ATOM     15  C   UNL     1       2.668  13.514  -2.108  1.00  0.00     0.083 C 
BRANCH  15  16
ATOM     16  C   UNL     1       1.865  14.457  -1.599  1.00  0.00     0.027 C 
BRANCH  16  17
ATOM     17  C   UNL     1       2.414  15.643  -0.924  1.00  0.00    -0.003 A 
ATOM     18  C   UNL     1       2.360  16.927  -1.494  1.00  0.00    -0.041 A 
ATOM     19  C   UNL     1       3.057  15.531   0.317  1.00  0.00     0.119 A 
ATOM     20  C   UNL     1       2.930  18.000  -0.792  1.00  0.00     0.024 A 
ATOM     21  N   UNL     1       3.597  16.558   1.016  1.00  0.00    -0.264 NA
ATOM     22  C   UNL     1       3.516  17.772   0.442  1.00  0.00     0.111 A 
ATOM     23  C   UNL     1       1.748  17.184  -2.843  1.00  0.00     0.045 C 
ENDBRANCH  16  17
ENDBRANCH  15  16
ENDBRANCH  13  15
ENDBRANCH   4  13
TORSDOF 8
ENDMDL
MODEL 6
REMARK VINA RESULT:    -4.900      1.975      8.496
REMARK INTER + INTRA:          -7.781
REMARK INTER:                  -7.208
REMARK INTRA:                  -0.573
REMARK UNBOUND:                -0.733
REMARK SMILES Cc1ccncc1/C=C/Nc1ccc(CCCN)cc1
REMARK SMILES IDX 14 1 13 2 12 3 11 4 20 5 19 6 15 7 16 8 17 9 18 10 10 13
REMARK SMILES IDX 9 15 8 16 7 17 2 18 6 19 3 20 5 21 4 22 1 23
REMARK H PARENT 18 11 18 12 10 14
ROOT
ATOM      1  C   UNL     1       2.772   8.928  -2.995  1.00  0.00    -0.048 A 
ATOM      2  C   UNL     1       1.535   9.576  -2.963  1.00  0.00     0.006 A 
ATOM      3  C   UNL     1       1.462  10.965  -2.935  1.00  0.00     0.026 A 
ATOM      4  C   UNL     1       2.610  11.758  -2.859  1.00  0.00     0.038 A 
ATOM      5  C   UNL     1       3.849  11.108  -2.834  1.00  0.00     0.026 A 
ATOM      6  C   UNL     1       3.931   9.709  -2.901  1.00  0.00     0.006 A 
ENDROOT
BRANCH   1   7
ATOM      7  C   UNL     1       2.865   7.429  -3.128  1.00  0.00     0.037 C 
BRANCH   7   8
ATOM      8  C   UNL     1       4.008   6.735  -2.362  1.00  0.00     0.020 C 
BRANCH   8   9
ATOM      9  C   UNL     1       4.731   5.605  -3.110  1.00  0.00     0.078 C 
BRANCH   9  10
ATOM     10  N   UNL     1       3.961   4.380  -3.266  1.00  0.00    -0.330 NA
ATOM     11  H   UNL     1       3.060   4.587  -3.695  1.00  0.00     0.118 HD
ATOM     12  H   UNL     1       3.744   3.982  -2.353  1.00  0.00     0.118 HD
ENDBRANCH   9  10
ENDBRANCH   8   9
ENDBRANCH   7   8
ENDBRANCH   1   7
BRANCH   4  13
ATOM     13  N   UNL     1       2.540  13.156  -2.710  1.00  0.00    -0.362 N 
ATOM     14  H   UNL     1       3.178  13.705  -3.273  1.00  0.00     0.166 HD
BRANCH  13  15
ATOM     15  C   UNL     1       1.879  13.804  -1.700  1.00  0.00     0.083 C 
BRANCH  15  16
ATOM     16  C   UNL     1       2.345  14.704  -0.824  1.00  0.00     0.027 C 
BRANCH  16  17
ATOM     17  C   UNL     1       2.486  16.121  -1.192  1.00  0.00    -0.003 A 
ATOM     18  C   UNL     1       3.144  17.052  -0.367  1.00  0.00    -0.041 A 
ATOM     19  C   UNL     1       1.929  16.616  -2.380  1.00  0.00     0.119 A 
ATOM     20  C   UNL     1       3.212  18.390  -0.783  1.00  0.00     0.024 A 
ATOM     21  N   UNL     1       2.001  17.899  -2.805  1.00  0.00    -0.264 NA
ATOM     22  C   UNL     1       2.646  18.757  -1.994  1.00  0.00     0.111 A 
ATOM     23  C   UNL     1       3.740  16.672   0.958  1.00  0.00     0.045 C 
ENDBRANCH  16  17
ENDBRANCH  15  16
ENDBRANCH  13  15
ENDBRANCH   4  13
TORSDOF 8
ENDMDL
MODEL 7
REMARK VINA RESULT:    -4.878      4.670      8.475
REMARK INTER + INTRA:          -7.750
REMARK INTER:                  -7.266
REMARK INTRA:                  -0.484
REMARK UNBOUND:                -0.733
REMARK SMILES Cc1ccncc1/C=C/Nc1ccc(CCCN)cc1
REMARK SMILES IDX 14 1 13 2 12 3 11 4 20 5 19 6 15 7 16 8 17 9 18 10 10 13
REMARK SMILES IDX 9 15 8 16 7 17 2 18 6 19 3 20 5 21 4 22 1 23
REMARK H PARENT 18 11 18 12 10 14
ROOT
ATOM      1  C   UNL     1       3.068   8.666  -2.013  1.00  0.00    -0.048 A 
ATOM      2  C   UNL     1       4.255   9.336  -2.314  1.00  0.00     0.006 A 
ATOM      3  C   UNL     1       4.232  10.557  -2.982  1.00  0.00     0.026 A 
ATOM      4  C   UNL     1       3.038  11.117  -3.442  1.00  0.00     0.038 A 
ATOM      5  C   UNL     1       1.851  10.418  -3.191  1.00  0.00     0.026 A 
ATOM      6  C   UNL     1       1.865   9.206  -2.485  1.00  0.00     0.006 A 
ENDROOT
BRANCH   1   7
ATOM      7  C   UNL     1       3.073   7.394  -1.202  1.00  0.00     0.037 C 
BRANCH   7   8
ATOM      8  C   UNL     1       3.025   6.071  -1.991  1.00  0.00     0.020 C 
BRANCH   8   9
ATOM      9  C   UNL     1       4.139   5.864  -3.028  1.00  0.00     0.078 C 
BRANCH   9  10
ATOM     10  N   UNL     1       5.250   5.036  -2.581  1.00  0.00    -0.330 NA
ATOM     11  H   UNL     1       4.973   4.056  -2.573  1.00  0.00     0.118 HD
ATOM     12  H   UNL     1       5.489   5.261  -1.615  1.00  0.00     0.118 HD
ENDBRANCH   9  10
ENDBRANCH   8   9
ENDBRANCH   7   8
ENDBRANCH   1   7
BRANCH   4  13
ATOM     13  N   UNL     1       3.018  12.290  -4.221  1.00  0.00    -0.362 N 
ATOM     14  H   UNL     1       2.627  13.117  -3.787  1.00  0.00     0.166 HD
BRANCH  13  15
ATOM     15  C   UNL     1       3.239  12.336  -5.572  1.00  0.00     0.083 C 
BRANCH  15  16
ATOM     16  C   UNL     1       4.185  12.998  -6.252  1.00  0.00     0.027 C 
BRANCH  16  17
ATOM     17  C   UNL     1       3.872  13.696  -7.509  1.00  0.00    -0.003 A 
ATOM     18  C   UNL     1       4.195  15.048  -7.721  1.00  0.00    -0.041 A 
ATOM     19  C   UNL     1       3.195  13.040  -8.547  1.00  0.00     0.119 A 
ATOM     20  C   UNL     1       3.839  15.643  -8.940  1.00  0.00     0.024 A 
ATOM     21  N   UNL     1       2.859  13.593  -9.736  1.00  0.00    -0.264 NA
ATOM     22  C   UNL     1       3.194  14.885  -9.905  1.00  0.00     0.111 A 
ATOM     23  C   UNL     1       4.872  15.887  -6.674  1.00  0.00     0.045 C 
ENDBRANCH  16  17
ENDBRANCH  15  16
ENDBRANCH  13  15
ENDBRANCH   4  13
TORSDOF 8
ENDMDL
MODEL 8
REMARK VINA RESULT:    -4.813      4.641      8.476
REMARK INTER + INTRA:          -7.656
REMARK INTER:                  -7.129
REMARK INTRA:                  -0.527
REMARK UNBOUND:                -0.733
REMARK SMILES Cc1ccncc1/C=C/Nc1ccc(CCCN)cc1
REMARK SMILES IDX 14 1 13 2 12 3 11 4 20 5 19 6 15 7 16 8 17 9 18 10 10 13
REMARK SMILES IDX 9 15 8 16 7 17 2 18 6 19 3 20 5 21 4 22 1 23
REMARK H PARENT 18 11 18 12 10 14
ROOT
ATOM      1  C   UNL     1       2.511   9.074  -1.930  1.00  0.00    -0.048 A 
ATOM      2  C   UNL     1       3.784   9.475  -2.338  1.00  0.00     0.006 A 
ATOM      3  C   UNL     1       3.955  10.620  -3.111  1.00  0.00     0.026 A 
ATOM      4  C   UNL     1       2.864  11.363  -3.571  1.00  0.00     0.038 A 
ATOM      5  C   UNL     1       1.583  10.929  -3.209  1.00  0.00     0.026 A 
ATOM      6  C   UNL     1       1.407   9.798  -2.398  1.00  0.00     0.006 A 
ENDROOT
BRANCH   1   7
ATOM      7  C   UNL     1       2.321   7.895  -1.009  1.00  0.00     0.037 C 
BRANCH   7   8
ATOM      8  C   UNL     1       1.184   6.916  -1.363  1.00  0.00     0.020 C 
BRANCH   8   9
ATOM      9  C   UNL     1      -0.033   6.933  -0.427  1.00  0.00     0.078 C 
BRANCH   9  10
ATOM     10  N   UNL     1      -0.005   5.941   0.638  1.00  0.00    -0.330 NA
ATOM     11  H   UNL     1      -0.929   5.527   0.754  1.00  0.00     0.118 HD
ATOM     12  H   UNL     1       0.208   6.389   1.530  1.00  0.00     0.118 HD
ENDBRANCH   9  10
ENDBRANCH   8   9
ENDBRANCH   7   8
ENDBRANCH   1   7
BRANCH   4  13
ATOM     13  N   UNL     1       3.022  12.451  -4.450  1.00  0.00    -0.362 N 
ATOM     14  H   UNL     1       2.727  13.357  -4.108  1.00  0.00     0.166 HD
BRANCH  13  15
ATOM     15  C   UNL     1       3.292  12.343  -5.788  1.00  0.00     0.083 C 
BRANCH  15  16
ATOM     16  C   UNL     1       4.232  12.962  -6.514  1.00  0.00     0.027 C 
BRANCH  16  17
ATOM     17  C   UNL     1       3.877  13.782  -7.682  1.00  0.00    -0.003 A 
ATOM     18  C   UNL     1       4.161  15.157  -7.753  1.00  0.00    -0.041 A 
ATOM     19  C   UNL     1       3.195  13.222  -8.773  1.00  0.00     0.119 A 
ATOM     20  C   UNL     1       3.765  15.869  -8.896  1.00  0.00     0.024 A 
ATOM     21  N   UNL     1       2.821  13.890  -9.890  1.00  0.00    -0.264 NA
ATOM     22  C   UNL     1       3.120  15.201  -9.924  1.00  0.00     0.111 A 
ATOM     23  C   UNL     1       4.838  15.898  -6.635  1.00  0.00     0.045 C 
ENDBRANCH  16  17
ENDBRANCH  15  16
ENDBRANCH  13  15
ENDBRANCH   4  13
TORSDOF 8
ENDMDL
MODEL 9
REMARK VINA RESULT:    -4.809      4.543      8.363
REMARK INTER + INTRA:          -7.651
REMARK INTER:                  -7.149
REMARK INTRA:                  -0.502
REMARK UNBOUND:                -0.733
REMARK SMILES Cc1ccncc1/C=C/Nc1ccc(CCCN)cc1
REMARK SMILES IDX 14 1 13 2 12 3 11 4 20 5 19 6 15 7 16 8 17 9 18 10 10 13
REMARK SMILES IDX 9 15 8 16 7 17 2 18 6 19 3 20 5 21 4 22 1 23
REMARK H PARENT 18 11 18 12 10 14
ROOT
ATOM      1  C   UNL     1       2.418   9.303  -2.033  1.00  0.00    -0.048 A 
ATOM      2  C   UNL     1       3.719   9.659  -2.394  1.00  0.00     0.006 A 
ATOM      3  C   UNL     1       3.956  10.783  -3.181  1.00  0.00     0.026 A 
ATOM      4  C   UNL     1       2.908  11.546  -3.701  1.00  0.00     0.038 A 
ATOM      5  C   UNL     1       1.601  11.157  -3.387  1.00  0.00     0.026 A 
ATOM      6  C   UNL     1       1.357  10.048  -2.563  1.00  0.00     0.006 A 
ENDROOT
BRANCH   1   7
ATOM      7  C   UNL     1       2.156   8.149  -1.099  1.00  0.00     0.037 C 
BRANCH   7   8
ATOM      8  C   UNL     1       1.008   7.195  -1.483  1.00  0.00     0.020 C 
BRANCH   8   9
ATOM      9  C   UNL     1      -0.125   7.056  -0.455  1.00  0.00     0.078 C 
BRANCH   9  10
ATOM     10  N   UNL     1       0.043   5.972   0.502  1.00  0.00    -0.330 NA
ATOM     11  H   UNL     1      -0.729   5.972   1.167  1.00  0.00     0.118 HD
ATOM     12  H   UNL     1       0.884   6.123   1.060  1.00  0.00     0.118 HD
ENDBRANCH   9  10
ENDBRANCH   8   9
ENDBRANCH   7   8
ENDBRANCH   1   7
BRANCH   4  13
ATOM     13  N   UNL     1       3.135  12.611  -4.594  1.00  0.00    -0.362 N 
ATOM     14  H   UNL     1       2.935  13.542  -4.250  1.00  0.00     0.166 HD
BRANCH  13  15
ATOM     15  C   UNL     1       3.351  12.472  -5.939  1.00  0.00     0.083 C 
BRANCH  15  16
ATOM     16  C   UNL     1       4.338  12.975  -6.693  1.00  0.00     0.027 C 
BRANCH  16  17
ATOM     17  C   UNL     1       4.274  14.348  -7.217  1.00  0.00    -0.003 A 
ATOM     18  C   UNL     1       3.785  14.643  -8.501  1.00  0.00    -0.041 A 
ATOM     19  C   UNL     1       4.740  15.430  -6.456  1.00  0.00     0.119 A 
ATOM     20  C   UNL     1       3.781  15.979  -8.931  1.00  0.00     0.024 A 
ATOM     21  N   UNL     1       4.728  16.726  -6.847  1.00  0.00    -0.264 NA
ATOM     22  C   UNL     1       4.243  16.969  -8.078  1.00  0.00     0.111 A 
ATOM     23  C   UNL     1       3.303  13.576  -9.444  1.00  0.00     0.045 C 
ENDBRANCH  16  17
ENDBRANCH  15  16
ENDBRANCH  13  15
ENDBRANCH   4  13
TORSDOF 8
ENDMDL
