MODEL 1
REMARK VINA RESULT:    -5.127      0.000      0.000
REMARK INTER + INTRA:          -7.969
REMARK INTER:                  -7.375
REMARK INTRA:                  -0.594
REMARK UNBOUND:                -0.594
REMARK SMILES Cc1ccncc1/C=C/Nc1ccc(CCCN)cc1
REMARK SMILES IDX 14 1 13 2 12 3 11 4 20 5 19 6 15 7 16 8 17 9 18 10 10 13
REMARK SMILES IDX 9 15 8 16 7 17 2 18 6 19 3 20 5 21 4 22 1 23
REMARK H PARENT 18 11 18 12 10 14
ROOT
ATOM      1  C   UNL     1      -1.378   8.381  -3.759  1.00  0.00    -0.048 A 
ATOM      2  C   UNL     1      -1.881   9.195  -2.742  1.00  0.00     0.006 A 
ATOM      3  C   UNL     1      -2.185  10.531  -2.985  1.00  0.00     0.026 A 
ATOM      4  C   UNL     1      -1.927  11.127  -4.222  1.00  0.00     0.038 A 
ATOM      5  C   UNL     1      -1.369  10.327  -5.226  1.00  0.00     0.026 A 
ATOM      6  C   UNL     1      -1.097   8.970  -4.998  1.00  0.00     0.006 A 
ENDROOT
BRANCH   1   7
ATOM      7  C   UNL     1      -1.140   6.909  -3.536  1.00  0.00     0.037 C 
BRANCH   7   8
ATOM      8  C   UNL     1      -0.032   6.251  -4.381  1.00  0.00     0.020 C 
BRANCH   8   9
ATOM      9  C   UNL     1      -0.341   4.847  -4.921  1.00  0.00     0.078 C 
BRANCH   9  10
ATOM     10  N   UNL     1      -0.463   3.810  -3.906  1.00  0.00    -0.330 NA
ATOM     11  H   UNL     1      -1.027   4.150  -3.127  1.00  0.00     0.118 HD
ATOM     12  H   UNL     1       0.452   3.598  -3.508  1.00  0.00     0.118 HD
ENDBRANCH   9  10
ENDBRANCH   8   9
ENDBRANCH   7   8
ENDBRANCH   1   7
BRANCH   4  13
ATOM     13  N   UNL     1      -2.120  12.505  -4.439  1.00  0.00    -0.362 N 
ATOM     14  H   UNL     1      -2.619  12.766  -5.280  1.00  0.00     0.166 HD
BRANCH  13  15
ATOM     15  C   UNL     1      -1.477  13.502  -3.755  1.00  0.00     0.083 C 
BRANCH  15  16
ATOM     16  C   UNL     1      -0.572  14.385  -4.200  1.00  0.00     0.027 C 
BRANCH  16  17
ATOM     17  C   UNL     1      -0.934  15.790  -4.442  1.00  0.00    -0.003 A 
ATOM     18  C   UNL     1      -0.126  16.657  -5.199  1.00  0.00    -0.041 A 
ATOM     19  C   UNL     1      -2.099  16.339  -3.886  1.00  0.00     0.119 A 
ATOM     20  C   UNL     1      -0.534  17.989  -5.360  1.00  0.00     0.024 A 
ATOM     21  N   UNL     1      -2.516  17.616  -4.046  1.00  0.00    -0.264 NA
ATOM     22  C   UNL     1      -1.722  18.412  -4.784  1.00  0.00     0.111 A 
ATOM     23  C   UNL     1       1.176  16.217  -5.808  1.00  0.00     0.045 C 
ENDBRANCH  16  17
ENDBRANCH  15  16
ENDBRANCH  13  15
ENDBRANCH   4  13
TORSDOF 8
ENDMDL
MODEL 2
REMARK VINA RESULT:    -5.105      1.912      8.689
REMARK INTER + INTRA:          -7.938
REMARK INTER:                  -7.301
REMARK INTRA:                  -0.637
REMARK UNBOUND:                -0.594
REMARK SMILES Cc1ccncc1/C=C/Nc1ccc(CCCN)cc1
REMARK SMILES IDX 14 1 13 2 12 3 11 4 20 5 19 6 15 7 16 8 17 9 18 10 10 13
REMARK SMILES IDX 9 15 8 16 7 17 2 18 6 19 3 20 5 21 4 22 1 23
REMARK H PARENT 18 11 18 12 10 14
ROOT
ATOM      1  C   UNL     1       0.034  16.330  -4.916  1.00  0.00    -0.048 A 
ATOM      2  C   UNL     1       0.700  15.112  -4.760  1.00  0.00     0.006 A 
ATOM      3  C   UNL     1       0.020  13.982  -4.316  1.00  0.00     0.026 A 
ATOM      4  C   UNL     1      -1.324  14.038  -3.937  1.00  0.00     0.038 A 
ATOM      5  C   UNL     1      -1.978  15.272  -4.038  1.00  0.00     0.026 A 
ATOM      6  C   UNL     1      -1.307  16.406  -4.522  1.00  0.00     0.006 A 
ENDROOT
BRANCH   1   7
ATOM      7  C   UNL     1       0.735  17.535  -5.491  1.00  0.00     0.037 C 
BRANCH   7   8
ATOM      8  C   UNL     1       1.153  17.450  -6.972  1.00  0.00     0.020 C 
BRANCH   8   9
ATOM      9  C   UNL     1       0.138  17.990  -7.990  1.00  0.00     0.078 C 
BRANCH   9  10
ATOM     10  N   UNL     1      -0.398  16.997  -8.911  1.00  0.00    -0.330 NA
ATOM     11  H   UNL     1      -1.415  16.975  -8.847  1.00  0.00     0.118 HD
ATOM     12  H   UNL     1      -0.087  16.063  -8.641  1.00  0.00     0.118 HD
ENDBRANCH   9  10
ENDBRANCH   8   9
ENDBRANCH   7   8
ENDBRANCH   1   7
BRANCH   4  13
ATOM     13  N   UNL     1      -1.985  12.930  -3.375  1.00  0.00    -0.362 N 
ATOM     14  H   UNL     1      -2.395  13.062  -2.459  1.00  0.00     0.166 HD
BRANCH  13  15
ATOM     15  C   UNL     1      -1.896  11.645  -3.843  1.00  0.00     0.083 C 
BRANCH  15  16
ATOM     16  C   UNL     1      -2.200  10.497  -3.224  1.00  0.00     0.027 C 
BRANCH  16  17
ATOM     17  C   UNL     1      -1.457   9.260  -3.506  1.00  0.00    -0.003 A 
ATOM     18  C   UNL     1      -1.314   8.233  -2.556  1.00  0.00    -0.041 A 
ATOM     19  C   UNL     1      -0.819   9.069  -4.741  1.00  0.00     0.119 A 
ATOM     20  C   UNL     1      -0.567   7.096  -2.900  1.00  0.00     0.024 A 
ATOM     21  N   UNL     1      -0.111   7.971  -5.095  1.00  0.00    -0.264 NA
ATOM     22  C   UNL     1      -0.005   7.007  -4.163  1.00  0.00     0.111 A 
ATOM     23  C   UNL     1      -1.899   8.327  -1.175  1.00  0.00     0.045 C 
ENDBRANCH  16  17
ENDBRANCH  15  16
ENDBRANCH  13  15
ENDBRANCH   4  13
TORSDOF 8
ENDMDL
MODEL 3
REMARK VINA RESULT:    -5.019      2.057      2.834
REMARK INTER + INTRA:          -7.814
REMARK INTER:                  -7.228
REMARK INTRA:                  -0.587
REMARK UNBOUND:                -0.594
REMARK SMILES Cc1ccncc1/C=C/Nc1ccc(CCCN)cc1
REMARK SMILES IDX 14 1 13 2 12 3 11 4 20 5 19 6 15 7 16 8 17 9 18 10 10 13
REMARK SMILES IDX 9 15 8 16 7 17 2 18 6 19 3 20 5 21 4 22 1 23
REMARK H PARENT 18 11 18 12 10 14
ROOT
ATOM      1  C   UNL     1      -1.502   8.284  -2.633  1.00  0.00    -0.048 A 
ATOM      2  C   UNL     1      -1.181   8.576  -3.960  1.00  0.00     0.006 A 
ATOM      3  C   UNL     1      -1.478   9.822  -4.504  1.00  0.00     0.026 A 
ATOM      4  C   UNL     1      -2.172  10.792  -3.777  1.00  0.00     0.038 A 
ATOM      5  C   UNL     1      -2.545  10.480  -2.465  1.00  0.00     0.026 A 
ATOM      6  C   UNL     1      -2.215   9.239  -1.898  1.00  0.00     0.006 A 
ENDROOT
BRANCH   1   7
ATOM      7  C   UNL     1      -1.096   6.975  -2.001  1.00  0.00     0.037 C 
BRANCH   7   8
ATOM      8  C   UNL     1       0.363   6.864  -1.518  1.00  0.00     0.020 C 
BRANCH   8   9
ATOM      9  C   UNL     1       0.720   7.673  -0.262  1.00  0.00     0.078 C 
BRANCH   9  10
ATOM     10  N   UNL     1       0.333   7.056   0.998  1.00  0.00    -0.330 NA
ATOM     11  H   UNL     1       0.516   7.695   1.770  1.00  0.00     0.118 HD
ATOM     12  H   UNL     1       0.911   6.235   1.180  1.00  0.00     0.118 HD
ENDBRANCH   9  10
ENDBRANCH   8   9
ENDBRANCH   7   8
ENDBRANCH   1   7
BRANCH   4  13
ATOM     13  N   UNL     1      -2.581  12.008  -4.359  1.00  0.00    -0.362 N 
ATOM     14  H   UNL     1      -3.475  12.007  -4.832  1.00  0.00     0.166 HD
BRANCH  13  15
ATOM     15  C   UNL     1      -1.768  13.093  -4.555  1.00  0.00     0.083 C 
BRANCH  15  16
ATOM     16  C   UNL     1      -1.534  14.132  -3.742  1.00  0.00     0.027 C 
BRANCH  16  17
ATOM     17  C   UNL     1      -0.939  15.378  -4.250  1.00  0.00    -0.003 A 
ATOM     18  C   UNL     1      -1.670  16.574  -4.359  1.00  0.00    -0.041 A 
ATOM     19  C   UNL     1       0.393  15.412  -4.689  1.00  0.00     0.119 A 
ATOM     20  C   UNL     1      -1.031  17.710  -4.877  1.00  0.00     0.024 A 
ATOM     21  N   UNL     1       1.030  16.503  -5.174  1.00  0.00    -0.264 NA
ATOM     22  C   UNL     1       0.300  17.630  -5.253  1.00  0.00     0.111 A 
ATOM     23  C   UNL     1      -3.121  16.667  -3.976  1.00  0.00     0.045 C 
ENDBRANCH  16  17
ENDBRANCH  15  16
ENDBRANCH  13  15
ENDBRANCH   4  13
TORSDOF 8
ENDMDL
MODEL 4
REMARK VINA RESULT:    -5.009      1.020      1.635
REMARK INTER + INTRA:          -7.799
REMARK INTER:                  -7.241
REMARK INTRA:                  -0.558
REMARK UNBOUND:                -0.594
REMARK SMILES Cc1ccncc1/C=C/Nc1ccc(CCCN)cc1
REMARK SMILES IDX 14 1 13 2 12 3 11 4 20 5 19 6 15 7 16 8 17 9 18 10 10 13
REMARK SMILES IDX 9 15 8 16 7 17 2 18 6 19 3 20 5 21 4 22 1 23
REMARK H PARENT 18 11 18 12 10 14
ROOT
ATOM      1  C   UNL     1      -1.322   8.274  -3.606  1.00  0.00    -0.048 A 
ATOM      2  C   UNL     1      -1.881   9.110  -2.638  1.00  0.00     0.006 A 
ATOM      3  C   UNL     1      -2.247  10.416  -2.952  1.00  0.00     0.026 A 
ATOM      4  C   UNL     1      -2.000  10.962  -4.214  1.00  0.00     0.038 A 
ATOM      5  C   UNL     1      -1.388  10.142  -5.169  1.00  0.00     0.026 A 
ATOM      6  C   UNL     1      -1.052   8.813  -4.870  1.00  0.00     0.006 A 
ENDROOT
BRANCH   1   7
ATOM      7  C   UNL     1      -1.015   6.828  -3.307  1.00  0.00     0.037 C 
BRANCH   7   8
ATOM      8  C   UNL     1       0.074   6.159  -4.167  1.00  0.00     0.020 C 
BRANCH   8   9
ATOM      9  C   UNL     1      -0.325   4.847  -4.859  1.00  0.00     0.078 C 
BRANCH   9  10
ATOM     10  N   UNL     1      -0.499   3.710  -3.967  1.00  0.00    -0.330 NA
ATOM     11  H   UNL     1      -1.403   3.270  -4.134  1.00  0.00     0.118 HD
ATOM     12  H   UNL     1      -0.522   4.024  -2.997  1.00  0.00     0.118 HD
ENDBRANCH   9  10
ENDBRANCH   8   9
ENDBRANCH   7   8
ENDBRANCH   1   7
BRANCH   4  13
ATOM     13  N   UNL     1      -2.258  12.316  -4.502  1.00  0.00    -0.362 N 
ATOM     14  H   UNL     1      -3.086  12.514  -5.049  1.00  0.00     0.166 HD
BRANCH  13  15
ATOM     15  C   UNL     1      -1.361  13.337  -4.330  1.00  0.00     0.083 C 
BRANCH  15  16
ATOM     16  C   UNL     1      -1.525  14.509  -3.702  1.00  0.00     0.027 C 
BRANCH  16  17
ATOM     17  C   UNL     1      -0.981  15.756  -4.261  1.00  0.00    -0.003 A 
ATOM     18  C   UNL     1      -1.769  16.905  -4.446  1.00  0.00    -0.041 A 
ATOM     19  C   UNL     1       0.357  15.836  -4.674  1.00  0.00     0.119 A 
ATOM     20  C   UNL     1      -1.176  18.046  -5.009  1.00  0.00     0.024 A 
ATOM     21  N   UNL     1       0.950  16.932  -5.202  1.00  0.00    -0.264 NA
ATOM     22  C   UNL     1       0.166  18.015  -5.354  1.00  0.00     0.111 A 
ATOM     23  C   UNL     1      -3.231  16.944  -4.099  1.00  0.00     0.045 C 
ENDBRANCH  16  17
ENDBRANCH  15  16
ENDBRANCH  13  15
ENDBRANCH   4  13
TORSDOF 8
ENDMDL
MODEL 5
REMARK VINA RESULT:    -4.966      4.601      5.858
REMARK INTER + INTRA:          -7.738
REMARK INTER:                  -7.313
REMARK INTRA:                  -0.425
REMARK UNBOUND:                -0.594
REMARK SMILES Cc1ccncc1/C=C/Nc1ccc(CCCN)cc1
REMARK SMILES IDX 14 1 13 2 12 3 11 4 20 5 19 6 15 7 16 8 17 9 18 10 10 13
REMARK SMILES IDX 9 15 8 16 7 17 2 18 6 19 3 20 5 21 4 22 1 23
REMARK H PARENT 18 11 18 12 10 14
ROOT
ATOM      1  C   UNL     1      -0.413   8.470  -3.567  1.00  0.00    -0.048 A 
ATOM      2  C   UNL     1      -0.377   8.695  -4.944  1.00  0.00     0.006 A 
ATOM      3  C   UNL     1      -1.232   9.621  -5.535  1.00  0.00     0.026 A 
ATOM      4  C   UNL     1      -2.204  10.297  -4.794  1.00  0.00     0.038 A 
ATOM      5  C   UNL     1      -2.280  10.030  -3.422  1.00  0.00     0.026 A 
ATOM      6  C   UNL     1      -1.395   9.126  -2.814  1.00  0.00     0.006 A 
ENDROOT
BRANCH   1   7
ATOM      7  C   UNL     1       0.575   7.545  -2.900  1.00  0.00     0.037 C 
BRANCH   7   8
ATOM      8  C   UNL     1       0.163   6.958  -1.537  1.00  0.00     0.020 C 
BRANCH   8   9
ATOM      9  C   UNL     1       0.655   7.722  -0.298  1.00  0.00     0.078 C 
BRANCH   9  10
ATOM     10  N   UNL     1       0.351   7.088   0.977  1.00  0.00    -0.330 NA
ATOM     11  H   UNL     1       1.158   7.146   1.596  1.00  0.00     0.118 HD
ATOM     12  H   UNL     1       0.181   6.091   0.842  1.00  0.00     0.118 HD
ENDBRANCH   9  10
ENDBRANCH   8   9
ENDBRANCH   7   8
ENDBRANCH   1   7
BRANCH   4  13
ATOM     13  N   UNL     1      -3.149  11.144  -5.404  1.00  0.00    -0.362 N 
ATOM     14  H   UNL     1      -3.185  12.099  -5.071  1.00  0.00     0.166 HD
BRANCH  13  15
ATOM     15  C   UNL     1      -4.174  10.721  -6.209  1.00  0.00     0.083 C 
BRANCH  15  16
ATOM     16  C   UNL     1      -5.496  10.856  -6.035  1.00  0.00     0.027 C 
BRANCH  16  17
ATOM     17  C   UNL     1      -6.287  11.761  -6.882  1.00  0.00    -0.003 A 
ATOM     18  C   UNL     1      -7.668  11.951  -6.699  1.00  0.00    -0.041 A 
ATOM     19  C   UNL     1      -5.692  12.453  -7.948  1.00  0.00     0.119 A 
ATOM     20  C   UNL     1      -8.351  12.815  -7.569  1.00  0.00     0.024 A 
ATOM     21  N   UNL     1      -6.332  13.304  -8.784  1.00  0.00    -0.264 NA
ATOM     22  C   UNL     1      -7.650  13.466  -8.571  1.00  0.00     0.111 A 
ATOM     23  C   UNL     1      -8.444  11.232  -5.631  1.00  0.00     0.045 C 
ENDBRANCH  16  17
ENDBRANCH  15  16
ENDBRANCH  13  15
ENDBRANCH   4  13
TORSDOF 8
ENDMDL
MODEL 6
REMARK VINA RESULT:    -4.801      2.147      8.470
REMARK INTER + INTRA:          -7.501
REMARK INTER:                  -6.885
REMARK INTRA:                  -0.616
REMARK UNBOUND:                -0.594
REMARK SMILES Cc1ccncc1/C=C/Nc1ccc(CCCN)cc1
REMARK SMILES IDX 14 1 13 2 12 3 11 4 20 5 19 6 15 7 16 8 17 9 18 10 10 13
REMARK SMILES IDX 9 15 8 16 7 17 2 18 6 19 3 20 5 21 4 22 1 23
REMARK H PARENT 18 11 18 12 10 14
ROOT
ATOM      1  C   UNL     1      -0.414  15.835  -4.636  1.00  0.00    -0.048 A 
ATOM      2  C   UNL     1      -1.777  15.598  -4.445  1.00  0.00     0.006 A 
ATOM      3  C   UNL     1      -2.228  14.354  -4.013  1.00  0.00     0.026 A 
ATOM      4  C   UNL     1      -1.353  13.280  -3.831  1.00  0.00     0.038 A 
ATOM      5  C   UNL     1       0.007  13.501  -4.078  1.00  0.00     0.026 A 
ATOM      6  C   UNL     1       0.472  14.763  -4.476  1.00  0.00     0.006 A 
ENDROOT
BRANCH   1   7
ATOM      7  C   UNL     1       0.095  17.205  -5.006  1.00  0.00     0.037 C 
BRANCH   7   8
ATOM      8  C   UNL     1       1.091  17.280  -6.180  1.00  0.00     0.020 C 
BRANCH   8   9
ATOM      9  C   UNL     1       0.554  17.898  -7.479  1.00  0.00     0.078 C 
BRANCH   9  10
ATOM     10  N   UNL     1       0.133  16.938  -8.489  1.00  0.00    -0.330 NA
ATOM     11  H   UNL     1      -0.838  16.671  -8.332  1.00  0.00     0.118 HD
ATOM     12  H   UNL     1       0.672  16.076  -8.402  1.00  0.00     0.118 HD
ENDBRANCH   9  10
ENDBRANCH   8   9
ENDBRANCH   7   8
ENDBRANCH   1   7
BRANCH   4  13
ATOM     13  N   UNL     1      -1.815  11.989  -3.511  1.00  0.00    -0.362 N 
ATOM     14  H   UNL     1      -2.082  11.829  -2.548  1.00  0.00     0.166 HD
BRANCH  13  15
ATOM     15  C   UNL     1      -1.688  10.890  -4.318  1.00  0.00     0.083 C 
BRANCH  15  16
ATOM     16  C   UNL     1      -1.985   9.610  -4.057  1.00  0.00     0.027 C 
BRANCH  16  17
ATOM     17  C   UNL     1      -1.261   8.856  -3.023  1.00  0.00    -0.003 A 
ATOM     18  C   UNL     1      -0.157   8.038  -3.320  1.00  0.00    -0.041 A 
ATOM     19  C   UNL     1      -1.675   8.895  -1.682  1.00  0.00     0.119 A 
ATOM     20  C   UNL     1       0.461   7.334  -2.275  1.00  0.00     0.024 A 
ATOM     21  N   UNL     1      -1.080   8.236  -0.660  1.00  0.00    -0.264 NA
ATOM     22  C   UNL     1      -0.021   7.472  -0.983  1.00  0.00     0.111 A 
ATOM     23  C   UNL     1       0.360   7.861  -4.720  1.00  0.00     0.045 C 
ENDBRANCH  16  17
ENDBRANCH  15  16
ENDBRANCH  13  15
ENDBRANCH   4  13
TORSDOF 8
ENDMDL
MODEL 7
REMARK VINA RESULT:    -4.716      1.978      2.212
REMARK INTER + INTRA:          -7.378
REMARK INTER:                  -6.717
REMARK INTRA:                  -0.661
REMARK UNBOUND:                -0.594
REMARK SMILES Cc1ccncc1/C=C/Nc1ccc(CCCN)cc1
REMARK SMILES IDX 14 1 13 2 12 3 11 4 20 5 19 6 15 7 16 8 17 9 18 10 10 13
REMARK SMILES IDX 9 15 8 16 7 17 2 18 6 19 3 20 5 21 4 22 1 23
REMARK H PARENT 18 11 18 12 10 14
ROOT
ATOM      1  C   UNL     1      -1.429   8.486  -2.610  1.00  0.00    -0.048 A 
ATOM      2  C   UNL     1      -2.165   9.406  -1.861  1.00  0.00     0.006 A 
ATOM      3  C   UNL     1      -2.597  10.601  -2.428  1.00  0.00     0.026 A 
ATOM      4  C   UNL     1      -2.247  10.961  -3.732  1.00  0.00     0.038 A 
ATOM      5  C   UNL     1      -1.460  10.065  -4.466  1.00  0.00     0.026 A 
ATOM      6  C   UNL     1      -1.055   8.841  -3.912  1.00  0.00     0.006 A 
ENDROOT
BRANCH   1   7
ATOM      7  C   UNL     1      -1.043   7.144  -2.039  1.00  0.00     0.037 C 
BRANCH   7   8
ATOM      8  C   UNL     1       0.385   7.018  -1.475  1.00  0.00     0.020 C 
BRANCH   8   9
ATOM      9  C   UNL     1       0.523   7.156   0.049  1.00  0.00     0.078 C 
BRANCH   9  10
ATOM     10  N   UNL     1       1.208   8.359   0.498  1.00  0.00    -0.330 NA
ATOM     11  H   UNL     1       2.096   8.113   0.932  1.00  0.00     0.118 HD
ATOM     12  H   UNL     1       0.665   8.820   1.229  1.00  0.00     0.118 HD
ENDBRANCH   9  10
ENDBRANCH   8   9
ENDBRANCH   7   8
ENDBRANCH   1   7
BRANCH   4  13
ATOM     13  N   UNL     1      -2.578  12.218  -4.272  1.00  0.00    -0.362 N 
ATOM     14  H   UNL     1      -3.504  12.313  -4.670  1.00  0.00     0.166 HD
BRANCH  13  15
ATOM     15  C   UNL     1      -1.680  13.220  -4.529  1.00  0.00     0.083 C 
BRANCH  15  16
ATOM     16  C   UNL     1      -1.349  14.275  -3.771  1.00  0.00     0.027 C 
BRANCH  16  17
ATOM     17  C   UNL     1      -1.723  15.642  -4.164  1.00  0.00    -0.003 A 
ATOM     18  C   UNL     1      -0.794  16.554  -4.697  1.00  0.00    -0.041 A 
ATOM     19  C   UNL     1      -3.033  16.110  -3.983  1.00  0.00     0.119 A 
ATOM     20  C   UNL     1      -1.231  17.847  -5.023  1.00  0.00     0.024 A 
ATOM     21  N   UNL     1      -3.474  17.347  -4.308  1.00  0.00    -0.264 NA
ATOM     22  C   UNL     1      -2.560  18.187  -4.824  1.00  0.00     0.111 A 
ATOM     23  C   UNL     1       0.654  16.204  -4.895  1.00  0.00     0.045 C 
ENDBRANCH  16  17
ENDBRANCH  15  16
ENDBRANCH  13  15
ENDBRANCH   4  13
TORSDOF 8
ENDMDL
MODEL 8
REMARK VINA RESULT:    -4.705      3.731      8.637
REMARK INTER + INTRA:          -7.363
REMARK INTER:                  -6.676
REMARK INTRA:                  -0.686
REMARK UNBOUND:                -0.594
REMARK SMILES Cc1ccncc1/C=C/Nc1ccc(CCCN)cc1
REMARK SMILES IDX 14 1 13 2 12 3 11 4 20 5 19 6 15 7 16 8 17 9 18 10 10 13
REMARK SMILES IDX 9 15 8 16 7 17 2 18 6 19 3 20 5 21 4 22 1 23
REMARK H PARENT 18 11 18 12 10 14
ROOT
ATOM      1  C   UNL     1      -4.933  11.555  -6.413  1.00  0.00    -0.048 A 
ATOM      2  C   UNL     1      -4.881  10.172  -6.225  1.00  0.00     0.006 A 
ATOM      3  C   UNL     1      -3.915   9.603  -5.401  1.00  0.00     0.026 A 
ATOM      4  C   UNL     1      -2.921  10.376  -4.796  1.00  0.00     0.038 A 
ATOM      5  C   UNL     1      -2.937  11.756  -5.029  1.00  0.00     0.026 A 
ATOM      6  C   UNL     1      -3.931  12.340  -5.829  1.00  0.00     0.006 A 
ENDROOT
BRANCH   1   7
ATOM      7  C   UNL     1      -6.035  12.192  -7.222  1.00  0.00     0.037 C 
BRANCH   7   8
ATOM      8  C   UNL     1      -5.614  12.912  -8.518  1.00  0.00     0.020 C 
BRANCH   8   9
ATOM      9  C   UNL     1      -5.822  14.433  -8.541  1.00  0.00     0.078 C 
BRANCH   9  10
ATOM     10  N   UNL     1      -4.689  15.217  -8.070  1.00  0.00    -0.330 NA
ATOM     11  H   UNL     1      -3.950  15.218  -8.773  1.00  0.00     0.118 HD
ATOM     12  H   UNL     1      -4.279  14.781  -7.244  1.00  0.00     0.118 HD
ENDBRANCH   9  10
ENDBRANCH   8   9
ENDBRANCH   7   8
ENDBRANCH   1   7
BRANCH   4  13
ATOM     13  N   UNL     1      -1.871   9.795  -4.059  1.00  0.00    -0.362 N 
ATOM     14  H   UNL     1      -1.206   9.237  -4.578  1.00  0.00     0.166 HD
BRANCH  13  15
ATOM     15  C   UNL     1      -1.828   9.712  -2.692  1.00  0.00     0.083 C 
BRANCH  15  16
ATOM     16  C   UNL     1      -1.936   8.632  -1.907  1.00  0.00     0.027 C 
BRANCH  16  17
ATOM     17  C   UNL     1      -1.279   7.364  -2.260  1.00  0.00    -0.003 A 
ATOM     18  C   UNL     1      -0.128   6.901  -1.598  1.00  0.00    -0.041 A 
ATOM     19  C   UNL     1      -1.762   6.572  -3.313  1.00  0.00     0.119 A 
ATOM     20  C   UNL     1       0.449   5.692  -2.015  1.00  0.00     0.024 A 
ATOM     21  N   UNL     1      -1.229   5.395  -3.716  1.00  0.00    -0.264 NA
ATOM     22  C   UNL     1      -0.134   4.982  -3.052  1.00  0.00     0.111 A 
ATOM     23  C   UNL     1       0.527   7.674  -0.488  1.00  0.00     0.045 C 
ENDBRANCH  16  17
ENDBRANCH  15  16
ENDBRANCH  13  15
ENDBRANCH   4  13
TORSDOF 8
ENDMDL
MODEL 9
REMARK VINA RESULT:    -4.633      4.028      8.589
REMARK INTER + INTRA:          -7.259
REMARK INTER:                  -6.561
REMARK INTRA:                  -0.698
REMARK UNBOUND:                -0.594
REMARK SMILES Cc1ccncc1/C=C/Nc1ccc(CCCN)cc1
REMARK SMILES IDX 14 1 13 2 12 3 11 4 20 5 19 6 15 7 16 8 17 9 18 10 10 13
REMARK SMILES IDX 9 15 8 16 7 17 2 18 6 19 3 20 5 21 4 22 1 23
REMARK H PARENT 18 11 18 12 10 14
ROOT
ATOM      1  C   UNL     1      -5.292  11.638  -6.582  1.00  0.00    -0.048 A 
ATOM      2  C   UNL     1      -4.175  12.263  -6.025  1.00  0.00     0.006 A 
ATOM      3  C   UNL     1      -3.205  11.521  -5.357  1.00  0.00     0.026 A 
ATOM      4  C   UNL     1      -3.347  10.147  -5.152  1.00  0.00     0.038 A 
ATOM      5  C   UNL     1      -4.494   9.528  -5.660  1.00  0.00     0.026 A 
ATOM      6  C   UNL     1      -5.457  10.264  -6.368  1.00  0.00     0.006 A 
ENDROOT
BRANCH   1   7
ATOM      7  C   UNL     1      -6.298  12.415  -7.394  1.00  0.00     0.037 C 
BRANCH   7   8
ATOM      8  C   UNL     1      -5.764  13.148  -8.639  1.00  0.00     0.020 C 
BRANCH   8   9
ATOM      9  C   UNL     1      -5.818  14.683  -8.592  1.00  0.00     0.078 C 
BRANCH   9  10
ATOM     10  N   UNL     1      -4.648  15.322  -8.007  1.00  0.00    -0.330 NA
ATOM     11  H   UNL     1      -4.597  16.295  -8.306  1.00  0.00     0.118 HD
ATOM     12  H   UNL     1      -3.796  14.884  -8.357  1.00  0.00     0.118 HD
ENDBRANCH   9  10
ENDBRANCH   8   9
ENDBRANCH   7   8
ENDBRANCH   1   7
BRANCH   4  13
ATOM     13  N   UNL     1      -2.430   9.412  -4.376  1.00  0.00    -0.362 N 
ATOM     14  H   UNL     1      -2.770   9.049  -3.494  1.00  0.00     0.166 HD
BRANCH  13  15
ATOM     15  C   UNL     1      -1.078   9.371  -4.592  1.00  0.00     0.083 C 
BRANCH  15  16
ATOM     16  C   UNL     1      -0.266   8.308  -4.671  1.00  0.00     0.027 C 
BRANCH  16  17
ATOM     17  C   UNL     1       0.178   7.597  -3.462  1.00  0.00    -0.003 A 
ATOM     18  C   UNL     1       0.066   6.203  -3.324  1.00  0.00    -0.041 A 
ATOM     19  C   UNL     1       0.705   8.299  -2.368  1.00  0.00     0.119 A 
ATOM     20  C   UNL     1       0.493   5.608  -2.127  1.00  0.00     0.024 A 
ATOM     21  N   UNL     1       1.138   7.740  -1.213  1.00  0.00    -0.264 NA
ATOM     22  C   UNL     1       1.023   6.403  -1.123  1.00  0.00     0.111 A 
ATOM     23  C   UNL     1      -0.529   5.333  -4.395  1.00  0.00     0.045 C 
ENDBRANCH  16  17
ENDBRANCH  15  16
ENDBRANCH  13  15
ENDBRANCH   4  13
TORSDOF 8
ENDMDL
