MODEL 1
REMARK VINA RESULT:    -5.074      0.000      0.000
REMARK INTER + INTRA:          -7.898
REMARK INTER:                  -7.298
REMARK INTRA:                  -0.600
REMARK UNBOUND:                -0.600
REMARK SMILES Cc1ccncc1/C=C/Nc1ccc(CCCN)cc1
REMARK SMILES IDX 14 1 13 2 12 3 11 4 20 5 19 6 15 7 16 8 17 9 18 10 10 13
REMARK SMILES IDX 9 15 8 16 7 17 2 18 6 19 3 20 5 21 4 22 1 23
REMARK H PARENT 18 11 18 12 10 14
ROOT
ATOM      1  C   UNL     1      -8.755  12.746  -0.004  1.00  0.00    -0.048 A 
ATOM      2  C   UNL     1      -7.821  11.866  -0.553  1.00  0.00     0.006 A 
ATOM      3  C   UNL     1      -7.723  10.556  -0.093  1.00  0.00     0.026 A 
ATOM      4  C   UNL     1      -8.494  10.097   0.978  1.00  0.00     0.038 A 
ATOM      5  C   UNL     1      -9.391  10.996   1.567  1.00  0.00     0.026 A 
ATOM      6  C   UNL     1      -9.521  12.306   1.082  1.00  0.00     0.006 A 
ENDROOT
BRANCH   1   7
ATOM      7  C   UNL     1      -8.939  14.136  -0.562  1.00  0.00     0.037 C 
BRANCH   7   8
ATOM      8  C   UNL     1      -9.258  14.241  -2.066  1.00  0.00     0.020 C 
BRANCH   8   9
ATOM      9  C   UNL     1     -10.673  14.720  -2.422  1.00  0.00     0.078 C 
BRANCH   9  10
ATOM     10  N   UNL     1     -11.579  13.676  -2.879  1.00  0.00    -0.330 NA
ATOM     11  H   UNL     1     -12.373  14.091  -3.366  1.00  0.00     0.118 HD
ATOM     12  H   UNL     1     -11.977  13.181  -2.080  1.00  0.00     0.118 HD
ENDBRANCH   9  10
ENDBRANCH   8   9
ENDBRANCH   7   8
ENDBRANCH   1   7
BRANCH   4  13
ATOM     13  N   UNL     1      -8.317   8.812   1.526  1.00  0.00    -0.362 N 
ATOM     14  H   UNL     1      -8.023   8.767   2.494  1.00  0.00     0.166 HD
BRANCH  13  15
ATOM     15  C   UNL     1      -8.259   7.653   0.799  1.00  0.00     0.083 C 
BRANCH  15  16
ATOM     16  C   UNL     1      -7.874   6.429   1.187  1.00  0.00     0.027 C 
BRANCH  16  17
ATOM     17  C   UNL     1      -7.168   5.526   0.267  1.00  0.00    -0.003 A 
ATOM     18  C   UNL     1      -6.223   4.584   0.712  1.00  0.00    -0.041 A 
ATOM     19  C   UNL     1      -7.384   5.595  -1.118  1.00  0.00     0.119 A 
ATOM     20  C   UNL     1      -5.577   3.777  -0.237  1.00  0.00     0.024 A 
ATOM     21  N   UNL     1      -6.783   4.812  -2.045  1.00  0.00    -0.264 NA
ATOM     22  C   UNL     1      -5.894   3.917  -1.579  1.00  0.00     0.111 A 
ATOM     23  C   UNL     1      -5.854   4.438   2.161  1.00  0.00     0.045 C 
ENDBRANCH  16  17
ENDBRANCH  15  16
ENDBRANCH  13  15
ENDBRANCH   4  13
TORSDOF 8
ENDMDL
MODEL 2
REMARK VINA RESULT:    -4.854      1.959      8.692
REMARK INTER + INTRA:          -7.583
REMARK INTER:                  -7.055
REMARK INTRA:                  -0.528
REMARK UNBOUND:                -0.600
REMARK SMILES Cc1ccncc1/C=C/Nc1ccc(CCCN)cc1
REMARK SMILES IDX 14 1 13 2 12 3 11 4 20 5 19 6 15 7 16 8 17 9 18 10 10 13
REMARK SMILES IDX 9 15 8 16 7 17 2 18 6 19 3 20 5 21 4 22 1 23
REMARK H PARENT 18 11 18 12 10 14
ROOT
ATOM      1  C   UNL     1      -7.296   4.838  -0.185  1.00  0.00    -0.048 A 
ATOM      2  C   UNL     1      -7.193   5.413   1.083  1.00  0.00     0.006 A 
ATOM      3  C   UNL     1      -7.831   6.616   1.372  1.00  0.00     0.026 A 
ATOM      4  C   UNL     1      -8.528   7.328   0.392  1.00  0.00     0.038 A 
ATOM      5  C   UNL     1      -8.584   6.781  -0.895  1.00  0.00     0.026 A 
ATOM      6  C   UNL     1      -7.975   5.550  -1.181  1.00  0.00     0.006 A 
ENDROOT
BRANCH   1   7
ATOM      7  C   UNL     1      -6.694   3.487  -0.481  1.00  0.00     0.037 C 
BRANCH   7   8
ATOM      8  C   UNL     1      -5.958   3.337  -1.827  1.00  0.00     0.020 C 
BRANCH   8   9
ATOM      9  C   UNL     1      -6.326   2.100  -2.660  1.00  0.00     0.078 C 
BRANCH   9  10
ATOM     10  N   UNL     1      -5.638   0.875  -2.280  1.00  0.00    -0.330 NA
ATOM     11  H   UNL     1      -5.446   0.879  -1.279  1.00  0.00     0.118 HD
ATOM     12  H   UNL     1      -4.725   0.829  -2.733  1.00  0.00     0.118 HD
ENDBRANCH   9  10
ENDBRANCH   8   9
ENDBRANCH   7   8
ENDBRANCH   1   7
BRANCH   4  13
ATOM     13  N   UNL     1      -9.074   8.601   0.645  1.00  0.00    -0.362 N 
ATOM     14  H   UNL     1     -10.003   8.777   0.283  1.00  0.00     0.166 HD
BRANCH  13  15
ATOM     15  C   UNL     1      -8.366   9.679   1.105  1.00  0.00     0.083 C 
BRANCH  15  16
ATOM     16  C   UNL     1      -8.348  10.938   0.645  1.00  0.00     0.027 C 
BRANCH  16  17
ATOM     17  C   UNL     1      -9.420  11.887   0.981  1.00  0.00    -0.003 A 
ATOM     18  C   UNL     1      -9.404  13.225   0.551  1.00  0.00    -0.041 A 
ATOM     19  C   UNL     1     -10.498  11.497   1.790  1.00  0.00     0.119 A 
ATOM     20  C   UNL     1     -10.456  14.070   0.939  1.00  0.00     0.024 A 
ATOM     21  N   UNL     1     -11.529  12.293   2.158  1.00  0.00    -0.264 NA
ATOM     22  C   UNL     1     -11.484  13.564   1.718  1.00  0.00     0.111 A 
ATOM     23  C   UNL     1      -8.284  13.792  -0.274  1.00  0.00     0.045 C 
ENDBRANCH  16  17
ENDBRANCH  15  16
ENDBRANCH  13  15
ENDBRANCH   4  13
TORSDOF 8
ENDMDL
MODEL 3
REMARK VINA RESULT:    -4.836      1.226      1.787
REMARK INTER + INTRA:          -7.556
REMARK INTER:                  -6.899
REMARK INTRA:                  -0.657
REMARK UNBOUND:                -0.600
REMARK SMILES Cc1ccncc1/C=C/Nc1ccc(CCCN)cc1
REMARK SMILES IDX 14 1 13 2 12 3 11 4 20 5 19 6 15 7 16 8 17 9 18 10 10 13
REMARK SMILES IDX 9 15 8 16 7 17 2 18 6 19 3 20 5 21 4 22 1 23
REMARK H PARENT 18 11 18 12 10 14
ROOT
ATOM      1  C   UNL     1      -8.609  12.104   0.227  1.00  0.00    -0.048 A 
ATOM      2  C   UNL     1      -7.546  11.345  -0.267  1.00  0.00     0.006 A 
ATOM      3  C   UNL     1      -7.415  10.001   0.070  1.00  0.00     0.026 A 
ATOM      4  C   UNL     1      -8.287   9.384   0.970  1.00  0.00     0.038 A 
ATOM      5  C   UNL     1      -9.320  10.159   1.512  1.00  0.00     0.026 A 
ATOM      6  C   UNL     1      -9.480  11.504   1.145  1.00  0.00     0.006 A 
ENDROOT
BRANCH   1   7
ATOM      7  C   UNL     1      -8.819  13.532  -0.211  1.00  0.00     0.037 C 
BRANCH   7   8
ATOM      8  C   UNL     1      -8.817  13.797  -1.729  1.00  0.00     0.020 C 
BRANCH   8   9
ATOM      9  C   UNL     1     -10.055  14.513  -2.289  1.00  0.00     0.078 C 
BRANCH   9  10
ATOM     10  N   UNL     1     -11.021  13.647  -2.948  1.00  0.00    -0.330 NA
ATOM     11  H   UNL     1     -11.955  13.820  -2.578  1.00  0.00     0.118 HD
ATOM     12  H   UNL     1     -10.820  12.669  -2.735  1.00  0.00     0.118 HD
ENDBRANCH   9  10
ENDBRANCH   8   9
ENDBRANCH   7   8
ENDBRANCH   1   7
BRANCH   4  13
ATOM     13  N   UNL     1      -8.091   8.060   1.408  1.00  0.00    -0.362 N 
ATOM     14  H   UNL     1      -7.378   7.916   2.112  1.00  0.00     0.166 HD
BRANCH  13  15
ATOM     15  C   UNL     1      -8.593   6.948   0.786  1.00  0.00     0.083 C 
BRANCH  15  16
ATOM     16  C   UNL     1      -8.067   6.229  -0.215  1.00  0.00     0.027 C 
BRANCH  16  17
ATOM     17  C   UNL     1      -6.845   5.435  -0.022  1.00  0.00    -0.003 A 
ATOM     18  C   UNL     1      -6.123   4.887  -1.098  1.00  0.00    -0.041 A 
ATOM     19  C   UNL     1      -6.363   5.156   1.266  1.00  0.00     0.119 A 
ATOM     20  C   UNL     1      -4.980   4.122  -0.823  1.00  0.00     0.024 A 
ATOM     21  N   UNL     1      -5.253   4.434   1.548  1.00  0.00    -0.264 NA
ATOM     22  C   UNL     1      -4.585   3.936   0.493  1.00  0.00     0.111 A 
ATOM     23  C   UNL     1      -6.555   5.061  -2.527  1.00  0.00     0.045 C 
ENDBRANCH  16  17
ENDBRANCH  15  16
ENDBRANCH  13  15
ENDBRANCH   4  13
TORSDOF 8
ENDMDL
MODEL 4
REMARK VINA RESULT:    -4.835      2.013      8.561
REMARK INTER + INTRA:          -7.555
REMARK INTER:                  -7.059
REMARK INTRA:                  -0.496
REMARK UNBOUND:                -0.600
REMARK SMILES Cc1ccncc1/C=C/Nc1ccc(CCCN)cc1
REMARK SMILES IDX 14 1 13 2 12 3 11 4 20 5 19 6 15 7 16 8 17 9 18 10 10 13
REMARK SMILES IDX 9 15 8 16 7 17 2 18 6 19 3 20 5 21 4 22 1 23
REMARK H PARENT 18 11 18 12 10 14
ROOT
ATOM      1  C   UNL     1      -6.315   4.412   0.317  1.00  0.00    -0.048 A 
ATOM      2  C   UNL     1      -6.637   5.082   1.500  1.00  0.00     0.006 A 
ATOM      3  C   UNL     1      -7.570   6.115   1.499  1.00  0.00     0.026 A 
ATOM      4  C   UNL     1      -8.157   6.571   0.317  1.00  0.00     0.038 A 
ATOM      5  C   UNL     1      -7.792   5.938  -0.878  1.00  0.00     0.026 A 
ATOM      6  C   UNL     1      -6.881   4.870  -0.878  1.00  0.00     0.006 A 
ENDROOT
BRANCH   1   7
ATOM      7  C   UNL     1      -5.383   3.226   0.321  1.00  0.00     0.037 C 
BRANCH   7   8
ATOM      8  C   UNL     1      -3.900   3.511   0.013  1.00  0.00     0.020 C 
BRANCH   8   9
ATOM      9  C   UNL     1      -3.194   4.499   0.953  1.00  0.00     0.078 C 
BRANCH   9  10
ATOM     10  N   UNL     1      -2.683   3.917   2.186  1.00  0.00    -0.330 NA
ATOM     11  H   UNL     1      -1.673   4.041   2.238  1.00  0.00     0.118 HD
ATOM     12  H   UNL     1      -2.835   2.908   2.188  1.00  0.00     0.118 HD
ENDBRANCH   9  10
ENDBRANCH   8   9
ENDBRANCH   7   8
ENDBRANCH   1   7
BRANCH   4  13
ATOM     13  N   UNL     1      -9.009   7.691   0.292  1.00  0.00    -0.362 N 
ATOM     14  H   UNL     1      -9.990   7.512   0.114  1.00  0.00     0.166 HD
BRANCH  13  15
ATOM     15  C   UNL     1      -8.589   8.993   0.233  1.00  0.00     0.083 C 
BRANCH  15  16
ATOM     16  C   UNL     1      -8.691   9.958   1.157  1.00  0.00     0.027 C 
BRANCH  16  17
ATOM     17  C   UNL     1      -8.826  11.371   0.772  1.00  0.00    -0.003 A 
ATOM     18  C   UNL     1      -9.887  12.177   1.221  1.00  0.00    -0.041 A 
ATOM     19  C   UNL     1      -7.908  11.969  -0.104  1.00  0.00     0.119 A 
ATOM     20  C   UNL     1      -9.953  13.509   0.785  1.00  0.00     0.024 A 
ATOM     21  N   UNL     1      -7.946  13.257  -0.520  1.00  0.00    -0.264 NA
ATOM     22  C   UNL     1      -8.970  13.998  -0.061  1.00  0.00     0.111 A 
ATOM     23  C   UNL     1     -10.972  11.652   2.119  1.00  0.00     0.045 C 
ENDBRANCH  16  17
ENDBRANCH  15  16
ENDBRANCH  13  15
ENDBRANCH   4  13
TORSDOF 8
ENDMDL
MODEL 5
REMARK VINA RESULT:    -4.679      1.727      8.519
REMARK INTER + INTRA:          -7.331
REMARK INTER:                  -6.809
REMARK INTRA:                  -0.522
REMARK UNBOUND:                -0.600
REMARK SMILES Cc1ccncc1/C=C/Nc1ccc(CCCN)cc1
REMARK SMILES IDX 14 1 13 2 12 3 11 4 20 5 19 6 15 7 16 8 17 9 18 10 10 13
REMARK SMILES IDX 9 15 8 16 7 17 2 18 6 19 3 20 5 21 4 22 1 23
REMARK H PARENT 18 11 18 12 10 14
ROOT
ATOM      1  C   UNL     1      -7.258   5.181  -0.083  1.00  0.00    -0.048 A 
ATOM      2  C   UNL     1      -8.016   5.781  -1.091  1.00  0.00     0.006 A 
ATOM      3  C   UNL     1      -8.713   6.961  -0.850  1.00  0.00     0.026 A 
ATOM      4  C   UNL     1      -8.746   7.545   0.419  1.00  0.00     0.038 A 
ATOM      5  C   UNL     1      -8.033   6.914   1.445  1.00  0.00     0.026 A 
ATOM      6  C   UNL     1      -7.297   5.745   1.199  1.00  0.00     0.006 A 
ENDROOT
BRANCH   1   7
ATOM      7  C   UNL     1      -6.418   3.960  -0.359  1.00  0.00     0.037 C 
BRANCH   7   8
ATOM      8  C   UNL     1      -6.110   3.652  -1.837  1.00  0.00     0.020 C 
BRANCH   8   9
ATOM      9  C   UNL     1      -6.464   2.237  -2.318  1.00  0.00     0.078 C 
BRANCH   9  10
ATOM     10  N   UNL     1      -5.757   1.798  -3.513  1.00  0.00    -0.330 NA
ATOM     11  H   UNL     1      -5.223   0.953  -3.312  1.00  0.00     0.118 HD
ATOM     12  H   UNL     1      -5.068   2.497  -3.790  1.00  0.00     0.118 HD
ENDBRANCH   9  10
ENDBRANCH   8   9
ENDBRANCH   7   8
ENDBRANCH   1   7
BRANCH   4  13
ATOM     13  N   UNL     1      -9.544   8.671   0.699  1.00  0.00    -0.362 N 
ATOM     14  H   UNL     1     -10.520   8.612   0.437  1.00  0.00     0.166 HD
BRANCH  13  15
ATOM     15  C   UNL     1      -9.062   9.904   1.051  1.00  0.00     0.083 C 
BRANCH  15  16
ATOM     16  C   UNL     1      -9.736  11.004   1.412  1.00  0.00     0.027 C 
BRANCH  16  17
ATOM     17  C   UNL     1      -9.420  12.316   0.828  1.00  0.00    -0.003 A 
ATOM     18  C   UNL     1     -10.261  13.433   0.983  1.00  0.00    -0.041 A 
ATOM     19  C   UNL     1      -8.267  12.499   0.049  1.00  0.00     0.119 A 
ATOM     20  C   UNL     1      -9.895  14.642   0.372  1.00  0.00     0.024 A 
ATOM     21  N   UNL     1      -7.891  13.662  -0.532  1.00  0.00    -0.264 NA
ATOM     22  C   UNL     1      -8.716  14.709  -0.352  1.00  0.00     0.111 A 
ATOM     23  C   UNL     1     -11.554  13.366   1.746  1.00  0.00     0.045 C 
ENDBRANCH  16  17
ENDBRANCH  15  16
ENDBRANCH  13  15
ENDBRANCH   4  13
TORSDOF 8
ENDMDL
MODEL 6
REMARK VINA RESULT:    -4.617      2.106      8.731
REMARK INTER + INTRA:          -7.241
REMARK INTER:                  -6.656
REMARK INTRA:                  -0.585
REMARK UNBOUND:                -0.600
REMARK SMILES Cc1ccncc1/C=C/Nc1ccc(CCCN)cc1
REMARK SMILES IDX 14 1 13 2 12 3 11 4 20 5 19 6 15 7 16 8 17 9 18 10 10 13
REMARK SMILES IDX 9 15 8 16 7 17 2 18 6 19 3 20 5 21 4 22 1 23
REMARK H PARENT 18 11 18 12 10 14
ROOT
ATOM      1  C   UNL     1      -6.676   4.883   0.690  1.00  0.00    -0.048 A 
ATOM      2  C   UNL     1      -7.009   5.570   1.860  1.00  0.00     0.006 A 
ATOM      3  C   UNL     1      -7.854   6.675   1.818  1.00  0.00     0.026 A 
ATOM      4  C   UNL     1      -8.335   7.184   0.610  1.00  0.00     0.038 A 
ATOM      5  C   UNL     1      -7.956   6.530  -0.569  1.00  0.00     0.026 A 
ATOM      6  C   UNL     1      -7.135   5.393  -0.530  1.00  0.00     0.006 A 
ENDROOT
BRANCH   1   7
ATOM      7  C   UNL     1      -5.844   3.626   0.734  1.00  0.00     0.037 C 
BRANCH   7   8
ATOM      8  C   UNL     1      -4.377   3.751   0.279  1.00  0.00     0.020 C 
BRANCH   8   9
ATOM      9  C   UNL     1      -3.417   4.413   1.278  1.00  0.00     0.078 C 
BRANCH   9  10
ATOM     10  N   UNL     1      -2.005   4.308   0.938  1.00  0.00    -0.330 NA
ATOM     11  H   UNL     1      -1.881   4.407  -0.069  1.00  0.00     0.118 HD
ATOM     12  H   UNL     1      -1.657   3.377   1.165  1.00  0.00     0.118 HD
ENDBRANCH   9  10
ENDBRANCH   8   9
ENDBRANCH   7   8
ENDBRANCH   1   7
BRANCH   4  13
ATOM     13  N   UNL     1      -9.092   8.369   0.550  1.00  0.00    -0.362 N 
ATOM     14  H   UNL     1      -9.783   8.431  -0.188  1.00  0.00     0.166 HD
BRANCH  13  15
ATOM     15  C   UNL     1      -8.798   9.521   1.231  1.00  0.00     0.083 C 
BRANCH  15  16
ATOM     16  C   UNL     1      -8.600  10.758   0.755  1.00  0.00     0.027 C 
BRANCH  16  17
ATOM     17  C   UNL     1      -9.559  11.840   1.025  1.00  0.00    -0.003 A 
ATOM     18  C   UNL     1      -9.371  13.150   0.552  1.00  0.00    -0.041 A 
ATOM     19  C   UNL     1     -10.700  11.611   1.810  1.00  0.00     0.119 A 
ATOM     20  C   UNL     1     -10.323  14.128   0.877  1.00  0.00     0.024 A 
ATOM     21  N   UNL     1     -11.637  12.538   2.118  1.00  0.00    -0.264 NA
ATOM     22  C   UNL     1     -11.426  13.777   1.639  1.00  0.00     0.111 A 
ATOM     23  C   UNL     1      -8.167  13.549  -0.255  1.00  0.00     0.045 C 
ENDBRANCH  16  17
ENDBRANCH  15  16
ENDBRANCH  13  15
ENDBRANCH   4  13
TORSDOF 8
ENDMDL
MODEL 7
REMARK VINA RESULT:    -4.594      1.969      3.057
REMARK INTER + INTRA:          -7.208
REMARK INTER:                  -6.545
REMARK INTRA:                  -0.663
REMARK UNBOUND:                -0.600
REMARK SMILES Cc1ccncc1/C=C/Nc1ccc(CCCN)cc1
REMARK SMILES IDX 14 1 13 2 12 3 11 4 20 5 19 6 15 7 16 8 17 9 18 10 10 13
REMARK SMILES IDX 9 15 8 16 7 17 2 18 6 19 3 20 5 21 4 22 1 23
REMARK H PARENT 18 11 18 12 10 14
ROOT
ATOM      1  C   UNL     1      -8.764  10.328   0.820  1.00  0.00    -0.048 A 
ATOM      2  C   UNL     1      -7.449   9.872   0.711  1.00  0.00     0.006 A 
ATOM      3  C   UNL     1      -7.178   8.516   0.552  1.00  0.00     0.026 A 
ATOM      4  C   UNL     1      -8.196   7.559   0.574  1.00  0.00     0.038 A 
ATOM      5  C   UNL     1      -9.511   8.010   0.741  1.00  0.00     0.026 A 
ATOM      6  C   UNL     1      -9.792   9.379   0.863  1.00  0.00     0.006 A 
ENDROOT
BRANCH   1   7
ATOM      7  C   UNL     1      -9.075  11.802   0.890  1.00  0.00     0.037 C 
BRANCH   7   8
ATOM      8  C   UNL     1      -8.366  12.709  -0.134  1.00  0.00     0.020 C 
BRANCH   8   9
ATOM      9  C   UNL     1      -8.865  14.159  -0.209  1.00  0.00     0.078 C 
BRANCH   9  10
ATOM     10  N   UNL     1      -7.946  15.155   0.324  1.00  0.00    -0.330 NA
ATOM     11  H   UNL     1      -8.249  15.448   1.252  1.00  0.00     0.118 HD
ATOM     12  H   UNL     1      -7.969  15.998  -0.250  1.00  0.00     0.118 HD
ENDBRANCH   9  10
ENDBRANCH   8   9
ENDBRANCH   7   8
ENDBRANCH   1   7
BRANCH   4  13
ATOM     13  N   UNL     1      -7.920   6.178   0.534  1.00  0.00    -0.362 N 
ATOM     14  H   UNL     1      -7.550   5.764   1.380  1.00  0.00     0.166 HD
BRANCH  13  15
ATOM     15  C   UNL     1      -7.870   5.423  -0.608  1.00  0.00     0.083 C 
BRANCH  15  16
ATOM     16  C   UNL     1      -6.856   5.254  -1.466  1.00  0.00     0.027 C 
BRANCH  16  17
ATOM     17  C   UNL     1      -5.600   4.614  -1.045  1.00  0.00    -0.003 A 
ATOM     18  C   UNL     1      -5.297   3.275  -1.351  1.00  0.00    -0.041 A 
ATOM     19  C   UNL     1      -4.658   5.314  -0.276  1.00  0.00     0.119 A 
ATOM     20  C   UNL     1      -4.087   2.736  -0.889  1.00  0.00     0.024 A 
ATOM     21  N   UNL     1      -3.478   4.814   0.162  1.00  0.00    -0.264 NA
ATOM     22  C   UNL     1      -3.220   3.534  -0.159  1.00  0.00     0.111 A 
ATOM     23  C   UNL     1      -6.239   2.393  -2.120  1.00  0.00     0.045 C 
ENDBRANCH  16  17
ENDBRANCH  15  16
ENDBRANCH  13  15
ENDBRANCH   4  13
TORSDOF 8
ENDMDL
MODEL 8
REMARK VINA RESULT:    -4.534      2.341      3.576
REMARK INTER + INTRA:          -7.122
REMARK INTER:                  -6.346
REMARK INTRA:                  -0.776
REMARK UNBOUND:                -0.600
REMARK SMILES Cc1ccncc1/C=C/Nc1ccc(CCCN)cc1
REMARK SMILES IDX 14 1 13 2 12 3 11 4 20 5 19 6 15 7 16 8 17 9 18 10 10 13
REMARK SMILES IDX 9 15 8 16 7 17 2 18 6 19 3 20 5 21 4 22 1 23
REMARK H PARENT 18 11 18 12 10 14
ROOT
ATOM      1  C   UNL     1      -8.930   9.335   0.833  1.00  0.00    -0.048 A 
ATOM      2  C   UNL     1      -7.675   8.739   0.691  1.00  0.00     0.006 A 
ATOM      3  C   UNL     1      -7.561   7.391   0.363  1.00  0.00     0.026 A 
ATOM      4  C   UNL     1      -8.684   6.570   0.242  1.00  0.00     0.038 A 
ATOM      5  C   UNL     1      -9.942   7.153   0.441  1.00  0.00     0.026 A 
ATOM      6  C   UNL     1     -10.064   8.520   0.734  1.00  0.00     0.006 A 
ENDROOT
BRANCH   1   7
ATOM      7  C   UNL     1      -9.067  10.815   1.088  1.00  0.00     0.037 C 
BRANCH   7   8
ATOM      8  C   UNL     1     -10.374  11.283   1.756  1.00  0.00     0.020 C 
BRANCH   8   9
ATOM      9  C   UNL     1     -10.817  12.719   1.437  1.00  0.00     0.078 C 
BRANCH   9  10
ATOM     10  N   UNL     1     -12.034  12.826   0.645  1.00  0.00    -0.330 NA
ATOM     11  H   UNL     1     -12.841  12.563   1.210  1.00  0.00     0.118 HD
ATOM     12  H   UNL     1     -12.012  12.158  -0.126  1.00  0.00     0.118 HD
ENDBRANCH   9  10
ENDBRANCH   8   9
ENDBRANCH   7   8
ENDBRANCH   1   7
BRANCH   4  13
ATOM     13  N   UNL     1      -8.573   5.183   0.029  1.00  0.00    -0.362 N 
ATOM     14  H   UNL     1      -9.257   4.596   0.489  1.00  0.00     0.166 HD
BRANCH  13  15
ATOM     15  C   UNL     1      -7.485   4.561  -0.527  1.00  0.00     0.083 C 
BRANCH  15  16
ATOM     16  C   UNL     1      -6.746   3.556  -0.039  1.00  0.00     0.027 C 
BRANCH  16  17
ATOM     17  C   UNL     1      -5.343   3.764   0.354  1.00  0.00    -0.003 A 
ATOM     18  C   UNL     1      -4.983   4.342   1.583  1.00  0.00    -0.041 A 
ATOM     19  C   UNL     1      -4.295   3.421  -0.513  1.00  0.00     0.119 A 
ATOM     20  C   UNL     1      -3.621   4.525   1.868  1.00  0.00     0.024 A 
ATOM     21  N   UNL     1      -2.977   3.574  -0.247  1.00  0.00    -0.264 NA
ATOM     22  C   UNL     1      -2.672   4.122   0.943  1.00  0.00     0.111 A 
ATOM     23  C   UNL     1      -6.003   4.806   2.585  1.00  0.00     0.045 C 
ENDBRANCH  16  17
ENDBRANCH  15  16
ENDBRANCH  13  15
ENDBRANCH   4  13
TORSDOF 8
ENDMDL
MODEL 9
REMARK VINA RESULT:    -4.533      2.586      3.307
REMARK INTER + INTRA:          -7.120
REMARK INTER:                  -6.569
REMARK INTRA:                  -0.552
REMARK UNBOUND:                -0.600
REMARK SMILES Cc1ccncc1/C=C/Nc1ccc(CCCN)cc1
REMARK SMILES IDX 14 1 13 2 12 3 11 4 20 5 19 6 15 7 16 8 17 9 18 10 10 13
REMARK SMILES IDX 9 15 8 16 7 17 2 18 6 19 3 20 5 21 4 22 1 23
REMARK H PARENT 18 11 18 12 10 14
ROOT
ATOM      1  C   UNL     1      -9.389  10.539   1.117  1.00  0.00    -0.048 A 
ATOM      2  C   UNL     1     -10.103   9.348   0.973  1.00  0.00     0.006 A 
ATOM      3  C   UNL     1      -9.442   8.148   0.731  1.00  0.00     0.026 A 
ATOM      4  C   UNL     1      -8.058   8.099   0.544  1.00  0.00     0.038 A 
ATOM      5  C   UNL     1      -7.346   9.302   0.631  1.00  0.00     0.026 A 
ATOM      6  C   UNL     1      -8.004  10.509   0.914  1.00  0.00     0.006 A 
ENDROOT
BRANCH   1   7
ATOM      7  C   UNL     1     -10.084  11.828   1.480  1.00  0.00     0.037 C 
BRANCH   7   8
ATOM      8  C   UNL     1     -11.206  11.736   2.532  1.00  0.00     0.020 C 
BRANCH   8   9
ATOM      9  C   UNL     1     -12.642  11.825   1.995  1.00  0.00     0.078 C 
BRANCH   9  10
ATOM     10  N   UNL     1     -13.652  11.196   2.833  1.00  0.00    -0.330 NA
ATOM     11  H   UNL     1     -14.342  11.887   3.125  1.00  0.00     0.118 HD
ATOM     12  H   UNL     1     -13.229  10.850   3.695  1.00  0.00     0.118 HD
ENDBRANCH   9  10
ENDBRANCH   8   9
ENDBRANCH   7   8
ENDBRANCH   1   7
BRANCH   4  13
ATOM     13  N   UNL     1      -7.397   6.910   0.181  1.00  0.00    -0.362 N 
ATOM     14  H   UNL     1      -7.033   6.863  -0.762  1.00  0.00     0.166 HD
BRANCH  13  15
ATOM     15  C   UNL     1      -7.435   5.744   0.898  1.00  0.00     0.083 C 
BRANCH  15  16
ATOM     16  C   UNL     1      -6.420   4.981   1.326  1.00  0.00     0.027 C 
BRANCH  16  17
ATOM     17  C   UNL     1      -5.825   3.949   0.462  1.00  0.00    -0.003 A 
ATOM     18  C   UNL     1      -4.436   3.765   0.355  1.00  0.00    -0.041 A 
ATOM     19  C   UNL     1      -6.634   3.121  -0.331  1.00  0.00     0.119 A 
ATOM     20  C   UNL     1      -3.952   2.773  -0.511  1.00  0.00     0.024 A 
ATOM     21  N   UNL     1      -6.185   2.148  -1.159  1.00  0.00    -0.264 NA
ATOM     22  C   UNL     1      -4.851   1.996  -1.226  1.00  0.00     0.111 A 
ATOM     23  C   UNL     1      -3.451   4.616   1.106  1.00  0.00     0.045 C 
ENDBRANCH  16  17
ENDBRANCH  15  16
ENDBRANCH  13  15
ENDBRANCH   4  13
TORSDOF 8
ENDMDL
