MODEL 1
REMARK VINA RESULT:    -5.079      0.000      0.000
REMARK INTER + INTRA:          -7.951
REMARK INTER:                  -7.306
REMARK INTRA:                  -0.645
REMARK UNBOUND:                -0.645
REMARK SMILES Cc1ccncc1/C=C/Nc1ccc(CCCN)cc1
REMARK SMILES IDX 14 1 13 2 12 3 11 4 20 5 19 6 15 7 16 8 17 9 18 10 10 13
REMARK SMILES IDX 9 15 8 16 7 17 2 18 6 19 3 20 5 21 4 22 1 23
REMARK H PARENT 18 11 18 12 10 14
ROOT
ATOM      1  C   UNL     1      -2.787 -12.333  -8.615  1.00  0.00    -0.048 A 
ATOM      2  C   UNL     1      -2.456 -10.978  -8.666  1.00  0.00     0.006 A 
ATOM      3  C   UNL     1      -1.688 -10.396  -7.662  1.00  0.00     0.026 A 
ATOM      4  C   UNL     1      -1.288 -11.118  -6.535  1.00  0.00     0.038 A 
ATOM      5  C   UNL     1      -1.667 -12.463  -6.455  1.00  0.00     0.026 A 
ATOM      6  C   UNL     1      -2.409 -13.065  -7.483  1.00  0.00     0.006 A 
ENDROOT
BRANCH   1   7
ATOM      7  C   UNL     1      -3.531 -12.998  -9.746  1.00  0.00     0.037 C 
BRANCH   7   8
ATOM      8  C   UNL     1      -4.924 -13.570  -9.416  1.00  0.00     0.020 C 
BRANCH   8   9
ATOM      9  C   UNL     1      -5.135 -15.056  -9.739  1.00  0.00     0.078 C 
BRANCH   9  10
ATOM     10  N   UNL     1      -5.599 -15.868  -8.623  1.00  0.00    -0.330 NA
ATOM     11  H   UNL     1      -6.588 -16.085  -8.737  1.00  0.00     0.118 HD
ATOM     12  H   UNL     1      -5.534 -15.340  -7.752  1.00  0.00     0.118 HD
ENDBRANCH   9  10
ENDBRANCH   8   9
ENDBRANCH   7   8
ENDBRANCH   1   7
BRANCH   4  13
ATOM     13  N   UNL     1      -0.614 -10.507  -5.460  1.00  0.00    -0.362 N 
ATOM     14  H   UNL     1       0.397 -10.489  -5.508  1.00  0.00     0.166 HD
BRANCH  13  15
ATOM     15  C   UNL     1      -1.191 -10.176  -4.262  1.00  0.00     0.083 C 
BRANCH  15  16
ATOM     16  C   UNL     1      -0.719  -9.388  -3.286  1.00  0.00     0.027 C 
BRANCH  16  17
ATOM     17  C   UNL     1      -1.138  -7.983  -3.171  1.00  0.00    -0.003 A 
ATOM     18  C   UNL     1      -0.289  -6.913  -3.506  1.00  0.00    -0.041 A 
ATOM     19  C   UNL     1      -2.409  -7.649  -2.679  1.00  0.00     0.119 A 
ATOM     20  C   UNL     1      -0.761  -5.602  -3.344  1.00  0.00     0.024 A 
ATOM     21  N   UNL     1      -2.886  -6.391  -2.532  1.00  0.00    -0.264 NA
ATOM     22  C   UNL     1      -2.048  -5.395  -2.873  1.00  0.00     0.111 A 
ATOM     23  C   UNL     1       1.116  -7.124  -3.995  1.00  0.00     0.045 C 
ENDBRANCH  16  17
ENDBRANCH  15  16
ENDBRANCH  13  15
ENDBRANCH   4  13
TORSDOF 8
ENDMDL
MODEL 2
REMARK VINA RESULT:    -5.052      3.047      4.148
REMARK INTER + INTRA:          -7.913
REMARK INTER:                  -7.260
REMARK INTRA:                  -0.653
REMARK UNBOUND:                -0.645
REMARK SMILES Cc1ccncc1/C=C/Nc1ccc(CCCN)cc1
REMARK SMILES IDX 14 1 13 2 12 3 11 4 20 5 19 6 15 7 16 8 17 9 18 10 10 13
REMARK SMILES IDX 9 15 8 16 7 17 2 18 6 19 3 20 5 21 4 22 1 23
REMARK H PARENT 18 11 18 12 10 14
ROOT
ATOM      1  C   UNL     1      -1.494 -15.054  -5.229  1.00  0.00    -0.048 A 
ATOM      2  C   UNL     1      -1.258 -14.685  -3.903  1.00  0.00     0.006 A 
ATOM      3  C   UNL     1      -1.274 -13.345  -3.525  1.00  0.00     0.026 A 
ATOM      4  C   UNL     1      -1.446 -12.322  -4.461  1.00  0.00     0.038 A 
ATOM      5  C   UNL     1      -1.626 -12.689  -5.800  1.00  0.00     0.026 A 
ATOM      6  C   UNL     1      -1.649 -14.039  -6.181  1.00  0.00     0.006 A 
ENDROOT
BRANCH   1   7
ATOM      7  C   UNL     1      -1.579 -16.505  -5.632  1.00  0.00     0.037 C 
BRANCH   7   8
ATOM      8  C   UNL     1      -0.401 -17.066  -6.451  1.00  0.00     0.020 C 
BRANCH   8   9
ATOM      9  C   UNL     1      -0.775 -17.859  -7.712  1.00  0.00     0.078 C 
BRANCH   9  10
ATOM     10  N   UNL     1      -0.382 -17.238  -8.969  1.00  0.00    -0.330 NA
ATOM     11  H   UNL     1      -0.840 -16.333  -9.068  1.00  0.00     0.118 HD
ATOM     12  H   UNL     1      -0.711 -17.799  -9.755  1.00  0.00     0.118 HD
ENDBRANCH   9  10
ENDBRANCH   8   9
ENDBRANCH   7   8
ENDBRANCH   1   7
BRANCH   4  13
ATOM     13  N   UNL     1      -1.345 -10.964  -4.106  1.00  0.00    -0.362 N 
ATOM     14  H   UNL     1      -1.937 -10.647  -3.348  1.00  0.00     0.166 HD
BRANCH  13  15
ATOM     15  C   UNL     1      -0.718 -10.004  -4.855  1.00  0.00     0.083 C 
BRANCH  15  16
ATOM     16  C   UNL     1      -0.477  -8.721  -4.556  1.00  0.00     0.027 C 
BRANCH  16  17
ATOM     17  C   UNL     1       0.476  -8.351  -3.498  1.00  0.00    -0.003 A 
ATOM     18  C   UNL     1       0.062  -7.980  -2.206  1.00  0.00    -0.041 A 
ATOM     19  C   UNL     1       1.855  -8.318  -3.751  1.00  0.00     0.119 A 
ATOM     20  C   UNL     1       1.037  -7.619  -1.264  1.00  0.00     0.024 A 
ATOM     21  N   UNL     1       2.810  -7.989  -2.849  1.00  0.00    -0.264 NA
ATOM     22  C   UNL     1       2.375  -7.650  -1.623  1.00  0.00     0.111 A 
ATOM     23  C   UNL     1      -1.387  -7.919  -1.812  1.00  0.00     0.045 C 
ENDBRANCH  16  17
ENDBRANCH  15  16
ENDBRANCH  13  15
ENDBRANCH   4  13
TORSDOF 8
ENDMDL
MODEL 3
REMARK VINA RESULT:    -5.026      2.533      3.313
REMARK INTER + INTRA:          -7.874
REMARK INTER:                  -7.303
REMARK INTRA:                  -0.571
REMARK UNBOUND:                -0.645
REMARK SMILES Cc1ccncc1/C=C/Nc1ccc(CCCN)cc1
REMARK SMILES IDX 14 1 13 2 12 3 11 4 20 5 19 6 15 7 16 8 17 9 18 10 10 13
REMARK SMILES IDX 9 15 8 16 7 17 2 18 6 19 3 20 5 21 4 22 1 23
REMARK H PARENT 18 11 18 12 10 14
ROOT
ATOM      1  C   UNL     1      -1.628 -14.282  -5.947  1.00  0.00    -0.048 A 
ATOM      2  C   UNL     1      -1.144 -14.260  -4.637  1.00  0.00     0.006 A 
ATOM      3  C   UNL     1      -0.980 -13.055  -3.960  1.00  0.00     0.026 A 
ATOM      4  C   UNL     1      -1.216 -11.827  -4.583  1.00  0.00     0.038 A 
ATOM      5  C   UNL     1      -1.647 -11.845  -5.915  1.00  0.00     0.026 A 
ATOM      6  C   UNL     1      -1.851 -13.058  -6.590  1.00  0.00     0.006 A 
ENDROOT
BRANCH   1   7
ATOM      7  C   UNL     1      -1.905 -15.584  -6.655  1.00  0.00     0.037 C 
BRANCH   7   8
ATOM      8  C   UNL     1      -0.776 -16.633  -6.642  1.00  0.00     0.020 C 
BRANCH   8   9
ATOM      9  C   UNL     1      -0.837 -17.701  -7.744  1.00  0.00     0.078 C 
BRANCH   9  10
ATOM     10  N   UNL     1      -0.340 -17.273  -9.044  1.00  0.00    -0.330 NA
ATOM     11  H   UNL     1      -0.960 -17.607  -9.781  1.00  0.00     0.118 HD
ATOM     12  H   UNL     1       0.566 -17.702  -9.233  1.00  0.00     0.118 HD
ENDBRANCH   9  10
ENDBRANCH   8   9
ENDBRANCH   7   8
ENDBRANCH   1   7
BRANCH   4  13
ATOM     13  N   UNL     1      -0.939 -10.603  -3.945  1.00  0.00    -0.362 N 
ATOM     14  H   UNL     1      -1.429 -10.422  -3.078  1.00  0.00     0.166 HD
BRANCH  13  15
ATOM     15  C   UNL     1      -0.274  -9.553  -4.521  1.00  0.00     0.083 C 
BRANCH  15  16
ATOM     16  C   UNL     1       0.678  -8.767  -4.001  1.00  0.00     0.027 C 
BRANCH  16  17
ATOM     17  C   UNL     1       0.352  -7.452  -3.430  1.00  0.00    -0.003 A 
ATOM     18  C   UNL     1       0.956  -6.968  -2.256  1.00  0.00    -0.041 A 
ATOM     19  C   UNL     1      -0.619  -6.631  -4.023  1.00  0.00     0.119 A 
ATOM     20  C   UNL     1       0.568  -5.712  -1.767  1.00  0.00     0.024 A 
ATOM     21  N   UNL     1      -0.992  -5.409  -3.574  1.00  0.00    -0.264 NA
ATOM     22  C   UNL     1      -0.384  -4.977  -2.455  1.00  0.00     0.111 A 
ATOM     23  C   UNL     1       1.973  -7.765  -1.488  1.00  0.00     0.045 C 
ENDBRANCH  16  17
ENDBRANCH  15  16
ENDBRANCH  13  15
ENDBRANCH   4  13
TORSDOF 8
ENDMDL
MODEL 4
REMARK VINA RESULT:    -5.015      1.779      2.624
REMARK INTER + INTRA:          -7.859
REMARK INTER:                  -7.355
REMARK INTRA:                  -0.503
REMARK UNBOUND:                -0.645
REMARK SMILES Cc1ccncc1/C=C/Nc1ccc(CCCN)cc1
REMARK SMILES IDX 14 1 13 2 12 3 11 4 20 5 19 6 15 7 16 8 17 9 18 10 10 13
REMARK SMILES IDX 9 15 8 16 7 17 2 18 6 19 3 20 5 21 4 22 1 23
REMARK H PARENT 18 11 18 12 10 14
ROOT
ATOM      1  C   UNL     1      -2.818 -12.618  -8.655  1.00  0.00    -0.048 A 
ATOM      2  C   UNL     1      -2.416 -13.353  -7.538  1.00  0.00     0.006 A 
ATOM      3  C   UNL     1      -1.707 -12.745  -6.505  1.00  0.00     0.026 A 
ATOM      4  C   UNL     1      -1.305 -11.410  -6.580  1.00  0.00     0.038 A 
ATOM      5  C   UNL     1      -1.658 -10.686  -7.726  1.00  0.00     0.026 A 
ATOM      6  C   UNL     1      -2.406 -11.283  -8.752  1.00  0.00     0.006 A 
ENDROOT
BRANCH   1   7
ATOM      7  C   UNL     1      -3.673 -13.238  -9.731  1.00  0.00     0.037 C 
BRANCH   7   8
ATOM      8  C   UNL     1      -4.962 -13.945  -9.270  1.00  0.00     0.020 C 
BRANCH   8   9
ATOM      9  C   UNL     1      -5.038 -15.454  -9.544  1.00  0.00     0.078 C 
BRANCH   9  10
ATOM     10  N   UNL     1      -5.747 -16.228  -8.534  1.00  0.00    -0.330 NA
ATOM     11  H   UNL     1      -5.130 -16.939  -8.143  1.00  0.00     0.118 HD
ATOM     12  H   UNL     1      -6.518 -16.741  -8.962  1.00  0.00     0.118 HD
ENDBRANCH   9  10
ENDBRANCH   8   9
ENDBRANCH   7   8
ENDBRANCH   1   7
BRANCH   4  13
ATOM     13  N   UNL     1      -0.486 -10.822  -5.596  1.00  0.00    -0.362 N 
ATOM     14  H   UNL     1       0.439 -11.217  -5.480  1.00  0.00     0.166 HD
BRANCH  13  15
ATOM     15  C   UNL     1      -0.924  -9.953  -4.632  1.00  0.00     0.083 C 
BRANCH  15  16
ATOM     16  C   UNL     1      -0.572  -8.678  -4.420  1.00  0.00     0.027 C 
BRANCH  16  17
ATOM     17  C   UNL     1       0.442  -8.324  -3.415  1.00  0.00    -0.003 A 
ATOM     18  C   UNL     1       0.103  -7.951  -2.102  1.00  0.00    -0.041 A 
ATOM     19  C   UNL     1       1.806  -8.308  -3.743  1.00  0.00     0.119 A 
ATOM     20  C   UNL     1       1.133  -7.605  -1.213  1.00  0.00     0.024 A 
ATOM     21  N   UNL     1       2.812  -7.995  -2.893  1.00  0.00    -0.264 NA
ATOM     22  C   UNL     1       2.449  -7.653  -1.644  1.00  0.00     0.111 A 
ATOM     23  C   UNL     1      -1.321  -7.872  -1.630  1.00  0.00     0.045 C 
ENDBRANCH  16  17
ENDBRANCH  15  16
ENDBRANCH  13  15
ENDBRANCH   4  13
TORSDOF 8
ENDMDL
MODEL 5
REMARK VINA RESULT:    -4.986      1.490      1.886
REMARK INTER + INTRA:          -7.817
REMARK INTER:                  -7.230
REMARK INTRA:                  -0.587
REMARK UNBOUND:                -0.645
REMARK SMILES Cc1ccncc1/C=C/Nc1ccc(CCCN)cc1
REMARK SMILES IDX 14 1 13 2 12 3 11 4 20 5 19 6 15 7 16 8 17 9 18 10 10 13
REMARK SMILES IDX 9 15 8 16 7 17 2 18 6 19 3 20 5 21 4 22 1 23
REMARK H PARENT 18 11 18 12 10 14
ROOT
ATOM      1  C   UNL     1      -2.135 -13.601  -6.961  1.00  0.00    -0.048 A 
ATOM      2  C   UNL     1      -2.093 -12.235  -7.249  1.00  0.00     0.006 A 
ATOM      3  C   UNL     1      -1.512 -11.339  -6.357  1.00  0.00     0.026 A 
ATOM      4  C   UNL     1      -1.024 -11.754  -5.115  1.00  0.00     0.038 A 
ATOM      5  C   UNL     1      -1.117 -13.115  -4.801  1.00  0.00     0.026 A 
ATOM      6  C   UNL     1      -1.667 -14.029  -5.713  1.00  0.00     0.006 A 
ENDROOT
BRANCH   1   7
ATOM      7  C   UNL     1      -2.670 -14.593  -7.963  1.00  0.00     0.037 C 
BRANCH   7   8
ATOM      8  C   UNL     1      -3.289 -14.013  -9.249  1.00  0.00     0.020 C 
BRANCH   8   9
ATOM      9  C   UNL     1      -4.819 -14.098  -9.359  1.00  0.00     0.078 C 
BRANCH   9  10
ATOM     10  N   UNL     1      -5.421 -15.242  -8.688  1.00  0.00    -0.330 NA
ATOM     11  H   UNL     1      -5.109 -15.282  -7.719  1.00  0.00     0.118 HD
ATOM     12  H   UNL     1      -5.097 -16.110  -9.115  1.00  0.00     0.118 HD
ENDBRANCH   9  10
ENDBRANCH   8   9
ENDBRANCH   7   8
ENDBRANCH   1   7
BRANCH   4  13
ATOM     13  N   UNL     1      -0.544 -10.838  -4.160  1.00  0.00    -0.362 N 
ATOM     14  H   UNL     1      -0.466 -11.174  -3.208  1.00  0.00     0.166 HD
BRANCH  13  15
ATOM     15  C   UNL     1      -0.425  -9.488  -4.361  1.00  0.00     0.083 C 
BRANCH  15  16
ATOM     16  C   UNL     1       0.574  -8.666  -4.012  1.00  0.00     0.027 C 
BRANCH  16  17
ATOM     17  C   UNL     1       0.304  -7.355  -3.403  1.00  0.00    -0.003 A 
ATOM     18  C   UNL     1       0.951  -6.919  -2.233  1.00  0.00    -0.041 A 
ATOM     19  C   UNL     1      -0.653  -6.489  -3.954  1.00  0.00     0.119 A 
ATOM     20  C   UNL     1       0.616  -5.663  -1.705  1.00  0.00     0.024 A 
ATOM     21  N   UNL     1      -0.975  -5.267  -3.468  1.00  0.00    -0.264 NA
ATOM     22  C   UNL     1      -0.328  -4.882  -2.354  1.00  0.00     0.111 A 
ATOM     23  C   UNL     1       1.958  -7.767  -1.507  1.00  0.00     0.045 C 
ENDBRANCH  16  17
ENDBRANCH  15  16
ENDBRANCH  13  15
ENDBRANCH   4  13
TORSDOF 8
ENDMDL
MODEL 6
REMARK VINA RESULT:    -4.981      4.091      6.293
REMARK INTER + INTRA:          -7.811
REMARK INTER:                  -6.695
REMARK INTRA:                  -1.116
REMARK UNBOUND:                -0.645
REMARK SMILES Cc1ccncc1/C=C/Nc1ccc(CCCN)cc1
REMARK SMILES IDX 14 1 13 2 12 3 11 4 20 5 19 6 15 7 16 8 17 9 18 10 10 13
REMARK SMILES IDX 9 15 8 16 7 17 2 18 6 19 3 20 5 21 4 22 1 23
REMARK H PARENT 18 11 18 12 10 14
ROOT
ATOM      1  C   UNL     1      -1.881 -11.561 -10.186  1.00  0.00    -0.048 A 
ATOM      2  C   UNL     1      -1.383 -10.561  -9.348  1.00  0.00     0.006 A 
ATOM      3  C   UNL     1      -1.479 -10.681  -7.965  1.00  0.00     0.026 A 
ATOM      4  C   UNL     1      -2.139 -11.757  -7.367  1.00  0.00     0.038 A 
ATOM      5  C   UNL     1      -2.689 -12.732  -8.208  1.00  0.00     0.026 A 
ATOM      6  C   UNL     1      -2.562 -12.636  -9.602  1.00  0.00     0.006 A 
ENDROOT
BRANCH   1   7
ATOM      7  C   UNL     1      -1.694 -11.492 -11.681  1.00  0.00     0.037 C 
BRANCH   7   8
ATOM      8  C   UNL     1      -0.249 -11.606 -12.204  1.00  0.00     0.020 C 
BRANCH   8   9
ATOM      9  C   UNL     1       0.058 -12.835 -13.072  1.00  0.00     0.078 C 
BRANCH   9  10
ATOM     10  N   UNL     1       0.940 -13.817 -12.458  1.00  0.00    -0.330 NA
ATOM     11  H   UNL     1       1.884 -13.439 -12.381  1.00  0.00     0.118 HD
ATOM     12  H   UNL     1       1.024 -14.638 -13.057  1.00  0.00     0.118 HD
ENDBRANCH   9  10
ENDBRANCH   8   9
ENDBRANCH   7   8
ENDBRANCH   1   7
BRANCH   4  13
ATOM     13  N   UNL     1      -2.344 -11.825  -5.976  1.00  0.00    -0.362 N 
ATOM     14  H   UNL     1      -3.185 -11.390  -5.618  1.00  0.00     0.166 HD
BRANCH  13  15
ATOM     15  C   UNL     1      -1.392 -12.194  -5.062  1.00  0.00     0.083 C 
BRANCH  15  16
ATOM     16  C   UNL     1      -0.773 -13.373  -4.915  1.00  0.00     0.027 C 
BRANCH  16  17
ATOM     17  C   UNL     1      -1.468 -14.531  -4.333  1.00  0.00    -0.003 A 
ATOM     18  C   UNL     1      -1.692 -15.717  -5.055  1.00  0.00    -0.041 A 
ATOM     19  C   UNL     1      -1.976 -14.483  -3.027  1.00  0.00     0.119 A 
ATOM     20  C   UNL     1      -2.384 -16.765  -4.431  1.00  0.00     0.024 A 
ATOM     21  N   UNL     1      -2.631 -15.491  -2.403  1.00  0.00    -0.264 NA
ATOM     22  C   UNL     1      -2.816 -16.612  -3.123  1.00  0.00     0.111 A 
ATOM     23  C   UNL     1      -1.249 -15.887  -6.481  1.00  0.00     0.045 C 
ENDBRANCH  16  17
ENDBRANCH  15  16
ENDBRANCH  13  15
ENDBRANCH   4  13
TORSDOF 8
ENDMDL
MODEL 7
REMARK VINA RESULT:    -4.936      3.967      6.798
REMARK INTER + INTRA:          -7.746
REMARK INTER:                  -6.587
REMARK INTRA:                  -1.160
REMARK UNBOUND:                -0.645
REMARK SMILES Cc1ccncc1/C=C/Nc1ccc(CCCN)cc1
REMARK SMILES IDX 14 1 13 2 12 3 11 4 20 5 19 6 15 7 16 8 17 9 18 10 10 13
REMARK SMILES IDX 9 15 8 16 7 17 2 18 6 19 3 20 5 21 4 22 1 23
REMARK H PARENT 18 11 18 12 10 14
ROOT
ATOM      1  C   UNL     1      -2.238 -15.743  -3.560  1.00  0.00    -0.048 A 
ATOM      2  C   UNL     1      -1.934 -15.897  -4.914  1.00  0.00     0.006 A 
ATOM      3  C   UNL     1      -1.395 -14.843  -5.645  1.00  0.00     0.026 A 
ATOM      4  C   UNL     1      -1.212 -13.579  -5.081  1.00  0.00     0.038 A 
ATOM      5  C   UNL     1      -1.569 -13.407  -3.738  1.00  0.00     0.026 A 
ATOM      6  C   UNL     1      -2.077 -14.476  -2.985  1.00  0.00     0.006 A 
ENDROOT
BRANCH   1   7
ATOM      7  C   UNL     1      -2.727 -16.905  -2.732  1.00  0.00     0.037 C 
BRANCH   7   8
ATOM      8  C   UNL     1      -4.211 -16.883  -2.317  1.00  0.00     0.020 C 
BRANCH   8   9
ATOM      9  C   UNL     1      -5.143 -17.823  -3.096  1.00  0.00     0.078 C 
BRANCH   9  10
ATOM     10  N   UNL     1      -6.266 -17.170  -3.753  1.00  0.00    -0.330 NA
ATOM     11  H   UNL     1      -7.120 -17.703  -3.596  1.00  0.00     0.118 HD
ATOM     12  H   UNL     1      -6.128 -17.166  -4.764  1.00  0.00     0.118 HD
ENDBRANCH   9  10
ENDBRANCH   8   9
ENDBRANCH   7   8
ENDBRANCH   1   7
BRANCH   4  13
ATOM     13  N   UNL     1      -0.780 -12.478  -5.845  1.00  0.00    -0.362 N 
ATOM     14  H   UNL     1       0.219 -12.384  -5.982  1.00  0.00     0.166 HD
BRANCH  13  15
ATOM     15  C   UNL     1      -1.563 -11.408  -6.189  1.00  0.00     0.083 C 
BRANCH  15  16
ATOM     16  C   UNL     1      -2.546 -11.337  -7.096  1.00  0.00     0.027 C 
BRANCH  16  17
ATOM     17  C   UNL     1      -2.267 -11.470  -8.534  1.00  0.00    -0.003 A 
ATOM     18  C   UNL     1      -2.735 -12.555  -9.296  1.00  0.00    -0.041 A 
ATOM     19  C   UNL     1      -1.476 -10.524  -9.204  1.00  0.00     0.119 A 
ATOM     20  C   UNL     1      -2.402 -12.616 -10.657  1.00  0.00     0.024 A 
ATOM     21  N   UNL     1      -1.160 -10.559 -10.520  1.00  0.00    -0.264 NA
ATOM     22  C   UNL     1      -1.635 -11.606 -11.217  1.00  0.00     0.111 A 
ATOM     23  C   UNL     1      -3.547 -13.668  -8.696  1.00  0.00     0.045 C 
ENDBRANCH  16  17
ENDBRANCH  15  16
ENDBRANCH  13  15
ENDBRANCH   4  13
TORSDOF 8
ENDMDL
MODEL 8
REMARK VINA RESULT:    -4.933      3.017      8.056
REMARK INTER + INTRA:          -7.742
REMARK INTER:                  -6.592
REMARK INTRA:                  -1.150
REMARK UNBOUND:                -0.645
REMARK SMILES Cc1ccncc1/C=C/Nc1ccc(CCCN)cc1
REMARK SMILES IDX 14 1 13 2 12 3 11 4 20 5 19 6 15 7 16 8 17 9 18 10 10 13
REMARK SMILES IDX 9 15 8 16 7 17 2 18 6 19 3 20 5 21 4 22 1 23
REMARK H PARENT 18 11 18 12 10 14
ROOT
ATOM      1  C   UNL     1      -1.154  -9.344  -3.848  1.00  0.00    -0.048 A 
ATOM      2  C   UNL     1      -2.423  -9.835  -4.159  1.00  0.00     0.006 A 
ATOM      3  C   UNL     1      -2.578 -10.883  -5.062  1.00  0.00     0.026 A 
ATOM      4  C   UNL     1      -1.488 -11.426  -5.747  1.00  0.00     0.038 A 
ATOM      5  C   UNL     1      -0.221 -10.896  -5.479  1.00  0.00     0.026 A 
ATOM      6  C   UNL     1      -0.054  -9.866  -4.541  1.00  0.00     0.006 A 
ENDROOT
BRANCH   1   7
ATOM      7  C   UNL     1      -0.965  -8.279  -2.797  1.00  0.00     0.037 C 
BRANCH   7   8
ATOM      8  C   UNL     1      -2.111  -7.263  -2.628  1.00  0.00     0.020 C 
BRANCH   8   9
ATOM      9  C   UNL     1      -1.792  -5.815  -3.029  1.00  0.00     0.078 C 
BRANCH   9  10
ATOM     10  N   UNL     1      -2.823  -4.843  -2.696  1.00  0.00    -0.330 NA
ATOM     11  H   UNL     1      -3.351  -4.594  -3.531  1.00  0.00     0.118 HD
ATOM     12  H   UNL     1      -2.396  -3.974  -2.374  1.00  0.00     0.118 HD
ENDBRANCH   9  10
ENDBRANCH   8   9
ENDBRANCH   7   8
ENDBRANCH   1   7
BRANCH   4  13
ATOM     13  N   UNL     1      -1.650 -12.403  -6.748  1.00  0.00    -0.362 N 
ATOM     14  H   UNL     1      -1.802 -12.066  -7.691  1.00  0.00     0.166 HD
BRANCH  13  15
ATOM     15  C   UNL     1      -1.872 -13.734  -6.514  1.00  0.00     0.083 C 
BRANCH  15  16
ATOM     16  C   UNL     1      -1.154 -14.595  -5.781  1.00  0.00     0.027 C 
BRANCH  16  17
ATOM     17  C   UNL     1      -1.804 -15.524  -4.844  1.00  0.00    -0.003 A 
ATOM     18  C   UNL     1      -1.881 -15.271  -3.463  1.00  0.00    -0.041 A 
ATOM     19  C   UNL     1      -2.347 -16.737  -5.294  1.00  0.00     0.119 A 
ATOM     20  C   UNL     1      -2.497 -16.223  -2.637  1.00  0.00     0.024 A 
ATOM     21  N   UNL     1      -2.961 -17.657  -4.514  1.00  0.00    -0.264 NA
ATOM     22  C   UNL     1      -3.024 -17.374  -3.200  1.00  0.00     0.111 A 
ATOM     23  C   UNL     1      -1.293 -14.037  -2.837  1.00  0.00     0.045 C 
ENDBRANCH  16  17
ENDBRANCH  15  16
ENDBRANCH  13  15
ENDBRANCH   4  13
TORSDOF 8
ENDMDL
MODEL 9
REMARK VINA RESULT:    -4.789      2.346      2.789
REMARK INTER + INTRA:          -7.534
REMARK INTER:                  -6.902
REMARK INTRA:                  -0.632
REMARK UNBOUND:                -0.645
REMARK SMILES Cc1ccncc1/C=C/Nc1ccc(CCCN)cc1
REMARK SMILES IDX 14 1 13 2 12 3 11 4 20 5 19 6 15 7 16 8 17 9 18 10 10 13
REMARK SMILES IDX 9 15 8 16 7 17 2 18 6 19 3 20 5 21 4 22 1 23
REMARK H PARENT 18 11 18 12 10 14
ROOT
ATOM      1  C   UNL     1      -2.035 -11.456  -9.678  1.00  0.00    -0.048 A 
ATOM      2  C   UNL     1      -1.670 -10.300  -8.985  1.00  0.00     0.006 A 
ATOM      3  C   UNL     1      -1.584 -10.301  -7.596  1.00  0.00     0.026 A 
ATOM      4  C   UNL     1      -1.931 -11.425  -6.842  1.00  0.00     0.038 A 
ATOM      5  C   UNL     1      -2.352 -12.568  -7.533  1.00  0.00     0.026 A 
ATOM      6  C   UNL     1      -2.404 -12.584  -8.935  1.00  0.00     0.006 A 
ENDROOT
BRANCH   1   7
ATOM      7  C   UNL     1      -2.035 -11.496 -11.186  1.00  0.00     0.037 C 
BRANCH   7   8
ATOM      8  C   UNL     1      -0.659 -11.456 -11.878  1.00  0.00     0.020 C 
BRANCH   8   9
ATOM      9  C   UNL     1      -0.287 -12.693 -12.709  1.00  0.00     0.078 C 
BRANCH   9  10
ATOM     10  N   UNL     1       0.994 -13.298 -12.373  1.00  0.00    -0.330 NA
ATOM     11  H   UNL     1       0.965 -13.672 -11.425  1.00  0.00     0.118 HD
ATOM     12  H   UNL     1       1.727 -12.587 -12.364  1.00  0.00     0.118 HD
ENDBRANCH   9  10
ENDBRANCH   8   9
ENDBRANCH   7   8
ENDBRANCH   1   7
BRANCH   4  13
ATOM     13  N   UNL     1      -1.961 -11.397  -5.435  1.00  0.00    -0.362 N 
ATOM     14  H   UNL     1      -2.225 -12.256  -4.969  1.00  0.00     0.166 HD
BRANCH  13  15
ATOM     15  C   UNL     1      -1.915 -10.259  -4.674  1.00  0.00     0.083 C 
BRANCH  15  16
ATOM     16  C   UNL     1      -0.909  -9.781  -3.929  1.00  0.00     0.027 C 
BRANCH  16  17
ATOM     17  C   UNL     1      -0.887  -8.377  -3.491  1.00  0.00    -0.003 A 
ATOM     18  C   UNL     1       0.282  -7.596  -3.519  1.00  0.00    -0.041 A 
ATOM     19  C   UNL     1      -2.043  -7.763  -2.984  1.00  0.00     0.119 A 
ATOM     20  C   UNL     1       0.219  -6.272  -3.059  1.00  0.00     0.024 A 
ATOM     21  N   UNL     1      -2.125  -6.482  -2.553  1.00  0.00    -0.264 NA
ATOM     22  C   UNL     1      -0.988  -5.765  -2.605  1.00  0.00     0.111 A 
ATOM     23  C   UNL     1       1.602  -8.141  -3.986  1.00  0.00     0.045 C 
ENDBRANCH  16  17
ENDBRANCH  15  16
ENDBRANCH  13  15
ENDBRANCH   4  13
TORSDOF 8
ENDMDL
