MODEL 1
REMARK VINA RESULT:    -5.123      0.000      0.000
REMARK INTER + INTRA:          -7.991
REMARK INTER:                  -7.369
REMARK INTRA:                  -0.622
REMARK UNBOUND:                -0.622
REMARK SMILES Cc1ccncc1/C=C/Nc1ccc(CCCN)cc1
REMARK SMILES IDX 14 1 13 2 12 3 11 4 20 5 19 6 15 7 16 8 17 9 18 10 10 13
REMARK SMILES IDX 9 15 8 16 7 17 2 18 6 19 3 20 5 21 4 22 1 23
REMARK H PARENT 18 11 18 12 10 14
ROOT
ATOM      1  C   UNL     1     -11.883  -7.637   9.383  1.00  0.00    -0.048 A 
ATOM      2  C   UNL     1     -12.478  -8.235   8.270  1.00  0.00     0.006 A 
ATOM      3  C   UNL     1     -11.945  -8.056   6.997  1.00  0.00     0.026 A 
ATOM      4  C   UNL     1     -10.851  -7.216   6.773  1.00  0.00     0.038 A 
ATOM      5  C   UNL     1     -10.288  -6.570   7.880  1.00  0.00     0.026 A 
ATOM      6  C   UNL     1     -10.798  -6.777   9.171  1.00  0.00     0.006 A 
ENDROOT
BRANCH   1   7
ATOM      7  C   UNL     1     -12.390  -7.904  10.778  1.00  0.00     0.037 C 
BRANCH   7   8
ATOM      8  C   UNL     1     -12.838  -6.679  11.598  1.00  0.00     0.020 C 
BRANCH   8   9
ATOM      9  C   UNL     1     -14.351  -6.530  11.815  1.00  0.00     0.078 C 
BRANCH   9  10
ATOM     10  N   UNL     1     -14.986  -5.483  11.028  1.00  0.00    -0.330 NA
ATOM     11  H   UNL     1     -15.939  -5.330  11.355  1.00  0.00     0.118 HD
ATOM     12  H   UNL     1     -15.074  -5.778  10.055  1.00  0.00     0.118 HD
ENDBRANCH   9  10
ENDBRANCH   8   9
ENDBRANCH   7   8
ENDBRANCH   1   7
BRANCH   4  13
ATOM     13  N   UNL     1     -10.381  -6.936   5.475  1.00  0.00    -0.362 N 
ATOM     14  H   UNL     1     -10.011  -7.717   4.948  1.00  0.00     0.166 HD
BRANCH  13  15
ATOM     15  C   UNL     1     -10.150  -5.680   4.981  1.00  0.00     0.083 C 
BRANCH  15  16
ATOM     16  C   UNL     1      -9.507  -5.316   3.863  1.00  0.00     0.027 C 
BRANCH  16  17
ATOM     17  C   UNL     1      -8.616  -4.146   3.843  1.00  0.00    -0.003 A 
ATOM     18  C   UNL     1      -7.435  -4.110   3.081  1.00  0.00    -0.041 A 
ATOM     19  C   UNL     1      -8.895  -3.016   4.626  1.00  0.00     0.119 A 
ATOM     20  C   UNL     1      -6.630  -2.963   3.138  1.00  0.00     0.024 A 
ATOM     21  N   UNL     1      -8.139  -1.894   4.680  1.00  0.00    -0.264 NA
ATOM     22  C   UNL     1      -7.023  -1.895   3.929  1.00  0.00     0.111 A 
ATOM     23  C   UNL     1      -6.987  -5.271   2.238  1.00  0.00     0.045 C 
ENDBRANCH  16  17
ENDBRANCH  15  16
ENDBRANCH  13  15
ENDBRANCH   4  13
TORSDOF 8
ENDMDL
MODEL 2
REMARK VINA RESULT:    -4.951      1.698      8.562
REMARK INTER + INTRA:          -7.744
REMARK INTER:                  -7.145
REMARK INTRA:                  -0.599
REMARK UNBOUND:                -0.622
REMARK SMILES Cc1ccncc1/C=C/Nc1ccc(CCCN)cc1
REMARK SMILES IDX 14 1 13 2 12 3 11 4 20 5 19 6 15 7 16 8 17 9 18 10 10 13
REMARK SMILES IDX 9 15 8 16 7 17 2 18 6 19 3 20 5 21 4 22 1 23
REMARK H PARENT 18 11 18 12 10 14
ROOT
ATOM      1  C   UNL     1      -8.835  -3.683   3.746  1.00  0.00    -0.048 A 
ATOM      2  C   UNL     1      -8.828  -5.066   3.554  1.00  0.00     0.006 A 
ATOM      3  C   UNL     1      -9.699  -5.886   4.267  1.00  0.00     0.026 A 
ATOM      4  C   UNL     1     -10.549  -5.372   5.248  1.00  0.00     0.038 A 
ATOM      5  C   UNL     1     -10.516  -3.992   5.482  1.00  0.00     0.026 A 
ATOM      6  C   UNL     1      -9.668  -3.156   4.739  1.00  0.00     0.006 A 
ENDROOT
BRANCH   1   7
ATOM      7  C   UNL     1      -7.969  -2.775   2.908  1.00  0.00     0.037 C 
BRANCH   7   8
ATOM      8  C   UNL     1      -7.383  -1.535   3.612  1.00  0.00     0.020 C 
BRANCH   8   9
ATOM      9  C   UNL     1      -6.761  -0.472   2.695  1.00  0.00     0.078 C 
BRANCH   9  10
ATOM     10  N   UNL     1      -6.582   0.838   3.305  1.00  0.00    -0.330 NA
ATOM     11  H   UNL     1      -7.462   1.352   3.290  1.00  0.00     0.118 HD
ATOM     12  H   UNL     1      -5.930   1.397   2.754  1.00  0.00     0.118 HD
ENDBRANCH   9  10
ENDBRANCH   8   9
ENDBRANCH   7   8
ENDBRANCH   1   7
BRANCH   4  13
ATOM     13  N   UNL     1     -11.345  -6.208   6.055  1.00  0.00    -0.362 N 
ATOM     14  H   UNL     1     -12.342  -6.033   6.045  1.00  0.00     0.166 HD
BRANCH  13  15
ATOM     15  C   UNL     1     -10.865  -7.045   7.027  1.00  0.00     0.083 C 
BRANCH  15  16
ATOM     16  C   UNL     1     -10.898  -6.903   8.358  1.00  0.00     0.027 C 
BRANCH  16  17
ATOM     17  C   UNL     1     -11.873  -7.637   9.179  1.00  0.00    -0.003 A 
ATOM     18  C   UNL     1     -12.247  -7.213  10.466  1.00  0.00    -0.041 A 
ATOM     19  C   UNL     1     -12.449  -8.830   8.717  1.00  0.00     0.119 A 
ATOM     20  C   UNL     1     -13.167  -7.986  11.190  1.00  0.00     0.024 A 
ATOM     21  N   UNL     1     -13.350  -9.579   9.395  1.00  0.00    -0.264 NA
ATOM     22  C   UNL     1     -13.690  -9.135  10.618  1.00  0.00     0.111 A 
ATOM     23  C   UNL     1     -11.669  -5.983  11.107  1.00  0.00     0.045 C 
ENDBRANCH  16  17
ENDBRANCH  15  16
ENDBRANCH  13  15
ENDBRANCH   4  13
TORSDOF 8
ENDMDL
MODEL 3
REMARK VINA RESULT:    -4.872      1.922      3.688
REMARK INTER + INTRA:          -7.630
REMARK INTER:                  -6.824
REMARK INTRA:                  -0.806
REMARK UNBOUND:                -0.622
REMARK SMILES Cc1ccncc1/C=C/Nc1ccc(CCCN)cc1
REMARK SMILES IDX 14 1 13 2 12 3 11 4 20 5 19 6 15 7 16 8 17 9 18 10 10 13
REMARK SMILES IDX 9 15 8 16 7 17 2 18 6 19 3 20 5 21 4 22 1 23
REMARK H PARENT 18 11 18 12 10 14
ROOT
ATOM      1  C   UNL     1     -10.921  -6.337   6.001  1.00  0.00    -0.048 A 
ATOM      2  C   UNL     1      -9.582  -5.971   5.849  1.00  0.00     0.006 A 
ATOM      3  C   UNL     1      -9.219  -4.955   4.969  1.00  0.00     0.026 A 
ATOM      4  C   UNL     1     -10.160  -4.322   4.154  1.00  0.00     0.038 A 
ATOM      5  C   UNL     1     -11.495  -4.728   4.264  1.00  0.00     0.026 A 
ATOM      6  C   UNL     1     -11.872  -5.725   5.176  1.00  0.00     0.006 A 
ENDROOT
BRANCH   1   7
ATOM      7  C   UNL     1     -11.338  -7.365   7.023  1.00  0.00     0.037 C 
BRANCH   7   8
ATOM      8  C   UNL     1     -11.001  -7.053   8.494  1.00  0.00     0.020 C 
BRANCH   8   9
ATOM      9  C   UNL     1     -11.803  -7.831   9.548  1.00  0.00     0.078 C 
BRANCH   9  10
ATOM     10  N   UNL     1     -12.938  -7.115  10.111  1.00  0.00    -0.330 NA
ATOM     11  H   UNL     1     -12.631  -6.526  10.884  1.00  0.00     0.118 HD
ATOM     12  H   UNL     1     -13.604  -7.773  10.516  1.00  0.00     0.118 HD
ENDBRANCH   9  10
ENDBRANCH   8   9
ENDBRANCH   7   8
ENDBRANCH   1   7
BRANCH   4  13
ATOM     13  N   UNL     1      -9.784  -3.379   3.178  1.00  0.00    -0.362 N 
ATOM     14  H   UNL     1     -10.351  -3.342   2.340  1.00  0.00     0.166 HD
BRANCH  13  15
ATOM     15  C   UNL     1      -8.591  -2.707   3.158  1.00  0.00     0.083 C 
BRANCH  15  16
ATOM     16  C   UNL     1      -7.582  -2.801   2.281  1.00  0.00     0.027 C 
BRANCH  16  17
ATOM     17  C   UNL     1      -6.288  -3.382   2.669  1.00  0.00    -0.003 A 
ATOM     18  C   UNL     1      -6.042  -4.766   2.635  1.00  0.00    -0.041 A 
ATOM     19  C   UNL     1      -5.243  -2.568   3.131  1.00  0.00     0.119 A 
ATOM     20  C   UNL     1      -4.786  -5.238   3.045  1.00  0.00     0.024 A 
ATOM     21  N   UNL     1      -4.020  -3.005   3.514  1.00  0.00    -0.264 NA
ATOM     22  C   UNL     1      -3.820  -4.334   3.458  1.00  0.00     0.111 A 
ATOM     23  C   UNL     1      -7.088  -5.759   2.213  1.00  0.00     0.045 C 
ENDBRANCH  16  17
ENDBRANCH  15  16
ENDBRANCH  13  15
ENDBRANCH   4  13
TORSDOF 8
ENDMDL
MODEL 4
REMARK VINA RESULT:    -4.866      1.238      2.053
REMARK INTER + INTRA:          -7.621
REMARK INTER:                  -6.920
REMARK INTRA:                  -0.701
REMARK UNBOUND:                -0.622
REMARK SMILES Cc1ccncc1/C=C/Nc1ccc(CCCN)cc1
REMARK SMILES IDX 14 1 13 2 12 3 11 4 20 5 19 6 15 7 16 8 17 9 18 10 10 13
REMARK SMILES IDX 9 15 8 16 7 17 2 18 6 19 3 20 5 21 4 22 1 23
REMARK H PARENT 18 11 18 12 10 14
ROOT
ATOM      1  C   UNL     1     -11.707  -7.479   8.974  1.00  0.00    -0.048 A 
ATOM      2  C   UNL     1     -10.535  -6.728   8.859  1.00  0.00     0.006 A 
ATOM      3  C   UNL     1     -10.024  -6.394   7.608  1.00  0.00     0.026 A 
ATOM      4  C   UNL     1     -10.614  -6.858   6.430  1.00  0.00     0.038 A 
ATOM      5  C   UNL     1     -11.756  -7.659   6.544  1.00  0.00     0.026 A 
ATOM      6  C   UNL     1     -12.297  -7.966   7.802  1.00  0.00     0.006 A 
ENDROOT
BRANCH   1   7
ATOM      7  C   UNL     1     -12.325  -7.761  10.320  1.00  0.00     0.037 C 
BRANCH   7   8
ATOM      8  C   UNL     1     -12.464  -6.565  11.282  1.00  0.00     0.020 C 
BRANCH   8   9
ATOM      9  C   UNL     1     -13.858  -6.346  11.887  1.00  0.00     0.078 C 
BRANCH   9  10
ATOM     10  N   UNL     1     -14.777  -5.582  11.055  1.00  0.00    -0.330 NA
ATOM     11  H   UNL     1     -14.438  -5.554  10.095  1.00  0.00     0.118 HD
ATOM     12  H   UNL     1     -14.806  -4.610  11.363  1.00  0.00     0.118 HD
ENDBRANCH   9  10
ENDBRANCH   8   9
ENDBRANCH   7   8
ENDBRANCH   1   7
BRANCH   4  13
ATOM     13  N   UNL     1     -10.036  -6.625   5.167  1.00  0.00    -0.362 N 
ATOM     14  H   UNL     1      -9.215  -7.170   4.935  1.00  0.00     0.166 HD
BRANCH  13  15
ATOM     15  C   UNL     1     -10.334  -5.562   4.355  1.00  0.00     0.083 C 
BRANCH  15  16
ATOM     16  C   UNL     1      -9.725  -4.373   4.262  1.00  0.00     0.027 C 
BRANCH  16  17
ATOM     17  C   UNL     1      -8.328  -4.264   3.814  1.00  0.00    -0.003 A 
ATOM     18  C   UNL     1      -7.512  -3.170   4.148  1.00  0.00    -0.041 A 
ATOM     19  C   UNL     1      -7.759  -5.247   2.990  1.00  0.00     0.119 A 
ATOM     20  C   UNL     1      -6.197  -3.135   3.658  1.00  0.00     0.024 A 
ATOM     21  N   UNL     1      -6.488  -5.238   2.523  1.00  0.00    -0.264 NA
ATOM     22  C   UNL     1      -5.736  -4.179   2.873  1.00  0.00     0.111 A 
ATOM     23  C   UNL     1      -8.008  -2.019   4.978  1.00  0.00     0.045 C 
ENDBRANCH  16  17
ENDBRANCH  15  16
ENDBRANCH  13  15
ENDBRANCH   4  13
TORSDOF 8
ENDMDL
MODEL 5
REMARK VINA RESULT:    -4.865      2.000      8.472
REMARK INTER + INTRA:          -7.620
REMARK INTER:                  -7.055
REMARK INTRA:                  -0.565
REMARK UNBOUND:                -0.622
REMARK SMILES Cc1ccncc1/C=C/Nc1ccc(CCCN)cc1
REMARK SMILES IDX 14 1 13 2 12 3 11 4 20 5 19 6 15 7 16 8 17 9 18 10 10 13
REMARK SMILES IDX 9 15 8 16 7 17 2 18 6 19 3 20 5 21 4 22 1 23
REMARK H PARENT 18 11 18 12 10 14
ROOT
ATOM      1  C   UNL     1      -7.656  -3.946   3.090  1.00  0.00    -0.048 A 
ATOM      2  C   UNL     1      -8.083  -5.261   2.889  1.00  0.00     0.006 A 
ATOM      3  C   UNL     1      -9.236  -5.735   3.508  1.00  0.00     0.026 A 
ATOM      4  C   UNL     1      -9.961  -4.950   4.407  1.00  0.00     0.038 A 
ATOM      5  C   UNL     1      -9.502  -3.650   4.653  1.00  0.00     0.026 A 
ATOM      6  C   UNL     1      -8.362  -3.153   4.003  1.00  0.00     0.006 A 
ENDROOT
BRANCH   1   7
ATOM      7  C   UNL     1      -6.467  -3.390   2.348  1.00  0.00     0.037 C 
BRANCH   7   8
ATOM      8  C   UNL     1      -5.136  -3.325   3.122  1.00  0.00     0.020 C 
BRANCH   8   9
ATOM      9  C   UNL     1      -4.543  -4.673   3.557  1.00  0.00     0.078 C 
BRANCH   9  10
ATOM     10  N   UNL     1      -3.708  -5.328   2.560  1.00  0.00    -0.330 NA
ATOM     11  H   UNL     1      -2.902  -5.760   3.010  1.00  0.00     0.118 HD
ATOM     12  H   UNL     1      -3.324  -4.638   1.915  1.00  0.00     0.118 HD
ENDBRANCH   9  10
ENDBRANCH   8   9
ENDBRANCH   7   8
ENDBRANCH   1   7
BRANCH   4  13
ATOM     13  N   UNL     1     -11.058  -5.461   5.126  1.00  0.00    -0.362 N 
ATOM     14  H   UNL     1     -11.979  -5.218   4.784  1.00  0.00     0.166 HD
BRANCH  13  15
ATOM     15  C   UNL     1     -10.981  -6.031   6.370  1.00  0.00     0.083 C 
BRANCH  15  16
ATOM     16  C   UNL     1     -11.127  -7.315   6.722  1.00  0.00     0.027 C 
BRANCH  16  17
ATOM     17  C   UNL     1     -11.693  -7.687   8.028  1.00  0.00    -0.003 A 
ATOM     18  C   UNL     1     -12.908  -8.384   8.151  1.00  0.00    -0.041 A 
ATOM     19  C   UNL     1     -11.052  -7.322   9.221  1.00  0.00     0.119 A 
ATOM     20  C   UNL     1     -13.389  -8.678   9.436  1.00  0.00     0.024 A 
ATOM     21  N   UNL     1     -11.492  -7.612  10.467  1.00  0.00    -0.264 NA
ATOM     22  C   UNL     1     -12.652  -8.289  10.544  1.00  0.00     0.111 A 
ATOM     23  C   UNL     1     -13.728  -8.790   6.959  1.00  0.00     0.045 C 
ENDBRANCH  16  17
ENDBRANCH  15  16
ENDBRANCH  13  15
ENDBRANCH   4  13
TORSDOF 8
ENDMDL
MODEL 6
REMARK VINA RESULT:    -4.828      3.429      9.194
REMARK INTER + INTRA:          -7.566
REMARK INTER:                  -6.696
REMARK INTRA:                  -0.870
REMARK UNBOUND:                -0.622
REMARK SMILES Cc1ccncc1/C=C/Nc1ccc(CCCN)cc1
REMARK SMILES IDX 14 1 13 2 12 3 11 4 20 5 19 6 15 7 16 8 17 9 18 10 10 13
REMARK SMILES IDX 9 15 8 16 7 17 2 18 6 19 3 20 5 21 4 22 1 23
REMARK H PARENT 18 11 18 12 10 14
ROOT
ATOM      1  C   UNL     1     -11.082  -7.182   7.353  1.00  0.00    -0.048 A 
ATOM      2  C   UNL     1     -12.136  -8.095   7.278  1.00  0.00     0.006 A 
ATOM      3  C   UNL     1     -12.819  -8.488   8.426  1.00  0.00     0.026 A 
ATOM      4  C   UNL     1     -12.430  -8.051   9.695  1.00  0.00     0.038 A 
ATOM      5  C   UNL     1     -11.336  -7.180   9.777  1.00  0.00     0.026 A 
ATOM      6  C   UNL     1     -10.669  -6.751   8.620  1.00  0.00     0.006 A 
ENDROOT
BRANCH   1   7
ATOM      7  C   UNL     1     -10.401  -6.672   6.108  1.00  0.00     0.037 C 
BRANCH   7   8
ATOM      8  C   UNL     1     -10.797  -5.261   5.632  1.00  0.00     0.020 C 
BRANCH   8   9
ATOM      9  C   UNL     1     -11.766  -5.198   4.443  1.00  0.00     0.078 C 
BRANCH   9  10
ATOM     10  N   UNL     1     -13.120  -5.650   4.729  1.00  0.00    -0.330 NA
ATOM     11  H   UNL     1     -13.095  -6.562   5.182  1.00  0.00     0.118 HD
ATOM     12  H   UNL     1     -13.635  -5.791   3.859  1.00  0.00     0.118 HD
ENDBRANCH   9  10
ENDBRANCH   8   9
ENDBRANCH   7   8
ENDBRANCH   1   7
BRANCH   4  13
ATOM     13  N   UNL     1     -13.038  -8.536  10.868  1.00  0.00    -0.362 N 
ATOM     14  H   UNL     1     -13.944  -8.976  10.762  1.00  0.00     0.166 HD
BRANCH  13  15
ATOM     15  C   UNL     1     -12.632  -8.236  12.142  1.00  0.00     0.083 C 
BRANCH  15  16
ATOM     16  C   UNL     1     -12.508  -9.045  13.202  1.00  0.00     0.027 C 
BRANCH  16  17
ATOM     17  C   UNL     1     -12.056 -10.436  13.050  1.00  0.00    -0.003 A 
ATOM     18  C   UNL     1     -12.953 -11.511  12.920  1.00  0.00    -0.041 A 
ATOM     19  C   UNL     1     -10.690 -10.755  13.067  1.00  0.00     0.119 A 
ATOM     20  C   UNL     1     -12.437 -12.810  12.804  1.00  0.00     0.024 A 
ATOM     21  N   UNL     1     -10.174 -12.000  12.938  1.00  0.00    -0.264 NA
ATOM     22  C   UNL     1     -11.064 -13.000  12.806  1.00  0.00     0.111 A 
ATOM     23  C   UNL     1     -14.444 -11.321  12.941  1.00  0.00     0.045 C 
ENDBRANCH  16  17
ENDBRANCH  15  16
ENDBRANCH  13  15
ENDBRANCH   4  13
TORSDOF 8
ENDMDL
MODEL 7
REMARK VINA RESULT:    -4.743      1.748      8.362
REMARK INTER + INTRA:          -7.445
REMARK INTER:                  -6.846
REMARK INTRA:                  -0.599
REMARK UNBOUND:                -0.622
REMARK SMILES Cc1ccncc1/C=C/Nc1ccc(CCCN)cc1
REMARK SMILES IDX 14 1 13 2 12 3 11 4 20 5 19 6 15 7 16 8 17 9 18 10 10 13
REMARK SMILES IDX 9 15 8 16 7 17 2 18 6 19 3 20 5 21 4 22 1 23
REMARK H PARENT 18 11 18 12 10 14
ROOT
ATOM      1  C   UNL     1      -7.390  -3.012   3.869  1.00  0.00    -0.048 A 
ATOM      2  C   UNL     1      -8.447  -2.560   4.660  1.00  0.00     0.006 A 
ATOM      3  C   UNL     1      -9.545  -3.377   4.915  1.00  0.00     0.026 A 
ATOM      4  C   UNL     1      -9.668  -4.641   4.331  1.00  0.00     0.038 A 
ATOM      5  C   UNL     1      -8.634  -5.073   3.491  1.00  0.00     0.026 A 
ATOM      6  C   UNL     1      -7.508  -4.269   3.262  1.00  0.00     0.006 A 
ENDROOT
BRANCH   1   7
ATOM      7  C   UNL     1      -6.151  -2.176   3.668  1.00  0.00     0.037 C 
BRANCH   7   8
ATOM      8  C   UNL     1      -6.089  -1.329   2.382  1.00  0.00     0.020 C 
BRANCH   8   9
ATOM      9  C   UNL     1      -6.842   0.009   2.420  1.00  0.00     0.078 C 
BRANCH   9  10
ATOM     10  N   UNL     1      -6.408   0.930   3.461  1.00  0.00    -0.330 NA
ATOM     11  H   UNL     1      -7.112   0.982   4.196  1.00  0.00     0.118 HD
ATOM     12  H   UNL     1      -6.336   1.876   3.085  1.00  0.00     0.118 HD
ENDBRANCH   9  10
ENDBRANCH   8   9
ENDBRANCH   7   8
ENDBRANCH   1   7
BRANCH   4  13
ATOM     13  N   UNL     1     -10.827  -5.424   4.488  1.00  0.00    -0.362 N 
ATOM     14  H   UNL     1     -11.465  -5.453   3.702  1.00  0.00     0.166 HD
BRANCH  13  15
ATOM     15  C   UNL     1     -11.277  -5.926   5.680  1.00  0.00     0.083 C 
BRANCH  15  16
ATOM     16  C   UNL     1     -11.100  -7.146   6.205  1.00  0.00     0.027 C 
BRANCH  16  17
ATOM     17  C   UNL     1     -11.493  -7.444   7.590  1.00  0.00    -0.003 A 
ATOM     18  C   UNL     1     -12.652  -8.175   7.904  1.00  0.00    -0.041 A 
ATOM     19  C   UNL     1     -10.735  -6.969   8.671  1.00  0.00     0.119 A 
ATOM     20  C   UNL     1     -12.966  -8.394   9.254  1.00  0.00     0.024 A 
ATOM     21  N   UNL     1     -11.014  -7.186   9.978  1.00  0.00    -0.264 NA
ATOM     22  C   UNL     1     -12.125  -7.898  10.238  1.00  0.00     0.111 A 
ATOM     23  C   UNL     1     -13.585  -8.698   6.848  1.00  0.00     0.045 C 
ENDBRANCH  16  17
ENDBRANCH  15  16
ENDBRANCH  13  15
ENDBRANCH   4  13
TORSDOF 8
ENDMDL
MODEL 8
REMARK VINA RESULT:    -4.586      2.086      8.693
REMARK INTER + INTRA:          -7.219
REMARK INTER:                  -6.555
REMARK INTRA:                  -0.664
REMARK UNBOUND:                -0.622
REMARK SMILES Cc1ccncc1/C=C/Nc1ccc(CCCN)cc1
REMARK SMILES IDX 14 1 13 2 12 3 11 4 20 5 19 6 15 7 16 8 17 9 18 10 10 13
REMARK SMILES IDX 9 15 8 16 7 17 2 18 6 19 3 20 5 21 4 22 1 23
REMARK H PARENT 18 11 18 12 10 14
ROOT
ATOM      1  C   UNL     1      -7.587  -4.064   3.051  1.00  0.00    -0.048 A 
ATOM      2  C   UNL     1      -8.262  -3.279   3.989  1.00  0.00     0.006 A 
ATOM      3  C   UNL     1      -9.282  -3.821   4.766  1.00  0.00     0.026 A 
ATOM      4  C   UNL     1      -9.721  -5.134   4.585  1.00  0.00     0.038 A 
ATOM      5  C   UNL     1      -9.084  -5.905   3.605  1.00  0.00     0.026 A 
ATOM      6  C   UNL     1      -8.029  -5.376   2.846  1.00  0.00     0.006 A 
ENDROOT
BRANCH   1   7
ATOM      7  C   UNL     1      -6.414  -3.518   2.276  1.00  0.00     0.037 C 
BRANCH   7   8
ATOM      8  C   UNL     1      -5.136  -3.212   3.081  1.00  0.00     0.020 C 
BRANCH   8   9
ATOM      9  C   UNL     1      -4.344  -4.431   3.577  1.00  0.00     0.078 C 
BRANCH   9  10
ATOM     10  N   UNL     1      -3.807  -5.284   2.527  1.00  0.00    -0.330 NA
ATOM     11  H   UNL     1      -3.926  -4.837   1.619  1.00  0.00     0.118 HD
ATOM     12  H   UNL     1      -4.337  -6.154   2.475  1.00  0.00     0.118 HD
ENDBRANCH   9  10
ENDBRANCH   8   9
ENDBRANCH   7   8
ENDBRANCH   1   7
BRANCH   4  13
ATOM     13  N   UNL     1     -10.830  -5.651   5.282  1.00  0.00    -0.362 N 
ATOM     14  H   UNL     1     -11.599  -5.014   5.449  1.00  0.00     0.166 HD
BRANCH  13  15
ATOM     15  C   UNL     1     -10.843  -6.841   5.961  1.00  0.00     0.083 C 
BRANCH  15  16
ATOM     16  C   UNL     1     -11.043  -7.067   7.266  1.00  0.00     0.027 C 
BRANCH  16  17
ATOM     17  C   UNL     1     -12.200  -7.845   7.736  1.00  0.00    -0.003 A 
ATOM     18  C   UNL     1     -12.383  -8.182   9.089  1.00  0.00    -0.041 A 
ATOM     19  C   UNL     1     -13.162  -8.320   6.832  1.00  0.00     0.119 A 
ATOM     20  C   UNL     1     -13.503  -8.947   9.447  1.00  0.00     0.024 A 
ATOM     21  N   UNL     1     -14.257  -9.044   7.163  1.00  0.00    -0.264 NA
ATOM     22  C   UNL     1     -14.402  -9.338   8.467  1.00  0.00     0.111 A 
ATOM     23  C   UNL     1     -11.402  -7.785  10.156  1.00  0.00     0.045 C 
ENDBRANCH  16  17
ENDBRANCH  15  16
ENDBRANCH  13  15
ENDBRANCH   4  13
TORSDOF 8
ENDMDL
MODEL 9
REMARK VINA RESULT:    -4.505      2.600      3.286
REMARK INTER + INTRA:          -7.103
REMARK INTER:                  -6.502
REMARK INTRA:                  -0.600
REMARK UNBOUND:                -0.622
REMARK SMILES Cc1ccncc1/C=C/Nc1ccc(CCCN)cc1
REMARK SMILES IDX 14 1 13 2 12 3 11 4 20 5 19 6 15 7 16 8 17 9 18 10 10 13
REMARK SMILES IDX 9 15 8 16 7 17 2 18 6 19 3 20 5 21 4 22 1 23
REMARK H PARENT 18 11 18 12 10 14
ROOT
ATOM      1  C   UNL     1     -11.441  -7.028   6.846  1.00  0.00    -0.048 A 
ATOM      2  C   UNL     1     -11.978  -6.291   5.788  1.00  0.00     0.006 A 
ATOM      3  C   UNL     1     -11.147  -5.655   4.871  1.00  0.00     0.026 A 
ATOM      4  C   UNL     1      -9.757  -5.663   5.014  1.00  0.00     0.038 A 
ATOM      5  C   UNL     1      -9.219  -6.354   6.106  1.00  0.00     0.026 A 
ATOM      6  C   UNL     1     -10.050  -7.029   7.013  1.00  0.00     0.006 A 
ENDROOT
BRANCH   1   7
ATOM      7  C   UNL     1     -12.328  -7.803   7.787  1.00  0.00     0.037 C 
BRANCH   7   8
ATOM      8  C   UNL     1     -13.190  -8.918   7.164  1.00  0.00     0.020 C 
BRANCH   8   9
ATOM      9  C   UNL     1     -14.664  -8.568   6.910  1.00  0.00     0.078 C 
BRANCH   9  10
ATOM     10  N   UNL     1     -15.254  -9.200   5.739  1.00  0.00    -0.330 NA
ATOM     11  H   UNL     1     -15.709  -8.498   5.156  1.00  0.00     0.118 HD
ATOM     12  H   UNL     1     -15.994  -9.843   6.021  1.00  0.00     0.118 HD
ENDBRANCH   9  10
ENDBRANCH   8   9
ENDBRANCH   7   8
ENDBRANCH   1   7
BRANCH   4  13
ATOM     13  N   UNL     1      -8.916  -4.924   4.159  1.00  0.00    -0.362 N 
ATOM     14  H   UNL     1      -8.836  -3.933   4.347  1.00  0.00     0.166 HD
BRANCH  13  15
ATOM     15  C   UNL     1      -8.416  -5.380   2.968  1.00  0.00     0.083 C 
BRANCH  15  16
ATOM     16  C   UNL     1      -7.242  -5.107   2.384  1.00  0.00     0.027 C 
BRANCH  16  17
ATOM     17  C   UNL     1      -6.670  -3.752   2.421  1.00  0.00    -0.003 A 
ATOM     18  C   UNL     1      -5.390  -3.489   2.939  1.00  0.00    -0.041 A 
ATOM     19  C   UNL     1      -7.406  -2.647   1.968  1.00  0.00     0.119 A 
ATOM     20  C   UNL     1      -4.930  -2.163   2.958  1.00  0.00     0.024 A 
ATOM     21  N   UNL     1      -6.972  -1.365   1.963  1.00  0.00    -0.264 NA
ATOM     22  C   UNL     1      -5.739  -1.155   2.457  1.00  0.00     0.111 A 
ATOM     23  C   UNL     1      -4.513  -4.569   3.507  1.00  0.00     0.045 C 
ENDBRANCH  16  17
ENDBRANCH  15  16
ENDBRANCH  13  15
ENDBRANCH   4  13
TORSDOF 8
ENDMDL
