MODEL 1
REMARK VINA RESULT:    -5.060      0.000      0.000
REMARK INTER + INTRA:          -8.027
REMARK INTER:                  -7.279
REMARK INTRA:                  -0.748
REMARK UNBOUND:                -0.748
REMARK SMILES Cc1ccncc1/C=C/Nc1ccc(CCCN)cc1
REMARK SMILES IDX 14 1 13 2 12 3 11 4 20 5 19 6 15 7 16 8 17 9 18 10 10 13
REMARK SMILES IDX 9 15 8 16 7 17 2 18 6 19 3 20 5 21 4 22 1 23
REMARK H PARENT 18 11 18 12 10 14
ROOT
ATOM      1  C   UNL     1      -8.759   5.132  11.389  1.00  0.00    -0.048 A 
ATOM      2  C   UNL     1      -8.914   3.863  11.951  1.00  0.00     0.006 A 
ATOM      3  C   UNL     1      -8.247   2.764  11.418  1.00  0.00     0.026 A 
ATOM      4  C   UNL     1      -7.467   2.871  10.264  1.00  0.00     0.038 A 
ATOM      5  C   UNL     1      -7.357   4.132   9.666  1.00  0.00     0.026 A 
ATOM      6  C   UNL     1      -7.996   5.251  10.222  1.00  0.00     0.006 A 
ENDROOT
BRANCH   1   7
ATOM      7  C   UNL     1      -9.395   6.347  12.018  1.00  0.00     0.037 C 
BRANCH   7   8
ATOM      8  C   UNL     1      -9.914   7.433  11.055  1.00  0.00     0.020 C 
BRANCH   8   9
ATOM      9  C   UNL     1     -11.402   7.347  10.683  1.00  0.00     0.078 C 
BRANCH   9  10
ATOM     10  N   UNL     1     -11.732   6.325   9.700  1.00  0.00    -0.330 NA
ATOM     11  H   UNL     1     -11.048   5.571   9.737  1.00  0.00     0.118 HD
ATOM     12  H   UNL     1     -11.664   6.709   8.757  1.00  0.00     0.118 HD
ENDBRANCH   9  10
ENDBRANCH   8   9
ENDBRANCH   7   8
ENDBRANCH   1   7
BRANCH   4  13
ATOM     13  N   UNL     1      -6.887   1.743   9.651  1.00  0.00    -0.362 N 
ATOM     14  H   UNL     1      -5.924   1.542   9.889  1.00  0.00     0.166 HD
BRANCH  13  15
ATOM     15  C   UNL     1      -7.425   1.067   8.588  1.00  0.00     0.083 C 
BRANCH  15  16
ATOM     16  C   UNL     1      -6.842   0.189   7.762  1.00  0.00     0.027 C 
BRANCH  16  17
ATOM     17  C   UNL     1      -6.473   0.563   6.388  1.00  0.00    -0.003 A 
ATOM     18  C   UNL     1      -5.200   0.303   5.852  1.00  0.00    -0.041 A 
ATOM     19  C   UNL     1      -7.380   1.239   5.558  1.00  0.00     0.119 A 
ATOM     20  C   UNL     1      -4.924   0.716   4.539  1.00  0.00     0.024 A 
ATOM     21  N   UNL     1      -7.137   1.628   4.285  1.00  0.00    -0.264 NA
ATOM     22  C   UNL     1      -5.912   1.353   3.805  1.00  0.00     0.111 A 
ATOM     23  C   UNL     1      -4.113  -0.365   6.646  1.00  0.00     0.045 C 
ENDBRANCH  16  17
ENDBRANCH  15  16
ENDBRANCH  13  15
ENDBRANCH   4  13
TORSDOF 8
ENDMDL
MODEL 2
REMARK VINA RESULT:    -4.964      4.984      7.045
REMARK INTER + INTRA:          -7.889
REMARK INTER:                  -7.227
REMARK INTRA:                  -0.662
REMARK UNBOUND:                -0.748
REMARK SMILES Cc1ccncc1/C=C/Nc1ccc(CCCN)cc1
REMARK SMILES IDX 14 1 13 2 12 3 11 4 20 5 19 6 15 7 16 8 17 9 18 10 10 13
REMARK SMILES IDX 9 15 8 16 7 17 2 18 6 19 3 20 5 21 4 22 1 23
REMARK H PARENT 18 11 18 12 10 14
ROOT
ATOM      1  C   UNL     1     -11.544  -3.174   9.384  1.00  0.00    -0.048 A 
ATOM      2  C   UNL     1     -11.932  -1.842   9.221  1.00  0.00     0.006 A 
ATOM      3  C   UNL     1     -11.211  -0.989   8.392  1.00  0.00     0.026 A 
ATOM      4  C   UNL     1     -10.038  -1.403   7.756  1.00  0.00     0.038 A 
ATOM      5  C   UNL     1      -9.616  -2.722   7.964  1.00  0.00     0.026 A 
ATOM      6  C   UNL     1     -10.360  -3.598   8.769  1.00  0.00     0.006 A 
ENDROOT
BRANCH   1   7
ATOM      7  C   UNL     1     -12.374  -4.134  10.199  1.00  0.00     0.037 C 
BRANCH   7   8
ATOM      8  C   UNL     1     -11.620  -5.294  10.879  1.00  0.00     0.020 C 
BRANCH   8   9
ATOM      9  C   UNL     1     -11.436  -5.178  12.399  1.00  0.00     0.078 C 
BRANCH   9  10
ATOM     10  N   UNL     1     -10.735  -3.982  12.844  1.00  0.00    -0.330 NA
ATOM     11  H   UNL     1      -9.729  -4.113  12.752  1.00  0.00     0.118 HD
ATOM     12  H   UNL     1     -10.901  -3.828  13.839  1.00  0.00     0.118 HD
ENDBRANCH   9  10
ENDBRANCH   8   9
ENDBRANCH   7   8
ENDBRANCH   1   7
BRANCH   4  13
ATOM     13  N   UNL     1      -9.240  -0.513   7.012  1.00  0.00    -0.362 N 
ATOM     14  H   UNL     1      -9.548  -0.305   6.071  1.00  0.00     0.166 HD
BRANCH  13  15
ATOM     15  C   UNL     1      -7.974  -0.121   7.359  1.00  0.00     0.083 C 
BRANCH  15  16
ATOM     16  C   UNL     1      -7.117   0.660   6.688  1.00  0.00     0.027 C 
BRANCH  16  17
ATOM     17  C   UNL     1      -5.707   0.276   6.520  1.00  0.00    -0.003 A 
ATOM     18  C   UNL     1      -4.998   0.511   5.329  1.00  0.00    -0.041 A 
ATOM     19  C   UNL     1      -5.015  -0.385   7.546  1.00  0.00     0.119 A 
ATOM     20  C   UNL     1      -3.662   0.090   5.246  1.00  0.00     0.024 A 
ATOM     21  N   UNL     1      -3.722  -0.781   7.489  1.00  0.00    -0.264 NA
ATOM     22  C   UNL     1      -3.075  -0.530   6.337  1.00  0.00     0.111 A 
ATOM     23  C   UNL     1      -5.631   1.161   4.131  1.00  0.00     0.045 C 
ENDBRANCH  16  17
ENDBRANCH  15  16
ENDBRANCH  13  15
ENDBRANCH   4  13
TORSDOF 8
ENDMDL
MODEL 3
REMARK VINA RESULT:    -4.958      1.802      8.355
REMARK INTER + INTRA:          -7.879
REMARK INTER:                  -7.273
REMARK INTRA:                  -0.606
REMARK UNBOUND:                -0.748
REMARK SMILES Cc1ccncc1/C=C/Nc1ccc(CCCN)cc1
REMARK SMILES IDX 14 1 13 2 12 3 11 4 20 5 19 6 15 7 16 8 17 9 18 10 10 13
REMARK SMILES IDX 9 15 8 16 7 17 2 18 6 19 3 20 5 21 4 22 1 23
REMARK H PARENT 18 11 18 12 10 14
ROOT
ATOM      1  C   UNL     1      -5.677  -0.002   6.157  1.00  0.00    -0.048 A 
ATOM      2  C   UNL     1      -5.274  -0.182   7.481  1.00  0.00     0.006 A 
ATOM      3  C   UNL     1      -6.032   0.329   8.530  1.00  0.00     0.026 A 
ATOM      4  C   UNL     1      -7.174   1.101   8.300  1.00  0.00     0.038 A 
ATOM      5  C   UNL     1      -7.548   1.330   6.971  1.00  0.00     0.026 A 
ATOM      6  C   UNL     1      -6.808   0.786   5.910  1.00  0.00     0.006 A 
ENDROOT
BRANCH   1   7
ATOM      7  C   UNL     1      -4.919  -0.635   5.017  1.00  0.00     0.037 C 
BRANCH   7   8
ATOM      8  C   UNL     1      -4.998   0.077   3.653  1.00  0.00     0.020 C 
BRANCH   8   9
ATOM      9  C   UNL     1      -4.865  -0.822   2.415  1.00  0.00     0.078 C 
BRANCH   9  10
ATOM     10  N   UNL     1      -4.678  -0.113   1.157  1.00  0.00    -0.330 NA
ATOM     11  H   UNL     1      -4.724   0.893   1.313  1.00  0.00     0.118 HD
ATOM     12  H   UNL     1      -5.444  -0.326   0.517  1.00  0.00     0.118 HD
ENDBRANCH   9  10
ENDBRANCH   8   9
ENDBRANCH   7   8
ENDBRANCH   1   7
BRANCH   4  13
ATOM     13  N   UNL     1      -7.878   1.720   9.351  1.00  0.00    -0.362 N 
ATOM     14  H   UNL     1      -8.861   1.493   9.434  1.00  0.00     0.166 HD
BRANCH  13  15
ATOM     15  C   UNL     1      -7.413   2.775  10.090  1.00  0.00     0.083 C 
BRANCH  15  16
ATOM     16  C   UNL     1      -7.696   4.079   9.975  1.00  0.00     0.027 C 
BRANCH  16  17
ATOM     17  C   UNL     1      -8.510   4.774  10.984  1.00  0.00    -0.003 A 
ATOM     18  C   UNL     1      -9.185   5.976  10.710  1.00  0.00    -0.041 A 
ATOM     19  C   UNL     1      -8.614   4.276  12.292  1.00  0.00     0.119 A 
ATOM     20  C   UNL     1      -9.920   6.586  11.739  1.00  0.00     0.024 A 
ATOM     21  N   UNL     1      -9.332   4.842  13.290  1.00  0.00    -0.264 NA
ATOM     22  C   UNL     1      -9.972   5.985  12.986  1.00  0.00     0.111 A 
ATOM     23  C   UNL     1      -9.118   6.650   9.369  1.00  0.00     0.045 C 
ENDBRANCH  16  17
ENDBRANCH  15  16
ENDBRANCH  13  15
ENDBRANCH   4  13
TORSDOF 8
ENDMDL
MODEL 4
REMARK VINA RESULT:    -4.889      1.338      2.040
REMARK INTER + INTRA:          -7.781
REMARK INTER:                  -7.161
REMARK INTRA:                  -0.620
REMARK UNBOUND:                -0.748
REMARK SMILES Cc1ccncc1/C=C/Nc1ccc(CCCN)cc1
REMARK SMILES IDX 14 1 13 2 12 3 11 4 20 5 19 6 15 7 16 8 17 9 18 10 10 13
REMARK SMILES IDX 9 15 8 16 7 17 2 18 6 19 3 20 5 21 4 22 1 23
REMARK H PARENT 18 11 18 12 10 14
ROOT
ATOM      1  C   UNL     1      -8.627   5.039  11.162  1.00  0.00    -0.048 A 
ATOM      2  C   UNL     1      -8.803   3.790  11.761  1.00  0.00     0.006 A 
ATOM      3  C   UNL     1      -8.158   2.664  11.258  1.00  0.00     0.026 A 
ATOM      4  C   UNL     1      -7.379   2.723  10.100  1.00  0.00     0.038 A 
ATOM      5  C   UNL     1      -7.247   3.964   9.466  1.00  0.00     0.026 A 
ATOM      6  C   UNL     1      -7.864   5.110   9.991  1.00  0.00     0.006 A 
ENDROOT
BRANCH   1   7
ATOM      7  C   UNL     1      -9.238   6.283  11.757  1.00  0.00     0.037 C 
BRANCH   7   8
ATOM      8  C   UNL     1      -9.886   7.275  10.771  1.00  0.00     0.020 C 
BRANCH   8   9
ATOM      9  C   UNL     1     -11.418   7.230  10.679  1.00  0.00     0.078 C 
BRANCH   9  10
ATOM     10  N   UNL     1     -11.950   6.236   9.758  1.00  0.00    -0.330 NA
ATOM     11  H   UNL     1     -11.191   5.808   9.229  1.00  0.00     0.118 HD
ATOM     12  H   UNL     1     -12.548   6.685   9.063  1.00  0.00     0.118 HD
ENDBRANCH   9  10
ENDBRANCH   8   9
ENDBRANCH   7   8
ENDBRANCH   1   7
BRANCH   4  13
ATOM     13  N   UNL     1      -6.821   1.568   9.519  1.00  0.00    -0.362 N 
ATOM     14  H   UNL     1      -5.871   1.340   9.782  1.00  0.00     0.166 HD
BRANCH  13  15
ATOM     15  C   UNL     1      -7.356   0.891   8.454  1.00  0.00     0.083 C 
BRANCH  15  16
ATOM     16  C   UNL     1      -6.880   0.764   7.208  1.00  0.00     0.027 C 
BRANCH  16  17
ATOM     17  C   UNL     1      -5.539   0.216   6.957  1.00  0.00    -0.003 A 
ATOM     18  C   UNL     1      -4.899   0.330   5.710  1.00  0.00    -0.041 A 
ATOM     19  C   UNL     1      -4.849  -0.485   7.957  1.00  0.00     0.119 A 
ATOM     20  C   UNL     1      -3.629  -0.243   5.549  1.00  0.00     0.024 A 
ATOM     21  N   UNL     1      -3.616  -1.028   7.825  1.00  0.00    -0.264 NA
ATOM     22  C   UNL     1      -3.033  -0.890   6.620  1.00  0.00     0.111 A 
ATOM     23  C   UNL     1      -5.544   1.008   4.534  1.00  0.00     0.045 C 
ENDBRANCH  16  17
ENDBRANCH  15  16
ENDBRANCH  13  15
ENDBRANCH   4  13
TORSDOF 8
ENDMDL
MODEL 5
REMARK VINA RESULT:    -4.823      2.254      8.352
REMARK INTER + INTRA:          -7.685
REMARK INTER:                  -7.239
REMARK INTRA:                  -0.447
REMARK UNBOUND:                -0.748
REMARK SMILES Cc1ccncc1/C=C/Nc1ccc(CCCN)cc1
REMARK SMILES IDX 14 1 13 2 12 3 11 4 20 5 19 6 15 7 16 8 17 9 18 10 10 13
REMARK SMILES IDX 9 15 8 16 7 17 2 18 6 19 3 20 5 21 4 22 1 23
REMARK H PARENT 18 11 18 12 10 14
ROOT
ATOM      1  C   UNL     1      -4.445  -0.344   5.855  1.00  0.00    -0.048 A 
ATOM      2  C   UNL     1      -4.389  -0.559   7.233  1.00  0.00     0.006 A 
ATOM      3  C   UNL     1      -5.427  -0.139   8.060  1.00  0.00     0.026 A 
ATOM      4  C   UNL     1      -6.517   0.577   7.560  1.00  0.00     0.038 A 
ATOM      5  C   UNL     1      -6.547   0.843   6.186  1.00  0.00     0.026 A 
ATOM      6  C   UNL     1      -5.522   0.389   5.342  1.00  0.00     0.006 A 
ENDROOT
BRANCH   1   7
ATOM      7  C   UNL     1      -3.376  -0.883   4.937  1.00  0.00     0.037 C 
BRANCH   7   8
ATOM      8  C   UNL     1      -2.211   0.068   4.598  1.00  0.00     0.020 C 
BRANCH   8   9
ATOM      9  C   UNL     1      -1.464   0.670   5.797  1.00  0.00     0.078 C 
BRANCH   9  10
ATOM     10  N   UNL     1      -0.278  -0.063   6.215  1.00  0.00    -0.330 NA
ATOM     11  H   UNL     1       0.056  -0.650   5.451  1.00  0.00     0.118 HD
ATOM     12  H   UNL     1      -0.510  -0.706   6.972  1.00  0.00     0.118 HD
ENDBRANCH   9  10
ENDBRANCH   8   9
ENDBRANCH   7   8
ENDBRANCH   1   7
BRANCH   4  13
ATOM     13  N   UNL     1      -7.510   1.107   8.406  1.00  0.00    -0.362 N 
ATOM     14  H   UNL     1      -8.428   0.685   8.349  1.00  0.00     0.166 HD
BRANCH  13  15
ATOM     15  C   UNL     1      -7.404   2.288   9.093  1.00  0.00     0.083 C 
BRANCH  15  16
ATOM     16  C   UNL     1      -7.452   2.505  10.414  1.00  0.00     0.027 C 
BRANCH  16  17
ATOM     17  C   UNL     1      -8.138   3.683  10.967  1.00  0.00    -0.003 A 
ATOM     18  C   UNL     1      -9.150   3.579  11.938  1.00  0.00    -0.041 A 
ATOM     19  C   UNL     1      -7.830   4.974  10.514  1.00  0.00     0.119 A 
ATOM     20  C   UNL     1      -9.769   4.752  12.394  1.00  0.00     0.024 A 
ATOM     21  N   UNL     1      -8.404   6.117  10.956  1.00  0.00    -0.264 NA
ATOM     22  C   UNL     1      -9.361   5.977  11.891  1.00  0.00     0.111 A 
ATOM     23  C   UNL     1      -9.618   2.255  12.473  1.00  0.00     0.045 C 
ENDBRANCH  16  17
ENDBRANCH  15  16
ENDBRANCH  13  15
ENDBRANCH   4  13
TORSDOF 8
ENDMDL
MODEL 6
REMARK VINA RESULT:    -4.738      1.763      8.341
REMARK INTER + INTRA:          -7.563
REMARK INTER:                  -7.149
REMARK INTRA:                  -0.414
REMARK UNBOUND:                -0.748
REMARK SMILES Cc1ccncc1/C=C/Nc1ccc(CCCN)cc1
REMARK SMILES IDX 14 1 13 2 12 3 11 4 20 5 19 6 15 7 16 8 17 9 18 10 10 13
REMARK SMILES IDX 9 15 8 16 7 17 2 18 6 19 3 20 5 21 4 22 1 23
REMARK H PARENT 18 11 18 12 10 14
ROOT
ATOM      1  C   UNL     1      -4.543  -0.318   5.768  1.00  0.00    -0.048 A 
ATOM      2  C   UNL     1      -4.324  -0.560   7.125  1.00  0.00     0.006 A 
ATOM      3  C   UNL     1      -5.288  -0.222   8.071  1.00  0.00     0.026 A 
ATOM      4  C   UNL     1      -6.466   0.437   7.712  1.00  0.00     0.038 A 
ATOM      5  C   UNL     1      -6.661   0.731   6.358  1.00  0.00     0.026 A 
ATOM      6  C   UNL     1      -5.711   0.358   5.395  1.00  0.00     0.006 A 
ENDROOT
BRANCH   1   7
ATOM      7  C   UNL     1      -3.552  -0.771   4.725  1.00  0.00     0.037 C 
BRANCH   7   8
ATOM      8  C   UNL     1      -3.674  -0.130   3.329  1.00  0.00     0.020 C 
BRANCH   8   9
ATOM      9  C   UNL     1      -4.523  -0.899   2.306  1.00  0.00     0.078 C 
BRANCH   9  10
ATOM     10  N   UNL     1      -4.764  -0.196   1.054  1.00  0.00    -0.330 NA
ATOM     11  H   UNL     1      -4.672   0.809   1.195  1.00  0.00     0.118 HD
ATOM     12  H   UNL     1      -5.727  -0.342   0.749  1.00  0.00     0.118 HD
ENDBRANCH   9  10
ENDBRANCH   8   9
ENDBRANCH   7   8
ENDBRANCH   1   7
BRANCH   4  13
ATOM     13  N   UNL     1      -7.390   0.888   8.675  1.00  0.00    -0.362 N 
ATOM     14  H   UNL     1      -8.205   0.308   8.829  1.00  0.00     0.166 HD
BRANCH  13  15
ATOM     15  C   UNL     1      -7.403   2.146   9.217  1.00  0.00     0.083 C 
BRANCH  15  16
ATOM     16  C   UNL     1      -7.378   2.512  10.506  1.00  0.00     0.027 C 
BRANCH  16  17
ATOM     17  C   UNL     1      -8.095   3.709  10.972  1.00  0.00    -0.003 A 
ATOM     18  C   UNL     1      -9.131   3.647  11.920  1.00  0.00    -0.041 A 
ATOM     19  C   UNL     1      -7.792   4.977  10.451  1.00  0.00     0.119 A 
ATOM     20  C   UNL     1      -9.778   4.835  12.291  1.00  0.00     0.024 A 
ATOM     21  N   UNL     1      -8.393   6.135  10.811  1.00  0.00    -0.264 NA
ATOM     22  C   UNL     1      -9.373   6.035  11.728  1.00  0.00     0.111 A 
ATOM     23  C   UNL     1      -9.595   2.349  12.520  1.00  0.00     0.045 C 
ENDBRANCH  16  17
ENDBRANCH  15  16
ENDBRANCH  13  15
ENDBRANCH   4  13
TORSDOF 8
ENDMDL
MODEL 7
REMARK VINA RESULT:    -4.625      1.600      1.759
REMARK INTER + INTRA:          -7.402
REMARK INTER:                  -6.777
REMARK INTRA:                  -0.624
REMARK UNBOUND:                -0.748
REMARK SMILES Cc1ccncc1/C=C/Nc1ccc(CCCN)cc1
REMARK SMILES IDX 14 1 13 2 12 3 11 4 20 5 19 6 15 7 16 8 17 9 18 10 10 13
REMARK SMILES IDX 9 15 8 16 7 17 2 18 6 19 3 20 5 21 4 22 1 23
REMARK H PARENT 18 11 18 12 10 14
ROOT
ATOM      1  C   UNL     1      -8.942   5.097  11.541  1.00  0.00    -0.048 A 
ATOM      2  C   UNL     1      -9.030   3.803  12.058  1.00  0.00     0.006 A 
ATOM      3  C   UNL     1      -8.304   2.760  11.489  1.00  0.00     0.026 A 
ATOM      4  C   UNL     1      -7.529   2.948  10.342  1.00  0.00     0.038 A 
ATOM      5  C   UNL     1      -7.485   4.233   9.789  1.00  0.00     0.026 A 
ATOM      6  C   UNL     1      -8.184   5.297  10.381  1.00  0.00     0.006 A 
ENDROOT
BRANCH   1   7
ATOM      7  C   UNL     1      -9.643   6.254  12.209  1.00  0.00     0.037 C 
BRANCH   7   8
ATOM      8  C   UNL     1      -8.921   7.614  12.173  1.00  0.00     0.020 C 
BRANCH   8   9
ATOM      9  C   UNL     1      -8.494   8.186  13.532  1.00  0.00     0.078 C 
BRANCH   9  10
ATOM     10  N   UNL     1      -7.123   8.673  13.592  1.00  0.00    -0.330 NA
ATOM     11  H   UNL     1      -6.849   8.825  14.562  1.00  0.00     0.118 HD
ATOM     12  H   UNL     1      -7.054   9.586  13.143  1.00  0.00     0.118 HD
ENDBRANCH   9  10
ENDBRANCH   8   9
ENDBRANCH   7   8
ENDBRANCH   1   7
BRANCH   4  13
ATOM     13  N   UNL     1      -6.888   1.875   9.693  1.00  0.00    -0.362 N 
ATOM     14  H   UNL     1      -5.909   1.735   9.906  1.00  0.00     0.166 HD
BRANCH  13  15
ATOM     15  C   UNL     1      -7.403   1.186   8.627  1.00  0.00     0.083 C 
BRANCH  15  16
ATOM     16  C   UNL     1      -6.802   0.299   7.824  1.00  0.00     0.027 C 
BRANCH  16  17
ATOM     17  C   UNL     1      -6.476   0.632   6.429  1.00  0.00    -0.003 A 
ATOM     18  C   UNL     1      -5.227   0.337   5.855  1.00  0.00    -0.041 A 
ATOM     19  C   UNL     1      -7.401   1.303   5.614  1.00  0.00     0.119 A 
ATOM     20  C   UNL     1      -4.991   0.712   4.524  1.00  0.00     0.024 A 
ATOM     21  N   UNL     1      -7.197   1.656   4.324  1.00  0.00    -0.264 NA
ATOM     22  C   UNL     1      -5.993   1.348   3.808  1.00  0.00     0.111 A 
ATOM     23  C   UNL     1      -4.124  -0.330   6.628  1.00  0.00     0.045 C 
ENDBRANCH  16  17
ENDBRANCH  15  16
ENDBRANCH  13  15
ENDBRANCH   4  13
TORSDOF 8
ENDMDL
MODEL 8
REMARK VINA RESULT:    -4.623      3.049      9.128
REMARK INTER + INTRA:          -7.398
REMARK INTER:                  -6.630
REMARK INTRA:                  -0.768
REMARK UNBOUND:                -0.748
REMARK SMILES Cc1ccncc1/C=C/Nc1ccc(CCCN)cc1
REMARK SMILES IDX 14 1 13 2 12 3 11 4 20 5 19 6 15 7 16 8 17 9 18 10 10 13
REMARK SMILES IDX 9 15 8 16 7 17 2 18 6 19 3 20 5 21 4 22 1 23
REMARK H PARENT 18 11 18 12 10 14
ROOT
ATOM      1  C   UNL     1      -7.554   3.178  10.224  1.00  0.00    -0.048 A 
ATOM      2  C   UNL     1      -7.540   4.510   9.806  1.00  0.00     0.006 A 
ATOM      3  C   UNL     1      -8.202   5.492  10.537  1.00  0.00     0.026 A 
ATOM      4  C   UNL     1      -8.964   5.176  11.664  1.00  0.00     0.038 A 
ATOM      5  C   UNL     1      -9.026   3.832  12.053  1.00  0.00     0.026 A 
ATOM      6  C   UNL     1      -8.330   2.844  11.341  1.00  0.00     0.006 A 
ENDROOT
BRANCH   1   7
ATOM      7  C   UNL     1      -6.759   2.123   9.497  1.00  0.00     0.037 C 
BRANCH   7   8
ATOM      8  C   UNL     1      -7.541   1.208   8.535  1.00  0.00     0.020 C 
BRANCH   8   9
ATOM      9  C   UNL     1      -6.751   0.040   7.925  1.00  0.00     0.078 C 
BRANCH   9  10
ATOM     10  N   UNL     1      -5.504   0.414   7.274  1.00  0.00    -0.330 NA
ATOM     11  H   UNL     1      -5.697   0.984   6.451  1.00  0.00     0.118 HD
ATOM     12  H   UNL     1      -5.027  -0.417   6.924  1.00  0.00     0.118 HD
ENDBRANCH   9  10
ENDBRANCH   8   9
ENDBRANCH   7   8
ENDBRANCH   1   7
BRANCH   4  13
ATOM     13  N   UNL     1      -9.732   6.144  12.339  1.00  0.00    -0.362 N 
ATOM     14  H   UNL     1     -10.337   5.810  13.079  1.00  0.00     0.166 HD
BRANCH  13  15
ATOM     15  C   UNL     1      -9.916   7.433  11.913  1.00  0.00     0.083 C 
BRANCH  15  16
ATOM     16  C   UNL     1      -9.675   8.581  12.561  1.00  0.00     0.027 C 
BRANCH  16  17
ATOM     17  C   UNL     1      -8.799   8.619  13.742  1.00  0.00    -0.003 A 
ATOM     18  C   UNL     1      -9.298   8.530  15.054  1.00  0.00    -0.041 A 
ATOM     19  C   UNL     1      -7.413   8.787  13.605  1.00  0.00     0.119 A 
ATOM     20  C   UNL     1      -8.394   8.600  16.125  1.00  0.00     0.024 A 
ATOM     21  N   UNL     1      -6.526   8.839  14.626  1.00  0.00    -0.264 NA
ATOM     22  C   UNL     1      -7.040   8.740  15.865  1.00  0.00     0.111 A 
ATOM     23  C   UNL     1     -10.766   8.402  15.350  1.00  0.00     0.045 C 
ENDBRANCH  16  17
ENDBRANCH  15  16
ENDBRANCH  13  15
ENDBRANCH   4  13
TORSDOF 8
ENDMDL
MODEL 9
REMARK VINA RESULT:    -4.530      2.317      8.523
REMARK INTER + INTRA:          -7.264
REMARK INTER:                  -6.700
REMARK INTRA:                  -0.564
REMARK UNBOUND:                -0.748
REMARK SMILES Cc1ccncc1/C=C/Nc1ccc(CCCN)cc1
REMARK SMILES IDX 14 1 13 2 12 3 11 4 20 5 19 6 15 7 16 8 17 9 18 10 10 13
REMARK SMILES IDX 9 15 8 16 7 17 2 18 6 19 3 20 5 21 4 22 1 23
REMARK H PARENT 18 11 18 12 10 14
ROOT
ATOM      1  C   UNL     1      -4.716  -0.373   6.302  1.00  0.00    -0.048 A 
ATOM      2  C   UNL     1      -5.756   0.387   5.762  1.00  0.00     0.006 A 
ATOM      3  C   UNL     1      -6.685   1.009   6.591  1.00  0.00     0.026 A 
ATOM      4  C   UNL     1      -6.662   0.834   7.977  1.00  0.00     0.038 A 
ATOM      5  C   UNL     1      -5.654   0.025   8.515  1.00  0.00     0.026 A 
ATOM      6  C   UNL     1      -4.691  -0.572   7.687  1.00  0.00     0.006 A 
ENDROOT
BRANCH   1   7
ATOM      7  C   UNL     1      -3.645  -0.967   5.421  1.00  0.00     0.037 C 
BRANCH   7   8
ATOM      8  C   UNL     1      -2.540  -0.010   4.934  1.00  0.00     0.020 C 
BRANCH   8   9
ATOM      9  C   UNL     1      -1.468   0.362   5.969  1.00  0.00     0.078 C 
BRANCH   9  10
ATOM     10  N   UNL     1      -0.308   1.058   5.431  1.00  0.00    -0.330 NA
ATOM     11  H   UNL     1       0.280   1.396   6.192  1.00  0.00     0.118 HD
ATOM     12  H   UNL     1      -0.603   1.892   4.923  1.00  0.00     0.118 HD
ENDBRANCH   9  10
ENDBRANCH   8   9
ENDBRANCH   7   8
ENDBRANCH   1   7
BRANCH   4  13
ATOM     13  N   UNL     1      -7.667   1.361   8.811  1.00  0.00    -0.362 N 
ATOM     14  H   UNL     1      -8.592   1.449   8.407  1.00  0.00     0.166 HD
BRANCH  13  15
ATOM     15  C   UNL     1      -7.442   1.989  10.007  1.00  0.00     0.083 C 
BRANCH  15  16
ATOM     16  C   UNL     1      -7.749   3.240  10.376  1.00  0.00     0.027 C 
BRANCH  16  17
ATOM     17  C   UNL     1      -8.711   3.501  11.458  1.00  0.00    -0.003 A 
ATOM     18  C   UNL     1      -8.992   4.799  11.920  1.00  0.00    -0.041 A 
ATOM     19  C   UNL     1      -9.368   2.445  12.107  1.00  0.00     0.119 A 
ATOM     20  C   UNL     1      -9.905   4.956  12.973  1.00  0.00     0.024 A 
ATOM     21  N   UNL     1     -10.264   2.580  13.112  1.00  0.00    -0.264 NA
ATOM     22  C   UNL     1     -10.514   3.837  13.519  1.00  0.00     0.111 A 
ATOM     23  C   UNL     1      -8.321   6.018  11.352  1.00  0.00     0.045 C 
ENDBRANCH  16  17
ENDBRANCH  15  16
ENDBRANCH  13  15
ENDBRANCH   4  13
TORSDOF 8
ENDMDL
