MODEL 1
REMARK VINA RESULT:    -4.974      0.000      0.000
REMARK INTER + INTRA:          -7.782
REMARK INTER:                  -7.155
REMARK INTRA:                  -0.627
REMARK UNBOUND:                -0.627
REMARK SMILES Cc1ccncc1/C=C/Nc1ccc(CCCN)cc1
REMARK SMILES IDX 14 1 13 2 12 3 11 4 20 5 19 6 15 7 16 8 17 9 18 10 10 13
REMARK SMILES IDX 9 15 8 16 7 17 2 18 6 19 3 20 5 21 4 22 1 23
REMARK H PARENT 18 11 18 12 10 14
ROOT
ATOM      1  C   UNL     1       3.690   2.268 -14.995  1.00  0.00    -0.048 A 
ATOM      2  C   UNL     1       3.726   3.664 -15.026  1.00  0.00     0.006 A 
ATOM      3  C   UNL     1       3.816   4.398 -13.847  1.00  0.00     0.026 A 
ATOM      4  C   UNL     1       3.795   3.778 -12.595  1.00  0.00     0.038 A 
ATOM      5  C   UNL     1       3.701   2.382 -12.561  1.00  0.00     0.026 A 
ATOM      6  C   UNL     1       3.649   1.634 -13.747  1.00  0.00     0.006 A 
ENDROOT
BRANCH   1   7
ATOM      7  C   UNL     1       3.695   1.459 -16.268  1.00  0.00     0.037 C 
BRANCH   7   8
ATOM      8  C   UNL     1       2.641   0.341 -16.381  1.00  0.00     0.020 C 
BRANCH   8   9
ATOM      9  C   UNL     1       1.664   0.453 -17.560  1.00  0.00     0.078 C 
BRANCH   9  10
ATOM     10  N   UNL     1       0.488   1.274 -17.309  1.00  0.00    -0.330 NA
ATOM     11  H   UNL     1      -0.268   0.698 -16.940  1.00  0.00     0.118 HD
ATOM     12  H   UNL     1       0.135   1.660 -18.185  1.00  0.00     0.118 HD
ENDBRANCH   9  10
ENDBRANCH   8   9
ENDBRANCH   7   8
ENDBRANCH   1   7
BRANCH   4  13
ATOM     13  N   UNL     1       3.765   4.519 -11.398  1.00  0.00    -0.362 N 
ATOM     14  H   UNL     1       4.639   4.933 -11.098  1.00  0.00     0.166 HD
BRANCH  13  15
ATOM     15  C   UNL     1       2.734   4.507 -10.496  1.00  0.00     0.083 C 
BRANCH  15  16
ATOM     16  C   UNL     1       2.702   4.979  -9.242  1.00  0.00     0.027 C 
BRANCH  16  17
ATOM     17  C   UNL     1       2.256   4.136  -8.122  1.00  0.00    -0.003 A 
ATOM     18  C   UNL     1       2.828   4.221  -6.840  1.00  0.00    -0.041 A 
ATOM     19  C   UNL     1       1.252   3.173  -8.302  1.00  0.00     0.119 A 
ATOM     20  C   UNL     1       2.358   3.362  -5.835  1.00  0.00     0.024 A 
ATOM     21  N   UNL     1       0.775   2.349  -7.339  1.00  0.00    -0.264 NA
ATOM     22  C   UNL     1       1.340   2.467  -6.125  1.00  0.00     0.111 A 
ATOM     23  C   UNL     1       3.948   5.170  -6.520  1.00  0.00     0.045 C 
ENDBRANCH  16  17
ENDBRANCH  15  16
ENDBRANCH  13  15
ENDBRANCH   4  13
TORSDOF 8
ENDMDL
MODEL 2
REMARK VINA RESULT:    -4.970      4.745      6.746
REMARK INTER + INTRA:          -7.776
REMARK INTER:                  -7.149
REMARK INTRA:                  -0.628
REMARK UNBOUND:                -0.627
REMARK SMILES Cc1ccncc1/C=C/Nc1ccc(CCCN)cc1
REMARK SMILES IDX 14 1 13 2 12 3 11 4 20 5 19 6 15 7 16 8 17 9 18 10 10 13
REMARK SMILES IDX 9 15 8 16 7 17 2 18 6 19 3 20 5 21 4 22 1 23
REMARK H PARENT 18 11 18 12 10 14
ROOT
ATOM      1  C   UNL     1      -0.775   9.182 -12.314  1.00  0.00    -0.048 A 
ATOM      2  C   UNL     1      -0.783   8.100 -13.197  1.00  0.00     0.006 A 
ATOM      3  C   UNL     1      -0.487   6.816 -12.750  1.00  0.00     0.026 A 
ATOM      4  C   UNL     1      -0.099   6.572 -11.430  1.00  0.00     0.038 A 
ATOM      5  C   UNL     1      -0.036   7.664 -10.557  1.00  0.00     0.026 A 
ATOM      6  C   UNL     1      -0.370   8.955 -10.993  1.00  0.00     0.006 A 
ENDROOT
BRANCH   1   7
ATOM      7  C   UNL     1      -1.192  10.560 -12.764  1.00  0.00     0.037 C 
BRANCH   7   8
ATOM      8  C   UNL     1      -0.205  11.709 -12.477  1.00  0.00     0.020 C 
BRANCH   8   9
ATOM      9  C   UNL     1       0.652  12.172 -13.664  1.00  0.00     0.078 C 
BRANCH   9  10
ATOM     10  N   UNL     1       1.963  11.546 -13.757  1.00  0.00    -0.330 NA
ATOM     11  H   UNL     1       1.882  10.541 -13.607  1.00  0.00     0.118 HD
ATOM     12  H   UNL     1       2.569  11.885 -13.010  1.00  0.00     0.118 HD
ENDBRANCH   9  10
ENDBRANCH   8   9
ENDBRANCH   7   8
ENDBRANCH   1   7
BRANCH   4  13
ATOM     13  N   UNL     1       0.316   5.297 -11.001  1.00  0.00    -0.362 N 
ATOM     14  H   UNL     1      -0.077   4.502 -11.490  1.00  0.00     0.166 HD
BRANCH  13  15
ATOM     15  C   UNL     1       0.991   5.045  -9.835  1.00  0.00     0.083 C 
BRANCH  15  16
ATOM     16  C   UNL     1       1.351   3.869  -9.304  1.00  0.00     0.027 C 
BRANCH  16  17
ATOM     17  C   UNL     1       2.060   3.800  -8.017  1.00  0.00    -0.003 A 
ATOM     18  C   UNL     1       1.713   2.877  -7.014  1.00  0.00    -0.041 A 
ATOM     19  C   UNL     1       3.101   4.691  -7.720  1.00  0.00     0.119 A 
ATOM     20  C   UNL     1       2.426   2.896  -5.806  1.00  0.00     0.024 A 
ATOM     21  N   UNL     1       3.811   4.711  -6.568  1.00  0.00    -0.264 NA
ATOM     22  C   UNL     1       3.456   3.807  -5.637  1.00  0.00     0.111 A 
ATOM     23  C   UNL     1       0.583   1.900  -7.175  1.00  0.00     0.045 C 
ENDBRANCH  16  17
ENDBRANCH  15  16
ENDBRANCH  13  15
ENDBRANCH   4  13
TORSDOF 8
ENDMDL
MODEL 3
REMARK VINA RESULT:    -4.915      4.348      6.266
REMARK INTER + INTRA:          -7.698
REMARK INTER:                  -7.031
REMARK INTRA:                  -0.666
REMARK UNBOUND:                -0.627
REMARK SMILES Cc1ccncc1/C=C/Nc1ccc(CCCN)cc1
REMARK SMILES IDX 14 1 13 2 12 3 11 4 20 5 19 6 15 7 16 8 17 9 18 10 10 13
REMARK SMILES IDX 9 15 8 16 7 17 2 18 6 19 3 20 5 21 4 22 1 23
REMARK H PARENT 18 11 18 12 10 14
ROOT
ATOM      1  C   UNL     1      -0.674   8.434 -11.933  1.00  0.00    -0.048 A 
ATOM      2  C   UNL     1      -0.306   8.163 -10.613  1.00  0.00     0.006 A 
ATOM      3  C   UNL     1       0.367   6.988 -10.291  1.00  0.00     0.026 A 
ATOM      4  C   UNL     1       0.628   6.007 -11.251  1.00  0.00     0.038 A 
ATOM      5  C   UNL     1       0.209   6.253 -12.564  1.00  0.00     0.026 A 
ATOM      6  C   UNL     1      -0.435   7.452 -12.902  1.00  0.00     0.006 A 
ENDROOT
BRANCH   1   7
ATOM      7  C   UNL     1      -1.313   9.747 -12.311  1.00  0.00     0.037 C 
BRANCH   7   8
ATOM      8  C   UNL     1      -0.478  10.694 -13.194  1.00  0.00     0.020 C 
BRANCH   8   9
ATOM      9  C   UNL     1       0.552  11.566 -12.460  1.00  0.00     0.078 C 
BRANCH   9  10
ATOM     10  N   UNL     1       1.819  11.738 -13.156  1.00  0.00    -0.330 NA
ATOM     11  H   UNL     1       2.212  12.654 -12.943  1.00  0.00     0.118 HD
ATOM     12  H   UNL     1       1.670  11.733 -14.165  1.00  0.00     0.118 HD
ENDBRANCH   9  10
ENDBRANCH   8   9
ENDBRANCH   7   8
ENDBRANCH   1   7
BRANCH   4  13
ATOM     13  N   UNL     1       1.201   4.767 -10.910  1.00  0.00    -0.362 N 
ATOM     14  H   UNL     1       1.535   4.195 -11.676  1.00  0.00     0.166 HD
BRANCH  13  15
ATOM     15  C   UNL     1       1.109   4.174  -9.679  1.00  0.00     0.083 C 
BRANCH  15  16
ATOM     16  C   UNL     1       2.079   3.904  -8.795  1.00  0.00     0.027 C 
BRANCH  16  17
ATOM     17  C   UNL     1       1.765   3.552  -7.402  1.00  0.00    -0.003 A 
ATOM     18  C   UNL     1       2.489   4.068  -6.313  1.00  0.00    -0.041 A 
ATOM     19  C   UNL     1       0.738   2.644  -7.104  1.00  0.00     0.119 A 
ATOM     20  C   UNL     1       2.138   3.660  -5.017  1.00  0.00     0.024 A 
ATOM     21  N   UNL     1       0.375   2.254  -5.860  1.00  0.00    -0.264 NA
ATOM     22  C   UNL     1       1.084   2.776  -4.843  1.00  0.00     0.111 A 
ATOM     23  C   UNL     1       3.648   5.008  -6.489  1.00  0.00     0.045 C 
ENDBRANCH  16  17
ENDBRANCH  15  16
ENDBRANCH  13  15
ENDBRANCH   4  13
TORSDOF 8
ENDMDL
MODEL 4
REMARK VINA RESULT:    -4.914      1.449      2.303
REMARK INTER + INTRA:          -7.697
REMARK INTER:                  -7.039
REMARK INTRA:                  -0.657
REMARK UNBOUND:                -0.627
REMARK SMILES Cc1ccncc1/C=C/Nc1ccc(CCCN)cc1
REMARK SMILES IDX 14 1 13 2 12 3 11 4 20 5 19 6 15 7 16 8 17 9 18 10 10 13
REMARK SMILES IDX 9 15 8 16 7 17 2 18 6 19 3 20 5 21 4 22 1 23
REMARK H PARENT 18 11 18 12 10 14
ROOT
ATOM      1  C   UNL     1       3.716   2.787 -14.069  1.00  0.00    -0.048 A 
ATOM      2  C   UNL     1       3.724   2.258 -12.776  1.00  0.00     0.006 A 
ATOM      3  C   UNL     1       3.226   2.993 -11.705  1.00  0.00     0.026 A 
ATOM      4  C   UNL     1       2.775   4.306 -11.864  1.00  0.00     0.038 A 
ATOM      5  C   UNL     1       2.819   4.858 -13.150  1.00  0.00     0.026 A 
ATOM      6  C   UNL     1       3.285   4.108 -14.240  1.00  0.00     0.006 A 
ENDROOT
BRANCH   1   7
ATOM      7  C   UNL     1       4.159   1.964 -15.252  1.00  0.00     0.037 C 
BRANCH   7   8
ATOM      8  C   UNL     1       3.248   0.789 -15.657  1.00  0.00     0.020 C 
BRANCH   8   9
ATOM      9  C   UNL     1       2.443   0.976 -16.952  1.00  0.00     0.078 C 
BRANCH   9  10
ATOM     10  N   UNL     1       1.016   0.714 -16.833  1.00  0.00    -0.330 NA
ATOM     11  H   UNL     1       0.503   1.593 -16.780  1.00  0.00     0.118 HD
ATOM     12  H   UNL     1       0.819   0.229 -15.956  1.00  0.00     0.118 HD
ENDBRANCH   9  10
ENDBRANCH   8   9
ENDBRANCH   7   8
ENDBRANCH   1   7
BRANCH   4  13
ATOM     13  N   UNL     1       2.381   5.096 -10.767  1.00  0.00    -0.362 N 
ATOM     14  H   UNL     1       1.904   5.963 -10.980  1.00  0.00     0.166 HD
BRANCH  13  15
ATOM     15  C   UNL     1       2.813   4.918  -9.479  1.00  0.00     0.083 C 
BRANCH  15  16
ATOM     16  C   UNL     1       2.127   4.496  -8.409  1.00  0.00     0.027 C 
BRANCH  16  17
ATOM     17  C   UNL     1       2.814   3.922  -7.242  1.00  0.00    -0.003 A 
ATOM     18  C   UNL     1       2.344   2.773  -6.580  1.00  0.00    -0.041 A 
ATOM     19  C   UNL     1       3.961   4.530  -6.711  1.00  0.00     0.119 A 
ATOM     20  C   UNL     1       3.047   2.306  -5.460  1.00  0.00     0.024 A 
ATOM     21  N   UNL     1       4.662   4.083  -5.642  1.00  0.00    -0.264 NA
ATOM     22  C   UNL     1       4.187   2.976  -5.043  1.00  0.00     0.111 A 
ATOM     23  C   UNL     1       1.097   2.052  -7.008  1.00  0.00     0.045 C 
ENDBRANCH  16  17
ENDBRANCH  15  16
ENDBRANCH  13  15
ENDBRANCH   4  13
TORSDOF 8
ENDMDL
MODEL 5
REMARK VINA RESULT:    -4.730      1.984      8.589
REMARK INTER + INTRA:          -7.431
REMARK INTER:                  -6.837
REMARK INTRA:                  -0.594
REMARK UNBOUND:                -0.627
REMARK SMILES Cc1ccncc1/C=C/Nc1ccc(CCCN)cc1
REMARK SMILES IDX 14 1 13 2 12 3 11 4 20 5 19 6 15 7 16 8 17 9 18 10 10 13
REMARK SMILES IDX 9 15 8 16 7 17 2 18 6 19 3 20 5 21 4 22 1 23
REMARK H PARENT 18 11 18 12 10 14
ROOT
ATOM      1  C   UNL     1       1.727   3.847  -7.466  1.00  0.00    -0.048 A 
ATOM      2  C   UNL     1       2.800   4.624  -7.906  1.00  0.00     0.006 A 
ATOM      3  C   UNL     1       2.961   4.914  -9.257  1.00  0.00     0.026 A 
ATOM      4  C   UNL     1       2.109   4.380 -10.227  1.00  0.00     0.038 A 
ATOM      5  C   UNL     1       1.066   3.554  -9.793  1.00  0.00     0.026 A 
ATOM      6  C   UNL     1       0.876   3.289  -8.429  1.00  0.00     0.006 A 
ENDROOT
BRANCH   1   7
ATOM      7  C   UNL     1       1.484   3.610  -5.997  1.00  0.00     0.037 C 
BRANCH   7   8
ATOM      8  C   UNL     1       0.547   2.444  -5.629  1.00  0.00     0.020 C 
BRANCH   8   9
ATOM      9  C   UNL     1      -0.503   2.739  -4.548  1.00  0.00     0.078 C 
BRANCH   9  10
ATOM     10  N   UNL     1       0.038   3.155  -3.262  1.00  0.00    -0.330 NA
ATOM     11  H   UNL     1       1.013   3.433  -3.368  1.00  0.00     0.118 HD
ATOM     12  H   UNL     1       0.047   2.368  -2.613  1.00  0.00     0.118 HD
ENDBRANCH   9  10
ENDBRANCH   8   9
ENDBRANCH   7   8
ENDBRANCH   1   7
BRANCH   4  13
ATOM     13  N   UNL     1       2.336   4.571 -11.604  1.00  0.00    -0.362 N 
ATOM     14  H   UNL     1       1.525   4.784 -12.172  1.00  0.00     0.166 HD
BRANCH  13  15
ATOM     15  C   UNL     1       3.493   4.244 -12.259  1.00  0.00     0.083 C 
BRANCH  15  16
ATOM     16  C   UNL     1       3.688   3.343 -13.232  1.00  0.00     0.027 C 
BRANCH  16  17
ATOM     17  C   UNL     1       3.611   3.725 -14.650  1.00  0.00    -0.003 A 
ATOM     18  C   UNL     1       3.859   2.813 -15.691  1.00  0.00    -0.041 A 
ATOM     19  C   UNL     1       3.320   5.045 -15.025  1.00  0.00     0.119 A 
ATOM     20  C   UNL     1       3.787   3.267 -17.017  1.00  0.00     0.024 A 
ATOM     21  N   UNL     1       3.229   5.496 -16.299  1.00  0.00    -0.264 NA
ATOM     22  C   UNL     1       3.463   4.591 -17.266  1.00  0.00     0.111 A 
ATOM     23  C   UNL     1       4.235   1.380 -15.433  1.00  0.00     0.045 C 
ENDBRANCH  16  17
ENDBRANCH  15  16
ENDBRANCH  13  15
ENDBRANCH   4  13
TORSDOF 8
ENDMDL
MODEL 6
REMARK VINA RESULT:    -4.668      4.347      8.419
REMARK INTER + INTRA:          -7.342
REMARK INTER:                  -6.733
REMARK INTRA:                  -0.609
REMARK UNBOUND:                -0.627
REMARK SMILES Cc1ccncc1/C=C/Nc1ccc(CCCN)cc1
REMARK SMILES IDX 14 1 13 2 12 3 11 4 20 5 19 6 15 7 16 8 17 9 18 10 10 13
REMARK SMILES IDX 9 15 8 16 7 17 2 18 6 19 3 20 5 21 4 22 1 23
REMARK H PARENT 18 11 18 12 10 14
ROOT
ATOM      1  C   UNL     1       1.796   2.914  -7.414  1.00  0.00    -0.048 A 
ATOM      2  C   UNL     1       0.755   2.578  -8.282  1.00  0.00     0.006 A 
ATOM      3  C   UNL     1       0.566   3.279  -9.469  1.00  0.00     0.026 A 
ATOM      4  C   UNL     1       1.353   4.384  -9.801  1.00  0.00     0.038 A 
ATOM      5  C   UNL     1       2.362   4.757  -8.904  1.00  0.00     0.026 A 
ATOM      6  C   UNL     1       2.582   4.031  -7.724  1.00  0.00     0.006 A 
ENDROOT
BRANCH   1   7
ATOM      7  C   UNL     1       2.073   2.100  -6.175  1.00  0.00     0.037 C 
BRANCH   7   8
ATOM      8  C   UNL     1       1.645   2.719  -4.830  1.00  0.00     0.020 C 
BRANCH   8   9
ATOM      9  C   UNL     1       0.151   3.041  -4.683  1.00  0.00     0.078 C 
BRANCH   9  10
ATOM     10  N   UNL     1      -0.685   1.918  -4.285  1.00  0.00    -0.330 NA
ATOM     11  H   UNL     1      -1.349   2.213  -3.571  1.00  0.00     0.118 HD
ATOM     12  H   UNL     1      -0.115   1.194  -3.846  1.00  0.00     0.118 HD
ENDBRANCH   9  10
ENDBRANCH   8   9
ENDBRANCH   7   8
ENDBRANCH   1   7
BRANCH   4  13
ATOM     13  N   UNL     1       1.093   5.169 -10.940  1.00  0.00    -0.362 N 
ATOM     14  H   UNL     1       1.405   4.798 -11.829  1.00  0.00     0.166 HD
BRANCH  13  15
ATOM     15  C   UNL     1       0.694   6.479 -10.913  1.00  0.00     0.083 C 
BRANCH  15  16
ATOM     16  C   UNL     1      -0.441   7.027 -11.366  1.00  0.00     0.027 C 
BRANCH  16  17
ATOM     17  C   UNL     1      -0.546   7.536 -12.742  1.00  0.00    -0.003 A 
ATOM     18  C   UNL     1      -0.894   8.868 -13.029  1.00  0.00    -0.041 A 
ATOM     19  C   UNL     1      -0.336   6.689 -13.840  1.00  0.00     0.119 A 
ATOM     20  C   UNL     1      -0.994   9.264 -14.371  1.00  0.00     0.024 A 
ATOM     21  N   UNL     1      -0.412   7.059 -15.140  1.00  0.00    -0.264 NA
ATOM     22  C   UNL     1      -0.737   8.343 -15.374  1.00  0.00     0.111 A 
ATOM     23  C   UNL     1      -1.198   9.870 -11.951  1.00  0.00     0.045 C 
ENDBRANCH  16  17
ENDBRANCH  15  16
ENDBRANCH  13  15
ENDBRANCH   4  13
TORSDOF 8
ENDMDL
MODEL 7
REMARK VINA RESULT:    -4.663      1.687      8.431
REMARK INTER + INTRA:          -7.335
REMARK INTER:                  -6.802
REMARK INTRA:                  -0.533
REMARK UNBOUND:                -0.627
REMARK SMILES Cc1ccncc1/C=C/Nc1ccc(CCCN)cc1
REMARK SMILES IDX 14 1 13 2 12 3 11 4 20 5 19 6 15 7 16 8 17 9 18 10 10 13
REMARK SMILES IDX 9 15 8 16 7 17 2 18 6 19 3 20 5 21 4 22 1 23
REMARK H PARENT 18 11 18 12 10 14
ROOT
ATOM      1  C   UNL     1       1.896   4.050  -7.923  1.00  0.00    -0.048 A 
ATOM      2  C   UNL     1       2.928   4.835  -8.441  1.00  0.00     0.006 A 
ATOM      3  C   UNL     1       3.003   5.099  -9.806  1.00  0.00     0.026 A 
ATOM      4  C   UNL     1       2.104   4.530 -10.712  1.00  0.00     0.038 A 
ATOM      5  C   UNL     1       1.103   3.696 -10.200  1.00  0.00     0.026 A 
ATOM      6  C   UNL     1       1.000   3.457  -8.821  1.00  0.00     0.006 A 
ENDROOT
BRANCH   1   7
ATOM      7  C   UNL     1       1.746   3.840  -6.437  1.00  0.00     0.037 C 
BRANCH   7   8
ATOM      8  C   UNL     1       0.800   2.709  -5.990  1.00  0.00     0.020 C 
BRANCH   8   9
ATOM      9  C   UNL     1      -0.086   3.014  -4.773  1.00  0.00     0.078 C 
BRANCH   9  10
ATOM     10  N   UNL     1      -0.758   1.858  -4.196  1.00  0.00    -0.330 NA
ATOM     11  H   UNL     1      -0.664   1.055  -4.816  1.00  0.00     0.118 HD
ATOM     12  H   UNL     1      -1.761   2.033  -4.126  1.00  0.00     0.118 HD
ENDBRANCH   9  10
ENDBRANCH   8   9
ENDBRANCH   7   8
ENDBRANCH   1   7
BRANCH   4  13
ATOM     13  N   UNL     1       2.245   4.695 -12.103  1.00  0.00    -0.362 N 
ATOM     14  H   UNL     1       1.432   5.031 -12.605  1.00  0.00     0.166 HD
BRANCH  13  15
ATOM     15  C   UNL     1       3.284   4.204 -12.848  1.00  0.00     0.083 C 
BRANCH  15  16
ATOM     16  C   UNL     1       3.588   4.437 -14.132  1.00  0.00     0.027 C 
BRANCH  16  17
ATOM     17  C   UNL     1       3.741   3.332 -15.091  1.00  0.00    -0.003 A 
ATOM     18  C   UNL     1       3.613   3.515 -16.479  1.00  0.00    -0.041 A 
ATOM     19  C   UNL     1       3.989   2.024 -14.648  1.00  0.00     0.119 A 
ATOM     20  C   UNL     1       3.751   2.401 -17.322  1.00  0.00     0.024 A 
ATOM     21  N   UNL     1       4.143   0.942 -15.447  1.00  0.00    -0.264 NA
ATOM     22  C   UNL     1       4.023   1.160 -16.769  1.00  0.00     0.111 A 
ATOM     23  C   UNL     1       3.295   4.852 -17.089  1.00  0.00     0.045 C 
ENDBRANCH  16  17
ENDBRANCH  15  16
ENDBRANCH  13  15
ENDBRANCH   4  13
TORSDOF 8
ENDMDL
MODEL 8
REMARK VINA RESULT:    -4.634      4.675      8.601
REMARK INTER + INTRA:          -7.294
REMARK INTER:                  -6.775
REMARK INTRA:                  -0.519
REMARK UNBOUND:                -0.627
REMARK SMILES Cc1ccncc1/C=C/Nc1ccc(CCCN)cc1
REMARK SMILES IDX 14 1 13 2 12 3 11 4 20 5 19 6 15 7 16 8 17 9 18 10 10 13
REMARK SMILES IDX 9 15 8 16 7 17 2 18 6 19 3 20 5 21 4 22 1 23
REMARK H PARENT 18 11 18 12 10 14
ROOT
ATOM      1  C   UNL     1       2.346   3.744  -8.042  1.00  0.00    -0.048 A 
ATOM      2  C   UNL     1       1.183   3.352  -8.707  1.00  0.00     0.006 A 
ATOM      3  C   UNL     1       0.849   3.906  -9.940  1.00  0.00     0.026 A 
ATOM      4  C   UNL     1       1.615   4.921 -10.518  1.00  0.00     0.038 A 
ATOM      5  C   UNL     1       2.751   5.355  -9.824  1.00  0.00     0.026 A 
ATOM      6  C   UNL     1       3.113   4.774  -8.600  1.00  0.00     0.006 A 
ENDROOT
BRANCH   1   7
ATOM      7  C   UNL     1       2.771   3.080  -6.756  1.00  0.00     0.037 C 
BRANCH   7   8
ATOM      8  C   UNL     1       3.880   3.782  -5.948  1.00  0.00     0.020 C 
BRANCH   8   9
ATOM      9  C   UNL     1       4.746   2.874  -5.063  1.00  0.00     0.078 C 
BRANCH   9  10
ATOM     10  N   UNL     1       6.015   3.452  -4.644  1.00  0.00    -0.330 NA
ATOM     11  H   UNL     1       6.652   3.506  -5.438  1.00  0.00     0.118 HD
ATOM     12  H   UNL     1       6.473   2.841  -3.967  1.00  0.00     0.118 HD
ENDBRANCH   9  10
ENDBRANCH   8   9
ENDBRANCH   7   8
ENDBRANCH   1   7
BRANCH   4  13
ATOM     13  N   UNL     1       1.219   5.568 -11.704  1.00  0.00    -0.362 N 
ATOM     14  H   UNL     1       1.860   5.515 -12.486  1.00  0.00     0.166 HD
BRANCH  13  15
ATOM     15  C   UNL     1       0.183   6.459 -11.802  1.00  0.00     0.083 C 
BRANCH  15  16
ATOM     16  C   UNL     1      -0.415   6.945 -12.898  1.00  0.00     0.027 C 
BRANCH  16  17
ATOM     17  C   UNL     1      -0.788   8.364 -12.997  1.00  0.00    -0.003 A 
ATOM     18  C   UNL     1      -0.978   9.009 -14.232  1.00  0.00    -0.041 A 
ATOM     19  C   UNL     1      -0.935   9.151 -11.845  1.00  0.00     0.119 A 
ATOM     20  C   UNL     1      -1.310  10.372 -14.236  1.00  0.00     0.024 A 
ATOM     21  N   UNL     1      -1.272  10.462 -11.830  1.00  0.00    -0.264 NA
ATOM     22  C   UNL     1      -1.455  11.041 -13.031  1.00  0.00     0.111 A 
ATOM     23  C   UNL     1      -0.801   8.301 -15.545  1.00  0.00     0.045 C 
ENDBRANCH  16  17
ENDBRANCH  15  16
ENDBRANCH  13  15
ENDBRANCH   4  13
TORSDOF 8
ENDMDL
MODEL 9
REMARK VINA RESULT:    -4.583      4.505      8.502
REMARK INTER + INTRA:          -7.220
REMARK INTER:                  -6.636
REMARK INTRA:                  -0.584
REMARK UNBOUND:                -0.627
REMARK SMILES Cc1ccncc1/C=C/Nc1ccc(CCCN)cc1
REMARK SMILES IDX 14 1 13 2 12 3 11 4 20 5 19 6 15 7 16 8 17 9 18 10 10 13
REMARK SMILES IDX 9 15 8 16 7 17 2 18 6 19 3 20 5 21 4 22 1 23
REMARK H PARENT 18 11 18 12 10 14
ROOT
ATOM      1  C   UNL     1       2.640   3.608  -7.769  1.00  0.00    -0.048 A 
ATOM      2  C   UNL     1       3.393   4.643  -8.326  1.00  0.00     0.006 A 
ATOM      3  C   UNL     1       2.912   5.365  -9.414  1.00  0.00     0.026 A 
ATOM      4  C   UNL     1       1.705   5.036 -10.035  1.00  0.00     0.038 A 
ATOM      5  C   UNL     1       0.975   3.962  -9.513  1.00  0.00     0.026 A 
ATOM      6  C   UNL     1       1.437   3.255  -8.392  1.00  0.00     0.006 A 
ENDROOT
BRANCH   1   7
ATOM      7  C   UNL     1       3.104   2.885  -6.529  1.00  0.00     0.037 C 
BRANCH   7   8
ATOM      8  C   UNL     1       3.944   3.700  -5.527  1.00  0.00     0.020 C 
BRANCH   8   9
ATOM      9  C   UNL     1       5.307   3.102  -5.147  1.00  0.00     0.078 C 
BRANCH   9  10
ATOM     10  N   UNL     1       5.248   1.959  -4.248  1.00  0.00    -0.330 NA
ATOM     11  H   UNL     1       5.788   2.150  -3.405  1.00  0.00     0.118 HD
ATOM     12  H   UNL     1       5.693   1.148  -4.679  1.00  0.00     0.118 HD
ENDBRANCH   9  10
ENDBRANCH   8   9
ENDBRANCH   7   8
ENDBRANCH   1   7
BRANCH   4  13
ATOM     13  N   UNL     1       1.270   5.685 -11.207  1.00  0.00    -0.362 N 
ATOM     14  H   UNL     1       1.990   6.018 -11.836  1.00  0.00     0.166 HD
BRANCH  13  15
ATOM     15  C   UNL     1      -0.010   6.118 -11.432  1.00  0.00     0.083 C 
BRANCH  15  16
ATOM     16  C   UNL     1      -0.455   7.363 -11.648  1.00  0.00     0.027 C 
BRANCH  16  17
ATOM     17  C   UNL     1      -0.636   7.882 -13.012  1.00  0.00    -0.003 A 
ATOM     18  C   UNL     1      -0.982   9.221 -13.270  1.00  0.00    -0.041 A 
ATOM     19  C   UNL     1      -0.505   7.040 -14.126  1.00  0.00     0.119 A 
ATOM     20  C   UNL     1      -1.158   9.626 -14.602  1.00  0.00     0.024 A 
ATOM     21  N   UNL     1      -0.654   7.418 -15.417  1.00  0.00    -0.264 NA
ATOM     22  C   UNL     1      -0.975   8.708 -15.623  1.00  0.00     0.111 A 
ATOM     23  C   UNL     1      -1.207  10.220 -12.170  1.00  0.00     0.045 C 
ENDBRANCH  16  17
ENDBRANCH  15  16
ENDBRANCH  13  15
ENDBRANCH   4  13
TORSDOF 8
ENDMDL
