MODEL 1
REMARK VINA RESULT:    -4.996      0.000      0.000
REMARK INTER + INTRA:          -7.826
REMARK INTER:                  -7.187
REMARK INTRA:                  -0.640
REMARK UNBOUND:                -0.640
REMARK SMILES Cc1ccncc1/C=C/Nc1ccc(CCCN)cc1
REMARK SMILES IDX 14 1 13 2 12 3 11 4 20 5 19 6 15 7 16 8 17 9 18 10 10 13
REMARK SMILES IDX 9 15 8 16 7 17 2 18 6 19 3 20 5 21 4 22 1 23
REMARK H PARENT 18 11 18 12 10 14
ROOT
ATOM      1  C   UNL     1      -5.686  15.234   6.123  1.00  0.00    -0.048 A 
ATOM      2  C   UNL     1      -5.919  15.906   4.921  1.00  0.00     0.006 A 
ATOM      3  C   UNL     1      -5.615  15.307   3.702  1.00  0.00     0.026 A 
ATOM      4  C   UNL     1      -4.998  14.056   3.635  1.00  0.00     0.038 A 
ATOM      5  C   UNL     1      -4.712  13.405   4.842  1.00  0.00     0.026 A 
ATOM      6  C   UNL     1      -5.051  13.988   6.072  1.00  0.00     0.006 A 
ENDROOT
BRANCH   1   7
ATOM      7  C   UNL     1      -6.105  15.830   7.444  1.00  0.00     0.037 C 
BRANCH   7   8
ATOM      8  C   UNL     1      -5.022  15.917   8.538  1.00  0.00     0.020 C 
BRANCH   8   9
ATOM      9  C   UNL     1      -4.427  17.310   8.786  1.00  0.00     0.078 C 
BRANCH   9  10
ATOM     10  N   UNL     1      -3.213  17.604   8.037  1.00  0.00    -0.330 NA
ATOM     11  H   UNL     1      -3.018  18.604   8.066  1.00  0.00     0.118 HD
ATOM     12  H   UNL     1      -3.346  17.380   7.051  1.00  0.00     0.118 HD
ENDBRANCH   9  10
ENDBRANCH   8   9
ENDBRANCH   7   8
ENDBRANCH   1   7
BRANCH   4  13
ATOM     13  N   UNL     1      -4.579  13.497   2.413  1.00  0.00    -0.362 N 
ATOM     14  H   UNL     1      -5.210  13.598   1.627  1.00  0.00     0.166 HD
BRANCH  13  15
ATOM     15  C   UNL     1      -3.533  12.624   2.269  1.00  0.00     0.083 C 
BRANCH  15  16
ATOM     16  C   UNL     1      -3.286  11.756   1.279  1.00  0.00     0.027 C 
BRANCH  16  17
ATOM     17  C   UNL     1      -2.314  10.665   1.447  1.00  0.00    -0.003 A 
ATOM     18  C   UNL     1      -2.413   9.452   0.743  1.00  0.00    -0.041 A 
ATOM     19  C   UNL     1      -1.255  10.779   2.360  1.00  0.00     0.119 A 
ATOM     20  C   UNL     1      -1.456   8.454   0.982  1.00  0.00     0.024 A 
ATOM     21  N   UNL     1      -0.313   9.835   2.590  1.00  0.00    -0.264 NA
ATOM     22  C   UNL     1      -0.436   8.693   1.890  1.00  0.00     0.111 A 
ATOM     23  C   UNL     1      -3.527   9.172  -0.225  1.00  0.00     0.045 C 
ENDBRANCH  16  17
ENDBRANCH  15  16
ENDBRANCH  13  15
ENDBRANCH   4  13
TORSDOF 8
ENDMDL
MODEL 2
REMARK VINA RESULT:    -4.924      4.705      6.769
REMARK INTER + INTRA:          -7.722
REMARK INTER:                  -7.076
REMARK INTRA:                  -0.646
REMARK UNBOUND:                -0.640
REMARK SMILES Cc1ccncc1/C=C/Nc1ccc(CCCN)cc1
REMARK SMILES IDX 14 1 13 2 12 3 11 4 20 5 19 6 15 7 16 8 17 9 18 10 10 13
REMARK SMILES IDX 9 15 8 16 7 17 2 18 6 19 3 20 5 21 4 22 1 23
REMARK H PARENT 18 11 18 12 10 14
ROOT
ATOM      1  C   UNL     1      -1.415  17.394  -1.271  1.00  0.00    -0.048 A 
ATOM      2  C   UNL     1      -1.378  16.041  -1.613  1.00  0.00     0.006 A 
ATOM      3  C   UNL     1      -1.566  15.058  -0.646  1.00  0.00     0.026 A 
ATOM      4  C   UNL     1      -1.719  15.380   0.705  1.00  0.00     0.038 A 
ATOM      5  C   UNL     1      -1.700  16.735   1.058  1.00  0.00     0.026 A 
ATOM      6  C   UNL     1      -1.549  17.732   0.082  1.00  0.00     0.006 A 
ENDROOT
BRANCH   1   7
ATOM      7  C   UNL     1      -1.313  18.469  -2.324  1.00  0.00     0.037 C 
BRANCH   7   8
ATOM      8  C   UNL     1      -2.396  18.468  -3.420  1.00  0.00     0.020 C 
BRANCH   8   9
ATOM      9  C   UNL     1      -3.648  19.310  -3.130  1.00  0.00     0.078 C 
BRANCH   9  10
ATOM     10  N   UNL     1      -4.871  18.545  -2.932  1.00  0.00    -0.330 NA
ATOM     11  H   UNL     1      -4.645  17.595  -2.642  1.00  0.00     0.118 HD
ATOM     12  H   UNL     1      -5.374  18.450  -3.814  1.00  0.00     0.118 HD
ENDBRANCH   9  10
ENDBRANCH   8   9
ENDBRANCH   7   8
ENDBRANCH   1   7
BRANCH   4  13
ATOM     13  N   UNL     1      -1.791  14.390   1.703  1.00  0.00    -0.362 N 
ATOM     14  H   UNL     1      -1.410  14.630   2.610  1.00  0.00     0.166 HD
BRANCH  13  15
ATOM     15  C   UNL     1      -2.089  13.072   1.478  1.00  0.00     0.083 C 
BRANCH  15  16
ATOM     16  C   UNL     1      -1.659  11.984   2.130  1.00  0.00     0.027 C 
BRANCH  16  17
ATOM     17  C   UNL     1      -2.022  10.632   1.679  1.00  0.00    -0.003 A 
ATOM     18  C   UNL     1      -1.332   9.484   2.106  1.00  0.00    -0.041 A 
ATOM     19  C   UNL     1      -3.064  10.435   0.760  1.00  0.00     0.119 A 
ATOM     20  C   UNL     1      -1.730   8.234   1.608  1.00  0.00     0.024 A 
ATOM     21  N   UNL     1      -3.472   9.236   0.283  1.00  0.00    -0.264 NA
ATOM     22  C   UNL     1      -2.794   8.161   0.723  1.00  0.00     0.111 A 
ATOM     23  C   UNL     1      -0.162   9.551   3.047  1.00  0.00     0.045 C 
ENDBRANCH  16  17
ENDBRANCH  15  16
ENDBRANCH  13  15
ENDBRANCH   4  13
TORSDOF 8
ENDMDL
MODEL 3
REMARK VINA RESULT:    -4.881      4.341      6.314
REMARK INTER + INTRA:          -7.660
REMARK INTER:                  -6.969
REMARK INTRA:                  -0.692
REMARK UNBOUND:                -0.640
REMARK SMILES Cc1ccncc1/C=C/Nc1ccc(CCCN)cc1
REMARK SMILES IDX 14 1 13 2 12 3 11 4 20 5 19 6 15 7 16 8 17 9 18 10 10 13
REMARK SMILES IDX 9 15 8 16 7 17 2 18 6 19 3 20 5 21 4 22 1 23
REMARK H PARENT 18 11 18 12 10 14
ROOT
ATOM      1  C   UNL     1      -1.356  16.595  -0.798  1.00  0.00    -0.048 A 
ATOM      2  C   UNL     1      -1.266  15.229  -1.069  1.00  0.00     0.006 A 
ATOM      3  C   UNL     1      -1.654  14.289  -0.118  1.00  0.00     0.026 A 
ATOM      4  C   UNL     1      -2.070  14.669   1.160  1.00  0.00     0.038 A 
ATOM      5  C   UNL     1      -2.106  16.038   1.453  1.00  0.00     0.026 A 
ATOM      6  C   UNL     1      -1.753  16.991   0.485  1.00  0.00     0.006 A 
ENDROOT
BRANCH   1   7
ATOM      7  C   UNL     1      -1.035  17.623  -1.854  1.00  0.00     0.037 C 
BRANCH   7   8
ATOM      8  C   UNL     1      -2.200  18.512  -2.331  1.00  0.00     0.020 C 
BRANCH   8   9
ATOM      9  C   UNL     1      -3.095  17.917  -3.428  1.00  0.00     0.078 C 
BRANCH   9  10
ATOM     10  N   UNL     1      -4.515  18.209  -3.289  1.00  0.00    -0.330 NA
ATOM     11  H   UNL     1      -4.739  19.083  -3.763  1.00  0.00     0.118 HD
ATOM     12  H   UNL     1      -4.748  18.363  -2.308  1.00  0.00     0.118 HD
ENDBRANCH   9  10
ENDBRANCH   8   9
ENDBRANCH   7   8
ENDBRANCH   1   7
BRANCH   4  13
ATOM     13  N   UNL     1      -2.349  13.723   2.165  1.00  0.00    -0.362 N 
ATOM     14  H   UNL     1      -2.888  14.048   2.958  1.00  0.00     0.166 HD
BRANCH  13  15
ATOM     15  C   UNL     1      -1.744  12.499   2.276  1.00  0.00     0.083 C 
BRANCH  15  16
ATOM     16  C   UNL     1      -2.260  11.279   2.072  1.00  0.00     0.027 C 
BRANCH  16  17
ATOM     17  C   UNL     1      -1.399  10.133   1.744  1.00  0.00    -0.003 A 
ATOM     18  C   UNL     1      -1.736   9.196   0.751  1.00  0.00    -0.041 A 
ATOM     19  C   UNL     1      -0.206   9.905   2.447  1.00  0.00     0.119 A 
ATOM     20  C   UNL     1      -0.868   8.119   0.519  1.00  0.00     0.024 A 
ATOM     21  N   UNL     1       0.651   8.881   2.224  1.00  0.00    -0.264 NA
ATOM     22  C   UNL     1       0.299   8.012   1.260  1.00  0.00     0.111 A 
ATOM     23  C   UNL     1      -3.009   9.287  -0.042  1.00  0.00     0.045 C 
ENDBRANCH  16  17
ENDBRANCH  15  16
ENDBRANCH  13  15
ENDBRANCH   4  13
TORSDOF 8
ENDMDL
MODEL 4
REMARK VINA RESULT:    -4.839      1.225      2.078
REMARK INTER + INTRA:          -7.600
REMARK INTER:                  -6.943
REMARK INTRA:                  -0.657
REMARK UNBOUND:                -0.640
REMARK SMILES Cc1ccncc1/C=C/Nc1ccc(CCCN)cc1
REMARK SMILES IDX 14 1 13 2 12 3 11 4 20 5 19 6 15 7 16 8 17 9 18 10 10 13
REMARK SMILES IDX 9 15 8 16 7 17 2 18 6 19 3 20 5 21 4 22 1 23
REMARK H PARENT 18 11 18 12 10 14
ROOT
ATOM      1  C   UNL     1      -5.480  14.904   5.501  1.00  0.00    -0.048 A 
ATOM      2  C   UNL     1      -5.099  13.564   5.587  1.00  0.00     0.006 A 
ATOM      3  C   UNL     1      -4.661  12.875   4.459  1.00  0.00     0.026 A 
ATOM      4  C   UNL     1      -4.660  13.468   3.195  1.00  0.00     0.038 A 
ATOM      5  C   UNL     1      -5.096  14.795   3.097  1.00  0.00     0.026 A 
ATOM      6  C   UNL     1      -5.502  15.506   4.237  1.00  0.00     0.006 A 
ENDROOT
BRANCH   1   7
ATOM      7  C   UNL     1      -5.859  15.689   6.732  1.00  0.00     0.037 C 
BRANCH   7   8
ATOM      8  C   UNL     1      -4.902  15.592   7.936  1.00  0.00     0.020 C 
BRANCH   8   9
ATOM      9  C   UNL     1      -4.497  16.924   8.583  1.00  0.00     0.078 C 
BRANCH   9  10
ATOM     10  N   UNL     1      -3.244  17.487   8.101  1.00  0.00    -0.330 NA
ATOM     11  H   UNL     1      -3.378  17.899   7.179  1.00  0.00     0.118 HD
ATOM     12  H   UNL     1      -2.553  16.747   7.972  1.00  0.00     0.118 HD
ENDBRANCH   9  10
ENDBRANCH   8   9
ENDBRANCH   7   8
ENDBRANCH   1   7
BRANCH   4  13
ATOM     13  N   UNL     1      -4.333  12.743   2.033  1.00  0.00    -0.362 N 
ATOM     14  H   UNL     1      -5.058  12.149   1.649  1.00  0.00     0.166 HD
BRANCH  13  15
ATOM     15  C   UNL     1      -3.064  12.581   1.543  1.00  0.00     0.083 C 
BRANCH  15  16
ATOM     16  C   UNL     1      -2.105  11.735   1.942  1.00  0.00     0.027 C 
BRANCH  16  17
ATOM     17  C   UNL     1      -2.170  10.302   1.617  1.00  0.00    -0.003 A 
ATOM     18  C   UNL     1      -1.280   9.363   2.168  1.00  0.00    -0.041 A 
ATOM     19  C   UNL     1      -3.114   9.814   0.702  1.00  0.00     0.119 A 
ATOM     20  C   UNL     1      -1.397   8.018   1.785  1.00  0.00     0.024 A 
ATOM     21  N   UNL     1      -3.252   8.518   0.335  1.00  0.00    -0.264 NA
ATOM     22  C   UNL     1      -2.389   7.649   0.890  1.00  0.00     0.111 A 
ATOM     23  C   UNL     1      -0.185   9.754   3.120  1.00  0.00     0.045 C 
ENDBRANCH  16  17
ENDBRANCH  15  16
ENDBRANCH  13  15
ENDBRANCH   4  13
TORSDOF 8
ENDMDL
MODEL 5
REMARK VINA RESULT:    -4.800      1.952      8.671
REMARK INTER + INTRA:          -7.545
REMARK INTER:                  -6.969
REMARK INTRA:                  -0.576
REMARK UNBOUND:                -0.640
REMARK SMILES Cc1ccncc1/C=C/Nc1ccc(CCCN)cc1
REMARK SMILES IDX 14 1 13 2 12 3 11 4 20 5 19 6 15 7 16 8 17 9 18 10 10 13
REMARK SMILES IDX 9 15 8 16 7 17 2 18 6 19 3 20 5 21 4 22 1 23
REMARK H PARENT 18 11 18 12 10 14
ROOT
ATOM      1  C   UNL     1      -1.701  10.326   1.203  1.00  0.00    -0.048 A 
ATOM      2  C   UNL     1      -2.964  10.736   0.771  1.00  0.00     0.006 A 
ATOM      3  C   UNL     1      -3.518  11.929   1.226  1.00  0.00     0.026 A 
ATOM      4  C   UNL     1      -2.874  12.716   2.184  1.00  0.00     0.038 A 
ATOM      5  C   UNL     1      -1.634  12.277   2.662  1.00  0.00     0.026 A 
ATOM      6  C   UNL     1      -1.053  11.095   2.178  1.00  0.00     0.006 A 
ENDROOT
BRANCH   1   7
ATOM      7  C   UNL     1      -1.048   9.088   0.641  1.00  0.00     0.037 C 
BRANCH   7   8
ATOM      8  C   UNL     1      -0.109   8.311   1.585  1.00  0.00     0.020 C 
BRANCH   8   9
ATOM      9  C   UNL     1       1.351   8.185   1.129  1.00  0.00     0.078 C 
BRANCH   9  10
ATOM     10  N   UNL     1       1.634   7.033   0.284  1.00  0.00    -0.330 NA
ATOM     11  H   UNL     1       2.601   7.066  -0.037  1.00  0.00     0.118 HD
ATOM     12  H   UNL     1       1.065   7.069  -0.562  1.00  0.00     0.118 HD
ENDBRANCH   9  10
ENDBRANCH   8   9
ENDBRANCH   7   8
ENDBRANCH   1   7
BRANCH   4  13
ATOM     13  N   UNL     1      -3.481  13.860   2.737  1.00  0.00    -0.362 N 
ATOM     14  H   UNL     1      -2.869  14.634   2.964  1.00  0.00     0.166 HD
BRANCH  13  15
ATOM     15  C   UNL     1      -4.762  13.910   3.222  1.00  0.00     0.083 C 
BRANCH  15  16
ATOM     16  C   UNL     1      -5.197  14.322   4.420  1.00  0.00     0.027 C 
BRANCH  16  17
ATOM     17  C   UNL     1      -5.704  15.689   4.617  1.00  0.00    -0.003 A 
ATOM     18  C   UNL     1      -6.194  16.140   5.855  1.00  0.00    -0.041 A 
ATOM     19  C   UNL     1      -5.754  16.599   3.550  1.00  0.00     0.119 A 
ATOM     20  C   UNL     1      -6.681  17.453   5.950  1.00  0.00     0.024 A 
ATOM     21  N   UNL     1      -6.204  17.873   3.628  1.00  0.00    -0.264 NA
ATOM     22  C   UNL     1      -6.655  18.270   4.831  1.00  0.00     0.111 A 
ATOM     23  C   UNL     1      -6.249  15.256   7.069  1.00  0.00     0.045 C 
ENDBRANCH  16  17
ENDBRANCH  15  16
ENDBRANCH  13  15
ENDBRANCH   4  13
TORSDOF 8
ENDMDL
MODEL 6
REMARK VINA RESULT:    -4.788      4.592      8.520
REMARK INTER + INTRA:          -7.527
REMARK INTER:                  -6.926
REMARK INTRA:                  -0.602
REMARK UNBOUND:                -0.640
REMARK SMILES Cc1ccncc1/C=C/Nc1ccc(CCCN)cc1
REMARK SMILES IDX 14 1 13 2 12 3 11 4 20 5 19 6 15 7 16 8 17 9 18 10 10 13
REMARK SMILES IDX 9 15 8 16 7 17 2 18 6 19 3 20 5 21 4 22 1 23
REMARK H PARENT 18 11 18 12 10 14
ROOT
ATOM      1  C   UNL     1      -1.631   9.263   1.891  1.00  0.00    -0.048 A 
ATOM      2  C   UNL     1      -0.976  10.328   2.512  1.00  0.00     0.006 A 
ATOM      3  C   UNL     1      -1.410  11.637   2.324  1.00  0.00     0.026 A 
ATOM      4  C   UNL     1      -2.459  11.942   1.453  1.00  0.00     0.038 A 
ATOM      5  C   UNL     1      -3.081  10.880   0.786  1.00  0.00     0.026 A 
ATOM      6  C   UNL     1      -2.672   9.555   1.001  1.00  0.00     0.006 A 
ENDROOT
BRANCH   1   7
ATOM      7  C   UNL     1      -1.234   7.834   2.166  1.00  0.00     0.037 C 
BRANCH   7   8
ATOM      8  C   UNL     1      -0.460   7.105   1.051  1.00  0.00     0.020 C 
BRANCH   8   9
ATOM      9  C   UNL     1       0.927   7.672   0.712  1.00  0.00     0.078 C 
BRANCH   9  10
ATOM     10  N   UNL     1       1.910   7.572   1.781  1.00  0.00    -0.330 NA
ATOM     11  H   UNL     1       1.772   8.326   2.453  1.00  0.00     0.118 HD
ATOM     12  H   UNL     1       2.850   7.708   1.407  1.00  0.00     0.118 HD
ENDBRANCH   9  10
ENDBRANCH   8   9
ENDBRANCH   7   8
ENDBRANCH   1   7
BRANCH   4  13
ATOM     13  N   UNL     1      -2.826  13.271   1.167  1.00  0.00    -0.362 N 
ATOM     14  H   UNL     1      -3.818  13.470   1.127  1.00  0.00     0.166 HD
BRANCH  13  15
ATOM     15  C   UNL     1      -1.974  14.233   0.693  1.00  0.00     0.083 C 
BRANCH  15  16
ATOM     16  C   UNL     1      -1.841  15.509   1.079  1.00  0.00     0.027 C 
BRANCH  16  17
ATOM     17  C   UNL     1      -1.584  16.578   0.101  1.00  0.00    -0.003 A 
ATOM     18  C   UNL     1      -1.652  17.941   0.440  1.00  0.00    -0.041 A 
ATOM     19  C   UNL     1      -1.295  16.274  -1.237  1.00  0.00     0.119 A 
ATOM     20  C   UNL     1      -1.416  18.896  -0.561  1.00  0.00     0.024 A 
ATOM     21  N   UNL     1      -1.047  17.182  -2.211  1.00  0.00    -0.264 NA
ATOM     22  C   UNL     1      -1.112  18.475  -1.846  1.00  0.00     0.111 A 
ATOM     23  C   UNL     1      -2.005  18.410   1.823  1.00  0.00     0.045 C 
ENDBRANCH  16  17
ENDBRANCH  15  16
ENDBRANCH  13  15
ENDBRANCH   4  13
TORSDOF 8
ENDMDL
MODEL 7
REMARK VINA RESULT:    -4.779      1.994      8.497
REMARK INTER + INTRA:          -7.514
REMARK INTER:                  -6.874
REMARK INTRA:                  -0.640
REMARK UNBOUND:                -0.640
REMARK SMILES Cc1ccncc1/C=C/Nc1ccc(CCCN)cc1
REMARK SMILES IDX 14 1 13 2 12 3 11 4 20 5 19 6 15 7 16 8 17 9 18 10 10 13
REMARK SMILES IDX 9 15 8 16 7 17 2 18 6 19 3 20 5 21 4 22 1 23
REMARK H PARENT 18 11 18 12 10 14
ROOT
ATOM      1  C   UNL     1      -2.108   9.467   0.810  1.00  0.00    -0.048 A 
ATOM      2  C   UNL     1      -3.223  10.228   0.453  1.00  0.00     0.006 A 
ATOM      3  C   UNL     1      -3.412  11.502   0.981  1.00  0.00     0.026 A 
ATOM      4  C   UNL     1      -2.545  12.034   1.939  1.00  0.00     0.038 A 
ATOM      5  C   UNL     1      -1.458  11.248   2.341  1.00  0.00     0.026 A 
ATOM      6  C   UNL     1      -1.241   9.979   1.784  1.00  0.00     0.006 A 
ENDROOT
BRANCH   1   7
ATOM      7  C   UNL     1      -1.839   8.128   0.170  1.00  0.00     0.037 C 
BRANCH   7   8
ATOM      8  C   UNL     1      -2.008   6.886   1.066  1.00  0.00     0.020 C 
BRANCH   8   9
ATOM      9  C   UNL     1      -3.446   6.546   1.483  1.00  0.00     0.078 C 
BRANCH   9  10
ATOM     10  N   UNL     1      -4.346   6.225   0.384  1.00  0.00    -0.330 NA
ATOM     11  H   UNL     1      -4.704   7.083  -0.036  1.00  0.00     0.118 HD
ATOM     12  H   UNL     1      -5.166   5.730   0.734  1.00  0.00     0.118 HD
ENDBRANCH   9  10
ENDBRANCH   8   9
ENDBRANCH   7   8
ENDBRANCH   1   7
BRANCH   4  13
ATOM     13  N   UNL     1      -2.795  13.270   2.565  1.00  0.00    -0.362 N 
ATOM     14  H   UNL     1      -2.058  13.962   2.514  1.00  0.00     0.166 HD
BRANCH  13  15
ATOM     15  C   UNL     1      -3.824  13.512   3.436  1.00  0.00     0.083 C 
BRANCH  15  16
ATOM     16  C   UNL     1      -4.811  14.414   3.348  1.00  0.00     0.027 C 
BRANCH  16  17
ATOM     17  C   UNL     1      -5.414  15.002   4.554  1.00  0.00    -0.003 A 
ATOM     18  C   UNL     1      -5.938  16.307   4.575  1.00  0.00    -0.041 A 
ATOM     19  C   UNL     1      -5.458  14.287   5.760  1.00  0.00     0.119 A 
ATOM     20  C   UNL     1      -6.473  16.800   5.774  1.00  0.00     0.024 A 
ATOM     21  N   UNL     1      -5.986  14.739   6.921  1.00  0.00    -0.264 NA
ATOM     22  C   UNL     1      -6.486  15.988   6.898  1.00  0.00     0.111 A 
ATOM     23  C   UNL     1      -5.908  17.205   3.370  1.00  0.00     0.045 C 
ENDBRANCH  16  17
ENDBRANCH  15  16
ENDBRANCH  13  15
ENDBRANCH   4  13
TORSDOF 8
ENDMDL
MODEL 8
REMARK VINA RESULT:    -4.766      2.108      3.385
REMARK INTER + INTRA:          -7.496
REMARK INTER:                  -6.851
REMARK INTRA:                  -0.645
REMARK UNBOUND:                -0.640
REMARK SMILES Cc1ccncc1/C=C/Nc1ccc(CCCN)cc1
REMARK SMILES IDX 14 1 13 2 12 3 11 4 20 5 19 6 15 7 16 8 17 9 18 10 10 13
REMARK SMILES IDX 9 15 8 16 7 17 2 18 6 19 3 20 5 21 4 22 1 23
REMARK H PARENT 18 11 18 12 10 14
ROOT
ATOM      1  C   UNL     1      -4.675  14.444   3.560  1.00  0.00    -0.048 A 
ATOM      2  C   UNL     1      -4.637  13.049   3.589  1.00  0.00     0.006 A 
ATOM      3  C   UNL     1      -3.710  12.347   2.824  1.00  0.00     0.026 A 
ATOM      4  C   UNL     1      -2.843  13.000   1.945  1.00  0.00     0.038 A 
ATOM      5  C   UNL     1      -2.918  14.396   1.872  1.00  0.00     0.026 A 
ATOM      6  C   UNL     1      -3.825  15.111   2.670  1.00  0.00     0.006 A 
ENDROOT
BRANCH   1   7
ATOM      7  C   UNL     1      -5.606  15.219   4.459  1.00  0.00     0.037 C 
BRANCH   7   8
ATOM      8  C   UNL     1      -5.568  14.869   5.959  1.00  0.00     0.020 C 
BRANCH   8   9
ATOM      9  C   UNL     1      -6.287  15.850   6.898  1.00  0.00     0.078 C 
BRANCH   9  10
ATOM     10  N   UNL     1      -7.587  16.308   6.430  1.00  0.00    -0.330 NA
ATOM     11  H   UNL     1      -7.604  16.328   5.411  1.00  0.00     0.118 HD
ATOM     12  H   UNL     1      -7.748  17.271   6.725  1.00  0.00     0.118 HD
ENDBRANCH   9  10
ENDBRANCH   8   9
ENDBRANCH   7   8
ENDBRANCH   1   7
BRANCH   4  13
ATOM     13  N   UNL     1      -1.986  12.291   1.081  1.00  0.00    -0.362 N 
ATOM     14  H   UNL     1      -1.832  12.692   0.164  1.00  0.00     0.166 HD
BRANCH  13  15
ATOM     15  C   UNL     1      -1.562  11.004   1.282  1.00  0.00     0.083 C 
BRANCH  15  16
ATOM     16  C   UNL     1      -1.491   9.991   0.408  1.00  0.00     0.027 C 
BRANCH  16  17
ATOM     17  C   UNL     1      -2.162   8.709   0.671  1.00  0.00    -0.003 A 
ATOM     18  C   UNL     1      -1.459   7.554   1.055  1.00  0.00    -0.041 A 
ATOM     19  C   UNL     1      -3.550   8.578   0.511  1.00  0.00     0.119 A 
ATOM     20  C   UNL     1      -2.176   6.366   1.263  1.00  0.00     0.024 A 
ATOM     21  N   UNL     1      -4.259   7.445   0.724  1.00  0.00    -0.264 NA
ATOM     22  C   UNL     1      -3.552   6.364   1.099  1.00  0.00     0.111 A 
ATOM     23  C   UNL     1       0.036   7.537   1.212  1.00  0.00     0.045 C 
ENDBRANCH  16  17
ENDBRANCH  15  16
ENDBRANCH  13  15
ENDBRANCH   4  13
TORSDOF 8
ENDMDL
MODEL 9
REMARK VINA RESULT:    -4.646      4.534      8.496
REMARK INTER + INTRA:          -7.322
REMARK INTER:                  -6.807
REMARK INTRA:                  -0.515
REMARK UNBOUND:                -0.640
REMARK SMILES Cc1ccncc1/C=C/Nc1ccc(CCCN)cc1
REMARK SMILES IDX 14 1 13 2 12 3 11 4 20 5 19 6 15 7 16 8 17 9 18 10 10 13
REMARK SMILES IDX 9 15 8 16 7 17 2 18 6 19 3 20 5 21 4 22 1 23
REMARK H PARENT 18 11 18 12 10 14
ROOT
ATOM      1  C   UNL     1      -2.226   9.963   1.789  1.00  0.00    -0.048 A 
ATOM      2  C   UNL     1      -1.385  10.884   2.417  1.00  0.00     0.006 A 
ATOM      3  C   UNL     1      -1.623  12.251   2.310  1.00  0.00     0.026 A 
ATOM      4  C   UNL     1      -2.654  12.754   1.513  1.00  0.00     0.038 A 
ATOM      5  C   UNL     1      -3.463  11.833   0.836  1.00  0.00     0.026 A 
ATOM      6  C   UNL     1      -3.252  10.453   0.972  1.00  0.00     0.006 A 
ENDROOT
BRANCH   1   7
ATOM      7  C   UNL     1      -2.039   8.478   1.981  1.00  0.00     0.037 C 
BRANCH   7   8
ATOM      8  C   UNL     1      -2.632   7.560   0.894  1.00  0.00     0.020 C 
BRANCH   8   9
ATOM      9  C   UNL     1      -3.923   6.819   1.271  1.00  0.00     0.078 C 
BRANCH   9  10
ATOM     10  N   UNL     1      -3.738   5.440   1.699  1.00  0.00    -0.330 NA
ATOM     11  H   UNL     1      -4.348   5.235   2.490  1.00  0.00     0.118 HD
ATOM     12  H   UNL     1      -2.788   5.303   2.045  1.00  0.00     0.118 HD
ENDBRANCH   9  10
ENDBRANCH   8   9
ENDBRANCH   7   8
ENDBRANCH   1   7
BRANCH   4  13
ATOM     13  N   UNL     1      -2.827  14.136   1.304  1.00  0.00    -0.362 N 
ATOM     14  H   UNL     1      -3.745  14.438   1.002  1.00  0.00     0.166 HD
BRANCH  13  15
ATOM     15  C   UNL     1      -1.809  15.049   1.227  1.00  0.00     0.083 C 
BRANCH  15  16
ATOM     16  C   UNL     1      -1.449  15.829   0.199  1.00  0.00     0.027 C 
BRANCH  16  17
ATOM     17  C   UNL     1      -1.614  17.290   0.257  1.00  0.00    -0.003 A 
ATOM     18  C   UNL     1      -1.480  18.110  -0.877  1.00  0.00    -0.041 A 
ATOM     19  C   UNL     1      -1.878  17.936   1.474  1.00  0.00     0.119 A 
ATOM     20  C   UNL     1      -1.629  19.497  -0.728  1.00  0.00     0.024 A 
ATOM     21  N   UNL     1      -2.042  19.270   1.633  1.00  0.00    -0.264 NA
ATOM     22  C   UNL     1      -1.917  20.020   0.523  1.00  0.00     0.111 A 
ATOM     23  C   UNL     1      -1.145  17.557  -2.234  1.00  0.00     0.045 C 
ENDBRANCH  16  17
ENDBRANCH  15  16
ENDBRANCH  13  15
ENDBRANCH   4  13
TORSDOF 8
ENDMDL
