MODEL 1
REMARK VINA RESULT:    -5.047      0.000      0.000
REMARK INTER + INTRA:          -7.901
REMARK INTER:                  -7.261
REMARK INTRA:                  -0.641
REMARK UNBOUND:                -0.641
REMARK SMILES Cc1ccncc1/C=C/Nc1ccc(CCCN)cc1
REMARK SMILES IDX 14 1 13 2 12 3 11 4 20 5 19 6 15 7 16 8 17 9 18 10 10 13
REMARK SMILES IDX 9 15 8 16 7 17 2 18 6 19 3 20 5 21 4 22 1 23
REMARK H PARENT 18 11 18 12 10 14
ROOT
ATOM      1  C   UNL     1       8.271  13.603   2.589  1.00  0.00    -0.048 A 
ATOM      2  C   UNL     1       8.457  13.840   1.225  1.00  0.00     0.006 A 
ATOM      3  C   UNL     1       7.881  13.003   0.274  1.00  0.00     0.026 A 
ATOM      4  C   UNL     1       7.167  11.860   0.641  1.00  0.00     0.038 A 
ATOM      5  C   UNL     1       7.028  11.590   2.007  1.00  0.00     0.026 A 
ATOM      6  C   UNL     1       7.574  12.451   2.971  1.00  0.00     0.006 A 
ENDROOT
BRANCH   1   7
ATOM      7  C   UNL     1       8.805  14.558   3.627  1.00  0.00     0.037 C 
BRANCH   7   8
ATOM      8  C   UNL     1       9.750  13.967   4.690  1.00  0.00     0.020 C 
BRANCH   8   9
ATOM      9  C   UNL     1      11.250  14.207   4.465  1.00  0.00     0.078 C 
BRANCH   9  10
ATOM     10  N   UNL     1      11.990  13.054   3.972  1.00  0.00    -0.330 NA
ATOM     11  H   UNL     1      12.607  13.335   3.211  1.00  0.00     0.118 HD
ATOM     12  H   UNL     1      11.349  12.372   3.565  1.00  0.00     0.118 HD
ENDBRANCH   9  10
ENDBRANCH   8   9
ENDBRANCH   7   8
ENDBRANCH   1   7
BRANCH   4  13
ATOM     13  N   UNL     1       6.684  10.945  -0.315  1.00  0.00    -0.362 N 
ATOM     14  H   UNL     1       5.979  11.288  -0.956  1.00  0.00     0.166 HD
BRANCH  13  15
ATOM     15  C   UNL     1       6.896   9.593  -0.280  1.00  0.00     0.083 C 
BRANCH  15  16
ATOM     16  C   UNL     1       6.327   8.628  -1.016  1.00  0.00     0.027 C 
BRANCH  16  17
ATOM     17  C   UNL     1       5.972   7.329  -0.426  1.00  0.00    -0.003 A 
ATOM     18  C   UNL     1       4.844   6.597  -0.837  1.00  0.00    -0.041 A 
ATOM     19  C   UNL     1       6.736   6.778   0.613  1.00  0.00     0.119 A 
ATOM     20  C   UNL     1       4.565   5.376  -0.204  1.00  0.00     0.024 A 
ATOM     21  N   UNL     1       6.492   5.594   1.223  1.00  0.00    -0.264 NA
ATOM     22  C   UNL     1       5.410   4.919   0.795  1.00  0.00     0.111 A 
ATOM     23  C   UNL     1       3.907   7.093  -1.902  1.00  0.00     0.045 C 
ENDBRANCH  16  17
ENDBRANCH  15  16
ENDBRANCH  13  15
ENDBRANCH   4  13
TORSDOF 8
ENDMDL
MODEL 2
REMARK VINA RESULT:    -5.040      4.780      6.749
REMARK INTER + INTRA:          -7.891
REMARK INTER:                  -7.231
REMARK INTRA:                  -0.660
REMARK UNBOUND:                -0.641
REMARK SMILES Cc1ccncc1/C=C/Nc1ccc(CCCN)cc1
REMARK SMILES IDX 14 1 13 2 12 3 11 4 20 5 19 6 15 7 16 8 17 9 18 10 10 13
REMARK SMILES IDX 9 15 8 16 7 17 2 18 6 19 3 20 5 21 4 22 1 23
REMARK H PARENT 18 11 18 12 10 14
ROOT
ATOM      1  C   UNL     1      11.718   9.119  -4.364  1.00  0.00    -0.048 A 
ATOM      2  C   UNL     1      12.156   9.502  -3.095  1.00  0.00     0.006 A 
ATOM      3  C   UNL     1      11.514   9.036  -1.951  1.00  0.00     0.026 A 
ATOM      4  C   UNL     1      10.370   8.239  -2.028  1.00  0.00     0.038 A 
ATOM      5  C   UNL     1       9.896   7.900  -3.301  1.00  0.00     0.026 A 
ATOM      6  C   UNL     1      10.561   8.336  -4.457  1.00  0.00     0.006 A 
ENDROOT
BRANCH   1   7
ATOM      7  C   UNL     1      12.465   9.535  -5.607  1.00  0.00     0.037 C 
BRANCH   7   8
ATOM      8  C   UNL     1      11.683  10.373  -6.637  1.00  0.00     0.020 C 
BRANCH   8   9
ATOM      9  C   UNL     1      11.996  11.876  -6.660  1.00  0.00     0.078 C 
BRANCH   9  10
ATOM     10  N   UNL     1      10.926  12.735  -6.171  1.00  0.00    -0.330 NA
ATOM     11  H   UNL     1      10.154  12.741  -6.835  1.00  0.00     0.118 HD
ATOM     12  H   UNL     1      11.249  13.701  -6.117  1.00  0.00     0.118 HD
ENDBRANCH   9  10
ENDBRANCH   8   9
ENDBRANCH   7   8
ENDBRANCH   1   7
BRANCH   4  13
ATOM     13  N   UNL     1       9.647   7.862  -0.880  1.00  0.00    -0.362 N 
ATOM     14  H   UNL     1      10.045   7.124  -0.314  1.00  0.00     0.166 HD
BRANCH  13  15
ATOM     15  C   UNL     1       8.352   8.226  -0.616  1.00  0.00     0.083 C 
BRANCH  15  16
ATOM     16  C   UNL     1       7.479   7.680   0.241  1.00  0.00     0.027 C 
BRANCH  16  17
ATOM     17  C   UNL     1       6.155   7.223  -0.209  1.00  0.00    -0.003 A 
ATOM     18  C   UNL     1       5.510   6.109   0.357  1.00  0.00    -0.041 A 
ATOM     19  C   UNL     1       5.491   7.868  -1.263  1.00  0.00     0.119 A 
ATOM     20  C   UNL     1       4.258   5.727  -0.148  1.00  0.00     0.024 A 
ATOM     21  N   UNL     1       4.276   7.523  -1.750  1.00  0.00    -0.264 NA
ATOM     22  C   UNL     1       3.686   6.459  -1.176  1.00  0.00     0.111 A 
ATOM     23  C   UNL     1       6.130   5.293   1.456  1.00  0.00     0.045 C 
ENDBRANCH  16  17
ENDBRANCH  15  16
ENDBRANCH  13  15
ENDBRANCH   4  13
TORSDOF 8
ENDMDL
MODEL 3
REMARK VINA RESULT:    -4.951      2.021      8.444
REMARK INTER + INTRA:          -7.762
REMARK INTER:                  -7.244
REMARK INTRA:                  -0.517
REMARK UNBOUND:                -0.641
REMARK SMILES Cc1ccncc1/C=C/Nc1ccc(CCCN)cc1
REMARK SMILES IDX 14 1 13 2 12 3 11 4 20 5 19 6 15 7 16 8 17 9 18 10 10 13
REMARK SMILES IDX 9 15 8 16 7 17 2 18 6 19 3 20 5 21 4 22 1 23
REMARK H PARENT 18 11 18 12 10 14
ROOT
ATOM      1  C   UNL     1       5.033   6.696  -0.998  1.00  0.00    -0.048 A 
ATOM      2  C   UNL     1       4.889   7.880  -1.723  1.00  0.00     0.006 A 
ATOM      3  C   UNL     1       5.841   8.891  -1.629  1.00  0.00     0.026 A 
ATOM      4  C   UNL     1       6.928   8.794  -0.756  1.00  0.00     0.038 A 
ATOM      5  C   UNL     1       7.043   7.631   0.013  1.00  0.00     0.026 A 
ATOM      6  C   UNL     1       6.106   6.593  -0.105  1.00  0.00     0.006 A 
ENDROOT
BRANCH   1   7
ATOM      7  C   UNL     1       4.062   5.554  -1.168  1.00  0.00     0.037 C 
BRANCH   7   8
ATOM      8  C   UNL     1       2.901   5.477  -0.157  1.00  0.00     0.020 C 
BRANCH   8   9
ATOM      9  C   UNL     1       1.893   6.634  -0.201  1.00  0.00     0.078 C 
BRANCH   9  10
ATOM     10  N   UNL     1       0.661   6.350  -0.924  1.00  0.00    -0.330 NA
ATOM     11  H   UNL     1       0.467   7.097  -1.589  1.00  0.00     0.118 HD
ATOM     12  H   UNL     1      -0.131   6.344  -0.281  1.00  0.00     0.118 HD
ENDBRANCH   9  10
ENDBRANCH   8   9
ENDBRANCH   7   8
ENDBRANCH   1   7
BRANCH   4  13
ATOM     13  N   UNL     1       7.828   9.860  -0.568  1.00  0.00    -0.362 N 
ATOM     14  H   UNL     1       8.678   9.839  -1.118  1.00  0.00     0.166 HD
BRANCH  13  15
ATOM     15  C   UNL     1       7.770  10.762   0.461  1.00  0.00     0.083 C 
BRANCH  15  16
ATOM     16  C   UNL     1       7.303  12.018   0.460  1.00  0.00     0.027 C 
BRANCH  16  17
ATOM     17  C   UNL     1       7.819  13.023   1.402  1.00  0.00    -0.003 A 
ATOM     18  C   UNL     1       8.461  14.198   0.974  1.00  0.00    -0.041 A 
ATOM     19  C   UNL     1       7.722  12.827   2.788  1.00  0.00     0.119 A 
ATOM     20  C   UNL     1       8.944  15.093   1.941  1.00  0.00     0.024 A 
ATOM     21  N   UNL     1       8.166  13.687   3.733  1.00  0.00    -0.264 NA
ATOM     22  C   UNL     1       8.766  14.804   3.284  1.00  0.00     0.111 A 
ATOM     23  C   UNL     1       8.681  14.511  -0.480  1.00  0.00     0.045 C 
ENDBRANCH  16  17
ENDBRANCH  15  16
ENDBRANCH  13  15
ENDBRANCH   4  13
TORSDOF 8
ENDMDL
MODEL 4
REMARK VINA RESULT:    -4.939      1.715      8.530
REMARK INTER + INTRA:          -7.745
REMARK INTER:                  -7.194
REMARK INTRA:                  -0.551
REMARK UNBOUND:                -0.641
REMARK SMILES Cc1ccncc1/C=C/Nc1ccc(CCCN)cc1
REMARK SMILES IDX 14 1 13 2 12 3 11 4 20 5 19 6 15 7 16 8 17 9 18 10 10 13
REMARK SMILES IDX 9 15 8 16 7 17 2 18 6 19 3 20 5 21 4 22 1 23
REMARK H PARENT 18 11 18 12 10 14
ROOT
ATOM      1  C   UNL     1       5.826   6.268  -0.313  1.00  0.00    -0.048 A 
ATOM      2  C   UNL     1       5.299   7.328  -1.054  1.00  0.00     0.006 A 
ATOM      3  C   UNL     1       5.965   8.549  -1.120  1.00  0.00     0.026 A 
ATOM      4  C   UNL     1       7.134   8.785  -0.392  1.00  0.00     0.038 A 
ATOM      5  C   UNL     1       7.633   7.741   0.397  1.00  0.00     0.026 A 
ATOM      6  C   UNL     1       6.986   6.496   0.437  1.00  0.00     0.006 A 
ENDROOT
BRANCH   1   7
ATOM      7  C   UNL     1       5.167   4.911  -0.315  1.00  0.00     0.037 C 
BRANCH   7   8
ATOM      8  C   UNL     1       5.573   3.943   0.814  1.00  0.00     0.020 C 
BRANCH   8   9
ATOM      9  C   UNL     1       5.680   2.462   0.424  1.00  0.00     0.078 C 
BRANCH   9  10
ATOM     10  N   UNL     1       4.536   1.933  -0.305  1.00  0.00    -0.330 NA
ATOM     11  H   UNL     1       4.844   1.518  -1.183  1.00  0.00     0.118 HD
ATOM     12  H   UNL     1       3.906   2.691  -0.568  1.00  0.00     0.118 HD
ENDBRANCH   9  10
ENDBRANCH   8   9
ENDBRANCH   7   8
ENDBRANCH   1   7
BRANCH   4  13
ATOM     13  N   UNL     1       7.747  10.052  -0.359  1.00  0.00    -0.362 N 
ATOM     14  H   UNL     1       8.521  10.199  -0.995  1.00  0.00     0.166 HD
BRANCH  13  15
ATOM     15  C   UNL     1       7.554  10.990   0.620  1.00  0.00     0.083 C 
BRANCH  15  16
ATOM     16  C   UNL     1       7.305  12.301   0.499  1.00  0.00     0.027 C 
BRANCH  16  17
ATOM     17  C   UNL     1       7.887  13.277   1.433  1.00  0.00    -0.003 A 
ATOM     18  C   UNL     1       8.549  14.437   0.994  1.00  0.00    -0.041 A 
ATOM     19  C   UNL     1       7.837  13.065   2.819  1.00  0.00     0.119 A 
ATOM     20  C   UNL     1       9.096  15.303   1.953  1.00  0.00     0.024 A 
ATOM     21  N   UNL     1       8.344  13.898   3.757  1.00  0.00    -0.264 NA
ATOM     22  C   UNL     1       8.961  15.002   3.299  1.00  0.00     0.111 A 
ATOM     23  C   UNL     1       8.723  14.763  -0.462  1.00  0.00     0.045 C 
ENDBRANCH  16  17
ENDBRANCH  15  16
ENDBRANCH  13  15
ENDBRANCH   4  13
TORSDOF 8
ENDMDL
MODEL 5
REMARK VINA RESULT:    -4.935      2.030      8.658
REMARK INTER + INTRA:          -7.739
REMARK INTER:                  -7.172
REMARK INTRA:                  -0.568
REMARK UNBOUND:                -0.641
REMARK SMILES Cc1ccncc1/C=C/Nc1ccc(CCCN)cc1
REMARK SMILES IDX 14 1 13 2 12 3 11 4 20 5 19 6 15 7 16 8 17 9 18 10 10 13
REMARK SMILES IDX 9 15 8 16 7 17 2 18 6 19 3 20 5 21 4 22 1 23
REMARK H PARENT 18 11 18 12 10 14
ROOT
ATOM      1  C   UNL     1       6.057   6.430  -0.378  1.00  0.00    -0.048 A 
ATOM      2  C   UNL     1       5.484   7.508  -1.056  1.00  0.00     0.006 A 
ATOM      3  C   UNL     1       6.074   8.768  -1.015  1.00  0.00     0.026 A 
ATOM      4  C   UNL     1       7.208   9.021  -0.238  1.00  0.00     0.038 A 
ATOM      5  C   UNL     1       7.751   7.954   0.488  1.00  0.00     0.026 A 
ATOM      6  C   UNL     1       7.183   6.672   0.419  1.00  0.00     0.006 A 
ENDROOT
BRANCH   1   7
ATOM      7  C   UNL     1       5.485   5.040  -0.497  1.00  0.00     0.037 C 
BRANCH   7   8
ATOM      8  C   UNL     1       5.600   4.136   0.745  1.00  0.00     0.020 C 
BRANCH   8   9
ATOM      9  C   UNL     1       5.688   2.627   0.474  1.00  0.00     0.078 C 
BRANCH   9  10
ATOM     10  N   UNL     1       4.568   2.069  -0.270  1.00  0.00    -0.330 NA
ATOM     11  H   UNL     1       3.689   2.317   0.183  1.00  0.00     0.118 HD
ATOM     12  H   UNL     1       4.606   1.050  -0.251  1.00  0.00     0.118 HD
ENDBRANCH   9  10
ENDBRANCH   8   9
ENDBRANCH   7   8
ENDBRANCH   1   7
BRANCH   4  13
ATOM     13  N   UNL     1       7.740  10.317  -0.097  1.00  0.00    -0.362 N 
ATOM     14  H   UNL     1       8.732  10.421  -0.268  1.00  0.00     0.166 HD
BRANCH  13  15
ATOM     15  C   UNL     1       7.090  11.369   0.492  1.00  0.00     0.083 C 
BRANCH  15  16
ATOM     16  C   UNL     1       7.518  12.193   1.458  1.00  0.00     0.027 C 
BRANCH  16  17
ATOM     17  C   UNL     1       8.119  13.496   1.138  1.00  0.00    -0.003 A 
ATOM     18  C   UNL     1       8.421  14.451   2.125  1.00  0.00    -0.041 A 
ATOM     19  C   UNL     1       8.384  13.859  -0.191  1.00  0.00     0.119 A 
ATOM     20  C   UNL     1       8.972  15.679   1.729  1.00  0.00     0.024 A 
ATOM     21  N   UNL     1       8.931  15.032  -0.589  1.00  0.00    -0.264 NA
ATOM     22  C   UNL     1       9.215  15.914   0.385  1.00  0.00     0.111 A 
ATOM     23  C   UNL     1       8.140  14.217   3.583  1.00  0.00     0.045 C 
ENDBRANCH  16  17
ENDBRANCH  15  16
ENDBRANCH  13  15
ENDBRANCH   4  13
TORSDOF 8
ENDMDL
MODEL 6
REMARK VINA RESULT:    -4.739      1.234      1.788
REMARK INTER + INTRA:          -7.457
REMARK INTER:                  -6.780
REMARK INTRA:                  -0.677
REMARK UNBOUND:                -0.641
REMARK SMILES Cc1ccncc1/C=C/Nc1ccc(CCCN)cc1
REMARK SMILES IDX 14 1 13 2 12 3 11 4 20 5 19 6 15 7 16 8 17 9 18 10 10 13
REMARK SMILES IDX 9 15 8 16 7 17 2 18 6 19 3 20 5 21 4 22 1 23
REMARK H PARENT 18 11 18 12 10 14
ROOT
ATOM      1  C   UNL     1       8.312  13.611   2.421  1.00  0.00    -0.048 A 
ATOM      2  C   UNL     1       8.401  13.762   1.036  1.00  0.00     0.006 A 
ATOM      3  C   UNL     1       7.810  12.836   0.181  1.00  0.00     0.026 A 
ATOM      4  C   UNL     1       7.178  11.690   0.668  1.00  0.00     0.038 A 
ATOM      5  C   UNL     1       7.137  11.508   2.055  1.00  0.00     0.026 A 
ATOM      6  C   UNL     1       7.698  12.457   2.923  1.00  0.00     0.006 A 
ENDROOT
BRANCH   1   7
ATOM      7  C   UNL     1       8.861  14.658   3.357  1.00  0.00     0.037 C 
BRANCH   7   8
ATOM      8  C   UNL     1       9.345  14.169   4.736  1.00  0.00     0.020 C 
BRANCH   8   9
ATOM      9  C   UNL     1      10.866  14.123   4.938  1.00  0.00     0.078 C 
BRANCH   9  10
ATOM     10  N   UNL     1      11.553  13.070   4.205  1.00  0.00    -0.330 NA
ATOM     11  H   UNL     1      11.186  12.159   4.477  1.00  0.00     0.118 HD
ATOM     12  H   UNL     1      12.542  13.053   4.457  1.00  0.00     0.118 HD
ENDBRANCH   9  10
ENDBRANCH   8   9
ENDBRANCH   7   8
ENDBRANCH   1   7
BRANCH   4  13
ATOM     13  N   UNL     1       6.683  10.691  -0.192  1.00  0.00    -0.362 N 
ATOM     14  H   UNL     1       5.699  10.739  -0.426  1.00  0.00     0.166 HD
BRANCH  13  15
ATOM     15  C   UNL     1       7.350   9.540  -0.521  1.00  0.00     0.083 C 
BRANCH  15  16
ATOM     16  C   UNL     1       7.067   8.274  -0.187  1.00  0.00     0.027 C 
BRANCH  16  17
ATOM     17  C   UNL     1       5.826   7.626  -0.639  1.00  0.00    -0.003 A 
ATOM     18  C   UNL     1       5.338   6.443  -0.056  1.00  0.00    -0.041 A 
ATOM     19  C   UNL     1       5.089   8.151  -1.711  1.00  0.00     0.119 A 
ATOM     20  C   UNL     1       4.158   5.878  -0.565  1.00  0.00     0.024 A 
ATOM     21  N   UNL     1       3.941   7.629  -2.203  1.00  0.00    -0.264 NA
ATOM     22  C   UNL     1       3.501   6.503  -1.613  1.00  0.00     0.111 A 
ATOM     23  C   UNL     1       6.054   5.743   1.064  1.00  0.00     0.045 C 
ENDBRANCH  16  17
ENDBRANCH  15  16
ENDBRANCH  13  15
ENDBRANCH   4  13
TORSDOF 8
ENDMDL
MODEL 7
REMARK VINA RESULT:    -4.723      4.436      8.379
REMARK INTER + INTRA:          -7.434
REMARK INTER:                  -7.016
REMARK INTRA:                  -0.419
REMARK UNBOUND:                -0.641
REMARK SMILES Cc1ccncc1/C=C/Nc1ccc(CCCN)cc1
REMARK SMILES IDX 14 1 13 2 12 3 11 4 20 5 19 6 15 7 16 8 17 9 18 10 10 13
REMARK SMILES IDX 9 15 8 16 7 17 2 18 6 19 3 20 5 21 4 22 1 23
REMARK H PARENT 18 11 18 12 10 14
ROOT
ATOM      1  C   UNL     1       5.232   6.188  -0.114  1.00  0.00    -0.048 A 
ATOM      2  C   UNL     1       6.363   6.042   0.691  1.00  0.00     0.006 A 
ATOM      3  C   UNL     1       7.361   7.013   0.698  1.00  0.00     0.026 A 
ATOM      4  C   UNL     1       7.308   8.122  -0.150  1.00  0.00     0.038 A 
ATOM      5  C   UNL     1       6.202   8.241  -1.000  1.00  0.00     0.026 A 
ATOM      6  C   UNL     1       5.175   7.284  -0.983  1.00  0.00     0.006 A 
ENDROOT
BRANCH   1   7
ATOM      7  C   UNL     1       4.099   5.194  -0.056  1.00  0.00     0.037 C 
BRANCH   7   8
ATOM      8  C   UNL     1       2.753   5.711   0.490  1.00  0.00     0.020 C 
BRANCH   8   9
ATOM      9  C   UNL     1       1.822   6.376  -0.534  1.00  0.00     0.078 C 
BRANCH   9  10
ATOM     10  N   UNL     1       0.773   7.208   0.038  1.00  0.00    -0.330 NA
ATOM     11  H   UNL     1       0.636   8.039  -0.535  1.00  0.00     0.118 HD
ATOM     12  H   UNL     1       1.058   7.553   0.955  1.00  0.00     0.118 HD
ENDBRANCH   9  10
ENDBRANCH   8   9
ENDBRANCH   7   8
ENDBRANCH   1   7
BRANCH   4  13
ATOM     13  N   UNL     1       8.368   9.045  -0.235  1.00  0.00    -0.362 N 
ATOM     14  H   UNL     1       8.397   9.769   0.471  1.00  0.00     0.166 HD
BRANCH  13  15
ATOM     15  C   UNL     1       9.193   9.192  -1.319  1.00  0.00     0.083 C 
BRANCH  15  16
ATOM     16  C   UNL     1      10.232   8.437  -1.700  1.00  0.00     0.027 C 
BRANCH  16  17
ATOM     17  C   UNL     1      11.000   8.756  -2.913  1.00  0.00    -0.003 A 
ATOM     18  C   UNL     1      12.230   9.436  -2.870  1.00  0.00    -0.041 A 
ATOM     19  C   UNL     1      10.510   8.421  -4.184  1.00  0.00     0.119 A 
ATOM     20  C   UNL     1      12.886   9.720  -4.077  1.00  0.00     0.024 A 
ATOM     21  N   UNL     1      11.137   8.672  -5.357  1.00  0.00    -0.264 NA
ATOM     22  C   UNL     1      12.316   9.315  -5.273  1.00  0.00     0.111 A 
ATOM     23  C   UNL     1      12.847   9.901  -1.581  1.00  0.00     0.045 C 
ENDBRANCH  16  17
ENDBRANCH  15  16
ENDBRANCH  13  15
ENDBRANCH   4  13
TORSDOF 8
ENDMDL
MODEL 8
REMARK VINA RESULT:    -4.567      2.584      3.681
REMARK INTER + INTRA:          -7.210
REMARK INTER:                  -6.467
REMARK INTRA:                  -0.744
REMARK UNBOUND:                -0.641
REMARK SMILES Cc1ccncc1/C=C/Nc1ccc(CCCN)cc1
REMARK SMILES IDX 14 1 13 2 12 3 11 4 20 5 19 6 15 7 16 8 17 9 18 10 10 13
REMARK SMILES IDX 9 15 8 16 7 17 2 18 6 19 3 20 5 21 4 22 1 23
REMARK H PARENT 18 11 18 12 10 14
ROOT
ATOM      1  C   UNL     1       7.719  11.800   0.432  1.00  0.00    -0.048 A 
ATOM      2  C   UNL     1       6.439  11.342   0.752  1.00  0.00     0.006 A 
ATOM      3  C   UNL     1       6.048  10.045   0.433  1.00  0.00     0.026 A 
ATOM      4  C   UNL     1       6.884   9.184  -0.283  1.00  0.00     0.038 A 
ATOM      5  C   UNL     1       8.146   9.661  -0.654  1.00  0.00     0.026 A 
ATOM      6  C   UNL     1       8.560  10.954  -0.302  1.00  0.00     0.006 A 
ENDROOT
BRANCH   1   7
ATOM      7  C   UNL     1       8.189  13.167   0.862  1.00  0.00     0.037 C 
BRANCH   7   8
ATOM      8  C   UNL     1       8.364  14.219  -0.250  1.00  0.00     0.020 C 
BRANCH   8   9
ATOM      9  C   UNL     1       9.810  14.630  -0.567  1.00  0.00     0.078 C 
BRANCH   9  10
ATOM     10  N   UNL     1      10.388  13.992  -1.741  1.00  0.00    -0.330 NA
ATOM     11  H   UNL     1      10.206  12.989  -1.717  1.00  0.00     0.118 HD
ATOM     12  H   UNL     1      11.404  14.085  -1.727  1.00  0.00     0.118 HD
ENDBRANCH   9  10
ENDBRANCH   8   9
ENDBRANCH   7   8
ENDBRANCH   1   7
BRANCH   4  13
ATOM     13  N   UNL     1       6.452   7.914  -0.712  1.00  0.00    -0.362 N 
ATOM     14  H   UNL     1       5.726   7.896  -1.418  1.00  0.00     0.166 HD
BRANCH  13  15
ATOM     15  C   UNL     1       6.742   6.734  -0.081  1.00  0.00     0.083 C 
BRANCH  15  16
ATOM     16  C   UNL     1       6.077   6.116   0.904  1.00  0.00     0.027 C 
BRANCH  16  17
ATOM     17  C   UNL     1       4.696   5.648   0.715  1.00  0.00    -0.003 A 
ATOM     18  C   UNL     1       4.388   4.311   0.406  1.00  0.00    -0.041 A 
ATOM     19  C   UNL     1       3.616   6.540   0.798  1.00  0.00     0.119 A 
ATOM     20  C   UNL     1       3.044   3.955   0.218  1.00  0.00     0.024 A 
ATOM     21  N   UNL     1       2.313   6.210   0.637  1.00  0.00    -0.264 NA
ATOM     22  C   UNL     1       2.059   4.920   0.353  1.00  0.00     0.111 A 
ATOM     23  C   UNL     1       5.449   3.260   0.234  1.00  0.00     0.045 C 
ENDBRANCH  16  17
ENDBRANCH  15  16
ENDBRANCH  13  15
ENDBRANCH   4  13
TORSDOF 8
ENDMDL
MODEL 9
REMARK VINA RESULT:    -4.264      4.556      6.059
REMARK INTER + INTRA:          -6.774
REMARK INTER:                  -6.125
REMARK INTRA:                  -0.649
REMARK UNBOUND:                -0.641
REMARK SMILES Cc1ccncc1/C=C/Nc1ccc(CCCN)cc1
REMARK SMILES IDX 14 1 13 2 12 3 11 4 20 5 19 6 15 7 16 8 17 9 18 10 10 13
REMARK SMILES IDX 9 15 8 16 7 17 2 18 6 19 3 20 5 21 4 22 1 23
REMARK H PARENT 18 11 18 12 10 14
ROOT
ATOM      1  C   UNL     1      10.514   8.788  -2.239  1.00  0.00    -0.048 A 
ATOM      2  C   UNL     1       9.743   9.592  -1.397  1.00  0.00     0.006 A 
ATOM      3  C   UNL     1       8.618   9.079  -0.758  1.00  0.00     0.026 A 
ATOM      4  C   UNL     1       8.175   7.775  -0.991  1.00  0.00     0.038 A 
ATOM      5  C   UNL     1       8.915   6.985  -1.878  1.00  0.00     0.026 A 
ATOM      6  C   UNL     1      10.071   7.485  -2.496  1.00  0.00     0.006 A 
ENDROOT
BRANCH   1   7
ATOM      7  C   UNL     1      11.790   9.302  -2.857  1.00  0.00     0.037 C 
BRANCH   7   8
ATOM      8  C   UNL     1      12.044   8.929  -4.330  1.00  0.00     0.020 C 
BRANCH   8   9
ATOM      9  C   UNL     1      12.565  10.059  -5.231  1.00  0.00     0.078 C 
BRANCH   9  10
ATOM     10  N   UNL     1      11.536  10.925  -5.787  1.00  0.00    -0.330 NA
ATOM     11  H   UNL     1      11.958  11.613  -6.409  1.00  0.00     0.118 HD
ATOM     12  H   UNL     1      11.091  11.465  -5.044  1.00  0.00     0.118 HD
ENDBRANCH   9  10
ENDBRANCH   8   9
ENDBRANCH   7   8
ENDBRANCH   1   7
BRANCH   4  13
ATOM     13  N   UNL     1       6.973   7.288  -0.441  1.00  0.00    -0.362 N 
ATOM     14  H   UNL     1       6.124   7.495  -0.951  1.00  0.00     0.166 HD
BRANCH  13  15
ATOM     15  C   UNL     1       6.838   6.793   0.829  1.00  0.00     0.083 C 
BRANCH  15  16
ATOM     16  C   UNL     1       6.240   5.666   1.238  1.00  0.00     0.027 C 
BRANCH  16  17
ATOM     17  C   UNL     1       4.830   5.393   0.922  1.00  0.00    -0.003 A 
ATOM     18  C   UNL     1       4.391   4.143   0.451  1.00  0.00    -0.041 A 
ATOM     19  C   UNL     1       3.858   6.398   1.044  1.00  0.00     0.119 A 
ATOM     20  C   UNL     1       3.031   3.976   0.151  1.00  0.00     0.024 A 
ATOM     21  N   UNL     1       2.540   6.248   0.775  1.00  0.00    -0.264 NA
ATOM     22  C   UNL     1       2.157   5.036   0.337  1.00  0.00     0.111 A 
ATOM     23  C   UNL     1       5.332   2.994   0.223  1.00  0.00     0.045 C 
ENDBRANCH  16  17
ENDBRANCH  15  16
ENDBRANCH  13  15
ENDBRANCH   4  13
TORSDOF 8
ENDMDL
