MODEL 1
REMARK VINA RESULT:    -5.165      0.000      0.000
REMARK INTER + INTRA:          -8.024
REMARK INTER:                  -7.430
REMARK INTRA:                  -0.594
REMARK UNBOUND:                -0.594
REMARK SMILES Cc1ccncc1/C=C/Nc1ccc(CCCN)cc1
REMARK SMILES IDX 14 1 13 2 12 3 11 4 20 5 19 6 15 7 16 8 17 9 18 10 10 13
REMARK SMILES IDX 9 15 8 16 7 17 2 18 6 19 3 20 5 21 4 22 1 23
REMARK H PARENT 18 11 18 12 10 14
ROOT
ATOM      1  C   UNL     1       1.292   4.685   6.397  1.00  0.00    -0.048 A 
ATOM      2  C   UNL     1       0.461   4.377   7.476  1.00  0.00     0.006 A 
ATOM      3  C   UNL     1       0.813   4.746   8.771  1.00  0.00     0.026 A 
ATOM      4  C   UNL     1       2.035   5.361   9.050  1.00  0.00     0.038 A 
ATOM      5  C   UNL     1       2.895   5.619   7.976  1.00  0.00     0.026 A 
ATOM      6  C   UNL     1       2.528   5.285   6.663  1.00  0.00     0.006 A 
ENDROOT
BRANCH   1   7
ATOM      7  C   UNL     1       0.875   4.381   4.979  1.00  0.00     0.037 C 
BRANCH   7   8
ATOM      8  C   UNL     1       1.995   3.981   3.999  1.00  0.00     0.020 C 
BRANCH   8   9
ATOM      9  C   UNL     1       1.832   4.473   2.554  1.00  0.00     0.078 C 
BRANCH   9  10
ATOM     10  N   UNL     1       0.676   3.939   1.848  1.00  0.00    -0.330 NA
ATOM     11  H   UNL     1      -0.104   3.824   2.493  1.00  0.00     0.118 HD
ATOM     12  H   UNL     1       0.880   3.003   1.497  1.00  0.00     0.118 HD
ENDBRANCH   9  10
ENDBRANCH   8   9
ENDBRANCH   7   8
ENDBRANCH   1   7
BRANCH   4  13
ATOM     13  N   UNL     1       2.450   5.629  10.369  1.00  0.00    -0.362 N 
ATOM     14  H   UNL     1       2.801   6.560  10.555  1.00  0.00     0.166 HD
BRANCH  13  15
ATOM     15  C   UNL     1       2.654   4.678  11.333  1.00  0.00     0.083 C 
BRANCH  15  16
ATOM     16  C   UNL     1       3.791   4.332  11.952  1.00  0.00     0.027 C 
BRANCH  16  17
ATOM     17  C   UNL     1       4.130   4.870  13.278  1.00  0.00    -0.003 A 
ATOM     18  C   UNL     1       5.426   4.786  13.817  1.00  0.00    -0.041 A 
ATOM     19  C   UNL     1       3.149   5.466  14.086  1.00  0.00     0.119 A 
ATOM     20  C   UNL     1       5.657   5.305  15.100  1.00  0.00     0.024 A 
ATOM     21  N   UNL     1       3.359   5.987  15.317  1.00  0.00    -0.264 NA
ATOM     22  C   UNL     1       4.613   5.895  15.794  1.00  0.00     0.111 A 
ATOM     23  C   UNL     1       6.561   4.126  13.085  1.00  0.00     0.045 C 
ENDBRANCH  16  17
ENDBRANCH  15  16
ENDBRANCH  13  15
ENDBRANCH   4  13
TORSDOF 8
ENDMDL
MODEL 2
REMARK VINA RESULT:    -5.146      4.552      5.929
REMARK INTER + INTRA:          -7.997
REMARK INTER:                  -7.401
REMARK INTRA:                  -0.595
REMARK UNBOUND:                -0.594
REMARK SMILES Cc1ccncc1/C=C/Nc1ccc(CCCN)cc1
REMARK SMILES IDX 14 1 13 2 12 3 11 4 20 5 19 6 15 7 16 8 17 9 18 10 10 13
REMARK SMILES IDX 9 15 8 16 7 17 2 18 6 19 3 20 5 21 4 22 1 23
REMARK H PARENT 18 11 18 12 10 14
ROOT
ATOM      1  C   UNL     1       1.281   3.731   6.976  1.00  0.00    -0.048 A 
ATOM      2  C   UNL     1       2.351   4.562   6.638  1.00  0.00     0.006 A 
ATOM      3  C   UNL     1       2.635   5.697   7.392  1.00  0.00     0.026 A 
ATOM      4  C   UNL     1       1.823   6.088   8.460  1.00  0.00     0.038 A 
ATOM      5  C   UNL     1       0.716   5.286   8.765  1.00  0.00     0.026 A 
ATOM      6  C   UNL     1       0.448   4.121   8.032  1.00  0.00     0.006 A 
ENDROOT
BRANCH   1   7
ATOM      7  C   UNL     1       1.025   2.446   6.229  1.00  0.00     0.037 C 
BRANCH   7   8
ATOM      8  C   UNL     1      -0.445   2.004   6.098  1.00  0.00     0.020 C 
BRANCH   8   9
ATOM      9  C   UNL     1      -0.716   0.503   6.278  1.00  0.00     0.078 C 
BRANCH   9  10
ATOM     10  N   UNL     1      -0.141  -0.354   5.250  1.00  0.00    -0.330 NA
ATOM     11  H   UNL     1      -0.443  -1.317   5.389  1.00  0.00     0.118 HD
ATOM     12  H   UNL     1       0.876  -0.372   5.336  1.00  0.00     0.118 HD
ENDBRANCH   9  10
ENDBRANCH   8   9
ENDBRANCH   7   8
ENDBRANCH   1   7
BRANCH   4  13
ATOM     13  N   UNL     1       2.034   7.297   9.151  1.00  0.00    -0.362 N 
ATOM     14  H   UNL     1       2.080   7.240  10.161  1.00  0.00     0.166 HD
BRANCH  13  15
ATOM     15  C   UNL     1       1.923   8.545   8.598  1.00  0.00     0.083 C 
BRANCH  15  16
ATOM     16  C   UNL     1       1.049   9.520   8.879  1.00  0.00     0.027 C 
BRANCH  16  17
ATOM     17  C   UNL     1       1.416  10.642   9.757  1.00  0.00    -0.003 A 
ATOM     18  C   UNL     1       0.463  11.537  10.274  1.00  0.00    -0.041 A 
ATOM     19  C   UNL     1       2.757  10.888  10.088  1.00  0.00     0.119 A 
ATOM     20  C   UNL     1       0.902  12.594  11.086  1.00  0.00     0.024 A 
ATOM     21  N   UNL     1       3.196  11.892  10.883  1.00  0.00    -0.264 NA
ATOM     22  C   UNL     1       2.253  12.721  11.366  1.00  0.00     0.111 A 
ATOM     23  C   UNL     1      -1.002  11.424   9.958  1.00  0.00     0.045 C 
ENDBRANCH  16  17
ENDBRANCH  15  16
ENDBRANCH  13  15
ENDBRANCH   4  13
TORSDOF 8
ENDMDL
MODEL 3
REMARK VINA RESULT:    -5.086      4.770      8.435
REMARK INTER + INTRA:          -7.910
REMARK INTER:                  -7.292
REMARK INTRA:                  -0.618
REMARK UNBOUND:                -0.594
REMARK SMILES Cc1ccncc1/C=C/Nc1ccc(CCCN)cc1
REMARK SMILES IDX 14 1 13 2 12 3 11 4 20 5 19 6 15 7 16 8 17 9 18 10 10 13
REMARK SMILES IDX 9 15 8 16 7 17 2 18 6 19 3 20 5 21 4 22 1 23
REMARK H PARENT 18 11 18 12 10 14
ROOT
ATOM      1  C   UNL     1       0.520  11.409   9.949  1.00  0.00    -0.048 A 
ATOM      2  C   UNL     1      -0.148  10.578   9.046  1.00  0.00     0.006 A 
ATOM      3  C   UNL     1       0.462   9.428   8.554  1.00  0.00     0.026 A 
ATOM      4  C   UNL     1       1.782   9.103   8.878  1.00  0.00     0.038 A 
ATOM      5  C   UNL     1       2.472   9.965   9.738  1.00  0.00     0.026 A 
ATOM      6  C   UNL     1       1.849  11.106  10.268  1.00  0.00     0.006 A 
ENDROOT
BRANCH   1   7
ATOM      7  C   UNL     1      -0.166  12.601  10.567  1.00  0.00     0.037 C 
BRANCH   7   8
ATOM      8  C   UNL     1      -1.485  12.330  11.315  1.00  0.00     0.020 C 
BRANCH   8   9
ATOM      9  C   UNL     1      -1.403  12.333  12.849  1.00  0.00     0.078 C 
BRANCH   9  10
ATOM     10  N   UNL     1      -1.471  11.018  13.471  1.00  0.00    -0.330 NA
ATOM     11  H   UNL     1      -1.811  11.103  14.428  1.00  0.00     0.118 HD
ATOM     12  H   UNL     1      -0.536  10.617  13.548  1.00  0.00     0.118 HD
ENDBRANCH   9  10
ENDBRANCH   8   9
ENDBRANCH   7   8
ENDBRANCH   1   7
BRANCH   4  13
ATOM     13  N   UNL     1       2.444   8.008   8.291  1.00  0.00    -0.362 N 
ATOM     14  H   UNL     1       3.143   8.222   7.591  1.00  0.00     0.166 HD
BRANCH  13  15
ATOM     15  C   UNL     1       2.046   6.702   8.401  1.00  0.00     0.083 C 
BRANCH  15  16
ATOM     16  C   UNL     1       2.500   5.622   7.752  1.00  0.00     0.027 C 
BRANCH  16  17
ATOM     17  C   UNL     1       1.575   4.629   7.185  1.00  0.00    -0.003 A 
ATOM     18  C   UNL     1       1.861   3.919   6.006  1.00  0.00    -0.041 A 
ATOM     19  C   UNL     1       0.335   4.374   7.789  1.00  0.00     0.119 A 
ATOM     20  C   UNL     1       0.911   3.007   5.521  1.00  0.00     0.024 A 
ATOM     21  N   UNL     1      -0.585   3.485   7.345  1.00  0.00    -0.264 NA
ATOM     22  C   UNL     1      -0.271   2.819   6.220  1.00  0.00     0.111 A 
ATOM     23  C   UNL     1       3.128   4.131   5.226  1.00  0.00     0.045 C 
ENDBRANCH  16  17
ENDBRANCH  15  16
ENDBRANCH  13  15
ENDBRANCH   4  13
TORSDOF 8
ENDMDL
MODEL 4
REMARK VINA RESULT:    -5.061      1.931      8.607
REMARK INTER + INTRA:          -7.874
REMARK INTER:                  -7.225
REMARK INTRA:                  -0.649
REMARK UNBOUND:                -0.594
REMARK SMILES Cc1ccncc1/C=C/Nc1ccc(CCCN)cc1
REMARK SMILES IDX 14 1 13 2 12 3 11 4 20 5 19 6 15 7 16 8 17 9 18 10 10 13
REMARK SMILES IDX 9 15 8 16 7 17 2 18 6 19 3 20 5 21 4 22 1 23
REMARK H PARENT 18 11 18 12 10 14
ROOT
ATOM      1  C   UNL     1       5.132   4.561  13.533  1.00  0.00    -0.048 A 
ATOM      2  C   UNL     1       4.006   5.332  13.829  1.00  0.00     0.006 A 
ATOM      3  C   UNL     1       2.887   5.303  13.001  1.00  0.00     0.026 A 
ATOM      4  C   UNL     1       2.876   4.571  11.811  1.00  0.00     0.038 A 
ATOM      5  C   UNL     1       4.026   3.843  11.483  1.00  0.00     0.026 A 
ATOM      6  C   UNL     1       5.142   3.838  12.334  1.00  0.00     0.006 A 
ENDROOT
BRANCH   1   7
ATOM      7  C   UNL     1       6.309   4.506  14.474  1.00  0.00     0.037 C 
BRANCH   7   8
ATOM      8  C   UNL     1       7.699   4.758  13.858  1.00  0.00     0.020 C 
BRANCH   8   9
ATOM      9  C   UNL     1       8.380   6.078  14.250  1.00  0.00     0.078 C 
BRANCH   9  10
ATOM     10  N   UNL     1       8.084   7.206  13.378  1.00  0.00    -0.330 NA
ATOM     11  H   UNL     1       8.153   8.078  13.900  1.00  0.00     0.118 HD
ATOM     12  H   UNL     1       7.118   7.156  13.055  1.00  0.00     0.118 HD
ENDBRANCH   9  10
ENDBRANCH   8   9
ENDBRANCH   7   8
ENDBRANCH   1   7
BRANCH   4  13
ATOM     13  N   UNL     1       1.795   4.631  10.910  1.00  0.00    -0.362 N 
ATOM     14  H   UNL     1       0.972   4.094  11.152  1.00  0.00     0.166 HD
BRANCH  13  15
ATOM     15  C   UNL     1       1.864   5.137   9.639  1.00  0.00     0.083 C 
BRANCH  15  16
ATOM     16  C   UNL     1       0.986   5.019   8.634  1.00  0.00     0.027 C 
BRANCH  16  17
ATOM     17  C   UNL     1       1.417   4.604   7.291  1.00  0.00    -0.003 A 
ATOM     18  C   UNL     1       0.601   3.839   6.439  1.00  0.00    -0.041 A 
ATOM     19  C   UNL     1       2.696   4.929   6.813  1.00  0.00     0.119 A 
ATOM     20  C   UNL     1       1.100   3.466   5.182  1.00  0.00     0.024 A 
ATOM     21  N   UNL     1       3.187   4.592   5.597  1.00  0.00    -0.264 NA
ATOM     22  C   UNL     1       2.373   3.869   4.808  1.00  0.00     0.111 A 
ATOM     23  C   UNL     1      -0.771   3.376   6.843  1.00  0.00     0.045 C 
ENDBRANCH  16  17
ENDBRANCH  15  16
ENDBRANCH  13  15
ENDBRANCH   4  13
TORSDOF 8
ENDMDL
MODEL 5
REMARK VINA RESULT:    -5.040      4.207      5.407
REMARK INTER + INTRA:          -7.844
REMARK INTER:                  -7.183
REMARK INTRA:                  -0.661
REMARK UNBOUND:                -0.594
REMARK SMILES Cc1ccncc1/C=C/Nc1ccc(CCCN)cc1
REMARK SMILES IDX 14 1 13 2 12 3 11 4 20 5 19 6 15 7 16 8 17 9 18 10 10 13
REMARK SMILES IDX 9 15 8 16 7 17 2 18 6 19 3 20 5 21 4 22 1 23
REMARK H PARENT 18 11 18 12 10 14
ROOT
ATOM      1  C   UNL     1       1.710   3.803   5.906  1.00  0.00    -0.048 A 
ATOM      2  C   UNL     1       2.882   4.562   5.932  1.00  0.00     0.006 A 
ATOM      3  C   UNL     1       3.140   5.434   6.986  1.00  0.00     0.026 A 
ATOM      4  C   UNL     1       2.211   5.642   8.008  1.00  0.00     0.038 A 
ATOM      5  C   UNL     1       1.011   4.924   7.954  1.00  0.00     0.026 A 
ATOM      6  C   UNL     1       0.762   4.014   6.915  1.00  0.00     0.006 A 
ENDROOT
BRANCH   1   7
ATOM      7  C   UNL     1       1.465   2.781   4.824  1.00  0.00     0.037 C 
BRANCH   7   8
ATOM      8  C   UNL     1       0.696   3.263   3.578  1.00  0.00     0.020 C 
BRANCH   8   9
ATOM      9  C   UNL     1       1.553   3.821   2.432  1.00  0.00     0.078 C 
BRANCH   9  10
ATOM     10  N   UNL     1       1.581   5.274   2.336  1.00  0.00    -0.330 NA
ATOM     11  H   UNL     1       1.958   5.673   3.194  1.00  0.00     0.118 HD
ATOM     12  H   UNL     1       0.632   5.639   2.259  1.00  0.00     0.118 HD
ENDBRANCH   9  10
ENDBRANCH   8   9
ENDBRANCH   7   8
ENDBRANCH   1   7
BRANCH   4  13
ATOM     13  N   UNL     1       2.413   6.609   9.012  1.00  0.00    -0.362 N 
ATOM     14  H   UNL     1       2.987   6.333   9.799  1.00  0.00     0.166 HD
BRANCH  13  15
ATOM     15  C   UNL     1       1.701   7.772   9.132  1.00  0.00     0.083 C 
BRANCH  15  16
ATOM     16  C   UNL     1       2.071   9.025   8.832  1.00  0.00     0.027 C 
BRANCH  16  17
ATOM     17  C   UNL     1       1.359  10.184   9.392  1.00  0.00    -0.003 A 
ATOM     18  C   UNL     1       1.984  11.114  10.241  1.00  0.00    -0.041 A 
ATOM     19  C   UNL     1      -0.003  10.389   9.127  1.00  0.00     0.119 A 
ATOM     20  C   UNL     1       1.225  12.178  10.751  1.00  0.00     0.024 A 
ATOM     21  N   UNL     1      -0.746  11.419   9.596  1.00  0.00    -0.264 NA
ATOM     22  C   UNL     1      -0.110  12.293  10.396  1.00  0.00     0.111 A 
ATOM     23  C   UNL     1       3.425  10.988  10.652  1.00  0.00     0.045 C 
ENDBRANCH  16  17
ENDBRANCH  15  16
ENDBRANCH  13  15
ENDBRANCH   4  13
TORSDOF 8
ENDMDL
MODEL 6
REMARK VINA RESULT:    -5.034      2.257      2.781
REMARK INTER + INTRA:          -7.835
REMARK INTER:                  -7.177
REMARK INTRA:                  -0.658
REMARK UNBOUND:                -0.594
REMARK SMILES Cc1ccncc1/C=C/Nc1ccc(CCCN)cc1
REMARK SMILES IDX 14 1 13 2 12 3 11 4 20 5 19 6 15 7 16 8 17 9 18 10 10 13
REMARK SMILES IDX 9 15 8 16 7 17 2 18 6 19 3 20 5 21 4 22 1 23
REMARK H PARENT 18 11 18 12 10 14
ROOT
ATOM      1  C   UNL     1       0.425   3.693   6.384  1.00  0.00    -0.048 A 
ATOM      2  C   UNL     1      -0.384   3.784   7.518  1.00  0.00     0.006 A 
ATOM      3  C   UNL     1       0.020   4.530   8.621  1.00  0.00     0.026 A 
ATOM      4  C   UNL     1       1.272   5.147   8.668  1.00  0.00     0.038 A 
ATOM      5  C   UNL     1       2.109   5.010   7.554  1.00  0.00     0.026 A 
ATOM      6  C   UNL     1       1.691   4.290   6.424  1.00  0.00     0.006 A 
ENDROOT
BRANCH   1   7
ATOM      7  C   UNL     1      -0.044   2.972   5.145  1.00  0.00     0.037 C 
BRANCH   7   8
ATOM      8  C   UNL     1       0.328   1.481   5.029  1.00  0.00     0.020 C 
BRANCH   8   9
ATOM      9  C   UNL     1      -0.694   0.485   5.597  1.00  0.00     0.078 C 
BRANCH   9  10
ATOM     10  N   UNL     1      -0.356  -0.068   6.900  1.00  0.00    -0.330 NA
ATOM     11  H   UNL     1      -0.564  -1.066   6.920  1.00  0.00     0.118 HD
ATOM     12  H   UNL     1      -0.944   0.348   7.622  1.00  0.00     0.118 HD
ENDBRANCH   9  10
ENDBRANCH   8   9
ENDBRANCH   7   8
ENDBRANCH   1   7
BRANCH   4  13
ATOM     13  N   UNL     1       1.736   5.803   9.825  1.00  0.00    -0.362 N 
ATOM     14  H   UNL     1       1.404   6.747   9.976  1.00  0.00     0.166 HD
BRANCH  13  15
ATOM     15  C   UNL     1       2.776   5.372  10.605  1.00  0.00     0.083 C 
BRANCH  15  16
ATOM     16  C   UNL     1       2.744   4.650  11.734  1.00  0.00     0.027 C 
BRANCH  16  17
ATOM     17  C   UNL     1       3.890   4.625  12.655  1.00  0.00    -0.003 A 
ATOM     18  C   UNL     1       3.869   5.274  13.902  1.00  0.00    -0.041 A 
ATOM     19  C   UNL     1       5.082   3.974  12.303  1.00  0.00     0.119 A 
ATOM     20  C   UNL     1       5.016   5.220  14.709  1.00  0.00     0.024 A 
ATOM     21  N   UNL     1       6.190   3.897  13.077  1.00  0.00    -0.264 NA
ATOM     22  C   UNL     1       6.128   4.522  14.266  1.00  0.00     0.111 A 
ATOM     23  C   UNL     1       2.678   6.054  14.383  1.00  0.00     0.045 C 
ENDBRANCH  16  17
ENDBRANCH  15  16
ENDBRANCH  13  15
ENDBRANCH   4  13
TORSDOF 8
ENDMDL
MODEL 7
REMARK VINA RESULT:    -4.961      4.496      5.817
REMARK INTER + INTRA:          -7.731
REMARK INTER:                  -7.190
REMARK INTRA:                  -0.541
REMARK UNBOUND:                -0.594
REMARK SMILES Cc1ccncc1/C=C/Nc1ccc(CCCN)cc1
REMARK SMILES IDX 14 1 13 2 12 3 11 4 20 5 19 6 15 7 16 8 17 9 18 10 10 13
REMARK SMILES IDX 9 15 8 16 7 17 2 18 6 19 3 20 5 21 4 22 1 23
REMARK H PARENT 18 11 18 12 10 14
ROOT
ATOM      1  C   UNL     1       1.374   3.680   6.717  1.00  0.00    -0.048 A 
ATOM      2  C   UNL     1       2.452   4.544   6.514  1.00  0.00     0.006 A 
ATOM      3  C   UNL     1       2.689   5.603   7.386  1.00  0.00     0.026 A 
ATOM      4  C   UNL     1       1.821   5.887   8.444  1.00  0.00     0.038 A 
ATOM      5  C   UNL     1       0.708   5.056   8.615  1.00  0.00     0.026 A 
ATOM      6  C   UNL     1       0.486   3.964   7.761  1.00  0.00     0.006 A 
ENDROOT
BRANCH   1   7
ATOM      7  C   UNL     1       1.166   2.472   5.839  1.00  0.00     0.037 C 
BRANCH   7   8
ATOM      8  C   UNL     1      -0.287   1.992   5.656  1.00  0.00     0.020 C 
BRANCH   8   9
ATOM      9  C   UNL     1      -0.597   0.577   6.165  1.00  0.00     0.078 C 
BRANCH   9  10
ATOM     10  N   UNL     1      -0.225  -0.499   5.257  1.00  0.00    -0.330 NA
ATOM     11  H   UNL     1      -0.814  -1.315   5.423  1.00  0.00     0.118 HD
ATOM     12  H   UNL     1       0.728  -0.807   5.449  1.00  0.00     0.118 HD
ENDBRANCH   9  10
ENDBRANCH   8   9
ENDBRANCH   7   8
ENDBRANCH   1   7
BRANCH   4  13
ATOM     13  N   UNL     1       1.987   7.025   9.257  1.00  0.00    -0.362 N 
ATOM     14  H   UNL     1       2.280   6.861  10.212  1.00  0.00     0.166 HD
BRANCH  13  15
ATOM     15  C   UNL     1       1.544   8.282   8.944  1.00  0.00     0.083 C 
BRANCH  15  16
ATOM     16  C   UNL     1       2.163   9.460   9.101  1.00  0.00     0.027 C 
BRANCH  16  17
ATOM     17  C   UNL     1       1.461  10.619   9.674  1.00  0.00    -0.003 A 
ATOM     18  C   UNL     1       2.075  11.498  10.584  1.00  0.00    -0.041 A 
ATOM     19  C   UNL     1       0.118  10.874   9.360  1.00  0.00     0.119 A 
ATOM     20  C   UNL     1       1.325  12.565  11.101  1.00  0.00     0.024 A 
ATOM     21  N   UNL     1      -0.615  11.908   9.835  1.00  0.00    -0.264 NA
ATOM     22  C   UNL     1       0.010  12.733  10.695  1.00  0.00     0.111 A 
ATOM     23  C   UNL     1       3.492  11.313  11.050  1.00  0.00     0.045 C 
ENDBRANCH  16  17
ENDBRANCH  15  16
ENDBRANCH  13  15
ENDBRANCH   4  13
TORSDOF 8
ENDMDL
MODEL 8
REMARK VINA RESULT:    -4.886      2.176      8.524
REMARK INTER + INTRA:          -7.623
REMARK INTER:                  -6.954
REMARK INTRA:                  -0.669
REMARK UNBOUND:                -0.594
REMARK SMILES Cc1ccncc1/C=C/Nc1ccc(CCCN)cc1
REMARK SMILES IDX 14 1 13 2 12 3 11 4 20 5 19 6 15 7 16 8 17 9 18 10 10 13
REMARK SMILES IDX 9 15 8 16 7 17 2 18 6 19 3 20 5 21 4 22 1 23
REMARK H PARENT 18 11 18 12 10 14
ROOT
ATOM      1  C   UNL     1       5.163   4.668  13.762  1.00  0.00    -0.048 A 
ATOM      2  C   UNL     1       5.301   3.924  12.589  1.00  0.00     0.006 A 
ATOM      3  C   UNL     1       4.337   3.991  11.587  1.00  0.00     0.026 A 
ATOM      4  C   UNL     1       3.167   4.737  11.746  1.00  0.00     0.038 A 
ATOM      5  C   UNL     1       3.000   5.439  12.945  1.00  0.00     0.026 A 
ATOM      6  C   UNL     1       3.986   5.406  13.943  1.00  0.00     0.006 A 
ENDROOT
BRANCH   1   7
ATOM      7  C   UNL     1       6.247   4.683  14.810  1.00  0.00     0.037 C 
BRANCH   7   8
ATOM      8  C   UNL     1       7.691   4.883  14.309  1.00  0.00     0.020 C 
BRANCH   8   9
ATOM      9  C   UNL     1       8.273   6.294  14.478  1.00  0.00     0.078 C 
BRANCH   9  10
ATOM     10  N   UNL     1       8.108   7.169  13.326  1.00  0.00    -0.330 NA
ATOM     11  H   UNL     1       7.133   7.176  13.029  1.00  0.00     0.118 HD
ATOM     12  H   UNL     1       8.634   6.806  12.531  1.00  0.00     0.118 HD
ENDBRANCH   9  10
ENDBRANCH   8   9
ENDBRANCH   7   8
ENDBRANCH   1   7
BRANCH   4  13
ATOM     13  N   UNL     1       2.134   4.714  10.789  1.00  0.00    -0.362 N 
ATOM     14  H   UNL     1       1.556   3.884  10.764  1.00  0.00     0.166 HD
BRANCH  13  15
ATOM     15  C   UNL     1       2.018   5.592   9.743  1.00  0.00     0.083 C 
BRANCH  15  16
ATOM     16  C   UNL     1       2.096   5.354   8.427  1.00  0.00     0.027 C 
BRANCH  16  17
ATOM     17  C   UNL     1       1.077   4.548   7.736  1.00  0.00    -0.003 A 
ATOM     18  C   UNL     1       1.299   3.974   6.472  1.00  0.00    -0.041 A 
ATOM     19  C   UNL     1      -0.190   4.350   8.305  1.00  0.00     0.119 A 
ATOM     20  C   UNL     1       0.263   3.240   5.874  1.00  0.00     0.024 A 
ATOM     21  N   UNL     1      -1.194   3.631   7.750  1.00  0.00    -0.264 NA
ATOM     22  C   UNL     1      -0.940   3.089   6.546  1.00  0.00     0.111 A 
ATOM     23  C   UNL     1       2.590   4.150   5.724  1.00  0.00     0.045 C 
ENDBRANCH  16  17
ENDBRANCH  15  16
ENDBRANCH  13  15
ENDBRANCH   4  13
TORSDOF 8
ENDMDL
MODEL 9
REMARK VINA RESULT:    -4.847      4.172      5.331
REMARK INTER + INTRA:          -7.567
REMARK INTER:                  -6.919
REMARK INTRA:                  -0.648
REMARK UNBOUND:                -0.594
REMARK SMILES Cc1ccncc1/C=C/Nc1ccc(CCCN)cc1
REMARK SMILES IDX 14 1 13 2 12 3 11 4 20 5 19 6 15 7 16 8 17 9 18 10 10 13
REMARK SMILES IDX 9 15 8 16 7 17 2 18 6 19 3 20 5 21 4 22 1 23
REMARK H PARENT 18 11 18 12 10 14
ROOT
ATOM      1  C   UNL     1       1.470   3.774   6.086  1.00  0.00    -0.048 A 
ATOM      2  C   UNL     1       0.480   3.823   7.069  1.00  0.00     0.006 A 
ATOM      3  C   UNL     1       0.525   4.783   8.076  1.00  0.00     0.026 A 
ATOM      4  C   UNL     1       1.594   5.677   8.187  1.00  0.00     0.038 A 
ATOM      5  C   UNL     1       2.617   5.591   7.235  1.00  0.00     0.026 A 
ATOM      6  C   UNL     1       2.557   4.650   6.196  1.00  0.00     0.006 A 
ENDROOT
BRANCH   1   7
ATOM      7  C   UNL     1       1.379   2.805   4.934  1.00  0.00     0.037 C 
BRANCH   7   8
ATOM      8  C   UNL     1       0.720   3.326   3.642  1.00  0.00     0.020 C 
BRANCH   8   9
ATOM      9  C   UNL     1       1.677   3.854   2.563  1.00  0.00     0.078 C 
BRANCH   9  10
ATOM     10  N   UNL     1       1.567   5.279   2.287  1.00  0.00    -0.330 NA
ATOM     11  H   UNL     1       1.980   5.815   3.050  1.00  0.00     0.118 HD
ATOM     12  H   UNL     1       0.586   5.557   2.258  1.00  0.00     0.118 HD
ENDBRANCH   9  10
ENDBRANCH   8   9
ENDBRANCH   7   8
ENDBRANCH   1   7
BRANCH   4  13
ATOM     13  N   UNL     1       1.707   6.570   9.270  1.00  0.00    -0.362 N 
ATOM     14  H   UNL     1       1.288   6.279  10.145  1.00  0.00     0.166 HD
BRANCH  13  15
ATOM     15  C   UNL     1       2.099   7.879   9.167  1.00  0.00     0.083 C 
BRANCH  15  16
ATOM     16  C   UNL     1       1.351   8.972   8.967  1.00  0.00     0.027 C 
BRANCH  16  17
ATOM     17  C   UNL     1       1.648  10.235   9.661  1.00  0.00    -0.003 A 
ATOM     18  C   UNL     1       0.653  11.180   9.966  1.00  0.00    -0.041 A 
ATOM     19  C   UNL     1       2.964  10.568  10.017  1.00  0.00     0.119 A 
ATOM     20  C   UNL     1       1.028  12.370  10.608  1.00  0.00     0.024 A 
ATOM     21  N   UNL     1       3.340  11.702  10.652  1.00  0.00    -0.264 NA
ATOM     22  C   UNL     1       2.359  12.577  10.936  1.00  0.00     0.111 A 
ATOM     23  C   UNL     1      -0.789  10.978   9.594  1.00  0.00     0.045 C 
ENDBRANCH  16  17
ENDBRANCH  15  16
ENDBRANCH  13  15
ENDBRANCH   4  13
TORSDOF 8
ENDMDL
