MODEL 1
REMARK VINA RESULT:    -5.141      0.000      0.000
REMARK INTER + INTRA:          -8.169
REMARK INTER:                  -7.395
REMARK INTRA:                  -0.775
REMARK UNBOUND:                -0.775
REMARK SMILES Cc1ccncc1/C=C/Nc1ccc(CCCN)cc1
REMARK SMILES IDX 14 1 13 2 12 3 11 4 20 5 19 6 15 7 16 8 17 9 18 10 10 13
REMARK SMILES IDX 9 15 8 16 7 17 2 18 6 19 3 20 5 21 4 22 1 23
REMARK H PARENT 18 11 18 12 10 14
ROOT
ATOM      1  C   UNL     1       9.445  -5.695  11.787  1.00  0.00    -0.048 A 
ATOM      2  C   UNL     1      10.628  -5.082  11.371  1.00  0.00     0.006 A 
ATOM      3  C   UNL     1      10.663  -4.320  10.207  1.00  0.00     0.026 A 
ATOM      4  C   UNL     1       9.546  -4.204   9.375  1.00  0.00     0.038 A 
ATOM      5  C   UNL     1       8.374  -4.865   9.761  1.00  0.00     0.026 A 
ATOM      6  C   UNL     1       8.323  -5.603  10.954  1.00  0.00     0.006 A 
ENDROOT
BRANCH   1   7
ATOM      7  C   UNL     1       9.369  -6.439  13.097  1.00  0.00     0.037 C 
BRANCH   7   8
ATOM      8  C   UNL     1       8.671  -7.812  13.074  1.00  0.00     0.020 C 
BRANCH   8   9
ATOM      9  C   UNL     1       9.586  -9.030  12.884  1.00  0.00     0.078 C 
BRANCH   9  10
ATOM     10  N   UNL     1      10.096  -9.211  11.533  1.00  0.00    -0.330 NA
ATOM     11  H   UNL     1      10.892  -9.849  11.543  1.00  0.00     0.118 HD
ATOM     12  H   UNL     1      10.459  -8.328  11.172  1.00  0.00     0.118 HD
ENDBRANCH   9  10
ENDBRANCH   8   9
ENDBRANCH   7   8
ENDBRANCH   1   7
BRANCH   4  13
ATOM     13  N   UNL     1       9.607  -3.535   8.137  1.00  0.00    -0.362 N 
ATOM     14  H   UNL     1       9.266  -2.582   8.119  1.00  0.00     0.166 HD
BRANCH  13  15
ATOM     15  C   UNL     1       9.840  -4.140   6.931  1.00  0.00     0.083 C 
BRANCH  15  16
ATOM     16  C   UNL     1       9.572  -3.696   5.696  1.00  0.00     0.027 C 
BRANCH  16  17
ATOM     17  C   UNL     1       8.385  -4.160   4.961  1.00  0.00    -0.003 A 
ATOM     18  C   UNL     1       7.457  -3.271   4.390  1.00  0.00    -0.041 A 
ATOM     19  C   UNL     1       8.108  -5.529   4.832  1.00  0.00     0.119 A 
ATOM     20  C   UNL     1       6.339  -3.799   3.726  1.00  0.00     0.024 A 
ATOM     21  N   UNL     1       7.044  -6.055   4.180  1.00  0.00    -0.264 NA
ATOM     22  C   UNL     1       6.185  -5.174   3.639  1.00  0.00     0.111 A 
ATOM     23  C   UNL     1       7.600  -1.779   4.498  1.00  0.00     0.045 C 
ENDBRANCH  16  17
ENDBRANCH  15  16
ENDBRANCH  13  15
ENDBRANCH   4  13
TORSDOF 8
ENDMDL
MODEL 2
REMARK VINA RESULT:    -4.990      1.345      2.042
REMARK INTER + INTRA:          -7.952
REMARK INTER:                  -7.318
REMARK INTRA:                  -0.634
REMARK UNBOUND:                -0.775
REMARK SMILES Cc1ccncc1/C=C/Nc1ccc(CCCN)cc1
REMARK SMILES IDX 14 1 13 2 12 3 11 4 20 5 19 6 15 7 16 8 17 9 18 10 10 13
REMARK SMILES IDX 9 15 8 16 7 17 2 18 6 19 3 20 5 21 4 22 1 23
REMARK H PARENT 18 11 18 12 10 14
ROOT
ATOM      1  C   UNL     1       9.529  -5.691  11.825  1.00  0.00    -0.048 A 
ATOM      2  C   UNL     1      10.671  -5.056  11.333  1.00  0.00     0.006 A 
ATOM      3  C   UNL     1      10.616  -4.299  10.166  1.00  0.00     0.026 A 
ATOM      4  C   UNL     1       9.447  -4.210   9.407  1.00  0.00     0.038 A 
ATOM      5  C   UNL     1       8.316  -4.892   9.869  1.00  0.00     0.026 A 
ATOM      6  C   UNL     1       8.356  -5.625  11.065  1.00  0.00     0.006 A 
ENDROOT
BRANCH   1   7
ATOM      7  C   UNL     1       9.552  -6.430  13.140  1.00  0.00     0.037 C 
BRANCH   7   8
ATOM      8  C   UNL     1       8.725  -7.727  13.219  1.00  0.00     0.020 C 
BRANCH   8   9
ATOM      9  C   UNL     1       9.490  -9.031  12.948  1.00  0.00     0.078 C 
BRANCH   9  10
ATOM     10  N   UNL     1       9.972  -9.189  11.583  1.00  0.00    -0.330 NA
ATOM     11  H   UNL     1      10.163 -10.172  11.392  1.00  0.00     0.118 HD
ATOM     12  H   UNL     1      10.866  -8.710  11.468  1.00  0.00     0.118 HD
ENDBRANCH   9  10
ENDBRANCH   8   9
ENDBRANCH   7   8
ENDBRANCH   1   7
BRANCH   4  13
ATOM     13  N   UNL     1       9.416  -3.545   8.165  1.00  0.00    -0.362 N 
ATOM     14  H   UNL     1       8.930  -2.657   8.138  1.00  0.00     0.166 HD
BRANCH  13  15
ATOM     15  C   UNL     1       9.755  -4.112   6.966  1.00  0.00     0.083 C 
BRANCH  15  16
ATOM     16  C   UNL     1       9.036  -4.200   5.839  1.00  0.00     0.027 C 
BRANCH  16  17
ATOM     17  C   UNL     1       8.386  -3.016   5.255  1.00  0.00    -0.003 A 
ATOM     18  C   UNL     1       7.270  -3.111   4.406  1.00  0.00    -0.041 A 
ATOM     19  C   UNL     1       8.886  -1.728   5.498  1.00  0.00     0.119 A 
ATOM     20  C   UNL     1       6.726  -1.932   3.874  1.00  0.00     0.024 A 
ATOM     21  N   UNL     1       8.364  -0.580   5.007  1.00  0.00    -0.264 NA
ATOM     22  C   UNL     1       7.291  -0.711   4.207  1.00  0.00     0.111 A 
ATOM     23  C   UNL     1       6.663  -4.430   4.018  1.00  0.00     0.045 C 
ENDBRANCH  16  17
ENDBRANCH  15  16
ENDBRANCH  13  15
ENDBRANCH   4  13
TORSDOF 8
ENDMDL
MODEL 3
REMARK VINA RESULT:    -4.908      2.028      8.450
REMARK INTER + INTRA:          -7.835
REMARK INTER:                  -7.297
REMARK INTRA:                  -0.538
REMARK UNBOUND:                -0.775
REMARK SMILES Cc1ccncc1/C=C/Nc1ccc(CCCN)cc1
REMARK SMILES IDX 14 1 13 2 12 3 11 4 20 5 19 6 15 7 16 8 17 9 18 10 10 13
REMARK SMILES IDX 9 15 8 16 7 17 2 18 6 19 3 20 5 21 4 22 1 23
REMARK H PARENT 18 11 18 12 10 14
ROOT
ATOM      1  C   UNL     1       7.795  -3.309   4.003  1.00  0.00    -0.048 A 
ATOM      2  C   UNL     1       8.306  -2.306   4.830  1.00  0.00     0.006 A 
ATOM      3  C   UNL     1       9.029  -2.629   5.975  1.00  0.00     0.026 A 
ATOM      4  C   UNL     1       9.203  -3.954   6.381  1.00  0.00     0.038 A 
ATOM      5  C   UNL     1       8.643  -4.959   5.584  1.00  0.00     0.026 A 
ATOM      6  C   UNL     1       7.946  -4.641   4.408  1.00  0.00     0.006 A 
ENDROOT
BRANCH   1   7
ATOM      7  C   UNL     1       7.098  -2.974   2.709  1.00  0.00     0.037 C 
BRANCH   7   8
ATOM      8  C   UNL     1       5.944  -3.902   2.284  1.00  0.00     0.020 C 
BRANCH   8   9
ATOM      9  C   UNL     1       5.876  -4.253   0.790  1.00  0.00     0.078 C 
BRANCH   9  10
ATOM     10  N   UNL     1       5.438  -3.170  -0.078  1.00  0.00    -0.330 NA
ATOM     11  H   UNL     1       4.849  -2.522   0.444  1.00  0.00     0.118 HD
ATOM     12  H   UNL     1       4.847  -3.535  -0.825  1.00  0.00     0.118 HD
ENDBRANCH   9  10
ENDBRANCH   8   9
ENDBRANCH   7   8
ENDBRANCH   1   7
BRANCH   4  13
ATOM     13  N   UNL     1       9.830  -4.283   7.599  1.00  0.00    -0.362 N 
ATOM     14  H   UNL     1      10.471  -5.066   7.583  1.00  0.00     0.166 HD
BRANCH  13  15
ATOM     15  C   UNL     1       9.453  -3.805   8.826  1.00  0.00     0.083 C 
BRANCH  15  16
ATOM     16  C   UNL     1       9.206  -4.480   9.957  1.00  0.00     0.027 C 
BRANCH  16  17
ATOM     17  C   UNL     1      10.302  -4.960  10.812  1.00  0.00    -0.003 A 
ATOM     18  C   UNL     1      10.073  -5.695  11.989  1.00  0.00    -0.041 A 
ATOM     19  C   UNL     1      11.638  -4.668  10.502  1.00  0.00     0.119 A 
ATOM     20  C   UNL     1      11.176  -6.093  12.760  1.00  0.00     0.024 A 
ATOM     21  N   UNL     1      12.714  -5.060  11.224  1.00  0.00    -0.264 NA
ATOM     22  C   UNL     1      12.455  -5.768  12.337  1.00  0.00     0.111 A 
ATOM     23  C   UNL     1       8.690  -6.033  12.470  1.00  0.00     0.045 C 
ENDBRANCH  16  17
ENDBRANCH  15  16
ENDBRANCH  13  15
ENDBRANCH   4  13
TORSDOF 8
ENDMDL
MODEL 4
REMARK VINA RESULT:    -4.788      2.373      8.363
REMARK INTER + INTRA:          -7.662
REMARK INTER:                  -7.028
REMARK INTRA:                  -0.634
REMARK UNBOUND:                -0.775
REMARK SMILES Cc1ccncc1/C=C/Nc1ccc(CCCN)cc1
REMARK SMILES IDX 14 1 13 2 12 3 11 4 20 5 19 6 15 7 16 8 17 9 18 10 10 13
REMARK SMILES IDX 9 15 8 16 7 17 2 18 6 19 3 20 5 21 4 22 1 23
REMARK H PARENT 18 11 18 12 10 14
ROOT
ATOM      1  C   UNL     1       7.552  -2.107   4.177  1.00  0.00    -0.048 A 
ATOM      2  C   UNL     1       8.329  -1.344   5.050  1.00  0.00     0.006 A 
ATOM      3  C   UNL     1       9.182  -1.958   5.963  1.00  0.00     0.026 A 
ATOM      4  C   UNL     1       9.236  -3.348   6.095  1.00  0.00     0.038 A 
ATOM      5  C   UNL     1       8.414  -4.113   5.258  1.00  0.00     0.026 A 
ATOM      6  C   UNL     1       7.581  -3.501   4.310  1.00  0.00     0.006 A 
ENDROOT
BRANCH   1   7
ATOM      7  C   UNL     1       6.701  -1.454   3.116  1.00  0.00     0.037 C 
BRANCH   7   8
ATOM      8  C   UNL     1       5.179  -1.444   3.359  1.00  0.00     0.020 C 
BRANCH   8   9
ATOM      9  C   UNL     1       4.685  -0.533   4.492  1.00  0.00     0.078 C 
BRANCH   9  10
ATOM     10  N   UNL     1       4.863   0.893   4.257  1.00  0.00    -0.330 NA
ATOM     11  H   UNL     1       5.847   1.099   4.091  1.00  0.00     0.118 HD
ATOM     12  H   UNL     1       4.610   1.422   5.092  1.00  0.00     0.118 HD
ENDBRANCH   9  10
ENDBRANCH   8   9
ENDBRANCH   7   8
ENDBRANCH   1   7
BRANCH   4  13
ATOM     13  N   UNL     1      10.005  -3.972   7.095  1.00  0.00    -0.362 N 
ATOM     14  H   UNL     1      10.950  -4.234   6.844  1.00  0.00     0.166 HD
BRANCH  13  15
ATOM     15  C   UNL     1       9.506  -4.475   8.267  1.00  0.00     0.083 C 
BRANCH  15  16
ATOM     16  C   UNL     1       9.647  -4.009   9.515  1.00  0.00     0.027 C 
BRANCH  16  17
ATOM     17  C   UNL     1      10.535  -4.674  10.481  1.00  0.00    -0.003 A 
ATOM     18  C   UNL     1      10.045  -5.463  11.537  1.00  0.00    -0.041 A 
ATOM     19  C   UNL     1      11.927  -4.515  10.407  1.00  0.00     0.119 A 
ATOM     20  C   UNL     1      10.961  -6.042  12.427  1.00  0.00     0.024 A 
ATOM     21  N   UNL     1      12.826  -5.080  11.246  1.00  0.00    -0.264 NA
ATOM     22  C   UNL     1      12.319  -5.835  12.237  1.00  0.00     0.111 A 
ATOM     23  C   UNL     1       8.575  -5.675  11.768  1.00  0.00     0.045 C 
ENDBRANCH  16  17
ENDBRANCH  15  16
ENDBRANCH  13  15
ENDBRANCH   4  13
TORSDOF 8
ENDMDL
MODEL 5
REMARK VINA RESULT:    -4.780      2.024      8.475
REMARK INTER + INTRA:          -7.651
REMARK INTER:                  -7.114
REMARK INTRA:                  -0.537
REMARK UNBOUND:                -0.775
REMARK SMILES Cc1ccncc1/C=C/Nc1ccc(CCCN)cc1
REMARK SMILES IDX 14 1 13 2 12 3 11 4 20 5 19 6 15 7 16 8 17 9 18 10 10 13
REMARK SMILES IDX 9 15 8 16 7 17 2 18 6 19 3 20 5 21 4 22 1 23
REMARK H PARENT 18 11 18 12 10 14
ROOT
ATOM      1  C   UNL     1       7.772  -3.345   3.963  1.00  0.00    -0.048 A 
ATOM      2  C   UNL     1       8.051  -4.656   4.356  1.00  0.00     0.006 A 
ATOM      3  C   UNL     1       8.659  -4.916   5.581  1.00  0.00     0.026 A 
ATOM      4  C   UNL     1       9.083  -3.884   6.422  1.00  0.00     0.038 A 
ATOM      5  C   UNL     1       8.856  -2.567   6.002  1.00  0.00     0.026 A 
ATOM      6  C   UNL     1       8.208  -2.300   4.786  1.00  0.00     0.006 A 
ENDROOT
BRANCH   1   7
ATOM      7  C   UNL     1       7.023  -3.056   2.686  1.00  0.00     0.037 C 
BRANCH   7   8
ATOM      8  C   UNL     1       5.972  -4.095   2.250  1.00  0.00     0.020 C 
BRANCH   8   9
ATOM      9  C   UNL     1       5.812  -4.297   0.736  1.00  0.00     0.078 C 
BRANCH   9  10
ATOM     10  N   UNL     1       5.442  -3.101  -0.008  1.00  0.00    -0.330 NA
ATOM     11  H   UNL     1       6.165  -2.877  -0.690  1.00  0.00     0.118 HD
ATOM     12  H   UNL     1       5.398  -2.297   0.619  1.00  0.00     0.118 HD
ENDBRANCH   9  10
ENDBRANCH   8   9
ENDBRANCH   7   8
ENDBRANCH   1   7
BRANCH   4  13
ATOM     13  N   UNL     1       9.805  -4.136   7.604  1.00  0.00    -0.362 N 
ATOM     14  H   UNL     1      10.565  -4.801   7.539  1.00  0.00     0.166 HD
BRANCH  13  15
ATOM     15  C   UNL     1       9.407  -3.759   8.859  1.00  0.00     0.083 C 
BRANCH  15  16
ATOM     16  C   UNL     1       9.167  -4.520   9.935  1.00  0.00     0.027 C 
BRANCH  16  17
ATOM     17  C   UNL     1      10.262  -4.977  10.804  1.00  0.00    -0.003 A 
ATOM     18  C   UNL     1      10.034  -5.707  11.984  1.00  0.00    -0.041 A 
ATOM     19  C   UNL     1      11.597  -4.664  10.505  1.00  0.00     0.119 A 
ATOM     20  C   UNL     1      11.136  -6.083  12.768  1.00  0.00     0.024 A 
ATOM     21  N   UNL     1      12.672  -5.033  11.240  1.00  0.00    -0.264 NA
ATOM     22  C   UNL     1      12.413  -5.739  12.356  1.00  0.00     0.111 A 
ATOM     23  C   UNL     1       8.652  -6.066  12.454  1.00  0.00     0.045 C 
ENDBRANCH  16  17
ENDBRANCH  15  16
ENDBRANCH  13  15
ENDBRANCH   4  13
TORSDOF 8
ENDMDL
MODEL 6
REMARK VINA RESULT:    -4.755      2.243      8.252
REMARK INTER + INTRA:          -7.615
REMARK INTER:                  -6.982
REMARK INTRA:                  -0.632
REMARK UNBOUND:                -0.775
REMARK SMILES Cc1ccncc1/C=C/Nc1ccc(CCCN)cc1
REMARK SMILES IDX 14 1 13 2 12 3 11 4 20 5 19 6 15 7 16 8 17 9 18 10 10 13
REMARK SMILES IDX 9 15 8 16 7 17 2 18 6 19 3 20 5 21 4 22 1 23
REMARK H PARENT 18 11 18 12 10 14
ROOT
ATOM      1  C   UNL     1       7.521  -2.165   4.111  1.00  0.00    -0.048 A 
ATOM      2  C   UNL     1       8.307  -1.446   5.014  1.00  0.00     0.006 A 
ATOM      3  C   UNL     1       9.160  -2.105   5.894  1.00  0.00     0.026 A 
ATOM      4  C   UNL     1       9.206  -3.500   5.963  1.00  0.00     0.038 A 
ATOM      5  C   UNL     1       8.377  -4.222   5.097  1.00  0.00     0.026 A 
ATOM      6  C   UNL     1       7.543  -3.563   4.181  1.00  0.00     0.006 A 
ENDROOT
BRANCH   1   7
ATOM      7  C   UNL     1       6.669  -1.460   3.085  1.00  0.00     0.037 C 
BRANCH   7   8
ATOM      8  C   UNL     1       5.149  -1.445   3.341  1.00  0.00     0.020 C 
BRANCH   8   9
ATOM      9  C   UNL     1       4.667  -0.533   4.478  1.00  0.00     0.078 C 
BRANCH   9  10
ATOM     10  N   UNL     1       4.891   0.890   4.264  1.00  0.00    -0.330 NA
ATOM     11  H   UNL     1       4.450   1.185   3.393  1.00  0.00     0.118 HD
ATOM     12  H   UNL     1       5.887   1.075   4.142  1.00  0.00     0.118 HD
ENDBRANCH   9  10
ENDBRANCH   8   9
ENDBRANCH   7   8
ENDBRANCH   1   7
BRANCH   4  13
ATOM     13  N   UNL     1       9.977  -4.172   6.931  1.00  0.00    -0.362 N 
ATOM     14  H   UNL     1      10.861  -4.557   6.621  1.00  0.00     0.166 HD
BRANCH  13  15
ATOM     15  C   UNL     1       9.520  -4.563   8.162  1.00  0.00     0.083 C 
BRANCH  15  16
ATOM     16  C   UNL     1       9.767  -4.027   9.365  1.00  0.00     0.027 C 
BRANCH  16  17
ATOM     17  C   UNL     1       9.725  -4.846  10.586  1.00  0.00    -0.003 A 
ATOM     18  C   UNL     1      10.884  -5.183  11.307  1.00  0.00    -0.041 A 
ATOM     19  C   UNL     1       8.512  -5.361  11.066  1.00  0.00     0.119 A 
ATOM     20  C   UNL     1      10.756  -5.988  12.449  1.00  0.00     0.024 A 
ATOM     21  N   UNL     1       8.369  -6.124  12.175  1.00  0.00    -0.264 NA
ATOM     22  C   UNL     1       9.499  -6.417  12.843  1.00  0.00     0.111 A 
ATOM     23  C   UNL     1      12.256  -4.745  10.878  1.00  0.00     0.045 C 
ENDBRANCH  16  17
ENDBRANCH  15  16
ENDBRANCH  13  15
ENDBRANCH   4  13
TORSDOF 8
ENDMDL
MODEL 7
REMARK VINA RESULT:    -4.671      1.857      8.385
REMARK INTER + INTRA:          -7.494
REMARK INTER:                  -7.024
REMARK INTRA:                  -0.470
REMARK UNBOUND:                -0.775
REMARK SMILES Cc1ccncc1/C=C/Nc1ccc(CCCN)cc1
REMARK SMILES IDX 14 1 13 2 12 3 11 4 20 5 19 6 15 7 16 8 17 9 18 10 10 13
REMARK SMILES IDX 9 15 8 16 7 17 2 18 6 19 3 20 5 21 4 22 1 23
REMARK H PARENT 18 11 18 12 10 14
ROOT
ATOM      1  C   UNL     1       7.662  -2.797   3.948  1.00  0.00    -0.048 A 
ATOM      2  C   UNL     1       8.238  -1.926   4.875  1.00  0.00     0.006 A 
ATOM      3  C   UNL     1       9.004  -2.416   5.929  1.00  0.00     0.026 A 
ATOM      4  C   UNL     1       9.160  -3.787   6.145  1.00  0.00     0.038 A 
ATOM      5  C   UNL     1       8.535  -4.663   5.249  1.00  0.00     0.026 A 
ATOM      6  C   UNL     1       7.794  -4.174   4.162  1.00  0.00     0.006 A 
ENDROOT
BRANCH   1   7
ATOM      7  C   UNL     1       6.916  -2.274   2.745  1.00  0.00     0.037 C 
BRANCH   7   8
ATOM      8  C   UNL     1       5.684  -3.081   2.291  1.00  0.00     0.020 C 
BRANCH   8   9
ATOM      9  C   UNL     1       5.869  -3.942   1.033  1.00  0.00     0.078 C 
BRANCH   9  10
ATOM     10  N   UNL     1       5.424  -3.322  -0.207  1.00  0.00    -0.330 NA
ATOM     11  H   UNL     1       5.795  -3.835  -1.006  1.00  0.00     0.118 HD
ATOM     12  H   UNL     1       5.806  -2.379  -0.286  1.00  0.00     0.118 HD
ENDBRANCH   9  10
ENDBRANCH   8   9
ENDBRANCH   7   8
ENDBRANCH   1   7
BRANCH   4  13
ATOM     13  N   UNL     1       9.832  -4.291   7.275  1.00  0.00    -0.362 N 
ATOM     14  H   UNL     1      10.643  -4.871   7.099  1.00  0.00     0.166 HD
BRANCH  13  15
ATOM     15  C   UNL     1       9.337  -4.275   8.552  1.00  0.00     0.083 C 
BRANCH  15  16
ATOM     16  C   UNL     1       9.978  -4.042   9.704  1.00  0.00     0.027 C 
BRANCH  16  17
ATOM     17  C   UNL     1       9.870  -4.972  10.838  1.00  0.00    -0.003 A 
ATOM     18  C   UNL     1      10.992  -5.407  11.566  1.00  0.00    -0.041 A 
ATOM     19  C   UNL     1       8.628  -5.500  11.220  1.00  0.00     0.119 A 
ATOM     20  C   UNL     1      10.802  -6.316  12.618  1.00  0.00     0.024 A 
ATOM     21  N   UNL     1       8.424  -6.363  12.244  1.00  0.00    -0.264 NA
ATOM     22  C   UNL     1       9.520  -6.748  12.921  1.00  0.00     0.111 A 
ATOM     23  C   UNL     1      12.389  -4.965  11.232  1.00  0.00     0.045 C 
ENDBRANCH  16  17
ENDBRANCH  15  16
ENDBRANCH  13  15
ENDBRANCH   4  13
TORSDOF 8
ENDMDL
MODEL 8
REMARK VINA RESULT:    -4.415      2.360      4.507
REMARK INTER + INTRA:          -7.126
REMARK INTER:                  -6.409
REMARK INTRA:                  -0.717
REMARK UNBOUND:                -0.775
REMARK SMILES Cc1ccncc1/C=C/Nc1ccc(CCCN)cc1
REMARK SMILES IDX 14 1 13 2 12 3 11 4 20 5 19 6 15 7 16 8 17 9 18 10 10 13
REMARK SMILES IDX 9 15 8 16 7 17 2 18 6 19 3 20 5 21 4 22 1 23
REMARK H PARENT 18 11 18 12 10 14
ROOT
ATOM      1  C   UNL     1       9.537  -4.140   7.658  1.00  0.00    -0.048 A 
ATOM      2  C   UNL     1       8.344  -3.598   7.176  1.00  0.00     0.006 A 
ATOM      3  C   UNL     1       8.089  -3.544   5.809  1.00  0.00     0.026 A 
ATOM      4  C   UNL     1       9.039  -3.955   4.871  1.00  0.00     0.038 A 
ATOM      5  C   UNL     1      10.259  -4.447   5.351  1.00  0.00     0.026 A 
ATOM      6  C   UNL     1      10.506  -4.539   6.729  1.00  0.00     0.006 A 
ENDROOT
BRANCH   1   7
ATOM      7  C   UNL     1       9.782  -4.296   9.138  1.00  0.00     0.037 C 
BRANCH   7   8
ATOM      8  C   UNL     1       8.565  -4.673  10.005  1.00  0.00     0.020 C 
BRANCH   8   9
ATOM      9  C   UNL     1       8.829  -5.675  11.138  1.00  0.00     0.078 C 
BRANCH   9  10
ATOM     10  N   UNL     1      10.232  -5.861  11.480  1.00  0.00    -0.330 NA
ATOM     11  H   UNL     1      10.590  -5.031  11.952  1.00  0.00     0.118 HD
ATOM     12  H   UNL     1      10.791  -5.955  10.632  1.00  0.00     0.118 HD
ENDBRANCH   9  10
ENDBRANCH   8   9
ENDBRANCH   7   8
ENDBRANCH   1   7
BRANCH   4  13
ATOM     13  N   UNL     1       8.837  -3.794   3.486  1.00  0.00    -0.362 N 
ATOM     14  H   UNL     1       9.666  -3.738   2.909  1.00  0.00     0.166 HD
BRANCH  13  15
ATOM     15  C   UNL     1       7.644  -3.455   2.905  1.00  0.00     0.083 C 
BRANCH  15  16
ATOM     16  C   UNL     1       7.243  -2.270   2.426  1.00  0.00     0.027 C 
BRANCH  16  17
ATOM     17  C   UNL     1       6.185  -1.497   3.093  1.00  0.00    -0.003 A 
ATOM     18  C   UNL     1       6.455  -0.590   4.133  1.00  0.00    -0.041 A 
ATOM     19  C   UNL     1       4.838  -1.665   2.737  1.00  0.00     0.119 A 
ATOM     20  C   UNL     1       5.382   0.088   4.731  1.00  0.00     0.024 A 
ATOM     21  N   UNL     1       3.793  -1.006   3.291  1.00  0.00    -0.264 NA
ATOM     22  C   UNL     1       4.093  -0.140   4.276  1.00  0.00     0.111 A 
ATOM     23  C   UNL     1       7.845  -0.351   4.652  1.00  0.00     0.045 C 
ENDBRANCH  16  17
ENDBRANCH  15  16
ENDBRANCH  13  15
ENDBRANCH   4  13
TORSDOF 8
ENDMDL
MODEL 9
REMARK VINA RESULT:    -3.816      2.230      3.967
REMARK INTER + INTRA:          -6.264
REMARK INTER:                  -5.550
REMARK INTRA:                  -0.714
REMARK UNBOUND:                -0.775
REMARK SMILES Cc1ccncc1/C=C/Nc1ccc(CCCN)cc1
REMARK SMILES IDX 14 1 13 2 12 3 11 4 20 5 19 6 15 7 16 8 17 9 18 10 10 13
REMARK SMILES IDX 9 15 8 16 7 17 2 18 6 19 3 20 5 21 4 22 1 23
REMARK H PARENT 18 11 18 12 10 14
ROOT
ATOM      1  C   UNL     1      10.089  -4.275   8.420  1.00  0.00    -0.048 A 
ATOM      2  C   UNL     1       8.775  -3.833   8.257  1.00  0.00     0.006 A 
ATOM      3  C   UNL     1       8.178  -3.828   7.000  1.00  0.00     0.026 A 
ATOM      4  C   UNL     1       8.887  -4.188   5.851  1.00  0.00     0.038 A 
ATOM      5  C   UNL     1      10.223  -4.578   6.006  1.00  0.00     0.026 A 
ATOM      6  C   UNL     1      10.818  -4.620   7.276  1.00  0.00     0.006 A 
ENDROOT
BRANCH   1   7
ATOM      7  C   UNL     1      10.714  -4.379   9.789  1.00  0.00     0.037 C 
BRANCH   7   8
ATOM      8  C   UNL     1       9.816  -4.919  10.919  1.00  0.00     0.020 C 
BRANCH   8   9
ATOM      9  C   UNL     1      10.545  -5.525  12.127  1.00  0.00     0.078 C 
BRANCH   9  10
ATOM     10  N   UNL     1       9.843  -5.401  13.396  1.00  0.00    -0.330 NA
ATOM     11  H   UNL     1       9.521  -6.316  13.708  1.00  0.00     0.118 HD
ATOM     12  H   UNL     1       8.999  -4.840  13.277  1.00  0.00     0.118 HD
ENDBRANCH   9  10
ENDBRANCH   8   9
ENDBRANCH   7   8
ENDBRANCH   1   7
BRANCH   4  13
ATOM     13  N   UNL     1       8.327  -4.073   4.564  1.00  0.00    -0.362 N 
ATOM     14  H   UNL     1       8.461  -3.190   4.088  1.00  0.00     0.166 HD
BRANCH  13  15
ATOM     15  C   UNL     1       7.418  -4.945   4.026  1.00  0.00     0.083 C 
BRANCH  15  16
ATOM     16  C   UNL     1       6.138  -4.732   3.691  1.00  0.00     0.027 C 
BRANCH  16  17
ATOM     17  C   UNL     1       5.562  -3.379   3.703  1.00  0.00    -0.003 A 
ATOM     18  C   UNL     1       5.387  -2.624   2.530  1.00  0.00    -0.041 A 
ATOM     19  C   UNL     1       5.195  -2.763   4.909  1.00  0.00     0.119 A 
ATOM     20  C   UNL     1       4.852  -1.331   2.634  1.00  0.00     0.024 A 
ATOM     21  N   UNL     1       4.662  -1.525   5.026  1.00  0.00    -0.264 NA
ATOM     22  C   UNL     1       4.500  -0.838   3.880  1.00  0.00     0.111 A 
ATOM     23  C   UNL     1       5.786  -3.138   1.175  1.00  0.00     0.045 C 
ENDBRANCH  16  17
ENDBRANCH  15  16
ENDBRANCH  13  15
ENDBRANCH   4  13
TORSDOF 8
ENDMDL
