MODEL 1
REMARK VINA RESULT:    -5.141      0.000      0.000
REMARK INTER + INTRA:          -7.979
REMARK INTER:                  -7.395
REMARK INTRA:                  -0.584
REMARK UNBOUND:                -0.584
REMARK SMILES Cc1ccncc1/C=C/Nc1ccc(CCCN)cc1
REMARK SMILES IDX 14 1 13 2 12 3 11 4 20 5 19 6 15 7 16 8 17 9 18 10 10 13
REMARK SMILES IDX 9 15 8 16 7 17 2 18 6 19 3 20 5 21 4 22 1 23
REMARK H PARENT 18 11 18 12 10 14
ROOT
ATOM      1  C   UNL     1       5.238  -0.841  -9.606  1.00  0.00    -0.048 A 
ATOM      2  C   UNL     1       5.737  -2.145  -9.622  1.00  0.00     0.006 A 
ATOM      3  C   UNL     1       6.048  -2.771 -10.826  1.00  0.00     0.026 A 
ATOM      4  C   UNL     1       5.804  -2.156 -12.056  1.00  0.00     0.038 A 
ATOM      5  C   UNL     1       5.251  -0.870 -12.043  1.00  0.00     0.026 A 
ATOM      6  C   UNL     1       4.971  -0.219 -10.832  1.00  0.00     0.006 A 
ENDROOT
BRANCH   1   7
ATOM      7  C   UNL     1       4.992  -0.115  -8.307  1.00  0.00     0.037 C 
BRANCH   7   8
ATOM      8  C   UNL     1       3.729   0.764  -8.234  1.00  0.00     0.020 C 
BRANCH   8   9
ATOM      9  C   UNL     1       3.892   2.119  -7.528  1.00  0.00     0.078 C 
BRANCH   9  10
ATOM     10  N   UNL     1       4.035   2.046  -6.081  1.00  0.00    -0.330 NA
ATOM     11  H   UNL     1       4.659   2.782  -5.755  1.00  0.00     0.118 HD
ATOM     12  H   UNL     1       4.485   1.169  -5.816  1.00  0.00     0.118 HD
ENDBRANCH   9  10
ENDBRANCH   8   9
ENDBRANCH   7   8
ENDBRANCH   1   7
BRANCH   4  13
ATOM     13  N   UNL     1       6.005  -2.828 -13.277  1.00  0.00    -0.362 N 
ATOM     14  H   UNL     1       6.503  -2.321 -13.998  1.00  0.00     0.166 HD
BRANCH  13  15
ATOM     15  C   UNL     1       5.370  -3.984 -13.648  1.00  0.00     0.083 C 
BRANCH  15  16
ATOM     16  C   UNL     1       4.558  -4.205 -14.690  1.00  0.00     0.027 C 
BRANCH  16  17
ATOM     17  C   UNL     1       5.045  -4.874 -15.906  1.00  0.00    -0.003 A 
ATOM     18  C   UNL     1       4.305  -4.897 -17.102  1.00  0.00    -0.041 A 
ATOM     19  C   UNL     1       6.269  -5.559 -15.910  1.00  0.00     0.119 A 
ATOM     20  C   UNL     1       4.833  -5.580 -18.208  1.00  0.00     0.024 A 
ATOM     21  N   UNL     1       6.802  -6.207 -16.972  1.00  0.00    -0.264 NA
ATOM     22  C   UNL     1       6.069  -6.198 -18.100  1.00  0.00     0.111 A 
ATOM     23  C   UNL     1       2.954  -4.251 -17.224  1.00  0.00     0.045 C 
ENDBRANCH  16  17
ENDBRANCH  15  16
ENDBRANCH  13  15
ENDBRANCH   4  13
TORSDOF 8
ENDMDL
MODEL 2
REMARK VINA RESULT:    -5.130      2.128      2.669
REMARK INTER + INTRA:          -7.963
REMARK INTER:                  -7.415
REMARK INTRA:                  -0.548
REMARK UNBOUND:                -0.584
REMARK SMILES Cc1ccncc1/C=C/Nc1ccc(CCCN)cc1
REMARK SMILES IDX 14 1 13 2 12 3 11 4 20 5 19 6 15 7 16 8 17 9 18 10 10 13
REMARK SMILES IDX 9 15 8 16 7 17 2 18 6 19 3 20 5 21 4 22 1 23
REMARK H PARENT 18 11 18 12 10 14
ROOT
ATOM      1  C   UNL     1       5.268  -1.756  -8.774  1.00  0.00    -0.048 A 
ATOM      2  C   UNL     1       6.039  -2.893  -9.025  1.00  0.00     0.006 A 
ATOM      3  C   UNL     1       6.493  -3.175 -10.310  1.00  0.00     0.026 A 
ATOM      4  C   UNL     1       6.134  -2.382 -11.403  1.00  0.00     0.038 A 
ATOM      5  C   UNL     1       5.314  -1.273 -11.162  1.00  0.00     0.026 A 
ATOM      6  C   UNL     1       4.885  -0.963  -9.863  1.00  0.00     0.006 A 
ENDROOT
BRANCH   1   7
ATOM      7  C   UNL     1       4.855  -1.386  -7.371  1.00  0.00     0.037 C 
BRANCH   7   8
ATOM      8  C   UNL     1       3.435  -1.797  -6.937  1.00  0.00     0.020 C 
BRANCH   8   9
ATOM      9  C   UNL     1       3.143  -3.304  -6.925  1.00  0.00     0.078 C 
BRANCH   9  10
ATOM     10  N   UNL     1       3.552  -4.000  -5.713  1.00  0.00    -0.330 NA
ATOM     11  H   UNL     1       3.612  -5.002  -5.889  1.00  0.00     0.118 HD
ATOM     12  H   UNL     1       2.841  -3.892  -4.989  1.00  0.00     0.118 HD
ENDBRANCH   9  10
ENDBRANCH   8   9
ENDBRANCH   7   8
ENDBRANCH   1   7
BRANCH   4  13
ATOM     13  N   UNL     1       6.490  -2.727 -12.721  1.00  0.00    -0.362 N 
ATOM     14  H   UNL     1       7.406  -2.434 -13.036  1.00  0.00     0.166 HD
BRANCH  13  15
ATOM     15  C   UNL     1       5.618  -3.187 -13.672  1.00  0.00     0.083 C 
BRANCH  15  16
ATOM     16  C   UNL     1       5.417  -4.441 -14.099  1.00  0.00     0.027 C 
BRANCH  16  17
ATOM     17  C   UNL     1       4.881  -4.711 -15.442  1.00  0.00    -0.003 A 
ATOM     18  C   UNL     1       5.643  -5.335 -16.446  1.00  0.00    -0.041 A 
ATOM     19  C   UNL     1       3.581  -4.318 -15.791  1.00  0.00     0.119 A 
ATOM     20  C   UNL     1       5.062  -5.533 -17.708  1.00  0.00     0.024 A 
ATOM     21  N   UNL     1       2.998  -4.518 -16.996  1.00  0.00    -0.264 NA
ATOM     22  C   UNL     1       3.755  -5.125 -17.927  1.00  0.00     0.111 A 
ATOM     23  C   UNL     1       7.068  -5.760 -16.228  1.00  0.00     0.045 C 
ENDBRANCH  16  17
ENDBRANCH  15  16
ENDBRANCH  13  15
ENDBRANCH   4  13
TORSDOF 8
ENDMDL
MODEL 3
REMARK VINA RESULT:    -5.108      2.066      8.438
REMARK INTER + INTRA:          -7.932
REMARK INTER:                  -7.185
REMARK INTRA:                  -0.747
REMARK UNBOUND:                -0.584
REMARK SMILES Cc1ccncc1/C=C/Nc1ccc(CCCN)cc1
REMARK SMILES IDX 14 1 13 2 12 3 11 4 20 5 19 6 15 7 16 8 17 9 18 10 10 13
REMARK SMILES IDX 9 15 8 16 7 17 2 18 6 19 3 20 5 21 4 22 1 23
REMARK H PARENT 18 11 18 12 10 14
ROOT
ATOM      1  C   UNL     1       4.416  -5.282 -16.833  1.00  0.00    -0.048 A 
ATOM      2  C   UNL     1       5.778  -5.215 -16.534  1.00  0.00     0.006 A 
ATOM      3  C   UNL     1       6.211  -4.760 -15.292  1.00  0.00     0.026 A 
ATOM      4  C   UNL     1       5.314  -4.283 -14.333  1.00  0.00     0.038 A 
ATOM      5  C   UNL     1       3.951  -4.297 -14.653  1.00  0.00     0.026 A 
ATOM      6  C   UNL     1       3.506  -4.791 -15.889  1.00  0.00     0.006 A 
ENDROOT
BRANCH   1   7
ATOM      7  C   UNL     1       3.930  -5.868 -18.135  1.00  0.00     0.037 C 
BRANCH   7   8
ATOM      8  C   UNL     1       2.853  -5.069 -18.894  1.00  0.00     0.020 C 
BRANCH   8   9
ATOM      9  C   UNL     1       3.282  -3.692 -19.421  1.00  0.00     0.078 C 
BRANCH   9  10
ATOM     10  N   UNL     1       2.794  -2.558 -18.648  1.00  0.00    -0.330 NA
ATOM     11  H   UNL     1       1.777  -2.591 -18.584  1.00  0.00     0.118 HD
ATOM     12  H   UNL     1       3.009  -1.685 -19.130  1.00  0.00     0.118 HD
ENDBRANCH   9  10
ENDBRANCH   8   9
ENDBRANCH   7   8
ENDBRANCH   1   7
BRANCH   4  13
ATOM     13  N   UNL     1       5.752  -3.711 -13.124  1.00  0.00    -0.362 N 
ATOM     14  H   UNL     1       5.476  -4.184 -12.272  1.00  0.00     0.166 HD
BRANCH  13  15
ATOM     15  C   UNL     1       6.286  -2.456 -13.000  1.00  0.00     0.083 C 
BRANCH  15  16
ATOM     16  C   UNL     1       6.492  -1.730 -11.893  1.00  0.00     0.027 C 
BRANCH  16  17
ATOM     17  C   UNL     1       5.410  -0.937 -11.289  1.00  0.00    -0.003 A 
ATOM     18  C   UNL     1       4.933  -1.179  -9.989  1.00  0.00    -0.041 A 
ATOM     19  C   UNL     1       4.775   0.083 -12.013  1.00  0.00     0.119 A 
ATOM     20  C   UNL     1       3.880  -0.391  -9.499  1.00  0.00     0.024 A 
ATOM     21  N   UNL     1       3.772   0.864 -11.550  1.00  0.00    -0.264 NA
ATOM     22  C   UNL     1       3.350   0.609 -10.299  1.00  0.00     0.111 A 
ATOM     23  C   UNL     1       5.483  -2.276  -9.121  1.00  0.00     0.045 C 
ENDBRANCH  16  17
ENDBRANCH  15  16
ENDBRANCH  13  15
ENDBRANCH   4  13
TORSDOF 8
ENDMDL
MODEL 4
REMARK VINA RESULT:    -5.059      4.657      5.988
REMARK INTER + INTRA:          -7.861
REMARK INTER:                  -7.289
REMARK INTRA:                  -0.572
REMARK UNBOUND:                -0.584
REMARK SMILES Cc1ccncc1/C=C/Nc1ccc(CCCN)cc1
REMARK SMILES IDX 14 1 13 2 12 3 11 4 20 5 19 6 15 7 16 8 17 9 18 10 10 13
REMARK SMILES IDX 9 15 8 16 7 17 2 18 6 19 3 20 5 21 4 22 1 23
REMARK H PARENT 18 11 18 12 10 14
ROOT
ATOM      1  C   UNL     1       4.306  -1.502  -9.591  1.00  0.00    -0.048 A 
ATOM      2  C   UNL     1       4.292  -0.377 -10.417  1.00  0.00     0.006 A 
ATOM      3  C   UNL     1       5.175  -0.270 -11.488  1.00  0.00     0.026 A 
ATOM      4  C   UNL     1       6.153  -1.238 -11.730  1.00  0.00     0.038 A 
ATOM      5  C   UNL     1       6.205  -2.340 -10.868  1.00  0.00     0.026 A 
ATOM      6  C   UNL     1       5.293  -2.471  -9.810  1.00  0.00     0.006 A 
ENDROOT
BRANCH   1   7
ATOM      7  C   UNL     1       3.289  -1.676  -8.491  1.00  0.00     0.037 C 
BRANCH   7   8
ATOM      8  C   UNL     1       3.817  -2.183  -7.135  1.00  0.00     0.020 C 
BRANCH   8   9
ATOM      9  C   UNL     1       3.301  -3.556  -6.682  1.00  0.00     0.078 C 
BRANCH   9  10
ATOM     10  N   UNL     1       2.051  -3.529  -5.935  1.00  0.00    -0.330 NA
ATOM     11  H   UNL     1       2.243  -3.535  -4.934  1.00  0.00     0.118 HD
ATOM     12  H   UNL     1       1.515  -4.378  -6.116  1.00  0.00     0.118 HD
ENDBRANCH   9  10
ENDBRANCH   8   9
ENDBRANCH   7   8
ENDBRANCH   1   7
BRANCH   4  13
ATOM     13  N   UNL     1       7.125  -1.080 -12.736  1.00  0.00    -0.362 N 
ATOM     14  H   UNL     1       7.207  -1.831 -13.410  1.00  0.00     0.166 HD
BRANCH  13  15
ATOM     15  C   UNL     1       8.118  -0.137 -12.723  1.00  0.00     0.083 C 
BRANCH  15  16
ATOM     16  C   UNL     1       9.447  -0.308 -12.732  1.00  0.00     0.027 C 
BRANCH  16  17
ATOM     17  C   UNL     1      10.234  -0.101 -13.957  1.00  0.00    -0.003 A 
ATOM     18  C   UNL     1      11.626  -0.292 -14.000  1.00  0.00    -0.041 A 
ATOM     19  C   UNL     1       9.621   0.339 -15.140  1.00  0.00     0.119 A 
ATOM     20  C   UNL     1      12.303  -0.049 -15.205  1.00  0.00     0.024 A 
ATOM     21  N   UNL     1      10.256   0.561 -16.315  1.00  0.00    -0.264 NA
ATOM     22  C   UNL     1      11.585   0.358 -16.318  1.00  0.00     0.111 A 
ATOM     23  C   UNL     1      12.419  -0.710 -12.793  1.00  0.00     0.045 C 
ENDBRANCH  16  17
ENDBRANCH  15  16
ENDBRANCH  13  15
ENDBRANCH   4  13
TORSDOF 8
ENDMDL
MODEL 5
REMARK VINA RESULT:    -5.039      1.228      1.761
REMARK INTER + INTRA:          -7.833
REMARK INTER:                  -7.321
REMARK INTRA:                  -0.511
REMARK UNBOUND:                -0.584
REMARK SMILES Cc1ccncc1/C=C/Nc1ccc(CCCN)cc1
REMARK SMILES IDX 14 1 13 2 12 3 11 4 20 5 19 6 15 7 16 8 17 9 18 10 10 13
REMARK SMILES IDX 9 15 8 16 7 17 2 18 6 19 3 20 5 21 4 22 1 23
REMARK H PARENT 18 11 18 12 10 14
ROOT
ATOM      1  C   UNL     1       5.232  -1.284  -9.105  1.00  0.00    -0.048 A 
ATOM      2  C   UNL     1       5.853  -2.511  -9.346  1.00  0.00     0.006 A 
ATOM      3  C   UNL     1       6.181  -2.898 -10.642  1.00  0.00     0.026 A 
ATOM      4  C   UNL     1       5.836  -2.118 -11.749  1.00  0.00     0.038 A 
ATOM      5  C   UNL     1       5.163  -0.914 -11.512  1.00  0.00     0.026 A 
ATOM      6  C   UNL     1       4.863  -0.501 -10.205  1.00  0.00     0.006 A 
ENDROOT
BRANCH   1   7
ATOM      7  C   UNL     1       4.963  -0.809  -7.699  1.00  0.00     0.037 C 
BRANCH   7   8
ATOM      8  C   UNL     1       3.776   0.156  -7.510  1.00  0.00     0.020 C 
BRANCH   8   9
ATOM      9  C   UNL     1       4.138   1.618  -7.212  1.00  0.00     0.078 C 
BRANCH   9  10
ATOM     10  N   UNL     1       3.039   2.564  -7.346  1.00  0.00    -0.330 NA
ATOM     11  H   UNL     1       2.215   2.090  -7.715  1.00  0.00     0.118 HD
ATOM     12  H   UNL     1       3.273   3.280  -8.034  1.00  0.00     0.118 HD
ENDBRANCH   9  10
ENDBRANCH   8   9
ENDBRANCH   7   8
ENDBRANCH   1   7
BRANCH   4  13
ATOM     13  N   UNL     1       6.058  -2.558 -13.068  1.00  0.00    -0.362 N 
ATOM     14  H   UNL     1       6.721  -2.026 -13.618  1.00  0.00     0.166 HD
BRANCH  13  15
ATOM     15  C   UNL     1       5.277  -3.466 -13.732  1.00  0.00     0.083 C 
BRANCH  15  16
ATOM     16  C   UNL     1       5.643  -4.567 -14.401  1.00  0.00     0.027 C 
BRANCH  16  17
ATOM     17  C   UNL     1       5.046  -4.901 -15.704  1.00  0.00    -0.003 A 
ATOM     18  C   UNL     1       5.753  -5.596 -16.701  1.00  0.00    -0.041 A 
ATOM     19  C   UNL     1       3.740  -4.499 -16.021  1.00  0.00     0.119 A 
ATOM     20  C   UNL     1       5.116  -5.852 -17.924  1.00  0.00     0.024 A 
ATOM     21  N   UNL     1       3.105  -4.753 -17.189  1.00  0.00    -0.264 NA
ATOM     22  C   UNL     1       3.810  -5.428 -18.113  1.00  0.00     0.111 A 
ATOM     23  C   UNL     1       7.177  -6.039 -16.516  1.00  0.00     0.045 C 
ENDBRANCH  16  17
ENDBRANCH  15  16
ENDBRANCH  13  15
ENDBRANCH   4  13
TORSDOF 8
ENDMDL
MODEL 6
REMARK VINA RESULT:    -5.003      1.787      2.006
REMARK INTER + INTRA:          -7.781
REMARK INTER:                  -7.239
REMARK INTRA:                  -0.542
REMARK UNBOUND:                -0.584
REMARK SMILES Cc1ccncc1/C=C/Nc1ccc(CCCN)cc1
REMARK SMILES IDX 14 1 13 2 12 3 11 4 20 5 19 6 15 7 16 8 17 9 18 10 10 13
REMARK SMILES IDX 9 15 8 16 7 17 2 18 6 19 3 20 5 21 4 22 1 23
REMARK H PARENT 18 11 18 12 10 14
ROOT
ATOM      1  C   UNL     1       5.170  -1.547  -8.967  1.00  0.00    -0.048 A 
ATOM      2  C   UNL     1       5.877  -2.677  -9.383  1.00  0.00     0.006 A 
ATOM      3  C   UNL     1       6.202  -2.859 -10.724  1.00  0.00     0.026 A 
ATOM      4  C   UNL     1       5.770  -1.967 -11.709  1.00  0.00     0.038 A 
ATOM      5  C   UNL     1       5.012  -0.863 -11.301  1.00  0.00     0.026 A 
ATOM      6  C   UNL     1       4.714  -0.655  -9.946  1.00  0.00     0.006 A 
ENDROOT
BRANCH   1   7
ATOM      7  C   UNL     1       4.900  -1.288  -7.506  1.00  0.00     0.037 C 
BRANCH   7   8
ATOM      8  C   UNL     1       3.517  -1.709  -6.973  1.00  0.00     0.020 C 
BRANCH   8   9
ATOM      9  C   UNL     1       3.221  -3.216  -6.985  1.00  0.00     0.078 C 
BRANCH   9  10
ATOM     10  N   UNL     1       3.547  -3.916  -5.751  1.00  0.00    -0.330 NA
ATOM     11  H   UNL     1       4.534  -4.171  -5.745  1.00  0.00     0.118 HD
ATOM     12  H   UNL     1       3.037  -4.799  -5.703  1.00  0.00     0.118 HD
ENDBRANCH   9  10
ENDBRANCH   8   9
ENDBRANCH   7   8
ENDBRANCH   1   7
BRANCH   4  13
ATOM     13  N   UNL     1       5.992  -2.207 -13.079  1.00  0.00    -0.362 N 
ATOM     14  H   UNL     1       6.001  -1.397 -13.686  1.00  0.00     0.166 HD
BRANCH  13  15
ATOM     15  C   UNL     1       5.938  -3.438 -13.676  1.00  0.00     0.083 C 
BRANCH  15  16
ATOM     16  C   UNL     1       4.963  -3.975 -14.422  1.00  0.00     0.027 C 
BRANCH  16  17
ATOM     17  C   UNL     1       5.271  -4.800 -15.600  1.00  0.00    -0.003 A 
ATOM     18  C   UNL     1       4.397  -4.904 -16.697  1.00  0.00    -0.041 A 
ATOM     19  C   UNL     1       6.450  -5.558 -15.659  1.00  0.00     0.119 A 
ATOM     20  C   UNL     1       4.758  -5.733 -17.769  1.00  0.00     0.024 A 
ATOM     21  N   UNL     1       6.822  -6.348 -16.693  1.00  0.00    -0.264 NA
ATOM     22  C   UNL     1       5.965  -6.414 -17.727  1.00  0.00     0.111 A 
ATOM     23  C   UNL     1       3.076  -4.190 -16.743  1.00  0.00     0.045 C 
ENDBRANCH  16  17
ENDBRANCH  15  16
ENDBRANCH  13  15
ENDBRANCH   4  13
TORSDOF 8
ENDMDL
MODEL 7
REMARK VINA RESULT:    -4.938      2.309      8.952
REMARK INTER + INTRA:          -7.687
REMARK INTER:                  -7.117
REMARK INTRA:                  -0.570
REMARK UNBOUND:                -0.584
REMARK SMILES Cc1ccncc1/C=C/Nc1ccc(CCCN)cc1
REMARK SMILES IDX 14 1 13 2 12 3 11 4 20 5 19 6 15 7 16 8 17 9 18 10 10 13
REMARK SMILES IDX 9 15 8 16 7 17 2 18 6 19 3 20 5 21 4 22 1 23
REMARK H PARENT 18 11 18 12 10 14
ROOT
ATOM      1  C   UNL     1       4.443  -5.643 -17.349  1.00  0.00    -0.048 A 
ATOM      2  C   UNL     1       3.536  -5.055 -16.465  1.00  0.00     0.006 A 
ATOM      3  C   UNL     1       3.975  -4.480 -15.276  1.00  0.00     0.026 A 
ATOM      4  C   UNL     1       5.315  -4.537 -14.885  1.00  0.00     0.038 A 
ATOM      5  C   UNL     1       6.217  -5.177 -15.744  1.00  0.00     0.026 A 
ATOM      6  C   UNL     1       5.786  -5.725 -16.962  1.00  0.00     0.006 A 
ENDROOT
BRANCH   1   7
ATOM      7  C   UNL     1       3.994  -6.179 -18.686  1.00  0.00     0.037 C 
BRANCH   7   8
ATOM      8  C   UNL     1       2.510  -6.573 -18.810  1.00  0.00     0.020 C 
BRANCH   8   9
ATOM      9  C   UNL     1       2.225  -8.066 -19.026  1.00  0.00     0.078 C 
BRANCH   9  10
ATOM     10  N   UNL     1       1.421  -8.696 -17.988  1.00  0.00    -0.330 NA
ATOM     11  H   UNL     1       1.922  -9.491 -17.594  1.00  0.00     0.118 HD
ATOM     12  H   UNL     1       0.567  -9.082 -18.390  1.00  0.00     0.118 HD
ENDBRANCH   9  10
ENDBRANCH   8   9
ENDBRANCH   7   8
ENDBRANCH   1   7
BRANCH   4  13
ATOM     13  N   UNL     1       5.746  -4.064 -13.631  1.00  0.00    -0.362 N 
ATOM     14  H   UNL     1       6.138  -4.750 -12.997  1.00  0.00     0.166 HD
BRANCH  13  15
ATOM     15  C   UNL     1       5.447  -2.832 -13.115  1.00  0.00     0.083 C 
BRANCH  15  16
ATOM     16  C   UNL     1       6.112  -2.114 -12.200  1.00  0.00     0.027 C 
BRANCH  16  17
ATOM     17  C   UNL     1       6.017  -2.431 -10.767  1.00  0.00    -0.003 A 
ATOM     18  C   UNL     1       5.243  -1.667  -9.875  1.00  0.00    -0.041 A 
ATOM     19  C   UNL     1       6.737  -3.502 -10.218  1.00  0.00     0.119 A 
ATOM     20  C   UNL     1       5.228  -2.025  -8.518  1.00  0.00     0.024 A 
ATOM     21  N   UNL     1       6.720  -3.872  -8.916  1.00  0.00    -0.264 NA
ATOM     22  C   UNL     1       5.961  -3.124  -8.096  1.00  0.00     0.111 A 
ATOM     23  C   UNL     1       4.464  -0.460 -10.316  1.00  0.00     0.045 C 
ENDBRANCH  16  17
ENDBRANCH  15  16
ENDBRANCH  13  15
ENDBRANCH   4  13
TORSDOF 8
ENDMDL
MODEL 8
REMARK VINA RESULT:    -4.839      2.188      8.462
REMARK INTER + INTRA:          -7.544
REMARK INTER:                  -6.923
REMARK INTRA:                  -0.621
REMARK UNBOUND:                -0.584
REMARK SMILES Cc1ccncc1/C=C/Nc1ccc(CCCN)cc1
REMARK SMILES IDX 14 1 13 2 12 3 11 4 20 5 19 6 15 7 16 8 17 9 18 10 10 13
REMARK SMILES IDX 9 15 8 16 7 17 2 18 6 19 3 20 5 21 4 22 1 23
REMARK H PARENT 18 11 18 12 10 14
ROOT
ATOM      1  C   UNL     1       4.710  -4.962 -16.145  1.00  0.00    -0.048 A 
ATOM      2  C   UNL     1       3.723  -4.598 -15.227  1.00  0.00     0.006 A 
ATOM      3  C   UNL     1       4.062  -3.972 -14.031  1.00  0.00     0.026 A 
ATOM      4  C   UNL     1       5.394  -3.755 -13.669  1.00  0.00     0.038 A 
ATOM      5  C   UNL     1       6.387  -4.171 -14.563  1.00  0.00     0.026 A 
ATOM      6  C   UNL     1       6.050  -4.769 -15.788  1.00  0.00     0.006 A 
ENDROOT
BRANCH   1   7
ATOM      7  C   UNL     1       4.350  -5.549 -17.487  1.00  0.00     0.037 C 
BRANCH   7   8
ATOM      8  C   UNL     1       3.095  -4.979 -18.177  1.00  0.00     0.020 C 
BRANCH   8   9
ATOM      9  C   UNL     1       3.310  -3.722 -19.032  1.00  0.00     0.078 C 
BRANCH   9  10
ATOM     10  N   UNL     1       2.706  -2.507 -18.502  1.00  0.00    -0.330 NA
ATOM     11  H   UNL     1       2.634  -2.567 -17.488  1.00  0.00     0.118 HD
ATOM     12  H   UNL     1       1.748  -2.414 -18.840  1.00  0.00     0.118 HD
ENDBRANCH   9  10
ENDBRANCH   8   9
ENDBRANCH   7   8
ENDBRANCH   1   7
BRANCH   4  13
ATOM     13  N   UNL     1       5.748  -3.232 -12.411  1.00  0.00    -0.362 N 
ATOM     14  H   UNL     1       6.014  -3.901 -11.699  1.00  0.00     0.166 HD
BRANCH  13  15
ATOM     15  C   UNL     1       5.515  -1.944 -12.006  1.00  0.00     0.083 C 
BRANCH  15  16
ATOM     16  C   UNL     1       5.810  -1.359 -10.837  1.00  0.00     0.027 C 
BRANCH  16  17
ATOM     17  C   UNL     1       5.082  -1.706  -9.607  1.00  0.00    -0.003 A 
ATOM     18  C   UNL     1       3.964  -0.980  -9.161  1.00  0.00    -0.041 A 
ATOM     19  C   UNL     1       5.505  -2.771  -8.796  1.00  0.00     0.119 A 
ATOM     20  C   UNL     1       3.343  -1.365  -7.963  1.00  0.00     0.024 A 
ATOM     21  N   UNL     1       4.908  -3.166  -7.648  1.00  0.00    -0.264 NA
ATOM     22  C   UNL     1       3.836  -2.453  -7.261  1.00  0.00     0.111 A 
ATOM     23  C   UNL     1       3.435   0.216  -9.902  1.00  0.00     0.045 C 
ENDBRANCH  16  17
ENDBRANCH  15  16
ENDBRANCH  13  15
ENDBRANCH   4  13
TORSDOF 8
ENDMDL
MODEL 9
REMARK VINA RESULT:    -4.746      2.039      8.981
REMARK INTER + INTRA:          -7.411
REMARK INTER:                  -6.811
REMARK INTRA:                  -0.600
REMARK UNBOUND:                -0.584
REMARK SMILES Cc1ccncc1/C=C/Nc1ccc(CCCN)cc1
REMARK SMILES IDX 14 1 13 2 12 3 11 4 20 5 19 6 15 7 16 8 17 9 18 10 10 13
REMARK SMILES IDX 9 15 8 16 7 17 2 18 6 19 3 20 5 21 4 22 1 23
REMARK H PARENT 18 11 18 12 10 14
ROOT
ATOM      1  C   UNL     1       4.617  -5.258 -17.025  1.00  0.00    -0.048 A 
ATOM      2  C   UNL     1       5.916  -5.382 -16.527  1.00  0.00     0.006 A 
ATOM      3  C   UNL     1       6.209  -5.032 -15.212  1.00  0.00     0.026 A 
ATOM      4  C   UNL     1       5.243  -4.474 -14.371  1.00  0.00     0.038 A 
ATOM      5  C   UNL     1       3.954  -4.296 -14.887  1.00  0.00     0.026 A 
ATOM      6  C   UNL     1       3.644  -4.683 -16.199  1.00  0.00     0.006 A 
ENDROOT
BRANCH   1   7
ATOM      7  C   UNL     1       4.266  -5.728 -18.415  1.00  0.00     0.037 C 
BRANCH   7   8
ATOM      8  C   UNL     1       2.797  -6.125 -18.660  1.00  0.00     0.020 C 
BRANCH   8   9
ATOM      9  C   UNL     1       2.564  -7.550 -19.183  1.00  0.00     0.078 C 
BRANCH   9  10
ATOM     10  N   UNL     1       1.802  -8.415 -18.293  1.00  0.00    -0.330 NA
ATOM     11  H   UNL     1       0.806  -8.220 -18.386  1.00  0.00     0.118 HD
ATOM     12  H   UNL     1       2.032  -8.209 -17.321  1.00  0.00     0.118 HD
ENDBRANCH   9  10
ENDBRANCH   8   9
ENDBRANCH   7   8
ENDBRANCH   1   7
BRANCH   4  13
ATOM     13  N   UNL     1       5.560  -4.008 -13.080  1.00  0.00    -0.362 N 
ATOM     14  H   UNL     1       5.381  -4.642 -12.312  1.00  0.00     0.166 HD
BRANCH  13  15
ATOM     15  C   UNL     1       5.840  -2.704 -12.766  1.00  0.00     0.083 C 
BRANCH  15  16
ATOM     16  C   UNL     1       6.141  -2.167 -11.577  1.00  0.00     0.027 C 
BRANCH  16  17
ATOM     17  C   UNL     1       5.226  -1.226 -10.913  1.00  0.00    -0.003 A 
ATOM     18  C   UNL     1       4.886  -1.337  -9.553  1.00  0.00    -0.041 A 
ATOM     19  C   UNL     1       4.619  -0.185 -11.631  1.00  0.00     0.119 A 
ATOM     20  C   UNL     1       3.986  -0.410  -9.005  1.00  0.00     0.024 A 
ATOM     21  N   UNL     1       3.764   0.729 -11.114  1.00  0.00    -0.264 NA
ATOM     22  C   UNL     1       3.471   0.595  -9.809  1.00  0.00     0.111 A 
ATOM     23  C   UNL     1       5.420  -2.436  -8.677  1.00  0.00     0.045 C 
ENDBRANCH  16  17
ENDBRANCH  15  16
ENDBRANCH  13  15
ENDBRANCH   4  13
TORSDOF 8
ENDMDL
