MODEL 1
REMARK VINA RESULT:    -5.182      0.000      0.000
REMARK INTER + INTRA:          -8.051
REMARK INTER:                  -7.453
REMARK INTRA:                  -0.598
REMARK UNBOUND:                -0.598
REMARK SMILES Cc1ccncc1/C=C/Nc1ccc(CCCN)cc1
REMARK SMILES IDX 14 1 13 2 12 3 11 4 20 5 19 6 15 7 16 8 17 9 18 10 10 13
REMARK SMILES IDX 9 15 8 16 7 17 2 18 6 19 3 20 5 21 4 22 1 23
REMARK H PARENT 18 11 18 12 10 14
ROOT
ATOM      1  C   UNL     1      -0.771   1.434  -7.419  1.00  0.00    -0.048 A 
ATOM      2  C   UNL     1      -1.218   0.329  -8.145  1.00  0.00     0.006 A 
ATOM      3  C   UNL     1      -1.936   0.498  -9.326  1.00  0.00     0.026 A 
ATOM      4  C   UNL     1      -2.301   1.765  -9.786  1.00  0.00     0.038 A 
ATOM      5  C   UNL     1      -1.902   2.873  -9.028  1.00  0.00     0.026 A 
ATOM      6  C   UNL     1      -1.146   2.710  -7.857  1.00  0.00     0.006 A 
ENDROOT
BRANCH   1   7
ATOM      7  C   UNL     1       0.092   1.266  -6.194  1.00  0.00     0.037 C 
BRANCH   7   8
ATOM      8  C   UNL     1      -0.204   2.201  -5.005  1.00  0.00     0.020 C 
BRANCH   8   9
ATOM      9  C   UNL     1       1.017   2.863  -4.349  1.00  0.00     0.078 C 
BRANCH   9  10
ATOM     10  N   UNL     1       1.724   2.032  -3.385  1.00  0.00    -0.330 NA
ATOM     11  H   UNL     1       1.977   1.141  -3.812  1.00  0.00     0.118 HD
ATOM     12  H   UNL     1       1.109   1.797  -2.606  1.00  0.00     0.118 HD
ENDBRANCH   9  10
ENDBRANCH   8   9
ENDBRANCH   7   8
ENDBRANCH   1   7
BRANCH   4  13
ATOM     13  N   UNL     1      -3.127   1.939 -10.913  1.00  0.00    -0.362 N 
ATOM     14  H   UNL     1      -2.837   2.637 -11.586  1.00  0.00     0.166 HD
BRANCH  13  15
ATOM     15  C   UNL     1      -4.394   1.435 -11.039  1.00  0.00     0.083 C 
BRANCH  15  16
ATOM     16  C   UNL     1      -5.562   2.088 -11.097  1.00  0.00     0.027 C 
BRANCH  16  17
ATOM     17  C   UNL     1      -6.252   2.303 -12.379  1.00  0.00    -0.003 A 
ATOM     18  C   UNL     1      -7.198   3.328 -12.563  1.00  0.00    -0.041 A 
ATOM     19  C   UNL     1      -6.018   1.457 -13.473  1.00  0.00     0.119 A 
ATOM     20  C   UNL     1      -7.827   3.447 -13.812  1.00  0.00     0.024 A 
ATOM     21  N   UNL     1      -6.602   1.569 -14.689  1.00  0.00    -0.264 NA
ATOM     22  C   UNL     1      -7.493   2.567 -14.829  1.00  0.00     0.111 A 
ATOM     23  C   UNL     1      -7.585   4.273 -11.461  1.00  0.00     0.045 C 
ENDBRANCH  16  17
ENDBRANCH  15  16
ENDBRANCH  13  15
ENDBRANCH   4  13
TORSDOF 8
ENDMDL
MODEL 2
REMARK VINA RESULT:    -5.165      4.643      6.069
REMARK INTER + INTRA:          -8.026
REMARK INTER:                  -7.432
REMARK INTRA:                  -0.594
REMARK UNBOUND:                -0.598
REMARK SMILES Cc1ccncc1/C=C/Nc1ccc(CCCN)cc1
REMARK SMILES IDX 14 1 13 2 12 3 11 4 20 5 19 6 15 7 16 8 17 9 18 10 10 13
REMARK SMILES IDX 9 15 8 16 7 17 2 18 6 19 3 20 5 21 4 22 1 23
REMARK H PARENT 18 11 18 12 10 14
ROOT
ATOM      1  C   UNL     1      -1.726   0.846  -7.260  1.00  0.00    -0.048 A 
ATOM      2  C   UNL     1      -1.505   2.219  -7.386  1.00  0.00     0.006 A 
ATOM      3  C   UNL     1      -1.316   2.796  -8.639  1.00  0.00     0.026 A 
ATOM      4  C   UNL     1      -1.261   2.022  -9.800  1.00  0.00     0.038 A 
ATOM      5  C   UNL     1      -1.425   0.638  -9.669  1.00  0.00     0.026 A 
ATOM      6  C   UNL     1      -1.655   0.055  -8.413  1.00  0.00     0.006 A 
ENDROOT
BRANCH   1   7
ATOM      7  C   UNL     1      -2.033   0.225  -5.920  1.00  0.00     0.037 C 
BRANCH   7   8
ATOM      8  C   UNL     1      -1.511  -1.206  -5.685  1.00  0.00     0.020 C 
BRANCH   8   9
ATOM      9  C   UNL     1      -2.324  -2.066  -4.706  1.00  0.00     0.078 C 
BRANCH   9  10
ATOM     10  N   UNL     1      -2.485  -1.499  -3.375  1.00  0.00    -0.330 NA
ATOM     11  H   UNL     1      -1.596  -1.127  -3.044  1.00  0.00     0.118 HD
ATOM     12  H   UNL     1      -2.741  -2.229  -2.710  1.00  0.00     0.118 HD
ENDBRANCH   9  10
ENDBRANCH   8   9
ENDBRANCH   7   8
ENDBRANCH   1   7
BRANCH   4  13
ATOM     13  N   UNL     1      -0.952   2.582 -11.055  1.00  0.00    -0.362 N 
ATOM     14  H   UNL     1      -1.627   2.440 -11.795  1.00  0.00     0.166 HD
BRANCH  13  15
ATOM     15  C   UNL     1       0.278   3.067 -11.413  1.00  0.00     0.083 C 
BRANCH  15  16
ATOM     16  C   UNL     1       1.108   2.642 -12.375  1.00  0.00     0.027 C 
BRANCH  16  17
ATOM     17  C   UNL     1       1.086   3.240 -13.719  1.00  0.00    -0.003 A 
ATOM     18  C   UNL     1       1.797   2.692 -14.800  1.00  0.00    -0.041 A 
ATOM     19  C   UNL     1       0.372   4.422 -13.969  1.00  0.00     0.119 A 
ATOM     20  C   UNL     1       1.740   3.340 -16.043  1.00  0.00     0.024 A 
ATOM     21  N   UNL     1       0.292   5.051 -15.165  1.00  0.00    -0.264 NA
ATOM     22  C   UNL     1       0.978   4.490 -16.176  1.00  0.00     0.111 A 
ATOM     23  C   UNL     1       2.646   1.459 -14.663  1.00  0.00     0.045 C 
ENDBRANCH  16  17
ENDBRANCH  15  16
ENDBRANCH  13  15
ENDBRANCH   4  13
TORSDOF 8
ENDMDL
MODEL 3
REMARK VINA RESULT:    -5.100      1.860      8.702
REMARK INTER + INTRA:          -7.933
REMARK INTER:                  -7.314
REMARK INTRA:                  -0.620
REMARK UNBOUND:                -0.598
REMARK SMILES Cc1ccncc1/C=C/Nc1ccc(CCCN)cc1
REMARK SMILES IDX 14 1 13 2 12 3 11 4 20 5 19 6 15 7 16 8 17 9 18 10 10 13
REMARK SMILES IDX 9 15 8 16 7 17 2 18 6 19 3 20 5 21 4 22 1 23
REMARK H PARENT 18 11 18 12 10 14
ROOT
ATOM      1  C   UNL     1      -7.011   2.804 -12.634  1.00  0.00    -0.048 A 
ATOM      2  C   UNL     1      -6.855   2.878 -11.249  1.00  0.00     0.006 A 
ATOM      3  C   UNL     1      -5.764   2.280 -10.624  1.00  0.00     0.026 A 
ATOM      4  C   UNL     1      -4.835   1.522 -11.341  1.00  0.00     0.038 A 
ATOM      5  C   UNL     1      -5.022   1.399 -12.723  1.00  0.00     0.026 A 
ATOM      6  C   UNL     1      -6.098   2.032 -13.363  1.00  0.00     0.006 A 
ENDROOT
BRANCH   1   7
ATOM      7  C   UNL     1      -8.132   3.532 -13.333  1.00  0.00     0.037 C 
BRANCH   7   8
ATOM      8  C   UNL     1      -8.239   5.048 -13.075  1.00  0.00     0.020 C 
BRANCH   8   9
ATOM      9  C   UNL     1      -7.613   5.958 -14.142  1.00  0.00     0.078 C 
BRANCH   9  10
ATOM     10  N   UNL     1      -6.392   6.636 -13.732  1.00  0.00    -0.330 NA
ATOM     11  H   UNL     1      -5.937   6.115 -12.984  1.00  0.00     0.118 HD
ATOM     12  H   UNL     1      -6.613   7.549 -13.334  1.00  0.00     0.118 HD
ENDBRANCH   9  10
ENDBRANCH   8   9
ENDBRANCH   7   8
ENDBRANCH   1   7
BRANCH   4  13
ATOM     13  N   UNL     1      -3.798   0.817 -10.701  1.00  0.00    -0.362 N 
ATOM     14  H   UNL     1      -3.931  -0.180 -10.586  1.00  0.00     0.166 HD
BRANCH  13  15
ATOM     15  C   UNL     1      -2.769   1.396 -10.008  1.00  0.00     0.083 C 
BRANCH  15  16
ATOM     16  C   UNL     1      -1.759   0.813  -9.347  1.00  0.00     0.027 C 
BRANCH  16  17
ATOM     17  C   UNL     1      -1.388   1.242  -7.990  1.00  0.00    -0.003 A 
ATOM     18  C   UNL     1      -0.950   0.337  -7.007  1.00  0.00    -0.041 A 
ATOM     19  C   UNL     1      -1.494   2.587  -7.606  1.00  0.00     0.119 A 
ATOM     20  C   UNL     1      -0.639   0.828  -5.730  1.00  0.00     0.024 A 
ATOM     21  N   UNL     1      -1.181   3.080  -6.385  1.00  0.00    -0.264 NA
ATOM     22  C   UNL     1      -0.757   2.185  -5.475  1.00  0.00     0.111 A 
ATOM     23  C   UNL     1      -0.841  -1.140  -7.264  1.00  0.00     0.045 C 
ENDBRANCH  16  17
ENDBRANCH  15  16
ENDBRANCH  13  15
ENDBRANCH   4  13
TORSDOF 8
ENDMDL
MODEL 4
REMARK VINA RESULT:    -5.067      4.864      8.286
REMARK INTER + INTRA:          -7.887
REMARK INTER:                  -7.108
REMARK INTRA:                  -0.778
REMARK UNBOUND:                -0.598
REMARK SMILES Cc1ccncc1/C=C/Nc1ccc(CCCN)cc1
REMARK SMILES IDX 14 1 13 2 12 3 11 4 20 5 19 6 15 7 16 8 17 9 18 10 10 13
REMARK SMILES IDX 9 15 8 16 7 17 2 18 6 19 3 20 5 21 4 22 1 23
REMARK H PARENT 18 11 18 12 10 14
ROOT
ATOM      1  C   UNL     1       1.904   2.917 -14.515  1.00  0.00    -0.048 A 
ATOM      2  C   UNL     1       0.806   3.777 -14.440  1.00  0.00     0.006 A 
ATOM      3  C   UNL     1       0.088   3.912 -13.255  1.00  0.00     0.026 A 
ATOM      4  C   UNL     1       0.386   3.143 -12.128  1.00  0.00     0.038 A 
ATOM      5  C   UNL     1       1.451   2.239 -12.218  1.00  0.00     0.026 A 
ATOM      6  C   UNL     1       2.202   2.126 -13.398  1.00  0.00     0.006 A 
ENDROOT
BRANCH   1   7
ATOM      7  C   UNL     1       2.750   2.837 -15.761  1.00  0.00     0.037 C 
BRANCH   7   8
ATOM      8  C   UNL     1       3.117   1.426 -16.258  1.00  0.00     0.020 C 
BRANCH   8   9
ATOM      9  C   UNL     1       2.121   0.773 -17.228  1.00  0.00     0.078 C 
BRANCH   9  10
ATOM     10  N   UNL     1       1.043   0.029 -16.593  1.00  0.00    -0.330 NA
ATOM     11  H   UNL     1       1.011   0.242 -15.597  1.00  0.00     0.118 HD
ATOM     12  H   UNL     1       1.225  -0.973 -16.653  1.00  0.00     0.118 HD
ENDBRANCH   9  10
ENDBRANCH   8   9
ENDBRANCH   7   8
ENDBRANCH   1   7
BRANCH   4  13
ATOM     13  N   UNL     1      -0.408   3.187 -10.966  1.00  0.00    -0.362 N 
ATOM     14  H   UNL     1      -0.097   3.804 -10.226  1.00  0.00     0.166 HD
BRANCH  13  15
ATOM     15  C   UNL     1      -1.398   2.291 -10.660  1.00  0.00     0.083 C 
BRANCH  15  16
ATOM     16  C   UNL     1      -1.974   2.038  -9.477  1.00  0.00     0.027 C 
BRANCH  16  17
ATOM     17  C   UNL     1      -1.577   0.873  -8.671  1.00  0.00    -0.003 A 
ATOM     18  C   UNL     1      -1.222   0.981  -7.314  1.00  0.00    -0.041 A 
ATOM     19  C   UNL     1      -1.499  -0.405  -9.243  1.00  0.00     0.119 A 
ATOM     20  C   UNL     1      -0.833  -0.178  -6.626  1.00  0.00     0.024 A 
ATOM     21  N   UNL     1      -1.143  -1.536  -8.589  1.00  0.00    -0.264 NA
ATOM     22  C   UNL     1      -0.821  -1.394  -7.291  1.00  0.00     0.111 A 
ATOM     23  C   UNL     1      -1.208   2.297  -6.588  1.00  0.00     0.045 C 
ENDBRANCH  16  17
ENDBRANCH  15  16
ENDBRANCH  13  15
ENDBRANCH   4  13
TORSDOF 8
ENDMDL
MODEL 5
REMARK VINA RESULT:    -5.014      2.079      2.623
REMARK INTER + INTRA:          -7.810
REMARK INTER:                  -7.132
REMARK INTRA:                  -0.678
REMARK UNBOUND:                -0.598
REMARK SMILES Cc1ccncc1/C=C/Nc1ccc(CCCN)cc1
REMARK SMILES IDX 14 1 13 2 12 3 11 4 20 5 19 6 15 7 16 8 17 9 18 10 10 13
REMARK SMILES IDX 9 15 8 16 7 17 2 18 6 19 3 20 5 21 4 22 1 23
REMARK H PARENT 18 11 18 12 10 14
ROOT
ATOM      1  C   UNL     1      -0.835   0.125  -7.194  1.00  0.00    -0.048 A 
ATOM      2  C   UNL     1      -1.130  -0.721  -8.265  1.00  0.00     0.006 A 
ATOM      3  C   UNL     1      -1.608  -0.206  -9.466  1.00  0.00     0.026 A 
ATOM      4  C   UNL     1      -1.883   1.155  -9.622  1.00  0.00     0.038 A 
ATOM      5  C   UNL     1      -1.641   1.997  -8.530  1.00  0.00     0.026 A 
ATOM      6  C   UNL     1      -1.123   1.488  -7.329  1.00  0.00     0.006 A 
ENDROOT
BRANCH   1   7
ATOM      7  C   UNL     1      -0.222  -0.409  -5.923  1.00  0.00     0.037 C 
BRANCH   7   8
ATOM      8  C   UNL     1      -1.087  -0.328  -4.651  1.00  0.00     0.020 C 
BRANCH   8   9
ATOM      9  C   UNL     1      -2.247  -1.331  -4.560  1.00  0.00     0.078 C 
BRANCH   9  10
ATOM     10  N   UNL     1      -1.846  -2.726  -4.449  1.00  0.00    -0.330 NA
ATOM     11  H   UNL     1      -2.499  -3.230  -3.850  1.00  0.00     0.118 HD
ATOM     12  H   UNL     1      -0.940  -2.796  -3.985  1.00  0.00     0.118 HD
ENDBRANCH   9  10
ENDBRANCH   8   9
ENDBRANCH   7   8
ENDBRANCH   1   7
BRANCH   4  13
ATOM     13  N   UNL     1      -2.478   1.665 -10.792  1.00  0.00    -0.362 N 
ATOM     14  H   UNL     1      -1.850   1.960 -11.529  1.00  0.00     0.166 HD
BRANCH  13  15
ATOM     15  C   UNL     1      -3.794   2.026 -10.907  1.00  0.00     0.083 C 
BRANCH  15  16
ATOM     16  C   UNL     1      -4.812   1.350 -11.456  1.00  0.00     0.027 C 
BRANCH  16  17
ATOM     17  C   UNL     1      -5.935   2.052 -12.096  1.00  0.00    -0.003 A 
ATOM     18  C   UNL     1      -6.205   1.946 -13.472  1.00  0.00    -0.041 A 
ATOM     19  C   UNL     1      -6.772   2.898 -11.353  1.00  0.00     0.119 A 
ATOM     20  C   UNL     1      -7.283   2.668 -14.005  1.00  0.00     0.024 A 
ATOM     21  N   UNL     1      -7.827   3.588 -11.848  1.00  0.00    -0.264 NA
ATOM     22  C   UNL     1      -8.058   3.453 -13.166  1.00  0.00     0.111 A 
ATOM     23  C   UNL     1      -5.357   1.118 -14.397  1.00  0.00     0.045 C 
ENDBRANCH  16  17
ENDBRANCH  15  16
ENDBRANCH  13  15
ENDBRANCH   4  13
TORSDOF 8
ENDMDL
MODEL 6
REMARK VINA RESULT:    -4.989      4.301      5.581
REMARK INTER + INTRA:          -7.774
REMARK INTER:                  -7.180
REMARK INTRA:                  -0.594
REMARK UNBOUND:                -0.598
REMARK SMILES Cc1ccncc1/C=C/Nc1ccc(CCCN)cc1
REMARK SMILES IDX 14 1 13 2 12 3 11 4 20 5 19 6 15 7 16 8 17 9 18 10 10 13
REMARK SMILES IDX 9 15 8 16 7 17 2 18 6 19 3 20 5 21 4 22 1 23
REMARK H PARENT 18 11 18 12 10 14
ROOT
ATOM      1  C   UNL     1      -1.428   1.715  -6.508  1.00  0.00    -0.048 A 
ATOM      2  C   UNL     1      -1.411   2.985  -7.088  1.00  0.00     0.006 A 
ATOM      3  C   UNL     1      -1.442   3.134  -8.472  1.00  0.00     0.026 A 
ATOM      4  C   UNL     1      -1.412   2.030  -9.328  1.00  0.00     0.038 A 
ATOM      5  C   UNL     1      -1.372   0.757  -8.747  1.00  0.00     0.026 A 
ATOM      6  C   UNL     1      -1.379   0.600  -7.353  1.00  0.00     0.006 A 
ENDROOT
BRANCH   1   7
ATOM      7  C   UNL     1      -1.498   1.543  -5.011  1.00  0.00     0.037 C 
BRANCH   7   8
ATOM      8  C   UNL     1      -0.196   1.120  -4.302  1.00  0.00     0.020 C 
BRANCH   8   9
ATOM      9  C   UNL     1       0.952   2.139  -4.339  1.00  0.00     0.078 C 
BRANCH   9  10
ATOM     10  N   UNL     1       0.798   3.273  -3.439  1.00  0.00    -0.330 NA
ATOM     11  H   UNL     1       1.373   4.052  -3.757  1.00  0.00     0.118 HD
ATOM     12  H   UNL     1       1.149   3.035  -2.511  1.00  0.00     0.118 HD
ENDBRANCH   9  10
ENDBRANCH   8   9
ENDBRANCH   7   8
ENDBRANCH   1   7
BRANCH   4  13
ATOM     13  N   UNL     1      -1.322   2.174 -10.726  1.00  0.00    -0.362 N 
ATOM     14  H   UNL     1      -2.117   1.858 -11.267  1.00  0.00     0.166 HD
BRANCH  13  15
ATOM     15  C   UNL     1      -0.171   2.460 -11.411  1.00  0.00     0.083 C 
BRANCH  15  16
ATOM     16  C   UNL     1       0.103   3.502 -12.207  1.00  0.00     0.027 C 
BRANCH  16  17
ATOM     17  C   UNL     1       0.928   3.342 -13.414  1.00  0.00    -0.003 A 
ATOM     18  C   UNL     1       0.681   4.062 -14.597  1.00  0.00    -0.041 A 
ATOM     19  C   UNL     1       1.986   2.421 -13.446  1.00  0.00     0.119 A 
ATOM     20  C   UNL     1       1.502   3.830 -15.710  1.00  0.00     0.024 A 
ATOM     21  N   UNL     1       2.799   2.198 -14.506  1.00  0.00    -0.264 NA
ATOM     22  C   UNL     1       2.537   2.913 -15.614  1.00  0.00     0.111 A 
ATOM     23  C   UNL     1      -0.452   5.041 -14.721  1.00  0.00     0.045 C 
ENDBRANCH  16  17
ENDBRANCH  15  16
ENDBRANCH  13  15
ENDBRANCH   4  13
TORSDOF 8
ENDMDL
MODEL 7
REMARK VINA RESULT:    -4.954      2.209      8.509
REMARK INTER + INTRA:          -7.723
REMARK INTER:                  -7.053
REMARK INTRA:                  -0.670
REMARK UNBOUND:                -0.598
REMARK SMILES Cc1ccncc1/C=C/Nc1ccc(CCCN)cc1
REMARK SMILES IDX 14 1 13 2 12 3 11 4 20 5 19 6 15 7 16 8 17 9 18 10 10 13
REMARK SMILES IDX 9 15 8 16 7 17 2 18 6 19 3 20 5 21 4 22 1 23
REMARK H PARENT 18 11 18 12 10 14
ROOT
ATOM      1  C   UNL     1      -7.060   2.839 -12.749  1.00  0.00    -0.048 A 
ATOM      2  C   UNL     1      -6.965   2.955 -11.360  1.00  0.00     0.006 A 
ATOM      3  C   UNL     1      -5.859   2.456 -10.679  1.00  0.00     0.026 A 
ATOM      4  C   UNL     1      -4.846   1.757 -11.341  1.00  0.00     0.038 A 
ATOM      5  C   UNL     1      -4.967   1.590 -12.725  1.00  0.00     0.026 A 
ATOM      6  C   UNL     1      -6.061   2.125 -13.422  1.00  0.00     0.006 A 
ENDROOT
BRANCH   1   7
ATOM      7  C   UNL     1      -8.203   3.464 -13.508  1.00  0.00     0.037 C 
BRANCH   7   8
ATOM      8  C   UNL     1      -8.366   4.991 -13.381  1.00  0.00     0.020 C 
BRANCH   8   9
ATOM      9  C   UNL     1      -7.496   5.841 -14.318  1.00  0.00     0.078 C 
BRANCH   9  10
ATOM     10  N   UNL     1      -6.439   6.596 -13.661  1.00  0.00    -0.330 NA
ATOM     11  H   UNL     1      -6.711   7.574 -13.575  1.00  0.00     0.118 HD
ATOM     12  H   UNL     1      -5.596   6.596 -14.237  1.00  0.00     0.118 HD
ENDBRANCH   9  10
ENDBRANCH   8   9
ENDBRANCH   7   8
ENDBRANCH   1   7
BRANCH   4  13
ATOM     13  N   UNL     1      -3.785   1.147 -10.644  1.00  0.00    -0.362 N 
ATOM     14  H   UNL     1      -4.018   0.342 -10.076  1.00  0.00     0.166 HD
BRANCH  13  15
ATOM     15  C   UNL     1      -2.543   1.698 -10.472  1.00  0.00     0.083 C 
BRANCH  15  16
ATOM     16  C   UNL     1      -1.878   1.946  -9.336  1.00  0.00     0.027 C 
BRANCH  16  17
ATOM     17  C   UNL     1      -1.508   0.859  -8.416  1.00  0.00    -0.003 A 
ATOM     18  C   UNL     1      -1.245   1.082  -7.053  1.00  0.00    -0.041 A 
ATOM     19  C   UNL     1      -1.365  -0.457  -8.879  1.00  0.00     0.119 A 
ATOM     20  C   UNL     1      -0.875  -0.009  -6.251  1.00  0.00     0.024 A 
ATOM     21  N   UNL     1      -1.026  -1.523  -8.116  1.00  0.00    -0.264 NA
ATOM     22  C   UNL     1      -0.792  -1.271  -6.816  1.00  0.00     0.111 A 
ATOM     23  C   UNL     1      -1.308   2.450  -6.434  1.00  0.00     0.045 C 
ENDBRANCH  16  17
ENDBRANCH  15  16
ENDBRANCH  13  15
ENDBRANCH   4  13
TORSDOF 8
ENDMDL
MODEL 8
REMARK VINA RESULT:    -4.912      5.404      8.248
REMARK INTER + INTRA:          -7.663
REMARK INTER:                  -6.986
REMARK INTRA:                  -0.677
REMARK UNBOUND:                -0.598
REMARK SMILES Cc1ccncc1/C=C/Nc1ccc(CCCN)cc1
REMARK SMILES IDX 14 1 13 2 12 3 11 4 20 5 19 6 15 7 16 8 17 9 18 10 10 13
REMARK SMILES IDX 9 15 8 16 7 17 2 18 6 19 3 20 5 21 4 22 1 23
REMARK H PARENT 18 11 18 12 10 14
ROOT
ATOM      1  C   UNL     1       1.858   3.253 -14.750  1.00  0.00    -0.048 A 
ATOM      2  C   UNL     1       0.712   4.013 -14.507  1.00  0.00     0.006 A 
ATOM      3  C   UNL     1       0.075   3.962 -13.270  1.00  0.00     0.026 A 
ATOM      4  C   UNL     1       0.506   3.100 -12.260  1.00  0.00     0.038 A 
ATOM      5  C   UNL     1       1.621   2.295 -12.522  1.00  0.00     0.026 A 
ATOM      6  C   UNL     1       2.290   2.370 -13.753  1.00  0.00     0.006 A 
ENDROOT
BRANCH   1   7
ATOM      7  C   UNL     1       2.614   3.375 -16.049  1.00  0.00     0.037 C 
BRANCH   7   8
ATOM      8  C   UNL     1       4.080   2.901 -16.043  1.00  0.00     0.020 C 
BRANCH   8   9
ATOM      9  C   UNL     1       5.124   3.937 -16.486  1.00  0.00     0.078 C 
BRANCH   9  10
ATOM     10  N   UNL     1       6.123   4.272 -15.481  1.00  0.00    -0.330 NA
ATOM     11  H   UNL     1       6.860   4.839 -15.897  1.00  0.00     0.118 HD
ATOM     12  H   UNL     1       6.584   3.426 -15.147  1.00  0.00     0.118 HD
ENDBRANCH   9  10
ENDBRANCH   8   9
ENDBRANCH   7   8
ENDBRANCH   1   7
BRANCH   4  13
ATOM     13  N   UNL     1      -0.202   2.956 -11.051  1.00  0.00    -0.362 N 
ATOM     14  H   UNL     1       0.289   3.212 -10.204  1.00  0.00     0.166 HD
BRANCH  13  15
ATOM     15  C   UNL     1      -1.380   2.270 -10.912  1.00  0.00     0.083 C 
BRANCH  15  16
ATOM     16  C   UNL     1      -2.047   1.954  -9.794  1.00  0.00     0.027 C 
BRANCH  16  17
ATOM     17  C   UNL     1      -1.635   0.818  -8.956  1.00  0.00    -0.003 A 
ATOM     18  C   UNL     1      -1.245   0.973  -7.614  1.00  0.00    -0.041 A 
ATOM     19  C   UNL     1      -1.578  -0.481  -9.483  1.00  0.00     0.119 A 
ATOM     20  C   UNL     1      -0.844  -0.163  -6.893  1.00  0.00     0.024 A 
ATOM     21  N   UNL     1      -1.211  -1.589  -8.797  1.00  0.00    -0.264 NA
ATOM     22  C   UNL     1      -0.855  -1.402  -7.514  1.00  0.00     0.111 A 
ATOM     23  C   UNL     1      -1.207   2.314  -6.937  1.00  0.00     0.045 C 
ENDBRANCH  16  17
ENDBRANCH  15  16
ENDBRANCH  13  15
ENDBRANCH   4  13
TORSDOF 8
ENDMDL
MODEL 9
REMARK VINA RESULT:    -4.896      1.275      2.134
REMARK INTER + INTRA:          -7.641
REMARK INTER:                  -7.092
REMARK INTRA:                  -0.549
REMARK UNBOUND:                -0.598
REMARK SMILES Cc1ccncc1/C=C/Nc1ccc(CCCN)cc1
REMARK SMILES IDX 14 1 13 2 12 3 11 4 20 5 19 6 15 7 16 8 17 9 18 10 10 13
REMARK SMILES IDX 9 15 8 16 7 17 2 18 6 19 3 20 5 21 4 22 1 23
REMARK H PARENT 18 11 18 12 10 14
ROOT
ATOM      1  C   UNL     1      -0.703   0.547  -6.905  1.00  0.00    -0.048 A 
ATOM      2  C   UNL     1      -0.958   1.876  -7.248  1.00  0.00     0.006 A 
ATOM      3  C   UNL     1      -1.585   2.193  -8.450  1.00  0.00     0.026 A 
ATOM      4  C   UNL     1      -1.909   1.209  -9.387  1.00  0.00     0.038 A 
ATOM      5  C   UNL     1      -1.602  -0.119  -9.070  1.00  0.00     0.026 A 
ATOM      6  C   UNL     1      -1.006  -0.448  -7.843  1.00  0.00     0.006 A 
ENDROOT
BRANCH   1   7
ATOM      7  C   UNL     1      -0.118   0.185  -5.563  1.00  0.00     0.037 C 
BRANCH   7   8
ATOM      8  C   UNL     1      -0.248   1.238  -4.445  1.00  0.00     0.020 C 
BRANCH   8   9
ATOM      9  C   UNL     1       1.046   1.966  -4.052  1.00  0.00     0.078 C 
BRANCH   9  10
ATOM     10  N   UNL     1       0.859   3.303  -3.509  1.00  0.00    -0.330 NA
ATOM     11  H   UNL     1       1.654   3.893  -3.751  1.00  0.00     0.118 HD
ATOM     12  H   UNL     1       0.844   3.270  -2.489  1.00  0.00     0.118 HD
ENDBRANCH   9  10
ENDBRANCH   8   9
ENDBRANCH   7   8
ENDBRANCH   1   7
BRANCH   4  13
ATOM     13  N   UNL     1      -2.433   1.532 -10.654  1.00  0.00    -0.362 N 
ATOM     14  H   UNL     1      -1.768   1.613 -11.413  1.00  0.00     0.166 HD
BRANCH  13  15
ATOM     15  C   UNL     1      -3.704   1.989 -10.882  1.00  0.00     0.083 C 
BRANCH  15  16
ATOM     16  C   UNL     1      -4.755   1.340 -11.399  1.00  0.00     0.027 C 
BRANCH  16  17
ATOM     17  C   UNL     1      -5.884   2.071 -11.995  1.00  0.00    -0.003 A 
ATOM     18  C   UNL     1      -6.215   1.966 -13.357  1.00  0.00    -0.041 A 
ATOM     19  C   UNL     1      -6.663   2.945 -11.222  1.00  0.00     0.119 A 
ATOM     20  C   UNL     1      -7.294   2.717 -13.849  1.00  0.00     0.024 A 
ATOM     21  N   UNL     1      -7.717   3.663 -11.676  1.00  0.00    -0.264 NA
ATOM     22  C   UNL     1      -8.009   3.528 -12.982  1.00  0.00     0.111 A 
ATOM     23  C   UNL     1      -5.433   1.108 -14.312  1.00  0.00     0.045 C 
ENDBRANCH  16  17
ENDBRANCH  15  16
ENDBRANCH  13  15
ENDBRANCH   4  13
TORSDOF 8
ENDMDL
