MODEL 1
REMARK VINA RESULT:    -5.048      0.000      0.000
REMARK INTER + INTRA:          -7.895
REMARK INTER:                  -7.262
REMARK INTRA:                  -0.634
REMARK UNBOUND:                -0.634
REMARK SMILES Cc1ccncc1/C=C/Nc1ccc(CCCN)cc1
REMARK SMILES IDX 14 1 13 2 12 3 11 4 20 5 19 6 15 7 16 8 17 9 18 10 10 13
REMARK SMILES IDX 9 15 8 16 7 17 2 18 6 19 3 20 5 21 4 22 1 23
REMARK H PARENT 18 11 18 12 10 14
ROOT
ATOM      1  C   UNL     1       3.772  12.896  12.371  1.00  0.00    -0.048 A 
ATOM      2  C   UNL     1       2.906  12.148  11.571  1.00  0.00     0.006 A 
ATOM      3  C   UNL     1       3.400  11.193  10.687  1.00  0.00     0.026 A 
ATOM      4  C   UNL     1       4.773  11.002  10.510  1.00  0.00     0.038 A 
ATOM      5  C   UNL     1       5.644  11.791  11.270  1.00  0.00     0.026 A 
ATOM      6  C   UNL     1       5.150  12.729  12.190  1.00  0.00     0.006 A 
ENDROOT
BRANCH   1   7
ATOM      7  C   UNL     1       3.244  13.861  13.403  1.00  0.00     0.037 C 
BRANCH   7   8
ATOM      8  C   UNL     1       2.173  13.321  14.371  1.00  0.00     0.020 C 
BRANCH   8   9
ATOM      9  C   UNL     1       2.643  13.034  15.804  1.00  0.00     0.078 C 
BRANCH   9  10
ATOM     10  N   UNL     1       3.204  11.707  16.014  1.00  0.00    -0.330 NA
ATOM     11  H   UNL     1       4.221  11.749  15.984  1.00  0.00     0.118 HD
ATOM     12  H   UNL     1       2.933  11.086  15.250  1.00  0.00     0.118 HD
ENDBRANCH   9  10
ENDBRANCH   8   9
ENDBRANCH   7   8
ENDBRANCH   1   7
BRANCH   4  13
ATOM     13  N   UNL     1       5.282  10.124   9.533  1.00  0.00    -0.362 N 
ATOM     14  H   UNL     1       5.920  10.520   8.855  1.00  0.00     0.166 HD
BRANCH  13  15
ATOM     15  C   UNL     1       4.793   8.870   9.278  1.00  0.00     0.083 C 
BRANCH  15  16
ATOM     16  C   UNL     1       5.021   8.072   8.226  1.00  0.00     0.027 C 
BRANCH  16  17
ATOM     17  C   UNL     1       4.021   7.087   7.787  1.00  0.00    -0.003 A 
ATOM     18  C   UNL     1       3.855   6.731   6.437  1.00  0.00    -0.041 A 
ATOM     19  C   UNL     1       3.155   6.481   8.710  1.00  0.00     0.119 A 
ATOM     20  C   UNL     1       2.861   5.799   6.103  1.00  0.00     0.024 A 
ATOM     21  N   UNL     1       2.203   5.567   8.407  1.00  0.00    -0.264 NA
ATOM     22  C   UNL     1       2.081   5.246   7.107  1.00  0.00     0.111 A 
ATOM     23  C   UNL     1       4.678   7.341   5.337  1.00  0.00     0.045 C 
ENDBRANCH  16  17
ENDBRANCH  15  16
ENDBRANCH  13  15
ENDBRANCH   4  13
TORSDOF 8
ENDMDL
MODEL 2
REMARK VINA RESULT:    -4.858      1.327      2.140
REMARK INTER + INTRA:          -7.622
REMARK INTER:                  -7.030
REMARK INTRA:                  -0.592
REMARK UNBOUND:                -0.634
REMARK SMILES Cc1ccncc1/C=C/Nc1ccc(CCCN)cc1
REMARK SMILES IDX 14 1 13 2 12 3 11 4 20 5 19 6 15 7 16 8 17 9 18 10 10 13
REMARK SMILES IDX 9 15 8 16 7 17 2 18 6 19 3 20 5 21 4 22 1 23
REMARK H PARENT 18 11 18 12 10 14
ROOT
ATOM      1  C   UNL     1       4.038  12.503  11.958  1.00  0.00    -0.048 A 
ATOM      2  C   UNL     1       5.365  12.108  11.777  1.00  0.00     0.006 A 
ATOM      3  C   UNL     1       5.694  11.129  10.845  1.00  0.00     0.026 A 
ATOM      4  C   UNL     1       4.713  10.453  10.116  1.00  0.00     0.038 A 
ATOM      5  C   UNL     1       3.377  10.808  10.337  1.00  0.00     0.026 A 
ATOM      6  C   UNL     1       3.042  11.821  11.249  1.00  0.00     0.006 A 
ENDROOT
BRANCH   1   7
ATOM      7  C   UNL     1       3.680  13.632  12.892  1.00  0.00     0.037 C 
BRANCH   7   8
ATOM      8  C   UNL     1       2.549  13.361  13.903  1.00  0.00     0.020 C 
BRANCH   8   9
ATOM      9  C   UNL     1       2.984  13.162  15.363  1.00  0.00     0.078 C 
BRANCH   9  10
ATOM     10  N   UNL     1       2.977  11.781  15.824  1.00  0.00    -0.330 NA
ATOM     11  H   UNL     1       2.982  11.147  15.026  1.00  0.00     0.118 HD
ATOM     12  H   UNL     1       2.111  11.583  16.326  1.00  0.00     0.118 HD
ENDBRANCH   9  10
ENDBRANCH   8   9
ENDBRANCH   7   8
ENDBRANCH   1   7
BRANCH   4  13
ATOM     13  N   UNL     1       5.028   9.381   9.259  1.00  0.00    -0.362 N 
ATOM     14  H   UNL     1       5.617   9.593   8.464  1.00  0.00     0.166 HD
BRANCH  13  15
ATOM     15  C   UNL     1       4.405   8.161   9.270  1.00  0.00     0.083 C 
BRANCH  15  16
ATOM     16  C   UNL     1       4.552   7.129   8.430  1.00  0.00     0.027 C 
BRANCH  16  17
ATOM     17  C   UNL     1       3.861   7.099   7.132  1.00  0.00    -0.003 A 
ATOM     18  C   UNL     1       2.609   6.482   6.958  1.00  0.00    -0.041 A 
ATOM     19  C   UNL     1       4.450   7.661   5.989  1.00  0.00     0.119 A 
ATOM     20  C   UNL     1       2.031   6.478   5.679  1.00  0.00     0.024 A 
ATOM     21  N   UNL     1       3.899   7.682   4.753  1.00  0.00    -0.264 NA
ATOM     22  C   UNL     1       2.697   7.091   4.629  1.00  0.00     0.111 A 
ATOM     23  C   UNL     1       1.888   5.794   8.083  1.00  0.00     0.045 C 
ENDBRANCH  16  17
ENDBRANCH  15  16
ENDBRANCH  13  15
ENDBRANCH   4  13
TORSDOF 8
ENDMDL
MODEL 3
REMARK VINA RESULT:    -4.781      1.595      8.578
REMARK INTER + INTRA:          -7.511
REMARK INTER:                  -6.900
REMARK INTRA:                  -0.611
REMARK UNBOUND:                -0.634
REMARK SMILES Cc1ccncc1/C=C/Nc1ccc(CCCN)cc1
REMARK SMILES IDX 14 1 13 2 12 3 11 4 20 5 19 6 15 7 16 8 17 9 18 10 10 13
REMARK SMILES IDX 9 15 8 16 7 17 2 18 6 19 3 20 5 21 4 22 1 23
REMARK H PARENT 18 11 18 12 10 14
ROOT
ATOM      1  C   UNL     1       4.068   6.785   7.982  1.00  0.00    -0.048 A 
ATOM      2  C   UNL     1       4.841   7.870   7.564  1.00  0.00     0.006 A 
ATOM      3  C   UNL     1       5.234   8.853   8.468  1.00  0.00     0.026 A 
ATOM      4  C   UNL     1       4.809   8.836   9.799  1.00  0.00     0.038 A 
ATOM      5  C   UNL     1       3.987   7.778  10.206  1.00  0.00     0.026 A 
ATOM      6  C   UNL     1       3.620   6.764   9.309  1.00  0.00     0.006 A 
ENDROOT
BRANCH   1   7
ATOM      7  C   UNL     1       3.722   5.663   7.036  1.00  0.00     0.037 C 
BRANCH   7   8
ATOM      8  C   UNL     1       2.437   4.870   7.344  1.00  0.00     0.020 C 
BRANCH   8   9
ATOM      9  C   UNL     1       2.256   3.554   6.573  1.00  0.00     0.078 C 
BRANCH   9  10
ATOM     10  N   UNL     1       1.273   2.641   7.138  1.00  0.00    -0.330 NA
ATOM     11  H   UNL     1       1.208   1.801   6.564  1.00  0.00     0.118 HD
ATOM     12  H   UNL     1       0.344   3.063   7.110  1.00  0.00     0.118 HD
ENDBRANCH   9  10
ENDBRANCH   8   9
ENDBRANCH   7   8
ENDBRANCH   1   7
BRANCH   4  13
ATOM     13  N   UNL     1       5.103   9.887  10.688  1.00  0.00    -0.362 N 
ATOM     14  H   UNL     1       5.585   9.638  11.543  1.00  0.00     0.166 HD
BRANCH  13  15
ATOM     15  C   UNL     1       4.573  11.148  10.611  1.00  0.00     0.083 C 
BRANCH  15  16
ATOM     16  C   UNL     1       3.538  11.672  11.281  1.00  0.00     0.027 C 
BRANCH  16  17
ATOM     17  C   UNL     1       3.743  12.668  12.344  1.00  0.00    -0.003 A 
ATOM     18  C   UNL     1       2.829  12.847  13.397  1.00  0.00    -0.041 A 
ATOM     19  C   UNL     1       4.859  13.518  12.327  1.00  0.00     0.119 A 
ATOM     20  C   UNL     1       3.091  13.837  14.356  1.00  0.00     0.024 A 
ATOM     21  N   UNL     1       5.136  14.466  13.253  1.00  0.00    -0.264 NA
ATOM     22  C   UNL     1       4.243  14.599  14.250  1.00  0.00     0.111 A 
ATOM     23  C   UNL     1       1.565  12.042  13.510  1.00  0.00     0.045 C 
ENDBRANCH  16  17
ENDBRANCH  15  16
ENDBRANCH  13  15
ENDBRANCH   4  13
TORSDOF 8
ENDMDL
MODEL 4
REMARK VINA RESULT:    -4.622      4.620      8.506
REMARK INTER + INTRA:          -7.283
REMARK INTER:                  -6.962
REMARK INTRA:                  -0.320
REMARK UNBOUND:                -0.634
REMARK SMILES Cc1ccncc1/C=C/Nc1ccc(CCCN)cc1
REMARK SMILES IDX 14 1 13 2 12 3 11 4 20 5 19 6 15 7 16 8 17 9 18 10 10 13
REMARK SMILES IDX 9 15 8 16 7 17 2 18 6 19 3 20 5 21 4 22 1 23
REMARK H PARENT 18 11 18 12 10 14
ROOT
ATOM      1  C   UNL     1       2.813   6.399   6.810  1.00  0.00    -0.048 A 
ATOM      2  C   UNL     1       2.632   6.208   8.182  1.00  0.00     0.006 A 
ATOM      3  C   UNL     1       3.518   6.764   9.099  1.00  0.00     0.026 A 
ATOM      4  C   UNL     1       4.656   7.461   8.688  1.00  0.00     0.038 A 
ATOM      5  C   UNL     1       4.870   7.605   7.312  1.00  0.00     0.026 A 
ATOM      6  C   UNL     1       3.959   7.080   6.382  1.00  0.00     0.006 A 
ENDROOT
BRANCH   1   7
ATOM      7  C   UNL     1       1.805   5.888   5.811  1.00  0.00     0.037 C 
BRANCH   7   8
ATOM      8  C   UNL     1       1.993   4.441   5.317  1.00  0.00     0.020 C 
BRANCH   8   9
ATOM      9  C   UNL     1       2.307   3.395   6.398  1.00  0.00     0.078 C 
BRANCH   9  10
ATOM     10  N   UNL     1       1.144   2.727   6.964  1.00  0.00    -0.330 NA
ATOM     11  H   UNL     1       1.382   1.769   7.219  1.00  0.00     0.118 HD
ATOM     12  H   UNL     1       0.408   2.648   6.262  1.00  0.00     0.118 HD
ENDBRANCH   9  10
ENDBRANCH   8   9
ENDBRANCH   7   8
ENDBRANCH   1   7
BRANCH   4  13
ATOM     13  N   UNL     1       5.619   7.923   9.606  1.00  0.00    -0.362 N 
ATOM     14  H   UNL     1       5.813   8.917   9.600  1.00  0.00     0.166 HD
BRANCH  13  15
ATOM     15  C   UNL     1       6.480   7.120  10.307  1.00  0.00     0.083 C 
BRANCH  15  16
ATOM     16  C   UNL     1       6.872   7.214  11.585  1.00  0.00     0.027 C 
BRANCH  16  17
ATOM     17  C   UNL     1       8.233   6.834  11.994  1.00  0.00    -0.003 A 
ATOM     18  C   UNL     1       8.812   7.282  13.194  1.00  0.00    -0.041 A 
ATOM     19  C   UNL     1       9.033   6.028  11.170  1.00  0.00     0.119 A 
ATOM     20  C   UNL     1      10.125   6.890  13.496  1.00  0.00     0.024 A 
ATOM     21  N   UNL     1      10.294   5.627  11.454  1.00  0.00    -0.264 NA
ATOM     22  C   UNL     1      10.809   6.067  12.615  1.00  0.00     0.111 A 
ATOM     23  C   UNL     1       8.089   8.194  14.145  1.00  0.00     0.045 C 
ENDBRANCH  16  17
ENDBRANCH  15  16
ENDBRANCH  13  15
ENDBRANCH   4  13
TORSDOF 8
ENDMDL
MODEL 5
REMARK VINA RESULT:    -4.617      1.968      8.550
REMARK INTER + INTRA:          -7.276
REMARK INTER:                  -6.944
REMARK INTRA:                  -0.332
REMARK UNBOUND:                -0.634
REMARK SMILES Cc1ccncc1/C=C/Nc1ccc(CCCN)cc1
REMARK SMILES IDX 14 1 13 2 12 3 11 4 20 5 19 6 15 7 16 8 17 9 18 10 10 13
REMARK SMILES IDX 9 15 8 16 7 17 2 18 6 19 3 20 5 21 4 22 1 23
REMARK H PARENT 18 11 18 12 10 14
ROOT
ATOM      1  C   UNL     1       3.712   6.383   6.708  1.00  0.00    -0.048 A 
ATOM      2  C   UNL     1       4.687   7.379   6.625  1.00  0.00     0.006 A 
ATOM      3  C   UNL     1       5.074   8.090   7.757  1.00  0.00     0.026 A 
ATOM      4  C   UNL     1       4.454   7.893   8.993  1.00  0.00     0.038 A 
ATOM      5  C   UNL     1       3.436   6.935   9.065  1.00  0.00     0.026 A 
ATOM      6  C   UNL     1       3.068   6.188   7.936  1.00  0.00     0.006 A 
ENDROOT
BRANCH   1   7
ATOM      7  C   UNL     1       3.356   5.537   5.511  1.00  0.00     0.037 C 
BRANCH   7   8
ATOM      8  C   UNL     1       2.235   6.068   4.597  1.00  0.00     0.020 C 
BRANCH   8   9
ATOM      9  C   UNL     1       2.315   7.557   4.228  1.00  0.00     0.078 C 
BRANCH   9  10
ATOM     10  N   UNL     1       2.645   7.830   2.837  1.00  0.00    -0.330 NA
ATOM     11  H   UNL     1       1.792   7.974   2.298  1.00  0.00     0.118 HD
ATOM     12  H   UNL     1       3.098   7.018   2.417  1.00  0.00     0.118 HD
ENDBRANCH   9  10
ENDBRANCH   8   9
ENDBRANCH   7   8
ENDBRANCH   1   7
BRANCH   4  13
ATOM     13  N   UNL     1       4.757   8.690  10.113  1.00  0.00    -0.362 N 
ATOM     14  H   UNL     1       5.070   8.205  10.945  1.00  0.00     0.166 HD
BRANCH  13  15
ATOM     15  C   UNL     1       4.421  10.012  10.247  1.00  0.00     0.083 C 
BRANCH  15  16
ATOM     16  C   UNL     1       5.191  11.047  10.608  1.00  0.00     0.027 C 
BRANCH  16  17
ATOM     17  C   UNL     1       4.712  12.055  11.566  1.00  0.00    -0.003 A 
ATOM     18  C   UNL     1       5.564  12.677  12.495  1.00  0.00    -0.041 A 
ATOM     19  C   UNL     1       3.357  12.415  11.615  1.00  0.00     0.119 A 
ATOM     20  C   UNL     1       5.019  13.611  13.390  1.00  0.00     0.024 A 
ATOM     21  N   UNL     1       2.818  13.326  12.458  1.00  0.00    -0.264 NA
ATOM     22  C   UNL     1       3.666  13.906  13.326  1.00  0.00     0.111 A 
ATOM     23  C   UNL     1       7.028  12.348  12.591  1.00  0.00     0.045 C 
ENDBRANCH  16  17
ENDBRANCH  15  16
ENDBRANCH  13  15
ENDBRANCH   4  13
TORSDOF 8
ENDMDL
MODEL 6
REMARK VINA RESULT:    -4.577      4.563      8.475
REMARK INTER + INTRA:          -7.217
REMARK INTER:                  -6.653
REMARK INTRA:                  -0.564
REMARK UNBOUND:                -0.634
REMARK SMILES Cc1ccncc1/C=C/Nc1ccc(CCCN)cc1
REMARK SMILES IDX 14 1 13 2 12 3 11 4 20 5 19 6 15 7 16 8 17 9 18 10 10 13
REMARK SMILES IDX 9 15 8 16 7 17 2 18 6 19 3 20 5 21 4 22 1 23
REMARK H PARENT 18 11 18 12 10 14
ROOT
ATOM      1  C   UNL     1       3.308   7.214   7.360  1.00  0.00    -0.048 A 
ATOM      2  C   UNL     1       2.910   6.518   8.503  1.00  0.00     0.006 A 
ATOM      3  C   UNL     1       3.646   6.606   9.681  1.00  0.00     0.026 A 
ATOM      4  C   UNL     1       4.843   7.324   9.744  1.00  0.00     0.038 A 
ATOM      5  C   UNL     1       5.273   7.976   8.583  1.00  0.00     0.026 A 
ATOM      6  C   UNL     1       4.515   7.922   7.403  1.00  0.00     0.006 A 
ENDROOT
BRANCH   1   7
ATOM      7  C   UNL     1       2.465   7.207   6.109  1.00  0.00     0.037 C 
BRANCH   7   8
ATOM      8  C   UNL     1       3.214   7.351   4.770  1.00  0.00     0.020 C 
BRANCH   8   9
ATOM      9  C   UNL     1       2.421   7.990   3.621  1.00  0.00     0.078 C 
BRANCH   9  10
ATOM     10  N   UNL     1       1.118   7.394   3.366  1.00  0.00    -0.330 NA
ATOM     11  H   UNL     1       0.483   7.600   4.136  1.00  0.00     0.118 HD
ATOM     12  H   UNL     1       1.195   6.377   3.341  1.00  0.00     0.118 HD
ENDBRANCH   9  10
ENDBRANCH   8   9
ENDBRANCH   7   8
ENDBRANCH   1   7
BRANCH   4  13
ATOM     13  N   UNL     1       5.654   7.321  10.896  1.00  0.00    -0.362 N 
ATOM     14  H   UNL     1       5.235   7.674  11.747  1.00  0.00     0.166 HD
BRANCH  13  15
ATOM     15  C   UNL     1       7.009   7.126  10.898  1.00  0.00     0.083 C 
BRANCH  15  16
ATOM     16  C   UNL     1       7.760   6.411  11.747  1.00  0.00     0.027 C 
BRANCH  16  17
ATOM     17  C   UNL     1       8.549   7.066  12.802  1.00  0.00    -0.003 A 
ATOM     18  C   UNL     1       9.910   6.782  13.012  1.00  0.00    -0.041 A 
ATOM     19  C   UNL     1       7.955   7.987  13.678  1.00  0.00     0.119 A 
ATOM     20  C   UNL     1      10.581   7.434  14.057  1.00  0.00     0.024 A 
ATOM     21  N   UNL     1       8.592   8.638  14.679  1.00  0.00    -0.264 NA
ATOM     22  C   UNL     1       9.894   8.347  14.842  1.00  0.00     0.111 A 
ATOM     23  C   UNL     1      10.659   5.777  12.183  1.00  0.00     0.045 C 
ENDBRANCH  16  17
ENDBRANCH  15  16
ENDBRANCH  13  15
ENDBRANCH   4  13
TORSDOF 8
ENDMDL
MODEL 7
REMARK VINA RESULT:    -4.568      1.602      8.599
REMARK INTER + INTRA:          -7.205
REMARK INTER:                  -6.656
REMARK INTRA:                  -0.549
REMARK UNBOUND:                -0.634
REMARK SMILES Cc1ccncc1/C=C/Nc1ccc(CCCN)cc1
REMARK SMILES IDX 14 1 13 2 12 3 11 4 20 5 19 6 15 7 16 8 17 9 18 10 10 13
REMARK SMILES IDX 9 15 8 16 7 17 2 18 6 19 3 20 5 21 4 22 1 23
REMARK H PARENT 18 11 18 12 10 14
ROOT
ATOM      1  C   UNL     1       3.982   6.470   7.578  1.00  0.00    -0.048 A 
ATOM      2  C   UNL     1       4.763   7.571   7.221  1.00  0.00     0.006 A 
ATOM      3  C   UNL     1       5.199   8.475   8.185  1.00  0.00     0.026 A 
ATOM      4  C   UNL     1       4.812   8.363   9.522  1.00  0.00     0.038 A 
ATOM      5  C   UNL     1       3.982   7.291   9.872  1.00  0.00     0.026 A 
ATOM      6  C   UNL     1       3.571   6.355   8.911  1.00  0.00     0.006 A 
ENDROOT
BRANCH   1   7
ATOM      7  C   UNL     1       3.588   5.429   6.560  1.00  0.00     0.037 C 
BRANCH   7   8
ATOM      8  C   UNL     1       2.160   4.860   6.669  1.00  0.00     0.020 C 
BRANCH   8   9
ATOM      9  C   UNL     1       2.055   3.353   6.948  1.00  0.00     0.078 C 
BRANCH   9  10
ATOM     10  N   UNL     1       2.081   2.505   5.765  1.00  0.00    -0.330 NA
ATOM     11  H   UNL     1       1.891   3.061   4.933  1.00  0.00     0.118 HD
ATOM     12  H   UNL     1       1.331   1.815   5.810  1.00  0.00     0.118 HD
ENDBRANCH   9  10
ENDBRANCH   8   9
ENDBRANCH   7   8
ENDBRANCH   1   7
BRANCH   4  13
ATOM     13  N   UNL     1       5.150   9.338  10.480  1.00  0.00    -0.362 N 
ATOM     14  H   UNL     1       5.641   9.015  11.304  1.00  0.00     0.166 HD
BRANCH  13  15
ATOM     15  C   UNL     1       4.652  10.614  10.507  1.00  0.00     0.083 C 
BRANCH  15  16
ATOM     16  C   UNL     1       5.265  11.754  10.850  1.00  0.00     0.027 C 
BRANCH  16  17
ATOM     17  C   UNL     1       4.786  12.567  11.979  1.00  0.00    -0.003 A 
ATOM     18  C   UNL     1       5.631  12.977  13.025  1.00  0.00    -0.041 A 
ATOM     19  C   UNL     1       3.437  12.939  12.076  1.00  0.00     0.119 A 
ATOM     20  C   UNL     1       5.086  13.731  14.075  1.00  0.00     0.024 A 
ATOM     21  N   UNL     1       2.898  13.680  13.072  1.00  0.00    -0.264 NA
ATOM     22  C   UNL     1       3.740  14.061  14.049  1.00  0.00     0.111 A 
ATOM     23  C   UNL     1       7.086  12.605  13.077  1.00  0.00     0.045 C 
ENDBRANCH  16  17
ENDBRANCH  15  16
ENDBRANCH  13  15
ENDBRANCH   4  13
TORSDOF 8
ENDMDL
MODEL 8
REMARK VINA RESULT:    -4.540      4.505      8.547
REMARK INTER + INTRA:          -7.165
REMARK INTER:                  -6.668
REMARK INTRA:                  -0.498
REMARK UNBOUND:                -0.634
REMARK SMILES Cc1ccncc1/C=C/Nc1ccc(CCCN)cc1
REMARK SMILES IDX 14 1 13 2 12 3 11 4 20 5 19 6 15 7 16 8 17 9 18 10 10 13
REMARK SMILES IDX 9 15 8 16 7 17 2 18 6 19 3 20 5 21 4 22 1 23
REMARK H PARENT 18 11 18 12 10 14
ROOT
ATOM      1  C   UNL     1       2.859   6.592   7.826  1.00  0.00    -0.048 A 
ATOM      2  C   UNL     1       3.949   7.355   7.404  1.00  0.00     0.006 A 
ATOM      3  C   UNL     1       4.945   7.728   8.302  1.00  0.00     0.026 A 
ATOM      4  C   UNL     1       4.855   7.424   9.663  1.00  0.00     0.038 A 
ATOM      5  C   UNL     1       3.734   6.708  10.098  1.00  0.00     0.026 A 
ATOM      6  C   UNL     1       2.746   6.296   9.190  1.00  0.00     0.006 A 
ENDROOT
BRANCH   1   7
ATOM      7  C   UNL     1       1.826   6.096   6.845  1.00  0.00     0.037 C 
BRANCH   7   8
ATOM      8  C   UNL     1       2.162   4.800   6.082  1.00  0.00     0.020 C 
BRANCH   8   9
ATOM      9  C   UNL     1       2.137   3.506   6.909  1.00  0.00     0.078 C 
BRANCH   9  10
ATOM     10  N   UNL     1       1.894   2.292   6.144  1.00  0.00    -0.330 NA
ATOM     11  H   UNL     1       1.655   1.526   6.773  1.00  0.00     0.118 HD
ATOM     12  H   UNL     1       2.748   1.999   5.669  1.00  0.00     0.118 HD
ENDBRANCH   9  10
ENDBRANCH   8   9
ENDBRANCH   7   8
ENDBRANCH   1   7
BRANCH   4  13
ATOM     13  N   UNL     1       5.797   7.899  10.595  1.00  0.00    -0.362 N 
ATOM     14  H   UNL     1       5.629   8.820  10.981  1.00  0.00     0.166 HD
BRANCH  13  15
ATOM     15  C   UNL     1       7.027   7.340  10.820  1.00  0.00     0.083 C 
BRANCH  15  16
ATOM     16  C   UNL     1       7.445   6.608  11.862  1.00  0.00     0.027 C 
BRANCH  16  17
ATOM     17  C   UNL     1       8.404   7.150  12.837  1.00  0.00    -0.003 A 
ATOM     18  C   UNL     1       9.761   6.785  12.844  1.00  0.00    -0.041 A 
ATOM     19  C   UNL     1       7.986   8.039  13.839  1.00  0.00     0.119 A 
ATOM     20  C   UNL     1      10.602   7.331  13.825  1.00  0.00     0.024 A 
ATOM     21  N   UNL     1       8.786   8.590  14.782  1.00  0.00    -0.264 NA
ATOM     22  C   UNL     1      10.080   8.223  14.749  1.00  0.00     0.111 A 
ATOM     23  C   UNL     1      10.334   5.801  11.863  1.00  0.00     0.045 C 
ENDBRANCH  16  17
ENDBRANCH  15  16
ENDBRANCH  13  15
ENDBRANCH   4  13
TORSDOF 8
ENDMDL
MODEL 9
REMARK VINA RESULT:    -4.512      4.031      5.659
REMARK INTER + INTRA:          -7.125
REMARK INTER:                  -6.338
REMARK INTRA:                  -0.787
REMARK UNBOUND:                -0.634
REMARK SMILES Cc1ccncc1/C=C/Nc1ccc(CCCN)cc1
REMARK SMILES IDX 14 1 13 2 12 3 11 4 20 5 19 6 15 7 16 8 17 9 18 10 10 13
REMARK SMILES IDX 9 15 8 16 7 17 2 18 6 19 3 20 5 21 4 22 1 23
REMARK H PARENT 18 11 18 12 10 14
ROOT
ATOM      1  C   UNL     1       6.571   7.291  10.887  1.00  0.00    -0.048 A 
ATOM      2  C   UNL     1       6.045   8.584  10.920  1.00  0.00     0.006 A 
ATOM      3  C   UNL     1       5.022   8.957  10.052  1.00  0.00     0.026 A 
ATOM      4  C   UNL     1       4.541   8.087   9.071  1.00  0.00     0.038 A 
ATOM      5  C   UNL     1       5.108   6.809   8.999  1.00  0.00     0.026 A 
ATOM      6  C   UNL     1       6.112   6.415   9.896  1.00  0.00     0.006 A 
ENDROOT
BRANCH   1   7
ATOM      7  C   UNL     1       7.607   6.844  11.888  1.00  0.00     0.037 C 
BRANCH   7   8
ATOM      8  C   UNL     1       8.889   6.206  11.319  1.00  0.00     0.020 C 
BRANCH   8   9
ATOM      9  C   UNL     1      10.141   6.306  12.202  1.00  0.00     0.078 C 
BRANCH   9  10
ATOM     10  N   UNL     1      10.388   7.623  12.773  1.00  0.00    -0.330 NA
ATOM     11  H   UNL     1       9.758   7.787  13.557  1.00  0.00     0.118 HD
ATOM     12  H   UNL     1      10.168   8.349  12.090  1.00  0.00     0.118 HD
ENDBRANCH   9  10
ENDBRANCH   8   9
ENDBRANCH   7   8
ENDBRANCH   1   7
BRANCH   4  13
ATOM     13  N   UNL     1       3.593   8.496   8.114  1.00  0.00    -0.362 N 
ATOM     14  H   UNL     1       2.942   9.218   8.399  1.00  0.00     0.166 HD
BRANCH  13  15
ATOM     15  C   UNL     1       3.320   7.831   6.948  1.00  0.00     0.083 C 
BRANCH  15  16
ATOM     16  C   UNL     1       2.185   7.234   6.560  1.00  0.00     0.027 C 
BRANCH  16  17
ATOM     17  C   UNL     1       2.102   5.772   6.423  1.00  0.00    -0.003 A 
ATOM     18  C   UNL     1       1.883   4.923   7.522  1.00  0.00    -0.041 A 
ATOM     19  C   UNL     1       2.277   5.155   5.175  1.00  0.00     0.119 A 
ATOM     20  C   UNL     1       1.841   3.537   7.305  1.00  0.00     0.024 A 
ATOM     21  N   UNL     1       2.221   3.822   4.945  1.00  0.00    -0.264 NA
ATOM     22  C   UNL     1       2.001   3.044   6.020  1.00  0.00     0.111 A 
ATOM     23  C   UNL     1       1.732   5.443   8.924  1.00  0.00     0.045 C 
ENDBRANCH  16  17
ENDBRANCH  15  16
ENDBRANCH  13  15
ENDBRANCH   4  13
TORSDOF 8
ENDMDL
