MODEL 1
REMARK VINA RESULT:    -5.254      0.000      0.000
REMARK INTER + INTRA:          -8.096
REMARK INTER:                  -7.557
REMARK INTRA:                  -0.539
REMARK UNBOUND:                -0.539
REMARK SMILES Cc1ccncc1/C=C/Nc1ccc(CCCN)cc1
REMARK SMILES IDX 14 1 13 2 12 3 11 4 20 5 19 6 15 7 16 8 17 9 18 10 10 13
REMARK SMILES IDX 9 15 8 16 7 17 2 18 6 19 3 20 5 21 4 22 1 23
REMARK H PARENT 18 11 18 12 10 14
ROOT
ATOM      1  C   UNL     1       5.400  -1.454  -8.110  1.00  0.00    -0.048 A 
ATOM      2  C   UNL     1       4.934  -2.471  -8.945  1.00  0.00     0.006 A 
ATOM      3  C   UNL     1       5.176  -2.430 -10.316  1.00  0.00     0.026 A 
ATOM      4  C   UNL     1       5.819  -1.344 -10.914  1.00  0.00     0.038 A 
ATOM      5  C   UNL     1       6.236  -0.297 -10.084  1.00  0.00     0.026 A 
ATOM      6  C   UNL     1       6.029  -0.350  -8.697  1.00  0.00     0.006 A 
ENDROOT
BRANCH   1   7
ATOM      7  C   UNL     1       5.233  -1.536  -6.613  1.00  0.00     0.037 C 
BRANCH   7   8
ATOM      8  C   UNL     1       4.936  -0.215  -5.876  1.00  0.00     0.020 C 
BRANCH   8   9
ATOM      9  C   UNL     1       5.721   0.024  -4.579  1.00  0.00     0.078 C 
BRANCH   9  10
ATOM     10  N   UNL     1       5.276  -0.761  -3.436  1.00  0.00    -0.330 NA
ATOM     11  H   UNL     1       4.587  -0.235  -2.899  1.00  0.00     0.118 HD
ATOM     12  H   UNL     1       6.054  -0.924  -2.797  1.00  0.00     0.118 HD
ENDBRANCH   9  10
ENDBRANCH   8   9
ENDBRANCH   7   8
ENDBRANCH   1   7
BRANCH   4  13
ATOM     13  N   UNL     1       5.961  -1.240 -12.311  1.00  0.00    -0.362 N 
ATOM     14  H   UNL     1       6.842  -0.878 -12.652  1.00  0.00     0.166 HD
BRANCH  13  15
ATOM     15  C   UNL     1       4.934  -1.344 -13.212  1.00  0.00     0.083 C 
BRANCH  15  16
ATOM     16  C   UNL     1       4.596  -0.514 -14.208  1.00  0.00     0.027 C 
BRANCH  16  17
ATOM     17  C   UNL     1       5.287  -0.561 -15.506  1.00  0.00    -0.003 A 
ATOM     18  C   UNL     1       4.916   0.258 -16.587  1.00  0.00    -0.041 A 
ATOM     19  C   UNL     1       6.335  -1.466 -15.731  1.00  0.00     0.119 A 
ATOM     20  C   UNL     1       5.613   0.131 -17.798  1.00  0.00     0.024 A 
ATOM     21  N   UNL     1       7.029  -1.589 -16.886  1.00  0.00    -0.264 NA
ATOM     22  C   UNL     1       6.651  -0.782 -17.894  1.00  0.00     0.111 A 
ATOM     23  C   UNL     1       3.776   1.234 -16.503  1.00  0.00     0.045 C 
ENDBRANCH  16  17
ENDBRANCH  15  16
ENDBRANCH  13  15
ENDBRANCH   4  13
TORSDOF 8
ENDMDL
MODEL 2
REMARK VINA RESULT:    -5.227      4.516      8.340
REMARK INTER + INTRA:          -8.057
REMARK INTER:                  -7.374
REMARK INTRA:                  -0.683
REMARK UNBOUND:                -0.539
REMARK SMILES Cc1ccncc1/C=C/Nc1ccc(CCCN)cc1
REMARK SMILES IDX 14 1 13 2 12 3 11 4 20 5 19 6 15 7 16 8 17 9 18 10 10 13
REMARK SMILES IDX 9 15 8 16 7 17 2 18 6 19 3 20 5 21 4 22 1 23
REMARK H PARENT 18 11 18 12 10 14
ROOT
ATOM      1  C   UNL     1      11.324  -3.613 -11.824  1.00  0.00    -0.048 A 
ATOM      2  C   UNL     1      10.580  -3.795 -10.656  1.00  0.00     0.006 A 
ATOM      3  C   UNL     1       9.561  -2.909 -10.318  1.00  0.00     0.026 A 
ATOM      4  C   UNL     1       9.296  -1.771 -11.083  1.00  0.00     0.038 A 
ATOM      5  C   UNL     1      10.079  -1.557 -12.224  1.00  0.00     0.026 A 
ATOM      6  C   UNL     1      11.082  -2.467 -12.591  1.00  0.00     0.006 A 
ENDROOT
BRANCH   1   7
ATOM      7  C   UNL     1      12.361  -4.620 -12.253  1.00  0.00     0.037 C 
BRANCH   7   8
ATOM      8  C   UNL     1      11.866  -6.057 -12.510  1.00  0.00     0.020 C 
BRANCH   8   9
ATOM      9  C   UNL     1      12.029  -6.579 -13.945  1.00  0.00     0.078 C 
BRANCH   9  10
ATOM     10  N   UNL     1      10.858  -6.418 -14.795  1.00  0.00    -0.330 NA
ATOM     11  H   UNL     1      11.134  -6.036 -15.699  1.00  0.00     0.118 HD
ATOM     12  H   UNL     1      10.222  -5.731 -14.391  1.00  0.00     0.118 HD
ENDBRANCH   9  10
ENDBRANCH   8   9
ENDBRANCH   7   8
ENDBRANCH   1   7
BRANCH   4  13
ATOM     13  N   UNL     1       8.348  -0.809 -10.684  1.00  0.00    -0.362 N 
ATOM     14  H   UNL     1       8.708   0.022 -10.232  1.00  0.00     0.166 HD
BRANCH  13  15
ATOM     15  C   UNL     1       6.996  -1.020 -10.625  1.00  0.00     0.083 C 
BRANCH  15  16
ATOM     16  C   UNL     1       6.104  -0.545  -9.746  1.00  0.00     0.027 C 
BRANCH  16  17
ATOM     17  C   UNL     1       5.242  -1.450  -8.971  1.00  0.00    -0.003 A 
ATOM     18  C   UNL     1       4.684  -1.084  -7.733  1.00  0.00    -0.041 A 
ATOM     19  C   UNL     1       4.968  -2.749  -9.425  1.00  0.00     0.119 A 
ATOM     20  C   UNL     1       3.892  -2.018  -7.048  1.00  0.00     0.024 A 
ATOM     21  N   UNL     1       4.192  -3.655  -8.786  1.00  0.00    -0.264 NA
ATOM     22  C   UNL     1       3.669  -3.264  -7.611  1.00  0.00     0.111 A 
ATOM     23  C   UNL     1       4.937   0.256  -7.101  1.00  0.00     0.045 C 
ENDBRANCH  16  17
ENDBRANCH  15  16
ENDBRANCH  13  15
ENDBRANCH   4  13
TORSDOF 8
ENDMDL
MODEL 3
REMARK VINA RESULT:    -5.218      1.898      8.730
REMARK INTER + INTRA:          -8.044
REMARK INTER:                  -7.446
REMARK INTRA:                  -0.598
REMARK UNBOUND:                -0.539
REMARK SMILES Cc1ccncc1/C=C/Nc1ccc(CCCN)cc1
REMARK SMILES IDX 14 1 13 2 12 3 11 4 20 5 19 6 15 7 16 8 17 9 18 10 10 13
REMARK SMILES IDX 9 15 8 16 7 17 2 18 6 19 3 20 5 21 4 22 1 23
REMARK H PARENT 18 11 18 12 10 14
ROOT
ATOM      1  C   UNL     1       4.525   0.559 -15.837  1.00  0.00    -0.048 A 
ATOM      2  C   UNL     1       3.882   0.876 -14.639  1.00  0.00     0.006 A 
ATOM      3  C   UNL     1       4.097   0.114 -13.494  1.00  0.00     0.026 A 
ATOM      4  C   UNL     1       4.895  -1.033 -13.518  1.00  0.00     0.038 A 
ATOM      5  C   UNL     1       5.495  -1.384 -14.733  1.00  0.00     0.026 A 
ATOM      6  C   UNL     1       5.312  -0.598 -15.881  1.00  0.00     0.006 A 
ENDROOT
BRANCH   1   7
ATOM      7  C   UNL     1       4.379   1.435 -17.056  1.00  0.00     0.037 C 
BRANCH   7   8
ATOM      8  C   UNL     1       4.514   2.955 -16.837  1.00  0.00     0.020 C 
BRANCH   8   9
ATOM      9  C   UNL     1       5.736   3.623 -17.484  1.00  0.00     0.078 C 
BRANCH   9  10
ATOM     10  N   UNL     1       6.970   3.522 -16.719  1.00  0.00    -0.330 NA
ATOM     11  H   UNL     1       7.288   4.451 -16.446  1.00  0.00     0.118 HD
ATOM     12  H   UNL     1       7.715   3.139 -17.302  1.00  0.00     0.118 HD
ENDBRANCH   9  10
ENDBRANCH   8   9
ENDBRANCH   7   8
ENDBRANCH   1   7
BRANCH   4  13
ATOM     13  N   UNL     1       5.022  -1.874 -12.396  1.00  0.00    -0.362 N 
ATOM     14  H   UNL     1       4.706  -2.830 -12.507  1.00  0.00     0.166 HD
BRANCH  13  15
ATOM     15  C   UNL     1       5.290  -1.446 -11.123  1.00  0.00     0.083 C 
BRANCH  15  16
ATOM     16  C   UNL     1       5.438  -2.165 -10.002  1.00  0.00     0.027 C 
BRANCH  16  17
ATOM     17  C   UNL     1       5.125  -1.594  -8.684  1.00  0.00    -0.003 A 
ATOM     18  C   UNL     1       4.385  -2.294  -7.714  1.00  0.00    -0.041 A 
ATOM     19  C   UNL     1       5.527  -0.292  -8.350  1.00  0.00     0.119 A 
ATOM     20  C   UNL     1       4.111  -1.665  -6.491  1.00  0.00     0.024 A 
ATOM     21  N   UNL     1       5.286   0.324  -7.168  1.00  0.00    -0.264 NA
ATOM     22  C   UNL     1       4.585  -0.382  -6.264  1.00  0.00     0.111 A 
ATOM     23  C   UNL     1       3.845  -3.676  -7.957  1.00  0.00     0.045 C 
ENDBRANCH  16  17
ENDBRANCH  15  16
ENDBRANCH  13  15
ENDBRANCH   4  13
TORSDOF 8
ENDMDL
MODEL 4
REMARK VINA RESULT:    -5.190      4.011      5.157
REMARK INTER + INTRA:          -8.004
REMARK INTER:                  -7.546
REMARK INTRA:                  -0.459
REMARK UNBOUND:                -0.539
REMARK SMILES Cc1ccncc1/C=C/Nc1ccc(CCCN)cc1
REMARK SMILES IDX 14 1 13 2 12 3 11 4 20 5 19 6 15 7 16 8 17 9 18 10 10 13
REMARK SMILES IDX 9 15 8 16 7 17 2 18 6 19 3 20 5 21 4 22 1 23
REMARK H PARENT 18 11 18 12 10 14
ROOT
ATOM      1  C   UNL     1       4.806  -1.421  -8.631  1.00  0.00    -0.048 A 
ATOM      2  C   UNL     1       5.677  -0.345  -8.816  1.00  0.00     0.006 A 
ATOM      3  C   UNL     1       6.553  -0.317  -9.897  1.00  0.00     0.026 A 
ATOM      4  C   UNL     1       6.651  -1.390 -10.787  1.00  0.00     0.038 A 
ATOM      5  C   UNL     1       5.819  -2.494 -10.570  1.00  0.00     0.026 A 
ATOM      6  C   UNL     1       4.907  -2.511  -9.504  1.00  0.00     0.006 A 
ENDROOT
BRANCH   1   7
ATOM      7  C   UNL     1       3.783  -1.416  -7.523  1.00  0.00     0.037 C 
BRANCH   7   8
ATOM      8  C   UNL     1       2.998  -2.723  -7.300  1.00  0.00     0.020 C 
BRANCH   8   9
ATOM      9  C   UNL     1       1.477  -2.577  -7.147  1.00  0.00     0.078 C 
BRANCH   9  10
ATOM     10  N   UNL     1       0.831  -3.632  -6.379  1.00  0.00    -0.330 NA
ATOM     11  H   UNL     1       0.791  -3.371  -5.394  1.00  0.00     0.118 HD
ATOM     12  H   UNL     1       1.391  -4.484  -6.414  1.00  0.00     0.118 HD
ENDBRANCH   9  10
ENDBRANCH   8   9
ENDBRANCH   7   8
ENDBRANCH   1   7
BRANCH   4  13
ATOM     13  N   UNL     1       7.617  -1.421 -11.811  1.00  0.00    -0.362 N 
ATOM     14  H   UNL     1       7.304  -1.164 -12.739  1.00  0.00     0.166 HD
BRANCH  13  15
ATOM     15  C   UNL     1       8.851  -2.006 -11.706  1.00  0.00     0.083 C 
BRANCH  15  16
ATOM     16  C   UNL     1      10.055  -1.502 -12.006  1.00  0.00     0.027 C 
BRANCH  16  17
ATOM     17  C   UNL     1      10.784  -1.936 -13.208  1.00  0.00    -0.003 A 
ATOM     18  C   UNL     1      11.721  -2.985 -13.183  1.00  0.00    -0.041 A 
ATOM     19  C   UNL     1      10.599  -1.285 -14.436  1.00  0.00     0.119 A 
ATOM     20  C   UNL     1      12.390  -3.318 -14.371  1.00  0.00     0.024 A 
ATOM     21  N   UNL     1      11.223  -1.605 -15.594  1.00  0.00    -0.264 NA
ATOM     22  C   UNL     1      12.103  -2.620 -15.533  1.00  0.00     0.111 A 
ATOM     23  C   UNL     1      12.057  -3.734 -11.925  1.00  0.00     0.045 C 
ENDBRANCH  16  17
ENDBRANCH  15  16
ENDBRANCH  13  15
ENDBRANCH   4  13
TORSDOF 8
ENDMDL
MODEL 5
REMARK VINA RESULT:    -5.168      3.713      4.808
REMARK INTER + INTRA:          -7.973
REMARK INTER:                  -7.309
REMARK INTRA:                  -0.665
REMARK UNBOUND:                -0.539
REMARK SMILES Cc1ccncc1/C=C/Nc1ccc(CCCN)cc1
REMARK SMILES IDX 14 1 13 2 12 3 11 4 20 5 19 6 15 7 16 8 17 9 18 10 10 13
REMARK SMILES IDX 9 15 8 16 7 17 2 18 6 19 3 20 5 21 4 22 1 23
REMARK H PARENT 18 11 18 12 10 14
ROOT
ATOM      1  C   UNL     1       4.763  -0.523  -7.901  1.00  0.00    -0.048 A 
ATOM      2  C   UNL     1       5.682   0.424  -8.357  1.00  0.00     0.006 A 
ATOM      3  C   UNL     1       6.457   0.177  -9.486  1.00  0.00     0.026 A 
ATOM      4  C   UNL     1       6.403  -1.047 -10.157  1.00  0.00     0.038 A 
ATOM      5  C   UNL     1       5.523  -2.020  -9.668  1.00  0.00     0.026 A 
ATOM      6  C   UNL     1       4.712  -1.762  -8.552  1.00  0.00     0.006 A 
ENDROOT
BRANCH   1   7
ATOM      7  C   UNL     1       3.847  -0.227  -6.740  1.00  0.00     0.037 C 
BRANCH   7   8
ATOM      8  C   UNL     1       4.133  -0.978  -5.425  1.00  0.00     0.020 C 
BRANCH   8   9
ATOM      9  C   UNL     1       5.406  -0.560  -4.674  1.00  0.00     0.078 C 
BRANCH   9  10
ATOM     10  N   UNL     1       5.380   0.785  -4.120  1.00  0.00    -0.330 NA
ATOM     11  H   UNL     1       5.459   1.473  -4.868  1.00  0.00     0.118 HD
ATOM     12  H   UNL     1       6.195   0.936  -3.524  1.00  0.00     0.118 HD
ENDBRANCH   9  10
ENDBRANCH   8   9
ENDBRANCH   7   8
ENDBRANCH   1   7
BRANCH   4  13
ATOM     13  N   UNL     1       7.268  -1.349 -11.227  1.00  0.00    -0.362 N 
ATOM     14  H   UNL     1       6.933  -1.131 -12.157  1.00  0.00     0.166 HD
BRANCH  13  15
ATOM     15  C   UNL     1       8.388  -2.132 -11.131  1.00  0.00     0.083 C 
BRANCH  15  16
ATOM     16  C   UNL     1       9.677  -1.780 -11.230  1.00  0.00     0.027 C 
BRANCH  16  17
ATOM     17  C   UNL     1      10.435  -2.006 -12.470  1.00  0.00    -0.003 A 
ATOM     18  C   UNL     1      11.456  -2.967 -12.564  1.00  0.00    -0.041 A 
ATOM     19  C   UNL     1      10.190  -1.231 -13.614  1.00  0.00     0.119 A 
ATOM     20  C   UNL     1      12.146  -3.101 -13.779  1.00  0.00     0.024 A 
ATOM     21  N   UNL     1      10.834  -1.359 -14.798  1.00  0.00    -0.264 NA
ATOM     22  C   UNL     1      11.797  -2.296 -14.852  1.00  0.00     0.111 A 
ATOM     23  C   UNL     1      11.860  -3.829 -11.401  1.00  0.00     0.045 C 
ENDBRANCH  16  17
ENDBRANCH  15  16
ENDBRANCH  13  15
ENDBRANCH   4  13
TORSDOF 8
ENDMDL
MODEL 6
REMARK VINA RESULT:    -5.080      2.171      8.602
REMARK INTER + INTRA:          -7.846
REMARK INTER:                  -7.283
REMARK INTRA:                  -0.563
REMARK UNBOUND:                -0.539
REMARK SMILES Cc1ccncc1/C=C/Nc1ccc(CCCN)cc1
REMARK SMILES IDX 14 1 13 2 12 3 11 4 20 5 19 6 15 7 16 8 17 9 18 10 10 13
REMARK SMILES IDX 9 15 8 16 7 17 2 18 6 19 3 20 5 21 4 22 1 23
REMARK H PARENT 18 11 18 12 10 14
ROOT
ATOM      1  C   UNL     1       4.564   0.188 -15.363  1.00  0.00    -0.048 A 
ATOM      2  C   UNL     1       5.476  -0.868 -15.308  1.00  0.00     0.006 A 
ATOM      3  C   UNL     1       5.697  -1.554 -14.117  1.00  0.00     0.026 A 
ATOM      4  C   UNL     1       5.081  -1.167 -12.924  1.00  0.00     0.038 A 
ATOM      5  C   UNL     1       4.210  -0.072 -12.966  1.00  0.00     0.026 A 
ATOM      6  C   UNL     1       3.954   0.599 -14.172  1.00  0.00     0.006 A 
ENDROOT
BRANCH   1   7
ATOM      7  C   UNL     1       4.242   0.873 -16.668  1.00  0.00     0.037 C 
BRANCH   7   8
ATOM      8  C   UNL     1       4.363   2.409 -16.692  1.00  0.00     0.020 C 
BRANCH   8   9
ATOM      9  C   UNL     1       5.578   2.976 -17.440  1.00  0.00     0.078 C 
BRANCH   9  10
ATOM     10  N   UNL     1       6.622   3.529 -16.588  1.00  0.00    -0.330 NA
ATOM     11  H   UNL     1       7.128   2.776 -16.124  1.00  0.00     0.118 HD
ATOM     12  H   UNL     1       6.207   4.083 -15.839  1.00  0.00     0.118 HD
ENDBRANCH   9  10
ENDBRANCH   8   9
ENDBRANCH   7   8
ENDBRANCH   1   7
BRANCH   4  13
ATOM     13  N   UNL     1       5.389  -1.779 -11.694  1.00  0.00    -0.362 N 
ATOM     14  H   UNL     1       5.314  -2.788 -11.657  1.00  0.00     0.166 HD
BRANCH  13  15
ATOM     15  C   UNL     1       5.527  -1.116 -10.503  1.00  0.00     0.083 C 
BRANCH  15  16
ATOM     16  C   UNL     1       5.721  -1.616  -9.275  1.00  0.00     0.027 C 
BRANCH  16  17
ATOM     17  C   UNL     1       4.596  -1.828  -8.352  1.00  0.00    -0.003 A 
ATOM     18  C   UNL     1       4.200  -0.861  -7.411  1.00  0.00    -0.041 A 
ATOM     19  C   UNL     1       3.887  -3.038  -8.348  1.00  0.00     0.119 A 
ATOM     20  C   UNL     1       3.131  -1.155  -6.552  1.00  0.00     0.024 A 
ATOM     21  N   UNL     1       2.842  -3.331  -7.539  1.00  0.00    -0.264 NA
ATOM     22  C   UNL     1       2.487  -2.377  -6.660  1.00  0.00     0.111 A 
ATOM     23  C   UNL     1       4.906   0.459  -7.268  1.00  0.00     0.045 C 
ENDBRANCH  16  17
ENDBRANCH  15  16
ENDBRANCH  13  15
ENDBRANCH   4  13
TORSDOF 8
ENDMDL
MODEL 7
REMARK VINA RESULT:    -5.071      1.809      2.295
REMARK INTER + INTRA:          -7.832
REMARK INTER:                  -7.424
REMARK INTRA:                  -0.408
REMARK UNBOUND:                -0.539
REMARK SMILES Cc1ccncc1/C=C/Nc1ccc(CCCN)cc1
REMARK SMILES IDX 14 1 13 2 12 3 11 4 20 5 19 6 15 7 16 8 17 9 18 10 10 13
REMARK SMILES IDX 9 15 8 16 7 17 2 18 6 19 3 20 5 21 4 22 1 23
REMARK H PARENT 18 11 18 12 10 14
ROOT
ATOM      1  C   UNL     1       4.710  -2.156  -7.836  1.00  0.00    -0.048 A 
ATOM      2  C   UNL     1       5.362  -0.967  -8.170  1.00  0.00     0.006 A 
ATOM      3  C   UNL     1       5.782  -0.730  -9.476  1.00  0.00     0.026 A 
ATOM      4  C   UNL     1       5.641  -1.695 -10.477  1.00  0.00     0.038 A 
ATOM      5  C   UNL     1       5.039  -2.910 -10.130  1.00  0.00     0.026 A 
ATOM      6  C   UNL     1       4.579  -3.140  -8.824  1.00  0.00     0.006 A 
ENDROOT
BRANCH   1   7
ATOM      7  C   UNL     1       4.161  -2.382  -6.450  1.00  0.00     0.037 C 
BRANCH   7   8
ATOM      8  C   UNL     1       2.732  -1.873  -6.181  1.00  0.00     0.020 C 
BRANCH   8   9
ATOM      9  C   UNL     1       1.616  -2.524  -7.011  1.00  0.00     0.078 C 
BRANCH   9  10
ATOM     10  N   UNL     1       0.888  -3.589  -6.336  1.00  0.00    -0.330 NA
ATOM     11  H   UNL     1       0.854  -4.418  -6.928  1.00  0.00     0.118 HD
ATOM     12  H   UNL     1      -0.084  -3.315  -6.194  1.00  0.00     0.118 HD
ENDBRANCH   9  10
ENDBRANCH   8   9
ENDBRANCH   7   8
ENDBRANCH   1   7
BRANCH   4  13
ATOM     13  N   UNL     1       6.170  -1.510 -11.768  1.00  0.00    -0.362 N 
ATOM     14  H   UNL     1       7.152  -1.722 -11.892  1.00  0.00     0.166 HD
BRANCH  13  15
ATOM     15  C   UNL     1       5.542  -0.835 -12.782  1.00  0.00     0.083 C 
BRANCH  15  16
ATOM     16  C   UNL     1       4.972  -1.318 -13.894  1.00  0.00     0.027 C 
BRANCH  16  17
ATOM     17  C   UNL     1       5.512  -1.004 -15.225  1.00  0.00    -0.003 A 
ATOM     18  C   UNL     1       4.984   0.020 -16.031  1.00  0.00    -0.041 A 
ATOM     19  C   UNL     1       6.569  -1.751 -15.768  1.00  0.00     0.119 A 
ATOM     20  C   UNL     1       5.544   0.237 -17.299  1.00  0.00     0.024 A 
ATOM     21  N   UNL     1       7.132  -1.544 -16.981  1.00  0.00    -0.264 NA
ATOM     22  C   UNL     1       6.606  -0.549 -17.717  1.00  0.00     0.111 A 
ATOM     23  C   UNL     1       3.818   0.863 -15.598  1.00  0.00     0.045 C 
ENDBRANCH  16  17
ENDBRANCH  15  16
ENDBRANCH  13  15
ENDBRANCH   4  13
TORSDOF 8
ENDMDL
MODEL 8
REMARK VINA RESULT:    -5.066      4.126      8.673
REMARK INTER + INTRA:          -7.826
REMARK INTER:                  -7.191
REMARK INTRA:                  -0.635
REMARK UNBOUND:                -0.539
REMARK SMILES Cc1ccncc1/C=C/Nc1ccc(CCCN)cc1
REMARK SMILES IDX 14 1 13 2 12 3 11 4 20 5 19 6 15 7 16 8 17 9 18 10 10 13
REMARK SMILES IDX 9 15 8 16 7 17 2 18 6 19 3 20 5 21 4 22 1 23
REMARK H PARENT 18 11 18 12 10 14
ROOT
ATOM      1  C   UNL     1      10.874  -3.083 -11.740  1.00  0.00    -0.048 A 
ATOM      2  C   UNL     1      10.145  -3.335 -10.576  1.00  0.00     0.006 A 
ATOM      3  C   UNL     1       8.928  -2.700 -10.349  1.00  0.00     0.026 A 
ATOM      4  C   UNL     1       8.429  -1.737 -11.229  1.00  0.00     0.038 A 
ATOM      5  C   UNL     1       9.187  -1.441 -12.369  1.00  0.00     0.026 A 
ATOM      6  C   UNL     1      10.396  -2.106 -12.622  1.00  0.00     0.006 A 
ENDROOT
BRANCH   1   7
ATOM      7  C   UNL     1      12.144  -3.838 -12.045  1.00  0.00     0.037 C 
BRANCH   7   8
ATOM      8  C   UNL     1      12.022  -5.369 -12.180  1.00  0.00     0.020 C 
BRANCH   8   9
ATOM      9  C   UNL     1      12.217  -5.937 -13.593  1.00  0.00     0.078 C 
BRANCH   9  10
ATOM     10  N   UNL     1      11.000  -6.404 -14.242  1.00  0.00    -0.330 NA
ATOM     11  H   UNL     1      10.204  -6.287 -13.616  1.00  0.00     0.118 HD
ATOM     12  H   UNL     1      11.060  -7.406 -14.423  1.00  0.00     0.118 HD
ENDBRANCH   9  10
ENDBRANCH   8   9
ENDBRANCH   7   8
ENDBRANCH   1   7
BRANCH   4  13
ATOM     13  N   UNL     1       7.259  -1.005 -10.947  1.00  0.00    -0.362 N 
ATOM     14  H   UNL     1       6.935  -0.371 -11.667  1.00  0.00     0.166 HD
BRANCH  13  15
ATOM     15  C   UNL     1       6.686  -0.893  -9.708  1.00  0.00     0.083 C 
BRANCH  15  16
ATOM     16  C   UNL     1       5.496  -1.336  -9.283  1.00  0.00     0.027 C 
BRANCH  16  17
ATOM     17  C   UNL     1       5.085  -1.190  -7.879  1.00  0.00    -0.003 A 
ATOM     18  C   UNL     1       4.366  -2.186  -7.195  1.00  0.00    -0.041 A 
ATOM     19  C   UNL     1       5.366  -0.015  -7.166  1.00  0.00     0.119 A 
ATOM     20  C   UNL     1       3.993  -1.955  -5.863  1.00  0.00     0.024 A 
ATOM     21  N   UNL     1       5.030   0.218  -5.875  1.00  0.00    -0.264 NA
ATOM     22  C   UNL     1       4.352  -0.763  -5.253  1.00  0.00     0.111 A 
ATOM     23  C   UNL     1       3.951  -3.472  -7.853  1.00  0.00     0.045 C 
ENDBRANCH  16  17
ENDBRANCH  15  16
ENDBRANCH  13  15
ENDBRANCH   4  13
TORSDOF 8
ENDMDL
MODEL 9
REMARK VINA RESULT:    -5.018      1.294      1.862
REMARK INTER + INTRA:          -7.757
REMARK INTER:                  -7.225
REMARK INTRA:                  -0.532
REMARK UNBOUND:                -0.539
REMARK SMILES Cc1ccncc1/C=C/Nc1ccc(CCCN)cc1
REMARK SMILES IDX 14 1 13 2 12 3 11 4 20 5 19 6 15 7 16 8 17 9 18 10 10 13
REMARK SMILES IDX 9 15 8 16 7 17 2 18 6 19 3 20 5 21 4 22 1 23
REMARK H PARENT 18 11 18 12 10 14
ROOT
ATOM      1  C   UNL     1       5.372  -1.489  -8.445  1.00  0.00    -0.048 A 
ATOM      2  C   UNL     1       4.957  -2.468  -9.350  1.00  0.00     0.006 A 
ATOM      3  C   UNL     1       5.307  -2.386 -10.694  1.00  0.00     0.026 A 
ATOM      4  C   UNL     1       6.013  -1.293 -11.202  1.00  0.00     0.038 A 
ATOM      5  C   UNL     1       6.381  -0.282 -10.306  1.00  0.00     0.026 A 
ATOM      6  C   UNL     1       6.064  -0.378  -8.942  1.00  0.00     0.006 A 
ENDROOT
BRANCH   1   7
ATOM      7  C   UNL     1       5.085  -1.618  -6.970  1.00  0.00     0.037 C 
BRANCH   7   8
ATOM      8  C   UNL     1       5.063  -0.311  -6.152  1.00  0.00     0.020 C 
BRANCH   8   9
ATOM      9  C   UNL     1       5.333  -0.454  -4.647  1.00  0.00     0.078 C 
BRANCH   9  10
ATOM     10  N   UNL     1       5.768   0.766  -3.982  1.00  0.00    -0.330 NA
ATOM     11  H   UNL     1       5.544   1.576  -4.558  1.00  0.00     0.118 HD
ATOM     12  H   UNL     1       6.783   0.771  -3.885  1.00  0.00     0.118 HD
ENDBRANCH   9  10
ENDBRANCH   8   9
ENDBRANCH   7   8
ENDBRANCH   1   7
BRANCH   4  13
ATOM     13  N   UNL     1       6.267  -1.145 -12.579  1.00  0.00    -0.362 N 
ATOM     14  H   UNL     1       7.187  -0.812 -12.838  1.00  0.00     0.166 HD
BRANCH  13  15
ATOM     15  C   UNL     1       5.309  -1.166 -13.558  1.00  0.00     0.083 C 
BRANCH  15  16
ATOM     16  C   UNL     1       5.457  -1.294 -14.883  1.00  0.00     0.027 C 
BRANCH  16  17
ATOM     17  C   UNL     1       5.057  -0.218 -15.802  1.00  0.00    -0.003 A 
ATOM     18  C   UNL     1       5.650  -0.045 -17.065  1.00  0.00    -0.041 A 
ATOM     19  C   UNL     1       4.077   0.716 -15.433  1.00  0.00     0.119 A 
ATOM     20  C   UNL     1       5.224   1.023 -17.869  1.00  0.00     0.024 A 
ATOM     21  N   UNL     1       3.642   1.741 -16.203  1.00  0.00    -0.264 NA
ATOM     22  C   UNL     1       4.226   1.867 -17.407  1.00  0.00     0.111 A 
ATOM     23  C   UNL     1       6.749  -0.938 -17.567  1.00  0.00     0.045 C 
ENDBRANCH  16  17
ENDBRANCH  15  16
ENDBRANCH  13  15
ENDBRANCH   4  13
TORSDOF 8
ENDMDL
