MODEL 1
REMARK VINA RESULT:    -5.121      0.000      0.000
REMARK INTER + INTRA:          -8.039
REMARK INTER:                  -7.366
REMARK INTRA:                  -0.673
REMARK UNBOUND:                -0.673
REMARK SMILES Cc1ccncc1/C=C/Nc1ccc(CCCN)cc1
REMARK SMILES IDX 14 1 13 2 12 3 11 4 20 5 19 6 15 7 16 8 17 9 18 10 10 13
REMARK SMILES IDX 9 15 8 16 7 17 2 18 6 19 3 20 5 21 4 22 1 23
REMARK H PARENT 18 11 18 12 10 14
ROOT
ATOM      1  C   UNL     1      -0.396 -14.409  -7.536  1.00  0.00    -0.048 A 
ATOM      2  C   UNL     1      -1.659 -14.825  -7.110  1.00  0.00     0.006 A 
ATOM      3  C   UNL     1      -2.461 -13.988  -6.340  1.00  0.00     0.026 A 
ATOM      4  C   UNL     1      -2.008 -12.742  -5.900  1.00  0.00     0.038 A 
ATOM      5  C   UNL     1      -0.720 -12.346  -6.279  1.00  0.00     0.026 A 
ATOM      6  C   UNL     1       0.078 -13.170  -7.087  1.00  0.00     0.006 A 
ENDROOT
BRANCH   1   7
ATOM      7  C   UNL     1       0.439 -15.265  -8.454  1.00  0.00     0.037 C 
BRANCH   7   8
ATOM      8  C   UNL     1       1.822 -15.699  -7.928  1.00  0.00     0.020 C 
BRANCH   8   9
ATOM      9  C   UNL     1       1.949 -17.168  -7.498  1.00  0.00     0.078 C 
BRANCH   9  10
ATOM     10  N   UNL     1       1.941 -17.391  -6.060  1.00  0.00    -0.330 NA
ATOM     11  H   UNL     1       1.262 -16.775  -5.615  1.00  0.00     0.118 HD
ATOM     12  H   UNL     1       2.845 -17.137  -5.660  1.00  0.00     0.118 HD
ENDBRANCH   9  10
ENDBRANCH   8   9
ENDBRANCH   7   8
ENDBRANCH   1   7
BRANCH   4  13
ATOM     13  N   UNL     1      -2.766 -11.941  -5.024  1.00  0.00    -0.362 N 
ATOM     14  H   UNL     1      -3.522 -11.409  -5.434  1.00  0.00     0.166 HD
BRANCH  13  15
ATOM     15  C   UNL     1      -2.406 -11.632  -3.739  1.00  0.00     0.083 C 
BRANCH  15  16
ATOM     16  C   UNL     1      -2.791 -10.598  -2.978  1.00  0.00     0.027 C 
BRANCH  16  17
ATOM     17  C   UNL     1      -1.805  -9.709  -2.346  1.00  0.00    -0.003 A 
ATOM     18  C   UNL     1      -2.060  -8.347  -2.109  1.00  0.00    -0.041 A 
ATOM     19  C   UNL     1      -0.536 -10.185  -1.982  1.00  0.00     0.119 A 
ATOM     20  C   UNL     1      -1.053  -7.565  -1.522  1.00  0.00     0.024 A 
ATOM     21  N   UNL     1       0.439  -9.450  -1.399  1.00  0.00    -0.264 NA
ATOM     22  C   UNL     1       0.154  -8.154  -1.180  1.00  0.00     0.111 A 
ATOM     23  C   UNL     1      -3.355  -7.692  -2.497  1.00  0.00     0.045 C 
ENDBRANCH  16  17
ENDBRANCH  15  16
ENDBRANCH  13  15
ENDBRANCH   4  13
TORSDOF 8
ENDMDL
MODEL 2
REMARK VINA RESULT:    -5.111      4.778      6.795
REMARK INTER + INTRA:          -8.025
REMARK INTER:                  -7.419
REMARK INTRA:                  -0.606
REMARK UNBOUND:                -0.673
REMARK SMILES Cc1ccncc1/C=C/Nc1ccc(CCCN)cc1
REMARK SMILES IDX 14 1 13 2 12 3 11 4 20 5 19 6 15 7 16 8 17 9 18 10 10 13
REMARK SMILES IDX 9 15 8 16 7 17 2 18 6 19 3 20 5 21 4 22 1 23
REMARK H PARENT 18 11 18 12 10 14
ROOT
ATOM      1  C   UNL     1      -4.729 -15.861   0.141  1.00  0.00    -0.048 A 
ATOM      2  C   UNL     1      -4.896 -14.516   0.477  1.00  0.00     0.006 A 
ATOM      3  C   UNL     1      -3.975 -13.560   0.060  1.00  0.00     0.026 A 
ATOM      4  C   UNL     1      -2.818 -13.913  -0.638  1.00  0.00     0.038 A 
ATOM      5  C   UNL     1      -2.620 -15.269  -0.927  1.00  0.00     0.026 A 
ATOM      6  C   UNL     1      -3.565 -16.233  -0.542  1.00  0.00     0.006 A 
ENDROOT
BRANCH   1   7
ATOM      7  C   UNL     1      -5.771 -16.891   0.500  1.00  0.00     0.037 C 
BRANCH   7   8
ATOM      8  C   UNL     1      -7.217 -16.596   0.056  1.00  0.00     0.020 C 
BRANCH   8   9
ATOM      9  C   UNL     1      -7.782 -17.505  -1.045  1.00  0.00     0.078 C 
BRANCH   9  10
ATOM     10  N   UNL     1      -7.845 -16.903  -2.369  1.00  0.00    -0.330 NA
ATOM     11  H   UNL     1      -8.550 -16.166  -2.384  1.00  0.00     0.118 HD
ATOM     12  H   UNL     1      -8.156 -17.592  -3.054  1.00  0.00     0.118 HD
ENDBRANCH   9  10
ENDBRANCH   8   9
ENDBRANCH   7   8
ENDBRANCH   1   7
BRANCH   4  13
ATOM     13  N   UNL     1      -1.824 -12.969  -0.959  1.00  0.00    -0.362 N 
ATOM     14  H   UNL     1      -1.068 -12.862  -0.295  1.00  0.00     0.166 HD
BRANCH  13  15
ATOM     15  C   UNL     1      -1.932 -12.024  -1.944  1.00  0.00     0.083 C 
BRANCH  15  16
ATOM     16  C   UNL     1      -1.118 -10.998  -2.225  1.00  0.00     0.027 C 
BRANCH  16  17
ATOM     17  C   UNL     1      -1.626  -9.620  -2.301  1.00  0.00    -0.003 A 
ATOM     18  C   UNL     1      -0.858  -8.510  -1.907  1.00  0.00    -0.041 A 
ATOM     19  C   UNL     1      -2.933  -9.358  -2.740  1.00  0.00     0.119 A 
ATOM     20  C   UNL     1      -1.430  -7.231  -1.989  1.00  0.00     0.024 A 
ATOM     21  N   UNL     1      -3.494  -8.130  -2.842  1.00  0.00    -0.264 NA
ATOM     22  C   UNL     1      -2.724  -7.093  -2.466  1.00  0.00     0.111 A 
ATOM     23  C   UNL     1       0.537  -8.648  -1.366  1.00  0.00     0.045 C 
ENDBRANCH  16  17
ENDBRANCH  15  16
ENDBRANCH  13  15
ENDBRANCH   4  13
TORSDOF 8
ENDMDL
MODEL 3
REMARK VINA RESULT:    -4.977      4.670      6.570
REMARK INTER + INTRA:          -7.832
REMARK INTER:                  -7.201
REMARK INTRA:                  -0.630
REMARK UNBOUND:                -0.673
REMARK SMILES Cc1ccncc1/C=C/Nc1ccc(CCCN)cc1
REMARK SMILES IDX 14 1 13 2 12 3 11 4 20 5 19 6 15 7 16 8 17 9 18 10 10 13
REMARK SMILES IDX 9 15 8 16 7 17 2 18 6 19 3 20 5 21 4 22 1 23
REMARK H PARENT 18 11 18 12 10 14
ROOT
ATOM      1  C   UNL     1      -4.814 -15.980   0.126  1.00  0.00    -0.048 A 
ATOM      2  C   UNL     1      -3.671 -16.341  -0.589  1.00  0.00     0.006 A 
ATOM      3  C   UNL     1      -2.725 -15.384  -0.947  1.00  0.00     0.026 A 
ATOM      4  C   UNL     1      -2.917 -14.027  -0.676  1.00  0.00     0.038 A 
ATOM      5  C   UNL     1      -4.091 -13.657  -0.009  1.00  0.00     0.026 A 
ATOM      6  C   UNL     1      -5.029 -14.621   0.388  1.00  0.00     0.006 A 
ENDROOT
BRANCH   1   7
ATOM      7  C   UNL     1      -5.795 -17.020   0.607  1.00  0.00     0.037 C 
BRANCH   7   8
ATOM      8  C   UNL     1      -7.249 -16.877   0.118  1.00  0.00     0.020 C 
BRANCH   8   9
ATOM      9  C   UNL     1      -7.633 -17.720  -1.107  1.00  0.00     0.078 C 
BRANCH   9  10
ATOM     10  N   UNL     1      -7.800 -16.968  -2.343  1.00  0.00    -0.330 NA
ATOM     11  H   UNL     1      -7.547 -15.992  -2.194  1.00  0.00     0.118 HD
ATOM     12  H   UNL     1      -8.783 -16.956  -2.617  1.00  0.00     0.118 HD
ENDBRANCH   9  10
ENDBRANCH   8   9
ENDBRANCH   7   8
ENDBRANCH   1   7
BRANCH   4  13
ATOM     13  N   UNL     1      -2.024 -13.042  -1.139  1.00  0.00    -0.362 N 
ATOM     14  H   UNL     1      -1.363 -12.676  -0.466  1.00  0.00     0.166 HD
BRANCH  13  15
ATOM     15  C   UNL     1      -2.148 -12.370  -2.327  1.00  0.00     0.083 C 
BRANCH  15  16
ATOM     16  C   UNL     1      -2.346 -11.063  -2.542  1.00  0.00     0.027 C 
BRANCH  16  17
ATOM     17  C   UNL     1      -1.365 -10.060  -2.101  1.00  0.00    -0.003 A 
ATOM     18  C   UNL     1      -1.664  -8.688  -2.040  1.00  0.00    -0.041 A 
ATOM     19  C   UNL     1      -0.058 -10.436  -1.755  1.00  0.00     0.119 A 
ATOM     20  C   UNL     1      -0.660  -7.797  -1.631  1.00  0.00     0.024 A 
ATOM     21  N   UNL     1       0.917  -9.593  -1.342  1.00  0.00    -0.264 NA
ATOM     22  C   UNL     1       0.589  -8.290  -1.287  1.00  0.00     0.111 A 
ATOM     23  C   UNL     1      -3.007  -8.139  -2.433  1.00  0.00     0.045 C 
ENDBRANCH  16  17
ENDBRANCH  15  16
ENDBRANCH  13  15
ENDBRANCH   4  13
TORSDOF 8
ENDMDL
MODEL 4
REMARK VINA RESULT:    -4.933      4.561      8.404
REMARK INTER + INTRA:          -7.768
REMARK INTER:                  -7.240
REMARK INTRA:                  -0.528
REMARK UNBOUND:                -0.673
REMARK SMILES Cc1ccncc1/C=C/Nc1ccc(CCCN)cc1
REMARK SMILES IDX 14 1 13 2 12 3 11 4 20 5 19 6 15 7 16 8 17 9 18 10 10 13
REMARK SMILES IDX 9 15 8 16 7 17 2 18 6 19 3 20 5 21 4 22 1 23
REMARK H PARENT 18 11 18 12 10 14
ROOT
ATOM      1  C   UNL     1      -1.803  -8.867  -2.769  1.00  0.00    -0.048 A 
ATOM      2  C   UNL     1      -0.848  -9.647  -2.114  1.00  0.00     0.006 A 
ATOM      3  C   UNL     1      -1.039 -11.016  -1.951  1.00  0.00     0.026 A 
ATOM      4  C   UNL     1      -2.217 -11.645  -2.363  1.00  0.00     0.038 A 
ATOM      5  C   UNL     1      -3.200 -10.854  -2.969  1.00  0.00     0.026 A 
ATOM      6  C   UNL     1      -2.997  -9.480  -3.170  1.00  0.00     0.006 A 
ENDROOT
BRANCH   1   7
ATOM      7  C   UNL     1      -1.563  -7.403  -3.041  1.00  0.00     0.037 C 
BRANCH   7   8
ATOM      8  C   UNL     1      -2.805  -6.492  -3.072  1.00  0.00     0.020 C 
BRANCH   8   9
ATOM      9  C   UNL     1      -2.736  -5.292  -4.028  1.00  0.00     0.078 C 
BRANCH   9  10
ATOM     10  N   UNL     1      -1.671  -4.341  -3.746  1.00  0.00    -0.330 NA
ATOM     11  H   UNL     1      -1.230  -4.043  -4.615  1.00  0.00     0.118 HD
ATOM     12  H   UNL     1      -0.931  -4.791  -3.206  1.00  0.00     0.118 HD
ENDBRANCH   9  10
ENDBRANCH   8   9
ENDBRANCH   7   8
ENDBRANCH   1   7
BRANCH   4  13
ATOM     13  N   UNL     1      -2.467 -13.005  -2.095  1.00  0.00    -0.362 N 
ATOM     14  H   UNL     1      -2.827 -13.560  -2.861  1.00  0.00     0.166 HD
BRANCH  13  15
ATOM     15  C   UNL     1      -2.508 -13.561  -0.844  1.00  0.00     0.083 C 
BRANCH  15  16
ATOM     16  C   UNL     1      -3.467 -14.308  -0.281  1.00  0.00     0.027 C 
BRANCH  16  17
ATOM     17  C   UNL     1      -3.598 -15.740  -0.591  1.00  0.00    -0.003 A 
ATOM     18  C   UNL     1      -4.552 -16.563   0.034  1.00  0.00    -0.041 A 
ATOM     19  C   UNL     1      -2.738 -16.359  -1.510  1.00  0.00     0.119 A 
ATOM     20  C   UNL     1      -4.592 -17.924  -0.303  1.00  0.00     0.024 A 
ATOM     21  N   UNL     1      -2.775 -17.666  -1.860  1.00  0.00    -0.264 NA
ATOM     22  C   UNL     1      -3.707 -18.418  -1.248  1.00  0.00     0.111 A 
ATOM     23  C   UNL     1      -5.501 -16.044   1.078  1.00  0.00     0.045 C 
ENDBRANCH  16  17
ENDBRANCH  15  16
ENDBRANCH  13  15
ENDBRANCH   4  13
TORSDOF 8
ENDMDL
MODEL 5
REMARK VINA RESULT:    -4.922      2.001      8.520
REMARK INTER + INTRA:          -7.752
REMARK INTER:                  -7.203
REMARK INTRA:                  -0.549
REMARK UNBOUND:                -0.673
REMARK SMILES Cc1ccncc1/C=C/Nc1ccc(CCCN)cc1
REMARK SMILES IDX 14 1 13 2 12 3 11 4 20 5 19 6 15 7 16 8 17 9 18 10 10 13
REMARK SMILES IDX 9 15 8 16 7 17 2 18 6 19 3 20 5 21 4 22 1 23
REMARK H PARENT 18 11 18 12 10 14
ROOT
ATOM      1  C   UNL     1      -1.683  -9.109  -1.681  1.00  0.00    -0.048 A 
ATOM      2  C   UNL     1      -2.789  -9.243  -2.523  1.00  0.00     0.006 A 
ATOM      3  C   UNL     1      -2.979 -10.404  -3.267  1.00  0.00     0.026 A 
ATOM      4  C   UNL     1      -2.039 -11.438  -3.262  1.00  0.00     0.038 A 
ATOM      5  C   UNL     1      -0.901 -11.281  -2.462  1.00  0.00     0.026 A 
ATOM      6  C   UNL     1      -0.724 -10.129  -1.681  1.00  0.00     0.006 A 
ENDROOT
BRANCH   1   7
ATOM      7  C   UNL     1      -1.520  -7.900  -0.795  1.00  0.00     0.037 C 
BRANCH   7   8
ATOM      8  C   UNL     1      -0.076  -7.488  -0.446  1.00  0.00     0.020 C 
BRANCH   8   9
ATOM      9  C   UNL     1       0.168  -7.055   1.007  1.00  0.00     0.078 C 
BRANCH   9  10
ATOM     10  N   UNL     1      -0.434  -5.783   1.380  1.00  0.00    -0.330 NA
ATOM     11  H   UNL     1      -0.555  -5.737   2.390  1.00  0.00     0.118 HD
ATOM     12  H   UNL     1      -1.373  -5.710   0.988  1.00  0.00     0.118 HD
ENDBRANCH   9  10
ENDBRANCH   8   9
ENDBRANCH   7   8
ENDBRANCH   1   7
BRANCH   4  13
ATOM     13  N   UNL     1      -2.165 -12.562  -4.102  1.00  0.00    -0.362 N 
ATOM     14  H   UNL     1      -2.036 -13.468  -3.670  1.00  0.00     0.166 HD
BRANCH  13  15
ATOM     15  C   UNL     1      -2.188 -12.517  -5.471  1.00  0.00     0.083 C 
BRANCH  15  16
ATOM     16  C   UNL     1      -1.403 -13.152  -6.351  1.00  0.00     0.027 C 
BRANCH  16  17
ATOM     17  C   UNL     1      -1.698 -14.527  -6.781  1.00  0.00    -0.003 A 
ATOM     18  C   UNL     1      -0.969 -15.173  -7.795  1.00  0.00    -0.041 A 
ATOM     19  C   UNL     1      -2.761 -15.246  -6.213  1.00  0.00     0.119 A 
ATOM     20  C   UNL     1      -1.334 -16.478  -8.160  1.00  0.00     0.024 A 
ATOM     21  N   UNL     1      -3.114 -16.511  -6.541  1.00  0.00    -0.264 NA
ATOM     22  C   UNL     1      -2.387 -17.099  -7.508  1.00  0.00     0.111 A 
ATOM     23  C   UNL     1       0.159 -14.503  -8.527  1.00  0.00     0.045 C 
ENDBRANCH  16  17
ENDBRANCH  15  16
ENDBRANCH  13  15
ENDBRANCH   4  13
TORSDOF 8
ENDMDL
MODEL 6
REMARK VINA RESULT:    -4.858      1.225      2.067
REMARK INTER + INTRA:          -7.660
REMARK INTER:                  -6.970
REMARK INTRA:                  -0.691
REMARK UNBOUND:                -0.673
REMARK SMILES Cc1ccncc1/C=C/Nc1ccc(CCCN)cc1
REMARK SMILES IDX 14 1 13 2 12 3 11 4 20 5 19 6 15 7 16 8 17 9 18 10 10 13
REMARK SMILES IDX 9 15 8 16 7 17 2 18 6 19 3 20 5 21 4 22 1 23
REMARK H PARENT 18 11 18 12 10 14
ROOT
ATOM      1  C   UNL     1      -0.678 -14.356  -7.390  1.00  0.00    -0.048 A 
ATOM      2  C   UNL     1      -0.088 -13.128  -7.080  1.00  0.00     0.006 A 
ATOM      3  C   UNL     1      -0.669 -12.277  -6.145  1.00  0.00     0.026 A 
ATOM      4  C   UNL     1      -1.893 -12.577  -5.542  1.00  0.00     0.038 A 
ATOM      5  C   UNL     1      -2.514 -13.781  -5.894  1.00  0.00     0.026 A 
ATOM      6  C   UNL     1      -1.914 -14.661  -6.808  1.00  0.00     0.006 A 
ENDROOT
BRANCH   1   7
ATOM      7  C   UNL     1      -0.007 -15.331  -8.325  1.00  0.00     0.037 C 
BRANCH   7   8
ATOM      8  C   UNL     1       1.528 -15.431  -8.234  1.00  0.00     0.020 C 
BRANCH   8   9
ATOM      9  C   UNL     1       2.087 -16.777  -7.748  1.00  0.00     0.078 C 
BRANCH   9  10
ATOM     10  N   UNL     1       2.090 -16.957  -6.304  1.00  0.00    -0.330 NA
ATOM     11  H   UNL     1       1.582 -16.195  -5.856  1.00  0.00     0.118 HD
ATOM     12  H   UNL     1       3.043 -16.898  -5.944  1.00  0.00     0.118 HD
ENDBRANCH   9  10
ENDBRANCH   8   9
ENDBRANCH   7   8
ENDBRANCH   1   7
BRANCH   4  13
ATOM     13  N   UNL     1      -2.544 -11.668  -4.687  1.00  0.00    -0.362 N 
ATOM     14  H   UNL     1      -3.006 -10.881  -5.127  1.00  0.00     0.166 HD
BRANCH  13  15
ATOM     15  C   UNL     1      -2.386 -11.622  -3.327  1.00  0.00     0.083 C 
BRANCH  15  16
ATOM     16  C   UNL     1      -1.594 -10.829  -2.594  1.00  0.00     0.027 C 
BRANCH  16  17
ATOM     17  C   UNL     1      -1.855  -9.386  -2.481  1.00  0.00    -0.003 A 
ATOM     18  C   UNL     1      -0.897  -8.482  -1.990  1.00  0.00    -0.041 A 
ATOM     19  C   UNL     1      -3.105  -8.852  -2.828  1.00  0.00     0.119 A 
ATOM     20  C   UNL     1      -1.238  -7.124  -1.893  1.00  0.00     0.024 A 
ATOM     21  N   UNL     1      -3.445  -7.543  -2.758  1.00  0.00    -0.264 NA
ATOM     22  C   UNL     1      -2.498  -6.709  -2.293  1.00  0.00     0.111 A 
ATOM     23  C   UNL     1       0.465  -8.923  -1.531  1.00  0.00     0.045 C 
ENDBRANCH  16  17
ENDBRANCH  15  16
ENDBRANCH  13  15
ENDBRANCH   4  13
TORSDOF 8
ENDMDL
MODEL 7
REMARK VINA RESULT:    -4.751      4.597      8.444
REMARK INTER + INTRA:          -7.507
REMARK INTER:                  -7.031
REMARK INTRA:                  -0.476
REMARK UNBOUND:                -0.673
REMARK SMILES Cc1ccncc1/C=C/Nc1ccc(CCCN)cc1
REMARK SMILES IDX 14 1 13 2 12 3 11 4 20 5 19 6 15 7 16 8 17 9 18 10 10 13
REMARK SMILES IDX 9 15 8 16 7 17 2 18 6 19 3 20 5 21 4 22 1 23
REMARK H PARENT 18 11 18 12 10 14
ROOT
ATOM      1  C   UNL     1      -1.031  -8.304  -2.121  1.00  0.00    -0.048 A 
ATOM      2  C   UNL     1      -0.251  -9.403  -1.758  1.00  0.00     0.006 A 
ATOM      3  C   UNL     1      -0.719 -10.700  -1.945  1.00  0.00     0.026 A 
ATOM      4  C   UNL     1      -2.007 -10.951  -2.426  1.00  0.00     0.038 A 
ATOM      5  C   UNL     1      -2.812  -9.849  -2.737  1.00  0.00     0.026 A 
ATOM      6  C   UNL     1      -2.331  -8.540  -2.587  1.00  0.00     0.006 A 
ENDROOT
BRANCH   1   7
ATOM      7  C   UNL     1      -0.496  -6.898  -2.018  1.00  0.00     0.037 C 
BRANCH   7   8
ATOM      8  C   UNL     1      -0.843  -6.118  -0.735  1.00  0.00     0.020 C 
BRANCH   8   9
ATOM      9  C   UNL     1      -0.426  -6.777   0.588  1.00  0.00     0.078 C 
BRANCH   9  10
ATOM     10  N   UNL     1       0.949  -6.523   0.994  1.00  0.00    -0.330 NA
ATOM     11  H   UNL     1       1.590  -7.054   0.406  1.00  0.00     0.118 HD
ATOM     12  H   UNL     1       1.103  -6.864   1.944  1.00  0.00     0.118 HD
ENDBRANCH   9  10
ENDBRANCH   8   9
ENDBRANCH   7   8
ENDBRANCH   1   7
BRANCH   4  13
ATOM     13  N   UNL     1      -2.530 -12.256  -2.505  1.00  0.00    -0.362 N 
ATOM     14  H   UNL     1      -2.802 -12.581  -3.425  1.00  0.00     0.166 HD
BRANCH  13  15
ATOM     15  C   UNL     1      -2.934 -13.004  -1.431  1.00  0.00     0.083 C 
BRANCH  15  16
ATOM     16  C   UNL     1      -2.565 -14.242  -1.077  1.00  0.00     0.027 C 
BRANCH  16  17
ATOM     17  C   UNL     1      -3.531 -15.189  -0.499  1.00  0.00    -0.003 A 
ATOM     18  C   UNL     1      -3.532 -16.557  -0.824  1.00  0.00    -0.041 A 
ATOM     19  C   UNL     1      -4.529 -14.750   0.383  1.00  0.00     0.119 A 
ATOM     20  C   UNL     1      -4.505 -17.387  -0.245  1.00  0.00     0.024 A 
ATOM     21  N   UNL     1      -5.464 -15.539   0.964  1.00  0.00    -0.264 NA
ATOM     22  C   UNL     1      -5.426 -16.843   0.636  1.00  0.00     0.111 A 
ATOM     23  C   UNL     1      -2.554 -17.155  -1.796  1.00  0.00     0.045 C 
ENDBRANCH  16  17
ENDBRANCH  15  16
ENDBRANCH  13  15
ENDBRANCH   4  13
TORSDOF 8
ENDMDL
MODEL 8
REMARK VINA RESULT:    -4.712      4.459      8.438
REMARK INTER + INTRA:          -7.451
REMARK INTER:                  -6.879
REMARK INTRA:                  -0.572
REMARK UNBOUND:                -0.673
REMARK SMILES Cc1ccncc1/C=C/Nc1ccc(CCCN)cc1
REMARK SMILES IDX 14 1 13 2 12 3 11 4 20 5 19 6 15 7 16 8 17 9 18 10 10 13
REMARK SMILES IDX 9 15 8 16 7 17 2 18 6 19 3 20 5 21 4 22 1 23
REMARK H PARENT 18 11 18 12 10 14
ROOT
ATOM      1  C   UNL     1      -0.740  -8.789  -2.013  1.00  0.00    -0.048 A 
ATOM      2  C   UNL     1       0.073  -9.871  -1.668  1.00  0.00     0.006 A 
ATOM      3  C   UNL     1      -0.364 -11.178  -1.862  1.00  0.00     0.026 A 
ATOM      4  C   UNL     1      -1.649 -11.458  -2.332  1.00  0.00     0.038 A 
ATOM      5  C   UNL     1      -2.486 -10.375  -2.625  1.00  0.00     0.026 A 
ATOM      6  C   UNL     1      -2.037  -9.055  -2.467  1.00  0.00     0.006 A 
ENDROOT
BRANCH   1   7
ATOM      7  C   UNL     1      -0.240  -7.371  -1.903  1.00  0.00     0.037 C 
BRANCH   7   8
ATOM      8  C   UNL     1      -0.645  -6.591  -0.637  1.00  0.00     0.020 C 
BRANCH   8   9
ATOM      9  C   UNL     1       0.113  -6.953   0.649  1.00  0.00     0.078 C 
BRANCH   9  10
ATOM     10  N   UNL     1      -0.180  -6.105   1.796  1.00  0.00    -0.330 NA
ATOM     11  H   UNL     1       0.085  -5.142   1.595  1.00  0.00     0.118 HD
ATOM     12  H   UNL     1       0.389  -6.385   2.594  1.00  0.00     0.118 HD
ENDBRANCH   9  10
ENDBRANCH   8   9
ENDBRANCH   7   8
ENDBRANCH   1   7
BRANCH   4  13
ATOM     13  N   UNL     1      -2.140 -12.775  -2.417  1.00  0.00    -0.362 N 
ATOM     14  H   UNL     1      -1.954 -13.274  -3.279  1.00  0.00     0.166 HD
BRANCH  13  15
ATOM     15  C   UNL     1      -3.048 -13.330  -1.555  1.00  0.00     0.083 C 
BRANCH  15  16
ATOM     16  C   UNL     1      -2.856 -14.250  -0.601  1.00  0.00     0.027 C 
BRANCH  16  17
ATOM     17  C   UNL     1      -3.230 -15.657  -0.813  1.00  0.00    -0.003 A 
ATOM     18  C   UNL     1      -4.299 -16.264  -0.131  1.00  0.00    -0.041 A 
ATOM     19  C   UNL     1      -2.498 -16.471  -1.690  1.00  0.00     0.119 A 
ATOM     20  C   UNL     1      -4.572 -17.618  -0.375  1.00  0.00     0.024 A 
ATOM     21  N   UNL     1      -2.759 -17.774  -1.950  1.00  0.00    -0.264 NA
ATOM     22  C   UNL     1      -3.795 -18.316  -1.286  1.00  0.00     0.111 A 
ATOM     23  C   UNL     1      -5.134 -15.525   0.877  1.00  0.00     0.045 C 
ENDBRANCH  16  17
ENDBRANCH  15  16
ENDBRANCH  13  15
ENDBRANCH   4  13
TORSDOF 8
ENDMDL
MODEL 9
REMARK VINA RESULT:    -4.684      1.778      8.450
REMARK INTER + INTRA:          -7.410
REMARK INTER:                  -6.887
REMARK INTRA:                  -0.523
REMARK UNBOUND:                -0.673
REMARK SMILES Cc1ccncc1/C=C/Nc1ccc(CCCN)cc1
REMARK SMILES IDX 14 1 13 2 12 3 11 4 20 5 19 6 15 7 16 8 17 9 18 10 10 13
REMARK SMILES IDX 9 15 8 16 7 17 2 18 6 19 3 20 5 21 4 22 1 23
REMARK H PARENT 18 11 18 12 10 14
ROOT
ATOM      1  C   UNL     1      -1.896  -8.738  -1.698  1.00  0.00    -0.048 A 
ATOM      2  C   UNL     1      -2.977  -8.996  -2.543  1.00  0.00     0.006 A 
ATOM      3  C   UNL     1      -3.103 -10.227  -3.181  1.00  0.00     0.026 A 
ATOM      4  C   UNL     1      -2.122 -11.215  -3.065  1.00  0.00     0.038 A 
ATOM      5  C   UNL     1      -1.008 -10.936  -2.263  1.00  0.00     0.026 A 
ATOM      6  C   UNL     1      -0.895  -9.712  -1.587  1.00  0.00     0.006 A 
ENDROOT
BRANCH   1   7
ATOM      7  C   UNL     1      -1.801  -7.448  -0.922  1.00  0.00     0.037 C 
BRANCH   7   8
ATOM      8  C   UNL     1      -0.383  -6.921  -0.627  1.00  0.00     0.020 C 
BRANCH   8   9
ATOM      9  C   UNL     1       0.059  -6.966   0.843  1.00  0.00     0.078 C 
BRANCH   9  10
ATOM     10  N   UNL     1      -0.313  -5.801   1.634  1.00  0.00    -0.330 NA
ATOM     11  H   UNL     1       0.500  -5.447   2.136  1.00  0.00     0.118 HD
ATOM     12  H   UNL     1      -0.986  -6.065   2.353  1.00  0.00     0.118 HD
ENDBRANCH   9  10
ENDBRANCH   8   9
ENDBRANCH   7   8
ENDBRANCH   1   7
BRANCH   4  13
ATOM     13  N   UNL     1      -2.183 -12.414  -3.801  1.00  0.00    -0.362 N 
ATOM     14  H   UNL     1      -2.469 -13.243  -3.295  1.00  0.00     0.166 HD
BRANCH  13  15
ATOM     15  C   UNL     1      -1.649 -12.594  -5.049  1.00  0.00     0.083 C 
BRANCH  15  16
ATOM     16  C   UNL     1      -2.207 -13.142  -6.136  1.00  0.00     0.027 C 
BRANCH  16  17
ATOM     17  C   UNL     1      -1.490 -14.146  -6.937  1.00  0.00    -0.003 A 
ATOM     18  C   UNL     1      -1.906 -15.486  -7.016  1.00  0.00    -0.041 A 
ATOM     19  C   UNL     1      -0.321 -13.807  -7.636  1.00  0.00     0.119 A 
ATOM     20  C   UNL     1      -1.149 -16.383  -7.785  1.00  0.00     0.024 A 
ATOM     21  N   UNL     1       0.412 -14.655  -8.395  1.00  0.00    -0.264 NA
ATOM     22  C   UNL     1      -0.024 -15.926  -8.453  1.00  0.00     0.111 A 
ATOM     23  C   UNL     1      -3.109 -16.000  -6.276  1.00  0.00     0.045 C 
ENDBRANCH  16  17
ENDBRANCH  15  16
ENDBRANCH  13  15
ENDBRANCH   4  13
TORSDOF 8
ENDMDL
