MODEL 1
REMARK VINA RESULT:    -5.199      0.000      0.000
REMARK INTER + INTRA:          -8.080
REMARK INTER:                  -7.478
REMARK INTRA:                  -0.602
REMARK UNBOUND:                -0.602
REMARK SMILES Cc1ccncc1/C=C/Nc1ccc(CCCN)cc1
REMARK SMILES IDX 14 1 13 2 12 3 11 4 20 5 19 6 15 7 16 8 17 9 18 10 10 13
REMARK SMILES IDX 9 15 8 16 7 17 2 18 6 19 3 20 5 21 4 22 1 23
REMARK H PARENT 18 11 18 12 10 14
ROOT
ATOM      1  C   UNL     1       1.004   6.316  -8.452  1.00  0.00    -0.048 A 
ATOM      2  C   UNL     1       0.546   5.838  -9.681  1.00  0.00     0.006 A 
ATOM      3  C   UNL     1       0.163   6.719 -10.688  1.00  0.00     0.026 A 
ATOM      4  C   UNL     1       0.147   8.101 -10.484  1.00  0.00     0.038 A 
ATOM      5  C   UNL     1       0.552   8.580  -9.233  1.00  0.00     0.026 A 
ATOM      6  C   UNL     1       0.976   7.698  -8.227  1.00  0.00     0.006 A 
ENDROOT
BRANCH   1   7
ATOM      7  C   UNL     1       1.517   5.375  -7.391  1.00  0.00     0.037 C 
BRANCH   7   8
ATOM      8  C   UNL     1       1.264   5.781  -5.926  1.00  0.00     0.020 C 
BRANCH   8   9
ATOM      9  C   UNL     1       2.343   5.364  -4.916  1.00  0.00     0.078 C 
BRANCH   9  10
ATOM     10  N   UNL     1       2.495   3.927  -4.735  1.00  0.00    -0.330 NA
ATOM     11  H   UNL     1       1.756   3.433  -5.233  1.00  0.00     0.118 HD
ATOM     12  H   UNL     1       2.375   3.682  -3.752  1.00  0.00     0.118 HD
ENDBRANCH   9  10
ENDBRANCH   8   9
ENDBRANCH   7   8
ENDBRANCH   1   7
BRANCH   4  13
ATOM     13  N   UNL     1      -0.352   8.991 -11.455  1.00  0.00    -0.362 N 
ATOM     14  H   UNL     1       0.259   9.748 -11.734  1.00  0.00     0.166 HD
BRANCH  13  15
ATOM     15  C   UNL     1      -1.662   9.064 -11.851  1.00  0.00     0.083 C 
BRANCH  15  16
ATOM     16  C   UNL     1      -2.567  10.019 -11.605  1.00  0.00     0.027 C 
BRANCH  16  17
ATOM     17  C   UNL     1      -2.936  11.003 -12.634  1.00  0.00    -0.003 A 
ATOM     18  C   UNL     1      -3.591  12.208 -12.325  1.00  0.00    -0.041 A 
ATOM     19  C   UNL     1      -2.679  10.755 -13.991  1.00  0.00     0.119 A 
ATOM     20  C   UNL     1      -3.928  13.080 -13.372  1.00  0.00     0.024 A 
ATOM     21  N   UNL     1      -2.981  11.592 -15.011  1.00  0.00    -0.264 NA
ATOM     22  C   UNL     1      -3.598  12.739 -14.674  1.00  0.00     0.111 A 
ATOM     23  C   UNL     1      -3.976  12.578 -10.920  1.00  0.00     0.045 C 
ENDBRANCH  16  17
ENDBRANCH  15  16
ENDBRANCH  13  15
ENDBRANCH   4  13
TORSDOF 8
ENDMDL
MODEL 2
REMARK VINA RESULT:    -5.197      2.011      8.460
REMARK INTER + INTRA:          -8.079
REMARK INTER:                  -7.305
REMARK INTRA:                  -0.773
REMARK UNBOUND:                -0.602
REMARK SMILES Cc1ccncc1/C=C/Nc1ccc(CCCN)cc1
REMARK SMILES IDX 14 1 13 2 12 3 11 4 20 5 19 6 15 7 16 8 17 9 18 10 10 13
REMARK SMILES IDX 9 15 8 16 7 17 2 18 6 19 3 20 5 21 4 22 1 23
REMARK H PARENT 18 11 18 12 10 14
ROOT
ATOM      1  C   UNL     1      -3.553  11.848 -12.692  1.00  0.00    -0.048 A 
ATOM      2  C   UNL     1      -2.644  11.359 -13.633  1.00  0.00     0.006 A 
ATOM      3  C   UNL     1      -1.879  10.229 -13.361  1.00  0.00     0.026 A 
ATOM      4  C   UNL     1      -1.931   9.591 -12.119  1.00  0.00     0.038 A 
ATOM      5  C   UNL     1      -2.800  10.114 -11.154  1.00  0.00     0.026 A 
ATOM      6  C   UNL     1      -3.602  11.231 -11.436  1.00  0.00     0.006 A 
ENDROOT
BRANCH   1   7
ATOM      7  C   UNL     1      -4.459  13.010 -13.013  1.00  0.00     0.037 C 
BRANCH   7   8
ATOM      8  C   UNL     1      -4.304  14.270 -12.139  1.00  0.00     0.020 C 
BRANCH   8   9
ATOM      9  C   UNL     1      -3.120  15.186 -12.481  1.00  0.00     0.078 C 
BRANCH   9  10
ATOM     10  N   UNL     1      -2.027  15.165 -11.520  1.00  0.00    -0.330 NA
ATOM     11  H   UNL     1      -2.395  15.048 -10.576  1.00  0.00     0.118 HD
ATOM     12  H   UNL     1      -1.545  16.063 -11.515  1.00  0.00     0.118 HD
ENDBRANCH   9  10
ENDBRANCH   8   9
ENDBRANCH   7   8
ENDBRANCH   1   7
BRANCH   4  13
ATOM     13  N   UNL     1      -1.075   8.521 -11.795  1.00  0.00    -0.362 N 
ATOM     14  H   UNL     1      -1.454   7.589 -11.899  1.00  0.00     0.166 HD
BRANCH  13  15
ATOM     15  C   UNL     1       0.111   8.645 -11.121  1.00  0.00     0.083 C 
BRANCH  15  16
ATOM     16  C   UNL     1       0.820   7.708 -10.478  1.00  0.00     0.027 C 
BRANCH  16  17
ATOM     17  C   UNL     1       0.724   7.546  -9.019  1.00  0.00    -0.003 A 
ATOM     18  C   UNL     1       0.465   6.304  -8.413  1.00  0.00    -0.041 A 
ATOM     19  C   UNL     1       0.850   8.650  -8.163  1.00  0.00     0.119 A 
ATOM     20  C   UNL     1       0.365   6.244  -7.015  1.00  0.00     0.024 A 
ATOM     21  N   UNL     1       0.774   8.607  -6.812  1.00  0.00    -0.264 NA
ATOM     22  C   UNL     1       0.536   7.400  -6.270  1.00  0.00     0.111 A 
ATOM     23  C   UNL     1       0.254   5.048  -9.211  1.00  0.00     0.045 C 
ENDBRANCH  16  17
ENDBRANCH  15  16
ENDBRANCH  13  15
ENDBRANCH   4  13
TORSDOF 8
ENDMDL
MODEL 3
REMARK VINA RESULT:    -5.191      4.655      6.143
REMARK INTER + INTRA:          -8.069
REMARK INTER:                  -7.466
REMARK INTRA:                  -0.603
REMARK UNBOUND:                -0.602
REMARK SMILES Cc1ccncc1/C=C/Nc1ccc(CCCN)cc1
REMARK SMILES IDX 14 1 13 2 12 3 11 4 20 5 19 6 15 7 16 8 17 9 18 10 10 13
REMARK SMILES IDX 9 15 8 16 7 17 2 18 6 19 3 20 5 21 4 22 1 23
REMARK H PARENT 18 11 18 12 10 14
ROOT
ATOM      1  C   UNL     1      -0.096   5.979  -8.710  1.00  0.00    -0.048 A 
ATOM      2  C   UNL     1       0.475   7.070  -8.051  1.00  0.00     0.006 A 
ATOM      3  C   UNL     1       1.077   8.098  -8.770  1.00  0.00     0.026 A 
ATOM      4  C   UNL     1       1.203   8.043 -10.160  1.00  0.00     0.038 A 
ATOM      5  C   UNL     1       0.681   6.923 -10.818  1.00  0.00     0.026 A 
ATOM      6  C   UNL     1       0.039   5.901 -10.101  1.00  0.00     0.006 A 
ENDROOT
BRANCH   1   7
ATOM      7  C   UNL     1      -0.840   4.909  -7.949  1.00  0.00     0.037 C 
BRANCH   7   8
ATOM      8  C   UNL     1      -0.695   3.465  -8.467  1.00  0.00     0.020 C 
BRANCH   8   9
ATOM      9  C   UNL     1      -1.884   2.531  -8.198  1.00  0.00     0.078 C 
BRANCH   9  10
ATOM     10  N   UNL     1      -2.201   2.328  -6.792  1.00  0.00    -0.330 NA
ATOM     11  H   UNL     1      -3.118   1.893  -6.701  1.00  0.00     0.118 HD
ATOM     12  H   UNL     1      -2.277   3.227  -6.315  1.00  0.00     0.118 HD
ENDBRANCH   9  10
ENDBRANCH   8   9
ENDBRANCH   7   8
ENDBRANCH   1   7
BRANCH   4  13
ATOM     13  N   UNL     1       1.914   9.020 -10.883  1.00  0.00    -0.362 N 
ATOM     14  H   UNL     1       1.415   9.486 -11.630  1.00  0.00     0.166 HD
BRANCH  13  15
ATOM     15  C   UNL     1       3.271   9.201 -10.826  1.00  0.00     0.083 C 
BRANCH  15  16
ATOM     16  C   UNL     1       4.190   9.008 -11.782  1.00  0.00     0.027 C 
BRANCH  16  17
ATOM     17  C   UNL     1       4.612  10.105 -12.666  1.00  0.00    -0.003 A 
ATOM     18  C   UNL     1       5.357   9.885 -13.838  1.00  0.00    -0.041 A 
ATOM     19  C   UNL     1       4.316  11.440 -12.348  1.00  0.00     0.119 A 
ATOM     20  C   UNL     1       5.739  10.992 -14.611  1.00  0.00     0.024 A 
ATOM     21  N   UNL     1       4.661  12.517 -13.092  1.00  0.00    -0.264 NA
ATOM     22  C   UNL     1       5.364  12.265 -14.211  1.00  0.00     0.111 A 
ATOM     23  C   UNL     1       5.790   8.513 -14.270  1.00  0.00     0.045 C 
ENDBRANCH  16  17
ENDBRANCH  15  16
ENDBRANCH  13  15
ENDBRANCH   4  13
TORSDOF 8
ENDMDL
MODEL 4
REMARK VINA RESULT:    -5.114      4.834      8.469
REMARK INTER + INTRA:          -7.959
REMARK INTER:                  -7.315
REMARK INTRA:                  -0.644
REMARK UNBOUND:                -0.602
REMARK SMILES Cc1ccncc1/C=C/Nc1ccc(CCCN)cc1
REMARK SMILES IDX 14 1 13 2 12 3 11 4 20 5 19 6 15 7 16 8 17 9 18 10 10 13
REMARK SMILES IDX 9 15 8 16 7 17 2 18 6 19 3 20 5 21 4 22 1 23
REMARK H PARENT 18 11 18 12 10 14
ROOT
ATOM      1  C   UNL     1       5.444   9.918 -13.498  1.00  0.00    -0.048 A 
ATOM      2  C   UNL     1       4.675  11.007 -13.081  1.00  0.00     0.006 A 
ATOM      3  C   UNL     1       3.788  10.883 -12.016  1.00  0.00     0.026 A 
ATOM      4  C   UNL     1       3.575   9.658 -11.379  1.00  0.00     0.038 A 
ATOM      5  C   UNL     1       4.303   8.552 -11.834  1.00  0.00     0.026 A 
ATOM      6  C   UNL     1       5.227   8.680 -12.882  1.00  0.00     0.006 A 
ENDROOT
BRANCH   1   7
ATOM      7  C   UNL     1       6.481  10.065 -14.583  1.00  0.00     0.037 C 
BRANCH   7   8
ATOM      8  C   UNL     1       6.227   9.293 -15.892  1.00  0.00     0.020 C 
BRANCH   8   9
ATOM      9  C   UNL     1       5.359  10.007 -16.939  1.00  0.00     0.078 C 
BRANCH   9  10
ATOM     10  N   UNL     1       4.085   9.364 -17.224  1.00  0.00    -0.330 NA
ATOM     11  H   UNL     1       3.597   9.156 -16.354  1.00  0.00     0.118 HD
ATOM     12  H   UNL     1       4.239   8.461 -17.673  1.00  0.00     0.118 HD
ENDBRANCH   9  10
ENDBRANCH   8   9
ENDBRANCH   7   8
ENDBRANCH   1   7
BRANCH   4  13
ATOM     13  N   UNL     1       2.593   9.498 -10.382  1.00  0.00    -0.362 N 
ATOM     14  H   UNL     1       2.639  10.133  -9.594  1.00  0.00     0.166 HD
BRANCH  13  15
ATOM     15  C   UNL     1       1.763   8.415 -10.267  1.00  0.00     0.083 C 
BRANCH  15  16
ATOM     16  C   UNL     1       0.932   8.088  -9.269  1.00  0.00     0.027 C 
BRANCH  16  17
ATOM     17  C   UNL     1       0.578   6.686  -9.000  1.00  0.00    -0.003 A 
ATOM     18  C   UNL     1       0.377   6.195  -7.698  1.00  0.00    -0.041 A 
ATOM     19  C   UNL     1       0.463   5.759 -10.048  1.00  0.00     0.119 A 
ATOM     20  C   UNL     1       0.065   4.837  -7.531  1.00  0.00     0.024 A 
ATOM     21  N   UNL     1       0.146   4.451  -9.906  1.00  0.00    -0.264 NA
ATOM     22  C   UNL     1      -0.049   4.022  -8.646  1.00  0.00     0.111 A 
ATOM     23  C   UNL     1       0.521   7.063  -6.480  1.00  0.00     0.045 C 
ENDBRANCH  16  17
ENDBRANCH  15  16
ENDBRANCH  13  15
ENDBRANCH   4  13
TORSDOF 8
ENDMDL
MODEL 5
REMARK VINA RESULT:    -5.110      1.128      1.681
REMARK INTER + INTRA:          -7.953
REMARK INTER:                  -7.415
REMARK INTRA:                  -0.538
REMARK UNBOUND:                -0.602
REMARK SMILES Cc1ccncc1/C=C/Nc1ccc(CCCN)cc1
REMARK SMILES IDX 14 1 13 2 12 3 11 4 20 5 19 6 15 7 16 8 17 9 18 10 10 13
REMARK SMILES IDX 9 15 8 16 7 17 2 18 6 19 3 20 5 21 4 22 1 23
REMARK H PARENT 18 11 18 12 10 14
ROOT
ATOM      1  C   UNL     1       0.985   6.267  -8.405  1.00  0.00    -0.048 A 
ATOM      2  C   UNL     1       0.533   5.820  -9.648  1.00  0.00     0.006 A 
ATOM      3  C   UNL     1       0.200   6.725 -10.651  1.00  0.00     0.026 A 
ATOM      4  C   UNL     1       0.228   8.105 -10.430  1.00  0.00     0.038 A 
ATOM      5  C   UNL     1       0.626   8.554  -9.166  1.00  0.00     0.026 A 
ATOM      6  C   UNL     1       1.001   7.646  -8.164  1.00  0.00     0.006 A 
ENDROOT
BRANCH   1   7
ATOM      7  C   UNL     1       1.446   5.297  -7.346  1.00  0.00     0.037 C 
BRANCH   7   8
ATOM      8  C   UNL     1       1.270   5.738  -5.880  1.00  0.00     0.020 C 
BRANCH   8   9
ATOM      9  C   UNL     1       2.387   5.320  -4.913  1.00  0.00     0.078 C 
BRANCH   9  10
ATOM     10  N   UNL     1       2.506   3.885  -4.694  1.00  0.00    -0.330 NA
ATOM     11  H   UNL     1       2.315   3.664  -3.718  1.00  0.00     0.118 HD
ATOM     12  H   UNL     1       3.467   3.583  -4.859  1.00  0.00     0.118 HD
ENDBRANCH   9  10
ENDBRANCH   8   9
ENDBRANCH   7   8
ENDBRANCH   1   7
BRANCH   4  13
ATOM     13  N   UNL     1      -0.222   9.023 -11.399  1.00  0.00    -0.362 N 
ATOM     14  H   UNL     1       0.465   9.672 -11.762  1.00  0.00     0.166 HD
BRANCH  13  15
ATOM     15  C   UNL     1      -1.537   9.271 -11.691  1.00  0.00     0.083 C 
BRANCH  15  16
ATOM     16  C   UNL     1      -2.068   9.846 -12.778  1.00  0.00     0.027 C 
BRANCH  16  17
ATOM     17  C   UNL     1      -2.969  11.002 -12.666  1.00  0.00    -0.003 A 
ATOM     18  C   UNL     1      -3.395  11.738 -13.785  1.00  0.00    -0.041 A 
ATOM     19  C   UNL     1      -3.416  11.447 -11.412  1.00  0.00     0.119 A 
ATOM     20  C   UNL     1      -4.237  12.843 -13.585  1.00  0.00     0.024 A 
ATOM     21  N   UNL     1      -4.241  12.499 -11.203  1.00  0.00    -0.264 NA
ATOM     22  C   UNL     1      -4.635  13.171 -12.299  1.00  0.00     0.111 A 
ATOM     23  C   UNL     1      -2.952  11.407 -15.182  1.00  0.00     0.045 C 
ENDBRANCH  16  17
ENDBRANCH  15  16
ENDBRANCH  13  15
ENDBRANCH   4  13
TORSDOF 8
ENDMDL
MODEL 6
REMARK VINA RESULT:    -5.050      4.608      5.996
REMARK INTER + INTRA:          -7.866
REMARK INTER:                  -7.421
REMARK INTRA:                  -0.445
REMARK UNBOUND:                -0.602
REMARK SMILES Cc1ccncc1/C=C/Nc1ccc(CCCN)cc1
REMARK SMILES IDX 14 1 13 2 12 3 11 4 20 5 19 6 15 7 16 8 17 9 18 10 10 13
REMARK SMILES IDX 9 15 8 16 7 17 2 18 6 19 3 20 5 21 4 22 1 23
REMARK H PARENT 18 11 18 12 10 14
ROOT
ATOM      1  C   UNL     1       0.073   6.124  -7.928  1.00  0.00    -0.048 A 
ATOM      2  C   UNL     1       0.571   7.347  -7.476  1.00  0.00     0.006 A 
ATOM      3  C   UNL     1       0.969   8.329  -8.379  1.00  0.00     0.026 A 
ATOM      4  C   UNL     1       0.960   8.103  -9.758  1.00  0.00     0.038 A 
ATOM      5  C   UNL     1       0.514   6.855 -10.210  1.00  0.00     0.026 A 
ATOM      6  C   UNL     1       0.075   5.876  -9.306  1.00  0.00     0.006 A 
ENDROOT
BRANCH   1   7
ATOM      7  C   UNL     1      -0.455   5.092  -6.963  1.00  0.00     0.037 C 
BRANCH   7   8
ATOM      8  C   UNL     1      -0.382   3.620  -7.414  1.00  0.00     0.020 C 
BRANCH   8   9
ATOM      9  C   UNL     1      -1.675   3.027  -7.991  1.00  0.00     0.078 C 
BRANCH   9  10
ATOM     10  N   UNL     1      -1.644   1.591  -8.224  1.00  0.00    -0.330 NA
ATOM     11  H   UNL     1      -2.212   1.112  -7.526  1.00  0.00     0.118 HD
ATOM     12  H   UNL     1      -0.696   1.234  -8.095  1.00  0.00     0.118 HD
ENDBRANCH   9  10
ENDBRANCH   8   9
ENDBRANCH   7   8
ENDBRANCH   1   7
BRANCH   4  13
ATOM     13  N   UNL     1       1.472   9.045 -10.670  1.00  0.00    -0.362 N 
ATOM     14  H   UNL     1       0.830   9.758 -10.995  1.00  0.00     0.166 HD
BRANCH  13  15
ATOM     15  C   UNL     1       2.663   8.923 -11.335  1.00  0.00     0.083 C 
BRANCH  15  16
ATOM     16  C   UNL     1       3.749   9.705 -11.274  1.00  0.00     0.027 C 
BRANCH  16  17
ATOM     17  C   UNL     1       4.595   9.928 -12.457  1.00  0.00    -0.003 A 
ATOM     18  C   UNL     1       4.761  11.198 -13.037  1.00  0.00    -0.041 A 
ATOM     19  C   UNL     1       5.249   8.858 -13.086  1.00  0.00     0.119 A 
ATOM     20  C   UNL     1       5.567  11.317 -14.179  1.00  0.00     0.024 A 
ATOM     21  N   UNL     1       6.044   8.958 -14.177  1.00  0.00    -0.264 NA
ATOM     22  C   UNL     1       6.186  10.190 -14.696  1.00  0.00     0.111 A 
ATOM     23  C   UNL     1       4.076  12.423 -12.500  1.00  0.00     0.045 C 
ENDBRANCH  16  17
ENDBRANCH  15  16
ENDBRANCH  13  15
ENDBRANCH   4  13
TORSDOF 8
ENDMDL
MODEL 7
REMARK VINA RESULT:    -5.037      2.029      2.607
REMARK INTER + INTRA:          -7.848
REMARK INTER:                  -7.239
REMARK INTRA:                  -0.609
REMARK UNBOUND:                -0.602
REMARK SMILES Cc1ccncc1/C=C/Nc1ccc(CCCN)cc1
REMARK SMILES IDX 14 1 13 2 12 3 11 4 20 5 19 6 15 7 16 8 17 9 18 10 10 13
REMARK SMILES IDX 9 15 8 16 7 17 2 18 6 19 3 20 5 21 4 22 1 23
REMARK H PARENT 18 11 18 12 10 14
ROOT
ATOM      1  C   UNL     1       0.619   5.266  -8.990  1.00  0.00    -0.048 A 
ATOM      2  C   UNL     1       0.326   5.210 -10.354  1.00  0.00     0.006 A 
ATOM      3  C   UNL     1       0.229   6.376 -11.108  1.00  0.00     0.026 A 
ATOM      4  C   UNL     1       0.341   7.639 -10.521  1.00  0.00     0.038 A 
ATOM      5  C   UNL     1       0.578   7.698  -9.143  1.00  0.00     0.026 A 
ATOM      6  C   UNL     1       0.715   6.525  -8.385  1.00  0.00     0.006 A 
ENDROOT
BRANCH   1   7
ATOM      7  C   UNL     1       0.826   4.008  -8.184  1.00  0.00     0.037 C 
BRANCH   7   8
ATOM      8  C   UNL     1      -0.305   3.613  -7.215  1.00  0.00     0.020 C 
BRANCH   8   9
ATOM      9  C   UNL     1      -1.603   3.112  -7.865  1.00  0.00     0.078 C 
BRANCH   9  10
ATOM     10  N   UNL     1      -1.591   1.712  -8.265  1.00  0.00    -0.330 NA
ATOM     11  H   UNL     1      -1.312   1.127  -7.478  1.00  0.00     0.118 HD
ATOM     12  H   UNL     1      -0.884   1.558  -8.984  1.00  0.00     0.118 HD
ENDBRANCH   9  10
ENDBRANCH   8   9
ENDBRANCH   7   8
ENDBRANCH   1   7
BRANCH   4  13
ATOM     13  N   UNL     1       0.126   8.822 -11.254  1.00  0.00    -0.362 N 
ATOM     14  H   UNL     1       0.944   9.375 -11.474  1.00  0.00     0.166 HD
BRANCH  13  15
ATOM     15  C   UNL     1      -1.098   9.402 -11.462  1.00  0.00     0.083 C 
BRANCH  15  16
ATOM     16  C   UNL     1      -1.805   9.502 -12.596  1.00  0.00     0.027 C 
BRANCH  16  17
ATOM     17  C   UNL     1      -2.713  10.635 -12.830  1.00  0.00    -0.003 A 
ATOM     18  C   UNL     1      -2.839  11.253 -14.086  1.00  0.00    -0.041 A 
ATOM     19  C   UNL     1      -3.474  11.176 -11.782  1.00  0.00     0.119 A 
ATOM     20  C   UNL     1      -3.712  12.344 -14.216  1.00  0.00     0.024 A 
ATOM     21  N   UNL     1      -4.333  12.215 -11.894  1.00  0.00    -0.264 NA
ATOM     22  C   UNL     1      -4.433  12.773 -13.114  1.00  0.00     0.111 A 
ATOM     23  C   UNL     1      -2.044  10.812 -15.283  1.00  0.00     0.045 C 
ENDBRANCH  16  17
ENDBRANCH  15  16
ENDBRANCH  13  15
ENDBRANCH   4  13
TORSDOF 8
ENDMDL
MODEL 8
REMARK VINA RESULT:    -5.033      2.227      8.464
REMARK INTER + INTRA:          -7.842
REMARK INTER:                  -7.228
REMARK INTRA:                  -0.613
REMARK UNBOUND:                -0.602
REMARK SMILES Cc1ccncc1/C=C/Nc1ccc(CCCN)cc1
REMARK SMILES IDX 14 1 13 2 12 3 11 4 20 5 19 6 15 7 16 8 17 9 18 10 10 13
REMARK SMILES IDX 9 15 8 16 7 17 2 18 6 19 3 20 5 21 4 22 1 23
REMARK H PARENT 18 11 18 12 10 14
ROOT
ATOM      1  C   UNL     1      -3.540  11.928 -12.908  1.00  0.00    -0.048 A 
ATOM      2  C   UNL     1      -2.587  11.383 -13.771  1.00  0.00     0.006 A 
ATOM      3  C   UNL     1      -1.881  10.237 -13.417  1.00  0.00     0.026 A 
ATOM      4  C   UNL     1      -2.039   9.637 -12.165  1.00  0.00     0.038 A 
ATOM      5  C   UNL     1      -2.953  10.216 -11.276  1.00  0.00     0.026 A 
ATOM      6  C   UNL     1      -3.695  11.349 -11.643  1.00  0.00     0.006 A 
ENDROOT
BRANCH   1   7
ATOM      7  C   UNL     1      -4.383  13.109 -13.322  1.00  0.00     0.037 C 
BRANCH   7   8
ATOM      8  C   UNL     1      -4.248  14.386 -12.470  1.00  0.00     0.020 C 
BRANCH   8   9
ATOM      9  C   UNL     1      -2.956  15.193 -12.666  1.00  0.00     0.078 C 
BRANCH   9  10
ATOM     10  N   UNL     1      -2.059  15.205 -11.519  1.00  0.00    -0.330 NA
ATOM     11  H   UNL     1      -1.172  15.637 -11.775  1.00  0.00     0.118 HD
ATOM     12  H   UNL     1      -1.827  14.250 -11.244  1.00  0.00     0.118 HD
ENDBRANCH   9  10
ENDBRANCH   8   9
ENDBRANCH   7   8
ENDBRANCH   1   7
BRANCH   4  13
ATOM     13  N   UNL     1      -1.243   8.551 -11.755  1.00  0.00    -0.362 N 
ATOM     14  H   UNL     1      -1.687   7.641 -11.745  1.00  0.00     0.166 HD
BRANCH  13  15
ATOM     15  C   UNL     1      -0.026   8.661 -11.136  1.00  0.00     0.083 C 
BRANCH  15  16
ATOM     16  C   UNL     1       0.428   8.032 -10.044  1.00  0.00     0.027 C 
BRANCH  16  17
ATOM     17  C   UNL     1       0.380   6.566  -9.935  1.00  0.00    -0.003 A 
ATOM     18  C   UNL     1       0.441   5.899  -8.698  1.00  0.00    -0.041 A 
ATOM     19  C   UNL     1       0.308   5.761 -11.081  1.00  0.00     0.119 A 
ATOM     20  C   UNL     1       0.414   4.497  -8.686  1.00  0.00     0.024 A 
ATOM     21  N   UNL     1       0.262   4.408 -11.087  1.00  0.00    -0.264 NA
ATOM     22  C   UNL     1       0.314   3.808  -9.885  1.00  0.00     0.111 A 
ATOM     23  C   UNL     1       0.574   6.634  -7.394  1.00  0.00     0.045 C 
ENDBRANCH  16  17
ENDBRANCH  15  16
ENDBRANCH  13  15
ENDBRANCH   4  13
TORSDOF 8
ENDMDL
MODEL 9
REMARK VINA RESULT:    -5.011      4.343      5.686
REMARK INTER + INTRA:          -7.810
REMARK INTER:                  -7.287
REMARK INTRA:                  -0.523
REMARK UNBOUND:                -0.602
REMARK SMILES Cc1ccncc1/C=C/Nc1ccc(CCCN)cc1
REMARK SMILES IDX 14 1 13 2 12 3 11 4 20 5 19 6 15 7 16 8 17 9 18 10 10 13
REMARK SMILES IDX 9 15 8 16 7 17 2 18 6 19 3 20 5 21 4 22 1 23
REMARK H PARENT 18 11 18 12 10 14
ROOT
ATOM      1  C   UNL     1       0.222   6.236  -7.748  1.00  0.00    -0.048 A 
ATOM      2  C   UNL     1       0.629   7.563  -7.602  1.00  0.00     0.006 A 
ATOM      3  C   UNL     1       0.948   8.335  -8.716  1.00  0.00     0.026 A 
ATOM      4  C   UNL     1       0.950   7.795 -10.004  1.00  0.00     0.038 A 
ATOM      5  C   UNL     1       0.598   6.448 -10.146  1.00  0.00     0.026 A 
ATOM      6  C   UNL     1       0.238   5.676  -9.031  1.00  0.00     0.006 A 
ENDROOT
BRANCH   1   7
ATOM      7  C   UNL     1      -0.223   5.421  -6.560  1.00  0.00     0.037 C 
BRANCH   7   8
ATOM      8  C   UNL     1       0.804   4.430  -5.977  1.00  0.00     0.020 C 
BRANCH   8   9
ATOM      9  C   UNL     1       2.093   5.048  -5.416  1.00  0.00     0.078 C 
BRANCH   9  10
ATOM     10  N   UNL     1       2.073   5.323  -3.987  1.00  0.00    -0.330 NA
ATOM     11  H   UNL     1       2.814   4.800  -3.521  1.00  0.00     0.118 HD
ATOM     12  H   UNL     1       1.202   4.987  -3.576  1.00  0.00     0.118 HD
ENDBRANCH   9  10
ENDBRANCH   8   9
ENDBRANCH   7   8
ENDBRANCH   1   7
BRANCH   4  13
ATOM     13  N   UNL     1       1.386   8.535 -11.120  1.00  0.00    -0.362 N 
ATOM     14  H   UNL     1       0.728   8.638 -11.882  1.00  0.00     0.166 HD
BRANCH  13  15
ATOM     15  C   UNL     1       2.686   8.895 -11.361  1.00  0.00     0.083 C 
BRANCH  15  16
ATOM     16  C   UNL     1       3.198  10.113 -11.581  1.00  0.00     0.027 C 
BRANCH  16  17
ATOM     17  C   UNL     1       4.371  10.301 -12.450  1.00  0.00    -0.003 A 
ATOM     18  C   UNL     1       4.755  11.563 -12.934  1.00  0.00    -0.041 A 
ATOM     19  C   UNL     1       5.141   9.205 -12.866  1.00  0.00     0.119 A 
ATOM     20  C   UNL     1       5.874  11.649 -13.778  1.00  0.00     0.024 A 
ATOM     21  N   UNL     1       6.232   9.272 -13.664  1.00  0.00    -0.264 NA
ATOM     22  C   UNL     1       6.574  10.497 -14.099  1.00  0.00     0.111 A 
ATOM     23  C   UNL     1       3.990  12.816 -12.613  1.00  0.00     0.045 C 
ENDBRANCH  16  17
ENDBRANCH  15  16
ENDBRANCH  13  15
ENDBRANCH   4  13
TORSDOF 8
ENDMDL
