MODEL 1
REMARK VINA RESULT:    -4.993      0.000      0.000
REMARK INTER + INTRA:          -7.898
REMARK INTER:                  -7.182
REMARK INTRA:                  -0.716
REMARK UNBOUND:                -0.716
REMARK SMILES Cc1ccncc1/C=C/Nc1ccc(CCCN)cc1
REMARK SMILES IDX 14 1 13 2 12 3 11 4 20 5 19 6 15 7 16 8 17 9 18 10 10 13
REMARK SMILES IDX 9 15 8 16 7 17 2 18 6 19 3 20 5 21 4 22 1 23
REMARK H PARENT 18 11 18 12 10 14
ROOT
ATOM      1  C   UNL     1      -8.118  15.135   5.367  1.00  0.00    -0.048 A 
ATOM      2  C   UNL     1      -6.999  14.309   5.237  1.00  0.00     0.006 A 
ATOM      3  C   UNL     1      -7.019  13.216   4.375  1.00  0.00     0.026 A 
ATOM      4  C   UNL     1      -8.172  12.860   3.671  1.00  0.00     0.038 A 
ATOM      5  C   UNL     1      -9.312  13.654   3.844  1.00  0.00     0.026 A 
ATOM      6  C   UNL     1      -9.286  14.779   4.682  1.00  0.00     0.006 A 
ENDROOT
BRANCH   1   7
ATOM      7  C   UNL     1      -8.075  16.378   6.220  1.00  0.00     0.037 C 
BRANCH   7   8
ATOM      8  C   UNL     1      -6.796  17.233   6.133  1.00  0.00     0.020 C 
BRANCH   8   9
ATOM      9  C   UNL     1      -6.875  18.473   5.231  1.00  0.00     0.078 C 
BRANCH   9  10
ATOM     10  N   UNL     1      -6.794  18.201   3.803  1.00  0.00    -0.330 NA
ATOM     11  H   UNL     1      -5.819  18.150   3.512  1.00  0.00     0.118 HD
ATOM     12  H   UNL     1      -7.196  18.976   3.274  1.00  0.00     0.118 HD
ENDBRANCH   9  10
ENDBRANCH   8   9
ENDBRANCH   7   8
ENDBRANCH   1   7
BRANCH   4  13
ATOM     13  N   UNL     1      -8.236  11.690   2.891  1.00  0.00    -0.362 N 
ATOM     14  H   UNL     1      -8.370  10.818   3.389  1.00  0.00     0.166 HD
BRANCH  13  15
ATOM     15  C   UNL     1      -7.881  11.609   1.570  1.00  0.00     0.083 C 
BRANCH  15  16
ATOM     16  C   UNL     1      -7.642  10.523   0.823  1.00  0.00     0.027 C 
BRANCH  16  17
ATOM     17  C   UNL     1      -6.271  10.136   0.459  1.00  0.00    -0.003 A 
ATOM     18  C   UNL     1      -5.826   8.803   0.504  1.00  0.00    -0.041 A 
ATOM     19  C   UNL     1      -5.326  11.103   0.082  1.00  0.00     0.119 A 
ATOM     20  C   UNL     1      -4.494   8.524   0.162  1.00  0.00     0.024 A 
ATOM     21  N   UNL     1      -4.043  10.850  -0.268  1.00  0.00    -0.264 NA
ATOM     22  C   UNL     1      -3.659   9.562  -0.222  1.00  0.00     0.111 A 
ATOM     23  C   UNL     1      -6.715   7.673   0.941  1.00  0.00     0.045 C 
ENDBRANCH  16  17
ENDBRANCH  15  16
ENDBRANCH  13  15
ENDBRANCH   4  13
TORSDOF 8
ENDMDL
MODEL 2
REMARK VINA RESULT:    -4.952      1.346      2.272
REMARK INTER + INTRA:          -7.838
REMARK INTER:                  -7.220
REMARK INTRA:                  -0.618
REMARK UNBOUND:                -0.716
REMARK SMILES Cc1ccncc1/C=C/Nc1ccc(CCCN)cc1
REMARK SMILES IDX 14 1 13 2 12 3 11 4 20 5 19 6 15 7 16 8 17 9 18 10 10 13
REMARK SMILES IDX 9 15 8 16 7 17 2 18 6 19 3 20 5 21 4 22 1 23
REMARK H PARENT 18 11 18 12 10 14
ROOT
ATOM      1  C   UNL     1      -7.993  15.109   5.355  1.00  0.00    -0.048 A 
ATOM      2  C   UNL     1      -9.195  14.803   4.715  1.00  0.00     0.006 A 
ATOM      3  C   UNL     1      -9.312  13.655   3.935  1.00  0.00     0.026 A 
ATOM      4  C   UNL     1      -8.221  12.815   3.701  1.00  0.00     0.038 A 
ATOM      5  C   UNL     1      -7.000  13.152   4.296  1.00  0.00     0.026 A 
ATOM      6  C   UNL     1      -6.886  14.286   5.115  1.00  0.00     0.006 A 
ENDROOT
BRANCH   1   7
ATOM      7  C   UNL     1      -7.882  16.293   6.283  1.00  0.00     0.037 C 
BRANCH   7   8
ATOM      8  C   UNL     1      -6.615  17.160   6.151  1.00  0.00     0.020 C 
BRANCH   8   9
ATOM      9  C   UNL     1      -6.758  18.437   5.309  1.00  0.00     0.078 C 
BRANCH   9  10
ATOM     10  N   UNL     1      -6.797  18.223   3.869  1.00  0.00    -0.330 NA
ATOM     11  H   UNL     1      -7.327  18.969   3.421  1.00  0.00     0.118 HD
ATOM     12  H   UNL     1      -7.301  17.363   3.655  1.00  0.00     0.118 HD
ENDBRANCH   9  10
ENDBRANCH   8   9
ENDBRANCH   7   8
ENDBRANCH   1   7
BRANCH   4  13
ATOM     13  N   UNL     1      -8.300  11.720   2.819  1.00  0.00    -0.362 N 
ATOM     14  H   UNL     1      -8.489  10.816   3.233  1.00  0.00     0.166 HD
BRANCH  13  15
ATOM     15  C   UNL     1      -7.896  11.739   1.510  1.00  0.00     0.083 C 
BRANCH  15  16
ATOM     16  C   UNL     1      -6.928  11.029   0.914  1.00  0.00     0.027 C 
BRANCH  16  17
ATOM     17  C   UNL     1      -6.930   9.559   0.950  1.00  0.00    -0.003 A 
ATOM     18  C   UNL     1      -5.814   8.794   0.567  1.00  0.00    -0.041 A 
ATOM     19  C   UNL     1      -8.077   8.850   1.338  1.00  0.00     0.119 A 
ATOM     20  C   UNL     1      -5.909   7.395   0.609  1.00  0.00     0.024 A 
ATOM     21  N   UNL     1      -8.180   7.502   1.401  1.00  0.00    -0.264 NA
ATOM     22  C   UNL     1      -7.088   6.806   1.037  1.00  0.00     0.111 A 
ATOM     23  C   UNL     1      -4.538   9.421   0.079  1.00  0.00     0.045 C 
ENDBRANCH  16  17
ENDBRANCH  15  16
ENDBRANCH  13  15
ENDBRANCH   4  13
TORSDOF 8
ENDMDL
MODEL 3
REMARK VINA RESULT:    -4.886      4.713      8.359
REMARK INTER + INTRA:          -7.743
REMARK INTER:                  -7.197
REMARK INTRA:                  -0.546
REMARK UNBOUND:                -0.716
REMARK SMILES Cc1ccncc1/C=C/Nc1ccc(CCCN)cc1
REMARK SMILES IDX 14 1 13 2 12 3 11 4 20 5 19 6 15 7 16 8 17 9 18 10 10 13
REMARK SMILES IDX 9 15 8 16 7 17 2 18 6 19 3 20 5 21 4 22 1 23
REMARK H PARENT 18 11 18 12 10 14
ROOT
ATOM      1  C   UNL     1      -5.889   8.993   1.052  1.00  0.00    -0.048 A 
ATOM      2  C   UNL     1      -5.388  10.103   0.370  1.00  0.00     0.006 A 
ATOM      3  C   UNL     1      -6.217  11.175   0.052  1.00  0.00     0.026 A 
ATOM      4  C   UNL     1      -7.585  11.150   0.329  1.00  0.00     0.038 A 
ATOM      5  C   UNL     1      -8.100  10.012   0.962  1.00  0.00     0.026 A 
ATOM      6  C   UNL     1      -7.262   8.945   1.320  1.00  0.00     0.006 A 
ENDROOT
BRANCH   1   7
ATOM      7  C   UNL     1      -4.981   7.871   1.491  1.00  0.00     0.037 C 
BRANCH   7   8
ATOM      8  C   UNL     1      -5.562   6.446   1.428  1.00  0.00     0.020 C 
BRANCH   8   9
ATOM      9  C   UNL     1      -5.387   5.590   2.691  1.00  0.00     0.078 C 
BRANCH   9  10
ATOM     10  N   UNL     1      -4.079   4.967   2.836  1.00  0.00    -0.330 NA
ATOM     11  H   UNL     1      -3.634   4.874   1.924  1.00  0.00     0.118 HD
ATOM     12  H   UNL     1      -4.180   4.015   3.189  1.00  0.00     0.118 HD
ENDBRANCH   9  10
ENDBRANCH   8   9
ENDBRANCH   7   8
ENDBRANCH   1   7
BRANCH   4  13
ATOM     13  N   UNL     1      -8.450  12.176  -0.095  1.00  0.00    -0.362 N 
ATOM     14  H   UNL     1      -9.146  12.489   0.571  1.00  0.00     0.166 HD
BRANCH  13  15
ATOM     15  C   UNL     1      -8.592  12.594  -1.392  1.00  0.00     0.083 C 
BRANCH  15  16
ATOM     16  C   UNL     1      -9.711  12.769  -2.107  1.00  0.00     0.027 C 
BRANCH  16  17
ATOM     17  C   UNL     1     -10.520  13.990  -1.970  1.00  0.00    -0.003 A 
ATOM     18  C   UNL     1     -11.718  14.184  -2.679  1.00  0.00    -0.041 A 
ATOM     19  C   UNL     1     -10.101  15.041  -1.142  1.00  0.00     0.119 A 
ATOM     20  C   UNL     1     -12.415  15.390  -2.507  1.00  0.00     0.024 A 
ATOM     21  N   UNL     1     -10.769  16.203  -0.951  1.00  0.00    -0.264 NA
ATOM     22  C   UNL     1     -11.916  16.347  -1.639  1.00  0.00     0.111 A 
ATOM     23  C   UNL     1     -12.258  13.164  -3.642  1.00  0.00     0.045 C 
ENDBRANCH  16  17
ENDBRANCH  15  16
ENDBRANCH  13  15
ENDBRANCH   4  13
TORSDOF 8
ENDMDL
MODEL 4
REMARK VINA RESULT:    -4.868      2.320      8.523
REMARK INTER + INTRA:          -7.719
REMARK INTER:                  -7.120
REMARK INTRA:                  -0.599
REMARK UNBOUND:                -0.716
REMARK SMILES Cc1ccncc1/C=C/Nc1ccc(CCCN)cc1
REMARK SMILES IDX 14 1 13 2 12 3 11 4 20 5 19 6 15 7 16 8 17 9 18 10 10 13
REMARK SMILES IDX 9 15 8 16 7 17 2 18 6 19 3 20 5 21 4 22 1 23
REMARK H PARENT 18 11 18 12 10 14
ROOT
ATOM      1  C   UNL     1      -6.610   8.254   0.603  1.00  0.00    -0.048 A 
ATOM      2  C   UNL     1      -7.846   8.366   1.243  1.00  0.00     0.006 A 
ATOM      3  C   UNL     1      -8.379   9.615   1.545  1.00  0.00     0.026 A 
ATOM      4  C   UNL     1      -7.672  10.793   1.294  1.00  0.00     0.038 A 
ATOM      5  C   UNL     1      -6.407  10.681   0.704  1.00  0.00     0.026 A 
ATOM      6  C   UNL     1      -5.881   9.425   0.363  1.00  0.00     0.006 A 
ENDROOT
BRANCH   1   7
ATOM      7  C   UNL     1      -6.068   6.912   0.180  1.00  0.00     0.037 C 
BRANCH   7   8
ATOM      8  C   UNL     1      -4.892   6.350   1.002  1.00  0.00     0.020 C 
BRANCH   8   9
ATOM      9  C   UNL     1      -5.211   5.957   2.452  1.00  0.00     0.078 C 
BRANCH   9  10
ATOM     10  N   UNL     1      -5.589   4.564   2.644  1.00  0.00    -0.330 NA
ATOM     11  H   UNL     1      -5.840   4.145   1.750  1.00  0.00     0.118 HD
ATOM     12  H   UNL     1      -6.429   4.504   3.220  1.00  0.00     0.118 HD
ENDBRANCH   9  10
ENDBRANCH   8   9
ENDBRANCH   7   8
ENDBRANCH   1   7
BRANCH   4  13
ATOM     13  N   UNL     1      -8.152  12.052   1.705  1.00  0.00    -0.362 N 
ATOM     14  H   UNL     1      -8.646  12.598   1.010  1.00  0.00     0.166 HD
BRANCH  13  15
ATOM     15  C   UNL     1      -7.787  12.689   2.861  1.00  0.00     0.083 C 
BRANCH  15  16
ATOM     16  C   UNL     1      -8.506  12.904   3.971  1.00  0.00     0.027 C 
BRANCH  16  17
ATOM     17  C   UNL     1      -9.164  14.197   4.215  1.00  0.00    -0.003 A 
ATOM     18  C   UNL     1      -8.655  15.142   5.123  1.00  0.00    -0.041 A 
ATOM     19  C   UNL     1     -10.364  14.526   3.568  1.00  0.00     0.119 A 
ATOM     20  C   UNL     1      -9.359  16.341   5.312  1.00  0.00     0.024 A 
ATOM     21  N   UNL     1     -11.047  15.685   3.726  1.00  0.00    -0.264 NA
ATOM     22  C   UNL     1     -10.523  16.568   4.595  1.00  0.00     0.111 A 
ATOM     23  C   UNL     1      -7.407  14.898   5.924  1.00  0.00     0.045 C 
ENDBRANCH  16  17
ENDBRANCH  15  16
ENDBRANCH  13  15
ENDBRANCH   4  13
TORSDOF 8
ENDMDL
MODEL 5
REMARK VINA RESULT:    -4.868      1.971      8.576
REMARK INTER + INTRA:          -7.717
REMARK INTER:                  -7.199
REMARK INTRA:                  -0.518
REMARK UNBOUND:                -0.716
REMARK SMILES Cc1ccncc1/C=C/Nc1ccc(CCCN)cc1
REMARK SMILES IDX 14 1 13 2 12 3 11 4 20 5 19 6 15 7 16 8 17 9 18 10 10 13
REMARK SMILES IDX 9 15 8 16 7 17 2 18 6 19 3 20 5 21 4 22 1 23
REMARK H PARENT 18 11 18 12 10 14
ROOT
ATOM      1  C   UNL     1      -6.100   8.987   0.041  1.00  0.00    -0.048 A 
ATOM      2  C   UNL     1      -7.206   8.755   0.862  1.00  0.00     0.006 A 
ATOM      3  C   UNL     1      -7.865   9.813   1.482  1.00  0.00     0.026 A 
ATOM      4  C   UNL     1      -7.404  11.127   1.372  1.00  0.00     0.038 A 
ATOM      5  C   UNL     1      -6.262  11.354   0.595  1.00  0.00     0.026 A 
ATOM      6  C   UNL     1      -5.616  10.296  -0.063  1.00  0.00     0.006 A 
ENDROOT
BRANCH   1   7
ATOM      7  C   UNL     1      -5.440   7.861  -0.715  1.00  0.00     0.037 C 
BRANCH   7   8
ATOM      8  C   UNL     1      -3.899   7.847  -0.729  1.00  0.00     0.020 C 
BRANCH   8   9
ATOM      9  C   UNL     1      -3.239   7.787  -2.114  1.00  0.00     0.078 C 
BRANCH   9  10
ATOM     10  N   UNL     1      -3.049   6.446  -2.648  1.00  0.00    -0.330 NA
ATOM     11  H   UNL     1      -3.733   6.262  -3.380  1.00  0.00     0.118 HD
ATOM     12  H   UNL     1      -3.229   5.751  -1.924  1.00  0.00     0.118 HD
ENDBRANCH   9  10
ENDBRANCH   8   9
ENDBRANCH   7   8
ENDBRANCH   1   7
BRANCH   4  13
ATOM     13  N   UNL     1      -7.994  12.185   2.091  1.00  0.00    -0.362 N 
ATOM     14  H   UNL     1      -8.167  13.041   1.579  1.00  0.00     0.166 HD
BRANCH  13  15
ATOM     15  C   UNL     1      -8.110  12.235   3.455  1.00  0.00     0.083 C 
BRANCH  15  16
ATOM     16  C   UNL     1      -7.849  13.251   4.288  1.00  0.00     0.027 C 
BRANCH  16  17
ATOM     17  C   UNL     1      -8.785  14.377   4.433  1.00  0.00    -0.003 A 
ATOM     18  C   UNL     1      -8.540  15.454   5.303  1.00  0.00    -0.041 A 
ATOM     19  C   UNL     1      -9.995  14.402   3.724  1.00  0.00     0.119 A 
ATOM     20  C   UNL     1      -9.497  16.475   5.397  1.00  0.00     0.024 A 
ATOM     21  N   UNL     1     -10.921  15.387   3.790  1.00  0.00    -0.264 NA
ATOM     22  C   UNL     1     -10.646  16.405   4.626  1.00  0.00     0.111 A 
ATOM     23  C   UNL     1      -7.309  15.530   6.162  1.00  0.00     0.045 C 
ENDBRANCH  16  17
ENDBRANCH  15  16
ENDBRANCH  13  15
ENDBRANCH   4  13
TORSDOF 8
ENDMDL
MODEL 6
REMARK VINA RESULT:    -4.811      4.691      8.476
REMARK INTER + INTRA:          -7.636
REMARK INTER:                  -7.116
REMARK INTRA:                  -0.520
REMARK UNBOUND:                -0.716
REMARK SMILES Cc1ccncc1/C=C/Nc1ccc(CCCN)cc1
REMARK SMILES IDX 14 1 13 2 12 3 11 4 20 5 19 6 15 7 16 8 17 9 18 10 10 13
REMARK SMILES IDX 9 15 8 16 7 17 2 18 6 19 3 20 5 21 4 22 1 23
REMARK H PARENT 18 11 18 12 10 14
ROOT
ATOM      1  C   UNL     1      -4.965   8.694   0.556  1.00  0.00    -0.048 A 
ATOM      2  C   UNL     1      -4.717   9.986   0.090  1.00  0.00     0.006 A 
ATOM      3  C   UNL     1      -5.717  10.954   0.113  1.00  0.00     0.026 A 
ATOM      4  C   UNL     1      -7.017  10.653   0.525  1.00  0.00     0.038 A 
ATOM      5  C   UNL     1      -7.282   9.342   0.939  1.00  0.00     0.026 A 
ATOM      6  C   UNL     1      -6.268   8.372   0.955  1.00  0.00     0.006 A 
ENDROOT
BRANCH   1   7
ATOM      7  C   UNL     1      -3.863   7.666   0.631  1.00  0.00     0.037 C 
BRANCH   7   8
ATOM      8  C   UNL     1      -3.770   6.666  -0.538  1.00  0.00     0.020 C 
BRANCH   8   9
ATOM      9  C   UNL     1      -3.556   7.276  -1.931  1.00  0.00     0.078 C 
BRANCH   9  10
ATOM     10  N   UNL     1      -2.192   7.697  -2.216  1.00  0.00    -0.330 NA
ATOM     11  H   UNL     1      -2.197   8.472  -2.878  1.00  0.00     0.118 HD
ATOM     12  H   UNL     1      -1.681   6.945  -2.679  1.00  0.00     0.118 HD
ENDBRANCH   9  10
ENDBRANCH   8   9
ENDBRANCH   7   8
ENDBRANCH   1   7
BRANCH   4  13
ATOM     13  N   UNL     1      -8.062  11.593   0.439  1.00  0.00    -0.362 N 
ATOM     14  H   UNL     1      -8.451  11.922   1.314  1.00  0.00     0.166 HD
BRANCH  13  15
ATOM     15  C   UNL     1      -8.751  11.894  -0.706  1.00  0.00     0.083 C 
BRANCH  15  16
ATOM     16  C   UNL     1      -8.899  13.076  -1.318  1.00  0.00     0.027 C 
BRANCH  16  17
ATOM     17  C   UNL     1     -10.146  13.421  -2.019  1.00  0.00    -0.003 A 
ATOM     18  C   UNL     1     -10.784  14.663  -1.856  1.00  0.00    -0.041 A 
ATOM     19  C   UNL     1     -10.777  12.494  -2.862  1.00  0.00     0.119 A 
ATOM     20  C   UNL     1     -11.983  14.900  -2.545  1.00  0.00     0.024 A 
ATOM     21  N   UNL     1     -11.924  12.712  -3.547  1.00  0.00    -0.264 NA
ATOM     22  C   UNL     1     -12.499  13.916  -3.373  1.00  0.00     0.111 A 
ATOM     23  C   UNL     1     -10.247  15.729  -0.943  1.00  0.00     0.045 C 
ENDBRANCH  16  17
ENDBRANCH  15  16
ENDBRANCH  13  15
ENDBRANCH   4  13
TORSDOF 8
ENDMDL
MODEL 7
REMARK VINA RESULT:    -4.759      2.228      8.405
REMARK INTER + INTRA:          -7.561
REMARK INTER:                  -7.081
REMARK INTRA:                  -0.480
REMARK UNBOUND:                -0.716
REMARK SMILES Cc1ccncc1/C=C/Nc1ccc(CCCN)cc1
REMARK SMILES IDX 14 1 13 2 12 3 11 4 20 5 19 6 15 7 16 8 17 9 18 10 10 13
REMARK SMILES IDX 9 15 8 16 7 17 2 18 6 19 3 20 5 21 4 22 1 23
REMARK H PARENT 18 11 18 12 10 14
ROOT
ATOM      1  C   UNL     1      -5.926   7.917   0.347  1.00  0.00    -0.048 A 
ATOM      2  C   UNL     1      -5.332   9.155   0.095  1.00  0.00     0.006 A 
ATOM      3  C   UNL     1      -5.956  10.335   0.488  1.00  0.00     0.026 A 
ATOM      4  C   UNL     1      -7.225  10.333   1.073  1.00  0.00     0.038 A 
ATOM      5  C   UNL     1      -7.847   9.095   1.275  1.00  0.00     0.026 A 
ATOM      6  C   UNL     1      -7.205   7.900   0.915  1.00  0.00     0.006 A 
ENDROOT
BRANCH   1   7
ATOM      7  C   UNL     1      -5.214   6.628   0.017  1.00  0.00     0.037 C 
BRANCH   7   8
ATOM      8  C   UNL     1      -4.242   6.083   1.081  1.00  0.00     0.020 C 
BRANCH   8   9
ATOM      9  C   UNL     1      -4.847   5.801   2.464  1.00  0.00     0.078 C 
BRANCH   9  10
ATOM     10  N   UNL     1      -5.605   4.562   2.563  1.00  0.00    -0.330 NA
ATOM     11  H   UNL     1      -5.363   4.072   3.423  1.00  0.00     0.118 HD
ATOM     12  H   UNL     1      -5.346   3.930   1.806  1.00  0.00     0.118 HD
ENDBRANCH   9  10
ENDBRANCH   8   9
ENDBRANCH   7   8
ENDBRANCH   1   7
BRANCH   4  13
ATOM     13  N   UNL     1      -7.913  11.526   1.364  1.00  0.00    -0.362 N 
ATOM     14  H   UNL     1      -8.437  11.945   0.606  1.00  0.00     0.166 HD
BRANCH  13  15
ATOM     15  C   UNL     1      -7.723  12.285   2.489  1.00  0.00     0.083 C 
BRANCH  15  16
ATOM     16  C   UNL     1      -8.600  12.612   3.447  1.00  0.00     0.027 C 
BRANCH  16  17
ATOM     17  C   UNL     1      -8.381  13.779   4.315  1.00  0.00    -0.003 A 
ATOM     18  C   UNL     1      -9.332  14.805   4.453  1.00  0.00    -0.041 A 
ATOM     19  C   UNL     1      -7.178  13.935   5.021  1.00  0.00     0.119 A 
ATOM     20  C   UNL     1      -9.031  15.895   5.284  1.00  0.00     0.024 A 
ATOM     21  N   UNL     1      -6.879  14.970   5.840  1.00  0.00    -0.264 NA
ATOM     22  C   UNL     1      -7.818  15.926   5.954  1.00  0.00     0.111 A 
ATOM     23  C   UNL     1     -10.640  14.795   3.714  1.00  0.00     0.045 C 
ENDBRANCH  16  17
ENDBRANCH  15  16
ENDBRANCH  13  15
ENDBRANCH   4  13
TORSDOF 8
ENDMDL
MODEL 8
REMARK VINA RESULT:    -4.736      3.346      9.394
REMARK INTER + INTRA:          -7.528
REMARK INTER:                  -6.442
REMARK INTRA:                  -1.085
REMARK UNBOUND:                -0.716
REMARK SMILES Cc1ccncc1/C=C/Nc1ccc(CCCN)cc1
REMARK SMILES IDX 14 1 13 2 12 3 11 4 20 5 19 6 15 7 16 8 17 9 18 10 10 13
REMARK SMILES IDX 9 15 8 16 7 17 2 18 6 19 3 20 5 21 4 22 1 23
REMARK H PARENT 18 11 18 12 10 14
ROOT
ATOM      1  C   UNL     1      -7.529  14.332   4.909  1.00  0.00    -0.048 A 
ATOM      2  C   UNL     1      -6.562  15.227   5.372  1.00  0.00     0.006 A 
ATOM      3  C   UNL     1      -6.933  16.438   5.949  1.00  0.00     0.026 A 
ATOM      4  C   UNL     1      -8.270  16.837   6.017  1.00  0.00     0.038 A 
ATOM      5  C   UNL     1      -9.237  15.966   5.502  1.00  0.00     0.026 A 
ATOM      6  C   UNL     1      -8.871  14.727   4.954  1.00  0.00     0.006 A 
ENDROOT
BRANCH   1   7
ATOM      7  C   UNL     1      -7.144  12.975   4.374  1.00  0.00     0.037 C 
BRANCH   7   8
ATOM      8  C   UNL     1      -8.181  12.263   3.485  1.00  0.00     0.020 C 
BRANCH   8   9
ATOM      9  C   UNL     1      -7.777  12.048   2.019  1.00  0.00     0.078 C 
BRANCH   9  10
ATOM     10  N   UNL     1      -8.622  12.721   1.042  1.00  0.00    -0.330 NA
ATOM     11  H   UNL     1      -8.049  13.285   0.415  1.00  0.00     0.118 HD
ATOM     12  H   UNL     1      -9.244  13.380   1.511  1.00  0.00     0.118 HD
ENDBRANCH   9  10
ENDBRANCH   8   9
ENDBRANCH   7   8
ENDBRANCH   1   7
BRANCH   4  13
ATOM     13  N   UNL     1      -8.644  18.110   6.491  1.00  0.00    -0.362 N 
ATOM     14  H   UNL     1      -9.271  18.646   5.905  1.00  0.00     0.166 HD
BRANCH  13  15
ATOM     15  C   UNL     1      -8.038  18.768   7.528  1.00  0.00     0.083 C 
BRANCH  15  16
ATOM     16  C   UNL     1      -8.421  18.865   8.808  1.00  0.00     0.027 C 
BRANCH  16  17
ATOM     17  C   UNL     1      -9.595  18.133   9.309  1.00  0.00    -0.003 A 
ATOM     18  C   UNL     1      -9.481  16.978  10.102  1.00  0.00    -0.041 A 
ATOM     19  C   UNL     1     -10.895  18.544   8.978  1.00  0.00     0.119 A 
ATOM     20  C   UNL     1     -10.652  16.328  10.518  1.00  0.00     0.024 A 
ATOM     21  N   UNL     1     -12.035  17.940   9.385  1.00  0.00    -0.264 NA
ATOM     22  C   UNL     1     -11.885  16.844  10.150  1.00  0.00     0.111 A 
ATOM     23  C   UNL     1      -8.150  16.395  10.488  1.00  0.00     0.045 C 
ENDBRANCH  16  17
ENDBRANCH  15  16
ENDBRANCH  13  15
ENDBRANCH   4  13
TORSDOF 8
ENDMDL
MODEL 9
REMARK VINA RESULT:    -4.701      1.697      2.143
REMARK INTER + INTRA:          -7.477
REMARK INTER:                  -6.872
REMARK INTRA:                  -0.605
REMARK UNBOUND:                -0.716
REMARK SMILES Cc1ccncc1/C=C/Nc1ccc(CCCN)cc1
REMARK SMILES IDX 14 1 13 2 12 3 11 4 20 5 19 6 15 7 16 8 17 9 18 10 10 13
REMARK SMILES IDX 9 15 8 16 7 17 2 18 6 19 3 20 5 21 4 22 1 23
REMARK H PARENT 18 11 18 12 10 14
ROOT
ATOM      1  C   UNL     1      -8.245  15.320   5.545  1.00  0.00    -0.048 A 
ATOM      2  C   UNL     1      -9.386  14.989   4.811  1.00  0.00     0.006 A 
ATOM      3  C   UNL     1      -9.412  13.848   4.014  1.00  0.00     0.026 A 
ATOM      4  C   UNL     1      -8.283  13.040   3.856  1.00  0.00     0.038 A 
ATOM      5  C   UNL     1      -7.121  13.402   4.547  1.00  0.00     0.026 A 
ATOM      6  C   UNL     1      -7.101  14.530   5.382  1.00  0.00     0.006 A 
ENDROOT
BRANCH   1   7
ATOM      7  C   UNL     1      -8.238  16.496   6.489  1.00  0.00     0.037 C 
BRANCH   7   8
ATOM      8  C   UNL     1      -7.178  16.480   7.607  1.00  0.00     0.020 C 
BRANCH   8   9
ATOM      9  C   UNL     1      -7.717  16.476   9.046  1.00  0.00     0.078 C 
BRANCH   9  10
ATOM     10  N   UNL     1      -7.239  15.382   9.879  1.00  0.00    -0.330 NA
ATOM     11  H   UNL     1      -6.754  15.751  10.695  1.00  0.00     0.118 HD
ATOM     12  H   UNL     1      -6.543  14.832   9.373  1.00  0.00     0.118 HD
ENDBRANCH   9  10
ENDBRANCH   8   9
ENDBRANCH   7   8
ENDBRANCH   1   7
BRANCH   4  13
ATOM     13  N   UNL     1      -8.266  11.953   2.961  1.00  0.00    -0.362 N 
ATOM     14  H   UNL     1      -8.568  11.059   3.326  1.00  0.00     0.166 HD
BRANCH  13  15
ATOM     15  C   UNL     1      -7.642  11.955   1.741  1.00  0.00     0.083 C 
BRANCH  15  16
ATOM     16  C   UNL     1      -7.511  10.957   0.857  1.00  0.00     0.027 C 
BRANCH  16  17
ATOM     17  C   UNL     1      -6.185  10.467   0.452  1.00  0.00    -0.003 A 
ATOM     18  C   UNL     1      -5.829   9.108   0.524  1.00  0.00    -0.041 A 
ATOM     19  C   UNL     1      -5.194  11.355   0.008  1.00  0.00     0.119 A 
ATOM     20  C   UNL     1      -4.533   8.730   0.140  1.00  0.00     0.024 A 
ATOM     21  N   UNL     1      -3.946  11.005  -0.383  1.00  0.00    -0.264 NA
ATOM     22  C   UNL     1      -3.647   9.696  -0.309  1.00  0.00     0.111 A 
ATOM     23  C   UNL     1      -6.772   8.055   1.032  1.00  0.00     0.045 C 
ENDBRANCH  16  17
ENDBRANCH  15  16
ENDBRANCH  13  15
ENDBRANCH   4  13
TORSDOF 8
ENDMDL
