MODEL 1
REMARK VINA RESULT:    -5.093      0.000      0.000
REMARK INTER + INTRA:          -7.996
REMARK INTER:                  -7.326
REMARK INTRA:                  -0.669
REMARK UNBOUND:                -0.669
REMARK SMILES Cc1ccncc1/C=C/Nc1ccc(CCCN)cc1
REMARK SMILES IDX 14 1 13 2 12 3 11 4 20 5 19 6 15 7 16 8 17 9 18 10 10 13
REMARK SMILES IDX 9 15 8 16 7 17 2 18 6 19 3 20 5 21 4 22 1 23
REMARK H PARENT 18 11 18 12 10 14
ROOT
ATOM      1  C   UNL     1      10.371  -3.998  10.734  1.00  0.00    -0.048 A 
ATOM      2  C   UNL     1      11.324  -3.148  10.170  1.00  0.00     0.006 A 
ATOM      3  C   UNL     1      11.002  -2.341   9.082  1.00  0.00     0.026 A 
ATOM      4  C   UNL     1       9.749  -2.406   8.468  1.00  0.00     0.038 A 
ATOM      5  C   UNL     1       8.810  -3.300   8.997  1.00  0.00     0.026 A 
ATOM      6  C   UNL     1       9.117  -4.087  10.118  1.00  0.00     0.006 A 
ENDROOT
BRANCH   1   7
ATOM      7  C   UNL     1      10.677  -4.800  11.974  1.00  0.00     0.037 C 
BRANCH   7   8
ATOM      8  C   UNL     1      10.607  -6.334  11.839  1.00  0.00     0.020 C 
BRANCH   8   9
ATOM      9  C   UNL     1      11.913  -7.035  11.439  1.00  0.00     0.078 C 
BRANCH   9  10
ATOM     10  N   UNL     1      11.956  -7.520  10.067  1.00  0.00    -0.330 NA
ATOM     11  H   UNL     1      11.034  -7.442   9.640  1.00  0.00     0.118 HD
ATOM     12  H   UNL     1      12.180  -8.516  10.053  1.00  0.00     0.118 HD
ENDBRANCH   9  10
ENDBRANCH   8   9
ENDBRANCH   7   8
ENDBRANCH   1   7
BRANCH   4  13
ATOM     13  N   UNL     1       9.456  -1.682   7.297  1.00  0.00    -0.362 N 
ATOM     14  H   UNL     1       9.242  -0.700   7.412  1.00  0.00     0.166 HD
BRANCH  13  15
ATOM     15  C   UNL     1       9.188  -2.244   6.076  1.00  0.00     0.083 C 
BRANCH  15  16
ATOM     16  C   UNL     1       8.740  -1.660   4.957  1.00  0.00     0.027 C 
BRANCH  16  17
ATOM     17  C   UNL     1       7.591  -2.208   4.220  1.00  0.00    -0.003 A 
ATOM     18  C   UNL     1       6.620  -1.388   3.618  1.00  0.00    -0.041 A 
ATOM     19  C   UNL     1       7.396  -3.594   4.118  1.00  0.00     0.119 A 
ATOM     20  C   UNL     1       5.543  -1.995   2.955  1.00  0.00     0.024 A 
ATOM     21  N   UNL     1       6.373  -4.195   3.467  1.00  0.00    -0.264 NA
ATOM     22  C   UNL     1       5.470  -3.377   2.897  1.00  0.00     0.111 A 
ATOM     23  C   UNL     1       6.674   0.112   3.695  1.00  0.00     0.045 C 
ENDBRANCH  16  17
ENDBRANCH  15  16
ENDBRANCH  13  15
ENDBRANCH   4  13
TORSDOF 8
ENDMDL
MODEL 2
REMARK VINA RESULT:    -4.940      1.363      1.956
REMARK INTER + INTRA:          -7.775
REMARK INTER:                  -7.099
REMARK INTRA:                  -0.677
REMARK UNBOUND:                -0.669
REMARK SMILES Cc1ccncc1/C=C/Nc1ccc(CCCN)cc1
REMARK SMILES IDX 14 1 13 2 12 3 11 4 20 5 19 6 15 7 16 8 17 9 18 10 10 13
REMARK SMILES IDX 9 15 8 16 7 17 2 18 6 19 3 20 5 21 4 22 1 23
REMARK H PARENT 18 11 18 12 10 14
ROOT
ATOM      1  C   UNL     1      10.432  -4.043  10.789  1.00  0.00    -0.048 A 
ATOM      2  C   UNL     1      11.362  -3.189  10.193  1.00  0.00     0.006 A 
ATOM      3  C   UNL     1      11.011  -2.412   9.094  1.00  0.00     0.026 A 
ATOM      4  C   UNL     1       9.751  -2.512   8.499  1.00  0.00     0.038 A 
ATOM      5  C   UNL     1       8.835  -3.410   9.061  1.00  0.00     0.026 A 
ATOM      6  C   UNL     1       9.171  -4.168  10.193  1.00  0.00     0.006 A 
ENDROOT
BRANCH   1   7
ATOM      7  C   UNL     1      10.769  -4.814  12.041  1.00  0.00     0.037 C 
BRANCH   7   8
ATOM      8  C   UNL     1      10.482  -6.328  12.019  1.00  0.00     0.020 C 
BRANCH   8   9
ATOM      9  C   UNL     1      11.664  -7.232  11.642  1.00  0.00     0.078 C 
BRANCH   9  10
ATOM     10  N   UNL     1      11.927  -7.338  10.214  1.00  0.00    -0.330 NA
ATOM     11  H   UNL     1      12.897  -7.611  10.058  1.00  0.00     0.118 HD
ATOM     12  H   UNL     1      11.824  -6.426   9.769  1.00  0.00     0.118 HD
ENDBRANCH   9  10
ENDBRANCH   8   9
ENDBRANCH   7   8
ENDBRANCH   1   7
BRANCH   4  13
ATOM     13  N   UNL     1       9.428  -1.818   7.317  1.00  0.00    -0.362 N 
ATOM     14  H   UNL     1       8.862  -0.985   7.419  1.00  0.00     0.166 HD
BRANCH  13  15
ATOM     15  C   UNL     1       9.596  -2.311   6.050  1.00  0.00     0.083 C 
BRANCH  15  16
ATOM     16  C   UNL     1       8.681  -2.514   5.093  1.00  0.00     0.027 C 
BRANCH  16  17
ATOM     17  C   UNL     1       7.892  -1.400   4.545  1.00  0.00    -0.003 A 
ATOM     18  C   UNL     1       6.698  -1.602   3.829  1.00  0.00    -0.041 A 
ATOM     19  C   UNL     1       8.327  -0.073   4.684  1.00  0.00     0.119 A 
ATOM     20  C   UNL     1       6.021  -0.483   3.320  1.00  0.00     0.024 A 
ATOM     21  N   UNL     1       7.677   1.017   4.214  1.00  0.00    -0.264 NA
ATOM     22  C   UNL     1       6.535   0.784   3.544  1.00  0.00     0.111 A 
ATOM     23  C   UNL     1       6.144  -2.972   3.559  1.00  0.00     0.045 C 
ENDBRANCH  16  17
ENDBRANCH  15  16
ENDBRANCH  13  15
ENDBRANCH   4  13
TORSDOF 8
ENDMDL
MODEL 3
REMARK VINA RESULT:    -4.826      1.976      8.615
REMARK INTER + INTRA:          -7.611
REMARK INTER:                  -7.082
REMARK INTRA:                  -0.529
REMARK UNBOUND:                -0.669
REMARK SMILES Cc1ccncc1/C=C/Nc1ccc(CCCN)cc1
REMARK SMILES IDX 14 1 13 2 12 3 11 4 20 5 19 6 15 7 16 8 17 9 18 10 10 13
REMARK SMILES IDX 9 15 8 16 7 17 2 18 6 19 3 20 5 21 4 22 1 23
REMARK H PARENT 18 11 18 12 10 14
ROOT
ATOM      1  C   UNL     1       7.129  -1.748   3.362  1.00  0.00    -0.048 A 
ATOM      2  C   UNL     1       7.685  -0.695   4.091  1.00  0.00     0.006 A 
ATOM      3  C   UNL     1       8.609  -0.942   5.102  1.00  0.00     0.026 A 
ATOM      4  C   UNL     1       8.954  -2.242   5.477  1.00  0.00     0.038 A 
ATOM      5  C   UNL     1       8.354  -3.301   4.785  1.00  0.00     0.026 A 
ATOM      6  C   UNL     1       7.451  -3.057   3.739  1.00  0.00     0.006 A 
ENDROOT
BRANCH   1   7
ATOM      7  C   UNL     1       6.204  -1.489   2.198  1.00  0.00     0.037 C 
BRANCH   7   8
ATOM      8  C   UNL     1       5.002  -2.440   2.045  1.00  0.00     0.020 C 
BRANCH   8   9
ATOM      9  C   UNL     1       4.842  -3.107   0.671  1.00  0.00     0.078 C 
BRANCH   9  10
ATOM     10  N   UNL     1       4.116  -2.320  -0.315  1.00  0.00    -0.330 NA
ATOM     11  H   UNL     1       4.406  -2.584  -1.255  1.00  0.00     0.118 HD
ATOM     12  H   UNL     1       4.355  -1.332  -0.222  1.00  0.00     0.118 HD
ENDBRANCH   9  10
ENDBRANCH   8   9
ENDBRANCH   7   8
ENDBRANCH   1   7
BRANCH   4  13
ATOM     13  N   UNL     1       9.796  -2.502   6.576  1.00  0.00    -0.362 N 
ATOM     14  H   UNL     1      10.514  -3.202   6.442  1.00  0.00     0.166 HD
BRANCH  13  15
ATOM     15  C   UNL     1       9.560  -2.082   7.858  1.00  0.00     0.083 C 
BRANCH  15  16
ATOM     16  C   UNL     1       9.626  -2.777   9.002  1.00  0.00     0.027 C 
BRANCH  16  17
ATOM     17  C   UNL     1      10.917  -3.055   9.651  1.00  0.00    -0.003 A 
ATOM     18  C   UNL     1      11.014  -3.758  10.864  1.00  0.00    -0.041 A 
ATOM     19  C   UNL     1      12.117  -2.588   9.094  1.00  0.00     0.119 A 
ATOM     20  C   UNL     1      12.284  -3.958  11.427  1.00  0.00     0.024 A 
ATOM     21  N   UNL     1      13.351  -2.788   9.614  1.00  0.00    -0.264 NA
ATOM     22  C   UNL     1      13.404  -3.473  10.770  1.00  0.00     0.111 A 
ATOM     23  C   UNL     1       9.806  -4.268  11.598  1.00  0.00     0.045 C 
ENDBRANCH  16  17
ENDBRANCH  15  16
ENDBRANCH  13  15
ENDBRANCH   4  13
TORSDOF 8
ENDMDL
MODEL 4
REMARK VINA RESULT:    -4.695      2.169      8.513
REMARK INTER + INTRA:          -7.423
REMARK INTER:                  -6.822
REMARK INTRA:                  -0.600
REMARK UNBOUND:                -0.669
REMARK SMILES Cc1ccncc1/C=C/Nc1ccc(CCCN)cc1
REMARK SMILES IDX 14 1 13 2 12 3 11 4 20 5 19 6 15 7 16 8 17 9 18 10 10 13
REMARK SMILES IDX 9 15 8 16 7 17 2 18 6 19 3 20 5 21 4 22 1 23
REMARK H PARENT 18 11 18 12 10 14
ROOT
ATOM      1  C   UNL     1       6.478  -0.906   3.298  1.00  0.00    -0.048 A 
ATOM      2  C   UNL     1       7.322  -0.070   4.032  1.00  0.00     0.006 A 
ATOM      3  C   UNL     1       8.346  -0.600   4.810  1.00  0.00     0.026 A 
ATOM      4  C   UNL     1       8.520  -1.980   4.950  1.00  0.00     0.038 A 
ATOM      5  C   UNL     1       7.638  -2.820   4.260  1.00  0.00     0.026 A 
ATOM      6  C   UNL     1       6.628  -2.290   3.444  1.00  0.00     0.006 A 
ENDROOT
BRANCH   1   7
ATOM      7  C   UNL     1       5.430  -0.339   2.373  1.00  0.00     0.037 C 
BRANCH   7   8
ATOM      8  C   UNL     1       3.971  -0.390   2.867  1.00  0.00     0.020 C 
BRANCH   8   9
ATOM      9  C   UNL     1       3.658   0.429   4.127  1.00  0.00     0.078 C 
BRANCH   9  10
ATOM     10  N   UNL     1       3.734   1.873   3.958  1.00  0.00    -0.330 NA
ATOM     11  H   UNL     1       4.209   2.294   4.755  1.00  0.00     0.118 HD
ATOM     12  H   UNL     1       2.797   2.277   3.954  1.00  0.00     0.118 HD
ENDBRANCH   9  10
ENDBRANCH   8   9
ENDBRANCH   7   8
ENDBRANCH   1   7
BRANCH   4  13
ATOM     13  N   UNL     1       9.477  -2.524   5.828  1.00  0.00    -0.362 N 
ATOM     14  H   UNL     1      10.253  -3.017   5.405  1.00  0.00     0.166 HD
BRANCH  13  15
ATOM     15  C   UNL     1       9.309  -2.661   7.180  1.00  0.00     0.083 C 
BRANCH  15  16
ATOM     16  C   UNL     1      10.051  -2.165   8.179  1.00  0.00     0.027 C 
BRANCH  16  17
ATOM     17  C   UNL     1      10.304  -2.945   9.401  1.00  0.00    -0.003 A 
ATOM     18  C   UNL     1      11.593  -3.104   9.940  1.00  0.00    -0.041 A 
ATOM     19  C   UNL     1       9.257  -3.601  10.065  1.00  0.00     0.119 A 
ATOM     20  C   UNL     1      11.748  -3.885  11.096  1.00  0.00     0.024 A 
ATOM     21  N   UNL     1       9.386  -4.343  11.190  1.00  0.00    -0.264 NA
ATOM     22  C   UNL     1      10.633  -4.464  11.681  1.00  0.00     0.111 A 
ATOM     23  C   UNL     1      12.812  -2.501   9.302  1.00  0.00     0.045 C 
ENDBRANCH  16  17
ENDBRANCH  15  16
ENDBRANCH  13  15
ENDBRANCH   4  13
TORSDOF 8
ENDMDL
MODEL 5
REMARK VINA RESULT:    -4.664      1.690      8.487
REMARK INTER + INTRA:          -7.379
REMARK INTER:                  -6.771
REMARK INTRA:                  -0.608
REMARK UNBOUND:                -0.669
REMARK SMILES Cc1ccncc1/C=C/Nc1ccc(CCCN)cc1
REMARK SMILES IDX 14 1 13 2 12 3 11 4 20 5 19 6 15 7 16 8 17 9 18 10 10 13
REMARK SMILES IDX 9 15 8 16 7 17 2 18 6 19 3 20 5 21 4 22 1 23
REMARK H PARENT 18 11 18 12 10 14
ROOT
ATOM      1  C   UNL     1       7.531  -2.002   3.623  1.00  0.00    -0.048 A 
ATOM      2  C   UNL     1       7.920  -0.902   4.390  1.00  0.00     0.006 A 
ATOM      3  C   UNL     1       8.738  -1.067   5.505  1.00  0.00     0.026 A 
ATOM      4  C   UNL     1       9.133  -2.333   5.942  1.00  0.00     0.038 A 
ATOM      5  C   UNL     1       8.697  -3.442   5.206  1.00  0.00     0.026 A 
ATOM      6  C   UNL     1       7.905  -3.279   4.059  1.00  0.00     0.006 A 
ENDROOT
BRANCH   1   7
ATOM      7  C   UNL     1       6.730  -1.826   2.357  1.00  0.00     0.037 C 
BRANCH   7   8
ATOM      8  C   UNL     1       5.389  -2.581   2.277  1.00  0.00     0.020 C 
BRANCH   8   9
ATOM      9  C   UNL     1       4.592  -2.402   0.976  1.00  0.00     0.078 C 
BRANCH   9  10
ATOM     10  N   UNL     1       4.113  -3.637   0.373  1.00  0.00    -0.330 NA
ATOM     11  H   UNL     1       3.793  -3.459  -0.579  1.00  0.00     0.118 HD
ATOM     12  H   UNL     1       3.295  -3.980   0.876  1.00  0.00     0.118 HD
ENDBRANCH   9  10
ENDBRANCH   8   9
ENDBRANCH   7   8
ENDBRANCH   1   7
BRANCH   4  13
ATOM     13  N   UNL     1       9.860  -2.516   7.134  1.00  0.00    -0.362 N 
ATOM     14  H   UNL     1      10.781  -2.926   7.046  1.00  0.00     0.166 HD
BRANCH  13  15
ATOM     15  C   UNL     1       9.330  -2.427   8.394  1.00  0.00     0.083 C 
BRANCH  15  16
ATOM     16  C   UNL     1       9.083  -3.403   9.278  1.00  0.00     0.027 C 
BRANCH  16  17
ATOM     17  C   UNL     1      10.124  -3.871  10.207  1.00  0.00    -0.003 A 
ATOM     18  C   UNL     1      10.062  -5.126  10.837  1.00  0.00    -0.041 A 
ATOM     19  C   UNL     1      11.216  -3.054  10.535  1.00  0.00     0.119 A 
ATOM     20  C   UNL     1      11.086  -5.484  11.728  1.00  0.00     0.024 A 
ATOM     21  N   UNL     1      12.220  -3.390  11.378  1.00  0.00    -0.264 NA
ATOM     22  C   UNL     1      12.131  -4.602  11.953  1.00  0.00     0.111 A 
ATOM     23  C   UNL     1       8.922  -6.081  10.620  1.00  0.00     0.045 C 
ENDBRANCH  16  17
ENDBRANCH  15  16
ENDBRANCH  13  15
ENDBRANCH   4  13
TORSDOF 8
ENDMDL
MODEL 6
REMARK VINA RESULT:    -4.606      1.715      8.455
REMARK INTER + INTRA:          -7.295
REMARK INTER:                  -6.858
REMARK INTRA:                  -0.437
REMARK UNBOUND:                -0.669
REMARK SMILES Cc1ccncc1/C=C/Nc1ccc(CCCN)cc1
REMARK SMILES IDX 14 1 13 2 12 3 11 4 20 5 19 6 15 7 16 8 17 9 18 10 10 13
REMARK SMILES IDX 9 15 8 16 7 17 2 18 6 19 3 20 5 21 4 22 1 23
REMARK H PARENT 18 11 18 12 10 14
ROOT
ATOM      1  C   UNL     1       6.652  -1.128   3.293  1.00  0.00    -0.048 A 
ATOM      2  C   UNL     1       7.380  -0.170   4.001  1.00  0.00     0.006 A 
ATOM      3  C   UNL     1       8.443  -0.547   4.817  1.00  0.00     0.026 A 
ATOM      4  C   UNL     1       8.771  -1.889   5.020  1.00  0.00     0.038 A 
ATOM      5  C   UNL     1       8.005  -2.854   4.355  1.00  0.00     0.026 A 
ATOM      6  C   UNL     1       6.956  -2.479   3.501  1.00  0.00     0.006 A 
ENDROOT
BRANCH   1   7
ATOM      7  C   UNL     1       5.564  -0.726   2.329  1.00  0.00     0.037 C 
BRANCH   7   8
ATOM      8  C   UNL     1       4.536  -1.811   1.954  1.00  0.00     0.020 C 
BRANCH   8   9
ATOM      9  C   UNL     1       4.801  -2.567   0.644  1.00  0.00     0.078 C 
BRANCH   9  10
ATOM     10  N   UNL     1       3.952  -3.729   0.421  1.00  0.00    -0.330 NA
ATOM     11  H   UNL     1       3.500  -4.002   1.292  1.00  0.00     0.118 HD
ATOM     12  H   UNL     1       4.520  -4.530   0.144  1.00  0.00     0.118 HD
ENDBRANCH   9  10
ENDBRANCH   8   9
ENDBRANCH   7   8
ENDBRANCH   1   7
BRANCH   4  13
ATOM     13  N   UNL     1       9.766  -2.283   5.935  1.00  0.00    -0.362 N 
ATOM     14  H   UNL     1      10.691  -2.447   5.557  1.00  0.00     0.166 HD
BRANCH  13  15
ATOM     15  C   UNL     1       9.529  -2.701   7.217  1.00  0.00     0.083 C 
BRANCH  15  16
ATOM     16  C   UNL     1       9.926  -2.153   8.373  1.00  0.00     0.027 C 
BRANCH  16  17
ATOM     17  C   UNL     1      10.276  -2.988   9.532  1.00  0.00    -0.003 A 
ATOM     18  C   UNL     1      11.600  -3.140   9.980  1.00  0.00    -0.041 A 
ATOM     19  C   UNL     1       9.290  -3.706  10.226  1.00  0.00     0.119 A 
ATOM     20  C   UNL     1      11.848  -3.975  11.079  1.00  0.00     0.024 A 
ATOM     21  N   UNL     1       9.509  -4.502  11.299  1.00  0.00    -0.264 NA
ATOM     22  C   UNL     1      10.787  -4.614  11.702  1.00  0.00     0.111 A 
ATOM     23  C   UNL     1      12.761  -2.472   9.298  1.00  0.00     0.045 C 
ENDBRANCH  16  17
ENDBRANCH  15  16
ENDBRANCH  13  15
ENDBRANCH   4  13
TORSDOF 8
ENDMDL
MODEL 7
REMARK VINA RESULT:    -4.534      2.192      8.577
REMARK INTER + INTRA:          -7.191
REMARK INTER:                  -6.808
REMARK INTRA:                  -0.382
REMARK UNBOUND:                -0.669
REMARK SMILES Cc1ccncc1/C=C/Nc1ccc(CCCN)cc1
REMARK SMILES IDX 14 1 13 2 12 3 11 4 20 5 19 6 15 7 16 8 17 9 18 10 10 13
REMARK SMILES IDX 9 15 8 16 7 17 2 18 6 19 3 20 5 21 4 22 1 23
REMARK H PARENT 18 11 18 12 10 14
ROOT
ATOM      1  C   UNL     1       6.758  -0.964   3.468  1.00  0.00    -0.048 A 
ATOM      2  C   UNL     1       7.545  -0.041   4.162  1.00  0.00     0.006 A 
ATOM      3  C   UNL     1       8.573  -0.470   4.997  1.00  0.00     0.026 A 
ATOM      4  C   UNL     1       8.806  -1.827   5.233  1.00  0.00     0.038 A 
ATOM      5  C   UNL     1       7.982  -2.753   4.582  1.00  0.00     0.026 A 
ATOM      6  C   UNL     1       6.968  -2.327   3.710  1.00  0.00     0.006 A 
ENDROOT
BRANCH   1   7
ATOM      7  C   UNL     1       5.709  -0.511   2.484  1.00  0.00     0.037 C 
BRANCH   7   8
ATOM      8  C   UNL     1       4.287  -0.298   3.039  1.00  0.00     0.020 C 
BRANCH   8   9
ATOM      9  C   UNL     1       4.159   0.694   4.204  1.00  0.00     0.078 C 
BRANCH   9  10
ATOM     10  N   UNL     1       2.830   1.259   4.388  1.00  0.00    -0.330 NA
ATOM     11  H   UNL     1       2.887   2.276   4.435  1.00  0.00     0.118 HD
ATOM     12  H   UNL     1       2.444   0.965   5.285  1.00  0.00     0.118 HD
ENDBRANCH   9  10
ENDBRANCH   8   9
ENDBRANCH   7   8
ENDBRANCH   1   7
BRANCH   4  13
ATOM     13  N   UNL     1       9.765  -2.266   6.166  1.00  0.00    -0.362 N 
ATOM     14  H   UNL     1      10.693  -2.454   5.810  1.00  0.00     0.166 HD
BRANCH  13  15
ATOM     15  C   UNL     1       9.481  -2.697   7.435  1.00  0.00     0.083 C 
BRANCH  15  16
ATOM     16  C   UNL     1       9.871  -2.183   8.610  1.00  0.00     0.027 C 
BRANCH  16  17
ATOM     17  C   UNL     1      11.039  -2.719   9.325  1.00  0.00    -0.003 A 
ATOM     18  C   UNL     1      10.916  -3.563  10.443  1.00  0.00    -0.041 A 
ATOM     19  C   UNL     1      12.342  -2.373   8.937  1.00  0.00     0.119 A 
ATOM     20  C   UNL     1      12.083  -4.010  11.082  1.00  0.00     0.024 A 
ATOM     21  N   UNL     1      13.478  -2.809   9.530  1.00  0.00    -0.264 NA
ATOM     22  C   UNL     1      13.319  -3.622  10.589  1.00  0.00     0.111 A 
ATOM     23  C   UNL     1       9.582  -3.971  11.001  1.00  0.00     0.045 C 
ENDBRANCH  16  17
ENDBRANCH  15  16
ENDBRANCH  13  15
ENDBRANCH   4  13
TORSDOF 8
ENDMDL
MODEL 8
REMARK VINA RESULT:    -4.513      2.166      4.448
REMARK INTER + INTRA:          -7.161
REMARK INTER:                  -6.341
REMARK INTRA:                  -0.820
REMARK UNBOUND:                -0.669
REMARK SMILES Cc1ccncc1/C=C/Nc1ccc(CCCN)cc1
REMARK SMILES IDX 14 1 13 2 12 3 11 4 20 5 19 6 15 7 16 8 17 9 18 10 10 13
REMARK SMILES IDX 9 15 8 16 7 17 2 18 6 19 3 20 5 21 4 22 1 23
REMARK H PARENT 18 11 18 12 10 14
ROOT
ATOM      1  C   UNL     1       9.431  -2.384   6.591  1.00  0.00    -0.048 A 
ATOM      2  C   UNL     1       8.104  -2.047   6.315  1.00  0.00     0.006 A 
ATOM      3  C   UNL     1       7.619  -2.079   5.011  1.00  0.00     0.026 A 
ATOM      4  C   UNL     1       8.451  -2.371   3.927  1.00  0.00     0.038 A 
ATOM      5  C   UNL     1       9.796  -2.654   4.196  1.00  0.00     0.026 A 
ATOM      6  C   UNL     1      10.281  -2.660   5.513  1.00  0.00     0.006 A 
ENDROOT
BRANCH   1   7
ATOM      7  C   UNL     1       9.941  -2.451   8.008  1.00  0.00     0.037 C 
BRANCH   7   8
ATOM      8  C   UNL     1       8.937  -2.909   9.084  1.00  0.00     0.020 C 
BRANCH   8   9
ATOM      9  C   UNL     1       9.450  -3.957  10.082  1.00  0.00     0.078 C 
BRANCH   9  10
ATOM     10  N   UNL     1      10.894  -3.971  10.272  1.00  0.00    -0.330 NA
ATOM     11  H   UNL     1      11.235  -4.931  10.283  1.00  0.00     0.118 HD
ATOM     12  H   UNL     1      11.132  -3.586  11.187  1.00  0.00     0.118 HD
ENDBRANCH   9  10
ENDBRANCH   8   9
ENDBRANCH   7   8
ENDBRANCH   1   7
BRANCH   4  13
ATOM     13  N   UNL     1       7.997  -2.289   2.597  1.00  0.00    -0.362 N 
ATOM     14  H   UNL     1       8.704  -2.164   1.883  1.00  0.00     0.166 HD
BRANCH  13  15
ATOM     15  C   UNL     1       6.691  -2.108   2.226  1.00  0.00     0.083 C 
BRANCH  15  16
ATOM     16  C   UNL     1       6.069  -0.986   1.840  1.00  0.00     0.027 C 
BRANCH  16  17
ATOM     17  C   UNL     1       5.094  -0.317   2.713  1.00  0.00    -0.003 A 
ATOM     18  C   UNL     1       5.466   0.673   3.641  1.00  0.00    -0.041 A 
ATOM     19  C   UNL     1       3.737  -0.672   2.682  1.00  0.00     0.119 A 
ATOM     20  C   UNL     1       4.474   1.243   4.452  1.00  0.00     0.024 A 
ATOM     21  N   UNL     1       2.765  -0.120   3.445  1.00  0.00    -0.264 NA
ATOM     22  C   UNL     1       3.159   0.830   4.312  1.00  0.00     0.111 A 
ATOM     23  C   UNL     1       6.892   1.112   3.819  1.00  0.00     0.045 C 
ENDBRANCH  16  17
ENDBRANCH  15  16
ENDBRANCH  13  15
ENDBRANCH   4  13
TORSDOF 8
ENDMDL
MODEL 9
REMARK VINA RESULT:    -4.187      4.233      5.492
REMARK INTER + INTRA:          -6.692
REMARK INTER:                  -5.403
REMARK INTRA:                  -1.288
REMARK UNBOUND:                -0.669
REMARK SMILES Cc1ccncc1/C=C/Nc1ccc(CCCN)cc1
REMARK SMILES IDX 14 1 13 2 12 3 11 4 20 5 19 6 15 7 16 8 17 9 18 10 10 13
REMARK SMILES IDX 9 15 8 16 7 17 2 18 6 19 3 20 5 21 4 22 1 23
REMARK H PARENT 18 11 18 12 10 14
ROOT
ATOM      1  C   UNL     1      10.154  -2.595   4.609  1.00  0.00    -0.048 A 
ATOM      2  C   UNL     1       9.548  -2.194   5.801  1.00  0.00     0.006 A 
ATOM      3  C   UNL     1       8.305  -1.568   5.790  1.00  0.00     0.026 A 
ATOM      4  C   UNL     1       7.657  -1.248   4.595  1.00  0.00     0.038 A 
ATOM      5  C   UNL     1       8.290  -1.598   3.397  1.00  0.00     0.026 A 
ATOM      6  C   UNL     1       9.525  -2.264   3.403  1.00  0.00     0.006 A 
ENDROOT
BRANCH   1   7
ATOM      7  C   UNL     1      11.452  -3.363   4.613  1.00  0.00     0.037 C 
BRANCH   7   8
ATOM      8  C   UNL     1      12.364  -3.188   3.383  1.00  0.00     0.020 C 
BRANCH   8   9
ATOM      9  C   UNL     1      13.856  -3.478   3.604  1.00  0.00     0.078 C 
BRANCH   9  10
ATOM     10  N   UNL     1      14.238  -3.718   4.988  1.00  0.00    -0.330 NA
ATOM     11  H   UNL     1      14.251  -2.839   5.504  1.00  0.00     0.118 HD
ATOM     12  H   UNL     1      15.192  -4.075   5.033  1.00  0.00     0.118 HD
ENDBRANCH   9  10
ENDBRANCH   8   9
ENDBRANCH   7   8
ENDBRANCH   1   7
BRANCH   4  13
ATOM     13  N   UNL     1       6.458  -0.510   4.573  1.00  0.00    -0.362 N 
ATOM     14  H   UNL     1       6.540   0.485   4.409  1.00  0.00     0.166 HD
BRANCH  13  15
ATOM     15  C   UNL     1       5.243  -0.977   5.002  1.00  0.00     0.083 C 
BRANCH  15  16
ATOM     16  C   UNL     1       4.453  -1.908   4.452  1.00  0.00     0.027 C 
BRANCH  16  17
ATOM     17  C   UNL     1       4.437  -2.132   2.999  1.00  0.00    -0.003 A 
ATOM     18  C   UNL     1       5.065  -3.238   2.399  1.00  0.00    -0.041 A 
ATOM     19  C   UNL     1       3.816  -1.216   2.136  1.00  0.00     0.119 A 
ATOM     20  C   UNL     1       5.022  -3.362   1.002  1.00  0.00     0.024 A 
ATOM     21  N   UNL     1       3.749  -1.330   0.789  1.00  0.00    -0.264 NA
ATOM     22  C   UNL     1       4.353  -2.406   0.254  1.00  0.00     0.111 A 
ATOM     23  C   UNL     1       5.814  -4.269   3.197  1.00  0.00     0.045 C 
ENDBRANCH  16  17
ENDBRANCH  15  16
ENDBRANCH  13  15
ENDBRANCH   4  13
TORSDOF 8
ENDMDL
