MODEL 1
REMARK VINA RESULT:    -4.987      0.000      0.000
REMARK INTER + INTRA:          -7.851
REMARK INTER:                  -7.173
REMARK INTRA:                  -0.678
REMARK UNBOUND:                -0.678
REMARK SMILES Cc1ccncc1/C=C/Nc1ccc(CCCN)cc1
REMARK SMILES IDX 14 1 13 2 12 3 11 4 20 5 19 6 15 7 16 8 17 9 18 10 10 13
REMARK SMILES IDX 9 15 8 16 7 17 2 18 6 19 3 20 5 21 4 22 1 23
REMARK H PARENT 18 11 18 12 10 14
ROOT
ATOM      1  C   UNL     1      13.573  -4.339  -7.128  1.00  0.00    -0.048 A 
ATOM      2  C   UNL     1      14.330  -4.848  -6.070  1.00  0.00     0.006 A 
ATOM      3  C   UNL     1      13.817  -4.873  -4.777  1.00  0.00     0.026 A 
ATOM      4  C   UNL     1      12.568  -4.324  -4.473  1.00  0.00     0.038 A 
ATOM      5  C   UNL     1      11.832  -3.762  -5.523  1.00  0.00     0.026 A 
ATOM      6  C   UNL     1      12.328  -3.769  -6.836  1.00  0.00     0.006 A 
ENDROOT
BRANCH   1   7
ATOM      7  C   UNL     1      14.076  -4.399  -8.548  1.00  0.00     0.037 C 
BRANCH   7   8
ATOM      8  C   UNL     1      14.179  -3.060  -9.303  1.00  0.00     0.020 C 
BRANCH   8   9
ATOM      9  C   UNL     1      15.512  -2.310  -9.166  1.00  0.00     0.078 C 
BRANCH   9  10
ATOM     10  N   UNL     1      15.574  -1.360  -8.065  1.00  0.00    -0.330 NA
ATOM     11  H   UNL     1      15.832  -0.438  -8.413  1.00  0.00     0.118 HD
ATOM     12  H   UNL     1      16.315  -1.623  -7.415  1.00  0.00     0.118 HD
ENDBRANCH   9  10
ENDBRANCH   8   9
ENDBRANCH   7   8
ENDBRANCH   1   7
BRANCH   4  13
ATOM     13  N   UNL     1      12.095  -4.237  -3.150  1.00  0.00    -0.362 N 
ATOM     14  H   UNL     1      12.262  -5.039  -2.555  1.00  0.00     0.166 HD
BRANCH  13  15
ATOM     15  C   UNL     1      11.220  -3.288  -2.693  1.00  0.00     0.083 C 
BRANCH  15  16
ATOM     16  C   UNL     1      10.504  -3.273  -1.560  1.00  0.00     0.027 C 
BRANCH  16  17
ATOM     17  C   UNL     1       9.371  -2.351  -1.387  1.00  0.00    -0.003 A 
ATOM     18  C   UNL     1       8.203  -2.714  -0.693  1.00  0.00    -0.041 A 
ATOM     19  C   UNL     1       9.397  -1.066  -1.948  1.00  0.00     0.119 A 
ATOM     20  C   UNL     1       7.160  -1.781  -0.595  1.00  0.00     0.024 A 
ATOM     21  N   UNL     1       8.407  -0.148  -1.849  1.00  0.00    -0.264 NA
ATOM     22  C   UNL     1       7.311  -0.529  -1.169  1.00  0.00     0.111 A 
ATOM     23  C   UNL     1       8.018  -4.077  -0.087  1.00  0.00     0.045 C 
ENDBRANCH  16  17
ENDBRANCH  15  16
ENDBRANCH  13  15
ENDBRANCH   4  13
TORSDOF 8
ENDMDL
MODEL 2
REMARK VINA RESULT:    -4.906      1.588      8.512
REMARK INTER + INTRA:          -7.734
REMARK INTER:                  -7.115
REMARK INTRA:                  -0.620
REMARK UNBOUND:                -0.678
REMARK SMILES Cc1ccncc1/C=C/Nc1ccc(CCCN)cc1
REMARK SMILES IDX 14 1 13 2 12 3 11 4 20 5 19 6 15 7 16 8 17 9 18 10 10 13
REMARK SMILES IDX 9 15 8 16 7 17 2 18 6 19 3 20 5 21 4 22 1 23
REMARK H PARENT 18 11 18 12 10 14
ROOT
ATOM      1  C   UNL     1       9.312  -2.070  -1.149  1.00  0.00    -0.048 A 
ATOM      2  C   UNL     1       9.659  -3.422  -1.134  1.00  0.00     0.006 A 
ATOM      3  C   UNL     1      10.780  -3.876  -1.823  1.00  0.00     0.026 A 
ATOM      4  C   UNL     1      11.551  -3.019  -2.613  1.00  0.00     0.038 A 
ATOM      5  C   UNL     1      11.171  -1.673  -2.675  1.00  0.00     0.026 A 
ATOM      6  C   UNL     1      10.064  -1.203  -1.952  1.00  0.00     0.006 A 
ENDROOT
BRANCH   1   7
ATOM      7  C   UNL     1       8.160  -1.550  -0.326  1.00  0.00     0.037 C 
BRANCH   7   8
ATOM      8  C   UNL     1       7.476  -0.264  -0.829  1.00  0.00     0.020 C 
BRANCH   8   9
ATOM      9  C   UNL     1       6.974   0.700   0.255  1.00  0.00     0.078 C 
BRANCH   9  10
ATOM     10  N   UNL     1       5.862   1.551  -0.144  1.00  0.00    -0.330 NA
ATOM     11  H   UNL     1       5.268   1.749   0.660  1.00  0.00     0.118 HD
ATOM     12  H   UNL     1       5.265   1.059  -0.810  1.00  0.00     0.118 HD
ENDBRANCH   9  10
ENDBRANCH   8   9
ENDBRANCH   7   8
ENDBRANCH   1   7
BRANCH   4  13
ATOM     13  N   UNL     1      12.613  -3.493  -3.406  1.00  0.00    -0.362 N 
ATOM     14  H   UNL     1      13.529  -3.103  -3.219  1.00  0.00     0.166 HD
BRANCH  13  15
ATOM     15  C   UNL     1      12.467  -4.226  -4.554  1.00  0.00     0.083 C 
BRANCH  15  16
ATOM     16  C   UNL     1      12.429  -3.808  -5.826  1.00  0.00     0.027 C 
BRANCH  16  17
ATOM     17  C   UNL     1      13.526  -4.106  -6.759  1.00  0.00    -0.003 A 
ATOM     18  C   UNL     1      13.731  -3.372  -7.940  1.00  0.00    -0.041 A 
ATOM     19  C   UNL     1      14.401  -5.177  -6.522  1.00  0.00     0.119 A 
ATOM     20  C   UNL     1      14.788  -3.739  -8.787  1.00  0.00     0.024 A 
ATOM     21  N   UNL     1      15.436  -5.533  -7.319  1.00  0.00    -0.264 NA
ATOM     22  C   UNL     1      15.606  -4.801  -8.434  1.00  0.00     0.111 A 
ATOM     23  C   UNL     1      12.837  -2.234  -8.346  1.00  0.00     0.045 C 
ENDBRANCH  16  17
ENDBRANCH  15  16
ENDBRANCH  13  15
ENDBRANCH   4  13
TORSDOF 8
ENDMDL
MODEL 3
REMARK VINA RESULT:    -4.830      1.235      2.037
REMARK INTER + INTRA:          -7.626
REMARK INTER:                  -6.936
REMARK INTRA:                  -0.690
REMARK UNBOUND:                -0.678
REMARK SMILES Cc1ccncc1/C=C/Nc1ccc(CCCN)cc1
REMARK SMILES IDX 14 1 13 2 12 3 11 4 20 5 19 6 15 7 16 8 17 9 18 10 10 13
REMARK SMILES IDX 9 15 8 16 7 17 2 18 6 19 3 20 5 21 4 22 1 23
REMARK H PARENT 18 11 18 12 10 14
ROOT
ATOM      1  C   UNL     1      13.754  -4.407  -6.761  1.00  0.00    -0.048 A 
ATOM      2  C   UNL     1      12.458  -3.887  -6.784  1.00  0.00     0.006 A 
ATOM      3  C   UNL     1      11.741  -3.715  -5.603  1.00  0.00     0.026 A 
ATOM      4  C   UNL     1      12.253  -4.124  -4.369  1.00  0.00     0.038 A 
ATOM      5  C   UNL     1      13.530  -4.698  -4.352  1.00  0.00     0.026 A 
ATOM      6  C   UNL     1      14.273  -4.839  -5.534  1.00  0.00     0.006 A 
ENDROOT
BRANCH   1   7
ATOM      7  C   UNL     1      14.578  -4.504  -8.021  1.00  0.00     0.037 C 
BRANCH   7   8
ATOM      8  C   UNL     1      14.235  -3.513  -9.150  1.00  0.00     0.020 C 
BRANCH   8   9
ATOM      9  C   UNL     1      15.213  -2.344  -9.339  1.00  0.00     0.078 C 
BRANCH   9  10
ATOM     10  N   UNL     1      15.311  -1.434  -8.206  1.00  0.00    -0.330 NA
ATOM     11  H   UNL     1      14.448  -0.899  -8.113  1.00  0.00     0.118 HD
ATOM     12  H   UNL     1      16.044  -0.745  -8.372  1.00  0.00     0.118 HD
ENDBRANCH   9  10
ENDBRANCH   8   9
ENDBRANCH   7   8
ENDBRANCH   1   7
BRANCH   4  13
ATOM     13  N   UNL     1      11.488  -4.063  -3.189  1.00  0.00    -0.362 N 
ATOM     14  H   UNL     1      10.708  -4.704  -3.119  1.00  0.00     0.166 HD
BRANCH  13  15
ATOM     15  C   UNL     1      11.556  -3.054  -2.264  1.00  0.00     0.083 C 
BRANCH  15  16
ATOM     16  C   UNL     1      10.648  -2.113  -1.972  1.00  0.00     0.027 C 
BRANCH  16  17
ATOM     17  C   UNL     1       9.315  -2.473  -1.463  1.00  0.00    -0.003 A 
ATOM     18  C   UNL     1       8.218  -1.597  -1.539  1.00  0.00    -0.041 A 
ATOM     19  C   UNL     1       9.092  -3.709  -0.839  1.00  0.00     0.119 A 
ATOM     20  C   UNL     1       6.987  -2.011  -1.008  1.00  0.00     0.024 A 
ATOM     21  N   UNL     1       7.908  -4.131  -0.337  1.00  0.00    -0.264 NA
ATOM     22  C   UNL     1       6.881  -3.269  -0.437  1.00  0.00     0.111 A 
ATOM     23  C   UNL     1       8.327  -0.220  -2.133  1.00  0.00     0.045 C 
ENDBRANCH  16  17
ENDBRANCH  15  16
ENDBRANCH  13  15
ENDBRANCH   4  13
TORSDOF 8
ENDMDL
MODEL 4
REMARK VINA RESULT:    -4.789      1.976      8.477
REMARK INTER + INTRA:          -7.567
REMARK INTER:                  -7.075
REMARK INTRA:                  -0.492
REMARK UNBOUND:                -0.678
REMARK SMILES Cc1ccncc1/C=C/Nc1ccc(CCCN)cc1
REMARK SMILES IDX 14 1 13 2 12 3 11 4 20 5 19 6 15 7 16 8 17 9 18 10 10 13
REMARK SMILES IDX 9 15 8 16 7 17 2 18 6 19 3 20 5 21 4 22 1 23
REMARK H PARENT 18 11 18 12 10 14
ROOT
ATOM      1  C   UNL     1       8.096  -2.448  -0.581  1.00  0.00    -0.048 A 
ATOM      2  C   UNL     1       8.809  -3.649  -0.573  1.00  0.00     0.006 A 
ATOM      3  C   UNL     1      10.053  -3.740  -1.190  1.00  0.00     0.026 A 
ATOM      4  C   UNL     1      10.598  -2.668  -1.902  1.00  0.00     0.038 A 
ATOM      5  C   UNL     1       9.858  -1.481  -1.959  1.00  0.00     0.026 A 
ATOM      6  C   UNL     1       8.620  -1.371  -1.307  1.00  0.00     0.006 A 
ENDROOT
BRANCH   1   7
ATOM      7  C   UNL     1       6.795  -2.308   0.169  1.00  0.00     0.037 C 
BRANCH   7   8
ATOM      8  C   UNL     1       5.502  -2.512  -0.644  1.00  0.00     0.020 C 
BRANCH   8   9
ATOM      9  C   UNL     1       5.368  -3.859  -1.370  1.00  0.00     0.078 C 
BRANCH   9  10
ATOM     10  N   UNL     1       4.872  -4.954  -0.549  1.00  0.00    -0.330 NA
ATOM     11  H   UNL     1       5.646  -5.550  -0.257  1.00  0.00     0.118 HD
ATOM     12  H   UNL     1       4.257  -5.554  -1.098  1.00  0.00     0.118 HD
ENDBRANCH   9  10
ENDBRANCH   8   9
ENDBRANCH   7   8
ENDBRANCH   1   7
BRANCH   4  13
ATOM     13  N   UNL     1      11.798  -2.790  -2.628  1.00  0.00    -0.362 N 
ATOM     14  H   UNL     1      12.578  -2.225  -2.314  1.00  0.00     0.166 HD
BRANCH  13  15
ATOM     15  C   UNL     1      11.916  -3.399  -3.849  1.00  0.00     0.083 C 
BRANCH  15  16
ATOM     16  C   UNL     1      12.707  -4.417  -4.214  1.00  0.00     0.027 C 
BRANCH  16  17
ATOM     17  C   UNL     1      13.337  -4.454  -5.542  1.00  0.00    -0.003 A 
ATOM     18  C   UNL     1      14.692  -4.786  -5.725  1.00  0.00    -0.041 A 
ATOM     19  C   UNL     1      12.610  -4.117  -6.694  1.00  0.00     0.119 A 
ATOM     20  C   UNL     1      15.219  -4.773  -7.025  1.00  0.00     0.024 A 
ATOM     21  N   UNL     1      13.098  -4.118  -7.956  1.00  0.00    -0.264 NA
ATOM     22  C   UNL     1      14.394  -4.450  -8.091  1.00  0.00     0.111 A 
ATOM     23  C   UNL     1      15.602  -5.115  -4.575  1.00  0.00     0.045 C 
ENDBRANCH  16  17
ENDBRANCH  15  16
ENDBRANCH  13  15
ENDBRANCH   4  13
TORSDOF 8
ENDMDL
MODEL 5
REMARK VINA RESULT:    -4.732      1.541      8.474
REMARK INTER + INTRA:          -7.485
REMARK INTER:                  -7.078
REMARK INTRA:                  -0.406
REMARK UNBOUND:                -0.678
REMARK SMILES Cc1ccncc1/C=C/Nc1ccc(CCCN)cc1
REMARK SMILES IDX 14 1 13 2 12 3 11 4 20 5 19 6 15 7 16 8 17 9 18 10 10 13
REMARK SMILES IDX 9 15 8 16 7 17 2 18 6 19 3 20 5 21 4 22 1 23
REMARK H PARENT 18 11 18 12 10 14
ROOT
ATOM      1  C   UNL     1       8.391  -2.334  -0.611  1.00  0.00    -0.048 A 
ATOM      2  C   UNL     1       8.938  -3.618  -0.634  1.00  0.00     0.006 A 
ATOM      3  C   UNL     1      10.163  -3.858  -1.250  1.00  0.00     0.026 A 
ATOM      4  C   UNL     1      10.850  -2.850  -1.931  1.00  0.00     0.038 A 
ATOM      5  C   UNL     1      10.275  -1.574  -1.958  1.00  0.00     0.026 A 
ATOM      6  C   UNL     1       9.059  -1.318  -1.305  1.00  0.00     0.006 A 
ENDROOT
BRANCH   1   7
ATOM      7  C   UNL     1       7.116  -2.042   0.140  1.00  0.00     0.037 C 
BRANCH   7   8
ATOM      8  C   UNL     1       6.301  -0.821  -0.330  1.00  0.00     0.020 C 
BRANCH   8   9
ATOM      9  C   UNL     1       6.564   0.493   0.421  1.00  0.00     0.078 C 
BRANCH   9  10
ATOM     10  N   UNL     1       5.883   1.659  -0.123  1.00  0.00    -0.330 NA
ATOM     11  H   UNL     1       5.618   1.488  -1.092  1.00  0.00     0.118 HD
ATOM     12  H   UNL     1       6.518   2.457  -0.150  1.00  0.00     0.118 HD
ENDBRANCH   9  10
ENDBRANCH   8   9
ENDBRANCH   7   8
ENDBRANCH   1   7
BRANCH   4  13
ATOM     13  N   UNL     1      12.028  -3.111  -2.657  1.00  0.00    -0.362 N 
ATOM     14  H   UNL     1      12.893  -2.774  -2.255  1.00  0.00     0.166 HD
BRANCH  13  15
ATOM     15  C   UNL     1      12.067  -3.543  -3.956  1.00  0.00     0.083 C 
BRANCH  15  16
ATOM     16  C   UNL     1      12.697  -4.605  -4.476  1.00  0.00     0.027 C 
BRANCH  16  17
ATOM     17  C   UNL     1      13.413  -4.515  -5.757  1.00  0.00    -0.003 A 
ATOM     18  C   UNL     1      14.793  -4.760  -5.868  1.00  0.00    -0.041 A 
ATOM     19  C   UNL     1      12.744  -4.137  -6.931  1.00  0.00     0.119 A 
ATOM     20  C   UNL     1      15.402  -4.628  -7.125  1.00  0.00     0.024 A 
ATOM     21  N   UNL     1      13.312  -4.022  -8.154  1.00  0.00    -0.264 NA
ATOM     22  C   UNL     1      14.631  -4.275  -8.221  1.00  0.00     0.111 A 
ATOM     23  C   UNL     1      15.645  -5.121  -4.683  1.00  0.00     0.045 C 
ENDBRANCH  16  17
ENDBRANCH  15  16
ENDBRANCH  13  15
ENDBRANCH   4  13
TORSDOF 8
ENDMDL
MODEL 6
REMARK VINA RESULT:    -4.648      1.561      1.985
REMARK INTER + INTRA:          -7.364
REMARK INTER:                  -6.787
REMARK INTRA:                  -0.576
REMARK UNBOUND:                -0.678
REMARK SMILES Cc1ccncc1/C=C/Nc1ccc(CCCN)cc1
REMARK SMILES IDX 14 1 13 2 12 3 11 4 20 5 19 6 15 7 16 8 17 9 18 10 10 13
REMARK SMILES IDX 9 15 8 16 7 17 2 18 6 19 3 20 5 21 4 22 1 23
REMARK H PARENT 18 11 18 12 10 14
ROOT
ATOM      1  C   UNL     1      14.028  -4.478  -6.955  1.00  0.00    -0.048 A 
ATOM      2  C   UNL     1      12.718  -3.996  -6.997  1.00  0.00     0.006 A 
ATOM      3  C   UNL     1      11.957  -3.905  -5.835  1.00  0.00     0.026 A 
ATOM      4  C   UNL     1      12.440  -4.361  -4.606  1.00  0.00     0.038 A 
ATOM      5  C   UNL     1      13.732  -4.896  -4.572  1.00  0.00     0.026 A 
ATOM      6  C   UNL     1      14.519  -4.955  -5.733  1.00  0.00     0.006 A 
ENDROOT
BRANCH   1   7
ATOM      7  C   UNL     1      14.897  -4.487  -8.188  1.00  0.00     0.037 C 
BRANCH   7   8
ATOM      8  C   UNL     1      14.171  -4.421  -9.546  1.00  0.00     0.020 C 
BRANCH   8   9
ATOM      9  C   UNL     1      14.420  -5.598 -10.500  1.00  0.00     0.078 C 
BRANCH   9  10
ATOM     10  N   UNL     1      13.300  -6.516 -10.650  1.00  0.00    -0.330 NA
ATOM     11  H   UNL     1      13.535  -7.246 -11.321  1.00  0.00     0.118 HD
ATOM     12  H   UNL     1      12.496  -6.028 -11.046  1.00  0.00     0.118 HD
ENDBRANCH   9  10
ENDBRANCH   8   9
ENDBRANCH   7   8
ENDBRANCH   1   7
BRANCH   4  13
ATOM     13  N   UNL     1      11.634  -4.382  -3.452  1.00  0.00    -0.362 N 
ATOM     14  H   UNL     1      11.073  -5.212  -3.304  1.00  0.00     0.166 HD
BRANCH  13  15
ATOM     15  C   UNL     1      11.358  -3.292  -2.670  1.00  0.00     0.083 C 
BRANCH  15  16
ATOM     16  C   UNL     1      10.620  -3.216  -1.554  1.00  0.00     0.027 C 
BRANCH  16  17
ATOM     17  C   UNL     1       9.496  -2.273  -1.447  1.00  0.00    -0.003 A 
ATOM     18  C   UNL     1       8.293  -2.604  -0.799  1.00  0.00    -0.041 A 
ATOM     19  C   UNL     1       9.568  -0.999  -2.029  1.00  0.00     0.119 A 
ATOM     20  C   UNL     1       7.262  -1.652  -0.763  1.00  0.00     0.024 A 
ATOM     21  N   UNL     1       8.591  -0.063  -1.989  1.00  0.00    -0.264 NA
ATOM     22  C   UNL     1       7.460  -0.413  -1.352  1.00  0.00     0.111 A 
ATOM     23  C   UNL     1       8.058  -3.953  -0.178  1.00  0.00     0.045 C 
ENDBRANCH  16  17
ENDBRANCH  15  16
ENDBRANCH  13  15
ENDBRANCH   4  13
TORSDOF 8
ENDMDL
MODEL 7
REMARK VINA RESULT:    -4.576      1.633      8.553
REMARK INTER + INTRA:          -7.260
REMARK INTER:                  -6.812
REMARK INTRA:                  -0.448
REMARK UNBOUND:                -0.678
REMARK SMILES Cc1ccncc1/C=C/Nc1ccc(CCCN)cc1
REMARK SMILES IDX 14 1 13 2 12 3 11 4 20 5 19 6 15 7 16 8 17 9 18 10 10 13
REMARK SMILES IDX 9 15 8 16 7 17 2 18 6 19 3 20 5 21 4 22 1 23
REMARK H PARENT 18 11 18 12 10 14
ROOT
ATOM      1  C   UNL     1       8.404  -2.112  -0.744  1.00  0.00    -0.048 A 
ATOM      2  C   UNL     1       9.209  -1.172  -1.391  1.00  0.00     0.006 A 
ATOM      3  C   UNL     1      10.385  -1.561  -2.027  1.00  0.00     0.026 A 
ATOM      4  C   UNL     1      10.843  -2.879  -1.976  1.00  0.00     0.038 A 
ATOM      5  C   UNL     1      10.066  -3.812  -1.279  1.00  0.00     0.026 A 
ATOM      6  C   UNL     1       8.860  -3.434  -0.669  1.00  0.00     0.006 A 
ENDROOT
BRANCH   1   7
ATOM      7  C   UNL     1       7.079  -1.721  -0.140  1.00  0.00     0.037 C 
BRANCH   7   8
ATOM      8  C   UNL     1       6.426  -0.433  -0.679  1.00  0.00     0.020 C 
BRANCH   8   9
ATOM      9  C   UNL     1       6.570   0.815   0.204  1.00  0.00     0.078 C 
BRANCH   9  10
ATOM     10  N   UNL     1       5.566   0.948   1.250  1.00  0.00    -0.330 NA
ATOM     11  H   UNL     1       5.261   0.027   1.560  1.00  0.00     0.118 HD
ATOM     12  H   UNL     1       4.731   1.403   0.880  1.00  0.00     0.118 HD
ENDBRANCH   9  10
ENDBRANCH   8   9
ENDBRANCH   7   8
ENDBRANCH   1   7
BRANCH   4  13
ATOM     13  N   UNL     1      12.088  -3.256  -2.514  1.00  0.00    -0.362 N 
ATOM     14  H   UNL     1      12.890  -3.179  -1.900  1.00  0.00     0.166 HD
BRANCH  13  15
ATOM     15  C   UNL     1      12.335  -3.464  -3.845  1.00  0.00     0.083 C 
BRANCH  15  16
ATOM     16  C   UNL     1      12.737  -4.581  -4.466  1.00  0.00     0.027 C 
BRANCH  16  17
ATOM     17  C   UNL     1      13.442  -4.525  -5.755  1.00  0.00    -0.003 A 
ATOM     18  C   UNL     1      14.818  -4.792  -5.875  1.00  0.00    -0.041 A 
ATOM     19  C   UNL     1      12.767  -4.160  -6.930  1.00  0.00     0.119 A 
ATOM     20  C   UNL     1      15.416  -4.691  -7.140  1.00  0.00     0.024 A 
ATOM     21  N   UNL     1      13.325  -4.075  -8.160  1.00  0.00    -0.264 NA
ATOM     22  C   UNL     1      14.639  -4.348  -8.235  1.00  0.00     0.111 A 
ATOM     23  C   UNL     1      15.675  -5.142  -4.691  1.00  0.00     0.045 C 
ENDBRANCH  16  17
ENDBRANCH  15  16
ENDBRANCH  13  15
ENDBRANCH   4  13
TORSDOF 8
ENDMDL
MODEL 8
REMARK VINA RESULT:    -4.418      1.948      2.574
REMARK INTER + INTRA:          -7.033
REMARK INTER:                  -6.456
REMARK INTRA:                  -0.578
REMARK UNBOUND:                -0.678
REMARK SMILES Cc1ccncc1/C=C/Nc1ccc(CCCN)cc1
REMARK SMILES IDX 14 1 13 2 12 3 11 4 20 5 19 6 15 7 16 8 17 9 18 10 10 13
REMARK SMILES IDX 9 15 8 16 7 17 2 18 6 19 3 20 5 21 4 22 1 23
REMARK H PARENT 18 11 18 12 10 14
ROOT
ATOM      1  C   UNL     1      13.821  -4.263  -7.329  1.00  0.00    -0.048 A 
ATOM      2  C   UNL     1      14.500  -4.824  -6.246  1.00  0.00     0.006 A 
ATOM      3  C   UNL     1      13.905  -4.885  -4.989  1.00  0.00     0.026 A 
ATOM      4  C   UNL     1      12.650  -4.322  -4.745  1.00  0.00     0.038 A 
ATOM      5  C   UNL     1      11.993  -3.707  -5.817  1.00  0.00     0.026 A 
ATOM      6  C   UNL     1      12.571  -3.677  -7.096  1.00  0.00     0.006 A 
ENDROOT
BRANCH   1   7
ATOM      7  C   UNL     1      14.413  -4.282  -8.717  1.00  0.00     0.037 C 
BRANCH   7   8
ATOM      8  C   UNL     1      15.271  -5.508  -9.085  1.00  0.00     0.020 C 
BRANCH   8   9
ATOM      9  C   UNL     1      14.864  -6.255 -10.364  1.00  0.00     0.078 C 
BRANCH   9  10
ATOM     10  N   UNL     1      13.432  -6.294 -10.624  1.00  0.00    -0.330 NA
ATOM     11  H   UNL     1      12.923  -5.903  -9.832  1.00  0.00     0.118 HD
ATOM     12  H   UNL     1      13.115  -7.260 -10.702  1.00  0.00     0.118 HD
ENDBRANCH   9  10
ENDBRANCH   8   9
ENDBRANCH   7   8
ENDBRANCH   1   7
BRANCH   4  13
ATOM     13  N   UNL     1      12.095  -4.273  -3.452  1.00  0.00    -0.362 N 
ATOM     14  H   UNL     1      11.511  -5.054  -3.179  1.00  0.00     0.166 HD
BRANCH  13  15
ATOM     15  C   UNL     1      12.070  -3.162  -2.652  1.00  0.00     0.083 C 
BRANCH  15  16
ATOM     16  C   UNL     1      11.022  -2.423  -2.263  1.00  0.00     0.027 C 
BRANCH  16  17
ATOM     17  C   UNL     1       9.920  -3.013  -1.489  1.00  0.00    -0.003 A 
ATOM     18  C   UNL     1       8.711  -2.333  -1.259  1.00  0.00    -0.041 A 
ATOM     19  C   UNL     1      10.048  -4.284  -0.907  1.00  0.00     0.119 A 
ATOM     20  C   UNL     1       7.720  -2.961  -0.489  1.00  0.00     0.024 A 
ATOM     21  N   UNL     1       9.097  -4.911  -0.177  1.00  0.00    -0.264 NA
ATOM     22  C   UNL     1       7.951  -4.232   0.012  1.00  0.00     0.111 A 
ATOM     23  C   UNL     1       8.457  -0.945  -1.777  1.00  0.00     0.045 C 
ENDBRANCH  16  17
ENDBRANCH  15  16
ENDBRANCH  13  15
ENDBRANCH   4  13
TORSDOF 8
ENDMDL
