MODEL 1
REMARK VINA RESULT:    -5.125      0.000      0.000
REMARK INTER + INTRA:          -8.021
REMARK INTER:                  -7.372
REMARK INTRA:                  -0.649
REMARK UNBOUND:                -0.649
REMARK SMILES Cc1ccncc1/C=C/Nc1ccc(CCCN)cc1
REMARK SMILES IDX 14 1 13 2 12 3 11 4 20 5 19 6 15 7 16 8 17 9 18 10 10 13
REMARK SMILES IDX 9 15 8 16 7 17 2 18 6 19 3 20 5 21 4 22 1 23
REMARK H PARENT 18 11 18 12 10 14
ROOT
ATOM      1  C   UNL     1      -8.582  -5.483  12.327  1.00  0.00    -0.048 A 
ATOM      2  C   UNL     1      -7.393  -5.021  11.760  1.00  0.00     0.006 A 
ATOM      3  C   UNL     1      -7.365  -4.558  10.447  1.00  0.00     0.026 A 
ATOM      4  C   UNL     1      -8.496  -4.610   9.629  1.00  0.00     0.038 A 
ATOM      5  C   UNL     1      -9.675  -5.126  10.179  1.00  0.00     0.026 A 
ATOM      6  C   UNL     1      -9.719  -5.558  11.513  1.00  0.00     0.006 A 
ENDROOT
BRANCH   1   7
ATOM      7  C   UNL     1      -8.648  -5.893  13.777  1.00  0.00     0.037 C 
BRANCH   7   8
ATOM      8  C   UNL     1      -8.468  -4.773  14.821  1.00  0.00     0.020 C 
BRANCH   8   9
ATOM      9  C   UNL     1      -9.761  -4.164  15.384  1.00  0.00     0.078 C 
BRANCH   9  10
ATOM     10  N   UNL     1      -9.975  -2.762  15.054  1.00  0.00    -0.330 NA
ATOM     11  H   UNL     1     -10.419  -2.283  15.836  1.00  0.00     0.118 HD
ATOM     12  H   UNL     1     -10.630  -2.680  14.276  1.00  0.00     0.118 HD
ENDBRANCH   9  10
ENDBRANCH   8   9
ENDBRANCH   7   8
ENDBRANCH   1   7
BRANCH   4  13
ATOM     13  N   UNL     1      -8.446  -4.255   8.267  1.00  0.00    -0.362 N 
ATOM     14  H   UNL     1      -8.467  -5.015   7.599  1.00  0.00     0.166 HD
BRANCH  13  15
ATOM     15  C   UNL     1      -8.118  -3.012   7.794  1.00  0.00     0.083 C 
BRANCH  15  16
ATOM     16  C   UNL     1      -7.666  -2.660   6.583  1.00  0.00     0.027 C 
BRANCH  16  17
ATOM     17  C   UNL     1      -6.525  -1.744   6.432  1.00  0.00    -0.003 A 
ATOM     18  C   UNL     1      -5.692  -1.758   5.299  1.00  0.00    -0.041 A 
ATOM     19  C   UNL     1      -6.195  -0.832   7.445  1.00  0.00     0.119 A 
ATOM     20  C   UNL     1      -4.611  -0.865   5.247  1.00  0.00     0.024 A 
ATOM     21  N   UNL     1      -5.167   0.047   7.404  1.00  0.00    -0.264 NA
ATOM     22  C   UNL     1      -4.400   0.011   6.300  1.00  0.00     0.111 A 
ATOM     23  C   UNL     1      -5.896  -2.719   4.162  1.00  0.00     0.045 C 
ENDBRANCH  16  17
ENDBRANCH  15  16
ENDBRANCH  13  15
ENDBRANCH   4  13
TORSDOF 8
ENDMDL
MODEL 2
REMARK VINA RESULT:    -4.925      1.883      2.360
REMARK INTER + INTRA:          -7.734
REMARK INTER:                  -7.055
REMARK INTRA:                  -0.680
REMARK UNBOUND:                -0.649
REMARK SMILES Cc1ccncc1/C=C/Nc1ccc(CCCN)cc1
REMARK SMILES IDX 14 1 13 2 12 3 11 4 20 5 19 6 15 7 16 8 17 9 18 10 10 13
REMARK SMILES IDX 9 15 8 16 7 17 2 18 6 19 3 20 5 21 4 22 1 23
REMARK H PARENT 18 11 18 12 10 14
ROOT
ATOM      1  C   UNL     1      -9.035  -5.847  12.415  1.00  0.00    -0.048 A 
ATOM      2  C   UNL     1     -10.040  -5.663  11.463  1.00  0.00     0.006 A 
ATOM      3  C   UNL     1      -9.746  -5.120  10.215  1.00  0.00     0.026 A 
ATOM      4  C   UNL     1      -8.463  -4.668   9.897  1.00  0.00     0.038 A 
ATOM      5  C   UNL     1      -7.467  -4.799  10.872  1.00  0.00     0.026 A 
ATOM      6  C   UNL     1      -7.748  -5.381  12.117  1.00  0.00     0.006 A 
ENDROOT
BRANCH   1   7
ATOM      7  C   UNL     1      -9.320  -6.527  13.730  1.00  0.00     0.037 C 
BRANCH   7   8
ATOM      8  C   UNL     1      -8.101  -6.897  14.597  1.00  0.00     0.020 C 
BRANCH   8   9
ATOM      9  C   UNL     1      -8.015  -8.363  15.046  1.00  0.00     0.078 C 
BRANCH   9  10
ATOM     10  N   UNL     1      -6.957  -9.139  14.415  1.00  0.00    -0.330 NA
ATOM     11  H   UNL     1      -6.974 -10.098  14.760  1.00  0.00     0.118 HD
ATOM     12  H   UNL     1      -6.044  -8.770  14.679  1.00  0.00     0.118 HD
ENDBRANCH   9  10
ENDBRANCH   8   9
ENDBRANCH   7   8
ENDBRANCH   1   7
BRANCH   4  13
ATOM     13  N   UNL     1      -8.186  -4.009   8.684  1.00  0.00    -0.362 N 
ATOM     14  H   UNL     1      -7.487  -4.433   8.087  1.00  0.00     0.166 HD
BRANCH  13  15
ATOM     15  C   UNL     1      -8.585  -2.735   8.376  1.00  0.00     0.083 C 
BRANCH  15  16
ATOM     16  C   UNL     1      -8.245  -1.972   7.329  1.00  0.00     0.027 C 
BRANCH  16  17
ATOM     17  C   UNL     1      -6.975  -1.230   7.308  1.00  0.00    -0.003 A 
ATOM     18  C   UNL     1      -6.005  -1.424   6.308  1.00  0.00    -0.041 A 
ATOM     19  C   UNL     1      -6.660  -0.313   8.322  1.00  0.00     0.119 A 
ATOM     20  C   UNL     1      -4.810  -0.691   6.377  1.00  0.00     0.024 A 
ATOM     21  N   UNL     1      -5.520   0.414   8.394  1.00  0.00    -0.264 NA
ATOM     22  C   UNL     1      -4.622   0.208   7.415  1.00  0.00     0.111 A 
ATOM     23  C   UNL     1      -6.187  -2.414   5.192  1.00  0.00     0.045 C 
ENDBRANCH  16  17
ENDBRANCH  15  16
ENDBRANCH  13  15
ENDBRANCH   4  13
TORSDOF 8
ENDMDL
MODEL 3
REMARK VINA RESULT:    -4.889      1.258      2.090
REMARK INTER + INTRA:          -7.682
REMARK INTER:                  -7.037
REMARK INTRA:                  -0.646
REMARK UNBOUND:                -0.649
REMARK SMILES Cc1ccncc1/C=C/Nc1ccc(CCCN)cc1
REMARK SMILES IDX 14 1 13 2 12 3 11 4 20 5 19 6 15 7 16 8 17 9 18 10 10 13
REMARK SMILES IDX 9 15 8 16 7 17 2 18 6 19 3 20 5 21 4 22 1 23
REMARK H PARENT 18 11 18 12 10 14
ROOT
ATOM      1  C   UNL     1      -8.746  -5.496  12.078  1.00  0.00    -0.048 A 
ATOM      2  C   UNL     1      -9.814  -5.376  11.186  1.00  0.00     0.006 A 
ATOM      3  C   UNL     1      -9.609  -4.909   9.891  1.00  0.00     0.026 A 
ATOM      4  C   UNL     1      -8.353  -4.473   9.460  1.00  0.00     0.038 A 
ATOM      5  C   UNL     1      -7.293  -4.540  10.371  1.00  0.00     0.026 A 
ATOM      6  C   UNL     1      -7.486  -5.045  11.666  1.00  0.00     0.006 A 
ENDROOT
BRANCH   1   7
ATOM      7  C   UNL     1      -8.938  -6.094  13.449  1.00  0.00     0.037 C 
BRANCH   7   8
ATOM      8  C   UNL     1      -8.196  -5.408  14.613  1.00  0.00     0.020 C 
BRANCH   8   9
ATOM      9  C   UNL     1      -9.038  -4.464  15.484  1.00  0.00     0.078 C 
BRANCH   9  10
ATOM     10  N   UNL     1      -9.221  -3.125  14.942  1.00  0.00    -0.330 NA
ATOM     11  H   UNL     1      -9.685  -2.532  15.628  1.00  0.00     0.118 HD
ATOM     12  H   UNL     1      -9.847  -3.154  14.137  1.00  0.00     0.118 HD
ENDBRANCH   9  10
ENDBRANCH   8   9
ENDBRANCH   7   8
ENDBRANCH   1   7
BRANCH   4  13
ATOM     13  N   UNL     1      -8.162  -3.890   8.193  1.00  0.00    -0.362 N 
ATOM     14  H   UNL     1      -7.708  -4.464   7.493  1.00  0.00     0.166 HD
BRANCH  13  15
ATOM     15  C   UNL     1      -8.303  -2.556   7.916  1.00  0.00     0.083 C 
BRANCH  15  16
ATOM     16  C   UNL     1      -7.377  -1.673   7.520  1.00  0.00     0.027 C 
BRANCH  16  17
ATOM     17  C   UNL     1      -6.522  -1.936   6.352  1.00  0.00    -0.003 A 
ATOM     18  C   UNL     1      -5.303  -1.269   6.144  1.00  0.00    -0.041 A 
ATOM     19  C   UNL     1      -6.915  -2.853   5.365  1.00  0.00     0.119 A 
ATOM     20  C   UNL     1      -4.561  -1.564   4.991  1.00  0.00     0.024 A 
ATOM     21  N   UNL     1      -6.204  -3.162   4.256  1.00  0.00    -0.264 NA
ATOM     22  C   UNL     1      -5.039  -2.510   4.098  1.00  0.00     0.111 A 
ATOM     23  C   UNL     1      -4.785  -0.224   7.093  1.00  0.00     0.045 C 
ENDBRANCH  16  17
ENDBRANCH  15  16
ENDBRANCH  13  15
ENDBRANCH   4  13
TORSDOF 8
ENDMDL
MODEL 4
REMARK VINA RESULT:    -4.883      1.936      8.616
REMARK INTER + INTRA:          -7.674
REMARK INTER:                  -7.132
REMARK INTRA:                  -0.541
REMARK UNBOUND:                -0.649
REMARK SMILES Cc1ccncc1/C=C/Nc1ccc(CCCN)cc1
REMARK SMILES IDX 14 1 13 2 12 3 11 4 20 5 19 6 15 7 16 8 17 9 18 10 10 13
REMARK SMILES IDX 9 15 8 16 7 17 2 18 6 19 3 20 5 21 4 22 1 23
REMARK H PARENT 18 11 18 12 10 14
ROOT
ATOM      1  C   UNL     1      -6.192  -1.201   5.819  1.00  0.00    -0.048 A 
ATOM      2  C   UNL     1      -6.828  -2.405   5.509  1.00  0.00     0.006 A 
ATOM      3  C   UNL     1      -7.674  -3.019   6.428  1.00  0.00     0.026 A 
ATOM      4  C   UNL     1      -7.857  -2.502   7.713  1.00  0.00     0.038 A 
ATOM      5  C   UNL     1      -7.175  -1.325   8.045  1.00  0.00     0.026 A 
ATOM      6  C   UNL     1      -6.351  -0.681   7.109  1.00  0.00     0.006 A 
ENDROOT
BRANCH   1   7
ATOM      7  C   UNL     1      -5.354  -0.475   4.796  1.00  0.00     0.037 C 
BRANCH   7   8
ATOM      8  C   UNL     1      -4.073   0.211   5.312  1.00  0.00     0.020 C 
BRANCH   8   9
ATOM      9  C   UNL     1      -3.924   1.701   4.972  1.00  0.00     0.078 C 
BRANCH   9  10
ATOM     10  N   UNL     1      -3.375   1.978   3.652  1.00  0.00    -0.330 NA
ATOM     11  H   UNL     1      -4.127   2.029   2.965  1.00  0.00     0.118 HD
ATOM     12  H   UNL     1      -2.780   1.207   3.349  1.00  0.00     0.118 HD
ENDBRANCH   9  10
ENDBRANCH   8   9
ENDBRANCH   7   8
ENDBRANCH   1   7
BRANCH   4  13
ATOM     13  N   UNL     1      -8.616  -3.180   8.686  1.00  0.00    -0.362 N 
ATOM     14  H   UNL     1      -9.246  -2.617   9.243  1.00  0.00     0.166 HD
BRANCH  13  15
ATOM     15  C   UNL     1      -8.384  -4.463   9.105  1.00  0.00     0.083 C 
BRANCH  15  16
ATOM     16  C   UNL     1      -8.293  -4.942  10.352  1.00  0.00     0.027 C 
BRANCH  16  17
ATOM     17  C   UNL     1      -9.496  -5.240  11.144  1.00  0.00    -0.003 A 
ATOM     18  C   UNL     1      -9.431  -5.732  12.460  1.00  0.00    -0.041 A 
ATOM     19  C   UNL     1     -10.777  -5.077  10.595  1.00  0.00     0.119 A 
ATOM     20  C   UNL     1     -10.629  -6.012  13.135  1.00  0.00     0.024 A 
ATOM     21  N   UNL     1     -11.942  -5.325  11.238  1.00  0.00    -0.264 NA
ATOM     22  C   UNL     1     -11.838  -5.785  12.497  1.00  0.00     0.111 A 
ATOM     23  C   UNL     1      -8.126  -6.005  13.153  1.00  0.00     0.045 C 
ENDBRANCH  16  17
ENDBRANCH  15  16
ENDBRANCH  13  15
ENDBRANCH   4  13
TORSDOF 8
ENDMDL
MODEL 5
REMARK VINA RESULT:    -4.738      1.723      8.559
REMARK INTER + INTRA:          -7.465
REMARK INTER:                  -6.852
REMARK INTRA:                  -0.613
REMARK UNBOUND:                -0.649
REMARK SMILES Cc1ccncc1/C=C/Nc1ccc(CCCN)cc1
REMARK SMILES IDX 14 1 13 2 12 3 11 4 20 5 19 6 15 7 16 8 17 9 18 10 10 13
REMARK SMILES IDX 9 15 8 16 7 17 2 18 6 19 3 20 5 21 4 22 1 23
REMARK H PARENT 18 11 18 12 10 14
ROOT
ATOM      1  C   UNL     1      -6.487  -1.271   6.038  1.00  0.00    -0.048 A 
ATOM      2  C   UNL     1      -7.052  -2.521   5.779  1.00  0.00     0.006 A 
ATOM      3  C   UNL     1      -7.782  -3.188   6.758  1.00  0.00     0.026 A 
ATOM      4  C   UNL     1      -7.911  -2.675   8.051  1.00  0.00     0.038 A 
ATOM      5  C   UNL     1      -7.296  -1.449   8.330  1.00  0.00     0.026 A 
ATOM      6  C   UNL     1      -6.591  -0.754   7.335  1.00  0.00     0.006 A 
ENDROOT
BRANCH   1   7
ATOM      7  C   UNL     1      -5.780  -0.494   4.956  1.00  0.00     0.037 C 
BRANCH   7   8
ATOM      8  C   UNL     1      -4.333  -0.054   5.252  1.00  0.00     0.020 C 
BRANCH   8   9
ATOM      9  C   UNL     1      -4.045   1.448   5.116  1.00  0.00     0.078 C 
BRANCH   9  10
ATOM     10  N   UNL     1      -3.390   1.839   3.875  1.00  0.00    -0.330 NA
ATOM     11  H   UNL     1      -3.418   2.852   3.771  1.00  0.00     0.118 HD
ATOM     12  H   UNL     1      -3.902   1.467   3.075  1.00  0.00     0.118 HD
ENDBRANCH   9  10
ENDBRANCH   8   9
ENDBRANCH   7   8
ENDBRANCH   1   7
BRANCH   4  13
ATOM     13  N   UNL     1      -8.546  -3.399   9.079  1.00  0.00    -0.362 N 
ATOM     14  H   UNL     1      -9.310  -2.936   9.555  1.00  0.00     0.166 HD
BRANCH  13  15
ATOM     15  C   UNL     1      -8.056  -4.545   9.646  1.00  0.00     0.083 C 
BRANCH  15  16
ATOM     16  C   UNL     1      -7.625  -4.752  10.898  1.00  0.00     0.027 C 
BRANCH  16  17
ATOM     17  C   UNL     1      -8.544  -5.199  11.956  1.00  0.00    -0.003 A 
ATOM     18  C   UNL     1      -8.285  -4.980  13.321  1.00  0.00    -0.041 A 
ATOM     19  C   UNL     1      -9.715  -5.905  11.642  1.00  0.00     0.119 A 
ATOM     20  C   UNL     1      -9.204  -5.461  14.266  1.00  0.00     0.024 A 
ATOM     21  N   UNL     1     -10.620  -6.359  12.539  1.00  0.00    -0.264 NA
ATOM     22  C   UNL     1     -10.343  -6.122  13.834  1.00  0.00     0.111 A 
ATOM     23  C   UNL     1      -7.043  -4.285  13.803  1.00  0.00     0.045 C 
ENDBRANCH  16  17
ENDBRANCH  15  16
ENDBRANCH  13  15
ENDBRANCH   4  13
TORSDOF 8
ENDMDL
MODEL 6
REMARK VINA RESULT:    -4.710      2.067      8.538
REMARK INTER + INTRA:          -7.424
REMARK INTER:                  -6.804
REMARK INTRA:                  -0.620
REMARK UNBOUND:                -0.649
REMARK SMILES Cc1ccncc1/C=C/Nc1ccc(CCCN)cc1
REMARK SMILES IDX 14 1 13 2 12 3 11 4 20 5 19 6 15 7 16 8 17 9 18 10 10 13
REMARK SMILES IDX 9 15 8 16 7 17 2 18 6 19 3 20 5 21 4 22 1 23
REMARK H PARENT 18 11 18 12 10 14
ROOT
ATOM      1  C   UNL     1      -6.072  -1.889   5.173  1.00  0.00    -0.048 A 
ATOM      2  C   UNL     1      -6.986  -2.944   5.115  1.00  0.00     0.006 A 
ATOM      3  C   UNL     1      -7.836  -3.206   6.186  1.00  0.00     0.026 A 
ATOM      4  C   UNL     1      -7.756  -2.483   7.378  1.00  0.00     0.038 A 
ATOM      5  C   UNL     1      -6.802  -1.462   7.459  1.00  0.00     0.026 A 
ATOM      6  C   UNL     1      -5.968  -1.168   6.369  1.00  0.00     0.006 A 
ENDROOT
BRANCH   1   7
ATOM      7  C   UNL     1      -5.217  -1.531   3.983  1.00  0.00     0.037 C 
BRANCH   7   8
ATOM      8  C   UNL     1      -3.712  -1.838   4.096  1.00  0.00     0.020 C 
BRANCH   8   9
ATOM      9  C   UNL     1      -3.333  -3.323   4.200  1.00  0.00     0.078 C 
BRANCH   9  10
ATOM     10  N   UNL     1      -3.129  -3.997   2.926  1.00  0.00    -0.330 NA
ATOM     11  H   UNL     1      -3.983  -3.958   2.370  1.00  0.00     0.118 HD
ATOM     12  H   UNL     1      -2.948  -4.990   3.078  1.00  0.00     0.118 HD
ENDBRANCH   9  10
ENDBRANCH   8   9
ENDBRANCH   7   8
ENDBRANCH   1   7
BRANCH   4  13
ATOM     13  N   UNL     1      -8.529  -2.820   8.506  1.00  0.00    -0.362 N 
ATOM     14  H   UNL     1      -9.265  -2.174   8.762  1.00  0.00     0.166 HD
BRANCH  13  15
ATOM     15  C   UNL     1      -8.206  -3.794   9.414  1.00  0.00     0.083 C 
BRANCH  15  16
ATOM     16  C   UNL     1      -8.871  -4.914   9.726  1.00  0.00     0.027 C 
BRANCH  16  17
ATOM     17  C   UNL     1      -9.114  -5.291  11.126  1.00  0.00    -0.003 A 
ATOM     18  C   UNL     1     -10.409  -5.440  11.654  1.00  0.00    -0.041 A 
ATOM     19  C   UNL     1      -8.046  -5.484  12.015  1.00  0.00     0.119 A 
ATOM     20  C   UNL     1     -10.550  -5.779  13.008  1.00  0.00     0.024 A 
ATOM     21  N   UNL     1      -8.164  -5.828  13.319  1.00  0.00    -0.264 NA
ATOM     22  C   UNL     1      -9.418  -5.970  13.783  1.00  0.00     0.111 A 
ATOM     23  C   UNL     1     -11.645  -5.211  10.829  1.00  0.00     0.045 C 
ENDBRANCH  16  17
ENDBRANCH  15  16
ENDBRANCH  13  15
ENDBRANCH   4  13
TORSDOF 8
ENDMDL
MODEL 7
REMARK VINA RESULT:    -4.661      2.109      2.602
REMARK INTER + INTRA:          -7.354
REMARK INTER:                  -6.739
REMARK INTRA:                  -0.615
REMARK UNBOUND:                -0.649
REMARK SMILES Cc1ccncc1/C=C/Nc1ccc(CCCN)cc1
REMARK SMILES IDX 14 1 13 2 12 3 11 4 20 5 19 6 15 7 16 8 17 9 18 10 10 13
REMARK SMILES IDX 9 15 8 16 7 17 2 18 6 19 3 20 5 21 4 22 1 23
REMARK H PARENT 18 11 18 12 10 14
ROOT
ATOM      1  C   UNL     1      -9.107  -5.796  12.420  1.00  0.00    -0.048 A 
ATOM      2  C   UNL     1      -7.788  -5.420  12.157  1.00  0.00     0.006 A 
ATOM      3  C   UNL     1      -7.451  -4.810  10.953  1.00  0.00     0.026 A 
ATOM      4  C   UNL     1      -8.392  -4.623   9.937  1.00  0.00     0.038 A 
ATOM      5  C   UNL     1      -9.703  -5.051  10.178  1.00  0.00     0.026 A 
ATOM      6  C   UNL     1     -10.057  -5.632  11.405  1.00  0.00     0.006 A 
ENDROOT
BRANCH   1   7
ATOM      7  C   UNL     1      -9.504  -6.365  13.760  1.00  0.00     0.037 C 
BRANCH   7   8
ATOM      8  C   UNL     1      -8.392  -6.476  14.821  1.00  0.00     0.020 C 
BRANCH   8   9
ATOM      9  C   UNL     1      -8.107  -7.888  15.353  1.00  0.00     0.078 C 
BRANCH   9  10
ATOM     10  N   UNL     1      -7.390  -8.759  14.433  1.00  0.00    -0.330 NA
ATOM     11  H   UNL     1      -6.591  -9.181  14.904  1.00  0.00     0.118 HD
ATOM     12  H   UNL     1      -6.998  -8.213  13.665  1.00  0.00     0.118 HD
ENDBRANCH   9  10
ENDBRANCH   8   9
ENDBRANCH   7   8
ENDBRANCH   1   7
BRANCH   4  13
ATOM     13  N   UNL     1      -8.033  -4.116   8.674  1.00  0.00    -0.362 N 
ATOM     14  H   UNL     1      -7.345  -4.644   8.152  1.00  0.00     0.166 HD
BRANCH  13  15
ATOM     15  C   UNL     1      -8.340  -2.861   8.218  1.00  0.00     0.083 C 
BRANCH  15  16
ATOM     16  C   UNL     1      -7.549  -1.965   7.612  1.00  0.00     0.027 C 
BRANCH  16  17
ATOM     17  C   UNL     1      -6.897  -2.268   6.330  1.00  0.00    -0.003 A 
ATOM     18  C   UNL     1      -5.718  -1.625   5.913  1.00  0.00    -0.041 A 
ATOM     19  C   UNL     1      -7.455  -3.199   5.441  1.00  0.00     0.119 A 
ATOM     20  C   UNL     1      -5.174  -1.958   4.663  1.00  0.00     0.024 A 
ATOM     21  N   UNL     1      -6.934  -3.545   4.240  1.00  0.00    -0.264 NA
ATOM     22  C   UNL     1      -5.801  -2.915   3.881  1.00  0.00     0.111 A 
ATOM     23  C   UNL     1      -5.042  -0.569   6.741  1.00  0.00     0.045 C 
ENDBRANCH  16  17
ENDBRANCH  15  16
ENDBRANCH  13  15
ENDBRANCH   4  13
TORSDOF 8
ENDMDL
MODEL 8
REMARK VINA RESULT:    -4.550      1.733      8.528
REMARK INTER + INTRA:          -7.194
REMARK INTER:                  -6.694
REMARK INTRA:                  -0.500
REMARK UNBOUND:                -0.649
REMARK SMILES Cc1ccncc1/C=C/Nc1ccc(CCCN)cc1
REMARK SMILES IDX 14 1 13 2 12 3 11 4 20 5 19 6 15 7 16 8 17 9 18 10 10 13
REMARK SMILES IDX 9 15 8 16 7 17 2 18 6 19 3 20 5 21 4 22 1 23
REMARK H PARENT 18 11 18 12 10 14
ROOT
ATOM      1  C   UNL     1      -6.015  -1.289   5.574  1.00  0.00    -0.048 A 
ATOM      2  C   UNL     1      -6.214  -0.697   6.823  1.00  0.00     0.006 A 
ATOM      3  C   UNL     1      -7.027  -1.304   7.775  1.00  0.00     0.026 A 
ATOM      4  C   UNL     1      -7.732  -2.477   7.496  1.00  0.00     0.038 A 
ATOM      5  C   UNL     1      -7.578  -3.042   6.224  1.00  0.00     0.026 A 
ATOM      6  C   UNL     1      -6.730  -2.455   5.273  1.00  0.00     0.006 A 
ENDROOT
BRANCH   1   7
ATOM      7  C   UNL     1      -5.058  -0.695   4.572  1.00  0.00     0.037 C 
BRANCH   7   8
ATOM      8  C   UNL     1      -3.877   0.116   5.140  1.00  0.00     0.020 C 
BRANCH   8   9
ATOM      9  C   UNL     1      -3.932   1.634   4.916  1.00  0.00     0.078 C 
BRANCH   9  10
ATOM     10  N   UNL     1      -3.312   2.097   3.683  1.00  0.00    -0.330 NA
ATOM     11  H   UNL     1      -3.568   1.482   2.911  1.00  0.00     0.118 HD
ATOM     12  H   UNL     1      -2.296   2.036   3.755  1.00  0.00     0.118 HD
ENDBRANCH   9  10
ENDBRANCH   8   9
ENDBRANCH   7   8
ENDBRANCH   1   7
BRANCH   4  13
ATOM     13  N   UNL     1      -8.648  -3.032   8.411  1.00  0.00    -0.362 N 
ATOM     14  H   UNL     1      -9.582  -2.641   8.412  1.00  0.00     0.166 HD
BRANCH  13  15
ATOM     15  C   UNL     1      -8.312  -3.857   9.451  1.00  0.00     0.083 C 
BRANCH  15  16
ATOM     16  C   UNL     1      -8.872  -5.015   9.827  1.00  0.00     0.027 C 
BRANCH  16  17
ATOM     17  C   UNL     1      -9.051  -5.348  11.248  1.00  0.00    -0.003 A 
ATOM     18  C   UNL     1     -10.320  -5.492  11.835  1.00  0.00    -0.041 A 
ATOM     19  C   UNL     1      -7.943  -5.501  12.097  1.00  0.00     0.119 A 
ATOM     20  C   UNL     1     -10.400  -5.788  13.204  1.00  0.00     0.024 A 
ATOM     21  N   UNL     1      -8.002  -5.803  13.415  1.00  0.00    -0.264 NA
ATOM     22  C   UNL     1      -9.234  -5.943  13.937  1.00  0.00     0.111 A 
ATOM     23  C   UNL     1     -11.592  -5.303  11.057  1.00  0.00     0.045 C 
ENDBRANCH  16  17
ENDBRANCH  15  16
ENDBRANCH  13  15
ENDBRANCH   4  13
TORSDOF 8
ENDMDL
MODEL 9
REMARK VINA RESULT:    -4.517      2.028      3.792
REMARK INTER + INTRA:          -7.147
REMARK INTER:                  -6.374
REMARK INTRA:                  -0.773
REMARK UNBOUND:                -0.649
REMARK SMILES Cc1ccncc1/C=C/Nc1ccc(CCCN)cc1
REMARK SMILES IDX 14 1 13 2 12 3 11 4 20 5 19 6 15 7 16 8 17 9 18 10 10 13
REMARK SMILES IDX 9 15 8 16 7 17 2 18 6 19 3 20 5 21 4 22 1 23
REMARK H PARENT 18 11 18 12 10 14
ROOT
ATOM      1  C   UNL     1      -8.384  -3.635   8.915  1.00  0.00    -0.048 A 
ATOM      2  C   UNL     1      -7.162  -3.638   8.240  1.00  0.00     0.006 A 
ATOM      3  C   UNL     1      -6.827  -2.602   7.373  1.00  0.00     0.026 A 
ATOM      4  C   UNL     1      -7.721  -1.568   7.087  1.00  0.00     0.038 A 
ATOM      5  C   UNL     1      -8.970  -1.593   7.720  1.00  0.00     0.026 A 
ATOM      6  C   UNL     1      -9.299  -2.615   8.624  1.00  0.00     0.006 A 
ENDROOT
BRANCH   1   7
ATOM      7  C   UNL     1      -8.717  -4.698   9.932  1.00  0.00     0.037 C 
BRANCH   7   8
ATOM      8  C   UNL     1      -7.729  -4.869  11.102  1.00  0.00     0.020 C 
BRANCH   8   9
ATOM      9  C   UNL     1      -8.313  -5.455  12.396  1.00  0.00     0.078 C 
BRANCH   9  10
ATOM     10  N   UNL     1      -9.710  -5.129  12.644  1.00  0.00    -0.330 NA
ATOM     11  H   UNL     1     -10.044  -4.469  11.942  1.00  0.00     0.118 HD
ATOM     12  H   UNL     1      -9.806  -4.648  13.538  1.00  0.00     0.118 HD
ENDBRANCH   9  10
ENDBRANCH   8   9
ENDBRANCH   7   8
ENDBRANCH   1   7
BRANCH   4  13
ATOM     13  N   UNL     1      -7.436  -0.583   6.123  1.00  0.00    -0.362 N 
ATOM     14  H   UNL     1      -8.229  -0.172   5.645  1.00  0.00     0.166 HD
BRANCH  13  15
ATOM     15  C   UNL     1      -6.193  -0.329   5.607  1.00  0.00     0.083 C 
BRANCH  15  16
ATOM     16  C   UNL     1      -5.713  -0.595   4.385  1.00  0.00     0.027 C 
BRANCH  16  17
ATOM     17  C   UNL     1      -4.685  -1.626   4.178  1.00  0.00    -0.003 A 
ATOM     18  C   UNL     1      -5.004  -2.984   4.004  1.00  0.00    -0.041 A 
ATOM     19  C   UNL     1      -3.322  -1.294   4.183  1.00  0.00     0.119 A 
ATOM     20  C   UNL     1      -3.959  -3.906   3.836  1.00  0.00     0.024 A 
ATOM     21  N   UNL     1      -2.303  -2.166   4.004  1.00  0.00    -0.264 NA
ATOM     22  C   UNL     1      -2.648  -3.455   3.832  1.00  0.00     0.111 A 
ATOM     23  C   UNL     1      -6.419  -3.489   4.031  1.00  0.00     0.045 C 
ENDBRANCH  16  17
ENDBRANCH  15  16
ENDBRANCH  13  15
ENDBRANCH   4  13
TORSDOF 8
ENDMDL
