MODEL 1
REMARK VINA RESULT:    -5.073      0.000      0.000
REMARK INTER + INTRA:          -7.919
REMARK INTER:                  -7.298
REMARK INTRA:                  -0.622
REMARK UNBOUND:                -0.622
REMARK SMILES Cc1ccncc1/C=C/Nc1ccc(CCCN)cc1
REMARK SMILES IDX 14 1 13 2 12 3 11 4 20 5 19 6 15 7 16 8 17 9 18 10 10 13
REMARK SMILES IDX 9 15 8 16 7 17 2 18 6 19 3 20 5 21 4 22 1 23
REMARK H PARENT 18 11 18 12 10 14
ROOT
ATOM      1  C   UNL     1     -13.077   8.105  -7.731  1.00  0.00    -0.048 A 
ATOM      2  C   UNL     1     -11.717   7.816  -7.606  1.00  0.00     0.006 A 
ATOM      3  C   UNL     1     -11.279   6.827  -6.730  1.00  0.00     0.026 A 
ATOM      4  C   UNL     1     -12.165   6.146  -5.892  1.00  0.00     0.038 A 
ATOM      5  C   UNL     1     -13.523   6.475  -5.976  1.00  0.00     0.026 A 
ATOM      6  C   UNL     1     -13.975   7.444  -6.885  1.00  0.00     0.006 A 
ENDROOT
BRANCH   1   7
ATOM      7  C   UNL     1     -13.572   9.102  -8.749  1.00  0.00     0.037 C 
BRANCH   7   8
ATOM      8  C   UNL     1     -13.038   8.948 -10.186  1.00  0.00     0.020 C 
BRANCH   8   9
ATOM      9  C   UNL     1     -14.043   8.432 -11.227  1.00  0.00     0.078 C 
BRANCH   9  10
ATOM     10  N   UNL     1     -14.111   6.983 -11.351  1.00  0.00    -0.330 NA
ATOM     11  H   UNL     1     -14.610   6.730 -12.203  1.00  0.00     0.118 HD
ATOM     12  H   UNL     1     -14.661   6.591 -10.586  1.00  0.00     0.118 HD
ENDBRANCH   9  10
ENDBRANCH   8   9
ENDBRANCH   7   8
ENDBRANCH   1   7
BRANCH   4  13
ATOM     13  N   UNL     1     -11.717   5.231  -4.920  1.00  0.00    -0.362 N 
ATOM     14  H   UNL     1     -11.806   5.516  -3.953  1.00  0.00     0.166 HD
BRANCH  13  15
ATOM     15  C   UNL     1     -10.951   4.126  -5.181  1.00  0.00     0.083 C 
BRANCH  15  16
ATOM     16  C   UNL     1     -10.366   3.281  -4.321  1.00  0.00     0.027 C 
BRANCH  16  17
ATOM     17  C   UNL     1      -9.016   2.753  -4.572  1.00  0.00    -0.003 A 
ATOM     18  C   UNL     1      -8.121   2.446  -3.531  1.00  0.00    -0.041 A 
ATOM     19  C   UNL     1      -8.547   2.569  -5.881  1.00  0.00     0.119 A 
ATOM     20  C   UNL     1      -6.843   1.970  -3.860  1.00  0.00     0.024 A 
ATOM     21  N   UNL     1      -7.324   2.094  -6.216  1.00  0.00    -0.264 NA
ATOM     22  C   UNL     1      -6.501   1.802  -5.193  1.00  0.00     0.111 A 
ATOM     23  C   UNL     1      -8.472   2.646  -2.084  1.00  0.00     0.045 C 
ENDBRANCH  16  17
ENDBRANCH  15  16
ENDBRANCH  13  15
ENDBRANCH   4  13
TORSDOF 8
ENDMDL
MODEL 2
REMARK VINA RESULT:    -5.030      1.624      8.605
REMARK INTER + INTRA:          -7.857
REMARK INTER:                  -7.251
REMARK INTRA:                  -0.605
REMARK UNBOUND:                -0.622
REMARK SMILES Cc1ccncc1/C=C/Nc1ccc(CCCN)cc1
REMARK SMILES IDX 14 1 13 2 12 3 11 4 20 5 19 6 15 7 16 8 17 9 18 10 10 13
REMARK SMILES IDX 9 15 8 16 7 17 2 18 6 19 3 20 5 21 4 22 1 23
REMARK H PARENT 18 11 18 12 10 14
ROOT
ATOM      1  C   UNL     1      -8.920   2.295  -4.763  1.00  0.00    -0.048 A 
ATOM      2  C   UNL     1      -9.685   2.993  -3.826  1.00  0.00     0.006 A 
ATOM      3  C   UNL     1     -10.760   3.778  -4.230  1.00  0.00     0.026 A 
ATOM      4  C   UNL     1     -11.066   3.962  -5.581  1.00  0.00     0.038 A 
ATOM      5  C   UNL     1     -10.265   3.309  -6.525  1.00  0.00     0.026 A 
ATOM      6  C   UNL     1      -9.203   2.485  -6.122  1.00  0.00     0.006 A 
ENDROOT
BRANCH   1   7
ATOM      7  C   UNL     1      -7.817   1.362  -4.332  1.00  0.00     0.037 C 
BRANCH   7   8
ATOM      8  C   UNL     1      -6.560   1.317  -5.223  1.00  0.00     0.020 C 
BRANCH   8   9
ATOM      9  C   UNL     1      -5.478   0.309  -4.810  1.00  0.00     0.078 C 
BRANCH   9  10
ATOM     10  N   UNL     1      -4.629  -0.162  -5.895  1.00  0.00    -0.330 NA
ATOM     11  H   UNL     1      -4.604  -1.181  -5.901  1.00  0.00     0.118 HD
ATOM     12  H   UNL     1      -3.665   0.134  -5.742  1.00  0.00     0.118 HD
ENDBRANCH   9  10
ENDBRANCH   8   9
ENDBRANCH   7   8
ENDBRANCH   1   7
BRANCH   4  13
ATOM     13  N   UNL     1     -12.076   4.849  -6.001  1.00  0.00    -0.362 N 
ATOM     14  H   UNL     1     -12.823   4.455  -6.559  1.00  0.00     0.166 HD
BRANCH  13  15
ATOM     15  C   UNL     1     -11.995   6.215  -5.937  1.00  0.00     0.083 C 
BRANCH  15  16
ATOM     16  C   UNL     1     -11.775   7.096  -6.921  1.00  0.00     0.027 C 
BRANCH  16  17
ATOM     17  C   UNL     1     -12.888   7.804  -7.573  1.00  0.00    -0.003 A 
ATOM     18  C   UNL     1     -12.777   8.362  -8.858  1.00  0.00    -0.041 A 
ATOM     19  C   UNL     1     -14.112   7.985  -6.910  1.00  0.00     0.119 A 
ATOM     20  C   UNL     1     -13.881   9.042  -9.395  1.00  0.00     0.024 A 
ATOM     21  N   UNL     1     -15.192   8.622  -7.420  1.00  0.00    -0.264 NA
ATOM     22  C   UNL     1     -15.050   9.133  -8.656  1.00  0.00     0.111 A 
ATOM     23  C   UNL     1     -11.508   8.290  -9.660  1.00  0.00     0.045 C 
ENDBRANCH  16  17
ENDBRANCH  15  16
ENDBRANCH  13  15
ENDBRANCH   4  13
TORSDOF 8
ENDMDL
MODEL 3
REMARK VINA RESULT:    -4.910      2.031      8.551
REMARK INTER + INTRA:          -7.685
REMARK INTER:                  -7.121
REMARK INTRA:                  -0.564
REMARK UNBOUND:                -0.622
REMARK SMILES Cc1ccncc1/C=C/Nc1ccc(CCCN)cc1
REMARK SMILES IDX 14 1 13 2 12 3 11 4 20 5 19 6 15 7 16 8 17 9 18 10 10 13
REMARK SMILES IDX 9 15 8 16 7 17 2 18 6 19 3 20 5 21 4 22 1 23
REMARK H PARENT 18 11 18 12 10 14
ROOT
ATOM      1  C   UNL     1      -8.293   2.391  -3.576  1.00  0.00    -0.048 A 
ATOM      2  C   UNL     1      -9.390   2.901  -2.879  1.00  0.00     0.006 A 
ATOM      3  C   UNL     1     -10.536   3.308  -3.556  1.00  0.00     0.026 A 
ATOM      4  C   UNL     1     -10.604   3.298  -4.951  1.00  0.00     0.038 A 
ATOM      5  C   UNL     1      -9.483   2.840  -5.655  1.00  0.00     0.026 A 
ATOM      6  C   UNL     1      -8.340   2.392  -4.976  1.00  0.00     0.006 A 
ENDROOT
BRANCH   1   7
ATOM      7  C   UNL     1      -7.087   1.853  -2.848  1.00  0.00     0.037 C 
BRANCH   7   8
ATOM      8  C   UNL     1      -5.855   2.776  -2.774  1.00  0.00     0.020 C 
BRANCH   8   9
ATOM      9  C   UNL     1      -6.025   4.061  -1.951  1.00  0.00     0.078 C 
BRANCH   9  10
ATOM     10  N   UNL     1      -5.769   3.917  -0.525  1.00  0.00    -0.330 NA
ATOM     11  H   UNL     1      -5.947   2.957  -0.234  1.00  0.00     0.118 HD
ATOM     12  H   UNL     1      -6.422   4.491   0.009  1.00  0.00     0.118 HD
ENDBRANCH   9  10
ENDBRANCH   8   9
ENDBRANCH   7   8
ENDBRANCH   1   7
BRANCH   4  13
ATOM     13  N   UNL     1     -11.712   3.819  -5.646  1.00  0.00    -0.362 N 
ATOM     14  H   UNL     1     -12.413   3.154  -5.948  1.00  0.00     0.166 HD
BRANCH  13  15
ATOM     15  C   UNL     1     -11.787   5.086  -6.161  1.00  0.00     0.083 C 
BRANCH  15  16
ATOM     16  C   UNL     1     -12.511   6.130  -5.735  1.00  0.00     0.027 C 
BRANCH  16  17
ATOM     17  C   UNL     1     -13.007   7.147  -6.674  1.00  0.00    -0.003 A 
ATOM     18  C   UNL     1     -14.370   7.275  -6.996  1.00  0.00    -0.041 A 
ATOM     19  C   UNL     1     -12.121   8.019  -7.325  1.00  0.00     0.119 A 
ATOM     20  C   UNL     1     -14.755   8.258  -7.921  1.00  0.00     0.024 A 
ATOM     21  N   UNL     1     -12.477   8.983  -8.206  1.00  0.00    -0.264 NA
ATOM     22  C   UNL     1     -13.790   9.081  -8.480  1.00  0.00     0.111 A 
ATOM     23  C   UNL     1     -15.422   6.374  -6.414  1.00  0.00     0.045 C 
ENDBRANCH  16  17
ENDBRANCH  15  16
ENDBRANCH  13  15
ENDBRANCH   4  13
TORSDOF 8
ENDMDL
MODEL 4
REMARK VINA RESULT:    -4.901      1.300      1.892
REMARK INTER + INTRA:          -7.671
REMARK INTER:                  -7.005
REMARK INTRA:                  -0.666
REMARK UNBOUND:                -0.622
REMARK SMILES Cc1ccncc1/C=C/Nc1ccc(CCCN)cc1
REMARK SMILES IDX 14 1 13 2 12 3 11 4 20 5 19 6 15 7 16 8 17 9 18 10 10 13
REMARK SMILES IDX 9 15 8 16 7 17 2 18 6 19 3 20 5 21 4 22 1 23
REMARK H PARENT 18 11 18 12 10 14
ROOT
ATOM      1  C   UNL     1     -13.471   8.344  -7.680  1.00  0.00    -0.048 A 
ATOM      2  C   UNL     1     -12.083   8.190  -7.678  1.00  0.00     0.006 A 
ATOM      3  C   UNL     1     -11.483   7.155  -6.967  1.00  0.00     0.026 A 
ATOM      4  C   UNL     1     -12.232   6.284  -6.171  1.00  0.00     0.038 A 
ATOM      5  C   UNL     1     -13.618   6.472  -6.126  1.00  0.00     0.026 A 
ATOM      6  C   UNL     1     -14.232   7.490  -6.872  1.00  0.00     0.006 A 
ENDROOT
BRANCH   1   7
ATOM      7  C   UNL     1     -14.139   9.398  -8.527  1.00  0.00     0.037 C 
BRANCH   7   8
ATOM      8  C   UNL     1     -13.810   9.387 -10.032  1.00  0.00     0.020 C 
BRANCH   8   9
ATOM      9  C   UNL     1     -14.539   8.329 -10.873  1.00  0.00     0.078 C 
BRANCH   9  10
ATOM     10  N   UNL     1     -13.726   7.186 -11.263  1.00  0.00    -0.330 NA
ATOM     11  H   UNL     1     -14.305   6.489 -11.729  1.00  0.00     0.118 HD
ATOM     12  H   UNL     1     -13.352   6.721 -10.435  1.00  0.00     0.118 HD
ENDBRANCH   9  10
ENDBRANCH   8   9
ENDBRANCH   7   8
ENDBRANCH   1   7
BRANCH   4  13
ATOM     13  N   UNL     1     -11.622   5.311  -5.356  1.00  0.00    -0.362 N 
ATOM     14  H   UNL     1     -11.089   5.650  -4.565  1.00  0.00     0.166 HD
BRANCH  13  15
ATOM     15  C   UNL     1     -11.480   3.990  -5.688  1.00  0.00     0.083 C 
BRANCH  15  16
ATOM     16  C   UNL     1     -10.385   3.220  -5.642  1.00  0.00     0.027 C 
BRANCH  16  17
ATOM     17  C   UNL     1      -9.631   3.041  -4.392  1.00  0.00    -0.003 A 
ATOM     18  C   UNL     1      -8.276   2.664  -4.376  1.00  0.00    -0.041 A 
ATOM     19  C   UNL     1     -10.254   3.205  -3.146  1.00  0.00     0.119 A 
ATOM     20  C   UNL     1      -7.639   2.493  -3.138  1.00  0.00     0.024 A 
ATOM     21  N   UNL     1      -9.650   3.061  -1.943  1.00  0.00    -0.264 NA
ATOM     22  C   UNL     1      -8.352   2.710  -1.970  1.00  0.00     0.111 A 
ATOM     23  C   UNL     1      -7.499   2.403  -5.635  1.00  0.00     0.045 C 
ENDBRANCH  16  17
ENDBRANCH  15  16
ENDBRANCH  13  15
ENDBRANCH   4  13
TORSDOF 8
ENDMDL
MODEL 5
REMARK VINA RESULT:    -4.884      1.712      8.616
REMARK INTER + INTRA:          -7.647
REMARK INTER:                  -7.119
REMARK INTRA:                  -0.528
REMARK UNBOUND:                -0.622
REMARK SMILES Cc1ccncc1/C=C/Nc1ccc(CCCN)cc1
REMARK SMILES IDX 14 1 13 2 12 3 11 4 20 5 19 6 15 7 16 8 17 9 18 10 10 13
REMARK SMILES IDX 9 15 8 16 7 17 2 18 6 19 3 20 5 21 4 22 1 23
REMARK H PARENT 18 11 18 12 10 14
ROOT
ATOM      1  C   UNL     1      -8.201   2.105  -4.269  1.00  0.00    -0.048 A 
ATOM      2  C   UNL     1      -9.066   2.749  -3.383  1.00  0.00     0.006 A 
ATOM      3  C   UNL     1     -10.245   3.332  -3.838  1.00  0.00     0.026 A 
ATOM      4  C   UNL     1     -10.568   3.364  -5.197  1.00  0.00     0.038 A 
ATOM      5  C   UNL     1      -9.674   2.768  -6.094  1.00  0.00     0.026 A 
ATOM      6  C   UNL     1      -8.502   2.145  -5.636  1.00  0.00     0.006 A 
ENDROOT
BRANCH   1   7
ATOM      7  C   UNL     1      -6.972   1.383  -3.775  1.00  0.00     0.037 C 
BRANCH   7   8
ATOM      8  C   UNL     1      -5.767   1.332  -4.734  1.00  0.00     0.020 C 
BRANCH   8   9
ATOM      9  C   UNL     1      -5.410  -0.053  -5.294  1.00  0.00     0.078 C 
BRANCH   9  10
ATOM     10  N   UNL     1      -4.534  -0.851  -4.448  1.00  0.00    -0.330 NA
ATOM     11  H   UNL     1      -3.743  -1.195  -4.991  1.00  0.00     0.118 HD
ATOM     12  H   UNL     1      -5.024  -1.685  -4.123  1.00  0.00     0.118 HD
ENDBRANCH   9  10
ENDBRANCH   8   9
ENDBRANCH   7   8
ENDBRANCH   1   7
BRANCH   4  13
ATOM     13  N   UNL     1     -11.698   4.054  -5.677  1.00  0.00    -0.362 N 
ATOM     14  H   UNL     1     -12.480   3.489  -5.983  1.00  0.00     0.166 HD
BRANCH  13  15
ATOM     15  C   UNL     1     -11.723   5.386  -5.998  1.00  0.00     0.083 C 
BRANCH  15  16
ATOM     16  C   UNL     1     -12.654   6.306  -5.714  1.00  0.00     0.027 C 
BRANCH  16  17
ATOM     17  C   UNL     1     -13.130   7.250  -6.738  1.00  0.00    -0.003 A 
ATOM     18  C   UNL     1     -14.479   7.326  -7.124  1.00  0.00    -0.041 A 
ATOM     19  C   UNL     1     -12.234   8.097  -7.407  1.00  0.00     0.119 A 
ATOM     20  C   UNL     1     -14.843   8.239  -8.126  1.00  0.00     0.024 A 
ATOM     21  N   UNL     1     -12.570   8.995  -8.363  1.00  0.00    -0.264 NA
ATOM     22  C   UNL     1     -13.871   9.045  -8.697  1.00  0.00     0.111 A 
ATOM     23  C   UNL     1     -15.538   6.441  -6.529  1.00  0.00     0.045 C 
ENDBRANCH  16  17
ENDBRANCH  15  16
ENDBRANCH  13  15
ENDBRANCH   4  13
TORSDOF 8
ENDMDL
MODEL 6
REMARK VINA RESULT:    -4.749      4.179      5.819
REMARK INTER + INTRA:          -7.452
REMARK INTER:                  -6.725
REMARK INTRA:                  -0.727
REMARK UNBOUND:                -0.622
REMARK SMILES Cc1ccncc1/C=C/Nc1ccc(CCCN)cc1
REMARK SMILES IDX 14 1 13 2 12 3 11 4 20 5 19 6 15 7 16 8 17 9 18 10 10 13
REMARK SMILES IDX 9 15 8 16 7 17 2 18 6 19 3 20 5 21 4 22 1 23
REMARK H PARENT 18 11 18 12 10 14
ROOT
ATOM      1  C   UNL     1     -12.052   2.083  -5.982  1.00  0.00    -0.048 A 
ATOM      2  C   UNL     1     -10.882   1.451  -5.556  1.00  0.00     0.006 A 
ATOM      3  C   UNL     1      -9.831   2.188  -5.019  1.00  0.00     0.026 A 
ATOM      4  C   UNL     1      -9.872   3.583  -4.957  1.00  0.00     0.038 A 
ATOM      5  C   UNL     1     -11.021   4.223  -5.435  1.00  0.00     0.026 A 
ATOM      6  C   UNL     1     -12.100   3.482  -5.943  1.00  0.00     0.006 A 
ENDROOT
BRANCH   1   7
ATOM      7  C   UNL     1     -13.235   1.287  -6.471  1.00  0.00     0.037 C 
BRANCH   7   8
ATOM      8  C   UNL     1     -13.494  -0.064  -5.779  1.00  0.00     0.020 C 
BRANCH   8   9
ATOM      9  C   UNL     1     -14.963  -0.506  -5.691  1.00  0.00     0.078 C 
BRANCH   9  10
ATOM     10  N   UNL     1     -15.486  -0.637  -4.338  1.00  0.00    -0.330 NA
ATOM     11  H   UNL     1     -15.756  -1.603  -4.161  1.00  0.00     0.118 HD
ATOM     12  H   UNL     1     -16.342  -0.091  -4.238  1.00  0.00     0.118 HD
ENDBRANCH   9  10
ENDBRANCH   8   9
ENDBRANCH   7   8
ENDBRANCH   1   7
BRANCH   4  13
ATOM     13  N   UNL     1      -8.767   4.342  -4.525  1.00  0.00    -0.362 N 
ATOM     14  H   UNL     1      -8.680   5.275  -4.908  1.00  0.00     0.166 HD
BRANCH  13  15
ATOM     15  C   UNL     1      -7.687   3.838  -3.849  1.00  0.00     0.083 C 
BRANCH  15  16
ATOM     16  C   UNL     1      -6.437   3.633  -4.285  1.00  0.00     0.027 C 
BRANCH  16  17
ATOM     17  C   UNL     1      -5.909   2.273  -4.472  1.00  0.00    -0.003 A 
ATOM     18  C   UNL     1      -6.105   1.544  -5.658  1.00  0.00    -0.041 A 
ATOM     19  C   UNL     1      -5.211   1.624  -3.442  1.00  0.00     0.119 A 
ATOM     20  C   UNL     1      -5.587   0.243  -5.744  1.00  0.00     0.024 A 
ATOM     21  N   UNL     1      -4.690   0.377  -3.514  1.00  0.00    -0.264 NA
ATOM     22  C   UNL     1      -4.889  -0.284  -4.668  1.00  0.00     0.111 A 
ATOM     23  C   UNL     1      -6.880   2.095  -6.822  1.00  0.00     0.045 C 
ENDBRANCH  16  17
ENDBRANCH  15  16
ENDBRANCH  13  15
ENDBRANCH   4  13
TORSDOF 8
ENDMDL
MODEL 7
REMARK VINA RESULT:    -4.745      1.822      1.982
REMARK INTER + INTRA:          -7.447
REMARK INTER:                  -6.804
REMARK INTRA:                  -0.643
REMARK UNBOUND:                -0.622
REMARK SMILES Cc1ccncc1/C=C/Nc1ccc(CCCN)cc1
REMARK SMILES IDX 14 1 13 2 12 3 11 4 20 5 19 6 15 7 16 8 17 9 18 10 10 13
REMARK SMILES IDX 9 15 8 16 7 17 2 18 6 19 3 20 5 21 4 22 1 23
REMARK H PARENT 18 11 18 12 10 14
ROOT
ATOM      1  C   UNL     1     -13.511   8.238  -7.620  1.00  0.00    -0.048 A 
ATOM      2  C   UNL     1     -12.117   8.164  -7.645  1.00  0.00     0.006 A 
ATOM      3  C   UNL     1     -11.445   7.172  -6.937  1.00  0.00     0.026 A 
ATOM      4  C   UNL     1     -12.126   6.267  -6.119  1.00  0.00     0.038 A 
ATOM      5  C   UNL     1     -13.520   6.375  -6.049  1.00  0.00     0.026 A 
ATOM      6  C   UNL     1     -14.206   7.349  -6.790  1.00  0.00     0.006 A 
ENDROOT
BRANCH   1   7
ATOM      7  C   UNL     1     -14.254   9.244  -8.462  1.00  0.00     0.037 C 
BRANCH   7   8
ATOM      8  C   UNL     1     -13.442  10.444  -8.984  1.00  0.00     0.020 C 
BRANCH   8   9
ATOM      9  C   UNL     1     -13.889  11.828  -8.489  1.00  0.00     0.078 C 
BRANCH   9  10
ATOM     10  N   UNL     1     -12.942  12.506  -7.617  1.00  0.00    -0.330 NA
ATOM     11  H   UNL     1     -12.483  11.829  -7.007  1.00  0.00     0.118 HD
ATOM     12  H   UNL     1     -13.434  13.146  -6.993  1.00  0.00     0.118 HD
ENDBRANCH   9  10
ENDBRANCH   8   9
ENDBRANCH   7   8
ENDBRANCH   1   7
BRANCH   4  13
ATOM     13  N   UNL     1     -11.446   5.338  -5.308  1.00  0.00    -0.362 N 
ATOM     14  H   UNL     1     -10.801   5.717  -4.627  1.00  0.00     0.166 HD
BRANCH  13  15
ATOM     15  C   UNL     1     -11.395   3.989  -5.539  1.00  0.00     0.083 C 
BRANCH  15  16
ATOM     16  C   UNL     1     -10.671   3.051  -4.914  1.00  0.00     0.027 C 
BRANCH  16  17
ATOM     17  C   UNL     1      -9.306   2.723  -5.354  1.00  0.00    -0.003 A 
ATOM     18  C   UNL     1      -8.237   2.577  -4.452  1.00  0.00    -0.041 A 
ATOM     19  C   UNL     1      -9.005   2.578  -6.716  1.00  0.00     0.119 A 
ATOM     20  C   UNL     1      -6.962   2.287  -4.959  1.00  0.00     0.024 A 
ATOM     21  N   UNL     1      -7.785   2.281  -7.222  1.00  0.00    -0.264 NA
ATOM     22  C   UNL     1      -6.791   2.139  -6.327  1.00  0.00     0.111 A 
ATOM     23  C   UNL     1      -8.405   2.758  -2.969  1.00  0.00     0.045 C 
ENDBRANCH  16  17
ENDBRANCH  15  16
ENDBRANCH  13  15
ENDBRANCH   4  13
TORSDOF 8
ENDMDL
MODEL 8
REMARK VINA RESULT:    -4.619      2.130      2.854
REMARK INTER + INTRA:          -7.266
REMARK INTER:                  -6.587
REMARK INTRA:                  -0.679
REMARK UNBOUND:                -0.622
REMARK SMILES Cc1ccncc1/C=C/Nc1ccc(CCCN)cc1
REMARK SMILES IDX 14 1 13 2 12 3 11 4 20 5 19 6 15 7 16 8 17 9 18 10 10 13
REMARK SMILES IDX 9 15 8 16 7 17 2 18 6 19 3 20 5 21 4 22 1 23
REMARK H PARENT 18 11 18 12 10 14
ROOT
ATOM      1  C   UNL     1     -13.745   8.414  -7.517  1.00  0.00    -0.048 A 
ATOM      2  C   UNL     1     -14.286   7.398  -6.726  1.00  0.00     0.006 A 
ATOM      3  C   UNL     1     -13.459   6.481  -6.084  1.00  0.00     0.026 A 
ATOM      4  C   UNL     1     -12.074   6.491  -6.266  1.00  0.00     0.038 A 
ATOM      5  C   UNL     1     -11.535   7.474  -7.104  1.00  0.00     0.026 A 
ATOM      6  C   UNL     1     -12.360   8.425  -7.723  1.00  0.00     0.006 A 
ENDROOT
BRANCH   1   7
ATOM      7  C   UNL     1     -14.623   9.473  -8.135  1.00  0.00     0.037 C 
BRANCH   7   8
ATOM      8  C   UNL     1     -13.992  10.330  -9.249  1.00  0.00     0.020 C 
BRANCH   8   9
ATOM      9  C   UNL     1     -13.875  11.833  -8.958  1.00  0.00     0.078 C 
BRANCH   9  10
ATOM     10  N   UNL     1     -13.240  12.167  -7.691  1.00  0.00    -0.330 NA
ATOM     11  H   UNL     1     -12.231  12.243  -7.816  1.00  0.00     0.118 HD
ATOM     12  H   UNL     1     -13.376  11.411  -7.019  1.00  0.00     0.118 HD
ENDBRANCH   9  10
ENDBRANCH   8   9
ENDBRANCH   7   8
ENDBRANCH   1   7
BRANCH   4  13
ATOM     13  N   UNL     1     -11.243   5.496  -5.716  1.00  0.00    -0.362 N 
ATOM     14  H   UNL     1     -10.335   5.795  -5.384  1.00  0.00     0.166 HD
BRANCH  13  15
ATOM     15  C   UNL     1     -11.457   4.148  -5.831  1.00  0.00     0.083 C 
BRANCH  15  16
ATOM     16  C   UNL     1     -10.612   3.135  -5.597  1.00  0.00     0.027 C 
BRANCH  16  17
ATOM     17  C   UNL     1      -9.893   3.022  -4.318  1.00  0.00    -0.003 A 
ATOM     18  C   UNL     1      -8.543   2.636  -4.244  1.00  0.00    -0.041 A 
ATOM     19  C   UNL     1     -10.548   3.261  -3.101  1.00  0.00     0.119 A 
ATOM     20  C   UNL     1      -7.941   2.530  -2.981  1.00  0.00     0.024 A 
ATOM     21  N   UNL     1      -9.979   3.181  -1.876  1.00  0.00    -0.264 NA
ATOM     22  C   UNL     1      -8.684   2.819  -1.847  1.00  0.00     0.111 A 
ATOM     23  C   UNL     1      -7.735   2.297  -5.464  1.00  0.00     0.045 C 
ENDBRANCH  16  17
ENDBRANCH  15  16
ENDBRANCH  13  15
ENDBRANCH   4  13
TORSDOF 8
ENDMDL
MODEL 9
REMARK VINA RESULT:    -4.480      2.040      3.667
REMARK INTER + INTRA:          -7.066
REMARK INTER:                  -6.260
REMARK INTRA:                  -0.806
REMARK UNBOUND:                -0.622
REMARK SMILES Cc1ccncc1/C=C/Nc1ccc(CCCN)cc1
REMARK SMILES IDX 14 1 13 2 12 3 11 4 20 5 19 6 15 7 16 8 17 9 18 10 10 13
REMARK SMILES IDX 9 15 8 16 7 17 2 18 6 19 3 20 5 21 4 22 1 23
REMARK H PARENT 18 11 18 12 10 14
ROOT
ATOM      1  C   UNL     1     -12.122   5.339  -5.945  1.00  0.00    -0.048 A 
ATOM      2  C   UNL     1     -12.662   4.094  -6.272  1.00  0.00     0.006 A 
ATOM      3  C   UNL     1     -12.002   2.919  -5.922  1.00  0.00     0.026 A 
ATOM      4  C   UNL     1     -10.749   2.939  -5.305  1.00  0.00     0.038 A 
ATOM      5  C   UNL     1     -10.180   4.188  -5.027  1.00  0.00     0.026 A 
ATOM      6  C   UNL     1     -10.858   5.375  -5.343  1.00  0.00     0.006 A 
ENDROOT
BRANCH   1   7
ATOM      7  C   UNL     1     -12.875   6.615  -6.228  1.00  0.00     0.037 C 
BRANCH   7   8
ATOM      8  C   UNL     1     -12.172   7.647  -7.131  1.00  0.00     0.020 C 
BRANCH   8   9
ATOM      9  C   UNL     1     -13.052   8.324  -8.192  1.00  0.00     0.078 C 
BRANCH   9  10
ATOM     10  N   UNL     1     -14.254   7.587  -8.556  1.00  0.00    -0.330 NA
ATOM     11  H   UNL     1     -14.181   7.255  -9.517  1.00  0.00     0.118 HD
ATOM     12  H   UNL     1     -15.064   8.206  -8.542  1.00  0.00     0.118 HD
ENDBRANCH   9  10
ENDBRANCH   8   9
ENDBRANCH   7   8
ENDBRANCH   1   7
BRANCH   4  13
ATOM     13  N   UNL     1     -10.023   1.759  -5.056  1.00  0.00    -0.362 N 
ATOM     14  H   UNL     1     -10.558   0.948  -4.773  1.00  0.00     0.166 HD
BRANCH  13  15
ATOM     15  C   UNL     1      -8.661   1.692  -4.919  1.00  0.00     0.083 C 
BRANCH  15  16
ATOM     16  C   UNL     1      -7.937   1.286  -3.868  1.00  0.00     0.027 C 
BRANCH  16  17
ATOM     17  C   UNL     1      -7.210   2.248  -3.026  1.00  0.00    -0.003 A 
ATOM     18  C   UNL     1      -5.809   2.365  -3.051  1.00  0.00    -0.041 A 
ATOM     19  C   UNL     1      -7.895   3.074  -2.122  1.00  0.00     0.119 A 
ATOM     20  C   UNL     1      -5.195   3.293  -2.196  1.00  0.00     0.024 A 
ATOM     21  N   UNL     1      -7.320   3.986  -1.304  1.00  0.00    -0.264 NA
ATOM     22  C   UNL     1      -5.980   4.075  -1.364  1.00  0.00     0.111 A 
ATOM     23  C   UNL     1      -4.946   1.506  -3.931  1.00  0.00     0.045 C 
ENDBRANCH  16  17
ENDBRANCH  15  16
ENDBRANCH  13  15
ENDBRANCH   4  13
TORSDOF 8
ENDMDL
