MODEL 1
REMARK VINA RESULT:    -4.953      0.000      0.000
REMARK INTER + INTRA:          -7.787
REMARK INTER:                  -7.125
REMARK INTRA:                  -0.662
REMARK UNBOUND:                -0.662
REMARK SMILES Cc1ccncc1/C=C/Nc1ccc(CCCN)cc1
REMARK SMILES IDX 14 1 13 2 12 3 11 4 20 5 19 6 15 7 16 8 17 9 18 10 10 13
REMARK SMILES IDX 9 15 8 16 7 17 2 18 6 19 3 20 5 21 4 22 1 23
REMARK H PARENT 18 11 18 12 10 14
ROOT
ATOM      1  C   UNL     1      11.427  -2.697 -10.469  1.00  0.00    -0.048 A 
ATOM      2  C   UNL     1      12.170  -3.650  -9.770  1.00  0.00     0.006 A 
ATOM      3  C   UNL     1      11.755  -4.096  -8.518  1.00  0.00     0.026 A 
ATOM      4  C   UNL     1      10.634  -3.556  -7.884  1.00  0.00     0.038 A 
ATOM      5  C   UNL     1       9.920  -2.559  -8.559  1.00  0.00     0.026 A 
ATOM      6  C   UNL     1      10.312  -2.133  -9.838  1.00  0.00     0.006 A 
ENDROOT
BRANCH   1   7
ATOM      7  C   UNL     1      11.811  -2.281 -11.867  1.00  0.00     0.037 C 
BRANCH   7   8
ATOM      8  C   UNL     1      12.132  -0.789 -12.081  1.00  0.00     0.020 C 
BRANCH   8   9
ATOM      9  C   UNL     1      13.622  -0.425 -12.156  1.00  0.00     0.078 C 
BRANCH   9  10
ATOM     10  N   UNL     1      14.219  -0.012 -10.894  1.00  0.00    -0.330 NA
ATOM     11  H   UNL     1      13.934  -0.647 -10.149  1.00  0.00     0.118 HD
ATOM     12  H   UNL     1      13.865   0.905 -10.621  1.00  0.00     0.118 HD
ENDBRANCH   9  10
ENDBRANCH   8   9
ENDBRANCH   7   8
ENDBRANCH   1   7
BRANCH   4  13
ATOM     13  N   UNL     1      10.277  -3.916  -6.570  1.00  0.00    -0.362 N 
ATOM     14  H   UNL     1      10.255  -4.906  -6.360  1.00  0.00     0.166 HD
BRANCH  13  15
ATOM     15  C   UNL     1       9.720  -3.067  -5.650  1.00  0.00     0.083 C 
BRANCH  15  16
ATOM     16  C   UNL     1       8.900  -3.347  -4.629  1.00  0.00     0.027 C 
BRANCH  16  17
ATOM     17  C   UNL     1       8.051  -2.308  -4.026  1.00  0.00    -0.003 A 
ATOM     18  C   UNL     1       6.871  -2.612  -3.324  1.00  0.00    -0.041 A 
ATOM     19  C   UNL     1       8.371  -0.949  -4.163  1.00  0.00     0.119 A 
ATOM     20  C   UNL     1       6.107  -1.557  -2.802  1.00  0.00     0.024 A 
ATOM     21  N   UNL     1       7.656   0.080  -3.650  1.00  0.00    -0.264 NA
ATOM     22  C   UNL     1       6.539  -0.252  -2.977  1.00  0.00     0.111 A 
ATOM     23  C   UNL     1       6.379  -4.021  -3.148  1.00  0.00     0.045 C 
ENDBRANCH  16  17
ENDBRANCH  15  16
ENDBRANCH  13  15
ENDBRANCH   4  13
TORSDOF 8
ENDMDL
MODEL 2
REMARK VINA RESULT:    -4.845      2.032      3.993
REMARK INTER + INTRA:          -7.631
REMARK INTER:                  -6.756
REMARK INTRA:                  -0.875
REMARK UNBOUND:                -0.662
REMARK SMILES Cc1ccncc1/C=C/Nc1ccc(CCCN)cc1
REMARK SMILES IDX 14 1 13 2 12 3 11 4 20 5 19 6 15 7 16 8 17 9 18 10 10 13
REMARK SMILES IDX 9 15 8 16 7 17 2 18 6 19 3 20 5 21 4 22 1 23
REMARK H PARENT 18 11 18 12 10 14
ROOT
ATOM      1  C   UNL     1      10.452  -3.018  -6.498  1.00  0.00    -0.048 A 
ATOM      2  C   UNL     1       9.095  -2.780  -6.271  1.00  0.00     0.006 A 
ATOM      3  C   UNL     1       8.651  -2.329  -5.031  1.00  0.00     0.026 A 
ATOM      4  C   UNL     1       9.524  -2.174  -3.952  1.00  0.00     0.038 A 
ATOM      5  C   UNL     1      10.877  -2.467  -4.162  1.00  0.00     0.026 A 
ATOM      6  C   UNL     1      11.337  -2.885  -5.421  1.00  0.00     0.006 A 
ENDROOT
BRANCH   1   7
ATOM      7  C   UNL     1      10.958  -3.409  -7.864  1.00  0.00     0.037 C 
BRANCH   7   8
ATOM      8  C   UNL     1      10.164  -2.879  -9.073  1.00  0.00     0.020 C 
BRANCH   8   9
ATOM      9  C   UNL     1      11.000  -2.338 -10.243  1.00  0.00     0.078 C 
BRANCH   9  10
ATOM     10  N   UNL     1      12.356  -2.863 -10.324  1.00  0.00    -0.330 NA
ATOM     11  H   UNL     1      12.439  -3.494 -11.120  1.00  0.00     0.118 HD
ATOM     12  H   UNL     1      12.563  -3.431  -9.502  1.00  0.00     0.118 HD
ENDBRANCH   9  10
ENDBRANCH   8   9
ENDBRANCH   7   8
ENDBRANCH   1   7
BRANCH   4  13
ATOM     13  N   UNL     1       9.065  -1.833  -2.665  1.00  0.00    -0.362 N 
ATOM     14  H   UNL     1       9.665  -2.081  -1.889  1.00  0.00     0.166 HD
BRANCH  13  15
ATOM     15  C   UNL     1       7.787  -1.439  -2.370  1.00  0.00     0.083 C 
BRANCH  15  16
ATOM     16  C   UNL     1       6.791  -2.143  -1.816  1.00  0.00     0.027 C 
BRANCH  16  17
ATOM     17  C   UNL     1       5.568  -2.457  -2.570  1.00  0.00    -0.003 A 
ATOM     18  C   UNL     1       5.430  -3.633  -3.328  1.00  0.00    -0.041 A 
ATOM     19  C   UNL     1       4.488  -1.561  -2.594  1.00  0.00     0.119 A 
ATOM     20  C   UNL     1       4.238  -3.842  -4.037  1.00  0.00     0.024 A 
ATOM     21  N   UNL     1       3.325  -1.755  -3.258  1.00  0.00    -0.264 NA
ATOM     22  C   UNL     1       3.227  -2.896  -3.963  1.00  0.00     0.111 A 
ATOM     23  C   UNL     1       6.528  -4.654  -3.436  1.00  0.00     0.045 C 
ENDBRANCH  16  17
ENDBRANCH  15  16
ENDBRANCH  13  15
ENDBRANCH   4  13
TORSDOF 8
ENDMDL
MODEL 3
REMARK VINA RESULT:    -4.844      1.262      2.100
REMARK INTER + INTRA:          -7.630
REMARK INTER:                  -6.972
REMARK INTRA:                  -0.658
REMARK UNBOUND:                -0.662
REMARK SMILES Cc1ccncc1/C=C/Nc1ccc(CCCN)cc1
REMARK SMILES IDX 14 1 13 2 12 3 11 4 20 5 19 6 15 7 16 8 17 9 18 10 10 13
REMARK SMILES IDX 9 15 8 16 7 17 2 18 6 19 3 20 5 21 4 22 1 23
REMARK H PARENT 18 11 18 12 10 14
ROOT
ATOM      1  C   UNL     1      11.070  -2.815  -9.812  1.00  0.00    -0.048 A 
ATOM      2  C   UNL     1       9.823  -2.367  -9.369  1.00  0.00     0.006 A 
ATOM      3  C   UNL     1       9.388  -2.642  -8.076  1.00  0.00     0.026 A 
ATOM      4  C   UNL     1      10.137  -3.437  -7.205  1.00  0.00     0.038 A 
ATOM      5  C   UNL     1      11.361  -3.934  -7.667  1.00  0.00     0.026 A 
ATOM      6  C   UNL     1      11.823  -3.628  -8.956  1.00  0.00     0.006 A 
ENDROOT
BRANCH   1   7
ATOM      7  C   UNL     1      11.596  -2.437 -11.174  1.00  0.00     0.037 C 
BRANCH   7   8
ATOM      8  C   UNL     1      11.748  -0.932 -11.464  1.00  0.00     0.020 C 
BRANCH   8   9
ATOM      9  C   UNL     1      13.114  -0.485 -12.007  1.00  0.00     0.078 C 
BRANCH   9  10
ATOM     10  N   UNL     1      14.045   0.007 -11.001  1.00  0.00    -0.330 NA
ATOM     11  H   UNL     1      14.566   0.803 -11.368  1.00  0.00     0.118 HD
ATOM     12  H   UNL     1      14.745  -0.704 -10.791  1.00  0.00     0.118 HD
ENDBRANCH   9  10
ENDBRANCH   8   9
ENDBRANCH   7   8
ENDBRANCH   1   7
BRANCH   4  13
ATOM     13  N   UNL     1       9.650  -3.818  -5.940  1.00  0.00    -0.362 N 
ATOM     14  H   UNL     1       8.998  -4.593  -5.919  1.00  0.00     0.166 HD
BRANCH  13  15
ATOM     15  C   UNL     1       9.782  -3.079  -4.795  1.00  0.00     0.083 C 
BRANCH  15  16
ATOM     16  C   UNL     1       9.080  -2.011  -4.392  1.00  0.00     0.027 C 
BRANCH  16  17
ATOM     17  C   UNL     1       7.675  -2.137  -3.973  1.00  0.00    -0.003 A 
ATOM     18  C   UNL     1       6.858  -1.019  -3.731  1.00  0.00    -0.041 A 
ATOM     19  C   UNL     1       7.099  -3.398  -3.759  1.00  0.00     0.119 A 
ATOM     20  C   UNL     1       5.536  -1.230  -3.311  1.00  0.00     0.024 A 
ATOM     21  N   UNL     1       5.821  -3.619  -3.372  1.00  0.00    -0.264 NA
ATOM     22  C   UNL     1       5.068  -2.525  -3.160  1.00  0.00     0.111 A 
ATOM     23  C   UNL     1       7.361   0.390  -3.868  1.00  0.00     0.045 C 
ENDBRANCH  16  17
ENDBRANCH  15  16
ENDBRANCH  13  15
ENDBRANCH   4  13
TORSDOF 8
ENDMDL
MODEL 4
REMARK VINA RESULT:    -4.751      4.045      5.796
REMARK INTER + INTRA:          -7.495
REMARK INTER:                  -6.625
REMARK INTRA:                  -0.870
REMARK UNBOUND:                -0.662
REMARK SMILES Cc1ccncc1/C=C/Nc1ccc(CCCN)cc1
REMARK SMILES IDX 14 1 13 2 12 3 11 4 20 5 19 6 15 7 16 8 17 9 18 10 10 13
REMARK SMILES IDX 9 15 8 16 7 17 2 18 6 19 3 20 5 21 4 22 1 23
REMARK H PARENT 18 11 18 12 10 14
ROOT
ATOM      1  C   UNL     1      11.736  -2.668  -4.232  1.00  0.00    -0.048 A 
ATOM      2  C   UNL     1      10.703  -2.424  -3.324  1.00  0.00     0.006 A 
ATOM      3  C   UNL     1       9.374  -2.451  -3.736  1.00  0.00     0.026 A 
ATOM      4  C   UNL     1       9.026  -2.642  -5.075  1.00  0.00     0.038 A 
ATOM      5  C   UNL     1      10.063  -2.830  -5.997  1.00  0.00     0.026 A 
ATOM      6  C   UNL     1      11.403  -2.843  -5.581  1.00  0.00     0.006 A 
ENDROOT
BRANCH   1   7
ATOM      7  C   UNL     1      13.172  -2.742  -3.778  1.00  0.00     0.037 C 
BRANCH   7   8
ATOM      8  C   UNL     1      13.420  -3.257  -2.348  1.00  0.00     0.020 C 
BRANCH   8   9
ATOM      9  C   UNL     1      14.759  -3.973  -2.112  1.00  0.00     0.078 C 
BRANCH   9  10
ATOM     10  N   UNL     1      14.664  -5.417  -1.950  1.00  0.00    -0.330 NA
ATOM     11  H   UNL     1      14.350  -5.642  -1.008  1.00  0.00     0.118 HD
ATOM     12  H   UNL     1      15.588  -5.841  -2.039  1.00  0.00     0.118 HD
ENDBRANCH   9  10
ENDBRANCH   8   9
ENDBRANCH   7   8
ENDBRANCH   1   7
BRANCH   4  13
ATOM     13  N   UNL     1       7.693  -2.552  -5.519  1.00  0.00    -0.362 N 
ATOM     14  H   UNL     1       7.553  -2.366  -6.504  1.00  0.00     0.166 HD
BRANCH  13  15
ATOM     15  C   UNL     1       6.602  -2.439  -4.699  1.00  0.00     0.083 C 
BRANCH  15  16
ATOM     16  C   UNL     1       5.801  -1.383  -4.497  1.00  0.00     0.027 C 
BRANCH  16  17
ATOM     17  C   UNL     1       5.719  -0.730  -3.181  1.00  0.00    -0.003 A 
ATOM     18  C   UNL     1       6.607   0.286  -2.787  1.00  0.00    -0.041 A 
ATOM     19  C   UNL     1       4.759  -1.128  -2.239  1.00  0.00     0.119 A 
ATOM     20  C   UNL     1       6.472   0.839  -1.505  1.00  0.00     0.024 A 
ATOM     21  N   UNL     1       4.604  -0.594  -1.005  1.00  0.00    -0.264 NA
ATOM     22  C   UNL     1       5.466   0.382  -0.669  1.00  0.00     0.111 A 
ATOM     23  C   UNL     1       7.717   0.773  -3.675  1.00  0.00     0.045 C 
ENDBRANCH  16  17
ENDBRANCH  15  16
ENDBRANCH  13  15
ENDBRANCH   4  13
TORSDOF 8
ENDMDL
MODEL 5
REMARK VINA RESULT:    -4.522      1.943      3.268
REMARK INTER + INTRA:          -7.167
REMARK INTER:                  -6.412
REMARK INTRA:                  -0.755
REMARK UNBOUND:                -0.662
REMARK SMILES Cc1ccncc1/C=C/Nc1ccc(CCCN)cc1
REMARK SMILES IDX 14 1 13 2 12 3 11 4 20 5 19 6 15 7 16 8 17 9 18 10 10 13
REMARK SMILES IDX 9 15 8 16 7 17 2 18 6 19 3 20 5 21 4 22 1 23
REMARK H PARENT 18 11 18 12 10 14
ROOT
ATOM      1  C   UNL     1      10.968  -3.322  -7.491  1.00  0.00    -0.048 A 
ATOM      2  C   UNL     1      11.882  -3.176  -6.446  1.00  0.00     0.006 A 
ATOM      3  C   UNL     1      11.444  -2.933  -5.147  1.00  0.00     0.026 A 
ATOM      4  C   UNL     1      10.090  -2.751  -4.853  1.00  0.00     0.038 A 
ATOM      5  C   UNL     1       9.177  -2.840  -5.910  1.00  0.00     0.026 A 
ATOM      6  C   UNL     1       9.610  -3.122  -7.215  1.00  0.00     0.006 A 
ENDROOT
BRANCH   1   7
ATOM      7  C   UNL     1      11.424  -3.684  -8.882  1.00  0.00     0.037 C 
BRANCH   7   8
ATOM      8  C   UNL     1      10.988  -2.741 -10.021  1.00  0.00     0.020 C 
BRANCH   8   9
ATOM      9  C   UNL     1      11.929  -2.668 -11.232  1.00  0.00     0.078 C 
BRANCH   9  10
ATOM     10  N   UNL     1      13.257  -2.141 -10.948  1.00  0.00    -0.330 NA
ATOM     11  H   UNL     1      13.595  -2.507 -10.059  1.00  0.00     0.118 HD
ATOM     12  H   UNL     1      13.215  -1.129 -10.829  1.00  0.00     0.118 HD
ENDBRANCH   9  10
ENDBRANCH   8   9
ENDBRANCH   7   8
ENDBRANCH   1   7
BRANCH   4  13
ATOM     13  N   UNL     1       9.650  -2.388  -3.566  1.00  0.00    -0.362 N 
ATOM     14  H   UNL     1      10.152  -2.791  -2.784  1.00  0.00     0.166 HD
BRANCH  13  15
ATOM     15  C   UNL     1       8.466  -1.756  -3.293  1.00  0.00     0.083 C 
BRANCH  15  16
ATOM     16  C   UNL     1       7.500  -2.106  -2.433  1.00  0.00     0.027 C 
BRANCH  16  17
ATOM     17  C   UNL     1       6.165  -2.501  -2.907  1.00  0.00    -0.003 A 
ATOM     18  C   UNL     1       5.020  -1.718  -2.676  1.00  0.00    -0.041 A 
ATOM     19  C   UNL     1       5.972  -3.713  -3.586  1.00  0.00     0.119 A 
ATOM     20  C   UNL     1       3.781  -2.182  -3.143  1.00  0.00     0.024 A 
ATOM     21  N   UNL     1       4.788  -4.167  -4.058  1.00  0.00    -0.264 NA
ATOM     22  C   UNL     1       3.718  -3.385  -3.826  1.00  0.00     0.111 A 
ATOM     23  C   UNL     1       5.071  -0.422  -1.916  1.00  0.00     0.045 C 
ENDBRANCH  16  17
ENDBRANCH  15  16
ENDBRANCH  13  15
ENDBRANCH   4  13
TORSDOF 8
ENDMDL
MODEL 6
REMARK VINA RESULT:    -4.489      2.033      8.506
REMARK INTER + INTRA:          -7.120
REMARK INTER:                  -6.531
REMARK INTRA:                  -0.589
REMARK UNBOUND:                -0.662
REMARK SMILES Cc1ccncc1/C=C/Nc1ccc(CCCN)cc1
REMARK SMILES IDX 14 1 13 2 12 3 11 4 20 5 19 6 15 7 16 8 17 9 18 10 10 13
REMARK SMILES IDX 9 15 8 16 7 17 2 18 6 19 3 20 5 21 4 22 1 23
REMARK H PARENT 18 11 18 12 10 14
ROOT
ATOM      1  C   UNL     1       6.776  -2.362  -3.097  1.00  0.00    -0.048 A 
ATOM      2  C   UNL     1       7.490  -1.207  -3.423  1.00  0.00     0.006 A 
ATOM      3  C   UNL     1       8.598  -1.269  -4.263  1.00  0.00     0.026 A 
ATOM      4  C   UNL     1       9.082  -2.487  -4.745  1.00  0.00     0.038 A 
ATOM      5  C   UNL     1       8.402  -3.653  -4.373  1.00  0.00     0.026 A 
ATOM      6  C   UNL     1       7.261  -3.592  -3.558  1.00  0.00     0.006 A 
ENDROOT
BRANCH   1   7
ATOM      7  C   UNL     1       5.516  -2.294  -2.271  1.00  0.00     0.037 C 
BRANCH   7   8
ATOM      8  C   UNL     1       4.230  -1.864  -3.004  1.00  0.00     0.020 C 
BRANCH   8   9
ATOM      9  C   UNL     1       3.689  -2.851  -4.049  1.00  0.00     0.078 C 
BRANCH   9  10
ATOM     10  N   UNL     1       3.345  -4.168  -3.532  1.00  0.00    -0.330 NA
ATOM     11  H   UNL     1       4.094  -4.828  -3.735  1.00  0.00     0.118 HD
ATOM     12  H   UNL     1       2.523  -4.531  -4.014  1.00  0.00     0.118 HD
ENDBRANCH   9  10
ENDBRANCH   8   9
ENDBRANCH   7   8
ENDBRANCH   1   7
BRANCH   4  13
ATOM     13  N   UNL     1      10.270  -2.571  -5.497  1.00  0.00    -0.362 N 
ATOM     14  H   UNL     1      11.130  -2.341  -5.014  1.00  0.00     0.166 HD
BRANCH  13  15
ATOM     15  C   UNL     1      10.327  -2.681  -6.861  1.00  0.00     0.083 C 
BRANCH  15  16
ATOM     16  C   UNL     1      10.849  -3.662  -7.609  1.00  0.00     0.027 C 
BRANCH  16  17
ATOM     17  C   UNL     1      11.314  -3.409  -8.981  1.00  0.00    -0.003 A 
ATOM     18  C   UNL     1      12.530  -3.916  -9.471  1.00  0.00    -0.041 A 
ATOM     19  C   UNL     1      10.567  -2.607  -9.857  1.00  0.00     0.119 A 
ATOM     20  C   UNL     1      12.909  -3.606 -10.786  1.00  0.00     0.024 A 
ATOM     21  N   UNL     1      10.908  -2.313 -11.134  1.00  0.00    -0.264 NA
ATOM     22  C   UNL     1      12.074  -2.825 -11.569  1.00  0.00     0.111 A 
ATOM     23  C   UNL     1      13.456  -4.745  -8.625  1.00  0.00     0.045 C 
ENDBRANCH  16  17
ENDBRANCH  15  16
ENDBRANCH  13  15
ENDBRANCH   4  13
TORSDOF 8
ENDMDL
MODEL 7
REMARK VINA RESULT:    -4.471      1.587      8.476
REMARK INTER + INTRA:          -7.093
REMARK INTER:                  -6.569
REMARK INTRA:                  -0.524
REMARK UNBOUND:                -0.662
REMARK SMILES Cc1ccncc1/C=C/Nc1ccc(CCCN)cc1
REMARK SMILES IDX 14 1 13 2 12 3 11 4 20 5 19 6 15 7 16 8 17 9 18 10 10 13
REMARK SMILES IDX 9 15 8 16 7 17 2 18 6 19 3 20 5 21 4 22 1 23
REMARK H PARENT 18 11 18 12 10 14
ROOT
ATOM      1  C   UNL     1       8.162  -2.076  -3.698  1.00  0.00    -0.048 A 
ATOM      2  C   UNL     1       8.273  -3.373  -4.204  1.00  0.00     0.006 A 
ATOM      3  C   UNL     1       9.331  -3.722  -5.038  1.00  0.00     0.026 A 
ATOM      4  C   UNL     1      10.271  -2.780  -5.461  1.00  0.00     0.038 A 
ATOM      5  C   UNL     1      10.129  -1.465  -5.001  1.00  0.00     0.026 A 
ATOM      6  C   UNL     1       9.086  -1.116  -4.129  1.00  0.00     0.006 A 
ENDROOT
BRANCH   1   7
ATOM      7  C   UNL     1       7.078  -1.712  -2.714  1.00  0.00     0.037 C 
BRANCH   7   8
ATOM      8  C   UNL     1       6.740  -0.214  -2.581  1.00  0.00     0.020 C 
BRANCH   8   9
ATOM      9  C   UNL     1       6.168   0.229  -1.226  1.00  0.00     0.078 C 
BRANCH   9  10
ATOM     10  N   UNL     1       5.697   1.606  -1.178  1.00  0.00    -0.330 NA
ATOM     11  H   UNL     1       5.910   2.078  -2.056  1.00  0.00     0.118 HD
ATOM     12  H   UNL     1       6.202   2.125  -0.459  1.00  0.00     0.118 HD
ENDBRANCH   9  10
ENDBRANCH   8   9
ENDBRANCH   7   8
ENDBRANCH   1   7
BRANCH   4  13
ATOM     13  N   UNL     1      11.274  -3.097  -6.398  1.00  0.00    -0.362 N 
ATOM     14  H   UNL     1      12.218  -2.817  -6.165  1.00  0.00     0.166 HD
BRANCH  13  15
ATOM     15  C   UNL     1      11.041  -3.511  -7.683  1.00  0.00     0.083 C 
BRANCH  15  16
ATOM     16  C   UNL     1      11.894  -4.046  -8.566  1.00  0.00     0.027 C 
BRANCH  16  17
ATOM     17  C   UNL     1      12.064  -3.468  -9.908  1.00  0.00    -0.003 A 
ATOM     18  C   UNL     1      13.227  -3.666 -10.673  1.00  0.00    -0.041 A 
ATOM     19  C   UNL     1      11.071  -2.651 -10.470  1.00  0.00     0.119 A 
ATOM     20  C   UNL     1      13.316  -3.057 -11.934  1.00  0.00     0.024 A 
ATOM     21  N   UNL     1      11.133  -2.071 -11.692  1.00  0.00    -0.264 NA
ATOM     22  C   UNL     1      12.257  -2.292 -12.397  1.00  0.00     0.111 A 
ATOM     23  C   UNL     1      14.392  -4.473 -10.172  1.00  0.00     0.045 C 
ENDBRANCH  16  17
ENDBRANCH  15  16
ENDBRANCH  13  15
ENDBRANCH   4  13
TORSDOF 8
ENDMDL
MODEL 8
REMARK VINA RESULT:    -4.425      1.829      8.591
REMARK INTER + INTRA:          -7.027
REMARK INTER:                  -6.465
REMARK INTRA:                  -0.561
REMARK UNBOUND:                -0.662
REMARK SMILES Cc1ccncc1/C=C/Nc1ccc(CCCN)cc1
REMARK SMILES IDX 14 1 13 2 12 3 11 4 20 5 19 6 15 7 16 8 17 9 18 10 10 13
REMARK SMILES IDX 9 15 8 16 7 17 2 18 6 19 3 20 5 21 4 22 1 23
REMARK H PARENT 18 11 18 12 10 14
ROOT
ATOM      1  C   UNL     1       7.661  -2.261  -3.277  1.00  0.00    -0.048 A 
ATOM      2  C   UNL     1       7.789  -3.525  -3.856  1.00  0.00     0.006 A 
ATOM      3  C   UNL     1       8.800  -3.786  -4.776  1.00  0.00     0.026 A 
ATOM      4  C   UNL     1       9.670  -2.783  -5.211  1.00  0.00     0.038 A 
ATOM      5  C   UNL     1       9.507  -1.501  -4.674  1.00  0.00     0.026 A 
ATOM      6  C   UNL     1       8.514  -1.242  -3.717  1.00  0.00     0.006 A 
ENDROOT
BRANCH   1   7
ATOM      7  C   UNL     1       6.634  -1.995  -2.205  1.00  0.00     0.037 C 
BRANCH   7   8
ATOM      8  C   UNL     1       5.906  -0.638  -2.266  1.00  0.00     0.020 C 
BRANCH   8   9
ATOM      9  C   UNL     1       5.843   0.153  -0.951  1.00  0.00     0.078 C 
BRANCH   9  10
ATOM     10  N   UNL     1       5.778   1.599  -1.105  1.00  0.00    -0.330 NA
ATOM     11  H   UNL     1       5.003   1.851  -1.716  1.00  0.00     0.118 HD
ATOM     12  H   UNL     1       6.618   1.940  -1.574  1.00  0.00     0.118 HD
ENDBRANCH   9  10
ENDBRANCH   8   9
ENDBRANCH   7   8
ENDBRANCH   1   7
BRANCH   4  13
ATOM     13  N   UNL     1      10.618  -3.009  -6.228  1.00  0.00    -0.362 N 
ATOM     14  H   UNL     1      11.502  -2.524  -6.142  1.00  0.00     0.166 HD
BRANCH  13  15
ATOM     15  C   UNL     1      10.349  -3.613  -7.428  1.00  0.00     0.083 C 
BRANCH  15  16
ATOM     16  C   UNL     1      10.680  -3.221  -8.665  1.00  0.00     0.027 C 
BRANCH  16  17
ATOM     17  C   UNL     1      11.963  -3.609  -9.270  1.00  0.00    -0.003 A 
ATOM     18  C   UNL     1      12.301  -3.282 -10.595  1.00  0.00    -0.041 A 
ATOM     19  C   UNL     1      12.899  -4.365  -8.549  1.00  0.00     0.119 A 
ATOM     20  C   UNL     1      13.537  -3.713 -11.101  1.00  0.00     0.024 A 
ATOM     21  N   UNL     1      14.102  -4.773  -9.015  1.00  0.00    -0.264 NA
ATOM     22  C   UNL     1      14.394  -4.433 -10.283  1.00  0.00     0.111 A 
ATOM     23  C   UNL     1      11.372  -2.523 -11.499  1.00  0.00     0.045 C 
ENDBRANCH  16  17
ENDBRANCH  15  16
ENDBRANCH  13  15
ENDBRANCH   4  13
TORSDOF 8
ENDMDL
MODEL 9
REMARK VINA RESULT:    -4.391      2.106      8.533
REMARK INTER + INTRA:          -6.977
REMARK INTER:                  -6.397
REMARK INTRA:                  -0.580
REMARK UNBOUND:                -0.662
REMARK SMILES Cc1ccncc1/C=C/Nc1ccc(CCCN)cc1
REMARK SMILES IDX 14 1 13 2 12 3 11 4 20 5 19 6 15 7 16 8 17 9 18 10 10 13
REMARK SMILES IDX 9 15 8 16 7 17 2 18 6 19 3 20 5 21 4 22 1 23
REMARK H PARENT 18 11 18 12 10 14
ROOT
ATOM      1  C   UNL     1       7.224  -2.667  -3.362  1.00  0.00    -0.048 A 
ATOM      2  C   UNL     1       7.620  -3.925  -3.821  1.00  0.00     0.006 A 
ATOM      3  C   UNL     1       8.792  -4.075  -4.558  1.00  0.00     0.026 A 
ATOM      4  C   UNL     1       9.569  -2.975  -4.930  1.00  0.00     0.038 A 
ATOM      5  C   UNL     1       9.142  -1.707  -4.518  1.00  0.00     0.026 A 
ATOM      6  C   UNL     1       7.982  -1.554  -3.742  1.00  0.00     0.006 A 
ENDROOT
BRANCH   1   7
ATOM      7  C   UNL     1       6.012  -2.506  -2.478  1.00  0.00     0.037 C 
BRANCH   7   8
ATOM      8  C   UNL     1       4.712  -2.044  -3.165  1.00  0.00     0.020 C 
BRANCH   8   9
ATOM      9  C   UNL     1       4.057  -3.055  -4.116  1.00  0.00     0.078 C 
BRANCH   9  10
ATOM     10  N   UNL     1       3.353  -4.149  -3.462  1.00  0.00    -0.330 NA
ATOM     11  H   UNL     1       2.989  -4.796  -4.160  1.00  0.00     0.118 HD
ATOM     12  H   UNL     1       2.535  -3.794  -2.967  1.00  0.00     0.118 HD
ENDBRANCH   9  10
ENDBRANCH   8   9
ENDBRANCH   7   8
ENDBRANCH   1   7
BRANCH   4  13
ATOM     13  N   UNL     1      10.688  -3.105  -5.774  1.00  0.00    -0.362 N 
ATOM     14  H   UNL     1      11.587  -3.217  -5.322  1.00  0.00     0.166 HD
BRANCH  13  15
ATOM     15  C   UNL     1      10.690  -2.839  -7.118  1.00  0.00     0.083 C 
BRANCH  15  16
ATOM     16  C   UNL     1      10.757  -3.692  -8.149  1.00  0.00     0.027 C 
BRANCH  16  17
ATOM     17  C   UNL     1      11.993  -3.847  -8.930  1.00  0.00    -0.003 A 
ATOM     18  C   UNL     1      12.144  -3.305 -10.218  1.00  0.00    -0.041 A 
ATOM     19  C   UNL     1      13.074  -4.587  -8.427  1.00  0.00     0.119 A 
ATOM     20  C   UNL     1      13.349  -3.521 -10.904  1.00  0.00     0.024 A 
ATOM     21  N   UNL     1      14.249  -4.791  -9.067  1.00  0.00    -0.264 NA
ATOM     22  C   UNL     1      14.359  -4.248 -10.293  1.00  0.00     0.111 A 
ATOM     23  C   UNL     1      11.048  -2.535 -10.901  1.00  0.00     0.045 C 
ENDBRANCH  16  17
ENDBRANCH  15  16
ENDBRANCH  13  15
ENDBRANCH   4  13
TORSDOF 8
ENDMDL
