MODEL 1
REMARK VINA RESULT:    -4.970      0.000      0.000
REMARK INTER + INTRA:          -7.792
REMARK INTER:                  -7.149
REMARK INTRA:                  -0.643
REMARK UNBOUND:                -0.643
REMARK SMILES Cc1ccncc1/C=C/Nc1ccc(CCCN)cc1
REMARK SMILES IDX 14 1 13 2 12 3 11 4 20 5 19 6 15 7 16 8 17 9 18 10 10 13
REMARK SMILES IDX 9 15 8 16 7 17 2 18 6 19 3 20 5 21 4 22 1 23
REMARK H PARENT 18 11 18 12 10 14
ROOT
ATOM      1  C   UNL     1     -14.637  -2.920   7.154  1.00  0.00    -0.048 A 
ATOM      2  C   UNL     1     -13.275  -2.706   6.928  1.00  0.00     0.006 A 
ATOM      3  C   UNL     1     -12.773  -2.635   5.632  1.00  0.00     0.026 A 
ATOM      4  C   UNL     1     -13.588  -2.850   4.518  1.00  0.00     0.038 A 
ATOM      5  C   UNL     1     -14.943  -3.121   4.744  1.00  0.00     0.026 A 
ATOM      6  C   UNL     1     -15.462  -3.156   6.048  1.00  0.00     0.006 A 
ENDROOT
BRANCH   1   7
ATOM      7  C   UNL     1     -15.209  -2.899   8.549  1.00  0.00     0.037 C 
BRANCH   7   8
ATOM      8  C   UNL     1     -14.823  -1.700   9.437  1.00  0.00     0.020 C 
BRANCH   8   9
ATOM      9  C   UNL     1     -15.961  -0.732   9.793  1.00  0.00     0.078 C 
BRANCH   9  10
ATOM     10  N   UNL     1     -16.264   0.263   8.773  1.00  0.00    -0.330 NA
ATOM     11  H   UNL     1     -15.619   1.048   8.850  1.00  0.00     0.118 HD
ATOM     12  H   UNL     1     -17.192   0.656   8.930  1.00  0.00     0.118 HD
ENDBRANCH   9  10
ENDBRANCH   8   9
ENDBRANCH   7   8
ENDBRANCH   1   7
BRANCH   4  13
ATOM     13  N   UNL     1     -13.066  -2.897   3.211  1.00  0.00    -0.362 N 
ATOM     14  H   UNL     1     -13.080  -3.797   2.749  1.00  0.00     0.166 HD
BRANCH  13  15
ATOM     15  C   UNL     1     -12.322  -1.905   2.629  1.00  0.00     0.083 C 
BRANCH  15  16
ATOM     16  C   UNL     1     -11.513  -1.969   1.563  1.00  0.00     0.027 C 
BRANCH  16  17
ATOM     17  C   UNL     1     -10.184  -1.338   1.576  1.00  0.00    -0.003 A 
ATOM     18  C   UNL     1      -9.097  -1.856   0.850  1.00  0.00    -0.041 A 
ATOM     19  C   UNL     1      -9.936  -0.199   2.356  1.00  0.00     0.119 A 
ATOM     20  C   UNL     1      -7.857  -1.205   0.937  1.00  0.00     0.024 A 
ATOM     21  N   UNL     1      -8.752   0.451   2.438  1.00  0.00    -0.264 NA
ATOM     22  C   UNL     1      -7.739  -0.068   1.721  1.00  0.00     0.111 A 
ATOM     23  C   UNL     1      -9.207  -3.101   0.015  1.00  0.00     0.045 C 
ENDBRANCH  16  17
ENDBRANCH  15  16
ENDBRANCH  13  15
ENDBRANCH   4  13
TORSDOF 8
ENDMDL
MODEL 2
REMARK VINA RESULT:    -4.841      2.007      8.439
REMARK INTER + INTRA:          -7.607
REMARK INTER:                  -7.017
REMARK INTRA:                  -0.590
REMARK UNBOUND:                -0.643
REMARK SMILES Cc1ccncc1/C=C/Nc1ccc(CCCN)cc1
REMARK SMILES IDX 14 1 13 2 12 3 11 4 20 5 19 6 15 7 16 8 17 9 18 10 10 13
REMARK SMILES IDX 9 15 8 16 7 17 2 18 6 19 3 20 5 21 4 22 1 23
REMARK H PARENT 18 11 18 12 10 14
ROOT
ATOM      1  C   UNL     1      -8.676  -1.525   0.816  1.00  0.00    -0.048 A 
ATOM      2  C   UNL     1      -9.680  -2.447   0.509  1.00  0.00     0.006 A 
ATOM      3  C   UNL     1     -10.957  -2.310   1.044  1.00  0.00     0.026 A 
ATOM      4  C   UNL     1     -11.263  -1.301   1.961  1.00  0.00     0.038 A 
ATOM      5  C   UNL     1     -10.242  -0.410   2.314  1.00  0.00     0.026 A 
ATOM      6  C   UNL     1      -8.963  -0.520   1.748  1.00  0.00     0.006 A 
ENDROOT
BRANCH   1   7
ATOM      7  C   UNL     1      -7.318  -1.605   0.165  1.00  0.00     0.037 C 
BRANCH   7   8
ATOM      8  C   UNL     1      -6.182  -2.216   1.007  1.00  0.00     0.020 C 
BRANCH   8   9
ATOM      9  C   UNL     1      -6.389  -3.667   1.466  1.00  0.00     0.078 C 
BRANCH   9  10
ATOM     10  N   UNL     1      -6.318  -4.663   0.406  1.00  0.00    -0.330 NA
ATOM     11  H   UNL     1      -7.248  -4.841   0.031  1.00  0.00     0.118 HD
ATOM     12  H   UNL     1      -6.000  -5.556   0.784  1.00  0.00     0.118 HD
ENDBRANCH   9  10
ENDBRANCH   8   9
ENDBRANCH   7   8
ENDBRANCH   1   7
BRANCH   4  13
ATOM     13  N   UNL     1     -12.518  -1.228   2.596  1.00  0.00    -0.362 N 
ATOM     14  H   UNL     1     -13.199  -0.602   2.185  1.00  0.00     0.166 HD
BRANCH  13  15
ATOM     15  C   UNL     1     -12.794  -1.725   3.842  1.00  0.00     0.083 C 
BRANCH  15  16
ATOM     16  C   UNL     1     -13.544  -2.781   4.184  1.00  0.00     0.027 C 
BRANCH  16  17
ATOM     17  C   UNL     1     -14.166  -2.876   5.513  1.00  0.00    -0.003 A 
ATOM     18  C   UNL     1     -15.553  -3.027   5.688  1.00  0.00    -0.041 A 
ATOM     19  C   UNL     1     -13.391  -2.780   6.679  1.00  0.00     0.119 A 
ATOM     20  C   UNL     1     -16.066  -3.085   6.993  1.00  0.00     0.024 A 
ATOM     21  N   UNL     1     -13.867  -2.852   7.944  1.00  0.00    -0.264 NA
ATOM     22  C   UNL     1     -15.197  -3.006   8.069  1.00  0.00     0.111 A 
ATOM     23  C   UNL     1     -16.508  -3.090   4.529  1.00  0.00     0.045 C 
ENDBRANCH  16  17
ENDBRANCH  15  16
ENDBRANCH  13  15
ENDBRANCH   4  13
TORSDOF 8
ENDMDL
MODEL 3
REMARK VINA RESULT:    -4.827      1.737      8.237
REMARK INTER + INTRA:          -7.587
REMARK INTER:                  -7.101
REMARK INTRA:                  -0.486
REMARK UNBOUND:                -0.643
REMARK SMILES Cc1ccncc1/C=C/Nc1ccc(CCCN)cc1
REMARK SMILES IDX 14 1 13 2 12 3 11 4 20 5 19 6 15 7 16 8 17 9 18 10 10 13
REMARK SMILES IDX 9 15 8 16 7 17 2 18 6 19 3 20 5 21 4 22 1 23
REMARK H PARENT 18 11 18 12 10 14
ROOT
ATOM      1  C   UNL     1      -8.446  -1.213   1.607  1.00  0.00    -0.048 A 
ATOM      2  C   UNL     1      -9.211  -2.193   0.971  1.00  0.00     0.006 A 
ATOM      3  C   UNL     1     -10.600  -2.176   1.053  1.00  0.00     0.026 A 
ATOM      4  C   UNL     1     -11.275  -1.233   1.832  1.00  0.00     0.038 A 
ATOM      5  C   UNL     1     -10.507  -0.283   2.517  1.00  0.00     0.026 A 
ATOM      6  C   UNL     1      -9.108  -0.273   2.406  1.00  0.00     0.006 A 
ENDROOT
BRANCH   1   7
ATOM      7  C   UNL     1      -6.948  -1.162   1.443  1.00  0.00     0.037 C 
BRANCH   7   8
ATOM      8  C   UNL     1      -6.413  -0.415   0.206  1.00  0.00     0.020 C 
BRANCH   8   9
ATOM      9  C   UNL     1      -6.794   1.069   0.099  1.00  0.00     0.078 C 
BRANCH   9  10
ATOM     10  N   UNL     1      -5.910   1.984   0.808  1.00  0.00    -0.330 NA
ATOM     11  H   UNL     1      -5.229   2.382   0.163  1.00  0.00     0.118 HD
ATOM     12  H   UNL     1      -5.363   1.476   1.504  1.00  0.00     0.118 HD
ENDBRANCH   9  10
ENDBRANCH   8   9
ENDBRANCH   7   8
ENDBRANCH   1   7
BRANCH   4  13
ATOM     13  N   UNL     1     -12.670  -1.281   2.016  1.00  0.00    -0.362 N 
ATOM     14  H   UNL     1     -13.240  -0.895   1.273  1.00  0.00     0.166 HD
BRANCH  13  15
ATOM     15  C   UNL     1     -13.294  -1.564   3.202  1.00  0.00     0.083 C 
BRANCH  15  16
ATOM     16  C   UNL     1     -13.404  -2.736   3.841  1.00  0.00     0.027 C 
BRANCH  16  17
ATOM     17  C   UNL     1     -13.958  -2.814   5.201  1.00  0.00    -0.003 A 
ATOM     18  C   UNL     1     -15.325  -3.037   5.447  1.00  0.00    -0.041 A 
ATOM     19  C   UNL     1     -13.138  -2.627   6.324  1.00  0.00     0.119 A 
ATOM     20  C   UNL     1     -15.773  -3.073   6.776  1.00  0.00     0.024 A 
ATOM     21  N   UNL     1     -13.551  -2.675   7.612  1.00  0.00    -0.264 NA
ATOM     22  C   UNL     1     -14.862  -2.901   7.807  1.00  0.00     0.111 A 
ATOM     23  C   UNL     1     -16.326  -3.201   4.338  1.00  0.00     0.045 C 
ENDBRANCH  16  17
ENDBRANCH  15  16
ENDBRANCH  13  15
ENDBRANCH   4  13
TORSDOF 8
ENDMDL
MODEL 4
REMARK VINA RESULT:    -4.712      1.288      1.806
REMARK INTER + INTRA:          -7.421
REMARK INTER:                  -6.735
REMARK INTRA:                  -0.687
REMARK UNBOUND:                -0.643
REMARK SMILES Cc1ccncc1/C=C/Nc1ccc(CCCN)cc1
REMARK SMILES IDX 14 1 13 2 12 3 11 4 20 5 19 6 15 7 16 8 17 9 18 10 10 13
REMARK SMILES IDX 9 15 8 16 7 17 2 18 6 19 3 20 5 21 4 22 1 23
REMARK H PARENT 18 11 18 12 10 14
ROOT
ATOM      1  C   UNL     1     -14.778  -2.923   6.634  1.00  0.00    -0.048 A 
ATOM      2  C   UNL     1     -13.409  -2.713   6.813  1.00  0.00     0.006 A 
ATOM      3  C   UNL     1     -12.575  -2.496   5.720  1.00  0.00     0.026 A 
ATOM      4  C   UNL     1     -13.055  -2.557   4.409  1.00  0.00     0.038 A 
ATOM      5  C   UNL     1     -14.417  -2.824   4.226  1.00  0.00     0.026 A 
ATOM      6  C   UNL     1     -15.270  -3.006   5.326  1.00  0.00     0.006 A 
ENDROOT
BRANCH   1   7
ATOM      7  C   UNL     1     -15.707  -3.058   7.815  1.00  0.00     0.037 C 
BRANCH   7   8
ATOM      8  C   UNL     1     -15.213  -2.480   9.154  1.00  0.00     0.020 C 
BRANCH   8   9
ATOM      9  C   UNL     1     -15.943  -1.226   9.657  1.00  0.00     0.078 C 
BRANCH   9  10
ATOM     10  N   UNL     1     -15.625   0.001   8.940  1.00  0.00    -0.330 NA
ATOM     11  H   UNL     1     -15.729  -0.145   7.937  1.00  0.00     0.118 HD
ATOM     12  H   UNL     1     -14.645   0.246   9.081  1.00  0.00     0.118 HD
ENDBRANCH   9  10
ENDBRANCH   8   9
ENDBRANCH   7   8
ENDBRANCH   1   7
BRANCH   4  13
ATOM     13  N   UNL     1     -12.198  -2.457   3.297  1.00  0.00    -0.362 N 
ATOM     14  H   UNL     1     -11.418  -3.101   3.266  1.00  0.00     0.166 HD
BRANCH  13  15
ATOM     15  C   UNL     1     -12.186  -1.414   2.409  1.00  0.00     0.083 C 
BRANCH  15  16
ATOM     16  C   UNL     1     -11.140  -0.750   1.898  1.00  0.00     0.027 C 
BRANCH  16  17
ATOM     17  C   UNL     1      -9.900  -1.450   1.530  1.00  0.00    -0.003 A 
ATOM     18  C   UNL     1      -8.628  -0.969   1.886  1.00  0.00    -0.041 A 
ATOM     19  C   UNL     1      -9.937  -2.625   0.764  1.00  0.00     0.119 A 
ATOM     20  C   UNL     1      -7.495  -1.687   1.473  1.00  0.00     0.024 A 
ATOM     21  N   UNL     1      -8.856  -3.339   0.373  1.00  0.00    -0.264 NA
ATOM     22  C   UNL     1      -7.658  -2.852   0.741  1.00  0.00     0.111 A 
ATOM     23  C   UNL     1      -8.438   0.306   2.659  1.00  0.00     0.045 C 
ENDBRANCH  16  17
ENDBRANCH  15  16
ENDBRANCH  13  15
ENDBRANCH   4  13
TORSDOF 8
ENDMDL
MODEL 5
REMARK VINA RESULT:    -4.699      1.999      3.782
REMARK INTER + INTRA:          -7.403
REMARK INTER:                  -6.626
REMARK INTRA:                  -0.777
REMARK UNBOUND:                -0.643
REMARK SMILES Cc1ccncc1/C=C/Nc1ccc(CCCN)cc1
REMARK SMILES IDX 14 1 13 2 12 3 11 4 20 5 19 6 15 7 16 8 17 9 18 10 10 13
REMARK SMILES IDX 9 15 8 16 7 17 2 18 6 19 3 20 5 21 4 22 1 23
REMARK H PARENT 18 11 18 12 10 14
ROOT
ATOM      1  C   UNL     1     -13.088  -2.003   3.605  1.00  0.00    -0.048 A 
ATOM      2  C   UNL     1     -11.719  -2.275   3.579  1.00  0.00     0.006 A 
ATOM      3  C   UNL     1     -10.887  -1.650   2.655  1.00  0.00     0.026 A 
ATOM      4  C   UNL     1     -11.395  -0.794   1.674  1.00  0.00     0.038 A 
ATOM      5  C   UNL     1     -12.776  -0.565   1.662  1.00  0.00     0.026 A 
ATOM      6  C   UNL     1     -13.614  -1.162   2.616  1.00  0.00     0.006 A 
ENDROOT
BRANCH   1   7
ATOM      7  C   UNL     1     -13.982  -2.595   4.665  1.00  0.00     0.037 C 
BRANCH   7   8
ATOM      8  C   UNL     1     -13.356  -2.811   6.056  1.00  0.00     0.020 C 
BRANCH   8   9
ATOM      9  C   UNL     1     -14.330  -2.791   7.244  1.00  0.00     0.078 C 
BRANCH   9  10
ATOM     10  N   UNL     1     -15.698  -2.420   6.911  1.00  0.00    -0.330 NA
ATOM     11  H   UNL     1     -15.716  -1.491   6.492  1.00  0.00     0.118 HD
ATOM     12  H   UNL     1     -16.259  -2.347   7.760  1.00  0.00     0.118 HD
ENDBRANCH   9  10
ENDBRANCH   8   9
ENDBRANCH   7   8
ENDBRANCH   1   7
BRANCH   4  13
ATOM     13  N   UNL     1     -10.579  -0.253   0.663  1.00  0.00    -0.362 N 
ATOM     14  H   UNL     1     -11.007  -0.122  -0.245  1.00  0.00     0.166 HD
BRANCH  13  15
ATOM     15  C   UNL     1      -9.216  -0.136   0.737  1.00  0.00     0.083 C 
BRANCH  15  16
ATOM     16  C   UNL     1      -8.276  -0.697  -0.035  1.00  0.00     0.027 C 
BRANCH  16  17
ATOM     17  C   UNL     1      -7.478  -1.837   0.442  1.00  0.00    -0.003 A 
ATOM     18  C   UNL     1      -7.967  -3.155   0.434  1.00  0.00    -0.041 A 
ATOM     19  C   UNL     1      -6.192  -1.645   0.969  1.00  0.00     0.119 A 
ATOM     20  C   UNL     1      -7.148  -4.181   0.931  1.00  0.00     0.024 A 
ATOM     21  N   UNL     1      -5.382  -2.625   1.435  1.00  0.00    -0.264 NA
ATOM     22  C   UNL     1      -5.882  -3.873   1.401  1.00  0.00     0.111 A 
ATOM     23  C   UNL     1      -9.348  -3.499  -0.051  1.00  0.00     0.045 C 
ENDBRANCH  16  17
ENDBRANCH  15  16
ENDBRANCH  13  15
ENDBRANCH   4  13
TORSDOF 8
ENDMDL
MODEL 6
REMARK VINA RESULT:    -4.569      2.054      3.464
REMARK INTER + INTRA:          -7.216
REMARK INTER:                  -6.504
REMARK INTRA:                  -0.711
REMARK UNBOUND:                -0.643
REMARK SMILES Cc1ccncc1/C=C/Nc1ccc(CCCN)cc1
REMARK SMILES IDX 14 1 13 2 12 3 11 4 20 5 19 6 15 7 16 8 17 9 18 10 10 13
REMARK SMILES IDX 9 15 8 16 7 17 2 18 6 19 3 20 5 21 4 22 1 23
REMARK H PARENT 18 11 18 12 10 14
ROOT
ATOM      1  C   UNL     1     -13.859  -2.329   4.011  1.00  0.00    -0.048 A 
ATOM      2  C   UNL     1     -14.089  -1.373   3.019  1.00  0.00     0.006 A 
ATOM      3  C   UNL     1     -13.029  -0.810   2.315  1.00  0.00     0.026 A 
ATOM      4  C   UNL     1     -11.701  -1.117   2.623  1.00  0.00     0.038 A 
ATOM      5  C   UNL     1     -11.467  -2.032   3.656  1.00  0.00     0.026 A 
ATOM      6  C   UNL     1     -12.533  -2.632   4.343  1.00  0.00     0.006 A 
ENDROOT
BRANCH   1   7
ATOM      7  C   UNL     1     -15.003  -3.020   4.710  1.00  0.00     0.037 C 
BRANCH   7   8
ATOM      8  C   UNL     1     -14.957  -3.050   6.250  1.00  0.00     0.020 C 
BRANCH   8   9
ATOM      9  C   UNL     1     -16.314  -2.998   6.966  1.00  0.00     0.078 C 
BRANCH   9  10
ATOM     10  N   UNL     1     -16.512  -1.840   7.826  1.00  0.00    -0.330 NA
ATOM     11  H   UNL     1     -17.419  -1.898   8.286  1.00  0.00     0.118 HD
ATOM     12  H   UNL     1     -16.544  -0.987   7.267  1.00  0.00     0.118 HD
ENDBRANCH   9  10
ENDBRANCH   8   9
ENDBRANCH   7   8
ENDBRANCH   1   7
BRANCH   4  13
ATOM     13  N   UNL     1     -10.622  -0.463   1.998  1.00  0.00    -0.362 N 
ATOM     14  H   UNL     1     -10.261  -0.888   1.153  1.00  0.00     0.166 HD
BRANCH  13  15
ATOM     15  C   UNL     1      -9.873   0.532   2.568  1.00  0.00     0.083 C 
BRANCH  15  16
ATOM     16  C   UNL     1      -8.549   0.588   2.764  1.00  0.00     0.027 C 
BRANCH  16  17
ATOM     17  C   UNL     1      -7.650  -0.416   2.176  1.00  0.00    -0.003 A 
ATOM     18  C   UNL     1      -6.869  -0.155   1.036  1.00  0.00    -0.041 A 
ATOM     19  C   UNL     1      -7.562  -1.708   2.717  1.00  0.00     0.119 A 
ATOM     20  C   UNL     1      -6.055  -1.178   0.527  1.00  0.00     0.024 A 
ATOM     21  N   UNL     1      -6.769  -2.701   2.249  1.00  0.00    -0.264 NA
ATOM     22  C   UNL     1      -6.031  -2.409   1.164  1.00  0.00     0.111 A 
ATOM     23  C   UNL     1      -6.905   1.168   0.323  1.00  0.00     0.045 C 
ENDBRANCH  16  17
ENDBRANCH  15  16
ENDBRANCH  13  15
ENDBRANCH   4  13
TORSDOF 8
ENDMDL
MODEL 7
REMARK VINA RESULT:    -4.477      3.937      5.709
REMARK INTER + INTRA:          -7.083
REMARK INTER:                  -6.365
REMARK INTRA:                  -0.718
REMARK UNBOUND:                -0.643
REMARK SMILES Cc1ccncc1/C=C/Nc1ccc(CCCN)cc1
REMARK SMILES IDX 14 1 13 2 12 3 11 4 20 5 19 6 15 7 16 8 17 9 18 10 10 13
REMARK SMILES IDX 9 15 8 16 7 17 2 18 6 19 3 20 5 21 4 22 1 23
REMARK H PARENT 18 11 18 12 10 14
ROOT
ATOM      1  C   UNL     1     -14.054  -0.068   1.413  1.00  0.00    -0.048 A 
ATOM      2  C   UNL     1     -12.781   0.150   0.883  1.00  0.00     0.006 A 
ATOM      3  C   UNL     1     -11.674  -0.520   1.395  1.00  0.00     0.026 A 
ATOM      4  C   UNL     1     -11.778  -1.370   2.499  1.00  0.00     0.038 A 
ATOM      5  C   UNL     1     -13.045  -1.546   3.068  1.00  0.00     0.026 A 
ATOM      6  C   UNL     1     -14.171  -0.902   2.531  1.00  0.00     0.006 A 
ENDROOT
BRANCH   1   7
ATOM      7  C   UNL     1     -15.274   0.574   0.802  1.00  0.00     0.037 C 
BRANCH   7   8
ATOM      8  C   UNL     1     -15.376   0.543  -0.735  1.00  0.00     0.020 C 
BRANCH   8   9
ATOM      9  C   UNL     1     -16.798   0.553  -1.316  1.00  0.00     0.078 C 
BRANCH   9  10
ATOM     10  N   UNL     1     -17.027  -0.391  -2.400  1.00  0.00    -0.330 NA
ATOM     11  H   UNL     1     -16.921   0.077  -3.299  1.00  0.00     0.118 HD
ATOM     12  H   UNL     1     -17.990  -0.726  -2.378  1.00  0.00     0.118 HD
ENDBRANCH   9  10
ENDBRANCH   8   9
ENDBRANCH   7   8
ENDBRANCH   1   7
BRANCH   4  13
ATOM     13  N   UNL     1     -10.646  -1.958   3.096  1.00  0.00    -0.362 N 
ATOM     14  H   UNL     1     -10.656  -2.040   4.105  1.00  0.00     0.166 HD
BRANCH  13  15
ATOM     15  C   UNL     1      -9.454  -2.183   2.460  1.00  0.00     0.083 C 
BRANCH  15  16
ATOM     16  C   UNL     1      -8.246  -1.668   2.722  1.00  0.00     0.027 C 
BRANCH  16  17
ATOM     17  C   UNL     1      -7.614  -0.704   1.808  1.00  0.00    -0.003 A 
ATOM     18  C   UNL     1      -6.644  -1.085   0.864  1.00  0.00    -0.041 A 
ATOM     19  C   UNL     1      -7.931   0.661   1.870  1.00  0.00     0.119 A 
ATOM     20  C   UNL     1      -6.074  -0.096   0.047  1.00  0.00     0.024 A 
ATOM     21  N   UNL     1      -7.404   1.625   1.079  1.00  0.00    -0.264 NA
ATOM     22  C   UNL     1      -6.488   1.220   0.181  1.00  0.00     0.111 A 
ATOM     23  C   UNL     1      -6.170  -2.504   0.725  1.00  0.00     0.045 C 
ENDBRANCH  16  17
ENDBRANCH  15  16
ENDBRANCH  13  15
ENDBRANCH   4  13
TORSDOF 8
ENDMDL
MODEL 8
REMARK VINA RESULT:    -4.467      2.057      8.398
REMARK INTER + INTRA:          -7.069
REMARK INTER:                  -6.600
REMARK INTRA:                  -0.469
REMARK UNBOUND:                -0.643
REMARK SMILES Cc1ccncc1/C=C/Nc1ccc(CCCN)cc1
REMARK SMILES IDX 14 1 13 2 12 3 11 4 20 5 19 6 15 7 16 8 17 9 18 10 10 13
REMARK SMILES IDX 9 15 8 16 7 17 2 18 6 19 3 20 5 21 4 22 1 23
REMARK H PARENT 18 11 18 12 10 14
ROOT
ATOM      1  C   UNL     1      -8.641  -1.190   1.119  1.00  0.00    -0.048 A 
ATOM      2  C   UNL     1      -9.732  -2.002   0.804  1.00  0.00     0.006 A 
ATOM      3  C   UNL     1     -10.973  -1.785   1.396  1.00  0.00     0.026 A 
ATOM      4  C   UNL     1     -11.155  -0.809   2.378  1.00  0.00     0.038 A 
ATOM      5  C   UNL     1     -10.047  -0.031   2.737  1.00  0.00     0.026 A 
ATOM      6  C   UNL     1      -8.803  -0.220   2.115  1.00  0.00     0.006 A 
ENDROOT
BRANCH   1   7
ATOM      7  C   UNL     1      -7.319  -1.350   0.410  1.00  0.00     0.037 C 
BRANCH   7   8
ATOM      8  C   UNL     1      -6.271  -2.248   1.094  1.00  0.00     0.020 C 
BRANCH   8   9
ATOM      9  C   UNL     1      -6.712  -3.688   1.395  1.00  0.00     0.078 C 
BRANCH   9  10
ATOM     10  N   UNL     1      -6.265  -4.683   0.430  1.00  0.00    -0.330 NA
ATOM     11  H   UNL     1      -6.512  -5.617   0.753  1.00  0.00     0.118 HD
ATOM     12  H   UNL     1      -5.247  -4.677   0.365  1.00  0.00     0.118 HD
ENDBRANCH   9  10
ENDBRANCH   8   9
ENDBRANCH   7   8
ENDBRANCH   1   7
BRANCH   4  13
ATOM     13  N   UNL     1     -12.375  -0.663   3.067  1.00  0.00    -0.362 N 
ATOM     14  H   UNL     1     -12.437   0.105   3.723  1.00  0.00     0.166 HD
BRANCH  13  15
ATOM     15  C   UNL     1     -13.366  -1.608   3.110  1.00  0.00     0.083 C 
BRANCH  15  16
ATOM     16  C   UNL     1     -13.464  -2.695   3.886  1.00  0.00     0.027 C 
BRANCH  16  17
ATOM     17  C   UNL     1     -14.511  -2.807   4.912  1.00  0.00    -0.003 A 
ATOM     18  C   UNL     1     -14.222  -2.800   6.288  1.00  0.00    -0.041 A 
ATOM     19  C   UNL     1     -15.858  -2.966   4.552  1.00  0.00     0.119 A 
ATOM     20  C   UNL     1     -15.280  -2.936   7.200  1.00  0.00     0.024 A 
ATOM     21  N   UNL     1     -16.892  -3.080   5.418  1.00  0.00    -0.264 NA
ATOM     22  C   UNL     1     -16.576  -3.059   6.725  1.00  0.00     0.111 A 
ATOM     23  C   UNL     1     -12.819  -2.691   6.815  1.00  0.00     0.045 C 
ENDBRANCH  16  17
ENDBRANCH  15  16
ENDBRANCH  13  15
ENDBRANCH   4  13
TORSDOF 8
ENDMDL
MODEL 9
REMARK VINA RESULT:    -4.345      1.621      2.485
REMARK INTER + INTRA:          -6.894
REMARK INTER:                  -6.240
REMARK INTRA:                  -0.654
REMARK UNBOUND:                -0.643
REMARK SMILES Cc1ccncc1/C=C/Nc1ccc(CCCN)cc1
REMARK SMILES IDX 14 1 13 2 12 3 11 4 20 5 19 6 15 7 16 8 17 9 18 10 10 13
REMARK SMILES IDX 9 15 8 16 7 17 2 18 6 19 3 20 5 21 4 22 1 23
REMARK H PARENT 18 11 18 12 10 14
ROOT
ATOM      1  C   UNL     1     -14.177  -2.673   4.750  1.00  0.00    -0.048 A 
ATOM      2  C   UNL     1     -12.871  -3.047   5.071  1.00  0.00     0.006 A 
ATOM      3  C   UNL     1     -11.799  -2.623   4.292  1.00  0.00     0.026 A 
ATOM      4  C   UNL     1     -11.990  -1.878   3.126  1.00  0.00     0.038 A 
ATOM      5  C   UNL     1     -13.304  -1.550   2.771  1.00  0.00     0.026 A 
ATOM      6  C   UNL     1     -14.386  -1.943   3.574  1.00  0.00     0.006 A 
ENDROOT
BRANCH   1   7
ATOM      7  C   UNL     1     -15.337  -3.042   5.641  1.00  0.00     0.037 C 
BRANCH   7   8
ATOM      8  C   UNL     1     -15.075  -3.024   7.160  1.00  0.00     0.020 C 
BRANCH   8   9
ATOM      9  C   UNL     1     -16.276  -2.665   8.046  1.00  0.00     0.078 C 
BRANCH   9  10
ATOM     10  N   UNL     1     -16.404  -1.250   8.365  1.00  0.00    -0.330 NA
ATOM     11  H   UNL     1     -17.362  -1.041   8.645  1.00  0.00     0.118 HD
ATOM     12  H   UNL     1     -16.233  -0.685   7.533  1.00  0.00     0.118 HD
ENDBRANCH   9  10
ENDBRANCH   8   9
ENDBRANCH   7   8
ENDBRANCH   1   7
BRANCH   4  13
ATOM     13  N   UNL     1     -10.922  -1.547   2.270  1.00  0.00    -0.362 N 
ATOM     14  H   UNL     1     -10.388  -0.721   2.509  1.00  0.00     0.166 HD
BRANCH  13  15
ATOM     15  C   UNL     1     -10.716  -2.090   1.030  1.00  0.00     0.083 C 
BRANCH  15  16
ATOM     16  C   UNL     1      -9.614  -2.665   0.530  1.00  0.00     0.027 C 
BRANCH  16  17
ATOM     17  C   UNL     1      -8.373  -1.897   0.342  1.00  0.00    -0.003 A 
ATOM     18  C   UNL     1      -7.112  -2.402   0.702  1.00  0.00    -0.041 A 
ATOM     19  C   UNL     1      -8.405  -0.595  -0.179  1.00  0.00     0.119 A 
ATOM     20  C   UNL     1      -5.982  -1.593   0.510  1.00  0.00     0.024 A 
ATOM     21  N   UNL     1      -7.324   0.192  -0.388  1.00  0.00    -0.264 NA
ATOM     22  C   UNL     1      -6.135  -0.330  -0.040  1.00  0.00     0.111 A 
ATOM     23  C   UNL     1      -6.935  -3.761   1.321  1.00  0.00     0.045 C 
ENDBRANCH  16  17
ENDBRANCH  15  16
ENDBRANCH  13  15
ENDBRANCH   4  13
TORSDOF 8
ENDMDL
