MODEL 1
REMARK VINA RESULT:    -5.046      0.000      0.000
REMARK INTER + INTRA:          -7.814
REMARK INTER:                  -7.259
REMARK INTRA:                  -0.556
REMARK UNBOUND:                -0.556
REMARK SMILES Cc1ccncc1/C=C/Nc1ccc(CCCN)cc1
REMARK SMILES IDX 14 1 13 2 12 3 11 4 20 5 19 6 15 7 16 8 17 9 18 10 10 13
REMARK SMILES IDX 9 15 8 16 7 17 2 18 6 19 3 20 5 21 4 22 1 23
REMARK H PARENT 18 11 18 12 10 14
ROOT
ATOM      1  C   UNL     1       4.428   8.226   3.216  1.00  0.00    -0.048 A 
ATOM      2  C   UNL     1       5.095   8.812   2.139  1.00  0.00     0.006 A 
ATOM      3  C   UNL     1       5.287  10.190   2.087  1.00  0.00     0.026 A 
ATOM      4  C   UNL     1       4.758  11.040   3.061  1.00  0.00     0.038 A 
ATOM      5  C   UNL     1       4.040  10.458   4.113  1.00  0.00     0.026 A 
ATOM      6  C   UNL     1       3.876   9.067   4.190  1.00  0.00     0.006 A 
ENDROOT
BRANCH   1   7
ATOM      7  C   UNL     1       4.303   6.727   3.335  1.00  0.00     0.037 C 
BRANCH   7   8
ATOM      8  C   UNL     1       2.926   6.180   3.758  1.00  0.00     0.020 C 
BRANCH   8   9
ATOM      9  C   UNL     1       2.920   5.238   4.971  1.00  0.00     0.078 C 
BRANCH   9  10
ATOM     10  N   UNL     1       3.190   3.840   4.667  1.00  0.00    -0.330 NA
ATOM     11  H   UNL     1       3.811   3.772   3.862  1.00  0.00     0.118 HD
ATOM     12  H   UNL     1       2.329   3.369   4.388  1.00  0.00     0.118 HD
ENDBRANCH   9  10
ENDBRANCH   8   9
ENDBRANCH   7   8
ENDBRANCH   1   7
BRANCH   4  13
ATOM     13  N   UNL     1       4.845  12.441   2.953  1.00  0.00    -0.362 N 
ATOM     14  H   UNL     1       5.310  12.927   3.709  1.00  0.00     0.166 HD
BRANCH  13  15
ATOM     15  C   UNL     1       4.141  13.202   2.057  1.00  0.00     0.083 C 
BRANCH  15  16
ATOM     16  C   UNL     1       3.457  14.335   2.265  1.00  0.00     0.027 C 
BRANCH  16  17
ATOM     17  C   UNL     1       4.140  15.636   2.333  1.00  0.00    -0.003 A 
ATOM     18  C   UNL     1       3.468  16.824   2.673  1.00  0.00    -0.041 A 
ATOM     19  C   UNL     1       5.503  15.750   2.019  1.00  0.00     0.119 A 
ATOM     20  C   UNL     1       4.192  18.025   2.691  1.00  0.00     0.024 A 
ATOM     21  N   UNL     1       6.220  16.898   2.048  1.00  0.00    -0.264 NA
ATOM     22  C   UNL     1       5.544  18.010   2.388  1.00  0.00     0.111 A 
ATOM     23  C   UNL     1       1.998  16.857   2.980  1.00  0.00     0.045 C 
ENDBRANCH  16  17
ENDBRANCH  15  16
ENDBRANCH  13  15
ENDBRANCH   4  13
TORSDOF 8
ENDMDL
MODEL 2
REMARK VINA RESULT:    -5.021      4.531      5.724
REMARK INTER + INTRA:          -7.779
REMARK INTER:                  -7.220
REMARK INTRA:                  -0.559
REMARK UNBOUND:                -0.556
REMARK SMILES Cc1ccncc1/C=C/Nc1ccc(CCCN)cc1
REMARK SMILES IDX 14 1 13 2 12 3 11 4 20 5 19 6 15 7 16 8 17 9 18 10 10 13
REMARK SMILES IDX 9 15 8 16 7 17 2 18 6 19 3 20 5 21 4 22 1 23
REMARK H PARENT 18 11 18 12 10 14
ROOT
ATOM      1  C   UNL     1       3.519   8.627   2.825  1.00  0.00    -0.048 A 
ATOM      2  C   UNL     1       3.339   9.203   4.084  1.00  0.00     0.006 A 
ATOM      3  C   UNL     1       4.267  10.108   4.591  1.00  0.00     0.026 A 
ATOM      4  C   UNL     1       5.442  10.414   3.901  1.00  0.00     0.038 A 
ATOM      5  C   UNL     1       5.652   9.794   2.663  1.00  0.00     0.026 A 
ATOM      6  C   UNL     1       4.701   8.910   2.130  1.00  0.00     0.006 A 
ENDROOT
BRANCH   1   7
ATOM      7  C   UNL     1       2.471   7.724   2.222  1.00  0.00     0.037 C 
BRANCH   7   8
ATOM      8  C   UNL     1       2.979   6.574   1.331  1.00  0.00     0.020 C 
BRANCH   8   9
ATOM      9  C   UNL     1       2.561   6.632  -0.146  1.00  0.00     0.078 C 
BRANCH   9  10
ATOM     10  N   UNL     1       1.361   5.875  -0.475  1.00  0.00    -0.330 NA
ATOM     11  H   UNL     1       1.617   4.969  -0.864  1.00  0.00     0.118 HD
ATOM     12  H   UNL     1       0.837   6.350  -1.210  1.00  0.00     0.118 HD
ENDBRANCH   9  10
ENDBRANCH   8   9
ENDBRANCH   7   8
ENDBRANCH   1   7
BRANCH   4  13
ATOM     13  N   UNL     1       6.441  11.235   4.460  1.00  0.00    -0.362 N 
ATOM     14  H   UNL     1       6.663  12.086   3.957  1.00  0.00     0.166 HD
BRANCH  13  15
ATOM     15  C   UNL     1       7.294  10.858   5.462  1.00  0.00     0.083 C 
BRANCH  15  16
ATOM     16  C   UNL     1       8.620  11.029   5.554  1.00  0.00     0.027 C 
BRANCH  16  17
ATOM     17  C   UNL     1       9.191  12.262   6.118  1.00  0.00    -0.003 A 
ATOM     18  C   UNL     1      10.571  12.530   6.100  1.00  0.00    -0.041 A 
ATOM     19  C   UNL     1       8.372  13.216   6.739  1.00  0.00     0.119 A 
ATOM     20  C   UNL     1      11.034  13.720   6.683  1.00  0.00     0.024 A 
ATOM     21  N   UNL     1       8.799  14.376   7.290  1.00  0.00    -0.264 NA
ATOM     22  C   UNL     1      10.124  14.601   7.244  1.00  0.00     0.111 A 
ATOM     23  C   UNL     1      11.570  11.571   5.516  1.00  0.00     0.045 C 
ENDBRANCH  16  17
ENDBRANCH  15  16
ENDBRANCH  13  15
ENDBRANCH   4  13
TORSDOF 8
ENDMDL
MODEL 3
REMARK VINA RESULT:    -4.925      2.033      2.528
REMARK INTER + INTRA:          -7.640
REMARK INTER:                  -7.121
REMARK INTRA:                  -0.519
REMARK UNBOUND:                -0.556
REMARK SMILES Cc1ccncc1/C=C/Nc1ccc(CCCN)cc1
REMARK SMILES IDX 14 1 13 2 12 3 11 4 20 5 19 6 15 7 16 8 17 9 18 10 10 13
REMARK SMILES IDX 9 15 8 16 7 17 2 18 6 19 3 20 5 21 4 22 1 23
REMARK H PARENT 18 11 18 12 10 14
ROOT
ATOM      1  C   UNL     1       4.388   7.750   2.500  1.00  0.00    -0.048 A 
ATOM      2  C   UNL     1       5.199   8.511   1.655  1.00  0.00     0.006 A 
ATOM      3  C   UNL     1       5.433   9.858   1.918  1.00  0.00     0.026 A 
ATOM      4  C   UNL     1       4.809  10.515   2.982  1.00  0.00     0.038 A 
ATOM      5  C   UNL     1       3.951   9.767   3.796  1.00  0.00     0.026 A 
ATOM      6  C   UNL     1       3.742   8.400   3.558  1.00  0.00     0.006 A 
ENDROOT
BRANCH   1   7
ATOM      7  C   UNL     1       4.208   6.269   2.283  1.00  0.00     0.037 C 
BRANCH   7   8
ATOM      8  C   UNL     1       2.890   5.821   1.623  1.00  0.00     0.020 C 
BRANCH   8   9
ATOM      9  C   UNL     1       2.501   6.554   0.331  1.00  0.00     0.078 C 
BRANCH   9  10
ATOM     10  N   UNL     1       2.943   5.912  -0.899  1.00  0.00    -0.330 NA
ATOM     11  H   UNL     1       2.613   6.439  -1.706  1.00  0.00     0.118 HD
ATOM     12  H   UNL     1       2.519   4.988  -0.985  1.00  0.00     0.118 HD
ENDBRANCH   9  10
ENDBRANCH   8   9
ENDBRANCH   7   8
ENDBRANCH   1   7
BRANCH   4  13
ATOM     13  N   UNL     1       4.947  11.902   3.183  1.00  0.00    -0.362 N 
ATOM     14  H   UNL     1       5.537  12.193   3.953  1.00  0.00     0.166 HD
BRANCH  13  15
ATOM     15  C   UNL     1       4.160  12.859   2.599  1.00  0.00     0.083 C 
BRANCH  15  16
ATOM     16  C   UNL     1       4.525  13.978   1.959  1.00  0.00     0.027 C 
BRANCH  16  17
ATOM     17  C   UNL     1       3.905  15.274   2.275  1.00  0.00    -0.003 A 
ATOM     18  C   UNL     1       4.634  16.475   2.290  1.00  0.00    -0.041 A 
ATOM     19  C   UNL     1       2.546  15.357   2.617  1.00  0.00     0.119 A 
ATOM     20  C   UNL     1       3.969  17.664   2.627  1.00  0.00     0.024 A 
ATOM     21  N   UNL     1       1.885  16.496   2.927  1.00  0.00    -0.264 NA
ATOM     22  C   UNL     1       2.615  17.626   2.921  1.00  0.00     0.111 A 
ATOM     23  C   UNL     1       6.107  16.526   1.997  1.00  0.00     0.045 C 
ENDBRANCH  16  17
ENDBRANCH  15  16
ENDBRANCH  13  15
ENDBRANCH   4  13
TORSDOF 8
ENDMDL
MODEL 4
REMARK VINA RESULT:    -4.869      4.268      5.391
REMARK INTER + INTRA:          -7.560
REMARK INTER:                  -7.069
REMARK INTRA:                  -0.492
REMARK UNBOUND:                -0.556
REMARK SMILES Cc1ccncc1/C=C/Nc1ccc(CCCN)cc1
REMARK SMILES IDX 14 1 13 2 12 3 11 4 20 5 19 6 15 7 16 8 17 9 18 10 10 13
REMARK SMILES IDX 9 15 8 16 7 17 2 18 6 19 3 20 5 21 4 22 1 23
REMARK H PARENT 18 11 18 12 10 14
ROOT
ATOM      1  C   UNL     1       3.309   8.376   3.181  1.00  0.00    -0.048 A 
ATOM      2  C   UNL     1       3.215   9.112   4.364  1.00  0.00     0.006 A 
ATOM      3  C   UNL     1       4.173  10.069   4.683  1.00  0.00     0.026 A 
ATOM      4  C   UNL     1       5.297  10.276   3.880  1.00  0.00     0.038 A 
ATOM      5  C   UNL     1       5.422   9.500   2.722  1.00  0.00     0.026 A 
ATOM      6  C   UNL     1       4.439   8.560   2.375  1.00  0.00     0.006 A 
ENDROOT
BRANCH   1   7
ATOM      7  C   UNL     1       2.225   7.409   2.775  1.00  0.00     0.037 C 
BRANCH   7   8
ATOM      8  C   UNL     1       2.500   5.914   3.032  1.00  0.00     0.020 C 
BRANCH   8   9
ATOM      9  C   UNL     1       3.091   5.565   4.406  1.00  0.00     0.078 C 
BRANCH   9  10
ATOM     10  N   UNL     1       2.179   4.882   5.312  1.00  0.00    -0.330 NA
ATOM     11  H   UNL     1       1.917   3.976   4.926  1.00  0.00     0.118 HD
ATOM     12  H   UNL     1       1.307   5.406   5.394  1.00  0.00     0.118 HD
ENDBRANCH   9  10
ENDBRANCH   8   9
ENDBRANCH   7   8
ENDBRANCH   1   7
BRANCH   4  13
ATOM     13  N   UNL     1       6.329  11.157   4.256  1.00  0.00    -0.362 N 
ATOM     14  H   UNL     1       6.660  11.799   3.547  1.00  0.00     0.166 HD
BRANCH  13  15
ATOM     15  C   UNL     1       7.079  11.042   5.397  1.00  0.00     0.083 C 
BRANCH  15  16
ATOM     16  C   UNL     1       8.410  11.089   5.542  1.00  0.00     0.027 C 
BRANCH  16  17
ATOM     17  C   UNL     1       9.074  12.276   6.101  1.00  0.00    -0.003 A 
ATOM     18  C   UNL     1      10.467  12.459   6.042  1.00  0.00    -0.041 A 
ATOM     19  C   UNL     1       8.335  13.271   6.759  1.00  0.00     0.119 A 
ATOM     20  C   UNL     1      11.020  13.610   6.622  1.00  0.00     0.024 A 
ATOM     21  N   UNL     1       8.851  14.395   7.309  1.00  0.00    -0.264 NA
ATOM     22  C   UNL     1      10.185  14.539   7.223  1.00  0.00     0.111 A 
ATOM     23  C   UNL     1      11.385  11.448   5.415  1.00  0.00     0.045 C 
ENDBRANCH  16  17
ENDBRANCH  15  16
ENDBRANCH  13  15
ENDBRANCH   4  13
TORSDOF 8
ENDMDL
MODEL 5
REMARK VINA RESULT:    -4.848      1.646      1.819
REMARK INTER + INTRA:          -7.530
REMARK INTER:                  -7.003
REMARK INTRA:                  -0.527
REMARK UNBOUND:                -0.556
REMARK SMILES Cc1ccncc1/C=C/Nc1ccc(CCCN)cc1
REMARK SMILES IDX 14 1 13 2 12 3 11 4 20 5 19 6 15 7 16 8 17 9 18 10 10 13
REMARK SMILES IDX 9 15 8 16 7 17 2 18 6 19 3 20 5 21 4 22 1 23
REMARK H PARENT 18 11 18 12 10 14
ROOT
ATOM      1  C   UNL     1       4.548   8.013   2.481  1.00  0.00    -0.048 A 
ATOM      2  C   UNL     1       5.329   8.807   1.640  1.00  0.00     0.006 A 
ATOM      3  C   UNL     1       5.469  10.171   1.878  1.00  0.00     0.026 A 
ATOM      4  C   UNL     1       4.777  10.808   2.911  1.00  0.00     0.038 A 
ATOM      5  C   UNL     1       3.948  10.023   3.721  1.00  0.00     0.026 A 
ATOM      6  C   UNL     1       3.834   8.640   3.509  1.00  0.00     0.006 A 
ENDROOT
BRANCH   1   7
ATOM      7  C   UNL     1       4.470   6.518   2.293  1.00  0.00     0.037 C 
BRANCH   7   8
ATOM      8  C   UNL     1       3.181   5.968   1.652  1.00  0.00     0.020 C 
BRANCH   8   9
ATOM      9  C   UNL     1       2.720   6.663   0.362  1.00  0.00     0.078 C 
BRANCH   9  10
ATOM     10  N   UNL     1       2.902   5.885  -0.855  1.00  0.00    -0.330 NA
ATOM     11  H   UNL     1       2.354   6.290  -1.613  1.00  0.00     0.118 HD
ATOM     12  H   UNL     1       2.537   4.941  -0.727  1.00  0.00     0.118 HD
ENDBRANCH   9  10
ENDBRANCH   8   9
ENDBRANCH   7   8
ENDBRANCH   1   7
BRANCH   4  13
ATOM     13  N   UNL     1       4.819  12.205   3.085  1.00  0.00    -0.362 N 
ATOM     14  H   UNL     1       4.972  12.541   4.028  1.00  0.00     0.166 HD
BRANCH  13  15
ATOM     15  C   UNL     1       4.421  13.122   2.149  1.00  0.00     0.083 C 
BRANCH  15  16
ATOM     16  C   UNL     1       3.655  14.210   2.304  1.00  0.00     0.027 C 
BRANCH  16  17
ATOM     17  C   UNL     1       4.243  15.557   2.347  1.00  0.00    -0.003 A 
ATOM     18  C   UNL     1       3.493  16.697   2.685  1.00  0.00    -0.041 A 
ATOM     19  C   UNL     1       5.589  15.765   2.009  1.00  0.00     0.119 A 
ATOM     20  C   UNL     1       4.129  17.948   2.678  1.00  0.00     0.024 A 
ATOM     21  N   UNL     1       6.222  16.962   2.014  1.00  0.00    -0.264 NA
ATOM     22  C   UNL     1       5.474  18.027   2.353  1.00  0.00     0.111 A 
ATOM     23  C   UNL     1       2.029  16.628   3.016  1.00  0.00     0.045 C 
ENDBRANCH  16  17
ENDBRANCH  15  16
ENDBRANCH  13  15
ENDBRANCH   4  13
TORSDOF 8
ENDMDL
MODEL 6
REMARK VINA RESULT:    -4.788      1.336      1.871
REMARK INTER + INTRA:          -7.443
REMARK INTER:                  -6.857
REMARK INTRA:                  -0.586
REMARK UNBOUND:                -0.556
REMARK SMILES Cc1ccncc1/C=C/Nc1ccc(CCCN)cc1
REMARK SMILES IDX 14 1 13 2 12 3 11 4 20 5 19 6 15 7 16 8 17 9 18 10 10 13
REMARK SMILES IDX 9 15 8 16 7 17 2 18 6 19 3 20 5 21 4 22 1 23
REMARK H PARENT 18 11 18 12 10 14
ROOT
ATOM      1  C   UNL     1       4.386   7.648   2.629  1.00  0.00    -0.048 A 
ATOM      2  C   UNL     1       5.167   8.345   1.704  1.00  0.00     0.006 A 
ATOM      3  C   UNL     1       5.453   9.694   1.889  1.00  0.00     0.026 A 
ATOM      4  C   UNL     1       4.911  10.418   2.954  1.00  0.00     0.038 A 
ATOM      5  C   UNL     1       4.081   9.735   3.850  1.00  0.00     0.026 A 
ATOM      6  C   UNL     1       3.820   8.365   3.690  1.00  0.00     0.006 A 
ENDROOT
BRANCH   1   7
ATOM      7  C   UNL     1       4.153   6.165   2.493  1.00  0.00     0.037 C 
BRANCH   7   8
ATOM      8  C   UNL     1       2.860   5.607   3.119  1.00  0.00     0.020 C 
BRANCH   8   9
ATOM      9  C   UNL     1       3.044   4.650   4.306  1.00  0.00     0.078 C 
BRANCH   9  10
ATOM     10  N   UNL     1       2.219   4.946   5.469  1.00  0.00    -0.330 NA
ATOM     11  H   UNL     1       2.799   5.309   6.225  1.00  0.00     0.118 HD
ATOM     12  H   UNL     1       1.803   4.088   5.832  1.00  0.00     0.118 HD
ENDBRANCH   9  10
ENDBRANCH   8   9
ENDBRANCH   7   8
ENDBRANCH   1   7
BRANCH   4  13
ATOM     13  N   UNL     1       5.099  11.808   3.081  1.00  0.00    -0.362 N 
ATOM     14  H   UNL     1       5.880  12.111   3.649  1.00  0.00     0.166 HD
BRANCH  13  15
ATOM     15  C   UNL     1       4.180  12.758   2.721  1.00  0.00     0.083 C 
BRANCH  15  16
ATOM     16  C   UNL     1       4.325  13.808   1.902  1.00  0.00     0.027 C 
BRANCH  16  17
ATOM     17  C   UNL     1       3.789  15.131   2.257  1.00  0.00    -0.003 A 
ATOM     18  C   UNL     1       4.582  16.292   2.252  1.00  0.00    -0.041 A 
ATOM     19  C   UNL     1       2.453  15.282   2.658  1.00  0.00     0.119 A 
ATOM     20  C   UNL     1       3.996  17.510   2.627  1.00  0.00     0.024 A 
ATOM     21  N   UNL     1       1.868  16.452   3.006  1.00  0.00    -0.264 NA
ATOM     22  C   UNL     1       2.656  17.541   2.979  1.00  0.00     0.111 A 
ATOM     23  C   UNL     1       6.042  16.268   1.896  1.00  0.00     0.045 C 
ENDBRANCH  16  17
ENDBRANCH  15  16
ENDBRANCH  13  15
ENDBRANCH   4  13
TORSDOF 8
ENDMDL
MODEL 7
REMARK VINA RESULT:    -4.718      1.849      8.716
REMARK INTER + INTRA:          -7.343
REMARK INTER:                  -6.687
REMARK INTRA:                  -0.655
REMARK UNBOUND:                -0.556
REMARK SMILES Cc1ccncc1/C=C/Nc1ccc(CCCN)cc1
REMARK SMILES IDX 14 1 13 2 12 3 11 4 20 5 19 6 15 7 16 8 17 9 18 10 10 13
REMARK SMILES IDX 9 15 8 16 7 17 2 18 6 19 3 20 5 21 4 22 1 23
REMARK H PARENT 18 11 18 12 10 14
ROOT
ATOM      1  C   UNL     1       3.679  16.562   2.502  1.00  0.00    -0.048 A 
ATOM      2  C   UNL     1       4.969  16.075   2.282  1.00  0.00     0.006 A 
ATOM      3  C   UNL     1       5.188  14.721   2.049  1.00  0.00     0.026 A 
ATOM      4  C   UNL     1       4.147  13.791   2.103  1.00  0.00     0.038 A 
ATOM      5  C   UNL     1       2.860  14.269   2.380  1.00  0.00     0.026 A 
ATOM      6  C   UNL     1       2.628  15.639   2.578  1.00  0.00     0.006 A 
ENDROOT
BRANCH   1   7
ATOM      7  C   UNL     1       3.417  18.039   2.655  1.00  0.00     0.037 C 
BRANCH   7   8
ATOM      8  C   UNL     1       3.045  18.533   4.066  1.00  0.00     0.020 C 
BRANCH   8   9
ATOM      9  C   UNL     1       4.210  18.693   5.053  1.00  0.00     0.078 C 
BRANCH   9  10
ATOM     10  N   UNL     1       4.020  18.043   6.341  1.00  0.00    -0.330 NA
ATOM     11  H   UNL     1       4.109  18.725   7.093  1.00  0.00     0.118 HD
ATOM     12  H   UNL     1       4.761  17.360   6.503  1.00  0.00     0.118 HD
ENDBRANCH   9  10
ENDBRANCH   8   9
ENDBRANCH   7   8
ENDBRANCH   1   7
BRANCH   4  13
ATOM     13  N   UNL     1       4.378  12.407   1.987  1.00  0.00    -0.362 N 
ATOM     14  H   UNL     1       3.999  11.951   1.166  1.00  0.00     0.166 HD
BRANCH  13  15
ATOM     15  C   UNL     1       4.836  11.603   2.996  1.00  0.00     0.083 C 
BRANCH  15  16
ATOM     16  C   UNL     1       5.240  10.326   2.944  1.00  0.00     0.027 C 
BRANCH  16  17
ATOM     17  C   UNL     1       4.327   9.224   3.281  1.00  0.00    -0.003 A 
ATOM     18  C   UNL     1       4.222   8.064   2.494  1.00  0.00    -0.041 A 
ATOM     19  C   UNL     1       3.483   9.305   4.399  1.00  0.00     0.119 A 
ATOM     20  C   UNL     1       3.308   7.070   2.876  1.00  0.00     0.024 A 
ATOM     21  N   UNL     1       2.609   8.349   4.792  1.00  0.00    -0.264 NA
ATOM     22  C   UNL     1       2.545   7.250   4.019  1.00  0.00     0.111 A 
ATOM     23  C   UNL     1       5.026   7.867   1.239  1.00  0.00     0.045 C 
ENDBRANCH  16  17
ENDBRANCH  15  16
ENDBRANCH  13  15
ENDBRANCH   4  13
TORSDOF 8
ENDMDL
MODEL 8
REMARK VINA RESULT:    -4.425      4.627      8.633
REMARK INTER + INTRA:          -6.920
REMARK INTER:                  -6.260
REMARK INTRA:                  -0.661
REMARK UNBOUND:                -0.556
REMARK SMILES Cc1ccncc1/C=C/Nc1ccc(CCCN)cc1
REMARK SMILES IDX 14 1 13 2 12 3 11 4 20 5 19 6 15 7 16 8 17 9 18 10 10 13
REMARK SMILES IDX 9 15 8 16 7 17 2 18 6 19 3 20 5 21 4 22 1 23
REMARK H PARENT 18 11 18 12 10 14
ROOT
ATOM      1  C   UNL     1      10.265  12.762   6.378  1.00  0.00    -0.048 A 
ATOM      2  C   UNL     1      10.405  11.503   5.791  1.00  0.00     0.006 A 
ATOM      3  C   UNL     1       9.288  10.788   5.367  1.00  0.00     0.026 A 
ATOM      4  C   UNL     1       7.992  11.263   5.580  1.00  0.00     0.038 A 
ATOM      5  C   UNL     1       7.848  12.500   6.220  1.00  0.00     0.026 A 
ATOM      6  C   UNL     1       8.971  13.242   6.615  1.00  0.00     0.006 A 
ENDROOT
BRANCH   1   7
ATOM      7  C   UNL     1      11.471  13.589   6.748  1.00  0.00     0.037 C 
BRANCH   7   8
ATOM      8  C   UNL     1      11.269  15.116   6.814  1.00  0.00     0.020 C 
BRANCH   8   9
ATOM      9  C   UNL     1      11.570  15.890   5.522  1.00  0.00     0.078 C 
BRANCH   9  10
ATOM     10  N   UNL     1      10.440  16.039   4.616  1.00  0.00    -0.330 NA
ATOM     11  H   UNL     1       9.665  15.454   4.926  1.00  0.00     0.118 HD
ATOM     12  H   UNL     1      10.686  15.696   3.687  1.00  0.00     0.118 HD
ENDBRANCH   9  10
ENDBRANCH   8   9
ENDBRANCH   7   8
ENDBRANCH   1   7
BRANCH   4  13
ATOM     13  N   UNL     1       6.856  10.493   5.263  1.00  0.00    -0.362 N 
ATOM     14  H   UNL     1       6.753   9.613   5.751  1.00  0.00     0.166 HD
BRANCH  13  15
ATOM     15  C   UNL     1       6.039  10.712   4.185  1.00  0.00     0.083 C 
BRANCH  15  16
ATOM     16  C   UNL     1       4.800  10.256   3.957  1.00  0.00     0.027 C 
BRANCH  16  17
ATOM     17  C   UNL     1       4.548   9.199   2.966  1.00  0.00    -0.003 A 
ATOM     18  C   UNL     1       3.542   8.231   3.135  1.00  0.00    -0.041 A 
ATOM     19  C   UNL     1       5.338   9.092   1.812  1.00  0.00     0.119 A 
ATOM     20  C   UNL     1       3.385   7.243   2.151  1.00  0.00     0.024 A 
ATOM     21  N   UNL     1       5.189   8.157   0.844  1.00  0.00    -0.264 NA
ATOM     22  C   UNL     1       4.210   7.255   1.038  1.00  0.00     0.111 A 
ATOM     23  C   UNL     1       2.657   8.194   4.349  1.00  0.00     0.045 C 
ENDBRANCH  16  17
ENDBRANCH  15  16
ENDBRANCH  13  15
ENDBRANCH   4  13
TORSDOF 8
ENDMDL
MODEL 9
REMARK VINA RESULT:    -4.356      4.749      8.832
REMARK INTER + INTRA:          -6.821
REMARK INTER:                  -6.131
REMARK INTRA:                  -0.690
REMARK UNBOUND:                -0.556
REMARK SMILES Cc1ccncc1/C=C/Nc1ccc(CCCN)cc1
REMARK SMILES IDX 14 1 13 2 12 3 11 4 20 5 19 6 15 7 16 8 17 9 18 10 10 13
REMARK SMILES IDX 9 15 8 16 7 17 2 18 6 19 3 20 5 21 4 22 1 23
REMARK H PARENT 18 11 18 12 10 14
ROOT
ATOM      1  C   UNL     1      10.283  13.099   6.709  1.00  0.00    -0.048 A 
ATOM      2  C   UNL     1       8.920  13.404   6.727  1.00  0.00     0.006 A 
ATOM      3  C   UNL     1       7.985  12.508   6.218  1.00  0.00     0.026 A 
ATOM      4  C   UNL     1       8.373  11.315   5.605  1.00  0.00     0.038 A 
ATOM      5  C   UNL     1       9.742  11.033   5.535  1.00  0.00     0.026 A 
ATOM      6  C   UNL     1      10.688  11.915   6.080  1.00  0.00     0.006 A 
ENDROOT
BRANCH   1   7
ATOM      7  C   UNL     1      11.296  14.015   7.348  1.00  0.00     0.037 C 
BRANCH   7   8
ATOM      8  C   UNL     1      11.224  15.505   6.960  1.00  0.00     0.020 C 
BRANCH   8   9
ATOM      9  C   UNL     1      11.566  15.838   5.500  1.00  0.00     0.078 C 
BRANCH   9  10
ATOM     10  N   UNL     1      10.419  16.115   4.647  1.00  0.00    -0.330 NA
ATOM     11  H   UNL     1      10.359  17.114   4.456  1.00  0.00     0.118 HD
ATOM     12  H   UNL     1       9.554  15.877   5.133  1.00  0.00     0.118 HD
ENDBRANCH   9  10
ENDBRANCH   8   9
ENDBRANCH   7   8
ENDBRANCH   1   7
BRANCH   4  13
ATOM     13  N   UNL     1       7.442  10.461   4.982  1.00  0.00    -0.362 N 
ATOM     14  H   UNL     1       7.762   9.527   4.758  1.00  0.00     0.166 HD
BRANCH  13  15
ATOM     15  C   UNL     1       6.253  10.865   4.436  1.00  0.00     0.083 C 
BRANCH  15  16
ATOM     16  C   UNL     1       5.533  10.295   3.460  1.00  0.00     0.027 C 
BRANCH  16  17
ATOM     17  C   UNL     1       4.379   9.437   3.767  1.00  0.00    -0.003 A 
ATOM     18  C   UNL     1       4.005   8.354   2.951  1.00  0.00    -0.041 A 
ATOM     19  C   UNL     1       3.569   9.692   4.884  1.00  0.00     0.119 A 
ATOM     20  C   UNL     1       2.875   7.602   3.304  1.00  0.00     0.024 A 
ATOM     21  N   UNL     1       2.486   8.967   5.249  1.00  0.00    -0.264 NA
ATOM     22  C   UNL     1       2.167   7.934   4.449  1.00  0.00     0.111 A 
ATOM     23  C   UNL     1       4.750   7.999   1.695  1.00  0.00     0.045 C 
ENDBRANCH  16  17
ENDBRANCH  15  16
ENDBRANCH  13  15
ENDBRANCH   4  13
TORSDOF 8
ENDMDL
