MODEL 1
REMARK VINA RESULT:    -5.052      0.000      0.000
REMARK INTER + INTRA:          -7.895
REMARK INTER:                  -7.267
REMARK INTRA:                  -0.628
REMARK UNBOUND:                -0.628
REMARK SMILES Cc1ccncc1/C=C/Nc1ccc(CCCN)cc1
REMARK SMILES IDX 14 1 13 2 12 3 11 4 20 5 19 6 15 7 16 8 17 9 18 10 10 13
REMARK SMILES IDX 9 15 8 16 7 17 2 18 6 19 3 20 5 21 4 22 1 23
REMARK H PARENT 18 11 18 12 10 14
ROOT
ATOM      1  C   UNL     1       2.430  12.606 -10.599  1.00  0.00    -0.048 A 
ATOM      2  C   UNL     1       1.794  11.983  -9.524  1.00  0.00     0.006 A 
ATOM      3  C   UNL     1       2.119  10.679  -9.165  1.00  0.00     0.026 A 
ATOM      4  C   UNL     1       3.029   9.920  -9.906  1.00  0.00     0.038 A 
ATOM      5  C   UNL     1       3.625  10.525 -11.019  1.00  0.00     0.026 A 
ATOM      6  C   UNL     1       3.330  11.853 -11.363  1.00  0.00     0.006 A 
ENDROOT
BRANCH   1   7
ATOM      7  C   UNL     1       2.161  14.052 -10.935  1.00  0.00     0.037 C 
BRANCH   7   8
ATOM      8  C   UNL     1       2.450  15.085  -9.829  1.00  0.00     0.020 C 
BRANCH   8   9
ATOM      9  C   UNL     1       3.773  15.855  -9.956  1.00  0.00     0.078 C 
BRANCH   9  10
ATOM     10  N   UNL     1       4.795  15.486  -8.987  1.00  0.00    -0.330 NA
ATOM     11  H   UNL     1       5.087  14.522  -9.139  1.00  0.00     0.118 HD
ATOM     12  H   UNL     1       4.410  15.510  -8.043  1.00  0.00     0.118 HD
ENDBRANCH   9  10
ENDBRANCH   8   9
ENDBRANCH   7   8
ENDBRANCH   1   7
BRANCH   4  13
ATOM     13  N   UNL     1       3.273   8.563  -9.621  1.00  0.00    -0.362 N 
ATOM     14  H   UNL     1       2.818   7.885 -10.219  1.00  0.00     0.166 HD
BRANCH  13  15
ATOM     15  C   UNL     1       3.853   8.098  -8.471  1.00  0.00     0.083 C 
BRANCH  15  16
ATOM     16  C   UNL     1       3.979   6.836  -8.039  1.00  0.00     0.027 C 
BRANCH  16  17
ATOM     17  C   UNL     1       3.568   6.452  -6.680  1.00  0.00    -0.003 A 
ATOM     18  C   UNL     1       3.009   5.195  -6.388  1.00  0.00    -0.041 A 
ATOM     19  C   UNL     1       3.683   7.353  -5.611  1.00  0.00     0.119 A 
ATOM     20  C   UNL     1       2.621   4.920  -5.068  1.00  0.00     0.024 A 
ATOM     21  N   UNL     1       3.331   7.098  -4.329  1.00  0.00    -0.264 NA
ATOM     22  C   UNL     1       2.810   5.882  -4.089  1.00  0.00     0.111 A 
ATOM     23  C   UNL     1       2.778   4.152  -7.446  1.00  0.00     0.045 C 
ENDBRANCH  16  17
ENDBRANCH  15  16
ENDBRANCH  13  15
ENDBRANCH   4  13
TORSDOF 8
ENDMDL
MODEL 2
REMARK VINA RESULT:    -5.011      1.949      8.706
REMARK INTER + INTRA:          -7.835
REMARK INTER:                  -7.248
REMARK INTRA:                  -0.587
REMARK UNBOUND:                -0.628
REMARK SMILES Cc1ccncc1/C=C/Nc1ccc(CCCN)cc1
REMARK SMILES IDX 14 1 13 2 12 3 11 4 20 5 19 6 15 7 16 8 17 9 18 10 10 13
REMARK SMILES IDX 9 15 8 16 7 17 2 18 6 19 3 20 5 21 4 22 1 23
REMARK H PARENT 18 11 18 12 10 14
ROOT
ATOM      1  C   UNL     1       3.707   5.921  -5.900  1.00  0.00    -0.048 A 
ATOM      2  C   UNL     1       3.477   5.677  -7.256  1.00  0.00     0.006 A 
ATOM      3  C   UNL     1       3.707   6.668  -8.205  1.00  0.00     0.026 A 
ATOM      4  C   UNL     1       4.097   7.958  -7.837  1.00  0.00     0.038 A 
ATOM      5  C   UNL     1       4.273   8.221  -6.473  1.00  0.00     0.026 A 
ATOM      6  C   UNL     1       4.080   7.214  -5.515  1.00  0.00     0.006 A 
ENDROOT
BRANCH   1   7
ATOM      7  C   UNL     1       3.559   4.826  -4.874  1.00  0.00     0.037 C 
BRANCH   7   8
ATOM      8  C   UNL     1       2.982   5.234  -3.505  1.00  0.00     0.020 C 
BRANCH   8   9
ATOM      9  C   UNL     1       3.719   4.689  -2.273  1.00  0.00     0.078 C 
BRANCH   9  10
ATOM     10  N   UNL     1       3.489   3.279  -1.993  1.00  0.00    -0.330 NA
ATOM     11  H   UNL     1       4.362   2.760  -2.075  1.00  0.00     0.118 HD
ATOM     12  H   UNL     1       2.866   2.878  -2.694  1.00  0.00     0.118 HD
ENDBRANCH   9  10
ENDBRANCH   8   9
ENDBRANCH   7   8
ENDBRANCH   1   7
BRANCH   4  13
ATOM     13  N   UNL     1       4.215   8.998  -8.779  1.00  0.00    -0.362 N 
ATOM     14  H   UNL     1       5.017   9.609  -8.683  1.00  0.00     0.166 HD
BRANCH  13  15
ATOM     15  C   UNL     1       3.222   9.396  -9.635  1.00  0.00     0.083 C 
BRANCH  15  16
ATOM     16  C   UNL     1       2.600  10.579  -9.716  1.00  0.00     0.027 C 
BRANCH  16  17
ATOM     17  C   UNL     1       2.942  11.550 -10.766  1.00  0.00    -0.003 A 
ATOM     18  C   UNL     1       2.571  12.904 -10.692  1.00  0.00    -0.041 A 
ATOM     19  C   UNL     1       3.630  11.147 -11.921  1.00  0.00     0.119 A 
ATOM     20  C   UNL     1       2.918  13.757 -11.751  1.00  0.00     0.024 A 
ATOM     21  N   UNL     1       3.988  11.960 -12.943  1.00  0.00    -0.264 NA
ATOM     22  C   UNL     1       3.624  13.250 -12.830  1.00  0.00     0.111 A 
ATOM     23  C   UNL     1       1.785  13.460  -9.539  1.00  0.00     0.045 C 
ENDBRANCH  16  17
ENDBRANCH  15  16
ENDBRANCH  13  15
ENDBRANCH   4  13
TORSDOF 8
ENDMDL
MODEL 3
REMARK VINA RESULT:    -4.962      2.033      8.556
REMARK INTER + INTRA:          -7.766
REMARK INTER:                  -7.255
REMARK INTRA:                  -0.511
REMARK UNBOUND:                -0.628
REMARK SMILES Cc1ccncc1/C=C/Nc1ccc(CCCN)cc1
REMARK SMILES IDX 14 1 13 2 12 3 11 4 20 5 19 6 15 7 16 8 17 9 18 10 10 13
REMARK SMILES IDX 9 15 8 16 7 17 2 18 6 19 3 20 5 21 4 22 1 23
REMARK H PARENT 18 11 18 12 10 14
ROOT
ATOM      1  C   UNL     1       3.193   5.157  -6.318  1.00  0.00    -0.048 A 
ATOM      2  C   UNL     1       3.296   5.143  -7.710  1.00  0.00     0.006 A 
ATOM      3  C   UNL     1       3.749   6.263  -8.401  1.00  0.00     0.026 A 
ATOM      4  C   UNL     1       4.041   7.460  -7.742  1.00  0.00     0.038 A 
ATOM      5  C   UNL     1       3.884   7.494  -6.352  1.00  0.00     0.026 A 
ATOM      6  C   UNL     1       3.465   6.356  -5.646  1.00  0.00     0.006 A 
ENDROOT
BRANCH   1   7
ATOM      7  C   UNL     1       2.801   3.919  -5.551  1.00  0.00     0.037 C 
BRANCH   7   8
ATOM      8  C   UNL     1       1.326   3.811  -5.119  1.00  0.00     0.020 C 
BRANCH   8   9
ATOM      9  C   UNL     1       0.288   3.846  -6.251  1.00  0.00     0.078 C 
BRANCH   9  10
ATOM     10  N   UNL     1      -0.108   2.542  -6.763  1.00  0.00    -0.330 NA
ATOM     11  H   UNL     1      -0.985   2.621  -7.277  1.00  0.00     0.118 HD
ATOM     12  H   UNL     1      -0.301   1.905  -5.990  1.00  0.00     0.118 HD
ENDBRANCH   9  10
ENDBRANCH   8   9
ENDBRANCH   7   8
ENDBRANCH   1   7
BRANCH   4  13
ATOM     13  N   UNL     1       4.385   8.631  -8.445  1.00  0.00    -0.362 N 
ATOM     14  H   UNL     1       5.349   8.933  -8.381  1.00  0.00     0.166 HD
BRANCH  13  15
ATOM     15  C   UNL     1       3.485   9.515  -8.980  1.00  0.00     0.083 C 
BRANCH  15  16
ATOM     16  C   UNL     1       3.305   9.867 -10.260  1.00  0.00     0.027 C 
BRANCH  16  17
ATOM     17  C   UNL     1       2.909  11.236 -10.625  1.00  0.00    -0.003 A 
ATOM     18  C   UNL     1       3.469  11.916 -11.721  1.00  0.00    -0.041 A 
ATOM     19  C   UNL     1       1.968  11.941  -9.860  1.00  0.00     0.119 A 
ATOM     20  C   UNL     1       3.051  13.229 -11.984  1.00  0.00     0.024 A 
ATOM     21  N   UNL     1       1.540  13.201 -10.110  1.00  0.00    -0.264 NA
ATOM     22  C   UNL     1       2.093  13.814 -11.172  1.00  0.00     0.111 A 
ATOM     23  C   UNL     1       4.527  11.301 -12.594  1.00  0.00     0.045 C 
ENDBRANCH  16  17
ENDBRANCH  15  16
ENDBRANCH  13  15
ENDBRANCH   4  13
TORSDOF 8
ENDMDL
MODEL 4
REMARK VINA RESULT:    -4.944      1.711      8.582
REMARK INTER + INTRA:          -7.739
REMARK INTER:                  -7.199
REMARK INTRA:                  -0.540
REMARK UNBOUND:                -0.628
REMARK SMILES Cc1ccncc1/C=C/Nc1ccc(CCCN)cc1
REMARK SMILES IDX 14 1 13 2 12 3 11 4 20 5 19 6 15 7 16 8 17 9 18 10 10 13
REMARK SMILES IDX 9 15 8 16 7 17 2 18 6 19 3 20 5 21 4 22 1 23
REMARK H PARENT 18 11 18 12 10 14
ROOT
ATOM      1  C   UNL     1       3.686   5.886  -5.985  1.00  0.00    -0.048 A 
ATOM      2  C   UNL     1       3.493   5.687  -7.354  1.00  0.00     0.006 A 
ATOM      3  C   UNL     1       3.769   6.702  -8.265  1.00  0.00     0.026 A 
ATOM      4  C   UNL     1       4.171   7.973  -7.846  1.00  0.00     0.038 A 
ATOM      5  C   UNL     1       4.311   8.191  -6.470  1.00  0.00     0.026 A 
ATOM      6  C   UNL     1       4.071   7.160  -5.549  1.00  0.00     0.006 A 
ENDROOT
BRANCH   1   7
ATOM      7  C   UNL     1       3.488   4.764  -4.998  1.00  0.00     0.037 C 
BRANCH   7   8
ATOM      8  C   UNL     1       2.898   5.145  -3.626  1.00  0.00     0.020 C 
BRANCH   8   9
ATOM      9  C   UNL     1       3.716   4.716  -2.399  1.00  0.00     0.078 C 
BRANCH   9  10
ATOM     10  N   UNL     1       3.501   3.343  -1.965  1.00  0.00    -0.330 NA
ATOM     11  H   UNL     1       2.504   3.129  -1.965  1.00  0.00     0.118 HD
ATOM     12  H   UNL     1       3.806   3.227  -0.999  1.00  0.00     0.118 HD
ENDBRANCH   9  10
ENDBRANCH   8   9
ENDBRANCH   7   8
ENDBRANCH   1   7
BRANCH   4  13
ATOM     13  N   UNL     1       4.336   9.038  -8.752  1.00  0.00    -0.362 N 
ATOM     14  H   UNL     1       5.244   9.486  -8.766  1.00  0.00     0.166 HD
BRANCH  13  15
ATOM     15  C   UNL     1       3.316   9.668  -9.414  1.00  0.00     0.083 C 
BRANCH  15  16
ATOM     16  C   UNL     1       3.328  10.271 -10.610  1.00  0.00     0.027 C 
BRANCH  16  17
ATOM     17  C   UNL     1       2.834  11.647 -10.775  1.00  0.00    -0.003 A 
ATOM     18  C   UNL     1       3.124  12.421 -11.912  1.00  0.00    -0.041 A 
ATOM     19  C   UNL     1       2.073  12.263  -9.770  1.00  0.00     0.119 A 
ATOM     20  C   UNL     1       2.632  13.733 -11.978  1.00  0.00     0.024 A 
ATOM     21  N   UNL     1       1.576  13.521  -9.825  1.00  0.00    -0.264 NA
ATOM     22  C   UNL     1       1.866  14.226 -10.933  1.00  0.00     0.111 A 
ATOM     23  C   UNL     1       3.973  11.906 -13.041  1.00  0.00     0.045 C 
ENDBRANCH  16  17
ENDBRANCH  15  16
ENDBRANCH  13  15
ENDBRANCH   4  13
TORSDOF 8
ENDMDL
MODEL 5
REMARK VINA RESULT:    -4.805      1.899      2.381
REMARK INTER + INTRA:          -7.539
REMARK INTER:                  -6.863
REMARK INTRA:                  -0.676
REMARK UNBOUND:                -0.628
REMARK SMILES Cc1ccncc1/C=C/Nc1ccc(CCCN)cc1
REMARK SMILES IDX 14 1 13 2 12 3 11 4 20 5 19 6 15 7 16 8 17 9 18 10 10 13
REMARK SMILES IDX 9 15 8 16 7 17 2 18 6 19 3 20 5 21 4 22 1 23
REMARK H PARENT 18 11 18 12 10 14
ROOT
ATOM      1  C   UNL     1       2.504  12.667 -11.095  1.00  0.00    -0.048 A 
ATOM      2  C   UNL     1       3.484  11.801 -11.585  1.00  0.00     0.006 A 
ATOM      3  C   UNL     1       3.689  10.556 -10.999  1.00  0.00     0.026 A 
ATOM      4  C   UNL     1       2.984  10.158  -9.860  1.00  0.00     0.038 A 
ATOM      5  C   UNL     1       2.041  11.049  -9.333  1.00  0.00     0.026 A 
ATOM      6  C   UNL     1       1.803  12.290  -9.943  1.00  0.00     0.006 A 
ENDROOT
BRANCH   1   7
ATOM      7  C   UNL     1       2.204  13.975 -11.783  1.00  0.00     0.037 C 
BRANCH   7   8
ATOM      8  C   UNL     1       0.958  14.742 -11.299  1.00  0.00     0.020 C 
BRANCH   8   9
ATOM      9  C   UNL     1       0.048  15.312 -12.397  1.00  0.00     0.078 C 
BRANCH   9  10
ATOM     10  N   UNL     1      -1.155  14.537 -12.664  1.00  0.00    -0.330 NA
ATOM     11  H   UNL     1      -1.248  13.790 -11.977  1.00  0.00     0.118 HD
ATOM     12  H   UNL     1      -1.078  14.070 -13.568  1.00  0.00     0.118 HD
ENDBRANCH   9  10
ENDBRANCH   8   9
ENDBRANCH   7   8
ENDBRANCH   1   7
BRANCH   4  13
ATOM     13  N   UNL     1       3.269   8.952  -9.191  1.00  0.00    -0.362 N 
ATOM     14  H   UNL     1       2.495   8.314  -9.056  1.00  0.00     0.166 HD
BRANCH  13  15
ATOM     15  C   UNL     1       4.423   8.695  -8.498  1.00  0.00     0.083 C 
BRANCH  15  16
ATOM     16  C   UNL     1       4.732   7.640  -7.733  1.00  0.00     0.027 C 
BRANCH  16  17
ATOM     17  C   UNL     1       4.150   7.475  -6.392  1.00  0.00    -0.003 A 
ATOM     18  C   UNL     1       3.356   6.367  -6.046  1.00  0.00    -0.041 A 
ATOM     19  C   UNL     1       4.336   8.451  -5.401  1.00  0.00     0.119 A 
ATOM     20  C   UNL     1       2.820   6.300  -4.751  1.00  0.00     0.024 A 
ATOM     21  N   UNL     1       3.842   8.393  -4.143  1.00  0.00    -0.264 NA
ATOM     22  C   UNL     1       3.096   7.314  -3.847  1.00  0.00     0.111 A 
ATOM     23  C   UNL     1       3.030   5.274  -7.025  1.00  0.00     0.045 C 
ENDBRANCH  16  17
ENDBRANCH  15  16
ENDBRANCH  13  15
ENDBRANCH   4  13
TORSDOF 8
ENDMDL
MODEL 6
REMARK VINA RESULT:    -4.788      1.385      2.253
REMARK INTER + INTRA:          -7.515
REMARK INTER:                  -6.818
REMARK INTRA:                  -0.698
REMARK UNBOUND:                -0.628
REMARK SMILES Cc1ccncc1/C=C/Nc1ccc(CCCN)cc1
REMARK SMILES IDX 14 1 13 2 12 3 11 4 20 5 19 6 15 7 16 8 17 9 18 10 10 13
REMARK SMILES IDX 9 15 8 16 7 17 2 18 6 19 3 20 5 21 4 22 1 23
REMARK H PARENT 18 11 18 12 10 14
ROOT
ATOM      1  C   UNL     1       2.295  12.837 -10.881  1.00  0.00    -0.048 A 
ATOM      2  C   UNL     1       3.319  12.187 -11.574  1.00  0.00     0.006 A 
ATOM      3  C   UNL     1       3.725  10.908 -11.206  1.00  0.00     0.026 A 
ATOM      4  C   UNL     1       3.185  10.260 -10.092  1.00  0.00     0.038 A 
ATOM      5  C   UNL     1       2.199  10.934  -9.362  1.00  0.00     0.026 A 
ATOM      6  C   UNL     1       1.758  12.208  -9.751  1.00  0.00     0.006 A 
ENDROOT
BRANCH   1   7
ATOM      7  C   UNL     1       1.777  14.180 -11.331  1.00  0.00     0.037 C 
BRANCH   7   8
ATOM      8  C   UNL     1       1.886  15.338 -10.320  1.00  0.00     0.020 C 
BRANCH   8   9
ATOM      9  C   UNL     1       3.307  15.827 -10.006  1.00  0.00     0.078 C 
BRANCH   9  10
ATOM     10  N   UNL     1       3.887  15.290  -8.784  1.00  0.00    -0.330 NA
ATOM     11  H   UNL     1       4.866  15.565  -8.712  1.00  0.00     0.118 HD
ATOM     12  H   UNL     1       3.891  14.270  -8.815  1.00  0.00     0.118 HD
ENDBRANCH   9  10
ENDBRANCH   8   9
ENDBRANCH   7   8
ENDBRANCH   1   7
BRANCH   4  13
ATOM     13  N   UNL     1       3.674   9.018  -9.644  1.00  0.00    -0.362 N 
ATOM     14  H   UNL     1       3.688   8.265 -10.320  1.00  0.00     0.166 HD
BRANCH  13  15
ATOM     15  C   UNL     1       3.883   8.687  -8.331  1.00  0.00     0.083 C 
BRANCH  15  16
ATOM     16  C   UNL     1       4.500   7.614  -7.818  1.00  0.00     0.027 C 
BRANCH  16  17
ATOM     17  C   UNL     1       3.810   6.321  -7.703  1.00  0.00    -0.003 A 
ATOM     18  C   UNL     1       3.257   5.865  -6.493  1.00  0.00    -0.041 A 
ATOM     19  C   UNL     1       3.708   5.459  -8.806  1.00  0.00     0.119 A 
ATOM     20  C   UNL     1       2.636   4.607  -6.467  1.00  0.00     0.024 A 
ATOM     21  N   UNL     1       3.098   4.251  -8.802  1.00  0.00    -0.264 NA
ATOM     22  C   UNL     1       2.572   3.855  -7.629  1.00  0.00     0.111 A 
ATOM     23  C   UNL     1       3.340   6.661  -5.221  1.00  0.00     0.045 C 
ENDBRANCH  16  17
ENDBRANCH  15  16
ENDBRANCH  13  15
ENDBRANCH   4  13
TORSDOF 8
ENDMDL
MODEL 7
REMARK VINA RESULT:    -4.767      1.163      1.691
REMARK INTER + INTRA:          -7.484
REMARK INTER:                  -6.801
REMARK INTRA:                  -0.683
REMARK UNBOUND:                -0.628
REMARK SMILES Cc1ccncc1/C=C/Nc1ccc(CCCN)cc1
REMARK SMILES IDX 14 1 13 2 12 3 11 4 20 5 19 6 15 7 16 8 17 9 18 10 10 13
REMARK SMILES IDX 9 15 8 16 7 17 2 18 6 19 3 20 5 21 4 22 1 23
REMARK H PARENT 18 11 18 12 10 14
ROOT
ATOM      1  C   UNL     1       2.503  12.442 -10.555  1.00  0.00    -0.048 A 
ATOM      2  C   UNL     1       1.822  11.858  -9.485  1.00  0.00     0.006 A 
ATOM      3  C   UNL     1       2.134  10.568  -9.064  1.00  0.00     0.026 A 
ATOM      4  C   UNL     1       3.076   9.786  -9.736  1.00  0.00     0.038 A 
ATOM      5  C   UNL     1       3.720  10.351 -10.844  1.00  0.00     0.026 A 
ATOM      6  C   UNL     1       3.437  11.664 -11.250  1.00  0.00     0.006 A 
ENDROOT
BRANCH   1   7
ATOM      7  C   UNL     1       2.245  13.873 -10.956  1.00  0.00     0.037 C 
BRANCH   7   8
ATOM      8  C   UNL     1       2.423  14.942  -9.861  1.00  0.00     0.020 C 
BRANCH   8   9
ATOM      9  C   UNL     1       3.694  15.799  -9.956  1.00  0.00     0.078 C 
BRANCH   9  10
ATOM     10  N   UNL     1       4.731  15.472  -8.988  1.00  0.00    -0.330 NA
ATOM     11  H   UNL     1       4.319  15.349  -8.064  1.00  0.00     0.118 HD
ATOM     12  H   UNL     1       5.383  16.251  -8.894  1.00  0.00     0.118 HD
ENDBRANCH   9  10
ENDBRANCH   8   9
ENDBRANCH   7   8
ENDBRANCH   1   7
BRANCH   4  13
ATOM     13  N   UNL     1       3.311   8.442  -9.390  1.00  0.00    -0.362 N 
ATOM     14  H   UNL     1       2.659   7.758  -9.754  1.00  0.00     0.166 HD
BRANCH  13  15
ATOM     15  C   UNL     1       4.176   8.025  -8.412  1.00  0.00     0.083 C 
BRANCH  15  16
ATOM     16  C   UNL     1       3.932   7.771  -7.120  1.00  0.00     0.027 C 
BRANCH  16  17
ATOM     17  C   UNL     1       3.379   6.478  -6.689  1.00  0.00    -0.003 A 
ATOM     18  C   UNL     1       3.022   6.218  -5.354  1.00  0.00    -0.041 A 
ATOM     19  C   UNL     1       3.221   5.423  -7.601  1.00  0.00     0.119 A 
ATOM     20  C   UNL     1       2.524   4.948  -5.025  1.00  0.00     0.024 A 
ATOM     21  N   UNL     1       2.726   4.199  -7.304  1.00  0.00    -0.264 NA
ATOM     22  C   UNL     1       2.386   3.992  -6.019  1.00  0.00     0.111 A 
ATOM     23  C   UNL     1       3.189   7.237  -4.263  1.00  0.00     0.045 C 
ENDBRANCH  16  17
ENDBRANCH  15  16
ENDBRANCH  13  15
ENDBRANCH   4  13
TORSDOF 8
ENDMDL
MODEL 8
REMARK VINA RESULT:    -4.642      2.128      8.623
REMARK INTER + INTRA:          -7.306
REMARK INTER:                  -6.787
REMARK INTRA:                  -0.519
REMARK UNBOUND:                -0.628
REMARK SMILES Cc1ccncc1/C=C/Nc1ccc(CCCN)cc1
REMARK SMILES IDX 14 1 13 2 12 3 11 4 20 5 19 6 15 7 16 8 17 9 18 10 10 13
REMARK SMILES IDX 9 15 8 16 7 17 2 18 6 19 3 20 5 21 4 22 1 23
REMARK H PARENT 18 11 18 12 10 14
ROOT
ATOM      1  C   UNL     1       3.195   5.081  -6.458  1.00  0.00    -0.048 A 
ATOM      2  C   UNL     1       3.535   6.295  -5.857  1.00  0.00     0.006 A 
ATOM      3  C   UNL     1       3.871   7.401  -6.632  1.00  0.00     0.026 A 
ATOM      4  C   UNL     1       3.958   7.321  -8.024  1.00  0.00     0.038 A 
ATOM      5  C   UNL     1       3.673   6.088  -8.624  1.00  0.00     0.026 A 
ATOM      6  C   UNL     1       3.296   4.980  -7.851  1.00  0.00     0.006 A 
ENDROOT
BRANCH   1   7
ATOM      7  C   UNL     1       2.732   3.905  -5.634  1.00  0.00     0.037 C 
BRANCH   7   8
ATOM      8  C   UNL     1       1.251   3.900  -5.207  1.00  0.00     0.020 C 
BRANCH   8   9
ATOM      9  C   UNL     1       0.222   3.821  -6.344  1.00  0.00     0.078 C 
BRANCH   9  10
ATOM     10  N   UNL     1      -0.128   2.471  -6.763  1.00  0.00    -0.330 NA
ATOM     11  H   UNL     1      -0.941   2.144  -6.243  1.00  0.00     0.118 HD
ATOM     12  H   UNL     1       0.625   1.824  -6.530  1.00  0.00     0.118 HD
ENDBRANCH   9  10
ENDBRANCH   8   9
ENDBRANCH   7   8
ENDBRANCH   1   7
BRANCH   4  13
ATOM     13  N   UNL     1       4.412   8.401  -8.805  1.00  0.00    -0.362 N 
ATOM     14  H   UNL     1       5.394   8.401  -9.053  1.00  0.00     0.166 HD
BRANCH  13  15
ATOM     15  C   UNL     1       3.708   9.554  -9.030  1.00  0.00     0.083 C 
BRANCH  15  16
ATOM     16  C   UNL     1       2.974   9.902 -10.095  1.00  0.00     0.027 C 
BRANCH  16  17
ATOM     17  C   UNL     1       3.389  11.001 -10.980  1.00  0.00    -0.003 A 
ATOM     18  C   UNL     1       2.822  12.285 -10.905  1.00  0.00    -0.041 A 
ATOM     19  C   UNL     1       4.357  10.796 -11.976  1.00  0.00     0.119 A 
ATOM     20  C   UNL     1       3.260  13.269 -11.805  1.00  0.00     0.024 A 
ATOM     21  N   UNL     1       4.803  11.738 -12.840  1.00  0.00    -0.264 NA
ATOM     22  C   UNL     1       4.244  12.956 -12.730  1.00  0.00     0.111 A 
ATOM     23  C   UNL     1       1.738  12.630  -9.923  1.00  0.00     0.045 C 
ENDBRANCH  16  17
ENDBRANCH  15  16
ENDBRANCH  13  15
ENDBRANCH   4  13
TORSDOF 8
ENDMDL
MODEL 9
REMARK VINA RESULT:    -4.515      2.056      4.105
REMARK INTER + INTRA:          -7.123
REMARK INTER:                  -6.290
REMARK INTRA:                  -0.833
REMARK UNBOUND:                -0.628
REMARK SMILES Cc1ccncc1/C=C/Nc1ccc(CCCN)cc1
REMARK SMILES IDX 14 1 13 2 12 3 11 4 20 5 19 6 15 7 16 8 17 9 18 10 10 13
REMARK SMILES IDX 9 15 8 16 7 17 2 18 6 19 3 20 5 21 4 22 1 23
REMARK H PARENT 18 11 18 12 10 14
ROOT
ATOM      1  C   UNL     1       3.788   9.004  -8.867  1.00  0.00    -0.048 A 
ATOM      2  C   UNL     1       5.141   8.777  -8.603  1.00  0.00     0.006 A 
ATOM      3  C   UNL     1       5.531   7.812  -7.679  1.00  0.00     0.026 A 
ATOM      4  C   UNL     1       4.596   7.094  -6.929  1.00  0.00     0.038 A 
ATOM      5  C   UNL     1       3.240   7.362  -7.152  1.00  0.00     0.026 A 
ATOM      6  C   UNL     1       2.840   8.306  -8.110  1.00  0.00     0.006 A 
ENDROOT
BRANCH   1   7
ATOM      7  C   UNL     1       3.355   9.974  -9.938  1.00  0.00     0.037 C 
BRANCH   7   8
ATOM      8  C   UNL     1       2.134  10.858  -9.617  1.00  0.00     0.020 C 
BRANCH   8   9
ATOM      9  C   UNL     1       2.098  12.231 -10.304  1.00  0.00     0.078 C 
BRANCH   9  10
ATOM     10  N   UNL     1       3.401  12.781 -10.649  1.00  0.00    -0.330 NA
ATOM     11  H   UNL     1       4.117  12.390 -10.039  1.00  0.00     0.118 HD
ATOM     12  H   UNL     1       3.414  13.787 -10.476  1.00  0.00     0.118 HD
ENDBRANCH   9  10
ENDBRANCH   8   9
ENDBRANCH   7   8
ENDBRANCH   1   7
BRANCH   4  13
ATOM     13  N   UNL     1       4.984   6.204  -5.910  1.00  0.00    -0.362 N 
ATOM     14  H   UNL     1       5.950   5.901  -5.915  1.00  0.00     0.166 HD
BRANCH  13  15
ATOM     15  C   UNL     1       4.119   5.530  -5.089  1.00  0.00     0.083 C 
BRANCH  15  16
ATOM     16  C   UNL     1       3.702   4.259  -5.160  1.00  0.00     0.027 C 
BRANCH  16  17
ATOM     17  C   UNL     1       2.295   3.934  -5.441  1.00  0.00    -0.003 A 
ATOM     18  C   UNL     1       1.802   3.788  -6.750  1.00  0.00    -0.041 A 
ATOM     19  C   UNL     1       1.368   3.791  -4.399  1.00  0.00     0.119 A 
ATOM     20  C   UNL     1       0.440   3.500  -6.929  1.00  0.00     0.024 A 
ATOM     21  N   UNL     1       0.055   3.496  -4.553  1.00  0.00    -0.264 NA
ATOM     22  C   UNL     1      -0.376   3.354  -5.819  1.00  0.00     0.111 A 
ATOM     23  C   UNL     1       2.672   3.967  -7.962  1.00  0.00     0.045 C 
ENDBRANCH  16  17
ENDBRANCH  15  16
ENDBRANCH  13  15
ENDBRANCH   4  13
TORSDOF 8
ENDMDL
