MODEL 1
REMARK VINA RESULT:    -4.963      0.000      0.000
REMARK INTER + INTRA:          -7.704
REMARK INTER:                  -7.140
REMARK INTRA:                  -0.564
REMARK UNBOUND:                -0.564
REMARK SMILES Cc1ccncc1/C=C/Nc1ccc(CCCN)cc1
REMARK SMILES IDX 14 1 13 2 12 3 11 4 20 5 19 6 15 7 16 8 17 9 18 10 10 13
REMARK SMILES IDX 9 15 8 16 7 17 2 18 6 19 3 20 5 21 4 22 1 23
REMARK H PARENT 18 11 18 12 10 14
ROOT
ATOM      1  C   UNL     1       4.498   8.247  -1.813  1.00  0.00    -0.048 A 
ATOM      2  C   UNL     1       5.468   8.143  -2.812  1.00  0.00     0.006 A 
ATOM      3  C   UNL     1       5.893   9.269  -3.510  1.00  0.00     0.026 A 
ATOM      4  C   UNL     1       5.316  10.524  -3.296  1.00  0.00     0.038 A 
ATOM      5  C   UNL     1       4.303  10.619  -2.335  1.00  0.00     0.026 A 
ATOM      6  C   UNL     1       3.898   9.494  -1.601  1.00  0.00     0.006 A 
ENDROOT
BRANCH   1   7
ATOM      7  C   UNL     1       4.103   7.053  -0.981  1.00  0.00     0.037 C 
BRANCH   7   8
ATOM      8  C   UNL     1       2.598   6.869  -0.704  1.00  0.00     0.020 C 
BRANCH   8   9
ATOM      9  C   UNL     1       2.226   6.400   0.710  1.00  0.00     0.078 C 
BRANCH   9  10
ATOM     10  N   UNL     1       2.447   4.985   0.967  1.00  0.00    -0.330 NA
ATOM     11  H   UNL     1       3.009   4.578   0.220  1.00  0.00     0.118 HD
ATOM     12  H   UNL     1       1.560   4.481   0.947  1.00  0.00     0.118 HD
ENDBRANCH   9  10
ENDBRANCH   8   9
ENDBRANCH   7   8
ENDBRANCH   1   7
BRANCH   4  13
ATOM     13  N   UNL     1       5.655  11.643  -4.081  1.00  0.00    -0.362 N 
ATOM     14  H   UNL     1       5.891  12.492  -3.582  1.00  0.00     0.166 HD
BRANCH  13  15
ATOM     15  C   UNL     1       5.445  11.745  -5.430  1.00  0.00     0.083 C 
BRANCH  15  16
ATOM     16  C   UNL     1       4.828  12.714  -6.119  1.00  0.00     0.027 C 
BRANCH  16  17
ATOM     17  C   UNL     1       5.425  14.052  -6.254  1.00  0.00    -0.003 A 
ATOM     18  C   UNL     1       4.670  15.182  -6.613  1.00  0.00    -0.041 A 
ATOM     19  C   UNL     1       6.801  14.248  -6.062  1.00  0.00     0.119 A 
ATOM     20  C   UNL     1       5.325  16.417  -6.742  1.00  0.00     0.024 A 
ATOM     21  N   UNL     1       7.445  15.434  -6.166  1.00  0.00    -0.264 NA
ATOM     22  C   UNL     1       6.687  16.493  -6.501  1.00  0.00     0.111 A 
ATOM     23  C   UNL     1       3.197  15.107  -6.900  1.00  0.00     0.045 C 
ENDBRANCH  16  17
ENDBRANCH  15  16
ENDBRANCH  13  15
ENDBRANCH   4  13
TORSDOF 8
ENDMDL
MODEL 2
REMARK VINA RESULT:    -4.923      1.882      8.686
REMARK INTER + INTRA:          -7.646
REMARK INTER:                  -7.012
REMARK INTRA:                  -0.633
REMARK UNBOUND:                -0.564
REMARK SMILES Cc1ccncc1/C=C/Nc1ccc(CCCN)cc1
REMARK SMILES IDX 14 1 13 2 12 3 11 4 20 5 19 6 15 7 16 8 17 9 18 10 10 13
REMARK SMILES IDX 9 15 8 16 7 17 2 18 6 19 3 20 5 21 4 22 1 23
REMARK H PARENT 18 11 18 12 10 14
ROOT
ATOM      1  C   UNL     1       5.010  14.854  -6.934  1.00  0.00    -0.048 A 
ATOM      2  C   UNL     1       4.021  13.870  -6.869  1.00  0.00     0.006 A 
ATOM      3  C   UNL     1       4.253  12.674  -6.196  1.00  0.00     0.026 A 
ATOM      4  C   UNL     1       5.497  12.380  -5.632  1.00  0.00     0.038 A 
ATOM      5  C   UNL     1       6.507  13.343  -5.746  1.00  0.00     0.026 A 
ATOM      6  C   UNL     1       6.267  14.566  -6.390  1.00  0.00     0.006 A 
ENDROOT
BRANCH   1   7
ATOM      7  C   UNL     1       4.737  16.193  -7.573  1.00  0.00     0.037 C 
BRANCH   7   8
ATOM      8  C   UNL     1       3.258  16.575  -7.773  1.00  0.00     0.020 C 
BRANCH   8   9
ATOM      9  C   UNL     1       2.744  17.748  -6.925  1.00  0.00     0.078 C 
BRANCH   9  10
ATOM     10  N   UNL     1       2.823  17.547  -5.485  1.00  0.00    -0.330 NA
ATOM     11  H   UNL     1       3.567  16.885  -5.266  1.00  0.00     0.118 HD
ATOM     12  H   UNL     1       1.964  17.116  -5.142  1.00  0.00     0.118 HD
ENDBRANCH   9  10
ENDBRANCH   8   9
ENDBRANCH   7   8
ENDBRANCH   1   7
BRANCH   4  13
ATOM     13  N   UNL     1       5.775  11.126  -5.054  1.00  0.00    -0.362 N 
ATOM     14  H   UNL     1       5.993  10.371  -5.692  1.00  0.00     0.166 HD
BRANCH  13  15
ATOM     15  C   UNL     1       5.526  10.794  -3.749  1.00  0.00     0.083 C 
BRANCH  15  16
ATOM     16  C   UNL     1       5.791   9.651  -3.103  1.00  0.00     0.027 C 
BRANCH  16  17
ATOM     17  C   UNL     1       4.716   8.855  -2.491  1.00  0.00    -0.003 A 
ATOM     18  C   UNL     1       4.718   7.449  -2.503  1.00  0.00    -0.041 A 
ATOM     19  C   UNL     1       3.610   9.478  -1.894  1.00  0.00     0.119 A 
ATOM     20  C   UNL     1       3.640   6.768  -1.917  1.00  0.00     0.024 A 
ATOM     21  N   UNL     1       2.571   8.837  -1.308  1.00  0.00    -0.264 NA
ATOM     22  C   UNL     1       2.614   7.493  -1.332  1.00  0.00     0.111 A 
ATOM     23  C   UNL     1       5.813   6.651  -3.155  1.00  0.00     0.045 C 
ENDBRANCH  16  17
ENDBRANCH  15  16
ENDBRANCH  13  15
ENDBRANCH   4  13
TORSDOF 8
ENDMDL
MODEL 3
REMARK VINA RESULT:    -4.911      4.344      5.541
REMARK INTER + INTRA:          -7.629
REMARK INTER:                  -7.077
REMARK INTRA:                  -0.552
REMARK UNBOUND:                -0.564
REMARK SMILES Cc1ccncc1/C=C/Nc1ccc(CCCN)cc1
REMARK SMILES IDX 14 1 13 2 12 3 11 4 20 5 19 6 15 7 16 8 17 9 18 10 10 13
REMARK SMILES IDX 9 15 8 16 7 17 2 18 6 19 3 20 5 21 4 22 1 23
REMARK H PARENT 18 11 18 12 10 14
ROOT
ATOM      1  C   UNL     1       4.037   8.148  -2.818  1.00  0.00    -0.048 A 
ATOM      2  C   UNL     1       3.496   9.151  -2.010  1.00  0.00     0.006 A 
ATOM      3  C   UNL     1       4.226  10.299  -1.717  1.00  0.00     0.026 A 
ATOM      4  C   UNL     1       5.545  10.457  -2.150  1.00  0.00     0.038 A 
ATOM      5  C   UNL     1       6.109   9.427  -2.913  1.00  0.00     0.026 A 
ATOM      6  C   UNL     1       5.364   8.285  -3.243  1.00  0.00     0.006 A 
ENDROOT
BRANCH   1   7
ATOM      7  C   UNL     1       3.219   6.947  -3.224  1.00  0.00     0.037 C 
BRANCH   7   8
ATOM      8  C   UNL     1       3.954   5.594  -3.271  1.00  0.00     0.020 C 
BRANCH   8   9
ATOM      9  C   UNL     1       3.953   4.874  -4.628  1.00  0.00     0.078 C 
BRANCH   9  10
ATOM     10  N   UNL     1       2.821   3.986  -4.852  1.00  0.00    -0.330 NA
ATOM     11  H   UNL     1       2.864   3.197  -4.209  1.00  0.00     0.118 HD
ATOM     12  H   UNL     1       2.872   3.580  -5.786  1.00  0.00     0.118 HD
ENDBRANCH   9  10
ENDBRANCH   8   9
ENDBRANCH   7   8
ENDBRANCH   1   7
BRANCH   4  13
ATOM     13  N   UNL     1       6.329  11.559  -1.760  1.00  0.00    -0.362 N 
ATOM     14  H   UNL     1       6.782  12.080  -2.500  1.00  0.00     0.166 HD
BRANCH  13  15
ATOM     15  C   UNL     1       6.729  11.819  -0.475  1.00  0.00     0.083 C 
BRANCH  15  16
ATOM     16  C   UNL     1       7.958  12.076  -0.008  1.00  0.00     0.027 C 
BRANCH  16  17
ATOM     17  C   UNL     1       8.576  13.400  -0.177  1.00  0.00    -0.003 A 
ATOM     18  C   UNL     1       9.914  13.658   0.172  1.00  0.00    -0.041 A 
ATOM     19  C   UNL     1       7.831  14.485  -0.665  1.00  0.00     0.119 A 
ATOM     20  C   UNL     1      10.416  14.957   0.000  1.00  0.00     0.024 A 
ATOM     21  N   UNL     1       8.305  15.739  -0.853  1.00  0.00    -0.264 NA
ATOM     22  C   UNL     1       9.591  15.943  -0.517  1.00  0.00     0.111 A 
ATOM     23  C   UNL     1      10.811  12.603   0.756  1.00  0.00     0.045 C 
ENDBRANCH  16  17
ENDBRANCH  15  16
ENDBRANCH  13  15
ENDBRANCH   4  13
TORSDOF 8
ENDMDL
MODEL 4
REMARK VINA RESULT:    -4.888      1.111      1.667
REMARK INTER + INTRA:          -7.596
REMARK INTER:                  -7.026
REMARK INTRA:                  -0.570
REMARK UNBOUND:                -0.564
REMARK SMILES Cc1ccncc1/C=C/Nc1ccc(CCCN)cc1
REMARK SMILES IDX 14 1 13 2 12 3 11 4 20 5 19 6 15 7 16 8 17 9 18 10 10 13
REMARK SMILES IDX 9 15 8 16 7 17 2 18 6 19 3 20 5 21 4 22 1 23
REMARK H PARENT 18 11 18 12 10 14
ROOT
ATOM      1  C   UNL     1       4.403   8.221  -1.780  1.00  0.00    -0.048 A 
ATOM      2  C   UNL     1       5.396   8.116  -2.756  1.00  0.00     0.006 A 
ATOM      3  C   UNL     1       5.884   9.251  -3.397  1.00  0.00     0.026 A 
ATOM      4  C   UNL     1       5.352  10.519  -3.148  1.00  0.00     0.038 A 
ATOM      5  C   UNL     1       4.317  10.618  -2.211  1.00  0.00     0.026 A 
ATOM      6  C   UNL     1       3.847   9.482  -1.534  1.00  0.00     0.006 A 
ENDROOT
BRANCH   1   7
ATOM      7  C   UNL     1       3.937   7.012  -1.008  1.00  0.00     0.037 C 
BRANCH   7   8
ATOM      8  C   UNL     1       2.466   7.008  -0.549  1.00  0.00     0.020 C 
BRANCH   8   9
ATOM      9  C   UNL     1       2.189   6.370   0.820  1.00  0.00     0.078 C 
BRANCH   9  10
ATOM     10  N   UNL     1       2.446   4.939   0.896  1.00  0.00    -0.330 NA
ATOM     11  H   UNL     1       2.212   4.496   0.009  1.00  0.00     0.118 HD
ATOM     12  H   UNL     1       1.832   4.508   1.587  1.00  0.00     0.118 HD
ENDBRANCH   9  10
ENDBRANCH   8   9
ENDBRANCH   7   8
ENDBRANCH   1   7
BRANCH   4  13
ATOM     13  N   UNL     1       5.758  11.653  -3.877  1.00  0.00    -0.362 N 
ATOM     14  H   UNL     1       6.198  12.397  -3.351  1.00  0.00     0.166 HD
BRANCH  13  15
ATOM     15  C   UNL     1       5.380  11.932  -5.164  1.00  0.00     0.083 C 
BRANCH  15  16
ATOM     16  C   UNL     1       5.964  12.738  -6.061  1.00  0.00     0.027 C 
BRANCH  16  17
ATOM     17  C   UNL     1       5.395  14.054  -6.388  1.00  0.00    -0.003 A 
ATOM     18  C   UNL     1       6.109  15.251  -6.202  1.00  0.00    -0.041 A 
ATOM     19  C   UNL     1       4.082  14.171  -6.869  1.00  0.00     0.119 A 
ATOM     20  C   UNL     1       5.481  16.466  -6.518  1.00  0.00     0.024 A 
ATOM     21  N   UNL     1       3.468  15.333  -7.195  1.00  0.00    -0.264 NA
ATOM     22  C   UNL     1       4.187  16.455  -7.013  1.00  0.00     0.111 A 
ATOM     23  C   UNL     1       7.504  15.278  -5.644  1.00  0.00     0.045 C 
ENDBRANCH  16  17
ENDBRANCH  15  16
ENDBRANCH  13  15
ENDBRANCH   4  13
TORSDOF 8
ENDMDL
MODEL 5
REMARK VINA RESULT:    -4.888      4.478      5.581
REMARK INTER + INTRA:          -7.596
REMARK INTER:                  -7.033
REMARK INTRA:                  -0.563
REMARK UNBOUND:                -0.564
REMARK SMILES Cc1ccncc1/C=C/Nc1ccc(CCCN)cc1
REMARK SMILES IDX 14 1 13 2 12 3 11 4 20 5 19 6 15 7 16 8 17 9 18 10 10 13
REMARK SMILES IDX 9 15 8 16 7 17 2 18 6 19 3 20 5 21 4 22 1 23
REMARK H PARENT 18 11 18 12 10 14
ROOT
ATOM      1  C   UNL     1       4.210   8.064  -2.882  1.00  0.00    -0.048 A 
ATOM      2  C   UNL     1       3.619   9.031  -2.066  1.00  0.00     0.006 A 
ATOM      3  C   UNL     1       4.273  10.229  -1.796  1.00  0.00     0.026 A 
ATOM      4  C   UNL     1       5.567  10.479  -2.262  1.00  0.00     0.038 A 
ATOM      5  C   UNL     1       6.183   9.487  -3.034  1.00  0.00     0.026 A 
ATOM      6  C   UNL     1       5.513   8.292  -3.341  1.00  0.00     0.006 A 
ENDROOT
BRANCH   1   7
ATOM      7  C   UNL     1       3.471   6.807  -3.264  1.00  0.00     0.037 C 
BRANCH   7   8
ATOM      8  C   UNL     1       4.327   5.552  -3.524  1.00  0.00     0.020 C 
BRANCH   8   9
ATOM      9  C   UNL     1       4.003   4.770  -4.805  1.00  0.00     0.078 C 
BRANCH   9  10
ATOM     10  N   UNL     1       2.763   4.008  -4.764  1.00  0.00    -0.330 NA
ATOM     11  H   UNL     1       1.968   4.639  -4.673  1.00  0.00     0.118 HD
ATOM     12  H   UNL     1       2.740   3.419  -3.931  1.00  0.00     0.118 HD
ENDBRANCH   9  10
ENDBRANCH   8   9
ENDBRANCH   7   8
ENDBRANCH   1   7
BRANCH   4  13
ATOM     13  N   UNL     1       6.280  11.636  -1.895  1.00  0.00    -0.362 N 
ATOM     14  H   UNL     1       6.407  12.338  -2.613  1.00  0.00     0.166 HD
BRANCH  13  15
ATOM     15  C   UNL     1       7.021  11.768  -0.750  1.00  0.00     0.083 C 
BRANCH  15  16
ATOM     16  C   UNL     1       7.329  12.878  -0.066  1.00  0.00     0.027 C 
BRANCH  16  17
ATOM     17  C   UNL     1       8.720  13.340   0.050  1.00  0.00    -0.003 A 
ATOM     18  C   UNL     1       9.152  14.572  -0.473  1.00  0.00    -0.041 A 
ATOM     19  C   UNL     1       9.695  12.539   0.664  1.00  0.00     0.119 A 
ATOM     20  C   UNL     1      10.504  14.924  -0.339  1.00  0.00     0.024 A 
ATOM     21  N   UNL     1      10.998  12.871   0.817  1.00  0.00    -0.264 NA
ATOM     22  C   UNL     1      11.371  14.061   0.313  1.00  0.00     0.111 A 
ATOM     23  C   UNL     1       8.227  15.505  -1.202  1.00  0.00     0.045 C 
ENDBRANCH  16  17
ENDBRANCH  15  16
ENDBRANCH  13  15
ENDBRANCH   4  13
TORSDOF 8
ENDMDL
MODEL 6
REMARK VINA RESULT:    -4.828      2.214      8.510
REMARK INTER + INTRA:          -7.509
REMARK INTER:                  -6.860
REMARK INTRA:                  -0.649
REMARK UNBOUND:                -0.564
REMARK SMILES Cc1ccncc1/C=C/Nc1ccc(CCCN)cc1
REMARK SMILES IDX 14 1 13 2 12 3 11 4 20 5 19 6 15 7 16 8 17 9 18 10 10 13
REMARK SMILES IDX 9 15 8 16 7 17 2 18 6 19 3 20 5 21 4 22 1 23
REMARK H PARENT 18 11 18 12 10 14
ROOT
ATOM      1  C   UNL     1       5.000  14.892  -7.066  1.00  0.00    -0.048 A 
ATOM      2  C   UNL     1       3.992  13.939  -6.907  1.00  0.00     0.006 A 
ATOM      3  C   UNL     1       4.205  12.802  -6.132  1.00  0.00     0.026 A 
ATOM      4  C   UNL     1       5.448  12.533  -5.553  1.00  0.00     0.038 A 
ATOM      5  C   UNL     1       6.476  13.460  -5.759  1.00  0.00     0.026 A 
ATOM      6  C   UNL     1       6.256  14.627  -6.507  1.00  0.00     0.006 A 
ENDROOT
BRANCH   1   7
ATOM      7  C   UNL     1       4.749  16.175  -7.818  1.00  0.00     0.037 C 
BRANCH   7   8
ATOM      8  C   UNL     1       3.286  16.652  -7.905  1.00  0.00     0.020 C 
BRANCH   8   9
ATOM      9  C   UNL     1       2.866  17.724  -6.889  1.00  0.00     0.078 C 
BRANCH   9  10
ATOM     10  N   UNL     1       2.566  17.224  -5.555  1.00  0.00    -0.330 NA
ATOM     11  H   UNL     1       3.404  17.250  -4.976  1.00  0.00     0.118 HD
ATOM     12  H   UNL     1       2.296  16.241  -5.600  1.00  0.00     0.118 HD
ENDBRANCH   9  10
ENDBRANCH   8   9
ENDBRANCH   7   8
ENDBRANCH   1   7
BRANCH   4  13
ATOM     13  N   UNL     1       5.705  11.330  -4.869  1.00  0.00    -0.362 N 
ATOM     14  H   UNL     1       5.702  10.483  -5.423  1.00  0.00     0.166 HD
BRANCH  13  15
ATOM     15  C   UNL     1       5.702  11.188  -3.506  1.00  0.00     0.083 C 
BRANCH  15  16
ATOM     16  C   UNL     1       5.019  10.321  -2.748  1.00  0.00     0.027 C 
BRANCH  16  17
ATOM     17  C   UNL     1       5.211   8.869  -2.890  1.00  0.00    -0.003 A 
ATOM     18  C   UNL     1       4.263   7.935  -2.435  1.00  0.00    -0.041 A 
ATOM     19  C   UNL     1       6.383   8.351  -3.459  1.00  0.00     0.119 A 
ATOM     20  C   UNL     1       4.537   6.568  -2.589  1.00  0.00     0.024 A 
ATOM     21  N   UNL     1       6.656   7.036  -3.631  1.00  0.00    -0.264 NA
ATOM     22  C   UNL     1       5.721   6.174  -3.193  1.00  0.00     0.111 A 
ATOM     23  C   UNL     1       2.987   8.349  -1.758  1.00  0.00     0.045 C 
ENDBRANCH  16  17
ENDBRANCH  15  16
ENDBRANCH  13  15
ENDBRANCH   4  13
TORSDOF 8
ENDMDL
MODEL 7
REMARK VINA RESULT:    -4.788      4.048      5.127
REMARK INTER + INTRA:          -7.452
REMARK INTER:                  -6.920
REMARK INTRA:                  -0.531
REMARK UNBOUND:                -0.564
REMARK SMILES Cc1ccncc1/C=C/Nc1ccc(CCCN)cc1
REMARK SMILES IDX 14 1 13 2 12 3 11 4 20 5 19 6 15 7 16 8 17 9 18 10 10 13
REMARK SMILES IDX 9 15 8 16 7 17 2 18 6 19 3 20 5 21 4 22 1 23
REMARK H PARENT 18 11 18 12 10 14
ROOT
ATOM      1  C   UNL     1       3.473   8.097  -2.272  1.00  0.00    -0.048 A 
ATOM      2  C   UNL     1       3.094   9.295  -1.664  1.00  0.00     0.006 A 
ATOM      3  C   UNL     1       3.958  10.386  -1.642  1.00  0.00     0.026 A 
ATOM      4  C   UNL     1       5.256  10.302  -2.153  1.00  0.00     0.038 A 
ATOM      5  C   UNL     1       5.658   9.083  -2.712  1.00  0.00     0.026 A 
ATOM      6  C   UNL     1       4.777   7.992  -2.772  1.00  0.00     0.006 A 
ENDROOT
BRANCH   1   7
ATOM      7  C   UNL     1       2.510   6.943  -2.392  1.00  0.00     0.037 C 
BRANCH   7   8
ATOM      8  C   UNL     1       2.673   5.797  -1.375  1.00  0.00     0.020 C 
BRANCH   8   9
ATOM      9  C   UNL     1       2.639   6.201   0.106  1.00  0.00     0.078 C 
BRANCH   9  10
ATOM     10  N   UNL     1       1.321   6.168   0.723  1.00  0.00    -0.330 NA
ATOM     11  H   UNL     1       1.247   5.364   1.345  1.00  0.00     0.118 HD
ATOM     12  H   UNL     1       0.603   6.029   0.011  1.00  0.00     0.118 HD
ENDBRANCH   9  10
ENDBRANCH   8   9
ENDBRANCH   7   8
ENDBRANCH   1   7
BRANCH   4  13
ATOM     13  N   UNL     1       6.175  11.361  -2.027  1.00  0.00    -0.362 N 
ATOM     14  H   UNL     1       6.429  11.845  -2.879  1.00  0.00     0.166 HD
BRANCH  13  15
ATOM     15  C   UNL     1       6.931  11.613  -0.913  1.00  0.00     0.083 C 
BRANCH  15  16
ATOM     16  C   UNL     1       7.135  12.773  -0.275  1.00  0.00     0.027 C 
BRANCH  16  17
ATOM     17  C   UNL     1       8.494  13.289  -0.049  1.00  0.00    -0.003 A 
ATOM     18  C   UNL     1       8.897  14.566  -0.479  1.00  0.00    -0.041 A 
ATOM     19  C   UNL     1       9.467  12.501   0.582  1.00  0.00     0.119 A 
ATOM     20  C   UNL     1      10.220  14.970  -0.243  1.00  0.00     0.024 A 
ATOM     21  N   UNL     1      10.742  12.881   0.833  1.00  0.00    -0.264 NA
ATOM     22  C   UNL     1      11.086  14.112   0.415  1.00  0.00     0.111 A 
ATOM     23  C   UNL     1       7.974  15.495  -1.216  1.00  0.00     0.045 C 
ENDBRANCH  16  17
ENDBRANCH  15  16
ENDBRANCH  13  15
ENDBRANCH   4  13
TORSDOF 8
ENDMDL
MODEL 8
REMARK VINA RESULT:    -4.786      2.079      2.600
REMARK INTER + INTRA:          -7.449
REMARK INTER:                  -6.953
REMARK INTRA:                  -0.497
REMARK UNBOUND:                -0.564
REMARK SMILES Cc1ccncc1/C=C/Nc1ccc(CCCN)cc1
REMARK SMILES IDX 14 1 13 2 12 3 11 4 20 5 19 6 15 7 16 8 17 9 18 10 10 13
REMARK SMILES IDX 9 15 8 16 7 17 2 18 6 19 3 20 5 21 4 22 1 23
REMARK H PARENT 18 11 18 12 10 14
ROOT
ATOM      1  C   UNL     1       4.848   7.375  -2.397  1.00  0.00    -0.048 A 
ATOM      2  C   UNL     1       5.970   7.641  -3.183  1.00  0.00     0.006 A 
ATOM      3  C   UNL     1       6.304   8.948  -3.527  1.00  0.00     0.026 A 
ATOM      4  C   UNL     1       5.494  10.028  -3.169  1.00  0.00     0.038 A 
ATOM      5  C   UNL     1       4.337   9.758  -2.429  1.00  0.00     0.026 A 
ATOM      6  C   UNL     1       4.016   8.446  -2.046  1.00  0.00     0.006 A 
ENDROOT
BRANCH   1   7
ATOM      7  C   UNL     1       4.533   5.975  -1.933  1.00  0.00     0.037 C 
BRANCH   7   8
ATOM      8  C   UNL     1       3.482   5.197  -2.748  1.00  0.00     0.020 C 
BRANCH   8   9
ATOM      9  C   UNL     1       3.730   5.113  -4.262  1.00  0.00     0.078 C 
BRANCH   9  10
ATOM     10  N   UNL     1       4.399   3.900  -4.710  1.00  0.00    -0.330 NA
ATOM     11  H   UNL     1       4.561   3.942  -5.715  1.00  0.00     0.118 HD
ATOM     12  H   UNL     1       3.795   3.091  -4.564  1.00  0.00     0.118 HD
ENDBRANCH   9  10
ENDBRANCH   8   9
ENDBRANCH   7   8
ENDBRANCH   1   7
BRANCH   4  13
ATOM     13  N   UNL     1       5.760  11.338  -3.614  1.00  0.00    -0.362 N 
ATOM     14  H   UNL     1       6.161  11.974  -2.937  1.00  0.00     0.166 HD
BRANCH  13  15
ATOM     15  C   UNL     1       5.292  11.878  -4.782  1.00  0.00     0.083 C 
BRANCH  15  16
ATOM     16  C   UNL     1       5.964  12.524  -5.744  1.00  0.00     0.027 C 
BRANCH  16  17
ATOM     17  C   UNL     1       5.510  13.831  -6.244  1.00  0.00    -0.003 A 
ATOM     18  C   UNL     1       6.283  14.998  -6.111  1.00  0.00    -0.041 A 
ATOM     19  C   UNL     1       4.252  13.974  -6.848  1.00  0.00     0.119 A 
ATOM     20  C   UNL     1       5.764  16.209  -6.594  1.00  0.00     0.024 A 
ATOM     21  N   UNL     1       3.744  15.130  -7.336  1.00  0.00    -0.264 NA
ATOM     22  C   UNL     1       4.517  16.222  -7.199  1.00  0.00     0.111 A 
ATOM     23  C   UNL     1       7.626  15.002  -5.436  1.00  0.00     0.045 C 
ENDBRANCH  16  17
ENDBRANCH  15  16
ENDBRANCH  13  15
ENDBRANCH   4  13
TORSDOF 8
ENDMDL
MODEL 9
REMARK VINA RESULT:    -4.521      4.396      8.665
REMARK INTER + INTRA:          -7.067
REMARK INTER:                  -6.384
REMARK INTRA:                  -0.683
REMARK UNBOUND:                -0.564
REMARK SMILES Cc1ccncc1/C=C/Nc1ccc(CCCN)cc1
REMARK SMILES IDX 14 1 13 2 12 3 11 4 20 5 19 6 15 7 16 8 17 9 18 10 10 13
REMARK SMILES IDX 9 15 8 16 7 17 2 18 6 19 3 20 5 21 4 22 1 23
REMARK H PARENT 18 11 18 12 10 14
ROOT
ATOM      1  C   UNL     1       9.301  13.601   0.277  1.00  0.00    -0.048 A 
ATOM      2  C   UNL     1       8.226  14.115  -0.450  1.00  0.00     0.006 A 
ATOM      3  C   UNL     1       7.137  13.311  -0.774  1.00  0.00     0.026 A 
ATOM      4  C   UNL     1       7.112  11.951  -0.457  1.00  0.00     0.038 A 
ATOM      5  C   UNL     1       8.215  11.420   0.222  1.00  0.00     0.026 A 
ATOM      6  C   UNL     1       9.298  12.235   0.585  1.00  0.00     0.006 A 
ENDROOT
BRANCH   1   7
ATOM      7  C   UNL     1      10.439  14.486   0.720  1.00  0.00     0.037 C 
BRANCH   7   8
ATOM      8  C   UNL     1      11.729  14.429  -0.121  1.00  0.00     0.020 C 
BRANCH   8   9
ATOM      9  C   UNL     1      11.910  15.551  -1.153  1.00  0.00     0.078 C 
BRANCH   9  10
ATOM     10  N   UNL     1      11.289  15.304  -2.446  1.00  0.00    -0.330 NA
ATOM     11  H   UNL     1      11.254  14.302  -2.630  1.00  0.00     0.118 HD
ATOM     12  H   UNL     1      11.862  15.699  -3.192  1.00  0.00     0.118 HD
ENDBRANCH   9  10
ENDBRANCH   8   9
ENDBRANCH   7   8
ENDBRANCH   1   7
BRANCH   4  13
ATOM     13  N   UNL     1       6.070  11.105  -0.884  1.00  0.00    -0.362 N 
ATOM     14  H   UNL     1       5.652  10.509  -0.182  1.00  0.00     0.166 HD
BRANCH  13  15
ATOM     15  C   UNL     1       5.762  10.845  -2.193  1.00  0.00     0.083 C 
BRANCH  15  16
ATOM     16  C   UNL     1       5.565   9.665  -2.797  1.00  0.00     0.027 C 
BRANCH  16  17
ATOM     17  C   UNL     1       4.590   8.695  -2.275  1.00  0.00    -0.003 A 
ATOM     18  C   UNL     1       4.765   7.306  -2.405  1.00  0.00    -0.041 A 
ATOM     19  C   UNL     1       3.410   9.126  -1.650  1.00  0.00     0.119 A 
ATOM     20  C   UNL     1       3.773   6.452  -1.899  1.00  0.00     0.024 A 
ATOM     21  N   UNL     1       2.452   8.317  -1.141  1.00  0.00    -0.264 NA
ATOM     22  C   UNL     1       2.660   6.995  -1.276  1.00  0.00     0.111 A 
ATOM     23  C   UNL     1       5.955   6.706  -3.099  1.00  0.00     0.045 C 
ENDBRANCH  16  17
ENDBRANCH  15  16
ENDBRANCH  13  15
ENDBRANCH   4  13
TORSDOF 8
ENDMDL
