MODEL 1
REMARK VINA RESULT:    -5.037      0.000      0.000
REMARK INTER + INTRA:          -7.886
REMARK INTER:                  -7.246
REMARK INTRA:                  -0.640
REMARK UNBOUND:                -0.640
REMARK SMILES Cc1ccncc1/C=C/Nc1ccc(CCCN)cc1
REMARK SMILES IDX 14 1 13 2 12 3 11 4 20 5 19 6 15 7 16 8 17 9 18 10 10 13
REMARK SMILES IDX 9 15 8 16 7 17 2 18 6 19 3 20 5 21 4 22 1 23
REMARK H PARENT 18 11 18 12 10 14
ROOT
ATOM      1  C   UNL     1       3.423 -14.268  -3.077  1.00  0.00    -0.048 A 
ATOM      2  C   UNL     1       4.114 -14.383  -1.870  1.00  0.00     0.006 A 
ATOM      3  C   UNL     1       4.239 -13.292  -1.015  1.00  0.00     0.026 A 
ATOM      4  C   UNL     1       3.751 -12.030  -1.363  1.00  0.00     0.038 A 
ATOM      5  C   UNL     1       3.107 -11.899  -2.600  1.00  0.00     0.026 A 
ATOM      6  C   UNL     1       2.945 -13.005  -3.448  1.00  0.00     0.006 A 
ENDROOT
BRANCH   1   7
ATOM      7  C   UNL     1       3.194 -15.467  -3.963  1.00  0.00     0.037 C 
BRANCH   7   8
ATOM      8  C   UNL     1       3.783 -15.398  -5.386  1.00  0.00     0.020 C 
BRANCH   8   9
ATOM      9  C   UNL     1       5.009 -16.284  -5.650  1.00  0.00     0.078 C 
BRANCH   9  10
ATOM     10  N   UNL     1       6.280 -15.576  -5.699  1.00  0.00    -0.330 NA
ATOM     11  H   UNL     1       6.489 -15.170  -4.788  1.00  0.00     0.118 HD
ATOM     12  H   UNL     1       6.218 -14.786  -6.343  1.00  0.00     0.118 HD
ENDBRANCH   9  10
ENDBRANCH   8   9
ENDBRANCH   7   8
ENDBRANCH   1   7
BRANCH   4  13
ATOM     13  N   UNL     1       3.978 -10.896  -0.560  1.00  0.00    -0.362 N 
ATOM     14  H   UNL     1       3.483 -10.859   0.323  1.00  0.00     0.166 HD
BRANCH  13  15
ATOM     15  C   UNL     1       4.596  -9.749  -0.981  1.00  0.00     0.083 C 
BRANCH  15  16
ATOM     16  C   UNL     1       4.578  -8.528  -0.432  1.00  0.00     0.027 C 
BRANCH  16  17
ATOM     17  C   UNL     1       4.423  -7.322  -1.260  1.00  0.00    -0.003 A 
ATOM     18  C   UNL     1       3.802  -6.154  -0.783  1.00  0.00    -0.041 A 
ATOM     19  C   UNL     1       4.863  -7.303  -2.592  1.00  0.00     0.119 A 
ATOM     20  C   UNL     1       3.675  -5.057  -1.649  1.00  0.00     0.024 A 
ATOM     21  N   UNL     1       4.764  -6.248  -3.435  1.00  0.00    -0.264 NA
ATOM     22  C   UNL     1       4.173  -5.146  -2.939  1.00  0.00     0.111 A 
ATOM     23  C   UNL     1       3.237  -6.053   0.606  1.00  0.00     0.045 C 
ENDBRANCH  16  17
ENDBRANCH  15  16
ENDBRANCH  13  15
ENDBRANCH   4  13
TORSDOF 8
ENDMDL
MODEL 2
REMARK VINA RESULT:    -5.037      4.826      6.885
REMARK INTER + INTRA:          -7.885
REMARK INTER:                  -7.236
REMARK INTRA:                  -0.649
REMARK UNBOUND:                -0.640
REMARK SMILES Cc1ccncc1/C=C/Nc1ccc(CCCN)cc1
REMARK SMILES IDX 14 1 13 2 12 3 11 4 20 5 19 6 15 7 16 8 17 9 18 10 10 13
REMARK SMILES IDX 9 15 8 16 7 17 2 18 6 19 3 20 5 21 4 22 1 23
REMARK H PARENT 18 11 18 12 10 14
ROOT
ATOM      1  C   UNL     1      10.543 -10.445   1.024  1.00  0.00    -0.048 A 
ATOM      2  C   UNL     1      10.300 -11.183  -0.137  1.00  0.00     0.006 A 
ATOM      3  C   UNL     1       9.415 -10.715  -1.103  1.00  0.00     0.026 A 
ATOM      4  C   UNL     1       8.681  -9.541  -0.918  1.00  0.00     0.038 A 
ATOM      5  C   UNL     1       8.881  -8.829   0.271  1.00  0.00     0.026 A 
ATOM      6  C   UNL     1       9.801  -9.276   1.232  1.00  0.00     0.006 A 
ENDROOT
BRANCH   1   7
ATOM      7  C   UNL     1      11.574 -10.890   2.030  1.00  0.00     0.037 C 
BRANCH   7   8
ATOM      8  C   UNL     1      11.107 -11.010   3.494  1.00  0.00     0.020 C 
BRANCH   8   9
ATOM      9  C   UNL     1      11.024 -12.435   4.059  1.00  0.00     0.078 C 
BRANCH   9  10
ATOM     10  N   UNL     1       9.723 -13.076   3.925  1.00  0.00    -0.330 NA
ATOM     11  H   UNL     1       9.182 -12.948   4.779  1.00  0.00     0.118 HD
ATOM     12  H   UNL     1       9.837 -14.084   3.822  1.00  0.00     0.118 HD
ENDBRANCH   9  10
ENDBRANCH   8   9
ENDBRANCH   7   8
ENDBRANCH   1   7
BRANCH   4  13
ATOM     13  N   UNL     1       7.697  -9.125  -1.835  1.00  0.00    -0.362 N 
ATOM     14  H   UNL     1       8.027  -8.766  -2.723  1.00  0.00     0.166 HD
BRANCH  13  15
ATOM     15  C   UNL     1       6.376  -8.929  -1.531  1.00  0.00     0.083 C 
BRANCH  15  16
ATOM     16  C   UNL     1       5.438  -8.269  -2.222  1.00  0.00     0.027 C 
BRANCH  16  17
ATOM     17  C   UNL     1       4.551  -7.296  -1.566  1.00  0.00    -0.003 A 
ATOM     18  C   UNL     1       4.054  -6.161  -2.230  1.00  0.00    -0.041 A 
ATOM     19  C   UNL     1       4.191  -7.446  -0.218  1.00  0.00     0.119 A 
ATOM     20  C   UNL     1       3.233  -5.271  -1.521  1.00  0.00     0.024 A 
ATOM     21  N   UNL     1       3.386  -6.608   0.476  1.00  0.00    -0.264 NA
ATOM     22  C   UNL     1       2.923  -5.539  -0.197  1.00  0.00     0.111 A 
ATOM     23  C   UNL     1       4.402  -5.847  -3.658  1.00  0.00     0.045 C 
ENDBRANCH  16  17
ENDBRANCH  15  16
ENDBRANCH  13  15
ENDBRANCH   4  13
TORSDOF 8
ENDMDL
MODEL 3
REMARK VINA RESULT:    -5.023      0.128      1.079
REMARK INTER + INTRA:          -7.865
REMARK INTER:                  -7.220
REMARK INTRA:                  -0.646
REMARK UNBOUND:                -0.640
REMARK SMILES Cc1ccncc1/C=C/Nc1ccc(CCCN)cc1
REMARK SMILES IDX 14 1 13 2 12 3 11 4 20 5 19 6 15 7 16 8 17 9 18 10 10 13
REMARK SMILES IDX 9 15 8 16 7 17 2 18 6 19 3 20 5 21 4 22 1 23
REMARK H PARENT 18 11 18 12 10 14
ROOT
ATOM      1  C   UNL     1       3.360 -14.284  -3.085  1.00  0.00    -0.048 A 
ATOM      2  C   UNL     1       2.886 -13.014  -3.420  1.00  0.00     0.006 A 
ATOM      3  C   UNL     1       3.200 -11.909  -2.635  1.00  0.00     0.026 A 
ATOM      4  C   UNL     1       3.930 -12.036  -1.450  1.00  0.00     0.038 A 
ATOM      5  C   UNL     1       4.357 -13.317  -1.083  1.00  0.00     0.026 A 
ATOM      6  C   UNL     1       4.076 -14.430  -1.891  1.00  0.00     0.006 A 
ENDROOT
BRANCH   1   7
ATOM      7  C   UNL     1       3.111 -15.472  -3.981  1.00  0.00     0.037 C 
BRANCH   7   8
ATOM      8  C   UNL     1       3.869 -15.497  -5.323  1.00  0.00     0.020 C 
BRANCH   8   9
ATOM      9  C   UNL     1       5.170 -16.313  -5.346  1.00  0.00     0.078 C 
BRANCH   9  10
ATOM     10  N   UNL     1       6.357 -15.566  -5.738  1.00  0.00    -0.330 NA
ATOM     11  H   UNL     1       7.152 -16.198  -5.830  1.00  0.00     0.118 HD
ATOM     12  H   UNL     1       6.616 -14.907  -5.004  1.00  0.00     0.118 HD
ENDBRANCH   9  10
ENDBRANCH   8   9
ENDBRANCH   7   8
ENDBRANCH   1   7
BRANCH   4  13
ATOM     13  N   UNL     1       4.149 -10.942  -0.591  1.00  0.00    -0.362 N 
ATOM     14  H   UNL     1       3.679 -10.967   0.305  1.00  0.00     0.166 HD
BRANCH  13  15
ATOM     15  C   UNL     1       4.725  -9.757  -0.964  1.00  0.00     0.083 C 
BRANCH  15  16
ATOM     16  C   UNL     1       4.568  -8.536  -0.435  1.00  0.00     0.027 C 
BRANCH  16  17
ATOM     17  C   UNL     1       4.430  -7.347  -1.289  1.00  0.00    -0.003 A 
ATOM     18  C   UNL     1       3.824  -6.161  -0.838  1.00  0.00    -0.041 A 
ATOM     19  C   UNL     1       4.871  -7.363  -2.621  1.00  0.00     0.119 A 
ATOM     20  C   UNL     1       3.712  -5.082  -1.727  1.00  0.00     0.024 A 
ATOM     21  N   UNL     1       4.787  -6.325  -3.486  1.00  0.00    -0.264 NA
ATOM     22  C   UNL     1       4.210  -5.205  -3.015  1.00  0.00     0.111 A 
ATOM     23  C   UNL     1       3.258  -6.023   0.547  1.00  0.00     0.045 C 
ENDBRANCH  16  17
ENDBRANCH  15  16
ENDBRANCH  13  15
ENDBRANCH   4  13
TORSDOF 8
ENDMDL
MODEL 4
REMARK VINA RESULT:    -4.996      1.700      8.438
REMARK INTER + INTRA:          -7.826
REMARK INTER:                  -7.302
REMARK INTRA:                  -0.524
REMARK UNBOUND:                -0.640
REMARK SMILES Cc1ccncc1/C=C/Nc1ccc(CCCN)cc1
REMARK SMILES IDX 14 1 13 2 12 3 11 4 20 5 19 6 15 7 16 8 17 9 18 10 10 13
REMARK SMILES IDX 9 15 8 16 7 17 2 18 6 19 3 20 5 21 4 22 1 23
REMARK H PARENT 18 11 18 12 10 14
ROOT
ATOM      1  C   UNL     1       4.626  -6.806  -1.441  1.00  0.00    -0.048 A 
ATOM      2  C   UNL     1       4.226  -7.568  -0.341  1.00  0.00     0.006 A 
ATOM      3  C   UNL     1       4.519  -8.927  -0.274  1.00  0.00     0.026 A 
ATOM      4  C   UNL     1       5.147  -9.593  -1.329  1.00  0.00     0.038 A 
ATOM      5  C   UNL     1       5.497  -8.842  -2.457  1.00  0.00     0.026 A 
ATOM      6  C   UNL     1       5.240  -7.464  -2.514  1.00  0.00     0.006 A 
ENDROOT
BRANCH   1   7
ATOM      7  C   UNL     1       4.405  -5.315  -1.480  1.00  0.00     0.037 C 
BRANCH   7   8
ATOM      8  C   UNL     1       4.456  -4.643  -2.866  1.00  0.00     0.020 C 
BRANCH   8   9
ATOM      9  C   UNL     1       5.204  -3.304  -2.938  1.00  0.00     0.078 C 
BRANCH   9  10
ATOM     10  N   UNL     1       4.837  -2.454  -4.062  1.00  0.00    -0.330 NA
ATOM     11  H   UNL     1       4.372  -3.007  -4.780  1.00  0.00     0.118 HD
ATOM     12  H   UNL     1       5.675  -2.078  -4.506  1.00  0.00     0.118 HD
ENDBRANCH   9  10
ENDBRANCH   8   9
ENDBRANCH   7   8
ENDBRANCH   1   7
BRANCH   4  13
ATOM     13  N   UNL     1       5.339 -10.988  -1.319  1.00  0.00    -0.362 N 
ATOM     14  H   UNL     1       6.296 -11.316  -1.356  1.00  0.00     0.166 HD
BRANCH  13  15
ATOM     15  C   UNL     1       4.351 -11.915  -1.522  1.00  0.00     0.083 C 
BRANCH  15  16
ATOM     16  C   UNL     1       4.318 -13.207  -1.168  1.00  0.00     0.027 C 
BRANCH  16  17
ATOM     17  C   UNL     1       3.767 -14.230  -2.070  1.00  0.00    -0.003 A 
ATOM     18  C   UNL     1       3.768 -15.599  -1.747  1.00  0.00    -0.041 A 
ATOM     19  C   UNL     1       3.246 -13.879  -3.324  1.00  0.00     0.119 A 
ATOM     20  C   UNL     1       3.245 -16.510  -2.676  1.00  0.00     0.024 A 
ATOM     21  N   UNL     1       2.721 -14.743  -4.224  1.00  0.00    -0.264 NA
ATOM     22  C   UNL     1       2.731 -16.041  -3.875  1.00  0.00     0.111 A 
ATOM     23  C   UNL     1       4.344 -16.122  -0.461  1.00  0.00     0.045 C 
ENDBRANCH  16  17
ENDBRANCH  15  16
ENDBRANCH  13  15
ENDBRANCH   4  13
TORSDOF 8
ENDMDL
MODEL 5
REMARK VINA RESULT:    -4.955      2.076      8.439
REMARK INTER + INTRA:          -7.767
REMARK INTER:                  -7.144
REMARK INTRA:                  -0.623
REMARK UNBOUND:                -0.640
REMARK SMILES Cc1ccncc1/C=C/Nc1ccc(CCCN)cc1
REMARK SMILES IDX 14 1 13 2 12 3 11 4 20 5 19 6 15 7 16 8 17 9 18 10 10 13
REMARK SMILES IDX 9 15 8 16 7 17 2 18 6 19 3 20 5 21 4 22 1 23
REMARK H PARENT 18 11 18 12 10 14
ROOT
ATOM      1  C   UNL     1       3.947  -6.115  -0.619  1.00  0.00    -0.048 A 
ATOM      2  C   UNL     1       3.794  -7.097   0.363  1.00  0.00     0.006 A 
ATOM      3  C   UNL     1       4.323  -8.371   0.182  1.00  0.00     0.026 A 
ATOM      4  C   UNL     1       4.954  -8.740  -1.009  1.00  0.00     0.038 A 
ATOM      5  C   UNL     1       5.058  -7.774  -2.016  1.00  0.00     0.026 A 
ATOM      6  C   UNL     1       4.561  -6.476  -1.825  1.00  0.00     0.006 A 
ENDROOT
BRANCH   1   7
ATOM      7  C   UNL     1       3.468  -4.703  -0.392  1.00  0.00     0.037 C 
BRANCH   7   8
ATOM      8  C   UNL     1       2.193  -4.277  -1.145  1.00  0.00     0.020 C 
BRANCH   8   9
ATOM      9  C   UNL     1       0.880  -4.911  -0.661  1.00  0.00     0.078 C 
BRANCH   9  10
ATOM     10  N   UNL     1       0.396  -4.419   0.621  1.00  0.00    -0.330 NA
ATOM     11  H   UNL     1       1.131  -4.490   1.323  1.00  0.00     0.118 HD
ATOM     12  H   UNL     1      -0.364  -5.009   0.960  1.00  0.00     0.118 HD
ENDBRANCH   9  10
ENDBRANCH   8   9
ENDBRANCH   7   8
ENDBRANCH   1   7
BRANCH   4  13
ATOM     13  N   UNL     1       5.385 -10.059  -1.245  1.00  0.00    -0.362 N 
ATOM     14  H   UNL     1       6.384 -10.224  -1.211  1.00  0.00     0.166 HD
BRANCH  13  15
ATOM     15  C   UNL     1       4.602 -11.058  -1.761  1.00  0.00     0.083 C 
BRANCH  15  16
ATOM     16  C   UNL     1       4.129 -12.157  -1.160  1.00  0.00     0.027 C 
BRANCH  16  17
ATOM     17  C   UNL     1       3.777 -13.357  -1.934  1.00  0.00    -0.003 A 
ATOM     18  C   UNL     1       4.136 -14.653  -1.522  1.00  0.00    -0.041 A 
ATOM     19  C   UNL     1       3.090 -13.251  -3.152  1.00  0.00     0.119 A 
ATOM     20  C   UNL     1       3.780 -15.741  -2.333  1.00  0.00     0.024 A 
ATOM     21  N   UNL     1       2.723 -14.291  -3.938  1.00  0.00    -0.264 NA
ATOM     22  C   UNL     1       3.076 -15.515  -3.505  1.00  0.00     0.111 A 
ATOM     23  C   UNL     1       4.920 -14.909  -0.265  1.00  0.00     0.045 C 
ENDBRANCH  16  17
ENDBRANCH  15  16
ENDBRANCH  13  15
ENDBRANCH   4  13
TORSDOF 8
ENDMDL
MODEL 6
REMARK VINA RESULT:    -4.928      1.991      8.599
REMARK INTER + INTRA:          -7.728
REMARK INTER:                  -7.128
REMARK INTRA:                  -0.600
REMARK UNBOUND:                -0.640
REMARK SMILES Cc1ccncc1/C=C/Nc1ccc(CCCN)cc1
REMARK SMILES IDX 14 1 13 2 12 3 11 4 20 5 19 6 15 7 16 8 17 9 18 10 10 13
REMARK SMILES IDX 9 15 8 16 7 17 2 18 6 19 3 20 5 21 4 22 1 23
REMARK H PARENT 18 11 18 12 10 14
ROOT
ATOM      1  C   UNL     1       4.472  -6.335  -1.468  1.00  0.00    -0.048 A 
ATOM      2  C   UNL     1       4.116  -7.060  -0.329  1.00  0.00     0.006 A 
ATOM      3  C   UNL     1       4.415  -8.416  -0.228  1.00  0.00     0.026 A 
ATOM      4  C   UNL     1       5.008  -9.115  -1.282  1.00  0.00     0.038 A 
ATOM      5  C   UNL     1       5.315  -8.401  -2.447  1.00  0.00     0.026 A 
ATOM      6  C   UNL     1       5.050  -7.026  -2.539  1.00  0.00     0.006 A 
ENDROOT
BRANCH   1   7
ATOM      7  C   UNL     1       4.244  -4.846  -1.548  1.00  0.00     0.037 C 
BRANCH   7   8
ATOM      8  C   UNL     1       4.240  -4.221  -2.956  1.00  0.00     0.020 C 
BRANCH   8   9
ATOM      9  C   UNL     1       5.204  -3.045  -3.174  1.00  0.00     0.078 C 
BRANCH   9  10
ATOM     10  N   UNL     1       4.812  -1.801  -2.527  1.00  0.00    -0.330 NA
ATOM     11  H   UNL     1       3.876  -1.532  -2.827  1.00  0.00     0.118 HD
ATOM     12  H   UNL     1       5.424  -1.041  -2.827  1.00  0.00     0.118 HD
ENDBRANCH   9  10
ENDBRANCH   8   9
ENDBRANCH   7   8
ENDBRANCH   1   7
BRANCH   4  13
ATOM     13  N   UNL     1       5.205 -10.509  -1.233  1.00  0.00    -0.362 N 
ATOM     14  H   UNL     1       6.142 -10.842  -1.424  1.00  0.00     0.166 HD
BRANCH  13  15
ATOM     15  C   UNL     1       4.202 -11.440  -1.206  1.00  0.00     0.083 C 
BRANCH  15  16
ATOM     16  C   UNL     1       3.761 -12.238  -2.188  1.00  0.00     0.027 C 
BRANCH  16  17
ATOM     17  C   UNL     1       3.810 -13.703  -2.059  1.00  0.00    -0.003 A 
ATOM     18  C   UNL     1       3.539 -14.564  -3.137  1.00  0.00    -0.041 A 
ATOM     19  C   UNL     1       4.096 -14.307  -0.826  1.00  0.00     0.119 A 
ATOM     20  C   UNL     1       3.585 -15.949  -2.921  1.00  0.00     0.024 A 
ATOM     21  N   UNL     1       4.162 -15.641  -0.604  1.00  0.00    -0.264 NA
ATOM     22  C   UNL     1       3.906 -16.431  -1.662  1.00  0.00     0.111 A 
ATOM     23  C   UNL     1       3.166 -14.053  -4.501  1.00  0.00     0.045 C 
ENDBRANCH  16  17
ENDBRANCH  15  16
ENDBRANCH  13  15
ENDBRANCH   4  13
TORSDOF 8
ENDMDL
MODEL 7
REMARK VINA RESULT:    -4.898      4.703      8.441
REMARK INTER + INTRA:          -7.686
REMARK INTER:                  -7.412
REMARK INTRA:                  -0.274
REMARK UNBOUND:                -0.640
REMARK SMILES Cc1ccncc1/C=C/Nc1ccc(CCCN)cc1
REMARK SMILES IDX 14 1 13 2 12 3 11 4 20 5 19 6 15 7 16 8 17 9 18 10 10 13
REMARK SMILES IDX 9 15 8 16 7 17 2 18 6 19 3 20 5 21 4 22 1 23
REMARK H PARENT 18 11 18 12 10 14
ROOT
ATOM      1  C   UNL     1       3.690  -5.922  -2.192  1.00  0.00    -0.048 A 
ATOM      2  C   UNL     1       3.727  -6.640  -0.995  1.00  0.00     0.006 A 
ATOM      3  C   UNL     1       4.580  -7.729  -0.846  1.00  0.00     0.026 A 
ATOM      4  C   UNL     1       5.369  -8.192  -1.902  1.00  0.00     0.038 A 
ATOM      5  C   UNL     1       5.291  -7.507  -3.121  1.00  0.00     0.026 A 
ATOM      6  C   UNL     1       4.461  -6.385  -3.266  1.00  0.00     0.006 A 
ENDROOT
BRANCH   1   7
ATOM      7  C   UNL     1       2.846  -4.680  -2.332  1.00  0.00     0.037 C 
BRANCH   7   8
ATOM      8  C   UNL     1       3.555  -3.331  -2.105  1.00  0.00     0.020 C 
BRANCH   8   9
ATOM      9  C   UNL     1       4.945  -3.186  -2.743  1.00  0.00     0.078 C 
BRANCH   9  10
ATOM     10  N   UNL     1       4.971  -2.452  -4.000  1.00  0.00    -0.330 NA
ATOM     11  H   UNL     1       4.199  -2.751  -4.594  1.00  0.00     0.118 HD
ATOM     12  H   UNL     1       5.819  -2.677  -4.521  1.00  0.00     0.118 HD
ENDBRANCH   9  10
ENDBRANCH   8   9
ENDBRANCH   7   8
ENDBRANCH   1   7
BRANCH   4  13
ATOM     13  N   UNL     1       6.144  -9.362  -1.796  1.00  0.00    -0.362 N 
ATOM     14  H   UNL     1       5.784 -10.189  -2.257  1.00  0.00     0.166 HD
BRANCH  13  15
ATOM     15  C   UNL     1       7.186  -9.535  -0.924  1.00  0.00     0.083 C 
BRANCH  15  16
ATOM     16  C   UNL     1       8.502  -9.549  -1.171  1.00  0.00     0.027 C 
BRANCH  16  17
ATOM     17  C   UNL     1       9.463 -10.004  -0.155  1.00  0.00    -0.003 A 
ATOM     18  C   UNL     1      10.258 -11.151  -0.328  1.00  0.00    -0.041 A 
ATOM     19  C   UNL     1       9.600  -9.320   1.063  1.00  0.00     0.119 A 
ATOM     20  C   UNL     1      11.132 -11.527   0.703  1.00  0.00     0.024 A 
ATOM     21  N   UNL     1      10.451  -9.659   2.059  1.00  0.00    -0.264 NA
ATOM     22  C   UNL     1      11.201 -10.756   1.852  1.00  0.00     0.111 A 
ATOM     23  C   UNL     1      10.175 -12.008  -1.560  1.00  0.00     0.045 C 
ENDBRANCH  16  17
ENDBRANCH  15  16
ENDBRANCH  13  15
ENDBRANCH   4  13
TORSDOF 8
ENDMDL
MODEL 8
REMARK VINA RESULT:    -4.895      1.289      1.876
REMARK INTER + INTRA:          -7.681
REMARK INTER:                  -7.050
REMARK INTRA:                  -0.631
REMARK UNBOUND:                -0.640
REMARK SMILES Cc1ccncc1/C=C/Nc1ccc(CCCN)cc1
REMARK SMILES IDX 14 1 13 2 12 3 11 4 20 5 19 6 15 7 16 8 17 9 18 10 10 13
REMARK SMILES IDX 9 15 8 16 7 17 2 18 6 19 3 20 5 21 4 22 1 23
REMARK H PARENT 18 11 18 12 10 14
ROOT
ATOM      1  C   UNL     1       3.450 -14.532  -2.957  1.00  0.00    -0.048 A 
ATOM      2  C   UNL     1       4.186 -14.492  -1.771  1.00  0.00     0.006 A 
ATOM      3  C   UNL     1       4.351 -13.296  -1.078  1.00  0.00     0.026 A 
ATOM      4  C   UNL     1       3.860 -12.087  -1.577  1.00  0.00     0.038 A 
ATOM      5  C   UNL     1       3.170 -12.117  -2.795  1.00  0.00     0.026 A 
ATOM      6  C   UNL     1       2.967 -13.326  -3.478  1.00  0.00     0.006 A 
ENDROOT
BRANCH   1   7
ATOM      7  C   UNL     1       3.178 -15.837  -3.663  1.00  0.00     0.037 C 
BRANCH   7   8
ATOM      8  C   UNL     1       3.297 -15.831  -5.199  1.00  0.00     0.020 C 
BRANCH   8   9
ATOM      9  C   UNL     1       4.647 -16.288  -5.772  1.00  0.00     0.078 C 
BRANCH   9  10
ATOM     10  N   UNL     1       5.651 -15.240  -5.891  1.00  0.00    -0.330 NA
ATOM     11  H   UNL     1       5.230 -14.395  -6.274  1.00  0.00     0.118 HD
ATOM     12  H   UNL     1       6.368 -15.516  -6.562  1.00  0.00     0.118 HD
ENDBRANCH   9  10
ENDBRANCH   8   9
ENDBRANCH   7   8
ENDBRANCH   1   7
BRANCH   4  13
ATOM     13  N   UNL     1       4.125 -10.858  -0.943  1.00  0.00    -0.362 N 
ATOM     14  H   UNL     1       3.378 -10.464  -0.385  1.00  0.00     0.166 HD
BRANCH  13  15
ATOM     15  C   UNL     1       5.193 -10.047  -1.225  1.00  0.00     0.083 C 
BRANCH  15  16
ATOM     16  C   UNL     1       5.203  -8.757  -1.587  1.00  0.00     0.027 C 
BRANCH  16  17
ATOM     17  C   UNL     1       4.442  -7.749  -0.834  1.00  0.00    -0.003 A 
ATOM     18  C   UNL     1       4.027  -6.534  -1.408  1.00  0.00    -0.041 A 
ATOM     19  C   UNL     1       4.129  -7.946   0.519  1.00  0.00     0.119 A 
ATOM     20  C   UNL     1       3.326  -5.617  -0.610  1.00  0.00     0.024 A 
ATOM     21  N   UNL     1       3.438  -7.080   1.298  1.00  0.00    -0.264 NA
ATOM     22  C   UNL     1       3.050  -5.934   0.710  1.00  0.00     0.111 A 
ATOM     23  C   UNL     1       4.341  -6.168  -2.831  1.00  0.00     0.045 C 
ENDBRANCH  16  17
ENDBRANCH  15  16
ENDBRANCH  13  15
ENDBRANCH   4  13
TORSDOF 8
ENDMDL
MODEL 9
REMARK VINA RESULT:    -4.835      4.483      6.543
REMARK INTER + INTRA:          -7.595
REMARK INTER:                  -6.916
REMARK INTRA:                  -0.679
REMARK UNBOUND:                -0.640
REMARK SMILES Cc1ccncc1/C=C/Nc1ccc(CCCN)cc1
REMARK SMILES IDX 14 1 13 2 12 3 11 4 20 5 19 6 15 7 16 8 17 9 18 10 10 13
REMARK SMILES IDX 9 15 8 16 7 17 2 18 6 19 3 20 5 21 4 22 1 23
REMARK H PARENT 18 11 18 12 10 14
ROOT
ATOM      1  C   UNL     1      10.278 -10.279   0.698  1.00  0.00    -0.048 A 
ATOM      2  C   UNL     1       9.680  -9.035   0.908  1.00  0.00     0.006 A 
ATOM      3  C   UNL     1       8.597  -8.628   0.135  1.00  0.00     0.026 A 
ATOM      4  C   UNL     1       8.119  -9.405  -0.922  1.00  0.00     0.038 A 
ATOM      5  C   UNL     1       8.754 -10.628  -1.170  1.00  0.00     0.026 A 
ATOM      6  C   UNL     1       9.822 -11.061  -0.370  1.00  0.00     0.006 A 
ENDROOT
BRANCH   1   7
ATOM      7  C   UNL     1      11.387 -10.773   1.594  1.00  0.00     0.037 C 
BRANCH   7   8
ATOM      8  C   UNL     1      11.132 -10.704   3.112  1.00  0.00     0.020 C 
BRANCH   8   9
ATOM      9  C   UNL     1      11.095 -12.050   3.850  1.00  0.00     0.078 C 
BRANCH   9  10
ATOM     10  N   UNL     1       9.775 -12.655   3.961  1.00  0.00    -0.330 NA
ATOM     11  H   UNL     1       9.762 -13.553   3.479  1.00  0.00     0.118 HD
ATOM     12  H   UNL     1       9.083 -12.079   3.482  1.00  0.00     0.118 HD
ENDBRANCH   9  10
ENDBRANCH   8   9
ENDBRANCH   7   8
ENDBRANCH   1   7
BRANCH   4  13
ATOM     13  N   UNL     1       7.102  -8.948  -1.782  1.00  0.00    -0.362 N 
ATOM     14  H   UNL     1       7.379  -8.300  -2.509  1.00  0.00     0.166 HD
BRANCH  13  15
ATOM     15  C   UNL     1       5.759  -9.102  -1.558  1.00  0.00     0.083 C 
BRANCH  15  16
ATOM     16  C   UNL     1       4.921  -8.318  -0.867  1.00  0.00     0.027 C 
BRANCH  16  17
ATOM     17  C   UNL     1       4.479  -7.020  -1.399  1.00  0.00    -0.003 A 
ATOM     18  C   UNL     1       3.761  -6.093  -0.623  1.00  0.00    -0.041 A 
ATOM     19  C   UNL     1       4.728  -6.667  -2.733  1.00  0.00     0.119 A 
ATOM     20  C   UNL     1       3.357  -4.887  -1.217  1.00  0.00     0.024 A 
ATOM     21  N   UNL     1       4.361  -5.502  -3.317  1.00  0.00    -0.264 NA
ATOM     22  C   UNL     1       3.685  -4.637  -2.540  1.00  0.00     0.111 A 
ATOM     23  C   UNL     1       3.379  -6.363   0.805  1.00  0.00     0.045 C 
ENDBRANCH  16  17
ENDBRANCH  15  16
ENDBRANCH  13  15
ENDBRANCH   4  13
TORSDOF 8
ENDMDL
