MODEL 1
REMARK VINA RESULT:    -4.971      0.000      0.000
REMARK INTER + INTRA:          -7.979
REMARK INTER:                  -7.151
REMARK INTRA:                  -0.828
REMARK UNBOUND:                -0.828
REMARK SMILES Cc1ccncc1/C=C/Nc1ccc(CCCN)cc1
REMARK SMILES IDX 14 1 13 2 12 3 11 4 20 5 19 6 15 7 16 8 17 9 18 10 10 13
REMARK SMILES IDX 9 15 8 16 7 17 2 18 6 19 3 20 5 21 4 22 1 23
REMARK H PARENT 18 11 18 12 10 14
ROOT
ATOM      1  C   UNL     1     -10.530  -9.215  -1.272  1.00  0.00    -0.048 A 
ATOM      2  C   UNL     1     -10.911  -8.577  -2.454  1.00  0.00     0.006 A 
ATOM      3  C   UNL     1     -10.320  -7.375  -2.835  1.00  0.00     0.026 A 
ATOM      4  C   UNL     1      -9.390  -6.726  -2.020  1.00  0.00     0.038 A 
ATOM      5  C   UNL     1      -9.049  -7.336  -0.807  1.00  0.00     0.026 A 
ATOM      6  C   UNL     1      -9.613  -8.567  -0.436  1.00  0.00     0.006 A 
ENDROOT
BRANCH   1   7
ATOM      7  C   UNL     1     -11.089 -10.565  -0.899  1.00  0.00     0.037 C 
BRANCH   7   8
ATOM      8  C   UNL     1     -11.776 -10.674   0.476  1.00  0.00     0.020 C 
BRANCH   8   9
ATOM      9  C   UNL     1     -13.239 -10.211   0.536  1.00  0.00     0.078 C 
BRANCH   9  10
ATOM     10  N   UNL     1     -13.438  -8.870   1.066  1.00  0.00    -0.330 NA
ATOM     11  H   UNL     1     -12.969  -8.777   1.966  1.00  0.00     0.118 HD
ATOM     12  H   UNL     1     -14.428  -8.711   1.257  1.00  0.00     0.118 HD
ENDBRANCH   9  10
ENDBRANCH   8   9
ENDBRANCH   7   8
ENDBRANCH   1   7
BRANCH   4  13
ATOM     13  N   UNL     1      -8.878  -5.454  -2.341  1.00  0.00    -0.362 N 
ATOM     14  H   UNL     1      -7.922  -5.420  -2.672  1.00  0.00     0.166 HD
BRANCH  13  15
ATOM     15  C   UNL     1      -9.468  -4.265  -2.004  1.00  0.00     0.083 C 
BRANCH  15  16
ATOM     16  C   UNL     1      -8.918  -3.049  -1.893  1.00  0.00     0.027 C 
BRANCH  16  17
ATOM     17  C   UNL     1      -8.256  -2.623  -0.651  1.00  0.00    -0.003 A 
ATOM     18  C   UNL     1      -6.912  -2.211  -0.615  1.00  0.00    -0.041 A 
ATOM     19  C   UNL     1      -8.940  -2.647   0.574  1.00  0.00     0.119 A 
ATOM     20  C   UNL     1      -6.352  -1.843   0.617  1.00  0.00     0.024 A 
ATOM     21  N   UNL     1      -8.421  -2.278   1.768  1.00  0.00    -0.264 NA
ATOM     22  C   UNL     1      -7.136  -1.881   1.760  1.00  0.00     0.111 A 
ATOM     23  C   UNL     1      -6.045  -2.188  -1.843  1.00  0.00     0.045 C 
ENDBRANCH  16  17
ENDBRANCH  15  16
ENDBRANCH  13  15
ENDBRANCH   4  13
TORSDOF 8
ENDMDL
MODEL 2
REMARK VINA RESULT:    -4.965      2.286      8.248
REMARK INTER + INTRA:          -7.971
REMARK INTER:                  -7.429
REMARK INTRA:                  -0.542
REMARK UNBOUND:                -0.828
REMARK SMILES Cc1ccncc1/C=C/Nc1ccc(CCCN)cc1
REMARK SMILES IDX 14 1 13 2 12 3 11 4 20 5 19 6 15 7 16 8 17 9 18 10 10 13
REMARK SMILES IDX 9 15 8 16 7 17 2 18 6 19 3 20 5 21 4 22 1 23
REMARK H PARENT 18 11 18 12 10 14
ROOT
ATOM      1  C   UNL     1      -6.105  -1.755  -1.449  1.00  0.00    -0.048 A 
ATOM      2  C   UNL     1      -6.288  -2.424  -2.660  1.00  0.00     0.006 A 
ATOM      3  C   UNL     1      -7.405  -3.229  -2.866  1.00  0.00     0.026 A 
ATOM      4  C   UNL     1      -8.338  -3.460  -1.852  1.00  0.00     0.038 A 
ATOM      5  C   UNL     1      -8.126  -2.834  -0.617  1.00  0.00     0.026 A 
ATOM      6  C   UNL     1      -7.022  -1.992  -0.417  1.00  0.00     0.006 A 
ENDROOT
BRANCH   1   7
ATOM      7  C   UNL     1      -4.954  -0.802  -1.249  1.00  0.00     0.037 C 
BRANCH   7   8
ATOM      8  C   UNL     1      -3.733  -1.343  -0.480  1.00  0.00     0.020 C 
BRANCH   8   9
ATOM      9  C   UNL     1      -3.028  -2.557  -1.103  1.00  0.00     0.078 C 
BRANCH   9  10
ATOM     10  N   UNL     1      -1.957  -2.234  -2.035  1.00  0.00    -0.330 NA
ATOM     11  H   UNL     1      -1.379  -1.485  -1.656  1.00  0.00     0.118 HD
ATOM     12  H   UNL     1      -2.346  -1.867  -2.904  1.00  0.00     0.118 HD
ENDBRANCH   9  10
ENDBRANCH   8   9
ENDBRANCH   7   8
ENDBRANCH   1   7
BRANCH   4  13
ATOM     13  N   UNL     1      -9.404  -4.365  -2.013  1.00  0.00    -0.362 N 
ATOM     14  H   UNL     1     -10.309  -3.967  -2.233  1.00  0.00     0.166 HD
BRANCH  13  15
ATOM     15  C   UNL     1      -9.372  -5.685  -1.650  1.00  0.00     0.083 C 
BRANCH  15  16
ATOM     16  C   UNL     1      -9.403  -6.777  -2.427  1.00  0.00     0.027 C 
BRANCH  16  17
ATOM     17  C   UNL     1     -10.052  -8.016  -1.972  1.00  0.00    -0.003 A 
ATOM     18  C   UNL     1     -11.026  -8.681  -2.737  1.00  0.00    -0.041 A 
ATOM     19  C   UNL     1      -9.746  -8.571  -0.721  1.00  0.00     0.119 A 
ATOM     20  C   UNL     1     -11.612  -9.846  -2.217  1.00  0.00     0.024 A 
ATOM     21  N   UNL     1     -10.288  -9.703  -0.212  1.00  0.00    -0.264 NA
ATOM     22  C   UNL     1     -11.209 -10.315  -0.977  1.00  0.00     0.111 A 
ATOM     23  C   UNL     1     -11.489  -8.169  -4.072  1.00  0.00     0.045 C 
ENDBRANCH  16  17
ENDBRANCH  15  16
ENDBRANCH  13  15
ENDBRANCH   4  13
TORSDOF 8
ENDMDL
MODEL 3
REMARK VINA RESULT:    -4.953      2.069      8.422
REMARK INTER + INTRA:          -7.954
REMARK INTER:                  -7.363
REMARK INTRA:                  -0.591
REMARK UNBOUND:                -0.828
REMARK SMILES Cc1ccncc1/C=C/Nc1ccc(CCCN)cc1
REMARK SMILES IDX 14 1 13 2 12 3 11 4 20 5 19 6 15 7 16 8 17 9 18 10 10 13
REMARK SMILES IDX 9 15 8 16 7 17 2 18 6 19 3 20 5 21 4 22 1 23
REMARK H PARENT 18 11 18 12 10 14
ROOT
ATOM      1  C   UNL     1      -7.003  -1.699  -0.844  1.00  0.00    -0.048 A 
ATOM      2  C   UNL     1      -6.792  -2.402  -2.031  1.00  0.00     0.006 A 
ATOM      3  C   UNL     1      -7.640  -3.443  -2.401  1.00  0.00     0.026 A 
ATOM      4  C   UNL     1      -8.677  -3.872  -1.569  1.00  0.00     0.038 A 
ATOM      5  C   UNL     1      -8.855  -3.205  -0.352  1.00  0.00     0.026 A 
ATOM      6  C   UNL     1      -8.027  -2.130   0.008  1.00  0.00     0.006 A 
ENDROOT
BRANCH   1   7
ATOM      7  C   UNL     1      -6.154  -0.506  -0.482  1.00  0.00     0.037 C 
BRANCH   7   8
ATOM      8  C   UNL     1      -5.686  -0.409   0.983  1.00  0.00     0.020 C 
BRANCH   8   9
ATOM      9  C   UNL     1      -5.818   0.972   1.642  1.00  0.00     0.078 C 
BRANCH   9  10
ATOM     10  N   UNL     1      -4.760   1.916   1.310  1.00  0.00    -0.330 NA
ATOM     11  H   UNL     1      -3.849   1.479   1.440  1.00  0.00     0.118 HD
ATOM     12  H   UNL     1      -4.779   2.706   1.955  1.00  0.00     0.118 HD
ENDBRANCH   9  10
ENDBRANCH   8   9
ENDBRANCH   7   8
ENDBRANCH   1   7
BRANCH   4  13
ATOM     13  N   UNL     1      -9.463  -4.998  -1.881  1.00  0.00    -0.362 N 
ATOM     14  H   UNL     1     -10.463  -4.904  -1.754  1.00  0.00     0.166 HD
BRANCH  13  15
ATOM     15  C   UNL     1      -8.973  -6.261  -2.087  1.00  0.00     0.083 C 
BRANCH  15  16
ATOM     16  C   UNL     1      -9.284  -7.402  -1.457  1.00  0.00     0.027 C 
BRANCH  16  17
ATOM     17  C   UNL     1     -10.374  -8.265  -1.938  1.00  0.00    -0.003 A 
ATOM     18  C   UNL     1     -10.976  -9.241  -1.125  1.00  0.00    -0.041 A 
ATOM     19  C   UNL     1     -10.836  -8.172  -3.259  1.00  0.00     0.119 A 
ATOM     20  C   UNL     1     -11.994 -10.038  -1.670  1.00  0.00     0.024 A 
ATOM     21  N   UNL     1     -11.828  -8.920  -3.796  1.00  0.00    -0.264 NA
ATOM     22  C   UNL     1     -12.386  -9.836  -2.984  1.00  0.00     0.111 A 
ATOM     23  C   UNL     1     -10.544  -9.486   0.294  1.00  0.00     0.045 C 
ENDBRANCH  16  17
ENDBRANCH  15  16
ENDBRANCH  13  15
ENDBRANCH   4  13
TORSDOF 8
ENDMDL
MODEL 4
REMARK VINA RESULT:    -4.877      1.912      8.339
REMARK INTER + INTRA:          -7.843
REMARK INTER:                  -7.361
REMARK INTRA:                  -0.483
REMARK UNBOUND:                -0.828
REMARK SMILES Cc1ccncc1/C=C/Nc1ccc(CCCN)cc1
REMARK SMILES IDX 14 1 13 2 12 3 11 4 20 5 19 6 15 7 16 8 17 9 18 10 10 13
REMARK SMILES IDX 9 15 8 16 7 17 2 18 6 19 3 20 5 21 4 22 1 23
REMARK H PARENT 18 11 18 12 10 14
ROOT
ATOM      1  C   UNL     1      -6.514  -1.653  -0.980  1.00  0.00    -0.048 A 
ATOM      2  C   UNL     1      -6.509  -2.319  -2.207  1.00  0.00     0.006 A 
ATOM      3  C   UNL     1      -7.516  -3.225  -2.527  1.00  0.00     0.026 A 
ATOM      4  C   UNL     1      -8.518  -3.560  -1.612  1.00  0.00     0.038 A 
ATOM      5  C   UNL     1      -8.491  -2.935  -0.360  1.00  0.00     0.026 A 
ATOM      6  C   UNL     1      -7.500  -1.992  -0.046  1.00  0.00     0.006 A 
ENDROOT
BRANCH   1   7
ATOM      7  C   UNL     1      -5.486  -0.596  -0.662  1.00  0.00     0.037 C 
BRANCH   7   8
ATOM      8  C   UNL     1      -5.142  -0.390   0.826  1.00  0.00     0.020 C 
BRANCH   8   9
ATOM      9  C   UNL     1      -5.715   0.875   1.481  1.00  0.00     0.078 C 
BRANCH   9  10
ATOM     10  N   UNL     1      -4.836   2.036   1.451  1.00  0.00    -0.330 NA
ATOM     11  H   UNL     1      -3.890   1.750   1.204  1.00  0.00     0.118 HD
ATOM     12  H   UNL     1      -4.763   2.445   2.383  1.00  0.00     0.118 HD
ENDBRANCH   9  10
ENDBRANCH   8   9
ENDBRANCH   7   8
ENDBRANCH   1   7
BRANCH   4  13
ATOM     13  N   UNL     1      -9.469  -4.562  -1.884  1.00  0.00    -0.362 N 
ATOM     14  H   UNL     1     -10.422  -4.255  -2.034  1.00  0.00     0.166 HD
BRANCH  13  15
ATOM     15  C   UNL     1      -9.263  -5.905  -1.707  1.00  0.00     0.083 C 
BRANCH  15  16
ATOM     16  C   UNL     1      -9.570  -6.921  -2.524  1.00  0.00     0.027 C 
BRANCH  16  17
ATOM     17  C   UNL     1     -10.183  -8.155  -2.008  1.00  0.00    -0.003 A 
ATOM     18  C   UNL     1     -11.105  -8.908  -2.757  1.00  0.00    -0.041 A 
ATOM     19  C   UNL     1      -9.897  -8.614  -0.714  1.00  0.00     0.119 A 
ATOM     20  C   UNL     1     -11.661 -10.060  -2.179  1.00  0.00     0.024 A 
ATOM     21  N   UNL     1     -10.411  -9.731  -0.148  1.00  0.00    -0.264 NA
ATOM     22  C   UNL     1     -11.280 -10.430  -0.899  1.00  0.00     0.111 A 
ATOM     23  C   UNL     1     -11.543  -8.504  -4.136  1.00  0.00     0.045 C 
ENDBRANCH  16  17
ENDBRANCH  15  16
ENDBRANCH  13  15
ENDBRANCH   4  13
TORSDOF 8
ENDMDL
MODEL 5
REMARK VINA RESULT:    -4.860      1.516      2.285
REMARK INTER + INTRA:          -7.820
REMARK INTER:                  -7.131
REMARK INTRA:                  -0.689
REMARK UNBOUND:                -0.828
REMARK SMILES Cc1ccncc1/C=C/Nc1ccc(CCCN)cc1
REMARK SMILES IDX 14 1 13 2 12 3 11 4 20 5 19 6 15 7 16 8 17 9 18 10 10 13
REMARK SMILES IDX 9 15 8 16 7 17 2 18 6 19 3 20 5 21 4 22 1 23
REMARK H PARENT 18 11 18 12 10 14
ROOT
ATOM      1  C   UNL     1     -10.806  -9.661  -1.302  1.00  0.00    -0.048 A 
ATOM      2  C   UNL     1     -11.200  -9.053  -2.496  1.00  0.00     0.006 A 
ATOM      3  C   UNL     1     -10.620  -7.857  -2.909  1.00  0.00     0.026 A 
ATOM      4  C   UNL     1      -9.688  -7.183  -2.116  1.00  0.00     0.038 A 
ATOM      5  C   UNL     1      -9.334  -7.763  -0.892  1.00  0.00     0.026 A 
ATOM      6  C   UNL     1      -9.887  -8.988  -0.488  1.00  0.00     0.006 A 
ENDROOT
BRANCH   1   7
ATOM      7  C   UNL     1     -11.353 -11.006  -0.894  1.00  0.00     0.037 C 
BRANCH   7   8
ATOM      8  C   UNL     1     -12.185 -11.050   0.403  1.00  0.00     0.020 C 
BRANCH   8   9
ATOM      9  C   UNL     1     -13.489 -10.239   0.393  1.00  0.00     0.078 C 
BRANCH   9  10
ATOM     10  N   UNL     1     -13.419  -8.953   1.073  1.00  0.00    -0.330 NA
ATOM     11  H   UNL     1     -13.825  -8.226   0.486  1.00  0.00     0.118 HD
ATOM     12  H   UNL     1     -12.445  -8.681   1.211  1.00  0.00     0.118 HD
ENDBRANCH   9  10
ENDBRANCH   8   9
ENDBRANCH   7   8
ENDBRANCH   1   7
BRANCH   4  13
ATOM     13  N   UNL     1      -9.187  -5.916  -2.471  1.00  0.00    -0.362 N 
ATOM     14  H   UNL     1      -8.818  -5.820  -3.409  1.00  0.00     0.166 HD
BRANCH  13  15
ATOM     15  C   UNL     1      -8.927  -4.902  -1.588  1.00  0.00     0.083 C 
BRANCH  15  16
ATOM     16  C   UNL     1      -8.800  -3.589  -1.821  1.00  0.00     0.027 C 
BRANCH  16  17
ATOM     17  C   UNL     1      -7.498  -2.999  -2.164  1.00  0.00    -0.003 A 
ATOM     18  C   UNL     1      -6.737  -2.261  -1.240  1.00  0.00    -0.041 A 
ATOM     19  C   UNL     1      -6.973  -3.118  -3.460  1.00  0.00     0.119 A 
ATOM     20  C   UNL     1      -5.515  -1.712  -1.659  1.00  0.00     0.024 A 
ATOM     21  N   UNL     1      -5.789  -2.610  -3.876  1.00  0.00    -0.264 NA
ATOM     22  C   UNL     1      -5.086  -1.920  -2.960  1.00  0.00     0.111 A 
ATOM     23  C   UNL     1      -7.202  -2.009   0.166  1.00  0.00     0.045 C 
ENDBRANCH  16  17
ENDBRANCH  15  16
ENDBRANCH  13  15
ENDBRANCH   4  13
TORSDOF 8
ENDMDL
MODEL 6
REMARK VINA RESULT:    -4.685      2.429      8.343
REMARK INTER + INTRA:          -7.567
REMARK INTER:                  -6.999
REMARK INTRA:                  -0.568
REMARK UNBOUND:                -0.828
REMARK SMILES Cc1ccncc1/C=C/Nc1ccc(CCCN)cc1
REMARK SMILES IDX 14 1 13 2 12 3 11 4 20 5 19 6 15 7 16 8 17 9 18 10 10 13
REMARK SMILES IDX 9 15 8 16 7 17 2 18 6 19 3 20 5 21 4 22 1 23
REMARK H PARENT 18 11 18 12 10 14
ROOT
ATOM      1  C   UNL     1      -6.194  -1.943  -1.634  1.00  0.00    -0.048 A 
ATOM      2  C   UNL     1      -6.413  -2.609  -2.841  1.00  0.00     0.006 A 
ATOM      3  C   UNL     1      -7.546  -3.396  -3.023  1.00  0.00     0.026 A 
ATOM      4  C   UNL     1      -8.460  -3.613  -1.988  1.00  0.00     0.038 A 
ATOM      5  C   UNL     1      -8.211  -2.992  -0.759  1.00  0.00     0.026 A 
ATOM      6  C   UNL     1      -7.091  -2.166  -0.582  1.00  0.00     0.006 A 
ENDROOT
BRANCH   1   7
ATOM      7  C   UNL     1      -5.023  -1.008  -1.460  1.00  0.00     0.037 C 
BRANCH   7   8
ATOM      8  C   UNL     1      -3.849  -1.521  -0.605  1.00  0.00     0.020 C 
BRANCH   8   9
ATOM      9  C   UNL     1      -3.048  -2.691  -1.194  1.00  0.00     0.078 C 
BRANCH   9  10
ATOM     10  N   UNL     1      -1.923  -2.306  -2.034  1.00  0.00    -0.330 NA
ATOM     11  H   UNL     1      -1.202  -3.026  -2.004  1.00  0.00     0.118 HD
ATOM     12  H   UNL     1      -1.482  -1.462  -1.667  1.00  0.00     0.118 HD
ENDBRANCH   9  10
ENDBRANCH   8   9
ENDBRANCH   7   8
ENDBRANCH   1   7
BRANCH   4  13
ATOM     13  N   UNL     1      -9.543  -4.502  -2.127  1.00  0.00    -0.362 N 
ATOM     14  H   UNL     1     -10.429  -4.099  -2.405  1.00  0.00     0.166 HD
BRANCH  13  15
ATOM     15  C   UNL     1      -9.557  -5.795  -1.673  1.00  0.00     0.083 C 
BRANCH  15  16
ATOM     16  C   UNL     1      -9.380  -6.933  -2.358  1.00  0.00     0.027 C 
BRANCH  16  17
ATOM     17  C   UNL     1     -10.511  -7.821  -2.666  1.00  0.00    -0.003 A 
ATOM     18  C   UNL     1     -10.811  -8.956  -1.891  1.00  0.00    -0.041 A 
ATOM     19  C   UNL     1     -11.325  -7.588  -3.784  1.00  0.00     0.119 A 
ATOM     20  C   UNL     1     -11.895  -9.763  -2.270  1.00  0.00     0.024 A 
ATOM     21  N   UNL     1     -12.384  -8.346  -4.154  1.00  0.00    -0.264 NA
ATOM     22  C   UNL     1     -12.645  -9.416  -3.383  1.00  0.00     0.111 A 
ATOM     23  C   UNL     1      -9.991  -9.355  -0.697  1.00  0.00     0.045 C 
ENDBRANCH  16  17
ENDBRANCH  15  16
ENDBRANCH  13  15
ENDBRANCH   4  13
TORSDOF 8
ENDMDL
MODEL 7
REMARK VINA RESULT:    -4.359      4.319      6.135
REMARK INTER + INTRA:          -7.099
REMARK INTER:                  -6.244
REMARK INTRA:                  -0.855
REMARK UNBOUND:                -0.828
REMARK SMILES Cc1ccncc1/C=C/Nc1ccc(CCCN)cc1
REMARK SMILES IDX 14 1 13 2 12 3 11 4 20 5 19 6 15 7 16 8 17 9 18 10 10 13
REMARK SMILES IDX 9 15 8 16 7 17 2 18 6 19 3 20 5 21 4 22 1 23
REMARK H PARENT 18 11 18 12 10 14
ROOT
ATOM      1  C   UNL     1     -10.168  -2.722  -2.052  1.00  0.00    -0.048 A 
ATOM      2  C   UNL     1      -9.183  -1.762  -1.811  1.00  0.00     0.006 A 
ATOM      3  C   UNL     1      -7.869  -2.141  -1.554  1.00  0.00     0.026 A 
ATOM      4  C   UNL     1      -7.501  -3.484  -1.449  1.00  0.00     0.038 A 
ATOM      5  C   UNL     1      -8.499  -4.449  -1.633  1.00  0.00     0.026 A 
ATOM      6  C   UNL     1      -9.818  -4.073  -1.931  1.00  0.00     0.006 A 
ENDROOT
BRANCH   1   7
ATOM      7  C   UNL     1     -11.572  -2.323  -2.431  1.00  0.00     0.037 C 
BRANCH   7   8
ATOM      8  C   UNL     1     -11.737  -0.964  -3.140  1.00  0.00     0.020 C 
BRANCH   8   9
ATOM      9  C   UNL     1     -12.893  -0.866  -4.145  1.00  0.00     0.078 C 
BRANCH   9  10
ATOM     10  N   UNL     1     -12.490  -0.665  -5.530  1.00  0.00    -0.330 NA
ATOM     11  H   UNL     1     -11.496  -0.864  -5.635  1.00  0.00     0.118 HD
ATOM     12  H   UNL     1     -12.602   0.315  -5.790  1.00  0.00     0.118 HD
ENDBRANCH   9  10
ENDBRANCH   8   9
ENDBRANCH   7   8
ENDBRANCH   1   7
BRANCH   4  13
ATOM     13  N   UNL     1      -6.202  -3.874  -1.071  1.00  0.00    -0.362 N 
ATOM     14  H   UNL     1      -6.089  -4.826  -0.749  1.00  0.00     0.166 HD
BRANCH  13  15
ATOM     15  C   UNL     1      -5.156  -3.013  -0.865  1.00  0.00     0.083 C 
BRANCH  15  16
ATOM     16  C   UNL     1      -4.659  -2.549   0.289  1.00  0.00     0.027 C 
BRANCH  16  17
ATOM     17  C   UNL     1      -4.868  -1.153   0.703  1.00  0.00    -0.003 A 
ATOM     18  C   UNL     1      -5.991  -0.748   1.446  1.00  0.00    -0.041 A 
ATOM     19  C   UNL     1      -3.960  -0.150   0.335  1.00  0.00     0.119 A 
ATOM     20  C   UNL     1      -6.125   0.609   1.778  1.00  0.00     0.024 A 
ATOM     21  N   UNL     1      -4.064   1.160   0.662  1.00  0.00    -0.264 NA
ATOM     22  C   UNL     1      -5.147   1.507   1.381  1.00  0.00     0.111 A 
ATOM     23  C   UNL     1      -7.070  -1.707   1.862  1.00  0.00     0.045 C 
ENDBRANCH  16  17
ENDBRANCH  15  16
ENDBRANCH  13  15
ENDBRANCH   4  13
TORSDOF 8
ENDMDL
MODEL 8
REMARK VINA RESULT:    -4.108      1.997      2.681
REMARK INTER + INTRA:          -6.738
REMARK INTER:                  -6.011
REMARK INTRA:                  -0.727
REMARK UNBOUND:                -0.828
REMARK SMILES Cc1ccncc1/C=C/Nc1ccc(CCCN)cc1
REMARK SMILES IDX 14 1 13 2 12 3 11 4 20 5 19 6 15 7 16 8 17 9 18 10 10 13
REMARK SMILES IDX 9 15 8 16 7 17 2 18 6 19 3 20 5 21 4 22 1 23
REMARK H PARENT 18 11 18 12 10 14
ROOT
ATOM      1  C   UNL     1     -10.523  -8.434  -2.097  1.00  0.00    -0.048 A 
ATOM      2  C   UNL     1     -10.718  -7.267  -2.840  1.00  0.00     0.006 A 
ATOM      3  C   UNL     1      -9.915  -6.150  -2.631  1.00  0.00     0.026 A 
ATOM      4  C   UNL     1      -8.943  -6.123  -1.628  1.00  0.00     0.038 A 
ATOM      5  C   UNL     1      -8.784  -7.273  -0.845  1.00  0.00     0.026 A 
ATOM      6  C   UNL     1      -9.565  -8.416  -1.076  1.00  0.00     0.006 A 
ENDROOT
BRANCH   1   7
ATOM      7  C   UNL     1     -11.318  -9.683  -2.382  1.00  0.00     0.037 C 
BRANCH   7   8
ATOM      8  C   UNL     1     -11.756 -10.518  -1.163  1.00  0.00     0.020 C 
BRANCH   8   9
ATOM      9  C   UNL     1     -11.388 -12.008  -1.200  1.00  0.00     0.078 C 
BRANCH   9  10
ATOM     10  N   UNL     1      -9.987 -12.303  -0.936  1.00  0.00    -0.330 NA
ATOM     11  H   UNL     1      -9.712 -13.155  -1.424  1.00  0.00     0.118 HD
ATOM     12  H   UNL     1      -9.850 -12.500   0.055  1.00  0.00     0.118 HD
ENDBRANCH   9  10
ENDBRANCH   8   9
ENDBRANCH   7   8
ENDBRANCH   1   7
BRANCH   4  13
ATOM     13  N   UNL     1      -8.209  -4.958  -1.333  1.00  0.00    -0.362 N 
ATOM     14  H   UNL     1      -7.545  -5.021  -0.572  1.00  0.00     0.166 HD
BRANCH  13  15
ATOM     15  C   UNL     1      -8.502  -3.708  -1.810  1.00  0.00     0.083 C 
BRANCH  15  16
ATOM     16  C   UNL     1      -8.008  -2.521  -1.431  1.00  0.00     0.027 C 
BRANCH  16  17
ATOM     17  C   UNL     1      -6.561  -2.313  -1.273  1.00  0.00    -0.003 A 
ATOM     18  C   UNL     1      -5.969  -2.047  -0.026  1.00  0.00    -0.041 A 
ATOM     19  C   UNL     1      -5.705  -2.336  -2.385  1.00  0.00     0.119 A 
ATOM     20  C   UNL     1      -4.583  -1.837   0.031  1.00  0.00     0.024 A 
ATOM     21  N   UNL     1      -4.365  -2.154  -2.345  1.00  0.00    -0.264 NA
ATOM     22  C   UNL     1      -3.835  -1.911  -1.133  1.00  0.00     0.111 A 
ATOM     23  C   UNL     1      -6.772  -1.940   1.240  1.00  0.00     0.045 C 
ENDBRANCH  16  17
ENDBRANCH  15  16
ENDBRANCH  13  15
ENDBRANCH   4  13
TORSDOF 8
ENDMDL
MODEL 9
REMARK VINA RESULT:    -4.106      4.648      6.534
REMARK INTER + INTRA:          -6.735
REMARK INTER:                  -6.013
REMARK INTRA:                  -0.722
REMARK UNBOUND:                -0.828
REMARK SMILES Cc1ccncc1/C=C/Nc1ccc(CCCN)cc1
REMARK SMILES IDX 14 1 13 2 12 3 11 4 20 5 19 6 15 7 16 8 17 9 18 10 10 13
REMARK SMILES IDX 9 15 8 16 7 17 2 18 6 19 3 20 5 21 4 22 1 23
REMARK H PARENT 18 11 18 12 10 14
ROOT
ATOM      1  C   UNL     1     -12.687  -1.011  -3.503  1.00  0.00    -0.048 A 
ATOM      2  C   UNL     1     -11.558  -0.290  -3.108  1.00  0.00     0.006 A 
ATOM      3  C   UNL     1     -10.536  -0.907  -2.394  1.00  0.00     0.026 A 
ATOM      4  C   UNL     1     -10.632  -2.237  -1.979  1.00  0.00     0.038 A 
ATOM      5  C   UNL     1     -11.789  -2.945  -2.324  1.00  0.00     0.026 A 
ATOM      6  C   UNL     1     -12.806  -2.340  -3.078  1.00  0.00     0.006 A 
ENDROOT
BRANCH   1   7
ATOM      7  C   UNL     1     -13.754  -0.381  -4.363  1.00  0.00     0.037 C 
BRANCH   7   8
ATOM      8  C   UNL     1     -14.180  -1.163  -5.621  1.00  0.00     0.020 C 
BRANCH   8   9
ATOM      9  C   UNL     1     -13.262  -1.023  -6.844  1.00  0.00     0.078 C 
BRANCH   9  10
ATOM     10  N   UNL     1     -13.036  -2.254  -7.588  1.00  0.00    -0.330 NA
ATOM     11  H   UNL     1     -12.085  -2.270  -7.956  1.00  0.00     0.118 HD
ATOM     12  H   UNL     1     -13.646  -2.288  -8.405  1.00  0.00     0.118 HD
ENDBRANCH   9  10
ENDBRANCH   8   9
ENDBRANCH   7   8
ENDBRANCH   1   7
BRANCH   4  13
ATOM     13  N   UNL     1      -9.658  -2.833  -1.155  1.00  0.00    -0.362 N 
ATOM     14  H   UNL     1      -9.828  -2.806  -0.157  1.00  0.00     0.166 HD
BRANCH  13  15
ATOM     15  C   UNL     1      -8.405  -3.205  -1.567  1.00  0.00     0.083 C 
BRANCH  15  16
ATOM     16  C   UNL     1      -7.257  -3.220  -0.877  1.00  0.00     0.027 C 
BRANCH  16  17
ATOM     17  C   UNL     1      -6.727  -1.998  -0.254  1.00  0.00    -0.003 A 
ATOM     18  C   UNL     1      -5.846  -1.131  -0.924  1.00  0.00    -0.041 A 
ATOM     19  C   UNL     1      -7.054  -1.665   1.069  1.00  0.00     0.119 A 
ATOM     20  C   UNL     1      -5.368   0.001  -0.247  1.00  0.00     0.024 A 
ATOM     21  N   UNL     1      -6.617  -0.568   1.732  1.00  0.00    -0.264 NA
ATOM     22  C   UNL     1      -5.784   0.241   1.053  1.00  0.00     0.111 A 
ATOM     23  C   UNL     1      -5.369  -1.394  -2.325  1.00  0.00     0.045 C 
ENDBRANCH  16  17
ENDBRANCH  15  16
ENDBRANCH  13  15
ENDBRANCH   4  13
TORSDOF 8
ENDMDL
