MODEL 1
REMARK VINA RESULT:    -5.109      0.000      0.000
REMARK INTER + INTRA:          -7.993
REMARK INTER:                  -7.349
REMARK INTRA:                  -0.644
REMARK UNBOUND:                -0.644
REMARK SMILES Cc1ccncc1/C=C/Nc1ccc(CCCN)cc1
REMARK SMILES IDX 14 1 13 2 12 3 11 4 20 5 19 6 15 7 16 8 17 9 18 10 10 13
REMARK SMILES IDX 9 15 8 16 7 17 2 18 6 19 3 20 5 21 4 22 1 23
REMARK H PARENT 18 11 18 12 10 14
ROOT
ATOM      1  C   UNL     1      10.069 -11.421   2.314  1.00  0.00    -0.048 A 
ATOM      2  C   UNL     1       9.278 -10.287   2.511  1.00  0.00     0.006 A 
ATOM      3  C   UNL     1       8.479  -9.791   1.484  1.00  0.00     0.026 A 
ATOM      4  C   UNL     1       8.495 -10.355   0.206  1.00  0.00     0.038 A 
ATOM      5  C   UNL     1       9.331 -11.458  -0.008  1.00  0.00     0.026 A 
ATOM      6  C   UNL     1      10.109 -11.986   1.033  1.00  0.00     0.006 A 
ENDROOT
BRANCH   1   7
ATOM      7  C   UNL     1      10.860 -12.027   3.446  1.00  0.00     0.037 C 
BRANCH   7   8
ATOM      8  C   UNL     1      10.068 -12.432   4.705  1.00  0.00     0.020 C 
BRANCH   8   9
ATOM      9  C   UNL     1       9.828 -13.936   4.894  1.00  0.00     0.078 C 
BRANCH   9  10
ATOM     10  N   UNL     1       8.568 -14.431   4.358  1.00  0.00    -0.330 NA
ATOM     11  H   UNL     1       7.808 -14.224   5.005  1.00  0.00     0.118 HD
ATOM     12  H   UNL     1       8.593 -15.448   4.282  1.00  0.00     0.118 HD
ENDBRANCH   9  10
ENDBRANCH   8   9
ENDBRANCH   7   8
ENDBRANCH   1   7
BRANCH   4  13
ATOM     13  N   UNL     1       7.782  -9.788  -0.867  1.00  0.00    -0.362 N 
ATOM     14  H   UNL     1       8.324  -9.508  -1.675  1.00  0.00     0.166 HD
BRANCH  13  15
ATOM     15  C   UNL     1       6.484  -9.356  -0.802  1.00  0.00     0.083 C 
BRANCH  15  16
ATOM     16  C   UNL     1       5.846  -8.474  -1.583  1.00  0.00     0.027 C 
BRANCH  16  17
ATOM     17  C   UNL     1       4.764  -7.631  -1.053  1.00  0.00    -0.003 A 
ATOM     18  C   UNL     1       4.439  -6.382  -1.611  1.00  0.00    -0.041 A 
ATOM     19  C   UNL     1       4.026  -8.029   0.071  1.00  0.00     0.119 A 
ATOM     20  C   UNL     1       3.407  -5.631  -1.028  1.00  0.00     0.024 A 
ATOM     21  N   UNL     1       3.016  -7.326   0.635  1.00  0.00    -0.264 NA
ATOM     22  C   UNL     1       2.729  -6.141   0.067  1.00  0.00     0.111 A 
ATOM     23  C   UNL     1       5.183  -5.807  -2.784  1.00  0.00     0.045 C 
ENDBRANCH  16  17
ENDBRANCH  15  16
ENDBRANCH  13  15
ENDBRANCH   4  13
TORSDOF 8
ENDMDL
MODEL 2
REMARK VINA RESULT:    -5.100      4.768      6.915
REMARK INTER + INTRA:          -7.980
REMARK INTER:                  -7.322
REMARK INTRA:                  -0.658
REMARK UNBOUND:                -0.644
REMARK SMILES Cc1ccncc1/C=C/Nc1ccc(CCCN)cc1
REMARK SMILES IDX 14 1 13 2 12 3 11 4 20 5 19 6 15 7 16 8 17 9 18 10 10 13
REMARK SMILES IDX 9 15 8 16 7 17 2 18 6 19 3 20 5 21 4 22 1 23
REMARK H PARENT 18 11 18 12 10 14
ROOT
ATOM      1  C   UNL     1       4.421 -14.174  -4.260  1.00  0.00    -0.048 A 
ATOM      2  C   UNL     1       4.867 -14.565  -2.996  1.00  0.00     0.006 A 
ATOM      3  C   UNL     1       4.826 -13.680  -1.923  1.00  0.00     0.026 A 
ATOM      4  C   UNL     1       4.415 -12.354  -2.082  1.00  0.00     0.038 A 
ATOM      5  C   UNL     1       4.022 -11.944  -3.362  1.00  0.00     0.026 A 
ATOM      6  C   UNL     1       4.024 -12.843  -4.439  1.00  0.00     0.006 A 
ENDROOT
BRANCH   1   7
ATOM      7  C   UNL     1       4.366 -15.153  -5.406  1.00  0.00     0.037 C 
BRANCH   7   8
ATOM      8  C   UNL     1       5.155 -14.778  -6.675  1.00  0.00     0.020 C 
BRANCH   8   9
ATOM      9  C   UNL     1       6.493 -15.504  -6.876  1.00  0.00     0.078 C 
BRANCH   9  10
ATOM     10  N   UNL     1       7.655 -14.816  -6.333  1.00  0.00    -0.330 NA
ATOM     11  H   UNL     1       7.417 -13.849  -6.114  1.00  0.00     0.118 HD
ATOM     12  H   UNL     1       8.393 -14.764  -7.036  1.00  0.00     0.118 HD
ENDBRANCH   9  10
ENDBRANCH   8   9
ENDBRANCH   7   8
ENDBRANCH   1   7
BRANCH   4  13
ATOM     13  N   UNL     1       4.484 -11.422  -1.030  1.00  0.00    -0.362 N 
ATOM     14  H   UNL     1       3.987 -11.659  -0.180  1.00  0.00     0.166 HD
BRANCH  13  15
ATOM     15  C   UNL     1       4.941 -10.136  -1.152  1.00  0.00     0.083 C 
BRANCH  15  16
ATOM     16  C   UNL     1       4.719  -9.081  -0.357  1.00  0.00     0.027 C 
BRANCH  16  17
ATOM     17  C   UNL     1       4.681  -7.714  -0.898  1.00  0.00    -0.003 A 
ATOM     18  C   UNL     1       3.866  -6.708  -0.349  1.00  0.00    -0.041 A 
ATOM     19  C   UNL     1       5.440  -7.365  -2.025  1.00  0.00     0.119 A 
ATOM     20  C   UNL     1       3.873  -5.437  -0.943  1.00  0.00     0.024 A 
ATOM     21  N   UNL     1       5.472  -6.139  -2.599  1.00  0.00    -0.264 NA
ATOM     22  C   UNL     1       4.687  -5.202  -2.039  1.00  0.00     0.111 A 
ATOM     23  C   UNL     1       2.961  -6.957   0.825  1.00  0.00     0.045 C 
ENDBRANCH  16  17
ENDBRANCH  15  16
ENDBRANCH  13  15
ENDBRANCH   4  13
TORSDOF 8
ENDMDL
MODEL 3
REMARK VINA RESULT:    -4.929      4.471      6.552
REMARK INTER + INTRA:          -7.734
REMARK INTER:                  -7.064
REMARK INTRA:                  -0.670
REMARK UNBOUND:                -0.644
REMARK SMILES Cc1ccncc1/C=C/Nc1ccc(CCCN)cc1
REMARK SMILES IDX 14 1 13 2 12 3 11 4 20 5 19 6 15 7 16 8 17 9 18 10 10 13
REMARK SMILES IDX 9 15 8 16 7 17 2 18 6 19 3 20 5 21 4 22 1 23
REMARK H PARENT 18 11 18 12 10 14
ROOT
ATOM      1  C   UNL     1       4.465 -14.000  -3.980  1.00  0.00    -0.048 A 
ATOM      2  C   UNL     1       3.973 -12.733  -4.300  1.00  0.00     0.006 A 
ATOM      3  C   UNL     1       4.024 -11.696  -3.373  1.00  0.00     0.026 A 
ATOM      4  C   UNL     1       4.493 -11.899  -2.073  1.00  0.00     0.038 A 
ATOM      5  C   UNL     1       4.935 -13.183  -1.733  1.00  0.00     0.026 A 
ATOM      6  C   UNL     1       4.921 -14.223  -2.675  1.00  0.00     0.006 A 
ENDROOT
BRANCH   1   7
ATOM      7  C   UNL     1       4.508 -15.103  -5.008  1.00  0.00     0.037 C 
BRANCH   7   8
ATOM      8  C   UNL     1       5.034 -14.726  -6.407  1.00  0.00     0.020 C 
BRANCH   8   9
ATOM      9  C   UNL     1       6.335 -15.413  -6.845  1.00  0.00     0.078 C 
BRANCH   9  10
ATOM     10  N   UNL     1       7.557 -14.778  -6.370  1.00  0.00    -0.330 NA
ATOM     11  H   UNL     1       8.156 -14.541  -7.160  1.00  0.00     0.118 HD
ATOM     12  H   UNL     1       8.096 -15.432  -5.804  1.00  0.00     0.118 HD
ENDBRANCH   9  10
ENDBRANCH   8   9
ENDBRANCH   7   8
ENDBRANCH   1   7
BRANCH   4  13
ATOM     13  N   UNL     1       4.438 -10.887  -1.095  1.00  0.00    -0.362 N 
ATOM     14  H   UNL     1       3.542 -10.738  -0.647  1.00  0.00     0.166 HD
BRANCH  13  15
ATOM     15  C   UNL     1       5.407  -9.940  -0.893  1.00  0.00     0.083 C 
BRANCH  15  16
ATOM     16  C   UNL     1       5.493  -8.699  -1.390  1.00  0.00     0.027 C 
BRANCH  16  17
ATOM     17  C   UNL     1       4.540  -7.652  -0.992  1.00  0.00    -0.003 A 
ATOM     18  C   UNL     1       4.446  -6.422  -1.667  1.00  0.00    -0.041 A 
ATOM     19  C   UNL     1       3.700  -7.827   0.118  1.00  0.00     0.119 A 
ATOM     20  C   UNL     1       3.526  -5.468  -1.206  1.00  0.00     0.024 A 
ATOM     21  N   UNL     1       2.795  -6.925   0.565  1.00  0.00    -0.264 NA
ATOM     22  C   UNL     1       2.728  -5.766  -0.112  1.00  0.00     0.111 A 
ATOM     23  C   UNL     1       5.322  -6.079  -2.839  1.00  0.00     0.045 C 
ENDBRANCH  16  17
ENDBRANCH  15  16
ENDBRANCH  13  15
ENDBRANCH   4  13
TORSDOF 8
ENDMDL
MODEL 4
REMARK VINA RESULT:    -4.911      1.230      1.777
REMARK INTER + INTRA:          -7.708
REMARK INTER:                  -7.051
REMARK INTRA:                  -0.658
REMARK UNBOUND:                -0.644
REMARK SMILES Cc1ccncc1/C=C/Nc1ccc(CCCN)cc1
REMARK SMILES IDX 14 1 13 2 12 3 11 4 20 5 19 6 15 7 16 8 17 9 18 10 10 13
REMARK SMILES IDX 9 15 8 16 7 17 2 18 6 19 3 20 5 21 4 22 1 23
REMARK H PARENT 18 11 18 12 10 14
ROOT
ATOM      1  C   UNL     1      10.115 -11.621   2.083  1.00  0.00    -0.048 A 
ATOM      2  C   UNL     1       9.417 -10.483   2.491  1.00  0.00     0.006 A 
ATOM      3  C   UNL     1       8.564  -9.821   1.614  1.00  0.00     0.026 A 
ATOM      4  C   UNL     1       8.432 -10.218   0.281  1.00  0.00     0.038 A 
ATOM      5  C   UNL     1       9.175 -11.325  -0.145  1.00  0.00     0.026 A 
ATOM      6  C   UNL     1      10.008 -12.020   0.745  1.00  0.00     0.006 A 
ENDROOT
BRANCH   1   7
ATOM      7  C   UNL     1      10.964 -12.405   3.052  1.00  0.00     0.037 C 
BRANCH   7   8
ATOM      8  C   UNL     1      10.477 -12.457   4.513  1.00  0.00     0.020 C 
BRANCH   8   9
ATOM      9  C   UNL     1       9.970 -13.821   5.006  1.00  0.00     0.078 C 
BRANCH   9  10
ATOM     10  N   UNL     1       8.664 -14.212   4.495  1.00  0.00    -0.330 NA
ATOM     11  H   UNL     1       8.216 -14.861   5.141  1.00  0.00     0.118 HD
ATOM     12  H   UNL     1       8.768 -14.726   3.620  1.00  0.00     0.118 HD
ENDBRANCH   9  10
ENDBRANCH   8   9
ENDBRANCH   7   8
ENDBRANCH   1   7
BRANCH   4  13
ATOM     13  N   UNL     1       7.663  -9.483  -0.642  1.00  0.00    -0.362 N 
ATOM     14  H   UNL     1       8.056  -8.608  -0.965  1.00  0.00     0.166 HD
BRANCH  13  15
ATOM     15  C   UNL     1       6.346  -9.724  -0.931  1.00  0.00     0.083 C 
BRANCH  15  16
ATOM     16  C   UNL     1       5.267  -8.987  -0.637  1.00  0.00     0.027 C 
BRANCH  16  17
ATOM     17  C   UNL     1       5.077  -7.649  -1.218  1.00  0.00    -0.003 A 
ATOM     18  C   UNL     1       4.160  -6.722  -0.692  1.00  0.00    -0.041 A 
ATOM     19  C   UNL     1       5.789  -7.253  -2.360  1.00  0.00     0.119 A 
ATOM     20  C   UNL     1       4.025  -5.476  -1.322  1.00  0.00     0.024 A 
ATOM     21  N   UNL     1       5.684  -6.049  -2.970  1.00  0.00    -0.264 NA
ATOM     22  C   UNL     1       4.804  -5.186  -2.432  1.00  0.00     0.111 A 
ATOM     23  C   UNL     1       3.293  -7.033   0.496  1.00  0.00     0.045 C 
ENDBRANCH  16  17
ENDBRANCH  15  16
ENDBRANCH  13  15
ENDBRANCH   4  13
TORSDOF 8
ENDMDL
MODEL 5
REMARK VINA RESULT:    -4.762      4.608      8.415
REMARK INTER + INTRA:          -7.494
REMARK INTER:                  -6.971
REMARK INTRA:                  -0.522
REMARK UNBOUND:                -0.644
REMARK SMILES Cc1ccncc1/C=C/Nc1ccc(CCCN)cc1
REMARK SMILES IDX 14 1 13 2 12 3 11 4 20 5 19 6 15 7 16 8 17 9 18 10 10 13
REMARK SMILES IDX 9 15 8 16 7 17 2 18 6 19 3 20 5 21 4 22 1 23
REMARK H PARENT 18 11 18 12 10 14
ROOT
ATOM      1  C   UNL     1       4.934  -7.012  -0.647  1.00  0.00    -0.048 A 
ATOM      2  C   UNL     1       4.223  -7.962   0.090  1.00  0.00     0.006 A 
ATOM      3  C   UNL     1       4.416  -9.323  -0.131  1.00  0.00     0.026 A 
ATOM      4  C   UNL     1       5.261  -9.787  -1.142  1.00  0.00     0.038 A 
ATOM      5  C   UNL     1       5.931  -8.835  -1.920  1.00  0.00     0.026 A 
ATOM      6  C   UNL     1       5.770  -7.463  -1.675  1.00  0.00     0.006 A 
ENDROOT
BRANCH   1   7
ATOM      7  C   UNL     1       4.809  -5.539  -0.347  1.00  0.00     0.037 C 
BRANCH   7   8
ATOM      8  C   UNL     1       4.681  -4.596  -1.559  1.00  0.00     0.020 C 
BRANCH   8   9
ATOM      9  C   UNL     1       5.639  -3.396  -1.582  1.00  0.00     0.078 C 
BRANCH   9  10
ATOM     10  N   UNL     1       5.195  -2.239  -0.817  1.00  0.00    -0.330 NA
ATOM     11  H   UNL     1       4.749  -2.544   0.047  1.00  0.00     0.118 HD
ATOM     12  H   UNL     1       4.476  -1.731  -1.332  1.00  0.00     0.118 HD
ENDBRANCH   9  10
ENDBRANCH   8   9
ENDBRANCH   7   8
ENDBRANCH   1   7
BRANCH   4  13
ATOM     13  N   UNL     1       5.370 -11.157  -1.450  1.00  0.00    -0.362 N 
ATOM     14  H   UNL     1       6.307 -11.532  -1.527  1.00  0.00     0.166 HD
BRANCH  13  15
ATOM     15  C   UNL     1       4.341 -11.942  -1.899  1.00  0.00     0.083 C 
BRANCH  15  16
ATOM     16  C   UNL     1       4.311 -12.779  -2.945  1.00  0.00     0.027 C 
BRANCH  16  17
ATOM     17  C   UNL     1       4.878 -14.133  -2.855  1.00  0.00    -0.003 A 
ATOM     18  C   UNL     1       4.743 -15.077  -3.888  1.00  0.00    -0.041 A 
ATOM     19  C   UNL     1       5.554 -14.554  -1.700  1.00  0.00     0.119 A 
ATOM     20  C   UNL     1       5.295 -16.355  -3.709  1.00  0.00     0.024 A 
ATOM     21  N   UNL     1       6.107 -15.776  -1.518  1.00  0.00    -0.264 NA
ATOM     22  C   UNL     1       5.966 -16.648  -2.532  1.00  0.00     0.111 A 
ATOM     23  C   UNL     1       3.998 -14.780  -5.158  1.00  0.00     0.045 C 
ENDBRANCH  16  17
ENDBRANCH  15  16
ENDBRANCH  13  15
ENDBRANCH   4  13
TORSDOF 8
ENDMDL
MODEL 6
REMARK VINA RESULT:    -4.751      1.893      8.649
REMARK INTER + INTRA:          -7.478
REMARK INTER:                  -6.937
REMARK INTRA:                  -0.541
REMARK UNBOUND:                -0.644
REMARK SMILES Cc1ccncc1/C=C/Nc1ccc(CCCN)cc1
REMARK SMILES IDX 14 1 13 2 12 3 11 4 20 5 19 6 15 7 16 8 17 9 18 10 10 13
REMARK SMILES IDX 9 15 8 16 7 17 2 18 6 19 3 20 5 21 4 22 1 23
REMARK H PARENT 18 11 18 12 10 14
ROOT
ATOM      1  C   UNL     1       4.166  -7.276  -1.370  1.00  0.00    -0.048 A 
ATOM      2  C   UNL     1       5.348  -7.325  -2.110  1.00  0.00     0.006 A 
ATOM      3  C   UNL     1       6.273  -8.345  -1.905  1.00  0.00     0.026 A 
ATOM      4  C   UNL     1       6.093  -9.306  -0.907  1.00  0.00     0.038 A 
ATOM      5  C   UNL     1       4.935  -9.224  -0.125  1.00  0.00     0.026 A 
ATOM      6  C   UNL     1       3.981  -8.221  -0.353  1.00  0.00     0.006 A 
ENDROOT
BRANCH   1   7
ATOM      7  C   UNL     1       3.111  -6.235  -1.652  1.00  0.00     0.037 C 
BRANCH   7   8
ATOM      8  C   UNL     1       2.408  -5.613  -0.429  1.00  0.00     0.020 C 
BRANCH   8   9
ATOM      9  C   UNL     1       0.887  -5.814  -0.353  1.00  0.00     0.078 C 
BRANCH   9  10
ATOM     10  N   UNL     1       0.098  -4.803  -1.043  1.00  0.00    -0.330 NA
ATOM     11  H   UNL     1      -0.389  -5.221  -1.834  1.00  0.00     0.118 HD
ATOM     12  H   UNL     1       0.710  -4.092  -1.443  1.00  0.00     0.118 HD
ENDBRANCH   9  10
ENDBRANCH   8   9
ENDBRANCH   7   8
ENDBRANCH   1   7
BRANCH   4  13
ATOM     13  N   UNL     1       7.078 -10.269  -0.615  1.00  0.00    -0.362 N 
ATOM     14  H   UNL     1       6.778 -11.235  -0.598  1.00  0.00     0.166 HD
BRANCH  13  15
ATOM     15  C   UNL     1       8.320  -9.989  -0.109  1.00  0.00     0.083 C 
BRANCH  15  16
ATOM     16  C   UNL     1       8.925 -10.494   0.975  1.00  0.00     0.027 C 
BRANCH  16  17
ATOM     17  C   UNL     1       9.699 -11.742   0.903  1.00  0.00    -0.003 A 
ATOM     18  C   UNL     1      10.537 -12.172   1.948  1.00  0.00    -0.041 A 
ATOM     19  C   UNL     1       9.660 -12.548  -0.245  1.00  0.00     0.119 A 
ATOM     20  C   UNL     1      11.258 -13.364   1.786  1.00  0.00     0.024 A 
ATOM     21  N   UNL     1      10.336 -13.709  -0.410  1.00  0.00    -0.264 NA
ATOM     22  C   UNL     1      11.118 -14.091   0.615  1.00  0.00     0.111 A 
ATOM     23  C   UNL     1      10.715 -11.380   3.213  1.00  0.00     0.045 C 
ENDBRANCH  16  17
ENDBRANCH  15  16
ENDBRANCH  13  15
ENDBRANCH   4  13
TORSDOF 8
ENDMDL
MODEL 7
REMARK VINA RESULT:    -4.692      4.738      8.544
REMARK INTER + INTRA:          -7.392
REMARK INTER:                  -6.870
REMARK INTRA:                  -0.522
REMARK UNBOUND:                -0.644
REMARK SMILES Cc1ccncc1/C=C/Nc1ccc(CCCN)cc1
REMARK SMILES IDX 14 1 13 2 12 3 11 4 20 5 19 6 15 7 16 8 17 9 18 10 10 13
REMARK SMILES IDX 9 15 8 16 7 17 2 18 6 19 3 20 5 21 4 22 1 23
REMARK H PARENT 18 11 18 12 10 14
ROOT
ATOM      1  C   UNL     1       4.880  -7.353  -0.782  1.00  0.00    -0.048 A 
ATOM      2  C   UNL     1       4.273  -8.336   0.001  1.00  0.00     0.006 A 
ATOM      3  C   UNL     1       4.602  -9.678  -0.162  1.00  0.00     0.026 A 
ATOM      4  C   UNL     1       5.485 -10.099  -1.159  1.00  0.00     0.038 A 
ATOM      5  C   UNL     1       6.052  -9.120  -1.983  1.00  0.00     0.026 A 
ATOM      6  C   UNL     1       5.753  -7.761  -1.798  1.00  0.00     0.006 A 
ENDROOT
BRANCH   1   7
ATOM      7  C   UNL     1       4.608  -5.888  -0.546  1.00  0.00     0.037 C 
BRANCH   7   8
ATOM      8  C   UNL     1       5.016  -4.919  -1.672  1.00  0.00     0.020 C 
BRANCH   8   9
ATOM      9  C   UNL     1       5.128  -3.438  -1.279  1.00  0.00     0.078 C 
BRANCH   9  10
ATOM     10  N   UNL     1       5.968  -2.632  -2.152  1.00  0.00    -0.330 NA
ATOM     11  H   UNL     1       5.388  -2.045  -2.750  1.00  0.00     0.118 HD
ATOM     12  H   UNL     1       6.495  -3.232  -2.787  1.00  0.00     0.118 HD
ENDBRANCH   9  10
ENDBRANCH   8   9
ENDBRANCH   7   8
ENDBRANCH   1   7
BRANCH   4  13
ATOM     13  N   UNL     1       5.731 -11.463  -1.408  1.00  0.00    -0.362 N 
ATOM     14  H   UNL     1       6.692 -11.773  -1.332  1.00  0.00     0.166 HD
BRANCH  13  15
ATOM     15  C   UNL     1       4.838 -12.327  -1.984  1.00  0.00     0.083 C 
BRANCH  15  16
ATOM     16  C   UNL     1       4.863 -13.666  -2.026  1.00  0.00     0.027 C 
BRANCH  16  17
ATOM     17  C   UNL     1       4.751 -14.390  -3.301  1.00  0.00    -0.003 A 
ATOM     18  C   UNL     1       5.263 -15.688  -3.479  1.00  0.00    -0.041 A 
ATOM     19  C   UNL     1       4.152 -13.790  -4.419  1.00  0.00     0.119 A 
ATOM     20  C   UNL     1       5.134 -16.297  -4.737  1.00  0.00     0.024 A 
ATOM     21  N   UNL     1       4.004 -14.370  -5.634  1.00  0.00    -0.264 NA
ATOM     22  C   UNL     1       4.497 -15.614  -5.761  1.00  0.00     0.111 A 
ATOM     23  C   UNL     1       5.976 -16.429  -2.383  1.00  0.00     0.045 C 
ENDBRANCH  16  17
ENDBRANCH  15  16
ENDBRANCH  13  15
ENDBRANCH   4  13
TORSDOF 8
ENDMDL
MODEL 8
REMARK VINA RESULT:    -4.654      2.098      8.650
REMARK INTER + INTRA:          -7.339
REMARK INTER:                  -6.804
REMARK INTRA:                  -0.534
REMARK UNBOUND:                -0.644
REMARK SMILES Cc1ccncc1/C=C/Nc1ccc(CCCN)cc1
REMARK SMILES IDX 14 1 13 2 12 3 11 4 20 5 19 6 15 7 16 8 17 9 18 10 10 13
REMARK SMILES IDX 9 15 8 16 7 17 2 18 6 19 3 20 5 21 4 22 1 23
REMARK H PARENT 18 11 18 12 10 14
ROOT
ATOM      1  C   UNL     1       4.519  -6.815  -1.689  1.00  0.00    -0.048 A 
ATOM      2  C   UNL     1       5.642  -7.198  -2.425  1.00  0.00     0.006 A 
ATOM      3  C   UNL     1       6.365  -8.336  -2.078  1.00  0.00     0.026 A 
ATOM      4  C   UNL     1       6.045  -9.089  -0.946  1.00  0.00     0.038 A 
ATOM      5  C   UNL     1       4.953  -8.674  -0.175  1.00  0.00     0.026 A 
ATOM      6  C   UNL     1       4.198  -7.550  -0.541  1.00  0.00     0.006 A 
ENDROOT
BRANCH   1   7
ATOM      7  C   UNL     1       3.670  -5.643  -2.114  1.00  0.00     0.037 C 
BRANCH   7   8
ATOM      8  C   UNL     1       3.876  -4.325  -1.344  1.00  0.00     0.020 C 
BRANCH   8   9
ATOM      9  C   UNL     1       5.314  -3.787  -1.301  1.00  0.00     0.078 C 
BRANCH   9  10
ATOM     10  N   UNL     1       5.574  -2.656  -2.180  1.00  0.00    -0.330 NA
ATOM     11  H   UNL     1       4.946  -2.687  -2.983  1.00  0.00     0.118 HD
ATOM     12  H   UNL     1       6.516  -2.722  -2.567  1.00  0.00     0.118 HD
ENDBRANCH   9  10
ENDBRANCH   8   9
ENDBRANCH   7   8
ENDBRANCH   1   7
BRANCH   4  13
ATOM     13  N   UNL     1       6.841 -10.171  -0.522  1.00  0.00    -0.362 N 
ATOM     14  H   UNL     1       6.352 -10.990  -0.186  1.00  0.00     0.166 HD
BRANCH  13  15
ATOM     15  C   UNL     1       8.190 -10.106  -0.291  1.00  0.00     0.083 C 
BRANCH  15  16
ATOM     16  C   UNL     1       8.882 -10.489   0.790  1.00  0.00     0.027 C 
BRANCH  16  17
ATOM     17  C   UNL     1       9.648 -11.745   0.799  1.00  0.00    -0.003 A 
ATOM     18  C   UNL     1      10.441 -12.137   1.891  1.00  0.00    -0.041 A 
ATOM     19  C   UNL     1       9.646 -12.596  -0.316  1.00  0.00     0.119 A 
ATOM     20  C   UNL     1      11.158 -13.340   1.806  1.00  0.00     0.024 A 
ATOM     21  N   UNL     1      10.317 -13.768  -0.408  1.00  0.00    -0.264 NA
ATOM     22  C   UNL     1      11.057 -14.113   0.661  1.00  0.00     0.111 A 
ATOM     23  C   UNL     1      10.578 -11.296   3.129  1.00  0.00     0.045 C 
ENDBRANCH  16  17
ENDBRANCH  15  16
ENDBRANCH  13  15
ENDBRANCH   4  13
TORSDOF 8
ENDMDL
MODEL 9
REMARK VINA RESULT:    -4.624      1.564      8.491
REMARK INTER + INTRA:          -7.294
REMARK INTER:                  -6.784
REMARK INTRA:                  -0.510
REMARK UNBOUND:                -0.644
REMARK SMILES Cc1ccncc1/C=C/Nc1ccc(CCCN)cc1
REMARK SMILES IDX 14 1 13 2 12 3 11 4 20 5 19 6 15 7 16 8 17 9 18 10 10 13
REMARK SMILES IDX 9 15 8 16 7 17 2 18 6 19 3 20 5 21 4 22 1 23
REMARK H PARENT 18 11 18 12 10 14
ROOT
ATOM      1  C   UNL     1       4.340  -7.706  -1.140  1.00  0.00    -0.048 A 
ATOM      2  C   UNL     1       4.134  -8.672  -0.153  1.00  0.00     0.006 A 
ATOM      3  C   UNL     1       5.098  -9.644   0.102  1.00  0.00     0.026 A 
ATOM      4  C   UNL     1       6.261  -9.739  -0.665  1.00  0.00     0.038 A 
ATOM      5  C   UNL     1       6.442  -8.807  -1.693  1.00  0.00     0.026 A 
ATOM      6  C   UNL     1       5.492  -7.801  -1.929  1.00  0.00     0.006 A 
ENDROOT
BRANCH   1   7
ATOM      7  C   UNL     1       3.350  -6.589  -1.357  1.00  0.00     0.037 C 
BRANCH   7   8
ATOM      8  C   UNL     1       2.374  -6.296  -0.202  1.00  0.00     0.020 C 
BRANCH   8   9
ATOM      9  C   UNL     1       1.165  -5.414  -0.548  1.00  0.00     0.078 C 
BRANCH   9  10
ATOM     10  N   UNL     1      -0.023  -5.654   0.257  1.00  0.00    -0.330 NA
ATOM     11  H   UNL     1      -0.781  -5.044  -0.049  1.00  0.00     0.118 HD
ATOM     12  H   UNL     1       0.154  -5.401   1.230  1.00  0.00     0.118 HD
ENDBRANCH   9  10
ENDBRANCH   8   9
ENDBRANCH   7   8
ENDBRANCH   1   7
BRANCH   4  13
ATOM     13  N   UNL     1       7.183 -10.790  -0.492  1.00  0.00    -0.362 N 
ATOM     14  H   UNL     1       6.822 -11.731  -0.590  1.00  0.00     0.166 HD
BRANCH  13  15
ATOM     15  C   UNL     1       8.437 -10.652   0.042  1.00  0.00     0.083 C 
BRANCH  15  16
ATOM     16  C   UNL     1       9.433 -11.545   0.104  1.00  0.00     0.027 C 
BRANCH  16  17
ATOM     17  C   UNL     1      10.081 -11.876   1.383  1.00  0.00    -0.003 A 
ATOM     18  C   UNL     1      10.823 -13.055   1.569  1.00  0.00    -0.041 A 
ATOM     19  C   UNL     1       9.949 -11.032   2.496  1.00  0.00     0.119 A 
ATOM     20  C   UNL     1      11.389 -13.304   2.829  1.00  0.00     0.024 A 
ATOM     21  N   UNL     1      10.502 -11.248   3.712  1.00  0.00    -0.264 NA
ATOM     22  C   UNL     1      11.213 -12.381   3.848  1.00  0.00     0.111 A 
ATOM     23  C   UNL     1      11.001 -14.075   0.479  1.00  0.00     0.045 C 
ENDBRANCH  16  17
ENDBRANCH  15  16
ENDBRANCH  13  15
ENDBRANCH   4  13
TORSDOF 8
ENDMDL
