MODEL 1
REMARK VINA RESULT:    -5.097      0.000      0.000
REMARK INTER + INTRA:          -8.152
REMARK INTER:                  -7.332
REMARK INTRA:                  -0.821
REMARK UNBOUND:                -0.821
REMARK SMILES Cc1ccncc1/C=C/Nc1ccc(CCCN)cc1
REMARK SMILES IDX 14 1 13 2 12 3 11 4 20 5 19 6 15 7 16 8 17 9 18 10 10 13
REMARK SMILES IDX 9 15 8 16 7 17 2 18 6 19 3 20 5 21 4 22 1 23
REMARK H PARENT 18 11 18 12 10 14
ROOT
ATOM      1  C   UNL     1      -1.598  11.040  10.005  1.00  0.00    -0.048 A 
ATOM      2  C   UNL     1      -0.912  12.049   9.326  1.00  0.00     0.006 A 
ATOM      3  C   UNL     1      -0.271  11.785   8.119  1.00  0.00     0.026 A 
ATOM      4  C   UNL     1      -0.222  10.496   7.583  1.00  0.00     0.038 A 
ATOM      5  C   UNL     1      -0.860   9.471   8.292  1.00  0.00     0.026 A 
ATOM      6  C   UNL     1      -1.541   9.739   9.490  1.00  0.00     0.006 A 
ENDROOT
BRANCH   1   7
ATOM      7  C   UNL     1      -2.380  11.335  11.260  1.00  0.00     0.037 C 
BRANCH   7   8
ATOM      8  C   UNL     1      -1.964  10.570  12.531  1.00  0.00     0.020 C 
BRANCH   8   9
ATOM      9  C   UNL     1      -0.691  11.069  13.231  1.00  0.00     0.078 C 
BRANCH   9  10
ATOM     10  N   UNL     1       0.500  10.269  12.984  1.00  0.00    -0.330 NA
ATOM     11  H   UNL     1       0.241   9.295  12.833  1.00  0.00     0.118 HD
ATOM     12  H   UNL     1       1.100  10.267  13.810  1.00  0.00     0.118 HD
ENDBRANCH   9  10
ENDBRANCH   8   9
ENDBRANCH   7   8
ENDBRANCH   1   7
BRANCH   4  13
ATOM     13  N   UNL     1       0.524  10.199   6.427  1.00  0.00    -0.362 N 
ATOM     14  H   UNL     1       0.008  10.131   5.558  1.00  0.00     0.166 HD
BRANCH  13  15
ATOM     15  C   UNL     1       1.818   9.749   6.424  1.00  0.00     0.083 C 
BRANCH  15  16
ATOM     16  C   UNL     1       2.472   9.058   5.481  1.00  0.00     0.027 C 
BRANCH  16  17
ATOM     17  C   UNL     1       2.547   7.590   5.526  1.00  0.00    -0.003 A 
ATOM     18  C   UNL     1       2.148   6.781   4.447  1.00  0.00    -0.041 A 
ATOM     19  C   UNL     1       2.992   6.928   6.680  1.00  0.00     0.119 A 
ATOM     20  C   UNL     1       2.231   5.387   4.584  1.00  0.00     0.024 A 
ATOM     21  N   UNL     1       3.094   5.585   6.822  1.00  0.00    -0.264 NA
ATOM     22  C   UNL     1       2.713   4.846   5.766  1.00  0.00     0.111 A 
ATOM     23  C   UNL     1       1.601   7.355   3.170  1.00  0.00     0.045 C 
ENDBRANCH  16  17
ENDBRANCH  15  16
ENDBRANCH  13  15
ENDBRANCH   4  13
TORSDOF 8
ENDMDL
MODEL 2
REMARK VINA RESULT:    -5.041      4.728      7.236
REMARK INTER + INTRA:          -8.072
REMARK INTER:                  -7.317
REMARK INTRA:                  -0.755
REMARK UNBOUND:                -0.821
REMARK SMILES Cc1ccncc1/C=C/Nc1ccc(CCCN)cc1
REMARK SMILES IDX 14 1 13 2 12 3 11 4 20 5 19 6 15 7 16 8 17 9 18 10 10 13
REMARK SMILES IDX 9 15 8 16 7 17 2 18 6 19 3 20 5 21 4 22 1 23
REMARK H PARENT 18 11 18 12 10 14
ROOT
ATOM      1  C   UNL     1       6.806  12.826   5.954  1.00  0.00    -0.048 A 
ATOM      2  C   UNL     1       6.270  12.509   7.203  1.00  0.00     0.006 A 
ATOM      3  C   UNL     1       5.530  11.343   7.383  1.00  0.00     0.026 A 
ATOM      4  C   UNL     1       5.231  10.494   6.315  1.00  0.00     0.038 A 
ATOM      5  C   UNL     1       5.720  10.841   5.050  1.00  0.00     0.026 A 
ATOM      6  C   UNL     1       6.499  11.994   4.871  1.00  0.00     0.006 A 
ENDROOT
BRANCH   1   7
ATOM      7  C   UNL     1       7.693  14.032   5.769  1.00  0.00     0.037 C 
BRANCH   7   8
ATOM      8  C   UNL     1       7.346  14.974   4.600  1.00  0.00     0.020 C 
BRANCH   8   9
ATOM      9  C   UNL     1       6.594  16.260   4.971  1.00  0.00     0.078 C 
BRANCH   9  10
ATOM     10  N   UNL     1       5.142  16.160   4.923  1.00  0.00    -0.330 NA
ATOM     11  H   UNL     1       4.867  15.228   4.614  1.00  0.00     0.118 HD
ATOM     12  H   UNL     1       4.769  16.801   4.222  1.00  0.00     0.118 HD
ENDBRANCH   9  10
ENDBRANCH   8   9
ENDBRANCH   7   8
ENDBRANCH   1   7
BRANCH   4  13
ATOM     13  N   UNL     1       4.385   9.378   6.466  1.00  0.00    -0.362 N 
ATOM     14  H   UNL     1       4.834   8.486   6.629  1.00  0.00     0.166 HD
BRANCH  13  15
ATOM     15  C   UNL     1       3.050   9.362   6.158  1.00  0.00     0.083 C 
BRANCH  15  16
ATOM     16  C   UNL     1       2.269   8.321   5.838  1.00  0.00     0.027 C 
BRANCH  16  17
ATOM     17  C   UNL     1       1.890   8.055   4.442  1.00  0.00    -0.003 A 
ATOM     18  C   UNL     1       1.921   6.764   3.885  1.00  0.00    -0.041 A 
ATOM     19  C   UNL     1       1.513   9.101   3.587  1.00  0.00     0.119 A 
ATOM     20  C   UNL     1       1.566   6.603   2.537  1.00  0.00     0.024 A 
ATOM     21  N   UNL     1       1.150   8.961   2.290  1.00  0.00    -0.264 NA
ATOM     22  C   UNL     1       1.183   7.710   1.797  1.00  0.00     0.111 A 
ATOM     23  C   UNL     1       2.357   5.559   4.671  1.00  0.00     0.045 C 
ENDBRANCH  16  17
ENDBRANCH  15  16
ENDBRANCH  13  15
ENDBRANCH   4  13
TORSDOF 8
ENDMDL
MODEL 3
REMARK VINA RESULT:    -4.935      4.652      6.978
REMARK INTER + INTRA:          -7.920
REMARK INTER:                  -7.244
REMARK INTRA:                  -0.676
REMARK UNBOUND:                -0.821
REMARK SMILES Cc1ccncc1/C=C/Nc1ccc(CCCN)cc1
REMARK SMILES IDX 14 1 13 2 12 3 11 4 20 5 19 6 15 7 16 8 17 9 18 10 10 13
REMARK SMILES IDX 9 15 8 16 7 17 2 18 6 19 3 20 5 21 4 22 1 23
REMARK H PARENT 18 11 18 12 10 14
ROOT
ATOM      1  C   UNL     1       6.930  12.952   5.983  1.00  0.00    -0.048 A 
ATOM      2  C   UNL     1       6.664  12.111   4.900  1.00  0.00     0.006 A 
ATOM      3  C   UNL     1       5.795  11.032   5.034  1.00  0.00     0.026 A 
ATOM      4  C   UNL     1       5.221  10.703   6.265  1.00  0.00     0.038 A 
ATOM      5  C   UNL     1       5.532  11.512   7.365  1.00  0.00     0.026 A 
ATOM      6  C   UNL     1       6.377  12.623   7.226  1.00  0.00     0.006 A 
ENDROOT
BRANCH   1   7
ATOM      7  C   UNL     1       7.789  14.181   5.824  1.00  0.00     0.037 C 
BRANCH   7   8
ATOM      8  C   UNL     1       7.468  15.100   4.629  1.00  0.00     0.020 C 
BRANCH   8   9
ATOM      9  C   UNL     1       6.609  16.334   4.940  1.00  0.00     0.078 C 
BRANCH   9  10
ATOM     10  N   UNL     1       5.171  16.109   4.901  1.00  0.00    -0.330 NA
ATOM     11  H   UNL     1       4.832  16.188   3.943  1.00  0.00     0.118 HD
ATOM     12  H   UNL     1       4.687  16.840   5.423  1.00  0.00     0.118 HD
ENDBRANCH   9  10
ENDBRANCH   8   9
ENDBRANCH   7   8
ENDBRANCH   1   7
BRANCH   4  13
ATOM     13  N   UNL     1       4.437   9.546   6.435  1.00  0.00    -0.362 N 
ATOM     14  H   UNL     1       4.936   8.679   6.588  1.00  0.00     0.166 HD
BRANCH  13  15
ATOM     15  C   UNL     1       3.099   9.460   6.157  1.00  0.00     0.083 C 
BRANCH  15  16
ATOM     16  C   UNL     1       2.481   8.796   5.171  1.00  0.00     0.027 C 
BRANCH  16  17
ATOM     17  C   UNL     1       2.472   7.326   5.132  1.00  0.00    -0.003 A 
ATOM     18  C   UNL     1       2.059   6.604   3.997  1.00  0.00    -0.041 A 
ATOM     19  C   UNL     1       2.845   6.573   6.255  1.00  0.00     0.119 A 
ATOM     20  C   UNL     1       2.059   5.202   4.053  1.00  0.00     0.024 A 
ATOM     21  N   UNL     1       2.868   5.221   6.321  1.00  0.00    -0.264 NA
ATOM     22  C   UNL     1       2.476   4.568   5.213  1.00  0.00     0.111 A 
ATOM     23  C   UNL     1       1.583   7.281   2.743  1.00  0.00     0.045 C 
ENDBRANCH  16  17
ENDBRANCH  15  16
ENDBRANCH  13  15
ENDBRANCH   4  13
TORSDOF 8
ENDMDL
MODEL 4
REMARK VINA RESULT:    -4.899      4.921      8.310
REMARK INTER + INTRA:          -7.868
REMARK INTER:                  -7.283
REMARK INTRA:                  -0.585
REMARK UNBOUND:                -0.821
REMARK SMILES Cc1ccncc1/C=C/Nc1ccc(CCCN)cc1
REMARK SMILES IDX 14 1 13 2 12 3 11 4 20 5 19 6 15 7 16 8 17 9 18 10 10 13
REMARK SMILES IDX 9 15 8 16 7 17 2 18 6 19 3 20 5 21 4 22 1 23
REMARK H PARENT 18 11 18 12 10 14
ROOT
ATOM      1  C   UNL     1       1.602   7.274   4.423  1.00  0.00    -0.048 A 
ATOM      2  C   UNL     1       2.434   6.995   5.509  1.00  0.00     0.006 A 
ATOM      3  C   UNL     1       3.096   8.020   6.178  1.00  0.00     0.026 A 
ATOM      4  C   UNL     1       3.019   9.346   5.746  1.00  0.00     0.038 A 
ATOM      5  C   UNL     1       2.231   9.620   4.623  1.00  0.00     0.026 A 
ATOM      6  C   UNL     1       1.530   8.596   3.967  1.00  0.00     0.006 A 
ENDROOT
BRANCH   1   7
ATOM      7  C   UNL     1       0.801   6.186   3.753  1.00  0.00     0.037 C 
BRANCH   7   8
ATOM      8  C   UNL     1       0.567   6.332   2.237  1.00  0.00     0.020 C 
BRANCH   8   9
ATOM      9  C   UNL     1      -0.320   5.260   1.586  1.00  0.00     0.078 C 
BRANCH   9  10
ATOM     10  N   UNL     1      -0.937   5.653   0.328  1.00  0.00    -0.330 NA
ATOM     11  H   UNL     1      -1.465   6.515   0.453  1.00  0.00     0.118 HD
ATOM     12  H   UNL     1      -1.620   4.953   0.038  1.00  0.00     0.118 HD
ENDBRANCH   9  10
ENDBRANCH   8   9
ENDBRANCH   7   8
ENDBRANCH   1   7
BRANCH   4  13
ATOM     13  N   UNL     1       3.780  10.369   6.344  1.00  0.00    -0.362 N 
ATOM     14  H   UNL     1       3.265  11.087   6.840  1.00  0.00     0.166 HD
BRANCH  13  15
ATOM     15  C   UNL     1       5.105  10.607   6.095  1.00  0.00     0.083 C 
BRANCH  15  16
ATOM     16  C   UNL     1       5.664  11.507   5.275  1.00  0.00     0.027 C 
BRANCH  16  17
ATOM     17  C   UNL     1       6.583  12.536   5.786  1.00  0.00    -0.003 A 
ATOM     18  C   UNL     1       6.999  13.629   5.006  1.00  0.00    -0.041 A 
ATOM     19  C   UNL     1       7.118  12.444   7.079  1.00  0.00     0.119 A 
ATOM     20  C   UNL     1       7.897  14.552   5.564  1.00  0.00     0.024 A 
ATOM     21  N   UNL     1       7.971  13.334   7.639  1.00  0.00    -0.264 NA
ATOM     22  C   UNL     1       8.338  14.371   6.865  1.00  0.00     0.111 A 
ATOM     23  C   UNL     1       6.546  13.823   3.586  1.00  0.00     0.045 C 
ENDBRANCH  16  17
ENDBRANCH  15  16
ENDBRANCH  13  15
ENDBRANCH   4  13
TORSDOF 8
ENDMDL
MODEL 5
REMARK VINA RESULT:    -4.863      2.402      8.216
REMARK INTER + INTRA:          -7.816
REMARK INTER:                  -7.391
REMARK INTRA:                  -0.425
REMARK UNBOUND:                -0.821
REMARK SMILES Cc1ccncc1/C=C/Nc1ccc(CCCN)cc1
REMARK SMILES IDX 14 1 13 2 12 3 11 4 20 5 19 6 15 7 16 8 17 9 18 10 10 13
REMARK SMILES IDX 9 15 8 16 7 17 2 18 6 19 3 20 5 21 4 22 1 23
REMARK H PARENT 18 11 18 12 10 14
ROOT
ATOM      1  C   UNL     1       1.931   6.683   2.999  1.00  0.00    -0.048 A 
ATOM      2  C   UNL     1       1.500   7.973   2.686  1.00  0.00     0.006 A 
ATOM      3  C   UNL     1       1.578   8.996   3.626  1.00  0.00     0.026 A 
ATOM      4  C   UNL     1       2.012   8.759   4.933  1.00  0.00     0.038 A 
ATOM      5  C   UNL     1       2.390   7.453   5.265  1.00  0.00     0.026 A 
ATOM      6  C   UNL     1       2.350   6.425   4.310  1.00  0.00     0.006 A 
ENDROOT
BRANCH   1   7
ATOM      7  C   UNL     1       1.946   5.590   1.959  1.00  0.00     0.037 C 
BRANCH   7   8
ATOM      8  C   UNL     1       0.684   4.713   1.859  1.00  0.00     0.020 C 
BRANCH   8   9
ATOM      9  C   UNL     1      -0.631   5.454   1.575  1.00  0.00     0.078 C 
BRANCH   9  10
ATOM     10  N   UNL     1      -0.976   5.576   0.165  1.00  0.00    -0.330 NA
ATOM     11  H   UNL     1      -1.710   4.910  -0.073  1.00  0.00     0.118 HD
ATOM     12  H   UNL     1      -0.177   5.322  -0.416  1.00  0.00     0.118 HD
ENDBRANCH   9  10
ENDBRANCH   8   9
ENDBRANCH   7   8
ENDBRANCH   1   7
BRANCH   4  13
ATOM     13  N   UNL     1       1.980   9.761   5.921  1.00  0.00    -0.362 N 
ATOM     14  H   UNL     1       2.799  10.350   5.997  1.00  0.00     0.166 HD
BRANCH  13  15
ATOM     15  C   UNL     1       1.061   9.831   6.935  1.00  0.00     0.083 C 
BRANCH  15  16
ATOM     16  C   UNL     1      -0.035  10.596   7.031  1.00  0.00     0.027 C 
BRANCH  16  17
ATOM     17  C   UNL     1      -0.682  10.840   8.329  1.00  0.00    -0.003 A 
ATOM     18  C   UNL     1      -0.525  12.046   9.035  1.00  0.00    -0.041 A 
ATOM     19  C   UNL     1      -1.464   9.848   8.941  1.00  0.00     0.119 A 
ATOM     20  C   UNL     1      -1.160  12.186  10.279  1.00  0.00     0.024 A 
ATOM     21  N   UNL     1      -2.096   9.973  10.131  1.00  0.00    -0.264 NA
ATOM     22  C   UNL     1      -1.930  11.144  10.771  1.00  0.00     0.111 A 
ATOM     23  C   UNL     1       0.327  13.173   8.523  1.00  0.00     0.045 C 
ENDBRANCH  16  17
ENDBRANCH  15  16
ENDBRANCH  13  15
ENDBRANCH   4  13
TORSDOF 8
ENDMDL
MODEL 6
REMARK VINA RESULT:    -4.849      4.793      8.313
REMARK INTER + INTRA:          -7.795
REMARK INTER:                  -7.231
REMARK INTRA:                  -0.563
REMARK UNBOUND:                -0.821
REMARK SMILES Cc1ccncc1/C=C/Nc1ccc(CCCN)cc1
REMARK SMILES IDX 14 1 13 2 12 3 11 4 20 5 19 6 15 7 16 8 17 9 18 10 10 13
REMARK SMILES IDX 9 15 8 16 7 17 2 18 6 19 3 20 5 21 4 22 1 23
REMARK H PARENT 18 11 18 12 10 14
ROOT
ATOM      1  C   UNL     1       1.795   5.604   4.135  1.00  0.00    -0.048 A 
ATOM      2  C   UNL     1       1.460   6.852   3.607  1.00  0.00     0.006 A 
ATOM      3  C   UNL     1       1.840   8.024   4.256  1.00  0.00     0.026 A 
ATOM      4  C   UNL     1       2.495   7.997   5.490  1.00  0.00     0.038 A 
ATOM      5  C   UNL     1       2.781   6.746   6.049  1.00  0.00     0.026 A 
ATOM      6  C   UNL     1       2.435   5.562   5.380  1.00  0.00     0.006 A 
ENDROOT
BRANCH   1   7
ATOM      7  C   UNL     1       1.479   4.331   3.390  1.00  0.00     0.037 C 
BRANCH   7   8
ATOM      8  C   UNL     1       2.455   3.924   2.270  1.00  0.00     0.020 C 
BRANCH   8   9
ATOM      9  C   UNL     1       3.890   3.601   2.712  1.00  0.00     0.078 C 
BRANCH   9  10
ATOM     10  N   UNL     1       4.029   2.399   3.522  1.00  0.00    -0.330 NA
ATOM     11  H   UNL     1       3.665   1.593   3.015  1.00  0.00     0.118 HD
ATOM     12  H   UNL     1       3.456   2.474   4.363  1.00  0.00     0.118 HD
ENDBRANCH   9  10
ENDBRANCH   8   9
ENDBRANCH   7   8
ENDBRANCH   1   7
BRANCH   4  13
ATOM     13  N   UNL     1       2.775   9.175   6.209  1.00  0.00    -0.362 N 
ATOM     14  H   UNL     1       2.054   9.505   6.838  1.00  0.00     0.166 HD
BRANCH  13  15
ATOM     15  C   UNL     1       3.811  10.029   5.939  1.00  0.00     0.083 C 
BRANCH  15  16
ATOM     16  C   UNL     1       4.939  10.237   6.632  1.00  0.00     0.027 C 
BRANCH  16  17
ATOM     17  C   UNL     1       5.774  11.423   6.389  1.00  0.00    -0.003 A 
ATOM     18  C   UNL     1       5.958  12.426   7.357  1.00  0.00    -0.041 A 
ATOM     19  C   UNL     1       6.400  11.621   5.149  1.00  0.00     0.119 A 
ATOM     20  C   UNL     1       6.752  13.537   7.034  1.00  0.00     0.024 A 
ATOM     21  N   UNL     1       7.184  12.676   4.827  1.00  0.00    -0.264 NA
ATOM     22  C   UNL     1       7.343  13.610   5.782  1.00  0.00     0.111 A 
ATOM     23  C   UNL     1       5.303  12.370   8.708  1.00  0.00     0.045 C 
ENDBRANCH  16  17
ENDBRANCH  15  16
ENDBRANCH  13  15
ENDBRANCH   4  13
TORSDOF 8
ENDMDL
MODEL 7
REMARK VINA RESULT:    -4.846      2.056      8.424
REMARK INTER + INTRA:          -7.791
REMARK INTER:                  -7.239
REMARK INTRA:                  -0.552
REMARK UNBOUND:                -0.821
REMARK SMILES Cc1ccncc1/C=C/Nc1ccc(CCCN)cc1
REMARK SMILES IDX 14 1 13 2 12 3 11 4 20 5 19 6 15 7 16 8 17 9 18 10 10 13
REMARK SMILES IDX 9 15 8 16 7 17 2 18 6 19 3 20 5 21 4 22 1 23
REMARK H PARENT 18 11 18 12 10 14
ROOT
ATOM      1  C   UNL     1       2.498   6.842   3.765  1.00  0.00    -0.048 A 
ATOM      2  C   UNL     1       1.795   7.967   3.330  1.00  0.00     0.006 A 
ATOM      3  C   UNL     1       1.475   8.991   4.216  1.00  0.00     0.026 A 
ATOM      4  C   UNL     1       1.773   8.901   5.578  1.00  0.00     0.038 A 
ATOM      5  C   UNL     1       2.428   7.747   6.026  1.00  0.00     0.026 A 
ATOM      6  C   UNL     1       2.787   6.729   5.131  1.00  0.00     0.006 A 
ENDROOT
BRANCH   1   7
ATOM      7  C   UNL     1       2.938   5.774   2.796  1.00  0.00     0.037 C 
BRANCH   7   8
ATOM      8  C   UNL     1       2.798   4.313   3.266  1.00  0.00     0.020 C 
BRANCH   8   9
ATOM      9  C   UNL     1       4.088   3.480   3.269  1.00  0.00     0.078 C 
BRANCH   9  10
ATOM     10  N   UNL     1       4.389   2.805   2.015  1.00  0.00    -0.330 NA
ATOM     11  H   UNL     1       3.601   2.222   1.735  1.00  0.00     0.118 HD
ATOM     12  H   UNL     1       5.173   2.164   2.139  1.00  0.00     0.118 HD
ENDBRANCH   9  10
ENDBRANCH   8   9
ENDBRANCH   7   8
ENDBRANCH   1   7
BRANCH   4  13
ATOM     13  N   UNL     1       1.348   9.877   6.500  1.00  0.00    -0.362 N 
ATOM     14  H   UNL     1       2.042  10.217   7.153  1.00  0.00     0.166 HD
BRANCH  13  15
ATOM     15  C   UNL     1       0.041  10.204   6.746  1.00  0.00     0.083 C 
BRANCH  15  16
ATOM     16  C   UNL     1      -0.612  10.257   7.915  1.00  0.00     0.027 C 
BRANCH  16  17
ATOM     17  C   UNL     1      -0.575  11.465   8.754  1.00  0.00    -0.003 A 
ATOM     18  C   UNL     1      -1.329  11.586   9.934  1.00  0.00    -0.041 A 
ATOM     19  C   UNL     1       0.197  12.576   8.382  1.00  0.00     0.119 A 
ATOM     20  C   UNL     1      -1.253  12.783  10.662  1.00  0.00     0.024 A 
ATOM     21  N   UNL     1       0.296  13.731   9.081  1.00  0.00    -0.264 NA
ATOM     22  C   UNL     1      -0.432  13.805  10.210  1.00  0.00     0.111 A 
ATOM     23  C   UNL     1      -2.240  10.496  10.423  1.00  0.00     0.045 C 
ENDBRANCH  16  17
ENDBRANCH  15  16
ENDBRANCH  13  15
ENDBRANCH   4  13
TORSDOF 8
ENDMDL
MODEL 8
REMARK VINA RESULT:    -4.841      1.377      2.481
REMARK INTER + INTRA:          -7.784
REMARK INTER:                  -7.150
REMARK INTRA:                  -0.634
REMARK UNBOUND:                -0.821
REMARK SMILES Cc1ccncc1/C=C/Nc1ccc(CCCN)cc1
REMARK SMILES IDX 14 1 13 2 12 3 11 4 20 5 19 6 15 7 16 8 17 9 18 10 10 13
REMARK SMILES IDX 9 15 8 16 7 17 2 18 6 19 3 20 5 21 4 22 1 23
REMARK H PARENT 18 11 18 12 10 14
ROOT
ATOM      1  C   UNL     1      -1.632  11.005   9.934  1.00  0.00    -0.048 A 
ATOM      2  C   UNL     1      -1.629   9.724   9.379  1.00  0.00     0.006 A 
ATOM      3  C   UNL     1      -0.873   9.443   8.244  1.00  0.00     0.026 A 
ATOM      4  C   UNL     1      -0.157  10.440   7.576  1.00  0.00     0.038 A 
ATOM      5  C   UNL     1      -0.206  11.738   8.100  1.00  0.00     0.026 A 
ATOM      6  C   UNL     1      -0.935  12.018   9.265  1.00  0.00     0.006 A 
ENDROOT
BRANCH   1   7
ATOM      7  C   UNL     1      -2.366  11.296  11.219  1.00  0.00     0.037 C 
BRANCH   7   8
ATOM      8  C   UNL     1      -1.829  10.613  12.492  1.00  0.00     0.020 C 
BRANCH   8   9
ATOM      9  C   UNL     1      -0.576  11.243  13.117  1.00  0.00     0.078 C 
BRANCH   9  10
ATOM     10  N   UNL     1       0.621  10.415  13.062  1.00  0.00    -0.330 NA
ATOM     11  H   UNL     1       1.443  10.999  12.912  1.00  0.00     0.118 HD
ATOM     12  H   UNL     1       0.580   9.790  12.256  1.00  0.00     0.118 HD
ENDBRANCH   9  10
ENDBRANCH   8   9
ENDBRANCH   7   8
ENDBRANCH   1   7
BRANCH   4  13
ATOM     13  N   UNL     1       0.512  10.190   6.363  1.00  0.00    -0.362 N 
ATOM     14  H   UNL     1      -0.061  10.143   5.530  1.00  0.00     0.166 HD
BRANCH  13  15
ATOM     15  C   UNL     1       1.808   9.758   6.259  1.00  0.00     0.083 C 
BRANCH  15  16
ATOM     16  C   UNL     1       2.288   8.663   5.655  1.00  0.00     0.027 C 
BRANCH  16  17
ATOM     17  C   UNL     1       1.873   8.301   4.291  1.00  0.00    -0.003 A 
ATOM     18  C   UNL     1       1.892   6.975   3.825  1.00  0.00    -0.041 A 
ATOM     19  C   UNL     1       1.472   9.285   3.376  1.00  0.00     0.119 A 
ATOM     20  C   UNL     1       1.502   6.720   2.501  1.00  0.00     0.024 A 
ATOM     21  N   UNL     1       1.076   9.056   2.102  1.00  0.00    -0.264 NA
ATOM     22  C   UNL     1       1.098   7.774   1.696  1.00  0.00     0.111 A 
ATOM     23  C   UNL     1       2.351   5.827   4.680  1.00  0.00     0.045 C 
ENDBRANCH  16  17
ENDBRANCH  15  16
ENDBRANCH  13  15
ENDBRANCH   4  13
TORSDOF 8
ENDMDL
MODEL 9
REMARK VINA RESULT:    -4.824      4.694      8.331
REMARK INTER + INTRA:          -7.760
REMARK INTER:                  -7.148
REMARK INTRA:                  -0.611
REMARK UNBOUND:                -0.821
REMARK SMILES Cc1ccncc1/C=C/Nc1ccc(CCCN)cc1
REMARK SMILES IDX 14 1 13 2 12 3 11 4 20 5 19 6 15 7 16 8 17 9 18 10 10 13
REMARK SMILES IDX 9 15 8 16 7 17 2 18 6 19 3 20 5 21 4 22 1 23
REMARK H PARENT 18 11 18 12 10 14
ROOT
ATOM      1  C   UNL     1       2.066   5.957   4.651  1.00  0.00    -0.048 A 
ATOM      2  C   UNL     1       2.698   5.982   5.895  1.00  0.00     0.006 A 
ATOM      3  C   UNL     1       2.977   7.191   6.526  1.00  0.00     0.026 A 
ATOM      4  C   UNL     1       2.710   8.417   5.911  1.00  0.00     0.038 A 
ATOM      5  C   UNL     1       2.128   8.393   4.638  1.00  0.00     0.026 A 
ATOM      6  C   UNL     1       1.809   7.177   4.014  1.00  0.00     0.006 A 
ENDROOT
BRANCH   1   7
ATOM      7  C   UNL     1       1.668   4.654   4.003  1.00  0.00     0.037 C 
BRANCH   7   8
ATOM      8  C   UNL     1       2.532   4.177   2.820  1.00  0.00     0.020 C 
BRANCH   8   9
ATOM      9  C   UNL     1       3.867   3.512   3.186  1.00  0.00     0.078 C 
BRANCH   9  10
ATOM     10  N   UNL     1       4.507   2.780   2.102  1.00  0.00    -0.330 NA
ATOM     11  H   UNL     1       4.868   3.432   1.407  1.00  0.00     0.118 HD
ATOM     12  H   UNL     1       3.821   2.208   1.610  1.00  0.00     0.118 HD
ENDBRANCH   9  10
ENDBRANCH   8   9
ENDBRANCH   7   8
ENDBRANCH   1   7
BRANCH   4  13
ATOM     13  N   UNL     1       3.097   9.640   6.490  1.00  0.00    -0.362 N 
ATOM     14  H   UNL     1       2.454  10.052   7.155  1.00  0.00     0.166 HD
BRANCH  13  15
ATOM     15  C   UNL     1       4.125  10.427   6.043  1.00  0.00     0.083 C 
BRANCH  15  16
ATOM     16  C   UNL     1       5.342  10.611   6.573  1.00  0.00     0.027 C 
BRANCH  16  17
ATOM     17  C   UNL     1       5.694  11.864   7.257  1.00  0.00    -0.003 A 
ATOM     18  C   UNL     1       6.615  12.782   6.724  1.00  0.00    -0.041 A 
ATOM     19  C   UNL     1       5.143  12.179   8.509  1.00  0.00     0.119 A 
ATOM     20  C   UNL     1       6.911  13.942   7.455  1.00  0.00     0.024 A 
ATOM     21  N   UNL     1       5.404  13.301   9.219  1.00  0.00    -0.264 NA
ATOM     22  C   UNL     1       6.282  14.159   8.671  1.00  0.00     0.111 A 
ATOM     23  C   UNL     1       7.321  12.546   5.418  1.00  0.00     0.045 C 
ENDBRANCH  16  17
ENDBRANCH  15  16
ENDBRANCH  13  15
ENDBRANCH   4  13
TORSDOF 8
ENDMDL
