MODEL 1
REMARK VINA RESULT:    -4.969      0.000      0.000
REMARK INTER + INTRA:          -7.786
REMARK INTER:                  -7.148
REMARK INTRA:                  -0.638
REMARK UNBOUND:                -0.638
REMARK SMILES Cc1ccncc1/C=C/Nc1ccc(CCCN)cc1
REMARK SMILES IDX 14 1 13 2 12 3 11 4 20 5 19 6 15 7 16 8 17 9 18 10 10 13
REMARK SMILES IDX 9 15 8 16 7 17 2 18 6 19 3 20 5 21 4 22 1 23
REMARK H PARENT 18 11 18 12 10 14
ROOT
ATOM      1  C   UNL     1      13.734   8.433  -1.460  1.00  0.00    -0.048 A 
ATOM      2  C   UNL     1      13.944   7.875  -2.723  1.00  0.00     0.006 A 
ATOM      3  C   UNL     1      13.013   7.002  -3.278  1.00  0.00     0.026 A 
ATOM      4  C   UNL     1      11.882   6.591  -2.569  1.00  0.00     0.038 A 
ATOM      5  C   UNL     1      11.698   7.105  -1.280  1.00  0.00     0.026 A 
ATOM      6  C   UNL     1      12.614   8.016  -0.731  1.00  0.00     0.006 A 
ENDROOT
BRANCH   1   7
ATOM      7  C   UNL     1      14.683   9.458  -0.891  1.00  0.00     0.037 C 
BRANCH   7   8
ATOM      8  C   UNL     1      14.162  10.307   0.284  1.00  0.00     0.020 C 
BRANCH   8   9
ATOM      9  C   UNL     1      14.122  11.824   0.053  1.00  0.00     0.078 C 
BRANCH   9  10
ATOM     10  N   UNL     1      12.801  12.429   0.159  1.00  0.00    -0.330 NA
ATOM     11  H   UNL     1      12.121  11.873  -0.358  1.00  0.00     0.118 HD
ATOM     12  H   UNL     1      12.798  13.347  -0.285  1.00  0.00     0.118 HD
ENDBRANCH   9  10
ENDBRANCH   8   9
ENDBRANCH   7   8
ENDBRANCH   1   7
BRANCH   4  13
ATOM     13  N   UNL     1      10.999   5.617  -3.075  1.00  0.00    -0.362 N 
ATOM     14  H   UNL     1      10.083   5.940  -3.362  1.00  0.00     0.166 HD
BRANCH  13  15
ATOM     15  C   UNL     1      11.184   4.264  -2.970  1.00  0.00     0.083 C 
BRANCH  15  16
ATOM     16  C   UNL     1      10.368   3.268  -3.341  1.00  0.00     0.027 C 
BRANCH  16  17
ATOM     17  C   UNL     1       9.495   2.596  -2.366  1.00  0.00    -0.003 A 
ATOM     18  C   UNL     1       8.110   2.456  -2.565  1.00  0.00    -0.041 A 
ATOM     19  C   UNL     1      10.013   2.093  -1.163  1.00  0.00     0.119 A 
ATOM     20  C   UNL     1       7.347   1.821  -1.573  1.00  0.00     0.024 A 
ATOM     21  N   UNL     1       9.295   1.463  -0.204  1.00  0.00    -0.264 NA
ATOM     22  C   UNL     1       7.976   1.340  -0.435  1.00  0.00     0.111 A 
ATOM     23  C   UNL     1       7.413   2.995  -3.783  1.00  0.00     0.045 C 
ENDBRANCH  16  17
ENDBRANCH  15  16
ENDBRANCH  13  15
ENDBRANCH   4  13
TORSDOF 8
ENDMDL
MODEL 2
REMARK VINA RESULT:    -4.913      1.983      2.738
REMARK INTER + INTRA:          -7.706
REMARK INTER:                  -7.046
REMARK INTRA:                  -0.660
REMARK UNBOUND:                -0.638
REMARK SMILES Cc1ccncc1/C=C/Nc1ccc(CCCN)cc1
REMARK SMILES IDX 14 1 13 2 12 3 11 4 20 5 19 6 15 7 16 8 17 9 18 10 10 13
REMARK SMILES IDX 9 15 8 16 7 17 2 18 6 19 3 20 5 21 4 22 1 23
REMARK H PARENT 18 11 18 12 10 14
ROOT
ATOM      1  C   UNL     1      13.425   8.141  -1.617  1.00  0.00    -0.048 A 
ATOM      2  C   UNL     1      12.271   7.796  -0.911  1.00  0.00     0.006 A 
ATOM      3  C   UNL     1      11.413   6.811  -1.391  1.00  0.00     0.026 A 
ATOM      4  C   UNL     1      11.628   6.190  -2.624  1.00  0.00     0.038 A 
ATOM      5  C   UNL     1      12.755   6.576  -3.360  1.00  0.00     0.026 A 
ATOM      6  C   UNL     1      13.644   7.541  -2.863  1.00  0.00     0.006 A 
ENDROOT
BRANCH   1   7
ATOM      7  C   UNL     1      14.414   9.133  -1.058  1.00  0.00     0.037 C 
BRANCH   7   8
ATOM      8  C   UNL     1      14.485   9.249   0.477  1.00  0.00     0.020 C 
BRANCH   8   9
ATOM      9  C   UNL     1      15.666   8.537   1.152  1.00  0.00     0.078 C 
BRANCH   9  10
ATOM     10  N   UNL     1      15.659   7.086   1.032  1.00  0.00    -0.330 NA
ATOM     11  H   UNL     1      16.594   6.717   1.204  1.00  0.00     0.118 HD
ATOM     12  H   UNL     1      15.429   6.813   0.077  1.00  0.00     0.118 HD
ENDBRANCH   9  10
ENDBRANCH   8   9
ENDBRANCH   7   8
ENDBRANCH   1   7
BRANCH   4  13
ATOM     13  N   UNL     1      10.703   5.280  -3.171  1.00  0.00    -0.362 N 
ATOM     14  H   UNL     1       9.800   5.654  -3.434  1.00  0.00     0.166 HD
BRANCH  13  15
ATOM     15  C   UNL     1      10.832   3.917  -3.135  1.00  0.00     0.083 C 
BRANCH  15  16
ATOM     16  C   UNL     1      10.074   3.012  -2.501  1.00  0.00     0.027 C 
BRANCH  16  17
ATOM     17  C   UNL     1       8.645   2.859  -2.817  1.00  0.00    -0.003 A 
ATOM     18  C   UNL     1       7.750   2.198  -1.958  1.00  0.00    -0.041 A 
ATOM     19  C   UNL     1       8.120   3.340  -4.026  1.00  0.00     0.119 A 
ATOM     20  C   UNL     1       6.408   2.076  -2.348  1.00  0.00     0.024 A 
ATOM     21  N   UNL     1       6.826   3.247  -4.410  1.00  0.00    -0.264 NA
ATOM     22  C   UNL     1       5.998   2.617  -3.557  1.00  0.00     0.111 A 
ATOM     23  C   UNL     1       8.186   1.586  -0.657  1.00  0.00     0.045 C 
ENDBRANCH  16  17
ENDBRANCH  15  16
ENDBRANCH  13  15
ENDBRANCH   4  13
TORSDOF 8
ENDMDL
MODEL 3
REMARK VINA RESULT:    -4.735      1.365      2.099
REMARK INTER + INTRA:          -7.450
REMARK INTER:                  -6.870
REMARK INTRA:                  -0.580
REMARK UNBOUND:                -0.638
REMARK SMILES Cc1ccncc1/C=C/Nc1ccc(CCCN)cc1
REMARK SMILES IDX 14 1 13 2 12 3 11 4 20 5 19 6 15 7 16 8 17 9 18 10 10 13
REMARK SMILES IDX 9 15 8 16 7 17 2 18 6 19 3 20 5 21 4 22 1 23
REMARK H PARENT 18 11 18 12 10 14
ROOT
ATOM      1  C   UNL     1      13.775   8.559  -1.517  1.00  0.00    -0.048 A 
ATOM      2  C   UNL     1      14.000   7.935  -2.746  1.00  0.00     0.006 A 
ATOM      3  C   UNL     1      13.080   7.026  -3.261  1.00  0.00     0.026 A 
ATOM      4  C   UNL     1      11.946   6.646  -2.540  1.00  0.00     0.038 A 
ATOM      5  C   UNL     1      11.747   7.228  -1.282  1.00  0.00     0.026 A 
ATOM      6  C   UNL     1      12.651   8.174  -0.776  1.00  0.00     0.006 A 
ENDROOT
BRANCH   1   7
ATOM      7  C   UNL     1      14.712   9.620  -0.997  1.00  0.00     0.037 C 
BRANCH   7   8
ATOM      8  C   UNL     1      14.292  10.339   0.299  1.00  0.00     0.020 C 
BRANCH   8   9
ATOM      9  C   UNL     1      14.129  11.863   0.202  1.00  0.00     0.078 C 
BRANCH   9  10
ATOM     10  N   UNL     1      12.754  12.329   0.096  1.00  0.00    -0.330 NA
ATOM     11  H   UNL     1      12.454  12.737   0.981  1.00  0.00     0.118 HD
ATOM     12  H   UNL     1      12.127  11.541  -0.067  1.00  0.00     0.118 HD
ENDBRANCH   9  10
ENDBRANCH   8   9
ENDBRANCH   7   8
ENDBRANCH   1   7
BRANCH   4  13
ATOM     13  N   UNL     1      11.074   5.640  -3.000  1.00  0.00    -0.362 N 
ATOM     14  H   UNL     1      10.331   5.932  -3.622  1.00  0.00     0.166 HD
BRANCH  13  15
ATOM     15  C   UNL     1      10.996   4.374  -2.480  1.00  0.00     0.083 C 
BRANCH  15  16
ATOM     16  C   UNL     1      10.492   3.263  -3.032  1.00  0.00     0.027 C 
BRANCH  16  17
ATOM     17  C   UNL     1       9.104   3.216  -3.518  1.00  0.00    -0.003 A 
ATOM     18  C   UNL     1       8.080   2.562  -2.811  1.00  0.00    -0.041 A 
ATOM     19  C   UNL     1       8.751   3.800  -4.744  1.00  0.00     0.119 A 
ATOM     20  C   UNL     1       6.788   2.545  -3.359  1.00  0.00     0.024 A 
ATOM     21  N   UNL     1       7.507   3.808  -5.278  1.00  0.00    -0.264 NA
ATOM     22  C   UNL     1       6.553   3.181  -4.568  1.00  0.00     0.111 A 
ATOM     23  C   UNL     1       8.327   1.849  -1.512  1.00  0.00     0.045 C 
ENDBRANCH  16  17
ENDBRANCH  15  16
ENDBRANCH  13  15
ENDBRANCH   4  13
TORSDOF 8
ENDMDL
MODEL 4
REMARK VINA RESULT:    -4.724      1.847      8.808
REMARK INTER + INTRA:          -7.433
REMARK INTER:                  -6.892
REMARK INTRA:                  -0.542
REMARK UNBOUND:                -0.638
REMARK SMILES Cc1ccncc1/C=C/Nc1ccc(CCCN)cc1
REMARK SMILES IDX 14 1 13 2 12 3 11 4 20 5 19 6 15 7 16 8 17 9 18 10 10 13
REMARK SMILES IDX 9 15 8 16 7 17 2 18 6 19 3 20 5 21 4 22 1 23
REMARK H PARENT 18 11 18 12 10 14
ROOT
ATOM      1  C   UNL     1       7.921   2.052  -2.824  1.00  0.00    -0.048 A 
ATOM      2  C   UNL     1       8.077   3.051  -3.787  1.00  0.00     0.006 A 
ATOM      3  C   UNL     1       9.260   3.779  -3.871  1.00  0.00     0.026 A 
ATOM      4  C   UNL     1      10.300   3.594  -2.956  1.00  0.00     0.038 A 
ATOM      5  C   UNL     1      10.123   2.632  -1.955  1.00  0.00     0.026 A 
ATOM      6  C   UNL     1       8.947   1.869  -1.889  1.00  0.00     0.006 A 
ENDROOT
BRANCH   1   7
ATOM      7  C   UNL     1       6.685   1.190  -2.787  1.00  0.00     0.037 C 
BRANCH   7   8
ATOM      8  C   UNL     1       6.236   0.683  -1.402  1.00  0.00     0.020 C 
BRANCH   8   9
ATOM      9  C   UNL     1       6.317  -0.835  -1.181  1.00  0.00     0.078 C 
BRANCH   9  10
ATOM     10  N   UNL     1       5.166  -1.588  -1.656  1.00  0.00    -0.330 NA
ATOM     11  H   UNL     1       5.472  -2.345  -2.266  1.00  0.00     0.118 HD
ATOM     12  H   UNL     1       4.571  -0.994  -2.235  1.00  0.00     0.118 HD
ENDBRANCH   9  10
ENDBRANCH   8   9
ENDBRANCH   7   8
ENDBRANCH   1   7
BRANCH   4  13
ATOM     13  N   UNL     1      11.450   4.407  -2.962  1.00  0.00    -0.362 N 
ATOM     14  H   UNL     1      12.332   3.944  -3.142  1.00  0.00     0.166 HD
BRANCH  13  15
ATOM     15  C   UNL     1      11.500   5.695  -2.499  1.00  0.00     0.083 C 
BRANCH  15  16
ATOM     16  C   UNL     1      12.083   6.769  -3.048  1.00  0.00     0.027 C 
BRANCH  16  17
ATOM     17  C   UNL     1      13.041   7.587  -2.288  1.00  0.00    -0.003 A 
ATOM     18  C   UNL     1      14.360   7.803  -2.725  1.00  0.00    -0.041 A 
ATOM     19  C   UNL     1      12.682   8.162  -1.060  1.00  0.00     0.119 A 
ATOM     20  C   UNL     1      15.216   8.577  -1.927  1.00  0.00     0.024 A 
ATOM     21  N   UNL     1      13.489   8.925  -0.287  1.00  0.00    -0.264 NA
ATOM     22  C   UNL     1      14.739   9.117  -0.743  1.00  0.00     0.111 A 
ATOM     23  C   UNL     1      14.896   7.203  -3.995  1.00  0.00     0.045 C 
ENDBRANCH  16  17
ENDBRANCH  15  16
ENDBRANCH  13  15
ENDBRANCH   4  13
TORSDOF 8
ENDMDL
MODEL 5
REMARK VINA RESULT:    -4.716      2.204      8.351
REMARK INTER + INTRA:          -7.422
REMARK INTER:                  -6.879
REMARK INTRA:                  -0.543
REMARK UNBOUND:                -0.638
REMARK SMILES Cc1ccncc1/C=C/Nc1ccc(CCCN)cc1
REMARK SMILES IDX 14 1 13 2 12 3 11 4 20 5 19 6 15 7 16 8 17 9 18 10 10 13
REMARK SMILES IDX 9 15 8 16 7 17 2 18 6 19 3 20 5 21 4 22 1 23
REMARK H PARENT 18 11 18 12 10 14
ROOT
ATOM      1  C   UNL     1       7.570   2.427  -3.301  1.00  0.00    -0.048 A 
ATOM      2  C   UNL     1       7.989   3.332  -4.278  1.00  0.00     0.006 A 
ATOM      3  C   UNL     1       9.266   3.884  -4.235  1.00  0.00     0.026 A 
ATOM      4  C   UNL     1      10.143   3.619  -3.180  1.00  0.00     0.038 A 
ATOM      5  C   UNL     1       9.703   2.756  -2.169  1.00  0.00     0.026 A 
ATOM      6  C   UNL     1       8.431   2.166  -2.228  1.00  0.00     0.006 A 
ENDROOT
BRANCH   1   7
ATOM      7  C   UNL     1       6.228   1.745  -3.392  1.00  0.00     0.037 C 
BRANCH   7   8
ATOM      8  C   UNL     1       5.097   2.327  -2.522  1.00  0.00     0.020 C 
BRANCH   8   9
ATOM      9  C   UNL     1       4.680   3.771  -2.836  1.00  0.00     0.078 C 
BRANCH   9  10
ATOM     10  N   UNL     1       3.596   3.903  -3.798  1.00  0.00    -0.330 NA
ATOM     11  H   UNL     1       2.791   4.349  -3.358  1.00  0.00     0.118 HD
ATOM     12  H   UNL     1       3.271   2.981  -4.091  1.00  0.00     0.118 HD
ENDBRANCH   9  10
ENDBRANCH   8   9
ENDBRANCH   7   8
ENDBRANCH   1   7
BRANCH   4  13
ATOM     13  N   UNL     1      11.389   4.265  -3.067  1.00  0.00    -0.362 N 
ATOM     14  H   UNL     1      12.210   3.706  -3.261  1.00  0.00     0.166 HD
BRANCH  13  15
ATOM     15  C   UNL     1      11.586   5.486  -2.479  1.00  0.00     0.083 C 
BRANCH  15  16
ATOM     16  C   UNL     1      12.057   6.618  -3.018  1.00  0.00     0.027 C 
BRANCH  16  17
ATOM     17  C   UNL     1      12.979   7.491  -2.274  1.00  0.00    -0.003 A 
ATOM     18  C   UNL     1      14.285   7.762  -2.718  1.00  0.00    -0.041 A 
ATOM     19  C   UNL     1      12.597   8.065  -1.052  1.00  0.00     0.119 A 
ATOM     20  C   UNL     1      15.106   8.586  -1.935  1.00  0.00     0.024 A 
ATOM     21  N   UNL     1      13.370   8.876  -0.292  1.00  0.00    -0.264 NA
ATOM     22  C   UNL     1      14.609   9.120  -0.756  1.00  0.00     0.111 A 
ATOM     23  C   UNL     1      14.844   7.171  -3.982  1.00  0.00     0.045 C 
ENDBRANCH  16  17
ENDBRANCH  15  16
ENDBRANCH  13  15
ENDBRANCH   4  13
TORSDOF 8
ENDMDL
MODEL 6
REMARK VINA RESULT:    -4.635      2.271      8.868
REMARK INTER + INTRA:          -7.306
REMARK INTER:                  -6.727
REMARK INTRA:                  -0.579
REMARK UNBOUND:                -0.638
REMARK SMILES Cc1ccncc1/C=C/Nc1ccc(CCCN)cc1
REMARK SMILES IDX 14 1 13 2 12 3 11 4 20 5 19 6 15 7 16 8 17 9 18 10 10 13
REMARK SMILES IDX 9 15 8 16 7 17 2 18 6 19 3 20 5 21 4 22 1 23
REMARK H PARENT 18 11 18 12 10 14
ROOT
ATOM      1  C   UNL     1       7.952   1.964  -2.707  1.00  0.00    -0.048 A 
ATOM      2  C   UNL     1       7.956   2.937  -3.708  1.00  0.00     0.006 A 
ATOM      3  C   UNL     1       9.072   3.744  -3.910  1.00  0.00     0.026 A 
ATOM      4  C   UNL     1      10.191   3.667  -3.077  1.00  0.00     0.038 A 
ATOM      5  C   UNL     1      10.165   2.731  -2.037  1.00  0.00     0.026 A 
ATOM      6  C   UNL     1       9.058   1.888  -1.852  1.00  0.00     0.006 A 
ENDROOT
BRANCH   1   7
ATOM      7  C   UNL     1       6.789   1.016  -2.544  1.00  0.00     0.037 C 
BRANCH   7   8
ATOM      8  C   UNL     1       6.612   0.372  -1.155  1.00  0.00     0.020 C 
BRANCH   8   9
ATOM      9  C   UNL     1       6.324  -1.136  -1.145  1.00  0.00     0.078 C 
BRANCH   9  10
ATOM     10  N   UNL     1       5.036  -1.521  -1.705  1.00  0.00    -0.330 NA
ATOM     11  H   UNL     1       4.283  -1.059  -1.197  1.00  0.00     0.118 HD
ATOM     12  H   UNL     1       4.881  -2.521  -1.575  1.00  0.00     0.118 HD
ENDBRANCH   9  10
ENDBRANCH   8   9
ENDBRANCH   7   8
ENDBRANCH   1   7
BRANCH   4  13
ATOM     13  N   UNL     1      11.273   4.560  -3.200  1.00  0.00    -0.362 N 
ATOM     14  H   UNL     1      12.200   4.167  -3.093  1.00  0.00     0.166 HD
BRANCH  13  15
ATOM     15  C   UNL     1      11.165   5.925  -3.195  1.00  0.00     0.083 C 
BRANCH  15  16
ATOM     16  C   UNL     1      11.730   6.815  -2.368  1.00  0.00     0.027 C 
BRANCH  16  17
ATOM     17  C   UNL     1      13.103   7.294  -2.587  1.00  0.00    -0.003 A 
ATOM     18  C   UNL     1      13.760   8.140  -1.675  1.00  0.00    -0.041 A 
ATOM     19  C   UNL     1      13.808   6.952  -3.750  1.00  0.00     0.119 A 
ATOM     20  C   UNL     1      15.062   8.570  -1.974  1.00  0.00     0.024 A 
ATOM     21  N   UNL     1      15.070   7.343  -4.045  1.00  0.00    -0.264 NA
ATOM     22  C   UNL     1      15.668   8.143  -3.145  1.00  0.00     0.111 A 
ATOM     23  C   UNL     1      13.105   8.629  -0.414  1.00  0.00     0.045 C 
ENDBRANCH  16  17
ENDBRANCH  15  16
ENDBRANCH  13  15
ENDBRANCH   4  13
TORSDOF 8
ENDMDL
MODEL 7
REMARK VINA RESULT:    -4.543      5.333      7.004
REMARK INTER + INTRA:          -7.174
REMARK INTER:                  -6.548
REMARK INTRA:                  -0.625
REMARK UNBOUND:                -0.638
REMARK SMILES Cc1ccncc1/C=C/Nc1ccc(CCCN)cc1
REMARK SMILES IDX 14 1 13 2 12 3 11 4 20 5 19 6 15 7 16 8 17 9 18 10 10 13
REMARK SMILES IDX 9 15 8 16 7 17 2 18 6 19 3 20 5 21 4 22 1 23
REMARK H PARENT 18 11 18 12 10 14
ROOT
ATOM      1  C   UNL     1      14.460   0.976  -5.440  1.00  0.00    -0.048 A 
ATOM      2  C   UNL     1      13.147   0.575  -5.695  1.00  0.00     0.006 A 
ATOM      3  C   UNL     1      12.096   1.044  -4.912  1.00  0.00     0.026 A 
ATOM      4  C   UNL     1      12.318   1.865  -3.803  1.00  0.00     0.038 A 
ATOM      5  C   UNL     1      13.640   2.222  -3.512  1.00  0.00     0.026 A 
ATOM      6  C   UNL     1      14.700   1.782  -4.321  1.00  0.00     0.006 A 
ENDROOT
BRANCH   1   7
ATOM      7  C   UNL     1      15.593   0.555  -6.341  1.00  0.00     0.037 C 
BRANCH   7   8
ATOM      8  C   UNL     1      15.243   0.297  -7.819  1.00  0.00     0.020 C 
BRANCH   8   9
ATOM      9  C   UNL     1      15.638   1.403  -8.808  1.00  0.00     0.078 C 
BRANCH   9  10
ATOM     10  N   UNL     1      14.623   2.423  -9.030  1.00  0.00    -0.330 NA
ATOM     11  H   UNL     1      15.045   3.251  -9.447  1.00  0.00     0.118 HD
ATOM     12  H   UNL     1      14.235   2.733  -8.138  1.00  0.00     0.118 HD
ENDBRANCH   9  10
ENDBRANCH   8   9
ENDBRANCH   7   8
ENDBRANCH   1   7
BRANCH   4  13
ATOM     13  N   UNL     1      11.275   2.246  -2.938  1.00  0.00    -0.362 N 
ATOM     14  H   UNL     1      11.301   1.866  -2.000  1.00  0.00     0.166 HD
BRANCH  13  15
ATOM     15  C   UNL     1      10.118   2.864  -3.332  1.00  0.00     0.083 C 
BRANCH  15  16
ATOM     16  C   UNL     1       9.032   3.168  -2.609  1.00  0.00     0.027 C 
BRANCH  16  17
ATOM     17  C   UNL     1       8.041   2.140  -2.255  1.00  0.00    -0.003 A 
ATOM     18  C   UNL     1       6.883   1.915  -3.019  1.00  0.00    -0.041 A 
ATOM     19  C   UNL     1       8.197   1.358  -1.101  1.00  0.00     0.119 A 
ATOM     20  C   UNL     1       5.977   0.930  -2.596  1.00  0.00     0.024 A 
ATOM     21  N   UNL     1       7.342   0.392  -0.688  1.00  0.00    -0.264 NA
ATOM     22  C   UNL     1       6.252   0.200  -1.451  1.00  0.00     0.111 A 
ATOM     23  C   UNL     1       6.562   2.716  -4.250  1.00  0.00     0.045 C 
ENDBRANCH  16  17
ENDBRANCH  15  16
ENDBRANCH  13  15
ENDBRANCH   4  13
TORSDOF 8
ENDMDL
MODEL 8
REMARK VINA RESULT:    -4.356      5.403      7.249
REMARK INTER + INTRA:          -6.903
REMARK INTER:                  -6.361
REMARK INTRA:                  -0.543
REMARK UNBOUND:                -0.638
REMARK SMILES Cc1ccncc1/C=C/Nc1ccc(CCCN)cc1
REMARK SMILES IDX 14 1 13 2 12 3 11 4 20 5 19 6 15 7 16 8 17 9 18 10 10 13
REMARK SMILES IDX 9 15 8 16 7 17 2 18 6 19 3 20 5 21 4 22 1 23
REMARK H PARENT 18 11 18 12 10 14
ROOT
ATOM      1  C   UNL     1      14.416   0.974  -5.551  1.00  0.00    -0.048 A 
ATOM      2  C   UNL     1      13.119   0.466  -5.653  1.00  0.00     0.006 A 
ATOM      3  C   UNL     1      12.115   0.902  -4.794  1.00  0.00     0.026 A 
ATOM      4  C   UNL     1      12.379   1.798  -3.755  1.00  0.00     0.038 A 
ATOM      5  C   UNL     1      13.691   2.265  -3.615  1.00  0.00     0.026 A 
ATOM      6  C   UNL     1      14.699   1.858  -4.502  1.00  0.00     0.006 A 
ENDROOT
BRANCH   1   7
ATOM      7  C   UNL     1      15.487   0.586  -6.538  1.00  0.00     0.037 C 
BRANCH   7   8
ATOM      8  C   UNL     1      15.050   0.431  -8.008  1.00  0.00     0.020 C 
BRANCH   8   9
ATOM      9  C   UNL     1      15.670   1.424  -9.003  1.00  0.00     0.078 C 
BRANCH   9  10
ATOM     10  N   UNL     1      15.342   2.822  -8.763  1.00  0.00    -0.330 NA
ATOM     11  H   UNL     1      15.446   3.357  -9.624  1.00  0.00     0.118 HD
ATOM     12  H   UNL     1      16.006   3.231  -8.105  1.00  0.00     0.118 HD
ENDBRANCH   9  10
ENDBRANCH   8   9
ENDBRANCH   7   8
ENDBRANCH   1   7
BRANCH   4  13
ATOM     13  N   UNL     1      11.396   2.152  -2.810  1.00  0.00    -0.362 N 
ATOM     14  H   UNL     1      11.598   1.934  -1.842  1.00  0.00     0.166 HD
BRANCH  13  15
ATOM     15  C   UNL     1      10.113   2.520  -3.116  1.00  0.00     0.083 C 
BRANCH  15  16
ATOM     16  C   UNL     1       8.987   1.797  -3.051  1.00  0.00     0.027 C 
BRANCH  16  17
ATOM     17  C   UNL     1       7.674   2.443  -2.901  1.00  0.00    -0.003 A 
ATOM     18  C   UNL     1       6.972   2.449  -1.683  1.00  0.00    -0.041 A 
ATOM     19  C   UNL     1       7.044   3.056  -3.994  1.00  0.00     0.119 A 
ATOM     20  C   UNL     1       5.714   3.068  -1.633  1.00  0.00     0.024 A 
ATOM     21  N   UNL     1       5.840   3.672  -3.960  1.00  0.00    -0.264 NA
ATOM     22  C   UNL     1       5.204   3.665  -2.775  1.00  0.00     0.111 A 
ATOM     23  C   UNL     1       7.504   1.784  -0.444  1.00  0.00     0.045 C 
ENDBRANCH  16  17
ENDBRANCH  15  16
ENDBRANCH  13  15
ENDBRANCH   4  13
TORSDOF 8
ENDMDL
