MODEL 1
REMARK VINA RESULT:    -4.880      0.000      0.000
REMARK INTER + INTRA:          -7.610
REMARK INTER:                  -7.020
REMARK INTRA:                  -0.590
REMARK UNBOUND:                -0.590
REMARK SMILES Cc1ccncc1/C=C/Nc1ccc(CCCN)cc1
REMARK SMILES IDX 14 1 13 2 12 3 11 4 20 5 19 6 15 7 16 8 17 9 18 10 10 13
REMARK SMILES IDX 9 15 8 16 7 17 2 18 6 19 3 20 5 21 4 22 1 23
REMARK H PARENT 18 11 18 12 10 14
ROOT
ATOM      1  C   UNL     1      13.128  -0.533   6.138  1.00  0.00    -0.048 A 
ATOM      2  C   UNL     1      11.833  -1.054   6.156  1.00  0.00     0.006 A 
ATOM      3  C   UNL     1      10.874  -0.606   5.253  1.00  0.00     0.026 A 
ATOM      4  C   UNL     1      11.142   0.428   4.353  1.00  0.00     0.038 A 
ATOM      5  C   UNL     1      12.424   0.991   4.372  1.00  0.00     0.026 A 
ATOM      6  C   UNL     1      13.407   0.517   5.254  1.00  0.00     0.006 A 
ENDROOT
BRANCH   1   7
ATOM      7  C   UNL     1      14.203  -1.081   7.043  1.00  0.00     0.037 C 
BRANCH   7   8
ATOM      8  C   UNL     1      13.908  -2.427   7.731  1.00  0.00     0.020 C 
BRANCH   8   9
ATOM      9  C   UNL     1      14.466  -3.677   7.033  1.00  0.00     0.078 C 
BRANCH   9  10
ATOM     10  N   UNL     1      14.490  -3.610   5.579  1.00  0.00    -0.330 NA
ATOM     11  H   UNL     1      13.836  -4.287   5.188  1.00  0.00     0.118 HD
ATOM     12  H   UNL     1      15.408  -3.884   5.229  1.00  0.00     0.118 HD
ENDBRANCH   9  10
ENDBRANCH   8   9
ENDBRANCH   7   8
ENDBRANCH   1   7
BRANCH   4  13
ATOM     13  N   UNL     1      10.144   0.967   3.519  1.00  0.00    -0.362 N 
ATOM     14  H   UNL     1       9.504   1.626   3.944  1.00  0.00     0.166 HD
BRANCH  13  15
ATOM     15  C   UNL     1       9.817   0.487   2.279  1.00  0.00     0.083 C 
BRANCH  15  16
ATOM     16  C   UNL     1       8.923   0.956   1.399  1.00  0.00     0.027 C 
BRANCH  16  17
ATOM     17  C   UNL     1       7.692   0.212   1.091  1.00  0.00    -0.003 A 
ATOM     18  C   UNL     1       6.451   0.847   0.912  1.00  0.00    -0.041 A 
ATOM     19  C   UNL     1       7.702  -1.189   1.002  1.00  0.00     0.119 A 
ATOM     20  C   UNL     1       5.322   0.058   0.645  1.00  0.00     0.024 A 
ATOM     21  N   UNL     1       6.627  -1.964   0.728  1.00  0.00    -0.264 NA
ATOM     22  C   UNL     1       5.460  -1.318   0.552  1.00  0.00     0.111 A 
ATOM     23  C   UNL     1       6.284   2.336   1.033  1.00  0.00     0.045 C 
ENDBRANCH  16  17
ENDBRANCH  15  16
ENDBRANCH  13  15
ENDBRANCH   4  13
TORSDOF 8
ENDMDL
MODEL 2
REMARK VINA RESULT:    -4.815      1.344      2.177
REMARK INTER + INTRA:          -7.516
REMARK INTER:                  -6.868
REMARK INTRA:                  -0.648
REMARK UNBOUND:                -0.590
REMARK SMILES Cc1ccncc1/C=C/Nc1ccc(CCCN)cc1
REMARK SMILES IDX 14 1 13 2 12 3 11 4 20 5 19 6 15 7 16 8 17 9 18 10 10 13
REMARK SMILES IDX 9 15 8 16 7 17 2 18 6 19 3 20 5 21 4 22 1 23
REMARK H PARENT 18 11 18 12 10 14
ROOT
ATOM      1  C   UNL     1      12.405  -0.328   5.764  1.00  0.00    -0.048 A 
ATOM      2  C   UNL     1      12.856   0.543   4.771  1.00  0.00     0.006 A 
ATOM      3  C   UNL     1      11.996   0.987   3.770  1.00  0.00     0.026 A 
ATOM      4  C   UNL     1      10.682   0.521   3.675  1.00  0.00     0.038 A 
ATOM      5  C   UNL     1      10.245  -0.397   4.637  1.00  0.00     0.026 A 
ATOM      6  C   UNL     1      11.096  -0.818   5.670  1.00  0.00     0.006 A 
ENDROOT
BRANCH   1   7
ATOM      7  C   UNL     1      13.297  -0.736   6.909  1.00  0.00     0.037 C 
BRANCH   7   8
ATOM      8  C   UNL     1      13.285  -2.227   7.299  1.00  0.00     0.020 C 
BRANCH   8   9
ATOM      9  C   UNL     1      14.490  -3.055   6.829  1.00  0.00     0.078 C 
BRANCH   9  10
ATOM     10  N   UNL     1      14.315  -3.721   5.546  1.00  0.00    -0.330 NA
ATOM     11  H   UNL     1      13.823  -3.108   4.899  1.00  0.00     0.118 HD
ATOM     12  H   UNL     1      13.718  -4.541   5.654  1.00  0.00     0.118 HD
ENDBRANCH   9  10
ENDBRANCH   8   9
ENDBRANCH   7   8
ENDBRANCH   1   7
BRANCH   4  13
ATOM     13  N   UNL     1       9.844   0.872   2.599  1.00  0.00    -0.362 N 
ATOM     14  H   UNL     1       9.492   1.821   2.588  1.00  0.00     0.166 HD
BRANCH  13  15
ATOM     15  C   UNL     1       9.273  -0.019   1.729  1.00  0.00     0.083 C 
BRANCH  15  16
ATOM     16  C   UNL     1       8.341   0.195   0.791  1.00  0.00     0.027 C 
BRANCH  16  17
ATOM     17  C   UNL     1       6.954   0.520   1.154  1.00  0.00    -0.003 A 
ATOM     18  C   UNL     1       5.949  -0.459   1.247  1.00  0.00    -0.041 A 
ATOM     19  C   UNL     1       6.564   1.847   1.391  1.00  0.00     0.119 A 
ATOM     20  C   UNL     1       4.645  -0.057   1.577  1.00  0.00     0.024 A 
ATOM     21  N   UNL     1       5.316   2.249   1.727  1.00  0.00    -0.264 NA
ATOM     22  C   UNL     1       4.385   1.283   1.815  1.00  0.00     0.111 A 
ATOM     23  C   UNL     1       6.213  -1.911   0.967  1.00  0.00     0.045 C 
ENDBRANCH  16  17
ENDBRANCH  15  16
ENDBRANCH  13  15
ENDBRANCH   4  13
TORSDOF 8
ENDMDL
MODEL 3
REMARK VINA RESULT:    -4.784      1.920      8.486
REMARK INTER + INTRA:          -7.472
REMARK INTER:                  -6.926
REMARK INTRA:                  -0.546
REMARK UNBOUND:                -0.590
REMARK SMILES Cc1ccncc1/C=C/Nc1ccc(CCCN)cc1
REMARK SMILES IDX 14 1 13 2 12 3 11 4 20 5 19 6 15 7 16 8 17 9 18 10 10 13
REMARK SMILES IDX 9 15 8 16 7 17 2 18 6 19 3 20 5 21 4 22 1 23
REMARK H PARENT 18 11 18 12 10 14
ROOT
ATOM      1  C   UNL     1       6.297   0.720   0.715  1.00  0.00    -0.048 A 
ATOM      2  C   UNL     1       7.041   1.833   1.112  1.00  0.00     0.006 A 
ATOM      3  C   UNL     1       8.381   1.703   1.465  1.00  0.00     0.026 A 
ATOM      4  C   UNL     1       9.007   0.456   1.513  1.00  0.00     0.038 A 
ATOM      5  C   UNL     1       8.247  -0.669   1.170  1.00  0.00     0.026 A 
ATOM      6  C   UNL     1       6.907  -0.539   0.776  1.00  0.00     0.006 A 
ENDROOT
BRANCH   1   7
ATOM      7  C   UNL     1       4.875   0.862   0.233  1.00  0.00     0.037 C 
BRANCH   7   8
ATOM      8  C   UNL     1       3.764   0.532   1.249  1.00  0.00     0.020 C 
BRANCH   8   9
ATOM      9  C   UNL     1       3.761   1.367   2.538  1.00  0.00     0.078 C 
BRANCH   9  10
ATOM     10  N   UNL     1       3.097   2.658   2.433  1.00  0.00    -0.330 NA
ATOM     11  H   UNL     1       2.300   2.591   1.801  1.00  0.00     0.118 HD
ATOM     12  H   UNL     1       3.724   3.343   2.010  1.00  0.00     0.118 HD
ENDBRANCH   9  10
ENDBRANCH   8   9
ENDBRANCH   7   8
ENDBRANCH   1   7
BRANCH   4  13
ATOM     13  N   UNL     1      10.326   0.302   1.984  1.00  0.00    -0.362 N 
ATOM     14  H   UNL     1      11.048   0.191   1.283  1.00  0.00     0.166 HD
BRANCH  13  15
ATOM     15  C   UNL     1      10.667   0.037   3.284  1.00  0.00     0.083 C 
BRANCH  15  16
ATOM     16  C   UNL     1      11.373   0.785   4.142  1.00  0.00     0.027 C 
BRANCH  16  17
ATOM     17  C   UNL     1      12.260   0.168   5.139  1.00  0.00    -0.003 A 
ATOM     18  C   UNL     1      13.642   0.426   5.181  1.00  0.00    -0.041 A 
ATOM     19  C   UNL     1      11.762  -0.747   6.078  1.00  0.00     0.119 A 
ATOM     20  C   UNL     1      14.420  -0.225   6.150  1.00  0.00     0.024 A 
ATOM     21  N   UNL     1      12.494  -1.370   7.031  1.00  0.00    -0.264 NA
ATOM     22  C   UNL     1      13.809  -1.090   7.045  1.00  0.00     0.111 A 
ATOM     23  C   UNL     1      14.319   1.343   4.202  1.00  0.00     0.045 C 
ENDBRANCH  16  17
ENDBRANCH  15  16
ENDBRANCH  13  15
ENDBRANCH   4  13
TORSDOF 8
ENDMDL
MODEL 4
REMARK VINA RESULT:    -4.725      1.590      1.728
REMARK INTER + INTRA:          -7.387
REMARK INTER:                  -6.777
REMARK INTRA:                  -0.611
REMARK UNBOUND:                -0.590
REMARK SMILES Cc1ccncc1/C=C/Nc1ccc(CCCN)cc1
REMARK SMILES IDX 14 1 13 2 12 3 11 4 20 5 19 6 15 7 16 8 17 9 18 10 10 13
REMARK SMILES IDX 9 15 8 16 7 17 2 18 6 19 3 20 5 21 4 22 1 23
REMARK H PARENT 18 11 18 12 10 14
ROOT
ATOM      1  C   UNL     1      13.278  -0.509   6.270  1.00  0.00    -0.048 A 
ATOM      2  C   UNL     1      11.988  -1.044   6.259  1.00  0.00     0.006 A 
ATOM      3  C   UNL     1      11.058  -0.638   5.306  1.00  0.00     0.026 A 
ATOM      4  C   UNL     1      11.350   0.368   4.381  1.00  0.00     0.038 A 
ATOM      5  C   UNL     1      12.624   0.945   4.427  1.00  0.00     0.026 A 
ATOM      6  C   UNL     1      13.578   0.513   5.361  1.00  0.00     0.006 A 
ENDROOT
BRANCH   1   7
ATOM      7  C   UNL     1      14.324  -1.014   7.232  1.00  0.00     0.037 C 
BRANCH   7   8
ATOM      8  C   UNL     1      13.812  -1.668   8.530  1.00  0.00     0.020 C 
BRANCH   8   9
ATOM      9  C   UNL     1      14.238  -0.989   9.840  1.00  0.00     0.078 C 
BRANCH   9  10
ATOM     10  N   UNL     1      13.141  -0.547  10.688  1.00  0.00    -0.330 NA
ATOM     11  H   UNL     1      13.236  -0.951  11.619  1.00  0.00     0.118 HD
ATOM     12  H   UNL     1      12.254  -0.898  10.328  1.00  0.00     0.118 HD
ENDBRANCH   9  10
ENDBRANCH   8   9
ENDBRANCH   7   8
ENDBRANCH   1   7
BRANCH   4  13
ATOM     13  N   UNL     1      10.378   0.867   3.493  1.00  0.00    -0.362 N 
ATOM     14  H   UNL     1       9.656   1.454   3.893  1.00  0.00     0.166 HD
BRANCH  13  15
ATOM     15  C   UNL     1      10.186   0.422   2.212  1.00  0.00     0.083 C 
BRANCH  15  16
ATOM     16  C   UNL     1       9.191   0.701   1.360  1.00  0.00     0.027 C 
BRANCH  16  17
ATOM     17  C   UNL     1       8.095  -0.252   1.129  1.00  0.00    -0.003 A 
ATOM     18  C   UNL     1       6.754   0.154   1.011  1.00  0.00    -0.041 A 
ATOM     19  C   UNL     1       8.345  -1.631   1.054  1.00  0.00     0.119 A 
ATOM     20  C   UNL     1       5.768  -0.826   0.815  1.00  0.00     0.024 A 
ATOM     21  N   UNL     1       7.409  -2.587   0.848  1.00  0.00    -0.264 NA
ATOM     22  C   UNL     1       6.140  -2.158   0.730  1.00  0.00     0.111 A 
ATOM     23  C   UNL     1       6.336   1.593   1.125  1.00  0.00     0.045 C 
ENDBRANCH  16  17
ENDBRANCH  15  16
ENDBRANCH  13  15
ENDBRANCH   4  13
TORSDOF 8
ENDMDL
MODEL 5
REMARK VINA RESULT:    -4.531      1.652      8.299
REMARK INTER + INTRA:          -7.108
REMARK INTER:                  -6.632
REMARK INTRA:                  -0.477
REMARK UNBOUND:                -0.590
REMARK SMILES Cc1ccncc1/C=C/Nc1ccc(CCCN)cc1
REMARK SMILES IDX 14 1 13 2 12 3 11 4 20 5 19 6 15 7 16 8 17 9 18 10 10 13
REMARK SMILES IDX 9 15 8 16 7 17 2 18 6 19 3 20 5 21 4 22 1 23
REMARK H PARENT 18 11 18 12 10 14
ROOT
ATOM      1  C   UNL     1       6.093  -0.253   1.184  1.00  0.00    -0.048 A 
ATOM      2  C   UNL     1       6.556   1.051   1.372  1.00  0.00     0.006 A 
ATOM      3  C   UNL     1       7.921   1.326   1.385  1.00  0.00     0.026 A 
ATOM      4  C   UNL     1       8.873   0.308   1.289  1.00  0.00     0.038 A 
ATOM      5  C   UNL     1       8.410  -1.007   1.157  1.00  0.00     0.026 A 
ATOM      6  C   UNL     1       7.036  -1.285   1.106  1.00  0.00     0.006 A 
ENDROOT
BRANCH   1   7
ATOM      7  C   UNL     1       4.619  -0.549   1.068  1.00  0.00     0.037 C 
BRANCH   7   8
ATOM      8  C   UNL     1       4.004  -0.458  -0.343  1.00  0.00     0.020 C 
BRANCH   8   9
ATOM      9  C   UNL     1       4.467  -1.522  -1.349  1.00  0.00     0.078 C 
BRANCH   9  10
ATOM     10  N   UNL     1       3.781  -2.802  -1.250  1.00  0.00    -0.330 NA
ATOM     11  H   UNL     1       4.434  -3.526  -0.951  1.00  0.00     0.118 HD
ATOM     12  H   UNL     1       3.450  -3.096  -2.169  1.00  0.00     0.118 HD
ENDBRANCH   9  10
ENDBRANCH   8   9
ENDBRANCH   7   8
ENDBRANCH   1   7
BRANCH   4  13
ATOM     13  N   UNL     1      10.251   0.564   1.421  1.00  0.00    -0.362 N 
ATOM     14  H   UNL     1      10.742   0.852   0.583  1.00  0.00     0.166 HD
BRANCH  13  15
ATOM     15  C   UNL     1      11.013   0.212   2.504  1.00  0.00     0.083 C 
BRANCH  15  16
ATOM     16  C   UNL     1      11.110   0.809   3.699  1.00  0.00     0.027 C 
BRANCH  16  17
ATOM     17  C   UNL     1      11.892   0.209   4.790  1.00  0.00    -0.003 A 
ATOM     18  C   UNL     1      13.241   0.533   5.017  1.00  0.00    -0.041 A 
ATOM     19  C   UNL     1      11.325  -0.756   5.636  1.00  0.00     0.119 A 
ATOM     20  C   UNL     1      13.920  -0.106   6.066  1.00  0.00     0.024 A 
ATOM     21  N   UNL     1      11.959  -1.368   6.663  1.00  0.00    -0.264 NA
ATOM     22  C   UNL     1      13.245  -1.024   6.855  1.00  0.00     0.111 A 
ATOM     23  C   UNL     1      13.991   1.509   4.154  1.00  0.00     0.045 C 
ENDBRANCH  16  17
ENDBRANCH  15  16
ENDBRANCH  13  15
ENDBRANCH   4  13
TORSDOF 8
ENDMDL
MODEL 6
REMARK VINA RESULT:    -4.516      4.193      5.988
REMARK INTER + INTRA:          -7.086
REMARK INTER:                  -6.169
REMARK INTRA:                  -0.917
REMARK UNBOUND:                -0.590
REMARK SMILES Cc1ccncc1/C=C/Nc1ccc(CCCN)cc1
REMARK SMILES IDX 14 1 13 2 12 3 11 4 20 5 19 6 15 7 16 8 17 9 18 10 10 13
REMARK SMILES IDX 9 15 8 16 7 17 2 18 6 19 3 20 5 21 4 22 1 23
REMARK H PARENT 18 11 18 12 10 14
ROOT
ATOM      1  C   UNL     1      10.716   0.207   0.148  1.00  0.00    -0.048 A 
ATOM      2  C   UNL     1       9.411   0.331  -0.333  1.00  0.00     0.006 A 
ATOM      3  C   UNL     1       8.341   0.476   0.544  1.00  0.00     0.026 A 
ATOM      4  C   UNL     1       8.517   0.426   1.929  1.00  0.00     0.038 A 
ATOM      5  C   UNL     1       9.818   0.245   2.413  1.00  0.00     0.026 A 
ATOM      6  C   UNL     1      10.906   0.136   1.534  1.00  0.00     0.006 A 
ENDROOT
BRANCH   1   7
ATOM      7  C   UNL     1      11.893   0.150  -0.793  1.00  0.00     0.037 C 
BRANCH   7   8
ATOM      8  C   UNL     1      11.821   1.045  -2.045  1.00  0.00     0.020 C 
BRANCH   8   9
ATOM      9  C   UNL     1      13.166   1.549  -2.591  1.00  0.00     0.078 C 
BRANCH   9  10
ATOM     10  N   UNL     1      13.218   2.976  -2.875  1.00  0.00    -0.330 NA
ATOM     11  H   UNL     1      14.168   3.246  -3.129  1.00  0.00     0.118 HD
ATOM     12  H   UNL     1      12.998   3.510  -2.034  1.00  0.00     0.118 HD
ENDBRANCH   9  10
ENDBRANCH   8   9
ENDBRANCH   7   8
ENDBRANCH   1   7
BRANCH   4  13
ATOM     13  N   UNL     1       7.427   0.453   2.820  1.00  0.00    -0.362 N 
ATOM     14  H   UNL     1       7.623   0.214   3.784  1.00  0.00     0.166 HD
BRANCH  13  15
ATOM     15  C   UNL     1       6.112   0.520   2.445  1.00  0.00     0.083 C 
BRANCH  15  16
ATOM     16  C   UNL     1       5.218  -0.469   2.314  1.00  0.00     0.027 C 
BRANCH  16  17
ATOM     17  C   UNL     1       4.716  -0.872   0.992  1.00  0.00    -0.003 A 
ATOM     18  C   UNL     1       5.333  -1.877   0.226  1.00  0.00    -0.041 A 
ATOM     19  C   UNL     1       3.607  -0.234   0.417  1.00  0.00     0.119 A 
ATOM     20  C   UNL     1       4.803  -2.183  -1.037  1.00  0.00     0.024 A 
ATOM     21  N   UNL     1       3.072  -0.529  -0.791  1.00  0.00    -0.264 NA
ATOM     22  C   UNL     1       3.684  -1.502  -1.489  1.00  0.00     0.111 A 
ATOM     23  C   UNL     1       6.561  -2.607   0.694  1.00  0.00     0.045 C 
ENDBRANCH  16  17
ENDBRANCH  15  16
ENDBRANCH  13  15
ENDBRANCH   4  13
TORSDOF 8
ENDMDL
MODEL 7
REMARK VINA RESULT:    -4.380      1.699      8.590
REMARK INTER + INTRA:          -6.891
REMARK INTER:                  -6.262
REMARK INTRA:                  -0.630
REMARK UNBOUND:                -0.590
REMARK SMILES Cc1ccncc1/C=C/Nc1ccc(CCCN)cc1
REMARK SMILES IDX 14 1 13 2 12 3 11 4 20 5 19 6 15 7 16 8 17 9 18 10 10 13
REMARK SMILES IDX 9 15 8 16 7 17 2 18 6 19 3 20 5 21 4 22 1 23
REMARK H PARENT 18 11 18 12 10 14
ROOT
ATOM      1  C   UNL     1       7.063  -0.191   0.779  1.00  0.00    -0.048 A 
ATOM      2  C   UNL     1       7.453   1.052   1.281  1.00  0.00     0.006 A 
ATOM      3  C   UNL     1       8.711   1.225   1.851  1.00  0.00     0.026 A 
ATOM      4  C   UNL     1       9.595   0.155   2.012  1.00  0.00     0.038 A 
ATOM      5  C   UNL     1       9.183  -1.104   1.560  1.00  0.00     0.026 A 
ATOM      6  C   UNL     1       7.931  -1.277   0.950  1.00  0.00     0.006 A 
ENDROOT
BRANCH   1   7
ATOM      7  C   UNL     1       5.744  -0.367   0.069  1.00  0.00     0.037 C 
BRANCH   7   8
ATOM      8  C   UNL     1       5.302  -1.815  -0.222  1.00  0.00     0.020 C 
BRANCH   8   9
ATOM      9  C   UNL     1       4.343  -2.001  -1.407  1.00  0.00     0.078 C 
BRANCH   9  10
ATOM     10  N   UNL     1       3.300  -0.991  -1.519  1.00  0.00    -0.330 NA
ATOM     11  H   UNL     1       2.543  -1.336  -2.107  1.00  0.00     0.118 HD
ATOM     12  H   UNL     1       3.662  -0.164  -1.995  1.00  0.00     0.118 HD
ENDBRANCH   9  10
ENDBRANCH   8   9
ENDBRANCH   7   8
ENDBRANCH   1   7
BRANCH   4  13
ATOM     13  N   UNL     1      10.819   0.297   2.694  1.00  0.00    -0.362 N 
ATOM     14  H   UNL     1      11.660   0.138   2.154  1.00  0.00     0.166 HD
BRANCH  13  15
ATOM     15  C   UNL     1      10.952   0.375   4.055  1.00  0.00     0.083 C 
BRANCH  15  16
ATOM     16  C   UNL     1      11.090  -0.613   4.949  1.00  0.00     0.027 C 
BRANCH  16  17
ATOM     17  C   UNL     1      12.271  -0.691   5.822  1.00  0.00    -0.003 A 
ATOM     18  C   UNL     1      12.689  -1.893   6.419  1.00  0.00    -0.041 A 
ATOM     19  C   UNL     1      13.016   0.457   6.128  1.00  0.00     0.119 A 
ATOM     20  C   UNL     1      13.814  -1.874   7.258  1.00  0.00     0.024 A 
ATOM     21  N   UNL     1      14.113   0.491   6.921  1.00  0.00    -0.264 NA
ATOM     22  C   UNL     1      14.487  -0.681   7.465  1.00  0.00     0.111 A 
ATOM     23  C   UNL     1      11.953  -3.189   6.221  1.00  0.00     0.045 C 
ENDBRANCH  16  17
ENDBRANCH  15  16
ENDBRANCH  13  15
ENDBRANCH   4  13
TORSDOF 8
ENDMDL
MODEL 8
REMARK VINA RESULT:    -4.159      4.736      6.526
REMARK INTER + INTRA:          -6.572
REMARK INTER:                  -6.007
REMARK INTRA:                  -0.566
REMARK UNBOUND:                -0.590
REMARK SMILES Cc1ccncc1/C=C/Nc1ccc(CCCN)cc1
REMARK SMILES IDX 14 1 13 2 12 3 11 4 20 5 19 6 15 7 16 8 17 9 18 10 10 13
REMARK SMILES IDX 9 15 8 16 7 17 2 18 6 19 3 20 5 21 4 22 1 23
REMARK H PARENT 18 11 18 12 10 14
ROOT
ATOM      1  C   UNL     1      13.182   0.944  -1.926  1.00  0.00    -0.048 A 
ATOM      2  C   UNL     1      11.907   1.252  -2.406  1.00  0.00     0.006 A 
ATOM      3  C   UNL     1      10.770   0.830  -1.725  1.00  0.00     0.026 A 
ATOM      4  C   UNL     1      10.855   0.023  -0.587  1.00  0.00     0.038 A 
ATOM      5  C   UNL     1      12.131  -0.334  -0.136  1.00  0.00     0.026 A 
ATOM      6  C   UNL     1      13.282   0.121  -0.797  1.00  0.00     0.006 A 
ENDROOT
BRANCH   1   7
ATOM      7  C   UNL     1      14.420   1.480  -2.598  1.00  0.00     0.037 C 
BRANCH   7   8
ATOM      8  C   UNL     1      14.206   2.523  -3.713  1.00  0.00     0.020 C 
BRANCH   8   9
ATOM      9  C   UNL     1      14.489   3.984  -3.332  1.00  0.00     0.078 C 
BRANCH   9  10
ATOM     10  N   UNL     1      14.397   4.277  -1.909  1.00  0.00    -0.330 NA
ATOM     11  H   UNL     1      15.002   5.064  -1.675  1.00  0.00     0.118 HD
ATOM     12  H   UNL     1      14.750   3.490  -1.364  1.00  0.00     0.118 HD
ENDBRANCH   9  10
ENDBRANCH   8   9
ENDBRANCH   7   8
ENDBRANCH   1   7
BRANCH   4  13
ATOM     13  N   UNL     1       9.709  -0.505   0.038  1.00  0.00    -0.362 N 
ATOM     14  H   UNL     1       9.261  -1.288  -0.422  1.00  0.00     0.166 HD
BRANCH  13  15
ATOM     15  C   UNL     1       9.020   0.104   1.053  1.00  0.00     0.083 C 
BRANCH  15  16
ATOM     16  C   UNL     1       7.859  -0.251   1.619  1.00  0.00     0.027 C 
BRANCH  16  17
ATOM     17  C   UNL     1       6.672  -0.548   0.802  1.00  0.00    -0.003 A 
ATOM     18  C   UNL     1       5.797   0.456   0.351  1.00  0.00    -0.041 A 
ATOM     19  C   UNL     1       6.341  -1.870   0.468  1.00  0.00     0.119 A 
ATOM     20  C   UNL     1       4.675   0.082  -0.403  1.00  0.00     0.024 A 
ATOM     21  N   UNL     1       5.272  -2.246  -0.273  1.00  0.00    -0.264 NA
ATOM     22  C   UNL     1       4.465  -1.256  -0.694  1.00  0.00     0.111 A 
ATOM     23  C   UNL     1       6.001   1.908   0.680  1.00  0.00     0.045 C 
ENDBRANCH  16  17
ENDBRANCH  15  16
ENDBRANCH  13  15
ENDBRANCH   4  13
TORSDOF 8
ENDMDL
MODEL 9
REMARK VINA RESULT:    -4.134      1.929      2.987
REMARK INTER + INTRA:          -6.536
REMARK INTER:                  -5.894
REMARK INTRA:                  -0.642
REMARK UNBOUND:                -0.590
REMARK SMILES Cc1ccncc1/C=C/Nc1ccc(CCCN)cc1
REMARK SMILES IDX 14 1 13 2 12 3 11 4 20 5 19 6 15 7 16 8 17 9 18 10 10 13
REMARK SMILES IDX 9 15 8 16 7 17 2 18 6 19 3 20 5 21 4 22 1 23
REMARK H PARENT 18 11 18 12 10 14
ROOT
ATOM      1  C   UNL     1      11.504   0.250   4.417  1.00  0.00    -0.048 A 
ATOM      2  C   UNL     1      10.158   0.144   4.771  1.00  0.00     0.006 A 
ATOM      3  C   UNL     1       9.166   0.128   3.795  1.00  0.00     0.026 A 
ATOM      4  C   UNL     1       9.468   0.295   2.441  1.00  0.00     0.038 A 
ATOM      5  C   UNL     1      10.814   0.459   2.090  1.00  0.00     0.026 A 
ATOM      6  C   UNL     1      11.821   0.437   3.066  1.00  0.00     0.006 A 
ENDROOT
BRANCH   1   7
ATOM      7  C   UNL     1      12.594   0.167   5.457  1.00  0.00     0.037 C 
BRANCH   7   8
ATOM      8  C   UNL     1      12.514  -1.009   6.450  1.00  0.00     0.020 C 
BRANCH   8   9
ATOM      9  C   UNL     1      13.710  -1.171   7.400  1.00  0.00     0.078 C 
BRANCH   9  10
ATOM     10  N   UNL     1      13.502  -0.652   8.744  1.00  0.00    -0.330 NA
ATOM     11  H   UNL     1      12.525  -0.390   8.870  1.00  0.00     0.118 HD
ATOM     12  H   UNL     1      14.035   0.209   8.875  1.00  0.00     0.118 HD
ENDBRANCH   9  10
ENDBRANCH   8   9
ENDBRANCH   7   8
ENDBRANCH   1   7
BRANCH   4  13
ATOM     13  N   UNL     1       8.463   0.399   1.461  1.00  0.00    -0.362 N 
ATOM     14  H   UNL     1       7.992   1.292   1.387  1.00  0.00     0.166 HD
BRANCH  13  15
ATOM     15  C   UNL     1       7.907  -0.661   0.794  1.00  0.00     0.083 C 
BRANCH  15  16
ATOM     16  C   UNL     1       6.802  -1.359   1.088  1.00  0.00     0.027 C 
BRANCH  16  17
ATOM     17  C   UNL     1       5.509  -0.688   1.294  1.00  0.00    -0.003 A 
ATOM     18  C   UNL     1       4.485  -0.713   0.331  1.00  0.00    -0.041 A 
ATOM     19  C   UNL     1       5.258   0.047   2.462  1.00  0.00     0.119 A 
ATOM     20  C   UNL     1       3.291  -0.026   0.599  1.00  0.00     0.024 A 
ATOM     21  N   UNL     1       4.107   0.700   2.744  1.00  0.00    -0.264 NA
ATOM     22  C   UNL     1       3.148   0.645   1.804  1.00  0.00     0.111 A 
ATOM     23  C   UNL     1       4.637  -1.417  -0.988  1.00  0.00     0.045 C 
ENDBRANCH  16  17
ENDBRANCH  15  16
ENDBRANCH  13  15
ENDBRANCH   4  13
TORSDOF 8
ENDMDL
