MODEL 1
REMARK VINA RESULT:    -5.010      0.000      0.000
REMARK INTER + INTRA:          -7.880
REMARK INTER:                  -7.206
REMARK INTRA:                  -0.674
REMARK UNBOUND:                -0.674
REMARK SMILES Cc1ccncc1/C=C/Nc1ccc(CCCN)cc1
REMARK SMILES IDX 14 1 13 2 12 3 11 4 20 5 19 6 15 7 16 8 17 9 18 10 10 13
REMARK SMILES IDX 9 15 8 16 7 17 2 18 6 19 3 20 5 21 4 22 1 23
REMARK H PARENT 18 11 18 12 10 14
ROOT
ATOM      1  C   UNL     1       2.195  12.312  -8.987  1.00  0.00    -0.048 A 
ATOM      2  C   UNL     1       1.946  11.766 -10.248  1.00  0.00     0.006 A 
ATOM      3  C   UNL     1       1.613  10.422 -10.387  1.00  0.00     0.026 A 
ATOM      4  C   UNL     1       1.592   9.556  -9.291  1.00  0.00     0.038 A 
ATOM      5  C   UNL     1       1.898  10.090  -8.033  1.00  0.00     0.026 A 
ATOM      6  C   UNL     1       2.197  11.452  -7.882  1.00  0.00     0.006 A 
ENDROOT
BRANCH   1   7
ATOM      7  C   UNL     1       2.457  13.787  -8.813  1.00  0.00     0.037 C 
BRANCH   7   8
ATOM      8  C   UNL     1       3.763  14.178  -8.094  1.00  0.00     0.020 C 
BRANCH   8   9
ATOM      9  C   UNL     1       4.898  14.692  -8.991  1.00  0.00     0.078 C 
BRANCH   9  10
ATOM     10  N   UNL     1       5.674  13.656  -9.657  1.00  0.00    -0.330 NA
ATOM     11  H   UNL     1       5.968  13.978 -10.578  1.00  0.00     0.118 HD
ATOM     12  H   UNL     1       5.091  12.836  -9.828  1.00  0.00     0.118 HD
ENDBRANCH   9  10
ENDBRANCH   8   9
ENDBRANCH   7   8
ENDBRANCH   1   7
BRANCH   4  13
ATOM     13  N   UNL     1       1.374   8.173  -9.439  1.00  0.00    -0.362 N 
ATOM     14  H   UNL     1       0.458   7.890  -9.764  1.00  0.00     0.166 HD
BRANCH  13  15
ATOM     15  C   UNL     1       2.194   7.194  -8.945  1.00  0.00     0.083 C 
BRANCH  15  16
ATOM     16  C   UNL     1       1.933   5.896  -8.738  1.00  0.00     0.027 C 
BRANCH  16  17
ATOM     17  C   UNL     1       2.446   5.196  -7.551  1.00  0.00    -0.003 A 
ATOM     18  C   UNL     1       1.721   4.180  -6.903  1.00  0.00    -0.041 A 
ATOM     19  C   UNL     1       3.682   5.545  -6.986  1.00  0.00     0.119 A 
ATOM     20  C   UNL     1       2.274   3.580  -5.761  1.00  0.00     0.024 A 
ATOM     21  N   UNL     1       4.238   4.965  -5.897  1.00  0.00    -0.264 NA
ATOM     22  C   UNL     1       3.519   3.991  -5.312  1.00  0.00     0.111 A 
ATOM     23  C   UNL     1       0.360   3.741  -7.367  1.00  0.00     0.045 C 
ENDBRANCH  16  17
ENDBRANCH  15  16
ENDBRANCH  13  15
ENDBRANCH   4  13
TORSDOF 8
ENDMDL
MODEL 2
REMARK VINA RESULT:    -4.877      1.223      2.043
REMARK INTER + INTRA:          -7.689
REMARK INTER:                  -7.012
REMARK INTRA:                  -0.677
REMARK UNBOUND:                -0.674
REMARK SMILES Cc1ccncc1/C=C/Nc1ccc(CCCN)cc1
REMARK SMILES IDX 14 1 13 2 12 3 11 4 20 5 19 6 15 7 16 8 17 9 18 10 10 13
REMARK SMILES IDX 9 15 8 16 7 17 2 18 6 19 3 20 5 21 4 22 1 23
REMARK H PARENT 18 11 18 12 10 14
ROOT
ATOM      1  C   UNL     1       2.124  11.945  -9.032  1.00  0.00    -0.048 A 
ATOM      2  C   UNL     1       2.123  11.199  -7.852  1.00  0.00     0.006 A 
ATOM      3  C   UNL     1       1.994   9.813  -7.888  1.00  0.00     0.026 A 
ATOM      4  C   UNL     1       1.785   9.128  -9.087  1.00  0.00     0.038 A 
ATOM      5  C   UNL     1       1.729   9.881 -10.266  1.00  0.00     0.026 A 
ATOM      6  C   UNL     1       1.896  11.274 -10.240  1.00  0.00     0.006 A 
ENDROOT
BRANCH   1   7
ATOM      7  C   UNL     1       2.363  13.434  -9.014  1.00  0.00     0.037 C 
BRANCH   7   8
ATOM      8  C   UNL     1       3.561  13.932  -8.181  1.00  0.00     0.020 C 
BRANCH   8   9
ATOM      9  C   UNL     1       4.711  14.572  -8.972  1.00  0.00     0.078 C 
BRANCH   9  10
ATOM     10  N   UNL     1       5.659  13.630  -9.551  1.00  0.00    -0.330 NA
ATOM     11  H   UNL     1       5.324  12.676  -9.424  1.00  0.00     0.118 HD
ATOM     12  H   UNL     1       6.548  13.676  -9.053  1.00  0.00     0.118 HD
ENDBRANCH   9  10
ENDBRANCH   8   9
ENDBRANCH   7   8
ENDBRANCH   1   7
BRANCH   4  13
ATOM     13  N   UNL     1       1.535   7.743  -9.119  1.00  0.00    -0.362 N 
ATOM     14  H   UNL     1       0.599   7.444  -8.876  1.00  0.00     0.166 HD
BRANCH  13  15
ATOM     15  C   UNL     1       2.502   6.775  -9.199  1.00  0.00     0.083 C 
BRANCH  15  16
ATOM     16  C   UNL     1       3.075   6.070  -8.215  1.00  0.00     0.027 C 
BRANCH  16  17
ATOM     17  C   UNL     1       2.283   5.179  -7.354  1.00  0.00    -0.003 A 
ATOM     18  C   UNL     1       2.762   4.697  -6.123  1.00  0.00    -0.041 A 
ATOM     19  C   UNL     1       1.012   4.737  -7.753  1.00  0.00     0.119 A 
ATOM     20  C   UNL     1       1.949   3.830  -5.376  1.00  0.00     0.024 A 
ATOM     21  N   UNL     1       0.208   3.916  -7.037  1.00  0.00    -0.264 NA
ATOM     22  C   UNL     1       0.697   3.484  -5.861  1.00  0.00     0.111 A 
ATOM     23  C   UNL     1       4.126   5.045  -5.599  1.00  0.00     0.045 C 
ENDBRANCH  16  17
ENDBRANCH  15  16
ENDBRANCH  13  15
ENDBRANCH   4  13
TORSDOF 8
ENDMDL
MODEL 3
REMARK VINA RESULT:    -4.837      4.826      6.774
REMARK INTER + INTRA:          -7.632
REMARK INTER:                  -7.013
REMARK INTRA:                  -0.619
REMARK UNBOUND:                -0.674
REMARK SMILES Cc1ccncc1/C=C/Nc1ccc(CCCN)cc1
REMARK SMILES IDX 14 1 13 2 12 3 11 4 20 5 19 6 15 7 16 8 17 9 18 10 10 13
REMARK SMILES IDX 9 15 8 16 7 17 2 18 6 19 3 20 5 21 4 22 1 23
REMARK H PARENT 18 11 18 12 10 14
ROOT
ATOM      1  C   UNL     1       4.867   5.546 -14.379  1.00  0.00    -0.048 A 
ATOM      2  C   UNL     1       5.343   6.714 -13.779  1.00  0.00     0.006 A 
ATOM      3  C   UNL     1       5.346   6.851 -12.394  1.00  0.00     0.026 A 
ATOM      4  C   UNL     1       4.807   5.868 -11.560  1.00  0.00     0.038 A 
ATOM      5  C   UNL     1       4.278   4.721 -12.163  1.00  0.00     0.026 A 
ATOM      6  C   UNL     1       4.307   4.561 -13.557  1.00  0.00     0.006 A 
ENDROOT
BRANCH   1   7
ATOM      7  C   UNL     1       4.951   5.345 -15.871  1.00  0.00     0.037 C 
BRANCH   7   8
ATOM      8  C   UNL     1       3.631   5.449 -16.659  1.00  0.00     0.020 C 
BRANCH   8   9
ATOM      9  C   UNL     1       3.303   6.830 -17.245  1.00  0.00     0.078 C 
BRANCH   9  10
ATOM     10  N   UNL     1       2.029   7.391 -16.819  1.00  0.00    -0.330 NA
ATOM     11  H   UNL     1       1.413   7.509 -17.623  1.00  0.00     0.118 HD
ATOM     12  H   UNL     1       2.166   8.329 -16.442  1.00  0.00     0.118 HD
ENDBRANCH   9  10
ENDBRANCH   8   9
ENDBRANCH   7   8
ENDBRANCH   1   7
BRANCH   4  13
ATOM     13  N   UNL     1       4.699   6.051 -10.168  1.00  0.00    -0.362 N 
ATOM     14  H   UNL     1       5.560   6.017  -9.637  1.00  0.00     0.166 HD
BRANCH  13  15
ATOM     15  C   UNL     1       3.525   6.011  -9.463  1.00  0.00     0.083 C 
BRANCH  15  16
ATOM     16  C   UNL     1       3.325   6.151  -8.146  1.00  0.00     0.027 C 
BRANCH  16  17
ATOM     17  C   UNL     1       2.463   5.219  -7.402  1.00  0.00    -0.003 A 
ATOM     18  C   UNL     1       2.849   4.652  -6.175  1.00  0.00    -0.041 A 
ATOM     19  C   UNL     1       1.219   4.824  -7.916  1.00  0.00     0.119 A 
ATOM     20  C   UNL     1       1.976   3.753  -5.544  1.00  0.00     0.024 A 
ATOM     21  N   UNL     1       0.357   3.973  -7.313  1.00  0.00    -0.264 NA
ATOM     22  C   UNL     1       0.757   3.459  -6.136  1.00  0.00     0.111 A 
ATOM     23  C   UNL     1       4.177   4.944  -5.535  1.00  0.00     0.045 C 
ENDBRANCH  16  17
ENDBRANCH  15  16
ENDBRANCH  13  15
ENDBRANCH   4  13
TORSDOF 8
ENDMDL
MODEL 4
REMARK VINA RESULT:    -4.797      4.633      8.428
REMARK INTER + INTRA:          -7.575
REMARK INTER:                  -7.015
REMARK INTRA:                  -0.560
REMARK UNBOUND:                -0.674
REMARK SMILES Cc1ccncc1/C=C/Nc1ccc(CCCN)cc1
REMARK SMILES IDX 14 1 13 2 12 3 11 4 20 5 19 6 15 7 16 8 17 9 18 10 10 13
REMARK SMILES IDX 9 15 8 16 7 17 2 18 6 19 3 20 5 21 4 22 1 23
REMARK H PARENT 18 11 18 12 10 14
ROOT
ATOM      1  C   UNL     1       1.807   5.104  -6.955  1.00  0.00    -0.048 A 
ATOM      2  C   UNL     1       3.169   5.410  -6.996  1.00  0.00     0.006 A 
ATOM      3  C   UNL     1       3.736   5.981  -8.132  1.00  0.00     0.026 A 
ATOM      4  C   UNL     1       2.989   6.197  -9.292  1.00  0.00     0.038 A 
ATOM      5  C   UNL     1       1.636   5.839  -9.273  1.00  0.00     0.026 A 
ATOM      6  C   UNL     1       1.051   5.298  -8.117  1.00  0.00     0.006 A 
ENDROOT
BRANCH   1   7
ATOM      7  C   UNL     1       1.162   4.580  -5.697  1.00  0.00     0.037 C 
BRANCH   7   8
ATOM      8  C   UNL     1      -0.105   3.722  -5.875  1.00  0.00     0.020 C 
BRANCH   8   9
ATOM      9  C   UNL     1      -1.137   3.801  -4.740  1.00  0.00     0.078 C 
BRANCH   9  10
ATOM     10  N   UNL     1      -0.617   3.497  -3.415  1.00  0.00    -0.330 NA
ATOM     11  H   UNL     1      -1.266   3.828  -2.702  1.00  0.00     0.118 HD
ATOM     12  H   UNL     1       0.251   4.008  -3.252  1.00  0.00     0.118 HD
ENDBRANCH   9  10
ENDBRANCH   8   9
ENDBRANCH   7   8
ENDBRANCH   1   7
BRANCH   4  13
ATOM     13  N   UNL     1       3.581   6.663 -10.482  1.00  0.00    -0.362 N 
ATOM     14  H   UNL     1       3.053   7.342 -11.016  1.00  0.00     0.166 HD
BRANCH  13  15
ATOM     15  C   UNL     1       4.666   6.092 -11.092  1.00  0.00     0.083 C 
BRANCH  15  16
ATOM     16  C   UNL     1       4.800   5.667 -12.356  1.00  0.00     0.027 C 
BRANCH  16  17
ATOM     17  C   UNL     1       5.151   6.597 -13.439  1.00  0.00    -0.003 A 
ATOM     18  C   UNL     1       5.261   6.186 -14.780  1.00  0.00    -0.041 A 
ATOM     19  C   UNL     1       5.430   7.945 -13.168  1.00  0.00     0.119 A 
ATOM     20  C   UNL     1       5.624   7.135 -15.747  1.00  0.00     0.024 A 
ATOM     21  N   UNL     1       5.764   8.877 -14.092  1.00  0.00    -0.264 NA
ATOM     22  C   UNL     1       5.850   8.447 -15.363  1.00  0.00     0.111 A 
ATOM     23  C   UNL     1       5.042   4.762 -15.205  1.00  0.00     0.045 C 
ENDBRANCH  16  17
ENDBRANCH  15  16
ENDBRANCH  13  15
ENDBRANCH   4  13
TORSDOF 8
ENDMDL
MODEL 5
REMARK VINA RESULT:    -4.780      4.512      6.593
REMARK INTER + INTRA:          -7.550
REMARK INTER:                  -6.845
REMARK INTRA:                  -0.704
REMARK UNBOUND:                -0.674
REMARK SMILES Cc1ccncc1/C=C/Nc1ccc(CCCN)cc1
REMARK SMILES IDX 14 1 13 2 12 3 11 4 20 5 19 6 15 7 16 8 17 9 18 10 10 13
REMARK SMILES IDX 9 15 8 16 7 17 2 18 6 19 3 20 5 21 4 22 1 23
REMARK H PARENT 18 11 18 12 10 14
ROOT
ATOM      1  C   UNL     1       4.934   5.747 -14.109  1.00  0.00    -0.048 A 
ATOM      2  C   UNL     1       4.399   4.659 -13.415  1.00  0.00     0.006 A 
ATOM      3  C   UNL     1       4.145   4.742 -12.050  1.00  0.00     0.026 A 
ATOM      4  C   UNL     1       4.484   5.878 -11.310  1.00  0.00     0.038 A 
ATOM      5  C   UNL     1       5.073   6.949 -11.994  1.00  0.00     0.026 A 
ATOM      6  C   UNL     1       5.296   6.884 -13.378  1.00  0.00     0.006 A 
ENDROOT
BRANCH   1   7
ATOM      7  C   UNL     1       5.119   5.704 -15.605  1.00  0.00     0.037 C 
BRANCH   7   8
ATOM      8  C   UNL     1       4.184   4.765 -16.391  1.00  0.00     0.020 C 
BRANCH   8   9
ATOM      9  C   UNL     1       3.106   5.448 -17.245  1.00  0.00     0.078 C 
BRANCH   9  10
ATOM     10  N   UNL     1       2.260   6.393 -16.528  1.00  0.00    -0.330 NA
ATOM     11  H   UNL     1       2.121   7.232 -17.089  1.00  0.00     0.118 HD
ATOM     12  H   UNL     1       2.728   6.707 -15.678  1.00  0.00     0.118 HD
ENDBRANCH   9  10
ENDBRANCH   8   9
ENDBRANCH   7   8
ENDBRANCH   1   7
BRANCH   4  13
ATOM     13  N   UNL     1       4.340   5.925  -9.910  1.00  0.00    -0.362 N 
ATOM     14  H   UNL     1       4.949   5.322  -9.371  1.00  0.00     0.166 HD
BRANCH  13  15
ATOM     15  C   UNL     1       3.293   6.512  -9.250  1.00  0.00     0.083 C 
BRANCH  15  16
ATOM     16  C   UNL     1       2.287   5.937  -8.579  1.00  0.00     0.027 C 
BRANCH  16  17
ATOM     17  C   UNL     1       2.545   5.046  -7.437  1.00  0.00    -0.003 A 
ATOM     18  C   UNL     1       1.635   4.052  -7.036  1.00  0.00    -0.041 A 
ATOM     19  C   UNL     1       3.710   5.181  -6.667  1.00  0.00     0.119 A 
ATOM     20  C   UNL     1       1.949   3.261  -5.920  1.00  0.00     0.024 A 
ATOM     21  N   UNL     1       4.037   4.416  -5.600  1.00  0.00    -0.264 NA
ATOM     22  C   UNL     1       3.146   3.470  -5.253  1.00  0.00     0.111 A 
ATOM     23  C   UNL     1       0.323   3.832  -7.735  1.00  0.00     0.045 C 
ENDBRANCH  16  17
ENDBRANCH  15  16
ENDBRANCH  13  15
ENDBRANCH   4  13
TORSDOF 8
ENDMDL
MODEL 6
REMARK VINA RESULT:    -4.762      1.946      8.618
REMARK INTER + INTRA:          -7.523
REMARK INTER:                  -6.943
REMARK INTRA:                  -0.580
REMARK UNBOUND:                -0.674
REMARK SMILES Cc1ccncc1/C=C/Nc1ccc(CCCN)cc1
REMARK SMILES IDX 14 1 13 2 12 3 11 4 20 5 19 6 15 7 16 8 17 9 18 10 10 13
REMARK SMILES IDX 9 15 8 16 7 17 2 18 6 19 3 20 5 21 4 22 1 23
REMARK H PARENT 18 11 18 12 10 14
ROOT
ATOM      1  C   UNL     1       2.646   4.406  -7.247  1.00  0.00    -0.048 A 
ATOM      2  C   UNL     1       1.548   4.836  -7.994  1.00  0.00     0.006 A 
ATOM      3  C   UNL     1       1.605   6.021  -8.723  1.00  0.00     0.026 A 
ATOM      4  C   UNL     1       2.722   6.858  -8.674  1.00  0.00     0.038 A 
ATOM      5  C   UNL     1       3.802   6.456  -7.879  1.00  0.00     0.026 A 
ATOM      6  C   UNL     1       3.765   5.244  -7.173  1.00  0.00     0.006 A 
ENDROOT
BRANCH   1   7
ATOM      7  C   UNL     1       2.633   3.076  -6.535  1.00  0.00     0.037 C 
BRANCH   7   8
ATOM      8  C   UNL     1       3.340   3.017  -5.167  1.00  0.00     0.020 C 
BRANCH   8   9
ATOM      9  C   UNL     1       4.397   1.915  -5.002  1.00  0.00     0.078 C 
BRANCH   9  10
ATOM     10  N   UNL     1       3.869   0.604  -4.652  1.00  0.00    -0.330 NA
ATOM     11  H   UNL     1       3.068   0.381  -5.242  1.00  0.00     0.118 HD
ATOM     12  H   UNL     1       3.511   0.613  -3.697  1.00  0.00     0.118 HD
ENDBRANCH   9  10
ENDBRANCH   8   9
ENDBRANCH   7   8
ENDBRANCH   1   7
BRANCH   4  13
ATOM     13  N   UNL     1       2.741   8.113  -9.312  1.00  0.00    -0.362 N 
ATOM     14  H   UNL     1       3.650   8.481  -9.563  1.00  0.00     0.166 HD
BRANCH  13  15
ATOM     15  C   UNL     1       1.674   8.970  -9.384  1.00  0.00     0.083 C 
BRANCH  15  16
ATOM     16  C   UNL     1       1.631  10.287  -9.145  1.00  0.00     0.027 C 
BRANCH  16  17
ATOM     17  C   UNL     1       1.945  11.264 -10.198  1.00  0.00    -0.003 A 
ATOM     18  C   UNL     1       2.191  12.620  -9.920  1.00  0.00    -0.041 A 
ATOM     19  C   UNL     1       1.973  10.882 -11.548  1.00  0.00     0.119 A 
ATOM     20  C   UNL     1       2.460  13.489 -10.989  1.00  0.00     0.024 A 
ATOM     21  N   UNL     1       2.248  11.703 -12.589  1.00  0.00    -0.264 NA
ATOM     22  C   UNL     1       2.488  12.990 -12.281  1.00  0.00     0.111 A 
ATOM     23  C   UNL     1       2.140  13.178  -8.526  1.00  0.00     0.045 C 
ENDBRANCH  16  17
ENDBRANCH  15  16
ENDBRANCH  13  15
ENDBRANCH   4  13
TORSDOF 8
ENDMDL
MODEL 7
REMARK VINA RESULT:    -4.653      2.035      8.442
REMARK INTER + INTRA:          -7.367
REMARK INTER:                  -6.779
REMARK INTRA:                  -0.588
REMARK UNBOUND:                -0.674
REMARK SMILES Cc1ccncc1/C=C/Nc1ccc(CCCN)cc1
REMARK SMILES IDX 14 1 13 2 12 3 11 4 20 5 19 6 15 7 16 8 17 9 18 10 10 13
REMARK SMILES IDX 9 15 8 16 7 17 2 18 6 19 3 20 5 21 4 22 1 23
REMARK H PARENT 18 11 18 12 10 14
ROOT
ATOM      1  C   UNL     1       1.736   3.932  -6.949  1.00  0.00    -0.048 A 
ATOM      2  C   UNL     1       0.879   4.443  -7.926  1.00  0.00     0.006 A 
ATOM      3  C   UNL     1       1.253   5.541  -8.695  1.00  0.00     0.026 A 
ATOM      4  C   UNL     1       2.455   6.217  -8.470  1.00  0.00     0.038 A 
ATOM      5  C   UNL     1       3.290   5.740  -7.452  1.00  0.00     0.026 A 
ATOM      6  C   UNL     1       2.935   4.610  -6.700  1.00  0.00     0.006 A 
ENDROOT
BRANCH   1   7
ATOM      7  C   UNL     1       1.385   2.683  -6.180  1.00  0.00     0.037 C 
BRANCH   7   8
ATOM      8  C   UNL     1       0.937   2.874  -4.718  1.00  0.00     0.020 C 
BRANCH   8   9
ATOM      9  C   UNL     1      -0.316   3.736  -4.505  1.00  0.00     0.078 C 
BRANCH   9  10
ATOM     10  N   UNL     1      -1.569   3.107  -4.897  1.00  0.00    -0.330 NA
ATOM     11  H   UNL     1      -1.505   2.097  -4.778  1.00  0.00     0.118 HD
ATOM     12  H   UNL     1      -1.740   3.255  -5.892  1.00  0.00     0.118 HD
ENDBRANCH   9  10
ENDBRANCH   8   9
ENDBRANCH   7   8
ENDBRANCH   1   7
BRANCH   4  13
ATOM     13  N   UNL     1       2.786   7.398  -9.162  1.00  0.00    -0.362 N 
ATOM     14  H   UNL     1       3.629   7.375  -9.722  1.00  0.00     0.166 HD
BRANCH  13  15
ATOM     15  C   UNL     1       2.215   8.623  -8.937  1.00  0.00     0.083 C 
BRANCH  15  16
ATOM     16  C   UNL     1       1.714   9.497  -9.819  1.00  0.00     0.027 C 
BRANCH  16  17
ATOM     17  C   UNL     1       1.910  10.945  -9.652  1.00  0.00    -0.003 A 
ATOM     18  C   UNL     1       2.058  11.817 -10.745  1.00  0.00    -0.041 A 
ATOM     19  C   UNL     1       1.997  11.517  -8.374  1.00  0.00     0.119 A 
ATOM     20  C   UNL     1       2.265  13.182 -10.495  1.00  0.00     0.024 A 
ATOM     21  N   UNL     1       2.179  12.833  -8.115  1.00  0.00    -0.264 NA
ATOM     22  C   UNL     1       2.306  13.636  -9.187  1.00  0.00     0.111 A 
ATOM     23  C   UNL     1       2.039  11.334 -12.168  1.00  0.00     0.045 C 
ENDBRANCH  16  17
ENDBRANCH  15  16
ENDBRANCH  13  15
ENDBRANCH   4  13
TORSDOF 8
ENDMDL
MODEL 8
REMARK VINA RESULT:    -4.609      2.118      8.551
REMARK INTER + INTRA:          -7.304
REMARK INTER:                  -6.734
REMARK INTRA:                  -0.571
REMARK UNBOUND:                -0.674
REMARK SMILES Cc1ccncc1/C=C/Nc1ccc(CCCN)cc1
REMARK SMILES IDX 14 1 13 2 12 3 11 4 20 5 19 6 15 7 16 8 17 9 18 10 10 13
REMARK SMILES IDX 9 15 8 16 7 17 2 18 6 19 3 20 5 21 4 22 1 23
REMARK H PARENT 18 11 18 12 10 14
ROOT
ATOM      1  C   UNL     1       1.720   4.208  -7.251  1.00  0.00    -0.048 A 
ATOM      2  C   UNL     1       0.838   4.695  -8.217  1.00  0.00     0.006 A 
ATOM      3  C   UNL     1       1.125   5.863  -8.917  1.00  0.00     0.026 A 
ATOM      4  C   UNL     1       2.256   6.630  -8.629  1.00  0.00     0.038 A 
ATOM      5  C   UNL     1       3.113   6.173  -7.620  1.00  0.00     0.026 A 
ATOM      6  C   UNL     1       2.848   4.976  -6.938  1.00  0.00     0.006 A 
ENDROOT
BRANCH   1   7
ATOM      7  C   UNL     1       1.470   2.892  -6.558  1.00  0.00     0.037 C 
BRANCH   7   8
ATOM      8  C   UNL     1       0.975   2.960  -5.100  1.00  0.00     0.020 C 
BRANCH   8   9
ATOM      9  C   UNL     1      -0.266   3.830  -4.850  1.00  0.00     0.078 C 
BRANCH   9  10
ATOM     10  N   UNL     1      -1.535   3.118  -4.894  1.00  0.00    -0.330 NA
ATOM     11  H   UNL     1      -2.308   3.777  -4.807  1.00  0.00     0.118 HD
ATOM     12  H   UNL     1      -1.616   2.494  -4.091  1.00  0.00     0.118 HD
ENDBRANCH   9  10
ENDBRANCH   8   9
ENDBRANCH   7   8
ENDBRANCH   1   7
BRANCH   4  13
ATOM     13  N   UNL     1       2.492   7.872  -9.249  1.00  0.00    -0.362 N 
ATOM     14  H   UNL     1       3.451   8.084  -9.492  1.00  0.00     0.166 HD
BRANCH  13  15
ATOM     15  C   UNL     1       1.587   8.899  -9.311  1.00  0.00     0.083 C 
BRANCH  15  16
ATOM     16  C   UNL     1       1.758  10.195  -9.019  1.00  0.00     0.027 C 
BRANCH  16  17
ATOM     17  C   UNL     1       2.001  11.189 -10.076  1.00  0.00    -0.003 A 
ATOM     18  C   UNL     1       2.189  12.554  -9.798  1.00  0.00    -0.041 A 
ATOM     19  C   UNL     1       2.018  10.812 -11.427  1.00  0.00     0.119 A 
ATOM     20  C   UNL     1       2.391  13.438 -10.869  1.00  0.00     0.024 A 
ATOM     21  N   UNL     1       2.229  11.648 -12.471  1.00  0.00    -0.264 NA
ATOM     22  C   UNL     1       2.414  12.944 -12.164  1.00  0.00     0.111 A 
ATOM     23  C   UNL     1       2.142  13.105  -8.401  1.00  0.00     0.045 C 
ENDBRANCH  16  17
ENDBRANCH  15  16
ENDBRANCH  13  15
ENDBRANCH   4  13
TORSDOF 8
ENDMDL
MODEL 9
REMARK VINA RESULT:    -4.554      4.652      8.430
REMARK INTER + INTRA:          -7.225
REMARK INTER:                  -6.798
REMARK INTRA:                  -0.427
REMARK UNBOUND:                -0.674
REMARK SMILES Cc1ccncc1/C=C/Nc1ccc(CCCN)cc1
REMARK SMILES IDX 14 1 13 2 12 3 11 4 20 5 19 6 15 7 16 8 17 9 18 10 10 13
REMARK SMILES IDX 9 15 8 16 7 17 2 18 6 19 3 20 5 21 4 22 1 23
REMARK H PARENT 18 11 18 12 10 14
ROOT
ATOM      1  C   UNL     1       2.577   4.788  -6.147  1.00  0.00    -0.048 A 
ATOM      2  C   UNL     1       1.613   4.862  -7.154  1.00  0.00     0.006 A 
ATOM      3  C   UNL     1       1.915   5.433  -8.387  1.00  0.00     0.026 A 
ATOM      4  C   UNL     1       3.158   6.020  -8.637  1.00  0.00     0.038 A 
ATOM      5  C   UNL     1       4.107   5.998  -7.608  1.00  0.00     0.026 A 
ATOM      6  C   UNL     1       3.821   5.389  -6.377  1.00  0.00     0.006 A 
ENDROOT
BRANCH   1   7
ATOM      7  C   UNL     1       2.294   4.083  -4.845  1.00  0.00     0.037 C 
BRANCH   7   8
ATOM      8  C   UNL     1       2.547   2.563  -4.812  1.00  0.00     0.020 C 
BRANCH   8   9
ATOM      9  C   UNL     1       3.941   2.102  -5.262  1.00  0.00     0.078 C 
BRANCH   9  10
ATOM     10  N   UNL     1       4.881   1.840  -4.182  1.00  0.00    -0.330 NA
ATOM     11  H   UNL     1       5.675   1.306  -4.533  1.00  0.00     0.118 HD
ATOM     12  H   UNL     1       4.446   1.248  -3.474  1.00  0.00     0.118 HD
ENDBRANCH   9  10
ENDBRANCH   8   9
ENDBRANCH   7   8
ENDBRANCH   1   7
BRANCH   4  13
ATOM     13  N   UNL     1       3.430   6.704  -9.837  1.00  0.00    -0.362 N 
ATOM     14  H   UNL     1       3.147   7.675  -9.881  1.00  0.00     0.166 HD
BRANCH  13  15
ATOM     15  C   UNL     1       3.802   6.105 -11.012  1.00  0.00     0.083 C 
BRANCH  15  16
ATOM     16  C   UNL     1       4.967   6.180 -11.668  1.00  0.00     0.027 C 
BRANCH  16  17
ATOM     17  C   UNL     1       5.031   6.019 -13.128  1.00  0.00    -0.003 A 
ATOM     18  C   UNL     1       5.353   7.081 -13.991  1.00  0.00    -0.041 A 
ATOM     19  C   UNL     1       4.732   4.787 -13.730  1.00  0.00     0.119 A 
ATOM     20  C   UNL     1       5.369   6.846 -15.374  1.00  0.00     0.024 A 
ATOM     21  N   UNL     1       4.759   4.538 -15.060  1.00  0.00    -0.264 NA
ATOM     22  C   UNL     1       5.081   5.577 -15.852  1.00  0.00     0.111 A 
ATOM     23  C   UNL     1       5.644   8.467 -13.487  1.00  0.00     0.045 C 
ENDBRANCH  16  17
ENDBRANCH  15  16
ENDBRANCH  13  15
ENDBRANCH   4  13
TORSDOF 8
ENDMDL
