MODEL 1
REMARK VINA RESULT:    -5.190      0.000      0.000
REMARK INTER + INTRA:          -8.077
REMARK INTER:                  -7.465
REMARK INTRA:                  -0.612
REMARK UNBOUND:                -0.612
REMARK SMILES Cc1ccncc1/C=C/Nc1ccc(CCCN)cc1
REMARK SMILES IDX 14 1 13 2 12 3 11 4 20 5 19 6 15 7 16 8 17 9 18 10 10 13
REMARK SMILES IDX 9 15 8 16 7 17 2 18 6 19 3 20 5 21 4 22 1 23
REMARK H PARENT 18 11 18 12 10 14
ROOT
ATOM      1  C   UNL     1       8.079   5.918   2.393  1.00  0.00    -0.048 A 
ATOM      2  C   UNL     1       8.489   6.832   1.420  1.00  0.00     0.006 A 
ATOM      3  C   UNL     1       9.023   8.064   1.784  1.00  0.00     0.026 A 
ATOM      4  C   UNL     1       9.096   8.465   3.120  1.00  0.00     0.038 A 
ATOM      5  C   UNL     1       8.633   7.572   4.094  1.00  0.00     0.026 A 
ATOM      6  C   UNL     1       8.129   6.312   3.735  1.00  0.00     0.006 A 
ENDROOT
BRANCH   1   7
ATOM      7  C   UNL     1       7.593   4.540   2.015  1.00  0.00     0.037 C 
BRANCH   7   8
ATOM      8  C   UNL     1       6.381   3.996   2.794  1.00  0.00     0.020 C 
BRANCH   8   9
ATOM      9  C   UNL     1       6.441   2.512   3.183  1.00  0.00     0.078 C 
BRANCH   9  10
ATOM     10  N   UNL     1       5.166   1.925   3.571  1.00  0.00    -0.330 NA
ATOM     11  H   UNL     1       5.116   1.841   4.586  1.00  0.00     0.118 HD
ATOM     12  H   UNL     1       5.094   0.972   3.214  1.00  0.00     0.118 HD
ENDBRANCH   9  10
ENDBRANCH   8   9
ENDBRANCH   7   8
ENDBRANCH   1   7
BRANCH   4  13
ATOM     13  N   UNL     1       9.524   9.755   3.489  1.00  0.00    -0.362 N 
ATOM     14  H   UNL     1      10.263   9.809   4.178  1.00  0.00     0.166 HD
BRANCH  13  15
ATOM     15  C   UNL     1       8.858  10.914   3.190  1.00  0.00     0.083 C 
BRANCH  15  16
ATOM     16  C   UNL     1       8.137  11.707   3.994  1.00  0.00     0.027 C 
BRANCH  16  17
ATOM     17  C   UNL     1       8.711  12.930   4.574  1.00  0.00    -0.003 A 
ATOM     18  C   UNL     1       8.220  13.506   5.758  1.00  0.00    -0.041 A 
ATOM     19  C   UNL     1       9.766  13.602   3.937  1.00  0.00     0.119 A 
ATOM     20  C   UNL     1       8.811  14.688   6.229  1.00  0.00     0.024 A 
ATOM     21  N   UNL     1      10.360  14.732   4.387  1.00  0.00    -0.264 NA
ATOM     22  C   UNL     1       9.868  15.247   5.527  1.00  0.00     0.111 A 
ATOM     23  C   UNL     1       7.059  12.923   6.515  1.00  0.00     0.045 C 
ENDBRANCH  16  17
ENDBRANCH  15  16
ENDBRANCH  13  15
ENDBRANCH   4  13
TORSDOF 8
ENDMDL
MODEL 2
REMARK VINA RESULT:    -5.164      1.799      8.368
REMARK INTER + INTRA:          -8.039
REMARK INTER:                  -7.298
REMARK INTRA:                  -0.742
REMARK UNBOUND:                -0.612
REMARK SMILES Cc1ccncc1/C=C/Nc1ccc(CCCN)cc1
REMARK SMILES IDX 14 1 13 2 12 3 11 4 20 5 19 6 15 7 16 8 17 9 18 10 10 13
REMARK SMILES IDX 9 15 8 16 7 17 2 18 6 19 3 20 5 21 4 22 1 23
REMARK H PARENT 18 11 18 12 10 14
ROOT
ATOM      1  C   UNL     1       8.651  13.471   4.888  1.00  0.00    -0.048 A 
ATOM      2  C   UNL     1       9.832  13.255   4.176  1.00  0.00     0.006 A 
ATOM      3  C   UNL     1       9.974  12.137   3.359  1.00  0.00     0.026 A 
ATOM      4  C   UNL     1       8.982  11.157   3.280  1.00  0.00     0.038 A 
ATOM      5  C   UNL     1       7.820  11.344   4.038  1.00  0.00     0.026 A 
ATOM      6  C   UNL     1       7.655  12.488   4.834  1.00  0.00     0.006 A 
ENDROOT
BRANCH   1   7
ATOM      7  C   UNL     1       8.446  14.728   5.697  1.00  0.00     0.037 C 
BRANCH   7   8
ATOM      8  C   UNL     1       8.106  14.543   7.188  1.00  0.00     0.020 C 
BRANCH   8   9
ATOM      9  C   UNL     1       9.304  14.460   8.146  1.00  0.00     0.078 C 
BRANCH   9  10
ATOM     10  N   UNL     1       9.638  13.117   8.599  1.00  0.00    -0.330 NA
ATOM     11  H   UNL     1       9.456  13.031   9.599  1.00  0.00     0.118 HD
ATOM     12  H   UNL     1      10.637  12.947   8.488  1.00  0.00     0.118 HD
ENDBRANCH   9  10
ENDBRANCH   8   9
ENDBRANCH   7   8
ENDBRANCH   1   7
BRANCH   4  13
ATOM     13  N   UNL     1       9.167   9.967   2.550  1.00  0.00    -0.362 N 
ATOM     14  H   UNL     1       8.913   9.991   1.570  1.00  0.00     0.166 HD
BRANCH  13  15
ATOM     15  C   UNL     1       9.413   8.739   3.105  1.00  0.00     0.083 C 
BRANCH  15  16
ATOM     16  C   UNL     1       9.265   7.522   2.564  1.00  0.00     0.027 C 
BRANCH  16  17
ATOM     17  C   UNL     1       8.185   6.622   2.996  1.00  0.00    -0.003 A 
ATOM     18  C   UNL     1       7.413   5.878   2.086  1.00  0.00    -0.041 A 
ATOM     19  C   UNL     1       7.853   6.497   4.354  1.00  0.00     0.119 A 
ATOM     20  C   UNL     1       6.386   5.062   2.583  1.00  0.00     0.024 A 
ATOM     21  N   UNL     1       6.878   5.701   4.851  1.00  0.00    -0.264 NA
ATOM     22  C   UNL     1       6.168   4.998   3.950  1.00  0.00     0.111 A 
ATOM     23  C   UNL     1       7.624   5.957   0.600  1.00  0.00     0.045 C 
ENDBRANCH  16  17
ENDBRANCH  15  16
ENDBRANCH  13  15
ENDBRANCH   4  13
TORSDOF 8
ENDMDL
MODEL 3
REMARK VINA RESULT:    -5.056      0.962      1.101
REMARK INTER + INTRA:          -7.885
REMARK INTER:                  -7.378
REMARK INTRA:                  -0.507
REMARK UNBOUND:                -0.612
REMARK SMILES Cc1ccncc1/C=C/Nc1ccc(CCCN)cc1
REMARK SMILES IDX 14 1 13 2 12 3 11 4 20 5 19 6 15 7 16 8 17 9 18 10 10 13
REMARK SMILES IDX 9 15 8 16 7 17 2 18 6 19 3 20 5 21 4 22 1 23
REMARK H PARENT 18 11 18 12 10 14
ROOT
ATOM      1  C   UNL     1       7.892   5.594   2.443  1.00  0.00    -0.048 A 
ATOM      2  C   UNL     1       8.300   6.446   1.415  1.00  0.00     0.006 A 
ATOM      3  C   UNL     1       8.863   7.687   1.701  1.00  0.00     0.026 A 
ATOM      4  C   UNL     1       8.967   8.157   3.012  1.00  0.00     0.038 A 
ATOM      5  C   UNL     1       8.506   7.328   4.041  1.00  0.00     0.026 A 
ATOM      6  C   UNL     1       7.973   6.060   3.760  1.00  0.00     0.006 A 
ENDROOT
BRANCH   1   7
ATOM      7  C   UNL     1       7.375   4.208   2.149  1.00  0.00     0.037 C 
BRANCH   7   8
ATOM      8  C   UNL     1       6.132   3.751   2.937  1.00  0.00     0.020 C 
BRANCH   8   9
ATOM      9  C   UNL     1       6.101   2.272   3.348  1.00  0.00     0.078 C 
BRANCH   9  10
ATOM     10  N   UNL     1       5.849   1.336   2.261  1.00  0.00    -0.330 NA
ATOM     11  H   UNL     1       5.036   1.636   1.725  1.00  0.00     0.118 HD
ATOM     12  H   UNL     1       5.606   0.419   2.636  1.00  0.00     0.118 HD
ENDBRANCH   9  10
ENDBRANCH   8   9
ENDBRANCH   7   8
ENDBRANCH   1   7
BRANCH   4  13
ATOM     13  N   UNL     1       9.424   9.457   3.302  1.00  0.00    -0.362 N 
ATOM     14  H   UNL     1      10.153   9.538   4.000  1.00  0.00     0.166 HD
BRANCH  13  15
ATOM     15  C   UNL     1       8.797  10.612   2.915  1.00  0.00     0.083 C 
BRANCH  15  16
ATOM     16  C   UNL     1       8.479  11.688   3.646  1.00  0.00     0.027 C 
BRANCH  16  17
ATOM     17  C   UNL     1       9.509  12.641   4.088  1.00  0.00    -0.003 A 
ATOM     18  C   UNL     1       9.212  13.751   4.898  1.00  0.00    -0.041 A 
ATOM     19  C   UNL     1      10.843  12.497   3.680  1.00  0.00     0.119 A 
ATOM     20  C   UNL     1      10.251  14.623   5.253  1.00  0.00     0.024 A 
ATOM     21  N   UNL     1      11.861  13.319   4.028  1.00  0.00    -0.264 NA
ATOM     22  C   UNL     1      11.539  14.364   4.811  1.00  0.00     0.111 A 
ATOM     23  C   UNL     1       7.816  14.056   5.364  1.00  0.00     0.045 C 
ENDBRANCH  16  17
ENDBRANCH  15  16
ENDBRANCH  13  15
ENDBRANCH   4  13
TORSDOF 8
ENDMDL
MODEL 4
REMARK VINA RESULT:    -4.994      2.207      8.419
REMARK INTER + INTRA:          -7.796
REMARK INTER:                  -7.128
REMARK INTRA:                  -0.668
REMARK UNBOUND:                -0.612
REMARK SMILES Cc1ccncc1/C=C/Nc1ccc(CCCN)cc1
REMARK SMILES IDX 14 1 13 2 12 3 11 4 20 5 19 6 15 7 16 8 17 9 18 10 10 13
REMARK SMILES IDX 9 15 8 16 7 17 2 18 6 19 3 20 5 21 4 22 1 23
REMARK H PARENT 18 11 18 12 10 14
ROOT
ATOM      1  C   UNL     1       8.674  13.466   4.872  1.00  0.00    -0.048 A 
ATOM      2  C   UNL     1       7.642  12.530   4.792  1.00  0.00     0.006 A 
ATOM      3  C   UNL     1       7.818  11.336   4.099  1.00  0.00     0.026 A 
ATOM      4  C   UNL     1       8.994  11.064   3.397  1.00  0.00     0.038 A 
ATOM      5  C   UNL     1      10.009  12.027   3.429  1.00  0.00     0.026 A 
ATOM      6  C   UNL     1       9.852  13.216   4.158  1.00  0.00     0.006 A 
ENDROOT
BRANCH   1   7
ATOM      7  C   UNL     1       8.531  14.717   5.704  1.00  0.00     0.037 C 
BRANCH   7   8
ATOM      8  C   UNL     1       8.165  14.522   7.188  1.00  0.00     0.020 C 
BRANCH   8   9
ATOM      9  C   UNL     1       9.345  14.441   8.168  1.00  0.00     0.078 C 
BRANCH   9  10
ATOM     10  N   UNL     1       9.668  13.099   8.631  1.00  0.00    -0.330 NA
ATOM     11  H   UNL     1       9.116  12.411   8.120  1.00  0.00     0.118 HD
ATOM     12  H   UNL     1       9.401  12.991   9.610  1.00  0.00     0.118 HD
ENDBRANCH   9  10
ENDBRANCH   8   9
ENDBRANCH   7   8
ENDBRANCH   1   7
BRANCH   4  13
ATOM     13  N   UNL     1       9.134   9.914   2.596  1.00  0.00    -0.362 N 
ATOM     14  H   UNL     1       8.764   9.967   1.656  1.00  0.00     0.166 HD
BRANCH  13  15
ATOM     15  C   UNL     1       9.489   8.675   3.062  1.00  0.00     0.083 C 
BRANCH  15  16
ATOM     16  C   UNL     1       8.748   7.563   3.155  1.00  0.00     0.027 C 
BRANCH  16  17
ATOM     17  C   UNL     1       8.295   6.846   1.953  1.00  0.00    -0.003 A 
ATOM     18  C   UNL     1       7.325   5.829   2.002  1.00  0.00    -0.041 A 
ATOM     19  C   UNL     1       8.850   7.127   0.696  1.00  0.00     0.119 A 
ATOM     20  C   UNL     1       6.968   5.180   0.811  1.00  0.00     0.024 A 
ATOM     21  N   UNL     1       8.505   6.524  -0.466  1.00  0.00    -0.264 NA
ATOM     22  C   UNL     1       7.567   5.564  -0.379  1.00  0.00     0.111 A 
ATOM     23  C   UNL     1       6.687   5.388   3.289  1.00  0.00     0.045 C 
ENDBRANCH  16  17
ENDBRANCH  15  16
ENDBRANCH  13  15
ENDBRANCH   4  13
TORSDOF 8
ENDMDL
MODEL 5
REMARK VINA RESULT:    -4.929      2.126      2.685
REMARK INTER + INTRA:          -7.703
REMARK INTER:                  -7.147
REMARK INTRA:                  -0.556
REMARK UNBOUND:                -0.612
REMARK SMILES Cc1ccncc1/C=C/Nc1ccc(CCCN)cc1
REMARK SMILES IDX 14 1 13 2 12 3 11 4 20 5 19 6 15 7 16 8 17 9 18 10 10 13
REMARK SMILES IDX 9 15 8 16 7 17 2 18 6 19 3 20 5 21 4 22 1 23
REMARK H PARENT 18 11 18 12 10 14
ROOT
ATOM      1  C   UNL     1       7.703   5.670   1.345  1.00  0.00    -0.048 A 
ATOM      2  C   UNL     1       8.471   6.643   0.703  1.00  0.00     0.006 A 
ATOM      3  C   UNL     1       9.107   7.642   1.433  1.00  0.00     0.026 A 
ATOM      4  C   UNL     1       8.940   7.758   2.816  1.00  0.00     0.038 A 
ATOM      5  C   UNL     1       8.124   6.816   3.454  1.00  0.00     0.026 A 
ATOM      6  C   UNL     1       7.511   5.784   2.727  1.00  0.00     0.006 A 
ENDROOT
BRANCH   1   7
ATOM      7  C   UNL     1       7.092   4.524   0.577  1.00  0.00     0.037 C 
BRANCH   7   8
ATOM      8  C   UNL     1       5.592   4.636   0.243  1.00  0.00     0.020 C 
BRANCH   8   9
ATOM      9  C   UNL     1       5.191   5.805  -0.669  1.00  0.00     0.078 C 
BRANCH   9  10
ATOM     10  N   UNL     1       5.127   5.484  -2.088  1.00  0.00    -0.330 NA
ATOM     11  H   UNL     1       5.749   4.705  -2.298  1.00  0.00     0.118 HD
ATOM     12  H   UNL     1       5.474   6.268  -2.641  1.00  0.00     0.118 HD
ENDBRANCH   9  10
ENDBRANCH   8   9
ENDBRANCH   7   8
ENDBRANCH   1   7
BRANCH   4  13
ATOM     13  N   UNL     1       9.482   8.834   3.544  1.00  0.00    -0.362 N 
ATOM     14  H   UNL     1      10.220   8.612   4.200  1.00  0.00     0.166 HD
BRANCH  13  15
ATOM     15  C   UNL     1       8.928  10.084   3.622  1.00  0.00     0.083 C 
BRANCH  15  16
ATOM     16  C   UNL     1       9.389  11.245   3.139  1.00  0.00     0.027 C 
BRANCH  16  17
ATOM     17  C   UNL     1       9.241  12.498   3.896  1.00  0.00    -0.003 A 
ATOM     18  C   UNL     1      10.343  13.287   4.271  1.00  0.00    -0.041 A 
ATOM     19  C   UNL     1       7.977  12.942   4.313  1.00  0.00     0.119 A 
ATOM     20  C   UNL     1      10.114  14.455   5.014  1.00  0.00     0.024 A 
ATOM     21  N   UNL     1       7.737  14.074   5.014  1.00  0.00    -0.264 NA
ATOM     22  C   UNL     1       8.815  14.807   5.346  1.00  0.00     0.111 A 
ATOM     23  C   UNL     1      11.758  12.903   3.938  1.00  0.00     0.045 C 
ENDBRANCH  16  17
ENDBRANCH  15  16
ENDBRANCH  13  15
ENDBRANCH   4  13
TORSDOF 8
ENDMDL
MODEL 6
REMARK VINA RESULT:    -4.920      1.061      1.672
REMARK INTER + INTRA:          -7.690
REMARK INTER:                  -7.180
REMARK INTRA:                  -0.510
REMARK UNBOUND:                -0.612
REMARK SMILES Cc1ccncc1/C=C/Nc1ccc(CCCN)cc1
REMARK SMILES IDX 14 1 13 2 12 3 11 4 20 5 19 6 15 7 16 8 17 9 18 10 10 13
REMARK SMILES IDX 9 15 8 16 7 17 2 18 6 19 3 20 5 21 4 22 1 23
REMARK H PARENT 18 11 18 12 10 14
ROOT
ATOM      1  C   UNL     1       7.843   5.645   2.011  1.00  0.00    -0.048 A 
ATOM      2  C   UNL     1       8.351   6.619   1.149  1.00  0.00     0.006 A 
ATOM      3  C   UNL     1       8.977   7.756   1.651  1.00  0.00     0.026 A 
ATOM      4  C   UNL     1       9.051   8.005   3.024  1.00  0.00     0.038 A 
ATOM      5  C   UNL     1       8.492   7.057   3.888  1.00  0.00     0.026 A 
ATOM      6  C   UNL     1       7.894   5.890   3.389  1.00  0.00     0.006 A 
ENDROOT
BRANCH   1   7
ATOM      7  C   UNL     1       7.254   4.362   1.480  1.00  0.00     0.037 C 
BRANCH   7   8
ATOM      8  C   UNL     1       6.072   3.765   2.268  1.00  0.00     0.020 C 
BRANCH   8   9
ATOM      9  C   UNL     1       6.372   2.486   3.063  1.00  0.00     0.078 C 
BRANCH   9  10
ATOM     10  N   UNL     1       5.205   1.831   3.639  1.00  0.00    -0.330 NA
ATOM     11  H   UNL     1       5.318   1.741   4.647  1.00  0.00     0.118 HD
ATOM     12  H   UNL     1       5.127   0.878   3.285  1.00  0.00     0.118 HD
ENDBRANCH   9  10
ENDBRANCH   8   9
ENDBRANCH   7   8
ENDBRANCH   1   7
BRANCH   4  13
ATOM     13  N   UNL     1       9.575   9.208   3.535  1.00  0.00    -0.362 N 
ATOM     14  H   UNL     1      10.367   9.128   4.161  1.00  0.00     0.166 HD
BRANCH  13  15
ATOM     15  C   UNL     1       8.954  10.426   3.460  1.00  0.00     0.083 C 
BRANCH  15  16
ATOM     16  C   UNL     1       9.462  11.614   3.105  1.00  0.00     0.027 C 
BRANCH  16  17
ATOM     17  C   UNL     1       9.325  12.792   3.975  1.00  0.00    -0.003 A 
ATOM     18  C   UNL     1      10.437  13.508   4.455  1.00  0.00    -0.041 A 
ATOM     19  C   UNL     1       8.062  13.231   4.399  1.00  0.00     0.119 A 
ATOM     20  C   UNL     1      10.217  14.606   5.300  1.00  0.00     0.024 A 
ATOM     21  N   UNL     1       7.832  14.298   5.199  1.00  0.00    -0.264 NA
ATOM     22  C   UNL     1       8.919  14.963   5.629  1.00  0.00     0.111 A 
ATOM     23  C   UNL     1      11.850  13.116   4.125  1.00  0.00     0.045 C 
ENDBRANCH  16  17
ENDBRANCH  15  16
ENDBRANCH  13  15
ENDBRANCH   4  13
TORSDOF 8
ENDMDL
MODEL 7
REMARK VINA RESULT:    -4.912      3.982      8.299
REMARK INTER + INTRA:          -7.677
REMARK INTER:                  -6.890
REMARK INTRA:                  -0.787
REMARK UNBOUND:                -0.612
REMARK SMILES Cc1ccncc1/C=C/Nc1ccc(CCCN)cc1
REMARK SMILES IDX 14 1 13 2 12 3 11 4 20 5 19 6 15 7 16 8 17 9 18 10 10 13
REMARK SMILES IDX 9 15 8 16 7 17 2 18 6 19 3 20 5 21 4 22 1 23
REMARK H PARENT 18 11 18 12 10 14
ROOT
ATOM      1  C   UNL     1      10.793   7.408   3.868  1.00  0.00    -0.048 A 
ATOM      2  C   UNL     1      10.151   6.241   3.450  1.00  0.00     0.006 A 
ATOM      3  C   UNL     1       8.972   6.303   2.713  1.00  0.00     0.026 A 
ATOM      4  C   UNL     1       8.348   7.521   2.432  1.00  0.00     0.038 A 
ATOM      5  C   UNL     1       8.960   8.690   2.900  1.00  0.00     0.026 A 
ATOM      6  C   UNL     1      10.169   8.635   3.611  1.00  0.00     0.006 A 
ENDROOT
BRANCH   1   7
ATOM      7  C   UNL     1      12.122   7.356   4.580  1.00  0.00     0.037 C 
BRANCH   7   8
ATOM      8  C   UNL     1      13.159   6.354   4.036  1.00  0.00     0.020 C 
BRANCH   8   9
ATOM      9  C   UNL     1      14.632   6.710   4.281  1.00  0.00     0.078 C 
BRANCH   9  10
ATOM     10  N   UNL     1      14.887   8.116   4.565  1.00  0.00    -0.330 NA
ATOM     11  H   UNL     1      14.101   8.515   5.078  1.00  0.00     0.118 HD
ATOM     12  H   UNL     1      14.944   8.646   3.696  1.00  0.00     0.118 HD
ENDBRANCH   9  10
ENDBRANCH   8   9
ENDBRANCH   7   8
ENDBRANCH   1   7
BRANCH   4  13
ATOM     13  N   UNL     1       7.096   7.586   1.791  1.00  0.00    -0.362 N 
ATOM     14  H   UNL     1       6.527   8.400   1.987  1.00  0.00     0.166 HD
BRANCH  13  15
ATOM     15  C   UNL     1       6.492   6.539   1.146  1.00  0.00     0.083 C 
BRANCH  15  16
ATOM     16  C   UNL     1       5.447   5.796   1.534  1.00  0.00     0.027 C 
BRANCH  16  17
ATOM     17  C   UNL     1       5.624   4.406   1.980  1.00  0.00    -0.003 A 
ATOM     18  C   UNL     1       5.944   4.075   3.309  1.00  0.00    -0.041 A 
ATOM     19  C   UNL     1       5.517   3.340   1.074  1.00  0.00     0.119 A 
ATOM     20  C   UNL     1       6.119   2.724   3.644  1.00  0.00     0.024 A 
ATOM     21  N   UNL     1       5.665   2.031   1.384  1.00  0.00    -0.264 NA
ATOM     22  C   UNL     1       5.960   1.754   2.667  1.00  0.00     0.111 A 
ATOM     23  C   UNL     1       6.143   5.119   4.372  1.00  0.00     0.045 C 
ENDBRANCH  16  17
ENDBRANCH  15  16
ENDBRANCH  13  15
ENDBRANCH   4  13
TORSDOF 8
ENDMDL
MODEL 8
REMARK VINA RESULT:    -4.792      2.463      8.488
REMARK INTER + INTRA:          -7.505
REMARK INTER:                  -6.761
REMARK INTRA:                  -0.743
REMARK UNBOUND:                -0.612
REMARK SMILES Cc1ccncc1/C=C/Nc1ccc(CCCN)cc1
REMARK SMILES IDX 14 1 13 2 12 3 11 4 20 5 19 6 15 7 16 8 17 9 18 10 10 13
REMARK SMILES IDX 9 15 8 16 7 17 2 18 6 19 3 20 5 21 4 22 1 23
REMARK H PARENT 18 11 18 12 10 14
ROOT
ATOM      1  C   UNL     1       9.254   9.480   3.304  1.00  0.00    -0.048 A 
ATOM      2  C   UNL     1       8.145   8.928   2.660  1.00  0.00     0.006 A 
ATOM      3  C   UNL     1       7.988   7.548   2.572  1.00  0.00     0.026 A 
ATOM      4  C   UNL     1       8.962   6.669   3.051  1.00  0.00     0.038 A 
ATOM      5  C   UNL     1      10.102   7.221   3.647  1.00  0.00     0.026 A 
ATOM      6  C   UNL     1      10.248   8.611   3.772  1.00  0.00     0.006 A 
ENDROOT
BRANCH   1   7
ATOM      7  C   UNL     1       9.386  10.970   3.495  1.00  0.00     0.037 C 
BRANCH   7   8
ATOM      8  C   UNL     1       8.079  11.757   3.719  1.00  0.00     0.020 C 
BRANCH   8   9
ATOM      9  C   UNL     1       8.157  12.921   4.717  1.00  0.00     0.078 C 
BRANCH   9  10
ATOM     10  N   UNL     1       8.184  14.247   4.115  1.00  0.00    -0.330 NA
ATOM     11  H   UNL     1       8.231  14.959   4.842  1.00  0.00     0.118 HD
ATOM     12  H   UNL     1       7.313  14.423   3.614  1.00  0.00     0.118 HD
ENDBRANCH   9  10
ENDBRANCH   8   9
ENDBRANCH   7   8
ENDBRANCH   1   7
BRANCH   4  13
ATOM     13  N   UNL     1       8.866   5.277   2.860  1.00  0.00    -0.362 N 
ATOM     14  H   UNL     1       9.738   4.771   2.761  1.00  0.00     0.166 HD
BRANCH  13  15
ATOM     15  C   UNL     1       7.713   4.607   2.545  1.00  0.00     0.083 C 
BRANCH  15  16
ATOM     16  C   UNL     1       7.379   3.990   1.404  1.00  0.00     0.027 C 
BRANCH  16  17
ATOM     17  C   UNL     1       6.389   4.571   0.484  1.00  0.00    -0.003 A 
ATOM     18  C   UNL     1       6.728   5.547  -0.469  1.00  0.00    -0.041 A 
ATOM     19  C   UNL     1       5.039   4.196   0.550  1.00  0.00     0.119 A 
ATOM     20  C   UNL     1       5.716   6.066  -1.291  1.00  0.00     0.024 A 
ATOM     21  N   UNL     1       4.054   4.673  -0.247  1.00  0.00    -0.264 NA
ATOM     22  C   UNL     1       4.419   5.598  -1.153  1.00  0.00     0.111 A 
ATOM     23  C   UNL     1       8.126   6.081  -0.613  1.00  0.00     0.045 C 
ENDBRANCH  16  17
ENDBRANCH  15  16
ENDBRANCH  13  15
ENDBRANCH   4  13
TORSDOF 8
ENDMDL
MODEL 9
REMARK VINA RESULT:    -4.564      1.743      2.206
REMARK INTER + INTRA:          -7.177
REMARK INTER:                  -6.641
REMARK INTRA:                  -0.536
REMARK UNBOUND:                -0.612
REMARK SMILES Cc1ccncc1/C=C/Nc1ccc(CCCN)cc1
REMARK SMILES IDX 14 1 13 2 12 3 11 4 20 5 19 6 15 7 16 8 17 9 18 10 10 13
REMARK SMILES IDX 9 15 8 16 7 17 2 18 6 19 3 20 5 21 4 22 1 23
REMARK H PARENT 18 11 18 12 10 14
ROOT
ATOM      1  C   UNL     1       7.880   5.941   1.576  1.00  0.00    -0.048 A 
ATOM      2  C   UNL     1       7.714   6.130   2.949  1.00  0.00     0.006 A 
ATOM      3  C   UNL     1       8.139   7.306   3.561  1.00  0.00     0.026 A 
ATOM      4  C   UNL     1       8.813   8.300   2.848  1.00  0.00     0.038 A 
ATOM      5  C   UNL     1       9.031   8.087   1.482  1.00  0.00     0.026 A 
ATOM      6  C   UNL     1       8.571   6.921   0.852  1.00  0.00     0.006 A 
ENDROOT
BRANCH   1   7
ATOM      7  C   UNL     1       7.334   4.717   0.885  1.00  0.00     0.037 C 
BRANCH   7   8
ATOM      8  C   UNL     1       5.860   4.775   0.438  1.00  0.00     0.020 C 
BRANCH   8   9
ATOM      9  C   UNL     1       5.565   5.633  -0.801  1.00  0.00     0.078 C 
BRANCH   9  10
ATOM     10  N   UNL     1       4.189   5.577  -1.275  1.00  0.00    -0.330 NA
ATOM     11  H   UNL     1       4.094   6.119  -2.132  1.00  0.00     0.118 HD
ATOM     12  H   UNL     1       3.567   6.021  -0.600  1.00  0.00     0.118 HD
ENDBRANCH   9  10
ENDBRANCH   8   9
ENDBRANCH   7   8
ENDBRANCH   1   7
BRANCH   4  13
ATOM     13  N   UNL     1       9.350   9.437   3.482  1.00  0.00    -0.362 N 
ATOM     14  H   UNL     1       9.887   9.275   4.325  1.00  0.00     0.166 HD
BRANCH  13  15
ATOM     15  C   UNL     1       8.996  10.730   3.203  1.00  0.00     0.083 C 
BRANCH  15  16
ATOM     16  C   UNL     1       8.237  11.572   3.916  1.00  0.00     0.027 C 
BRANCH  16  17
ATOM     17  C   UNL     1       8.801  12.798   4.500  1.00  0.00    -0.003 A 
ATOM     18  C   UNL     1       8.256  13.408   5.644  1.00  0.00    -0.041 A 
ATOM     19  C   UNL     1       9.900  13.438   3.907  1.00  0.00     0.119 A 
ATOM     20  C   UNL     1       8.843  14.591   6.121  1.00  0.00     0.024 A 
ATOM     21  N   UNL     1      10.489  14.568   4.364  1.00  0.00    -0.264 NA
ATOM     22  C   UNL     1       9.945  15.116   5.465  1.00  0.00     0.111 A 
ATOM     23  C   UNL     1       7.047  12.862   6.349  1.00  0.00     0.045 C 
ENDBRANCH  16  17
ENDBRANCH  15  16
ENDBRANCH  13  15
ENDBRANCH   4  13
TORSDOF 8
ENDMDL
