MODEL 1
REMARK VINA RESULT:    -4.906      0.000      0.000
REMARK INTER + INTRA:          -7.673
REMARK INTER:                  -7.057
REMARK INTRA:                  -0.615
REMARK UNBOUND:                -0.615
REMARK SMILES Cc1ccncc1/C=C/Nc1ccc(CCCN)cc1
REMARK SMILES IDX 14 1 13 2 12 3 11 4 20 5 19 6 15 7 16 8 17 9 18 10 10 13
REMARK SMILES IDX 9 15 8 16 7 17 2 18 6 19 3 20 5 21 4 22 1 23
REMARK H PARENT 18 11 18 12 10 14
ROOT
ATOM      1  C   UNL     1      13.490   6.683  -2.647  1.00  0.00    -0.048 A 
ATOM      2  C   UNL     1      12.125   6.894  -2.448  1.00  0.00     0.006 A 
ATOM      3  C   UNL     1      11.195   5.926  -2.814  1.00  0.00     0.026 A 
ATOM      4  C   UNL     1      11.580   4.748  -3.460  1.00  0.00     0.038 A 
ATOM      5  C   UNL     1      12.944   4.560  -3.712  1.00  0.00     0.026 A 
ATOM      6  C   UNL     1      13.889   5.516  -3.311  1.00  0.00     0.006 A 
ENDROOT
BRANCH   1   7
ATOM      7  C   UNL     1      14.514   7.680  -2.164  1.00  0.00     0.037 C 
BRANCH   7   8
ATOM      8  C   UNL     1      14.540   7.964  -0.650  1.00  0.00     0.020 C 
BRANCH   8   9
ATOM      9  C   UNL     1      15.911   7.850   0.033  1.00  0.00     0.078 C 
BRANCH   9  10
ATOM     10  N   UNL     1      15.970   6.908   1.142  1.00  0.00    -0.330 NA
ATOM     11  H   UNL     1      16.846   6.389   1.112  1.00  0.00     0.118 HD
ATOM     12  H   UNL     1      15.234   6.208   1.048  1.00  0.00     0.118 HD
ENDBRANCH   9  10
ENDBRANCH   8   9
ENDBRANCH   7   8
ENDBRANCH   1   7
BRANCH   4  13
ATOM     13  N   UNL     1      10.636   3.820  -3.940  1.00  0.00    -0.362 N 
ATOM     14  H   UNL     1      10.225   4.015  -4.844  1.00  0.00     0.166 HD
BRANCH  13  15
ATOM     15  C   UNL     1      10.053   2.836  -3.185  1.00  0.00     0.083 C 
BRANCH  15  16
ATOM     16  C   UNL     1       8.871   2.229  -3.355  1.00  0.00     0.027 C 
BRANCH  16  17
ATOM     17  C   UNL     1       7.640   3.004  -3.571  1.00  0.00    -0.003 A 
ATOM     18  C   UNL     1       6.806   3.404  -2.512  1.00  0.00    -0.041 A 
ATOM     19  C   UNL     1       7.223   3.347  -4.866  1.00  0.00     0.119 A 
ATOM     20  C   UNL     1       5.636   4.121  -2.809  1.00  0.00     0.024 A 
ATOM     21  N   UNL     1       6.109   4.053  -5.169  1.00  0.00    -0.264 NA
ATOM     22  C   UNL     1       5.342   4.426  -4.129  1.00  0.00     0.111 A 
ATOM     23  C   UNL     1       7.101   3.058  -1.080  1.00  0.00     0.045 C 
ENDBRANCH  16  17
ENDBRANCH  15  16
ENDBRANCH  13  15
ENDBRANCH   4  13
TORSDOF 8
ENDMDL
MODEL 2
REMARK VINA RESULT:    -4.821      4.005      6.094
REMARK INTER + INTRA:          -7.550
REMARK INTER:                  -6.894
REMARK INTRA:                  -0.656
REMARK UNBOUND:                -0.615
REMARK SMILES Cc1ccncc1/C=C/Nc1ccc(CCCN)cc1
REMARK SMILES IDX 14 1 13 2 12 3 11 4 20 5 19 6 15 7 16 8 17 9 18 10 10 13
REMARK SMILES IDX 9 15 8 16 7 17 2 18 6 19 3 20 5 21 4 22 1 23
REMARK H PARENT 18 11 18 12 10 14
ROOT
ATOM      1  C   UNL     1      14.368   0.166  -5.186  1.00  0.00    -0.048 A 
ATOM      2  C   UNL     1      14.998   1.175  -4.454  1.00  0.00     0.006 A 
ATOM      3  C   UNL     1      14.252   2.072  -3.695  1.00  0.00     0.026 A 
ATOM      4  C   UNL     1      12.855   2.050  -3.698  1.00  0.00     0.038 A 
ATOM      5  C   UNL     1      12.221   1.075  -4.477  1.00  0.00     0.026 A 
ATOM      6  C   UNL     1      12.968   0.143  -5.214  1.00  0.00     0.006 A 
ENDROOT
BRANCH   1   7
ATOM      7  C   UNL     1      15.168  -0.873  -5.931  1.00  0.00     0.037 C 
BRANCH   7   8
ATOM      8  C   UNL     1      15.970  -0.385  -7.153  1.00  0.00     0.020 C 
BRANCH   8   9
ATOM      9  C   UNL     1      15.155  -0.102  -8.423  1.00  0.00     0.078 C 
BRANCH   9  10
ATOM     10  N   UNL     1      15.591   1.058  -9.188  1.00  0.00    -0.330 NA
ATOM     11  H   UNL     1      15.758   0.792 -10.158  1.00  0.00     0.118 HD
ATOM     12  H   UNL     1      16.488   1.393  -8.838  1.00  0.00     0.118 HD
ENDBRANCH   9  10
ENDBRANCH   8   9
ENDBRANCH   7   8
ENDBRANCH   1   7
BRANCH   4  13
ATOM     13  N   UNL     1      12.094   3.027  -3.029  1.00  0.00    -0.362 N 
ATOM     14  H   UNL     1      12.578   3.875  -2.761  1.00  0.00     0.166 HD
BRANCH  13  15
ATOM     15  C   UNL     1      10.850   2.820  -2.495  1.00  0.00     0.083 C 
BRANCH  15  16
ATOM     16  C   UNL     1       9.659   3.252  -2.931  1.00  0.00     0.027 C 
BRANCH  16  17
ATOM     17  C   UNL     1       8.417   2.548  -2.579  1.00  0.00    -0.003 A 
ATOM     18  C   UNL     1       7.332   2.444  -3.467  1.00  0.00    -0.041 A 
ATOM     19  C   UNL     1       8.249   1.976  -1.309  1.00  0.00     0.119 A 
ATOM     20  C   UNL     1       6.174   1.775  -3.041  1.00  0.00     0.024 A 
ATOM     21  N   UNL     1       7.147   1.312  -0.888  1.00  0.00    -0.264 NA
ATOM     22  C   UNL     1       6.135   1.225  -1.769  1.00  0.00     0.111 A 
ATOM     23  C   UNL     1       7.353   3.056  -4.839  1.00  0.00     0.045 C 
ENDBRANCH  16  17
ENDBRANCH  15  16
ENDBRANCH  13  15
ENDBRANCH   4  13
TORSDOF 8
ENDMDL
MODEL 3
REMARK VINA RESULT:    -4.810      1.690      2.855
REMARK INTER + INTRA:          -7.534
REMARK INTER:                  -6.654
REMARK INTRA:                  -0.880
REMARK UNBOUND:                -0.615
REMARK SMILES Cc1ccncc1/C=C/Nc1ccc(CCCN)cc1
REMARK SMILES IDX 14 1 13 2 12 3 11 4 20 5 19 6 15 7 16 8 17 9 18 10 10 13
REMARK SMILES IDX 9 15 8 16 7 17 2 18 6 19 3 20 5 21 4 22 1 23
REMARK H PARENT 18 11 18 12 10 14
ROOT
ATOM      1  C   UNL     1      12.247   4.559  -3.284  1.00  0.00    -0.048 A 
ATOM      2  C   UNL     1      12.650   3.257  -3.588  1.00  0.00     0.006 A 
ATOM      3  C   UNL     1      11.722   2.223  -3.651  1.00  0.00     0.026 A 
ATOM      4  C   UNL     1      10.375   2.428  -3.339  1.00  0.00     0.038 A 
ATOM      5  C   UNL     1       9.980   3.721  -2.979  1.00  0.00     0.026 A 
ATOM      6  C   UNL     1      10.905   4.776  -2.951  1.00  0.00     0.006 A 
ENDROOT
BRANCH   1   7
ATOM      7  C   UNL     1      13.227   5.706  -3.311  1.00  0.00     0.037 C 
BRANCH   7   8
ATOM      8  C   UNL     1      12.951   6.875  -2.346  1.00  0.00     0.020 C 
BRANCH   8   9
ATOM      9  C   UNL     1      14.187   7.618  -1.818  1.00  0.00     0.078 C 
BRANCH   9  10
ATOM     10  N   UNL     1      15.465   7.032  -2.195  1.00  0.00    -0.330 NA
ATOM     11  H   UNL     1      15.318   6.269  -2.854  1.00  0.00     0.118 HD
ATOM     12  H   UNL     1      15.911   6.608  -1.381  1.00  0.00     0.118 HD
ENDBRANCH   9  10
ENDBRANCH   8   9
ENDBRANCH   7   8
ENDBRANCH   1   7
BRANCH   4  13
ATOM     13  N   UNL     1       9.454   1.364  -3.285  1.00  0.00    -0.362 N 
ATOM     14  H   UNL     1       9.675   0.543  -3.834  1.00  0.00     0.166 HD
BRANCH  13  15
ATOM     15  C   UNL     1       8.188   1.452  -2.769  1.00  0.00     0.083 C 
BRANCH  15  16
ATOM     16  C   UNL     1       7.010   1.394  -3.405  1.00  0.00     0.027 C 
BRANCH  16  17
ATOM     17  C   UNL     1       6.137   2.574  -3.501  1.00  0.00    -0.003 A 
ATOM     18  C   UNL     1       6.288   3.543  -4.509  1.00  0.00    -0.041 A 
ATOM     19  C   UNL     1       5.128   2.802  -2.554  1.00  0.00     0.119 A 
ATOM     20  C   UNL     1       5.427   4.651  -4.513  1.00  0.00     0.024 A 
ATOM     21  N   UNL     1       4.278   3.856  -2.554  1.00  0.00    -0.264 NA
ATOM     22  C   UNL     1       4.447   4.755  -3.539  1.00  0.00     0.111 A 
ATOM     23  C   UNL     1       7.362   3.453  -5.557  1.00  0.00     0.045 C 
ENDBRANCH  16  17
ENDBRANCH  15  16
ENDBRANCH  13  15
ENDBRANCH   4  13
TORSDOF 8
ENDMDL
MODEL 4
REMARK VINA RESULT:    -4.766      1.401      1.530
REMARK INTER + INTRA:          -7.471
REMARK INTER:                  -6.816
REMARK INTRA:                  -0.656
REMARK UNBOUND:                -0.615
REMARK SMILES Cc1ccncc1/C=C/Nc1ccc(CCCN)cc1
REMARK SMILES IDX 14 1 13 2 12 3 11 4 20 5 19 6 15 7 16 8 17 9 18 10 10 13
REMARK SMILES IDX 9 15 8 16 7 17 2 18 6 19 3 20 5 21 4 22 1 23
REMARK H PARENT 18 11 18 12 10 14
ROOT
ATOM      1  C   UNL     1      13.166   5.690  -3.235  1.00  0.00    -0.048 A 
ATOM      2  C   UNL     1      11.789   5.900  -3.148  1.00  0.00     0.006 A 
ATOM      3  C   UNL     1      10.899   4.836  -3.259  1.00  0.00     0.026 A 
ATOM      4  C   UNL     1      11.339   3.540  -3.537  1.00  0.00     0.038 A 
ATOM      5  C   UNL     1      12.716   3.337  -3.680  1.00  0.00     0.026 A 
ATOM      6  C   UNL     1      13.621   4.399  -3.532  1.00  0.00     0.006 A 
ENDROOT
BRANCH   1   7
ATOM      7  C   UNL     1      14.144   6.817  -3.015  1.00  0.00     0.037 C 
BRANCH   7   8
ATOM      8  C   UNL     1      13.941   7.672  -1.749  1.00  0.00     0.020 C 
BRANCH   8   9
ATOM      9  C   UNL     1      15.135   8.540  -1.325  1.00  0.00     0.078 C 
BRANCH   9  10
ATOM     10  N   UNL     1      14.986   9.964  -1.591  1.00  0.00    -0.330 NA
ATOM     11  H   UNL     1      14.195  10.121  -2.215  1.00  0.00     0.118 HD
ATOM     12  H   UNL     1      15.803  10.315  -2.092  1.00  0.00     0.118 HD
ENDBRANCH   9  10
ENDBRANCH   8   9
ENDBRANCH   7   8
ENDBRANCH   1   7
BRANCH   4  13
ATOM     13  N   UNL     1      10.439   2.482  -3.768  1.00  0.00    -0.362 N 
ATOM     14  H   UNL     1      10.534   1.989  -4.648  1.00  0.00     0.166 HD
BRANCH  13  15
ATOM     15  C   UNL     1       9.309   2.241  -3.033  1.00  0.00     0.083 C 
BRANCH  15  16
ATOM     16  C   UNL     1       8.124   1.763  -3.435  1.00  0.00     0.027 C 
BRANCH  16  17
ATOM     17  C   UNL     1       6.937   2.629  -3.503  1.00  0.00    -0.003 A 
ATOM     18  C   UNL     1       5.832   2.461  -2.649  1.00  0.00    -0.041 A 
ATOM     19  C   UNL     1       6.843   3.648  -4.463  1.00  0.00     0.119 A 
ATOM     20  C   UNL     1       4.730   3.317  -2.798  1.00  0.00     0.024 A 
ATOM     21  N   UNL     1       5.795   4.493  -4.608  1.00  0.00    -0.264 NA
ATOM     22  C   UNL     1       4.763   4.307  -3.767  1.00  0.00     0.111 A 
ATOM     23  C   UNL     1       5.774   1.376  -1.611  1.00  0.00     0.045 C 
ENDBRANCH  16  17
ENDBRANCH  15  16
ENDBRANCH  13  15
ENDBRANCH   4  13
TORSDOF 8
ENDMDL
MODEL 5
REMARK VINA RESULT:    -4.743      1.450      8.219
REMARK INTER + INTRA:          -7.437
REMARK INTER:                  -6.905
REMARK INTRA:                  -0.532
REMARK UNBOUND:                -0.615
REMARK SMILES Cc1ccncc1/C=C/Nc1ccc(CCCN)cc1
REMARK SMILES IDX 14 1 13 2 12 3 11 4 20 5 19 6 15 7 16 8 17 9 18 10 10 13
REMARK SMILES IDX 9 15 8 16 7 17 2 18 6 19 3 20 5 21 4 22 1 23
REMARK H PARENT 18 11 18 12 10 14
ROOT
ATOM      1  C   UNL     1       7.483   2.524  -3.321  1.00  0.00    -0.048 A 
ATOM      2  C   UNL     1       8.198   2.323  -2.138  1.00  0.00     0.006 A 
ATOM      3  C   UNL     1       9.537   2.690  -2.047  1.00  0.00     0.026 A 
ATOM      4  C   UNL     1      10.234   3.196  -3.147  1.00  0.00     0.038 A 
ATOM      5  C   UNL     1       9.533   3.345  -4.350  1.00  0.00     0.026 A 
ATOM      6  C   UNL     1       8.173   3.013  -4.437  1.00  0.00     0.006 A 
ENDROOT
BRANCH   1   7
ATOM      7  C   UNL     1       6.006   2.225  -3.401  1.00  0.00     0.037 C 
BRANCH   7   8
ATOM      8  C   UNL     1       5.051   3.309  -2.866  1.00  0.00     0.020 C 
BRANCH   8   9
ATOM      9  C   UNL     1       5.095   4.662  -3.591  1.00  0.00     0.078 C 
BRANCH   9  10
ATOM     10  N   UNL     1       4.393   4.700  -4.866  1.00  0.00    -0.330 NA
ATOM     11  H   UNL     1       5.020   5.026  -5.600  1.00  0.00     0.118 HD
ATOM     12  H   UNL     1       3.636   5.384  -4.830  1.00  0.00     0.118 HD
ENDBRANCH   9  10
ENDBRANCH   8   9
ENDBRANCH   7   8
ENDBRANCH   1   7
BRANCH   4  13
ATOM     13  N   UNL     1      11.617   3.457  -3.096  1.00  0.00    -0.362 N 
ATOM     14  H   UNL     1      12.232   2.653  -3.105  1.00  0.00     0.166 HD
BRANCH  13  15
ATOM     15  C   UNL     1      12.173   4.669  -2.780  1.00  0.00     0.083 C 
BRANCH  15  16
ATOM     16  C   UNL     1      12.901   5.491  -3.548  1.00  0.00     0.027 C 
BRANCH  16  17
ATOM     17  C   UNL     1      13.730   6.551  -2.955  1.00  0.00    -0.003 A 
ATOM     18  C   UNL     1      15.037   6.823  -3.398  1.00  0.00    -0.041 A 
ATOM     19  C   UNL     1      13.256   7.321  -1.883  1.00  0.00     0.119 A 
ATOM     20  C   UNL     1      15.767   7.837  -2.761  1.00  0.00     0.024 A 
ATOM     21  N   UNL     1      13.940   8.314  -1.268  1.00  0.00    -0.264 NA
ATOM     22  C   UNL     1      15.182   8.550  -1.727  1.00  0.00     0.111 A 
ATOM     23  C   UNL     1      15.691   6.040  -4.502  1.00  0.00     0.045 C 
ENDBRANCH  16  17
ENDBRANCH  15  16
ENDBRANCH  13  15
ENDBRANCH   4  13
TORSDOF 8
ENDMDL
MODEL 6
REMARK VINA RESULT:    -4.723      3.383      5.146
REMARK INTER + INTRA:          -7.409
REMARK INTER:                  -6.585
REMARK INTRA:                  -0.824
REMARK UNBOUND:                -0.615
REMARK SMILES Cc1ccncc1/C=C/Nc1ccc(CCCN)cc1
REMARK SMILES IDX 14 1 13 2 12 3 11 4 20 5 19 6 15 7 16 8 17 9 18 10 10 13
REMARK SMILES IDX 9 15 8 16 7 17 2 18 6 19 3 20 5 21 4 22 1 23
REMARK H PARENT 18 11 18 12 10 14
ROOT
ATOM      1  C   UNL     1      13.155   1.853  -3.889  1.00  0.00    -0.048 A 
ATOM      2  C   UNL     1      11.911   1.236  -3.746  1.00  0.00     0.006 A 
ATOM      3  C   UNL     1      10.767   1.991  -3.503  1.00  0.00     0.026 A 
ATOM      4  C   UNL     1      10.829   3.374  -3.318  1.00  0.00     0.038 A 
ATOM      5  C   UNL     1      12.085   3.988  -3.405  1.00  0.00     0.026 A 
ATOM      6  C   UNL     1      13.236   3.236  -3.687  1.00  0.00     0.006 A 
ENDROOT
BRANCH   1   7
ATOM      7  C   UNL     1      14.384   1.057  -4.252  1.00  0.00     0.037 C 
BRANCH   7   8
ATOM      8  C   UNL     1      14.213  -0.025  -5.336  1.00  0.00     0.020 C 
BRANCH   8   9
ATOM      9  C   UNL     1      15.486  -0.423  -6.098  1.00  0.00     0.078 C 
BRANCH   9  10
ATOM     10  N   UNL     1      15.970   0.569  -7.047  1.00  0.00    -0.330 NA
ATOM     11  H   UNL     1      16.511   1.282  -6.561  1.00  0.00     0.118 HD
ATOM     12  H   UNL     1      15.184   1.063  -7.471  1.00  0.00     0.118 HD
ENDBRANCH   9  10
ENDBRANCH   8   9
ENDBRANCH   7   8
ENDBRANCH   1   7
BRANCH   4  13
ATOM     13  N   UNL     1       9.697   4.128  -2.955  1.00  0.00    -0.362 N 
ATOM     14  H   UNL     1       9.842   4.872  -2.283  1.00  0.00     0.166 HD
BRANCH  13  15
ATOM     15  C   UNL     1       8.402   3.777  -3.232  1.00  0.00     0.083 C 
BRANCH  15  16
ATOM     16  C   UNL     1       7.347   3.715  -2.408  1.00  0.00     0.027 C 
BRANCH  16  17
ATOM     17  C   UNL     1       6.745   2.426  -2.037  1.00  0.00    -0.003 A 
ATOM     18  C   UNL     1       7.237   1.639  -0.981  1.00  0.00    -0.041 A 
ATOM     19  C   UNL     1       5.662   1.904  -2.760  1.00  0.00     0.119 A 
ATOM     20  C   UNL     1       6.617   0.410  -0.710  1.00  0.00     0.024 A 
ATOM     21  N   UNL     1       5.041   0.729  -2.501  1.00  0.00    -0.264 NA
ATOM     22  C   UNL     1       5.534   0.010  -1.477  1.00  0.00     0.111 A 
ATOM     23  C   UNL     1       8.425   2.050  -0.157  1.00  0.00     0.045 C 
ENDBRANCH  16  17
ENDBRANCH  15  16
ENDBRANCH  13  15
ENDBRANCH   4  13
TORSDOF 8
ENDMDL
MODEL 7
REMARK VINA RESULT:    -4.683      1.932      2.247
REMARK INTER + INTRA:          -7.352
REMARK INTER:                  -6.818
REMARK INTRA:                  -0.534
REMARK UNBOUND:                -0.615
REMARK SMILES Cc1ccncc1/C=C/Nc1ccc(CCCN)cc1
REMARK SMILES IDX 14 1 13 2 12 3 11 4 20 5 19 6 15 7 16 8 17 9 18 10 10 13
REMARK SMILES IDX 9 15 8 16 7 17 2 18 6 19 3 20 5 21 4 22 1 23
REMARK H PARENT 18 11 18 12 10 14
ROOT
ATOM      1  C   UNL     1      13.522   5.919  -3.251  1.00  0.00    -0.048 A 
ATOM      2  C   UNL     1      12.169   6.198  -3.044  1.00  0.00     0.006 A 
ATOM      3  C   UNL     1      11.220   5.181  -3.086  1.00  0.00     0.026 A 
ATOM      4  C   UNL     1      11.568   3.868  -3.409  1.00  0.00     0.038 A 
ATOM      5  C   UNL     1      12.916   3.597  -3.673  1.00  0.00     0.026 A 
ATOM      6  C   UNL     1      13.883   4.611  -3.595  1.00  0.00     0.006 A 
ENDROOT
BRANCH   1   7
ATOM      7  C   UNL     1      14.571   6.993  -3.109  1.00  0.00     0.037 C 
BRANCH   7   8
ATOM      8  C   UNL     1      14.467   7.903  -1.870  1.00  0.00     0.020 C 
BRANCH   8   9
ATOM      9  C   UNL     1      15.570   8.960  -1.716  1.00  0.00     0.078 C 
BRANCH   9  10
ATOM     10  N   UNL     1      15.095  10.312  -1.457  1.00  0.00    -0.330 NA
ATOM     11  H   UNL     1      14.151  10.282  -1.075  1.00  0.00     0.118 HD
ATOM     12  H   UNL     1      15.021  10.832  -2.331  1.00  0.00     0.118 HD
ENDBRANCH   9  10
ENDBRANCH   8   9
ENDBRANCH   7   8
ENDBRANCH   1   7
BRANCH   4  13
ATOM     13  N   UNL     1      10.598   2.859  -3.569  1.00  0.00    -0.362 N 
ATOM     14  H   UNL     1      10.809   2.129  -4.238  1.00  0.00     0.166 HD
BRANCH  13  15
ATOM     15  C   UNL     1       9.314   2.925  -3.097  1.00  0.00     0.083 C 
BRANCH  15  16
ATOM     16  C   UNL     1       8.161   2.921  -3.779  1.00  0.00     0.027 C 
BRANCH  16  17
ATOM     17  C   UNL     1       6.947   2.310  -3.218  1.00  0.00    -0.003 A 
ATOM     18  C   UNL     1       5.719   2.992  -3.155  1.00  0.00    -0.041 A 
ATOM     19  C   UNL     1       6.976   1.014  -2.681  1.00  0.00     0.119 A 
ATOM     20  C   UNL     1       4.615   2.342  -2.582  1.00  0.00     0.024 A 
ATOM     21  N   UNL     1       5.917   0.366  -2.142  1.00  0.00    -0.264 NA
ATOM     22  C   UNL     1       4.758   1.047  -2.108  1.00  0.00     0.111 A 
ATOM     23  C   UNL     1       5.557   4.404  -3.643  1.00  0.00     0.045 C 
ENDBRANCH  16  17
ENDBRANCH  15  16
ENDBRANCH  13  15
ENDBRANCH   4  13
TORSDOF 8
ENDMDL
MODEL 8
REMARK VINA RESULT:    -4.683      2.130      8.079
REMARK INTER + INTRA:          -7.351
REMARK INTER:                  -6.755
REMARK INTRA:                  -0.596
REMARK UNBOUND:                -0.615
REMARK SMILES Cc1ccncc1/C=C/Nc1ccc(CCCN)cc1
REMARK SMILES IDX 14 1 13 2 12 3 11 4 20 5 19 6 15 7 16 8 17 9 18 10 10 13
REMARK SMILES IDX 9 15 8 16 7 17 2 18 6 19 3 20 5 21 4 22 1 23
REMARK H PARENT 18 11 18 12 10 14
ROOT
ATOM      1  C   UNL     1       7.471   2.788  -2.421  1.00  0.00    -0.048 A 
ATOM      2  C   UNL     1       7.735   3.162  -3.740  1.00  0.00     0.006 A 
ATOM      3  C   UNL     1       9.044   3.252  -4.205  1.00  0.00     0.026 A 
ATOM      4  C   UNL     1      10.136   3.051  -3.358  1.00  0.00     0.038 A 
ATOM      5  C   UNL     1       9.874   2.732  -2.020  1.00  0.00     0.026 A 
ATOM      6  C   UNL     1       8.556   2.602  -1.556  1.00  0.00     0.006 A 
ENDROOT
BRANCH   1   7
ATOM      7  C   UNL     1       6.057   2.589  -1.934  1.00  0.00     0.037 C 
BRANCH   7   8
ATOM      8  C   UNL     1       5.412   1.220  -2.224  1.00  0.00     0.020 C 
BRANCH   8   9
ATOM      9  C   UNL     1       5.994   0.025  -1.456  1.00  0.00     0.078 C 
BRANCH   9  10
ATOM     10  N   UNL     1       5.765   0.047  -0.018  1.00  0.00    -0.330 NA
ATOM     11  H   UNL     1       6.016  -0.853   0.389  1.00  0.00     0.118 HD
ATOM     12  H   UNL     1       4.771   0.169   0.178  1.00  0.00     0.118 HD
ENDBRANCH   9  10
ENDBRANCH   8   9
ENDBRANCH   7   8
ENDBRANCH   1   7
BRANCH   4  13
ATOM     13  N   UNL     1      11.461   3.257  -3.790  1.00  0.00    -0.362 N 
ATOM     14  H   UNL     1      11.866   2.534  -4.372  1.00  0.00     0.166 HD
BRANCH  13  15
ATOM     15  C   UNL     1      12.310   4.206  -3.285  1.00  0.00     0.083 C 
BRANCH  15  16
ATOM     16  C   UNL     1      12.518   5.462  -3.703  1.00  0.00     0.027 C 
BRANCH  16  17
ATOM     17  C   UNL     1      13.364   6.389  -2.936  1.00  0.00    -0.003 A 
ATOM     18  C   UNL     1      14.678   6.707  -3.324  1.00  0.00    -0.041 A 
ATOM     19  C   UNL     1      12.900   6.971  -1.747  1.00  0.00     0.119 A 
ATOM     20  C   UNL     1      15.424   7.583  -2.520  1.00  0.00     0.024 A 
ATOM     21  N   UNL     1      13.599   7.831  -0.970  1.00  0.00    -0.264 NA
ATOM     22  C   UNL     1      14.848   8.119  -1.380  1.00  0.00     0.111 A 
ATOM     23  C   UNL     1      15.322   6.114  -4.545  1.00  0.00     0.045 C 
ENDBRANCH  16  17
ENDBRANCH  15  16
ENDBRANCH  13  15
ENDBRANCH   4  13
TORSDOF 8
ENDMDL
MODEL 9
REMARK VINA RESULT:    -4.637      3.572      5.549
REMARK INTER + INTRA:          -7.286
REMARK INTER:                  -6.723
REMARK INTRA:                  -0.563
REMARK UNBOUND:                -0.615
REMARK SMILES Cc1ccncc1/C=C/Nc1ccc(CCCN)cc1
REMARK SMILES IDX 14 1 13 2 12 3 11 4 20 5 19 6 15 7 16 8 17 9 18 10 10 13
REMARK SMILES IDX 9 15 8 16 7 17 2 18 6 19 3 20 5 21 4 22 1 23
REMARK H PARENT 18 11 18 12 10 14
ROOT
ATOM      1  C   UNL     1      13.856   0.804  -4.711  1.00  0.00    -0.048 A 
ATOM      2  C   UNL     1      14.104   2.098  -4.248  1.00  0.00     0.006 A 
ATOM      3  C   UNL     1      13.169   2.760  -3.457  1.00  0.00     0.026 A 
ATOM      4  C   UNL     1      11.927   2.193  -3.162  1.00  0.00     0.038 A 
ATOM      5  C   UNL     1      11.654   0.919  -3.674  1.00  0.00     0.026 A 
ATOM      6  C   UNL     1      12.608   0.231  -4.440  1.00  0.00     0.006 A 
ENDROOT
BRANCH   1   7
ATOM      7  C   UNL     1      14.901   0.038  -5.483  1.00  0.00     0.037 C 
BRANCH   7   8
ATOM      8  C   UNL     1      14.557  -0.324  -6.941  1.00  0.00     0.020 C 
BRANCH   8   9
ATOM      9  C   UNL     1      15.684  -0.131  -7.967  1.00  0.00     0.078 C 
BRANCH   9  10
ATOM     10  N   UNL     1      15.478   0.960  -8.909  1.00  0.00    -0.330 NA
ATOM     11  H   UNL     1      16.341   1.146  -9.420  1.00  0.00     0.118 HD
ATOM     12  H   UNL     1      15.266   1.822  -8.407  1.00  0.00     0.118 HD
ENDBRANCH   9  10
ENDBRANCH   8   9
ENDBRANCH   7   8
ENDBRANCH   1   7
BRANCH   4  13
ATOM     13  N   UNL     1      10.931   2.904  -2.464  1.00  0.00    -0.362 N 
ATOM     14  H   UNL     1      11.224   3.390  -1.625  1.00  0.00     0.166 HD
BRANCH  13  15
ATOM     15  C   UNL     1       9.584   2.779  -2.679  1.00  0.00     0.083 C 
BRANCH  15  16
ATOM     16  C   UNL     1       8.608   2.519  -1.799  1.00  0.00     0.027 C 
BRANCH  16  17
ATOM     17  C   UNL     1       7.204   2.832  -2.105  1.00  0.00    -0.003 A 
ATOM     18  C   UNL     1       6.171   1.889  -1.957  1.00  0.00    -0.041 A 
ATOM     19  C   UNL     1       6.839   4.094  -2.599  1.00  0.00     0.119 A 
ATOM     20  C   UNL     1       4.862   2.265  -2.294  1.00  0.00     0.024 A 
ATOM     21  N   UNL     1       5.580   4.478  -2.912  1.00  0.00    -0.264 NA
ATOM     22  C   UNL     1       4.619   3.551  -2.748  1.00  0.00     0.111 A 
ATOM     23  C   UNL     1       6.426   0.484  -1.489  1.00  0.00     0.045 C 
ENDBRANCH  16  17
ENDBRANCH  15  16
ENDBRANCH  13  15
ENDBRANCH   4  13
TORSDOF 8
ENDMDL
