MODEL 1
REMARK VINA RESULT:    -5.037      0.000      0.000
REMARK INTER + INTRA:          -7.865
REMARK INTER:                  -7.246
REMARK INTRA:                  -0.619
REMARK UNBOUND:                -0.619
REMARK SMILES Cc1ccncc1/C=C/Nc1ccc(CCCN)cc1
REMARK SMILES IDX 14 1 13 2 12 3 11 4 20 5 19 6 15 7 16 8 17 9 18 10 10 13
REMARK SMILES IDX 9 15 8 16 7 17 2 18 6 19 3 20 5 21 4 22 1 23
REMARK H PARENT 18 11 18 12 10 14
ROOT
ATOM      1  C   UNL     1       9.290 -11.803  -5.587  1.00  0.00    -0.048 A 
ATOM      2  C   UNL     1       8.729 -11.060  -4.546  1.00  0.00     0.006 A 
ATOM      3  C   UNL     1       7.969  -9.925  -4.813  1.00  0.00     0.026 A 
ATOM      4  C   UNL     1       7.804  -9.444  -6.114  1.00  0.00     0.038 A 
ATOM      5  C   UNL     1       8.413 -10.156  -7.154  1.00  0.00     0.026 A 
ATOM      6  C   UNL     1       9.148 -11.323  -6.895  1.00  0.00     0.006 A 
ENDROOT
BRANCH   1   7
ATOM      7  C   UNL     1      10.029 -13.090  -5.318  1.00  0.00     0.037 C 
BRANCH   7   8
ATOM      8  C   UNL     1       9.207 -14.249  -4.722  1.00  0.00     0.020 C 
BRANCH   8   9
ATOM      9  C   UNL     1       8.892 -15.411  -5.676  1.00  0.00     0.078 C 
BRANCH   9  10
ATOM     10  N   UNL     1       7.479 -15.591  -5.980  1.00  0.00    -0.330 NA
ATOM     11  H   UNL     1       7.357 -15.767  -6.977  1.00  0.00     0.118 HD
ATOM     12  H   UNL     1       6.966 -14.731  -5.789  1.00  0.00     0.118 HD
ENDBRANCH   9  10
ENDBRANCH   8   9
ENDBRANCH   7   8
ENDBRANCH   1   7
BRANCH   4  13
ATOM     13  N   UNL     1       7.138  -8.232  -6.381  1.00  0.00    -0.362 N 
ATOM     14  H   UNL     1       7.720  -7.425  -6.564  1.00  0.00     0.166 HD
BRANCH  13  15
ATOM     15  C   UNL     1       5.805  -8.007  -6.161  1.00  0.00     0.083 C 
BRANCH  15  16
ATOM     16  C   UNL     1       5.141  -6.845  -6.105  1.00  0.00     0.027 C 
BRANCH  16  17
ATOM     17  C   UNL     1       4.288  -6.509  -4.955  1.00  0.00    -0.003 A 
ATOM     18  C   UNL     1       4.114  -5.189  -4.505  1.00  0.00    -0.041 A 
ATOM     19  C   UNL     1       3.632  -7.514  -4.228  1.00  0.00     0.119 A 
ATOM     20  C   UNL     1       3.300  -4.960  -3.385  1.00  0.00     0.024 A 
ATOM     21  N   UNL     1       2.830  -7.310  -3.157  1.00  0.00    -0.264 NA
ATOM     22  C   UNL     1       2.682  -6.033  -2.763  1.00  0.00     0.111 A 
ATOM     23  C   UNL     1       4.799  -4.020  -5.157  1.00  0.00     0.045 C 
ENDBRANCH  16  17
ENDBRANCH  15  16
ENDBRANCH  13  15
ENDBRANCH   4  13
TORSDOF 8
ENDMDL
MODEL 2
REMARK VINA RESULT:    -5.017      4.727      6.762
REMARK INTER + INTRA:          -7.837
REMARK INTER:                  -7.215
REMARK INTRA:                  -0.621
REMARK UNBOUND:                -0.619
REMARK SMILES Cc1ccncc1/C=C/Nc1ccc(CCCN)cc1
REMARK SMILES IDX 14 1 13 2 12 3 11 4 20 5 19 6 15 7 16 8 17 9 18 10 10 13
REMARK SMILES IDX 9 15 8 16 7 17 2 18 6 19 3 20 5 21 4 22 1 23
REMARK H PARENT 18 11 18 12 10 14
ROOT
ATOM      1  C   UNL     1       2.952  -9.408 -11.393  1.00  0.00    -0.048 A 
ATOM      2  C   UNL     1       2.618  -8.275 -10.648  1.00  0.00     0.006 A 
ATOM      3  C   UNL     1       2.860  -8.229  -9.278  1.00  0.00     0.026 A 
ATOM      4  C   UNL     1       3.370  -9.331  -8.587  1.00  0.00     0.038 A 
ATOM      5  C   UNL     1       3.652 -10.488  -9.324  1.00  0.00     0.026 A 
ATOM      6  C   UNL     1       3.446 -10.527 -10.712  1.00  0.00     0.006 A 
ENDROOT
BRANCH   1   7
ATOM      7  C   UNL     1       2.788  -9.432 -12.892  1.00  0.00     0.037 C 
BRANCH   7   8
ATOM      8  C   UNL     1       3.484  -8.308 -13.683  1.00  0.00     0.020 C 
BRANCH   8   9
ATOM      9  C   UNL     1       4.678  -8.734 -14.551  1.00  0.00     0.078 C 
BRANCH   9  10
ATOM     10  N   UNL     1       5.981  -8.583 -13.920  1.00  0.00    -0.330 NA
ATOM     11  H   UNL     1       6.523  -9.440 -14.031  1.00  0.00     0.118 HD
ATOM     12  H   UNL     1       5.873  -8.457 -12.914  1.00  0.00     0.118 HD
ENDBRANCH   9  10
ENDBRANCH   8   9
ENDBRANCH   7   8
ENDBRANCH   1   7
BRANCH   4  13
ATOM     13  N   UNL     1       3.506  -9.334  -7.186  1.00  0.00    -0.362 N 
ATOM     14  H   UNL     1       2.949 -10.008  -6.677  1.00  0.00     0.166 HD
BRANCH  13  15
ATOM     15  C   UNL     1       4.118  -8.348  -6.458  1.00  0.00     0.083 C 
BRANCH  15  16
ATOM     16  C   UNL     1       4.027  -8.085  -5.147  1.00  0.00     0.027 C 
BRANCH  16  17
ATOM     17  C   UNL     1       4.051  -6.703  -4.645  1.00  0.00    -0.003 A 
ATOM     18  C   UNL     1       3.377  -6.314  -3.474  1.00  0.00    -0.041 A 
ATOM     19  C   UNL     1       4.727  -5.693  -5.347  1.00  0.00     0.119 A 
ATOM     20  C   UNL     1       3.433  -4.969  -3.078  1.00  0.00     0.024 A 
ATOM     21  N   UNL     1       4.806  -4.395  -4.971  1.00  0.00    -0.264 NA
ATOM     22  C   UNL     1       4.157  -4.065  -3.840  1.00  0.00     0.111 A 
ATOM     23  C   UNL     1       2.570  -7.280  -2.652  1.00  0.00     0.045 C 
ENDBRANCH  16  17
ENDBRANCH  15  16
ENDBRANCH  13  15
ENDBRANCH   4  13
TORSDOF 8
ENDMDL
MODEL 3
REMARK VINA RESULT:    -4.834      1.164      1.719
REMARK INTER + INTRA:          -7.572
REMARK INTER:                  -6.898
REMARK INTRA:                  -0.674
REMARK UNBOUND:                -0.619
REMARK SMILES Cc1ccncc1/C=C/Nc1ccc(CCCN)cc1
REMARK SMILES IDX 14 1 13 2 12 3 11 4 20 5 19 6 15 7 16 8 17 9 18 10 10 13
REMARK SMILES IDX 9 15 8 16 7 17 2 18 6 19 3 20 5 21 4 22 1 23
REMARK H PARENT 18 11 18 12 10 14
ROOT
ATOM      1  C   UNL     1       9.115 -11.535  -5.648  1.00  0.00    -0.048 A 
ATOM      2  C   UNL     1       8.579 -10.857  -4.551  1.00  0.00     0.006 A 
ATOM      3  C   UNL     1       7.735  -9.765  -4.734  1.00  0.00     0.026 A 
ATOM      4  C   UNL     1       7.456  -9.261  -6.007  1.00  0.00     0.038 A 
ATOM      5  C   UNL     1       8.038  -9.905  -7.105  1.00  0.00     0.026 A 
ATOM      6  C   UNL     1       8.859 -11.030  -6.928  1.00  0.00     0.006 A 
ENDROOT
BRANCH   1   7
ATOM      7  C   UNL     1       9.948 -12.779  -5.465  1.00  0.00     0.037 C 
BRANCH   7   8
ATOM      8  C   UNL     1       9.429 -13.816  -4.450  1.00  0.00     0.020 C 
BRANCH   8   9
ATOM      9  C   UNL     1       9.071 -15.196  -5.021  1.00  0.00     0.078 C 
BRANCH   9  10
ATOM     10  N   UNL     1       7.728 -15.304  -5.574  1.00  0.00    -0.330 NA
ATOM     11  H   UNL     1       7.665 -16.122  -6.178  1.00  0.00     0.118 HD
ATOM     12  H   UNL     1       7.530 -14.504  -6.175  1.00  0.00     0.118 HD
ENDBRANCH   9  10
ENDBRANCH   8   9
ENDBRANCH   7   8
ENDBRANCH   1   7
BRANCH   4  13
ATOM     13  N   UNL     1       6.700  -8.087  -6.193  1.00  0.00    -0.362 N 
ATOM     14  H   UNL     1       7.187  -7.209  -6.066  1.00  0.00     0.166 HD
BRANCH  13  15
ATOM     15  C   UNL     1       5.334  -8.041  -6.275  1.00  0.00     0.083 C 
BRANCH  15  16
ATOM     16  C   UNL     1       4.435  -7.842  -5.302  1.00  0.00     0.027 C 
BRANCH  16  17
ATOM     17  C   UNL     1       4.263  -6.519  -4.682  1.00  0.00    -0.003 A 
ATOM     18  C   UNL     1       3.493  -6.324  -3.522  1.00  0.00    -0.041 A 
ATOM     19  C   UNL     1       4.838  -5.376  -5.256  1.00  0.00     0.119 A 
ATOM     20  C   UNL     1       3.361  -5.024  -3.011  1.00  0.00     0.024 A 
ATOM     21  N   UNL     1       4.736  -4.118  -4.766  1.00  0.00    -0.264 NA
ATOM     22  C   UNL     1       4.000  -3.974  -3.650  1.00  0.00     0.111 A 
ATOM     23  C   UNL     1       2.776  -7.452  -2.833  1.00  0.00     0.045 C 
ENDBRANCH  16  17
ENDBRANCH  15  16
ENDBRANCH  13  15
ENDBRANCH   4  13
TORSDOF 8
ENDMDL
MODEL 4
REMARK VINA RESULT:    -4.827      4.416      6.368
REMARK INTER + INTRA:          -7.563
REMARK INTER:                  -6.910
REMARK INTRA:                  -0.653
REMARK UNBOUND:                -0.619
REMARK SMILES Cc1ccncc1/C=C/Nc1ccc(CCCN)cc1
REMARK SMILES IDX 14 1 13 2 12 3 11 4 20 5 19 6 15 7 16 8 17 9 18 10 10 13
REMARK SMILES IDX 9 15 8 16 7 17 2 18 6 19 3 20 5 21 4 22 1 23
REMARK H PARENT 18 11 18 12 10 14
ROOT
ATOM      1  C   UNL     1       2.961  -9.335 -10.817  1.00  0.00    -0.048 A 
ATOM      2  C   UNL     1       2.506  -8.205 -10.134  1.00  0.00     0.006 A 
ATOM      3  C   UNL     1       2.760  -8.045  -8.775  1.00  0.00     0.026 A 
ATOM      4  C   UNL     1       3.407  -9.035  -8.030  1.00  0.00     0.038 A 
ATOM      5  C   UNL     1       3.813 -10.194  -8.702  1.00  0.00     0.026 A 
ATOM      6  C   UNL     1       3.593 -10.344 -10.080  1.00  0.00     0.006 A 
ENDROOT
BRANCH   1   7
ATOM      7  C   UNL     1       2.779  -9.472 -12.308  1.00  0.00     0.037 C 
BRANCH   7   8
ATOM      8  C   UNL     1       3.405  -8.370 -13.185  1.00  0.00     0.020 C 
BRANCH   8   9
ATOM      9  C   UNL     1       4.442  -8.838 -14.216  1.00  0.00     0.078 C 
BRANCH   9  10
ATOM     10  N   UNL     1       5.820  -8.480 -13.909  1.00  0.00    -0.330 NA
ATOM     11  H   UNL     1       6.371  -8.448 -14.766  1.00  0.00     0.118 HD
ATOM     12  H   UNL     1       6.251  -9.204 -13.334  1.00  0.00     0.118 HD
ENDBRANCH   9  10
ENDBRANCH   8   9
ENDBRANCH   7   8
ENDBRANCH   1   7
BRANCH   4  13
ATOM     13  N   UNL     1       3.562  -8.934  -6.634  1.00  0.00    -0.362 N 
ATOM     14  H   UNL     1       2.760  -9.184  -6.069  1.00  0.00     0.166 HD
BRANCH  13  15
ATOM     15  C   UNL     1       4.597  -8.293  -6.007  1.00  0.00     0.083 C 
BRANCH  15  16
ATOM     16  C   UNL     1       4.753  -6.987  -5.751  1.00  0.00     0.027 C 
BRANCH  16  17
ATOM     17  C   UNL     1       3.986  -6.323  -4.686  1.00  0.00    -0.003 A 
ATOM     18  C   UNL     1       4.012  -4.930  -4.495  1.00  0.00    -0.041 A 
ATOM     19  C   UNL     1       3.217  -7.069  -3.781  1.00  0.00     0.119 A 
ATOM     20  C   UNL     1       3.270  -4.381  -3.439  1.00  0.00     0.024 A 
ATOM     21  N   UNL     1       2.481  -6.554  -2.768  1.00  0.00    -0.264 NA
ATOM     22  C   UNL     1       2.524  -5.217  -2.624  1.00  0.00     0.111 A 
ATOM     23  C   UNL     1       4.836  -4.015  -5.357  1.00  0.00     0.045 C 
ENDBRANCH  16  17
ENDBRANCH  15  16
ENDBRANCH  13  15
ENDBRANCH   4  13
TORSDOF 8
ENDMDL
MODEL 5
REMARK VINA RESULT:    -4.789      4.590      8.516
REMARK INTER + INTRA:          -7.509
REMARK INTER:                  -6.912
REMARK INTRA:                  -0.597
REMARK UNBOUND:                -0.619
REMARK SMILES Cc1ccncc1/C=C/Nc1ccc(CCCN)cc1
REMARK SMILES IDX 14 1 13 2 12 3 11 4 20 5 19 6 15 7 16 8 17 9 18 10 10 13
REMARK SMILES IDX 9 15 8 16 7 17 2 18 6 19 3 20 5 21 4 22 1 23
REMARK H PARENT 18 11 18 12 10 14
ROOT
ATOM      1  C   UNL     1       3.582  -6.212  -3.431  1.00  0.00    -0.048 A 
ATOM      2  C   UNL     1       3.196  -7.542  -3.614  1.00  0.00     0.006 A 
ATOM      3  C   UNL     1       3.619  -8.256  -4.732  1.00  0.00     0.026 A 
ATOM      4  C   UNL     1       4.374  -7.656  -5.742  1.00  0.00     0.038 A 
ATOM      5  C   UNL     1       4.713  -6.306  -5.587  1.00  0.00     0.026 A 
ATOM      6  C   UNL     1       4.322  -5.592  -4.444  1.00  0.00     0.006 A 
ENDROOT
BRANCH   1   7
ATOM      7  C   UNL     1       3.215  -5.459  -2.177  1.00  0.00     0.037 C 
BRANCH   7   8
ATOM      8  C   UNL     1       2.098  -4.405  -2.305  1.00  0.00     0.020 C 
BRANCH   8   9
ATOM      9  C   UNL     1       0.718  -4.934  -2.722  1.00  0.00     0.078 C 
BRANCH   9  10
ATOM     10  N   UNL     1      -0.016  -5.632  -1.677  1.00  0.00    -0.330 NA
ATOM     11  H   UNL     1      -1.003  -5.694  -1.924  1.00  0.00     0.118 HD
ATOM     12  H   UNL     1       0.015  -5.098  -0.808  1.00  0.00     0.118 HD
ENDBRANCH   9  10
ENDBRANCH   8   9
ENDBRANCH   7   8
ENDBRANCH   1   7
BRANCH   4  13
ATOM     13  N   UNL     1       4.704  -8.337  -6.930  1.00  0.00    -0.362 N 
ATOM     14  H   UNL     1       5.685  -8.536  -7.081  1.00  0.00     0.166 HD
BRANCH  13  15
ATOM     15  C   UNL     1       3.856  -8.516  -7.990  1.00  0.00     0.083 C 
BRANCH  15  16
ATOM     16  C   UNL     1       3.422  -9.657  -8.542  1.00  0.00     0.027 C 
BRANCH  16  17
ATOM     17  C   UNL     1       3.238  -9.778  -9.996  1.00  0.00    -0.003 A 
ATOM     18  C   UNL     1       3.637 -10.919 -10.715  1.00  0.00    -0.041 A 
ATOM     19  C   UNL     1       2.682  -8.727 -10.741  1.00  0.00     0.119 A 
ATOM     20  C   UNL     1       3.446 -10.942 -12.105  1.00  0.00     0.024 A 
ATOM     21  N   UNL     1       2.474  -8.740 -12.079  1.00  0.00    -0.264 NA
ATOM     22  C   UNL     1       2.860  -9.852 -12.729  1.00  0.00     0.111 A 
ATOM     23  C   UNL     1       4.296 -12.097 -10.053  1.00  0.00     0.045 C 
ENDBRANCH  16  17
ENDBRANCH  15  16
ENDBRANCH  13  15
ENDBRANCH   4  13
TORSDOF 8
ENDMDL
MODEL 6
REMARK VINA RESULT:    -4.682      4.519      8.474
REMARK INTER + INTRA:          -7.354
REMARK INTER:                  -6.760
REMARK INTRA:                  -0.594
REMARK UNBOUND:                -0.619
REMARK SMILES Cc1ccncc1/C=C/Nc1ccc(CCCN)cc1
REMARK SMILES IDX 14 1 13 2 12 3 11 4 20 5 19 6 15 7 16 8 17 9 18 10 10 13
REMARK SMILES IDX 9 15 8 16 7 17 2 18 6 19 3 20 5 21 4 22 1 23
REMARK H PARENT 18 11 18 12 10 14
ROOT
ATOM      1  C   UNL     1       4.471  -6.049  -4.377  1.00  0.00    -0.048 A 
ATOM      2  C   UNL     1       3.738  -7.231  -4.251  1.00  0.00     0.006 A 
ATOM      3  C   UNL     1       3.812  -8.220  -5.227  1.00  0.00     0.026 A 
ATOM      4  C   UNL     1       4.553  -8.040  -6.397  1.00  0.00     0.038 A 
ATOM      5  C   UNL     1       5.244  -6.832  -6.551  1.00  0.00     0.026 A 
ATOM      6  C   UNL     1       5.204  -5.847  -5.553  1.00  0.00     0.006 A 
ENDROOT
BRANCH   1   7
ATOM      7  C   UNL     1       4.479  -5.014  -3.279  1.00  0.00     0.037 C 
BRANCH   7   8
ATOM      8  C   UNL     1       4.932  -3.594  -3.670  1.00  0.00     0.020 C 
BRANCH   8   9
ATOM      9  C   UNL     1       5.646  -2.790  -2.574  1.00  0.00     0.078 C 
BRANCH   9  10
ATOM     10  N   UNL     1       4.981  -2.788  -1.280  1.00  0.00    -0.330 NA
ATOM     11  H   UNL     1       4.829  -1.830  -0.967  1.00  0.00     0.118 HD
ATOM     12  H   UNL     1       5.583  -3.214  -0.574  1.00  0.00     0.118 HD
ENDBRANCH   9  10
ENDBRANCH   8   9
ENDBRANCH   7   8
ENDBRANCH   1   7
BRANCH   4  13
ATOM     13  N   UNL     1       4.537  -8.984  -7.442  1.00  0.00    -0.362 N 
ATOM     14  H   UNL     1       5.426  -9.191  -7.881  1.00  0.00     0.166 HD
BRANCH  13  15
ATOM     15  C   UNL     1       3.407  -9.440  -8.068  1.00  0.00     0.083 C 
BRANCH  15  16
ATOM     16  C   UNL     1       3.055  -9.337  -9.356  1.00  0.00     0.027 C 
BRANCH  16  17
ATOM     17  C   UNL     1       3.512 -10.318 -10.352  1.00  0.00    -0.003 A 
ATOM     18  C   UNL     1       3.310 -10.142 -11.732  1.00  0.00    -0.041 A 
ATOM     19  C   UNL     1       4.144 -11.506  -9.954  1.00  0.00     0.119 A 
ATOM     20  C   UNL     1       3.758 -11.139 -12.611  1.00  0.00     0.024 A 
ATOM     21  N   UNL     1       4.598 -12.470 -10.789  1.00  0.00    -0.264 NA
ATOM     22  C   UNL     1       4.395 -12.260 -12.102  1.00  0.00     0.111 A 
ATOM     23  C   UNL     1       2.600  -8.943 -12.294  1.00  0.00     0.045 C 
ENDBRANCH  16  17
ENDBRANCH  15  16
ENDBRANCH  13  15
ENDBRANCH   4  13
TORSDOF 8
ENDMDL
MODEL 7
REMARK VINA RESULT:    -4.658      4.402      8.455
REMARK INTER + INTRA:          -7.320
REMARK INTER:                  -6.790
REMARK INTRA:                  -0.529
REMARK UNBOUND:                -0.619
REMARK SMILES Cc1ccncc1/C=C/Nc1ccc(CCCN)cc1
REMARK SMILES IDX 14 1 13 2 12 3 11 4 20 5 19 6 15 7 16 8 17 9 18 10 10 13
REMARK SMILES IDX 9 15 8 16 7 17 2 18 6 19 3 20 5 21 4 22 1 23
REMARK H PARENT 18 11 18 12 10 14
ROOT
ATOM      1  C   UNL     1       3.608  -6.661  -3.682  1.00  0.00    -0.048 A 
ATOM      2  C   UNL     1       3.176  -7.986  -3.772  1.00  0.00     0.006 A 
ATOM      3  C   UNL     1       3.540  -8.780  -4.856  1.00  0.00     0.026 A 
ATOM      4  C   UNL     1       4.279  -8.266  -5.924  1.00  0.00     0.038 A 
ATOM      5  C   UNL     1       4.665  -6.921  -5.862  1.00  0.00     0.026 A 
ATOM      6  C   UNL     1       4.333  -6.127  -4.754  1.00  0.00     0.006 A 
ENDROOT
BRANCH   1   7
ATOM      7  C   UNL     1       3.304  -5.822  -2.466  1.00  0.00     0.037 C 
BRANCH   7   8
ATOM      8  C   UNL     1       2.128  -4.834  -2.583  1.00  0.00     0.020 C 
BRANCH   8   9
ATOM      9  C   UNL     1       0.752  -5.455  -2.867  1.00  0.00     0.078 C 
BRANCH   9  10
ATOM     10  N   UNL     1      -0.119  -5.578  -1.707  1.00  0.00    -0.330 NA
ATOM     11  H   UNL     1      -0.628  -4.708  -1.560  1.00  0.00     0.118 HD
ATOM     12  H   UNL     1       0.437  -5.716  -0.863  1.00  0.00     0.118 HD
ENDBRANCH   9  10
ENDBRANCH   8   9
ENDBRANCH   7   8
ENDBRANCH   1   7
BRANCH   4  13
ATOM     13  N   UNL     1       4.549  -9.027  -7.077  1.00  0.00    -0.362 N 
ATOM     14  H   UNL     1       5.377  -9.609  -7.053  1.00  0.00     0.166 HD
BRANCH  13  15
ATOM     15  C   UNL     1       3.942  -8.851  -8.292  1.00  0.00     0.083 C 
BRANCH  15  16
ATOM     16  C   UNL     1       3.111  -9.670  -8.950  1.00  0.00     0.027 C 
BRANCH  16  17
ATOM     17  C   UNL     1       3.590 -10.514 -10.055  1.00  0.00    -0.003 A 
ATOM     18  C   UNL     1       3.304 -10.227 -11.401  1.00  0.00    -0.041 A 
ATOM     19  C   UNL     1       4.331 -11.679  -9.802  1.00  0.00     0.119 A 
ATOM     20  C   UNL     1       3.781 -11.099 -12.392  1.00  0.00     0.024 A 
ATOM     21  N   UNL     1       4.813 -12.521 -10.747  1.00  0.00    -0.264 NA
ATOM     22  C   UNL     1       4.527 -12.207 -12.023  1.00  0.00     0.111 A 
ATOM     23  C   UNL     1       2.476  -9.042 -11.813  1.00  0.00     0.045 C 
ENDBRANCH  16  17
ENDBRANCH  15  16
ENDBRANCH  13  15
ENDBRANCH   4  13
TORSDOF 8
ENDMDL
MODEL 8
REMARK VINA RESULT:    -4.652      1.941      8.519
REMARK INTER + INTRA:          -7.310
REMARK INTER:                  -6.854
REMARK INTRA:                  -0.457
REMARK UNBOUND:                -0.619
REMARK SMILES Cc1ccncc1/C=C/Nc1ccc(CCCN)cc1
REMARK SMILES IDX 14 1 13 2 12 3 11 4 20 5 19 6 15 7 16 8 17 9 18 10 10 13
REMARK SMILES IDX 9 15 8 16 7 17 2 18 6 19 3 20 5 21 4 22 1 23
REMARK H PARENT 18 11 18 12 10 14
ROOT
ATOM      1  C   UNL     1       3.677  -5.372  -4.451  1.00  0.00    -0.048 A 
ATOM      2  C   UNL     1       4.693  -5.150  -5.383  1.00  0.00     0.006 A 
ATOM      3  C   UNL     1       5.269  -6.213  -6.073  1.00  0.00     0.026 A 
ATOM      4  C   UNL     1       4.913  -7.537  -5.806  1.00  0.00     0.038 A 
ATOM      5  C   UNL     1       3.935  -7.765  -4.831  1.00  0.00     0.026 A 
ATOM      6  C   UNL     1       3.323  -6.695  -4.160  1.00  0.00     0.006 A 
ENDROOT
BRANCH   1   7
ATOM      7  C   UNL     1       2.976  -4.222  -3.772  1.00  0.00     0.037 C 
BRANCH   7   8
ATOM      8  C   UNL     1       3.540  -3.775  -2.410  1.00  0.00     0.020 C 
BRANCH   8   9
ATOM      9  C   UNL     1       4.954  -3.176  -2.431  1.00  0.00     0.078 C 
BRANCH   9  10
ATOM     10  N   UNL     1       5.351  -2.494  -1.207  1.00  0.00    -0.330 NA
ATOM     11  H   UNL     1       6.087  -3.020  -0.738  1.00  0.00     0.118 HD
ATOM     12  H   UNL     1       4.572  -2.468  -0.550  1.00  0.00     0.118 HD
ENDBRANCH   9  10
ENDBRANCH   8   9
ENDBRANCH   7   8
ENDBRANCH   1   7
BRANCH   4  13
ATOM     13  N   UNL     1       5.575  -8.622  -6.413  1.00  0.00    -0.362 N 
ATOM     14  H   UNL     1       5.122  -9.038  -7.217  1.00  0.00     0.166 HD
BRANCH  13  15
ATOM     15  C   UNL     1       6.623  -9.308  -5.859  1.00  0.00     0.083 C 
BRANCH  15  16
ATOM     16  C   UNL     1       7.892  -9.397  -6.280  1.00  0.00     0.027 C 
BRANCH  16  17
ATOM     17  C   UNL     1       8.664 -10.639  -6.117  1.00  0.00    -0.003 A 
ATOM     18  C   UNL     1       9.144 -11.377  -7.213  1.00  0.00    -0.041 A 
ATOM     19  C   UNL     1       8.922 -11.163  -4.842  1.00  0.00     0.119 A 
ATOM     20  C   UNL     1       9.851 -12.564  -6.968  1.00  0.00     0.024 A 
ATOM     21  N   UNL     1       9.617 -12.297  -4.587  1.00  0.00    -0.264 NA
ATOM     22  C   UNL     1      10.068 -12.969  -5.661  1.00  0.00     0.111 A 
ATOM     23  C   UNL     1       8.895 -10.960  -8.635  1.00  0.00     0.045 C 
ENDBRANCH  16  17
ENDBRANCH  15  16
ENDBRANCH  13  15
ENDBRANCH   4  13
TORSDOF 8
ENDMDL
MODEL 9
REMARK VINA RESULT:    -4.615      1.872      8.624
REMARK INTER + INTRA:          -7.258
REMARK INTER:                  -6.704
REMARK INTRA:                  -0.554
REMARK UNBOUND:                -0.619
REMARK SMILES Cc1ccncc1/C=C/Nc1ccc(CCCN)cc1
REMARK SMILES IDX 14 1 13 2 12 3 11 4 20 5 19 6 15 7 16 8 17 9 18 10 10 13
REMARK SMILES IDX 9 15 8 16 7 17 2 18 6 19 3 20 5 21 4 22 1 23
REMARK H PARENT 18 11 18 12 10 14
ROOT
ATOM      1  C   UNL     1       3.693  -6.410  -4.858  1.00  0.00    -0.048 A 
ATOM      2  C   UNL     1       4.774  -5.997  -5.640  1.00  0.00     0.006 A 
ATOM      3  C   UNL     1       5.594  -6.931  -6.268  1.00  0.00     0.026 A 
ATOM      4  C   UNL     1       5.417  -8.304  -6.080  1.00  0.00     0.038 A 
ATOM      5  C   UNL     1       4.369  -8.718  -5.250  1.00  0.00     0.026 A 
ATOM      6  C   UNL     1       3.516  -7.782  -4.646  1.00  0.00     0.006 A 
ENDROOT
BRANCH   1   7
ATOM      7  C   UNL     1       2.739  -5.409  -4.256  1.00  0.00     0.037 C 
BRANCH   7   8
ATOM      8  C   UNL     1       2.011  -5.837  -2.967  1.00  0.00     0.020 C 
BRANCH   8   9
ATOM      9  C   UNL     1       0.793  -4.991  -2.569  1.00  0.00     0.078 C 
BRANCH   9  10
ATOM     10  N   UNL     1      -0.187  -5.675  -1.737  1.00  0.00    -0.330 NA
ATOM     11  H   UNL     1      -0.727  -4.995  -1.204  1.00  0.00     0.118 HD
ATOM     12  H   UNL     1       0.285  -6.254  -1.043  1.00  0.00     0.118 HD
ENDBRANCH   9  10
ENDBRANCH   8   9
ENDBRANCH   7   8
ENDBRANCH   1   7
BRANCH   4  13
ATOM     13  N   UNL     1       6.313  -9.249  -6.615  1.00  0.00    -0.362 N 
ATOM     14  H   UNL     1       5.906 -10.087  -7.012  1.00  0.00     0.166 HD
BRANCH  13  15
ATOM     15  C   UNL     1       7.668  -9.246  -6.411  1.00  0.00     0.083 C 
BRANCH  15  16
ATOM     16  C   UNL     1       8.459 -10.233  -5.970  1.00  0.00     0.027 C 
BRANCH  16  17
ATOM     17  C   UNL     1       8.968 -11.268  -6.883  1.00  0.00    -0.003 A 
ATOM     18  C   UNL     1       9.678 -12.393  -6.427  1.00  0.00    -0.041 A 
ATOM     19  C   UNL     1       8.795 -11.152  -8.270  1.00  0.00     0.119 A 
ATOM     20  C   UNL     1      10.149 -13.319  -7.369  1.00  0.00     0.024 A 
ATOM     21  N   UNL     1       9.227 -12.045  -9.191  1.00  0.00    -0.264 NA
ATOM     22  C   UNL     1       9.893 -13.112  -8.715  1.00  0.00     0.111 A 
ATOM     23  C   UNL     1       9.983 -12.617  -4.972  1.00  0.00     0.045 C 
ENDBRANCH  16  17
ENDBRANCH  15  16
ENDBRANCH  13  15
ENDBRANCH   4  13
TORSDOF 8
ENDMDL
