MODEL 1
REMARK VINA RESULT:    -5.112      0.000      0.000
REMARK INTER + INTRA:          -8.017
REMARK INTER:                  -7.353
REMARK INTRA:                  -0.664
REMARK UNBOUND:                -0.664
REMARK SMILES Cc1ccncc1/C=C/Nc1ccc(CCCN)cc1
REMARK SMILES IDX 14 1 13 2 12 3 11 4 20 5 19 6 15 7 16 8 17 9 18 10 10 13
REMARK SMILES IDX 9 15 8 16 7 17 2 18 6 19 3 20 5 21 4 22 1 23
REMARK H PARENT 18 11 18 12 10 14
ROOT
ATOM      1  C   UNL     1      12.903 -11.038   2.565  1.00  0.00    -0.048 A 
ATOM      2  C   UNL     1      13.919 -10.420   1.833  1.00  0.00     0.006 A 
ATOM      3  C   UNL     1      13.661  -9.271   1.090  1.00  0.00     0.026 A 
ATOM      4  C   UNL     1      12.373  -8.741   0.986  1.00  0.00     0.038 A 
ATOM      5  C   UNL     1      11.342  -9.392   1.674  1.00  0.00     0.026 A 
ATOM      6  C   UNL     1      11.603 -10.528   2.455  1.00  0.00     0.006 A 
ENDROOT
BRANCH   1   7
ATOM      7  C   UNL     1      13.191 -12.223   3.453  1.00  0.00     0.037 C 
BRANCH   7   8
ATOM      8  C   UNL     1      12.147 -13.357   3.454  1.00  0.00     0.020 C 
BRANCH   8   9
ATOM      9  C   UNL     1      12.554 -14.646   2.726  1.00  0.00     0.078 C 
BRANCH   9  10
ATOM     10  N   UNL     1      12.626 -14.537   1.276  1.00  0.00    -0.330 NA
ATOM     11  H   UNL     1      13.396 -15.104   0.921  1.00  0.00     0.118 HD
ATOM     12  H   UNL     1      12.846 -13.578   1.005  1.00  0.00     0.118 HD
ENDBRANCH   9  10
ENDBRANCH   8   9
ENDBRANCH   7   8
ENDBRANCH   1   7
BRANCH   4  13
ATOM     13  N   UNL     1      12.083  -7.651   0.143  1.00  0.00    -0.362 N 
ATOM     14  H   UNL     1      12.379  -6.737   0.463  1.00  0.00     0.166 HD
BRANCH  13  15
ATOM     15  C   UNL     1      11.225  -7.694  -0.925  1.00  0.00     0.083 C 
BRANCH  15  16
ATOM     16  C   UNL     1      10.752  -6.687  -1.670  1.00  0.00     0.027 C 
BRANCH  16  17
ATOM     17  C   UNL     1       9.328  -6.607  -2.028  1.00  0.00    -0.003 A 
ATOM     18  C   UNL     1       8.625  -5.389  -2.060  1.00  0.00    -0.041 A 
ATOM     19  C   UNL     1       8.593  -7.766  -2.319  1.00  0.00     0.119 A 
ATOM     20  C   UNL     1       7.261  -5.407  -2.389  1.00  0.00     0.024 A 
ATOM     21  N   UNL     1       7.282  -7.799  -2.655  1.00  0.00    -0.264 NA
ATOM     22  C   UNL     1       6.648  -6.614  -2.685  1.00  0.00     0.111 A 
ATOM     23  C   UNL     1       9.274  -4.077  -1.719  1.00  0.00     0.045 C 
ENDBRANCH  16  17
ENDBRANCH  15  16
ENDBRANCH  13  15
ENDBRANCH   4  13
TORSDOF 8
ENDMDL
MODEL 2
REMARK VINA RESULT:    -5.051      1.333      1.913
REMARK INTER + INTRA:          -7.929
REMARK INTER:                  -7.300
REMARK INTRA:                  -0.630
REMARK UNBOUND:                -0.664
REMARK SMILES Cc1ccncc1/C=C/Nc1ccc(CCCN)cc1
REMARK SMILES IDX 14 1 13 2 12 3 11 4 20 5 19 6 15 7 16 8 17 9 18 10 10 13
REMARK SMILES IDX 9 15 8 16 7 17 2 18 6 19 3 20 5 21 4 22 1 23
REMARK H PARENT 18 11 18 12 10 14
ROOT
ATOM      1  C   UNL     1      13.011 -11.087   2.579  1.00  0.00    -0.048 A 
ATOM      2  C   UNL     1      13.956 -10.460   1.765  1.00  0.00     0.006 A 
ATOM      3  C   UNL     1      13.612  -9.346   1.005  1.00  0.00     0.026 A 
ATOM      4  C   UNL     1      12.302  -8.864   0.965  1.00  0.00     0.038 A 
ATOM      5  C   UNL     1      11.340  -9.526   1.736  1.00  0.00     0.026 A 
ATOM      6  C   UNL     1      11.690 -10.626   2.534  1.00  0.00     0.006 A 
ENDROOT
BRANCH   1   7
ATOM      7  C   UNL     1      13.396 -12.231   3.483  1.00  0.00     0.037 C 
BRANCH   7   8
ATOM      8  C   UNL     1      12.353 -13.351   3.664  1.00  0.00     0.020 C 
BRANCH   8   9
ATOM      9  C   UNL     1      12.588 -14.628   2.843  1.00  0.00     0.078 C 
BRANCH   9  10
ATOM     10  N   UNL     1      12.492 -14.459   1.400  1.00  0.00    -0.330 NA
ATOM     11  H   UNL     1      13.360 -14.756   0.956  1.00  0.00     0.118 HD
ATOM     12  H   UNL     1      12.390 -13.471   1.168  1.00  0.00     0.118 HD
ENDBRANCH   9  10
ENDBRANCH   8   9
ENDBRANCH   7   8
ENDBRANCH   1   7
BRANCH   4  13
ATOM     13  N   UNL     1      11.921  -7.813   0.108  1.00  0.00    -0.362 N 
ATOM     14  H   UNL     1      11.744  -6.915   0.541  1.00  0.00     0.166 HD
BRANCH  13  15
ATOM     15  C   UNL     1      11.528  -7.970  -1.195  1.00  0.00     0.083 C 
BRANCH  15  16
ATOM     16  C   UNL     1      10.390  -7.584  -1.788  1.00  0.00     0.027 C 
BRANCH  16  17
ATOM     17  C   UNL     1       9.930  -6.189  -1.717  1.00  0.00    -0.003 A 
ATOM     18  C   UNL     1       8.591  -5.824  -1.942  1.00  0.00    -0.041 A 
ATOM     19  C   UNL     1      10.831  -5.146  -1.456  1.00  0.00     0.119 A 
ATOM     20  C   UNL     1       8.242  -4.467  -1.879  1.00  0.00     0.024 A 
ATOM     21  N   UNL     1      10.509  -3.834  -1.375  1.00  0.00    -0.264 NA
ATOM     22  C   UNL     1       9.217  -3.526  -1.586  1.00  0.00     0.111 A 
ATOM     23  C   UNL     1       7.529  -6.832  -2.285  1.00  0.00     0.045 C 
ENDBRANCH  16  17
ENDBRANCH  15  16
ENDBRANCH  13  15
ENDBRANCH   4  13
TORSDOF 8
ENDMDL
MODEL 3
REMARK VINA RESULT:    -4.805      2.211      8.529
REMARK INTER + INTRA:          -7.575
REMARK INTER:                  -6.958
REMARK INTRA:                  -0.618
REMARK UNBOUND:                -0.664
REMARK SMILES Cc1ccncc1/C=C/Nc1ccc(CCCN)cc1
REMARK SMILES IDX 14 1 13 2 12 3 11 4 20 5 19 6 15 7 16 8 17 9 18 10 10 13
REMARK SMILES IDX 9 15 8 16 7 17 2 18 6 19 3 20 5 21 4 22 1 23
REMARK H PARENT 18 11 18 12 10 14
ROOT
ATOM      1  C   UNL     1       8.952  -4.953  -2.040  1.00  0.00    -0.048 A 
ATOM      2  C   UNL     1      10.204  -4.603  -1.532  1.00  0.00     0.006 A 
ATOM      3  C   UNL     1      11.182  -5.571  -1.320  1.00  0.00     0.026 A 
ATOM      4  C   UNL     1      10.926  -6.928  -1.532  1.00  0.00     0.038 A 
ATOM      5  C   UNL     1       9.652  -7.287  -1.987  1.00  0.00     0.026 A 
ATOM      6  C   UNL     1       8.675  -6.311  -2.239  1.00  0.00     0.006 A 
ENDROOT
BRANCH   1   7
ATOM      7  C   UNL     1       7.921  -3.903  -2.368  1.00  0.00     0.037 C 
BRANCH   7   8
ATOM      8  C   UNL     1       6.732  -3.773  -1.396  1.00  0.00     0.020 C 
BRANCH   8   9
ATOM      9  C   UNL     1       7.071  -3.292   0.022  1.00  0.00     0.078 C 
BRANCH   9  10
ATOM     10  N   UNL     1       7.364  -1.870   0.136  1.00  0.00    -0.330 NA
ATOM     11  H   UNL     1       6.902  -1.358  -0.614  1.00  0.00     0.118 HD
ATOM     12  H   UNL     1       8.363  -1.706   0.004  1.00  0.00     0.118 HD
ENDBRANCH   9  10
ENDBRANCH   8   9
ENDBRANCH   7   8
ENDBRANCH   1   7
BRANCH   4  13
ATOM     13  N   UNL     1      11.868  -7.923  -1.208  1.00  0.00    -0.362 N 
ATOM     14  H   UNL     1      12.531  -8.174  -1.931  1.00  0.00     0.166 HD
BRANCH  13  15
ATOM     15  C   UNL     1      11.797  -8.740  -0.111  1.00  0.00     0.083 C 
BRANCH  15  16
ATOM     16  C   UNL     1      12.533  -8.719   1.008  1.00  0.00     0.027 C 
BRANCH  16  17
ATOM     17  C   UNL     1      13.564  -9.738   1.262  1.00  0.00    -0.003 A 
ATOM     18  C   UNL     1      13.383 -10.778   2.191  1.00  0.00    -0.041 A 
ATOM     19  C   UNL     1      14.801  -9.689   0.603  1.00  0.00     0.119 A 
ATOM     20  C   UNL     1      14.428 -11.693   2.389  1.00  0.00     0.024 A 
ATOM     21  N   UNL     1      15.812 -10.574   0.768  1.00  0.00    -0.264 NA
ATOM     22  C   UNL     1      15.598 -11.559   1.658  1.00  0.00     0.111 A 
ATOM     23  C   UNL     1      12.129 -10.920   3.006  1.00  0.00     0.045 C 
ENDBRANCH  16  17
ENDBRANCH  15  16
ENDBRANCH  13  15
ENDBRANCH   4  13
TORSDOF 8
ENDMDL
MODEL 4
REMARK VINA RESULT:    -4.789      4.617      8.489
REMARK INTER + INTRA:          -7.552
REMARK INTER:                  -6.987
REMARK INTRA:                  -0.565
REMARK UNBOUND:                -0.664
REMARK SMILES Cc1ccncc1/C=C/Nc1ccc(CCCN)cc1
REMARK SMILES IDX 14 1 13 2 12 3 11 4 20 5 19 6 15 7 16 8 17 9 18 10 10 13
REMARK SMILES IDX 9 15 8 16 7 17 2 18 6 19 3 20 5 21 4 22 1 23
REMARK H PARENT 18 11 18 12 10 14
ROOT
ATOM      1  C   UNL     1       7.706  -6.038  -1.999  1.00  0.00    -0.048 A 
ATOM      2  C   UNL     1       7.747  -7.383  -2.371  1.00  0.00     0.006 A 
ATOM      3  C   UNL     1       8.944  -8.092  -2.344  1.00  0.00     0.026 A 
ATOM      4  C   UNL     1      10.154  -7.473  -2.022  1.00  0.00     0.038 A 
ATOM      5  C   UNL     1      10.124  -6.110  -1.704  1.00  0.00     0.026 A 
ATOM      6  C   UNL     1       8.914  -5.399  -1.693  1.00  0.00     0.006 A 
ENDROOT
BRANCH   1   7
ATOM      7  C   UNL     1       6.400  -5.287  -1.928  1.00  0.00     0.037 C 
BRANCH   7   8
ATOM      8  C   UNL     1       6.062  -4.373  -3.121  1.00  0.00     0.020 C 
BRANCH   8   9
ATOM      9  C   UNL     1       5.857  -5.076  -4.471  1.00  0.00     0.078 C 
BRANCH   9  10
ATOM     10  N   UNL     1       4.657  -5.895  -4.563  1.00  0.00    -0.330 NA
ATOM     11  H   UNL     1       4.903  -6.882  -4.493  1.00  0.00     0.118 HD
ATOM     12  H   UNL     1       4.226  -5.786  -5.481  1.00  0.00     0.118 HD
ENDBRANCH   9  10
ENDBRANCH   8   9
ENDBRANCH   7   8
ENDBRANCH   1   7
BRANCH   4  13
ATOM     13  N   UNL     1      11.384  -8.153  -2.108  1.00  0.00    -0.362 N 
ATOM     14  H   UNL     1      11.695  -8.636  -1.274  1.00  0.00     0.166 HD
BRANCH  13  15
ATOM     15  C   UNL     1      12.294  -7.999  -3.120  1.00  0.00     0.083 C 
BRANCH  15  16
ATOM     16  C   UNL     1      12.516  -8.783  -4.184  1.00  0.00     0.027 C 
BRANCH  16  17
ATOM     17  C   UNL     1      13.799  -8.749  -4.901  1.00  0.00    -0.003 A 
ATOM     18  C   UNL     1      14.776  -9.749  -4.747  1.00  0.00    -0.041 A 
ATOM     19  C   UNL     1      14.121  -7.680  -5.751  1.00  0.00     0.119 A 
ATOM     20  C   UNL     1      15.983  -9.626  -5.452  1.00  0.00     0.024 A 
ATOM     21  N   UNL     1      15.272  -7.555  -6.451  1.00  0.00    -0.264 NA
ATOM     22  C   UNL     1      16.177  -8.536  -6.286  1.00  0.00     0.111 A 
ATOM     23  C   UNL     1      14.587 -10.923  -3.828  1.00  0.00     0.045 C 
ENDBRANCH  16  17
ENDBRANCH  15  16
ENDBRANCH  13  15
ENDBRANCH   4  13
TORSDOF 8
ENDMDL
MODEL 5
REMARK VINA RESULT:    -4.782      1.977      8.632
REMARK INTER + INTRA:          -7.543
REMARK INTER:                  -7.019
REMARK INTRA:                  -0.524
REMARK UNBOUND:                -0.664
REMARK SMILES Cc1ccncc1/C=C/Nc1ccc(CCCN)cc1
REMARK SMILES IDX 14 1 13 2 12 3 11 4 20 5 19 6 15 7 16 8 17 9 18 10 10 13
REMARK SMILES IDX 9 15 8 16 7 17 2 18 6 19 3 20 5 21 4 22 1 23
REMARK H PARENT 18 11 18 12 10 14
ROOT
ATOM      1  C   UNL     1       8.906  -5.568  -2.469  1.00  0.00    -0.048 A 
ATOM      2  C   UNL     1      10.021  -5.046  -1.810  1.00  0.00     0.006 A 
ATOM      3  C   UNL     1      11.010  -5.889  -1.311  1.00  0.00     0.026 A 
ATOM      4  C   UNL     1      10.890  -7.279  -1.378  1.00  0.00     0.038 A 
ATOM      5  C   UNL     1       9.745  -7.805  -1.988  1.00  0.00     0.026 A 
ATOM      6  C   UNL     1       8.763  -6.960  -2.528  1.00  0.00     0.006 A 
ENDROOT
BRANCH   1   7
ATOM      7  C   UNL     1       7.879  -4.663  -3.103  1.00  0.00     0.037 C 
BRANCH   7   8
ATOM      8  C   UNL     1       6.415  -5.143  -3.063  1.00  0.00     0.020 C 
BRANCH   8   9
ATOM      9  C   UNL     1       5.788  -5.506  -4.417  1.00  0.00     0.078 C 
BRANCH   9  10
ATOM     10  N   UNL     1       5.054  -4.427  -5.064  1.00  0.00    -0.330 NA
ATOM     11  H   UNL     1       5.353  -3.528  -4.688  1.00  0.00     0.118 HD
ATOM     12  H   UNL     1       4.060  -4.498  -4.845  1.00  0.00     0.118 HD
ENDBRANCH   9  10
ENDBRANCH   8   9
ENDBRANCH   7   8
ENDBRANCH   1   7
BRANCH   4  13
ATOM     13  N   UNL     1      11.826  -8.137  -0.771  1.00  0.00    -0.362 N 
ATOM     14  H   UNL     1      12.169  -8.906  -1.333  1.00  0.00     0.166 HD
BRANCH  13  15
ATOM     15  C   UNL     1      12.106  -8.167   0.570  1.00  0.00     0.083 C 
BRANCH  15  16
ATOM     16  C   UNL     1      12.159  -9.217   1.399  1.00  0.00     0.027 C 
BRANCH  16  17
ATOM     17  C   UNL     1      13.378 -10.031   1.522  1.00  0.00    -0.003 A 
ATOM     18  C   UNL     1      13.489 -11.088   2.443  1.00  0.00    -0.041 A 
ATOM     19  C   UNL     1      14.509  -9.755   0.739  1.00  0.00     0.119 A 
ATOM     20  C   UNL     1      14.697 -11.798   2.511  1.00  0.00     0.024 A 
ATOM     21  N   UNL     1      15.675 -10.441   0.780  1.00  0.00    -0.264 NA
ATOM     22  C   UNL     1      15.739 -11.451   1.666  1.00  0.00     0.111 A 
ATOM     23  C   UNL     1      12.375 -11.459   3.381  1.00  0.00     0.045 C 
ENDBRANCH  16  17
ENDBRANCH  15  16
ENDBRANCH  13  15
ENDBRANCH   4  13
TORSDOF 8
ENDMDL
MODEL 6
REMARK VINA RESULT:    -4.772      2.108      8.483
REMARK INTER + INTRA:          -7.528
REMARK INTER:                  -6.954
REMARK INTRA:                  -0.574
REMARK UNBOUND:                -0.664
REMARK SMILES Cc1ccncc1/C=C/Nc1ccc(CCCN)cc1
REMARK SMILES IDX 14 1 13 2 12 3 11 4 20 5 19 6 15 7 16 8 17 9 18 10 10 13
REMARK SMILES IDX 9 15 8 16 7 17 2 18 6 19 3 20 5 21 4 22 1 23
REMARK H PARENT 18 11 18 12 10 14
ROOT
ATOM      1  C   UNL     1       8.762  -4.815  -2.166  1.00  0.00    -0.048 A 
ATOM      2  C   UNL     1       8.509  -6.168  -2.403  1.00  0.00     0.006 A 
ATOM      3  C   UNL     1       9.448  -7.137  -2.063  1.00  0.00     0.026 A 
ATOM      4  C   UNL     1      10.701  -6.793  -1.550  1.00  0.00     0.038 A 
ATOM      5  C   UNL     1      10.979  -5.434  -1.365  1.00  0.00     0.026 A 
ATOM      6  C   UNL     1      10.021  -4.455  -1.670  1.00  0.00     0.006 A 
ENDROOT
BRANCH   1   7
ATOM      7  C   UNL     1       7.713  -3.765  -2.436  1.00  0.00     0.037 C 
BRANCH   7   8
ATOM      8  C   UNL     1       6.582  -3.634  -1.397  1.00  0.00     0.020 C 
BRANCH   8   9
ATOM      9  C   UNL     1       7.010  -3.206   0.014  1.00  0.00     0.078 C 
BRANCH   9  10
ATOM     10  N   UNL     1       7.271  -1.782   0.172  1.00  0.00    -0.330 NA
ATOM     11  H   UNL     1       7.894  -1.628   0.963  1.00  0.00     0.118 HD
ATOM     12  H   UNL     1       6.408  -1.290   0.404  1.00  0.00     0.118 HD
ENDBRANCH   9  10
ENDBRANCH   8   9
ENDBRANCH   7   8
ENDBRANCH   1   7
BRANCH   4  13
ATOM     13  N   UNL     1      11.700  -7.758  -1.316  1.00  0.00    -0.362 N 
ATOM     14  H   UNL     1      12.297  -7.993  -2.099  1.00  0.00     0.166 HD
BRANCH  13  15
ATOM     15  C   UNL     1      11.758  -8.572  -0.216  1.00  0.00     0.083 C 
BRANCH  15  16
ATOM     16  C   UNL     1      12.628  -8.556   0.803  1.00  0.00     0.027 C 
BRANCH  16  17
ATOM     17  C   UNL     1      12.852  -9.749   1.633  1.00  0.00    -0.003 A 
ATOM     18  C   UNL     1      14.080 -10.432   1.656  1.00  0.00    -0.041 A 
ATOM     19  C   UNL     1      11.820 -10.283   2.420  1.00  0.00     0.119 A 
ATOM     20  C   UNL     1      14.201 -11.577   2.458  1.00  0.00     0.024 A 
ATOM     21  N   UNL     1      11.924 -11.375   3.213  1.00  0.00    -0.264 NA
ATOM     22  C   UNL     1      13.117 -11.995   3.214  1.00  0.00     0.111 A 
ATOM     23  C   UNL     1      15.255 -10.003   0.822  1.00  0.00     0.045 C 
ENDBRANCH  16  17
ENDBRANCH  15  16
ENDBRANCH  13  15
ENDBRANCH   4  13
TORSDOF 8
ENDMDL
MODEL 7
REMARK VINA RESULT:    -4.701      1.581      8.437
REMARK INTER + INTRA:          -7.426
REMARK INTER:                  -6.887
REMARK INTRA:                  -0.539
REMARK UNBOUND:                -0.664
REMARK SMILES Cc1ccncc1/C=C/Nc1ccc(CCCN)cc1
REMARK SMILES IDX 14 1 13 2 12 3 11 4 20 5 19 6 15 7 16 8 17 9 18 10 10 13
REMARK SMILES IDX 9 15 8 16 7 17 2 18 6 19 3 20 5 21 4 22 1 23
REMARK H PARENT 18 11 18 12 10 14
ROOT
ATOM      1  C   UNL     1       9.094  -6.062  -2.299  1.00  0.00    -0.048 A 
ATOM      2  C   UNL     1      10.231  -5.540  -1.679  1.00  0.00     0.006 A 
ATOM      3  C   UNL     1      11.268  -6.376  -1.276  1.00  0.00     0.026 A 
ATOM      4  C   UNL     1      11.181  -7.764  -1.404  1.00  0.00     0.038 A 
ATOM      5  C   UNL     1      10.017  -8.294  -1.974  1.00  0.00     0.026 A 
ATOM      6  C   UNL     1       8.985  -7.453  -2.417  1.00  0.00     0.006 A 
ENDROOT
BRANCH   1   7
ATOM      7  C   UNL     1       8.010  -5.158  -2.831  1.00  0.00     0.037 C 
BRANCH   7   8
ATOM      8  C   UNL     1       6.661  -5.822  -3.169  1.00  0.00     0.020 C 
BRANCH   8   9
ATOM      9  C   UNL     1       5.876  -5.197  -4.331  1.00  0.00     0.078 C 
BRANCH   9  10
ATOM     10  N   UNL     1       4.773  -6.004  -4.833  1.00  0.00    -0.330 NA
ATOM     11  H   UNL     1       5.131  -6.759  -5.417  1.00  0.00     0.118 HD
ATOM     12  H   UNL     1       4.178  -5.445  -5.445  1.00  0.00     0.118 HD
ENDBRANCH   9  10
ENDBRANCH   8   9
ENDBRANCH   7   8
ENDBRANCH   1   7
BRANCH   4  13
ATOM     13  N   UNL     1      12.173  -8.622  -0.891  1.00  0.00    -0.362 N 
ATOM     14  H   UNL     1      12.501  -9.356  -1.507  1.00  0.00     0.166 HD
BRANCH  13  15
ATOM     15  C   UNL     1      12.532  -8.703   0.428  1.00  0.00     0.083 C 
BRANCH  15  16
ATOM     16  C   UNL     1      13.569  -9.344   0.985  1.00  0.00     0.027 C 
BRANCH  16  17
ATOM     17  C   UNL     1      13.362 -10.451   1.931  1.00  0.00    -0.003 A 
ATOM     18  C   UNL     1      14.375 -11.374   2.244  1.00  0.00    -0.041 A 
ATOM     19  C   UNL     1      12.114 -10.654   2.538  1.00  0.00     0.119 A 
ATOM     20  C   UNL     1      14.084 -12.415   3.139  1.00  0.00     0.024 A 
ATOM     21  N   UNL     1      11.822 -11.641   3.417  1.00  0.00    -0.264 NA
ATOM     22  C   UNL     1      12.819 -12.498   3.699  1.00  0.00     0.111 A 
ATOM     23  C   UNL     1      15.743 -11.308   1.626  1.00  0.00     0.045 C 
ENDBRANCH  16  17
ENDBRANCH  15  16
ENDBRANCH  13  15
ENDBRANCH   4  13
TORSDOF 8
ENDMDL
MODEL 8
REMARK VINA RESULT:    -4.684      4.685      8.500
REMARK INTER + INTRA:          -7.401
REMARK INTER:                  -6.969
REMARK INTRA:                  -0.432
REMARK UNBOUND:                -0.664
REMARK SMILES Cc1ccncc1/C=C/Nc1ccc(CCCN)cc1
REMARK SMILES IDX 14 1 13 2 12 3 11 4 20 5 19 6 15 7 16 8 17 9 18 10 10 13
REMARK SMILES IDX 9 15 8 16 7 17 2 18 6 19 3 20 5 21 4 22 1 23
REMARK H PARENT 18 11 18 12 10 14
ROOT
ATOM      1  C   UNL     1       7.770  -5.729  -1.989  1.00  0.00    -0.048 A 
ATOM      2  C   UNL     1       7.653  -7.085  -2.302  1.00  0.00     0.006 A 
ATOM      3  C   UNL     1       8.774  -7.910  -2.313  1.00  0.00     0.026 A 
ATOM      4  C   UNL     1      10.057  -7.406  -2.091  1.00  0.00     0.038 A 
ATOM      5  C   UNL     1      10.183  -6.035  -1.833  1.00  0.00     0.026 A 
ATOM      6  C   UNL     1       9.052  -5.205  -1.783  1.00  0.00     0.006 A 
ENDROOT
BRANCH   1   7
ATOM      7  C   UNL     1       6.552  -4.846  -1.874  1.00  0.00     0.037 C 
BRANCH   7   8
ATOM      8  C   UNL     1       6.794  -3.386  -1.447  1.00  0.00     0.020 C 
BRANCH   8   9
ATOM      9  C   UNL     1       6.869  -3.130   0.065  1.00  0.00     0.078 C 
BRANCH   9  10
ATOM     10  N   UNL     1       7.441  -1.846   0.445  1.00  0.00    -0.330 NA
ATOM     11  H   UNL     1       7.111  -1.577   1.371  1.00  0.00     0.118 HD
ATOM     12  H   UNL     1       7.111  -1.114  -0.186  1.00  0.00     0.118 HD
ENDBRANCH   9  10
ENDBRANCH   8   9
ENDBRANCH   7   8
ENDBRANCH   1   7
BRANCH   4  13
ATOM     13  N   UNL     1      11.206  -8.210  -2.219  1.00  0.00    -0.362 N 
ATOM     14  H   UNL     1      11.430  -8.809  -1.434  1.00  0.00     0.166 HD
BRANCH  13  15
ATOM     15  C   UNL     1      12.163  -8.060  -3.187  1.00  0.00     0.083 C 
BRANCH  15  16
ATOM     16  C   UNL     1      12.486  -8.883  -4.193  1.00  0.00     0.027 C 
BRANCH  16  17
ATOM     17  C   UNL     1      13.771  -8.760  -4.897  1.00  0.00    -0.003 A 
ATOM     18  C   UNL     1      14.791  -9.720  -4.778  1.00  0.00    -0.041 A 
ATOM     19  C   UNL     1      14.048  -7.642  -5.698  1.00  0.00     0.119 A 
ATOM     20  C   UNL     1      15.996  -9.512  -5.465  1.00  0.00     0.024 A 
ATOM     21  N   UNL     1      15.198  -7.434  -6.382  1.00  0.00    -0.264 NA
ATOM     22  C   UNL     1      16.145  -8.379  -6.250  1.00  0.00     0.111 A 
ATOM     23  C   UNL     1      14.651 -10.940  -3.911  1.00  0.00     0.045 C 
ENDBRANCH  16  17
ENDBRANCH  15  16
ENDBRANCH  13  15
ENDBRANCH   4  13
TORSDOF 8
ENDMDL
MODEL 9
REMARK VINA RESULT:    -4.400      2.913      9.178
REMARK INTER + INTRA:          -6.992
REMARK INTER:                  -6.279
REMARK INTRA:                  -0.713
REMARK UNBOUND:                -0.664
REMARK SMILES Cc1ccncc1/C=C/Nc1ccc(CCCN)cc1
REMARK SMILES IDX 14 1 13 2 12 3 11 4 20 5 19 6 15 7 16 8 17 9 18 10 10 13
REMARK SMILES IDX 9 15 8 16 7 17 2 18 6 19 3 20 5 21 4 22 1 23
REMARK H PARENT 18 11 18 12 10 14
ROOT
ATOM      1  C   UNL     1      12.124  -8.935   0.944  1.00  0.00    -0.048 A 
ATOM      2  C   UNL     1      11.327  -9.750   1.751  1.00  0.00     0.006 A 
ATOM      3  C   UNL     1      11.893 -10.770   2.510  1.00  0.00     0.026 A 
ATOM      4  C   UNL     1      13.256 -11.067   2.436  1.00  0.00     0.038 A 
ATOM      5  C   UNL     1      14.048 -10.288   1.584  1.00  0.00     0.026 A 
ATOM      6  C   UNL     1      13.489  -9.234   0.845  1.00  0.00     0.006 A 
ENDROOT
BRANCH   1   7
ATOM      7  C   UNL     1      11.538  -7.764   0.196  1.00  0.00     0.037 C 
BRANCH   7   8
ATOM      8  C   UNL     1      11.551  -7.850  -1.343  1.00  0.00     0.020 C 
BRANCH   8   9
ATOM      9  C   UNL     1      10.192  -8.096  -2.015  1.00  0.00     0.078 C 
BRANCH   9  10
ATOM     10  N   UNL     1       9.486  -6.894  -2.434  1.00  0.00    -0.330 NA
ATOM     11  H   UNL     1      10.099  -6.310  -3.003  1.00  0.00     0.118 HD
ATOM     12  H   UNL     1       9.245  -6.326  -1.622  1.00  0.00     0.118 HD
ENDBRANCH   9  10
ENDBRANCH   8   9
ENDBRANCH   7   8
ENDBRANCH   1   7
BRANCH   4  13
ATOM     13  N   UNL     1      13.815 -12.171   3.109  1.00  0.00    -0.362 N 
ATOM     14  H   UNL     1      14.823 -12.254   3.087  1.00  0.00     0.166 HD
BRANCH  13  15
ATOM     15  C   UNL     1      13.106 -13.255   3.556  1.00  0.00     0.083 C 
BRANCH  15  16
ATOM     16  C   UNL     1      13.088 -13.807   4.776  1.00  0.00     0.027 C 
BRANCH  16  17
ATOM     17  C   UNL     1      13.726 -13.144   5.923  1.00  0.00    -0.003 A 
ATOM     18  C   UNL     1      15.080 -13.340   6.250  1.00  0.00    -0.041 A 
ATOM     19  C   UNL     1      12.988 -12.305   6.772  1.00  0.00     0.119 A 
ATOM     20  C   UNL     1      15.603 -12.686   7.376  1.00  0.00     0.024 A 
ATOM     21  N   UNL     1      13.481 -11.653   7.851  1.00  0.00    -0.264 NA
ATOM     22  C   UNL     1      14.781 -11.858   8.125  1.00  0.00     0.111 A 
ATOM     23  C   UNL     1      15.974 -14.254   5.460  1.00  0.00     0.045 C 
ENDBRANCH  16  17
ENDBRANCH  15  16
ENDBRANCH  13  15
ENDBRANCH   4  13
TORSDOF 8
ENDMDL
