MODEL 1
REMARK VINA RESULT:    -5.056      0.000      0.000
REMARK INTER + INTRA:          -7.986
REMARK INTER:                  -7.273
REMARK INTRA:                  -0.714
REMARK UNBOUND:                -0.714
REMARK SMILES Cc1ccncc1/C=C/Nc1ccc(CCCN)cc1
REMARK SMILES IDX 14 1 13 2 12 3 11 4 20 5 19 6 15 7 16 8 17 9 18 10 10 13
REMARK SMILES IDX 9 15 8 16 7 17 2 18 6 19 3 20 5 21 4 22 1 23
REMARK H PARENT 18 11 18 12 10 14
ROOT
ATOM      1  C   UNL     1       5.074  -6.392  13.748  1.00  0.00    -0.048 A 
ATOM      2  C   UNL     1       4.470  -5.512  14.648  1.00  0.00     0.006 A 
ATOM      3  C   UNL     1       3.811  -4.374  14.195  1.00  0.00     0.026 A 
ATOM      4  C   UNL     1       3.794  -4.027  12.842  1.00  0.00     0.038 A 
ATOM      5  C   UNL     1       4.448  -4.879  11.943  1.00  0.00     0.026 A 
ATOM      6  C   UNL     1       5.081  -6.049  12.390  1.00  0.00     0.006 A 
ENDROOT
BRANCH   1   7
ATOM      7  C   UNL     1       5.703  -7.680  14.217  1.00  0.00     0.037 C 
BRANCH   7   8
ATOM      8  C   UNL     1       7.218  -7.836  13.981  1.00  0.00     0.020 C 
BRANCH   8   9
ATOM      9  C   UNL     1       8.127  -7.442  15.154  1.00  0.00     0.078 C 
BRANCH   9  10
ATOM     10  N   UNL     1       8.900  -6.225  14.951  1.00  0.00    -0.330 NA
ATOM     11  H   UNL     1       9.676  -6.190  15.610  1.00  0.00     0.118 HD
ATOM     12  H   UNL     1       8.328  -5.406  15.159  1.00  0.00     0.118 HD
ENDBRANCH   9  10
ENDBRANCH   8   9
ENDBRANCH   7   8
ENDBRANCH   1   7
BRANCH   4  13
ATOM     13  N   UNL     1       3.232  -2.818  12.390  1.00  0.00    -0.362 N 
ATOM     14  H   UNL     1       2.233  -2.813  12.227  1.00  0.00     0.166 HD
BRANCH  13  15
ATOM     15  C   UNL     1       3.950  -1.751  11.916  1.00  0.00     0.083 C 
BRANCH  15  16
ATOM     16  C   UNL     1       3.563  -0.774  11.085  1.00  0.00     0.027 C 
BRANCH  16  17
ATOM     17  C   UNL     1       4.188  -0.607   9.764  1.00  0.00    -0.003 A 
ATOM     18  C   UNL     1       3.469  -0.163   8.640  1.00  0.00    -0.041 A 
ATOM     19  C   UNL     1       5.540  -0.924   9.561  1.00  0.00     0.119 A 
ATOM     20  C   UNL     1       4.137  -0.054   7.411  1.00  0.00     0.024 A 
ATOM     21  N   UNL     1       6.204  -0.809   8.388  1.00  0.00    -0.264 NA
ATOM     22  C   UNL     1       5.484  -0.372   7.339  1.00  0.00     0.111 A 
ATOM     23  C   UNL     1       2.002   0.161   8.700  1.00  0.00     0.045 C 
ENDBRANCH  16  17
ENDBRANCH  15  16
ENDBRANCH  13  15
ENDBRANCH   4  13
TORSDOF 8
ENDMDL
MODEL 2
REMARK VINA RESULT:    -5.039      4.831      6.810
REMARK INTER + INTRA:          -7.963
REMARK INTER:                  -7.347
REMARK INTRA:                  -0.616
REMARK UNBOUND:                -0.714
REMARK SMILES Cc1ccncc1/C=C/Nc1ccc(CCCN)cc1
REMARK SMILES IDX 14 1 13 2 12 3 11 4 20 5 19 6 15 7 16 8 17 9 18 10 10 13
REMARK SMILES IDX 9 15 8 16 7 17 2 18 6 19 3 20 5 21 4 22 1 23
REMARK H PARENT 18 11 18 12 10 14
ROOT
ATOM      1  C   UNL     1       5.800   2.343  16.047  1.00  0.00    -0.048 A 
ATOM      2  C   UNL     1       5.111   2.791  14.918  1.00  0.00     0.006 A 
ATOM      3  C   UNL     1       5.169   2.081  13.722  1.00  0.00     0.026 A 
ATOM      4  C   UNL     1       5.971   0.946  13.583  1.00  0.00     0.038 A 
ATOM      5  C   UNL     1       6.707   0.528  14.698  1.00  0.00     0.026 A 
ATOM      6  C   UNL     1       6.623   1.218  15.917  1.00  0.00     0.006 A 
ENDROOT
BRANCH   1   7
ATOM      7  C   UNL     1       5.665   3.048  17.374  1.00  0.00     0.037 C 
BRANCH   7   8
ATOM      8  C   UNL     1       4.234   3.247  17.909  1.00  0.00     0.020 C 
BRANCH   8   9
ATOM      9  C   UNL     1       3.813   2.328  19.065  1.00  0.00     0.078 C 
BRANCH   9  10
ATOM     10  N   UNL     1       2.930   1.232  18.690  1.00  0.00    -0.330 NA
ATOM     11  H   UNL     1       1.997   1.393  19.066  1.00  0.00     0.118 HD
ATOM     12  H   UNL     1       3.250   0.362  19.114  1.00  0.00     0.118 HD
ENDBRANCH   9  10
ENDBRANCH   8   9
ENDBRANCH   7   8
ENDBRANCH   1   7
BRANCH   4  13
ATOM     13  N   UNL     1       6.127   0.292  12.346  1.00  0.00    -0.362 N 
ATOM     14  H   UNL     1       7.006   0.434  11.864  1.00  0.00     0.166 HD
BRANCH  13  15
ATOM     15  C   UNL     1       5.112  -0.296  11.638  1.00  0.00     0.083 C 
BRANCH  15  16
ATOM     16  C   UNL     1       5.121  -0.777  10.388  1.00  0.00     0.027 C 
BRANCH  16  17
ATOM     17  C   UNL     1       4.009  -0.514   9.462  1.00  0.00    -0.003 A 
ATOM     18  C   UNL     1       4.191  -0.422   8.071  1.00  0.00    -0.041 A 
ATOM     19  C   UNL     1       2.708  -0.305   9.943  1.00  0.00     0.119 A 
ATOM     20  C   UNL     1       3.079  -0.145   7.263  1.00  0.00     0.024 A 
ATOM     21  N   UNL     1       1.621  -0.054   9.176  1.00  0.00    -0.264 NA
ATOM     22  C   UNL     1       1.834   0.017   7.850  1.00  0.00     0.111 A 
ATOM     23  C   UNL     1       5.540  -0.572   7.425  1.00  0.00     0.045 C 
ENDBRANCH  16  17
ENDBRANCH  15  16
ENDBRANCH  13  15
ENDBRANCH   4  13
TORSDOF 8
ENDMDL
MODEL 3
REMARK VINA RESULT:    -5.037      4.793      8.390
REMARK INTER + INTRA:          -7.959
REMARK INTER:                  -7.357
REMARK INTRA:                  -0.602
REMARK UNBOUND:                -0.714
REMARK SMILES Cc1ccncc1/C=C/Nc1ccc(CCCN)cc1
REMARK SMILES IDX 14 1 13 2 12 3 11 4 20 5 19 6 15 7 16 8 17 9 18 10 10 13
REMARK SMILES IDX 9 15 8 16 7 17 2 18 6 19 3 20 5 21 4 22 1 23
REMARK H PARENT 18 11 18 12 10 14
ROOT
ATOM      1  C   UNL     1       3.650  -0.885   9.284  1.00  0.00    -0.048 A 
ATOM      2  C   UNL     1       5.031  -0.782   9.459  1.00  0.00     0.006 A 
ATOM      3  C   UNL     1       5.575  -0.597  10.727  1.00  0.00     0.026 A 
ATOM      4  C   UNL     1       4.765  -0.429  11.853  1.00  0.00     0.038 A 
ATOM      5  C   UNL     1       3.378  -0.475  11.671  1.00  0.00     0.026 A 
ATOM      6  C   UNL     1       2.826  -0.700  10.401  1.00  0.00     0.006 A 
ENDROOT
BRANCH   1   7
ATOM      7  C   UNL     1       3.055  -1.186   7.931  1.00  0.00     0.037 C 
BRANCH   7   8
ATOM      8  C   UNL     1       1.723  -0.490   7.591  1.00  0.00     0.020 C 
BRANCH   8   9
ATOM      9  C   UNL     1       0.815  -1.225   6.594  1.00  0.00     0.078 C 
BRANCH   9  10
ATOM     10  N   UNL     1      -0.383  -0.497   6.200  1.00  0.00    -0.330 NA
ATOM     11  H   UNL     1      -0.904  -0.208   7.028  1.00  0.00     0.118 HD
ATOM     12  H   UNL     1      -1.012  -1.109   5.681  1.00  0.00     0.118 HD
ENDBRANCH   9  10
ENDBRANCH   8   9
ENDBRANCH   7   8
ENDBRANCH   1   7
BRANCH   4  13
ATOM     13  N   UNL     1       5.303  -0.123  13.118  1.00  0.00    -0.362 N 
ATOM     14  H   UNL     1       5.050  -0.739  13.881  1.00  0.00     0.166 HD
BRANCH  13  15
ATOM     15  C   UNL     1       5.916   1.059  13.443  1.00  0.00     0.083 C 
BRANCH  15  16
ATOM     16  C   UNL     1       5.495   2.032  14.262  1.00  0.00     0.027 C 
BRANCH  16  17
ATOM     17  C   UNL     1       5.917   2.078  15.670  1.00  0.00    -0.003 A 
ATOM     18  C   UNL     1       5.162   2.727  16.663  1.00  0.00    -0.041 A 
ATOM     19  C   UNL     1       7.128   1.499  16.077  1.00  0.00     0.119 A 
ATOM     20  C   UNL     1       5.650   2.743  17.978  1.00  0.00     0.024 A 
ATOM     21  N   UNL     1       7.605   1.490  17.344  1.00  0.00    -0.264 NA
ATOM     22  C   UNL     1       6.850   2.112  18.267  1.00  0.00     0.111 A 
ATOM     23  C   UNL     1       3.872   3.435  16.358  1.00  0.00     0.045 C 
ENDBRANCH  16  17
ENDBRANCH  15  16
ENDBRANCH  13  15
ENDBRANCH   4  13
TORSDOF 8
ENDMDL
MODEL 4
REMARK VINA RESULT:    -4.985      1.819      8.412
REMARK INTER + INTRA:          -7.884
REMARK INTER:                  -7.289
REMARK INTRA:                  -0.594
REMARK UNBOUND:                -0.714
REMARK SMILES Cc1ccncc1/C=C/Nc1ccc(CCCN)cc1
REMARK SMILES IDX 14 1 13 2 12 3 11 4 20 5 19 6 15 7 16 8 17 9 18 10 10 13
REMARK SMILES IDX 9 15 8 16 7 17 2 18 6 19 3 20 5 21 4 22 1 23
REMARK H PARENT 18 11 18 12 10 14
ROOT
ATOM      1  C   UNL     1       3.988  -0.003   9.399  1.00  0.00    -0.048 A 
ATOM      2  C   UNL     1       2.880  -0.359  10.170  1.00  0.00     0.006 A 
ATOM      3  C   UNL     1       3.024  -1.174  11.289  1.00  0.00     0.026 A 
ATOM      4  C   UNL     1       4.259  -1.728  11.636  1.00  0.00     0.038 A 
ATOM      5  C   UNL     1       5.361  -1.419  10.831  1.00  0.00     0.026 A 
ATOM      6  C   UNL     1       5.228  -0.566   9.724  1.00  0.00     0.006 A 
ENDROOT
BRANCH   1   7
ATOM      7  C   UNL     1       3.860   0.960   8.246  1.00  0.00     0.037 C 
BRANCH   7   8
ATOM      8  C   UNL     1       4.712   0.661   6.997  1.00  0.00     0.020 C 
BRANCH   8   9
ATOM      9  C   UNL     1       4.757   1.767   5.932  1.00  0.00     0.078 C 
BRANCH   9  10
ATOM     10  N   UNL     1       5.951   1.769   5.098  1.00  0.00    -0.330 NA
ATOM     11  H   UNL     1       6.453   0.889   5.206  1.00  0.00     0.118 HD
ATOM     12  H   UNL     1       6.597   2.493   5.411  1.00  0.00     0.118 HD
ENDBRANCH   9  10
ENDBRANCH   8   9
ENDBRANCH   7   8
ENDBRANCH   1   7
BRANCH   4  13
ATOM     13  N   UNL     1       4.391  -2.648  12.694  1.00  0.00    -0.362 N 
ATOM     14  H   UNL     1       5.112  -2.453  13.378  1.00  0.00     0.166 HD
BRANCH  13  15
ATOM     15  C   UNL     1       3.812  -3.889  12.729  1.00  0.00     0.083 C 
BRANCH  15  16
ATOM     16  C   UNL     1       4.390  -5.094  12.638  1.00  0.00     0.027 C 
BRANCH  16  17
ATOM     17  C   UNL     1       4.699  -5.883  13.841  1.00  0.00    -0.003 A 
ATOM     18  C   UNL     1       5.738  -6.830  13.874  1.00  0.00    -0.041 A 
ATOM     19  C   UNL     1       3.933  -5.747  15.008  1.00  0.00     0.119 A 
ATOM     20  C   UNL     1       5.950  -7.557  15.056  1.00  0.00     0.024 A 
ATOM     21  N   UNL     1       4.134  -6.426  16.161  1.00  0.00    -0.264 NA
ATOM     22  C   UNL     1       5.143  -7.315  16.157  1.00  0.00     0.111 A 
ATOM     23  C   UNL     1       6.604  -7.118  12.680  1.00  0.00     0.045 C 
ENDBRANCH  16  17
ENDBRANCH  15  16
ENDBRANCH  13  15
ENDBRANCH   4  13
TORSDOF 8
ENDMDL
MODEL 5
REMARK VINA RESULT:    -4.906      4.677      8.455
REMARK INTER + INTRA:          -7.770
REMARK INTER:                  -7.277
REMARK INTRA:                  -0.494
REMARK UNBOUND:                -0.714
REMARK SMILES Cc1ccncc1/C=C/Nc1ccc(CCCN)cc1
REMARK SMILES IDX 14 1 13 2 12 3 11 4 20 5 19 6 15 7 16 8 17 9 18 10 10 13
REMARK SMILES IDX 9 15 8 16 7 17 2 18 6 19 3 20 5 21 4 22 1 23
REMARK H PARENT 18 11 18 12 10 14
ROOT
ATOM      1  C   UNL     1       3.716  -0.765   8.358  1.00  0.00    -0.048 A 
ATOM      2  C   UNL     1       5.086  -0.755   8.628  1.00  0.00     0.006 A 
ATOM      3  C   UNL     1       5.552  -0.763   9.940  1.00  0.00     0.026 A 
ATOM      4  C   UNL     1       4.678  -0.705  11.028  1.00  0.00     0.038 A 
ATOM      5  C   UNL     1       3.305  -0.658  10.758  1.00  0.00     0.026 A 
ATOM      6  C   UNL     1       2.828  -0.687   9.438  1.00  0.00     0.006 A 
ENDROOT
BRANCH   1   7
ATOM      7  C   UNL     1       3.199  -0.858   6.944  1.00  0.00     0.037 C 
BRANCH   7   8
ATOM      8  C   UNL     1       1.880  -0.122   6.640  1.00  0.00     0.020 C 
BRANCH   8   9
ATOM      9  C   UNL     1       0.639  -1.010   6.463  1.00  0.00     0.078 C 
BRANCH   9  10
ATOM     10  N   UNL     1       0.404  -1.475   5.104  1.00  0.00    -0.330 NA
ATOM     11  H   UNL     1       0.473  -0.695   4.452  1.00  0.00     0.118 HD
ATOM     12  H   UNL     1      -0.550  -1.824   5.012  1.00  0.00     0.118 HD
ENDBRANCH   9  10
ENDBRANCH   8   9
ENDBRANCH   7   8
ENDBRANCH   1   7
BRANCH   4  13
ATOM     13  N   UNL     1       5.143  -0.593  12.352  1.00  0.00    -0.362 N 
ATOM     14  H   UNL     1       5.226  -1.453  12.878  1.00  0.00     0.166 HD
BRANCH  13  15
ATOM     15  C   UNL     1       5.243   0.582  13.050  1.00  0.00     0.083 C 
BRANCH  15  16
ATOM     16  C   UNL     1       6.286   1.075  13.731  1.00  0.00     0.027 C 
BRANCH  16  17
ATOM     17  C   UNL     1       6.107   1.703  15.049  1.00  0.00    -0.003 A 
ATOM     18  C   UNL     1       6.806   1.272  16.190  1.00  0.00    -0.041 A 
ATOM     19  C   UNL     1       5.188   2.748  15.229  1.00  0.00     0.119 A 
ATOM     20  C   UNL     1       6.557   1.912  17.414  1.00  0.00     0.024 A 
ATOM     21  N   UNL     1       4.948   3.387  16.398  1.00  0.00    -0.264 NA
ATOM     22  C   UNL     1       5.644   2.954  17.464  1.00  0.00     0.111 A 
ATOM     23  C   UNL     1       7.780   0.129  16.154  1.00  0.00     0.045 C 
ENDBRANCH  16  17
ENDBRANCH  15  16
ENDBRANCH  13  15
ENDBRANCH   4  13
TORSDOF 8
ENDMDL
MODEL 6
REMARK VINA RESULT:    -4.892      4.678      8.408
REMARK INTER + INTRA:          -7.751
REMARK INTER:                  -7.109
REMARK INTRA:                  -0.641
REMARK UNBOUND:                -0.714
REMARK SMILES Cc1ccncc1/C=C/Nc1ccc(CCCN)cc1
REMARK SMILES IDX 14 1 13 2 12 3 11 4 20 5 19 6 15 7 16 8 17 9 18 10 10 13
REMARK SMILES IDX 9 15 8 16 7 17 2 18 6 19 3 20 5 21 4 22 1 23
REMARK H PARENT 18 11 18 12 10 14
ROOT
ATOM      1  C   UNL     1       4.256  -0.610   7.976  1.00  0.00    -0.048 A 
ATOM      2  C   UNL     1       3.208  -0.539   8.896  1.00  0.00     0.006 A 
ATOM      3  C   UNL     1       3.464  -0.535  10.265  1.00  0.00     0.026 A 
ATOM      4  C   UNL     1       4.759  -0.679  10.768  1.00  0.00     0.038 A 
ATOM      5  C   UNL     1       5.805  -0.807   9.847  1.00  0.00     0.026 A 
ATOM      6  C   UNL     1       5.558  -0.773   8.466  1.00  0.00     0.006 A 
ENDROOT
BRANCH   1   7
ATOM      7  C   UNL     1       4.000  -0.513   6.493  1.00  0.00     0.037 C 
BRANCH   7   8
ATOM      8  C   UNL     1       3.593   0.870   5.950  1.00  0.00     0.020 C 
BRANCH   8   9
ATOM      9  C   UNL     1       4.698   1.936   5.925  1.00  0.00     0.078 C 
BRANCH   9  10
ATOM     10  N   UNL     1       5.835   1.625   5.070  1.00  0.00    -0.330 NA
ATOM     11  H   UNL     1       6.513   2.384   5.102  1.00  0.00     0.118 HD
ATOM     12  H   UNL     1       5.536   1.566   4.096  1.00  0.00     0.118 HD
ENDBRANCH   9  10
ENDBRANCH   8   9
ENDBRANCH   7   8
ENDBRANCH   1   7
BRANCH   4  13
ATOM     13  N   UNL     1       5.012  -0.795  12.148  1.00  0.00    -0.362 N 
ATOM     14  H   UNL     1       4.885  -1.712  12.558  1.00  0.00     0.166 HD
BRANCH  13  15
ATOM     15  C   UNL     1       5.161   0.260  13.008  1.00  0.00     0.083 C 
BRANCH  15  16
ATOM     16  C   UNL     1       6.258   0.676  13.655  1.00  0.00     0.027 C 
BRANCH  16  17
ATOM     17  C   UNL     1       6.161   1.487  14.878  1.00  0.00    -0.003 A 
ATOM     18  C   UNL     1       6.856   1.162  16.056  1.00  0.00    -0.041 A 
ATOM     19  C   UNL     1       5.327   2.614  14.929  1.00  0.00     0.119 A 
ATOM     20  C   UNL     1       6.686   1.977  17.185  1.00  0.00     0.024 A 
ATOM     21  N   UNL     1       5.166   3.422  16.004  1.00  0.00    -0.264 NA
ATOM     22  C   UNL     1       5.855   3.083  17.108  1.00  0.00     0.111 A 
ATOM     23  C   UNL     1       7.741  -0.048  16.160  1.00  0.00     0.045 C 
ENDBRANCH  16  17
ENDBRANCH  15  16
ENDBRANCH  13  15
ENDBRANCH   4  13
TORSDOF 8
ENDMDL
MODEL 7
REMARK VINA RESULT:    -4.867      2.105      8.351
REMARK INTER + INTRA:          -7.714
REMARK INTER:                  -7.143
REMARK INTRA:                  -0.571
REMARK UNBOUND:                -0.714
REMARK SMILES Cc1ccncc1/C=C/Nc1ccc(CCCN)cc1
REMARK SMILES IDX 14 1 13 2 12 3 11 4 20 5 19 6 15 7 16 8 17 9 18 10 10 13
REMARK SMILES IDX 9 15 8 16 7 17 2 18 6 19 3 20 5 21 4 22 1 23
REMARK H PARENT 18 11 18 12 10 14
ROOT
ATOM      1  C   UNL     1       2.863   0.198   8.807  1.00  0.00    -0.048 A 
ATOM      2  C   UNL     1       1.988  -0.032   9.871  1.00  0.00     0.006 A 
ATOM      3  C   UNL     1       2.440  -0.620  11.048  1.00  0.00     0.026 A 
ATOM      4  C   UNL     1       3.755  -1.070  11.183  1.00  0.00     0.038 A 
ATOM      5  C   UNL     1       4.620  -0.892  10.096  1.00  0.00     0.026 A 
ATOM      6  C   UNL     1       4.179  -0.265   8.921  1.00  0.00     0.006 A 
ENDROOT
BRANCH   1   7
ATOM      7  C   UNL     1       2.409   0.925   7.566  1.00  0.00     0.037 C 
BRANCH   7   8
ATOM      8  C   UNL     1       2.128   0.061   6.321  1.00  0.00     0.020 C 
BRANCH   8   9
ATOM      9  C   UNL     1       0.859  -0.802   6.373  1.00  0.00     0.078 C 
BRANCH   9  10
ATOM     10  N   UNL     1       0.496  -1.438   5.114  1.00  0.00    -0.330 NA
ATOM     11  H   UNL     1       1.047  -1.045   4.353  1.00  0.00     0.118 HD
ATOM     12  H   UNL     1      -0.476  -1.232   4.883  1.00  0.00     0.118 HD
ENDBRANCH   9  10
ENDBRANCH   8   9
ENDBRANCH   7   8
ENDBRANCH   1   7
BRANCH   4  13
ATOM     13  N   UNL     1       4.188  -1.772  12.324  1.00  0.00    -0.362 N 
ATOM     14  H   UNL     1       4.572  -1.219  13.080  1.00  0.00     0.166 HD
BRANCH  13  15
ATOM     15  C   UNL     1       4.368  -3.129  12.387  1.00  0.00     0.083 C 
BRANCH  15  16
ATOM     16  C   UNL     1       3.658  -4.046  13.058  1.00  0.00     0.027 C 
BRANCH  16  17
ATOM     17  C   UNL     1       4.299  -5.244  13.621  1.00  0.00    -0.003 A 
ATOM     18  C   UNL     1       4.309  -5.516  15.000  1.00  0.00    -0.041 A 
ATOM     19  C   UNL     1       4.970  -6.157  12.793  1.00  0.00     0.119 A 
ATOM     20  C   UNL     1       4.965  -6.671  15.454  1.00  0.00     0.024 A 
ATOM     21  N   UNL     1       5.592  -7.284  13.213  1.00  0.00    -0.264 NA
ATOM     22  C   UNL     1       5.571  -7.515  14.537  1.00  0.00     0.111 A 
ATOM     23  C   UNL     1       3.676  -4.597  16.006  1.00  0.00     0.045 C 
ENDBRANCH  16  17
ENDBRANCH  15  16
ENDBRANCH  13  15
ENDBRANCH   4  13
TORSDOF 8
ENDMDL
MODEL 8
REMARK VINA RESULT:    -4.860      1.558      2.468
REMARK INTER + INTRA:          -7.705
REMARK INTER:                  -7.064
REMARK INTRA:                  -0.641
REMARK UNBOUND:                -0.714
REMARK SMILES Cc1ccncc1/C=C/Nc1ccc(CCCN)cc1
REMARK SMILES IDX 14 1 13 2 12 3 11 4 20 5 19 6 15 7 16 8 17 9 18 10 10 13
REMARK SMILES IDX 9 15 8 16 7 17 2 18 6 19 3 20 5 21 4 22 1 23
REMARK H PARENT 18 11 18 12 10 14
ROOT
ATOM      1  C   UNL     1       5.105  -6.753  14.673  1.00  0.00    -0.048 A 
ATOM      2  C   UNL     1       5.172  -6.667  13.281  1.00  0.00     0.006 A 
ATOM      3  C   UNL     1       4.692  -5.543  12.615  1.00  0.00     0.026 A 
ATOM      4  C   UNL     1       4.059  -4.501  13.298  1.00  0.00     0.038 A 
ATOM      5  C   UNL     1       3.940  -4.612  14.689  1.00  0.00     0.026 A 
ATOM      6  C   UNL     1       4.457  -5.726  15.369  1.00  0.00     0.006 A 
ENDROOT
BRANCH   1   7
ATOM      7  C   UNL     1       5.712  -7.919  15.413  1.00  0.00     0.037 C 
BRANCH   7   8
ATOM      8  C   UNL     1       7.232  -8.119  15.261  1.00  0.00     0.020 C 
BRANCH   8   9
ATOM      9  C   UNL     1       8.121  -7.067  15.942  1.00  0.00     0.078 C 
BRANCH   9  10
ATOM     10  N   UNL     1       8.899  -6.238  15.033  1.00  0.00    -0.330 NA
ATOM     11  H   UNL     1       9.597  -5.709  15.555  1.00  0.00     0.118 HD
ATOM     12  H   UNL     1       8.300  -5.539  14.593  1.00  0.00     0.118 HD
ENDBRANCH   9  10
ENDBRANCH   8   9
ENDBRANCH   7   8
ENDBRANCH   1   7
BRANCH   4  13
ATOM     13  N   UNL     1       3.466  -3.419  12.621  1.00  0.00    -0.362 N 
ATOM     14  H   UNL     1       2.458  -3.348  12.673  1.00  0.00     0.166 HD
BRANCH  13  15
ATOM     15  C   UNL     1       4.104  -2.623  11.706  1.00  0.00     0.083 C 
BRANCH  15  16
ATOM     16  C   UNL     1       4.025  -1.297  11.538  1.00  0.00     0.027 C 
BRANCH  16  17
ATOM     17  C   UNL     1       3.040  -0.702  10.622  1.00  0.00    -0.003 A 
ATOM     18  C   UNL     1       3.367  -0.315   9.311  1.00  0.00    -0.041 A 
ATOM     19  C   UNL     1       1.723  -0.460  11.041  1.00  0.00     0.119 A 
ATOM     20  C   UNL     1       2.372   0.267   8.512  1.00  0.00     0.024 A 
ATOM     21  N   UNL     1       0.746   0.084  10.277  1.00  0.00    -0.264 NA
ATOM     22  C   UNL     1       1.095   0.432   9.026  1.00  0.00     0.111 A 
ATOM     23  C   UNL     1       4.753  -0.466   8.749  1.00  0.00     0.045 C 
ENDBRANCH  16  17
ENDBRANCH  15  16
ENDBRANCH  13  15
ENDBRANCH   4  13
TORSDOF 8
ENDMDL
MODEL 9
REMARK VINA RESULT:    -4.792      1.768      8.398
REMARK INTER + INTRA:          -7.607
REMARK INTER:                  -7.066
REMARK INTRA:                  -0.540
REMARK UNBOUND:                -0.714
REMARK SMILES Cc1ccncc1/C=C/Nc1ccc(CCCN)cc1
REMARK SMILES IDX 14 1 13 2 12 3 11 4 20 5 19 6 15 7 16 8 17 9 18 10 10 13
REMARK SMILES IDX 9 15 8 16 7 17 2 18 6 19 3 20 5 21 4 22 1 23
REMARK H PARENT 18 11 18 12 10 14
ROOT
ATOM      1  C   UNL     1       3.967   0.151   9.080  1.00  0.00    -0.048 A 
ATOM      2  C   UNL     1       5.222  -0.359   9.416  1.00  0.00     0.006 A 
ATOM      3  C   UNL     1       5.368  -1.241  10.484  1.00  0.00     0.026 A 
ATOM      4  C   UNL     1       4.289  -1.585  11.301  1.00  0.00     0.038 A 
ATOM      5  C   UNL     1       3.040  -1.030  11.000  1.00  0.00     0.026 A 
ATOM      6  C   UNL     1       2.880  -0.171   9.902  1.00  0.00     0.006 A 
ENDROOT
BRANCH   1   7
ATOM      7  C   UNL     1       3.780   1.026   7.866  1.00  0.00     0.037 C 
BRANCH   7   8
ATOM      8  C   UNL     1       4.669   0.716   6.646  1.00  0.00     0.020 C 
BRANCH   8   9
ATOM      9  C   UNL     1       5.426   1.908   6.043  1.00  0.00     0.078 C 
BRANCH   9  10
ATOM     10  N   UNL     1       4.658   2.716   5.107  1.00  0.00    -0.330 NA
ATOM     11  H   UNL     1       4.388   3.596   5.545  1.00  0.00     0.118 HD
ATOM     12  H   UNL     1       3.782   2.247   4.875  1.00  0.00     0.118 HD
ENDBRANCH   9  10
ENDBRANCH   8   9
ENDBRANCH   7   8
ENDBRANCH   1   7
BRANCH   4  13
ATOM     13  N   UNL     1       4.451  -2.380  12.452  1.00  0.00    -0.362 N 
ATOM     14  H   UNL     1       5.175  -2.098  13.101  1.00  0.00     0.166 HD
BRANCH  13  15
ATOM     15  C   UNL     1       3.897  -3.621  12.630  1.00  0.00     0.083 C 
BRANCH  15  16
ATOM     16  C   UNL     1       3.808  -4.354  13.748  1.00  0.00     0.027 C 
BRANCH  16  17
ATOM     17  C   UNL     1       4.526  -5.630  13.881  1.00  0.00    -0.003 A 
ATOM     18  C   UNL     1       4.480  -6.402  15.056  1.00  0.00    -0.041 A 
ATOM     19  C   UNL     1       5.327  -6.118  12.838  1.00  0.00     0.119 A 
ATOM     20  C   UNL     1       5.215  -7.596  15.107  1.00  0.00     0.024 A 
ATOM     21  N   UNL     1       6.028  -7.276  12.864  1.00  0.00    -0.264 NA
ATOM     22  C   UNL     1       5.951  -7.990  14.000  1.00  0.00     0.111 A 
ATOM     23  C   UNL     1       3.705  -5.974  16.270  1.00  0.00     0.045 C 
ENDBRANCH  16  17
ENDBRANCH  15  16
ENDBRANCH  13  15
ENDBRANCH   4  13
TORSDOF 8
ENDMDL
