MODEL 1
REMARK VINA RESULT:    -5.261      0.000      0.000
REMARK INTER + INTRA:          -8.121
REMARK INTER:                  -7.568
REMARK INTRA:                  -0.553
REMARK UNBOUND:                -0.553
REMARK SMILES Cc1ccncc1/C=C/Nc1ccc(CCCN)cc1
REMARK SMILES IDX 14 1 13 2 12 3 11 4 20 5 19 6 15 7 16 8 17 9 18 10 10 13
REMARK SMILES IDX 9 15 8 16 7 17 2 18 6 19 3 20 5 21 4 22 1 23
REMARK H PARENT 18 11 18 12 10 14
ROOT
ATOM      1  C   UNL     1      -6.000  -6.028  -0.992  1.00  0.00    -0.048 A 
ATOM      2  C   UNL     1      -5.520  -7.338  -1.047  1.00  0.00     0.006 A 
ATOM      3  C   UNL     1      -6.334  -8.375  -1.495  1.00  0.00     0.026 A 
ATOM      4  C   UNL     1      -7.674  -8.162  -1.829  1.00  0.00     0.038 A 
ATOM      5  C   UNL     1      -8.173  -6.858  -1.720  1.00  0.00     0.026 A 
ATOM      6  C   UNL     1      -7.346  -5.803  -1.306  1.00  0.00     0.006 A 
ENDROOT
BRANCH   1   7
ATOM      7  C   UNL     1      -5.099  -4.882  -0.606  1.00  0.00     0.037 C 
BRANCH   7   8
ATOM      8  C   UNL     1      -4.209  -4.297  -1.719  1.00  0.00     0.020 C 
BRANCH   8   9
ATOM      9  C   UNL     1      -4.945  -3.605  -2.876  1.00  0.00     0.078 C 
BRANCH   9  10
ATOM     10  N   UNL     1      -5.355  -2.233  -2.612  1.00  0.00    -0.330 NA
ATOM     11  H   UNL     1      -4.536  -1.629  -2.557  1.00  0.00     0.118 HD
ATOM     12  H   UNL     1      -5.803  -2.170  -1.698  1.00  0.00     0.118 HD
ENDBRANCH   9  10
ENDBRANCH   8   9
ENDBRANCH   7   8
ENDBRANCH   1   7
BRANCH   4  13
ATOM     13  N   UNL     1      -8.535  -9.224  -2.167  1.00  0.00    -0.362 N 
ATOM     14  H   UNL     1      -9.063  -9.639  -1.410  1.00  0.00     0.166 HD
BRANCH  13  15
ATOM     15  C   UNL     1      -8.519  -9.893  -3.362  1.00  0.00     0.083 C 
BRANCH  15  16
ATOM     16  C   UNL     1      -9.295  -9.718  -4.440  1.00  0.00     0.027 C 
BRANCH  16  17
ATOM     17  C   UNL     1      -9.343 -10.720  -5.515  1.00  0.00    -0.003 A 
ATOM     18  C   UNL     1     -10.508 -11.448  -5.816  1.00  0.00    -0.041 A 
ATOM     19  C   UNL     1      -8.200 -11.020  -6.271  1.00  0.00     0.119 A 
ATOM     20  C   UNL     1     -10.459 -12.403  -6.843  1.00  0.00     0.024 A 
ATOM     21  N   UNL     1      -8.140 -11.925  -7.276  1.00  0.00    -0.264 NA
ATOM     22  C   UNL     1      -9.277 -12.594  -7.540  1.00  0.00     0.111 A 
ATOM     23  C   UNL     1     -11.789 -11.268  -5.052  1.00  0.00     0.045 C 
ENDBRANCH  16  17
ENDBRANCH  15  16
ENDBRANCH  13  15
ENDBRANCH   4  13
TORSDOF 8
ENDMDL
MODEL 2
REMARK VINA RESULT:    -5.248      4.268      5.878
REMARK INTER + INTRA:          -8.102
REMARK INTER:                  -7.518
REMARK INTRA:                  -0.584
REMARK UNBOUND:                -0.553
REMARK SMILES Cc1ccncc1/C=C/Nc1ccc(CCCN)cc1
REMARK SMILES IDX 14 1 13 2 12 3 11 4 20 5 19 6 15 7 16 8 17 9 18 10 10 13
REMARK SMILES IDX 9 15 8 16 7 17 2 18 6 19 3 20 5 21 4 22 1 23
REMARK H PARENT 18 11 18 12 10 14
ROOT
ATOM      1  C   UNL     1      -4.781  -7.201  -1.570  1.00  0.00    -0.048 A 
ATOM      2  C   UNL     1      -6.109  -6.777  -1.651  1.00  0.00     0.006 A 
ATOM      3  C   UNL     1      -7.154  -7.690  -1.539  1.00  0.00     0.026 A 
ATOM      4  C   UNL     1      -6.918  -9.062  -1.421  1.00  0.00     0.038 A 
ATOM      5  C   UNL     1      -5.587  -9.494  -1.398  1.00  0.00     0.026 A 
ATOM      6  C   UNL     1      -4.529  -8.575  -1.472  1.00  0.00     0.006 A 
ENDROOT
BRANCH   1   7
ATOM      7  C   UNL     1      -3.643  -6.211  -1.589  1.00  0.00     0.037 C 
BRANCH   7   8
ATOM      8  C   UNL     1      -3.362  -5.455  -0.276  1.00  0.00     0.020 C 
BRANCH   8   9
ATOM      9  C   UNL     1      -2.834  -6.304   0.890  1.00  0.00     0.078 C 
BRANCH   9  10
ATOM     10  N   UNL     1      -1.404  -6.571   0.858  1.00  0.00    -0.330 NA
ATOM     11  H   UNL     1      -0.889  -5.751   1.176  1.00  0.00     0.118 HD
ATOM     12  H   UNL     1      -1.097  -6.731  -0.102  1.00  0.00     0.118 HD
ENDBRANCH   9  10
ENDBRANCH   8   9
ENDBRANCH   7   8
ENDBRANCH   1   7
BRANCH   4  13
ATOM     13  N   UNL     1      -7.967 -10.001  -1.427  1.00  0.00    -0.362 N 
ATOM     14  H   UNL     1      -8.218 -10.396  -2.325  1.00  0.00     0.166 HD
BRANCH  13  15
ATOM     15  C   UNL     1      -8.825 -10.222  -0.383  1.00  0.00     0.083 C 
BRANCH  15  16
ATOM     16  C   UNL     1      -8.783 -11.173   0.560  1.00  0.00     0.027 C 
BRANCH  16  17
ATOM     17  C   UNL     1      -9.968 -11.500   1.366  1.00  0.00    -0.003 A 
ATOM     18  C   UNL     1     -10.635 -12.733   1.260  1.00  0.00    -0.041 A 
ATOM     19  C   UNL     1     -10.512 -10.565   2.260  1.00  0.00     0.119 A 
ATOM     20  C   UNL     1     -11.774 -12.954   2.050  1.00  0.00     0.024 A 
ATOM     21  N   UNL     1     -11.598 -10.768   3.042  1.00  0.00    -0.264 NA
ATOM     22  C   UNL     1     -12.202 -11.963   2.919  1.00  0.00     0.111 A 
ATOM     23  C   UNL     1     -10.195 -13.807   0.305  1.00  0.00     0.045 C 
ENDBRANCH  16  17
ENDBRANCH  15  16
ENDBRANCH  13  15
ENDBRANCH   4  13
TORSDOF 8
ENDMDL
MODEL 3
REMARK VINA RESULT:    -5.241      2.212      3.012
REMARK INTER + INTRA:          -8.092
REMARK INTER:                  -7.483
REMARK INTRA:                  -0.609
REMARK UNBOUND:                -0.553
REMARK SMILES Cc1ccncc1/C=C/Nc1ccc(CCCN)cc1
REMARK SMILES IDX 14 1 13 2 12 3 11 4 20 5 19 6 15 7 16 8 17 9 18 10 10 13
REMARK SMILES IDX 9 15 8 16 7 17 2 18 6 19 3 20 5 21 4 22 1 23
REMARK H PARENT 18 11 18 12 10 14
ROOT
ATOM      1  C   UNL     1      -6.096  -7.430  -1.076  1.00  0.00    -0.048 A 
ATOM      2  C   UNL     1      -7.325  -6.958  -1.540  1.00  0.00     0.006 A 
ATOM      3  C   UNL     1      -8.230  -7.818  -2.154  1.00  0.00     0.026 A 
ATOM      4  C   UNL     1      -7.917  -9.157  -2.399  1.00  0.00     0.038 A 
ATOM      5  C   UNL     1      -6.662  -9.619  -1.985  1.00  0.00     0.026 A 
ATOM      6  C   UNL     1      -5.760  -8.765  -1.331  1.00  0.00     0.006 A 
ENDROOT
BRANCH   1   7
ATOM      7  C   UNL     1      -5.150  -6.531  -0.319  1.00  0.00     0.037 C 
BRANCH   7   8
ATOM      8  C   UNL     1      -3.661  -6.928  -0.331  1.00  0.00     0.020 C 
BRANCH   8   9
ATOM      9  C   UNL     1      -2.860  -6.576   0.932  1.00  0.00     0.078 C 
BRANCH   9  10
ATOM     10  N   UNL     1      -1.416  -6.531   0.752  1.00  0.00    -0.330 NA
ATOM     11  H   UNL     1      -1.071  -5.589   0.929  1.00  0.00     0.118 HD
ATOM     12  H   UNL     1      -1.176  -6.732  -0.219  1.00  0.00     0.118 HD
ENDBRANCH   9  10
ENDBRANCH   8   9
ENDBRANCH   7   8
ENDBRANCH   1   7
BRANCH   4  13
ATOM     13  N   UNL     1      -8.778 -10.003  -3.126  1.00  0.00    -0.362 N 
ATOM     14  H   UNL     1      -9.031 -10.879  -2.686  1.00  0.00     0.166 HD
BRANCH  13  15
ATOM     15  C   UNL     1      -9.082  -9.856  -4.453  1.00  0.00     0.083 C 
BRANCH  15  16
ATOM     16  C   UNL     1      -8.597 -10.519  -5.510  1.00  0.00     0.027 C 
BRANCH  16  17
ATOM     17  C   UNL     1      -9.408 -11.522  -6.218  1.00  0.00    -0.003 A 
ATOM     18  C   UNL     1      -8.834 -12.542  -6.997  1.00  0.00    -0.041 A 
ATOM     19  C   UNL     1     -10.809 -11.476  -6.174  1.00  0.00     0.119 A 
ATOM     20  C   UNL     1      -9.682 -13.443  -7.658  1.00  0.00     0.024 A 
ATOM     21  N   UNL     1     -11.642 -12.347  -6.791  1.00  0.00    -0.264 NA
ATOM     22  C   UNL     1     -11.055 -13.314  -7.518  1.00  0.00     0.111 A 
ATOM     23  C   UNL     1      -7.348 -12.679  -7.176  1.00  0.00     0.045 C 
ENDBRANCH  16  17
ENDBRANCH  15  16
ENDBRANCH  13  15
ENDBRANCH   4  13
TORSDOF 8
ENDMDL
MODEL 4
REMARK VINA RESULT:    -5.218      1.744      2.235
REMARK INTER + INTRA:          -8.060
REMARK INTER:                  -7.571
REMARK INTRA:                  -0.489
REMARK UNBOUND:                -0.553
REMARK SMILES Cc1ccncc1/C=C/Nc1ccc(CCCN)cc1
REMARK SMILES IDX 14 1 13 2 12 3 11 4 20 5 19 6 15 7 16 8 17 9 18 10 10 13
REMARK SMILES IDX 9 15 8 16 7 17 2 18 6 19 3 20 5 21 4 22 1 23
REMARK H PARENT 18 11 18 12 10 14
ROOT
ATOM      1  C   UNL     1      -5.771  -6.105  -0.949  1.00  0.00    -0.048 A 
ATOM      2  C   UNL     1      -7.084  -5.727  -1.242  1.00  0.00     0.006 A 
ATOM      3  C   UNL     1      -8.029  -6.677  -1.616  1.00  0.00     0.026 A 
ATOM      4  C   UNL     1      -7.688  -8.021  -1.789  1.00  0.00     0.038 A 
ATOM      5  C   UNL     1      -6.360  -8.391  -1.551  1.00  0.00     0.026 A 
ATOM      6  C   UNL     1      -5.411  -7.445  -1.136  1.00  0.00     0.006 A 
ENDROOT
BRANCH   1   7
ATOM      7  C   UNL     1      -4.764  -5.101  -0.445  1.00  0.00     0.037 C 
BRANCH   7   8
ATOM      8  C   UNL     1      -3.290  -5.547  -0.433  1.00  0.00     0.020 C 
BRANCH   8   9
ATOM      9  C   UNL     1      -2.747  -6.043   0.916  1.00  0.00     0.078 C 
BRANCH   9  10
ATOM     10  N   UNL     1      -1.417  -6.632   0.865  1.00  0.00    -0.330 NA
ATOM     11  H   UNL     1      -0.802  -6.057   0.290  1.00  0.00     0.118 HD
ATOM     12  H   UNL     1      -1.453  -7.541   0.403  1.00  0.00     0.118 HD
ENDBRANCH   9  10
ENDBRANCH   8   9
ENDBRANCH   7   8
ENDBRANCH   1   7
BRANCH   4  13
ATOM     13  N   UNL     1      -8.610  -8.965  -2.282  1.00  0.00    -0.362 N 
ATOM     14  H   UNL     1      -9.319  -9.288  -1.636  1.00  0.00     0.166 HD
BRANCH  13  15
ATOM     15  C   UNL     1      -8.468  -9.658  -3.455  1.00  0.00     0.083 C 
BRANCH  15  16
ATOM     16  C   UNL     1      -9.193  -9.576  -4.579  1.00  0.00     0.027 C 
BRANCH  16  17
ATOM     17  C   UNL     1      -9.211 -10.676  -5.555  1.00  0.00    -0.003 A 
ATOM     18  C   UNL     1     -10.369 -11.426  -5.825  1.00  0.00    -0.041 A 
ATOM     19  C   UNL     1      -8.045 -11.049  -6.240  1.00  0.00     0.119 A 
ATOM     20  C   UNL     1     -10.292 -12.474  -6.755  1.00  0.00     0.024 A 
ATOM     21  N   UNL     1      -7.957 -12.045  -7.153  1.00  0.00    -0.264 NA
ATOM     22  C   UNL     1      -9.088 -12.733  -7.390  1.00  0.00     0.111 A 
ATOM     23  C   UNL     1     -11.675 -11.171  -5.125  1.00  0.00     0.045 C 
ENDBRANCH  16  17
ENDBRANCH  15  16
ENDBRANCH  13  15
ENDBRANCH   4  13
TORSDOF 8
ENDMDL
MODEL 5
REMARK VINA RESULT:    -5.215      2.338      8.224
REMARK INTER + INTRA:          -8.055
REMARK INTER:                  -7.263
REMARK INTRA:                  -0.792
REMARK UNBOUND:                -0.553
REMARK SMILES Cc1ccncc1/C=C/Nc1ccc(CCCN)cc1
REMARK SMILES IDX 14 1 13 2 12 3 11 4 20 5 19 6 15 7 16 8 17 9 18 10 10 13
REMARK SMILES IDX 9 15 8 16 7 17 2 18 6 19 3 20 5 21 4 22 1 23
REMARK H PARENT 18 11 18 12 10 14
ROOT
ATOM      1  C   UNL     1      -9.511 -11.783  -6.851  1.00  0.00    -0.048 A 
ATOM      2  C   UNL     1      -8.295 -11.129  -6.643  1.00  0.00     0.006 A 
ATOM      3  C   UNL     1      -8.093 -10.348  -5.509  1.00  0.00     0.026 A 
ATOM      4  C   UNL     1      -9.114 -10.125  -4.582  1.00  0.00     0.038 A 
ATOM      5  C   UNL     1     -10.353 -10.734  -4.819  1.00  0.00     0.026 A 
ATOM      6  C   UNL     1     -10.550 -11.553  -5.941  1.00  0.00     0.006 A 
ENDROOT
BRANCH   1   7
ATOM      7  C   UNL     1      -9.707 -12.712  -8.023  1.00  0.00     0.037 C 
BRANCH   7   8
ATOM      8  C   UNL     1      -8.647 -13.812  -8.219  1.00  0.00     0.020 C 
BRANCH   8   9
ATOM      9  C   UNL     1      -8.838 -15.088  -7.385  1.00  0.00     0.078 C 
BRANCH   9  10
ATOM     10  N   UNL     1      -8.011 -15.172  -6.190  1.00  0.00    -0.330 NA
ATOM     11  H   UNL     1      -8.580 -15.006  -5.360  1.00  0.00     0.118 HD
ATOM     12  H   UNL     1      -7.311 -14.430  -6.194  1.00  0.00     0.118 HD
ENDBRANCH   9  10
ENDBRANCH   8   9
ENDBRANCH   7   8
ENDBRANCH   1   7
BRANCH   4  13
ATOM     13  N   UNL     1      -8.955  -9.242  -3.497  1.00  0.00    -0.362 N 
ATOM     14  H   UNL     1      -9.089  -8.257  -3.690  1.00  0.00     0.166 HD
BRANCH  13  15
ATOM     15  C   UNL     1      -8.394  -9.575  -2.293  1.00  0.00     0.083 C 
BRANCH  15  16
ATOM     16  C   UNL     1      -7.788  -8.786  -1.396  1.00  0.00     0.027 C 
BRANCH  16  17
ATOM     17  C   UNL     1      -6.323  -8.652  -1.366  1.00  0.00    -0.003 A 
ATOM     18  C   UNL     1      -5.682  -7.401  -1.329  1.00  0.00    -0.041 A 
ATOM     19  C   UNL     1      -5.496  -9.783  -1.413  1.00  0.00     0.119 A 
ATOM     20  C   UNL     1      -4.279  -7.363  -1.327  1.00  0.00     0.024 A 
ATOM     21  N   UNL     1      -4.142  -9.765  -1.394  1.00  0.00    -0.264 NA
ATOM     22  C   UNL     1      -3.566  -8.551  -1.348  1.00  0.00     0.111 A 
ATOM     23  C   UNL     1      -6.444  -6.106  -1.330  1.00  0.00     0.045 C 
ENDBRANCH  16  17
ENDBRANCH  15  16
ENDBRANCH  13  15
ENDBRANCH   4  13
TORSDOF 8
ENDMDL
MODEL 6
REMARK VINA RESULT:    -5.192      4.058      5.266
REMARK INTER + INTRA:          -8.021
REMARK INTER:                  -7.410
REMARK INTRA:                  -0.611
REMARK UNBOUND:                -0.553
REMARK SMILES Cc1ccncc1/C=C/Nc1ccc(CCCN)cc1
REMARK SMILES IDX 14 1 13 2 12 3 11 4 20 5 19 6 15 7 16 8 17 9 18 10 10 13
REMARK SMILES IDX 9 15 8 16 7 17 2 18 6 19 3 20 5 21 4 22 1 23
REMARK H PARENT 18 11 18 12 10 14
ROOT
ATOM      1  C   UNL     1      -5.827  -6.718  -1.773  1.00  0.00    -0.048 A 
ATOM      2  C   UNL     1      -5.296  -7.967  -1.446  1.00  0.00     0.006 A 
ATOM      3  C   UNL     1      -6.130  -9.062  -1.240  1.00  0.00     0.026 A 
ATOM      4  C   UNL     1      -7.521  -8.939  -1.274  1.00  0.00     0.038 A 
ATOM      5  C   UNL     1      -8.057  -7.674  -1.545  1.00  0.00     0.026 A 
ATOM      6  C   UNL     1      -7.220  -6.575  -1.792  1.00  0.00     0.006 A 
ENDROOT
BRANCH   1   7
ATOM      7  C   UNL     1      -4.930  -5.549  -2.098  1.00  0.00     0.037 C 
BRANCH   7   8
ATOM      8  C   UNL     1      -5.539  -4.144  -1.934  1.00  0.00     0.020 C 
BRANCH   8   9
ATOM      9  C   UNL     1      -5.229  -3.140  -3.054  1.00  0.00     0.078 C 
BRANCH   9  10
ATOM     10  N   UNL     1      -3.823  -2.793  -3.198  1.00  0.00    -0.330 NA
ATOM     11  H   UNL     1      -3.682  -2.255  -4.052  1.00  0.00     0.118 HD
ATOM     12  H   UNL     1      -3.262  -3.638  -3.311  1.00  0.00     0.118 HD
ENDBRANCH   9  10
ENDBRANCH   8   9
ENDBRANCH   7   8
ENDBRANCH   1   7
BRANCH   4  13
ATOM     13  N   UNL     1      -8.372 -10.013  -0.949  1.00  0.00    -0.362 N 
ATOM     14  H   UNL     1      -9.147 -10.185  -1.578  1.00  0.00     0.166 HD
BRANCH  13  15
ATOM     15  C   UNL     1      -8.387 -10.663   0.256  1.00  0.00     0.083 C 
BRANCH  15  16
ATOM     16  C   UNL     1      -9.309 -10.624   1.227  1.00  0.00     0.027 C 
BRANCH  16  17
ATOM     17  C   UNL     1     -10.294 -11.704   1.387  1.00  0.00    -0.003 A 
ATOM     18  C   UNL     1     -11.474 -11.544   2.134  1.00  0.00    -0.041 A 
ATOM     19  C   UNL     1     -10.072 -12.969   0.822  1.00  0.00     0.119 A 
ATOM     20  C   UNL     1     -12.348 -12.636   2.255  1.00  0.00     0.024 A 
ATOM     21  N   UNL     1     -10.912 -14.027   0.914  1.00  0.00    -0.264 NA
ATOM     22  C   UNL     1     -12.035 -13.831   1.628  1.00  0.00     0.111 A 
ATOM     23  C   UNL     1     -11.814 -10.260   2.837  1.00  0.00     0.045 C 
ENDBRANCH  16  17
ENDBRANCH  15  16
ENDBRANCH  13  15
ENDBRANCH   4  13
TORSDOF 8
ENDMDL
MODEL 7
REMARK VINA RESULT:    -5.100      5.661      8.850
REMARK INTER + INTRA:          -7.889
REMARK INTER:                  -7.308
REMARK INTRA:                  -0.580
REMARK UNBOUND:                -0.553
REMARK SMILES Cc1ccncc1/C=C/Nc1ccc(CCCN)cc1
REMARK SMILES IDX 14 1 13 2 12 3 11 4 20 5 19 6 15 7 16 8 17 9 18 10 10 13
REMARK SMILES IDX 9 15 8 16 7 17 2 18 6 19 3 20 5 21 4 22 1 23
REMARK H PARENT 18 11 18 12 10 14
ROOT
ATOM      1  C   UNL     1     -11.544 -12.490   2.643  1.00  0.00    -0.048 A 
ATOM      2  C   UNL     1     -11.029 -11.204   2.819  1.00  0.00     0.006 A 
ATOM      3  C   UNL     1     -10.089 -10.688   1.932  1.00  0.00     0.026 A 
ATOM      4  C   UNL     1      -9.572 -11.455   0.885  1.00  0.00     0.038 A 
ATOM      5  C   UNL     1     -10.046 -12.764   0.741  1.00  0.00     0.026 A 
ATOM      6  C   UNL     1     -11.021 -13.277   1.610  1.00  0.00     0.006 A 
ENDROOT
BRANCH   1   7
ATOM      7  C   UNL     1     -12.635 -13.023   3.538  1.00  0.00     0.037 C 
BRANCH   7   8
ATOM      8  C   UNL     1     -12.699 -12.450   4.967  1.00  0.00     0.020 C 
BRANCH   8   9
ATOM      9  C   UNL     1     -12.357 -13.429   6.100  1.00  0.00     0.078 C 
BRANCH   9  10
ATOM     10  N   UNL     1     -11.307 -12.981   7.003  1.00  0.00    -0.330 NA
ATOM     11  H   UNL     1     -11.544 -13.228   7.963  1.00  0.00     0.118 HD
ATOM     12  H   UNL     1     -11.242 -11.963   6.990  1.00  0.00     0.118 HD
ENDBRANCH   9  10
ENDBRANCH   8   9
ENDBRANCH   7   8
ENDBRANCH   1   7
BRANCH   4  13
ATOM     13  N   UNL     1      -8.536 -10.982   0.057  1.00  0.00    -0.362 N 
ATOM     14  H   UNL     1      -7.749 -11.602  -0.085  1.00  0.00     0.166 HD
BRANCH  13  15
ATOM     15  C   UNL     1      -8.392  -9.682  -0.351  1.00  0.00     0.083 C 
BRANCH  15  16
ATOM     16  C   UNL     1      -7.756  -9.198  -1.426  1.00  0.00     0.027 C 
BRANCH  16  17
ATOM     17  C   UNL     1      -6.318  -8.893  -1.388  1.00  0.00    -0.003 A 
ATOM     18  C   UNL     1      -5.827  -7.575  -1.390  1.00  0.00    -0.041 A 
ATOM     19  C   UNL     1      -5.364  -9.921  -1.385  1.00  0.00     0.119 A 
ATOM     20  C   UNL     1      -4.438  -7.374  -1.376  1.00  0.00     0.024 A 
ATOM     21  N   UNL     1      -4.022  -9.745  -1.354  1.00  0.00    -0.264 NA
ATOM     22  C   UNL     1      -3.592  -8.471  -1.347  1.00  0.00     0.111 A 
ATOM     23  C   UNL     1      -6.734  -6.378  -1.446  1.00  0.00     0.045 C 
ENDBRANCH  16  17
ENDBRANCH  15  16
ENDBRANCH  13  15
ENDBRANCH   4  13
TORSDOF 8
ENDMDL
MODEL 8
REMARK VINA RESULT:    -5.094      1.737      8.613
REMARK INTER + INTRA:          -7.880
REMARK INTER:                  -7.186
REMARK INTRA:                  -0.694
REMARK UNBOUND:                -0.553
REMARK SMILES Cc1ccncc1/C=C/Nc1ccc(CCCN)cc1
REMARK SMILES IDX 14 1 13 2 12 3 11 4 20 5 19 6 15 7 16 8 17 9 18 10 10 13
REMARK SMILES IDX 9 15 8 16 7 17 2 18 6 19 3 20 5 21 4 22 1 23
REMARK H PARENT 18 11 18 12 10 14
ROOT
ATOM      1  C   UNL     1      -9.641 -12.121  -7.154  1.00  0.00    -0.048 A 
ATOM      2  C   UNL     1     -10.701 -11.898  -6.272  1.00  0.00     0.006 A 
ATOM      3  C   UNL     1     -10.576 -10.989  -5.226  1.00  0.00     0.026 A 
ATOM      4  C   UNL     1      -9.372 -10.328  -4.971  1.00  0.00     0.038 A 
ATOM      5  C   UNL     1      -8.291 -10.593  -5.820  1.00  0.00     0.026 A 
ATOM      6  C   UNL     1      -8.423 -11.480  -6.899  1.00  0.00     0.006 A 
ENDROOT
BRANCH   1   7
ATOM      7  C   UNL     1      -9.798 -13.026  -8.350  1.00  0.00     0.037 C 
BRANCH   7   8
ATOM      8  C   UNL     1      -8.765 -14.160  -8.499  1.00  0.00     0.020 C 
BRANCH   8   9
ATOM      9  C   UNL     1      -8.880 -15.313  -7.490  1.00  0.00     0.078 C 
BRANCH   9  10
ATOM     10  N   UNL     1      -8.038 -15.182  -6.309  1.00  0.00    -0.330 NA
ATOM     11  H   UNL     1      -7.681 -14.231  -6.238  1.00  0.00     0.118 HD
ATOM     12  H   UNL     1      -7.215 -15.778  -6.396  1.00  0.00     0.118 HD
ENDBRANCH   9  10
ENDBRANCH   8   9
ENDBRANCH   7   8
ENDBRANCH   1   7
BRANCH   4  13
ATOM     13  N   UNL     1      -9.202  -9.499  -3.845  1.00  0.00    -0.362 N 
ATOM     14  H   UNL     1      -9.941  -8.834  -3.655  1.00  0.00     0.166 HD
BRANCH  13  15
ATOM     15  C   UNL     1      -8.027  -9.346  -3.157  1.00  0.00     0.083 C 
BRANCH  15  16
ATOM     16  C   UNL     1      -7.828  -8.873  -1.919  1.00  0.00     0.027 C 
BRANCH  16  17
ATOM     17  C   UNL     1      -7.573  -7.444  -1.682  1.00  0.00    -0.003 A 
ATOM     18  C   UNL     1      -6.295  -6.948  -1.367  1.00  0.00    -0.041 A 
ATOM     19  C   UNL     1      -8.619  -6.509  -1.722  1.00  0.00     0.119 A 
ATOM     20  C   UNL     1      -6.145  -5.573  -1.132  1.00  0.00     0.024 A 
ATOM     21  N   UNL     1      -8.488  -5.178  -1.516  1.00  0.00    -0.264 NA
ATOM     22  C   UNL     1      -7.249  -4.741  -1.228  1.00  0.00     0.111 A 
ATOM     23  C   UNL     1      -5.095  -7.843  -1.237  1.00  0.00     0.045 C 
ENDBRANCH  16  17
ENDBRANCH  15  16
ENDBRANCH  13  15
ENDBRANCH   4  13
TORSDOF 8
ENDMDL
MODEL 9
REMARK VINA RESULT:    -4.943      5.406      8.811
REMARK INTER + INTRA:          -7.663
REMARK INTER:                  -7.039
REMARK INTRA:                  -0.624
REMARK UNBOUND:                -0.553
REMARK SMILES Cc1ccncc1/C=C/Nc1ccc(CCCN)cc1
REMARK SMILES IDX 14 1 13 2 12 3 11 4 20 5 19 6 15 7 16 8 17 9 18 10 10 13
REMARK SMILES IDX 9 15 8 16 7 17 2 18 6 19 3 20 5 21 4 22 1 23
REMARK H PARENT 18 11 18 12 10 14
ROOT
ATOM      1  C   UNL     1     -11.342 -12.268   2.388  1.00  0.00    -0.048 A 
ATOM      2  C   UNL     1     -10.814 -13.024   1.339  1.00  0.00     0.006 A 
ATOM      3  C   UNL     1      -9.759 -12.537   0.573  1.00  0.00     0.026 A 
ATOM      4  C   UNL     1      -9.243 -11.254   0.770  1.00  0.00     0.038 A 
ATOM      5  C   UNL     1      -9.810 -10.472   1.784  1.00  0.00     0.026 A 
ATOM      6  C   UNL     1     -10.848 -10.973   2.584  1.00  0.00     0.006 A 
ENDROOT
BRANCH   1   7
ATOM      7  C   UNL     1     -12.416 -12.825   3.288  1.00  0.00     0.037 C 
BRANCH   7   8
ATOM      8  C   UNL     1     -12.434 -12.315   4.742  1.00  0.00     0.020 C 
BRANCH   8   9
ATOM      9  C   UNL     1     -12.585 -13.388   5.831  1.00  0.00     0.078 C 
BRANCH   9  10
ATOM     10  N   UNL     1     -11.552 -13.372   6.857  1.00  0.00    -0.330 NA
ATOM     11  H   UNL     1     -10.631 -13.332   6.425  1.00  0.00     0.118 HD
ATOM     12  H   UNL     1     -11.569 -14.244   7.386  1.00  0.00     0.118 HD
ENDBRANCH   9  10
ENDBRANCH   8   9
ENDBRANCH   7   8
ENDBRANCH   1   7
BRANCH   4  13
ATOM     13  N   UNL     1      -8.258 -10.710  -0.077  1.00  0.00    -0.362 N 
ATOM     14  H   UNL     1      -7.298 -10.789   0.234  1.00  0.00     0.166 HD
BRANCH  13  15
ATOM     15  C   UNL     1      -8.509  -9.874  -1.133  1.00  0.00     0.083 C 
BRANCH  15  16
ATOM     16  C   UNL     1      -7.649  -9.150  -1.861  1.00  0.00     0.027 C 
BRANCH  16  17
ATOM     17  C   UNL     1      -7.512  -7.699  -1.657  1.00  0.00    -0.003 A 
ATOM     18  C   UNL     1      -6.279  -7.093  -1.360  1.00  0.00    -0.041 A 
ATOM     19  C   UNL     1      -8.632  -6.856  -1.716  1.00  0.00     0.119 A 
ATOM     20  C   UNL     1      -6.243  -5.705  -1.157  1.00  0.00     0.024 A 
ATOM     21  N   UNL     1      -8.612  -5.514  -1.540  1.00  0.00    -0.264 NA
ATOM     22  C   UNL     1      -7.413  -4.970  -1.267  1.00  0.00     0.111 A 
ATOM     23  C   UNL     1      -5.009  -7.882  -1.214  1.00  0.00     0.045 C 
ENDBRANCH  16  17
ENDBRANCH  15  16
ENDBRANCH  13  15
ENDBRANCH   4  13
TORSDOF 8
ENDMDL
