MODEL 1
REMARK VINA RESULT:    -5.169      0.000      0.000
REMARK INTER + INTRA:          -8.075
REMARK INTER:                  -7.435
REMARK INTRA:                  -0.640
REMARK UNBOUND:                -0.640
REMARK SMILES Cc1ccncc1/C=C/Nc1ccc(CCCN)cc1
REMARK SMILES IDX 14 1 13 2 12 3 11 4 20 5 19 6 15 7 16 8 17 9 18 10 10 13
REMARK SMILES IDX 9 15 8 16 7 17 2 18 6 19 3 20 5 21 4 22 1 23
REMARK H PARENT 18 11 18 12 10 14
ROOT
ATOM      1  C   UNL     1       3.437 -12.976  -8.917  1.00  0.00    -0.048 A 
ATOM      2  C   UNL     1       2.815 -12.043  -8.085  1.00  0.00     0.006 A 
ATOM      3  C   UNL     1       3.418 -10.819  -7.815  1.00  0.00     0.026 A 
ATOM      4  C   UNL     1       4.692 -10.508  -8.297  1.00  0.00     0.038 A 
ATOM      5  C   UNL     1       5.341 -11.465  -9.085  1.00  0.00     0.026 A 
ATOM      6  C   UNL     1       4.722 -12.686  -9.392  1.00  0.00     0.006 A 
ENDROOT
BRANCH   1   7
ATOM      7  C   UNL     1       2.749 -14.263  -9.298  1.00  0.00     0.037 C 
BRANCH   7   8
ATOM      8  C   UNL     1       1.516 -14.144 -10.215  1.00  0.00     0.020 C 
BRANCH   8   9
ATOM      9  C   UNL     1       1.761 -14.399 -11.709  1.00  0.00     0.078 C 
BRANCH   9  10
ATOM     10  N   UNL     1       1.412 -13.292 -12.588  1.00  0.00    -0.330 NA
ATOM     11  H   UNL     1       2.072 -12.525 -12.462  1.00  0.00     0.118 HD
ATOM     12  H   UNL     1       0.500 -12.913 -12.331  1.00  0.00     0.118 HD
ENDBRANCH   9  10
ENDBRANCH   8   9
ENDBRANCH   7   8
ENDBRANCH   1   7
BRANCH   4  13
ATOM     13  N   UNL     1       5.358  -9.322  -7.931  1.00  0.00    -0.362 N 
ATOM     14  H   UNL     1       6.134  -9.417  -7.288  1.00  0.00     0.166 HD
BRANCH  13  15
ATOM     15  C   UNL     1       4.888  -8.057  -8.165  1.00  0.00     0.083 C 
BRANCH  15  16
ATOM     16  C   UNL     1       5.190  -6.913  -7.536  1.00  0.00     0.027 C 
BRANCH  16  17
ATOM     17  C   UNL     1       4.139  -5.980  -7.104  1.00  0.00    -0.003 A 
ATOM     18  C   UNL     1       4.308  -5.102  -6.019  1.00  0.00    -0.041 A 
ATOM     19  C   UNL     1       2.891  -5.956  -7.745  1.00  0.00     0.119 A 
ATOM     20  C   UNL     1       3.244  -4.262  -5.660  1.00  0.00     0.024 A 
ATOM     21  N   UNL     1       1.860  -5.140  -7.423  1.00  0.00    -0.264 NA
ATOM     22  C   UNL     1       2.065  -4.308  -6.386  1.00  0.00     0.111 A 
ATOM     23  C   UNL     1       5.573  -5.060  -5.209  1.00  0.00     0.045 C 
ENDBRANCH  16  17
ENDBRANCH  15  16
ENDBRANCH  13  15
ENDBRANCH   4  13
TORSDOF 8
ENDMDL
MODEL 2
REMARK VINA RESULT:    -5.147      4.734      6.741
REMARK INTER + INTRA:          -8.044
REMARK INTER:                  -7.405
REMARK INTRA:                  -0.639
REMARK UNBOUND:                -0.640
REMARK SMILES Cc1ccncc1/C=C/Nc1ccc(CCCN)cc1
REMARK SMILES IDX 14 1 13 2 12 3 11 4 20 5 19 6 15 7 16 8 17 9 18 10 10 13
REMARK SMILES IDX 9 15 8 16 7 17 2 18 6 19 3 20 5 21 4 22 1 23
REMARK H PARENT 18 11 18 12 10 14
ROOT
ATOM      1  C   UNL     1       7.506  -6.285 -13.511  1.00  0.00    -0.048 A 
ATOM      2  C   UNL     1       7.438  -5.488 -12.366  1.00  0.00     0.006 A 
ATOM      3  C   UNL     1       6.406  -5.651 -11.448  1.00  0.00     0.026 A 
ATOM      4  C   UNL     1       5.363  -6.554 -11.670  1.00  0.00     0.038 A 
ATOM      5  C   UNL     1       5.400  -7.314 -12.845  1.00  0.00     0.026 A 
ATOM      6  C   UNL     1       6.459  -7.181 -13.757  1.00  0.00     0.006 A 
ENDROOT
BRANCH   1   7
ATOM      7  C   UNL     1       8.673  -6.188 -14.462  1.00  0.00     0.037 C 
BRANCH   7   8
ATOM      8  C   UNL     1      10.061  -6.542 -13.892  1.00  0.00     0.020 C 
BRANCH   8   9
ATOM      9  C   UNL     1      10.632  -7.905 -14.309  1.00  0.00     0.078 C 
BRANCH   9  10
ATOM     10  N   UNL     1      10.655  -8.911 -13.256  1.00  0.00    -0.330 NA
ATOM     11  H   UNL     1       9.869  -9.550 -13.367  1.00  0.00     0.118 HD
ATOM     12  H   UNL     1      10.523  -8.470 -12.346  1.00  0.00     0.118 HD
ENDBRANCH   9  10
ENDBRANCH   8   9
ENDBRANCH   7   8
ENDBRANCH   1   7
BRANCH   4  13
ATOM     13  N   UNL     1       4.255  -6.640 -10.806  1.00  0.00    -0.362 N 
ATOM     14  H   UNL     1       3.357  -6.375 -11.191  1.00  0.00     0.166 HD
BRANCH  13  15
ATOM     15  C   UNL     1       4.332  -6.798  -9.448  1.00  0.00     0.083 C 
BRANCH  15  16
ATOM     16  C   UNL     1       3.435  -6.478  -8.506  1.00  0.00     0.027 C 
BRANCH  16  17
ATOM     17  C   UNL     1       3.853  -5.896  -7.222  1.00  0.00    -0.003 A 
ATOM     18  C   UNL     1       2.985  -5.129  -6.423  1.00  0.00    -0.041 A 
ATOM     19  C   UNL     1       5.166  -6.053  -6.754  1.00  0.00     0.119 A 
ATOM     20  C   UNL     1       3.474  -4.591  -5.223  1.00  0.00     0.024 A 
ATOM     21  N   UNL     1       5.648  -5.556  -5.590  1.00  0.00    -0.264 NA
ATOM     22  C   UNL     1       4.785  -4.837  -4.850  1.00  0.00     0.111 A 
ATOM     23  C   UNL     1       1.568  -4.835  -6.828  1.00  0.00     0.045 C 
ENDBRANCH  16  17
ENDBRANCH  15  16
ENDBRANCH  13  15
ENDBRANCH   4  13
TORSDOF 8
ENDMDL
MODEL 3
REMARK VINA RESULT:    -5.041      1.307      2.178
REMARK INTER + INTRA:          -7.891
REMARK INTER:                  -7.259
REMARK INTRA:                  -0.633
REMARK UNBOUND:                -0.640
REMARK SMILES Cc1ccncc1/C=C/Nc1ccc(CCCN)cc1
REMARK SMILES IDX 14 1 13 2 12 3 11 4 20 5 19 6 15 7 16 8 17 9 18 10 10 13
REMARK SMILES IDX 9 15 8 16 7 17 2 18 6 19 3 20 5 21 4 22 1 23
REMARK H PARENT 18 11 18 12 10 14
ROOT
ATOM      1  C   UNL     1       3.529 -13.226  -9.015  1.00  0.00    -0.048 A 
ATOM      2  C   UNL     1       4.776 -12.830  -9.501  1.00  0.00     0.006 A 
ATOM      3  C   UNL     1       5.314 -11.594  -9.154  1.00  0.00     0.026 A 
ATOM      4  C   UNL     1       4.601 -10.677  -8.377  1.00  0.00     0.038 A 
ATOM      5  C   UNL     1       3.326 -11.051  -7.936  1.00  0.00     0.026 A 
ATOM      6  C   UNL     1       2.795 -12.310  -8.251  1.00  0.00     0.006 A 
ENDROOT
BRANCH   1   7
ATOM      7  C   UNL     1       2.980 -14.601  -9.302  1.00  0.00     0.037 C 
BRANCH   7   8
ATOM      8  C   UNL     1       1.505 -14.681  -9.739  1.00  0.00     0.020 C 
BRANCH   8   9
ATOM      9  C   UNL     1       1.249 -14.664 -11.253  1.00  0.00     0.078 C 
BRANCH   9  10
ATOM     10  N   UNL     1       1.224 -13.340 -11.858  1.00  0.00    -0.330 NA
ATOM     11  H   UNL     1       1.785 -12.693 -11.305  1.00  0.00     0.118 HD
ATOM     12  H   UNL     1       0.276 -12.964 -11.842  1.00  0.00     0.118 HD
ENDBRANCH   9  10
ENDBRANCH   8   9
ENDBRANCH   7   8
ENDBRANCH   1   7
BRANCH   4  13
ATOM     13  N   UNL     1       5.088  -9.381  -8.121  1.00  0.00    -0.362 N 
ATOM     14  H   UNL     1       5.599  -9.250  -7.257  1.00  0.00     0.166 HD
BRANCH  13  15
ATOM     15  C   UNL     1       4.712  -8.255  -8.804  1.00  0.00     0.083 C 
BRANCH  15  16
ATOM     16  C   UNL     1       4.094  -7.157  -8.350  1.00  0.00     0.027 C 
BRANCH  16  17
ATOM     17  C   UNL     1       4.629  -6.400  -7.207  1.00  0.00    -0.003 A 
ATOM     18  C   UNL     1       3.858  -5.464  -6.496  1.00  0.00    -0.041 A 
ATOM     19  C   UNL     1       5.962  -6.559  -6.799  1.00  0.00     0.119 A 
ATOM     20  C   UNL     1       4.454  -4.768  -5.433  1.00  0.00     0.024 A 
ATOM     21  N   UNL     1       6.548  -5.910  -5.766  1.00  0.00    -0.264 NA
ATOM     22  C   UNL     1       5.775  -5.030  -5.104  1.00  0.00     0.111 A 
ATOM     23  C   UNL     1       2.433  -5.154  -6.857  1.00  0.00     0.045 C 
ENDBRANCH  16  17
ENDBRANCH  15  16
ENDBRANCH  13  15
ENDBRANCH   4  13
TORSDOF 8
ENDMDL
MODEL 4
REMARK VINA RESULT:    -4.984      1.978      8.623
REMARK INTER + INTRA:          -7.809
REMARK INTER:                  -7.276
REMARK INTRA:                  -0.533
REMARK UNBOUND:                -0.640
REMARK SMILES Cc1ccncc1/C=C/Nc1ccc(CCCN)cc1
REMARK SMILES IDX 14 1 13 2 12 3 11 4 20 5 19 6 15 7 16 8 17 9 18 10 10 13
REMARK SMILES IDX 9 15 8 16 7 17 2 18 6 19 3 20 5 21 4 22 1 23
REMARK H PARENT 18 11 18 12 10 14
ROOT
ATOM      1  C   UNL     1       3.919  -5.063  -7.017  1.00  0.00    -0.048 A 
ATOM      2  C   UNL     1       5.035  -5.816  -6.647  1.00  0.00     0.006 A 
ATOM      3  C   UNL     1       5.317  -7.025  -7.278  1.00  0.00     0.026 A 
ATOM      4  C   UNL     1       4.461  -7.565  -8.241  1.00  0.00     0.038 A 
ATOM      5  C   UNL     1       3.312  -6.838  -8.572  1.00  0.00     0.026 A 
ATOM      6  C   UNL     1       3.042  -5.601  -7.967  1.00  0.00     0.006 A 
ENDROOT
BRANCH   1   7
ATOM      7  C   UNL     1       3.658  -3.706  -6.413  1.00  0.00     0.037 C 
BRANCH   7   8
ATOM      8  C   UNL     1       2.200  -3.387  -6.032  1.00  0.00     0.020 C 
BRANCH   8   9
ATOM      9  C   UNL     1       1.631  -2.073  -6.588  1.00  0.00     0.078 C 
BRANCH   9  10
ATOM     10  N   UNL     1       1.924  -0.890  -5.792  1.00  0.00    -0.330 NA
ATOM     11  H   UNL     1       1.460  -0.954  -4.887  1.00  0.00     0.118 HD
ATOM     12  H   UNL     1       1.535  -0.059  -6.240  1.00  0.00     0.118 HD
ENDBRANCH   9  10
ENDBRANCH   8   9
ENDBRANCH   7   8
ENDBRANCH   1   7
BRANCH   4  13
ATOM     13  N   UNL     1       4.677  -8.841  -8.797  1.00  0.00    -0.362 N 
ATOM     14  H   UNL     1       4.556  -8.927  -9.798  1.00  0.00     0.166 HD
BRANCH  13  15
ATOM     15  C   UNL     1       4.780 -10.001  -8.076  1.00  0.00     0.083 C 
BRANCH  15  16
ATOM     16  C   UNL     1       4.162 -11.174  -8.269  1.00  0.00     0.027 C 
BRANCH  16  17
ATOM     17  C   UNL     1       4.661 -12.144  -9.255  1.00  0.00    -0.003 A 
ATOM     18  C   UNL     1       4.090 -13.419  -9.414  1.00  0.00    -0.041 A 
ATOM     19  C   UNL     1       5.768 -11.844 -10.064  1.00  0.00     0.119 A 
ATOM     20  C   UNL     1       4.643 -14.292 -10.364  1.00  0.00     0.024 A 
ATOM     21  N   UNL     1       6.303 -12.667 -10.996  1.00  0.00    -0.264 NA
ATOM     22  C   UNL     1       5.723 -13.873 -11.125  1.00  0.00     0.111 A 
ATOM     23  C   UNL     1       2.934 -13.893  -8.579  1.00  0.00     0.045 C 
ENDBRANCH  16  17
ENDBRANCH  15  16
ENDBRANCH  13  15
ENDBRANCH   4  13
TORSDOF 8
ENDMDL
MODEL 5
REMARK VINA RESULT:    -4.983      4.523      8.454
REMARK INTER + INTRA:          -7.808
REMARK INTER:                  -7.240
REMARK INTRA:                  -0.568
REMARK UNBOUND:                -0.640
REMARK SMILES Cc1ccncc1/C=C/Nc1ccc(CCCN)cc1
REMARK SMILES IDX 14 1 13 2 12 3 11 4 20 5 19 6 15 7 16 8 17 9 18 10 10 13
REMARK SMILES IDX 9 15 8 16 7 17 2 18 6 19 3 20 5 21 4 22 1 23
REMARK H PARENT 18 11 18 12 10 14
ROOT
ATOM      1  C   UNL     1       4.022  -5.831  -6.242  1.00  0.00    -0.048 A 
ATOM      2  C   UNL     1       3.109  -5.738  -7.294  1.00  0.00     0.006 A 
ATOM      3  C   UNL     1       3.402  -6.286  -8.540  1.00  0.00     0.026 A 
ATOM      4  C   UNL     1       4.640  -6.875  -8.807  1.00  0.00     0.038 A 
ATOM      5  C   UNL     1       5.579  -6.918  -7.770  1.00  0.00     0.026 A 
ATOM      6  C   UNL     1       5.275  -6.402  -6.501  1.00  0.00     0.006 A 
ENDROOT
BRANCH   1   7
ATOM      7  C   UNL     1       3.676  -5.332  -4.861  1.00  0.00     0.037 C 
BRANCH   7   8
ATOM      8  C   UNL     1       4.858  -4.991  -3.933  1.00  0.00     0.020 C 
BRANCH   8   9
ATOM      9  C   UNL     1       4.600  -5.154  -2.427  1.00  0.00     0.078 C 
BRANCH   9  10
ATOM     10  N   UNL     1       3.331  -4.616  -1.958  1.00  0.00    -0.330 NA
ATOM     11  H   UNL     1       3.313  -4.604  -0.939  1.00  0.00     0.118 HD
ATOM     12  H   UNL     1       2.565  -5.228  -2.238  1.00  0.00     0.118 HD
ENDBRANCH   9  10
ENDBRANCH   8   9
ENDBRANCH   7   8
ENDBRANCH   1   7
BRANCH   4  13
ATOM     13  N   UNL     1       4.988  -7.323 -10.096  1.00  0.00    -0.362 N 
ATOM     14  H   UNL     1       5.457  -8.218 -10.154  1.00  0.00     0.166 HD
BRANCH  13  15
ATOM     15  C   UNL     1       4.977  -6.546 -11.224  1.00  0.00     0.083 C 
BRANCH  15  16
ATOM     16  C   UNL     1       5.974  -6.284 -12.080  1.00  0.00     0.027 C 
BRANCH  16  17
ATOM     17  C   UNL     1       6.246  -7.166 -13.225  1.00  0.00    -0.003 A 
ATOM     18  C   UNL     1       7.225  -6.868 -14.190  1.00  0.00    -0.041 A 
ATOM     19  C   UNL     1       5.502  -8.339 -13.423  1.00  0.00     0.119 A 
ATOM     20  C   UNL     1       7.403  -7.753 -15.264  1.00  0.00     0.024 A 
ATOM     21  N   UNL     1       5.673  -9.212 -14.443  1.00  0.00    -0.264 NA
ATOM     22  C   UNL     1       6.625  -8.898 -15.340  1.00  0.00     0.111 A 
ATOM     23  C   UNL     1       8.058  -5.619 -14.132  1.00  0.00     0.045 C 
ENDBRANCH  16  17
ENDBRANCH  15  16
ENDBRANCH  13  15
ENDBRANCH   4  13
TORSDOF 8
ENDMDL
MODEL 6
REMARK VINA RESULT:    -4.939      4.502      8.460
REMARK INTER + INTRA:          -7.744
REMARK INTER:                  -7.180
REMARK INTRA:                  -0.564
REMARK UNBOUND:                -0.640
REMARK SMILES Cc1ccncc1/C=C/Nc1ccc(CCCN)cc1
REMARK SMILES IDX 14 1 13 2 12 3 11 4 20 5 19 6 15 7 16 8 17 9 18 10 10 13
REMARK SMILES IDX 9 15 8 16 7 17 2 18 6 19 3 20 5 21 4 22 1 23
REMARK H PARENT 18 11 18 12 10 14
ROOT
ATOM      1  C   UNL     1       2.948  -5.331  -6.496  1.00  0.00    -0.048 A 
ATOM      2  C   UNL     1       2.296  -5.629  -7.694  1.00  0.00     0.006 A 
ATOM      3  C   UNL     1       2.921  -6.398  -8.672  1.00  0.00     0.026 A 
ATOM      4  C   UNL     1       4.241  -6.832  -8.528  1.00  0.00     0.038 A 
ATOM      5  C   UNL     1       4.916  -6.487  -7.351  1.00  0.00     0.026 A 
ATOM      6  C   UNL     1       4.278  -5.744  -6.346  1.00  0.00     0.006 A 
ENDROOT
BRANCH   1   7
ATOM      7  C   UNL     1       2.246  -4.585  -5.389  1.00  0.00     0.037 C 
BRANCH   7   8
ATOM      8  C   UNL     1       2.551  -3.080  -5.267  1.00  0.00     0.020 C 
BRANCH   8   9
ATOM      9  C   UNL     1       2.028  -2.192  -6.406  1.00  0.00     0.078 C 
BRANCH   9  10
ATOM     10  N   UNL     1       0.692  -1.651  -6.201  1.00  0.00    -0.330 NA
ATOM     11  H   UNL     1       0.735  -0.842  -5.582  1.00  0.00     0.118 HD
ATOM     12  H   UNL     1       0.107  -2.333  -5.719  1.00  0.00     0.118 HD
ENDBRANCH   9  10
ENDBRANCH   8   9
ENDBRANCH   7   8
ENDBRANCH   1   7
BRANCH   4  13
ATOM     13  N   UNL     1       4.918  -7.508  -9.561  1.00  0.00    -0.362 N 
ATOM     14  H   UNL     1       5.099  -8.493  -9.417  1.00  0.00     0.166 HD
BRANCH  13  15
ATOM     15  C   UNL     1       5.565  -6.897 -10.603  1.00  0.00     0.083 C 
BRANCH  15  16
ATOM     16  C   UNL     1       5.218  -6.836 -11.895  1.00  0.00     0.027 C 
BRANCH  16  17
ATOM     17  C   UNL     1       6.235  -6.763 -12.955  1.00  0.00    -0.003 A 
ATOM     18  C   UNL     1       6.368  -7.756 -13.941  1.00  0.00    -0.041 A 
ATOM     19  C   UNL     1       7.151  -5.702 -13.001  1.00  0.00     0.119 A 
ATOM     20  C   UNL     1       7.382  -7.620 -14.902  1.00  0.00     0.024 A 
ATOM     21  N   UNL     1       8.123  -5.546 -13.930  1.00  0.00    -0.264 NA
ATOM     22  C   UNL     1       8.212  -6.511 -14.863  1.00  0.00     0.111 A 
ATOM     23  C   UNL     1       5.490  -8.975 -13.980  1.00  0.00     0.045 C 
ENDBRANCH  16  17
ENDBRANCH  15  16
ENDBRANCH  13  15
ENDBRANCH   4  13
TORSDOF 8
ENDMDL
MODEL 7
REMARK VINA RESULT:    -4.906      2.110      8.533
REMARK INTER + INTRA:          -7.696
REMARK INTER:                  -7.115
REMARK INTRA:                  -0.582
REMARK UNBOUND:                -0.640
REMARK SMILES Cc1ccncc1/C=C/Nc1ccc(CCCN)cc1
REMARK SMILES IDX 14 1 13 2 12 3 11 4 20 5 19 6 15 7 16 8 17 9 18 10 10 13
REMARK SMILES IDX 9 15 8 16 7 17 2 18 6 19 3 20 5 21 4 22 1 23
REMARK H PARENT 18 11 18 12 10 14
ROOT
ATOM      1  C   UNL     1       4.628  -5.217  -6.287  1.00  0.00    -0.048 A 
ATOM      2  C   UNL     1       5.716  -6.089  -6.368  1.00  0.00     0.006 A 
ATOM      3  C   UNL     1       5.743  -7.103  -7.322  1.00  0.00     0.026 A 
ATOM      4  C   UNL     1       4.661  -7.335  -8.175  1.00  0.00     0.038 A 
ATOM      5  C   UNL     1       3.547  -6.497  -8.056  1.00  0.00     0.026 A 
ATOM      6  C   UNL     1       3.529  -5.449  -7.123  1.00  0.00     0.006 A 
ENDROOT
BRANCH   1   7
ATOM      7  C   UNL     1       4.631  -4.054  -5.327  1.00  0.00     0.037 C 
BRANCH   7   8
ATOM      8  C   UNL     1       3.784  -4.209  -4.049  1.00  0.00     0.020 C 
BRANCH   8   9
ATOM      9  C   UNL     1       4.310  -5.212  -3.011  1.00  0.00     0.078 C 
BRANCH   9  10
ATOM     10  N   UNL     1       5.072  -4.624  -1.918  1.00  0.00    -0.330 NA
ATOM     11  H   UNL     1       5.825  -5.252  -1.640  1.00  0.00     0.118 HD
ATOM     12  H   UNL     1       4.481  -4.523  -1.092  1.00  0.00     0.118 HD
ENDBRANCH   9  10
ENDBRANCH   8   9
ENDBRANCH   7   8
ENDBRANCH   1   7
BRANCH   4  13
ATOM     13  N   UNL     1       4.633  -8.431  -9.059  1.00  0.00    -0.362 N 
ATOM     14  H   UNL     1       4.708  -8.220 -10.046  1.00  0.00     0.166 HD
BRANCH  13  15
ATOM     15  C   UNL     1       4.259  -9.703  -8.716  1.00  0.00     0.083 C 
BRANCH  15  16
ATOM     16  C   UNL     1       5.015 -10.801  -8.588  1.00  0.00     0.027 C 
BRANCH  16  17
ATOM     17  C   UNL     1       4.499 -12.129  -8.953  1.00  0.00    -0.003 A 
ATOM     18  C   UNL     1       5.045 -12.889 -10.002  1.00  0.00    -0.041 A 
ATOM     19  C   UNL     1       3.398 -12.682  -8.281  1.00  0.00     0.119 A 
ATOM     20  C   UNL     1       4.475 -14.136 -10.299  1.00  0.00     0.024 A 
ATOM     21  N   UNL     1       2.848 -13.891  -8.542  1.00  0.00    -0.264 NA
ATOM     22  C   UNL     1       3.404 -14.592  -9.546  1.00  0.00     0.111 A 
ATOM     23  C   UNL     1       6.191 -12.396 -10.841  1.00  0.00     0.045 C 
ENDBRANCH  16  17
ENDBRANCH  15  16
ENDBRANCH  13  15
ENDBRANCH   4  13
TORSDOF 8
ENDMDL
MODEL 8
REMARK VINA RESULT:    -4.901      4.424      8.503
REMARK INTER + INTRA:          -7.690
REMARK INTER:                  -7.132
REMARK INTRA:                  -0.557
REMARK UNBOUND:                -0.640
REMARK SMILES Cc1ccncc1/C=C/Nc1ccc(CCCN)cc1
REMARK SMILES IDX 14 1 13 2 12 3 11 4 20 5 19 6 15 7 16 8 17 9 18 10 10 13
REMARK SMILES IDX 9 15 8 16 7 17 2 18 6 19 3 20 5 21 4 22 1 23
REMARK H PARENT 18 11 18 12 10 14
ROOT
ATOM      1  C   UNL     1       2.965  -5.443  -6.709  1.00  0.00    -0.048 A 
ATOM      2  C   UNL     1       2.274  -5.695  -7.896  1.00  0.00     0.006 A 
ATOM      3  C   UNL     1       2.859  -6.443  -8.913  1.00  0.00     0.026 A 
ATOM      4  C   UNL     1       4.176  -6.901  -8.821  1.00  0.00     0.038 A 
ATOM      5  C   UNL     1       4.890  -6.600  -7.655  1.00  0.00     0.026 A 
ATOM      6  C   UNL     1       4.292  -5.879  -6.610  1.00  0.00     0.006 A 
ENDROOT
BRANCH   1   7
ATOM      7  C   UNL     1       2.306  -4.722  -5.560  1.00  0.00     0.037 C 
BRANCH   7   8
ATOM      8  C   UNL     1       2.618  -3.219  -5.417  1.00  0.00     0.020 C 
BRANCH   8   9
ATOM      9  C   UNL     1       1.807  -2.274  -6.316  1.00  0.00     0.078 C 
BRANCH   9  10
ATOM     10  N   UNL     1       1.835  -0.874  -5.920  1.00  0.00    -0.330 NA
ATOM     11  H   UNL     1       1.074  -0.680  -5.269  1.00  0.00     0.118 HD
ATOM     12  H   UNL     1       1.661  -0.276  -6.728  1.00  0.00     0.118 HD
ENDBRANCH   9  10
ENDBRANCH   8   9
ENDBRANCH   7   8
ENDBRANCH   1   7
BRANCH   4  13
ATOM     13  N   UNL     1       4.814  -7.554  -9.893  1.00  0.00    -0.362 N 
ATOM     14  H   UNL     1       4.853  -8.565  -9.850  1.00  0.00     0.166 HD
BRANCH  13  15
ATOM     15  C   UNL     1       5.594  -6.936 -10.834  1.00  0.00     0.083 C 
BRANCH  15  16
ATOM     16  C   UNL     1       5.309  -6.644 -12.110  1.00  0.00     0.027 C 
BRANCH  16  17
ATOM     17  C   UNL     1       5.892  -7.418 -13.216  1.00  0.00    -0.003 A 
ATOM     18  C   UNL     1       6.967  -6.940 -13.986  1.00  0.00    -0.041 A 
ATOM     19  C   UNL     1       5.365  -8.667 -13.577  1.00  0.00     0.119 A 
ATOM     20  C   UNL     1       7.447  -7.733 -15.039  1.00  0.00     0.024 A 
ATOM     21  N   UNL     1       5.827  -9.453 -14.578  1.00  0.00    -0.264 NA
ATOM     22  C   UNL     1       6.862  -8.966 -15.285  1.00  0.00     0.111 A 
ATOM     23  C   UNL     1       7.595  -5.596 -13.745  1.00  0.00     0.045 C 
ENDBRANCH  16  17
ENDBRANCH  15  16
ENDBRANCH  13  15
ENDBRANCH   4  13
TORSDOF 8
ENDMDL
MODEL 9
REMARK VINA RESULT:    -4.845      2.192      8.590
REMARK INTER + INTRA:          -7.610
REMARK INTER:                  -7.048
REMARK INTRA:                  -0.562
REMARK UNBOUND:                -0.640
REMARK SMILES Cc1ccncc1/C=C/Nc1ccc(CCCN)cc1
REMARK SMILES IDX 14 1 13 2 12 3 11 4 20 5 19 6 15 7 16 8 17 9 18 10 10 13
REMARK SMILES IDX 9 15 8 16 7 17 2 18 6 19 3 20 5 21 4 22 1 23
REMARK H PARENT 18 11 18 12 10 14
ROOT
ATOM      1  C   UNL     1       4.520  -5.261  -6.250  1.00  0.00    -0.048 A 
ATOM      2  C   UNL     1       5.672  -6.050  -6.254  1.00  0.00     0.006 A 
ATOM      3  C   UNL     1       5.858  -7.030  -7.224  1.00  0.00     0.026 A 
ATOM      4  C   UNL     1       4.875  -7.315  -8.176  1.00  0.00     0.038 A 
ATOM      5  C   UNL     1       3.695  -6.563  -8.138  1.00  0.00     0.026 A 
ATOM      6  C   UNL     1       3.518  -5.547  -7.185  1.00  0.00     0.006 A 
ENDROOT
BRANCH   1   7
ATOM      7  C   UNL     1       4.352  -4.130  -5.266  1.00  0.00     0.037 C 
BRANCH   7   8
ATOM      8  C   UNL     1       3.599  -4.454  -3.961  1.00  0.00     0.020 C 
BRANCH   8   9
ATOM      9  C   UNL     1       4.445  -5.050  -2.826  1.00  0.00     0.078 C 
BRANCH   9  10
ATOM     10  N   UNL     1       3.830  -5.000  -1.508  1.00  0.00    -0.330 NA
ATOM     11  H   UNL     1       3.188  -5.783  -1.392  1.00  0.00     0.118 HD
ATOM     12  H   UNL     1       3.255  -4.161  -1.420  1.00  0.00     0.118 HD
ENDBRANCH   9  10
ENDBRANCH   8   9
ENDBRANCH   7   8
ENDBRANCH   1   7
BRANCH   4  13
ATOM     13  N   UNL     1       5.006  -8.382  -9.084  1.00  0.00    -0.362 N 
ATOM     14  H   UNL     1       5.407  -8.164  -9.988  1.00  0.00     0.166 HD
BRANCH  13  15
ATOM     15  C   UNL     1       4.410  -9.608  -8.942  1.00  0.00     0.083 C 
BRANCH  15  16
ATOM     16  C   UNL     1       4.937 -10.759  -8.507  1.00  0.00     0.027 C 
BRANCH  16  17
ATOM     17  C   UNL     1       5.092 -11.914  -9.404  1.00  0.00    -0.003 A 
ATOM     18  C   UNL     1       4.260 -13.046  -9.328  1.00  0.00    -0.041 A 
ATOM     19  C   UNL     1       6.115 -11.949 -10.363  1.00  0.00     0.119 A 
ATOM     20  C   UNL     1       4.492 -14.114 -10.207  1.00  0.00     0.024 A 
ATOM     21  N   UNL     1       6.342 -12.963 -11.231  1.00  0.00    -0.264 NA
ATOM     22  C   UNL     1       5.520 -14.022 -11.133  1.00  0.00     0.111 A 
ATOM     23  C   UNL     1       3.158 -13.167  -8.313  1.00  0.00     0.045 C 
ENDBRANCH  16  17
ENDBRANCH  15  16
ENDBRANCH  13  15
ENDBRANCH   4  13
TORSDOF 8
ENDMDL
