MODEL 1
REMARK VINA RESULT:    -5.106      0.000      0.000
REMARK INTER + INTRA:          -8.014
REMARK INTER:                  -7.345
REMARK INTRA:                  -0.669
REMARK UNBOUND:                -0.669
REMARK SMILES Cc1ccncc1/C=C/Nc1ccc(CCCN)cc1
REMARK SMILES IDX 14 1 13 2 12 3 11 4 20 5 19 6 15 7 16 8 17 9 18 10 10 13
REMARK SMILES IDX 9 15 8 16 7 17 2 18 6 19 3 20 5 21 4 22 1 23
REMARK H PARENT 18 11 18 12 10 14
ROOT
ATOM      1  C   UNL     1       5.913  12.588 -10.769  1.00  0.00    -0.048 A 
ATOM      2  C   UNL     1       4.627  13.128 -10.717  1.00  0.00     0.006 A 
ATOM      3  C   UNL     1       3.651  12.560  -9.902  1.00  0.00     0.026 A 
ATOM      4  C   UNL     1       3.894  11.393  -9.173  1.00  0.00     0.038 A 
ATOM      5  C   UNL     1       5.167  10.819  -9.269  1.00  0.00     0.026 A 
ATOM      6  C   UNL     1       6.166  11.409 -10.059  1.00  0.00     0.006 A 
ENDROOT
BRANCH   1   7
ATOM      7  C   UNL     1       7.006  13.253 -11.569  1.00  0.00     0.037 C 
BRANCH   7   8
ATOM      8  C   UNL     1       7.642  12.420 -12.698  1.00  0.00     0.020 C 
BRANCH   8   9
ATOM      9  C   UNL     1       7.057  12.632 -14.102  1.00  0.00     0.078 C 
BRANCH   9  10
ATOM     10  N   UNL     1       6.198  11.558 -14.580  1.00  0.00    -0.330 NA
ATOM     11  H   UNL     1       6.713  10.678 -14.590  1.00  0.00     0.118 HD
ATOM     12  H   UNL     1       5.930  11.727 -15.550  1.00  0.00     0.118 HD
ENDBRANCH   9  10
ENDBRANCH   8   9
ENDBRANCH   7   8
ENDBRANCH   1   7
BRANCH   4  13
ATOM     13  N   UNL     1       2.879  10.747  -8.442  1.00  0.00    -0.362 N 
ATOM     14  H   UNL     1       2.712  11.083  -7.502  1.00  0.00     0.166 HD
BRANCH  13  15
ATOM     15  C   UNL     1       2.292   9.562  -8.799  1.00  0.00     0.083 C 
BRANCH  15  16
ATOM     16  C   UNL     1       1.458   8.786  -8.094  1.00  0.00     0.027 C 
BRANCH  16  17
ATOM     17  C   UNL     1       1.787   7.383  -7.801  1.00  0.00    -0.003 A 
ATOM     18  C   UNL     1       1.557   6.802  -6.541  1.00  0.00    -0.041 A 
ATOM     19  C   UNL     1       2.388   6.567  -8.771  1.00  0.00     0.119 A 
ATOM     20  C   UNL     1       1.923   5.462  -6.340  1.00  0.00     0.024 A 
ATOM     21  N   UNL     1       2.731   5.269  -8.599  1.00  0.00    -0.264 NA
ATOM     22  C   UNL     1       2.486   4.746  -7.385  1.00  0.00     0.111 A 
ATOM     23  C   UNL     1       0.969   7.574  -5.394  1.00  0.00     0.045 C 
ENDBRANCH  16  17
ENDBRANCH  15  16
ENDBRANCH  13  15
ENDBRANCH   4  13
TORSDOF 8
ENDMDL
MODEL 2
REMARK VINA RESULT:    -5.076      4.967      6.764
REMARK INTER + INTRA:          -7.971
REMARK INTER:                  -7.325
REMARK INTRA:                  -0.646
REMARK UNBOUND:                -0.669
REMARK SMILES Cc1ccncc1/C=C/Nc1ccc(CCCN)cc1
REMARK SMILES IDX 14 1 13 2 12 3 11 4 20 5 19 6 15 7 16 8 17 9 18 10 10 13
REMARK SMILES IDX 9 15 8 16 7 17 2 18 6 19 3 20 5 21 4 22 1 23
REMARK H PARENT 18 11 18 12 10 14
ROOT
ATOM      1  C   UNL     1      -2.752  10.502 -12.443  1.00  0.00    -0.048 A 
ATOM      2  C   UNL     1      -1.531  10.513 -13.120  1.00  0.00     0.006 A 
ATOM      3  C   UNL     1      -0.435   9.816 -12.620  1.00  0.00     0.026 A 
ATOM      4  C   UNL     1      -0.490   9.149 -11.393  1.00  0.00     0.038 A 
ATOM      5  C   UNL     1      -1.697   9.185 -10.686  1.00  0.00     0.026 A 
ATOM      6  C   UNL     1      -2.816   9.854 -11.204  1.00  0.00     0.006 A 
ENDROOT
BRANCH   1   7
ATOM      7  C   UNL     1      -3.974  11.169 -13.026  1.00  0.00     0.037 C 
BRANCH   7   8
ATOM      8  C   UNL     1      -4.538  12.376 -12.252  1.00  0.00     0.020 C 
BRANCH   8   9
ATOM      9  C   UNL     1      -3.963  13.748 -12.631  1.00  0.00     0.078 C 
BRANCH   9  10
ATOM     10  N   UNL     1      -3.022  14.308 -11.672  1.00  0.00    -0.330 NA
ATOM     11  H   UNL     1      -3.427  15.130 -11.225  1.00  0.00     0.118 HD
ATOM     12  H   UNL     1      -2.187  14.642 -12.153  1.00  0.00     0.118 HD
ENDBRANCH   9  10
ENDBRANCH   8   9
ENDBRANCH   7   8
ENDBRANCH   1   7
BRANCH   4  13
ATOM     13  N   UNL     1       0.647   8.543 -10.824  1.00  0.00    -0.362 N 
ATOM     14  H   UNL     1       1.281   8.078 -11.462  1.00  0.00     0.166 HD
BRANCH  13  15
ATOM     15  C   UNL     1       0.824   8.314  -9.485  1.00  0.00     0.083 C 
BRANCH  15  16
ATOM     16  C   UNL     1       1.765   7.587  -8.869  1.00  0.00     0.027 C 
BRANCH  16  17
ATOM     17  C   UNL     1       1.691   7.311  -7.426  1.00  0.00    -0.003 A 
ATOM     18  C   UNL     1       2.148   6.106  -6.865  1.00  0.00    -0.041 A 
ATOM     19  C   UNL     1       1.119   8.240  -6.545  1.00  0.00     0.119 A 
ATOM     20  C   UNL     1       2.018   5.915  -5.481  1.00  0.00     0.024 A 
ATOM     21  N   UNL     1       1.001   8.080  -5.206  1.00  0.00    -0.264 NA
ATOM     22  C   UNL     1       1.459   6.918  -4.705  1.00  0.00     0.111 A 
ATOM     23  C   UNL     1       2.735   5.001  -7.698  1.00  0.00     0.045 C 
ENDBRANCH  16  17
ENDBRANCH  15  16
ENDBRANCH  13  15
ENDBRANCH   4  13
TORSDOF 8
ENDMDL
MODEL 3
REMARK VINA RESULT:    -4.953      4.763      6.543
REMARK INTER + INTRA:          -7.793
REMARK INTER:                  -7.161
REMARK INTRA:                  -0.632
REMARK UNBOUND:                -0.669
REMARK SMILES Cc1ccncc1/C=C/Nc1ccc(CCCN)cc1
REMARK SMILES IDX 14 1 13 2 12 3 11 4 20 5 19 6 15 7 16 8 17 9 18 10 10 13
REMARK SMILES IDX 9 15 8 16 7 17 2 18 6 19 3 20 5 21 4 22 1 23
REMARK H PARENT 18 11 18 12 10 14
ROOT
ATOM      1  C   UNL     1      -2.711  10.712 -12.835  1.00  0.00    -0.048 A 
ATOM      2  C   UNL     1      -1.399  10.658 -13.308  1.00  0.00     0.006 A 
ATOM      3  C   UNL     1      -0.442   9.882 -12.661  1.00  0.00     0.026 A 
ATOM      4  C   UNL     1      -0.732   9.196 -11.479  1.00  0.00     0.038 A 
ATOM      5  C   UNL     1      -2.033   9.295 -10.972  1.00  0.00     0.026 A 
ATOM      6  C   UNL     1      -3.012  10.045 -11.641  1.00  0.00     0.006 A 
ENDROOT
BRANCH   1   7
ATOM      7  C   UNL     1      -3.781  11.467 -13.583  1.00  0.00     0.037 C 
BRANCH   7   8
ATOM      8  C   UNL     1      -4.515  12.578 -12.808  1.00  0.00     0.020 C 
BRANCH   8   9
ATOM      9  C   UNL     1      -3.877  13.974 -12.865  1.00  0.00     0.078 C 
BRANCH   9  10
ATOM     10  N   UNL     1      -3.006  14.300 -11.745  1.00  0.00    -0.330 NA
ATOM     11  H   UNL     1      -3.529  14.808 -11.033  1.00  0.00     0.118 HD
ATOM     12  H   UNL     1      -2.268  14.935 -12.047  1.00  0.00     0.118 HD
ENDBRANCH   9  10
ENDBRANCH   8   9
ENDBRANCH   7   8
ENDBRANCH   1   7
BRANCH   4  13
ATOM     13  N   UNL     1       0.260   8.507 -10.755  1.00  0.00    -0.362 N 
ATOM     14  H   UNL     1       0.228   7.495 -10.791  1.00  0.00     0.166 HD
BRANCH  13  15
ATOM     15  C   UNL     1       1.084   9.076  -9.821  1.00  0.00     0.083 C 
BRANCH  15  16
ATOM     16  C   UNL     1       1.314   8.702  -8.556  1.00  0.00     0.027 C 
BRANCH  16  17
ATOM     17  C   UNL     1       1.794   7.349  -8.236  1.00  0.00    -0.003 A 
ATOM     18  C   UNL     1       1.693   6.798  -6.947  1.00  0.00    -0.041 A 
ATOM     19  C   UNL     1       2.415   6.556  -9.213  1.00  0.00     0.119 A 
ATOM     20  C   UNL     1       2.198   5.508  -6.724  1.00  0.00     0.024 A 
ATOM     21  N   UNL     1       2.892   5.305  -9.020  1.00  0.00    -0.264 NA
ATOM     22  C   UNL     1       2.769   4.809  -7.776  1.00  0.00     0.111 A 
ATOM     23  C   UNL     1       1.099   7.555  -5.792  1.00  0.00     0.045 C 
ENDBRANCH  16  17
ENDBRANCH  15  16
ENDBRANCH  13  15
ENDBRANCH   4  13
TORSDOF 8
ENDMDL
MODEL 4
REMARK VINA RESULT:    -4.890      1.298      2.138
REMARK INTER + INTRA:          -7.703
REMARK INTER:                  -7.037
REMARK INTRA:                  -0.666
REMARK UNBOUND:                -0.669
REMARK SMILES Cc1ccncc1/C=C/Nc1ccc(CCCN)cc1
REMARK SMILES IDX 14 1 13 2 12 3 11 4 20 5 19 6 15 7 16 8 17 9 18 10 10 13
REMARK SMILES IDX 9 15 8 16 7 17 2 18 6 19 3 20 5 21 4 22 1 23
REMARK H PARENT 18 11 18 12 10 14
ROOT
ATOM      1  C   UNL     1       5.592  12.231 -10.425  1.00  0.00    -0.048 A 
ATOM      2  C   UNL     1       5.879  11.090  -9.673  1.00  0.00     0.006 A 
ATOM      3  C   UNL     1       4.872  10.424  -8.980  1.00  0.00     0.026 A 
ATOM      4  C   UNL     1       3.563  10.910  -8.945  1.00  0.00     0.038 A 
ATOM      5  C   UNL     1       3.286  12.087  -9.651  1.00  0.00     0.026 A 
ATOM      6  C   UNL     1       4.289  12.741 -10.383  1.00  0.00     0.006 A 
ENDROOT
BRANCH   1   7
ATOM      7  C   UNL     1       6.653  12.902 -11.260  1.00  0.00     0.037 C 
BRANCH   7   8
ATOM      8  C   UNL     1       7.405  12.012 -12.269  1.00  0.00     0.020 C 
BRANCH   8   9
ATOM      9  C   UNL     1       7.222  12.371 -13.751  1.00  0.00     0.078 C 
BRANCH   9  10
ATOM     10  N   UNL     1       6.271  11.537 -14.472  1.00  0.00    -0.330 NA
ATOM     11  H   UNL     1       5.347  11.615 -14.050  1.00  0.00     0.118 HD
ATOM     12  H   UNL     1       6.529  10.553 -14.385  1.00  0.00     0.118 HD
ENDBRANCH   9  10
ENDBRANCH   8   9
ENDBRANCH   7   8
ENDBRANCH   1   7
BRANCH   4  13
ATOM     13  N   UNL     1       2.567  10.310  -8.150  1.00  0.00    -0.362 N 
ATOM     14  H   UNL     1       2.615  10.484  -7.154  1.00  0.00     0.166 HD
BRANCH  13  15
ATOM     15  C   UNL     1       1.715   9.325  -8.575  1.00  0.00     0.083 C 
BRANCH  15  16
ATOM     16  C   UNL     1       1.809   7.999  -8.414  1.00  0.00     0.027 C 
BRANCH  16  17
ATOM     17  C   UNL     1       1.776   7.389  -7.076  1.00  0.00    -0.003 A 
ATOM     18  C   UNL     1       2.240   6.085  -6.829  1.00  0.00    -0.041 A 
ATOM     19  C   UNL     1       1.236   8.083  -5.983  1.00  0.00     0.119 A 
ATOM     20  C   UNL     1       2.149   5.573  -5.526  1.00  0.00     0.024 A 
ATOM     21  N   UNL     1       1.156   7.611  -4.717  1.00  0.00    -0.264 NA
ATOM     22  C   UNL     1       1.620   6.364  -4.519  1.00  0.00     0.111 A 
ATOM     23  C   UNL     1       2.794   5.209  -7.918  1.00  0.00     0.045 C 
ENDBRANCH  16  17
ENDBRANCH  15  16
ENDBRANCH  13  15
ENDBRANCH   4  13
TORSDOF 8
ENDMDL
MODEL 5
REMARK VINA RESULT:    -4.750      4.604      8.468
REMARK INTER + INTRA:          -7.502
REMARK INTER:                  -7.004
REMARK INTRA:                  -0.498
REMARK UNBOUND:                -0.669
REMARK SMILES Cc1ccncc1/C=C/Nc1ccc(CCCN)cc1
REMARK SMILES IDX 14 1 13 2 12 3 11 4 20 5 19 6 15 7 16 8 17 9 18 10 10 13
REMARK SMILES IDX 9 15 8 16 7 17 2 18 6 19 3 20 5 21 4 22 1 23
REMARK H PARENT 18 11 18 12 10 14
ROOT
ATOM      1  C   UNL     1       2.055   7.312  -6.696  1.00  0.00    -0.048 A 
ATOM      2  C   UNL     1       2.181   6.680  -7.935  1.00  0.00     0.006 A 
ATOM      3  C   UNL     1       1.810   7.334  -9.107  1.00  0.00     0.026 A 
ATOM      4  C   UNL     1       1.228   8.604  -9.083  1.00  0.00     0.038 A 
ATOM      5  C   UNL     1       1.048   9.215  -7.837  1.00  0.00     0.026 A 
ATOM      6  C   UNL     1       1.456   8.577  -6.656  1.00  0.00     0.006 A 
ENDROOT
BRANCH   1   7
ATOM      7  C   UNL     1       2.547   6.654  -5.431  1.00  0.00     0.037 C 
BRANCH   7   8
ATOM      8  C   UNL     1       1.753   6.949  -4.144  1.00  0.00     0.020 C 
BRANCH   8   9
ATOM      9  C   UNL     1       2.556   6.914  -2.835  1.00  0.00     0.078 C 
BRANCH   9  10
ATOM     10  N   UNL     1       3.194   5.639  -2.538  1.00  0.00    -0.330 NA
ATOM     11  H   UNL     1       2.660   5.138  -1.830  1.00  0.00     0.118 HD
ATOM     12  H   UNL     1       4.115   5.795  -2.128  1.00  0.00     0.118 HD
ENDBRANCH   9  10
ENDBRANCH   8   9
ENDBRANCH   7   8
ENDBRANCH   1   7
BRANCH   4  13
ATOM     13  N   UNL     1       0.741   9.221 -10.252  1.00  0.00    -0.362 N 
ATOM     14  H   UNL     1       0.950  10.205 -10.366  1.00  0.00     0.166 HD
BRANCH  13  15
ATOM     15  C   UNL     1      -0.189   8.675 -11.096  1.00  0.00     0.083 C 
BRANCH  15  16
ATOM     16  C   UNL     1      -1.306   9.223 -11.591  1.00  0.00     0.027 C 
BRANCH  16  17
ATOM     17  C   UNL     1      -1.249  10.257 -12.635  1.00  0.00    -0.003 A 
ATOM     18  C   UNL     1      -2.405  10.864 -13.160  1.00  0.00    -0.041 A 
ATOM     19  C   UNL     1      -0.022  10.659 -13.184  1.00  0.00     0.119 A 
ATOM     20  C   UNL     1      -2.261  11.826 -14.171  1.00  0.00     0.024 A 
ATOM     21  N   UNL     1       0.136  11.597 -14.147  1.00  0.00    -0.264 NA
ATOM     22  C   UNL     1      -0.992  12.161 -14.616  1.00  0.00     0.111 A 
ATOM     23  C   UNL     1      -3.787  10.491 -12.703  1.00  0.00     0.045 C 
ENDBRANCH  16  17
ENDBRANCH  15  16
ENDBRANCH  13  15
ENDBRANCH   4  13
TORSDOF 8
ENDMDL
MODEL 6
REMARK VINA RESULT:    -4.702      1.945      8.586
REMARK INTER + INTRA:          -7.433
REMARK INTER:                  -6.928
REMARK INTRA:                  -0.505
REMARK UNBOUND:                -0.669
REMARK SMILES Cc1ccncc1/C=C/Nc1ccc(CCCN)cc1
REMARK SMILES IDX 14 1 13 2 12 3 11 4 20 5 19 6 15 7 16 8 17 9 18 10 10 13
REMARK SMILES IDX 9 15 8 16 7 17 2 18 6 19 3 20 5 21 4 22 1 23
REMARK H PARENT 18 11 18 12 10 14
ROOT
ATOM      1  C   UNL     1       1.370   6.679  -7.241  1.00  0.00    -0.048 A 
ATOM      2  C   UNL     1       1.172   7.933  -6.659  1.00  0.00     0.006 A 
ATOM      3  C   UNL     1       1.489   9.097  -7.353  1.00  0.00     0.026 A 
ATOM      4  C   UNL     1       2.085   9.056  -8.617  1.00  0.00     0.038 A 
ATOM      5  C   UNL     1       2.336   7.799  -9.178  1.00  0.00     0.026 A 
ATOM      6  C   UNL     1       1.984   6.623  -8.499  1.00  0.00     0.006 A 
ENDROOT
BRANCH   1   7
ATOM      7  C   UNL     1       0.938   5.416  -6.540  1.00  0.00     0.037 C 
BRANCH   7   8
ATOM      8  C   UNL     1       1.701   4.127  -6.904  1.00  0.00     0.020 C 
BRANCH   8   9
ATOM      9  C   UNL     1       0.874   2.833  -6.907  1.00  0.00     0.078 C 
BRANCH   9  10
ATOM     10  N   UNL     1       0.308   2.461  -5.619  1.00  0.00    -0.330 NA
ATOM     11  H   UNL     1       0.958   2.698  -4.871  1.00  0.00     0.118 HD
ATOM     12  H   UNL     1       0.188   1.449  -5.566  1.00  0.00     0.118 HD
ENDBRANCH   9  10
ENDBRANCH   8   9
ENDBRANCH   7   8
ENDBRANCH   1   7
BRANCH   4  13
ATOM     13  N   UNL     1       2.517  10.225  -9.273  1.00  0.00    -0.362 N 
ATOM     14  H   UNL     1       2.229  10.337 -10.237  1.00  0.00     0.166 HD
BRANCH  13  15
ATOM     15  C   UNL     1       3.486  11.072  -8.806  1.00  0.00     0.083 C 
BRANCH  15  16
ATOM     16  C   UNL     1       4.579  11.533  -9.429  1.00  0.00     0.027 C 
BRANCH  16  17
ATOM     17  C   UNL     1       4.487  12.590 -10.447  1.00  0.00    -0.003 A 
ATOM     18  C   UNL     1       5.623  13.151 -11.056  1.00  0.00    -0.041 A 
ATOM     19  C   UNL     1       3.243  13.116 -10.828  1.00  0.00     0.119 A 
ATOM     20  C   UNL     1       5.445  14.174 -12.001  1.00  0.00     0.024 A 
ATOM     21  N   UNL     1       3.053  14.089 -11.750  1.00  0.00    -0.264 NA
ATOM     22  C   UNL     1       4.163  14.593 -12.317  1.00  0.00     0.111 A 
ATOM     23  C   UNL     1       7.019  12.722 -10.704  1.00  0.00     0.045 C 
ENDBRANCH  16  17
ENDBRANCH  15  16
ENDBRANCH  13  15
ENDBRANCH   4  13
TORSDOF 8
ENDMDL
MODEL 7
REMARK VINA RESULT:    -4.584      4.523      8.523
REMARK INTER + INTRA:          -7.262
REMARK INTER:                  -6.624
REMARK INTRA:                  -0.638
REMARK UNBOUND:                -0.669
REMARK SMILES Cc1ccncc1/C=C/Nc1ccc(CCCN)cc1
REMARK SMILES IDX 14 1 13 2 12 3 11 4 20 5 19 6 15 7 16 8 17 9 18 10 10 13
REMARK SMILES IDX 9 15 8 16 7 17 2 18 6 19 3 20 5 21 4 22 1 23
REMARK H PARENT 18 11 18 12 10 14
ROOT
ATOM      1  C   UNL     1       2.358   6.178  -7.353  1.00  0.00    -0.048 A 
ATOM      2  C   UNL     1       2.525   6.070  -8.735  1.00  0.00     0.006 A 
ATOM      3  C   UNL     1       2.191   7.127  -9.576  1.00  0.00     0.026 A 
ATOM      4  C   UNL     1       1.609   8.298  -9.084  1.00  0.00     0.038 A 
ATOM      5  C   UNL     1       1.389   8.386  -7.704  1.00  0.00     0.026 A 
ATOM      6  C   UNL     1       1.759   7.338  -6.847  1.00  0.00     0.006 A 
ENDROOT
BRANCH   1   7
ATOM      7  C   UNL     1       2.810   5.079  -6.423  1.00  0.00     0.037 C 
BRANCH   7   8
ATOM      8  C   UNL     1       1.707   4.331  -5.649  1.00  0.00     0.020 C 
BRANCH   8   9
ATOM      9  C   UNL     1       0.853   3.354  -6.470  1.00  0.00     0.078 C 
BRANCH   9  10
ATOM     10  N   UNL     1       1.493   2.081  -6.772  1.00  0.00    -0.330 NA
ATOM     11  H   UNL     1       0.963   1.317  -6.353  1.00  0.00     0.118 HD
ATOM     12  H   UNL     1       2.417   2.042  -6.342  1.00  0.00     0.118 HD
ENDBRANCH   9  10
ENDBRANCH   8   9
ENDBRANCH   7   8
ENDBRANCH   1   7
BRANCH   4  13
ATOM     13  N   UNL     1       1.160   9.322  -9.940  1.00  0.00    -0.362 N 
ATOM     14  H   UNL     1       1.744  10.146 -10.008  1.00  0.00     0.166 HD
BRANCH  13  15
ATOM     15  C   UNL     1      -0.100   9.401 -10.471  1.00  0.00     0.083 C 
BRANCH  15  16
ATOM     16  C   UNL     1      -0.510   9.140 -11.719  1.00  0.00     0.027 C 
BRANCH  16  17
ATOM     17  C   UNL     1      -1.537   9.965 -12.373  1.00  0.00    -0.003 A 
ATOM     18  C   UNL     1      -1.227  10.902 -13.374  1.00  0.00    -0.041 A 
ATOM     19  C   UNL     1      -2.884   9.874 -11.990  1.00  0.00     0.119 A 
ATOM     20  C   UNL     1      -2.267  11.665 -13.928  1.00  0.00     0.024 A 
ATOM     21  N   UNL     1      -3.901  10.589 -12.525  1.00  0.00    -0.264 NA
ATOM     22  C   UNL     1      -3.566  11.467 -13.487  1.00  0.00     0.111 A 
ATOM     23  C   UNL     1       0.180  11.142 -13.844  1.00  0.00     0.045 C 
ENDBRANCH  16  17
ENDBRANCH  15  16
ENDBRANCH  13  15
ENDBRANCH   4  13
TORSDOF 8
ENDMDL
MODEL 8
REMARK VINA RESULT:    -4.476      1.785      8.522
REMARK INTER + INTRA:          -7.108
REMARK INTER:                  -6.680
REMARK INTRA:                  -0.429
REMARK UNBOUND:                -0.669
REMARK SMILES Cc1ccncc1/C=C/Nc1ccc(CCCN)cc1
REMARK SMILES IDX 14 1 13 2 12 3 11 4 20 5 19 6 15 7 16 8 17 9 18 10 10 13
REMARK SMILES IDX 9 15 8 16 7 17 2 18 6 19 3 20 5 21 4 22 1 23
REMARK H PARENT 18 11 18 12 10 14
ROOT
ATOM      1  C   UNL     1       1.322   6.646  -6.444  1.00  0.00    -0.048 A 
ATOM      2  C   UNL     1       1.061   7.970  -6.086  1.00  0.00     0.006 A 
ATOM      3  C   UNL     1       1.258   9.004  -6.996  1.00  0.00     0.026 A 
ATOM      4  C   UNL     1       1.793   8.770  -8.265  1.00  0.00     0.038 A 
ATOM      5  C   UNL     1       2.108   7.449  -8.606  1.00  0.00     0.026 A 
ATOM      6  C   UNL     1       1.876   6.398  -7.705  1.00  0.00     0.006 A 
ENDROOT
BRANCH   1   7
ATOM      7  C   UNL     1       1.017   5.508  -5.502  1.00  0.00     0.037 C 
BRANCH   7   8
ATOM      8  C   UNL     1       1.744   4.176  -5.768  1.00  0.00     0.020 C 
BRANCH   8   9
ATOM      9  C   UNL     1       0.956   3.126  -6.565  1.00  0.00     0.078 C 
BRANCH   9  10
ATOM     10  N   UNL     1       0.231   2.156  -5.757  1.00  0.00    -0.330 NA
ATOM     11  H   UNL     1       0.093   1.295  -6.285  1.00  0.00     0.118 HD
ATOM     12  H   UNL     1      -0.706   2.502  -5.549  1.00  0.00     0.118 HD
ENDBRANCH   9  10
ENDBRANCH   8   9
ENDBRANCH   7   8
ENDBRANCH   1   7
BRANCH   4  13
ATOM     13  N   UNL     1       2.106   9.822  -9.147  1.00  0.00    -0.362 N 
ATOM     14  H   UNL     1       1.437  10.013  -9.882  1.00  0.00     0.166 HD
BRANCH  13  15
ATOM     15  C   UNL     1       3.333  10.422  -9.244  1.00  0.00     0.083 C 
BRANCH  15  16
ATOM     16  C   UNL     1       3.642  11.726  -9.216  1.00  0.00     0.027 C 
BRANCH  16  17
ATOM     17  C   UNL     1       4.709  12.275 -10.067  1.00  0.00    -0.003 A 
ATOM     18  C   UNL     1       4.468  13.268 -11.032  1.00  0.00    -0.041 A 
ATOM     19  C   UNL     1       6.023  11.793  -9.974  1.00  0.00     0.119 A 
ATOM     20  C   UNL     1       5.539  13.719 -11.818  1.00  0.00     0.024 A 
ATOM     21  N   UNL     1       7.071  12.228 -10.711  1.00  0.00    -0.264 NA
ATOM     22  C   UNL     1       6.803  13.186 -11.616  1.00  0.00     0.111 A 
ATOM     23  C   UNL     1       3.098  13.836 -11.277  1.00  0.00     0.045 C 
ENDBRANCH  16  17
ENDBRANCH  15  16
ENDBRANCH  13  15
ENDBRANCH   4  13
TORSDOF 8
ENDMDL
MODEL 9
REMARK VINA RESULT:    -4.430      4.732      8.612
REMARK INTER + INTRA:          -7.042
REMARK INTER:                  -6.516
REMARK INTRA:                  -0.526
REMARK UNBOUND:                -0.669
REMARK SMILES Cc1ccncc1/C=C/Nc1ccc(CCCN)cc1
REMARK SMILES IDX 14 1 13 2 12 3 11 4 20 5 19 6 15 7 16 8 17 9 18 10 10 13
REMARK SMILES IDX 9 15 8 16 7 17 2 18 6 19 3 20 5 21 4 22 1 23
REMARK H PARENT 18 11 18 12 10 14
ROOT
ATOM      1  C   UNL     1       2.121   7.183  -7.024  1.00  0.00    -0.048 A 
ATOM      2  C   UNL     1       1.524   8.429  -6.828  1.00  0.00     0.006 A 
ATOM      3  C   UNL     1       1.029   9.158  -7.905  1.00  0.00     0.026 A 
ATOM      4  C   UNL     1       1.178   8.711  -9.221  1.00  0.00     0.038 A 
ATOM      5  C   UNL     1       1.828   7.488  -9.424  1.00  0.00     0.026 A 
ATOM      6  C   UNL     1       2.295   6.732  -8.338  1.00  0.00     0.006 A 
ENDROOT
BRANCH   1   7
ATOM      7  C   UNL     1       2.570   6.340  -5.856  1.00  0.00     0.037 C 
BRANCH   7   8
ATOM      8  C   UNL     1       1.819   6.543  -4.527  1.00  0.00     0.020 C 
BRANCH   8   9
ATOM      9  C   UNL     1       2.693   6.663  -3.270  1.00  0.00     0.078 C 
BRANCH   9  10
ATOM     10  N   UNL     1       1.959   6.793  -2.019  1.00  0.00    -0.330 NA
ATOM     11  H   UNL     1       1.114   6.225  -2.050  1.00  0.00     0.118 HD
ATOM     12  H   UNL     1       1.638   7.754  -1.899  1.00  0.00     0.118 HD
ENDBRANCH   9  10
ENDBRANCH   8   9
ENDBRANCH   7   8
ENDBRANCH   1   7
BRANCH   4  13
ATOM     13  N   UNL     1       0.787   9.497 -10.322  1.00  0.00    -0.362 N 
ATOM     14  H   UNL     1       1.287  10.366 -10.461  1.00  0.00     0.166 HD
BRANCH  13  15
ATOM     15  C   UNL     1      -0.358   9.309 -11.049  1.00  0.00     0.083 C 
BRANCH  15  16
ATOM     16  C   UNL     1      -0.583   9.544 -12.349  1.00  0.00     0.027 C 
BRANCH  16  17
ATOM     17  C   UNL     1      -1.732  10.349 -12.790  1.00  0.00    -0.003 A 
ATOM     18  C   UNL     1      -1.601  11.421 -13.691  1.00  0.00    -0.041 A 
ATOM     19  C   UNL     1      -3.019  10.100 -12.291  1.00  0.00     0.119 A 
ATOM     20  C   UNL     1      -2.746  12.152 -14.041  1.00  0.00     0.024 A 
ATOM     21  N   UNL     1      -4.137  10.784 -12.631  1.00  0.00    -0.264 NA
ATOM     22  C   UNL     1      -3.972  11.794 -13.503  1.00  0.00     0.111 A 
ATOM     23  C   UNL     1      -0.273  11.833 -14.263  1.00  0.00     0.045 C 
ENDBRANCH  16  17
ENDBRANCH  15  16
ENDBRANCH  13  15
ENDBRANCH   4  13
TORSDOF 8
ENDMDL
