MODEL 1
REMARK VINA RESULT:    -5.179      0.000      0.000
REMARK INTER + INTRA:          -8.055
REMARK INTER:                  -7.449
REMARK INTRA:                  -0.606
REMARK UNBOUND:                -0.606
REMARK SMILES Cc1ccncc1/C=C/Nc1ccc(CCCN)cc1
REMARK SMILES IDX 14 1 13 2 12 3 11 4 20 5 19 6 15 7 16 8 17 9 18 10 10 13
REMARK SMILES IDX 9 15 8 16 7 17 2 18 6 19 3 20 5 21 4 22 1 23
REMARK H PARENT 18 11 18 12 10 14
ROOT
ATOM      1  C   UNL     1      -5.212   7.974  -3.594  1.00  0.00    -0.048 A 
ATOM      2  C   UNL     1      -4.441   8.320  -4.705  1.00  0.00     0.006 A 
ATOM      3  C   UNL     1      -4.952   9.157  -5.692  1.00  0.00     0.026 A 
ATOM      4  C   UNL     1      -6.271   9.617  -5.651  1.00  0.00     0.038 A 
ATOM      5  C   UNL     1      -7.064   9.225  -4.566  1.00  0.00     0.026 A 
ATOM      6  C   UNL     1      -6.541   8.412  -3.548  1.00  0.00     0.006 A 
ENDROOT
BRANCH   1   7
ATOM      7  C   UNL     1      -4.635   7.151  -2.469  1.00  0.00     0.037 C 
BRANCH   7   8
ATOM      8  C   UNL     1      -5.560   6.088  -1.845  1.00  0.00     0.020 C 
BRANCH   8   9
ATOM      9  C   UNL     1      -5.325   5.778  -0.360  1.00  0.00     0.078 C 
BRANCH   9  10
ATOM     10  N   UNL     1      -4.047   5.152  -0.056  1.00  0.00    -0.330 NA
ATOM     11  H   UNL     1      -3.290   5.668  -0.503  1.00  0.00     0.118 HD
ATOM     12  H   UNL     1      -4.011   4.214  -0.456  1.00  0.00     0.118 HD
ENDBRANCH   9  10
ENDBRANCH   8   9
ENDBRANCH   7   8
ENDBRANCH   1   7
BRANCH   4  13
ATOM     13  N   UNL     1      -6.831  10.365  -6.704  1.00  0.00    -0.362 N 
ATOM     14  H   UNL     1      -7.258  11.249  -6.456  1.00  0.00     0.166 HD
BRANCH  13  15
ATOM     15  C   UNL     1      -7.070   9.885  -7.965  1.00  0.00     0.083 C 
BRANCH  15  16
ATOM     16  C   UNL     1      -8.239   9.703  -8.593  1.00  0.00     0.027 C 
BRANCH  16  17
ATOM     17  C   UNL     1      -8.851  10.778  -9.389  1.00  0.00    -0.003 A 
ATOM     18  C   UNL     1     -10.208  10.766  -9.755  1.00  0.00    -0.041 A 
ATOM     19  C   UNL     1      -8.082  11.855  -9.854  1.00  0.00     0.119 A 
ATOM     20  C   UNL     1     -10.705  11.820 -10.537  1.00  0.00     0.024 A 
ATOM     21  N   UNL     1      -8.549  12.889 -10.594  1.00  0.00    -0.264 NA
ATOM     22  C   UNL     1      -9.854  12.846 -10.915  1.00  0.00     0.111 A 
ATOM     23  C   UNL     1     -11.135   9.646  -9.372  1.00  0.00     0.045 C 
ENDBRANCH  16  17
ENDBRANCH  15  16
ENDBRANCH  13  15
ENDBRANCH   4  13
TORSDOF 8
ENDMDL
MODEL 2
REMARK VINA RESULT:    -5.166      4.222      5.573
REMARK INTER + INTRA:          -8.037
REMARK INTER:                  -7.444
REMARK INTRA:                  -0.593
REMARK UNBOUND:                -0.606
REMARK SMILES Cc1ccncc1/C=C/Nc1ccc(CCCN)cc1
REMARK SMILES IDX 14 1 13 2 12 3 11 4 20 5 19 6 15 7 16 8 17 9 18 10 10 13
REMARK SMILES IDX 9 15 8 16 7 17 2 18 6 19 3 20 5 21 4 22 1 23
REMARK H PARENT 18 11 18 12 10 14
ROOT
ATOM      1  C   UNL     1      -5.804   6.961  -3.707  1.00  0.00    -0.048 A 
ATOM      2  C   UNL     1      -7.001   7.575  -3.333  1.00  0.00     0.006 A 
ATOM      3  C   UNL     1      -7.309   8.858  -3.775  1.00  0.00     0.026 A 
ATOM      4  C   UNL     1      -6.409   9.606  -4.538  1.00  0.00     0.038 A 
ATOM      5  C   UNL     1      -5.184   9.012  -4.866  1.00  0.00     0.026 A 
ATOM      6  C   UNL     1      -4.884   7.704  -4.455  1.00  0.00     0.006 A 
ENDROOT
BRANCH   1   7
ATOM      7  C   UNL     1      -5.505   5.535  -3.318  1.00  0.00     0.037 C 
BRANCH   7   8
ATOM      8  C   UNL     1      -4.490   5.327  -2.177  1.00  0.00     0.020 C 
BRANCH   8   9
ATOM      9  C   UNL     1      -4.895   5.887  -0.806  1.00  0.00     0.078 C 
BRANCH   9  10
ATOM     10  N   UNL     1      -5.709   4.995   0.007  1.00  0.00    -0.330 NA
ATOM     11  H   UNL     1      -5.979   5.461   0.872  1.00  0.00     0.118 HD
ATOM     12  H   UNL     1      -5.162   4.183   0.293  1.00  0.00     0.118 HD
ENDBRANCH   9  10
ENDBRANCH   8   9
ENDBRANCH   7   8
ENDBRANCH   1   7
BRANCH   4  13
ATOM     13  N   UNL     1      -6.663  10.946  -4.888  1.00  0.00    -0.362 N 
ATOM     14  H   UNL     1      -7.114  11.105  -5.780  1.00  0.00     0.166 HD
BRANCH  13  15
ATOM     15  C   UNL     1      -6.127  12.035  -4.253  1.00  0.00     0.083 C 
BRANCH  15  16
ATOM     16  C   UNL     1      -6.725  12.926  -3.451  1.00  0.00     0.027 C 
BRANCH  16  17
ATOM     17  C   UNL     1      -6.270  14.323  -3.390  1.00  0.00    -0.003 A 
ATOM     18  C   UNL     1      -7.127  15.407  -3.649  1.00  0.00    -0.041 A 
ATOM     19  C   UNL     1      -4.932  14.631  -3.102  1.00  0.00     0.119 A 
ATOM     20  C   UNL     1      -6.603  16.708  -3.592  1.00  0.00     0.024 A 
ATOM     21  N   UNL     1      -4.415  15.880  -3.026  1.00  0.00    -0.264 NA
ATOM     22  C   UNL     1      -5.268  16.891  -3.270  1.00  0.00     0.111 A 
ATOM     23  C   UNL     1      -8.571  15.221  -4.021  1.00  0.00     0.045 C 
ENDBRANCH  16  17
ENDBRANCH  15  16
ENDBRANCH  13  15
ENDBRANCH   4  13
TORSDOF 8
ENDMDL
MODEL 3
REMARK VINA RESULT:    -5.152      2.063      2.638
REMARK INTER + INTRA:          -8.017
REMARK INTER:                  -7.399
REMARK INTRA:                  -0.618
REMARK UNBOUND:                -0.606
REMARK SMILES Cc1ccncc1/C=C/Nc1ccc(CCCN)cc1
REMARK SMILES IDX 14 1 13 2 12 3 11 4 20 5 19 6 15 7 16 8 17 9 18 10 10 13
REMARK SMILES IDX 9 15 8 16 7 17 2 18 6 19 3 20 5 21 4 22 1 23
REMARK H PARENT 18 11 18 12 10 14
ROOT
ATOM      1  C   UNL     1      -4.109   7.594  -4.181  1.00  0.00    -0.048 A 
ATOM      2  C   UNL     1      -3.589   8.390  -5.203  1.00  0.00     0.006 A 
ATOM      3  C   UNL     1      -4.360   9.390  -5.788  1.00  0.00     0.026 A 
ATOM      4  C   UNL     1      -5.698   9.583  -5.434  1.00  0.00     0.038 A 
ATOM      5  C   UNL     1      -6.238   8.748  -4.449  1.00  0.00     0.026 A 
ATOM      6  C   UNL     1      -5.454   7.764  -3.829  1.00  0.00     0.006 A 
ENDROOT
BRANCH   1   7
ATOM      7  C   UNL     1      -3.253   6.576  -3.470  1.00  0.00     0.037 C 
BRANCH   7   8
ATOM      8  C   UNL     1      -3.517   5.095  -3.804  1.00  0.00     0.020 C 
BRANCH   8   9
ATOM      9  C   UNL     1      -3.168   4.653  -5.233  1.00  0.00     0.078 C 
BRANCH   9  10
ATOM     10  N   UNL     1      -1.770   4.303  -5.444  1.00  0.00    -0.330 NA
ATOM     11  H   UNL     1      -1.204   5.148  -5.504  1.00  0.00     0.118 HD
ATOM     12  H   UNL     1      -1.657   3.834  -6.343  1.00  0.00     0.118 HD
ENDBRANCH   9  10
ENDBRANCH   8   9
ENDBRANCH   7   8
ENDBRANCH   1   7
BRANCH   4  13
ATOM     13  N   UNL     1      -6.517  10.512  -6.104  1.00  0.00    -0.362 N 
ATOM     14  H   UNL     1      -6.607  11.427  -5.681  1.00  0.00     0.166 HD
BRANCH  13  15
ATOM     15  C   UNL     1      -7.388  10.201  -7.115  1.00  0.00     0.083 C 
BRANCH  15  16
ATOM     16  C   UNL     1      -7.281  10.445  -8.428  1.00  0.00     0.027 C 
BRANCH  16  17
ATOM     17  C   UNL     1      -8.471  10.688  -9.257  1.00  0.00    -0.003 A 
ATOM     18  C   UNL     1      -8.637  11.863 -10.011  1.00  0.00    -0.041 A 
ATOM     19  C   UNL     1      -9.521   9.759  -9.298  1.00  0.00     0.119 A 
ATOM     20  C   UNL     1      -9.815  12.025 -10.756  1.00  0.00     0.024 A 
ATOM     21  N   UNL     1     -10.656   9.891 -10.024  1.00  0.00    -0.264 NA
ATOM     22  C   UNL     1     -10.773  11.023 -10.740  1.00  0.00     0.111 A 
ATOM     23  C   UNL     1      -7.617  12.966 -10.018  1.00  0.00     0.045 C 
ENDBRANCH  16  17
ENDBRANCH  15  16
ENDBRANCH  13  15
ENDBRANCH   4  13
TORSDOF 8
ENDMDL
MODEL 4
REMARK VINA RESULT:    -5.105      1.098      1.703
REMARK INTER + INTRA:          -7.949
REMARK INTER:                  -7.387
REMARK INTRA:                  -0.562
REMARK UNBOUND:                -0.606
REMARK SMILES Cc1ccncc1/C=C/Nc1ccc(CCCN)cc1
REMARK SMILES IDX 14 1 13 2 12 3 11 4 20 5 19 6 15 7 16 8 17 9 18 10 10 13
REMARK SMILES IDX 9 15 8 16 7 17 2 18 6 19 3 20 5 21 4 22 1 23
REMARK H PARENT 18 11 18 12 10 14
ROOT
ATOM      1  C   UNL     1      -4.838   7.564  -3.650  1.00  0.00    -0.048 A 
ATOM      2  C   UNL     1      -4.096   8.098  -4.706  1.00  0.00     0.006 A 
ATOM      3  C   UNL     1      -4.623   9.107  -5.506  1.00  0.00     0.026 A 
ATOM      4  C   UNL     1      -5.931   9.568  -5.337  1.00  0.00     0.038 A 
ATOM      5  C   UNL     1      -6.696   8.994  -4.315  1.00  0.00     0.026 A 
ATOM      6  C   UNL     1      -6.157   8.003  -3.481  1.00  0.00     0.006 A 
ENDROOT
BRANCH   1   7
ATOM      7  C   UNL     1      -4.241   6.543  -2.715  1.00  0.00     0.037 C 
BRANCH   7   8
ATOM      8  C   UNL     1      -5.232   5.650  -1.943  1.00  0.00     0.020 C 
BRANCH   8   9
ATOM      9  C   UNL     1      -5.206   5.781  -0.413  1.00  0.00     0.078 C 
BRANCH   9  10
ATOM     10  N   UNL     1      -4.096   5.104   0.244  1.00  0.00    -0.330 NA
ATOM     11  H   UNL     1      -4.446   4.508   0.993  1.00  0.00     0.118 HD
ATOM     12  H   UNL     1      -3.488   5.786   0.698  1.00  0.00     0.118 HD
ENDBRANCH   9  10
ENDBRANCH   8   9
ENDBRANCH   7   8
ENDBRANCH   1   7
BRANCH   4  13
ATOM     13  N   UNL     1      -6.510  10.503  -6.216  1.00  0.00    -0.362 N 
ATOM     14  H   UNL     1      -6.399  11.480  -5.978  1.00  0.00     0.166 HD
BRANCH  13  15
ATOM     15  C   UNL     1      -7.412  10.196  -7.200  1.00  0.00     0.083 C 
BRANCH  15  16
ATOM     16  C   UNL     1      -7.325  10.403  -8.521  1.00  0.00     0.027 C 
BRANCH  16  17
ATOM     17  C   UNL     1      -8.522  10.683  -9.329  1.00  0.00    -0.003 A 
ATOM     18  C   UNL     1      -8.666  11.862 -10.080  1.00  0.00    -0.041 A 
ATOM     19  C   UNL     1      -9.600   9.785  -9.351  1.00  0.00     0.119 A 
ATOM     20  C   UNL     1      -9.852  12.059 -10.804  1.00  0.00     0.024 A 
ATOM     21  N   UNL     1     -10.743   9.951 -10.058  1.00  0.00    -0.264 NA
ATOM     22  C   UNL     1     -10.839  11.087 -10.771  1.00  0.00     0.111 A 
ATOM     23  C   UNL     1      -7.614  12.934 -10.105  1.00  0.00     0.045 C 
ENDBRANCH  16  17
ENDBRANCH  15  16
ENDBRANCH  13  15
ENDBRANCH   4  13
TORSDOF 8
ENDMDL
MODEL 5
REMARK VINA RESULT:    -5.072      4.563      5.904
REMARK INTER + INTRA:          -7.902
REMARK INTER:                  -7.372
REMARK INTRA:                  -0.531
REMARK UNBOUND:                -0.606
REMARK SMILES Cc1ccncc1/C=C/Nc1ccc(CCCN)cc1
REMARK SMILES IDX 14 1 13 2 12 3 11 4 20 5 19 6 15 7 16 8 17 9 18 10 10 13
REMARK SMILES IDX 9 15 8 16 7 17 2 18 6 19 3 20 5 21 4 22 1 23
REMARK H PARENT 18 11 18 12 10 14
ROOT
ATOM      1  C   UNL     1      -5.439   6.942  -4.097  1.00  0.00    -0.048 A 
ATOM      2  C   UNL     1      -6.589   7.479  -3.515  1.00  0.00     0.006 A 
ATOM      3  C   UNL     1      -6.976   8.789  -3.783  1.00  0.00     0.026 A 
ATOM      4  C   UNL     1      -6.195   9.635  -4.575  1.00  0.00     0.038 A 
ATOM      5  C   UNL     1      -5.012   9.115  -5.113  1.00  0.00     0.026 A 
ATOM      6  C   UNL     1      -4.637   7.784  -4.877  1.00  0.00     0.006 A 
ENDROOT
BRANCH   1   7
ATOM      7  C   UNL     1      -5.065   5.495  -3.894  1.00  0.00     0.037 C 
BRANCH   7   8
ATOM      8  C   UNL     1      -3.565   5.151  -3.976  1.00  0.00     0.020 C 
BRANCH   8   9
ATOM      9  C   UNL     1      -3.129   4.327  -5.196  1.00  0.00     0.078 C 
BRANCH   9  10
ATOM     10  N   UNL     1      -1.699   4.346  -5.473  1.00  0.00    -0.330 NA
ATOM     11  H   UNL     1      -1.250   3.539  -5.042  1.00  0.00     0.118 HD
ATOM     12  H   UNL     1      -1.268   5.163  -5.039  1.00  0.00     0.118 HD
ENDBRANCH   9  10
ENDBRANCH   8   9
ENDBRANCH   7   8
ENDBRANCH   1   7
BRANCH   4  13
ATOM     13  N   UNL     1      -6.517  10.994  -4.754  1.00  0.00    -0.362 N 
ATOM     14  H   UNL     1      -6.938  11.249  -5.639  1.00  0.00     0.166 HD
BRANCH  13  15
ATOM     15  C   UNL     1      -6.081  12.014  -3.950  1.00  0.00     0.083 C 
BRANCH  15  16
ATOM     16  C   UNL     1      -6.784  13.003  -3.382  1.00  0.00     0.027 C 
BRANCH  16  17
ATOM     17  C   UNL     1      -6.285  14.386  -3.376  1.00  0.00    -0.003 A 
ATOM     18  C   UNL     1      -7.121  15.490  -3.619  1.00  0.00    -0.041 A 
ATOM     19  C   UNL     1      -4.926  14.660  -3.162  1.00  0.00     0.119 A 
ATOM     20  C   UNL     1      -6.558  16.775  -3.619  1.00  0.00     0.024 A 
ATOM     21  N   UNL     1      -4.369  15.894  -3.140  1.00  0.00    -0.264 NA
ATOM     22  C   UNL     1      -5.203  16.925  -3.367  1.00  0.00     0.111 A 
ATOM     23  C   UNL     1      -8.586  15.340  -3.917  1.00  0.00     0.045 C 
ENDBRANCH  16  17
ENDBRANCH  15  16
ENDBRANCH  13  15
ENDBRANCH   4  13
TORSDOF 8
ENDMDL
MODEL 6
REMARK VINA RESULT:    -5.049      2.287      8.823
REMARK INTER + INTRA:          -7.869
REMARK INTER:                  -7.312
REMARK INTRA:                  -0.557
REMARK UNBOUND:                -0.606
REMARK SMILES Cc1ccncc1/C=C/Nc1ccc(CCCN)cc1
REMARK SMILES IDX 14 1 13 2 12 3 11 4 20 5 19 6 15 7 16 8 17 9 18 10 10 13
REMARK SMILES IDX 9 15 8 16 7 17 2 18 6 19 3 20 5 21 4 22 1 23
REMARK H PARENT 18 11 18 12 10 14
ROOT
ATOM      1  C   UNL     1      -9.727  11.081 -10.561  1.00  0.00    -0.048 A 
ATOM      2  C   UNL     1      -8.766  12.040 -10.233  1.00  0.00     0.006 A 
ATOM      3  C   UNL     1      -7.755  11.749  -9.321  1.00  0.00     0.026 A 
ATOM      4  C   UNL     1      -7.708  10.527  -8.645  1.00  0.00     0.038 A 
ATOM      5  C   UNL     1      -8.705   9.586  -8.931  1.00  0.00     0.026 A 
ATOM      6  C   UNL     1      -9.704   9.859  -9.878  1.00  0.00     0.006 A 
ENDROOT
BRANCH   1   7
ATOM      7  C   UNL     1     -10.766  11.349 -11.621  1.00  0.00     0.037 C 
BRANCH   7   8
ATOM      8  C   UNL     1     -11.503  10.122 -12.193  1.00  0.00     0.020 C 
BRANCH   8   9
ATOM      9  C   UNL     1     -11.418   9.934 -13.714  1.00  0.00     0.078 C 
BRANCH   9  10
ATOM     10  N   UNL     1     -10.750   8.715 -14.147  1.00  0.00    -0.330 NA
ATOM     11  H   UNL     1     -11.439   8.022 -14.434  1.00  0.00     0.118 HD
ATOM     12  H   UNL     1     -10.247   8.293 -13.366  1.00  0.00     0.118 HD
ENDBRANCH   9  10
ENDBRANCH   8   9
ENDBRANCH   7   8
ENDBRANCH   1   7
BRANCH   4  13
ATOM     13  N   UNL     1      -6.761  10.271  -7.636  1.00  0.00    -0.362 N 
ATOM     14  H   UNL     1      -5.792  10.220  -7.925  1.00  0.00     0.166 HD
BRANCH  13  15
ATOM     15  C   UNL     1      -7.062   9.838  -6.372  1.00  0.00     0.083 C 
BRANCH  15  16
ATOM     16  C   UNL     1      -6.302   9.853  -5.269  1.00  0.00     0.027 C 
BRANCH  16  17
ATOM     17  C   UNL     1      -5.067   9.059  -5.183  1.00  0.00    -0.003 A 
ATOM     18  C   UNL     1      -4.951   7.934  -4.348  1.00  0.00    -0.041 A 
ATOM     19  C   UNL     1      -3.926   9.421  -5.915  1.00  0.00     0.119 A 
ATOM     20  C   UNL     1      -3.728   7.247  -4.310  1.00  0.00     0.024 A 
ATOM     21  N   UNL     1      -2.745   8.760  -5.903  1.00  0.00    -0.264 NA
ATOM     22  C   UNL     1      -2.676   7.684  -5.100  1.00  0.00     0.111 A 
ATOM     23  C   UNL     1      -6.075   7.464  -3.469  1.00  0.00     0.045 C 
ENDBRANCH  16  17
ENDBRANCH  15  16
ENDBRANCH  13  15
ENDBRANCH   4  13
TORSDOF 8
ENDMDL
MODEL 7
REMARK VINA RESULT:    -5.048      4.762      6.134
REMARK INTER + INTRA:          -7.868
REMARK INTER:                  -7.276
REMARK INTRA:                  -0.592
REMARK UNBOUND:                -0.606
REMARK SMILES Cc1ccncc1/C=C/Nc1ccc(CCCN)cc1
REMARK SMILES IDX 14 1 13 2 12 3 11 4 20 5 19 6 15 7 16 8 17 9 18 10 10 13
REMARK SMILES IDX 9 15 8 16 7 17 2 18 6 19 3 20 5 21 4 22 1 23
REMARK H PARENT 18 11 18 12 10 14
ROOT
ATOM      1  C   UNL     1      -5.370   7.598  -4.522  1.00  0.00    -0.048 A 
ATOM      2  C   UNL     1      -4.622   8.497  -5.284  1.00  0.00     0.006 A 
ATOM      3  C   UNL     1      -4.910   9.859  -5.262  1.00  0.00     0.026 A 
ATOM      4  C   UNL     1      -5.997  10.365  -4.545  1.00  0.00     0.038 A 
ATOM      5  C   UNL     1      -6.782   9.457  -3.825  1.00  0.00     0.026 A 
ATOM      6  C   UNL     1      -6.473   8.088  -3.813  1.00  0.00     0.006 A 
ENDROOT
BRANCH   1   7
ATOM      7  C   UNL     1      -5.004   6.136  -4.458  1.00  0.00     0.037 C 
BRANCH   7   8
ATOM      8  C   UNL     1      -3.501   5.798  -4.469  1.00  0.00     0.020 C 
BRANCH   8   9
ATOM      9  C   UNL     1      -3.035   4.833  -5.569  1.00  0.00     0.078 C 
BRANCH   9  10
ATOM     10  N   UNL     1      -1.701   4.282  -5.381  1.00  0.00    -0.330 NA
ATOM     11  H   UNL     1      -1.542   3.520  -6.038  1.00  0.00     0.118 HD
ATOM     12  H   UNL     1      -1.621   3.865  -4.453  1.00  0.00     0.118 HD
ENDBRANCH   9  10
ENDBRANCH   8   9
ENDBRANCH   7   8
ENDBRANCH   1   7
BRANCH   4  13
ATOM     13  N   UNL     1      -6.366  11.722  -4.613  1.00  0.00    -0.362 N 
ATOM     14  H   UNL     1      -6.405  12.137  -5.536  1.00  0.00     0.166 HD
BRANCH  13  15
ATOM     15  C   UNL     1      -6.423  12.573  -3.541  1.00  0.00     0.083 C 
BRANCH  15  16
ATOM     16  C   UNL     1      -5.604  13.582  -3.218  1.00  0.00     0.027 C 
BRANCH  16  17
ATOM     17  C   UNL     1      -5.984  14.981  -3.467  1.00  0.00    -0.003 A 
ATOM     18  C   UNL     1      -5.033  16.004  -3.629  1.00  0.00    -0.041 A 
ATOM     19  C   UNL     1      -7.334  15.362  -3.516  1.00  0.00     0.119 A 
ATOM     20  C   UNL     1      -5.484  17.316  -3.840  1.00  0.00     0.024 A 
ATOM     21  N   UNL     1      -7.785  16.619  -3.735  1.00  0.00    -0.264 NA
ATOM     22  C   UNL     1      -6.845  17.567  -3.895  1.00  0.00     0.111 A 
ATOM     23  C   UNL     1      -3.554  15.748  -3.547  1.00  0.00     0.045 C 
ENDBRANCH  16  17
ENDBRANCH  15  16
ENDBRANCH  13  15
ENDBRANCH   4  13
TORSDOF 8
ENDMDL
MODEL 8
REMARK VINA RESULT:    -5.046      2.134      8.815
REMARK INTER + INTRA:          -7.864
REMARK INTER:                  -7.222
REMARK INTRA:                  -0.642
REMARK UNBOUND:                -0.606
REMARK SMILES Cc1ccncc1/C=C/Nc1ccc(CCCN)cc1
REMARK SMILES IDX 14 1 13 2 12 3 11 4 20 5 19 6 15 7 16 8 17 9 18 10 10 13
REMARK SMILES IDX 9 15 8 16 7 17 2 18 6 19 3 20 5 21 4 22 1 23
REMARK H PARENT 18 11 18 12 10 14
ROOT
ATOM      1  C   UNL     1      -9.649  11.071 -10.426  1.00  0.00    -0.048 A 
ATOM      2  C   UNL     1      -8.671  12.003 -10.073  1.00  0.00     0.006 A 
ATOM      3  C   UNL     1      -7.665  11.670  -9.170  1.00  0.00     0.026 A 
ATOM      4  C   UNL     1      -7.639  10.430  -8.528  1.00  0.00     0.038 A 
ATOM      5  C   UNL     1      -8.652   9.515  -8.838  1.00  0.00     0.026 A 
ATOM      6  C   UNL     1      -9.646   9.831  -9.776  1.00  0.00     0.006 A 
ENDROOT
BRANCH   1   7
ATOM      7  C   UNL     1     -10.683  11.385 -11.478  1.00  0.00     0.037 C 
BRANCH   7   8
ATOM      8  C   UNL     1     -11.487  10.194 -12.035  1.00  0.00     0.020 C 
BRANCH   8   9
ATOM      9  C   UNL     1     -11.424   9.992 -13.556  1.00  0.00     0.078 C 
BRANCH   9  10
ATOM     10  N   UNL     1     -10.776   8.761 -13.986  1.00  0.00    -0.330 NA
ATOM     11  H   UNL     1     -11.114   7.976 -13.432  1.00  0.00     0.118 HD
ATOM     12  H   UNL     1      -9.773   8.811 -13.806  1.00  0.00     0.118 HD
ENDBRANCH   9  10
ENDBRANCH   8   9
ENDBRANCH   7   8
ENDBRANCH   1   7
BRANCH   4  13
ATOM     13  N   UNL     1      -6.696  10.130  -7.526  1.00  0.00    -0.362 N 
ATOM     14  H   UNL     1      -5.938   9.512  -7.786  1.00  0.00     0.166 HD
BRANCH  13  15
ATOM     15  C   UNL     1      -6.861  10.393  -6.192  1.00  0.00     0.083 C 
BRANCH  15  16
ATOM     16  C   UNL     1      -6.085  10.041  -5.158  1.00  0.00     0.027 C 
BRANCH  16  17
ATOM     17  C   UNL     1      -6.437   8.903  -4.295  1.00  0.00    -0.003 A 
ATOM     18  C   UNL     1      -5.555   7.834  -4.060  1.00  0.00    -0.041 A 
ATOM     19  C   UNL     1      -7.701   8.821  -3.692  1.00  0.00     0.119 A 
ATOM     20  C   UNL     1      -5.980   6.777  -3.241  1.00  0.00     0.024 A 
ATOM     21  N   UNL     1      -8.121   7.818  -2.886  1.00  0.00    -0.264 NA
ATOM     22  C   UNL     1      -7.246   6.819  -2.677  1.00  0.00     0.111 A 
ATOM     23  C   UNL     1      -4.190   7.765  -4.684  1.00  0.00     0.045 C 
ENDBRANCH  16  17
ENDBRANCH  15  16
ENDBRANCH  13  15
ENDBRANCH   4  13
TORSDOF 8
ENDMDL
MODEL 9
REMARK VINA RESULT:    -4.962      4.919      8.256
REMARK INTER + INTRA:          -7.743
REMARK INTER:                  -7.029
REMARK INTRA:                  -0.714
REMARK UNBOUND:                -0.606
REMARK SMILES Cc1ccncc1/C=C/Nc1ccc(CCCN)cc1
REMARK SMILES IDX 14 1 13 2 12 3 11 4 20 5 19 6 15 7 16 8 17 9 18 10 10 13
REMARK SMILES IDX 9 15 8 16 7 17 2 18 6 19 3 20 5 21 4 22 1 23
REMARK H PARENT 18 11 18 12 10 14
ROOT
ATOM      1  C   UNL     1      -5.867  15.707  -3.236  1.00  0.00    -0.048 A 
ATOM      2  C   UNL     1      -7.111  15.242  -3.668  1.00  0.00     0.006 A 
ATOM      3  C   UNL     1      -7.374  13.877  -3.741  1.00  0.00     0.026 A 
ATOM      4  C   UNL     1      -6.389  12.926  -3.464  1.00  0.00     0.038 A 
ATOM      5  C   UNL     1      -5.123  13.391  -3.086  1.00  0.00     0.026 A 
ATOM      6  C   UNL     1      -4.864  14.765  -2.973  1.00  0.00     0.006 A 
ENDROOT
BRANCH   1   7
ATOM      7  C   UNL     1      -5.604  17.181  -3.056  1.00  0.00     0.037 C 
BRANCH   7   8
ATOM      8  C   UNL     1      -4.226  17.698  -3.513  1.00  0.00     0.020 C 
BRANCH   8   9
ATOM      9  C   UNL     1      -4.005  17.775  -5.031  1.00  0.00     0.078 C 
BRANCH   9  10
ATOM     10  N   UNL     1      -3.268  16.657  -5.603  1.00  0.00    -0.330 NA
ATOM     11  H   UNL     1      -3.266  15.872  -4.953  1.00  0.00     0.118 HD
ATOM     12  H   UNL     1      -2.287  16.910  -5.728  1.00  0.00     0.118 HD
ENDBRANCH   9  10
ENDBRANCH   8   9
ENDBRANCH   7   8
ENDBRANCH   1   7
BRANCH   4  13
ATOM     13  N   UNL     1      -6.611  11.548  -3.650  1.00  0.00    -0.362 N 
ATOM     14  H   UNL     1      -6.787  11.000  -2.818  1.00  0.00     0.166 HD
BRANCH  13  15
ATOM     15  C   UNL     1      -6.356  10.865  -4.810  1.00  0.00     0.083 C 
BRANCH  15  16
ATOM     16  C   UNL     1      -6.387   9.545  -5.037  1.00  0.00     0.027 C 
BRANCH  16  17
ATOM     17  C   UNL     1      -5.168   8.727  -4.948  1.00  0.00    -0.003 A 
ATOM     18  C   UNL     1      -5.091   7.572  -4.150  1.00  0.00    -0.041 A 
ATOM     19  C   UNL     1      -4.002   9.096  -5.636  1.00  0.00     0.119 A 
ATOM     20  C   UNL     1      -3.881   6.864  -4.103  1.00  0.00     0.024 A 
ATOM     21  N   UNL     1      -2.832   8.415  -5.617  1.00  0.00    -0.264 NA
ATOM     22  C   UNL     1      -2.802   7.310  -4.850  1.00  0.00     0.111 A 
ATOM     23  C   UNL     1      -6.246   7.092  -3.317  1.00  0.00     0.045 C 
ENDBRANCH  16  17
ENDBRANCH  15  16
ENDBRANCH  13  15
ENDBRANCH   4  13
TORSDOF 8
ENDMDL
