MODEL 1
REMARK VINA RESULT:    -5.193      0.000      0.000
REMARK INTER + INTRA:          -8.089
REMARK INTER:                  -7.470
REMARK INTRA:                  -0.619
REMARK UNBOUND:                -0.619
REMARK SMILES Cc1ccncc1/C=C/Nc1ccc(CCCN)cc1
REMARK SMILES IDX 14 1 13 2 12 3 11 4 20 5 19 6 15 7 16 8 17 9 18 10 10 13
REMARK SMILES IDX 9 15 8 16 7 17 2 18 6 19 3 20 5 21 4 22 1 23
REMARK H PARENT 18 11 18 12 10 14
ROOT
ATOM      1  C   UNL     1      12.392  -7.817 -10.473  1.00  0.00    -0.048 A 
ATOM      2  C   UNL     1      11.329  -6.922 -10.333  1.00  0.00     0.006 A 
ATOM      3  C   UNL     1      10.892  -6.531  -9.071  1.00  0.00     0.026 A 
ATOM      4  C   UNL     1      11.441  -7.071  -7.906  1.00  0.00     0.038 A 
ATOM      5  C   UNL     1      12.469  -8.011  -8.045  1.00  0.00     0.026 A 
ATOM      6  C   UNL     1      12.940  -8.381  -9.315  1.00  0.00     0.006 A 
ENDROOT
BRANCH   1   7
ATOM      7  C   UNL     1      12.941  -8.171 -11.833  1.00  0.00     0.037 C 
BRANCH   7   8
ATOM      8  C   UNL     1      13.149  -7.005 -12.820  1.00  0.00     0.020 C 
BRANCH   8   9
ATOM      9  C   UNL     1      14.607  -6.625 -13.115  1.00  0.00     0.078 C 
BRANCH   9  10
ATOM     10  N   UNL     1      15.219  -5.731 -12.142  1.00  0.00    -0.330 NA
ATOM     11  H   UNL     1      14.497  -5.229 -11.627  1.00  0.00     0.118 HD
ATOM     12  H   UNL     1      15.764  -5.013 -12.619  1.00  0.00     0.118 HD
ENDBRANCH   9  10
ENDBRANCH   8   9
ENDBRANCH   7   8
ENDBRANCH   1   7
BRANCH   4  13
ATOM     13  N   UNL     1      10.925  -6.770  -6.631  1.00  0.00    -0.362 N 
ATOM     14  H   UNL     1      10.601  -7.553  -6.076  1.00  0.00     0.166 HD
BRANCH  13  15
ATOM     15  C   UNL     1      10.594  -5.514  -6.197  1.00  0.00     0.083 C 
BRANCH  15  16
ATOM     16  C   UNL     1       9.954  -5.146  -5.079  1.00  0.00     0.027 C 
BRANCH  16  17
ATOM     17  C   UNL     1       9.166  -3.905  -5.026  1.00  0.00    -0.003 A 
ATOM     18  C   UNL     1       7.980  -3.797  -4.278  1.00  0.00    -0.041 A 
ATOM     19  C   UNL     1       9.554  -2.775  -5.760  1.00  0.00     0.119 A 
ATOM     20  C   UNL     1       7.277  -2.583  -4.302  1.00  0.00     0.024 A 
ATOM     21  N   UNL     1       8.898  -1.591  -5.780  1.00  0.00    -0.264 NA
ATOM     22  C   UNL     1       7.773  -1.523  -5.045  1.00  0.00     0.111 A 
ATOM     23  C   UNL     1       7.419  -4.945  -3.488  1.00  0.00     0.045 C 
ENDBRANCH  16  17
ENDBRANCH  15  16
ENDBRANCH  13  15
ENDBRANCH   4  13
TORSDOF 8
ENDMDL
MODEL 2
REMARK VINA RESULT:    -5.003      1.204      1.733
REMARK INTER + INTRA:          -7.815
REMARK INTER:                  -7.144
REMARK INTRA:                  -0.672
REMARK UNBOUND:                -0.619
REMARK SMILES Cc1ccncc1/C=C/Nc1ccc(CCCN)cc1
REMARK SMILES IDX 14 1 13 2 12 3 11 4 20 5 19 6 15 7 16 8 17 9 18 10 10 13
REMARK SMILES IDX 9 15 8 16 7 17 2 18 6 19 3 20 5 21 4 22 1 23
REMARK H PARENT 18 11 18 12 10 14
ROOT
ATOM      1  C   UNL     1      12.192  -7.614 -10.059  1.00  0.00    -0.048 A 
ATOM      2  C   UNL     1      11.055  -6.807  -9.977  1.00  0.00     0.006 A 
ATOM      3  C   UNL     1      10.570  -6.387  -8.742  1.00  0.00     0.026 A 
ATOM      4  C   UNL     1      11.148  -6.815  -7.544  1.00  0.00     0.038 A 
ATOM      5  C   UNL     1      12.254  -7.670  -7.624  1.00  0.00     0.026 A 
ATOM      6  C   UNL     1      12.771  -8.065  -8.867  1.00  0.00     0.006 A 
ENDROOT
BRANCH   1   7
ATOM      7  C   UNL     1      12.786  -7.992 -11.393  1.00  0.00     0.037 C 
BRANCH   7   8
ATOM      8  C   UNL     1      12.966  -6.855 -12.417  1.00  0.00     0.020 C 
BRANCH   8   9
ATOM      9  C   UNL     1      14.397  -6.630 -12.929  1.00  0.00     0.078 C 
BRANCH   9  10
ATOM     10  N   UNL     1      15.206  -5.731 -12.118  1.00  0.00    -0.330 NA
ATOM     11  H   UNL     1      15.129  -4.778 -12.470  1.00  0.00     0.118 HD
ATOM     12  H   UNL     1      16.194  -5.975 -12.203  1.00  0.00     0.118 HD
ENDBRANCH   9  10
ENDBRANCH   8   9
ENDBRANCH   7   8
ENDBRANCH   1   7
BRANCH   4  13
ATOM     13  N   UNL     1      10.592  -6.491  -6.292  1.00  0.00    -0.362 N 
ATOM     14  H   UNL     1       9.792  -7.036  -5.995  1.00  0.00     0.166 HD
BRANCH  13  15
ATOM     15  C   UNL     1      10.877  -5.357  -5.578  1.00  0.00     0.083 C 
BRANCH  15  16
ATOM     16  C   UNL     1      10.307  -4.147  -5.651  1.00  0.00     0.027 C 
BRANCH  16  17
ATOM     17  C   UNL     1       8.951  -3.911  -5.135  1.00  0.00    -0.003 A 
ATOM     18  C   UNL     1       8.246  -2.719  -5.382  1.00  0.00    -0.041 A 
ATOM     19  C   UNL     1       8.311  -4.865  -4.330  1.00  0.00     0.119 A 
ATOM     20  C   UNL     1       6.965  -2.567  -4.831  1.00  0.00     0.024 A 
ATOM     21  N   UNL     1       7.069  -4.742  -3.805  1.00  0.00    -0.264 NA
ATOM     22  C   UNL     1       6.424  -3.593  -4.072  1.00  0.00     0.111 A 
ATOM     23  C   UNL     1       8.832  -1.590  -6.182  1.00  0.00     0.045 C 
ENDBRANCH  16  17
ENDBRANCH  15  16
ENDBRANCH  13  15
ENDBRANCH   4  13
TORSDOF 8
ENDMDL
MODEL 3
REMARK VINA RESULT:    -5.000      1.951      8.691
REMARK INTER + INTRA:          -7.810
REMARK INTER:                  -7.231
REMARK INTRA:                  -0.579
REMARK UNBOUND:                -0.619
REMARK SMILES Cc1ccncc1/C=C/Nc1ccc(CCCN)cc1
REMARK SMILES IDX 14 1 13 2 12 3 11 4 20 5 19 6 15 7 16 8 17 9 18 10 10 13
REMARK SMILES IDX 9 15 8 16 7 17 2 18 6 19 3 20 5 21 4 22 1 23
REMARK H PARENT 18 11 18 12 10 14
ROOT
ATOM      1  C   UNL     1       8.969  -3.094  -4.833  1.00  0.00    -0.048 A 
ATOM      2  C   UNL     1       8.894  -4.466  -4.588  1.00  0.00     0.006 A 
ATOM      3  C   UNL     1       9.833  -5.338  -5.132  1.00  0.00     0.026 A 
ATOM      4  C   UNL     1      10.833  -4.889  -5.998  1.00  0.00     0.038 A 
ATOM      5  C   UNL     1      10.875  -3.521  -6.290  1.00  0.00     0.026 A 
ATOM      6  C   UNL     1       9.954  -2.632  -5.715  1.00  0.00     0.006 A 
ENDROOT
BRANCH   1   7
ATOM      7  C   UNL     1       8.019  -2.129  -4.169  1.00  0.00     0.037 C 
BRANCH   7   8
ATOM      8  C   UNL     1       7.848  -0.753  -4.842  1.00  0.00     0.020 C 
BRANCH   8   9
ATOM      9  C   UNL     1       7.713   0.448  -3.895  1.00  0.00     0.078 C 
BRANCH   9  10
ATOM     10  N   UNL     1       6.596   0.375  -2.964  1.00  0.00    -0.330 NA
ATOM     11  H   UNL     1       6.895   0.671  -2.036  1.00  0.00     0.118 HD
ATOM     12  H   UNL     1       6.289  -0.592  -2.858  1.00  0.00     0.118 HD
ENDBRANCH   9  10
ENDBRANCH   8   9
ENDBRANCH   7   8
ENDBRANCH   1   7
BRANCH   4  13
ATOM     13  N   UNL     1      11.712  -5.779  -6.645  1.00  0.00    -0.362 N 
ATOM     14  H   UNL     1      12.657  -5.452  -6.798  1.00  0.00     0.166 HD
BRANCH  13  15
ATOM     15  C   UNL     1      11.328  -6.920  -7.300  1.00  0.00     0.083 C 
BRANCH  15  16
ATOM     16  C   UNL     1      11.537  -7.274  -8.575  1.00  0.00     0.027 C 
BRANCH  16  17
ATOM     17  C   UNL     1      12.746  -8.011  -8.973  1.00  0.00    -0.003 A 
ATOM     18  C   UNL     1      12.999  -8.382 -10.305  1.00  0.00    -0.041 A 
ATOM     19  C   UNL     1      13.692  -8.411  -8.017  1.00  0.00     0.119 A 
ATOM     20  C   UNL     1      14.166  -9.105 -10.594  1.00  0.00     0.024 A 
ATOM     21  N   UNL     1      14.831  -9.093  -8.280  1.00  0.00    -0.264 NA
ATOM     22  C   UNL     1      15.042  -9.421  -9.567  1.00  0.00     0.111 A 
ATOM     23  C   UNL     1      12.046  -8.065 -11.423  1.00  0.00     0.045 C 
ENDBRANCH  16  17
ENDBRANCH  15  16
ENDBRANCH  13  15
ENDBRANCH   4  13
TORSDOF 8
ENDMDL
MODEL 4
REMARK VINA RESULT:    -4.878      2.029      8.461
REMARK INTER + INTRA:          -7.636
REMARK INTER:                  -7.181
REMARK INTRA:                  -0.455
REMARK UNBOUND:                -0.619
REMARK SMILES Cc1ccncc1/C=C/Nc1ccc(CCCN)cc1
REMARK SMILES IDX 14 1 13 2 12 3 11 4 20 5 19 6 15 7 16 8 17 9 18 10 10 13
REMARK SMILES IDX 9 15 8 16 7 17 2 18 6 19 3 20 5 21 4 22 1 23
REMARK H PARENT 18 11 18 12 10 14
ROOT
ATOM      1  C   UNL     1       8.075  -3.656  -4.342  1.00  0.00    -0.048 A 
ATOM      2  C   UNL     1       8.368  -4.998  -4.090  1.00  0.00     0.006 A 
ATOM      3  C   UNL     1       9.565  -5.558  -4.528  1.00  0.00     0.026 A 
ATOM      4  C   UNL     1      10.475  -4.830  -5.299  1.00  0.00     0.038 A 
ATOM      5  C   UNL     1      10.155  -3.501  -5.602  1.00  0.00     0.026 A 
ATOM      6  C   UNL     1       8.969  -2.920  -5.129  1.00  0.00     0.006 A 
ENDROOT
BRANCH   1   7
ATOM      7  C   UNL     1       6.830  -3.012  -3.786  1.00  0.00     0.037 C 
BRANCH   7   8
ATOM      8  C   UNL     1       5.560  -3.095  -4.655  1.00  0.00     0.020 C 
BRANCH   8   9
ATOM      9  C   UNL     1       4.938  -4.491  -4.806  1.00  0.00     0.078 C 
BRANCH   9  10
ATOM     10  N   UNL     1       4.078  -4.904  -3.707  1.00  0.00    -0.330 NA
ATOM     11  H   UNL     1       3.839  -4.099  -3.129  1.00  0.00     0.118 HD
ATOM     12  H   UNL     1       4.578  -5.545  -3.090  1.00  0.00     0.118 HD
ENDBRANCH   9  10
ENDBRANCH   8   9
ENDBRANCH   7   8
ENDBRANCH   1   7
BRANCH   4  13
ATOM     13  N   UNL     1      11.628  -5.424  -5.846  1.00  0.00    -0.362 N 
ATOM     14  H   UNL     1      12.490  -5.304  -5.328  1.00  0.00     0.166 HD
BRANCH  13  15
ATOM     15  C   UNL     1      11.726  -5.914  -7.122  1.00  0.00     0.083 C 
BRANCH  15  16
ATOM     16  C   UNL     1      11.529  -7.163  -7.565  1.00  0.00     0.027 C 
BRANCH  16  17
ATOM     17  C   UNL     1      12.021  -7.590  -8.883  1.00  0.00    -0.003 A 
ATOM     18  C   UNL     1      13.201  -8.338  -9.042  1.00  0.00    -0.041 A 
ATOM     19  C   UNL     1      11.340  -7.229 -10.056  1.00  0.00     0.119 A 
ATOM     20  C   UNL     1      13.610  -8.683 -10.339  1.00  0.00     0.024 A 
ATOM     21  N   UNL     1      11.712  -7.569 -11.313  1.00  0.00    -0.264 NA
ATOM     22  C   UNL     1      12.840  -8.293 -11.423  1.00  0.00     0.111 A 
ATOM     23  C   UNL     1      14.057  -8.747  -7.877  1.00  0.00     0.045 C 
ENDBRANCH  16  17
ENDBRANCH  15  16
ENDBRANCH  13  15
ENDBRANCH   4  13
TORSDOF 8
ENDMDL
MODEL 5
REMARK VINA RESULT:    -4.873      1.616      8.605
REMARK INTER + INTRA:          -7.628
REMARK INTER:                  -7.037
REMARK INTRA:                  -0.591
REMARK UNBOUND:                -0.619
REMARK SMILES Cc1ccncc1/C=C/Nc1ccc(CCCN)cc1
REMARK SMILES IDX 14 1 13 2 12 3 11 4 20 5 19 6 15 7 16 8 17 9 18 10 10 13
REMARK SMILES IDX 9 15 8 16 7 17 2 18 6 19 3 20 5 21 4 22 1 23
REMARK H PARENT 18 11 18 12 10 14
ROOT
ATOM      1  C   UNL     1       9.449  -3.577  -4.902  1.00  0.00    -0.048 A 
ATOM      2  C   UNL     1      10.371  -3.064  -5.816  1.00  0.00     0.006 A 
ATOM      3  C   UNL     1      11.116  -3.916  -6.628  1.00  0.00     0.026 A 
ATOM      4  C   UNL     1      11.028  -5.305  -6.507  1.00  0.00     0.038 A 
ATOM      5  C   UNL     1      10.145  -5.821  -5.551  1.00  0.00     0.026 A 
ATOM      6  C   UNL     1       9.364  -4.967  -4.757  1.00  0.00     0.006 A 
ENDROOT
BRANCH   1   7
ATOM      7  C   UNL     1       8.565  -2.664  -4.090  1.00  0.00     0.037 C 
BRANCH   7   8
ATOM      8  C   UNL     1       8.063  -1.386  -4.788  1.00  0.00     0.020 C 
BRANCH   8   9
ATOM      9  C   UNL     1       7.360  -0.358  -3.889  1.00  0.00     0.078 C 
BRANCH   9  10
ATOM     10  N   UNL     1       7.321   0.998  -4.417  1.00  0.00    -0.330 NA
ATOM     11  H   UNL     1       8.162   1.504  -4.143  1.00  0.00     0.118 HD
ATOM     12  H   UNL     1       6.544   1.514  -4.004  1.00  0.00     0.118 HD
ENDBRANCH   9  10
ENDBRANCH   8   9
ENDBRANCH   7   8
ENDBRANCH   1   7
BRANCH   4  13
ATOM     13  N   UNL     1      11.863  -6.170  -7.240  1.00  0.00    -0.362 N 
ATOM     14  H   UNL     1      12.859  -6.002  -7.175  1.00  0.00     0.166 HD
BRANCH  13  15
ATOM     15  C   UNL     1      11.434  -7.033  -8.213  1.00  0.00     0.083 C 
BRANCH  15  16
ATOM     16  C   UNL     1      11.395  -6.860  -9.540  1.00  0.00     0.027 C 
BRANCH  16  17
ATOM     17  C   UNL     1      12.302  -7.598 -10.432  1.00  0.00    -0.003 A 
ATOM     18  C   UNL     1      12.716  -7.090 -11.676  1.00  0.00    -0.041 A 
ATOM     19  C   UNL     1      12.767  -8.877 -10.088  1.00  0.00     0.119 A 
ATOM     20  C   UNL     1      13.564  -7.871 -12.475  1.00  0.00     0.024 A 
ATOM     21  N   UNL     1      13.598  -9.636 -10.838  1.00  0.00    -0.264 NA
ATOM     22  C   UNL     1      13.980  -9.111 -12.016  1.00  0.00     0.111 A 
ATOM     23  C   UNL     1      12.253  -5.758 -12.195  1.00  0.00     0.045 C 
ENDBRANCH  16  17
ENDBRANCH  15  16
ENDBRANCH  13  15
ENDBRANCH   4  13
TORSDOF 8
ENDMDL
MODEL 6
REMARK VINA RESULT:    -4.779      1.649      1.844
REMARK INTER + INTRA:          -7.492
REMARK INTER:                  -6.863
REMARK INTRA:                  -0.629
REMARK UNBOUND:                -0.619
REMARK SMILES Cc1ccncc1/C=C/Nc1ccc(CCCN)cc1
REMARK SMILES IDX 14 1 13 2 12 3 11 4 20 5 19 6 15 7 16 8 17 9 18 10 10 13
REMARK SMILES IDX 9 15 8 16 7 17 2 18 6 19 3 20 5 21 4 22 1 23
REMARK H PARENT 18 11 18 12 10 14
ROOT
ATOM      1  C   UNL     1      12.445  -7.770 -10.544  1.00  0.00    -0.048 A 
ATOM      2  C   UNL     1      11.350  -6.913 -10.418  1.00  0.00     0.006 A 
ATOM      3  C   UNL     1      10.861  -6.564  -9.163  1.00  0.00     0.026 A 
ATOM      4  C   UNL     1      11.391  -7.114  -7.992  1.00  0.00     0.038 A 
ATOM      5  C   UNL     1      12.452  -8.017  -8.120  1.00  0.00     0.026 A 
ATOM      6  C   UNL     1      12.974  -8.343  -9.381  1.00  0.00     0.006 A 
ENDROOT
BRANCH   1   7
ATOM      7  C   UNL     1      13.046  -8.075 -11.893  1.00  0.00     0.037 C 
BRANCH   7   8
ATOM      8  C   UNL     1      13.059  -9.554 -12.327  1.00  0.00     0.020 C 
BRANCH   8   9
ATOM      9  C   UNL     1      12.474  -9.853 -13.715  1.00  0.00     0.078 C 
BRANCH   9  10
ATOM     10  N   UNL     1      11.119 -10.386 -13.711  1.00  0.00    -0.330 NA
ATOM     11  H   UNL     1      11.106 -11.309 -14.144  1.00  0.00     0.118 HD
ATOM     12  H   UNL     1      10.511  -9.805 -14.288  1.00  0.00     0.118 HD
ENDBRANCH   9  10
ENDBRANCH   8   9
ENDBRANCH   7   8
ENDBRANCH   1   7
BRANCH   4  13
ATOM     13  N   UNL     1      10.826  -6.859  -6.728  1.00  0.00    -0.362 N 
ATOM     14  H   UNL     1      10.079  -7.474  -6.432  1.00  0.00     0.166 HD
BRANCH  13  15
ATOM     15  C   UNL     1      11.023  -5.716  -5.999  1.00  0.00     0.083 C 
BRANCH  15  16
ATOM     16  C   UNL     1      10.236  -5.160  -5.068  1.00  0.00     0.027 C 
BRANCH  16  17
ATOM     17  C   UNL     1       9.585  -3.861  -5.297  1.00  0.00    -0.003 A 
ATOM     18  C   UNL     1       8.334  -3.537  -4.744  1.00  0.00    -0.041 A 
ATOM     19  C   UNL     1      10.179  -2.894  -6.121  1.00  0.00     0.119 A 
ATOM     20  C   UNL     1       7.773  -2.284  -5.033  1.00  0.00     0.024 A 
ATOM     21  N   UNL     1       9.661  -1.674  -6.396  1.00  0.00    -0.264 NA
ATOM     22  C   UNL     1       8.468  -1.397  -5.840  1.00  0.00     0.111 A 
ATOM     23  C   UNL     1       7.560  -4.499  -3.887  1.00  0.00     0.045 C 
ENDBRANCH  16  17
ENDBRANCH  15  16
ENDBRANCH  13  15
ENDBRANCH   4  13
TORSDOF 8
ENDMDL
MODEL 7
REMARK VINA RESULT:    -4.774      3.249      9.279
REMARK INTER + INTRA:          -7.485
REMARK INTER:                  -6.621
REMARK INTRA:                  -0.864
REMARK UNBOUND:                -0.619
REMARK SMILES Cc1ccncc1/C=C/Nc1ccc(CCCN)cc1
REMARK SMILES IDX 14 1 13 2 12 3 11 4 20 5 19 6 15 7 16 8 17 9 18 10 10 13
REMARK SMILES IDX 9 15 8 16 7 17 2 18 6 19 3 20 5 21 4 22 1 23
REMARK H PARENT 18 11 18 12 10 14
ROOT
ATOM      1  C   UNL     1      11.449  -7.085  -8.222  1.00  0.00    -0.048 A 
ATOM      2  C   UNL     1      12.507  -7.987  -8.083  1.00  0.00     0.006 A 
ATOM      3  C   UNL     1      13.202  -8.444  -9.199  1.00  0.00     0.026 A 
ATOM      4  C   UNL     1      12.823  -8.085 -10.495  1.00  0.00     0.038 A 
ATOM      5  C   UNL     1      11.727  -7.226 -10.639  1.00  0.00     0.026 A 
ATOM      6  C   UNL     1      11.047  -6.732  -9.516  1.00  0.00     0.006 A 
ENDROOT
BRANCH   1   7
ATOM      7  C   UNL     1      10.755  -6.505  -7.016  1.00  0.00     0.037 C 
BRANCH   7   8
ATOM      8  C   UNL     1      11.169  -5.081  -6.598  1.00  0.00     0.020 C 
BRANCH   8   9
ATOM      9  C   UNL     1      12.105  -4.980  -5.384  1.00  0.00     0.078 C 
BRANCH   9  10
ATOM     10  N   UNL     1      13.480  -5.387  -5.633  1.00  0.00    -0.330 NA
ATOM     11  H   UNL     1      13.785  -6.044  -4.916  1.00  0.00     0.118 HD
ATOM     12  H   UNL     1      14.105  -4.584  -5.550  1.00  0.00     0.118 HD
ENDBRANCH   9  10
ENDBRANCH   8   9
ENDBRANCH   7   8
ENDBRANCH   1   7
BRANCH   4  13
ATOM     13  N   UNL     1      13.445  -8.637 -11.632  1.00  0.00    -0.362 N 
ATOM     14  H   UNL     1      14.289  -9.173 -11.473  1.00  0.00     0.166 HD
BRANCH  13  15
ATOM     15  C   UNL     1      13.152  -8.297 -12.926  1.00  0.00     0.083 C 
BRANCH  15  16
ATOM     16  C   UNL     1      13.105  -9.076 -14.015  1.00  0.00     0.027 C 
BRANCH  16  17
ATOM     17  C   UNL     1      12.604 -10.457 -13.943  1.00  0.00    -0.003 A 
ATOM     18  C   UNL     1      13.462 -11.566 -13.843  1.00  0.00    -0.041 A 
ATOM     19  C   UNL     1      11.229 -10.728 -14.010  1.00  0.00     0.119 A 
ATOM     20  C   UNL     1      12.901 -12.852 -13.804  1.00  0.00     0.024 A 
ATOM     21  N   UNL     1      10.670 -11.959 -13.956  1.00  0.00    -0.264 NA
ATOM     22  C   UNL     1      11.523 -12.994 -13.851  1.00  0.00     0.111 A 
ATOM     23  C   UNL     1      14.959 -11.426 -13.816  1.00  0.00     0.045 C 
ENDBRANCH  16  17
ENDBRANCH  15  16
ENDBRANCH  13  15
ENDBRANCH   4  13
TORSDOF 8
ENDMDL
MODEL 8
REMARK VINA RESULT:    -4.746      2.092      8.623
REMARK INTER + INTRA:          -7.446
REMARK INTER:                  -6.933
REMARK INTRA:                  -0.513
REMARK UNBOUND:                -0.619
REMARK SMILES Cc1ccncc1/C=C/Nc1ccc(CCCN)cc1
REMARK SMILES IDX 14 1 13 2 12 3 11 4 20 5 19 6 15 7 16 8 17 9 18 10 10 13
REMARK SMILES IDX 9 15 8 16 7 17 2 18 6 19 3 20 5 21 4 22 1 23
REMARK H PARENT 18 11 18 12 10 14
ROOT
ATOM      1  C   UNL     1       8.257  -3.744  -4.172  1.00  0.00    -0.048 A 
ATOM      2  C   UNL     1       9.110  -3.058  -5.039  1.00  0.00     0.006 A 
ATOM      3  C   UNL     1      10.116  -3.730  -5.727  1.00  0.00     0.026 A 
ATOM      4  C   UNL     1      10.361  -5.090  -5.520  1.00  0.00     0.038 A 
ATOM      5  C   UNL     1       9.544  -5.768  -4.608  1.00  0.00     0.026 A 
ATOM      6  C   UNL     1       8.503  -5.103  -3.941  1.00  0.00     0.006 A 
ENDROOT
BRANCH   1   7
ATOM      7  C   UNL     1       7.101  -3.047  -3.500  1.00  0.00     0.037 C 
BRANCH   7   8
ATOM      8  C   UNL     1       5.802  -2.916  -4.318  1.00  0.00     0.020 C 
BRANCH   8   9
ATOM      9  C   UNL     1       4.993  -4.208  -4.509  1.00  0.00     0.078 C 
BRANCH   9  10
ATOM     10  N   UNL     1       3.649  -4.020  -5.034  1.00  0.00    -0.330 NA
ATOM     11  H   UNL     1       3.619  -3.192  -5.628  1.00  0.00     0.118 HD
ATOM     12  H   UNL     1       2.996  -3.834  -4.272  1.00  0.00     0.118 HD
ENDBRANCH   9  10
ENDBRANCH   8   9
ENDBRANCH   7   8
ENDBRANCH   1   7
BRANCH   4  13
ATOM     13  N   UNL     1      11.451  -5.750  -6.121  1.00  0.00    -0.362 N 
ATOM     14  H   UNL     1      12.321  -5.753  -5.603  1.00  0.00     0.166 HD
BRANCH  13  15
ATOM     15  C   UNL     1      11.497  -6.151  -7.429  1.00  0.00     0.083 C 
BRANCH  15  16
ATOM     16  C   UNL     1      11.472  -7.391  -7.935  1.00  0.00     0.027 C 
BRANCH  16  17
ATOM     17  C   UNL     1      12.674  -7.996  -8.530  1.00  0.00    -0.003 A 
ATOM     18  C   UNL     1      12.818  -8.178  -9.917  1.00  0.00    -0.041 A 
ATOM     19  C   UNL     1      13.724  -8.456  -7.721  1.00  0.00     0.119 A 
ATOM     20  C   UNL     1      13.988  -8.785 -10.399  1.00  0.00     0.024 A 
ATOM     21  N   UNL     1      14.866  -9.028  -8.170  1.00  0.00    -0.264 NA
ATOM     22  C   UNL     1      14.971  -9.176  -9.503  1.00  0.00     0.111 A 
ATOM     23  C   UNL     1      11.750  -7.781 -10.896  1.00  0.00     0.045 C 
ENDBRANCH  16  17
ENDBRANCH  15  16
ENDBRANCH  13  15
ENDBRANCH   4  13
TORSDOF 8
ENDMDL
MODEL 9
REMARK VINA RESULT:    -4.727      1.662      8.606
REMARK INTER + INTRA:          -7.418
REMARK INTER:                  -6.896
REMARK INTRA:                  -0.522
REMARK UNBOUND:                -0.619
REMARK SMILES Cc1ccncc1/C=C/Nc1ccc(CCCN)cc1
REMARK SMILES IDX 14 1 13 2 12 3 11 4 20 5 19 6 15 7 16 8 17 9 18 10 10 13
REMARK SMILES IDX 9 15 8 16 7 17 2 18 6 19 3 20 5 21 4 22 1 23
REMARK H PARENT 18 11 18 12 10 14
ROOT
ATOM      1  C   UNL     1       9.085  -3.203  -4.825  1.00  0.00    -0.048 A 
ATOM      2  C   UNL     1      10.099  -2.717  -5.652  1.00  0.00     0.006 A 
ATOM      3  C   UNL     1      10.972  -3.591  -6.295  1.00  0.00     0.026 A 
ATOM      4  C   UNL     1      10.918  -4.970  -6.079  1.00  0.00     0.038 A 
ATOM      5  C   UNL     1       9.937  -5.454  -5.205  1.00  0.00     0.026 A 
ATOM      6  C   UNL     1       9.030  -4.582  -4.585  1.00  0.00     0.006 A 
ENDROOT
BRANCH   1   7
ATOM      7  C   UNL     1       8.072  -2.274  -4.204  1.00  0.00     0.037 C 
BRANCH   7   8
ATOM      8  C   UNL     1       7.875  -0.908  -4.889  1.00  0.00     0.020 C 
BRANCH   8   9
ATOM      9  C   UNL     1       7.777   0.306  -3.954  1.00  0.00     0.078 C 
BRANCH   9  10
ATOM     10  N   UNL     1       6.622   0.309  -3.068  1.00  0.00    -0.330 NA
ATOM     11  H   UNL     1       6.786   0.940  -2.284  1.00  0.00     0.118 HD
ATOM     12  H   UNL     1       6.495  -0.614  -2.653  1.00  0.00     0.118 HD
ENDBRANCH   9  10
ENDBRANCH   8   9
ENDBRANCH   7   8
ENDBRANCH   1   7
BRANCH   4  13
ATOM     13  N   UNL     1      11.870  -5.848  -6.631  1.00  0.00    -0.362 N 
ATOM     14  H   UNL     1      12.839  -5.674  -6.394  1.00  0.00     0.166 HD
BRANCH  13  15
ATOM     15  C   UNL     1      11.622  -6.736  -7.644  1.00  0.00     0.083 C 
BRANCH  15  16
ATOM     16  C   UNL     1      12.328  -7.811  -8.018  1.00  0.00     0.027 C 
BRANCH  16  17
ATOM     17  C   UNL     1      12.633  -8.067  -9.434  1.00  0.00    -0.003 A 
ATOM     18  C   UNL     1      13.827  -8.683  -9.849  1.00  0.00    -0.041 A 
ATOM     19  C   UNL     1      11.747  -7.665 -10.445  1.00  0.00     0.119 A 
ATOM     20  C   UNL     1      14.048  -8.867 -11.222  1.00  0.00     0.024 A 
ATOM     21  N   UNL     1      11.937  -7.852 -11.772  1.00  0.00    -0.264 NA
ATOM     22  C   UNL     1      13.086  -8.453 -12.128  1.00  0.00     0.111 A 
ATOM     23  C   UNL     1      14.889  -9.115  -8.877  1.00  0.00     0.045 C 
ENDBRANCH  16  17
ENDBRANCH  15  16
ENDBRANCH  13  15
ENDBRANCH   4  13
TORSDOF 8
ENDMDL
