MODEL 1
REMARK VINA RESULT:    -5.099      0.000      0.000
REMARK INTER + INTRA:          -7.952
REMARK INTER:                  -7.334
REMARK INTRA:                  -0.618
REMARK UNBOUND:                -0.618
REMARK SMILES Cc1ccncc1/C=C/Nc1ccc(CCCN)cc1
REMARK SMILES IDX 14 1 13 2 12 3 11 4 20 5 19 6 15 7 16 8 17 9 18 10 10 13
REMARK SMILES IDX 9 15 8 16 7 17 2 18 6 19 3 20 5 21 4 22 1 23
REMARK H PARENT 18 11 18 12 10 14
ROOT
ATOM      1  C   UNL     1      13.264   6.734   6.965  1.00  0.00    -0.048 A 
ATOM      2  C   UNL     1      11.931   6.336   6.843  1.00  0.00     0.006 A 
ATOM      3  C   UNL     1      11.499   5.630   5.724  1.00  0.00     0.026 A 
ATOM      4  C   UNL     1      12.356   5.361   4.654  1.00  0.00     0.038 A 
ATOM      5  C   UNL     1      13.679   5.808   4.749  1.00  0.00     0.026 A 
ATOM      6  C   UNL     1      14.129   6.487   5.892  1.00  0.00     0.006 A 
ENDROOT
BRANCH   1   7
ATOM      7  C   UNL     1      13.765   7.410   8.216  1.00  0.00     0.037 C 
BRANCH   7   8
ATOM      8  C   UNL     1      13.509   6.679   9.548  1.00  0.00     0.020 C 
BRANCH   8   9
ATOM      9  C   UNL     1      14.693   5.886  10.120  1.00  0.00     0.078 C 
BRANCH   9  10
ATOM     10  N   UNL     1      14.651   4.452   9.873  1.00  0.00    -0.330 NA
ATOM     11  H   UNL     1      14.032   4.252   9.088  1.00  0.00     0.118 HD
ATOM     12  H   UNL     1      14.242   3.970  10.673  1.00  0.00     0.118 HD
ENDBRANCH   9  10
ENDBRANCH   8   9
ENDBRANCH   7   8
ENDBRANCH   1   7
BRANCH   4  13
ATOM     13  N   UNL     1      11.898   4.752   3.469  1.00  0.00    -0.362 N 
ATOM     14  H   UNL     1      12.325   5.062   2.605  1.00  0.00     0.166 HD
BRANCH  13  15
ATOM     15  C   UNL     1      10.768   3.983   3.371  1.00  0.00     0.083 C 
BRANCH  15  16
ATOM     16  C   UNL     1      10.218   3.425   2.284  1.00  0.00     0.027 C 
BRANCH  16  17
ATOM     17  C   UNL     1       8.935   2.710   2.363  1.00  0.00    -0.003 A 
ATOM     18  C   UNL     1       7.939   2.839   1.379  1.00  0.00    -0.041 A 
ATOM     19  C   UNL     1       8.635   1.887   3.459  1.00  0.00     0.119 A 
ATOM     20  C   UNL     1       6.734   2.139   1.544  1.00  0.00     0.024 A 
ATOM     21  N   UNL     1       7.486   1.192   3.625  1.00  0.00    -0.264 NA
ATOM     22  C   UNL     1       6.562   1.334   2.658  1.00  0.00     0.111 A 
ATOM     23  C   UNL     1       8.104   3.728   0.178  1.00  0.00     0.045 C 
ENDBRANCH  16  17
ENDBRANCH  15  16
ENDBRANCH  13  15
ENDBRANCH   4  13
TORSDOF 8
ENDMDL
MODEL 2
REMARK VINA RESULT:    -5.006      1.400      1.973
REMARK INTER + INTRA:          -7.819
REMARK INTER:                  -7.135
REMARK INTRA:                  -0.683
REMARK UNBOUND:                -0.618
REMARK SMILES Cc1ccncc1/C=C/Nc1ccc(CCCN)cc1
REMARK SMILES IDX 14 1 13 2 12 3 11 4 20 5 19 6 15 7 16 8 17 9 18 10 10 13
REMARK SMILES IDX 9 15 8 16 7 17 2 18 6 19 3 20 5 21 4 22 1 23
REMARK H PARENT 18 11 18 12 10 14
ROOT
ATOM      1  C   UNL     1      12.815   6.397   6.226  1.00  0.00    -0.048 A 
ATOM      2  C   UNL     1      11.492   5.986   6.050  1.00  0.00     0.006 A 
ATOM      3  C   UNL     1      11.163   5.046   5.078  1.00  0.00     0.026 A 
ATOM      4  C   UNL     1      12.121   4.541   4.195  1.00  0.00     0.038 A 
ATOM      5  C   UNL     1      13.438   4.996   4.332  1.00  0.00     0.026 A 
ATOM      6  C   UNL     1      13.782   5.914   5.336  1.00  0.00     0.006 A 
ENDROOT
BRANCH   1   7
ATOM      7  C   UNL     1      13.198   7.337   7.341  1.00  0.00     0.037 C 
BRANCH   7   8
ATOM      8  C   UNL     1      14.110   6.766   8.444  1.00  0.00     0.020 C 
BRANCH   8   9
ATOM      9  C   UNL     1      13.409   5.958   9.546  1.00  0.00     0.078 C 
BRANCH   9  10
ATOM     10  N   UNL     1      14.117   4.761   9.977  1.00  0.00    -0.330 NA
ATOM     11  H   UNL     1      13.782   3.952   9.456  1.00  0.00     0.118 HD
ATOM     12  H   UNL     1      13.908   4.562  10.955  1.00  0.00     0.118 HD
ENDBRANCH   9  10
ENDBRANCH   8   9
ENDBRANCH   7   8
ENDBRANCH   1   7
BRANCH   4  13
ATOM     13  N   UNL     1      11.775   3.682   3.134  1.00  0.00    -0.362 N 
ATOM     14  H   UNL     1      12.526   3.137   2.728  1.00  0.00     0.166 HD
BRANCH  13  15
ATOM     15  C   UNL     1      10.587   3.718   2.453  1.00  0.00     0.083 C 
BRANCH  15  16
ATOM     16  C   UNL     1       9.631   2.784   2.372  1.00  0.00     0.027 C 
BRANCH  16  17
ATOM     17  C   UNL     1       8.264   3.127   1.948  1.00  0.00    -0.003 A 
ATOM     18  C   UNL     1       7.124   2.625   2.600  1.00  0.00    -0.041 A 
ATOM     19  C   UNL     1       8.042   3.952   0.836  1.00  0.00     0.119 A 
ATOM     20  C   UNL     1       5.858   2.984   2.115  1.00  0.00     0.024 A 
ATOM     21  N   UNL     1       6.828   4.323   0.365  1.00  0.00    -0.264 NA
ATOM     22  C   UNL     1       5.762   3.830   1.021  1.00  0.00     0.111 A 
ATOM     23  C   UNL     1       7.215   1.688   3.771  1.00  0.00     0.045 C 
ENDBRANCH  16  17
ENDBRANCH  15  16
ENDBRANCH  13  15
ENDBRANCH   4  13
TORSDOF 8
ENDMDL
MODEL 3
REMARK VINA RESULT:    -4.984      1.382      2.213
REMARK INTER + INTRA:          -7.787
REMARK INTER:                  -7.113
REMARK INTRA:                  -0.674
REMARK UNBOUND:                -0.618
REMARK SMILES Cc1ccncc1/C=C/Nc1ccc(CCCN)cc1
REMARK SMILES IDX 14 1 13 2 12 3 11 4 20 5 19 6 15 7 16 8 17 9 18 10 10 13
REMARK SMILES IDX 9 15 8 16 7 17 2 18 6 19 3 20 5 21 4 22 1 23
REMARK H PARENT 18 11 18 12 10 14
ROOT
ATOM      1  C   UNL     1      12.852   6.419   6.316  1.00  0.00    -0.048 A 
ATOM      2  C   UNL     1      13.818   5.930   5.434  1.00  0.00     0.006 A 
ATOM      3  C   UNL     1      13.457   5.105   4.372  1.00  0.00     0.026 A 
ATOM      4  C   UNL     1      12.140   4.674   4.194  1.00  0.00     0.038 A 
ATOM      5  C   UNL     1      11.180   5.118   5.111  1.00  0.00     0.026 A 
ATOM      6  C   UNL     1      11.531   5.981   6.160  1.00  0.00     0.006 A 
ENDROOT
BRANCH   1   7
ATOM      7  C   UNL     1      13.214   7.394   7.408  1.00  0.00     0.037 C 
BRANCH   7   8
ATOM      8  C   UNL     1      14.132   6.867   8.529  1.00  0.00     0.020 C 
BRANCH   8   9
ATOM      9  C   UNL     1      13.459   5.983   9.589  1.00  0.00     0.078 C 
BRANCH   9  10
ATOM     10  N   UNL     1      14.207   4.789   9.959  1.00  0.00    -0.330 NA
ATOM     11  H   UNL     1      15.186   4.896   9.698  1.00  0.00     0.118 HD
ATOM     12  H   UNL     1      13.869   3.985   9.429  1.00  0.00     0.118 HD
ENDBRANCH   9  10
ENDBRANCH   8   9
ENDBRANCH   7   8
ENDBRANCH   1   7
BRANCH   4  13
ATOM     13  N   UNL     1      11.790   3.746   3.195  1.00  0.00    -0.362 N 
ATOM     14  H   UNL     1      12.533   3.156   2.842  1.00  0.00     0.166 HD
BRANCH  13  15
ATOM     15  C   UNL     1      10.611   3.756   2.497  1.00  0.00     0.083 C 
BRANCH  15  16
ATOM     16  C   UNL     1       9.669   2.807   2.414  1.00  0.00     0.027 C 
BRANCH  16  17
ATOM     17  C   UNL     1       8.303   3.127   1.973  1.00  0.00    -0.003 A 
ATOM     18  C   UNL     1       7.164   2.604   2.610  1.00  0.00    -0.041 A 
ATOM     19  C   UNL     1       8.080   3.950   0.859  1.00  0.00     0.119 A 
ATOM     20  C   UNL     1       5.897   2.941   2.110  1.00  0.00     0.024 A 
ATOM     21  N   UNL     1       6.865   4.299   0.374  1.00  0.00    -0.264 NA
ATOM     22  C   UNL     1       5.800   3.787   1.016  1.00  0.00     0.111 A 
ATOM     23  C   UNL     1       7.256   1.667   3.782  1.00  0.00     0.045 C 
ENDBRANCH  16  17
ENDBRANCH  15  16
ENDBRANCH  13  15
ENDBRANCH   4  13
TORSDOF 8
ENDMDL
MODEL 4
REMARK VINA RESULT:    -4.874      1.985      8.518
REMARK INTER + INTRA:          -7.629
REMARK INTER:                  -7.141
REMARK INTRA:                  -0.488
REMARK UNBOUND:                -0.618
REMARK SMILES Cc1ccncc1/C=C/Nc1ccc(CCCN)cc1
REMARK SMILES IDX 14 1 13 2 12 3 11 4 20 5 19 6 15 7 16 8 17 9 18 10 10 13
REMARK SMILES IDX 9 15 8 16 7 17 2 18 6 19 3 20 5 21 4 22 1 23
REMARK H PARENT 18 11 18 12 10 14
ROOT
ATOM      1  C   UNL     1       8.046   2.706   1.528  1.00  0.00    -0.048 A 
ATOM      2  C   UNL     1       8.981   3.587   0.981  1.00  0.00     0.006 A 
ATOM      3  C   UNL     1      10.235   3.745   1.563  1.00  0.00     0.026 A 
ATOM      4  C   UNL     1      10.577   3.094   2.751  1.00  0.00     0.038 A 
ATOM      5  C   UNL     1       9.620   2.254   3.333  1.00  0.00     0.026 A 
ATOM      6  C   UNL     1       8.368   2.062   2.729  1.00  0.00     0.006 A 
ENDROOT
BRANCH   1   7
ATOM      7  C   UNL     1       6.723   2.451   0.850  1.00  0.00     0.037 C 
BRANCH   7   8
ATOM      8  C   UNL     1       5.527   3.299   1.325  1.00  0.00     0.020 C 
BRANCH   8   9
ATOM      9  C   UNL     1       5.630   4.810   1.069  1.00  0.00     0.078 C 
BRANCH   9  10
ATOM     10  N   UNL     1       5.170   5.245  -0.242  1.00  0.00    -0.330 NA
ATOM     11  H   UNL     1       5.120   4.449  -0.876  1.00  0.00     0.118 HD
ATOM     12  H   UNL     1       5.847   5.884  -0.658  1.00  0.00     0.118 HD
ENDBRANCH   9  10
ENDBRANCH   8   9
ENDBRANCH   7   8
ENDBRANCH   1   7
BRANCH   4  13
ATOM     13  N   UNL     1      11.797   3.340   3.410  1.00  0.00    -0.362 N 
ATOM     14  H   UNL     1      12.542   2.673   3.251  1.00  0.00     0.166 HD
BRANCH  13  15
ATOM     15  C   UNL     1      11.970   4.242   4.426  1.00  0.00     0.083 C 
BRANCH  15  16
ATOM     16  C   UNL     1      12.470   5.484   4.379  1.00  0.00     0.027 C 
BRANCH  16  17
ATOM     17  C   UNL     1      13.049   6.118   5.573  1.00  0.00    -0.003 A 
ATOM     18  C   UNL     1      14.437   6.241   5.763  1.00  0.00    -0.041 A 
ATOM     19  C   UNL     1      12.227   6.599   6.603  1.00  0.00     0.119 A 
ATOM     20  C   UNL     1      14.905   6.838   6.944  1.00  0.00     0.024 A 
ATOM     21  N   UNL     1      12.661   7.194   7.739  1.00  0.00    -0.264 NA
ATOM     22  C   UNL     1      13.994   7.302   7.879  1.00  0.00     0.111 A 
ATOM     23  C   UNL     1      15.435   5.721   4.767  1.00  0.00     0.045 C 
ENDBRANCH  16  17
ENDBRANCH  15  16
ENDBRANCH  13  15
ENDBRANCH   4  13
TORSDOF 8
ENDMDL
MODEL 5
REMARK VINA RESULT:    -4.786      1.607      8.669
REMARK INTER + INTRA:          -7.503
REMARK INTER:                  -6.899
REMARK INTRA:                  -0.604
REMARK UNBOUND:                -0.618
REMARK SMILES Cc1ccncc1/C=C/Nc1ccc(CCCN)cc1
REMARK SMILES IDX 14 1 13 2 12 3 11 4 20 5 19 6 15 7 16 8 17 9 18 10 10 13
REMARK SMILES IDX 9 15 8 16 7 17 2 18 6 19 3 20 5 21 4 22 1 23
REMARK H PARENT 18 11 18 12 10 14
ROOT
ATOM      1  C   UNL     1       9.120   2.248   2.523  1.00  0.00    -0.048 A 
ATOM      2  C   UNL     1       9.647   3.419   1.976  1.00  0.00     0.006 A 
ATOM      3  C   UNL     1      10.700   4.083   2.598  1.00  0.00     0.026 A 
ATOM      4  C   UNL     1      11.215   3.652   3.823  1.00  0.00     0.038 A 
ATOM      5  C   UNL     1      10.650   2.509   4.402  1.00  0.00     0.026 A 
ATOM      6  C   UNL     1       9.613   1.814   3.759  1.00  0.00     0.006 A 
ENDROOT
BRANCH   1   7
ATOM      7  C   UNL     1       8.048   1.465   1.806  1.00  0.00     0.037 C 
BRANCH   7   8
ATOM      8  C   UNL     1       6.891   0.927   2.669  1.00  0.00     0.020 C 
BRANCH   8   9
ATOM      9  C   UNL     1       5.823   0.109   1.929  1.00  0.00     0.078 C 
BRANCH   9  10
ATOM     10  N   UNL     1       5.046  -0.792   2.769  1.00  0.00    -0.330 NA
ATOM     11  H   UNL     1       4.662  -1.550   2.205  1.00  0.00     0.118 HD
ATOM     12  H   UNL     1       4.238  -0.303   3.156  1.00  0.00     0.118 HD
ENDBRANCH   9  10
ENDBRANCH   8   9
ENDBRANCH   7   8
ENDBRANCH   1   7
BRANCH   4  13
ATOM     13  N   UNL     1      12.198   4.384   4.517  1.00  0.00    -0.362 N 
ATOM     14  H   UNL     1      12.998   3.864   4.854  1.00  0.00     0.166 HD
BRANCH  13  15
ATOM     15  C   UNL     1      12.037   5.661   4.986  1.00  0.00     0.083 C 
BRANCH  15  16
ATOM     16  C   UNL     1      11.933   6.090   6.251  1.00  0.00     0.027 C 
BRANCH  16  17
ATOM     17  C   UNL     1      13.122   6.487   7.020  1.00  0.00    -0.003 A 
ATOM     18  C   UNL     1      13.197   6.348   8.417  1.00  0.00    -0.041 A 
ATOM     19  C   UNL     1      14.231   7.065   6.384  1.00  0.00     0.119 A 
ATOM     20  C   UNL     1      14.360   6.775   9.076  1.00  0.00     0.024 A 
ATOM     21  N   UNL     1      15.367   7.465   7.001  1.00  0.00    -0.264 NA
ATOM     22  C   UNL     1      15.405   7.307   8.336  1.00  0.00     0.111 A 
ATOM     23  C   UNL     1      12.062   5.795   9.233  1.00  0.00     0.045 C 
ENDBRANCH  16  17
ENDBRANCH  15  16
ENDBRANCH  13  15
ENDBRANCH   4  13
TORSDOF 8
ENDMDL
MODEL 6
REMARK VINA RESULT:    -4.780      1.593      8.663
REMARK INTER + INTRA:          -7.494
REMARK INTER:                  -6.963
REMARK INTRA:                  -0.531
REMARK UNBOUND:                -0.618
REMARK SMILES Cc1ccncc1/C=C/Nc1ccc(CCCN)cc1
REMARK SMILES IDX 14 1 13 2 12 3 11 4 20 5 19 6 15 7 16 8 17 9 18 10 10 13
REMARK SMILES IDX 9 15 8 16 7 17 2 18 6 19 3 20 5 21 4 22 1 23
REMARK H PARENT 18 11 18 12 10 14
ROOT
ATOM      1  C   UNL     1       8.384   2.258   2.097  1.00  0.00    -0.048 A 
ATOM      2  C   UNL     1       9.113   3.285   1.492  1.00  0.00     0.006 A 
ATOM      3  C   UNL     1      10.322   3.712   2.033  1.00  0.00     0.026 A 
ATOM      4  C   UNL     1      10.812   3.191   3.233  1.00  0.00     0.038 A 
ATOM      5  C   UNL     1      10.054   2.201   3.871  1.00  0.00     0.026 A 
ATOM      6  C   UNL     1       8.854   1.740   3.310  1.00  0.00     0.006 A 
ENDROOT
BRANCH   1   7
ATOM      7  C   UNL     1       7.126   1.718   1.466  1.00  0.00     0.037 C 
BRANCH   7   8
ATOM      8  C   UNL     1       6.081   1.107   2.420  1.00  0.00     0.020 C 
BRANCH   8   9
ATOM      9  C   UNL     1       5.856  -0.407   2.292  1.00  0.00     0.078 C 
BRANCH   9  10
ATOM     10  N   UNL     1       4.915  -0.804   1.255  1.00  0.00    -0.330 NA
ATOM     11  H   UNL     1       5.377  -1.412   0.580  1.00  0.00     0.118 HD
ATOM     12  H   UNL     1       4.612   0.013   0.724  1.00  0.00     0.118 HD
ENDBRANCH   9  10
ENDBRANCH   8   9
ENDBRANCH   7   8
ENDBRANCH   1   7
BRANCH   4  13
ATOM     13  N   UNL     1      11.972   3.701   3.848  1.00  0.00    -0.362 N 
ATOM     14  H   UNL     1      12.771   3.081   3.894  1.00  0.00     0.166 HD
BRANCH  13  15
ATOM     15  C   UNL     1      12.020   4.845   4.599  1.00  0.00     0.083 C 
BRANCH  15  16
ATOM     16  C   UNL     1      12.946   5.813   4.606  1.00  0.00     0.027 C 
BRANCH  16  17
ATOM     17  C   UNL     1      13.494   6.335   5.868  1.00  0.00    -0.003 A 
ATOM     18  C   UNL     1      14.873   6.365   6.137  1.00  0.00    -0.041 A 
ATOM     19  C   UNL     1      12.644   6.795   6.885  1.00  0.00     0.119 A 
ATOM     20  C   UNL     1      15.308   6.857   7.376  1.00  0.00     0.024 A 
ATOM     21  N   UNL     1      13.047   7.289   8.079  1.00  0.00    -0.264 NA
ATOM     22  C   UNL     1      14.374   7.311   8.294  1.00  0.00     0.111 A 
ATOM     23  C   UNL     1      15.894   5.854   5.159  1.00  0.00     0.045 C 
ENDBRANCH  16  17
ENDBRANCH  15  16
ENDBRANCH  13  15
ENDBRANCH   4  13
TORSDOF 8
ENDMDL
MODEL 7
REMARK VINA RESULT:    -4.735      2.111      3.292
REMARK INTER + INTRA:          -7.429
REMARK INTER:                  -6.632
REMARK INTRA:                  -0.797
REMARK UNBOUND:                -0.618
REMARK SMILES Cc1ccncc1/C=C/Nc1ccc(CCCN)cc1
REMARK SMILES IDX 14 1 13 2 12 3 11 4 20 5 19 6 15 7 16 8 17 9 18 10 10 13
REMARK SMILES IDX 9 15 8 16 7 17 2 18 6 19 3 20 5 21 4 22 1 23
REMARK H PARENT 18 11 18 12 10 14
ROOT
ATOM      1  C   UNL     1      12.555   5.034   4.436  1.00  0.00    -0.048 A 
ATOM      2  C   UNL     1      12.945   3.754   4.036  1.00  0.00     0.006 A 
ATOM      3  C   UNL     1      12.025   2.873   3.477  1.00  0.00     0.026 A 
ATOM      4  C   UNL     1      10.671   3.201   3.366  1.00  0.00     0.038 A 
ATOM      5  C   UNL     1      10.268   4.463   3.818  1.00  0.00     0.026 A 
ATOM      6  C   UNL     1      11.199   5.370   4.348  1.00  0.00     0.006 A 
ENDROOT
BRANCH   1   7
ATOM      7  C   UNL     1      13.562   6.033   4.949  1.00  0.00     0.037 C 
BRANCH   7   8
ATOM      8  C   UNL     1      13.354   6.549   6.386  1.00  0.00     0.020 C 
BRANCH   8   9
ATOM      9  C   UNL     1      14.590   7.150   7.071  1.00  0.00     0.078 C 
BRANCH   9  10
ATOM     10  N   UNL     1      14.509   8.578   7.344  1.00  0.00    -0.330 NA
ATOM     11  H   UNL     1      14.335   9.089   6.479  1.00  0.00     0.118 HD
ATOM     12  H   UNL     1      15.405   8.921   7.689  1.00  0.00     0.118 HD
ENDBRANCH   9  10
ENDBRANCH   8   9
ENDBRANCH   7   8
ENDBRANCH   1   7
BRANCH   4  13
ATOM     13  N   UNL     1       9.715   2.272   2.912  1.00  0.00    -0.362 N 
ATOM     14  H   UNL     1       9.406   2.370   1.953  1.00  0.00     0.166 HD
BRANCH  13  15
ATOM     15  C   UNL     1       8.996   1.431   3.720  1.00  0.00     0.083 C 
BRANCH  15  16
ATOM     16  C   UNL     1       7.688   1.449   4.007  1.00  0.00     0.027 C 
BRANCH  16  17
ATOM     17  C   UNL     1       6.674   1.296   2.952  1.00  0.00    -0.003 A 
ATOM     18  C   UNL     1       6.050   2.399   2.342  1.00  0.00    -0.041 A 
ATOM     19  C   UNL     1       6.257   0.024   2.533  1.00  0.00     0.119 A 
ATOM     20  C   UNL     1       5.076   2.163   1.360  1.00  0.00     0.024 A 
ATOM     21  N   UNL     1       5.332  -0.221   1.576  1.00  0.00    -0.264 NA
ATOM     22  C   UNL     1       4.765   0.858   1.009  1.00  0.00     0.111 A 
ATOM     23  C   UNL     1       6.361   3.817   2.730  1.00  0.00     0.045 C 
ENDBRANCH  16  17
ENDBRANCH  15  16
ENDBRANCH  13  15
ENDBRANCH   4  13
TORSDOF 8
ENDMDL
MODEL 8
REMARK VINA RESULT:    -4.729      1.903      3.313
REMARK INTER + INTRA:          -7.420
REMARK INTER:                  -6.698
REMARK INTRA:                  -0.722
REMARK UNBOUND:                -0.618
REMARK SMILES Cc1ccncc1/C=C/Nc1ccc(CCCN)cc1
REMARK SMILES IDX 14 1 13 2 12 3 11 4 20 5 19 6 15 7 16 8 17 9 18 10 10 13
REMARK SMILES IDX 9 15 8 16 7 17 2 18 6 19 3 20 5 21 4 22 1 23
REMARK H PARENT 18 11 18 12 10 14
ROOT
ATOM      1  C   UNL     1      12.557   4.990   4.568  1.00  0.00    -0.048 A 
ATOM      2  C   UNL     1      13.210   3.823   4.166  1.00  0.00     0.006 A 
ATOM      3  C   UNL     1      12.539   2.852   3.426  1.00  0.00     0.026 A 
ATOM      4  C   UNL     1      11.180   2.970   3.127  1.00  0.00     0.038 A 
ATOM      5  C   UNL     1      10.510   4.113   3.579  1.00  0.00     0.026 A 
ATOM      6  C   UNL     1      11.190   5.112   4.291  1.00  0.00     0.006 A 
ENDROOT
BRANCH   1   7
ATOM      7  C   UNL     1      13.299   6.092   5.281  1.00  0.00     0.037 C 
BRANCH   7   8
ATOM      8  C   UNL     1      12.735   6.534   6.646  1.00  0.00     0.020 C 
BRANCH   8   9
ATOM      9  C   UNL     1      13.772   6.950   7.700  1.00  0.00     0.078 C 
BRANCH   9  10
ATOM     10  N   UNL     1      14.262   5.868   8.541  1.00  0.00    -0.330 NA
ATOM     11  H   UNL     1      13.826   4.989   8.268  1.00  0.00     0.118 HD
ATOM     12  H   UNL     1      13.983   6.022   9.510  1.00  0.00     0.118 HD
ENDBRANCH   9  10
ENDBRANCH   8   9
ENDBRANCH   7   8
ENDBRANCH   1   7
BRANCH   4  13
ATOM     13  N   UNL     1      10.467   1.939   2.484  1.00  0.00    -0.362 N 
ATOM     14  H   UNL     1      10.989   1.364   1.834  1.00  0.00     0.166 HD
BRANCH  13  15
ATOM     15  C   UNL     1       9.103   1.821   2.471  1.00  0.00     0.083 C 
BRANCH  15  16
ATOM     16  C   UNL     1       8.272   1.722   1.425  1.00  0.00     0.027 C 
BRANCH  16  17
ATOM     17  C   UNL     1       7.215   2.718   1.195  1.00  0.00    -0.003 A 
ATOM     18  C   UNL     1       5.854   2.436   1.409  1.00  0.00    -0.041 A 
ATOM     19  C   UNL     1       7.524   3.997   0.708  1.00  0.00     0.119 A 
ATOM     20  C   UNL     1       4.908   3.437   1.141  1.00  0.00     0.024 A 
ATOM     21  N   UNL     1       6.627   4.979   0.461  1.00  0.00    -0.264 NA
ATOM     22  C   UNL     1       5.337   4.675   0.688  1.00  0.00     0.111 A 
ATOM     23  C   UNL     1       5.375   1.091   1.878  1.00  0.00     0.045 C 
ENDBRANCH  16  17
ENDBRANCH  15  16
ENDBRANCH  13  15
ENDBRANCH   4  13
TORSDOF 8
ENDMDL
MODEL 9
REMARK VINA RESULT:    -4.569      2.027      8.108
REMARK INTER + INTRA:          -7.190
REMARK INTER:                  -6.366
REMARK INTRA:                  -0.824
REMARK UNBOUND:                -0.618
REMARK SMILES Cc1ccncc1/C=C/Nc1ccc(CCCN)cc1
REMARK SMILES IDX 14 1 13 2 12 3 11 4 20 5 19 6 15 7 16 8 17 9 18 10 10 13
REMARK SMILES IDX 9 15 8 16 7 17 2 18 6 19 3 20 5 21 4 22 1 23
REMARK H PARENT 18 11 18 12 10 14
ROOT
ATOM      1  C   UNL     1       8.916   2.945   2.441  1.00  0.00    -0.048 A 
ATOM      2  C   UNL     1       9.366   2.165   3.508  1.00  0.00     0.006 A 
ATOM      3  C   UNL     1      10.702   2.198   3.899  1.00  0.00     0.026 A 
ATOM      4  C   UNL     1      11.651   2.945   3.197  1.00  0.00     0.038 A 
ATOM      5  C   UNL     1      11.212   3.684   2.092  1.00  0.00     0.026 A 
ATOM      6  C   UNL     1       9.860   3.684   1.717  1.00  0.00     0.006 A 
ENDROOT
BRANCH   1   7
ATOM      7  C   UNL     1       7.454   2.995   2.072  1.00  0.00     0.037 C 
BRANCH   7   8
ATOM      8  C   UNL     1       7.072   3.893   0.880  1.00  0.00     0.020 C 
BRANCH   8   9
ATOM      9  C   UNL     1       5.780   4.709   1.039  1.00  0.00     0.078 C 
BRANCH   9  10
ATOM     10  N   UNL     1       5.215   5.214  -0.204  1.00  0.00    -0.330 NA
ATOM     11  H   UNL     1       4.469   5.879  -0.003  1.00  0.00     0.118 HD
ATOM     12  H   UNL     1       4.772   4.455  -0.723  1.00  0.00     0.118 HD
ENDBRANCH   9  10
ENDBRANCH   8   9
ENDBRANCH   7   8
ENDBRANCH   1   7
BRANCH   4  13
ATOM     13  N   UNL     1      13.022   2.890   3.513  1.00  0.00    -0.362 N 
ATOM     14  H   UNL     1      13.493   2.011   3.342  1.00  0.00     0.166 HD
BRANCH  13  15
ATOM     15  C   UNL     1      13.692   3.826   4.256  1.00  0.00     0.083 C 
BRANCH  15  16
ATOM     16  C   UNL     1      13.583   5.161   4.232  1.00  0.00     0.027 C 
BRANCH  16  17
ATOM     17  C   UNL     1      13.693   5.957   5.464  1.00  0.00    -0.003 A 
ATOM     18  C   UNL     1      12.568   6.353   6.208  1.00  0.00    -0.041 A 
ATOM     19  C   UNL     1      14.943   6.390   5.931  1.00  0.00     0.119 A 
ATOM     20  C   UNL     1      12.762   7.132   7.359  1.00  0.00     0.024 A 
ATOM     21  N   UNL     1      15.149   7.127   7.049  1.00  0.00    -0.264 NA
ATOM     22  C   UNL     1      14.049   7.477   7.739  1.00  0.00     0.111 A 
ATOM     23  C   UNL     1      11.166   6.005   5.794  1.00  0.00     0.045 C 
ENDBRANCH  16  17
ENDBRANCH  15  16
ENDBRANCH  13  15
ENDBRANCH   4  13
TORSDOF 8
ENDMDL
