MODEL 1
REMARK VINA RESULT:    -5.117      0.000      0.000
REMARK INTER + INTRA:          -7.994
REMARK INTER:                  -7.361
REMARK INTRA:                  -0.633
REMARK UNBOUND:                -0.633
REMARK SMILES Cc1ccncc1/C=C/Nc1ccc(CCCN)cc1
REMARK SMILES IDX 14 1 13 2 12 3 11 4 20 5 19 6 15 7 16 8 17 9 18 10 10 13
REMARK SMILES IDX 9 15 8 16 7 17 2 18 6 19 3 20 5 21 4 22 1 23
REMARK H PARENT 18 11 18 12 10 14
ROOT
ATOM      1  C   UNL     1       5.731  16.161  -2.757  1.00  0.00    -0.048 A 
ATOM      2  C   UNL     1       5.140  15.116  -2.045  1.00  0.00     0.006 A 
ATOM      3  C   UNL     1       5.140  13.820  -2.554  1.00  0.00     0.026 A 
ATOM      4  C   UNL     1       5.655  13.531  -3.820  1.00  0.00     0.038 A 
ATOM      5  C   UNL     1       6.197  14.589  -4.560  1.00  0.00     0.026 A 
ATOM      6  C   UNL     1       6.235  15.890  -4.035  1.00  0.00     0.006 A 
ENDROOT
BRANCH   1   7
ATOM      7  C   UNL     1       5.827  17.548  -2.172  1.00  0.00     0.037 C 
BRANCH   7   8
ATOM      8  C   UNL     1       6.587  17.685  -0.838  1.00  0.00     0.020 C 
BRANCH   8   9
ATOM      9  C   UNL     1       8.030  18.201  -0.935  1.00  0.00     0.078 C 
BRANCH   9  10
ATOM     10  N   UNL     1       9.054  17.238  -0.559  1.00  0.00    -0.330 NA
ATOM     11  H   UNL     1       9.952  17.511  -0.956  1.00  0.00     0.118 HD
ATOM     12  H   UNL     1       8.843  16.325  -0.962  1.00  0.00     0.118 HD
ENDBRANCH   9  10
ENDBRANCH   8   9
ENDBRANCH   7   8
ENDBRANCH   1   7
BRANCH   4  13
ATOM     13  N   UNL     1       5.552  12.248  -4.391  1.00  0.00    -0.362 N 
ATOM     14  H   UNL     1       4.841  12.123  -5.101  1.00  0.00     0.166 HD
BRANCH  13  15
ATOM     15  C   UNL     1       6.145  11.119  -3.891  1.00  0.00     0.083 C 
BRANCH  15  16
ATOM     16  C   UNL     1       5.910   9.836  -4.195  1.00  0.00     0.027 C 
BRANCH  16  17
ATOM     17  C   UNL     1       5.622   8.845  -3.146  1.00  0.00    -0.003 A 
ATOM     18  C   UNL     1       4.778   7.741  -3.363  1.00  0.00    -0.041 A 
ATOM     19  C   UNL     1       6.157   8.986  -1.857  1.00  0.00     0.119 A 
ATOM     20  C   UNL     1       4.538   6.858  -2.300  1.00  0.00     0.024 A 
ATOM     21  N   UNL     1       5.950   8.134  -0.825  1.00  0.00    -0.264 NA
ATOM     22  C   UNL     1       5.146   7.085  -1.075  1.00  0.00     0.111 A 
ATOM     23  C   UNL     1       4.095   7.497  -4.679  1.00  0.00     0.045 C 
ENDBRANCH  16  17
ENDBRANCH  15  16
ENDBRANCH  13  15
ENDBRANCH   4  13
TORSDOF 8
ENDMDL
MODEL 2
REMARK VINA RESULT:    -5.087      1.910      8.648
REMARK INTER + INTRA:          -7.950
REMARK INTER:                  -7.360
REMARK INTRA:                  -0.591
REMARK UNBOUND:                -0.633
REMARK SMILES Cc1ccncc1/C=C/Nc1ccc(CCCN)cc1
REMARK SMILES IDX 14 1 13 2 12 3 11 4 20 5 19 6 15 7 16 8 17 9 18 10 10 13
REMARK SMILES IDX 9 15 8 16 7 17 2 18 6 19 3 20 5 21 4 22 1 23
REMARK H PARENT 18 11 18 12 10 14
ROOT
ATOM      1  C   UNL     1       5.686   7.996  -2.887  1.00  0.00    -0.048 A 
ATOM      2  C   UNL     1       5.221   8.656  -4.027  1.00  0.00     0.006 A 
ATOM      3  C   UNL     1       5.610   9.964  -4.298  1.00  0.00     0.026 A 
ATOM      4  C   UNL     1       6.411  10.689  -3.411  1.00  0.00     0.038 A 
ATOM      5  C   UNL     1       6.831  10.047  -2.240  1.00  0.00     0.026 A 
ATOM      6  C   UNL     1       6.473   8.715  -1.980  1.00  0.00     0.006 A 
ENDROOT
BRANCH   1   7
ATOM      7  C   UNL     1       5.352   6.546  -2.635  1.00  0.00     0.037 C 
BRANCH   7   8
ATOM      8  C   UNL     1       4.960   6.168  -1.193  1.00  0.00     0.020 C 
BRANCH   8   9
ATOM      9  C   UNL     1       5.834   5.103  -0.515  1.00  0.00     0.078 C 
BRANCH   9  10
ATOM     10  N   UNL     1       5.421   3.727  -0.752  1.00  0.00    -0.330 NA
ATOM     11  H   UNL     1       4.407   3.651  -0.688  1.00  0.00     0.118 HD
ATOM     12  H   UNL     1       5.787   3.119  -0.018  1.00  0.00     0.118 HD
ENDBRANCH   9  10
ENDBRANCH   8   9
ENDBRANCH   7   8
ENDBRANCH   1   7
BRANCH   4  13
ATOM     13  N   UNL     1       6.710  12.049  -3.620  1.00  0.00    -0.362 N 
ATOM     14  H   UNL     1       7.653  12.345  -3.398  1.00  0.00     0.166 HD
BRANCH  13  15
ATOM     15  C   UNL     1       5.781  13.029  -3.846  1.00  0.00     0.083 C 
BRANCH  15  16
ATOM     16  C   UNL     1       5.444  14.070  -3.072  1.00  0.00     0.027 C 
BRANCH  16  17
ATOM     17  C   UNL     1       5.850  15.440  -3.419  1.00  0.00    -0.003 A 
ATOM     18  C   UNL     1       5.952  16.462  -2.460  1.00  0.00    -0.041 A 
ATOM     19  C   UNL     1       6.118  15.796  -4.750  1.00  0.00     0.119 A 
ATOM     20  C   UNL     1       6.322  17.748  -2.882  1.00  0.00     0.024 A 
ATOM     21  N   UNL     1       6.493  17.026  -5.172  1.00  0.00    -0.264 NA
ATOM     22  C   UNL     1       6.589  17.974  -4.223  1.00  0.00     0.111 A 
ATOM     23  C   UNL     1       5.642  16.236  -1.007  1.00  0.00     0.045 C 
ENDBRANCH  16  17
ENDBRANCH  15  16
ENDBRANCH  13  15
ENDBRANCH   4  13
TORSDOF 8
ENDMDL
MODEL 3
REMARK VINA RESULT:    -5.007      4.810      6.797
REMARK INTER + INTRA:          -7.835
REMARK INTER:                  -7.167
REMARK INTRA:                  -0.668
REMARK UNBOUND:                -0.633
REMARK SMILES Cc1ccncc1/C=C/Nc1ccc(CCCN)cc1
REMARK SMILES IDX 14 1 13 2 12 3 11 4 20 5 19 6 15 7 16 8 17 9 18 10 10 13
REMARK SMILES IDX 9 15 8 16 7 17 2 18 6 19 3 20 5 21 4 22 1 23
REMARK H PARENT 18 11 18 12 10 14
ROOT
ATOM      1  C   UNL     1      11.789  10.431  -6.236  1.00  0.00    -0.048 A 
ATOM      2  C   UNL     1      11.787  11.383  -5.214  1.00  0.00     0.006 A 
ATOM      3  C   UNL     1      10.932  11.252  -4.123  1.00  0.00     0.026 A 
ATOM      4  C   UNL     1       9.997  10.216  -4.046  1.00  0.00     0.038 A 
ATOM      5  C   UNL     1       9.959   9.294  -5.098  1.00  0.00     0.026 A 
ATOM      6  C   UNL     1      10.845   9.399  -6.182  1.00  0.00     0.006 A 
ENDROOT
BRANCH   1   7
ATOM      7  C   UNL     1      12.779  10.508  -7.371  1.00  0.00     0.037 C 
BRANCH   7   8
ATOM      8  C   UNL     1      12.196  10.533  -8.797  1.00  0.00     0.020 C 
BRANCH   8   9
ATOM      9  C   UNL     1      12.343  11.857  -9.562  1.00  0.00     0.078 C 
BRANCH   9  10
ATOM     10  N   UNL     1      11.198  12.751  -9.469  1.00  0.00    -0.330 NA
ATOM     11  H   UNL     1      10.353  12.269  -9.772  1.00  0.00     0.118 HD
ATOM     12  H   UNL     1      11.311  13.535 -10.113  1.00  0.00     0.118 HD
ENDBRANCH   9  10
ENDBRANCH   8   9
ENDBRANCH   7   8
ENDBRANCH   1   7
BRANCH   4  13
ATOM     13  N   UNL     1       9.050  10.145  -3.007  1.00  0.00    -0.362 N 
ATOM     14  H   UNL     1       9.400   9.898  -2.090  1.00  0.00     0.166 HD
BRANCH  13  15
ATOM     15  C   UNL     1       7.692  10.127  -3.186  1.00  0.00     0.083 C 
BRANCH  15  16
ATOM     16  C   UNL     1       6.740   9.632  -2.384  1.00  0.00     0.027 C 
BRANCH  16  17
ATOM     17  C   UNL     1       5.651   8.799  -2.917  1.00  0.00    -0.003 A 
ATOM     18  C   UNL     1       4.942   7.884  -2.119  1.00  0.00    -0.041 A 
ATOM     19  C   UNL     1       5.299   8.858  -4.274  1.00  0.00     0.119 A 
ATOM     20  C   UNL     1       3.934   7.111  -2.715  1.00  0.00     0.024 A 
ATOM     21  N   UNL     1       4.318   8.133  -4.861  1.00  0.00    -0.264 NA
ATOM     22  C   UNL     1       3.655   7.277  -4.063  1.00  0.00     0.111 A 
ATOM     23  C   UNL     1       5.250   7.678  -0.663  1.00  0.00     0.045 C 
ENDBRANCH  16  17
ENDBRANCH  15  16
ENDBRANCH  13  15
ENDBRANCH   4  13
TORSDOF 8
ENDMDL
MODEL 4
REMARK VINA RESULT:    -5.005      2.043      8.512
REMARK INTER + INTRA:          -7.833
REMARK INTER:                  -7.245
REMARK INTRA:                  -0.588
REMARK UNBOUND:                -0.633
REMARK SMILES Cc1ccncc1/C=C/Nc1ccc(CCCN)cc1
REMARK SMILES IDX 14 1 13 2 12 3 11 4 20 5 19 6 15 7 16 8 17 9 18 10 10 13
REMARK SMILES IDX 9 15 8 16 7 17 2 18 6 19 3 20 5 21 4 22 1 23
REMARK H PARENT 18 11 18 12 10 14
ROOT
ATOM      1  C   UNL     1       5.020   7.705  -3.454  1.00  0.00    -0.048 A 
ATOM      2  C   UNL     1       4.911   8.502  -4.596  1.00  0.00     0.006 A 
ATOM      3  C   UNL     1       5.582   9.719  -4.679  1.00  0.00     0.026 A 
ATOM      4  C   UNL     1       6.321  10.222  -3.606  1.00  0.00     0.038 A 
ATOM      5  C   UNL     1       6.385   9.450  -2.440  1.00  0.00     0.026 A 
ATOM      6  C   UNL     1       5.742   8.206  -2.364  1.00  0.00     0.006 A 
ENDROOT
BRANCH   1   7
ATOM      7  C   UNL     1       4.380   6.340  -3.391  1.00  0.00     0.037 C 
BRANCH   7   8
ATOM      8  C   UNL     1       3.090   6.219  -2.557  1.00  0.00     0.020 C 
BRANCH   8   9
ATOM      9  C   UNL     1       1.869   6.982  -3.091  1.00  0.00     0.078 C 
BRANCH   9  10
ATOM     10  N   UNL     1       1.164   6.327  -4.184  1.00  0.00    -0.330 NA
ATOM     11  H   UNL     1       1.479   5.362  -4.273  1.00  0.00     0.118 HD
ATOM     12  H   UNL     1       1.398   6.773  -5.071  1.00  0.00     0.118 HD
ENDBRANCH   9  10
ENDBRANCH   8   9
ENDBRANCH   7   8
ENDBRANCH   1   7
BRANCH   4  13
ATOM     13  N   UNL     1       6.903  11.504  -3.640  1.00  0.00    -0.362 N 
ATOM     14  H   UNL     1       7.914  11.543  -3.654  1.00  0.00     0.166 HD
BRANCH  13  15
ATOM     15  C   UNL     1       6.233  12.674  -3.399  1.00  0.00     0.083 C 
BRANCH  15  16
ATOM     16  C   UNL     1       6.003  13.703  -4.225  1.00  0.00     0.027 C 
BRANCH  16  17
ATOM     17  C   UNL     1       5.856  15.074  -3.713  1.00  0.00    -0.003 A 
ATOM     18  C   UNL     1       6.267  16.201  -4.447  1.00  0.00    -0.041 A 
ATOM     19  C   UNL     1       5.325  15.312  -2.437  1.00  0.00     0.119 A 
ATOM     20  C   UNL     1       6.112  17.472  -3.873  1.00  0.00     0.024 A 
ATOM     21  N   UNL     1       5.152  16.532  -1.875  1.00  0.00    -0.264 NA
ATOM     22  C   UNL     1       5.548  17.585  -2.611  1.00  0.00     0.111 A 
ATOM     23  C   UNL     1       6.901  16.090  -5.805  1.00  0.00     0.045 C 
ENDBRANCH  16  17
ENDBRANCH  15  16
ENDBRANCH  13  15
ENDBRANCH   4  13
TORSDOF 8
ENDMDL
MODEL 5
REMARK VINA RESULT:    -4.995      1.742      8.547
REMARK INTER + INTRA:          -7.818
REMARK INTER:                  -7.260
REMARK INTRA:                  -0.558
REMARK UNBOUND:                -0.633
REMARK SMILES Cc1ccncc1/C=C/Nc1ccc(CCCN)cc1
REMARK SMILES IDX 14 1 13 2 12 3 11 4 20 5 19 6 15 7 16 8 17 9 18 10 10 13
REMARK SMILES IDX 9 15 8 16 7 17 2 18 6 19 3 20 5 21 4 22 1 23
REMARK H PARENT 18 11 18 12 10 14
ROOT
ATOM      1  C   UNL     1       5.657   7.913  -2.762  1.00  0.00    -0.048 A 
ATOM      2  C   UNL     1       5.205   8.486  -3.952  1.00  0.00     0.006 A 
ATOM      3  C   UNL     1       5.635   9.752  -4.339  1.00  0.00     0.026 A 
ATOM      4  C   UNL     1       6.465  10.525  -3.522  1.00  0.00     0.038 A 
ATOM      5  C   UNL     1       6.873   9.974  -2.302  1.00  0.00     0.026 A 
ATOM      6  C   UNL     1       6.474   8.683  -1.925  1.00  0.00     0.006 A 
ENDROOT
BRANCH   1   7
ATOM      7  C   UNL     1       5.279   6.503  -2.382  1.00  0.00     0.037 C 
BRANCH   7   8
ATOM      8  C   UNL     1       5.195   6.192  -0.875  1.00  0.00     0.020 C 
BRANCH   8   9
ATOM      9  C   UNL     1       5.906   4.911  -0.412  1.00  0.00     0.078 C 
BRANCH   9  10
ATOM     10  N   UNL     1       5.293   3.670  -0.862  1.00  0.00    -0.330 NA
ATOM     11  H   UNL     1       4.709   3.846  -1.680  1.00  0.00     0.118 HD
ATOM     12  H   UNL     1       4.660   3.310  -0.147  1.00  0.00     0.118 HD
ENDBRANCH   9  10
ENDBRANCH   8   9
ENDBRANCH   7   8
ENDBRANCH   1   7
BRANCH   4  13
ATOM     13  N   UNL     1       6.807  11.851  -3.850  1.00  0.00    -0.362 N 
ATOM     14  H   UNL     1       7.707  11.991  -4.293  1.00  0.00     0.166 HD
BRANCH  13  15
ATOM     15  C   UNL     1       6.151  12.964  -3.395  1.00  0.00     0.083 C 
BRANCH  15  16
ATOM     16  C   UNL     1       5.626  13.980  -4.092  1.00  0.00     0.027 C 
BRANCH  16  17
ATOM     17  C   UNL     1       5.737  15.368  -3.617  1.00  0.00    -0.003 A 
ATOM     18  C   UNL     1       6.277  16.395  -4.411  1.00  0.00    -0.041 A 
ATOM     19  C   UNL     1       5.338  15.718  -2.319  1.00  0.00     0.119 A 
ATOM     20  C   UNL     1       6.368  17.687  -3.870  1.00  0.00     0.024 A 
ATOM     21  N   UNL     1       5.402  16.961  -1.788  1.00  0.00    -0.264 NA
ATOM     22  C   UNL     1       5.915  17.919  -2.581  1.00  0.00     0.111 A 
ATOM     23  C   UNL     1       6.793  16.151  -5.801  1.00  0.00     0.045 C 
ENDBRANCH  16  17
ENDBRANCH  15  16
ENDBRANCH  13  15
ENDBRANCH   4  13
TORSDOF 8
ENDMDL
MODEL 6
REMARK VINA RESULT:    -4.944      2.100      8.561
REMARK INTER + INTRA:          -7.745
REMARK INTER:                  -7.183
REMARK INTRA:                  -0.562
REMARK UNBOUND:                -0.633
REMARK SMILES Cc1ccncc1/C=C/Nc1ccc(CCCN)cc1
REMARK SMILES IDX 14 1 13 2 12 3 11 4 20 5 19 6 15 7 16 8 17 9 18 10 10 13
REMARK SMILES IDX 9 15 8 16 7 17 2 18 6 19 3 20 5 21 4 22 1 23
REMARK H PARENT 18 11 18 12 10 14
ROOT
ATOM      1  C   UNL     1       5.086   7.675  -3.255  1.00  0.00    -0.048 A 
ATOM      2  C   UNL     1       5.803   8.122  -2.144  1.00  0.00     0.006 A 
ATOM      3  C   UNL     1       6.365   9.395  -2.125  1.00  0.00     0.026 A 
ATOM      4  C   UNL     1       6.303  10.239  -3.237  1.00  0.00     0.038 A 
ATOM      5  C   UNL     1       5.632   9.771  -4.373  1.00  0.00     0.026 A 
ATOM      6  C   UNL     1       5.031   8.503  -4.384  1.00  0.00     0.006 A 
ENDROOT
BRANCH   1   7
ATOM      7  C   UNL     1       4.387   6.339  -3.248  1.00  0.00     0.037 C 
BRANCH   7   8
ATOM      8  C   UNL     1       3.013   6.280  -2.553  1.00  0.00     0.020 C 
BRANCH   8   9
ATOM      9  C   UNL     1       1.884   7.076  -3.224  1.00  0.00     0.078 C 
BRANCH   9  10
ATOM     10  N   UNL     1       1.082   6.322  -4.177  1.00  0.00    -0.330 NA
ATOM     11  H   UNL     1       1.112   5.329  -3.949  1.00  0.00     0.118 HD
ATOM     12  H   UNL     1       1.483   6.400  -5.112  1.00  0.00     0.118 HD
ENDBRANCH   9  10
ENDBRANCH   8   9
ENDBRANCH   7   8
ENDBRANCH   1   7
BRANCH   4  13
ATOM     13  N   UNL     1       6.970  11.478  -3.269  1.00  0.00    -0.362 N 
ATOM     14  H   UNL     1       7.721  11.607  -2.602  1.00  0.00     0.166 HD
BRANCH  13  15
ATOM     15  C   UNL     1       6.525  12.589  -3.936  1.00  0.00     0.083 C 
BRANCH  15  16
ATOM     16  C   UNL     1       5.735  13.578  -3.498  1.00  0.00     0.027 C 
BRANCH  16  17
ATOM     17  C   UNL     1       6.008  14.982  -3.843  1.00  0.00    -0.003 A 
ATOM     18  C   UNL     1       5.880  16.026  -2.911  1.00  0.00    -0.041 A 
ATOM     19  C   UNL     1       6.378  15.343  -5.148  1.00  0.00     0.119 A 
ATOM     20  C   UNL     1       6.137  17.340  -3.331  1.00  0.00     0.024 A 
ATOM     21  N   UNL     1       6.648  16.602  -5.565  1.00  0.00    -0.264 NA
ATOM     22  C   UNL     1       6.523  17.572  -4.642  1.00  0.00     0.111 A 
ATOM     23  C   UNL     1       5.439  15.790  -1.494  1.00  0.00     0.045 C 
ENDBRANCH  16  17
ENDBRANCH  15  16
ENDBRANCH  13  15
ENDBRANCH   4  13
TORSDOF 8
ENDMDL
MODEL 7
REMARK VINA RESULT:    -4.910      1.283      2.152
REMARK INTER + INTRA:          -7.696
REMARK INTER:                  -7.029
REMARK INTRA:                  -0.666
REMARK UNBOUND:                -0.633
REMARK SMILES Cc1ccncc1/C=C/Nc1ccc(CCCN)cc1
REMARK SMILES IDX 14 1 13 2 12 3 11 4 20 5 19 6 15 7 16 8 17 9 18 10 10 13
REMARK SMILES IDX 9 15 8 16 7 17 2 18 6 19 3 20 5 21 4 22 1 23
REMARK H PARENT 18 11 18 12 10 14
ROOT
ATOM      1  C   UNL     1       5.825  16.368  -2.838  1.00  0.00    -0.048 A 
ATOM      2  C   UNL     1       6.360  16.002  -4.075  1.00  0.00     0.006 A 
ATOM      3  C   UNL     1       6.249  14.694  -4.539  1.00  0.00     0.026 A 
ATOM      4  C   UNL     1       5.674  13.688  -3.759  1.00  0.00     0.038 A 
ATOM      5  C   UNL     1       5.188  14.041  -2.495  1.00  0.00     0.026 A 
ATOM      6  C   UNL     1       5.263  15.366  -2.038  1.00  0.00     0.006 A 
ENDROOT
BRANCH   1   7
ATOM      7  C   UNL     1       5.850  17.801  -2.370  1.00  0.00     0.037 C 
BRANCH   7   8
ATOM      8  C   UNL     1       6.016  18.032  -0.856  1.00  0.00     0.020 C 
BRANCH   8   9
ATOM      9  C   UNL     1       7.431  18.389  -0.380  1.00  0.00     0.078 C 
BRANCH   9  10
ATOM     10  N   UNL     1       8.402  17.307  -0.469  1.00  0.00    -0.330 NA
ATOM     11  H   UNL     1       9.130  17.433   0.233  1.00  0.00     0.118 HD
ATOM     12  H   UNL     1       8.882  17.339  -1.368  1.00  0.00     0.118 HD
ENDBRANCH   9  10
ENDBRANCH   8   9
ENDBRANCH   7   8
ENDBRANCH   1   7
BRANCH   4  13
ATOM     13  N   UNL     1       5.665  12.341  -4.170  1.00  0.00    -0.362 N 
ATOM     14  H   UNL     1       4.807  11.998  -4.585  1.00  0.00     0.166 HD
BRANCH  13  15
ATOM     15  C   UNL     1       6.611  11.412  -3.826  1.00  0.00     0.083 C 
BRANCH  15  16
ATOM     16  C   UNL     1       6.462  10.263  -3.153  1.00  0.00     0.027 C 
BRANCH  16  17
ATOM     17  C   UNL     1       5.564   9.205  -3.640  1.00  0.00    -0.003 A 
ATOM     18  C   UNL     1       5.079   8.184  -2.804  1.00  0.00    -0.041 A 
ATOM     19  C   UNL     1       5.181   9.151  -4.989  1.00  0.00     0.119 A 
ATOM     20  C   UNL     1       4.246   7.200  -3.357  1.00  0.00     0.024 A 
ATOM     21  N   UNL     1       4.365   8.219  -5.534  1.00  0.00    -0.264 NA
ATOM     22  C   UNL     1       3.913   7.265  -4.701  1.00  0.00     0.111 A 
ATOM     23  C   UNL     1       5.451   8.088  -1.351  1.00  0.00     0.045 C 
ENDBRANCH  16  17
ENDBRANCH  15  16
ENDBRANCH  13  15
ENDBRANCH   4  13
TORSDOF 8
ENDMDL
MODEL 8
REMARK VINA RESULT:    -4.627      4.547      6.352
REMARK INTER + INTRA:          -7.289
REMARK INTER:                  -6.654
REMARK INTRA:                  -0.635
REMARK UNBOUND:                -0.633
REMARK SMILES Cc1ccncc1/C=C/Nc1ccc(CCCN)cc1
REMARK SMILES IDX 14 1 13 2 12 3 11 4 20 5 19 6 15 7 16 8 17 9 18 10 10 13
REMARK SMILES IDX 9 15 8 16 7 17 2 18 6 19 3 20 5 21 4 22 1 23
REMARK H PARENT 18 11 18 12 10 14
ROOT
ATOM      1  C   UNL     1      11.553  10.629  -5.604  1.00  0.00    -0.048 A 
ATOM      2  C   UNL     1      10.991  11.595  -4.768  1.00  0.00     0.006 A 
ATOM      3  C   UNL     1       9.947  11.269  -3.906  1.00  0.00     0.026 A 
ATOM      4  C   UNL     1       9.375   9.994  -3.899  1.00  0.00     0.038 A 
ATOM      5  C   UNL     1       9.901   9.040  -4.778  1.00  0.00     0.026 A 
ATOM      6  C   UNL     1      10.978   9.352  -5.621  1.00  0.00     0.006 A 
ENDROOT
BRANCH   1   7
ATOM      7  C   UNL     1      12.749  10.944  -6.467  1.00  0.00     0.037 C 
BRANCH   7   8
ATOM      8  C   UNL     1      12.652  10.548  -7.954  1.00  0.00     0.020 C 
BRANCH   8   9
ATOM      9  C   UNL     1      12.544  11.709  -8.954  1.00  0.00     0.078 C 
BRANCH   9  10
ATOM     10  N   UNL     1      11.207  11.943  -9.482  1.00  0.00    -0.330 NA
ATOM     11  H   UNL     1      11.254  12.108 -10.487  1.00  0.00     0.118 HD
ATOM     12  H   UNL     1      10.816  12.796  -9.083  1.00  0.00     0.118 HD
ENDBRANCH   9  10
ENDBRANCH   8   9
ENDBRANCH   7   8
ENDBRANCH   1   7
BRANCH   4  13
ATOM     13  N   UNL     1       8.244   9.691  -3.117  1.00  0.00    -0.362 N 
ATOM     14  H   UNL     1       8.305   8.868  -2.530  1.00  0.00     0.166 HD
BRANCH  13  15
ATOM     15  C   UNL     1       7.006  10.255  -3.279  1.00  0.00     0.083 C 
BRANCH  15  16
ATOM     16  C   UNL     1       5.801   9.672  -3.255  1.00  0.00     0.027 C 
BRANCH  16  17
ATOM     17  C   UNL     1       5.578   8.414  -2.526  1.00  0.00    -0.003 A 
ATOM     18  C   UNL     1       4.926   7.311  -3.106  1.00  0.00    -0.041 A 
ATOM     19  C   UNL     1       5.980   8.276  -1.189  1.00  0.00     0.119 A 
ATOM     20  C   UNL     1       4.734   6.158  -2.330  1.00  0.00     0.024 A 
ATOM     21  N   UNL     1       5.819   7.165  -0.432  1.00  0.00    -0.264 NA
ATOM     22  C   UNL     1       5.200   6.129  -1.025  1.00  0.00     0.111 A 
ATOM     23  C   UNL     1       4.395   7.339  -4.511  1.00  0.00     0.045 C 
ENDBRANCH  16  17
ENDBRANCH  15  16
ENDBRANCH  13  15
ENDBRANCH   4  13
TORSDOF 8
ENDMDL
MODEL 9
REMARK VINA RESULT:    -4.519      4.212      5.030
REMARK INTER + INTRA:          -7.134
REMARK INTER:                  -6.444
REMARK INTRA:                  -0.690
REMARK UNBOUND:                -0.633
REMARK SMILES Cc1ccncc1/C=C/Nc1ccc(CCCN)cc1
REMARK SMILES IDX 14 1 13 2 12 3 11 4 20 5 19 6 15 7 16 8 17 9 18 10 10 13
REMARK SMILES IDX 9 15 8 16 7 17 2 18 6 19 3 20 5 21 4 22 1 23
REMARK H PARENT 18 11 18 12 10 14
ROOT
ATOM      1  C   UNL     1      10.950  11.119  -4.646  1.00  0.00    -0.048 A 
ATOM      2  C   UNL     1       9.803  11.818  -4.264  1.00  0.00     0.006 A 
ATOM      3  C   UNL     1       8.656  11.138  -3.867  1.00  0.00     0.026 A 
ATOM      4  C   UNL     1       8.580   9.744  -3.908  1.00  0.00     0.038 A 
ATOM      5  C   UNL     1       9.710   9.043  -4.344  1.00  0.00     0.026 A 
ATOM      6  C   UNL     1      10.882   9.722  -4.710  1.00  0.00     0.006 A 
ENDROOT
BRANCH   1   7
ATOM      7  C   UNL     1      12.230  11.842  -4.982  1.00  0.00     0.037 C 
BRANCH   7   8
ATOM      8  C   UNL     1      12.735  12.870  -3.950  1.00  0.00     0.020 C 
BRANCH   8   9
ATOM      9  C   UNL     1      12.600  14.347  -4.349  1.00  0.00     0.078 C 
BRANCH   9  10
ATOM     10  N   UNL     1      11.378  14.997  -3.897  1.00  0.00    -0.330 NA
ATOM     11  H   UNL     1      11.531  16.000  -3.803  1.00  0.00     0.118 HD
ATOM     12  H   UNL     1      11.131  14.670  -2.963  1.00  0.00     0.118 HD
ENDBRANCH   9  10
ENDBRANCH   8   9
ENDBRANCH   7   8
ENDBRANCH   1   7
BRANCH   4  13
ATOM     13  N   UNL     1       7.386   9.055  -3.621  1.00  0.00    -0.362 N 
ATOM     14  H   UNL     1       7.241   8.177  -4.103  1.00  0.00     0.166 HD
BRANCH  13  15
ATOM     15  C   UNL     1       6.313   9.590  -2.958  1.00  0.00     0.083 C 
BRANCH  15  16
ATOM     16  C   UNL     1       5.221   8.976  -2.482  1.00  0.00     0.027 C 
BRANCH  16  17
ATOM     17  C   UNL     1       5.295   7.621  -1.916  1.00  0.00    -0.003 A 
ATOM     18  C   UNL     1       4.922   6.478  -2.646  1.00  0.00    -0.041 A 
ATOM     19  C   UNL     1       5.711   7.415  -0.592  1.00  0.00     0.119 A 
ATOM     20  C   UNL     1       5.000   5.224  -2.021  1.00  0.00     0.024 A 
ATOM     21  N   UNL     1       5.810   6.211   0.020  1.00  0.00    -0.264 NA
ATOM     22  C   UNL     1       5.453   5.142  -0.714  1.00  0.00     0.111 A 
ATOM     23  C   UNL     1       4.406   6.556  -4.055  1.00  0.00     0.045 C 
ENDBRANCH  16  17
ENDBRANCH  15  16
ENDBRANCH  13  15
ENDBRANCH   4  13
TORSDOF 8
ENDMDL
