MODEL 1
REMARK VINA RESULT:    -5.314      0.000      0.000
REMARK INTER + INTRA:          -8.295
REMARK INTER:                  -7.643
REMARK INTRA:                  -0.652
REMARK UNBOUND:                -0.652
REMARK SMILES Cc1ccncc1/C=C/Nc1ccc(CCCN)cc1
REMARK SMILES IDX 14 1 13 2 12 3 11 4 20 5 19 6 15 7 16 8 17 9 18 10 10 13
REMARK SMILES IDX 9 15 8 16 7 17 2 18 6 19 3 20 5 21 4 22 1 23
REMARK H PARENT 18 11 18 12 10 14
ROOT
ATOM      1  C   UNL     1      10.365  -5.165 -10.630  1.00  0.00    -0.048 A 
ATOM      2  C   UNL     1      11.417  -4.447 -10.058  1.00  0.00     0.006 A 
ATOM      3  C   UNL     1      11.258  -3.811  -8.830  1.00  0.00     0.026 A 
ATOM      4  C   UNL     1      10.030  -3.800  -8.165  1.00  0.00     0.038 A 
ATOM      5  C   UNL     1       8.958  -4.473  -8.765  1.00  0.00     0.026 A 
ATOM      6  C   UNL     1       9.123  -5.148  -9.984  1.00  0.00     0.006 A 
ENDROOT
BRANCH   1   7
ATOM      7  C   UNL     1      10.555  -5.942 -11.909  1.00  0.00     0.037 C 
BRANCH   7   8
ATOM      8  C   UNL     1       9.886  -5.368 -13.173  1.00  0.00     0.020 C 
BRANCH   8   9
ATOM      9  C   UNL     1      10.669  -4.273 -13.912  1.00  0.00     0.078 C 
BRANCH   9  10
ATOM     10  N   UNL     1      10.061  -2.951 -13.877  1.00  0.00    -0.330 NA
ATOM     11  H   UNL     1      10.009  -2.616 -12.916  1.00  0.00     0.118 HD
ATOM     12  H   UNL     1       9.095  -3.000 -14.202  1.00  0.00     0.118 HD
ENDBRANCH   9  10
ENDBRANCH   8   9
ENDBRANCH   7   8
ENDBRANCH   1   7
BRANCH   4  13
ATOM     13  N   UNL     1       9.829  -3.061  -6.984  1.00  0.00    -0.362 N 
ATOM     14  H   UNL     1      10.425  -3.289  -6.198  1.00  0.00     0.166 HD
BRANCH  13  15
ATOM     15  C   UNL     1       8.747  -2.258  -6.737  1.00  0.00     0.083 C 
BRANCH  15  16
ATOM     16  C   UNL     1       8.365  -1.682  -5.589  1.00  0.00     0.027 C 
BRANCH  16  17
ATOM     17  C   UNL     1       6.946  -1.416  -5.306  1.00  0.00    -0.003 A 
ATOM     18  C   UNL     1       6.396  -1.550  -4.019  1.00  0.00    -0.041 A 
ATOM     19  C   UNL     1       6.064  -1.048  -6.333  1.00  0.00     0.119 A 
ATOM     20  C   UNL     1       5.027  -1.298  -3.842  1.00  0.00     0.024 A 
ATOM     21  N   UNL     1       4.746  -0.785  -6.177  1.00  0.00    -0.264 NA
ATOM     22  C   UNL     1       4.259  -0.914  -4.930  1.00  0.00     0.111 A 
ATOM     23  C   UNL     1       7.213  -1.989  -2.837  1.00  0.00     0.045 C 
ENDBRANCH  16  17
ENDBRANCH  15  16
ENDBRANCH  13  15
ENDBRANCH   4  13
TORSDOF 8
ENDMDL
MODEL 2
REMARK VINA RESULT:    -5.198      4.723      8.521
REMARK INTER + INTRA:          -8.129
REMARK INTER:                  -7.561
REMARK INTRA:                  -0.568
REMARK UNBOUND:                -0.652
REMARK SMILES Cc1ccncc1/C=C/Nc1ccc(CCCN)cc1
REMARK SMILES IDX 14 1 13 2 12 3 11 4 20 5 19 6 15 7 16 8 17 9 18 10 10 13
REMARK SMILES IDX 9 15 8 16 7 17 2 18 6 19 3 20 5 21 4 22 1 23
REMARK H PARENT 18 11 18 12 10 14
ROOT
ATOM      1  C   UNL     1       5.796  -1.661  -4.747  1.00  0.00    -0.048 A 
ATOM      2  C   UNL     1       5.533  -1.059  -5.979  1.00  0.00     0.006 A 
ATOM      3  C   UNL     1       6.572  -0.711  -6.837  1.00  0.00     0.026 A 
ATOM      4  C   UNL     1       7.910  -0.877  -6.470  1.00  0.00     0.038 A 
ATOM      5  C   UNL     1       8.177  -1.428  -5.211  1.00  0.00     0.026 A 
ATOM      6  C   UNL     1       7.132  -1.816  -4.358  1.00  0.00     0.006 A 
ENDROOT
BRANCH   1   7
ATOM      7  C   UNL     1       4.676  -2.134  -3.854  1.00  0.00     0.037 C 
BRANCH   7   8
ATOM      8  C   UNL     1       4.770  -3.582  -3.335  1.00  0.00     0.020 C 
BRANCH   8   9
ATOM      9  C   UNL     1       4.887  -3.745  -1.813  1.00  0.00     0.078 C 
BRANCH   9  10
ATOM     10  N   UNL     1       5.279  -5.073  -1.364  1.00  0.00    -0.330 NA
ATOM     11  H   UNL     1       4.974  -5.773  -2.039  1.00  0.00     0.118 HD
ATOM     12  H   UNL     1       4.800  -5.306  -0.494  1.00  0.00     0.118 HD
ENDBRANCH   9  10
ENDBRANCH   8   9
ENDBRANCH   7   8
ENDBRANCH   1   7
BRANCH   4  13
ATOM     13  N   UNL     1       8.967  -0.419  -7.281  1.00  0.00    -0.362 N 
ATOM     14  H   UNL     1       9.346  -1.079  -7.948  1.00  0.00     0.166 HD
BRANCH  13  15
ATOM     15  C   UNL     1       9.676   0.733  -7.065  1.00  0.00     0.083 C 
BRANCH  15  16
ATOM     16  C   UNL     1       9.732   1.844  -7.812  1.00  0.00     0.027 C 
BRANCH  16  17
ATOM     17  C   UNL     1      10.938   2.686  -7.836  1.00  0.00    -0.003 A 
ATOM     18  C   UNL     1      11.719   2.851  -8.993  1.00  0.00    -0.041 A 
ATOM     19  C   UNL     1      11.384   3.337  -6.676  1.00  0.00     0.119 A 
ATOM     20  C   UNL     1      12.868   3.653  -8.921  1.00  0.00     0.024 A 
ATOM     21  N   UNL     1      12.479   4.128  -6.594  1.00  0.00    -0.264 NA
ATOM     22  C   UNL     1      13.195   4.270  -7.724  1.00  0.00     0.111 A 
ATOM     23  C   UNL     1      11.389   2.169 -10.291  1.00  0.00     0.045 C 
ENDBRANCH  16  17
ENDBRANCH  15  16
ENDBRANCH  13  15
ENDBRANCH   4  13
TORSDOF 8
ENDMDL
MODEL 3
REMARK VINA RESULT:    -5.191      1.703      8.508
REMARK INTER + INTRA:          -8.119
REMARK INTER:                  -7.620
REMARK INTRA:                  -0.498
REMARK UNBOUND:                -0.652
REMARK SMILES Cc1ccncc1/C=C/Nc1ccc(CCCN)cc1
REMARK SMILES IDX 14 1 13 2 12 3 11 4 20 5 19 6 15 7 16 8 17 9 18 10 10 13
REMARK SMILES IDX 9 15 8 16 7 17 2 18 6 19 3 20 5 21 4 22 1 23
REMARK H PARENT 18 11 18 12 10 14
ROOT
ATOM      1  C   UNL     1       6.100  -1.456  -4.022  1.00  0.00    -0.048 A 
ATOM      2  C   UNL     1       7.369  -1.892  -3.635  1.00  0.00     0.006 A 
ATOM      3  C   UNL     1       8.417  -1.929  -4.550  1.00  0.00     0.026 A 
ATOM      4  C   UNL     1       8.225  -1.609  -5.896  1.00  0.00     0.038 A 
ATOM      5  C   UNL     1       6.940  -1.226  -6.298  1.00  0.00     0.026 A 
ATOM      6  C   UNL     1       5.888  -1.150  -5.372  1.00  0.00     0.006 A 
ENDROOT
BRANCH   1   7
ATOM      7  C   UNL     1       4.983  -1.316  -3.019  1.00  0.00     0.037 C 
BRANCH   7   8
ATOM      8  C   UNL     1       4.321   0.071  -2.910  1.00  0.00     0.020 C 
BRANCH   8   9
ATOM      9  C   UNL     1       2.966   0.228  -3.615  1.00  0.00     0.078 C 
BRANCH   9  10
ATOM     10  N   UNL     1       2.433   1.583  -3.631  1.00  0.00    -0.330 NA
ATOM     11  H   UNL     1       1.554   1.618  -3.116  1.00  0.00     0.118 HD
ATOM     12  H   UNL     1       2.201   1.858  -4.586  1.00  0.00     0.118 HD
ENDBRANCH   9  10
ENDBRANCH   8   9
ENDBRANCH   7   8
ENDBRANCH   1   7
BRANCH   4  13
ATOM     13  N   UNL     1       9.250  -1.758  -6.850  1.00  0.00    -0.362 N 
ATOM     14  H   UNL     1       9.884  -0.976  -6.962  1.00  0.00     0.166 HD
BRANCH  13  15
ATOM     15  C   UNL     1       9.301  -2.746  -7.797  1.00  0.00     0.083 C 
BRANCH  15  16
ATOM     16  C   UNL     1      10.182  -3.746  -7.930  1.00  0.00     0.027 C 
BRANCH  16  17
ATOM     17  C   UNL     1      10.389  -4.413  -9.225  1.00  0.00    -0.003 A 
ATOM     18  C   UNL     1      11.619  -4.374  -9.905  1.00  0.00    -0.041 A 
ATOM     19  C   UNL     1       9.339  -5.092  -9.860  1.00  0.00     0.119 A 
ATOM     20  C   UNL     1      11.722  -5.017 -11.148  1.00  0.00     0.024 A 
ATOM     21  N   UNL     1       9.426  -5.733 -11.049  1.00  0.00    -0.264 NA
ATOM     22  C   UNL     1      10.621  -5.682 -11.664  1.00  0.00     0.111 A 
ATOM     23  C   UNL     1      12.813  -3.636  -9.368  1.00  0.00     0.045 C 
ENDBRANCH  16  17
ENDBRANCH  15  16
ENDBRANCH  13  15
ENDBRANCH   4  13
TORSDOF 8
ENDMDL
MODEL 4
REMARK VINA RESULT:    -5.174      4.809      8.496
REMARK INTER + INTRA:          -8.095
REMARK INTER:                  -7.513
REMARK INTRA:                  -0.582
REMARK UNBOUND:                -0.652
REMARK SMILES Cc1ccncc1/C=C/Nc1ccc(CCCN)cc1
REMARK SMILES IDX 14 1 13 2 12 3 11 4 20 5 19 6 15 7 16 8 17 9 18 10 10 13
REMARK SMILES IDX 9 15 8 16 7 17 2 18 6 19 3 20 5 21 4 22 1 23
REMARK H PARENT 18 11 18 12 10 14
ROOT
ATOM      1  C   UNL     1       6.459  -1.933  -4.758  1.00  0.00    -0.048 A 
ATOM      2  C   UNL     1       6.073  -1.220  -5.895  1.00  0.00     0.006 A 
ATOM      3  C   UNL     1       7.025  -0.645  -6.731  1.00  0.00     0.026 A 
ATOM      4  C   UNL     1       8.388  -0.690  -6.428  1.00  0.00     0.038 A 
ATOM      5  C   UNL     1       8.774  -1.356  -5.258  1.00  0.00     0.026 A 
ATOM      6  C   UNL     1       7.820  -1.971  -4.432  1.00  0.00     0.006 A 
ENDROOT
BRANCH   1   7
ATOM      7  C   UNL     1       5.444  -2.646  -3.901  1.00  0.00     0.037 C 
BRANCH   7   8
ATOM      8  C   UNL     1       5.882  -3.014  -2.471  1.00  0.00     0.020 C 
BRANCH   8   9
ATOM      9  C   UNL     1       4.873  -3.825  -1.644  1.00  0.00     0.078 C 
BRANCH   9  10
ATOM     10  N   UNL     1       5.242  -5.215  -1.414  1.00  0.00    -0.330 NA
ATOM     11  H   UNL     1       6.026  -5.471  -2.012  1.00  0.00     0.118 HD
ATOM     12  H   UNL     1       4.477  -5.831  -1.687  1.00  0.00     0.118 HD
ENDBRANCH   9  10
ENDBRANCH   8   9
ENDBRANCH   7   8
ENDBRANCH   1   7
BRANCH   4  13
ATOM     13  N   UNL     1       9.347  -0.010  -7.204  1.00  0.00    -0.362 N 
ATOM     14  H   UNL     1      10.201  -0.511  -7.412  1.00  0.00     0.166 HD
BRANCH  13  15
ATOM     15  C   UNL     1       9.326   1.333  -7.472  1.00  0.00     0.083 C 
BRANCH  15  16
ATOM     16  C   UNL     1      10.215   2.277  -7.134  1.00  0.00     0.027 C 
BRANCH  16  17
ATOM     17  C   UNL     1      11.281   2.686  -8.062  1.00  0.00    -0.003 A 
ATOM     18  C   UNL     1      12.411   3.408  -7.640  1.00  0.00    -0.041 A 
ATOM     19  C   UNL     1      11.191   2.399  -9.432  1.00  0.00     0.119 A 
ATOM     20  C   UNL     1      13.369   3.779  -8.596  1.00  0.00     0.024 A 
ATOM     21  N   UNL     1      12.114   2.734 -10.364  1.00  0.00    -0.264 NA
ATOM     22  C   UNL     1      13.185   3.415  -9.920  1.00  0.00     0.111 A 
ATOM     23  C   UNL     1      12.610   3.829  -6.211  1.00  0.00     0.045 C 
ENDBRANCH  16  17
ENDBRANCH  15  16
ENDBRANCH  13  15
ENDBRANCH   4  13
TORSDOF 8
ENDMDL
MODEL 5
REMARK VINA RESULT:    -5.128      5.639      7.519
REMARK INTER + INTRA:          -8.028
REMARK INTER:                  -7.357
REMARK INTRA:                  -0.671
REMARK UNBOUND:                -0.652
REMARK SMILES Cc1ccncc1/C=C/Nc1ccc(CCCN)cc1
REMARK SMILES IDX 14 1 13 2 12 3 11 4 20 5 19 6 15 7 16 8 17 9 18 10 10 13
REMARK SMILES IDX 9 15 8 16 7 17 2 18 6 19 3 20 5 21 4 22 1 23
REMARK H PARENT 18 11 18 12 10 14
ROOT
ATOM      1  C   UNL     1      12.228   3.701  -7.861  1.00  0.00    -0.048 A 
ATOM      2  C   UNL     1      11.733   2.905  -8.896  1.00  0.00     0.006 A 
ATOM      3  C   UNL     1      10.627   2.084  -8.694  1.00  0.00     0.026 A 
ATOM      4  C   UNL     1      10.022   1.966  -7.441  1.00  0.00     0.038 A 
ATOM      5  C   UNL     1      10.553   2.720  -6.388  1.00  0.00     0.026 A 
ATOM      6  C   UNL     1      11.644   3.578  -6.594  1.00  0.00     0.006 A 
ENDROOT
BRANCH   1   7
ATOM      7  C   UNL     1      13.362   4.668  -8.094  1.00  0.00     0.037 C 
BRANCH   7   8
ATOM      8  C   UNL     1      13.588   5.742  -7.012  1.00  0.00     0.020 C 
BRANCH   8   9
ATOM      9  C   UNL     1      13.538   7.201  -7.491  1.00  0.00     0.078 C 
BRANCH   9  10
ATOM     10  N   UNL     1      12.440   7.989  -6.950  1.00  0.00    -0.330 NA
ATOM     11  H   UNL     1      11.648   7.383  -6.737  1.00  0.00     0.118 HD
ATOM     12  H   UNL     1      12.100   8.646  -7.653  1.00  0.00     0.118 HD
ENDBRANCH   9  10
ENDBRANCH   8   9
ENDBRANCH   7   8
ENDBRANCH   1   7
BRANCH   4  13
ATOM     13  N   UNL     1       8.980   1.050  -7.201  1.00  0.00    -0.362 N 
ATOM     14  H   UNL     1       8.100   1.436  -6.883  1.00  0.00     0.166 HD
BRANCH  13  15
ATOM     15  C   UNL     1       9.136  -0.308  -7.115  1.00  0.00     0.083 C 
BRANCH  15  16
ATOM     16  C   UNL     1       8.242  -1.242  -6.763  1.00  0.00     0.027 C 
BRANCH  16  17
ATOM     17  C   UNL     1       7.972  -1.543  -5.349  1.00  0.00    -0.003 A 
ATOM     18  C   UNL     1       6.683  -1.465  -4.794  1.00  0.00    -0.041 A 
ATOM     19  C   UNL     1       9.014  -1.890  -4.476  1.00  0.00     0.119 A 
ATOM     20  C   UNL     1       6.518  -1.746  -3.429  1.00  0.00     0.024 A 
ATOM     21  N   UNL     1       8.870  -2.182  -3.162  1.00  0.00    -0.264 NA
ATOM     22  C   UNL     1       7.621  -2.105  -2.670  1.00  0.00     0.111 A 
ATOM     23  C   UNL     1       5.483  -1.054  -5.601  1.00  0.00     0.045 C 
ENDBRANCH  16  17
ENDBRANCH  15  16
ENDBRANCH  13  15
ENDBRANCH   4  13
TORSDOF 8
ENDMDL
MODEL 6
REMARK VINA RESULT:    -5.113      4.704      8.614
REMARK INTER + INTRA:          -8.007
REMARK INTER:                  -7.375
REMARK INTRA:                  -0.632
REMARK UNBOUND:                -0.652
REMARK SMILES Cc1ccncc1/C=C/Nc1ccc(CCCN)cc1
REMARK SMILES IDX 14 1 13 2 12 3 11 4 20 5 19 6 15 7 16 8 17 9 18 10 10 13
REMARK SMILES IDX 9 15 8 16 7 17 2 18 6 19 3 20 5 21 4 22 1 23
REMARK H PARENT 18 11 18 12 10 14
ROOT
ATOM      1  C   UNL     1       5.449  -1.486  -4.776  1.00  0.00    -0.048 A 
ATOM      2  C   UNL     1       5.295  -0.926  -6.046  1.00  0.00     0.006 A 
ATOM      3  C   UNL     1       6.399  -0.704  -6.864  1.00  0.00     0.026 A 
ATOM      4  C   UNL     1       7.700  -0.957  -6.422  1.00  0.00     0.038 A 
ATOM      5  C   UNL     1       7.860  -1.466  -5.128  1.00  0.00     0.026 A 
ATOM      6  C   UNL     1       6.748  -1.727  -4.313  1.00  0.00     0.006 A 
ENDROOT
BRANCH   1   7
ATOM      7  C   UNL     1       4.254  -1.824  -3.921  1.00  0.00     0.037 C 
BRANCH   7   8
ATOM      8  C   UNL     1       3.743  -0.718  -2.978  1.00  0.00     0.020 C 
BRANCH   8   9
ATOM      9  C   UNL     1       2.560   0.115  -3.495  1.00  0.00     0.078 C 
BRANCH   9  10
ATOM     10  N   UNL     1       2.804   1.548  -3.571  1.00  0.00    -0.330 NA
ATOM     11  H   UNL     1       2.675   1.973  -2.654  1.00  0.00     0.118 HD
ATOM     12  H   UNL     1       2.113   1.990  -4.177  1.00  0.00     0.118 HD
ENDBRANCH   9  10
ENDBRANCH   8   9
ENDBRANCH   7   8
ENDBRANCH   1   7
BRANCH   4  13
ATOM     13  N   UNL     1       8.827  -0.625  -7.197  1.00  0.00    -0.362 N 
ATOM     14  H   UNL     1       9.204  -1.356  -7.788  1.00  0.00     0.166 HD
BRANCH  13  15
ATOM     15  C   UNL     1       9.591   0.499  -7.026  1.00  0.00     0.083 C 
BRANCH  15  16
ATOM     16  C   UNL     1       9.615   1.624  -7.753  1.00  0.00     0.027 C 
BRANCH  16  17
ATOM     17  C   UNL     1      10.777   2.526  -7.723  1.00  0.00    -0.003 A 
ATOM     18  C   UNL     1      11.566   2.777  -8.859  1.00  0.00    -0.041 A 
ATOM     19  C   UNL     1      11.172   3.151  -6.531  1.00  0.00     0.119 A 
ATOM     20  C   UNL     1      12.671   3.632  -8.737  1.00  0.00     0.024 A 
ATOM     21  N   UNL     1      12.224   3.992  -6.399  1.00  0.00    -0.264 NA
ATOM     22  C   UNL     1      12.948   4.215  -7.511  1.00  0.00     0.111 A 
ATOM     23  C   UNL     1      11.290   2.132 -10.189  1.00  0.00     0.045 C 
ENDBRANCH  16  17
ENDBRANCH  15  16
ENDBRANCH  13  15
ENDBRANCH   4  13
TORSDOF 8
ENDMDL
MODEL 7
REMARK VINA RESULT:    -5.073      5.716      7.392
REMARK INTER + INTRA:          -7.949
REMARK INTER:                  -7.368
REMARK INTRA:                  -0.582
REMARK UNBOUND:                -0.652
REMARK SMILES Cc1ccncc1/C=C/Nc1ccc(CCCN)cc1
REMARK SMILES IDX 14 1 13 2 12 3 11 4 20 5 19 6 15 7 16 8 17 9 18 10 10 13
REMARK SMILES IDX 9 15 8 16 7 17 2 18 6 19 3 20 5 21 4 22 1 23
REMARK H PARENT 18 11 18 12 10 14
ROOT
ATOM      1  C   UNL     1      12.386   3.862  -7.953  1.00  0.00    -0.048 A 
ATOM      2  C   UNL     1      11.974   3.111  -9.056  1.00  0.00     0.006 A 
ATOM      3  C   UNL     1      10.890   2.243  -8.960  1.00  0.00     0.026 A 
ATOM      4  C   UNL     1      10.228   2.031  -7.748  1.00  0.00     0.038 A 
ATOM      5  C   UNL     1      10.677   2.740  -6.628  1.00  0.00     0.026 A 
ATOM      6  C   UNL     1      11.744   3.645  -6.728  1.00  0.00     0.006 A 
ENDROOT
BRANCH   1   7
ATOM      7  C   UNL     1      13.493   4.879  -8.071  1.00  0.00     0.037 C 
BRANCH   7   8
ATOM      8  C   UNL     1      13.545   5.974  -6.988  1.00  0.00     0.020 C 
BRANCH   8   9
ATOM      9  C   UNL     1      13.465   7.423  -7.491  1.00  0.00     0.078 C 
BRANCH   9  10
ATOM     10  N   UNL     1      12.343   8.193  -6.972  1.00  0.00    -0.330 NA
ATOM     11  H   UNL     1      12.028   7.798  -6.087  1.00  0.00     0.118 HD
ATOM     12  H   UNL     1      11.545   8.120  -7.603  1.00  0.00     0.118 HD
ENDBRANCH   9  10
ENDBRANCH   8   9
ENDBRANCH   7   8
ENDBRANCH   1   7
BRANCH   4  13
ATOM     13  N   UNL     1       9.210   1.068  -7.615  1.00  0.00    -0.362 N 
ATOM     14  H   UNL     1       8.418   1.155  -8.240  1.00  0.00     0.166 HD
BRANCH  13  15
ATOM     15  C   UNL     1       9.086   0.200  -6.563  1.00  0.00     0.083 C 
BRANCH  15  16
ATOM     16  C   UNL     1       8.417  -0.959  -6.496  1.00  0.00     0.027 C 
BRANCH  16  17
ATOM     17  C   UNL     1       6.967  -0.988  -6.251  1.00  0.00    -0.003 A 
ATOM     18  C   UNL     1       6.418  -1.396  -5.023  1.00  0.00    -0.041 A 
ATOM     19  C   UNL     1       6.059  -0.639  -7.263  1.00  0.00     0.119 A 
ATOM     20  C   UNL     1       5.022  -1.417  -4.882  1.00  0.00     0.024 A 
ATOM     21  N   UNL     1       4.711  -0.636  -7.138  1.00  0.00    -0.264 NA
ATOM     22  C   UNL     1       4.225  -1.024  -5.946  1.00  0.00     0.111 A 
ATOM     23  C   UNL     1       7.270  -1.848  -3.871  1.00  0.00     0.045 C 
ENDBRANCH  16  17
ENDBRANCH  15  16
ENDBRANCH  13  15
ENDBRANCH   4  13
TORSDOF 8
ENDMDL
MODEL 8
REMARK VINA RESULT:    -5.024      1.758      2.192
REMARK INTER + INTRA:          -7.879
REMARK INTER:                  -7.271
REMARK INTRA:                  -0.608
REMARK UNBOUND:                -0.652
REMARK SMILES Cc1ccncc1/C=C/Nc1ccc(CCCN)cc1
REMARK SMILES IDX 14 1 13 2 12 3 11 4 20 5 19 6 15 7 16 8 17 9 18 10 10 13
REMARK SMILES IDX 9 15 8 16 7 17 2 18 6 19 3 20 5 21 4 22 1 23
REMARK H PARENT 18 11 18 12 10 14
ROOT
ATOM      1  C   UNL     1      10.874  -5.178 -10.645  1.00  0.00    -0.048 A 
ATOM      2  C   UNL     1       9.567  -5.347 -10.186  1.00  0.00     0.006 A 
ATOM      3  C   UNL     1       9.105  -4.639  -9.079  1.00  0.00     0.026 A 
ATOM      4  C   UNL     1       9.947  -3.800  -8.345  1.00  0.00     0.038 A 
ATOM      5  C   UNL     1      11.274  -3.674  -8.770  1.00  0.00     0.026 A 
ATOM      6  C   UNL     1      11.734  -4.355  -9.907  1.00  0.00     0.006 A 
ENDROOT
BRANCH   1   7
ATOM      7  C   UNL     1      11.355  -5.862 -11.901  1.00  0.00     0.037 C 
BRANCH   7   8
ATOM      8  C   UNL     1      10.469  -6.996 -12.453  1.00  0.00     0.020 C 
BRANCH   8   9
ATOM      9  C   UNL     1      11.189  -8.311 -12.787  1.00  0.00     0.078 C 
BRANCH   9  10
ATOM     10  N   UNL     1      10.932  -9.405 -11.862  1.00  0.00    -0.330 NA
ATOM     11  H   UNL     1      10.542 -10.202 -12.364  1.00  0.00     0.118 HD
ATOM     12  H   UNL     1      10.219  -9.133 -11.185  1.00  0.00     0.118 HD
ENDBRANCH   9  10
ENDBRANCH   8   9
ENDBRANCH   7   8
ENDBRANCH   1   7
BRANCH   4  13
ATOM     13  N   UNL     1       9.521  -3.174  -7.157  1.00  0.00    -0.362 N 
ATOM     14  H   UNL     1       9.403  -3.770  -6.347  1.00  0.00     0.166 HD
BRANCH  13  15
ATOM     15  C   UNL     1       9.018  -1.903  -7.080  1.00  0.00     0.083 C 
BRANCH  15  16
ATOM     16  C   UNL     1       8.472  -1.272  -6.031  1.00  0.00     0.027 C 
BRANCH  16  17
ATOM     17  C   UNL     1       7.012  -1.183  -5.871  1.00  0.00    -0.003 A 
ATOM     18  C   UNL     1       6.367  -1.486  -4.660  1.00  0.00    -0.041 A 
ATOM     19  C   UNL     1       6.191  -0.822  -6.950  1.00  0.00     0.119 A 
ATOM     20  C   UNL     1       4.968  -1.398  -4.601  1.00  0.00     0.024 A 
ATOM     21  N   UNL     1       4.842  -0.715  -6.906  1.00  0.00    -0.264 NA
ATOM     22  C   UNL     1       4.263  -1.004  -5.727  1.00  0.00     0.111 A 
ATOM     23  C   UNL     1       7.118  -1.938  -3.439  1.00  0.00     0.045 C 
ENDBRANCH  16  17
ENDBRANCH  15  16
ENDBRANCH  13  15
ENDBRANCH   4  13
TORSDOF 8
ENDMDL
MODEL 9
REMARK VINA RESULT:    -5.007      2.063      8.435
REMARK INTER + INTRA:          -7.854
REMARK INTER:                  -7.259
REMARK INTRA:                  -0.596
REMARK UNBOUND:                -0.652
REMARK SMILES Cc1ccncc1/C=C/Nc1ccc(CCCN)cc1
REMARK SMILES IDX 14 1 13 2 12 3 11 4 20 5 19 6 15 7 16 8 17 9 18 10 10 13
REMARK SMILES IDX 9 15 8 16 7 17 2 18 6 19 3 20 5 21 4 22 1 23
REMARK H PARENT 18 11 18 12 10 14
ROOT
ATOM      1  C   UNL     1       6.691  -1.523  -3.750  1.00  0.00    -0.048 A 
ATOM      2  C   UNL     1       8.020  -1.927  -3.608  1.00  0.00     0.006 A 
ATOM      3  C   UNL     1       8.885  -1.922  -4.699  1.00  0.00     0.026 A 
ATOM      4  C   UNL     1       8.443  -1.590  -5.982  1.00  0.00     0.038 A 
ATOM      5  C   UNL     1       7.096  -1.240  -6.136  1.00  0.00     0.026 A 
ATOM      6  C   UNL     1       6.229  -1.206  -5.033  1.00  0.00     0.006 A 
ENDROOT
BRANCH   1   7
ATOM      7  C   UNL     1       5.772  -1.428  -2.558  1.00  0.00     0.037 C 
BRANCH   7   8
ATOM      8  C   UNL     1       4.721  -2.544  -2.404  1.00  0.00     0.020 C 
BRANCH   8   9
ATOM      9  C   UNL     1       5.268  -3.976  -2.305  1.00  0.00     0.078 C 
BRANCH   9  10
ATOM     10  N   UNL     1       5.629  -4.405  -0.961  1.00  0.00    -0.330 NA
ATOM     11  H   UNL     1       6.580  -4.771  -0.955  1.00  0.00     0.118 HD
ATOM     12  H   UNL     1       5.035  -5.182  -0.669  1.00  0.00     0.118 HD
ENDBRANCH   9  10
ENDBRANCH   8   9
ENDBRANCH   7   8
ENDBRANCH   1   7
BRANCH   4  13
ATOM     13  N   UNL     1       9.280  -1.697  -7.109  1.00  0.00    -0.362 N 
ATOM     14  H   UNL     1       9.755  -0.853  -7.403  1.00  0.00     0.166 HD
BRANCH  13  15
ATOM     15  C   UNL     1       9.301  -2.762  -7.970  1.00  0.00     0.083 C 
BRANCH  15  16
ATOM     16  C   UNL     1      10.163  -3.785  -8.031  1.00  0.00     0.027 C 
BRANCH  16  17
ATOM     17  C   UNL     1      10.467  -4.452  -9.306  1.00  0.00    -0.003 A 
ATOM     18  C   UNL     1      11.726  -4.358  -9.925  1.00  0.00    -0.041 A 
ATOM     19  C   UNL     1       9.484  -5.188  -9.985  1.00  0.00     0.119 A 
ATOM     20  C   UNL     1      11.922  -5.007 -11.154  1.00  0.00     0.024 A 
ATOM     21  N   UNL     1       9.662  -5.834 -11.161  1.00  0.00    -0.264 NA
ATOM     22  C   UNL     1      10.882  -5.729 -11.716  1.00  0.00     0.111 A 
ATOM     23  C   UNL     1      12.854  -3.559  -9.337  1.00  0.00     0.045 C 
ENDBRANCH  16  17
ENDBRANCH  15  16
ENDBRANCH  13  15
ENDBRANCH   4  13
TORSDOF 8
ENDMDL
