MODEL 1
REMARK VINA RESULT:    -5.164      0.000      0.000
REMARK INTER + INTRA:          -8.002
REMARK INTER:                  -7.428
REMARK INTRA:                  -0.574
REMARK UNBOUND:                -0.574
REMARK SMILES Cc1ccncc1/C=C/Nc1ccc(CCCN)cc1
REMARK SMILES IDX 14 1 13 2 12 3 11 4 20 5 19 6 15 7 16 8 17 9 18 10 10 13
REMARK SMILES IDX 9 15 8 16 7 17 2 18 6 19 3 20 5 21 4 22 1 23
REMARK H PARENT 18 11 18 12 10 14
ROOT
ATOM      1  C   UNL     1      -2.633   7.717  -7.053  1.00  0.00    -0.048 A 
ATOM      2  C   UNL     1      -1.515   7.844  -7.880  1.00  0.00     0.006 A 
ATOM      3  C   UNL     1      -1.633   8.384  -9.157  1.00  0.00     0.026 A 
ATOM      4  C   UNL     1      -2.875   8.744  -9.688  1.00  0.00     0.038 A 
ATOM      5  C   UNL     1      -4.004   8.564  -8.881  1.00  0.00     0.026 A 
ATOM      6  C   UNL     1      -3.886   8.056  -7.578  1.00  0.00     0.006 A 
ENDROOT
BRANCH   1   7
ATOM      7  C   UNL     1      -2.501   7.228  -5.632  1.00  0.00     0.037 C 
BRANCH   7   8
ATOM      8  C   UNL     1      -3.724   6.508  -5.033  1.00  0.00     0.020 C 
BRANCH   8   9
ATOM      9  C   UNL     1      -3.942   6.692  -3.524  1.00  0.00     0.078 C 
BRANCH   9  10
ATOM     10  N   UNL     1      -2.887   6.149  -2.680  1.00  0.00    -0.330 NA
ATOM     11  H   UNL     1      -3.082   5.173  -2.462  1.00  0.00     0.118 HD
ATOM     12  H   UNL     1      -2.872   6.632  -1.781  1.00  0.00     0.118 HD
ENDBRANCH   9  10
ENDBRANCH   8   9
ENDBRANCH   7   8
ENDBRANCH   1   7
BRANCH   4  13
ATOM     13  N   UNL     1      -3.017   9.179 -11.019  1.00  0.00    -0.362 N 
ATOM     14  H   UNL     1      -3.523  10.044 -11.163  1.00  0.00     0.166 HD
BRANCH  13  15
ATOM     15  C   UNL     1      -2.760   8.411 -12.125  1.00  0.00     0.083 C 
BRANCH  15  16
ATOM     16  C   UNL     1      -3.556   8.136 -13.167  1.00  0.00     0.027 C 
BRANCH  16  17
ATOM     17  C   UNL     1      -3.553   8.981 -14.371  1.00  0.00    -0.003 A 
ATOM     18  C   UNL     1      -4.388   8.725 -15.473  1.00  0.00    -0.041 A 
ATOM     19  C   UNL     1      -2.677  10.071 -14.483  1.00  0.00     0.119 A 
ATOM     20  C   UNL     1      -4.304   9.567 -16.592  1.00  0.00     0.024 A 
ATOM     21  N   UNL     1      -2.596  10.904 -15.547  1.00  0.00    -0.264 NA
ATOM     22  C   UNL     1      -3.416  10.632 -16.577  1.00  0.00     0.111 A 
ATOM     23  C   UNL     1      -5.336   7.560 -15.511  1.00  0.00     0.045 C 
ENDBRANCH  16  17
ENDBRANCH  15  16
ENDBRANCH  13  15
ENDBRANCH   4  13
TORSDOF 8
ENDMDL
MODEL 2
REMARK VINA RESULT:    -5.120      2.094      2.659
REMARK INTER + INTRA:          -7.939
REMARK INTER:                  -7.444
REMARK INTRA:                  -0.495
REMARK UNBOUND:                -0.574
REMARK SMILES Cc1ccncc1/C=C/Nc1ccc(CCCN)cc1
REMARK SMILES IDX 14 1 13 2 12 3 11 4 20 5 19 6 15 7 16 8 17 9 18 10 10 13
REMARK SMILES IDX 9 15 8 16 7 17 2 18 6 19 3 20 5 21 4 22 1 23
REMARK H PARENT 18 11 18 12 10 14
ROOT
ATOM      1  C   UNL     1      -1.613   7.214  -6.900  1.00  0.00    -0.048 A 
ATOM      2  C   UNL     1      -0.655   7.680  -7.802  1.00  0.00     0.006 A 
ATOM      3  C   UNL     1      -1.028   8.454  -8.897  1.00  0.00     0.026 A 
ATOM      4  C   UNL     1      -2.369   8.727  -9.178  1.00  0.00     0.038 A 
ATOM      5  C   UNL     1      -3.335   8.213  -8.305  1.00  0.00     0.026 A 
ATOM      6  C   UNL     1      -2.962   7.464  -7.178  1.00  0.00     0.006 A 
ENDROOT
BRANCH   1   7
ATOM      7  C   UNL     1      -1.212   6.461  -5.656  1.00  0.00     0.037 C 
BRANCH   7   8
ATOM      8  C   UNL     1      -1.234   4.923  -5.741  1.00  0.00     0.020 C 
BRANCH   8   9
ATOM      9  C   UNL     1      -0.346   4.296  -6.826  1.00  0.00     0.078 C 
BRANCH   9  10
ATOM     10  N   UNL     1       0.989   3.919  -6.385  1.00  0.00    -0.330 NA
ATOM     11  H   UNL     1       1.542   3.600  -7.180  1.00  0.00     0.118 HD
ATOM     12  H   UNL     1       0.938   3.121  -5.751  1.00  0.00     0.118 HD
ENDBRANCH   9  10
ENDBRANCH   8   9
ENDBRANCH   7   8
ENDBRANCH   1   7
BRANCH   4  13
ATOM     13  N   UNL     1      -2.761   9.407 -10.347  1.00  0.00    -0.362 N 
ATOM     14  H   UNL     1      -2.864  10.412 -10.276  1.00  0.00     0.166 HD
BRANCH  13  15
ATOM     15  C   UNL     1      -3.253   8.805 -11.475  1.00  0.00     0.083 C 
BRANCH  15  16
ATOM     16  C   UNL     1      -2.677   8.660 -12.676  1.00  0.00     0.027 C 
BRANCH  16  17
ATOM     17  C   UNL     1      -3.484   8.574 -13.902  1.00  0.00    -0.003 A 
ATOM     18  C   UNL     1      -3.365   9.504 -14.950  1.00  0.00    -0.041 A 
ATOM     19  C   UNL     1      -4.448   7.566 -14.061  1.00  0.00     0.119 A 
ATOM     20  C   UNL     1      -4.192   9.362 -16.075  1.00  0.00     0.024 A 
ATOM     21  N   UNL     1      -5.240   7.404 -15.146  1.00  0.00    -0.264 NA
ATOM     22  C   UNL     1      -5.089   8.307 -16.131  1.00  0.00     0.111 A 
ATOM     23  C   UNL     1      -2.412  10.665 -14.891  1.00  0.00     0.045 C 
ENDBRANCH  16  17
ENDBRANCH  15  16
ENDBRANCH  13  15
ENDBRANCH   4  13
TORSDOF 8
ENDMDL
MODEL 3
REMARK VINA RESULT:    -5.091      1.901      8.709
REMARK INTER + INTRA:          -7.897
REMARK INTER:                  -7.249
REMARK INTRA:                  -0.647
REMARK UNBOUND:                -0.574
REMARK SMILES Cc1ccncc1/C=C/Nc1ccc(CCCN)cc1
REMARK SMILES IDX 14 1 13 2 12 3 11 4 20 5 19 6 15 7 16 8 17 9 18 10 10 13
REMARK SMILES IDX 9 15 8 16 7 17 2 18 6 19 3 20 5 21 4 22 1 23
REMARK H PARENT 18 11 18 12 10 14
ROOT
ATOM      1  C   UNL     1      -4.342   8.417 -15.079  1.00  0.00    -0.048 A 
ATOM      2  C   UNL     1      -4.475   7.408 -14.123  1.00  0.00     0.006 A 
ATOM      3  C   UNL     1      -3.801   7.487 -12.908  1.00  0.00     0.026 A 
ATOM      4  C   UNL     1      -2.912   8.529 -12.631  1.00  0.00     0.038 A 
ATOM      5  C   UNL     1      -2.734   9.512 -13.611  1.00  0.00     0.026 A 
ATOM      6  C   UNL     1      -3.441   9.457 -14.823  1.00  0.00     0.006 A 
ENDROOT
BRANCH   1   7
ATOM      7  C   UNL     1      -5.144   8.393 -16.356  1.00  0.00     0.037 C 
BRANCH   7   8
ATOM      8  C   UNL     1      -6.548   7.762 -16.279  1.00  0.00     0.020 C 
BRANCH   8   9
ATOM      9  C   UNL     1      -7.730   8.743 -16.313  1.00  0.00     0.078 C 
BRANCH   9  10
ATOM     10  N   UNL     1      -7.753   9.717 -15.231  1.00  0.00    -0.330 NA
ATOM     11  H   UNL     1      -8.650  10.200 -15.216  1.00  0.00     0.118 HD
ATOM     12  H   UNL     1      -7.054  10.442 -15.396  1.00  0.00     0.118 HD
ENDBRANCH   9  10
ENDBRANCH   8   9
ENDBRANCH   7   8
ENDBRANCH   1   7
BRANCH   4  13
ATOM     13  N   UNL     1      -2.138   8.554 -11.455  1.00  0.00    -0.362 N 
ATOM     14  H   UNL     1      -1.166   8.284 -11.546  1.00  0.00     0.166 HD
BRANCH  13  15
ATOM     15  C   UNL     1      -2.644   8.659 -10.186  1.00  0.00     0.083 C 
BRANCH  15  16
ATOM     16  C   UNL     1      -2.005   8.577  -9.012  1.00  0.00     0.027 C 
BRANCH  16  17
ATOM     17  C   UNL     1      -2.573   7.817  -7.887  1.00  0.00    -0.003 A 
ATOM     18  C   UNL     1      -1.771   7.101  -6.980  1.00  0.00    -0.041 A 
ATOM     19  C   UNL     1      -3.960   7.744  -7.695  1.00  0.00     0.119 A 
ATOM     20  C   UNL     1      -2.397   6.383  -5.950  1.00  0.00     0.024 A 
ATOM     21  N   UNL     1      -4.579   7.072  -6.697  1.00  0.00    -0.264 NA
ATOM     22  C   UNL     1      -3.778   6.408  -5.844  1.00  0.00     0.111 A 
ATOM     23  C   UNL     1      -0.274   7.047  -7.098  1.00  0.00     0.045 C 
ENDBRANCH  16  17
ENDBRANCH  15  16
ENDBRANCH  13  15
ENDBRANCH   4  13
TORSDOF 8
ENDMDL
MODEL 4
REMARK VINA RESULT:    -5.089      4.201      5.324
REMARK INTER + INTRA:          -7.895
REMARK INTER:                  -7.352
REMARK INTRA:                  -0.543
REMARK UNBOUND:                -0.574
REMARK SMILES Cc1ccncc1/C=C/Nc1ccc(CCCN)cc1
REMARK SMILES IDX 14 1 13 2 12 3 11 4 20 5 19 6 15 7 16 8 17 9 18 10 10 13
REMARK SMILES IDX 9 15 8 16 7 17 2 18 6 19 3 20 5 21 4 22 1 23
REMARK H PARENT 18 11 18 12 10 14
ROOT
ATOM      1  C   UNL     1      -2.898   6.691  -7.074  1.00  0.00    -0.048 A 
ATOM      2  C   UNL     1      -4.085   7.372  -7.348  1.00  0.00     0.006 A 
ATOM      3  C   UNL     1      -4.089   8.485  -8.184  1.00  0.00     0.026 A 
ATOM      4  C   UNL     1      -2.907   9.006  -8.714  1.00  0.00     0.038 A 
ATOM      5  C   UNL     1      -1.708   8.358  -8.394  1.00  0.00     0.026 A 
ATOM      6  C   UNL     1      -1.702   7.213  -7.583  1.00  0.00     0.006 A 
ENDROOT
BRANCH   1   7
ATOM      7  C   UNL     1      -2.895   5.426  -6.253  1.00  0.00     0.037 C 
BRANCH   7   8
ATOM      8  C   UNL     1      -2.448   5.556  -4.784  1.00  0.00     0.020 C 
BRANCH   8   9
ATOM      9  C   UNL     1      -3.251   6.540  -3.920  1.00  0.00     0.078 C 
BRANCH   9  10
ATOM     10  N   UNL     1      -4.443   5.982  -3.297  1.00  0.00    -0.330 NA
ATOM     11  H   UNL     1      -4.242   5.719  -2.334  1.00  0.00     0.118 HD
ATOM     12  H   UNL     1      -4.713   5.118  -3.767  1.00  0.00     0.118 HD
ENDBRANCH   9  10
ENDBRANCH   8   9
ENDBRANCH   7   8
ENDBRANCH   1   7
BRANCH   4  13
ATOM     13  N   UNL     1      -2.889  10.199  -9.462  1.00  0.00    -0.362 N 
ATOM     14  H   UNL     1      -2.590  10.126 -10.427  1.00  0.00     0.166 HD
BRANCH  13  15
ATOM     15  C   UNL     1      -2.990  11.458  -8.931  1.00  0.00     0.083 C 
BRANCH  15  16
ATOM     16  C   UNL     1      -3.886  12.418  -9.195  1.00  0.00     0.027 C 
BRANCH  16  17
ATOM     17  C   UNL     1      -3.484  13.829  -9.295  1.00  0.00    -0.003 A 
ATOM     18  C   UNL     1      -4.095  14.726 -10.189  1.00  0.00    -0.041 A 
ATOM     19  C   UNL     1      -2.433  14.334  -8.515  1.00  0.00     0.119 A 
ATOM     20  C   UNL     1      -3.633  16.050 -10.236  1.00  0.00     0.024 A 
ATOM     21  N   UNL     1      -1.987  15.612  -8.535  1.00  0.00    -0.264 NA
ATOM     22  C   UNL     1      -2.603  16.442  -9.396  1.00  0.00     0.111 A 
ATOM     23  C   UNL     1      -5.197  14.307 -11.121  1.00  0.00     0.045 C 
ENDBRANCH  16  17
ENDBRANCH  15  16
ENDBRANCH  13  15
ENDBRANCH   4  13
TORSDOF 8
ENDMDL
MODEL 5
REMARK VINA RESULT:    -5.065      4.538      5.782
REMARK INTER + INTRA:          -7.860
REMARK INTER:                  -7.284
REMARK INTRA:                  -0.576
REMARK UNBOUND:                -0.574
REMARK SMILES Cc1ccncc1/C=C/Nc1ccc(CCCN)cc1
REMARK SMILES IDX 14 1 13 2 12 3 11 4 20 5 19 6 15 7 16 8 17 9 18 10 10 13
REMARK SMILES IDX 9 15 8 16 7 17 2 18 6 19 3 20 5 21 4 22 1 23
REMARK H PARENT 18 11 18 12 10 14
ROOT
ATOM      1  C   UNL     1      -2.537   7.070  -7.763  1.00  0.00    -0.048 A 
ATOM      2  C   UNL     1      -3.781   7.697  -7.680  1.00  0.00     0.006 A 
ATOM      3  C   UNL     1      -4.005   8.918  -8.311  1.00  0.00     0.026 A 
ATOM      4  C   UNL     1      -2.982   9.595  -8.979  1.00  0.00     0.038 A 
ATOM      5  C   UNL     1      -1.718   8.994  -9.014  1.00  0.00     0.026 A 
ATOM      6  C   UNL     1      -1.497   7.745  -8.413  1.00  0.00     0.006 A 
ENDROOT
BRANCH   1   7
ATOM      7  C   UNL     1      -2.311   5.701  -7.170  1.00  0.00     0.037 C 
BRANCH   7   8
ATOM      8  C   UNL     1      -0.950   5.457  -6.490  1.00  0.00     0.020 C 
BRANCH   8   9
ATOM      9  C   UNL     1      -0.112   4.302  -7.056  1.00  0.00     0.078 C 
BRANCH   9  10
ATOM     10  N   UNL     1       1.056   3.944  -6.265  1.00  0.00    -0.330 NA
ATOM     11  H   UNL     1       1.552   4.785  -5.973  1.00  0.00     0.118 HD
ATOM     12  H   UNL     1       1.720   3.420  -6.835  1.00  0.00     0.118 HD
ENDBRANCH   9  10
ENDBRANCH   8   9
ENDBRANCH   7   8
ENDBRANCH   1   7
BRANCH   4  13
ATOM     13  N   UNL     1      -3.169  10.883  -9.516  1.00  0.00    -0.362 N 
ATOM     14  H   UNL     1      -2.789  11.050 -10.439  1.00  0.00     0.166 HD
BRANCH  13  15
ATOM     15  C   UNL     1      -3.584  11.976  -8.802  1.00  0.00     0.083 C 
BRANCH  15  16
ATOM     16  C   UNL     1      -3.048  13.202  -8.744  1.00  0.00     0.027 C 
BRANCH  16  17
ATOM     17  C   UNL     1      -3.526  14.285  -9.617  1.00  0.00    -0.003 A 
ATOM     18  C   UNL     1      -2.889  15.536  -9.684  1.00  0.00    -0.041 A 
ATOM     19  C   UNL     1      -4.676  14.120 -10.403  1.00  0.00     0.119 A 
ATOM     20  C   UNL     1      -3.426  16.522 -10.526  1.00  0.00     0.024 A 
ATOM     21  N   UNL     1      -5.197  15.053 -11.234  1.00  0.00    -0.264 NA
ATOM     22  C   UNL     1      -4.554  16.234 -11.277  1.00  0.00     0.111 A 
ATOM     23  C   UNL     1      -1.679  15.868  -8.857  1.00  0.00     0.045 C 
ENDBRANCH  16  17
ENDBRANCH  15  16
ENDBRANCH  13  15
ENDBRANCH   4  13
TORSDOF 8
ENDMDL
MODEL 6
REMARK VINA RESULT:    -5.061      4.697      8.487
REMARK INTER + INTRA:          -7.854
REMARK INTER:                  -7.234
REMARK INTRA:                  -0.619
REMARK UNBOUND:                -0.574
REMARK SMILES Cc1ccncc1/C=C/Nc1ccc(CCCN)cc1
REMARK SMILES IDX 14 1 13 2 12 3 11 4 20 5 19 6 15 7 16 8 17 9 18 10 10 13
REMARK SMILES IDX 9 15 8 16 7 17 2 18 6 19 3 20 5 21 4 22 1 23
REMARK H PARENT 18 11 18 12 10 14
ROOT
ATOM      1  C   UNL     1      -2.781  15.030  -9.277  1.00  0.00    -0.048 A 
ATOM      2  C   UNL     1      -2.160  14.243  -8.304  1.00  0.00     0.006 A 
ATOM      3  C   UNL     1      -2.532  12.914  -8.122  1.00  0.00     0.026 A 
ATOM      4  C   UNL     1      -3.583  12.343  -8.843  1.00  0.00     0.038 A 
ATOM      5  C   UNL     1      -4.245  13.147  -9.779  1.00  0.00     0.026 A 
ATOM      6  C   UNL     1      -3.849  14.476  -9.994  1.00  0.00     0.006 A 
ENDROOT
BRANCH   1   7
ATOM      7  C   UNL     1      -2.319  16.439  -9.552  1.00  0.00     0.037 C 
BRANCH   7   8
ATOM      8  C   UNL     1      -0.818  16.631  -9.841  1.00  0.00     0.020 C 
BRANCH   8   9
ATOM      9  C   UNL     1      -0.452  17.007 -11.284  1.00  0.00     0.078 C 
BRANCH   9  10
ATOM     10  N   UNL     1      -0.056  15.889 -12.129  1.00  0.00    -0.330 NA
ATOM     11  H   UNL     1       0.257  15.110 -11.553  1.00  0.00     0.118 HD
ATOM     12  H   UNL     1       0.749  16.148 -12.700  1.00  0.00     0.118 HD
ENDBRANCH   9  10
ENDBRANCH   8   9
ENDBRANCH   7   8
ENDBRANCH   1   7
BRANCH   4  13
ATOM     13  N   UNL     1      -4.043  11.038  -8.582  1.00  0.00    -0.362 N 
ATOM     14  H   UNL     1      -4.838  10.952  -7.961  1.00  0.00     0.166 HD
BRANCH  13  15
ATOM     15  C   UNL     1      -3.357   9.891  -8.884  1.00  0.00     0.083 C 
BRANCH  15  16
ATOM     16  C   UNL     1      -3.630   8.626  -8.538  1.00  0.00     0.027 C 
BRANCH  16  17
ATOM     17  C   UNL     1      -2.626   7.786  -7.867  1.00  0.00    -0.003 A 
ATOM     18  C   UNL     1      -2.974   6.812  -6.915  1.00  0.00    -0.041 A 
ATOM     19  C   UNL     1      -1.258   7.954  -8.126  1.00  0.00     0.119 A 
ATOM     20  C   UNL     1      -1.950   6.071  -6.304  1.00  0.00     0.024 A 
ATOM     21  N   UNL     1      -0.259   7.236  -7.560  1.00  0.00    -0.264 NA
ATOM     22  C   UNL     1      -0.633   6.307  -6.662  1.00  0.00     0.111 A 
ATOM     23  C   UNL     1      -4.397   6.563  -6.501  1.00  0.00     0.045 C 
ENDBRANCH  16  17
ENDBRANCH  15  16
ENDBRANCH  13  15
ENDBRANCH   4  13
TORSDOF 8
ENDMDL
MODEL 7
REMARK VINA RESULT:    -5.051      4.443      5.672
REMARK INTER + INTRA:          -7.839
REMARK INTER:                  -7.282
REMARK INTRA:                  -0.557
REMARK UNBOUND:                -0.574
REMARK SMILES Cc1ccncc1/C=C/Nc1ccc(CCCN)cc1
REMARK SMILES IDX 14 1 13 2 12 3 11 4 20 5 19 6 15 7 16 8 17 9 18 10 10 13
REMARK SMILES IDX 9 15 8 16 7 17 2 18 6 19 3 20 5 21 4 22 1 23
REMARK H PARENT 18 11 18 12 10 14
ROOT
ATOM      1  C   UNL     1      -2.287   6.834  -7.375  1.00  0.00    -0.048 A 
ATOM      2  C   UNL     1      -3.601   7.306  -7.388  1.00  0.00     0.006 A 
ATOM      3  C   UNL     1      -3.955   8.401  -8.171  1.00  0.00     0.026 A 
ATOM      4  C   UNL     1      -3.004   9.113  -8.907  1.00  0.00     0.038 A 
ATOM      5  C   UNL     1      -1.676   8.674  -8.850  1.00  0.00     0.026 A 
ATOM      6  C   UNL     1      -1.320   7.548  -8.093  1.00  0.00     0.006 A 
ENDROOT
BRANCH   1   7
ATOM      7  C   UNL     1      -1.913   5.589  -6.611  1.00  0.00     0.037 C 
BRANCH   7   8
ATOM      8  C   UNL     1      -0.411   5.360  -6.354  1.00  0.00     0.020 C 
BRANCH   8   9
ATOM      9  C   UNL     1       0.170   4.041  -6.885  1.00  0.00     0.078 C 
BRANCH   9  10
ATOM     10  N   UNL     1      -0.269   2.847  -6.178  1.00  0.00    -0.330 NA
ATOM     11  H   UNL     1      -0.164   2.029  -6.776  1.00  0.00     0.118 HD
ATOM     12  H   UNL     1      -1.266   2.907  -5.970  1.00  0.00     0.118 HD
ENDBRANCH   9  10
ENDBRANCH   8   9
ENDBRANCH   7   8
ENDBRANCH   1   7
BRANCH   4  13
ATOM     13  N   UNL     1      -3.332  10.290  -9.605  1.00  0.00    -0.362 N 
ATOM     14  H   UNL     1      -3.558  10.189 -10.587  1.00  0.00     0.166 HD
BRANCH  13  15
ATOM     15  C   UNL     1      -3.123  11.561  -9.138  1.00  0.00     0.083 C 
BRANCH  15  16
ATOM     16  C   UNL     1      -3.970  12.598  -9.101  1.00  0.00     0.027 C 
BRANCH  16  17
ATOM     17  C   UNL     1      -3.495  13.977  -9.289  1.00  0.00    -0.003 A 
ATOM     18  C   UNL     1      -4.064  14.849 -10.234  1.00  0.00    -0.041 A 
ATOM     19  C   UNL     1      -2.412  14.473  -8.547  1.00  0.00     0.119 A 
ATOM     20  C   UNL     1      -3.533  16.141 -10.365  1.00  0.00     0.024 A 
ATOM     21  N   UNL     1      -1.899  15.721  -8.648  1.00  0.00    -0.264 NA
ATOM     22  C   UNL     1      -2.477  16.528  -9.556  1.00  0.00     0.111 A 
ATOM     23  C   UNL     1      -5.194  14.433 -11.133  1.00  0.00     0.045 C 
ENDBRANCH  16  17
ENDBRANCH  15  16
ENDBRANCH  13  15
ENDBRANCH   4  13
TORSDOF 8
ENDMDL
MODEL 8
REMARK VINA RESULT:    -5.046      1.177      1.714
REMARK INTER + INTRA:          -7.833
REMARK INTER:                  -7.279
REMARK INTRA:                  -0.554
REMARK UNBOUND:                -0.574
REMARK SMILES Cc1ccncc1/C=C/Nc1ccc(CCCN)cc1
REMARK SMILES IDX 14 1 13 2 12 3 11 4 20 5 19 6 15 7 16 8 17 9 18 10 10 13
REMARK SMILES IDX 9 15 8 16 7 17 2 18 6 19 3 20 5 21 4 22 1 23
REMARK H PARENT 18 11 18 12 10 14
ROOT
ATOM      1  C   UNL     1      -2.348   7.524  -6.921  1.00  0.00    -0.048 A 
ATOM      2  C   UNL     1      -1.291   7.773  -7.800  1.00  0.00     0.006 A 
ATOM      3  C   UNL     1      -1.509   8.438  -9.003  1.00  0.00     0.026 A 
ATOM      4  C   UNL     1      -2.792   8.811  -9.411  1.00  0.00     0.038 A 
ATOM      5  C   UNL     1      -3.860   8.512  -8.557  1.00  0.00     0.026 A 
ATOM      6  C   UNL     1      -3.642   7.875  -7.326  1.00  0.00     0.006 A 
ENDROOT
BRANCH   1   7
ATOM      7  C   UNL     1      -2.109   6.895  -5.571  1.00  0.00     0.037 C 
BRANCH   7   8
ATOM      8  C   UNL     1      -3.272   6.081  -4.972  1.00  0.00     0.020 C 
BRANCH   8   9
ATOM      9  C   UNL     1      -3.842   6.599  -3.643  1.00  0.00     0.078 C 
BRANCH   9  10
ATOM     10  N   UNL     1      -3.069   6.243  -2.462  1.00  0.00    -0.330 NA
ATOM     11  H   UNL     1      -2.073   6.296  -2.668  1.00  0.00     0.118 HD
ATOM     12  H   UNL     1      -3.244   5.271  -2.207  1.00  0.00     0.118 HD
ENDBRANCH   9  10
ENDBRANCH   8   9
ENDBRANCH   7   8
ENDBRANCH   1   7
BRANCH   4  13
ATOM     13  N   UNL     1      -3.035   9.377 -10.678  1.00  0.00    -0.362 N 
ATOM     14  H   UNL     1      -3.194  10.376 -10.706  1.00  0.00     0.166 HD
BRANCH  13  15
ATOM     15  C   UNL     1      -3.324   8.663 -11.811  1.00  0.00     0.083 C 
BRANCH  15  16
ATOM     16  C   UNL     1      -2.739   8.715 -13.015  1.00  0.00     0.027 C 
BRANCH  16  17
ATOM     17  C   UNL     1      -3.536   8.688 -14.251  1.00  0.00    -0.003 A 
ATOM     18  C   UNL     1      -3.429   9.681 -15.240  1.00  0.00    -0.041 A 
ATOM     19  C   UNL     1      -4.478   7.673 -14.477  1.00  0.00     0.119 A 
ATOM     20  C   UNL     1      -4.245   9.591 -16.378  1.00  0.00     0.024 A 
ATOM     21  N   UNL     1      -5.260   7.561 -15.576  1.00  0.00    -0.264 NA
ATOM     22  C   UNL     1      -5.121   8.525 -16.504  1.00  0.00     0.111 A 
ATOM     23  C   UNL     1      -2.500  10.855 -15.103  1.00  0.00     0.045 C 
ENDBRANCH  16  17
ENDBRANCH  15  16
ENDBRANCH  13  15
ENDBRANCH   4  13
TORSDOF 8
ENDMDL
MODEL 9
REMARK VINA RESULT:    -4.874      1.805      2.297
REMARK INTER + INTRA:          -7.586
REMARK INTER:                  -7.000
REMARK INTRA:                  -0.586
REMARK UNBOUND:                -0.574
REMARK SMILES Cc1ccncc1/C=C/Nc1ccc(CCCN)cc1
REMARK SMILES IDX 14 1 13 2 12 3 11 4 20 5 19 6 15 7 16 8 17 9 18 10 10 13
REMARK SMILES IDX 9 15 8 16 7 17 2 18 6 19 3 20 5 21 4 22 1 23
REMARK H PARENT 18 11 18 12 10 14
ROOT
ATOM      1  C   UNL     1      -1.469   7.437  -7.135  1.00  0.00    -0.048 A 
ATOM      2  C   UNL     1      -2.825   7.703  -7.339  1.00  0.00     0.006 A 
ATOM      3  C   UNL     1      -3.259   8.328  -8.504  1.00  0.00     0.026 A 
ATOM      4  C   UNL     1      -2.359   8.781  -9.471  1.00  0.00     0.038 A 
ATOM      5  C   UNL     1      -0.994   8.566  -9.242  1.00  0.00     0.026 A 
ATOM      6  C   UNL     1      -0.554   7.902  -8.087  1.00  0.00     0.006 A 
ENDROOT
BRANCH   1   7
ATOM      7  C   UNL     1      -0.997   6.671  -5.925  1.00  0.00     0.037 C 
BRANCH   7   8
ATOM      8  C   UNL     1      -1.248   5.151  -5.928  1.00  0.00     0.020 C 
BRANCH   8   9
ATOM      9  C   UNL     1      -0.360   4.324  -6.869  1.00  0.00     0.078 C 
BRANCH   9  10
ATOM     10  N   UNL     1       0.958   3.997  -6.343  1.00  0.00    -0.330 NA
ATOM     11  H   UNL     1       1.679   4.442  -6.909  1.00  0.00     0.118 HD
ATOM     12  H   UNL     1       1.129   2.994  -6.421  1.00  0.00     0.118 HD
ENDBRANCH   9  10
ENDBRANCH   8   9
ENDBRANCH   7   8
ENDBRANCH   1   7
BRANCH   4  13
ATOM     13  N   UNL     1      -2.781   9.519 -10.594  1.00  0.00    -0.362 N 
ATOM     14  H   UNL     1      -2.834  10.524 -10.483  1.00  0.00     0.166 HD
BRANCH  13  15
ATOM     15  C   UNL     1      -3.359   8.979 -11.712  1.00  0.00     0.083 C 
BRANCH  15  16
ATOM     16  C   UNL     1      -2.790   8.628 -12.873  1.00  0.00     0.027 C 
BRANCH  16  17
ATOM     17  C   UNL     1      -3.103   9.339 -14.122  1.00  0.00    -0.003 A 
ATOM     18  C   UNL     1      -4.004   8.830 -15.073  1.00  0.00    -0.041 A 
ATOM     19  C   UNL     1      -2.477  10.554 -14.434  1.00  0.00     0.119 A 
ATOM     20  C   UNL     1      -4.228   9.562 -16.249  1.00  0.00     0.024 A 
ATOM     21  N   UNL     1      -2.694  11.282 -15.555  1.00  0.00    -0.264 NA
ATOM     22  C   UNL     1      -3.569  10.767 -16.436  1.00  0.00     0.111 A 
ATOM     23  C   UNL     1      -4.706   7.513 -14.893  1.00  0.00     0.045 C 
ENDBRANCH  16  17
ENDBRANCH  15  16
ENDBRANCH  13  15
ENDBRANCH   4  13
TORSDOF 8
ENDMDL
