MODEL 1
REMARK VINA RESULT:    -5.099      0.000      0.000
REMARK INTER + INTRA:          -8.004
REMARK INTER:                  -7.335
REMARK INTRA:                  -0.669
REMARK UNBOUND:                -0.669
REMARK SMILES Cc1ccncc1/C=C/Nc1ccc(CCCN)cc1
REMARK SMILES IDX 14 1 13 2 12 3 11 4 20 5 19 6 15 7 16 8 17 9 18 10 10 13
REMARK SMILES IDX 9 15 8 16 7 17 2 18 6 19 3 20 5 21 4 22 1 23
REMARK H PARENT 18 11 18 12 10 14
ROOT
ATOM      1  C   UNL     1       8.927  10.718  -7.437  1.00  0.00    -0.048 A 
ATOM      2  C   UNL     1      10.006  10.794  -6.554  1.00  0.00     0.006 A 
ATOM      3  C   UNL     1      10.041  10.008  -5.406  1.00  0.00     0.026 A 
ATOM      4  C   UNL     1       8.974   9.178  -5.054  1.00  0.00     0.038 A 
ATOM      5  C   UNL     1       7.866   9.143  -5.910  1.00  0.00     0.026 A 
ATOM      6  C   UNL     1       7.842   9.905  -7.088  1.00  0.00     0.006 A 
ENDROOT
BRANCH   1   7
ATOM      7  C   UNL     1       8.924  11.488  -8.734  1.00  0.00     0.037 C 
BRANCH   7   8
ATOM      8  C   UNL     1       7.733  12.437  -8.972  1.00  0.00     0.020 C 
BRANCH   8   9
ATOM      9  C   UNL     1       7.996  13.927  -8.709  1.00  0.00     0.078 C 
BRANCH   9  10
ATOM     10  N   UNL     1       7.603  14.397  -7.388  1.00  0.00    -0.330 NA
ATOM     11  H   UNL     1       8.003  15.318  -7.212  1.00  0.00     0.118 HD
ATOM     12  H   UNL     1       7.993  13.788  -6.668  1.00  0.00     0.118 HD
ENDBRANCH   9  10
ENDBRANCH   8   9
ENDBRANCH   7   8
ENDBRANCH   1   7
BRANCH   4  13
ATOM     13  N   UNL     1       8.950   8.471  -3.836  1.00  0.00    -0.362 N 
ATOM     14  H   UNL     1       9.774   7.928  -3.610  1.00  0.00     0.166 HD
BRANCH  13  15
ATOM     15  C   UNL     1       7.830   8.257  -3.077  1.00  0.00     0.083 C 
BRANCH  15  16
ATOM     16  C   UNL     1       7.554   7.246  -2.244  1.00  0.00     0.027 C 
BRANCH  16  17
ATOM     17  C   UNL     1       6.166   6.855  -1.953  1.00  0.00    -0.003 A 
ATOM     18  C   UNL     1       5.824   5.569  -1.500  1.00  0.00    -0.041 A 
ATOM     19  C   UNL     1       5.108   7.754  -2.155  1.00  0.00     0.119 A 
ATOM     20  C   UNL     1       4.472   5.272  -1.270  1.00  0.00     0.024 A 
ATOM     21  N   UNL     1       3.801   7.491  -1.921  1.00  0.00    -0.264 NA
ATOM     22  C   UNL     1       3.515   6.253  -1.480  1.00  0.00     0.111 A 
ATOM     23  C   UNL     1       6.850   4.490  -1.292  1.00  0.00     0.045 C 
ENDBRANCH  16  17
ENDBRANCH  15  16
ENDBRANCH  13  15
ENDBRANCH   4  13
TORSDOF 8
ENDMDL
MODEL 2
REMARK VINA RESULT:    -4.961      4.476      8.417
REMARK INTER + INTRA:          -7.806
REMARK INTER:                  -7.250
REMARK INTRA:                  -0.556
REMARK UNBOUND:                -0.669
REMARK SMILES Cc1ccncc1/C=C/Nc1ccc(CCCN)cc1
REMARK SMILES IDX 14 1 13 2 12 3 11 4 20 5 19 6 15 7 16 8 17 9 18 10 10 13
REMARK SMILES IDX 9 15 8 16 7 17 2 18 6 19 3 20 5 21 4 22 1 23
REMARK H PARENT 18 11 18 12 10 14
ROOT
ATOM      1  C   UNL     1       4.885   6.781  -2.135  1.00  0.00    -0.048 A 
ATOM      2  C   UNL     1       4.584   8.144  -2.190  1.00  0.00     0.006 A 
ATOM      3  C   UNL     1       5.598   9.097  -2.172  1.00  0.00     0.026 A 
ATOM      4  C   UNL     1       6.939   8.736  -2.021  1.00  0.00     0.038 A 
ATOM      5  C   UNL     1       7.238   7.373  -1.908  1.00  0.00     0.026 A 
ATOM      6  C   UNL     1       6.223   6.406  -1.964  1.00  0.00     0.006 A 
ENDROOT
BRANCH   1   7
ATOM      7  C   UNL     1       3.803   5.737  -2.256  1.00  0.00     0.037 C 
BRANCH   7   8
ATOM      8  C   UNL     1       3.367   5.040  -0.953  1.00  0.00     0.020 C 
BRANCH   8   9
ATOM      9  C   UNL     1       2.663   5.929   0.084  1.00  0.00     0.078 C 
BRANCH   9  10
ATOM     10  N   UNL     1       1.211   5.823   0.100  1.00  0.00    -0.330 NA
ATOM     11  H   UNL     1       0.929   4.973   0.586  1.00  0.00     0.118 HD
ATOM     12  H   UNL     1       0.855   5.726  -0.851  1.00  0.00     0.118 HD
ENDBRANCH   9  10
ENDBRANCH   8   9
ENDBRANCH   7   8
ENDBRANCH   1   7
BRANCH   4  13
ATOM     13  N   UNL     1       7.957   9.699  -1.882  1.00  0.00    -0.362 N 
ATOM     14  H   UNL     1       8.485   9.925  -2.716  1.00  0.00     0.166 HD
BRANCH  13  15
ATOM     15  C   UNL     1       8.450  10.149  -0.686  1.00  0.00     0.083 C 
BRANCH  15  16
ATOM     16  C   UNL     1       8.282  11.341  -0.098  1.00  0.00     0.027 C 
BRANCH  16  17
ATOM     17  C   UNL     1       9.323  12.378  -0.166  1.00  0.00    -0.003 A 
ATOM     18  C   UNL     1      10.198  12.640   0.903  1.00  0.00    -0.041 A 
ATOM     19  C   UNL     1       9.461  13.185  -1.306  1.00  0.00     0.119 A 
ATOM     20  C   UNL     1      11.147  13.665   0.762  1.00  0.00     0.024 A 
ATOM     21  N   UNL     1      10.381  14.165  -1.465  1.00  0.00    -0.264 NA
ATOM     22  C   UNL     1      11.206  14.378  -0.425  1.00  0.00     0.111 A 
ATOM     23  C   UNL     1      10.128  11.889   2.203  1.00  0.00     0.045 C 
ENDBRANCH  16  17
ENDBRANCH  15  16
ENDBRANCH  13  15
ENDBRANCH   4  13
TORSDOF 8
ENDMDL
MODEL 3
REMARK VINA RESULT:    -4.948      1.970      8.589
REMARK INTER + INTRA:          -7.787
REMARK INTER:                  -7.246
REMARK INTRA:                  -0.541
REMARK UNBOUND:                -0.669
REMARK SMILES Cc1ccncc1/C=C/Nc1ccc(CCCN)cc1
REMARK SMILES IDX 14 1 13 2 12 3 11 4 20 5 19 6 15 7 16 8 17 9 18 10 10 13
REMARK SMILES IDX 9 15 8 16 7 17 2 18 6 19 3 20 5 21 4 22 1 23
REMARK H PARENT 18 11 18 12 10 14
ROOT
ATOM      1  C   UNL     1       5.553   6.549  -1.339  1.00  0.00    -0.048 A 
ATOM      2  C   UNL     1       6.849   6.116  -1.628  1.00  0.00     0.006 A 
ATOM      3  C   UNL     1       7.774   6.980  -2.208  1.00  0.00     0.026 A 
ATOM      4  C   UNL     1       7.424   8.276  -2.592  1.00  0.00     0.038 A 
ATOM      5  C   UNL     1       6.109   8.694  -2.354  1.00  0.00     0.026 A 
ATOM      6  C   UNL     1       5.183   7.840  -1.735  1.00  0.00     0.006 A 
ENDROOT
BRANCH   1   7
ATOM      7  C   UNL     1       4.574   5.656  -0.619  1.00  0.00     0.037 C 
BRANCH   7   8
ATOM      8  C   UNL     1       3.080   5.883  -0.921  1.00  0.00     0.020 C 
BRANCH   8   9
ATOM      9  C   UNL     1       2.151   5.967   0.299  1.00  0.00     0.078 C 
BRANCH   9  10
ATOM     10  N   UNL     1       1.935   4.707   0.996  1.00  0.00    -0.330 NA
ATOM     11  H   UNL     1       0.936   4.520   1.075  1.00  0.00     0.118 HD
ATOM     12  H   UNL     1       2.277   4.773   1.955  1.00  0.00     0.118 HD
ENDBRANCH   9  10
ENDBRANCH   8   9
ENDBRANCH   7   8
ENDBRANCH   1   7
BRANCH   4  13
ATOM     13  N   UNL     1       8.318   9.114  -3.286  1.00  0.00    -0.362 N 
ATOM     14  H   UNL     1       8.867   9.755  -2.727  1.00  0.00     0.166 HD
BRANCH  13  15
ATOM     15  C   UNL     1       8.316   9.308  -4.642  1.00  0.00     0.083 C 
BRANCH  15  16
ATOM     16  C   UNL     1       9.340   9.258  -5.505  1.00  0.00     0.027 C 
BRANCH  16  17
ATOM     17  C   UNL     1      10.051  10.478  -5.915  1.00  0.00    -0.003 A 
ATOM     18  C   UNL     1       9.842  11.089  -7.164  1.00  0.00    -0.041 A 
ATOM     19  C   UNL     1      11.008  11.069  -5.077  1.00  0.00     0.119 A 
ATOM     20  C   UNL     1      10.580  12.238  -7.484  1.00  0.00     0.024 A 
ATOM     21  N   UNL     1      11.716  12.187  -5.362  1.00  0.00    -0.264 NA
ATOM     22  C   UNL     1      11.481  12.747  -6.562  1.00  0.00     0.111 A 
ATOM     23  C   UNL     1       8.886  10.533  -8.181  1.00  0.00     0.045 C 
ENDBRANCH  16  17
ENDBRANCH  15  16
ENDBRANCH  13  15
ENDBRANCH   4  13
TORSDOF 8
ENDMDL
MODEL 4
REMARK VINA RESULT:    -4.941      4.610      8.453
REMARK INTER + INTRA:          -7.776
REMARK INTER:                  -7.199
REMARK INTRA:                  -0.577
REMARK UNBOUND:                -0.669
REMARK SMILES Cc1ccncc1/C=C/Nc1ccc(CCCN)cc1
REMARK SMILES IDX 14 1 13 2 12 3 11 4 20 5 19 6 15 7 16 8 17 9 18 10 10 13
REMARK SMILES IDX 9 15 8 16 7 17 2 18 6 19 3 20 5 21 4 22 1 23
REMARK H PARENT 18 11 18 12 10 14
ROOT
ATOM      1  C   UNL     1       5.867   6.218  -2.305  1.00  0.00    -0.048 A 
ATOM      2  C   UNL     1       5.282   7.475  -2.140  1.00  0.00     0.006 A 
ATOM      3  C   UNL     1       6.071   8.609  -1.970  1.00  0.00     0.026 A 
ATOM      4  C   UNL     1       7.462   8.526  -1.880  1.00  0.00     0.038 A 
ATOM      5  C   UNL     1       8.047   7.259  -1.988  1.00  0.00     0.026 A 
ATOM      6  C   UNL     1       7.259   6.117  -2.198  1.00  0.00     0.006 A 
ENDROOT
BRANCH   1   7
ATOM      7  C   UNL     1       5.027   4.998  -2.591  1.00  0.00     0.037 C 
BRANCH   7   8
ATOM      8  C   UNL     1       5.488   3.676  -1.948  1.00  0.00     0.020 C 
BRANCH   8   9
ATOM      9  C   UNL     1       5.654   2.485  -2.904  1.00  0.00     0.078 C 
BRANCH   9  10
ATOM     10  N   UNL     1       4.429   1.753  -3.194  1.00  0.00    -0.330 NA
ATOM     11  H   UNL     1       3.969   1.485  -2.325  1.00  0.00     0.118 HD
ATOM     12  H   UNL     1       4.647   0.877  -3.669  1.00  0.00     0.118 HD
ENDBRANCH   9  10
ENDBRANCH   8   9
ENDBRANCH   7   8
ENDBRANCH   1   7
BRANCH   4  13
ATOM     13  N   UNL     1       8.258   9.651  -1.589  1.00  0.00    -0.362 N 
ATOM     14  H   UNL     1       9.208   9.638  -1.939  1.00  0.00     0.166 HD
BRANCH  13  15
ATOM     15  C   UNL     1       7.939  10.619  -0.674  1.00  0.00     0.083 C 
BRANCH  15  16
ATOM     16  C   UNL     1       8.682  11.116   0.324  1.00  0.00     0.027 C 
BRANCH  16  17
ATOM     17  C   UNL     1       9.542  12.292   0.122  1.00  0.00    -0.003 A 
ATOM     18  C   UNL     1      10.419  12.765   1.114  1.00  0.00    -0.041 A 
ATOM     19  C   UNL     1       9.492  13.023  -1.075  1.00  0.00     0.119 A 
ATOM     20  C   UNL     1      11.186  13.908   0.846  1.00  0.00     0.024 A 
ATOM     21  N   UNL     1      10.238  14.117  -1.357  1.00  0.00    -0.264 NA
ATOM     22  C   UNL     1      11.071  14.532  -0.386  1.00  0.00     0.111 A 
ATOM     23  C   UNL     1      10.534  12.112   2.463  1.00  0.00     0.045 C 
ENDBRANCH  16  17
ENDBRANCH  15  16
ENDBRANCH  13  15
ENDBRANCH   4  13
TORSDOF 8
ENDMDL
MODEL 5
REMARK VINA RESULT:    -4.916      4.544      8.454
REMARK INTER + INTRA:          -7.740
REMARK INTER:                  -7.192
REMARK INTRA:                  -0.548
REMARK UNBOUND:                -0.669
REMARK SMILES Cc1ccncc1/C=C/Nc1ccc(CCCN)cc1
REMARK SMILES IDX 14 1 13 2 12 3 11 4 20 5 19 6 15 7 16 8 17 9 18 10 10 13
REMARK SMILES IDX 9 15 8 16 7 17 2 18 6 19 3 20 5 21 4 22 1 23
REMARK H PARENT 18 11 18 12 10 14
ROOT
ATOM      1  C   UNL     1       4.832   6.550  -2.134  1.00  0.00    -0.048 A 
ATOM      2  C   UNL     1       4.536   7.912  -2.209  1.00  0.00     0.006 A 
ATOM      3  C   UNL     1       5.555   8.861  -2.212  1.00  0.00     0.026 A 
ATOM      4  C   UNL     1       6.895   8.497  -2.062  1.00  0.00     0.038 A 
ATOM      5  C   UNL     1       7.189   7.135  -1.930  1.00  0.00     0.026 A 
ATOM      6  C   UNL     1       6.170   6.171  -1.965  1.00  0.00     0.006 A 
ENDROOT
BRANCH   1   7
ATOM      7  C   UNL     1       3.746   5.508  -2.232  1.00  0.00     0.037 C 
BRANCH   7   8
ATOM      8  C   UNL     1       3.287   4.861  -0.911  1.00  0.00     0.020 C 
BRANCH   8   9
ATOM      9  C   UNL     1       2.662   5.809   0.122  1.00  0.00     0.078 C 
BRANCH   9  10
ATOM     10  N   UNL     1       1.206   5.818   0.148  1.00  0.00    -0.330 NA
ATOM     11  H   UNL     1       0.845   6.261  -0.696  1.00  0.00     0.118 HD
ATOM     12  H   UNL     1       0.872   6.392   0.922  1.00  0.00     0.118 HD
ENDBRANCH   9  10
ENDBRANCH   8   9
ENDBRANCH   7   8
ENDBRANCH   1   7
BRANCH   4  13
ATOM     13  N   UNL     1       7.919   9.457  -1.945  1.00  0.00    -0.362 N 
ATOM     14  H   UNL     1       8.503   9.600  -2.759  1.00  0.00     0.166 HD
BRANCH  13  15
ATOM     15  C   UNL     1       8.340  10.010  -0.765  1.00  0.00     0.083 C 
BRANCH  15  16
ATOM     16  C   UNL     1       8.212  11.270  -0.328  1.00  0.00     0.027 C 
BRANCH  16  17
ATOM     17  C   UNL     1       9.280  11.921   0.446  1.00  0.00    -0.003 A 
ATOM     18  C   UNL     1      10.031  12.996  -0.061  1.00  0.00    -0.041 A 
ATOM     19  C   UNL     1       9.622  11.462   1.727  1.00  0.00     0.119 A 
ATOM     20  C   UNL     1      11.049  13.542   0.736  1.00  0.00     0.024 A 
ATOM     21  N   UNL     1      10.588  11.988   2.516  1.00  0.00    -0.264 NA
ATOM     22  C   UNL     1      11.277  13.021   2.000  1.00  0.00     0.111 A 
ATOM     23  C   UNL     1       9.809  13.554  -1.439  1.00  0.00     0.045 C 
ENDBRANCH  16  17
ENDBRANCH  15  16
ENDBRANCH  13  15
ENDBRANCH   4  13
TORSDOF 8
ENDMDL
MODEL 6
REMARK VINA RESULT:    -4.906      2.056      8.393
REMARK INTER + INTRA:          -7.726
REMARK INTER:                  -7.152
REMARK INTRA:                  -0.574
REMARK UNBOUND:                -0.669
REMARK SMILES Cc1ccncc1/C=C/Nc1ccc(CCCN)cc1
REMARK SMILES IDX 14 1 13 2 12 3 11 4 20 5 19 6 15 7 16 8 17 9 18 10 10 13
REMARK SMILES IDX 9 15 8 16 7 17 2 18 6 19 3 20 5 21 4 22 1 23
REMARK H PARENT 18 11 18 12 10 14
ROOT
ATOM      1  C   UNL     1       6.311   5.690  -1.424  1.00  0.00    -0.048 A 
ATOM      2  C   UNL     1       7.685   5.673  -1.671  1.00  0.00     0.006 A 
ATOM      3  C   UNL     1       8.350   6.830  -2.066  1.00  0.00     0.026 A 
ATOM      4  C   UNL     1       7.665   8.023  -2.306  1.00  0.00     0.038 A 
ATOM      5  C   UNL     1       6.278   8.027  -2.113  1.00  0.00     0.026 A 
ATOM      6  C   UNL     1       5.608   6.874  -1.678  1.00  0.00     0.006 A 
ENDROOT
BRANCH   1   7
ATOM      7  C   UNL     1       5.597   4.470  -0.898  1.00  0.00     0.037 C 
BRANCH   7   8
ATOM      8  C   UNL     1       4.697   3.713  -1.894  1.00  0.00     0.020 C 
BRANCH   8   9
ATOM      9  C   UNL     1       5.421   2.816  -2.909  1.00  0.00     0.078 C 
BRANCH   9  10
ATOM     10  N   UNL     1       5.803   1.503  -2.408  1.00  0.00    -0.330 NA
ATOM     11  H   UNL     1       4.999   0.877  -2.425  1.00  0.00     0.118 HD
ATOM     12  H   UNL     1       6.079   1.567  -1.429  1.00  0.00     0.118 HD
ENDBRANCH   9  10
ENDBRANCH   8   9
ENDBRANCH   7   8
ENDBRANCH   1   7
BRANCH   4  13
ATOM     13  N   UNL     1       8.311   9.164  -2.820  1.00  0.00    -0.362 N 
ATOM     14  H   UNL     1       8.626   9.850  -2.145  1.00  0.00     0.166 HD
BRANCH  13  15
ATOM     15  C   UNL     1       8.317   9.532  -4.139  1.00  0.00     0.083 C 
BRANCH  15  16
ATOM     16  C   UNL     1       9.226   9.267  -5.087  1.00  0.00     0.027 C 
BRANCH  16  17
ATOM     17  C   UNL     1       9.396  10.154  -6.248  1.00  0.00    -0.003 A 
ATOM     18  C   UNL     1      10.380  11.157  -6.293  1.00  0.00    -0.041 A 
ATOM     19  C   UNL     1       8.545  10.056  -7.359  1.00  0.00     0.119 A 
ATOM     20  C   UNL     1      10.458  11.975  -7.430  1.00  0.00     0.024 A 
ATOM     21  N   UNL     1       8.617  10.824  -8.471  1.00  0.00    -0.264 NA
ATOM     22  C   UNL     1       9.577  11.766  -8.480  1.00  0.00     0.111 A 
ATOM     23  C   UNL     1      11.325  11.409  -5.152  1.00  0.00     0.045 C 
ENDBRANCH  16  17
ENDBRANCH  15  16
ENDBRANCH  13  15
ENDBRANCH   4  13
TORSDOF 8
ENDMDL
MODEL 7
REMARK VINA RESULT:    -4.883      2.160      8.569
REMARK INTER + INTRA:          -7.693
REMARK INTER:                  -7.125
REMARK INTRA:                  -0.568
REMARK UNBOUND:                -0.669
REMARK SMILES Cc1ccncc1/C=C/Nc1ccc(CCCN)cc1
REMARK SMILES IDX 14 1 13 2 12 3 11 4 20 5 19 6 15 7 16 8 17 9 18 10 10 13
REMARK SMILES IDX 9 15 8 16 7 17 2 18 6 19 3 20 5 21 4 22 1 23
REMARK H PARENT 18 11 18 12 10 14
ROOT
ATOM      1  C   UNL     1       6.054   5.627  -1.432  1.00  0.00    -0.048 A 
ATOM      2  C   UNL     1       5.472   6.860  -1.735  1.00  0.00     0.006 A 
ATOM      3  C   UNL     1       6.237   7.895  -2.263  1.00  0.00     0.026 A 
ATOM      4  C   UNL     1       7.617   7.771  -2.436  1.00  0.00     0.038 A 
ATOM      5  C   UNL     1       8.212   6.555  -2.080  1.00  0.00     0.026 A 
ATOM      6  C   UNL     1       7.439   5.494  -1.582  1.00  0.00     0.006 A 
ENDROOT
BRANCH   1   7
ATOM      7  C   UNL     1       5.218   4.466  -0.954  1.00  0.00     0.037 C 
BRANCH   7   8
ATOM      8  C   UNL     1       4.491   3.645  -2.037  1.00  0.00     0.020 C 
BRANCH   8   9
ATOM      9  C   UNL     1       5.384   2.795  -2.952  1.00  0.00     0.078 C 
BRANCH   9  10
ATOM     10  N   UNL     1       5.824   1.530  -2.380  1.00  0.00    -0.330 NA
ATOM     11  H   UNL     1       6.823   1.565  -2.182  1.00  0.00     0.118 HD
ATOM     12  H   UNL     1       5.705   0.778  -3.058  1.00  0.00     0.118 HD
ENDBRANCH   9  10
ENDBRANCH   8   9
ENDBRANCH   7   8
ENDBRANCH   1   7
BRANCH   4  13
ATOM     13  N   UNL     1       8.415   8.853  -2.858  1.00  0.00    -0.362 N 
ATOM     14  H   UNL     1       8.904   9.365  -2.134  1.00  0.00     0.166 HD
BRANCH  13  15
ATOM     15  C   UNL     1       8.377   9.413  -4.107  1.00  0.00     0.083 C 
BRANCH  15  16
ATOM     16  C   UNL     1       9.231   9.261  -5.128  1.00  0.00     0.027 C 
BRANCH  16  17
ATOM     17  C   UNL     1       9.952  10.411  -5.695  1.00  0.00    -0.003 A 
ATOM     18  C   UNL     1       9.688  10.907  -6.984  1.00  0.00    -0.041 A 
ATOM     19  C   UNL     1      10.976  11.045  -4.974  1.00  0.00     0.119 A 
ATOM     20  C   UNL     1      10.440  11.993  -7.456  1.00  0.00     0.024 A 
ATOM     21  N   UNL     1      11.698  12.104  -5.406  1.00  0.00    -0.264 NA
ATOM     22  C   UNL     1      11.409  12.555  -6.640  1.00  0.00     0.111 A 
ATOM     23  C   UNL     1       8.656  10.290  -7.886  1.00  0.00     0.045 C 
ENDBRANCH  16  17
ENDBRANCH  15  16
ENDBRANCH  13  15
ENDBRANCH   4  13
TORSDOF 8
ENDMDL
MODEL 8
REMARK VINA RESULT:    -4.831      1.276      1.805
REMARK INTER + INTRA:          -7.618
REMARK INTER:                  -6.938
REMARK INTRA:                  -0.680
REMARK UNBOUND:                -0.669
REMARK SMILES Cc1ccncc1/C=C/Nc1ccc(CCCN)cc1
REMARK SMILES IDX 14 1 13 2 12 3 11 4 20 5 19 6 15 7 16 8 17 9 18 10 10 13
REMARK SMILES IDX 9 15 8 16 7 17 2 18 6 19 3 20 5 21 4 22 1 23
REMARK H PARENT 18 11 18 12 10 14
ROOT
ATOM      1  C   UNL     1       8.969  10.484  -7.040  1.00  0.00    -0.048 A 
ATOM      2  C   UNL     1       9.929  10.481  -6.026  1.00  0.00     0.006 A 
ATOM      3  C   UNL     1       9.832   9.594  -4.958  1.00  0.00     0.026 A 
ATOM      4  C   UNL     1       8.739   8.734  -4.819  1.00  0.00     0.038 A 
ATOM      5  C   UNL     1       7.747   8.776  -5.805  1.00  0.00     0.026 A 
ATOM      6  C   UNL     1       7.859   9.641  -6.904  1.00  0.00     0.006 A 
ENDROOT
BRANCH   1   7
ATOM      7  C   UNL     1       9.117  11.369  -8.253  1.00  0.00     0.037 C 
BRANCH   7   8
ATOM      8  C   UNL     1       7.840  12.066  -8.760  1.00  0.00     0.020 C 
BRANCH   8   9
ATOM      9  C   UNL     1       7.879  13.601  -8.796  1.00  0.00     0.078 C 
BRANCH   9  10
ATOM     10  N   UNL     1       7.561  14.254  -7.534  1.00  0.00    -0.330 NA
ATOM     11  H   UNL     1       6.558  14.421  -7.470  1.00  0.00     0.118 HD
ATOM     12  H   UNL     1       7.995  15.177  -7.497  1.00  0.00     0.118 HD
ENDBRANCH   9  10
ENDBRANCH   8   9
ENDBRANCH   7   8
ENDBRANCH   1   7
BRANCH   4  13
ATOM     13  N   UNL     1       8.574   7.920  -3.682  1.00  0.00    -0.362 N 
ATOM     14  H   UNL     1       8.721   6.926  -3.809  1.00  0.00     0.166 HD
BRANCH  13  15
ATOM     15  C   UNL     1       7.991   8.322  -2.509  1.00  0.00     0.083 C 
BRANCH  15  16
ATOM     16  C   UNL     1       6.812   7.963  -1.984  1.00  0.00     0.027 C 
BRANCH  16  17
ATOM     17  C   UNL     1       6.404   6.551  -1.921  1.00  0.00    -0.003 A 
ATOM     18  C   UNL     1       5.061   6.149  -2.023  1.00  0.00    -0.041 A 
ATOM     19  C   UNL     1       7.352   5.537  -1.714  1.00  0.00     0.119 A 
ATOM     20  C   UNL     1       4.758   4.782  -1.927  1.00  0.00     0.024 A 
ATOM     21  N   UNL     1       7.079   4.214  -1.638  1.00  0.00    -0.264 NA
ATOM     22  C   UNL     1       5.784   3.868  -1.750  1.00  0.00     0.111 A 
ATOM     23  C   UNL     1       3.937   7.132  -2.191  1.00  0.00     0.045 C 
ENDBRANCH  16  17
ENDBRANCH  15  16
ENDBRANCH  13  15
ENDBRANCH   4  13
TORSDOF 8
ENDMDL
MODEL 9
REMARK VINA RESULT:    -4.813      1.638      8.451
REMARK INTER + INTRA:          -7.592
REMARK INTER:                  -7.073
REMARK INTRA:                  -0.519
REMARK UNBOUND:                -0.669
REMARK SMILES Cc1ccncc1/C=C/Nc1ccc(CCCN)cc1
REMARK SMILES IDX 14 1 13 2 12 3 11 4 20 5 19 6 15 7 16 8 17 9 18 10 10 13
REMARK SMILES IDX 9 15 8 16 7 17 2 18 6 19 3 20 5 21 4 22 1 23
REMARK H PARENT 18 11 18 12 10 14
ROOT
ATOM      1  C   UNL     1       5.687   6.023  -1.288  1.00  0.00    -0.048 A 
ATOM      2  C   UNL     1       7.027   5.823  -1.625  1.00  0.00     0.006 A 
ATOM      3  C   UNL     1       7.782   6.853  -2.177  1.00  0.00     0.026 A 
ATOM      4  C   UNL     1       7.215   8.092  -2.485  1.00  0.00     0.038 A 
ATOM      5  C   UNL     1       5.857   8.276  -2.201  1.00  0.00     0.026 A 
ATOM      6  C   UNL     1       5.100   7.253  -1.609  1.00  0.00     0.006 A 
ENDROOT
BRANCH   1   7
ATOM      7  C   UNL     1       4.886   4.947  -0.598  1.00  0.00     0.037 C 
BRANCH   7   8
ATOM      8  C   UNL     1       3.363   4.959  -0.834  1.00  0.00     0.020 C 
BRANCH   8   9
ATOM      9  C   UNL     1       2.504   5.452   0.340  1.00  0.00     0.078 C 
BRANCH   9  10
ATOM     10  N   UNL     1       1.145   5.838  -0.013  1.00  0.00    -0.330 NA
ATOM     11  H   UNL     1       1.085   6.029  -1.012  1.00  0.00     0.118 HD
ATOM     12  H   UNL     1       0.898   6.715   0.448  1.00  0.00     0.118 HD
ENDBRANCH   9  10
ENDBRANCH   8   9
ENDBRANCH   7   8
ENDBRANCH   1   7
BRANCH   4  13
ATOM     13  N   UNL     1       7.942   9.098  -3.152  1.00  0.00    -0.362 N 
ATOM     14  H   UNL     1       8.184   9.918  -2.610  1.00  0.00     0.166 HD
BRANCH  13  15
ATOM     15  C   UNL     1       8.116   9.168  -4.509  1.00  0.00     0.083 C 
BRANCH  15  16
ATOM     16  C   UNL     1       9.254   9.228  -5.213  1.00  0.00     0.027 C 
BRANCH  16  17
ATOM     17  C   UNL     1       9.416  10.182  -6.321  1.00  0.00    -0.003 A 
ATOM     18  C   UNL     1      10.373  11.212  -6.296  1.00  0.00    -0.041 A 
ATOM     19  C   UNL     1       8.582  10.124  -7.447  1.00  0.00     0.119 A 
ATOM     20  C   UNL     1      10.443  12.093  -7.385  1.00  0.00     0.024 A 
ATOM     21  N   UNL     1       8.648  10.955  -8.514  1.00  0.00    -0.264 NA
ATOM     22  C   UNL     1       9.582  11.920  -8.457  1.00  0.00     0.111 A 
ATOM     23  C   UNL     1      11.296  11.424  -5.129  1.00  0.00     0.045 C 
ENDBRANCH  16  17
ENDBRANCH  15  16
ENDBRANCH  13  15
ENDBRANCH   4  13
TORSDOF 8
ENDMDL
