MODEL 1
REMARK VINA RESULT:    -5.138      0.000      0.000
REMARK INTER + INTRA:          -8.205
REMARK INTER:                  -7.391
REMARK INTRA:                  -0.815
REMARK UNBOUND:                -0.815
REMARK SMILES Cc1ccncc1/C=C/Nc1ccc(CCCN)cc1
REMARK SMILES IDX 14 1 13 2 12 3 11 4 20 5 19 6 15 7 16 8 17 9 18 10 10 13
REMARK SMILES IDX 9 15 8 16 7 17 2 18 6 19 3 20 5 21 4 22 1 23
REMARK H PARENT 18 11 18 12 10 14
ROOT
ATOM      1  C   UNL     1      11.528 -10.781   6.182  1.00  0.00    -0.048 A 
ATOM      2  C   UNL     1      12.127 -11.046   4.949  1.00  0.00     0.006 A 
ATOM      3  C   UNL     1      11.616 -10.495   3.778  1.00  0.00     0.026 A 
ATOM      4  C   UNL     1      10.450  -9.726   3.779  1.00  0.00     0.038 A 
ATOM      5  C   UNL     1       9.816  -9.506   5.008  1.00  0.00     0.026 A 
ATOM      6  C   UNL     1      10.348 -10.027   6.197  1.00  0.00     0.006 A 
ENDROOT
BRANCH   1   7
ATOM      7  C   UNL     1      12.131 -11.289   7.468  1.00  0.00     0.037 C 
BRANCH   7   8
ATOM      8  C   UNL     1      11.177 -12.005   8.444  1.00  0.00     0.020 C 
BRANCH   8   9
ATOM      9  C   UNL     1      10.944 -13.500   8.182  1.00  0.00     0.078 C 
BRANCH   9  10
ATOM     10  N   UNL     1       9.783 -13.807   7.359  1.00  0.00    -0.330 NA
ATOM     11  H   UNL     1      10.004 -13.658   6.375  1.00  0.00     0.118 HD
ATOM     12  H   UNL     1       9.022 -13.160   7.568  1.00  0.00     0.118 HD
ENDBRANCH   9  10
ENDBRANCH   8   9
ENDBRANCH   7   8
ENDBRANCH   1   7
BRANCH   4  13
ATOM     13  N   UNL     1       9.861  -9.265   2.586  1.00  0.00    -0.362 N 
ATOM     14  H   UNL     1      10.047  -8.304   2.329  1.00  0.00     0.166 HD
BRANCH  13  15
ATOM     15  C   UNL     1       8.871  -9.917   1.899  1.00  0.00     0.083 C 
BRANCH  15  16
ATOM     16  C   UNL     1       8.002  -9.431   1.003  1.00  0.00     0.027 C 
BRANCH  16  17
ATOM     17  C   UNL     1       6.675  -8.948   1.412  1.00  0.00    -0.003 A 
ATOM     18  C   UNL     1       6.248  -7.628   1.182  1.00  0.00    -0.041 A 
ATOM     19  C   UNL     1       5.782  -9.789   2.094  1.00  0.00     0.119 A 
ATOM     20  C   UNL     1       4.974  -7.244   1.627  1.00  0.00     0.024 A 
ATOM     21  N   UNL     1       4.544  -9.440   2.515  1.00  0.00    -0.264 NA
ATOM     22  C   UNL     1       4.168  -8.172   2.267  1.00  0.00     0.111 A 
ATOM     23  C   UNL     1       7.122  -6.606   0.511  1.00  0.00     0.045 C 
ENDBRANCH  16  17
ENDBRANCH  15  16
ENDBRANCH  13  15
ENDBRANCH   4  13
TORSDOF 8
ENDMDL
MODEL 2
REMARK VINA RESULT:    -5.127      4.661      7.155
REMARK INTER + INTRA:          -8.189
REMARK INTER:                  -7.426
REMARK INTRA:                  -0.762
REMARK UNBOUND:                -0.815
REMARK SMILES Cc1ccncc1/C=C/Nc1ccc(CCCN)cc1
REMARK SMILES IDX 14 1 13 2 12 3 11 4 20 5 19 6 15 7 16 8 17 9 18 10 10 13
REMARK SMILES IDX 9 15 8 16 7 17 2 18 6 19 3 20 5 21 4 22 1 23
REMARK H PARENT 18 11 18 12 10 14
ROOT
ATOM      1  C   UNL     1       9.509 -13.904  -2.332  1.00  0.00    -0.048 A 
ATOM      2  C   UNL     1       9.402 -14.296  -0.996  1.00  0.00     0.006 A 
ATOM      3  C   UNL     1       8.722 -13.503  -0.076  1.00  0.00     0.026 A 
ATOM      4  C   UNL     1       8.192 -12.260  -0.431  1.00  0.00     0.038 A 
ATOM      5  C   UNL     1       8.348 -11.840  -1.757  1.00  0.00     0.026 A 
ATOM      6  C   UNL     1       8.999 -12.653  -2.698  1.00  0.00     0.006 A 
ENDROOT
BRANCH   1   7
ATOM      7  C   UNL     1      10.155 -14.801  -3.359  1.00  0.00     0.037 C 
BRANCH   7   8
ATOM      8  C   UNL     1      11.111 -14.127  -4.362  1.00  0.00     0.020 C 
BRANCH   8   9
ATOM      9  C   UNL     1      12.600 -14.141  -3.986  1.00  0.00     0.078 C 
BRANCH   9  10
ATOM     10  N   UNL     1      13.010 -13.101  -3.054  1.00  0.00    -0.330 NA
ATOM     11  H   UNL     1      12.949 -13.446  -2.097  1.00  0.00     0.118 HD
ATOM     12  H   UNL     1      12.363 -12.313  -3.101  1.00  0.00     0.118 HD
ENDBRANCH   9  10
ENDBRANCH   8   9
ENDBRANCH   7   8
ENDBRANCH   1   7
BRANCH   4  13
ATOM     13  N   UNL     1       7.608 -11.401   0.520  1.00  0.00    -0.362 N 
ATOM     14  H   UNL     1       6.611 -11.498   0.668  1.00  0.00     0.166 HD
BRANCH  13  15
ATOM     15  C   UNL     1       8.218 -10.298   1.056  1.00  0.00     0.083 C 
BRANCH  15  16
ATOM     16  C   UNL     1       7.667  -9.239   1.664  1.00  0.00     0.027 C 
BRANCH  16  17
ATOM     17  C   UNL     1       7.598  -7.929   0.999  1.00  0.00    -0.003 A 
ATOM     18  C   UNL     1       6.412  -7.175   0.939  1.00  0.00    -0.041 A 
ATOM     19  C   UNL     1       8.721  -7.389   0.355  1.00  0.00     0.119 A 
ATOM     20  C   UNL     1       6.429  -5.945   0.263  1.00  0.00     0.024 A 
ATOM     21  N   UNL     1       8.760  -6.197  -0.286  1.00  0.00    -0.264 NA
ATOM     22  C   UNL     1       7.609  -5.502  -0.313  1.00  0.00     0.111 A 
ATOM     23  C   UNL     1       5.121  -7.657   1.539  1.00  0.00     0.045 C 
ENDBRANCH  16  17
ENDBRANCH  15  16
ENDBRANCH  13  15
ENDBRANCH   4  13
TORSDOF 8
ENDMDL
MODEL 3
REMARK VINA RESULT:    -5.016      0.795      1.412
REMARK INTER + INTRA:          -8.029
REMARK INTER:                  -7.393
REMARK INTRA:                  -0.637
REMARK UNBOUND:                -0.815
REMARK SMILES Cc1ccncc1/C=C/Nc1ccc(CCCN)cc1
REMARK SMILES IDX 14 1 13 2 12 3 11 4 20 5 19 6 15 7 16 8 17 9 18 10 10 13
REMARK SMILES IDX 9 15 8 16 7 17 2 18 6 19 3 20 5 21 4 22 1 23
REMARK H PARENT 18 11 18 12 10 14
ROOT
ATOM      1  C   UNL     1      11.406 -10.814   6.029  1.00  0.00    -0.048 A 
ATOM      2  C   UNL     1      10.296  -9.972   6.117  1.00  0.00     0.006 A 
ATOM      3  C   UNL     1       9.777  -9.358   4.981  1.00  0.00     0.026 A 
ATOM      4  C   UNL     1      10.387  -9.497   3.731  1.00  0.00     0.038 A 
ATOM      5  C   UNL     1      11.534 -10.295   3.651  1.00  0.00     0.026 A 
ATOM      6  C   UNL     1      12.039 -10.947   4.787  1.00  0.00     0.006 A 
ENDROOT
BRANCH   1   7
ATOM      7  C   UNL     1      11.915 -11.563   7.235  1.00  0.00     0.037 C 
BRANCH   7   8
ATOM      8  C   UNL     1      10.870 -11.962   8.294  1.00  0.00     0.020 C 
BRANCH   8   9
ATOM      9  C   UNL     1      10.544 -13.460   8.388  1.00  0.00     0.078 C 
BRANCH   9  10
ATOM     10  N   UNL     1       9.849 -14.012   7.234  1.00  0.00    -0.330 NA
ATOM     11  H   UNL     1       9.549 -14.966   7.431  1.00  0.00     0.118 HD
ATOM     12  H   UNL     1      10.486 -14.084   6.441  1.00  0.00     0.118 HD
ENDBRANCH   9  10
ENDBRANCH   8   9
ENDBRANCH   7   8
ENDBRANCH   1   7
BRANCH   4  13
ATOM     13  N   UNL     1       9.939  -8.785   2.602  1.00  0.00    -0.362 N 
ATOM     14  H   UNL     1      10.479  -7.972   2.334  1.00  0.00     0.166 HD
BRANCH  13  15
ATOM     15  C   UNL     1       8.716  -8.950   2.007  1.00  0.00     0.083 C 
BRANCH  15  16
ATOM     16  C   UNL     1       8.178  -8.280   0.980  1.00  0.00     0.027 C 
BRANCH  16  17
ATOM     17  C   UNL     1       6.796  -7.779   1.038  1.00  0.00    -0.003 A 
ATOM     18  C   UNL     1       6.416  -6.547   0.479  1.00  0.00    -0.041 A 
ATOM     19  C   UNL     1       5.794  -8.507   1.698  1.00  0.00     0.119 A 
ATOM     20  C   UNL     1       5.080  -6.134   0.600  1.00  0.00     0.024 A 
ATOM     21  N   UNL     1       4.498  -8.133   1.808  1.00  0.00    -0.264 NA
ATOM     22  C   UNL     1       4.172  -6.953   1.252  1.00  0.00     0.111 A 
ATOM     23  C   UNL     1       7.396  -5.639  -0.210  1.00  0.00     0.045 C 
ENDBRANCH  16  17
ENDBRANCH  15  16
ENDBRANCH  13  15
ENDBRANCH   4  13
TORSDOF 8
ENDMDL
MODEL 4
REMARK VINA RESULT:    -4.931      4.564      6.896
REMARK INTER + INTRA:          -7.908
REMARK INTER:                  -7.272
REMARK INTRA:                  -0.636
REMARK UNBOUND:                -0.815
REMARK SMILES Cc1ccncc1/C=C/Nc1ccc(CCCN)cc1
REMARK SMILES IDX 14 1 13 2 12 3 11 4 20 5 19 6 15 7 16 8 17 9 18 10 10 13
REMARK SMILES IDX 9 15 8 16 7 17 2 18 6 19 3 20 5 21 4 22 1 23
REMARK H PARENT 18 11 18 12 10 14
ROOT
ATOM      1  C   UNL     1       9.572 -13.999  -2.433  1.00  0.00    -0.048 A 
ATOM      2  C   UNL     1       9.051 -12.770  -2.845  1.00  0.00     0.006 A 
ATOM      3  C   UNL     1       8.479 -11.897  -1.925  1.00  0.00     0.026 A 
ATOM      4  C   UNL     1       8.332 -12.244  -0.579  1.00  0.00     0.038 A 
ATOM      5  C   UNL     1       8.802 -13.500  -0.176  1.00  0.00     0.026 A 
ATOM      6  C   UNL     1       9.415 -14.368  -1.092  1.00  0.00     0.006 A 
ENDROOT
BRANCH   1   7
ATOM      7  C   UNL     1      10.284 -14.909  -3.402  1.00  0.00     0.037 C 
BRANCH   7   8
ATOM      8  C   UNL     1      11.158 -14.230  -4.474  1.00  0.00     0.020 C 
BRANCH   8   9
ATOM      9  C   UNL     1      12.660 -14.145  -4.164  1.00  0.00     0.078 C 
BRANCH   9  10
ATOM     10  N   UNL     1      13.012 -13.251  -3.070  1.00  0.00    -0.330 NA
ATOM     11  H   UNL     1      12.911 -12.281  -3.365  1.00  0.00     0.118 HD
ATOM     12  H   UNL     1      13.998 -13.362  -2.829  1.00  0.00     0.118 HD
ENDBRANCH   9  10
ENDBRANCH   8   9
ENDBRANCH   7   8
ENDBRANCH   1   7
BRANCH   4  13
ATOM     13  N   UNL     1       7.648 -11.417   0.332  1.00  0.00    -0.362 N 
ATOM     14  H   UNL     1       6.637 -11.445   0.300  1.00  0.00     0.166 HD
BRANCH  13  15
ATOM     15  C   UNL     1       8.226 -10.412   1.062  1.00  0.00     0.083 C 
BRANCH  15  16
ATOM     16  C   UNL     1       7.939  -9.103   1.073  1.00  0.00     0.027 C 
BRANCH  16  17
ATOM     17  C   UNL     1       6.586  -8.623   1.392  1.00  0.00    -0.003 A 
ATOM     18  C   UNL     1       6.146  -7.330   1.057  1.00  0.00    -0.041 A 
ATOM     19  C   UNL     1       5.678  -9.436   2.087  1.00  0.00     0.119 A 
ATOM     20  C   UNL     1       4.847  -6.944   1.420  1.00  0.00     0.024 A 
ATOM     21  N   UNL     1       4.416  -9.087   2.429  1.00  0.00    -0.264 NA
ATOM     22  C   UNL     1       4.029  -7.846   2.083  1.00  0.00     0.111 A 
ATOM     23  C   UNL     1       7.031  -6.335   0.360  1.00  0.00     0.045 C 
ENDBRANCH  16  17
ENDBRANCH  15  16
ENDBRANCH  13  15
ENDBRANCH   4  13
TORSDOF 8
ENDMDL
MODEL 5
REMARK VINA RESULT:    -4.916      2.094      8.450
REMARK INTER + INTRA:          -7.885
REMARK INTER:                  -7.318
REMARK INTRA:                  -0.568
REMARK UNBOUND:                -0.815
REMARK SMILES Cc1ccncc1/C=C/Nc1ccc(CCCN)cc1
REMARK SMILES IDX 14 1 13 2 12 3 11 4 20 5 19 6 15 7 16 8 17 9 18 10 10 13
REMARK SMILES IDX 9 15 8 16 7 17 2 18 6 19 3 20 5 21 4 22 1 23
REMARK H PARENT 18 11 18 12 10 14
ROOT
ATOM      1  C   UNL     1       5.977  -7.328   0.625  1.00  0.00    -0.048 A 
ATOM      2  C   UNL     1       7.280  -6.878   0.405  1.00  0.00     0.006 A 
ATOM      3  C   UNL     1       8.373  -7.649   0.792  1.00  0.00     0.026 A 
ATOM      4  C   UNL     1       8.211  -8.855   1.479  1.00  0.00     0.038 A 
ATOM      5  C   UNL     1       6.905  -9.280   1.751  1.00  0.00     0.026 A 
ATOM      6  C   UNL     1       5.800  -8.525   1.329  1.00  0.00     0.006 A 
ENDROOT
BRANCH   1   7
ATOM      7  C   UNL     1       4.787  -6.550   0.121  1.00  0.00     0.037 C 
BRANCH   7   8
ATOM      8  C   UNL     1       3.441  -6.811   0.824  1.00  0.00     0.020 C 
BRANCH   8   9
ATOM      9  C   UNL     1       2.221  -6.967  -0.095  1.00  0.00     0.078 C 
BRANCH   9  10
ATOM     10  N   UNL     1       1.918  -5.805  -0.918  1.00  0.00    -0.330 NA
ATOM     11  H   UNL     1       2.366  -5.897  -1.829  1.00  0.00     0.118 HD
ATOM     12  H   UNL     1       2.317  -4.964  -0.500  1.00  0.00     0.118 HD
ENDBRANCH   9  10
ENDBRANCH   8   9
ENDBRANCH   7   8
ENDBRANCH   1   7
BRANCH   4  13
ATOM     13  N   UNL     1       9.310  -9.581   1.977  1.00  0.00    -0.362 N 
ATOM     14  H   UNL     1       9.782 -10.195   1.326  1.00  0.00     0.166 HD
BRANCH  13  15
ATOM     15  C   UNL     1       9.622  -9.716   3.304  1.00  0.00     0.083 C 
BRANCH  15  16
ATOM     16  C   UNL     1      10.802  -9.553   3.917  1.00  0.00     0.027 C 
BRANCH  16  17
ATOM     17  C   UNL     1      11.631 -10.708   4.293  1.00  0.00    -0.003 A 
ATOM     18  C   UNL     1      11.859 -11.068   5.633  1.00  0.00    -0.041 A 
ATOM     19  C   UNL     1      12.267 -11.486   3.314  1.00  0.00     0.119 A 
ATOM     20  C   UNL     1      12.682 -12.172   5.903  1.00  0.00     0.024 A 
ATOM     21  N   UNL     1      13.050 -12.564   3.557  1.00  0.00    -0.264 NA
ATOM     22  C   UNL     1      13.236 -12.882   4.850  1.00  0.00     0.111 A 
ATOM     23  C   UNL     1      11.283 -10.292   6.784  1.00  0.00     0.045 C 
ENDBRANCH  16  17
ENDBRANCH  15  16
ENDBRANCH  13  15
ENDBRANCH   4  13
TORSDOF 8
ENDMDL
MODEL 6
REMARK VINA RESULT:    -4.852      2.309      8.258
REMARK INTER + INTRA:          -7.794
REMARK INTER:                  -7.253
REMARK INTRA:                  -0.541
REMARK UNBOUND:                -0.815
REMARK SMILES Cc1ccncc1/C=C/Nc1ccc(CCCN)cc1
REMARK SMILES IDX 14 1 13 2 12 3 11 4 20 5 19 6 15 7 16 8 17 9 18 10 10 13
REMARK SMILES IDX 9 15 8 16 7 17 2 18 6 19 3 20 5 21 4 22 1 23
REMARK H PARENT 18 11 18 12 10 14
ROOT
ATOM      1  C   UNL     1       6.569  -6.715   0.354  1.00  0.00    -0.048 A 
ATOM      2  C   UNL     1       7.953  -6.710   0.165  1.00  0.00     0.006 A 
ATOM      3  C   UNL     1       8.735  -7.767   0.620  1.00  0.00     0.026 A 
ATOM      4  C   UNL     1       8.184  -8.827   1.345  1.00  0.00     0.038 A 
ATOM      5  C   UNL     1       6.805  -8.805   1.584  1.00  0.00     0.026 A 
ATOM      6  C   UNL     1       6.006  -7.761   1.095  1.00  0.00     0.006 A 
ENDROOT
BRANCH   1   7
ATOM      7  C   UNL     1       5.700  -5.626  -0.223  1.00  0.00     0.037 C 
BRANCH   7   8
ATOM      8  C   UNL     1       5.250  -4.514   0.745  1.00  0.00     0.020 C 
BRANCH   8   9
ATOM      9  C   UNL     1       6.368  -3.642   1.334  1.00  0.00     0.078 C 
BRANCH   9  10
ATOM     10  N   UNL     1       6.659  -2.426   0.587  1.00  0.00    -0.330 NA
ATOM     11  H   UNL     1       5.831  -2.127   0.073  1.00  0.00     0.118 HD
ATOM     12  H   UNL     1       7.369  -2.611  -0.122  1.00  0.00     0.118 HD
ENDBRANCH   9  10
ENDBRANCH   8   9
ENDBRANCH   7   8
ENDBRANCH   1   7
BRANCH   4  13
ATOM     13  N   UNL     1       8.985  -9.838   1.911  1.00  0.00    -0.362 N 
ATOM     14  H   UNL     1       9.038 -10.712   1.404  1.00  0.00     0.166 HD
BRANCH  13  15
ATOM     15  C   UNL     1       9.475  -9.824   3.190  1.00  0.00     0.083 C 
BRANCH  15  16
ATOM     16  C   UNL     1      10.737  -9.664   3.610  1.00  0.00     0.027 C 
BRANCH  16  17
ATOM     17  C   UNL     1      11.239 -10.366   4.801  1.00  0.00    -0.003 A 
ATOM     18  C   UNL     1      12.156 -11.428   4.720  1.00  0.00    -0.041 A 
ATOM     19  C   UNL     1      10.785 -10.022   6.083  1.00  0.00     0.119 A 
ATOM     20  C   UNL     1      12.564 -12.059   5.905  1.00  0.00     0.024 A 
ATOM     21  N   UNL     1      11.181 -10.607   7.238  1.00  0.00    -0.264 NA
ATOM     22  C   UNL     1      12.067 -11.612   7.119  1.00  0.00     0.111 A 
ATOM     23  C   UNL     1      12.684 -11.937   3.408  1.00  0.00     0.045 C 
ENDBRANCH  16  17
ENDBRANCH  15  16
ENDBRANCH  13  15
ENDBRANCH   4  13
TORSDOF 8
ENDMDL
MODEL 7
REMARK VINA RESULT:    -4.831      4.754      8.308
REMARK INTER + INTRA:          -7.764
REMARK INTER:                  -7.240
REMARK INTRA:                  -0.523
REMARK UNBOUND:                -0.815
REMARK SMILES Cc1ccncc1/C=C/Nc1ccc(CCCN)cc1
REMARK SMILES IDX 14 1 13 2 12 3 11 4 20 5 19 6 15 7 16 8 17 9 18 10 10 13
REMARK SMILES IDX 9 15 8 16 7 17 2 18 6 19 3 20 5 21 4 22 1 23
REMARK H PARENT 18 11 18 12 10 14
ROOT
ATOM      1  C   UNL     1       6.711  -7.395   1.402  1.00  0.00    -0.048 A 
ATOM      2  C   UNL     1       6.041  -8.587   1.681  1.00  0.00     0.006 A 
ATOM      3  C   UNL     1       6.671  -9.815   1.500  1.00  0.00     0.026 A 
ATOM      4  C   UNL     1       7.957  -9.906   0.963  1.00  0.00     0.038 A 
ATOM      5  C   UNL     1       8.609  -8.713   0.629  1.00  0.00     0.026 A 
ATOM      6  C   UNL     1       7.994  -7.471   0.845  1.00  0.00     0.006 A 
ENDROOT
BRANCH   1   7
ATOM      7  C   UNL     1       6.076  -6.057   1.689  1.00  0.00     0.037 C 
BRANCH   7   8
ATOM      8  C   UNL     1       6.508  -4.880   0.793  1.00  0.00     0.020 C 
BRANCH   8   9
ATOM      9  C   UNL     1       6.183  -3.476   1.324  1.00  0.00     0.078 C 
BRANCH   9  10
ATOM     10  N   UNL     1       6.804  -2.382   0.590  1.00  0.00    -0.330 NA
ATOM     11  H   UNL     1       7.767  -2.620   0.357  1.00  0.00     0.118 HD
ATOM     12  H   UNL     1       6.863  -1.552   1.180  1.00  0.00     0.118 HD
ENDBRANCH   9  10
ENDBRANCH   8   9
ENDBRANCH   7   8
ENDBRANCH   1   7
BRANCH   4  13
ATOM     13  N   UNL     1       8.554 -11.146   0.666  1.00  0.00    -0.362 N 
ATOM     14  H   UNL     1       9.534 -11.247   0.901  1.00  0.00     0.166 HD
BRANCH  13  15
ATOM     15  C   UNL     1       7.998 -12.111  -0.132  1.00  0.00     0.083 C 
BRANCH  15  16
ATOM     16  C   UNL     1       8.542 -12.775  -1.160  1.00  0.00     0.027 C 
BRANCH  16  17
ATOM     17  C   UNL     1       9.352 -13.984  -0.944  1.00  0.00    -0.003 A 
ATOM     18  C   UNL     1       9.788 -14.799  -2.003  1.00  0.00    -0.041 A 
ATOM     19  C   UNL     1       9.695 -14.398   0.352  1.00  0.00     0.119 A 
ATOM     20  C   UNL     1      10.537 -15.948  -1.706  1.00  0.00     0.024 A 
ATOM     21  N   UNL     1      10.431 -15.492   0.656  1.00  0.00    -0.264 NA
ATOM     22  C   UNL     1      10.838 -16.241  -0.385  1.00  0.00     0.111 A 
ATOM     23  C   UNL     1       9.448 -14.505  -3.437  1.00  0.00     0.045 C 
ENDBRANCH  16  17
ENDBRANCH  15  16
ENDBRANCH  13  15
ENDBRANCH   4  13
TORSDOF 8
ENDMDL
MODEL 8
REMARK VINA RESULT:    -4.804      4.760      8.350
REMARK INTER + INTRA:          -7.725
REMARK INTER:                  -7.177
REMARK INTRA:                  -0.548
REMARK UNBOUND:                -0.815
REMARK SMILES Cc1ccncc1/C=C/Nc1ccc(CCCN)cc1
REMARK SMILES IDX 14 1 13 2 12 3 11 4 20 5 19 6 15 7 16 8 17 9 18 10 10 13
REMARK SMILES IDX 9 15 8 16 7 17 2 18 6 19 3 20 5 21 4 22 1 23
REMARK H PARENT 18 11 18 12 10 14
ROOT
ATOM      1  C   UNL     1       6.579  -7.027   1.334  1.00  0.00    -0.048 A 
ATOM      2  C   UNL     1       5.928  -8.228   1.625  1.00  0.00     0.006 A 
ATOM      3  C   UNL     1       6.596  -9.444   1.512  1.00  0.00     0.026 A 
ATOM      4  C   UNL     1       7.906  -9.517   1.034  1.00  0.00     0.038 A 
ATOM      5  C   UNL     1       8.541  -8.318   0.688  1.00  0.00     0.026 A 
ATOM      6  C   UNL     1       7.886  -7.087   0.836  1.00  0.00     0.006 A 
ENDROOT
BRANCH   1   7
ATOM      7  C   UNL     1       5.898  -5.698   1.549  1.00  0.00     0.037 C 
BRANCH   7   8
ATOM      8  C   UNL     1       6.300  -4.554   0.599  1.00  0.00     0.020 C 
BRANCH   8   9
ATOM      9  C   UNL     1       6.735  -3.243   1.270  1.00  0.00     0.078 C 
BRANCH   9  10
ATOM     10  N   UNL     1       5.645  -2.398   1.736  1.00  0.00    -0.330 NA
ATOM     11  H   UNL     1       5.977  -1.445   1.877  1.00  0.00     0.118 HD
ATOM     12  H   UNL     1       5.322  -2.714   2.651  1.00  0.00     0.118 HD
ENDBRANCH   9  10
ENDBRANCH   8   9
ENDBRANCH   7   8
ENDBRANCH   1   7
BRANCH   4  13
ATOM     13  N   UNL     1       8.547 -10.750   0.804  1.00  0.00    -0.362 N 
ATOM     14  H   UNL     1       9.434 -10.894   1.271  1.00  0.00     0.166 HD
BRANCH  13  15
ATOM     15  C   UNL     1       8.202 -11.640  -0.178  1.00  0.00     0.083 C 
BRANCH  15  16
ATOM     16  C   UNL     1       8.306 -12.975  -0.183  1.00  0.00     0.027 C 
BRANCH  16  17
ATOM     17  C   UNL     1       9.088 -13.675  -1.214  1.00  0.00    -0.003 A 
ATOM     18  C   UNL     1      10.010 -14.690  -0.901  1.00  0.00    -0.041 A 
ATOM     19  C   UNL     1       8.971 -13.325  -2.567  1.00  0.00     0.119 A 
ATOM     20  C   UNL     1      10.732 -15.289  -1.944  1.00  0.00     0.024 A 
ATOM     21  N   UNL     1       9.647 -13.904  -3.587  1.00  0.00    -0.264 NA
ATOM     22  C   UNL     1      10.512 -14.877  -3.249  1.00  0.00     0.111 A 
ATOM     23  C   UNL     1      10.275 -15.128   0.512  1.00  0.00     0.045 C 
ENDBRANCH  16  17
ENDBRANCH  15  16
ENDBRANCH  13  15
ENDBRANCH   4  13
TORSDOF 8
ENDMDL
MODEL 9
REMARK VINA RESULT:    -4.789      2.451      8.405
REMARK INTER + INTRA:          -7.703
REMARK INTER:                  -7.164
REMARK INTRA:                  -0.538
REMARK UNBOUND:                -0.815
REMARK SMILES Cc1ccncc1/C=C/Nc1ccc(CCCN)cc1
REMARK SMILES IDX 14 1 13 2 12 3 11 4 20 5 19 6 15 7 16 8 17 9 18 10 10 13
REMARK SMILES IDX 9 15 8 16 7 17 2 18 6 19 3 20 5 21 4 22 1 23
REMARK H PARENT 18 11 18 12 10 14
ROOT
ATOM      1  C   UNL     1       6.598  -6.720   0.347  1.00  0.00    -0.048 A 
ATOM      2  C   UNL     1       6.074  -7.801   1.059  1.00  0.00     0.006 A 
ATOM      3  C   UNL     1       6.915  -8.759   1.618  1.00  0.00     0.026 A 
ATOM      4  C   UNL     1       8.298  -8.721   1.425  1.00  0.00     0.038 A 
ATOM      5  C   UNL     1       8.820  -7.669   0.663  1.00  0.00     0.026 A 
ATOM      6  C   UNL     1       7.980  -6.679   0.130  1.00  0.00     0.006 A 
ENDROOT
BRANCH   1   7
ATOM      7  C   UNL     1       5.705  -5.623  -0.176  1.00  0.00     0.037 C 
BRANCH   7   8
ATOM      8  C   UNL     1       5.280  -4.537   0.832  1.00  0.00     0.020 C 
BRANCH   8   9
ATOM      9  C   UNL     1       6.402  -3.627   1.353  1.00  0.00     0.078 C 
BRANCH   9  10
ATOM     10  N   UNL     1       6.659  -2.442   0.547  1.00  0.00    -0.330 NA
ATOM     11  H   UNL     1       5.786  -1.947   0.368  1.00  0.00     0.118 HD
ATOM     12  H   UNL     1       7.013  -2.712  -0.372  1.00  0.00     0.118 HD
ENDBRANCH   9  10
ENDBRANCH   8   9
ENDBRANCH   7   8
ENDBRANCH   1   7
BRANCH   4  13
ATOM     13  N   UNL     1       9.142  -9.749   1.885  1.00  0.00    -0.362 N 
ATOM     14  H   UNL     1       9.288 -10.531   1.259  1.00  0.00     0.166 HD
BRANCH  13  15
ATOM     15  C   UNL     1       9.563  -9.895   3.181  1.00  0.00     0.083 C 
BRANCH  15  16
ATOM     16  C   UNL     1      10.769  -9.654   3.711  1.00  0.00     0.027 C 
BRANCH  16  17
ATOM     17  C   UNL     1      11.626 -10.751   4.185  1.00  0.00    -0.003 A 
ATOM     18  C   UNL     1      11.807 -11.030   5.551  1.00  0.00    -0.041 A 
ATOM     19  C   UNL     1      12.338 -11.551   3.279  1.00  0.00     0.119 A 
ATOM     20  C   UNL     1      12.662 -12.080   5.917  1.00  0.00     0.024 A 
ATOM     21  N   UNL     1      13.153 -12.579   3.614  1.00  0.00    -0.264 NA
ATOM     22  C   UNL     1      13.292 -12.821   4.930  1.00  0.00     0.111 A 
ATOM     23  C   UNL     1      11.149 -10.219   6.632  1.00  0.00     0.045 C 
ENDBRANCH  16  17
ENDBRANCH  15  16
ENDBRANCH  13  15
ENDBRANCH   4  13
TORSDOF 8
ENDMDL
