MODEL 1
REMARK VINA RESULT:    -5.314      0.000      0.000
REMARK INTER + INTRA:          -7.322
REMARK INTER:                  -6.556
REMARK INTRA:                  -0.766
REMARK UNBOUND:                -0.766
REMARK SMILES Cc1ccc(C(=O)c2cc(O)c(O)c([N+](=O)[O-])c2)cc1
REMARK SMILES IDX 8 1 18 2 9 3 14 4 10 5 12 6 6 7 7 8 5 9 4 10 19 11 3 12
REMARK SMILES IDX 20 13 2 14 1 15 15 16 17 17 16 18 11 19 13 21
REMARK H PARENT 11 20 13 22
ROOT
ATOM      1  C   UNL     1       2.284  -1.470   5.816  1.00  0.00     0.033 A 
ATOM      2  C   UNL     1       2.736  -2.619   5.210  1.00  0.00     0.102 A 
ATOM      3  C   UNL     1       1.556  -0.512   5.151  1.00  0.00     0.063 A 
ATOM      4  C   UNL     1       2.441  -2.823   3.862  1.00  0.00     0.315 A 
ATOM      5  C   UNL     1       1.261  -0.715   3.802  1.00  0.00     0.165 A 
ATOM      6  C   UNL     1       1.703  -1.871   3.158  1.00  0.00     0.237 A 
ENDROOT
BRANCH   1   7
ATOM      7  C   UNL     1       2.601  -1.251   7.260  1.00  0.00     0.193 C 
ATOM      8  O   UNL     1       1.722  -0.727   7.961  1.00  0.00    -0.289 OA
BRANCH   7   9
ATOM      9  C   UNL     1       3.878  -1.628   7.844  1.00  0.00     0.023 A 
ATOM     10  C   UNL     1       4.899  -0.684   7.958  1.00  0.00     0.012 A 
ATOM     11  C   UNL     1       4.082  -2.933   8.291  1.00  0.00     0.012 A 
ATOM     12  C   UNL     1       6.123  -1.046   8.518  1.00  0.00     0.004 A 
ATOM     13  C   UNL     1       5.308  -3.296   8.852  1.00  0.00     0.004 A 
ATOM     14  C   UNL     1       6.328  -2.352   8.966  1.00  0.00    -0.051 A 
ATOM     15  C   UNL     1       7.638  -2.738   9.563  1.00  0.00     0.044 C 
ENDBRANCH   7   9
ENDBRANCH   1   7
BRANCH   4  16
ATOM     16  N   UNL     1       2.900  -4.007   3.222  1.00  0.00     0.066 N 
ATOM     17  O   UNL     1       3.333  -3.932   2.047  1.00  0.00    -0.258 OA
ATOM     18  O   UNL     1       2.859  -5.090   3.851  1.00  0.00    -0.258 OA
ENDBRANCH   4  16
BRANCH   5  19
ATOM     19  O   UNL     1       0.540   0.223   3.127  1.00  0.00    -0.504 OA
ATOM     20  H   UNL     1       0.309   0.950   3.728  1.00  0.00     0.293 HD
ENDBRANCH   5  19
BRANCH   6  21
ATOM     21  O   UNL     1       1.408  -2.059   1.839  1.00  0.00    -0.500 OA
ATOM     22  H   UNL     1       2.192  -1.872   1.299  1.00  0.00     0.294 HD
ENDBRANCH   6  21
TORSDOF 5
ENDMDL
MODEL 2
REMARK VINA RESULT:    -5.233      2.049      3.540
REMARK INTER + INTRA:          -7.222
REMARK INTER:                  -6.429
REMARK INTRA:                  -0.793
REMARK UNBOUND:                -0.766
REMARK SMILES Cc1ccc(C(=O)c2cc(O)c(O)c([N+](=O)[O-])c2)cc1
REMARK SMILES IDX 8 1 18 2 9 3 14 4 10 5 12 6 6 7 7 8 5 9 4 10 19 11 3 12
REMARK SMILES IDX 20 13 2 14 1 15 15 16 17 17 16 18 11 19 13 21
REMARK H PARENT 11 20 13 22
ROOT
ATOM      1  C   UNL     1       3.869  -2.043   5.071  1.00  0.00     0.033 A 
ATOM      2  C   UNL     1       3.082  -0.928   4.901  1.00  0.00     0.102 A 
ATOM      3  C   UNL     1       3.806  -3.135   4.239  1.00  0.00     0.063 A 
ATOM      4  C   UNL     1       2.181  -0.904   3.836  1.00  0.00     0.315 A 
ATOM      5  C   UNL     1       2.905  -3.112   3.174  1.00  0.00     0.165 A 
ATOM      6  C   UNL     1       2.092  -1.995   2.972  1.00  0.00     0.237 A 
ENDROOT
BRANCH   1   7
ATOM      7  C   UNL     1       4.833  -2.069   6.212  1.00  0.00     0.193 C 
ATOM      8  O   UNL     1       5.961  -2.537   5.992  1.00  0.00    -0.289 OA
BRANCH   7   9
ATOM      9  C   UNL     1       4.490  -1.574   7.535  1.00  0.00     0.023 A 
ATOM     10  C   UNL     1       3.998  -2.450   8.502  1.00  0.00     0.012 A 
ATOM     11  C   UNL     1       4.653  -0.222   7.837  1.00  0.00     0.012 A 
ATOM     12  C   UNL     1       3.669  -1.974   9.771  1.00  0.00     0.004 A 
ATOM     13  C   UNL     1       4.324   0.255   9.107  1.00  0.00     0.004 A 
ATOM     14  C   UNL     1       3.832  -0.622  10.074  1.00  0.00    -0.051 A 
ATOM     15  C   UNL     1       3.479  -0.113  11.430  1.00  0.00     0.044 C 
ENDBRANCH   7   9
ENDBRANCH   1   7
BRANCH   4  16
ATOM     16  N   UNL     1       1.362   0.243   3.646  1.00  0.00     0.066 N 
ATOM     17  O   UNL     1       1.850   1.379   3.858  1.00  0.00    -0.258 OA
ATOM     18  O   UNL     1       0.176   0.085   3.272  1.00  0.00    -0.258 OA
ENDBRANCH   4  16
BRANCH   5  19
ATOM     19  O   UNL     1       2.829  -4.185   2.338  1.00  0.00    -0.504 OA
ATOM     20  H   UNL     1       2.067  -4.082   1.744  1.00  0.00     0.293 HD
ENDBRANCH   5  19
BRANCH   6  21
ATOM     21  O   UNL     1       1.215  -1.983   1.927  1.00  0.00    -0.500 OA
ATOM     22  H   UNL     1       0.888  -1.081   1.786  1.00  0.00     0.294 HD
ENDBRANCH   6  21
TORSDOF 5
ENDMDL
MODEL 3
REMARK VINA RESULT:    -4.449      3.538      7.063
REMARK INTER + INTRA:          -6.255
REMARK INTER:                  -5.364
REMARK INTRA:                  -0.891
REMARK UNBOUND:                -0.766
REMARK SMILES Cc1ccc(C(=O)c2cc(O)c(O)c([N+](=O)[O-])c2)cc1
REMARK SMILES IDX 8 1 18 2 9 3 14 4 10 5 12 6 6 7 7 8 5 9 4 10 19 11 3 12
REMARK SMILES IDX 20 13 2 14 1 15 15 16 17 17 16 18 11 19 13 21
REMARK H PARENT 11 20 13 22
ROOT
ATOM      1  C   UNL     1       4.443  -2.490   8.377  1.00  0.00     0.033 A 
ATOM      2  C   UNL     1       3.985  -1.628   9.346  1.00  0.00     0.102 A 
ATOM      3  C   UNL     1       5.704  -3.037   8.401  1.00  0.00     0.063 A 
ATOM      4  C   UNL     1       4.836  -1.295  10.400  1.00  0.00     0.315 A 
ATOM      5  C   UNL     1       6.556  -2.704   9.455  1.00  0.00     0.165 A 
ATOM      6  C   UNL     1       6.122  -1.833  10.455  1.00  0.00     0.237 A 
ENDROOT
BRANCH   1   7
ATOM      7  C   UNL     1       3.532  -2.846   7.248  1.00  0.00     0.193 C 
ATOM      8  O   UNL     1       3.250  -4.045   7.101  1.00  0.00    -0.289 OA
BRANCH   7   9
ATOM      9  C   UNL     1       2.982  -1.848   6.345  1.00  0.00     0.023 A 
ATOM     10  C   UNL     1       3.763  -0.763   5.947  1.00  0.00     0.012 A 
ATOM     11  C   UNL     1       1.675  -1.976   5.876  1.00  0.00     0.012 A 
ATOM     12  C   UNL     1       3.236   0.194   5.080  1.00  0.00     0.004 A 
ATOM     13  C   UNL     1       1.148  -1.019   5.008  1.00  0.00     0.004 A 
ATOM     14  C   UNL     1       1.928   0.067   4.610  1.00  0.00    -0.051 A 
ATOM     15  C   UNL     1       1.365   1.091   3.685  1.00  0.00     0.044 C 
ENDBRANCH   7   9
ENDBRANCH   1   7
BRANCH   4  16
ATOM     16  N   UNL     1       4.376  -0.406  11.409  1.00  0.00     0.066 N 
ATOM     17  O   UNL     1       3.546   0.483  11.101  1.00  0.00    -0.258 OA
ATOM     18  O   UNL     1       4.813  -0.536  12.577  1.00  0.00    -0.258 OA
ENDBRANCH   4  16
BRANCH   5  19
ATOM     19  O   UNL     1       7.809  -3.238   9.495  1.00  0.00    -0.504 OA
ATOM     20  H   UNL     1       7.862  -3.992   8.886  1.00  0.00     0.293 HD
ENDBRANCH   5  19
BRANCH   6  21
ATOM     21  O   UNL     1       6.964  -1.515  11.480  1.00  0.00    -0.500 OA
ATOM     22  H   UNL     1       7.864  -1.397  11.138  1.00  0.00     0.294 HD
ENDBRANCH   6  21
TORSDOF 5
ENDMDL
MODEL 4
REMARK VINA RESULT:    -4.446      3.650      6.509
REMARK INTER + INTRA:          -6.251
REMARK INTER:                  -5.318
REMARK INTRA:                  -0.934
REMARK UNBOUND:                -0.766
REMARK SMILES Cc1ccc(C(=O)c2cc(O)c(O)c([N+](=O)[O-])c2)cc1
REMARK SMILES IDX 8 1 18 2 9 3 14 4 10 5 12 6 6 7 7 8 5 9 4 10 19 11 3 12
REMARK SMILES IDX 20 13 2 14 1 15 15 16 17 17 16 18 11 19 13 21
REMARK H PARENT 11 20 13 22
ROOT
ATOM      1  C   UNL     1       4.580  -0.751   8.241  1.00  0.00     0.033 A 
ATOM      2  C   UNL     1       5.710  -1.498   8.481  1.00  0.00     0.102 A 
ATOM      3  C   UNL     1       3.826  -0.194   9.246  1.00  0.00     0.063 A 
ATOM      4  C   UNL     1       6.108  -1.698   9.802  1.00  0.00     0.315 A 
ATOM      5  C   UNL     1       4.224  -0.394  10.568  1.00  0.00     0.165 A 
ATOM      6  C   UNL     1       5.366  -1.146  10.846  1.00  0.00     0.237 A 
ENDROOT
BRANCH   1   7
ATOM      7  C   UNL     1       4.152  -0.537   6.825  1.00  0.00     0.193 C 
ATOM      8  O   UNL     1       4.056   0.635   6.431  1.00  0.00    -0.289 OA
BRANCH   7   9
ATOM      9  C   UNL     1       3.856  -1.639   5.924  1.00  0.00     0.023 A 
ATOM     10  C   UNL     1       4.328  -1.614   4.612  1.00  0.00     0.012 A 
ATOM     11  C   UNL     1       3.101  -2.723   6.373  1.00  0.00     0.012 A 
ATOM     12  C   UNL     1       4.044  -2.672   3.749  1.00  0.00     0.004 A 
ATOM     13  C   UNL     1       2.817  -3.782   5.510  1.00  0.00     0.004 A 
ATOM     14  C   UNL     1       3.289  -3.756   4.197  1.00  0.00    -0.051 A 
ATOM     15  C   UNL     1       2.984  -4.886   3.273  1.00  0.00     0.044 C 
ENDBRANCH   7   9
ENDBRANCH   1   7
BRANCH   4  16
ATOM     16  N   UNL     1       7.274  -2.468  10.067  1.00  0.00     0.066 N 
ATOM     17  O   UNL     1       7.961  -2.199  11.082  1.00  0.00    -0.258 OA
ATOM     18  O   UNL     1       7.582  -3.392   9.278  1.00  0.00    -0.258 OA
ENDBRANCH   4  16
BRANCH   5  19
ATOM     19  O   UNL     1       3.489   0.151  11.577  1.00  0.00    -0.504 OA
ATOM     20  H   UNL     1       2.768   0.684  11.204  1.00  0.00     0.293 HD
ENDBRANCH   5  19
BRANCH   6  21
ATOM     21  O   UNL     1       5.745  -1.335  12.143  1.00  0.00    -0.500 OA
ATOM     22  H   UNL     1       6.713  -1.319  12.205  1.00  0.00     0.294 HD
ENDBRANCH   6  21
TORSDOF 5
ENDMDL
MODEL 5
REMARK VINA RESULT:    -4.406      3.800      7.081
REMARK INTER + INTRA:          -6.203
REMARK INTER:                  -5.218
REMARK INTRA:                  -0.985
REMARK UNBOUND:                -0.766
REMARK SMILES Cc1ccc(C(=O)c2cc(O)c(O)c([N+](=O)[O-])c2)cc1
REMARK SMILES IDX 8 1 18 2 9 3 14 4 10 5 12 6 6 7 7 8 5 9 4 10 19 11 3 12
REMARK SMILES IDX 20 13 2 14 1 15 15 16 17 17 16 18 11 19 13 21
REMARK H PARENT 11 20 13 22
ROOT
ATOM      1  C   UNL     1       4.761  -0.975   8.377  1.00  0.00     0.033 A 
ATOM      2  C   UNL     1       4.096  -0.567   9.510  1.00  0.00     0.102 A 
ATOM      3  C   UNL     1       5.971  -1.627   8.416  1.00  0.00     0.063 A 
ATOM      4  C   UNL     1       4.674  -0.827  10.752  1.00  0.00     0.315 A 
ATOM      5  C   UNL     1       6.549  -1.886   9.659  1.00  0.00     0.165 A 
ATOM      6  C   UNL     1       5.900  -1.486  10.827  1.00  0.00     0.237 A 
ENDROOT
BRANCH   1   7
ATOM      7  C   UNL     1       4.142  -0.697   7.046  1.00  0.00     0.193 C 
ATOM      8  O   UNL     1       3.880   0.485   6.776  1.00  0.00    -0.289 OA
BRANCH   7   9
ATOM      9  C   UNL     1       3.850  -1.750   6.086  1.00  0.00     0.023 A 
ATOM     10  C   UNL     1       3.080  -2.848   6.469  1.00  0.00     0.012 A 
ATOM     11  C   UNL     1       4.339  -1.662   4.783  1.00  0.00     0.012 A 
ATOM     12  C   UNL     1       2.799  -3.858   5.549  1.00  0.00     0.004 A 
ATOM     13  C   UNL     1       4.059  -2.672   3.862  1.00  0.00     0.004 A 
ATOM     14  C   UNL     1       3.289  -3.770   4.245  1.00  0.00    -0.051 A 
ATOM     15  C   UNL     1       2.990  -4.850   3.262  1.00  0.00     0.044 C 
ENDBRANCH   7   9
ENDBRANCH   1   7
BRANCH   4  16
ATOM     16  N   UNL     1       3.998  -0.411  11.932  1.00  0.00     0.066 N 
ATOM     17  O   UNL     1       4.673  -0.150  12.957  1.00  0.00    -0.258 OA
ATOM     18  O   UNL     1       2.748  -0.317  11.914  1.00  0.00    -0.258 OA
ENDBRANCH   4  16
BRANCH   5  19
ATOM     19  O   UNL     1       7.748  -2.532   9.716  1.00  0.00    -0.504 OA
ATOM     20  H   UNL     1       7.659  -3.334  10.257  1.00  0.00     0.293 HD
ENDBRANCH   5  19
BRANCH   6  21
ATOM     21  O   UNL     1       6.476  -1.746  12.037  1.00  0.00    -0.500 OA
ATOM     22  H   UNL     1       6.212  -1.066  12.676  1.00  0.00     0.294 HD
ENDBRANCH   6  21
TORSDOF 5
ENDMDL
MODEL 6
REMARK VINA RESULT:    -4.399      1.961      2.411
REMARK INTER + INTRA:          -6.193
REMARK INTER:                  -5.500
REMARK INTRA:                  -0.693
REMARK UNBOUND:                -0.766
REMARK SMILES Cc1ccc(C(=O)c2cc(O)c(O)c([N+](=O)[O-])c2)cc1
REMARK SMILES IDX 8 1 18 2 9 3 14 4 10 5 12 6 6 7 7 8 5 9 4 10 19 11 3 12
REMARK SMILES IDX 20 13 2 14 1 15 15 16 17 17 16 18 11 19 13 21
REMARK H PARENT 11 20 13 22
ROOT
ATOM      1  C   UNL     1       3.976  -1.881   5.604  1.00  0.00     0.033 A 
ATOM      2  C   UNL     1       3.872  -2.994   4.803  1.00  0.00     0.102 A 
ATOM      3  C   UNL     1       3.318  -0.704   5.334  1.00  0.00     0.063 A 
ATOM      4  C   UNL     1       3.064  -2.927   3.669  1.00  0.00     0.315 A 
ATOM      5  C   UNL     1       2.510  -0.636   4.199  1.00  0.00     0.165 A 
ATOM      6  C   UNL     1       2.383  -1.749   3.366  1.00  0.00     0.237 A 
ENDROOT
BRANCH   1   7
ATOM      7  C   UNL     1       4.841  -1.952   6.820  1.00  0.00     0.193 C 
ATOM      8  O   UNL     1       5.959  -2.475   6.692  1.00  0.00    -0.289 OA
BRANCH   7   9
ATOM      9  C   UNL     1       4.416  -1.437   8.111  1.00  0.00     0.023 A 
ATOM     10  C   UNL     1       4.576  -0.083   8.409  1.00  0.00     0.012 A 
ATOM     11  C   UNL     1       3.849  -2.295   9.052  1.00  0.00     0.012 A 
ATOM     12  C   UNL     1       4.167   0.411   9.647  1.00  0.00     0.004 A 
ATOM     13  C   UNL     1       3.440  -1.801  10.292  1.00  0.00     0.004 A 
ATOM     14  C   UNL     1       3.599  -0.448  10.589  1.00  0.00    -0.051 A 
ATOM     15  C   UNL     1       3.165   0.081  11.914  1.00  0.00     0.044 C 
ENDBRANCH   7   9
ENDBRANCH   1   7
BRANCH   4  16
ATOM     16  N   UNL     1       2.947  -4.071   2.832  1.00  0.00     0.066 N 
ATOM     17  O   UNL     1       2.517  -5.141   3.325  1.00  0.00    -0.258 OA
ATOM     18  O   UNL     1       3.276  -3.976   1.626  1.00  0.00    -0.258 OA
ENDBRANCH   4  16
BRANCH   5  19
ATOM     19  O   UNL     1       1.850   0.522   3.916  1.00  0.00    -0.504 OA
ATOM     20  H   UNL     1       1.147   0.663   4.570  1.00  0.00     0.293 HD
ENDBRANCH   5  19
BRANCH   6  21
ATOM     21  O   UNL     1       1.589  -1.671   2.258  1.00  0.00    -0.500 OA
ATOM     22  H   UNL     1       0.657  -1.674   2.525  1.00  0.00     0.294 HD
ENDBRANCH   6  21
TORSDOF 5
ENDMDL
MODEL 7
REMARK VINA RESULT:    -4.388      1.253      2.919
REMARK INTER + INTRA:          -6.179
REMARK INTER:                  -5.486
REMARK INTRA:                  -0.693
REMARK UNBOUND:                -0.766
REMARK SMILES Cc1ccc(C(=O)c2cc(O)c(O)c([N+](=O)[O-])c2)cc1
REMARK SMILES IDX 8 1 18 2 9 3 14 4 10 5 12 6 6 7 7 8 5 9 4 10 19 11 3 12
REMARK SMILES IDX 20 13 2 14 1 15 15 16 17 17 16 18 11 19 13 21
REMARK H PARENT 11 20 13 22
ROOT
ATOM      1  C   UNL     1       2.675  -1.574   6.206  1.00  0.00     0.033 A 
ATOM      2  C   UNL     1       2.055  -0.563   5.509  1.00  0.00     0.102 A 
ATOM      3  C   UNL     1       2.943  -2.805   5.656  1.00  0.00     0.063 A 
ATOM      4  C   UNL     1       1.681  -0.798   4.186  1.00  0.00     0.315 A 
ATOM      5  C   UNL     1       2.569  -3.040   4.332  1.00  0.00     0.165 A 
ATOM      6  C   UNL     1       1.938  -2.035   3.597  1.00  0.00     0.237 A 
ENDROOT
BRANCH   1   7
ATOM      7  C   UNL     1       3.075  -1.324   7.623  1.00  0.00     0.193 C 
ATOM      8  O   UNL     1       2.246  -0.767   8.359  1.00  0.00    -0.289 OA
BRANCH   7   9
ATOM      9  C   UNL     1       4.377  -1.707   8.146  1.00  0.00     0.023 A 
ATOM     10  C   UNL     1       4.590  -3.008   8.601  1.00  0.00     0.012 A 
ATOM     11  C   UNL     1       5.413  -0.774   8.192  1.00  0.00     0.012 A 
ATOM     12  C   UNL     1       5.839  -3.376   9.102  1.00  0.00     0.004 A 
ATOM     13  C   UNL     1       6.662  -1.142   8.692  1.00  0.00     0.004 A 
ATOM     14  C   UNL     1       6.875  -2.443   9.148  1.00  0.00    -0.051 A 
ATOM     15  C   UNL     1       8.209  -2.836   9.684  1.00  0.00     0.044 C 
ENDBRANCH   7   9
ENDBRANCH   1   7
BRANCH   4  16
ATOM     16  N   UNL     1       1.039   0.238   3.452  1.00  0.00     0.066 N 
ATOM     17  O   UNL     1      -0.099   0.023   2.970  1.00  0.00    -0.258 OA
ATOM     18  O   UNL     1       1.629   1.334   3.309  1.00  0.00    -0.258 OA
ENDBRANCH   4  16
BRANCH   5  19
ATOM     19  O   UNL     1       2.827  -4.254   3.770  1.00  0.00    -0.504 OA
ATOM     20  H   UNL     1       3.360  -4.134   2.967  1.00  0.00     0.293 HD
ENDBRANCH   5  19
BRANCH   6  21
ATOM     21  O   UNL     1       1.578  -2.276   2.303  1.00  0.00    -0.500 OA
ATOM     22  H   UNL     1       1.408  -3.224   2.183  1.00  0.00     0.294 HD
ENDBRANCH   6  21
TORSDOF 5
ENDMDL
MODEL 8
REMARK VINA RESULT:    -4.384      3.759      6.844
REMARK INTER + INTRA:          -6.176
REMARK INTER:                  -5.198
REMARK INTRA:                  -0.977
REMARK UNBOUND:                -0.766
REMARK SMILES Cc1ccc(C(=O)c2cc(O)c(O)c([N+](=O)[O-])c2)cc1
REMARK SMILES IDX 8 1 18 2 9 3 14 4 10 5 12 6 6 7 7 8 5 9 4 10 19 11 3 12
REMARK SMILES IDX 20 13 2 14 1 15 15 16 17 17 16 18 11 19 13 21
REMARK H PARENT 11 20 13 22
ROOT
ATOM      1  C   UNL     1       4.390  -2.115   8.657  1.00  0.00     0.033 A 
ATOM      2  C   UNL     1       5.708  -2.432   8.890  1.00  0.00     0.102 A 
ATOM      3  C   UNL     1       3.627  -1.395   9.545  1.00  0.00     0.063 A 
ATOM      4  C   UNL     1       6.296  -2.004  10.080  1.00  0.00     0.315 A 
ATOM      5  C   UNL     1       4.215  -0.967  10.735  1.00  0.00     0.165 A 
ATOM      6  C   UNL     1       5.550  -1.271  11.003  1.00  0.00     0.237 A 
ENDROOT
BRANCH   1   7
ATOM      7  C   UNL     1       3.760  -2.574   7.382  1.00  0.00     0.193 C 
ATOM      8  O   UNL     1       3.781  -3.791   7.143  1.00  0.00    -0.289 OA
BRANCH   7   9
ATOM      9  C   UNL     1       3.140  -1.653   6.443  1.00  0.00     0.023 A 
ATOM     10  C   UNL     1       3.860  -0.559   5.961  1.00  0.00     0.012 A 
ATOM     11  C   UNL     1       1.827  -1.863   6.023  1.00  0.00     0.012 A 
ATOM     12  C   UNL     1       3.265   0.324   5.060  1.00  0.00     0.004 A 
ATOM     13  C   UNL     1       1.232  -0.980   5.121  1.00  0.00     0.004 A 
ATOM     14  C   UNL     1       1.951   0.114   4.640  1.00  0.00    -0.051 A 
ATOM     15  C   UNL     1       1.316   1.059   3.678  1.00  0.00     0.044 C 
ENDBRANCH   7   9
ENDBRANCH   1   7
BRANCH   4  16
ATOM     16  N   UNL     1       7.658  -2.324  10.336  1.00  0.00     0.066 N 
ATOM     17  O   UNL     1       8.430  -2.506   9.364  1.00  0.00    -0.258 OA
ATOM     18  O   UNL     1       8.047  -2.414  11.524  1.00  0.00    -0.258 OA
ENDBRANCH   4  16
BRANCH   5  19
ATOM     19  O   UNL     1       3.474  -0.252  11.628  1.00  0.00    -0.504 OA
ATOM     20  H   UNL     1       2.820   0.286  11.151  1.00  0.00     0.293 HD
ENDBRANCH   5  19
BRANCH   6  21
ATOM     21  O   UNL     1       6.114  -0.847  12.171  1.00  0.00    -0.500 OA
ATOM     22  H   UNL     1       5.801   0.048  12.378  1.00  0.00     0.294 HD
ENDBRANCH   6  21
TORSDOF 5
ENDMDL
MODEL 9
REMARK VINA RESULT:    -4.379      2.329      4.033
REMARK INTER + INTRA:          -6.169
REMARK INTER:                  -5.211
REMARK INTRA:                  -0.958
REMARK UNBOUND:                -0.766
REMARK SMILES Cc1ccc(C(=O)c2cc(O)c(O)c([N+](=O)[O-])c2)cc1
REMARK SMILES IDX 8 1 18 2 9 3 14 4 10 5 12 6 6 7 7 8 5 9 4 10 19 11 3 12
REMARK SMILES IDX 20 13 2 14 1 15 15 16 17 17 16 18 11 19 13 21
REMARK H PARENT 11 20 13 22
ROOT
ATOM      1  C   UNL     1       4.294  -2.522   8.381  1.00  0.00     0.033 A 
ATOM      2  C   UNL     1       4.001  -1.858   7.212  1.00  0.00     0.102 A 
ATOM      3  C   UNL     1       3.888  -3.811   8.629  1.00  0.00     0.063 A 
ATOM      4  C   UNL     1       3.260  -2.524   6.235  1.00  0.00     0.315 A 
ATOM      5  C   UNL     1       3.146  -4.477   7.653  1.00  0.00     0.165 A 
ATOM      6  C   UNL     1       2.833  -3.833   6.455  1.00  0.00     0.237 A 
ENDROOT
BRANCH   1   7
ATOM      7  C   UNL     1       5.087  -1.809   9.428  1.00  0.00     0.193 C 
ATOM      8  O   UNL     1       4.495  -0.958  10.108  1.00  0.00    -0.289 OA
BRANCH   7   9
ATOM      9  C   UNL     1       6.496  -2.084   9.660  1.00  0.00     0.023 A 
ATOM     10  C   UNL     1       6.949  -2.359  10.950  1.00  0.00     0.012 A 
ATOM     11  C   UNL     1       7.394  -2.072   8.593  1.00  0.00     0.012 A 
ATOM     12  C   UNL     1       8.301  -2.623  11.172  1.00  0.00     0.004 A 
ATOM     13  C   UNL     1       8.746  -2.336   8.815  1.00  0.00     0.004 A 
ATOM     14  C   UNL     1       9.200  -2.611  10.105  1.00  0.00    -0.051 A 
ATOM     15  C   UNL     1      10.644  -2.892  10.343  1.00  0.00     0.044 C 
ENDBRANCH   7   9
ENDBRANCH   1   7
BRANCH   4  16
ATOM     16  N   UNL     1       2.950  -1.851   5.021  1.00  0.00     0.066 N 
ATOM     17  O   UNL     1       3.869  -1.260   4.404  1.00  0.00    -0.258 OA
ATOM     18  O   UNL     1       1.769  -1.869   4.604  1.00  0.00    -0.258 OA
ENDBRANCH   4  16
BRANCH   5  19
ATOM     19  O   UNL     1       2.735  -5.756   7.881  1.00  0.00    -0.504 OA
ATOM     20  H   UNL     1       2.052  -5.999   7.235  1.00  0.00     0.293 HD
ENDBRANCH   5  19
BRANCH   6  21
ATOM     21  O   UNL     1       2.108  -4.495   5.507  1.00  0.00    -0.500 OA
ATOM     22  H   UNL     1       1.203  -4.634   5.827  1.00  0.00     0.294 HD
ENDBRANCH   6  21
TORSDOF 5
ENDMDL
