MODEL 1
REMARK VINA RESULT:    -6.799      0.000      0.000
REMARK INTER + INTRA:          -8.567
REMARK INTER:                  -7.991
REMARK INTRA:                  -0.576
REMARK UNBOUND:                -0.576
REMARK SMILES O=C(O)c1cc(-c2ccc(F)cc2F)ccc1O
REMARK SMILES IDX 6 1 5 2 15 3 4 4 17 5 16 6 7 7 13 8 12 9 8 10 10 11 9 12
REMARK SMILES IDX 14 13 11 14 2 15 1 16 3 17 18 19
REMARK H PARENT 3 18 18 20
ROOT
ATOM      1  C   UNL     1       3.213  -1.751   5.541  1.00  0.00    -0.014 A 
ATOM      2  C   UNL     1       2.416  -0.700   5.090  1.00  0.00     0.028 A 
ATOM      3  C   UNL     1       3.414  -2.870   4.733  1.00  0.00     0.013 A 
ATOM      4  C   UNL     1       1.819  -0.768   3.830  1.00  0.00     0.102 A 
ATOM      5  C   UNL     1       2.020  -1.887   3.023  1.00  0.00     0.130 A 
ATOM      6  C   UNL     1       2.818  -2.939   3.475  1.00  0.00     0.048 A 
ENDROOT
BRANCH   1   7
ATOM      7  C   UNL     1       3.832  -1.682   6.847  1.00  0.00     0.018 A 
ATOM      8  C   UNL     1       4.470  -0.512   7.259  1.00  0.00     0.133 A 
ATOM      9  C   UNL     1       5.065  -0.450   8.520  1.00  0.00     0.079 A 
ATOM     10  C   UNL     1       3.788  -2.788   7.695  1.00  0.00     0.015 A 
ATOM     11  C   UNL     1       5.022  -1.556   9.367  1.00  0.00     0.126 A 
ATOM     12  C   UNL     1       4.383  -2.725   8.955  1.00  0.00     0.040 A 
ATOM     13  F   UNL     1       4.524   0.560   6.455  1.00  0.00    -0.206 F 
ATOM     14  F   UNL     1       5.593  -1.497  10.577  1.00  0.00    -0.207 F 
ENDBRANCH   1   7
BRANCH   4  15
ATOM     15  C   UNL     1       0.990   0.341   3.377  1.00  0.00     0.339 C 
ATOM     16  O   UNL     1      -0.170   0.244   2.970  1.00  0.00    -0.246 OA
BRANCH  15  17
ATOM     17  O   UNL     1       1.638   1.536   3.449  1.00  0.00    -0.478 OA
ATOM     18  H   UNL     1       1.022   2.273   3.644  1.00  0.00     0.297 HD
ENDBRANCH  15  17
ENDBRANCH   4  15
BRANCH   5  19
ATOM     19  O   UNL     1       1.446  -1.972   1.789  1.00  0.00    -0.507 OA
ATOM     20  H   UNL     1       1.154  -1.086   1.513  1.00  0.00     0.293 HD
ENDBRANCH   5  19
TORSDOF 4
ENDMDL
MODEL 2
REMARK VINA RESULT:    -6.797      1.126      1.608
REMARK INTER + INTRA:          -8.565
REMARK INTER:                  -7.985
REMARK INTRA:                  -0.580
REMARK UNBOUND:                -0.576
REMARK SMILES O=C(O)c1cc(-c2ccc(F)cc2F)ccc1O
REMARK SMILES IDX 6 1 5 2 15 3 4 4 17 5 16 6 7 7 13 8 12 9 8 10 10 11 9 12
REMARK SMILES IDX 14 13 11 14 2 15 1 16 3 17 18 19
REMARK H PARENT 3 18 18 20
ROOT
ATOM      1  C   UNL     1       3.178  -1.786   5.541  1.00  0.00    -0.014 A 
ATOM      2  C   UNL     1       2.394  -0.725   5.091  1.00  0.00     0.028 A 
ATOM      3  C   UNL     1       3.368  -2.906   4.731  1.00  0.00     0.013 A 
ATOM      4  C   UNL     1       1.799  -0.782   3.830  1.00  0.00     0.102 A 
ATOM      5  C   UNL     1       1.989  -1.902   3.020  1.00  0.00     0.130 A 
ATOM      6  C   UNL     1       2.774  -2.964   3.471  1.00  0.00     0.048 A 
ENDROOT
BRANCH   1   7
ATOM      7  C   UNL     1       3.794  -1.728   6.849  1.00  0.00     0.018 A 
ATOM      8  C   UNL     1       3.719  -2.825   7.708  1.00  0.00     0.133 A 
ATOM      9  C   UNL     1       4.314  -2.765   8.969  1.00  0.00     0.079 A 
ATOM     10  C   UNL     1       4.464  -0.573   7.250  1.00  0.00     0.015 A 
ATOM     11  C   UNL     1       4.984  -1.609   9.369  1.00  0.00     0.126 A 
ATOM     12  C   UNL     1       5.059  -0.513   8.510  1.00  0.00     0.040 A 
ATOM     13  F   UNL     1       3.076  -3.942   7.339  1.00  0.00    -0.206 F 
ATOM     14  F   UNL     1       5.555  -1.551  10.579  1.00  0.00    -0.207 F 
ENDBRANCH   1   7
BRANCH   4  15
ATOM     15  C   UNL     1       0.984   0.337   3.378  1.00  0.00     0.339 C 
ATOM     16  O   UNL     1      -0.178   0.255   2.971  1.00  0.00    -0.246 OA
BRANCH  15  17
ATOM     17  O   UNL     1       1.646   1.523   3.452  1.00  0.00    -0.478 OA
ATOM     18  H   UNL     1       1.947   1.717   4.364  1.00  0.00     0.297 HD
ENDBRANCH  15  17
ENDBRANCH   4  15
BRANCH   5  19
ATOM     19  O   UNL     1       1.417  -1.977   1.785  1.00  0.00    -0.507 OA
ATOM     20  H   UNL     1       0.696  -2.630   1.808  1.00  0.00     0.293 HD
ENDBRANCH   5  19
TORSDOF 4
ENDMDL
MODEL 3
REMARK VINA RESULT:    -6.690      1.678      3.162
REMARK INTER + INTRA:          -8.439
REMARK INTER:                  -7.712
REMARK INTRA:                  -0.727
REMARK UNBOUND:                -0.576
REMARK SMILES O=C(O)c1cc(-c2ccc(F)cc2F)ccc1O
REMARK SMILES IDX 6 1 5 2 15 3 4 4 17 5 16 6 7 7 13 8 12 9 8 10 10 11 9 12
REMARK SMILES IDX 14 13 11 14 2 15 1 16 3 17 18 19
REMARK H PARENT 3 18 18 20
ROOT
ATOM      1  C   UNL     1       3.163  -1.805   5.615  1.00  0.00    -0.014 A 
ATOM      2  C   UNL     1       3.462  -2.910   4.819  1.00  0.00     0.028 A 
ATOM      3  C   UNL     1       2.281  -0.830   5.151  1.00  0.00     0.013 A 
ATOM      4  C   UNL     1       2.878  -3.041   3.558  1.00  0.00     0.102 A 
ATOM      5  C   UNL     1       1.996  -2.066   3.094  1.00  0.00     0.130 A 
ATOM      6  C   UNL     1       1.697  -0.959   3.891  1.00  0.00     0.048 A 
ENDROOT
BRANCH   1   7
ATOM      7  C   UNL     1       3.769  -1.668   6.922  1.00  0.00     0.018 A 
ATOM      8  C   UNL     1       3.738  -2.733   7.823  1.00  0.00     0.133 A 
ATOM      9  C   UNL     1       4.323  -2.597   9.082  1.00  0.00     0.079 A 
ATOM     10  C   UNL     1       4.385  -0.469   7.279  1.00  0.00     0.015 A 
ATOM     11  C   UNL     1       4.938  -1.398   9.440  1.00  0.00     0.126 A 
ATOM     12  C   UNL     1       4.969  -0.334   8.538  1.00  0.00     0.040 A 
ATOM     13  F   UNL     1       3.148  -3.892   7.496  1.00  0.00    -0.206 F 
ATOM     14  F   UNL     1       5.500  -1.266  10.648  1.00  0.00    -0.207 F 
ENDBRANCH   1   7
BRANCH   4  15
ATOM     15  C   UNL     1       3.203  -4.203   2.743  1.00  0.00     0.339 C 
ATOM     16  O   UNL     1       3.320  -4.203   1.515  1.00  0.00    -0.246 OA
BRANCH  15  17
ATOM     17  O   UNL     1       3.374  -5.329   3.489  1.00  0.00    -0.478 OA
ATOM     18  H   UNL     1       2.577  -5.900   3.474  1.00  0.00     0.297 HD
ENDBRANCH  15  17
ENDBRANCH   4  15
BRANCH   5  19
ATOM     19  O   UNL     1       1.415  -2.175   1.866  1.00  0.00    -0.507 OA
ATOM     20  H   UNL     1       0.790  -1.440   1.744  1.00  0.00     0.293 HD
ENDBRANCH   5  19
TORSDOF 4
ENDMDL
MODEL 4
REMARK VINA RESULT:    -6.680      1.275      2.727
REMARK INTER + INTRA:          -8.428
REMARK INTER:                  -7.696
REMARK INTRA:                  -0.732
REMARK UNBOUND:                -0.576
REMARK SMILES O=C(O)c1cc(-c2ccc(F)cc2F)ccc1O
REMARK SMILES IDX 6 1 5 2 15 3 4 4 17 5 16 6 7 7 13 8 12 9 8 10 10 11 9 12
REMARK SMILES IDX 14 13 11 14 2 15 1 16 3 17 18 19
REMARK H PARENT 3 18 18 20
ROOT
ATOM      1  C   UNL     1       3.184  -1.773   5.590  1.00  0.00    -0.014 A 
ATOM      2  C   UNL     1       3.483  -2.884   4.803  1.00  0.00     0.028 A 
ATOM      3  C   UNL     1       2.297  -0.804   5.120  1.00  0.00     0.013 A 
ATOM      4  C   UNL     1       2.897  -3.028   3.546  1.00  0.00     0.102 A 
ATOM      5  C   UNL     1       2.010  -2.059   3.075  1.00  0.00     0.130 A 
ATOM      6  C   UNL     1       1.710  -0.946   3.863  1.00  0.00     0.048 A 
ENDROOT
BRANCH   1   7
ATOM      7  C   UNL     1       3.793  -1.623   6.894  1.00  0.00     0.018 A 
ATOM      8  C   UNL     1       4.429  -0.430   7.237  1.00  0.00     0.133 A 
ATOM      9  C   UNL     1       5.016  -0.290   8.495  1.00  0.00     0.079 A 
ATOM     10  C   UNL     1       3.741  -2.674   7.809  1.00  0.00     0.015 A 
ATOM     11  C   UNL     1       4.965  -1.341   9.410  1.00  0.00     0.126 A 
ATOM     12  C   UNL     1       4.327  -2.533   9.067  1.00  0.00     0.040 A 
ATOM     13  F   UNL     1       4.490   0.589   6.368  1.00  0.00    -0.206 F 
ATOM     14  F   UNL     1       5.527  -1.207  10.618  1.00  0.00    -0.207 F 
ENDBRANCH   1   7
BRANCH   4  15
ATOM     15  C   UNL     1       3.222  -4.196   2.739  1.00  0.00     0.339 C 
ATOM     16  O   UNL     1       3.318  -4.211   1.510  1.00  0.00    -0.246 OA
BRANCH  15  17
ATOM     17  O   UNL     1       3.420  -5.309   3.496  1.00  0.00    -0.478 OA
ATOM     18  H   UNL     1       4.181  -5.838   3.176  1.00  0.00     0.297 HD
ENDBRANCH  15  17
ENDBRANCH   4  15
BRANCH   5  19
ATOM     19  O   UNL     1       1.426  -2.180   1.850  1.00  0.00    -0.507 OA
ATOM     20  H   UNL     1       0.530  -2.544   1.960  1.00  0.00     0.293 HD
ENDBRANCH   5  19
TORSDOF 4
ENDMDL
MODEL 5
REMARK VINA RESULT:    -5.275      4.377      6.694
REMARK INTER + INTRA:          -6.776
REMARK INTER:                  -5.705
REMARK INTRA:                  -1.070
REMARK UNBOUND:                -0.576
REMARK SMILES O=C(O)c1cc(-c2ccc(F)cc2F)ccc1O
REMARK SMILES IDX 6 1 5 2 15 3 4 4 17 5 16 6 7 7 13 8 12 9 8 10 10 11 9 12
REMARK SMILES IDX 14 13 11 14 2 15 1 16 3 17 18 19
REMARK H PARENT 3 18 18 20
ROOT
ATOM      1  C   UNL     1       4.320  -1.484   7.969  1.00  0.00    -0.014 A 
ATOM      2  C   UNL     1       5.566  -2.086   8.140  1.00  0.00     0.028 A 
ATOM      3  C   UNL     1       3.697  -0.853   9.046  1.00  0.00     0.013 A 
ATOM      4  C   UNL     1       6.190  -2.059   9.387  1.00  0.00     0.102 A 
ATOM      5  C   UNL     1       5.567  -1.428  10.464  1.00  0.00     0.130 A 
ATOM      6  C   UNL     1       4.320  -0.825  10.294  1.00  0.00     0.048 A 
ENDROOT
BRANCH   1   7
ATOM      7  C   UNL     1       3.672  -1.513   6.675  1.00  0.00     0.018 A 
ATOM      8  C   UNL     1       3.788  -0.425   5.810  1.00  0.00     0.133 A 
ATOM      9  C   UNL     1       3.161  -0.457   4.563  1.00  0.00     0.079 A 
ATOM     10  C   UNL     1       2.932  -2.632   6.295  1.00  0.00     0.015 A 
ATOM     11  C   UNL     1       2.420  -1.576   4.184  1.00  0.00     0.126 A 
ATOM     12  C   UNL     1       2.307  -2.664   5.049  1.00  0.00     0.040 A 
ATOM     13  F   UNL     1       4.493   0.660   6.161  1.00  0.00    -0.206 F 
ATOM     14  F   UNL     1       1.819  -1.608   2.988  1.00  0.00    -0.207 F 
ENDBRANCH   1   7
BRANCH   4  15
ATOM     15  C   UNL     1       7.491  -2.694   9.544  1.00  0.00     0.339 C 
ATOM     16  O   UNL     1       8.089  -2.841  10.613  1.00  0.00    -0.246 OA
BRANCH  15  17
ATOM     17  O   UNL     1       8.004  -3.126   8.360  1.00  0.00    -0.478 OA
ATOM     18  H   UNL     1       7.582  -2.679   7.596  1.00  0.00     0.297 HD
ENDBRANCH  15  17
ENDBRANCH   4  15
BRANCH   5  19
ATOM     19  O   UNL     1       6.160  -1.390  11.691  1.00  0.00    -0.507 OA
ATOM     20  H   UNL     1       5.857  -0.595  12.165  1.00  0.00     0.293 HD
ENDBRANCH   5  19
TORSDOF 4
ENDMDL
MODEL 6
REMARK VINA RESULT:    -5.266      4.058      6.294
REMARK INTER + INTRA:          -6.765
REMARK INTER:                  -5.698
REMARK INTRA:                  -1.067
REMARK UNBOUND:                -0.576
REMARK SMILES O=C(O)c1cc(-c2ccc(F)cc2F)ccc1O
REMARK SMILES IDX 6 1 5 2 15 3 4 4 17 5 16 6 7 7 13 8 12 9 8 10 10 11 9 12
REMARK SMILES IDX 14 13 11 14 2 15 1 16 3 17 18 19
REMARK H PARENT 3 18 18 20
ROOT
ATOM      1  C   UNL     1       4.304  -1.526   7.987  1.00  0.00    -0.014 A 
ATOM      2  C   UNL     1       3.646  -0.878   9.032  1.00  0.00     0.028 A 
ATOM      3  C   UNL     1       5.556  -2.101   8.203  1.00  0.00     0.013 A 
ATOM      4  C   UNL     1       4.239  -0.804  10.292  1.00  0.00     0.102 A 
ATOM      5  C   UNL     1       5.492  -1.380  10.507  1.00  0.00     0.130 A 
ATOM      6  C   UNL     1       6.150  -2.029   9.462  1.00  0.00     0.048 A 
ENDROOT
BRANCH   1   7
ATOM      7  C   UNL     1       3.689  -1.601   6.679  1.00  0.00     0.018 A 
ATOM      8  C   UNL     1       3.791  -0.526   5.795  1.00  0.00     0.133 A 
ATOM      9  C   UNL     1       3.196  -0.603   4.535  1.00  0.00     0.079 A 
ATOM     10  C   UNL     1       2.996  -2.751   6.304  1.00  0.00     0.015 A 
ATOM     11  C   UNL     1       2.502  -1.753   4.160  1.00  0.00     0.126 A 
ATOM     12  C   UNL     1       2.403  -2.827   5.044  1.00  0.00     0.040 A 
ATOM     13  F   UNL     1       4.451   0.587   6.142  1.00  0.00    -0.206 F 
ATOM     14  F   UNL     1       1.932  -1.827   2.951  1.00  0.00    -0.207 F 
ENDBRANCH   1   7
BRANCH   4  15
ATOM     15  C   UNL     1       3.535  -0.123  11.370  1.00  0.00     0.339 C 
ATOM     16  O   UNL     1       4.002   0.120  12.485  1.00  0.00    -0.246 OA
BRANCH  15  17
ATOM     17  O   UNL     1       2.270   0.233  11.019  1.00  0.00    -0.478 OA
ATOM     18  H   UNL     1       2.256   1.059  10.492  1.00  0.00     0.297 HD
ENDBRANCH  15  17
ENDBRANCH   4  15
BRANCH   5  19
ATOM     19  O   UNL     1       6.089  -1.320  11.731  1.00  0.00    -0.507 OA
ATOM     20  H   UNL     1       6.936  -1.796  11.695  1.00  0.00     0.293 HD
ENDBRANCH   5  19
TORSDOF 4
ENDMDL
MODEL 7
REMARK VINA RESULT:    -5.260      4.579      6.842
REMARK INTER + INTRA:          -6.758
REMARK INTER:                  -5.674
REMARK INTRA:                  -1.084
REMARK UNBOUND:                -0.576
REMARK SMILES O=C(O)c1cc(-c2ccc(F)cc2F)ccc1O
REMARK SMILES IDX 6 1 5 2 15 3 4 4 17 5 16 6 7 7 13 8 12 9 8 10 10 11 9 12
REMARK SMILES IDX 14 13 11 14 2 15 1 16 3 17 18 19
REMARK H PARENT 3 18 18 20
ROOT
ATOM      1  C   UNL     1       4.276  -1.940   7.613  1.00  0.00    -0.014 A 
ATOM      2  C   UNL     1       5.487  -2.378   8.149  1.00  0.00     0.028 A 
ATOM      3  C   UNL     1       3.427  -1.136   8.373  1.00  0.00     0.013 A 
ATOM      4  C   UNL     1       5.850  -2.011   9.445  1.00  0.00     0.102 A 
ATOM      5  C   UNL     1       5.001  -1.206  10.205  1.00  0.00     0.130 A 
ATOM      6  C   UNL     1       3.789  -0.768   9.669  1.00  0.00     0.048 A 
ENDROOT
BRANCH   1   7
ATOM      7  C   UNL     1       3.898  -2.322   6.269  1.00  0.00     0.018 A 
ATOM      8  C   UNL     1       3.125  -3.464   6.056  1.00  0.00     0.133 A 
ATOM      9  C   UNL     1       2.764  -3.828   4.759  1.00  0.00     0.079 A 
ATOM     10  C   UNL     1       4.308  -1.544   5.186  1.00  0.00     0.015 A 
ATOM     11  C   UNL     1       3.174  -3.051   3.676  1.00  0.00     0.126 A 
ATOM     12  C   UNL     1       3.945  -1.909   3.890  1.00  0.00     0.040 A 
ATOM     13  F   UNL     1       2.726  -4.223   7.086  1.00  0.00    -0.206 F 
ATOM     14  F   UNL     1       2.827  -3.400   2.431  1.00  0.00    -0.207 F 
ENDBRANCH   1   7
BRANCH   4  15
ATOM     15  C   UNL     1       7.119  -2.478   9.986  1.00  0.00     0.339 C 
ATOM     16  O   UNL     1       7.588  -2.160  11.082  1.00  0.00    -0.246 OA
BRANCH  15  17
ATOM     17  O   UNL     1       7.761  -3.328   9.140  1.00  0.00    -0.478 OA
ATOM     18  H   UNL     1       8.232  -2.847   8.427  1.00  0.00     0.297 HD
ENDBRANCH  15  17
ENDBRANCH   4  15
BRANCH   5  19
ATOM     19  O   UNL     1       5.337  -0.836  11.473  1.00  0.00    -0.507 OA
ATOM     20  H   UNL     1       5.116   0.103  11.599  1.00  0.00     0.293 HD
ENDBRANCH   5  19
TORSDOF 4
ENDMDL
MODEL 8
REMARK VINA RESULT:    -4.313      5.951      8.333
REMARK INTER + INTRA:          -5.645
REMARK INTER:                  -4.983
REMARK INTRA:                  -0.662
REMARK UNBOUND:                -0.576
REMARK SMILES O=C(O)c1cc(-c2ccc(F)cc2F)ccc1O
REMARK SMILES IDX 6 1 5 2 15 3 4 4 17 5 16 6 7 7 13 8 12 9 8 10 10 11 9 12
REMARK SMILES IDX 14 13 11 14 2 15 1 16 3 17 18 19
REMARK H PARENT 3 18 18 20
ROOT
ATOM      1  C   UNL     1       3.791  -0.353  11.609  1.00  0.00    -0.014 A 
ATOM      2  C   UNL     1       4.737   0.307  12.393  1.00  0.00     0.028 A 
ATOM      3  C   UNL     1       2.491  -0.525  12.082  1.00  0.00     0.013 A 
ATOM      4  C   UNL     1       4.382   0.795  13.651  1.00  0.00     0.102 A 
ATOM      5  C   UNL     1       3.081   0.622  14.124  1.00  0.00     0.130 A 
ATOM      6  C   UNL     1       2.135  -0.038  13.339  1.00  0.00     0.048 A 
ENDROOT
BRANCH   1   7
ATOM      7  C   UNL     1       4.159  -0.860  10.304  1.00  0.00     0.018 A 
ATOM      8  C   UNL     1       5.375  -1.522  10.127  1.00  0.00     0.133 A 
ATOM      9  C   UNL     1       5.726  -2.009   8.868  1.00  0.00     0.079 A 
ATOM     10  C   UNL     1       3.295  -0.687   9.223  1.00  0.00     0.015 A 
ATOM     11  C   UNL     1       4.862  -1.835   7.787  1.00  0.00     0.126 A 
ATOM     12  C   UNL     1       3.646  -1.174   7.965  1.00  0.00     0.040 A 
ATOM     13  F   UNL     1       6.218  -1.694  11.155  1.00  0.00    -0.206 F 
ATOM     14  F   UNL     1       5.198  -2.302   6.578  1.00  0.00    -0.207 F 
ENDBRANCH   1   7
BRANCH   4  15
ATOM     15  C   UNL     1       5.383   1.481  14.455  1.00  0.00     0.339 C 
ATOM     16  O   UNL     1       5.148   2.193  15.434  1.00  0.00    -0.246 OA
BRANCH  15  17
ATOM     17  O   UNL     1       6.649   1.255  14.009  1.00  0.00    -0.478 OA
ATOM     18  H   UNL     1       7.268   1.069  14.747  1.00  0.00     0.297 HD
ENDBRANCH  15  17
ENDBRANCH   4  15
BRANCH   5  19
ATOM     19  O   UNL     1       2.714   1.091  15.350  1.00  0.00    -0.507 OA
ATOM     20  H   UNL     1       1.746   1.191  15.375  1.00  0.00     0.293 HD
ENDBRANCH   5  19
TORSDOF 4
ENDMDL
MODEL 9
REMARK VINA RESULT:    -4.276      6.289      8.609
REMARK INTER + INTRA:          -5.602
REMARK INTER:                  -4.909
REMARK INTRA:                  -0.693
REMARK UNBOUND:                -0.576
REMARK SMILES O=C(O)c1cc(-c2ccc(F)cc2F)ccc1O
REMARK SMILES IDX 6 1 5 2 15 3 4 4 17 5 16 6 7 7 13 8 12 9 8 10 10 11 9 12
REMARK SMILES IDX 14 13 11 14 2 15 1 16 3 17 18 19
REMARK H PARENT 3 18 18 20
ROOT
ATOM      1  C   UNL     1       7.452  -2.378   9.930  1.00  0.00    -0.014 A 
ATOM      2  C   UNL     1       7.479  -2.899  11.223  1.00  0.00     0.028 A 
ATOM      3  C   UNL     1       8.644  -2.185   9.231  1.00  0.00     0.013 A 
ATOM      4  C   UNL     1       8.698  -3.228  11.818  1.00  0.00     0.102 A 
ATOM      5  C   UNL     1       9.889  -3.035  11.119  1.00  0.00     0.130 A 
ATOM      6  C   UNL     1       9.862  -2.514   9.825  1.00  0.00     0.048 A 
ENDROOT
BRANCH   1   7
ATOM      7  C   UNL     1       6.189  -2.036   9.313  1.00  0.00     0.018 A 
ATOM      8  C   UNL     1       5.232  -1.315  10.029  1.00  0.00     0.133 A 
ATOM      9  C   UNL     1       4.016  -0.987   9.430  1.00  0.00     0.079 A 
ATOM     10  C   UNL     1       5.929  -2.428   8.000  1.00  0.00     0.015 A 
ATOM     11  C   UNL     1       3.756  -1.379   8.117  1.00  0.00     0.126 A 
ATOM     12  C   UNL     1       4.713  -2.099   7.402  1.00  0.00     0.040 A 
ATOM     13  F   UNL     1       5.465  -0.933  11.292  1.00  0.00    -0.206 F 
ATOM     14  F   UNL     1       2.588  -1.065   7.542  1.00  0.00    -0.207 F 
ENDBRANCH   1   7
BRANCH   4  15
ATOM     15  C   UNL     1       8.704  -3.771  13.169  1.00  0.00     0.339 C 
ATOM     16  O   UNL     1       9.596  -4.474  13.652  1.00  0.00    -0.246 OA
BRANCH  15  17
ATOM     17  O   UNL     1       7.596  -3.418  13.875  1.00  0.00    -0.478 OA
ATOM     18  H   UNL     1       7.803  -3.251  14.819  1.00  0.00     0.297 HD
ENDBRANCH  15  17
ENDBRANCH   4  15
BRANCH   5  19
ATOM     19  O   UNL     1      11.090  -3.350  11.682  1.00  0.00    -0.507 OA
ATOM     20  H   UNL     1      11.762  -2.722  11.367  1.00  0.00     0.293 HD
ENDBRANCH   5  19
TORSDOF 4
ENDMDL
