MODEL 1
REMARK VINA RESULT:    -5.275      0.000      0.000
REMARK INTER + INTRA:          -7.284
REMARK INTER:                  -6.508
REMARK INTRA:                  -0.775
REMARK UNBOUND:                -0.775
REMARK SMILES Cc1ccc(C(=O)c2cc(O)c(O)c([N+](=O)[O-])c2)cc1
REMARK SMILES IDX 8 1 18 2 9 3 14 4 10 5 12 6 6 7 7 8 5 9 4 10 19 11 3 12
REMARK SMILES IDX 20 13 2 14 1 15 15 16 17 17 16 18 11 19 13 21
REMARK H PARENT 11 20 13 22
ROOT
ATOM      1  C   UNL     1       5.514   6.053   2.890  1.00  0.00     0.033 A 
ATOM      2  C   UNL     1       5.617   4.918   3.660  1.00  0.00     0.102 A 
ATOM      3  C   UNL     1       4.602   6.185   1.871  1.00  0.00     0.063 A 
ATOM      4  C   UNL     1       4.755   3.853   3.395  1.00  0.00     0.315 A 
ATOM      5  C   UNL     1       3.741   5.119   1.605  1.00  0.00     0.165 A 
ATOM      6  C   UNL     1       3.817   3.953   2.368  1.00  0.00     0.237 A 
ENDROOT
BRANCH   1   7
ATOM      7  C   UNL     1       6.437   7.194   3.174  1.00  0.00     0.193 C 
ATOM      8  O   UNL     1       5.972   8.340   3.074  1.00  0.00    -0.289 OA
BRANCH   7   9
ATOM      9  C   UNL     1       7.826   6.997   3.554  1.00  0.00     0.023 A 
ATOM     10  C   UNL     1       8.826   7.026   2.582  1.00  0.00     0.012 A 
ATOM     11  C   UNL     1       8.159   6.780   4.891  1.00  0.00     0.012 A 
ATOM     12  C   UNL     1      10.159   6.837   2.948  1.00  0.00     0.004 A 
ATOM     13  C   UNL     1       9.493   6.591   5.257  1.00  0.00     0.004 A 
ATOM     14  C   UNL     1      10.493   6.620   4.285  1.00  0.00    -0.051 A 
ATOM     15  C   UNL     1      11.917   6.417   4.674  1.00  0.00     0.044 C 
ENDBRANCH   7   9
ENDBRANCH   1   7
BRANCH   4  16
ATOM     16  N   UNL     1       4.849   2.672   4.182  1.00  0.00     0.066 N 
ATOM     17  O   UNL     1       5.060   2.781   5.414  1.00  0.00    -0.258 OA
ATOM     18  O   UNL     1       4.717   1.559   3.623  1.00  0.00    -0.258 OA
ENDBRANCH   4  16
BRANCH   5  19
ATOM     19  O   UNL     1       2.829   5.232   0.599  1.00  0.00    -0.504 OA
ATOM     20  H   UNL     1       2.046   5.709   0.921  1.00  0.00     0.293 HD
ENDBRANCH   5  19
BRANCH   6  21
ATOM     21  O   UNL     1       2.969   2.918   2.099  1.00  0.00    -0.500 OA
ATOM     22  H   UNL     1       3.003   2.273   2.822  1.00  0.00     0.294 HD
ENDBRANCH   6  21
TORSDOF 5
ENDMDL
MODEL 2
REMARK VINA RESULT:    -5.268      2.043      3.556
REMARK INTER + INTRA:          -7.275
REMARK INTER:                  -6.516
REMARK INTRA:                  -0.759
REMARK UNBOUND:                -0.775
REMARK SMILES Cc1ccc(C(=O)c2cc(O)c(O)c([N+](=O)[O-])c2)cc1
REMARK SMILES IDX 8 1 18 2 9 3 14 4 10 5 12 6 6 7 7 8 5 9 4 10 19 11 3 12
REMARK SMILES IDX 20 13 2 14 1 15 15 16 17 17 16 18 11 19 13 21
REMARK H PARENT 11 20 13 22
ROOT
ATOM      1  C   UNL     1       6.571   4.592   2.915  1.00  0.00     0.033 A 
ATOM      2  C   UNL     1       5.785   5.277   2.018  1.00  0.00     0.102 A 
ATOM      3  C   UNL     1       6.167   3.429   3.525  1.00  0.00     0.063 A 
ATOM      4  C   UNL     1       4.523   4.768   1.712  1.00  0.00     0.315 A 
ATOM      5  C   UNL     1       4.904   2.920   3.220  1.00  0.00     0.165 A 
ATOM      6  C   UNL     1       4.082   3.590   2.313  1.00  0.00     0.237 A 
ENDROOT
BRANCH   1   7
ATOM      7  C   UNL     1       7.923   5.137   3.242  1.00  0.00     0.193 C 
ATOM      8  O   UNL     1       8.828   4.319   3.467  1.00  0.00    -0.289 OA
BRANCH   7   9
ATOM      9  C   UNL     1       8.195   6.565   3.302  1.00  0.00     0.023 A 
ATOM     10  C   UNL     1       8.160   7.231   4.527  1.00  0.00     0.012 A 
ATOM     11  C   UNL     1       8.491   7.268   2.134  1.00  0.00     0.012 A 
ATOM     12  C   UNL     1       8.421   8.600   4.583  1.00  0.00     0.004 A 
ATOM     13  C   UNL     1       8.753   8.637   2.190  1.00  0.00     0.004 A 
ATOM     14  C   UNL     1       8.718   9.304   3.415  1.00  0.00    -0.051 A 
ATOM     15  C   UNL     1       8.995  10.767   3.476  1.00  0.00     0.044 C 
ENDBRANCH   7   9
ENDBRANCH   1   7
BRANCH   4  16
ATOM     16  N   UNL     1       3.700   5.465   0.786  1.00  0.00     0.066 N 
ATOM     17  O   UNL     1       2.453   5.399   0.914  1.00  0.00    -0.258 OA
ATOM     18  O   UNL     1       4.243   6.125  -0.130  1.00  0.00    -0.258 OA
ENDBRANCH   4  16
BRANCH   5  19
ATOM     19  O   UNL     1       4.487   1.767   3.814  1.00  0.00    -0.504 OA
ATOM     20  H   UNL     1       4.077   1.188   3.150  1.00  0.00     0.293 HD
ENDBRANCH   5  19
BRANCH   6  21
ATOM     21  O   UNL     1       2.850   3.082   2.022  1.00  0.00    -0.500 OA
ATOM     22  H   UNL     1       2.251   3.230   2.771  1.00  0.00     0.294 HD
ENDBRANCH   6  21
TORSDOF 5
ENDMDL
MODEL 3
REMARK VINA RESULT:    -4.354      3.647      6.573
REMARK INTER + INTRA:          -6.147
REMARK INTER:                  -5.174
REMARK INTRA:                  -0.974
REMARK UNBOUND:                -0.775
REMARK SMILES Cc1ccc(C(=O)c2cc(O)c(O)c([N+](=O)[O-])c2)cc1
REMARK SMILES IDX 8 1 18 2 9 3 14 4 10 5 12 6 6 7 7 8 5 9 4 10 19 11 3 12
REMARK SMILES IDX 20 13 2 14 1 15 15 16 17 17 16 18 11 19 13 21
REMARK H PARENT 11 20 13 22
ROOT
ATOM      1  C   UNL     1       8.700   7.388   2.903  1.00  0.00     0.033 A 
ATOM      2  C   UNL     1       9.778   6.720   3.438  1.00  0.00     0.102 A 
ATOM      3  C   UNL     1       8.582   8.757   2.931  1.00  0.00     0.063 A 
ATOM      4  C   UNL     1      10.795   7.466   4.034  1.00  0.00     0.315 A 
ATOM      5  C   UNL     1       9.599   9.503   3.528  1.00  0.00     0.165 A 
ATOM      6  C   UNL     1      10.706   8.857   4.079  1.00  0.00     0.237 A 
ENDROOT
BRANCH   1   7
ATOM      7  C   UNL     1       7.610   6.590   2.265  1.00  0.00     0.193 C 
ATOM      8  O   UNL     1       7.290   6.890   1.105  1.00  0.00    -0.289 OA
BRANCH   7   9
ATOM      9  C   UNL     1       6.937   5.500   2.953  1.00  0.00     0.023 A 
ATOM     10  C   UNL     1       6.396   5.705   4.223  1.00  0.00     0.012 A 
ATOM     11  C   UNL     1       6.830   4.251   2.344  1.00  0.00     0.012 A 
ATOM     12  C   UNL     1       5.750   4.660   4.883  1.00  0.00     0.004 A 
ATOM     13  C   UNL     1       6.183   3.205   3.003  1.00  0.00     0.004 A 
ATOM     14  C   UNL     1       5.643   3.410   4.273  1.00  0.00    -0.051 A 
ATOM     15  C   UNL     1       4.953   2.293   4.979  1.00  0.00     0.044 C 
ENDBRANCH   7   9
ENDBRANCH   1   7
BRANCH   4  16
ATOM     16  N   UNL     1      11.916   6.790   4.591  1.00  0.00     0.066 N 
ATOM     17  O   UNL     1      13.034   7.358   4.578  1.00  0.00    -0.258 OA
ATOM     18  O   UNL     1      11.753   5.647   5.079  1.00  0.00    -0.258 OA
ENDBRANCH   4  16
BRANCH   5  19
ATOM     19  O   UNL     1       9.499  10.861   3.564  1.00  0.00    -0.504 OA
ATOM     20  H   UNL     1      10.037  11.246   2.853  1.00  0.00     0.293 HD
ENDBRANCH   5  19
BRANCH   6  21
ATOM     21  O   UNL     1      11.695   9.597   4.659  1.00  0.00    -0.500 OA
ATOM     22  H   UNL     1      12.042  10.238   4.019  1.00  0.00     0.294 HD
ENDBRANCH   6  21
TORSDOF 5
ENDMDL
MODEL 4
REMARK VINA RESULT:    -4.329      1.251      2.712
REMARK INTER + INTRA:          -6.117
REMARK INTER:                  -5.412
REMARK INTRA:                  -0.705
REMARK UNBOUND:                -0.775
REMARK SMILES Cc1ccc(C(=O)c2cc(O)c(O)c([N+](=O)[O-])c2)cc1
REMARK SMILES IDX 8 1 18 2 9 3 14 4 10 5 12 6 6 7 7 8 5 9 4 10 19 11 3 12
REMARK SMILES IDX 20 13 2 14 1 15 15 16 17 17 16 18 11 19 13 21
REMARK H PARENT 11 20 13 22
ROOT
ATOM      1  C   UNL     1       6.034   6.167   3.073  1.00  0.00     0.033 A 
ATOM      2  C   UNL     1       5.192   6.259   1.989  1.00  0.00     0.102 A 
ATOM      3  C   UNL     1       6.009   5.108   3.950  1.00  0.00     0.063 A 
ATOM      4  C   UNL     1       4.272   5.233   1.770  1.00  0.00     0.315 A 
ATOM      5  C   UNL     1       5.089   4.082   3.731  1.00  0.00     0.165 A 
ATOM      6  C   UNL     1       4.221   4.145   2.641  1.00  0.00     0.237 A 
ENDROOT
BRANCH   1   7
ATOM      7  C   UNL     1       7.019   7.266   3.308  1.00  0.00     0.193 C 
ATOM      8  O   UNL     1       6.610   8.431   3.190  1.00  0.00    -0.289 OA
BRANCH   7   9
ATOM      9  C   UNL     1       8.406   7.007   3.661  1.00  0.00     0.023 A 
ATOM     10  C   UNL     1       9.384   6.973   2.667  1.00  0.00     0.012 A 
ATOM     11  C   UNL     1       8.758   6.795   4.994  1.00  0.00     0.012 A 
ATOM     12  C   UNL     1      10.714   6.726   3.007  1.00  0.00     0.004 A 
ATOM     13  C   UNL     1      10.088   6.548   5.334  1.00  0.00     0.004 A 
ATOM     14  C   UNL     1      11.067   6.513   4.340  1.00  0.00    -0.051 A 
ATOM     15  C   UNL     1      12.488   6.247   4.702  1.00  0.00     0.044 C 
ENDBRANCH   7   9
ENDBRANCH   1   7
BRANCH   4  16
ATOM     16  N   UNL     1       3.395   5.314   0.654  1.00  0.00     0.066 N 
ATOM     17  O   UNL     1       3.886   5.408  -0.497  1.00  0.00    -0.258 OA
ATOM     18  O   UNL     1       2.158   5.289   0.853  1.00  0.00    -0.258 OA
ENDBRANCH   4  16
BRANCH   5  19
ATOM     19  O   UNL     1       5.051   3.025   4.590  1.00  0.00    -0.504 OA
ATOM     20  H   UNL     1       5.257   2.207   4.108  1.00  0.00     0.293 HD
ENDBRANCH   5  19
BRANCH   6  21
ATOM     21  O   UNL     1       3.326   3.135   2.437  1.00  0.00    -0.500 OA
ATOM     22  H   UNL     1       2.555   3.261   3.012  1.00  0.00     0.294 HD
ENDBRANCH   6  21
TORSDOF 5
ENDMDL
MODEL 5
REMARK VINA RESULT:    -4.324      3.757      7.055
REMARK INTER + INTRA:          -6.110
REMARK INTER:                  -5.143
REMARK INTRA:                  -0.968
REMARK UNBOUND:                -0.775
REMARK SMILES Cc1ccc(C(=O)c2cc(O)c(O)c([N+](=O)[O-])c2)cc1
REMARK SMILES IDX 8 1 18 2 9 3 14 4 10 5 12 6 6 7 7 8 5 9 4 10 19 11 3 12
REMARK SMILES IDX 20 13 2 14 1 15 15 16 17 17 16 18 11 19 13 21
REMARK H PARENT 11 20 13 22
ROOT
ATOM      1  C   UNL     1       8.792   7.311   3.044  1.00  0.00     0.033 A 
ATOM      2  C   UNL     1       8.742   8.681   3.149  1.00  0.00     0.102 A 
ATOM      3  C   UNL     1       9.854   6.565   3.498  1.00  0.00     0.063 A 
ATOM      4  C   UNL     1       9.816   9.344   3.745  1.00  0.00     0.315 A 
ATOM      5  C   UNL     1      10.928   7.228   4.093  1.00  0.00     0.165 A 
ATOM      6  C   UNL     1      10.909   8.618   4.217  1.00  0.00     0.237 A 
ENDROOT
BRANCH   1   7
ATOM      7  C   UNL     1       7.643   6.601   2.406  1.00  0.00     0.193 C 
ATOM      8  O   UNL     1       7.289   6.987   1.281  1.00  0.00    -0.289 OA
BRANCH   7   9
ATOM      9  C   UNL     1       6.950   5.499   3.054  1.00  0.00     0.023 A 
ATOM     10  C   UNL     1       6.394   5.674   4.322  1.00  0.00     0.012 A 
ATOM     11  C   UNL     1       6.840   4.268   2.409  1.00  0.00     0.012 A 
ATOM     12  C   UNL     1       5.729   4.618   4.944  1.00  0.00     0.004 A 
ATOM     13  C   UNL     1       6.174   3.210   3.030  1.00  0.00     0.004 A 
ATOM     14  C   UNL     1       5.619   3.385   4.298  1.00  0.00    -0.051 A 
ATOM     15  C   UNL     1       4.909   2.256   4.964  1.00  0.00     0.044 C 
ENDBRANCH   7   9
ENDBRANCH   1   7
BRANCH   4  16
ATOM     16  N   UNL     1       9.778  10.760   3.861  1.00  0.00     0.066 N 
ATOM     17  O   UNL     1      10.860  11.395   3.894  1.00  0.00    -0.258 OA
ATOM     18  O   UNL     1       8.666  11.334   3.928  1.00  0.00    -0.258 OA
ENDBRANCH   4  16
BRANCH   5  19
ATOM     19  O   UNL     1      11.989   6.505   4.551  1.00  0.00    -0.504 OA
ATOM     20  H   UNL     1      12.786   7.060   4.548  1.00  0.00     0.293 HD
ENDBRANCH   5  19
BRANCH   6  21
ATOM     21  O   UNL     1      11.965   9.254   4.802  1.00  0.00    -0.500 OA
ATOM     22  H   UNL     1      11.685   9.641   5.646  1.00  0.00     0.294 HD
ENDBRANCH   6  21
TORSDOF 5
ENDMDL
MODEL 6
REMARK VINA RESULT:    -4.320      3.484      7.076
REMARK INTER + INTRA:          -6.105
REMARK INTER:                  -5.180
REMARK INTRA:                  -0.925
REMARK UNBOUND:                -0.775
REMARK SMILES Cc1ccc(C(=O)c2cc(O)c(O)c([N+](=O)[O-])c2)cc1
REMARK SMILES IDX 8 1 18 2 9 3 14 4 10 5 12 6 6 7 7 8 5 9 4 10 19 11 3 12
REMARK SMILES IDX 20 13 2 14 1 15 15 16 17 17 16 18 11 19 13 21
REMARK H PARENT 11 20 13 22
ROOT
ATOM      1  C   UNL     1       8.488   6.962   4.356  1.00  0.00     0.033 A 
ATOM      2  C   UNL     1       8.403   8.289   4.002  1.00  0.00     0.102 A 
ATOM      3  C   UNL     1       9.677   6.351   4.676  1.00  0.00     0.063 A 
ATOM      4  C   UNL     1       9.573   9.047   3.968  1.00  0.00     0.315 A 
ATOM      5  C   UNL     1      10.848   7.108   4.641  1.00  0.00     0.165 A 
ATOM      6  C   UNL     1      10.796   8.457   4.287  1.00  0.00     0.237 A 
ENDROOT
BRANCH   1   7
ATOM      7  C   UNL     1       7.234   6.151   4.393  1.00  0.00     0.193 C 
ATOM      8  O   UNL     1       6.972   5.557   5.450  1.00  0.00    -0.289 OA
BRANCH   7   9
ATOM      9  C   UNL     1       6.341   6.044   3.251  1.00  0.00     0.023 A 
ATOM     10  C   UNL     1       6.862   5.819   1.977  1.00  0.00     0.012 A 
ATOM     11  C   UNL     1       4.963   6.165   3.430  1.00  0.00     0.012 A 
ATOM     12  C   UNL     1       6.004   5.716   0.882  1.00  0.00     0.004 A 
ATOM     13  C   UNL     1       4.105   6.062   2.335  1.00  0.00     0.004 A 
ATOM     14  C   UNL     1       4.625   5.837   1.060  1.00  0.00    -0.051 A 
ATOM     15  C   UNL     1       3.710   5.729  -0.111  1.00  0.00     0.044 C 
ENDBRANCH   7   9
ENDBRANCH   1   7
BRANCH   4  16
ATOM     16  N   UNL     1       9.500  10.420   3.604  1.00  0.00     0.066 N 
ATOM     17  O   UNL     1      10.330  11.222   4.096  1.00  0.00    -0.258 OA
ATOM     18  O   UNL     1       8.610  10.788   2.802  1.00  0.00    -0.258 OA
ENDBRANCH   4  16
BRANCH   5  19
ATOM     19  O   UNL     1      12.035   6.519   4.956  1.00  0.00    -0.504 OA
ATOM     20  H   UNL     1      12.014   6.217   5.879  1.00  0.00     0.293 HD
ENDBRANCH   5  19
BRANCH   6  21
ATOM     21  O   UNL     1      11.948   9.188   4.257  1.00  0.00    -0.500 OA
ATOM     22  H   UNL     1      12.710   8.599   4.370  1.00  0.00     0.294 HD
ENDBRANCH   6  21
TORSDOF 5
ENDMDL
MODEL 7
REMARK VINA RESULT:    -4.295      3.862      7.127
REMARK INTER + INTRA:          -6.075
REMARK INTER:                  -5.378
REMARK INTRA:                  -0.696
REMARK UNBOUND:                -0.775
REMARK SMILES Cc1ccc(C(=O)c2cc(O)c(O)c([N+](=O)[O-])c2)cc1
REMARK SMILES IDX 8 1 18 2 9 3 14 4 10 5 12 6 6 7 7 8 5 9 4 10 19 11 3 12
REMARK SMILES IDX 20 13 2 14 1 15 15 16 17 17 16 18 11 19 13 21
REMARK H PARENT 11 20 13 22
ROOT
ATOM      1  C   UNL     1       8.851   7.545   3.622  1.00  0.00     0.033 A 
ATOM      2  C   UNL     1      10.152   7.524   4.069  1.00  0.00     0.102 A 
ATOM      3  C   UNL     1       8.190   8.708   3.303  1.00  0.00     0.063 A 
ATOM      4  C   UNL     1      10.831   8.735   4.203  1.00  0.00     0.315 A 
ATOM      5  C   UNL     1       8.869   9.919   3.438  1.00  0.00     0.165 A 
ATOM      6  C   UNL     1      10.190   9.932   3.888  1.00  0.00     0.237 A 
ENDROOT
BRANCH   1   7
ATOM      7  C   UNL     1       8.123   6.248   3.479  1.00  0.00     0.193 C 
ATOM      8  O   UNL     1       8.568   5.274   4.104  1.00  0.00    -0.289 OA
BRANCH   7   9
ATOM      9  C   UNL     1       6.939   6.106   2.646  1.00  0.00     0.023 A 
ATOM     10  C   UNL     1       5.670   6.227   3.213  1.00  0.00     0.012 A 
ATOM     11  C   UNL     1       7.072   5.851   1.282  1.00  0.00     0.012 A 
ATOM     12  C   UNL     1       4.535   6.091   2.414  1.00  0.00     0.004 A 
ATOM     13  C   UNL     1       5.936   5.715   0.482  1.00  0.00     0.004 A 
ATOM     14  C   UNL     1       4.667   5.835   1.049  1.00  0.00    -0.051 A 
ATOM     15  C   UNL     1       3.453   5.689   0.196  1.00  0.00     0.044 C 
ENDBRANCH   7   9
ENDBRANCH   1   7
BRANCH   4  16
ATOM     16  N   UNL     1      12.176   8.728   4.664  1.00  0.00     0.066 N 
ATOM     17  O   UNL     1      12.706   9.814   5.001  1.00  0.00    -0.258 OA
ATOM     18  O   UNL     1      12.792   7.638   4.721  1.00  0.00    -0.258 OA
ENDBRANCH   4  16
BRANCH   5  19
ATOM     19  O   UNL     1       8.231  11.082   3.125  1.00  0.00    -0.504 OA
ATOM     20  H   UNL     1       7.479  10.893   2.540  1.00  0.00     0.293 HD
ENDBRANCH   5  19
BRANCH   6  21
ATOM     21  O   UNL     1      10.844  11.123   4.015  1.00  0.00    -0.500 OA
ATOM     22  H   UNL     1      10.720  11.651   3.210  1.00  0.00     0.294 HD
ENDBRANCH   6  21
TORSDOF 5
ENDMDL
MODEL 8
REMARK VINA RESULT:    -4.289      1.914      2.280
REMARK INTER + INTRA:          -6.067
REMARK INTER:                  -5.364
REMARK INTRA:                  -0.703
REMARK UNBOUND:                -0.775
REMARK SMILES Cc1ccc(C(=O)c2cc(O)c(O)c([N+](=O)[O-])c2)cc1
REMARK SMILES IDX 8 1 18 2 9 3 14 4 10 5 12 6 6 7 7 8 5 9 4 10 19 11 3 12
REMARK SMILES IDX 20 13 2 14 1 15 15 16 17 17 16 18 11 19 13 21
REMARK H PARENT 11 20 13 22
ROOT
ATOM      1  C   UNL     1       6.836   4.931   2.994  1.00  0.00     0.033 A 
ATOM      2  C   UNL     1       6.406   3.863   3.747  1.00  0.00     0.102 A 
ATOM      3  C   UNL     1       6.100   5.460   1.961  1.00  0.00     0.063 A 
ATOM      4  C   UNL     1       5.168   3.293   3.449  1.00  0.00     0.315 A 
ATOM      5  C   UNL     1       4.862   4.890   1.662  1.00  0.00     0.165 A 
ATOM      6  C   UNL     1       4.396   3.806   2.407  1.00  0.00     0.237 A 
ENDROOT
BRANCH   1   7
ATOM      7  C   UNL     1       8.161   5.542   3.313  1.00  0.00     0.193 C 
ATOM      8  O   UNL     1       9.106   4.769   3.533  1.00  0.00    -0.289 OA
BRANCH   7   9
ATOM      9  C   UNL     1       8.363   6.981   3.369  1.00  0.00     0.023 A 
ATOM     10  C   UNL     1       8.650   7.692   2.204  1.00  0.00     0.012 A 
ATOM     11  C   UNL     1       8.270   7.651   4.589  1.00  0.00     0.012 A 
ATOM     12  C   UNL     1       8.844   9.072   2.258  1.00  0.00     0.004 A 
ATOM     13  C   UNL     1       8.463   9.032   4.644  1.00  0.00     0.004 A 
ATOM     14  C   UNL     1       8.750   9.743   3.478  1.00  0.00    -0.051 A 
ATOM     15  C   UNL     1       8.958  11.218   3.536  1.00  0.00     0.044 C 
ENDBRANCH   7   9
ENDBRANCH   1   7
BRANCH   4  16
ATOM     16  N   UNL     1       4.710   2.188   4.219  1.00  0.00     0.066 N 
ATOM     17  O   UNL     1       4.561   2.332   5.456  1.00  0.00    -0.258 OA
ATOM     18  O   UNL     1       4.468   1.104   3.638  1.00  0.00    -0.258 OA
ENDBRANCH   4  16
BRANCH   5  19
ATOM     19  O   UNL     1       4.119   5.401   0.641  1.00  0.00    -0.504 OA
ATOM     20  H   UNL     1       3.174   5.293   0.841  1.00  0.00     0.293 HD
ENDBRANCH   5  19
BRANCH   6  21
ATOM     21  O   UNL     1       3.184   3.256   2.106  1.00  0.00    -0.500 OA
ATOM     22  H   UNL     1       2.636   3.216   2.905  1.00  0.00     0.294 HD
ENDBRANCH   6  21
TORSDOF 5
ENDMDL
MODEL 9
REMARK VINA RESULT:    -4.268      3.556      4.430
REMARK INTER + INTRA:          -6.041
REMARK INTER:                  -5.041
REMARK INTRA:                  -1.000
REMARK UNBOUND:                -0.775
REMARK SMILES Cc1ccc(C(=O)c2cc(O)c(O)c([N+](=O)[O-])c2)cc1
REMARK SMILES IDX 8 1 18 2 9 3 14 4 10 5 12 6 6 7 7 8 5 9 4 10 19 11 3 12
REMARK SMILES IDX 20 13 2 14 1 15 15 16 17 17 16 18 11 19 13 21
REMARK H PARENT 11 20 13 22
ROOT
ATOM      1  C   UNL     1       8.556   7.323   2.557  1.00  0.00     0.033 A 
ATOM      2  C   UNL     1       7.511   6.563   3.029  1.00  0.00     0.102 A 
ATOM      3  C   UNL     1       8.851   7.439   1.219  1.00  0.00     0.063 A 
ATOM      4  C   UNL     1       6.715   5.881   2.109  1.00  0.00     0.315 A 
ATOM      5  C   UNL     1       8.054   6.756   0.299  1.00  0.00     0.165 A 
ATOM      6  C   UNL     1       6.985   5.977   0.745  1.00  0.00     0.237 A 
ENDROOT
BRANCH   1   7
ATOM      7  C   UNL     1       9.410   8.054   3.541  1.00  0.00     0.193 C 
ATOM      8  O   UNL     1      10.232   7.387   4.187  1.00  0.00    -0.289 OA
BRANCH   7   9
ATOM      9  C   UNL     1       9.303   9.489   3.752  1.00  0.00     0.023 A 
ATOM     10  C   UNL     1      10.429  10.301   3.615  1.00  0.00     0.012 A 
ATOM     11  C   UNL     1       8.074  10.054   4.093  1.00  0.00     0.012 A 
ATOM     12  C   UNL     1      10.325  11.677   3.817  1.00  0.00     0.004 A 
ATOM     13  C   UNL     1       7.969  11.430   4.295  1.00  0.00     0.004 A 
ATOM     14  C   UNL     1       9.096  12.242   4.158  1.00  0.00    -0.051 A 
ATOM     15  C   UNL     1       8.986  13.713   4.375  1.00  0.00     0.044 C 
ENDBRANCH   7   9
ENDBRANCH   1   7
BRANCH   4  16
ATOM     16  N   UNL     1       5.630   5.092   2.582  1.00  0.00     0.066 N 
ATOM     17  O   UNL     1       5.349   4.027   1.982  1.00  0.00    -0.258 OA
ATOM     18  O   UNL     1       4.988   5.483   3.585  1.00  0.00    -0.258 OA
ENDBRANCH   4  16
BRANCH   5  19
ATOM     19  O   UNL     1       8.331   6.859  -1.031  1.00  0.00    -0.504 OA
ATOM     20  H   UNL     1       7.554   7.207  -1.499  1.00  0.00     0.293 HD
ENDBRANCH   5  19
BRANCH   6  21
ATOM     21  O   UNL     1       6.213   5.314  -0.164  1.00  0.00    -0.500 OA
ATOM     22  H   UNL     1       6.224   5.790  -1.010  1.00  0.00     0.294 HD
ENDBRANCH   6  21
TORSDOF 5
ENDMDL
