MODEL 1
REMARK VINA RESULT:    -5.283      0.000      0.000
REMARK INTER + INTRA:          -7.268
REMARK INTER:                  -6.519
REMARK INTRA:                  -0.750
REMARK UNBOUND:                -0.750
REMARK SMILES Cc1ccc(C(=O)c2cc(O)c(O)c([N+](=O)[O-])c2)cc1
REMARK SMILES IDX 8 1 18 2 9 3 14 4 10 5 12 6 6 7 7 8 5 9 4 10 19 11 3 12
REMARK SMILES IDX 20 13 2 14 1 15 15 16 17 17 16 18 11 19 13 21
REMARK H PARENT 11 20 13 22
ROOT
ATOM      1  C   UNL     1      -0.678   6.102  -6.733  1.00  0.00     0.033 A 
ATOM      2  C   UNL     1      -1.842   5.387  -6.889  1.00  0.00     0.102 A 
ATOM      3  C   UNL     1       0.208   5.872  -5.707  1.00  0.00     0.063 A 
ATOM      4  C   UNL     1      -2.137   4.384  -5.965  1.00  0.00     0.315 A 
ATOM      5  C   UNL     1      -0.087   4.870  -4.783  1.00  0.00     0.165 A 
ATOM      6  C   UNL     1      -1.260   4.125  -4.913  1.00  0.00     0.237 A 
ENDROOT
BRANCH   1   7
ATOM      7  C   UNL     1      -0.361   7.176  -7.722  1.00  0.00     0.193 C 
ATOM      8  O   UNL     1       0.833   7.359  -8.001  1.00  0.00    -0.289 OA
BRANCH   7   9
ATOM      9  C   UNL     1      -1.393   7.989  -8.347  1.00  0.00     0.023 A 
ATOM     10  C   UNL     1      -1.703   9.245  -7.825  1.00  0.00     0.012 A 
ATOM     11  C   UNL     1      -2.071   7.513  -9.469  1.00  0.00     0.012 A 
ATOM     12  C   UNL     1      -2.692  10.024  -8.424  1.00  0.00     0.004 A 
ATOM     13  C   UNL     1      -3.061   8.293 -10.069  1.00  0.00     0.004 A 
ATOM     14  C   UNL     1      -3.371   9.548  -9.547  1.00  0.00    -0.051 A 
ATOM     15  C   UNL     1      -4.429  10.381 -10.187  1.00  0.00     0.044 C 
ENDBRANCH   7   9
ENDBRANCH   1   7
BRANCH   4  16
ATOM     16  N   UNL     1      -3.338   3.636  -6.113  1.00  0.00     0.066 N 
ATOM     17  O   UNL     1      -3.797   3.450  -7.266  1.00  0.00    -0.258 OA
ATOM     18  O   UNL     1      -3.900   3.184  -5.089  1.00  0.00    -0.258 OA
ENDBRANCH   4  16
BRANCH   5  19
ATOM     19  O   UNL     1       0.779   4.627  -3.760  1.00  0.00    -0.504 OA
ATOM     20  H   UNL     1       0.607   3.746  -3.389  1.00  0.00     0.293 HD
ENDBRANCH   5  19
BRANCH   6  21
ATOM     21  O   UNL     1      -1.538   3.146  -4.003  1.00  0.00    -0.500 OA
ATOM     22  H   UNL     1      -1.203   2.295  -4.327  1.00  0.00     0.294 HD
ENDBRANCH   6  21
TORSDOF 5
ENDMDL
MODEL 2
REMARK VINA RESULT:    -5.205      2.008      3.527
REMARK INTER + INTRA:          -7.172
REMARK INTER:                  -6.404
REMARK INTRA:                  -0.767
REMARK UNBOUND:                -0.750
REMARK SMILES Cc1ccc(C(=O)c2cc(O)c(O)c([N+](=O)[O-])c2)cc1
REMARK SMILES IDX 8 1 18 2 9 3 14 4 10 5 12 6 6 7 7 8 5 9 4 10 19 11 3 12
REMARK SMILES IDX 20 13 2 14 1 15 15 16 17 17 16 18 11 19 13 21
REMARK H PARENT 11 20 13 22
ROOT
ATOM      1  C   UNL     1      -2.477   6.268  -6.489  1.00  0.00     0.033 A 
ATOM      2  C   UNL     1      -1.340   6.433  -5.732  1.00  0.00     0.102 A 
ATOM      3  C   UNL     1      -3.222   5.113  -6.475  1.00  0.00     0.063 A 
ATOM      4  C   UNL     1      -0.926   5.382  -4.914  1.00  0.00     0.315 A 
ATOM      5  C   UNL     1      -2.808   4.062  -5.657  1.00  0.00     0.165 A 
ATOM      6  C   UNL     1      -1.659   4.196  -4.876  1.00  0.00     0.237 A 
ENDROOT
BRANCH   1   7
ATOM      7  C   UNL     1      -2.921   7.394  -7.366  1.00  0.00     0.193 C 
ATOM      8  O   UNL     1      -4.138   7.630  -7.415  1.00  0.00    -0.289 OA
BRANCH   7   9
ATOM      9  C   UNL     1      -1.987   8.195  -8.139  1.00  0.00     0.023 A 
ATOM     10  C   UNL     1      -1.739   7.881  -9.476  1.00  0.00     0.012 A 
ATOM     11  C   UNL     1      -1.338   9.277  -7.545  1.00  0.00     0.012 A 
ATOM     12  C   UNL     1      -0.842   8.650 -10.218  1.00  0.00     0.004 A 
ATOM     13  C   UNL     1      -0.441  10.047  -8.287  1.00  0.00     0.004 A 
ATOM     14  C   UNL     1      -0.193   9.734  -9.624  1.00  0.00    -0.051 A 
ATOM     15  C   UNL     1       0.766  10.554 -10.417  1.00  0.00     0.044 C 
ENDBRANCH   7   9
ENDBRANCH   1   7
BRANCH   4  16
ATOM     16  N   UNL     1       0.247   5.538  -4.126  1.00  0.00     0.066 N 
ATOM     17  O   UNL     1       1.014   4.556  -3.980  1.00  0.00    -0.258 OA
ATOM     18  O   UNL     1       0.480   6.651  -3.600  1.00  0.00    -0.258 OA
ENDBRANCH   4  16
BRANCH   5  19
ATOM     19  O   UNL     1      -3.534   2.909  -5.630  1.00  0.00    -0.504 OA
ATOM     20  H   UNL     1      -2.942   2.155  -5.474  1.00  0.00     0.293 HD
ENDBRANCH   5  19
BRANCH   6  21
ATOM     21  O   UNL     1      -1.264   3.161  -4.080  1.00  0.00    -0.500 OA
ATOM     22  H   UNL     1      -2.036   2.631  -3.827  1.00  0.00     0.294 HD
ENDBRANCH   6  21
TORSDOF 5
ENDMDL
MODEL 3
REMARK VINA RESULT:    -5.081      3.675      6.513
REMARK INTER + INTRA:          -7.019
REMARK INTER:                  -6.099
REMARK INTRA:                  -0.920
REMARK UNBOUND:                -0.750
REMARK SMILES Cc1ccc(C(=O)c2cc(O)c(O)c([N+](=O)[O-])c2)cc1
REMARK SMILES IDX 8 1 18 2 9 3 14 4 10 5 12 6 6 7 7 8 5 9 4 10 19 11 3 12
REMARK SMILES IDX 20 13 2 14 1 15 15 16 17 17 16 18 11 19 13 21
REMARK H PARENT 11 20 13 22
ROOT
ATOM      1  C   UNL     1      -1.344   9.172  -8.145  1.00  0.00     0.033 A 
ATOM      2  C   UNL     1      -2.529   9.498  -8.763  1.00  0.00     0.102 A 
ATOM      3  C   UNL     1      -0.119   9.569  -8.625  1.00  0.00     0.063 A 
ATOM      4  C   UNL     1      -2.486  10.265  -9.926  1.00  0.00     0.315 A 
ATOM      5  C   UNL     1      -0.075  10.336  -9.790  1.00  0.00     0.165 A 
ATOM      6  C   UNL     1      -1.260  10.685 -10.440  1.00  0.00     0.237 A 
ENDROOT
BRANCH   1   7
ATOM      7  C   UNL     1      -1.390   8.349  -6.899  1.00  0.00     0.193 C 
ATOM      8  O   UNL     1      -0.900   8.844  -5.872  1.00  0.00    -0.289 OA
BRANCH   7   9
ATOM      9  C   UNL     1      -1.979   7.020  -6.863  1.00  0.00     0.023 A 
ATOM     10  C   UNL     1      -2.765   6.635  -5.777  1.00  0.00     0.012 A 
ATOM     11  C   UNL     1      -1.759   6.131  -7.915  1.00  0.00     0.012 A 
ATOM     12  C   UNL     1      -3.330   5.360  -5.743  1.00  0.00     0.004 A 
ATOM     13  C   UNL     1      -2.324   4.856  -7.881  1.00  0.00     0.004 A 
ATOM     14  C   UNL     1      -3.110   4.470  -6.795  1.00  0.00    -0.051 A 
ATOM     15  C   UNL     1      -3.713   3.107  -6.757  1.00  0.00     0.044 C 
ENDBRANCH   7   9
ENDBRANCH   1   7
BRANCH   4  16
ATOM     16  N   UNL     1      -3.704  10.611 -10.575  1.00  0.00     0.066 N 
ATOM     17  O   UNL     1      -4.651   9.788 -10.563  1.00  0.00    -0.258 OA
ATOM     18  O   UNL     1      -3.794  11.726 -11.139  1.00  0.00    -0.258 OA
ENDBRANCH   4  16
BRANCH   5  19
ATOM     19  O   UNL     1       1.130  10.740 -10.280  1.00  0.00    -0.504 OA
ATOM     20  H   UNL     1       1.182  10.532 -11.228  1.00  0.00     0.293 HD
ENDBRANCH   5  19
BRANCH   6  21
ATOM     21  O   UNL     1      -1.205  11.437 -11.578  1.00  0.00    -0.500 OA
ATOM     22  H   UNL     1      -1.691  10.990 -12.288  1.00  0.00     0.294 HD
ENDBRANCH   6  21
TORSDOF 5
ENDMDL
MODEL 4
REMARK VINA RESULT:    -5.081      2.375      4.057
REMARK INTER + INTRA:          -7.018
REMARK INTER:                  -6.011
REMARK INTRA:                  -1.007
REMARK UNBOUND:                -0.750
REMARK SMILES Cc1ccc(C(=O)c2cc(O)c(O)c([N+](=O)[O-])c2)cc1
REMARK SMILES IDX 8 1 18 2 9 3 14 4 10 5 12 6 6 7 7 8 5 9 4 10 19 11 3 12
REMARK SMILES IDX 20 13 2 14 1 15 15 16 17 17 16 18 11 19 13 21
REMARK H PARENT 11 20 13 22
ROOT
ATOM      1  C   UNL     1      -2.041   7.954  -9.361  1.00  0.00     0.033 A 
ATOM      2  C   UNL     1      -1.820   7.527  -8.072  1.00  0.00     0.102 A 
ATOM      3  C   UNL     1      -2.289   7.090 -10.401  1.00  0.00     0.063 A 
ATOM      4  C   UNL     1      -1.848   6.157  -7.809  1.00  0.00     0.315 A 
ATOM      5  C   UNL     1      -2.317   5.720 -10.138  1.00  0.00     0.165 A 
ATOM      6  C   UNL     1      -2.097   5.254  -8.842  1.00  0.00     0.237 A 
ENDROOT
BRANCH   1   7
ATOM      7  C   UNL     1      -2.011   9.421  -9.643  1.00  0.00     0.193 C 
ATOM      8  O   UNL     1      -0.905   9.983  -9.614  1.00  0.00    -0.289 OA
BRANCH   7   9
ATOM      9  C   UNL     1      -3.212  10.183  -9.942  1.00  0.00     0.023 A 
ATOM     10  C   UNL     1      -4.284  10.174  -9.050  1.00  0.00     0.012 A 
ATOM     11  C   UNL     1      -3.294  10.922 -11.122  1.00  0.00     0.012 A 
ATOM     12  C   UNL     1      -5.437  10.905  -9.337  1.00  0.00     0.004 A 
ATOM     13  C   UNL     1      -4.447  11.654 -11.410  1.00  0.00     0.004 A 
ATOM     14  C   UNL     1      -5.518  11.645 -10.517  1.00  0.00    -0.051 A 
ATOM     15  C   UNL     1      -6.751  12.425 -10.825  1.00  0.00     0.044 C 
ENDBRANCH   7   9
ENDBRANCH   1   7
BRANCH   4  16
ATOM     16  N   UNL     1      -1.622   5.701  -6.482  1.00  0.00     0.066 N 
ATOM     17  O   UNL     1      -0.852   4.727  -6.299  1.00  0.00    -0.258 OA
ATOM     18  O   UNL     1      -2.197   6.285  -5.534  1.00  0.00    -0.258 OA
ENDBRANCH   4  16
BRANCH   5  19
ATOM     19  O   UNL     1      -2.561   4.849 -11.157  1.00  0.00    -0.504 OA
ATOM     20  H   UNL     1      -2.978   4.045 -10.805  1.00  0.00     0.293 HD
ENDBRANCH   5  19
BRANCH   6  21
ATOM     21  O   UNL     1      -2.127   3.912  -8.597  1.00  0.00    -0.500 OA
ATOM     22  H   UNL     1      -2.954   3.681  -8.144  1.00  0.00     0.294 HD
ENDBRANCH   6  21
TORSDOF 5
ENDMDL
MODEL 5
REMARK VINA RESULT:    -5.059      3.571      4.421
REMARK INTER + INTRA:          -6.992
REMARK INTER:                  -5.975
REMARK INTRA:                  -1.017
REMARK UNBOUND:                -0.750
REMARK SMILES Cc1ccc(C(=O)c2cc(O)c(O)c([N+](=O)[O-])c2)cc1
REMARK SMILES IDX 8 1 18 2 9 3 14 4 10 5 12 6 6 7 7 8 5 9 4 10 19 11 3 12
REMARK SMILES IDX 20 13 2 14 1 15 15 16 17 17 16 18 11 19 13 21
REMARK H PARENT 11 20 13 22
ROOT
ATOM      1  C   UNL     1      -1.413   9.173  -7.966  1.00  0.00     0.033 A 
ATOM      2  C   UNL     1      -1.510   7.823  -7.717  1.00  0.00     0.102 A 
ATOM      3  C   UNL     1      -1.179  10.099  -6.978  1.00  0.00     0.063 A 
ATOM      4  C   UNL     1      -1.363   7.375  -6.404  1.00  0.00     0.315 A 
ATOM      5  C   UNL     1      -1.033   9.651  -5.665  1.00  0.00     0.165 A 
ATOM      6  C   UNL     1      -1.124   8.289  -5.378  1.00  0.00     0.237 A 
ENDROOT
BRANCH   1   7
ATOM      7  C   UNL     1      -1.570   9.653  -9.372  1.00  0.00     0.193 C 
ATOM      8  O   UNL     1      -2.707   9.603  -9.867  1.00  0.00    -0.289 OA
BRANCH   7   9
ATOM      9  C   UNL     1      -0.454  10.163 -10.151  1.00  0.00     0.023 A 
ATOM     10  C   UNL     1      -0.523  11.436 -10.719  1.00  0.00     0.012 A 
ATOM     11  C   UNL     1       0.687   9.381 -10.331  1.00  0.00     0.012 A 
ATOM     12  C   UNL     1       0.548  11.925 -11.466  1.00  0.00     0.004 A 
ATOM     13  C   UNL     1       1.759   9.871 -11.078  1.00  0.00     0.004 A 
ATOM     14  C   UNL     1       1.689  11.143 -11.646  1.00  0.00    -0.051 A 
ATOM     15  C   UNL     1       2.833  11.667 -12.446  1.00  0.00     0.044 C 
ENDBRANCH   7   9
ENDBRANCH   1   7
BRANCH   4  16
ATOM     16  N   UNL     1      -1.459   5.983  -6.132  1.00  0.00     0.066 N 
ATOM     17  O   UNL     1      -0.935   5.171  -6.931  1.00  0.00    -0.258 OA
ATOM     18  O   UNL     1      -2.065   5.608  -5.100  1.00  0.00    -0.258 OA
ENDBRANCH   4  16
BRANCH   5  19
ATOM     19  O   UNL     1      -0.800  10.555  -4.672  1.00  0.00    -0.504 OA
ATOM     20  H   UNL     1      -1.642  10.942  -4.380  1.00  0.00     0.293 HD
ENDBRANCH   5  19
BRANCH   6  21
ATOM     21  O   UNL     1      -0.979   7.863  -4.090  1.00  0.00    -0.500 OA
ATOM     22  H   UNL     1      -1.504   8.424  -3.499  1.00  0.00     0.294 HD
ENDBRANCH   6  21
TORSDOF 5
ENDMDL
MODEL 6
REMARK VINA RESULT:    -5.052      3.566      7.181
REMARK INTER + INTRA:          -6.983
REMARK INTER:                  -6.035
REMARK INTRA:                  -0.948
REMARK UNBOUND:                -0.750
REMARK SMILES Cc1ccc(C(=O)c2cc(O)c(O)c([N+](=O)[O-])c2)cc1
REMARK SMILES IDX 8 1 18 2 9 3 14 4 10 5 12 6 6 7 7 8 5 9 4 10 19 11 3 12
REMARK SMILES IDX 20 13 2 14 1 15 15 16 17 17 16 18 11 19 13 21
REMARK H PARENT 11 20 13 22
ROOT
ATOM      1  C   UNL     1      -2.044   8.198  -9.309  1.00  0.00     0.033 A 
ATOM      2  C   UNL     1      -0.885   8.865  -9.632  1.00  0.00     0.102 A 
ATOM      3  C   UNL     1      -3.295   8.715  -9.552  1.00  0.00     0.063 A 
ATOM      4  C   UNL     1      -0.983  10.119 -10.234  1.00  0.00     0.315 A 
ATOM      5  C   UNL     1      -3.392   9.969 -10.154  1.00  0.00     0.165 A 
ATOM      6  C   UNL     1      -2.236  10.672 -10.496  1.00  0.00     0.237 A 
ENDROOT
BRANCH   1   7
ATOM      7  C   UNL     1      -1.940   6.855  -8.663  1.00  0.00     0.193 C 
ATOM      8  O   UNL     1      -2.462   5.898  -9.254  1.00  0.00    -0.289 OA
BRANCH   7   9
ATOM      9  C   UNL     1      -1.260   6.650  -7.394  1.00  0.00     0.023 A 
ATOM     10  C   UNL     1      -0.402   5.562  -7.230  1.00  0.00     0.012 A 
ATOM     11  C   UNL     1      -1.464   7.542  -6.342  1.00  0.00     0.012 A 
ATOM     12  C   UNL     1       0.250   5.366  -6.013  1.00  0.00     0.004 A 
ATOM     13  C   UNL     1      -0.811   7.346  -5.124  1.00  0.00     0.004 A 
ATOM     14  C   UNL     1       0.046   6.258  -4.959  1.00  0.00    -0.051 A 
ATOM     15  C   UNL     1       0.743   6.047  -3.659  1.00  0.00     0.044 C 
ENDBRANCH   7   9
ENDBRANCH   1   7
BRANCH   4  16
ATOM     16  N   UNL     1       0.207  10.819 -10.574  1.00  0.00     0.066 N 
ATOM     17  O   UNL     1       0.197  11.584 -11.570  1.00  0.00    -0.258 OA
ATOM     18  O   UNL     1       1.230  10.654  -9.870  1.00  0.00    -0.258 OA
ENDBRANCH   4  16
BRANCH   5  19
ATOM     19  O   UNL     1      -4.624  10.497 -10.404  1.00  0.00    -0.504 OA
ATOM     20  H   UNL     1      -4.788  11.241  -9.801  1.00  0.00     0.293 HD
ENDBRANCH   5  19
BRANCH   6  21
ATOM     21  O   UNL     1      -2.344  11.898 -11.085  1.00  0.00    -0.500 OA
ATOM     22  H   UNL     1      -2.416  11.792 -12.046  1.00  0.00     0.294 HD
ENDBRANCH   6  21
TORSDOF 5
ENDMDL
MODEL 7
REMARK VINA RESULT:    -4.975      3.952      7.230
REMARK INTER + INTRA:          -6.887
REMARK INTER:                  -6.202
REMARK INTRA:                  -0.686
REMARK UNBOUND:                -0.750
REMARK SMILES Cc1ccc(C(=O)c2cc(O)c(O)c([N+](=O)[O-])c2)cc1
REMARK SMILES IDX 8 1 18 2 9 3 14 4 10 5 12 6 6 7 7 8 5 9 4 10 19 11 3 12
REMARK SMILES IDX 20 13 2 14 1 15 15 16 17 17 16 18 11 19 13 21
REMARK H PARENT 11 20 13 22
ROOT
ATOM      1  C   UNL     1      -1.934   8.980  -9.048  1.00  0.00     0.033 A 
ATOM      2  C   UNL     1      -1.169   9.859  -9.780  1.00  0.00     0.102 A 
ATOM      3  C   UNL     1      -3.308   8.990  -9.069  1.00  0.00     0.063 A 
ATOM      4  C   UNL     1      -1.817  10.800 -10.580  1.00  0.00     0.315 A 
ATOM      5  C   UNL     1      -3.956   9.933  -9.869  1.00  0.00     0.165 A 
ATOM      6  C   UNL     1      -3.210  10.838 -10.624  1.00  0.00     0.237 A 
ENDROOT
BRANCH   1   7
ATOM      7  C   UNL     1      -1.240   7.971  -8.192  1.00  0.00     0.193 C 
ATOM      8  O   UNL     1      -0.065   8.207  -7.874  1.00  0.00    -0.289 OA
BRANCH   7   9
ATOM      9  C   UNL     1      -1.894   6.755  -7.735  1.00  0.00     0.023 A 
ATOM     10  C   UNL     1      -1.860   5.606  -8.525  1.00  0.00     0.012 A 
ATOM     11  C   UNL     1      -2.554   6.738  -6.506  1.00  0.00     0.012 A 
ATOM     12  C   UNL     1      -2.486   4.440  -8.086  1.00  0.00     0.004 A 
ATOM     13  C   UNL     1      -3.181   5.571  -6.067  1.00  0.00     0.004 A 
ATOM     14  C   UNL     1      -3.147   4.422  -6.857  1.00  0.00    -0.051 A 
ATOM     15  C   UNL     1      -3.818   3.175  -6.390  1.00  0.00     0.044 C 
ENDBRANCH   7   9
ENDBRANCH   1   7
BRANCH   4  16
ATOM     16  N   UNL     1      -1.040  11.715 -11.343  1.00  0.00     0.066 N 
ATOM     17  O   UNL     1      -1.612  12.692 -11.883  1.00  0.00    -0.258 OA
ATOM     18  O   UNL     1       0.193  11.519 -11.451  1.00  0.00    -0.258 OA
ENDBRANCH   4  16
BRANCH   5  19
ATOM     19  O   UNL     1      -5.318   9.957  -9.903  1.00  0.00    -0.504 OA
ATOM     20  H   UNL     1      -5.663   9.057  -9.783  1.00  0.00     0.293 HD
ENDBRANCH   5  19
BRANCH   6  21
ATOM     21  O   UNL     1      -3.856  11.754 -11.403  1.00  0.00    -0.500 OA
ATOM     22  H   UNL     1      -3.746  11.523 -12.338  1.00  0.00     0.294 HD
ENDBRANCH   6  21
TORSDOF 5
ENDMDL
MODEL 8
REMARK VINA RESULT:    -4.940      3.716      6.721
REMARK INTER + INTRA:          -6.844
REMARK INTER:                  -5.892
REMARK INTRA:                  -0.952
REMARK UNBOUND:                -0.750
REMARK SMILES Cc1ccc(C(=O)c2cc(O)c(O)c([N+](=O)[O-])c2)cc1
REMARK SMILES IDX 8 1 18 2 9 3 14 4 10 5 12 6 6 7 7 8 5 9 4 10 19 11 3 12
REMARK SMILES IDX 20 13 2 14 1 15 15 16 17 17 16 18 11 19 13 21
REMARK H PARENT 11 20 13 22
ROOT
ATOM      1  C   UNL     1      -2.035   8.211  -9.282  1.00  0.00     0.033 A 
ATOM      2  C   UNL     1      -3.274   8.774  -9.480  1.00  0.00     0.102 A 
ATOM      3  C   UNL     1      -0.866   8.829  -9.657  1.00  0.00     0.063 A 
ATOM      4  C   UNL     1      -3.348  10.027 -10.088  1.00  0.00     0.315 A 
ATOM      5  C   UNL     1      -0.939  10.083 -10.265  1.00  0.00     0.165 A 
ATOM      6  C   UNL     1      -2.181  10.682 -10.481  1.00  0.00     0.237 A 
ENDROOT
BRANCH   1   7
ATOM      7  C   UNL     1      -1.956   6.869  -8.631  1.00  0.00     0.193 C 
ATOM      8  O   UNL     1      -2.508   5.922  -9.211  1.00  0.00    -0.289 OA
BRANCH   7   9
ATOM      9  C   UNL     1      -1.265   6.653  -7.369  1.00  0.00     0.023 A 
ATOM     10  C   UNL     1      -1.449   7.545  -6.312  1.00  0.00     0.012 A 
ATOM     11  C   UNL     1      -0.419   5.555  -7.216  1.00  0.00     0.012 A 
ATOM     12  C   UNL     1      -0.787   7.338  -5.102  1.00  0.00     0.004 A 
ATOM     13  C   UNL     1       0.244   5.348  -6.005  1.00  0.00     0.004 A 
ATOM     14  C   UNL     1       0.060   6.239  -4.948  1.00  0.00    -0.051 A 
ATOM     15  C   UNL     1       0.768   6.019  -3.655  1.00  0.00     0.044 C 
ENDBRANCH   7   9
ENDBRANCH   1   7
BRANCH   4  16
ATOM     16  N   UNL     1      -4.622  10.622 -10.300  1.00  0.00     0.066 N 
ATOM     17  O   UNL     1      -4.852  11.190 -11.394  1.00  0.00    -0.258 OA
ATOM     18  O   UNL     1      -5.479  10.559  -9.387  1.00  0.00    -0.258 OA
ENDBRANCH   4  16
BRANCH   5  19
ATOM     19  O   UNL     1       0.209  10.711 -10.643  1.00  0.00    -0.504 OA
ATOM     20  H   UNL     1       0.500  11.310  -9.936  1.00  0.00     0.293 HD
ENDBRANCH   5  19
BRANCH   6  21
ATOM     21  O   UNL     1      -2.240  11.908 -11.076  1.00  0.00    -0.500 OA
ATOM     22  H   UNL     1      -2.810  12.496 -10.556  1.00  0.00     0.294 HD
ENDBRANCH   6  21
TORSDOF 5
ENDMDL
MODEL 9
REMARK VINA RESULT:    -4.871      8.729     11.694
REMARK INTER + INTRA:          -6.760
REMARK INTER:                  -5.846
REMARK INTRA:                  -0.914
REMARK UNBOUND:                -0.750
REMARK SMILES Cc1ccc(C(=O)c2cc(O)c(O)c([N+](=O)[O-])c2)cc1
REMARK SMILES IDX 8 1 18 2 9 3 14 4 10 5 12 6 6 7 7 8 5 9 4 10 19 11 3 12
REMARK SMILES IDX 20 13 2 14 1 15 15 16 17 17 16 18 11 19 13 21
REMARK H PARENT 11 20 13 22
ROOT
ATOM      1  C   UNL     1       2.308  13.549 -14.016  1.00  0.00     0.033 A 
ATOM      2  C   UNL     1       1.476  13.127 -15.028  1.00  0.00     0.102 A 
ATOM      3  C   UNL     1       2.618  14.872 -13.808  1.00  0.00     0.063 A 
ATOM      4  C   UNL     1       0.923  14.084 -15.878  1.00  0.00     0.315 A 
ATOM      5  C   UNL     1       2.066  15.829 -14.659  1.00  0.00     0.165 A 
ATOM      6  C   UNL     1       1.217  15.435 -15.695  1.00  0.00     0.237 A 
ENDROOT
BRANCH   1   7
ATOM      7  C   UNL     1       2.900  12.524 -13.105  1.00  0.00     0.193 C 
ATOM      8  O   UNL     1       4.129  12.360 -13.156  1.00  0.00    -0.289 OA
BRANCH   7   9
ATOM      9  C   UNL     1       2.093  11.738 -12.185  1.00  0.00     0.023 A 
ATOM     10  C   UNL     1       2.427  10.409 -11.925  1.00  0.00     0.012 A 
ATOM     11  C   UNL     1       0.985  12.313 -11.564  1.00  0.00     0.012 A 
ATOM     12  C   UNL     1       1.653   9.656 -11.043  1.00  0.00     0.004 A 
ATOM     13  C   UNL     1       0.210  11.560 -10.681  1.00  0.00     0.004 A 
ATOM     14  C   UNL     1       0.544  10.230 -10.420  1.00  0.00    -0.051 A 
ATOM     15  C   UNL     1      -0.284   9.424  -9.479  1.00  0.00     0.044 C 
ENDBRANCH   7   9
ENDBRANCH   1   7
BRANCH   4  16
ATOM     16  N   UNL     1       0.061  13.664 -16.928  1.00  0.00     0.066 N 
ATOM     17  O   UNL     1      -0.863  14.429 -17.297  1.00  0.00    -0.258 OA
ATOM     18  O   UNL     1       0.250  12.543 -17.455  1.00  0.00    -0.258 OA
ENDBRANCH   4  16
BRANCH   5  19
ATOM     19  O   UNL     1       2.362  17.145 -14.467  1.00  0.00    -0.504 OA
ATOM     20  H   UNL     1       2.216  17.379 -13.536  1.00  0.00     0.293 HD
ENDBRANCH   5  19
BRANCH   6  21
ATOM     21  O   UNL     1       0.682  16.381 -16.520  1.00  0.00    -0.500 OA
ATOM     22  H   UNL     1       0.702  17.245 -16.082  1.00  0.00     0.294 HD
ENDBRANCH   6  21
TORSDOF 5
ENDMDL
