MODEL 1
REMARK VINA RESULT:    -6.939      0.000      0.000
REMARK INTER + INTRA:          -8.792
REMARK INTER:                  -8.156
REMARK INTRA:                  -0.636
REMARK UNBOUND:                -0.636
REMARK SMILES O=C(O)c1cc(-c2ccc(F)cc2F)ccc1O
REMARK SMILES IDX 6 1 5 2 15 3 4 4 17 5 16 6 7 7 13 8 12 9 8 10 10 11 9 12
REMARK SMILES IDX 14 13 11 14 2 15 1 16 3 17 18 19
REMARK H PARENT 3 18 18 20
ROOT
ATOM      1  C   UNL     1      -1.623   6.269  -6.821  1.00  0.00    -0.014 A 
ATOM      2  C   UNL     1      -2.626   5.301  -6.857  1.00  0.00     0.028 A 
ATOM      3  C   UNL     1      -0.587   6.167  -5.893  1.00  0.00     0.013 A 
ATOM      4  C   UNL     1      -2.594   4.230  -5.963  1.00  0.00     0.102 A 
ATOM      5  C   UNL     1      -1.558   4.127  -5.035  1.00  0.00     0.130 A 
ATOM      6  C   UNL     1      -0.554   5.096  -5.000  1.00  0.00     0.048 A 
ENDROOT
BRANCH   1   7
ATOM      7  C   UNL     1      -1.657   7.381  -7.747  1.00  0.00     0.018 A 
ATOM      8  C   UNL     1      -1.903   7.158  -9.102  1.00  0.00     0.133 A 
ATOM      9  C   UNL     1      -1.935   8.233  -9.990  1.00  0.00     0.079 A 
ATOM     10  C   UNL     1      -1.444   8.678  -7.281  1.00  0.00     0.015 A 
ATOM     11  C   UNL     1      -1.721   9.530  -9.525  1.00  0.00     0.126 A 
ATOM     12  C   UNL     1      -1.476   9.752  -8.169  1.00  0.00     0.040 A 
ATOM     13  F   UNL     1      -2.108   5.917  -9.566  1.00  0.00    -0.206 F 
ATOM     14  F   UNL     1      -1.751  10.562 -10.377  1.00  0.00    -0.207 F 
ENDBRANCH   1   7
BRANCH   4  15
ATOM     15  C   UNL     1      -3.650   3.229  -6.017  1.00  0.00     0.339 C 
ATOM     16  O   UNL     1      -4.267   2.790  -5.043  1.00  0.00    -0.246 OA
BRANCH  15  17
ATOM     17  O   UNL     1      -3.904   2.810  -7.286  1.00  0.00    -0.478 OA
ATOM     18  H   UNL     1      -3.705   1.857  -7.402  1.00  0.00     0.297 HD
ENDBRANCH  15  17
ENDBRANCH   4  15
BRANCH   5  19
ATOM     19  O   UNL     1      -1.507   3.088  -4.154  1.00  0.00    -0.507 OA
ATOM     20  H   UNL     1      -2.396   2.701  -4.069  1.00  0.00     0.293 HD
ENDBRANCH   5  19
TORSDOF 4
ENDMDL
MODEL 2
REMARK VINA RESULT:    -6.931      1.748      3.245
REMARK INTER + INTRA:          -8.783
REMARK INTER:                  -8.144
REMARK INTRA:                  -0.639
REMARK UNBOUND:                -0.636
REMARK SMILES O=C(O)c1cc(-c2ccc(F)cc2F)ccc1O
REMARK SMILES IDX 6 1 5 2 15 3 4 4 17 5 16 6 7 7 13 8 12 9 8 10 10 11 9 12
REMARK SMILES IDX 14 13 11 14 2 15 1 16 3 17 18 19
REMARK H PARENT 3 18 18 20
ROOT
ATOM      1  C   UNL     1      -1.568   6.420  -6.650  1.00  0.00    -0.014 A 
ATOM      2  C   UNL     1      -0.504   6.387  -5.749  1.00  0.00     0.028 A 
ATOM      3  C   UNL     1      -2.535   5.416  -6.624  1.00  0.00     0.013 A 
ATOM      4  C   UNL     1      -0.407   5.348  -4.822  1.00  0.00     0.102 A 
ATOM      5  C   UNL     1      -1.374   4.344  -4.797  1.00  0.00     0.130 A 
ATOM      6  C   UNL     1      -2.439   4.378  -5.698  1.00  0.00     0.048 A 
ENDROOT
BRANCH   1   7
ATOM      7  C   UNL     1      -1.669   7.496  -7.612  1.00  0.00     0.018 A 
ATOM      8  C   UNL     1      -1.493   8.819  -7.205  1.00  0.00     0.133 A 
ATOM      9  C   UNL     1      -1.591   9.853  -8.136  1.00  0.00     0.079 A 
ATOM     10  C   UNL     1      -1.941   7.208  -8.949  1.00  0.00     0.015 A 
ATOM     11  C   UNL     1      -1.864   9.565  -9.473  1.00  0.00     0.126 A 
ATOM     12  C   UNL     1      -2.039   8.242  -9.879  1.00  0.00     0.040 A 
ATOM     13  F   UNL     1      -1.233   9.113  -5.923  1.00  0.00    -0.206 F 
ATOM     14  F   UNL     1      -1.959  10.557 -10.367  1.00  0.00    -0.207 F 
ENDBRANCH   1   7
BRANCH   4  15
ATOM     15  C   UNL     1       0.712   5.332  -3.890  1.00  0.00     0.339 C 
ATOM     16  O   UNL     1       1.409   4.348  -3.629  1.00  0.00    -0.246 OA
BRANCH  15  17
ATOM     17  O   UNL     1       0.925   6.546  -3.313  1.00  0.00    -0.478 OA
ATOM     18  H   UNL     1       1.333   7.180  -3.939  1.00  0.00     0.297 HD
ENDBRANCH  15  17
ENDBRANCH   4  15
BRANCH   5  19
ATOM     19  O   UNL     1      -1.298   3.321  -3.899  1.00  0.00    -0.507 OA
ATOM     20  H   UNL     1      -2.052   2.722  -4.036  1.00  0.00     0.293 HD
ENDBRANCH   5  19
TORSDOF 4
ENDMDL
MODEL 3
REMARK VINA RESULT:    -6.922      1.124      1.608
REMARK INTER + INTRA:          -8.772
REMARK INTER:                  -8.151
REMARK INTRA:                  -0.621
REMARK UNBOUND:                -0.636
REMARK SMILES O=C(O)c1cc(-c2ccc(F)cc2F)ccc1O
REMARK SMILES IDX 6 1 5 2 15 3 4 4 17 5 16 6 7 7 13 8 12 9 8 10 10 11 9 12
REMARK SMILES IDX 14 13 11 14 2 15 1 16 3 17 18 19
REMARK H PARENT 3 18 18 20
ROOT
ATOM      1  C   UNL     1      -1.627   6.295  -6.785  1.00  0.00    -0.014 A 
ATOM      2  C   UNL     1      -2.626   5.324  -6.835  1.00  0.00     0.028 A 
ATOM      3  C   UNL     1      -0.597   6.189  -5.850  1.00  0.00     0.013 A 
ATOM      4  C   UNL     1      -2.596   4.246  -5.950  1.00  0.00     0.102 A 
ATOM      5  C   UNL     1      -1.567   4.140  -5.015  1.00  0.00     0.130 A 
ATOM      6  C   UNL     1      -0.567   5.112  -4.965  1.00  0.00     0.048 A 
ENDROOT
BRANCH   1   7
ATOM      7  C   UNL     1      -1.658   7.415  -7.701  1.00  0.00     0.018 A 
ATOM      8  C   UNL     1      -1.448   8.711  -7.231  1.00  0.00     0.133 A 
ATOM      9  C   UNL     1      -1.479   9.788  -8.118  1.00  0.00     0.079 A 
ATOM     10  C   UNL     1      -1.897   7.195  -9.058  1.00  0.00     0.015 A 
ATOM     11  C   UNL     1      -1.719   9.568  -9.474  1.00  0.00     0.126 A 
ATOM     12  C   UNL     1      -1.927   8.271  -9.944  1.00  0.00     0.040 A 
ATOM     13  F   UNL     1      -1.220   8.940  -5.930  1.00  0.00    -0.206 F 
ATOM     14  F   UNL     1      -1.749  10.600 -10.326  1.00  0.00    -0.207 F 
ENDBRANCH   1   7
BRANCH   4  15
ATOM     15  C   UNL     1      -3.649   3.242  -6.019  1.00  0.00     0.339 C 
ATOM     16  O   UNL     1      -4.270   2.792  -5.053  1.00  0.00    -0.246 OA
BRANCH  15  17
ATOM     17  O   UNL     1      -3.892   2.833  -7.294  1.00  0.00    -0.478 OA
ATOM     18  H   UNL     1      -4.664   2.231  -7.343  1.00  0.00     0.297 HD
ENDBRANCH  15  17
ENDBRANCH   4  15
BRANCH   5  19
ATOM     19  O   UNL     1      -1.519   3.094  -4.142  1.00  0.00    -0.507 OA
ATOM     20  H   UNL     1      -0.608   2.753  -4.105  1.00  0.00     0.293 HD
ENDBRANCH   5  19
TORSDOF 4
ENDMDL
MODEL 4
REMARK VINA RESULT:    -5.451      4.631      6.987
REMARK INTER + INTRA:          -7.044
REMARK INTER:                  -5.964
REMARK INTRA:                  -1.080
REMARK UNBOUND:                -0.636
REMARK SMILES O=C(O)c1cc(-c2ccc(F)cc2F)ccc1O
REMARK SMILES IDX 6 1 5 2 15 3 4 4 17 5 16 6 7 7 13 8 12 9 8 10 10 11 9 12
REMARK SMILES IDX 14 13 11 14 2 15 1 16 3 17 18 19
REMARK H PARENT 3 18 18 20
ROOT
ATOM      1  C   UNL     1      -1.659   8.593  -8.434  1.00  0.00    -0.014 A 
ATOM      2  C   UNL     1      -0.532   9.148  -9.039  1.00  0.00     0.028 A 
ATOM      3  C   UNL     1      -2.933   9.028  -8.800  1.00  0.00     0.013 A 
ATOM      4  C   UNL     1      -0.678  10.138 -10.011  1.00  0.00     0.102 A 
ATOM      5  C   UNL     1      -1.952  10.572 -10.378  1.00  0.00     0.130 A 
ATOM      6  C   UNL     1      -3.080  10.016  -9.773  1.00  0.00     0.048 A 
ENDROOT
BRANCH   1   7
ATOM      7  C   UNL     1      -1.509   7.568  -7.424  1.00  0.00     0.018 A 
ATOM      8  C   UNL     1      -1.309   7.923  -6.089  1.00  0.00     0.133 A 
ATOM      9  C   UNL     1      -1.163   6.931  -5.119  1.00  0.00     0.079 A 
ATOM     10  C   UNL     1      -1.565   6.223  -7.787  1.00  0.00     0.015 A 
ATOM     11  C   UNL     1      -1.219   5.586  -5.482  1.00  0.00     0.126 A 
ATOM     12  C   UNL     1      -1.420   5.232  -6.817  1.00  0.00     0.040 A 
ATOM     13  F   UNL     1      -1.249   9.211  -5.724  1.00  0.00    -0.206 F 
ATOM     14  F   UNL     1      -1.080   4.633  -4.551  1.00  0.00    -0.207 F 
ENDBRANCH   1   7
BRANCH   4  15
ATOM     15  C   UNL     1       0.511  10.704 -10.632  1.00  0.00     0.339 C 
ATOM     16  O   UNL     1       0.516  11.480 -11.591  1.00  0.00    -0.246 OA
BRANCH  15  17
ATOM     17  O   UNL     1       1.658  10.284 -10.032  1.00  0.00    -0.478 OA
ATOM     18  H   UNL     1       2.455  10.619 -10.495  1.00  0.00     0.297 HD
ENDBRANCH  15  17
ENDBRANCH   4  15
BRANCH   5  19
ATOM     19  O   UNL     1      -2.116  11.537 -11.327  1.00  0.00    -0.507 OA
ATOM     20  H   UNL     1      -1.751  11.218 -12.170  1.00  0.00     0.293 HD
ENDBRANCH   5  19
TORSDOF 4
ENDMDL
MODEL 5
REMARK VINA RESULT:    -5.424      4.198      6.517
REMARK INTER + INTRA:          -7.011
REMARK INTER:                  -5.949
REMARK INTRA:                  -1.062
REMARK UNBOUND:                -0.636
REMARK SMILES O=C(O)c1cc(-c2ccc(F)cc2F)ccc1O
REMARK SMILES IDX 6 1 5 2 15 3 4 4 17 5 16 6 7 7 13 8 12 9 8 10 10 11 9 12
REMARK SMILES IDX 14 13 11 14 2 15 1 16 3 17 18 19
REMARK H PARENT 3 18 18 20
ROOT
ATOM      1  C   UNL     1      -1.678   8.523  -8.477  1.00  0.00    -0.014 A 
ATOM      2  C   UNL     1      -2.930   8.960  -8.909  1.00  0.00     0.028 A 
ATOM      3  C   UNL     1      -0.521   9.109  -8.989  1.00  0.00     0.013 A 
ATOM      4  C   UNL     1      -3.025   9.982  -9.854  1.00  0.00     0.102 A 
ATOM      5  C   UNL     1      -1.868  10.568 -10.365  1.00  0.00     0.130 A 
ATOM      6  C   UNL     1      -0.615  10.132  -9.933  1.00  0.00     0.048 A 
ENDROOT
BRANCH   1   7
ATOM      7  C   UNL     1      -1.579   7.462  -7.499  1.00  0.00     0.018 A 
ATOM      8  C   UNL     1      -1.380   7.767  -6.152  1.00  0.00     0.133 A 
ATOM      9  C   UNL     1      -1.285   6.741  -5.212  1.00  0.00     0.079 A 
ATOM     10  C   UNL     1      -1.684   6.132  -7.905  1.00  0.00     0.015 A 
ATOM     11  C   UNL     1      -1.388   5.411  -5.618  1.00  0.00     0.126 A 
ATOM     12  C   UNL     1      -1.588   5.107  -6.964  1.00  0.00     0.040 A 
ATOM     13  F   UNL     1      -1.275   9.040  -5.745  1.00  0.00    -0.206 F 
ATOM     14  F   UNL     1      -1.297   4.425  -4.716  1.00  0.00    -0.207 F 
ENDBRANCH   1   7
BRANCH   4  15
ATOM     15  C   UNL     1      -4.342  10.424 -10.291  1.00  0.00     0.339 C 
ATOM     16  O   UNL     1      -4.570  11.102 -11.296  1.00  0.00    -0.246 OA
BRANCH  15  17
ATOM     17  O   UNL     1      -5.333  10.002  -9.460  1.00  0.00    -0.478 OA
ATOM     18  H   UNL     1      -6.149   9.771  -9.952  1.00  0.00     0.297 HD
ENDBRANCH  15  17
ENDBRANCH   4  15
BRANCH   5  19
ATOM     19  O   UNL     1      -1.939  11.569 -11.288  1.00  0.00    -0.507 OA
ATOM     20  H   UNL     1      -2.316  11.215 -12.112  1.00  0.00     0.293 HD
ENDBRANCH   5  19
TORSDOF 4
ENDMDL
MODEL 6
REMARK VINA RESULT:    -5.312      1.706      2.960
REMARK INTER + INTRA:          -6.880
REMARK INTER:                  -6.223
REMARK INTRA:                  -0.657
REMARK UNBOUND:                -0.636
REMARK SMILES O=C(O)c1cc(-c2ccc(F)cc2F)ccc1O
REMARK SMILES IDX 6 1 5 2 15 3 4 4 17 5 16 6 7 7 13 8 12 9 8 10 10 11 9 12
REMARK SMILES IDX 14 13 11 14 2 15 1 16 3 17 18 19
REMARK H PARENT 3 18 18 20
ROOT
ATOM      1  C   UNL     1      -1.660   6.653  -7.216  1.00  0.00    -0.014 A 
ATOM      2  C   UNL     1      -0.757   6.690  -6.155  1.00  0.00     0.028 A 
ATOM      3  C   UNL     1      -2.458   5.526  -7.414  1.00  0.00     0.013 A 
ATOM      4  C   UNL     1      -0.650   5.600  -5.291  1.00  0.00     0.102 A 
ATOM      5  C   UNL     1      -1.447   4.472  -5.489  1.00  0.00     0.130 A 
ATOM      6  C   UNL     1      -2.351   4.435  -6.551  1.00  0.00     0.048 A 
ENDROOT
BRANCH   1   7
ATOM      7  C   UNL     1      -1.771   7.783  -8.113  1.00  0.00     0.018 A 
ATOM      8  C   UNL     1      -0.622   8.427  -8.574  1.00  0.00     0.133 A 
ATOM      9  C   UNL     1      -0.733   9.516  -9.439  1.00  0.00     0.079 A 
ATOM     10  C   UNL     1      -3.029   8.227  -8.518  1.00  0.00     0.015 A 
ATOM     11  C   UNL     1      -1.991   9.960  -9.843  1.00  0.00     0.126 A 
ATOM     12  C   UNL     1      -3.140   9.315  -9.382  1.00  0.00     0.040 A 
ATOM     13  F   UNL     1       0.595   8.014  -8.192  1.00  0.00    -0.206 F 
ATOM     14  F   UNL     1      -2.099  11.006 -10.673  1.00  0.00    -0.207 F 
ENDBRANCH   1   7
BRANCH   4  15
ATOM     15  C   UNL     1       0.300   5.658  -4.188  1.00  0.00     0.339 C 
ATOM     16  O   UNL     1       0.505   6.643  -3.475  1.00  0.00    -0.246 OA
BRANCH  15  17
ATOM     17  O   UNL     1       0.961   4.483  -4.011  1.00  0.00    -0.478 OA
ATOM     18  H   UNL     1       1.321   4.400  -3.103  1.00  0.00     0.297 HD
ENDBRANCH  15  17
ENDBRANCH   4  15
BRANCH   5  19
ATOM     19  O   UNL     1      -1.358   3.397  -4.656  1.00  0.00    -0.507 OA
ATOM     20  H   UNL     1      -1.766   3.623  -3.802  1.00  0.00     0.293 HD
ENDBRANCH   5  19
TORSDOF 4
ENDMDL
MODEL 7
REMARK VINA RESULT:    -4.840      8.888     11.390
REMARK INTER + INTRA:          -6.325
REMARK INTER:                  -5.469
REMARK INTRA:                  -0.856
REMARK UNBOUND:                -0.636
REMARK SMILES O=C(O)c1cc(-c2ccc(F)cc2F)ccc1O
REMARK SMILES IDX 6 1 5 2 15 3 4 4 17 5 16 6 7 7 13 8 12 9 8 10 10 11 9 12
REMARK SMILES IDX 14 13 11 14 2 15 1 16 3 17 18 19
REMARK H PARENT 3 18 18 20
ROOT
ATOM      1  C   UNL     1       2.955  11.274 -13.573  1.00  0.00    -0.014 A 
ATOM      2  C   UNL     1       3.831  12.354 -13.671  1.00  0.00     0.028 A 
ATOM      3  C   UNL     1       2.805  10.398 -14.648  1.00  0.00     0.013 A 
ATOM      4  C   UNL     1       4.557  12.559 -14.845  1.00  0.00     0.102 A 
ATOM      5  C   UNL     1       4.407  11.683 -15.920  1.00  0.00     0.130 A 
ATOM      6  C   UNL     1       3.530  10.602 -15.821  1.00  0.00     0.048 A 
ENDROOT
BRANCH   1   7
ATOM      7  C   UNL     1       2.201  11.061 -12.356  1.00  0.00     0.018 A 
ATOM      8  C   UNL     1       1.342  12.053 -11.882  1.00  0.00     0.133 A 
ATOM      9  C   UNL     1       0.617  11.844 -10.709  1.00  0.00     0.079 A 
ATOM     10  C   UNL     1       2.334   9.861 -11.658  1.00  0.00     0.015 A 
ATOM     11  C   UNL     1       0.750  10.645 -10.010  1.00  0.00     0.126 A 
ATOM     12  C   UNL     1       1.608   9.653 -10.486  1.00  0.00     0.040 A 
ATOM     13  F   UNL     1       1.205  13.213 -12.540  1.00  0.00    -0.206 F 
ATOM     14  F   UNL     1       0.055  10.444  -8.884  1.00  0.00    -0.207 F 
ENDBRANCH   1   7
BRANCH   4  15
ATOM     15  C   UNL     1       5.467  13.693 -14.928  1.00  0.00     0.339 C 
ATOM     16  O   UNL     1       5.860  14.218 -15.973  1.00  0.00    -0.246 OA
BRANCH  15  17
ATOM     17  O   UNL     1       5.857  14.136 -13.701  1.00  0.00    -0.478 OA
ATOM     18  H   UNL     1       6.815  13.994 -13.550  1.00  0.00     0.297 HD
ENDBRANCH  15  17
ENDBRANCH   4  15
BRANCH   5  19
ATOM     19  O   UNL     1       5.107  11.865 -17.075  1.00  0.00    -0.507 OA
ATOM     20  H   UNL     1       4.719  12.609 -17.567  1.00  0.00     0.293 HD
ENDBRANCH   5  19
TORSDOF 4
ENDMDL
MODEL 8
REMARK VINA RESULT:    -4.660      6.123      8.517
REMARK INTER + INTRA:          -6.113
REMARK INTER:                  -5.057
REMARK INTRA:                  -1.057
REMARK UNBOUND:                -0.636
REMARK SMILES O=C(O)c1cc(-c2ccc(F)cc2F)ccc1O
REMARK SMILES IDX 6 1 5 2 15 3 4 4 17 5 16 6 7 7 13 8 12 9 8 10 10 11 9 12
REMARK SMILES IDX 14 13 11 14 2 15 1 16 3 17 18 19
REMARK H PARENT 3 18 18 20
ROOT
ATOM      1  C   UNL     1       0.334  10.382 -10.618  1.00  0.00    -0.014 A 
ATOM      2  C   UNL     1      -0.069  11.660 -11.002  1.00  0.00     0.028 A 
ATOM      3  C   UNL     1       1.567   9.884 -11.038  1.00  0.00     0.013 A 
ATOM      4  C   UNL     1       0.761  12.442 -11.806  1.00  0.00     0.102 A 
ATOM      5  C   UNL     1       1.994  11.944 -12.226  1.00  0.00     0.130 A 
ATOM      6  C   UNL     1       2.398  10.665 -11.841  1.00  0.00     0.048 A 
ENDROOT
BRANCH   1   7
ATOM      7  C   UNL     1      -0.527   9.570  -9.785  1.00  0.00     0.018 A 
ATOM      8  C   UNL     1      -0.577   9.787  -8.408  1.00  0.00     0.133 A 
ATOM      9  C   UNL     1      -1.408   9.002  -7.608  1.00  0.00     0.079 A 
ATOM     10  C   UNL     1      -1.310   8.571 -10.363  1.00  0.00     0.015 A 
ATOM     11  C   UNL     1      -2.189   8.002  -8.186  1.00  0.00     0.126 A 
ATOM     12  C   UNL     1      -2.140   7.787  -9.563  1.00  0.00     0.040 A 
ATOM     13  F   UNL     1       0.171  10.742  -7.837  1.00  0.00    -0.206 F 
ATOM     14  F   UNL     1      -2.988   7.248  -7.419  1.00  0.00    -0.207 F 
ENDBRANCH   1   7
BRANCH   4  15
ATOM     15  C   UNL     1       0.321  13.775 -12.196  1.00  0.00     0.339 C 
ATOM     16  O   UNL     1       0.940  14.541 -12.938  1.00  0.00    -0.246 OA
BRANCH  15  17
ATOM     17  O   UNL     1      -0.879  14.106 -11.646  1.00  0.00    -0.478 OA
ATOM     18  H   UNL     1      -0.772  14.547 -10.777  1.00  0.00     0.297 HD
ENDBRANCH  15  17
ENDBRANCH   4  15
BRANCH   5  19
ATOM     19  O   UNL     1       2.820  12.692 -13.011  1.00  0.00    -0.507 OA
ATOM     20  H   UNL     1       2.284  13.308 -13.539  1.00  0.00     0.293 HD
ENDBRANCH   5  19
TORSDOF 4
ENDMDL
MODEL 9
REMARK VINA RESULT:    -4.654      5.830      8.057
REMARK INTER + INTRA:          -6.106
REMARK INTER:                  -5.048
REMARK INTRA:                  -1.058
REMARK UNBOUND:                -0.636
REMARK SMILES O=C(O)c1cc(-c2ccc(F)cc2F)ccc1O
REMARK SMILES IDX 6 1 5 2 15 3 4 4 17 5 16 6 7 7 13 8 12 9 8 10 10 11 9 12
REMARK SMILES IDX 14 13 11 14 2 15 1 16 3 17 18 19
REMARK H PARENT 3 18 18 20
ROOT
ATOM      1  C   UNL     1      -4.013  10.598 -10.026  1.00  0.00    -0.014 A 
ATOM      2  C   UNL     1      -3.721  11.194 -11.252  1.00  0.00     0.028 A 
ATOM      3  C   UNL     1      -5.235  10.848  -9.403  1.00  0.00     0.013 A 
ATOM      4  C   UNL     1      -4.651  12.040 -11.856  1.00  0.00     0.102 A 
ATOM      5  C   UNL     1      -5.874  12.290 -11.233  1.00  0.00     0.130 A 
ATOM      6  C   UNL     1      -6.166  11.694 -10.005  1.00  0.00     0.048 A 
ENDROOT
BRANCH   1   7
ATOM      7  C   UNL     1      -3.048   9.721  -9.399  1.00  0.00     0.018 A 
ATOM      8  C   UNL     1      -2.928   8.396  -9.819  1.00  0.00     0.133 A 
ATOM      9  C   UNL     1      -1.996   7.554  -9.211  1.00  0.00     0.079 A 
ATOM     10  C   UNL     1      -2.236  10.204  -8.372  1.00  0.00     0.015 A 
ATOM     11  C   UNL     1      -1.185   8.036  -8.185  1.00  0.00     0.126 A 
ATOM     12  C   UNL     1      -1.305   9.362  -7.766  1.00  0.00     0.040 A 
ATOM     13  F   UNL     1      -3.702   7.916 -10.802  1.00  0.00    -0.206 F 
ATOM     14  F   UNL     1      -0.291   7.229  -7.601  1.00  0.00    -0.207 F 
ENDBRANCH   1   7
BRANCH   4  15
ATOM     15  C   UNL     1      -4.327  12.653 -13.137  1.00  0.00     0.339 C 
ATOM     16  O   UNL     1      -5.054  13.429 -13.761  1.00  0.00    -0.246 OA
BRANCH  15  17
ATOM     17  O   UNL     1      -3.103  12.276 -13.597  1.00  0.00    -0.478 OA
ATOM     18  H   UNL     1      -2.762  12.895 -14.277  1.00  0.00     0.297 HD
ENDBRANCH  15  17
ENDBRANCH   4  15
BRANCH   5  19
ATOM     19  O   UNL     1      -6.796  13.113 -11.806  1.00  0.00    -0.507 OA
ATOM     20  H   UNL     1      -7.671  12.690 -11.761  1.00  0.00     0.293 HD
ENDBRANCH   5  19
TORSDOF 4
ENDMDL
