MODEL 1
REMARK VINA RESULT:    -5.155      0.000      0.000
REMARK INTER + INTRA:          -7.115
REMARK INTER:                  -6.360
REMARK INTRA:                  -0.754
REMARK UNBOUND:                -0.754
REMARK SMILES Cc1ccc(C(=O)c2cc(O)c(O)c([N+](=O)[O-])c2)cc1
REMARK SMILES IDX 8 1 18 2 9 3 14 4 10 5 12 6 6 7 7 8 5 9 4 10 19 11 3 12
REMARK SMILES IDX 20 13 2 14 1 15 15 16 17 17 16 18 11 19 13 21
REMARK H PARENT 11 20 13 22
ROOT
ATOM      1  C   UNL     1      -5.973  -2.920  -5.404  1.00  0.00     0.033 A 
ATOM      2  C   UNL     1      -6.057  -1.573  -5.137  1.00  0.00     0.102 A 
ATOM      3  C   UNL     1      -4.922  -3.700  -4.984  1.00  0.00     0.063 A 
ATOM      4  C   UNL     1      -5.031  -0.973  -4.407  1.00  0.00     0.315 A 
ATOM      5  C   UNL     1      -3.895  -3.100  -4.255  1.00  0.00     0.165 A 
ATOM      6  C   UNL     1      -3.950  -1.736  -3.966  1.00  0.00     0.237 A 
ENDROOT
BRANCH   1   7
ATOM      7  C   UNL     1      -7.072  -3.563  -6.186  1.00  0.00     0.193 C 
ATOM      8  O   UNL     1      -7.361  -4.735  -5.902  1.00  0.00    -0.289 OA
BRANCH   7   9
ATOM      9  C   UNL     1      -7.790  -2.865  -7.241  1.00  0.00     0.023 A 
ATOM     10  C   UNL     1      -7.408  -3.033  -8.572  1.00  0.00     0.012 A 
ATOM     11  C   UNL     1      -8.859  -2.030  -6.922  1.00  0.00     0.012 A 
ATOM     12  C   UNL     1      -8.097  -2.364  -9.584  1.00  0.00     0.004 A 
ATOM     13  C   UNL     1      -9.549  -1.360  -7.934  1.00  0.00     0.004 A 
ATOM     14  C   UNL     1      -9.167  -1.528  -9.266  1.00  0.00    -0.051 A 
ATOM     15  C   UNL     1      -9.902  -0.812 -10.347  1.00  0.00     0.044 C 
ENDBRANCH   7   9
ENDBRANCH   1   7
BRANCH   4  16
ATOM     16  N   UNL     1      -5.104   0.418  -4.123  1.00  0.00     0.066 N 
ATOM     17  O   UNL     1      -4.038   1.071  -4.012  1.00  0.00    -0.258 OA
ATOM     18  O   UNL     1      -6.230   0.952  -3.992  1.00  0.00    -0.258 OA
ENDBRANCH   4  16
BRANCH   5  19
ATOM     19  O   UNL     1      -2.846  -3.858  -3.830  1.00  0.00    -0.504 OA
ATOM     20  H   UNL     1      -2.145  -3.280  -3.486  1.00  0.00     0.293 HD
ENDBRANCH   5  19
BRANCH   6  21
ATOM     21  O   UNL     1      -2.940  -1.160  -3.251  1.00  0.00    -0.500 OA
ATOM     22  H   UNL     1      -2.600  -1.793  -2.599  1.00  0.00     0.294 HD
ENDBRANCH   6  21
TORSDOF 5
ENDMDL
MODEL 2
REMARK VINA RESULT:    -5.036      2.024      3.536
REMARK INTER + INTRA:          -6.968
REMARK INTER:                  -6.196
REMARK INTRA:                  -0.772
REMARK UNBOUND:                -0.754
REMARK SMILES Cc1ccc(C(=O)c2cc(O)c(O)c([N+](=O)[O-])c2)cc1
REMARK SMILES IDX 8 1 18 2 9 3 14 4 10 5 12 6 6 7 7 8 5 9 4 10 19 11 3 12
REMARK SMILES IDX 20 13 2 14 1 15 15 16 17 17 16 18 11 19 13 21
REMARK H PARENT 11 20 13 22
ROOT
ATOM      1  C   UNL     1      -5.712  -1.346  -6.235  1.00  0.00     0.033 A 
ATOM      2  C   UNL     1      -4.968  -2.489  -6.049  1.00  0.00     0.102 A 
ATOM      3  C   UNL     1      -5.593  -0.239  -5.429  1.00  0.00     0.063 A 
ATOM      4  C   UNL     1      -4.052  -2.524  -4.997  1.00  0.00     0.315 A 
ATOM      5  C   UNL     1      -4.678  -0.275  -4.376  1.00  0.00     0.165 A 
ATOM      6  C   UNL     1      -3.907  -1.418  -4.161  1.00  0.00     0.237 A 
ENDROOT
BRANCH   1   7
ATOM      7  C   UNL     1      -6.693  -1.308  -7.361  1.00  0.00     0.193 C 
ATOM      8  O   UNL     1      -6.772  -0.254  -8.010  1.00  0.00    -0.289 OA
BRANCH   7   9
ATOM      9  C   UNL     1      -7.531  -2.445  -7.704  1.00  0.00     0.023 A 
ATOM     10  C   UNL     1      -8.828  -2.534  -7.197  1.00  0.00     0.012 A 
ATOM     11  C   UNL     1      -7.040  -3.447  -8.540  1.00  0.00     0.012 A 
ATOM     12  C   UNL     1      -9.632  -3.625  -7.526  1.00  0.00     0.004 A 
ATOM     13  C   UNL     1      -7.844  -4.539  -8.870  1.00  0.00     0.004 A 
ATOM     14  C   UNL     1      -9.141  -4.628  -8.363  1.00  0.00    -0.051 A 
ATOM     15  C   UNL     1     -10.000  -5.794  -8.713  1.00  0.00     0.044 C 
ENDBRANCH   7   9
ENDBRANCH   1   7
BRANCH   4  16
ATOM     16  N   UNL     1      -3.276  -3.698  -4.793  1.00  0.00     0.066 N 
ATOM     17  O   UNL     1      -2.852  -4.326  -5.793  1.00  0.00    -0.258 OA
ATOM     18  O   UNL     1      -3.037  -4.070  -3.620  1.00  0.00    -0.258 OA
ENDBRANCH   4  16
BRANCH   5  19
ATOM     19  O   UNL     1      -4.547   0.814  -3.567  1.00  0.00    -0.504 OA
ATOM     20  H   UNL     1      -5.420   1.079  -3.234  1.00  0.00     0.293 HD
ENDBRANCH   5  19
BRANCH   6  21
ATOM     21  O   UNL     1      -3.015  -1.441  -3.128  1.00  0.00    -0.500 OA
ATOM     22  H   UNL     1      -3.482  -1.619  -2.297  1.00  0.00     0.294 HD
ENDBRANCH   6  21
TORSDOF 5
ENDMDL
MODEL 3
REMARK VINA RESULT:    -4.486      3.512      7.129
REMARK INTER + INTRA:          -6.289
REMARK INTER:                  -5.387
REMARK INTRA:                  -0.903
REMARK UNBOUND:                -0.754
REMARK SMILES Cc1ccc(C(=O)c2cc(O)c(O)c([N+](=O)[O-])c2)cc1
REMARK SMILES IDX 8 1 18 2 9 3 14 4 10 5 12 6 6 7 7 8 5 9 4 10 19 11 3 12
REMARK SMILES IDX 20 13 2 14 1 15 15 16 17 17 16 18 11 19 13 21
REMARK H PARENT 11 20 13 22
ROOT
ATOM      1  C   UNL     1      -8.703  -2.228  -7.454  1.00  0.00     0.033 A 
ATOM      2  C   UNL     1      -9.021  -3.538  -7.728  1.00  0.00     0.102 A 
ATOM      3  C   UNL     1      -9.071  -1.184  -8.269  1.00  0.00     0.063 A 
ATOM      4  C   UNL     1      -9.750  -3.819  -8.884  1.00  0.00     0.315 A 
ATOM      5  C   UNL     1      -9.800  -1.465  -9.425  1.00  0.00     0.165 A 
ATOM      6  C   UNL     1     -10.140  -2.783  -9.732  1.00  0.00     0.237 A 
ENDROOT
BRANCH   1   7
ATOM      7  C   UNL     1      -7.922  -1.927  -6.216  1.00  0.00     0.193 C 
ATOM      8  O   UNL     1      -8.419  -1.125  -5.411  1.00  0.00    -0.289 OA
BRANCH   7   9
ATOM      9  C   UNL     1      -6.630  -2.535  -5.942  1.00  0.00     0.023 A 
ATOM     10  C   UNL     1      -6.326  -2.976  -4.654  1.00  0.00     0.012 A 
ATOM     11  C   UNL     1      -5.695  -2.679  -6.967  1.00  0.00     0.012 A 
ATOM     12  C   UNL     1      -5.087  -3.560  -4.392  1.00  0.00     0.004 A 
ATOM     13  C   UNL     1      -4.455  -3.263  -6.705  1.00  0.00     0.004 A 
ATOM     14  C   UNL     1      -4.151  -3.704  -5.417  1.00  0.00    -0.051 A 
ATOM     15  C   UNL     1      -2.826  -4.326  -5.135  1.00  0.00     0.044 C 
ENDBRANCH   7   9
ENDBRANCH   1   7
BRANCH   4  16
ATOM     16  N   UNL     1     -10.087  -5.168  -9.181  1.00  0.00     0.066 N 
ATOM     17  O   UNL     1      -9.316  -6.083  -8.801  1.00  0.00    -0.258 OA
ATOM     18  O   UNL     1     -11.144  -5.404  -9.811  1.00  0.00    -0.258 OA
ENDBRANCH   4  16
BRANCH   5  19
ATOM     19  O   UNL     1     -10.174  -0.443 -10.245  1.00  0.00    -0.504 OA
ATOM     20  H   UNL     1      -9.550  -0.376 -10.986  1.00  0.00     0.293 HD
ENDBRANCH   5  19
BRANCH   6  21
ATOM     21  O   UNL     1     -10.853  -3.046 -10.866  1.00  0.00    -0.500 OA
ATOM     22  H   UNL     1     -11.557  -2.386 -10.968  1.00  0.00     0.294 HD
ENDBRANCH   6  21
TORSDOF 5
ENDMDL
MODEL 4
REMARK VINA RESULT:    -4.479      3.728      6.912
REMARK INTER + INTRA:          -6.281
REMARK INTER:                  -5.338
REMARK INTRA:                  -0.944
REMARK UNBOUND:                -0.754
REMARK SMILES Cc1ccc(C(=O)c2cc(O)c(O)c([N+](=O)[O-])c2)cc1
REMARK SMILES IDX 8 1 18 2 9 3 14 4 10 5 12 6 6 7 7 8 5 9 4 10 19 11 3 12
REMARK SMILES IDX 20 13 2 14 1 15 15 16 17 17 16 18 11 19 13 21
REMARK H PARENT 11 20 13 22
ROOT
ATOM      1  C   UNL     1      -8.709  -2.602  -7.657  1.00  0.00     0.033 A 
ATOM      2  C   UNL     1      -9.128  -1.748  -8.651  1.00  0.00     0.102 A 
ATOM      3  C   UNL     1      -9.025  -3.940  -7.640  1.00  0.00     0.063 A 
ATOM      4  C   UNL     1      -9.906  -2.264  -9.688  1.00  0.00     0.315 A 
ATOM      5  C   UNL     1      -9.803  -4.455  -8.676  1.00  0.00     0.165 A 
ATOM      6  C   UNL     1     -10.243  -3.617  -9.701  1.00  0.00     0.237 A 
ENDROOT
BRANCH   1   7
ATOM      7  C   UNL     1      -7.877  -2.050  -6.545  1.00  0.00     0.193 C 
ATOM      8  O   UNL     1      -8.320  -1.064  -5.938  1.00  0.00    -0.289 OA
BRANCH   7   9
ATOM      9  C   UNL     1      -6.596  -2.628  -6.171  1.00  0.00     0.023 A 
ATOM     10  C   UNL     1      -6.377  -3.048  -4.858  1.00  0.00     0.012 A 
ATOM     11  C   UNL     1      -5.586  -2.762  -7.123  1.00  0.00     0.012 A 
ATOM     12  C   UNL     1      -5.149  -3.601  -4.499  1.00  0.00     0.004 A 
ATOM     13  C   UNL     1      -4.356  -3.316  -6.764  1.00  0.00     0.004 A 
ATOM     14  C   UNL     1      -4.138  -3.736  -5.452  1.00  0.00    -0.051 A 
ATOM     15  C   UNL     1      -2.825  -4.327  -5.067  1.00  0.00     0.044 C 
ENDBRANCH   7   9
ENDBRANCH   1   7
BRANCH   4  16
ATOM     16  N   UNL     1     -10.346  -1.394 -10.723  1.00  0.00     0.066 N 
ATOM     17  O   UNL     1     -11.366  -1.705 -11.384  1.00  0.00    -0.258 OA
ATOM     18  O   UNL     1      -9.702  -0.342 -10.945  1.00  0.00    -0.258 OA
ENDBRANCH   4  16
BRANCH   5  19
ATOM     19  O   UNL     1     -10.125  -5.779  -8.677  1.00  0.00    -0.504 OA
ATOM     20  H   UNL     1     -10.873  -5.932  -9.276  1.00  0.00     0.293 HD
ENDBRANCH   5  19
BRANCH   6  21
ATOM     21  O   UNL     1     -11.004  -4.132 -10.710  1.00  0.00    -0.500 OA
ATOM     22  H   UNL     1     -10.440  -4.638 -11.317  1.00  0.00     0.294 HD
ENDBRANCH   6  21
TORSDOF 5
ENDMDL
MODEL 5
REMARK VINA RESULT:    -4.461      3.624      6.462
REMARK INTER + INTRA:          -6.258
REMARK INTER:                  -5.334
REMARK INTRA:                  -0.924
REMARK UNBOUND:                -0.754
REMARK SMILES Cc1ccc(C(=O)c2cc(O)c(O)c([N+](=O)[O-])c2)cc1
REMARK SMILES IDX 8 1 18 2 9 3 14 4 10 5 12 6 6 7 7 8 5 9 4 10 19 11 3 12
REMARK SMILES IDX 20 13 2 14 1 15 15 16 17 17 16 18 11 19 13 21
REMARK H PARENT 11 20 13 22
ROOT
ATOM      1  C   UNL     1      -7.613  -3.315  -8.344  1.00  0.00     0.033 A 
ATOM      2  C   UNL     1      -8.251  -2.269  -8.969  1.00  0.00     0.102 A 
ATOM      3  C   UNL     1      -8.127  -4.590  -8.308  1.00  0.00     0.063 A 
ATOM      4  C   UNL     1      -9.473  -2.513  -9.596  1.00  0.00     0.315 A 
ATOM      5  C   UNL     1      -9.350  -4.833  -8.934  1.00  0.00     0.165 A 
ATOM      6  C   UNL     1     -10.023  -3.795  -9.579  1.00  0.00     0.237 A 
ENDROOT
BRANCH   1   7
ATOM      7  C   UNL     1      -6.304  -3.055  -7.672  1.00  0.00     0.193 C 
ATOM      8  O   UNL     1      -5.338  -3.752  -8.018  1.00  0.00    -0.289 OA
BRANCH   7   9
ATOM      9  C   UNL     1      -6.141  -2.031  -6.652  1.00  0.00     0.023 A 
ATOM     10  C   UNL     1      -5.036  -1.181  -6.687  1.00  0.00     0.012 A 
ATOM     11  C   UNL     1      -7.090  -1.899  -5.639  1.00  0.00     0.012 A 
ATOM     12  C   UNL     1      -4.880  -0.199  -5.709  1.00  0.00     0.004 A 
ATOM     13  C   UNL     1      -6.935  -0.916  -4.660  1.00  0.00     0.004 A 
ATOM     14  C   UNL     1      -5.829  -0.066  -4.695  1.00  0.00    -0.051 A 
ATOM     15  C   UNL     1      -5.662   0.983  -3.649  1.00  0.00     0.044 C 
ENDBRANCH   7   9
ENDBRANCH   1   7
BRANCH   4  16
ATOM     16  N   UNL     1     -10.145  -1.442 -10.247  1.00  0.00     0.066 N 
ATOM     17  O   UNL     1      -9.999  -0.277  -9.805  1.00  0.00    -0.258 OA
ATOM     18  O   UNL     1     -10.861  -1.693 -11.244  1.00  0.00    -0.258 OA
ENDBRANCH   4  16
BRANCH   5  19
ATOM     19  O   UNL     1      -9.875  -6.091  -8.910  1.00  0.00    -0.504 OA
ATOM     20  H   UNL     1      -9.531  -6.572  -8.139  1.00  0.00     0.293 HD
ENDBRANCH   5  19
BRANCH   6  21
ATOM     21  O   UNL     1     -11.218  -4.045 -10.188  1.00  0.00    -0.500 OA
ATOM     22  H   UNL     1     -11.278  -3.535 -11.011  1.00  0.00     0.294 HD
ENDBRANCH   6  21
TORSDOF 5
ENDMDL
MODEL 6
REMARK VINA RESULT:    -4.354      3.574      4.412
REMARK INTER + INTRA:          -6.126
REMARK INTER:                  -5.133
REMARK INTRA:                  -0.994
REMARK UNBOUND:                -0.754
REMARK SMILES Cc1ccc(C(=O)c2cc(O)c(O)c([N+](=O)[O-])c2)cc1
REMARK SMILES IDX 8 1 18 2 9 3 14 4 10 5 12 6 6 7 7 8 5 9 4 10 19 11 3 12
REMARK SMILES IDX 20 13 2 14 1 15 15 16 17 17 16 18 11 19 13 21
REMARK H PARENT 11 20 13 22
ROOT
ATOM      1  C   UNL     1      -7.533  -3.334  -8.402  1.00  0.00     0.033 A 
ATOM      2  C   UNL     1      -7.223  -2.761  -7.191  1.00  0.00     0.102 A 
ATOM      3  C   UNL     1      -6.584  -3.879  -9.235  1.00  0.00     0.063 A 
ATOM      4  C   UNL     1      -5.887  -2.732  -6.790  1.00  0.00     0.315 A 
ATOM      5  C   UNL     1      -5.248  -3.849  -8.834  1.00  0.00     0.165 A 
ATOM      6  C   UNL     1      -4.900  -3.275  -7.611  1.00  0.00     0.237 A 
ENDROOT
BRANCH   1   7
ATOM      7  C   UNL     1      -8.963  -3.366  -8.833  1.00  0.00     0.193 C 
ATOM      8  O   UNL     1      -9.453  -2.308  -9.257  1.00  0.00    -0.289 OA
BRANCH   7   9
ATOM      9  C   UNL     1      -9.771  -4.573  -8.767  1.00  0.00     0.023 A 
ATOM     10  C   UNL     1     -10.429  -5.035  -9.907  1.00  0.00     0.012 A 
ATOM     11  C   UNL     1      -9.887  -5.270  -7.565  1.00  0.00     0.012 A 
ATOM     12  C   UNL     1     -11.204  -6.193  -9.844  1.00  0.00     0.004 A 
ATOM     13  C   UNL     1     -10.661  -6.429  -7.501  1.00  0.00     0.004 A 
ATOM     14  C   UNL     1     -11.320  -6.891  -8.641  1.00  0.00    -0.051 A 
ATOM     15  C   UNL     1     -12.149  -8.128  -8.574  1.00  0.00     0.044 C 
ENDBRANCH   7   9
ENDBRANCH   1   7
BRANCH   4  16
ATOM     16  N   UNL     1      -5.551  -2.143  -5.540  1.00  0.00     0.066 N 
ATOM     17  O   UNL     1      -4.477  -1.503  -5.441  1.00  0.00    -0.258 OA
ATOM     18  O   UNL     1      -6.338  -2.280  -4.574  1.00  0.00    -0.258 OA
ENDBRANCH   4  16
BRANCH   5  19
ATOM     19  O   UNL     1      -4.294  -4.384  -9.647  1.00  0.00    -0.504 OA
ATOM     20  H   UNL     1      -4.287  -5.350  -9.547  1.00  0.00     0.293 HD
ENDBRANCH   5  19
BRANCH   6  21
ATOM     21  O   UNL     1      -3.590  -3.253  -7.229  1.00  0.00    -0.500 OA
ATOM     22  H   UNL     1      -3.158  -4.080  -7.494  1.00  0.00     0.294 HD
ENDBRANCH   6  21
TORSDOF 5
ENDMDL
MODEL 7
REMARK VINA RESULT:    -4.320      3.760      6.939
REMARK INTER + INTRA:          -6.085
REMARK INTER:                  -5.125
REMARK INTRA:                  -0.959
REMARK UNBOUND:                -0.754
REMARK SMILES Cc1ccc(C(=O)c2cc(O)c(O)c([N+](=O)[O-])c2)cc1
REMARK SMILES IDX 8 1 18 2 9 3 14 4 10 5 12 6 6 7 7 8 5 9 4 10 19 11 3 12
REMARK SMILES IDX 20 13 2 14 1 15 15 16 17 17 16 18 11 19 13 21
REMARK H PARENT 11 20 13 22
ROOT
ATOM      1  C   UNL     1      -7.657  -3.297  -8.321  1.00  0.00     0.033 A 
ATOM      2  C   UNL     1      -8.243  -4.539  -8.234  1.00  0.00     0.102 A 
ATOM      3  C   UNL     1      -8.218  -2.254  -9.019  1.00  0.00     0.063 A 
ATOM      4  C   UNL     1      -9.460  -4.748  -8.883  1.00  0.00     0.315 A 
ATOM      5  C   UNL     1      -9.435  -2.464  -9.669  1.00  0.00     0.165 A 
ATOM      6  C   UNL     1     -10.056  -3.712  -9.600  1.00  0.00     0.237 A 
ENDROOT
BRANCH   1   7
ATOM      7  C   UNL     1      -6.354  -3.072  -7.626  1.00  0.00     0.193 C 
ATOM      8  O   UNL     1      -5.407  -3.809  -7.940  1.00  0.00    -0.289 OA
BRANCH   7   9
ATOM      9  C   UNL     1      -6.175  -2.038  -6.619  1.00  0.00     0.023 A 
ATOM     10  C   UNL     1      -5.061  -1.199  -6.671  1.00  0.00     0.012 A 
ATOM     11  C   UNL     1      -7.117  -1.884  -5.603  1.00  0.00     0.012 A 
ATOM     12  C   UNL     1      -4.890  -0.207  -5.705  1.00  0.00     0.004 A 
ATOM     13  C   UNL     1      -6.947  -0.891  -4.636  1.00  0.00     0.004 A 
ATOM     14  C   UNL     1      -5.833  -0.053  -4.688  1.00  0.00    -0.051 A 
ATOM     15  C   UNL     1      -5.649   1.007  -3.656  1.00  0.00     0.044 C 
ENDBRANCH   7   9
ENDBRANCH   1   7
BRANCH   4  16
ATOM     16  N   UNL     1     -10.078  -6.026  -8.802  1.00  0.00     0.066 N 
ATOM     17  O   UNL     1      -9.936  -6.703  -7.755  1.00  0.00    -0.258 OA
ATOM     18  O   UNL     1     -10.746  -6.439  -9.779  1.00  0.00    -0.258 OA
ENDBRANCH   4  16
BRANCH   5  19
ATOM     19  O   UNL     1     -10.006  -1.441 -10.365  1.00  0.00    -0.504 OA
ATOM     20  H   UNL     1      -9.774  -0.595  -9.949  1.00  0.00     0.293 HD
ENDBRANCH   5  19
BRANCH   6  21
ATOM     21  O   UNL     1     -11.246  -3.904 -10.239  1.00  0.00    -0.500 OA
ATOM     22  H   UNL     1     -11.850  -3.174 -10.031  1.00  0.00     0.294 HD
ENDBRANCH   6  21
TORSDOF 5
ENDMDL
MODEL 8
REMARK VINA RESULT:    -4.292      1.290      2.712
REMARK INTER + INTRA:          -6.050
REMARK INTER:                  -5.381
REMARK INTRA:                  -0.670
REMARK UNBOUND:                -0.754
REMARK SMILES Cc1ccc(C(=O)c2cc(O)c(O)c([N+](=O)[O-])c2)cc1
REMARK SMILES IDX 8 1 18 2 9 3 14 4 10 5 12 6 6 7 7 8 5 9 4 10 19 11 3 12
REMARK SMILES IDX 20 13 2 14 1 15 15 16 17 17 16 18 11 19 13 21
REMARK H PARENT 11 20 13 22
ROOT
ATOM      1  C   UNL     1      -6.431  -2.802  -5.846  1.00  0.00     0.033 A 
ATOM      2  C   UNL     1      -5.299  -3.539  -5.588  1.00  0.00     0.102 A 
ATOM      3  C   UNL     1      -6.635  -1.542  -5.335  1.00  0.00     0.063 A 
ATOM      4  C   UNL     1      -4.314  -2.983  -4.771  1.00  0.00     0.315 A 
ATOM      5  C   UNL     1      -5.650  -0.987  -4.518  1.00  0.00     0.165 A 
ATOM      6  C   UNL     1      -4.489  -1.707  -4.236  1.00  0.00     0.237 A 
ENDROOT
BRANCH   1   7
ATOM      7  C   UNL     1      -7.486  -3.396  -6.721  1.00  0.00     0.193 C 
ATOM      8  O   UNL     1      -7.798  -4.579  -6.512  1.00  0.00    -0.289 OA
BRANCH   7   9
ATOM      9  C   UNL     1      -8.138  -2.642  -7.779  1.00  0.00     0.023 A 
ATOM     10  C   UNL     1      -7.694  -2.763  -9.096  1.00  0.00     0.012 A 
ATOM     11  C   UNL     1      -9.207  -1.799  -7.479  1.00  0.00     0.012 A 
ATOM     12  C   UNL     1      -8.319  -2.039 -10.112  1.00  0.00     0.004 A 
ATOM     13  C   UNL     1      -9.834  -1.075  -8.494  1.00  0.00     0.004 A 
ATOM     14  C   UNL     1      -9.390  -1.196  -9.811  1.00  0.00    -0.051 A 
ATOM     15  C   UNL     1     -10.057  -0.422 -10.897  1.00  0.00     0.044 C 
ENDBRANCH   7   9
ENDBRANCH   1   7
BRANCH   4  16
ATOM     16  N   UNL     1      -3.137  -3.733  -4.495  1.00  0.00     0.066 N 
ATOM     17  O   UNL     1      -2.852  -3.996  -3.302  1.00  0.00    -0.258 OA
ATOM     18  O   UNL     1      -2.421  -4.110  -5.451  1.00  0.00    -0.258 OA
ENDBRANCH   4  16
BRANCH   5  19
ATOM     19  O   UNL     1      -5.834   0.261  -4.002  1.00  0.00    -0.504 OA
ATOM     20  H   UNL     1      -6.750   0.546  -4.159  1.00  0.00     0.293 HD
ENDBRANCH   5  19
BRANCH   6  21
ATOM     21  O   UNL     1      -3.532  -1.153  -3.436  1.00  0.00    -0.500 OA
ATOM     22  H   UNL     1      -3.950  -0.756  -2.656  1.00  0.00     0.294 HD
ENDBRANCH   6  21
TORSDOF 5
ENDMDL
MODEL 9
REMARK VINA RESULT:    -4.290      1.977      2.555
REMARK INTER + INTRA:          -6.048
REMARK INTER:                  -5.373
REMARK INTRA:                  -0.675
REMARK UNBOUND:                -0.754
REMARK SMILES Cc1ccc(C(=O)c2cc(O)c(O)c([N+](=O)[O-])c2)cc1
REMARK SMILES IDX 8 1 18 2 9 3 14 4 10 5 12 6 6 7 7 8 5 9 4 10 19 11 3 12
REMARK SMILES IDX 20 13 2 14 1 15 15 16 17 17 16 18 11 19 13 21
REMARK H PARENT 11 20 13 22
ROOT
ATOM      1  C   UNL     1      -6.100  -1.704  -6.570  1.00  0.00     0.033 A 
ATOM      2  C   UNL     1      -6.010  -0.616  -5.732  1.00  0.00     0.102 A 
ATOM      3  C   UNL     1      -5.248  -2.780  -6.490  1.00  0.00     0.063 A 
ATOM      4  C   UNL     1      -5.011  -0.605  -4.759  1.00  0.00     0.315 A 
ATOM      5  C   UNL     1      -4.248  -2.768  -5.517  1.00  0.00     0.165 A 
ATOM      6  C   UNL     1      -4.130  -1.681  -4.651  1.00  0.00     0.237 A 
ENDROOT
BRANCH   1   7
ATOM      7  C   UNL     1      -7.170  -1.716  -7.613  1.00  0.00     0.193 C 
ATOM      8  O   UNL     1      -7.346  -0.672  -8.259  1.00  0.00    -0.289 OA
BRANCH   7   9
ATOM      9  C   UNL     1      -7.985  -2.890  -7.880  1.00  0.00     0.023 A 
ATOM     10  C   UNL     1      -9.250  -3.008  -7.302  1.00  0.00     0.012 A 
ATOM     11  C   UNL     1      -7.503  -3.899  -8.713  1.00  0.00     0.012 A 
ATOM     12  C   UNL     1     -10.031  -4.134  -7.559  1.00  0.00     0.004 A 
ATOM     13  C   UNL     1      -8.285  -5.026  -8.970  1.00  0.00     0.004 A 
ATOM     14  C   UNL     1      -9.550  -5.143  -8.393  1.00  0.00    -0.051 A 
ATOM     15  C   UNL     1     -10.385  -6.347  -8.666  1.00  0.00     0.044 C 
ENDBRANCH   7   9
ENDBRANCH   1   7
BRANCH   4  16
ATOM     16  N   UNL     1      -4.906   0.512  -3.886  1.00  0.00     0.066 N 
ATOM     17  O   UNL     1      -3.831   1.158  -3.855  1.00  0.00    -0.258 OA
ATOM     18  O   UNL     1      -5.890   0.819  -3.173  1.00  0.00    -0.258 OA
ENDBRANCH   4  16
BRANCH   5  19
ATOM     19  O   UNL     1      -3.395  -3.826  -5.423  1.00  0.00    -0.504 OA
ATOM     20  H   UNL     1      -2.985  -3.992  -6.288  1.00  0.00     0.293 HD
ENDBRANCH   5  19
BRANCH   6  21
ATOM     21  O   UNL     1      -3.149  -1.682  -3.703  1.00  0.00    -0.500 OA
ATOM     22  H   UNL     1      -3.549  -1.658  -2.819  1.00  0.00     0.294 HD
ENDBRANCH   6  21
TORSDOF 5
ENDMDL
