MODEL 1
REMARK VINA RESULT:    -5.200      0.000      0.000
REMARK INTER + INTRA:          -7.192
REMARK INTER:                  -6.416
REMARK INTRA:                  -0.776
REMARK UNBOUND:                -0.776
REMARK SMILES Cc1ccc(C(=O)c2cc(O)c(O)c([N+](=O)[O-])c2)cc1
REMARK SMILES IDX 8 1 18 2 9 3 14 4 10 5 12 6 6 7 7 8 5 9 4 10 19 11 3 12
REMARK SMILES IDX 20 13 2 14 1 15 15 16 17 17 16 18 11 19 13 21
REMARK H PARENT 11 20 13 22
ROOT
ATOM      1  C   UNL     1      -4.073  -3.687  -6.208  1.00  0.00     0.033 A 
ATOM      2  C   UNL     1      -4.268  -3.949  -4.871  1.00  0.00     0.102 A 
ATOM      3  C   UNL     1      -3.276  -2.662  -6.659  1.00  0.00     0.063 A 
ATOM      4  C   UNL     1      -3.628  -3.140  -3.933  1.00  0.00     0.315 A 
ATOM      5  C   UNL     1      -2.636  -1.853  -5.720  1.00  0.00     0.165 A 
ATOM      6  C   UNL     1      -2.811  -2.092  -4.357  1.00  0.00     0.237 A 
ENDROOT
BRANCH   1   7
ATOM      7  C   UNL     1      -4.760  -4.553  -7.213  1.00  0.00     0.193 C 
ATOM      8  O   UNL     1      -4.161  -4.773  -8.277  1.00  0.00    -0.289 OA
BRANCH   7   9
ATOM      9  C   UNL     1      -6.075  -5.128  -6.979  1.00  0.00     0.023 A 
ATOM     10  C   UNL     1      -7.215  -4.474  -7.447  1.00  0.00     0.012 A 
ATOM     11  C   UNL     1      -6.197  -6.333  -6.288  1.00  0.00     0.012 A 
ATOM     12  C   UNL     1      -8.476  -5.025  -7.222  1.00  0.00     0.004 A 
ATOM     13  C   UNL     1      -7.458  -6.885  -6.064  1.00  0.00     0.004 A 
ATOM     14  C   UNL     1      -8.598  -6.231  -6.531  1.00  0.00    -0.051 A 
ATOM     15  C   UNL     1      -9.947  -6.819  -6.290  1.00  0.00     0.044 C 
ENDBRANCH   7   9
ENDBRANCH   1   7
BRANCH   4  16
ATOM     16  N   UNL     1      -3.819  -3.399  -2.548  1.00  0.00     0.066 N 
ATOM     17  O   UNL     1      -4.035  -4.578  -2.176  1.00  0.00    -0.258 OA
ATOM     18  O   UNL     1      -3.766  -2.443  -1.740  1.00  0.00    -0.258 OA
ENDBRANCH   4  16
BRANCH   5  19
ATOM     19  O   UNL     1      -1.841  -0.832  -6.149  1.00  0.00    -0.504 OA
ATOM     20  H   UNL     1      -2.187   0.012  -5.815  1.00  0.00     0.293 HD
ENDBRANCH   5  19
BRANCH   6  21
ATOM     21  O   UNL     1      -2.179  -1.294  -3.448  1.00  0.00    -0.500 OA
ATOM     22  H   UNL     1      -2.716  -0.504  -3.279  1.00  0.00     0.294 HD
ENDBRANCH   6  21
TORSDOF 5
ENDMDL
MODEL 2
REMARK VINA RESULT:    -5.169      2.007      3.548
REMARK INTER + INTRA:          -7.153
REMARK INTER:                  -6.391
REMARK INTRA:                  -0.763
REMARK UNBOUND:                -0.776
REMARK SMILES Cc1ccc(C(=O)c2cc(O)c(O)c([N+](=O)[O-])c2)cc1
REMARK SMILES IDX 8 1 18 2 9 3 14 4 10 5 12 6 6 7 7 8 5 9 4 10 19 11 3 12
REMARK SMILES IDX 20 13 2 14 1 15 15 16 17 17 16 18 11 19 13 21
REMARK H PARENT 11 20 13 22
ROOT
ATOM      1  C   UNL     1      -5.306  -3.394  -4.941  1.00  0.00     0.033 A 
ATOM      2  C   UNL     1      -4.597  -2.681  -5.880  1.00  0.00     0.102 A 
ATOM      3  C   UNL     1      -4.963  -3.422  -3.610  1.00  0.00     0.063 A 
ATOM      4  C   UNL     1      -3.483  -1.953  -5.464  1.00  0.00     0.315 A 
ATOM      5  C   UNL     1      -3.848  -2.694  -3.194  1.00  0.00     0.165 A 
ATOM      6  C   UNL     1      -3.108  -1.959  -4.121  1.00  0.00     0.237 A 
ENDROOT
BRANCH   1   7
ATOM      7  C   UNL     1      -6.499  -4.174  -5.387  1.00  0.00     0.193 C 
ATOM      8  O   UNL     1      -7.448  -4.267  -4.593  1.00  0.00    -0.289 OA
BRANCH   7   9
ATOM      9  C   UNL     1      -6.572  -4.809  -6.693  1.00  0.00     0.023 A 
ATOM     10  C   UNL     1      -6.232  -6.155  -6.835  1.00  0.00     0.012 A 
ATOM     11  C   UNL     1      -6.983  -4.073  -7.804  1.00  0.00     0.012 A 
ATOM     12  C   UNL     1      -6.303  -6.763  -8.088  1.00  0.00     0.004 A 
ATOM     13  C   UNL     1      -7.054  -4.682  -9.058  1.00  0.00     0.004 A 
ATOM     14  C   UNL     1      -6.714  -6.027  -9.200  1.00  0.00    -0.051 A 
ATOM     15  C   UNL     1      -6.787  -6.678 -10.539  1.00  0.00     0.044 C 
ENDBRANCH   7   9
ENDBRANCH   1   7
BRANCH   4  16
ATOM     16  N   UNL     1      -2.741  -1.211  -6.423  1.00  0.00     0.066 N 
ATOM     17  O   UNL     1      -3.341  -0.737  -7.418  1.00  0.00    -0.258 OA
ATOM     18  O   UNL     1      -1.511  -1.051  -6.246  1.00  0.00    -0.258 OA
ENDBRANCH   4  16
BRANCH   5  19
ATOM     19  O   UNL     1      -3.493  -2.709  -1.878  1.00  0.00    -0.504 OA
ATOM     20  H   UNL     1      -4.160  -3.195  -1.367  1.00  0.00     0.293 HD
ENDBRANCH   5  19
BRANCH   6  21
ATOM     21  O   UNL     1      -2.020  -1.251  -3.701  1.00  0.00    -0.500 OA
ATOM     22  H   UNL     1      -2.119  -1.025  -2.763  1.00  0.00     0.294 HD
ENDBRANCH   6  21
TORSDOF 5
ENDMDL
MODEL 3
REMARK VINA RESULT:    -4.470      1.633      2.956
REMARK INTER + INTRA:          -6.291
REMARK INTER:                  -5.656
REMARK INTRA:                  -0.635
REMARK UNBOUND:                -0.776
REMARK SMILES Cc1ccc(C(=O)c2cc(O)c(O)c([N+](=O)[O-])c2)cc1
REMARK SMILES IDX 8 1 18 2 9 3 14 4 10 5 12 6 6 7 7 8 5 9 4 10 19 11 3 12
REMARK SMILES IDX 20 13 2 14 1 15 15 16 17 17 16 18 11 19 13 21
REMARK H PARENT 11 20 13 22
ROOT
ATOM      1  C   UNL     1      -3.761  -4.267  -4.774  1.00  0.00     0.033 A 
ATOM      2  C   UNL     1      -3.243  -3.396  -5.705  1.00  0.00     0.102 A 
ATOM      3  C   UNL     1      -3.877  -3.951  -3.441  1.00  0.00     0.063 A 
ATOM      4  C   UNL     1      -2.819  -2.138  -5.278  1.00  0.00     0.315 A 
ATOM      5  C   UNL     1      -3.452  -2.693  -3.014  1.00  0.00     0.165 A 
ATOM      6  C   UNL     1      -2.923  -1.786  -3.933  1.00  0.00     0.237 A 
ENDROOT
BRANCH   1   7
ATOM      7  C   UNL     1      -4.216  -5.615  -5.230  1.00  0.00     0.193 C 
ATOM      8  O   UNL     1      -3.426  -6.560  -5.087  1.00  0.00    -0.289 OA
BRANCH   7   9
ATOM      9  C   UNL     1      -5.525  -5.837  -5.822  1.00  0.00     0.023 A 
ATOM     10  C   UNL     1      -6.114  -4.844  -6.605  1.00  0.00     0.012 A 
ATOM     11  C   UNL     1      -6.193  -7.042  -5.606  1.00  0.00     0.012 A 
ATOM     12  C   UNL     1      -7.370  -5.058  -7.172  1.00  0.00     0.004 A 
ATOM     13  C   UNL     1      -7.449  -7.256  -6.173  1.00  0.00     0.004 A 
ATOM     14  C   UNL     1      -8.038  -6.264  -6.957  1.00  0.00    -0.051 A 
ATOM     15  C   UNL     1      -9.382  -6.491  -7.562  1.00  0.00     0.044 C 
ENDBRANCH   7   9
ENDBRANCH   1   7
BRANCH   4  16
ATOM     16  N   UNL     1      -2.282  -1.228  -6.230  1.00  0.00     0.066 N 
ATOM     17  O   UNL     1      -1.099  -0.834  -6.092  1.00  0.00    -0.258 OA
ATOM     18  O   UNL     1      -3.007  -0.845  -7.178  1.00  0.00    -0.258 OA
ENDBRANCH   4  16
BRANCH   5  19
ATOM     19  O   UNL     1      -3.560  -2.362  -1.696  1.00  0.00    -0.504 OA
ATOM     20  H   UNL     1      -2.782  -2.689  -1.214  1.00  0.00     0.293 HD
ENDBRANCH   5  19
BRANCH   6  21
ATOM     21  O   UNL     1      -2.511  -0.558  -3.503  1.00  0.00    -0.500 OA
ATOM     22  H   UNL     1      -2.183  -0.624  -2.593  1.00  0.00     0.294 HD
ENDBRANCH   6  21
TORSDOF 5
ENDMDL
MODEL 4
REMARK VINA RESULT:    -4.455      1.792      1.968
REMARK INTER + INTRA:          -6.273
REMARK INTER:                  -5.627
REMARK INTRA:                  -0.646
REMARK UNBOUND:                -0.776
REMARK SMILES Cc1ccc(C(=O)c2cc(O)c(O)c([N+](=O)[O-])c2)cc1
REMARK SMILES IDX 8 1 18 2 9 3 14 4 10 5 12 6 6 7 7 8 5 9 4 10 19 11 3 12
REMARK SMILES IDX 20 13 2 14 1 15 15 16 17 17 16 18 11 19 13 21
REMARK H PARENT 11 20 13 22
ROOT
ATOM      1  C   UNL     1      -4.844  -2.138  -5.765  1.00  0.00     0.033 A 
ATOM      2  C   UNL     1      -4.890  -2.582  -4.464  1.00  0.00     0.102 A 
ATOM      3  C   UNL     1      -3.717  -1.585  -6.326  1.00  0.00     0.063 A 
ATOM      4  C   UNL     1      -3.742  -2.467  -3.680  1.00  0.00     0.315 A 
ATOM      5  C   UNL     1      -2.569  -1.469  -5.541  1.00  0.00     0.165 A 
ATOM      6  C   UNL     1      -2.582  -1.911  -4.217  1.00  0.00     0.237 A 
ENDROOT
BRANCH   1   7
ATOM      7  C   UNL     1      -6.073  -2.261  -6.606  1.00  0.00     0.193 C 
ATOM      8  O   UNL     1      -6.797  -1.259  -6.704  1.00  0.00    -0.289 OA
BRANCH   7   9
ATOM      9  C   UNL     1      -6.428  -3.492  -7.292  1.00  0.00     0.023 A 
ATOM     10  C   UNL     1      -7.060  -3.441  -8.535  1.00  0.00     0.012 A 
ATOM     11  C   UNL     1      -6.138  -4.725  -6.708  1.00  0.00     0.012 A 
ATOM     12  C   UNL     1      -7.401  -4.623  -9.193  1.00  0.00     0.004 A 
ATOM     13  C   UNL     1      -6.478  -5.908  -7.366  1.00  0.00     0.004 A 
ATOM     14  C   UNL     1      -7.110  -5.856  -8.609  1.00  0.00    -0.051 A 
ATOM     15  C   UNL     1      -7.476  -7.119  -9.312  1.00  0.00     0.044 C 
ENDBRANCH   7   9
ENDBRANCH   1   7
BRANCH   4  16
ATOM     16  N   UNL     1      -3.774  -2.922  -2.333  1.00  0.00     0.066 N 
ATOM     17  O   UNL     1      -4.023  -4.131  -2.107  1.00  0.00    -0.258 OA
ATOM     18  O   UNL     1      -3.553  -2.103  -1.411  1.00  0.00    -0.258 OA
ENDBRANCH   4  16
BRANCH   5  19
ATOM     19  O   UNL     1      -1.443  -0.925  -6.080  1.00  0.00    -0.504 OA
ATOM     20  H   UNL     1      -0.664  -1.419  -5.775  1.00  0.00     0.293 HD
ENDBRANCH   5  19
BRANCH   6  21
ATOM     21  O   UNL     1      -1.453  -1.793  -3.460  1.00  0.00    -0.500 OA
ATOM     22  H   UNL     1      -1.543  -2.329  -2.656  1.00  0.00     0.294 HD
ENDBRANCH   6  21
TORSDOF 5
ENDMDL
MODEL 5
REMARK VINA RESULT:    -4.444      3.651      6.553
REMARK INTER + INTRA:          -6.259
REMARK INTER:                  -5.320
REMARK INTRA:                  -0.939
REMARK UNBOUND:                -0.776
REMARK SMILES Cc1ccc(C(=O)c2cc(O)c(O)c([N+](=O)[O-])c2)cc1
REMARK SMILES IDX 8 1 18 2 9 3 14 4 10 5 12 6 6 7 7 8 5 9 4 10 19 11 3 12
REMARK SMILES IDX 20 13 2 14 1 15 15 16 17 17 16 18 11 19 13 21
REMARK H PARENT 11 20 13 22
ROOT
ATOM      1  C   UNL     1      -6.973  -4.770  -7.726  1.00  0.00     0.033 A 
ATOM      2  C   UNL     1      -7.998  -5.361  -7.024  1.00  0.00     0.102 A 
ATOM      3  C   UNL     1      -6.597  -5.179  -8.983  1.00  0.00     0.063 A 
ATOM      4  C   UNL     1      -8.686  -6.421  -7.614  1.00  0.00     0.315 A 
ATOM      5  C   UNL     1      -7.284  -6.240  -9.573  1.00  0.00     0.165 A 
ATOM      6  C   UNL     1      -8.330  -6.861  -8.889  1.00  0.00     0.237 A 
ENDROOT
BRANCH   1   7
ATOM      7  C   UNL     1      -6.236  -3.634  -7.094  1.00  0.00     0.193 C 
ATOM      8  O   UNL     1      -6.198  -2.563  -7.718  1.00  0.00    -0.289 OA
BRANCH   7   9
ATOM      9  C   UNL     1      -5.582  -3.753  -5.801  1.00  0.00     0.023 A 
ATOM     10  C   UNL     1      -4.804  -4.875  -5.513  1.00  0.00     0.012 A 
ATOM     11  C   UNL     1      -5.731  -2.745  -4.848  1.00  0.00     0.012 A 
ATOM     12  C   UNL     1      -4.176  -4.988  -4.273  1.00  0.00     0.004 A 
ATOM     13  C   UNL     1      -5.103  -2.858  -3.607  1.00  0.00     0.004 A 
ATOM     14  C   UNL     1      -4.326  -3.980  -3.319  1.00  0.00    -0.051 A 
ATOM     15  C   UNL     1      -3.655  -4.102  -1.993  1.00  0.00     0.044 C 
ENDBRANCH   7   9
ENDBRANCH   1   7
BRANCH   4  16
ATOM     16  N   UNL     1      -9.748  -7.042  -6.901  1.00  0.00     0.066 N 
ATOM     17  O   UNL     1     -10.709  -7.527  -7.546  1.00  0.00    -0.258 OA
ATOM     18  O   UNL     1      -9.693  -7.087  -5.650  1.00  0.00    -0.258 OA
ENDBRANCH   4  16
BRANCH   5  19
ATOM     19  O   UNL     1      -6.925  -6.658 -10.819  1.00  0.00    -0.504 OA
ATOM     20  H   UNL     1      -5.959  -6.625 -10.908  1.00  0.00     0.293 HD
ENDBRANCH   5  19
BRANCH   6  21
ATOM     21  O   UNL     1      -8.995  -7.897  -9.477  1.00  0.00    -0.500 OA
ATOM     22  H   UNL     1      -9.890  -7.613  -9.720  1.00  0.00     0.294 HD
ENDBRANCH   6  21
TORSDOF 5
ENDMDL
MODEL 6
REMARK VINA RESULT:    -4.420      3.543      7.163
REMARK INTER + INTRA:          -6.230
REMARK INTER:                  -5.333
REMARK INTRA:                  -0.897
REMARK UNBOUND:                -0.776
REMARK SMILES Cc1ccc(C(=O)c2cc(O)c(O)c([N+](=O)[O-])c2)cc1
REMARK SMILES IDX 8 1 18 2 9 3 14 4 10 5 12 6 6 7 7 8 5 9 4 10 19 11 3 12
REMARK SMILES IDX 20 13 2 14 1 15 15 16 17 17 16 18 11 19 13 21
REMARK H PARENT 11 20 13 22
ROOT
ATOM      1  C   UNL     1      -6.647  -6.054  -6.577  1.00  0.00     0.033 A 
ATOM      2  C   UNL     1      -6.559  -6.205  -7.942  1.00  0.00     0.102 A 
ATOM      3  C   UNL     1      -7.792  -6.329  -5.868  1.00  0.00     0.063 A 
ATOM      4  C   UNL     1      -7.680  -6.660  -8.636  1.00  0.00     0.315 A 
ATOM      5  C   UNL     1      -8.914  -6.784  -6.563  1.00  0.00     0.165 A 
ATOM      6  C   UNL     1      -8.857  -6.950  -7.947  1.00  0.00     0.237 A 
ENDROOT
BRANCH   1   7
ATOM      7  C   UNL     1      -5.447  -5.566  -5.833  1.00  0.00     0.193 C 
ATOM      8  O   UNL     1      -4.996  -6.298  -4.939  1.00  0.00    -0.289 OA
BRANCH   7   9
ATOM      9  C   UNL     1      -4.813  -4.291  -6.126  1.00  0.00     0.023 A 
ATOM     10  C   UNL     1      -3.422  -4.182  -6.101  1.00  0.00     0.012 A 
ATOM     11  C   UNL     1      -5.594  -3.177  -6.432  1.00  0.00     0.012 A 
ATOM     12  C   UNL     1      -2.814  -2.958  -6.383  1.00  0.00     0.004 A 
ATOM     13  C   UNL     1      -4.986  -1.953  -6.713  1.00  0.00     0.004 A 
ATOM     14  C   UNL     1      -3.596  -1.844  -6.689  1.00  0.00    -0.051 A 
ATOM     15  C   UNL     1      -2.945  -0.536  -6.987  1.00  0.00     0.044 C 
ENDBRANCH   7   9
ENDBRANCH   1   7
BRANCH   4  16
ATOM     16  N   UNL     1      -7.603  -6.823 -10.047  1.00  0.00     0.066 N 
ATOM     17  O   UNL     1      -6.838  -6.075 -10.702  1.00  0.00    -0.258 OA
ATOM     18  O   UNL     1      -8.301  -7.708 -10.593  1.00  0.00    -0.258 OA
ENDBRANCH   4  16
BRANCH   5  19
ATOM     19  O   UNL     1     -10.057  -7.063  -5.877  1.00  0.00    -0.504 OA
ATOM     20  H   UNL     1     -10.022  -6.642  -5.001  1.00  0.00     0.293 HD
ENDBRANCH   5  19
BRANCH   6  21
ATOM     21  O   UNL     1      -9.961  -7.395  -8.615  1.00  0.00    -0.500 OA
ATOM     22  H   UNL     1      -9.699  -8.066  -9.266  1.00  0.00     0.294 HD
ENDBRANCH   6  21
TORSDOF 5
ENDMDL
MODEL 7
REMARK VINA RESULT:    -4.363      3.745      6.892
REMARK INTER + INTRA:          -6.159
REMARK INTER:                  -5.177
REMARK INTRA:                  -0.982
REMARK UNBOUND:                -0.776
REMARK SMILES Cc1ccc(C(=O)c2cc(O)c(O)c([N+](=O)[O-])c2)cc1
REMARK SMILES IDX 8 1 18 2 9 3 14 4 10 5 12 6 6 7 7 8 5 9 4 10 19 11 3 12
REMARK SMILES IDX 20 13 2 14 1 15 15 16 17 17 16 18 11 19 13 21
REMARK H PARENT 11 20 13 22
ROOT
ATOM      1  C   UNL     1      -6.691  -6.007  -7.014  1.00  0.00     0.033 A 
ATOM      2  C   UNL     1      -7.966  -6.272  -6.569  1.00  0.00     0.102 A 
ATOM      3  C   UNL     1      -6.293  -6.225  -8.312  1.00  0.00     0.063 A 
ATOM      4  C   UNL     1      -8.896  -6.782  -7.475  1.00  0.00     0.315 A 
ATOM      5  C   UNL     1      -7.223  -6.737  -9.218  1.00  0.00     0.165 A 
ATOM      6  C   UNL     1      -8.525  -7.015  -8.799  1.00  0.00     0.237 A 
ENDROOT
BRANCH   1   7
ATOM      7  C   UNL     1      -5.695  -5.459  -6.044  1.00  0.00     0.193 C 
ATOM      8  O   UNL     1      -5.486  -6.115  -5.013  1.00  0.00    -0.289 OA
BRANCH   7   9
ATOM      9  C   UNL     1      -4.986  -4.212  -6.276  1.00  0.00     0.023 A 
ATOM     10  C   UNL     1      -3.592  -4.181  -6.225  1.00  0.00     0.012 A 
ATOM     11  C   UNL     1      -5.698  -3.044  -6.550  1.00  0.00     0.012 A 
ATOM     12  C   UNL     1      -2.912  -2.984  -6.447  1.00  0.00     0.004 A 
ATOM     13  C   UNL     1      -5.018  -1.846  -6.773  1.00  0.00     0.004 A 
ATOM     14  C   UNL     1      -3.625  -1.816  -6.722  1.00  0.00    -0.051 A 
ATOM     15  C   UNL     1      -2.897  -0.537  -6.958  1.00  0.00     0.044 C 
ENDBRANCH   7   9
ENDBRANCH   1   7
BRANCH   4  16
ATOM     16  N   UNL     1     -10.217  -7.061  -7.030  1.00  0.00     0.066 N 
ATOM     17  O   UNL     1     -10.878  -7.953  -7.614  1.00  0.00    -0.258 OA
ATOM     18  O   UNL     1     -10.682  -6.407  -6.067  1.00  0.00    -0.258 OA
ENDBRANCH   4  16
BRANCH   5  19
ATOM     19  O   UNL     1      -6.847  -6.958 -10.508  1.00  0.00    -0.504 OA
ATOM     20  H   UNL     1      -6.015  -6.491 -10.690  1.00  0.00     0.293 HD
ENDBRANCH   5  19
BRANCH   6  21
ATOM     21  O   UNL     1      -9.425  -7.515  -9.694  1.00  0.00    -0.500 OA
ATOM     22  H   UNL     1      -9.820  -8.327  -9.341  1.00  0.00     0.294 HD
ENDBRANCH   6  21
TORSDOF 5
ENDMDL
MODEL 8
REMARK VINA RESULT:    -4.322      3.799      6.986
REMARK INTER + INTRA:          -6.109
REMARK INTER:                  -5.141
REMARK INTRA:                  -0.967
REMARK UNBOUND:                -0.776
REMARK SMILES Cc1ccc(C(=O)c2cc(O)c(O)c([N+](=O)[O-])c2)cc1
REMARK SMILES IDX 8 1 18 2 9 3 14 4 10 5 12 6 6 7 7 8 5 9 4 10 19 11 3 12
REMARK SMILES IDX 20 13 2 14 1 15 15 16 17 17 16 18 11 19 13 21
REMARK H PARENT 11 20 13 22
ROOT
ATOM      1  C   UNL     1      -7.010  -4.831  -7.693  1.00  0.00     0.033 A 
ATOM      2  C   UNL     1      -6.620  -5.306  -8.924  1.00  0.00     0.102 A 
ATOM      3  C   UNL     1      -8.072  -5.353  -6.995  1.00  0.00     0.063 A 
ATOM      4  C   UNL     1      -7.333  -6.364  -9.488  1.00  0.00     0.315 A 
ATOM      5  C   UNL     1      -8.787  -6.410  -7.559  1.00  0.00     0.165 A 
ATOM      6  C   UNL     1      -8.417  -6.916  -8.805  1.00  0.00     0.237 A 
ENDROOT
BRANCH   1   7
ATOM      7  C   UNL     1      -6.245  -3.698  -7.090  1.00  0.00     0.193 C 
ATOM      8  O   UNL     1      -6.184  -2.643  -7.739  1.00  0.00    -0.289 OA
BRANCH   7   9
ATOM      9  C   UNL     1      -5.591  -3.801  -5.795  1.00  0.00     0.023 A 
ATOM     10  C   UNL     1      -5.753  -2.789  -4.849  1.00  0.00     0.012 A 
ATOM     11  C   UNL     1      -4.802  -4.912  -5.499  1.00  0.00     0.012 A 
ATOM     12  C   UNL     1      -5.126  -2.888  -3.608  1.00  0.00     0.004 A 
ATOM     13  C   UNL     1      -4.174  -5.012  -4.257  1.00  0.00     0.004 A 
ATOM     14  C   UNL     1      -4.336  -4.000  -3.311  1.00  0.00    -0.051 A 
ATOM     15  C   UNL     1      -3.664  -4.104  -1.984  1.00  0.00     0.044 C 
ENDBRANCH   7   9
ENDBRANCH   1   7
BRANCH   4  16
ATOM     16  N   UNL     1      -6.942  -6.865 -10.759  1.00  0.00     0.066 N 
ATOM     17  O   UNL     1      -5.721  -6.906 -11.045  1.00  0.00    -0.258 OA
ATOM     18  O   UNL     1      -7.827  -7.253 -11.556  1.00  0.00    -0.258 OA
ENDBRANCH   4  16
BRANCH   5  19
ATOM     19  O   UNL     1      -9.843  -6.940  -6.880  1.00  0.00    -0.504 OA
ATOM     20  H   UNL     1     -10.479  -7.316  -7.511  1.00  0.00     0.293 HD
ENDBRANCH   5  19
BRANCH   6  21
ATOM     21  O   UNL     1      -9.123  -7.951  -9.346  1.00  0.00    -0.500 OA
ATOM     22  H   UNL     1      -8.658  -8.786  -9.179  1.00  0.00     0.294 HD
ENDBRANCH   6  21
TORSDOF 5
ENDMDL
MODEL 9
REMARK VINA RESULT:    -4.241      1.272      2.695
REMARK INTER + INTRA:          -6.009
REMARK INTER:                  -5.312
REMARK INTRA:                  -0.696
REMARK UNBOUND:                -0.776
REMARK SMILES Cc1ccc(C(=O)c2cc(O)c(O)c([N+](=O)[O-])c2)cc1
REMARK SMILES IDX 8 1 18 2 9 3 14 4 10 5 12 6 6 7 7 8 5 9 4 10 19 11 3 12
REMARK SMILES IDX 20 13 2 14 1 15 15 16 17 17 16 18 11 19 13 21
REMARK H PARENT 11 20 13 22
ROOT
ATOM      1  C   UNL     1      -4.534  -4.032  -6.313  1.00  0.00     0.033 A 
ATOM      2  C   UNL     1      -3.892  -2.903  -6.767  1.00  0.00     0.102 A 
ATOM      3  C   UNL     1      -4.499  -4.432  -4.998  1.00  0.00     0.063 A 
ATOM      4  C   UNL     1      -3.174  -2.131  -5.854  1.00  0.00     0.315 A 
ATOM      5  C   UNL     1      -3.781  -3.660  -4.085  1.00  0.00     0.165 A 
ATOM      6  C   UNL     1      -3.119  -2.509  -4.513  1.00  0.00     0.237 A 
ENDROOT
BRANCH   1   7
ATOM      7  C   UNL     1      -5.302  -4.859  -7.291  1.00  0.00     0.193 C 
ATOM      8  O   UNL     1      -4.761  -5.101  -8.381  1.00  0.00    -0.289 OA
BRANCH   7   9
ATOM      9  C   UNL     1      -6.632  -5.374  -7.003  1.00  0.00     0.023 A 
ATOM     10  C   UNL     1      -7.759  -4.670  -7.427  1.00  0.00     0.012 A 
ATOM     11  C   UNL     1      -6.780  -6.571  -6.303  1.00  0.00     0.012 A 
ATOM     12  C   UNL     1      -9.034  -5.164  -7.150  1.00  0.00     0.004 A 
ATOM     13  C   UNL     1      -8.055  -7.065  -6.026  1.00  0.00     0.004 A 
ATOM     14  C   UNL     1      -9.182  -6.362  -6.450  1.00  0.00    -0.051 A 
ATOM     15  C   UNL     1     -10.545  -6.888  -6.154  1.00  0.00     0.044 C 
ENDBRANCH   7   9
ENDBRANCH   1   7
BRANCH   4  16
ATOM     16  N   UNL     1      -2.506  -0.961  -6.308  1.00  0.00     0.066 N 
ATOM     17  O   UNL     1      -1.263  -0.876  -6.157  1.00  0.00    -0.258 OA
ATOM     18  O   UNL     1      -3.177  -0.050  -6.847  1.00  0.00    -0.258 OA
ENDBRANCH   4  16
BRANCH   5  19
ATOM     19  O   UNL     1      -3.736  -4.041  -2.777  1.00  0.00    -0.504 OA
ATOM     20  H   UNL     1      -4.268  -3.430  -2.242  1.00  0.00     0.293 HD
ENDBRANCH   5  19
BRANCH   6  21
ATOM     21  O   UNL     1      -2.420  -1.761  -3.609  1.00  0.00    -0.500 OA
ATOM     22  H   UNL     1      -2.235  -2.293  -2.820  1.00  0.00     0.294 HD
ENDBRANCH   6  21
TORSDOF 5
ENDMDL
