MODEL 1
REMARK VINA RESULT:    -6.971      0.000      0.000
REMARK INTER + INTRA:          -8.770
REMARK INTER:                  -8.194
REMARK INTRA:                  -0.576
REMARK UNBOUND:                -0.576
REMARK SMILES O=C(O)c1cc(-c2ccc(F)cc2F)ccc1O
REMARK SMILES IDX 6 1 5 2 15 3 4 4 17 5 16 6 7 7 13 8 12 9 8 10 10 11 9 12
REMARK SMILES IDX 14 13 11 14 2 15 1 16 3 17 18 19
REMARK H PARENT 3 18 18 20
ROOT
ATOM      1  C   UNL     1      -4.792  -3.614  -5.672  1.00  0.00    -0.014 A 
ATOM      2  C   UNL     1      -4.631  -3.814  -4.302  1.00  0.00     0.028 A 
ATOM      3  C   UNL     1      -4.036  -2.642  -6.328  1.00  0.00     0.013 A 
ATOM      4  C   UNL     1      -3.715  -3.042  -3.586  1.00  0.00     0.102 A 
ATOM      5  C   UNL     1      -2.959  -2.071  -4.242  1.00  0.00     0.130 A 
ATOM      6  C   UNL     1      -3.120  -1.871  -5.614  1.00  0.00     0.048 A 
ENDROOT
BRANCH   1   7
ATOM      7  C   UNL     1      -5.743  -4.413  -6.415  1.00  0.00     0.018 A 
ATOM      8  C   UNL     1      -6.620  -3.803  -7.313  1.00  0.00     0.133 A 
ATOM      9  C   UNL     1      -7.535  -4.577  -8.026  1.00  0.00     0.079 A 
ATOM     10  C   UNL     1      -5.781  -5.795  -6.232  1.00  0.00     0.015 A 
ATOM     11  C   UNL     1      -7.574  -5.959  -7.843  1.00  0.00     0.126 A 
ATOM     12  C   UNL     1      -6.696  -6.568  -6.946  1.00  0.00     0.040 A 
ATOM     13  F   UNL     1      -6.598  -2.476  -7.498  1.00  0.00    -0.206 F 
ATOM     14  F   UNL     1      -8.452  -6.702  -8.527  1.00  0.00    -0.207 F 
ENDBRANCH   1   7
BRANCH   4  15
ATOM     15  C   UNL     1      -3.562  -3.267  -2.155  1.00  0.00     0.339 C 
ATOM     16  O   UNL     1      -3.657  -2.401  -1.283  1.00  0.00    -0.246 OA
BRANCH  15  17
ATOM     17  O   UNL     1      -3.297  -4.569  -1.861  1.00  0.00    -0.478 OA
ATOM     18  H   UNL     1      -2.747  -4.994  -2.551  1.00  0.00     0.297 HD
ENDBRANCH  15  17
ENDBRANCH   4  15
BRANCH   5  19
ATOM     19  O   UNL     1      -2.059  -1.307  -3.562  1.00  0.00    -0.507 OA
ATOM     20  H   UNL     1      -1.469  -0.868  -4.199  1.00  0.00     0.293 HD
ENDBRANCH   5  19
TORSDOF 4
ENDMDL
MODEL 2
REMARK VINA RESULT:    -6.969      1.127      1.607
REMARK INTER + INTRA:          -8.768
REMARK INTER:                  -8.185
REMARK INTRA:                  -0.582
REMARK UNBOUND:                -0.576
REMARK SMILES O=C(O)c1cc(-c2ccc(F)cc2F)ccc1O
REMARK SMILES IDX 6 1 5 2 15 3 4 4 17 5 16 6 7 7 13 8 12 9 8 10 10 11 9 12
REMARK SMILES IDX 14 13 11 14 2 15 1 16 3 17 18 19
REMARK H PARENT 3 18 18 20
ROOT
ATOM      1  C   UNL     1      -4.775  -3.654  -5.678  1.00  0.00    -0.014 A 
ATOM      2  C   UNL     1      -4.617  -3.843  -4.306  1.00  0.00     0.028 A 
ATOM      3  C   UNL     1      -4.025  -2.682  -6.339  1.00  0.00     0.013 A 
ATOM      4  C   UNL     1      -3.708  -3.059  -3.593  1.00  0.00     0.102 A 
ATOM      5  C   UNL     1      -2.958  -2.087  -4.255  1.00  0.00     0.130 A 
ATOM      6  C   UNL     1      -3.117  -1.898  -5.628  1.00  0.00     0.048 A 
ENDROOT
BRANCH   1   7
ATOM      7  C   UNL     1      -5.718  -4.466  -6.417  1.00  0.00     0.018 A 
ATOM      8  C   UNL     1      -5.763  -5.846  -6.215  1.00  0.00     0.133 A 
ATOM      9  C   UNL     1      -6.674  -6.625  -6.930  1.00  0.00     0.079 A 
ATOM     10  C   UNL     1      -6.583  -3.866  -7.332  1.00  0.00     0.015 A 
ATOM     11  C   UNL     1      -7.538  -6.024  -7.845  1.00  0.00     0.126 A 
ATOM     12  C   UNL     1      -7.493  -4.645  -8.045  1.00  0.00     0.040 A 
ATOM     13  F   UNL     1      -4.937  -6.439  -5.342  1.00  0.00    -0.206 F 
ATOM     14  F   UNL     1      -8.412  -6.771  -8.532  1.00  0.00    -0.207 F 
ENDBRANCH   1   7
BRANCH   4  15
ATOM     15  C   UNL     1      -3.558  -3.272  -2.161  1.00  0.00     0.339 C 
ATOM     16  O   UNL     1      -3.652  -2.398  -1.295  1.00  0.00    -0.246 OA
BRANCH  15  17
ATOM     17  O   UNL     1      -3.296  -4.572  -1.855  1.00  0.00    -0.478 OA
ATOM     18  H   UNL     1      -3.599  -4.802  -0.951  1.00  0.00     0.297 HD
ENDBRANCH  15  17
ENDBRANCH   4  15
BRANCH   5  19
ATOM     19  O   UNL     1      -2.065  -1.311  -3.577  1.00  0.00    -0.507 OA
ATOM     20  H   UNL     1      -1.167  -1.512  -3.893  1.00  0.00     0.293 HD
ENDBRANCH   5  19
TORSDOF 4
ENDMDL
MODEL 3
REMARK VINA RESULT:    -6.958      1.218      2.702
REMARK INTER + INTRA:          -8.754
REMARK INTER:                  -8.173
REMARK INTRA:                  -0.582
REMARK UNBOUND:                -0.576
REMARK SMILES O=C(O)c1cc(-c2ccc(F)cc2F)ccc1O
REMARK SMILES IDX 6 1 5 2 15 3 4 4 17 5 16 6 7 7 13 8 12 9 8 10 10 11 9 12
REMARK SMILES IDX 14 13 11 14 2 15 1 16 3 17 18 19
REMARK H PARENT 3 18 18 20
ROOT
ATOM      1  C   UNL     1      -4.851  -3.597  -5.656  1.00  0.00    -0.014 A 
ATOM      2  C   UNL     1      -4.103  -2.637  -6.337  1.00  0.00     0.028 A 
ATOM      3  C   UNL     1      -4.697  -3.753  -4.279  1.00  0.00     0.013 A 
ATOM      4  C   UNL     1      -3.201  -1.832  -5.641  1.00  0.00     0.102 A 
ATOM      5  C   UNL     1      -3.047  -1.988  -4.264  1.00  0.00     0.130 A 
ATOM      6  C   UNL     1      -3.795  -2.949  -3.582  1.00  0.00     0.048 A 
ENDROOT
BRANCH   1   7
ATOM      7  C   UNL     1      -5.787  -4.433  -6.378  1.00  0.00     0.018 A 
ATOM      8  C   UNL     1      -6.662  -3.866  -7.304  1.00  0.00     0.133 A 
ATOM      9  C   UNL     1      -7.563  -4.675  -7.998  1.00  0.00     0.079 A 
ATOM     10  C   UNL     1      -5.810  -5.808  -6.146  1.00  0.00     0.015 A 
ATOM     11  C   UNL     1      -7.587  -6.050  -7.765  1.00  0.00     0.126 A 
ATOM     12  C   UNL     1      -6.710  -6.616  -6.839  1.00  0.00     0.040 A 
ATOM     13  F   UNL     1      -6.654  -2.545  -7.537  1.00  0.00    -0.206 F 
ATOM     14  F   UNL     1      -8.451  -6.827  -8.430  1.00  0.00    -0.207 F 
ENDBRANCH   1   7
BRANCH   4  15
ATOM     15  C   UNL     1      -2.430  -0.836  -6.371  1.00  0.00     0.339 C 
ATOM     16  O   UNL     1      -1.200  -0.738  -6.363  1.00  0.00    -0.246 OA
BRANCH  15  17
ATOM     17  O   UNL     1      -3.220   0.007  -7.090  1.00  0.00    -0.478 OA
ATOM     18  H   UNL     1      -2.739   0.818  -7.360  1.00  0.00     0.297 HD
ENDBRANCH  15  17
ENDBRANCH   4  15
BRANCH   5  19
ATOM     19  O   UNL     1      -2.171  -1.212  -3.565  1.00  0.00    -0.507 OA
ATOM     20  H   UNL     1      -1.882  -1.695  -2.771  1.00  0.00     0.293 HD
ENDBRANCH   5  19
TORSDOF 4
ENDMDL
MODEL 4
REMARK VINA RESULT:    -6.955      1.671      3.144
REMARK INTER + INTRA:          -8.751
REMARK INTER:                  -8.175
REMARK INTRA:                  -0.575
REMARK UNBOUND:                -0.576
REMARK SMILES O=C(O)c1cc(-c2ccc(F)cc2F)ccc1O
REMARK SMILES IDX 6 1 5 2 15 3 4 4 17 5 16 6 7 7 13 8 12 9 8 10 10 11 9 12
REMARK SMILES IDX 14 13 11 14 2 15 1 16 3 17 18 19
REMARK H PARENT 3 18 18 20
ROOT
ATOM      1  C   UNL     1      -4.796  -3.640  -5.610  1.00  0.00    -0.014 A 
ATOM      2  C   UNL     1      -4.071  -2.669  -6.300  1.00  0.00     0.028 A 
ATOM      3  C   UNL     1      -4.621  -3.795  -4.235  1.00  0.00     0.013 A 
ATOM      4  C   UNL     1      -3.170  -1.853  -5.615  1.00  0.00     0.102 A 
ATOM      5  C   UNL     1      -2.996  -2.008  -4.240  1.00  0.00     0.130 A 
ATOM      6  C   UNL     1      -3.722  -2.980  -3.549  1.00  0.00     0.048 A 
ENDROOT
BRANCH   1   7
ATOM      7  C   UNL     1      -5.729  -4.488  -6.320  1.00  0.00     0.018 A 
ATOM      8  C   UNL     1      -5.727  -5.867  -6.103  1.00  0.00     0.133 A 
ATOM      9  C   UNL     1      -6.628  -6.681  -6.790  1.00  0.00     0.079 A 
ATOM     10  C   UNL     1      -6.631  -3.925  -7.223  1.00  0.00     0.015 A 
ATOM     11  C   UNL     1      -7.530  -6.118  -7.693  1.00  0.00     0.126 A 
ATOM     12  C   UNL     1      -7.531  -4.739  -7.908  1.00  0.00     0.040 A 
ATOM     13  F   UNL     1      -4.865  -6.424  -5.241  1.00  0.00    -0.206 F 
ATOM     14  F   UNL     1      -8.395  -6.898  -8.352  1.00  0.00    -0.207 F 
ENDBRANCH   1   7
BRANCH   4  15
ATOM     15  C   UNL     1      -2.423  -0.844  -6.353  1.00  0.00     0.339 C 
ATOM     16  O   UNL     1      -1.195  -0.731  -6.363  1.00  0.00    -0.246 OA
BRANCH  15  17
ATOM     17  O   UNL     1      -3.235  -0.010  -7.058  1.00  0.00    -0.478 OA
ATOM     18  H   UNL     1      -2.782   0.827  -7.292  1.00  0.00     0.297 HD
ENDBRANCH  15  17
ENDBRANCH   4  15
BRANCH   5  19
ATOM     19  O   UNL     1      -2.122  -1.220  -3.551  1.00  0.00    -0.507 OA
ATOM     20  H   UNL     1      -1.219  -1.399  -3.865  1.00  0.00     0.293 HD
ENDBRANCH   5  19
TORSDOF 4
ENDMDL
MODEL 5
REMARK VINA RESULT:    -5.461      1.356      1.484
REMARK INTER + INTRA:          -6.995
REMARK INTER:                  -6.454
REMARK INTRA:                  -0.542
REMARK UNBOUND:                -0.576
REMARK SMILES O=C(O)c1cc(-c2ccc(F)cc2F)ccc1O
REMARK SMILES IDX 6 1 5 2 15 3 4 4 17 5 16 6 7 7 13 8 12 9 8 10 10 11 9 12
REMARK SMILES IDX 14 13 11 14 2 15 1 16 3 17 18 19
REMARK H PARENT 3 18 18 20
ROOT
ATOM      1  C   UNL     1      -5.094  -4.188  -5.990  1.00  0.00    -0.014 A 
ATOM      2  C   UNL     1      -4.994  -4.478  -4.630  1.00  0.00     0.028 A 
ATOM      3  C   UNL     1      -4.314  -3.175  -6.547  1.00  0.00     0.013 A 
ATOM      4  C   UNL     1      -4.113  -3.753  -3.825  1.00  0.00     0.102 A 
ATOM      5  C   UNL     1      -3.333  -2.740  -4.382  1.00  0.00     0.130 A 
ATOM      6  C   UNL     1      -3.434  -2.451  -5.744  1.00  0.00     0.048 A 
ENDROOT
BRANCH   1   7
ATOM      7  C   UNL     1      -6.008  -4.938  -6.825  1.00  0.00     0.018 A 
ATOM      8  C   UNL     1      -7.263  -5.303  -6.337  1.00  0.00     0.133 A 
ATOM      9  C   UNL     1      -8.141  -6.026  -7.145  1.00  0.00     0.079 A 
ATOM     10  C   UNL     1      -5.632  -5.294  -8.120  1.00  0.00     0.015 A 
ATOM     11  C   UNL     1      -7.764  -6.383  -8.440  1.00  0.00     0.126 A 
ATOM     12  C   UNL     1      -6.510  -6.016  -8.927  1.00  0.00     0.040 A 
ATOM     13  F   UNL     1      -7.639  -4.971  -5.094  1.00  0.00    -0.206 F 
ATOM     14  F   UNL     1      -8.606  -7.077  -9.216  1.00  0.00    -0.207 F 
ENDBRANCH   1   7
BRANCH   4  15
ATOM     15  C   UNL     1      -4.023  -4.071  -2.407  1.00  0.00     0.339 C 
ATOM     16  O   UNL     1      -4.965  -4.055  -1.611  1.00  0.00    -0.246 OA
BRANCH  15  17
ATOM     17  O   UNL     1      -2.758  -4.401  -2.029  1.00  0.00    -0.478 OA
ATOM     18  H   UNL     1      -2.600  -4.212  -1.080  1.00  0.00     0.297 HD
ENDBRANCH  15  17
ENDBRANCH   4  15
BRANCH   5  19
ATOM     19  O   UNL     1      -2.467  -2.021  -3.614  1.00  0.00    -0.507 OA
ATOM     20  H   UNL     1      -2.218  -1.210  -4.090  1.00  0.00     0.293 HD
ENDBRANCH   5  19
TORSDOF 4
ENDMDL
MODEL 6
REMARK VINA RESULT:    -5.290      4.268      6.536
REMARK INTER + INTRA:          -6.794
REMARK INTER:                  -5.717
REMARK INTRA:                  -1.077
REMARK UNBOUND:                -0.576
REMARK SMILES O=C(O)c1cc(-c2ccc(F)cc2F)ccc1O
REMARK SMILES IDX 6 1 5 2 15 3 4 4 17 5 16 6 7 7 13 8 12 9 8 10 10 11 9 12
REMARK SMILES IDX 14 13 11 14 2 15 1 16 3 17 18 19
REMARK H PARENT 3 18 18 20
ROOT
ATOM      1  C   UNL     1      -6.546  -5.255  -6.961  1.00  0.00    -0.014 A 
ATOM      2  C   UNL     1      -7.766  -5.649  -6.414  1.00  0.00     0.028 A 
ATOM      3  C   UNL     1      -6.218  -5.613  -8.269  1.00  0.00     0.013 A 
ATOM      4  C   UNL     1      -8.660  -6.404  -7.175  1.00  0.00     0.102 A 
ATOM      5  C   UNL     1      -8.333  -6.763  -8.482  1.00  0.00     0.130 A 
ATOM      6  C   UNL     1      -7.112  -6.367  -9.030  1.00  0.00     0.048 A 
ENDROOT
BRANCH   1   7
ATOM      7  C   UNL     1      -5.617  -4.473  -6.173  1.00  0.00     0.018 A 
ATOM      8  C   UNL     1      -4.728  -5.108  -5.305  1.00  0.00     0.133 A 
ATOM      9  C   UNL     1      -3.834  -4.351  -4.547  1.00  0.00     0.079 A 
ATOM     10  C   UNL     1      -5.612  -3.083  -6.282  1.00  0.00     0.015 A 
ATOM     11  C   UNL     1      -3.830  -2.961  -4.656  1.00  0.00     0.126 A 
ATOM     12  C   UNL     1      -4.719  -2.327  -5.524  1.00  0.00     0.040 A 
ATOM     13  F   UNL     1      -4.721  -6.444  -5.186  1.00  0.00    -0.206 F 
ATOM     14  F   UNL     1      -2.973  -2.234  -3.928  1.00  0.00    -0.207 F 
ENDBRANCH   1   7
BRANCH   4  15
ATOM     15  C   UNL     1      -9.930  -6.806  -6.585  1.00  0.00     0.339 C 
ATOM     16  O   UNL     1     -10.847  -7.373  -7.184  1.00  0.00    -0.246 OA
BRANCH  15  17
ATOM     17  O   UNL     1     -10.012  -6.488  -5.265  1.00  0.00    -0.478 OA
ATOM     18  H   UNL     1      -9.599  -7.173  -4.698  1.00  0.00     0.297 HD
ENDBRANCH  15  17
ENDBRANCH   4  15
BRANCH   5  19
ATOM     19  O   UNL     1      -9.193  -7.499  -9.242  1.00  0.00    -0.507 OA
ATOM     20  H   UNL     1     -10.062  -7.522  -8.805  1.00  0.00     0.293 HD
ENDBRANCH   5  19
TORSDOF 4
ENDMDL
MODEL 7
REMARK VINA RESULT:    -5.248      4.582      6.914
REMARK INTER + INTRA:          -6.745
REMARK INTER:                  -5.663
REMARK INTRA:                  -1.082
REMARK UNBOUND:                -0.576
REMARK SMILES O=C(O)c1cc(-c2ccc(F)cc2F)ccc1O
REMARK SMILES IDX 6 1 5 2 15 3 4 4 17 5 16 6 7 7 13 8 12 9 8 10 10 11 9 12
REMARK SMILES IDX 14 13 11 14 2 15 1 16 3 17 18 19
REMARK H PARENT 3 18 18 20
ROOT
ATOM      1  C   UNL     1      -6.507  -5.251  -6.994  1.00  0.00    -0.014 A 
ATOM      2  C   UNL     1      -6.146  -5.609  -8.293  1.00  0.00     0.028 A 
ATOM      3  C   UNL     1      -7.741  -5.648  -6.479  1.00  0.00     0.013 A 
ATOM      4  C   UNL     1      -7.018  -6.364  -9.077  1.00  0.00     0.102 A 
ATOM      5  C   UNL     1      -8.252  -6.762  -8.562  1.00  0.00     0.130 A 
ATOM      6  C   UNL     1      -8.613  -6.404  -7.262  1.00  0.00     0.048 A 
ENDROOT
BRANCH   1   7
ATOM      7  C   UNL     1      -5.604  -4.466  -6.181  1.00  0.00     0.018 A 
ATOM      8  C   UNL     1      -4.729  -5.098  -5.296  1.00  0.00     0.133 A 
ATOM      9  C   UNL     1      -3.860  -4.337  -4.514  1.00  0.00     0.079 A 
ATOM     10  C   UNL     1      -5.608  -3.075  -6.284  1.00  0.00     0.015 A 
ATOM     11  C   UNL     1      -3.864  -2.947  -4.616  1.00  0.00     0.126 A 
ATOM     12  C   UNL     1      -4.738  -2.316  -5.502  1.00  0.00     0.040 A 
ATOM     13  F   UNL     1      -4.714  -6.434  -5.184  1.00  0.00    -0.206 F 
ATOM     14  F   UNL     1      -3.030  -2.216  -3.866  1.00  0.00    -0.207 F 
ENDBRANCH   1   7
BRANCH   4  15
ATOM     15  C   UNL     1      -6.622  -6.728 -10.430  1.00  0.00     0.339 C 
ATOM     16  O   UNL     1      -5.484  -7.055 -10.777  1.00  0.00    -0.246 OA
BRANCH  15  17
ATOM     17  O   UNL     1      -7.661  -6.674 -11.307  1.00  0.00    -0.478 OA
ATOM     18  H   UNL     1      -7.480  -6.060 -12.049  1.00  0.00     0.297 HD
ENDBRANCH  15  17
ENDBRANCH   4  15
BRANCH   5  19
ATOM     19  O   UNL     1      -9.118  -7.501  -9.311  1.00  0.00    -0.507 OA
ATOM     20  H   UNL     1      -9.683  -6.900  -9.827  1.00  0.00     0.293 HD
ENDBRANCH   5  19
TORSDOF 4
ENDMDL
MODEL 8
REMARK VINA RESULT:    -4.757      2.048      3.178
REMARK INTER + INTRA:          -6.167
REMARK INTER:                  -5.206
REMARK INTRA:                  -0.962
REMARK UNBOUND:                -0.576
REMARK SMILES O=C(O)c1cc(-c2ccc(F)cc2F)ccc1O
REMARK SMILES IDX 6 1 5 2 15 3 4 4 17 5 16 6 7 7 13 8 12 9 8 10 10 11 9 12
REMARK SMILES IDX 14 13 11 14 2 15 1 16 3 17 18 19
REMARK H PARENT 3 18 18 20
ROOT
ATOM      1  C   UNL     1      -5.532  -4.709  -6.337  1.00  0.00    -0.014 A 
ATOM      2  C   UNL     1      -5.288  -3.410  -6.782  1.00  0.00     0.028 A 
ATOM      3  C   UNL     1      -4.698  -5.286  -5.380  1.00  0.00     0.013 A 
ATOM      4  C   UNL     1      -4.209  -2.688  -6.270  1.00  0.00     0.102 A 
ATOM      5  C   UNL     1      -3.376  -3.266  -5.313  1.00  0.00     0.130 A 
ATOM      6  C   UNL     1      -3.620  -4.566  -4.867  1.00  0.00     0.048 A 
ENDROOT
BRANCH   1   7
ATOM      7  C   UNL     1      -6.649  -5.459  -6.869  1.00  0.00     0.018 A 
ATOM      8  C   UNL     1      -6.644  -5.874  -8.201  1.00  0.00     0.133 A 
ATOM      9  C   UNL     1      -7.723  -6.597  -8.710  1.00  0.00     0.079 A 
ATOM     10  C   UNL     1      -7.733  -5.767  -6.047  1.00  0.00     0.015 A 
ATOM     11  C   UNL     1      -8.807  -6.904  -7.888  1.00  0.00     0.126 A 
ATOM     12  C   UNL     1      -8.811  -6.490  -6.556  1.00  0.00     0.040 A 
ATOM     13  F   UNL     1      -5.611  -5.584  -9.006  1.00  0.00    -0.206 F 
ATOM     14  F   UNL     1      -9.843  -7.598  -8.376  1.00  0.00    -0.207 F 
ENDBRANCH   1   7
BRANCH   4  15
ATOM     15  C   UNL     1      -3.971  -1.333  -6.748  1.00  0.00     0.339 C 
ATOM     16  O   UNL     1      -2.902  -0.725  -6.665  1.00  0.00    -0.246 OA
BRANCH  15  17
ATOM     17  O   UNL     1      -5.079  -0.782  -7.315  1.00  0.00    -0.478 OA
ATOM     18  H   UNL     1      -5.833  -1.407  -7.325  1.00  0.00     0.297 HD
ENDBRANCH  15  17
ENDBRANCH   4  15
BRANCH   5  19
ATOM     19  O   UNL     1      -2.317  -2.577  -4.799  1.00  0.00    -0.507 OA
ATOM     20  H   UNL     1      -2.635  -1.734  -4.432  1.00  0.00     0.293 HD
ENDBRANCH   5  19
TORSDOF 4
ENDMDL
MODEL 9
REMARK VINA RESULT:    -4.185      8.439     10.640
REMARK INTER + INTRA:          -5.496
REMARK INTER:                  -4.460
REMARK INTRA:                  -1.035
REMARK UNBOUND:                -0.576
REMARK SMILES O=C(O)c1cc(-c2ccc(F)cc2F)ccc1O
REMARK SMILES IDX 6 1 5 2 15 3 4 4 17 5 16 6 7 7 13 8 12 9 8 10 10 11 9 12
REMARK SMILES IDX 14 13 11 14 2 15 1 16 3 17 18 19
REMARK H PARENT 3 18 18 20
ROOT
ATOM      1  C   UNL     1      -6.460  -9.618 -12.962  1.00  0.00    -0.014 A 
ATOM      2  C   UNL     1      -7.815  -9.339 -12.784  1.00  0.00     0.028 A 
ATOM      3  C   UNL     1      -5.498  -8.845 -12.311  1.00  0.00     0.013 A 
ATOM      4  C   UNL     1      -8.208  -8.287 -11.956  1.00  0.00     0.102 A 
ATOM      5  C   UNL     1      -7.246  -7.515 -11.306  1.00  0.00     0.130 A 
ATOM      6  C   UNL     1      -5.890  -7.794 -11.483  1.00  0.00     0.048 A 
ENDROOT
BRANCH   1   7
ATOM      7  C   UNL     1      -6.051 -10.707 -13.822  1.00  0.00     0.018 A 
ATOM      8  C   UNL     1      -5.809 -11.972 -13.283  1.00  0.00     0.133 A 
ATOM      9  C   UNL     1      -5.415 -13.019 -14.116  1.00  0.00     0.079 A 
ATOM     10  C   UNL     1      -5.901 -10.492 -15.191  1.00  0.00     0.015 A 
ATOM     11  C   UNL     1      -5.264 -12.804 -15.485  1.00  0.00     0.126 A 
ATOM     12  C   UNL     1      -5.508 -11.540 -16.023  1.00  0.00     0.040 A 
ATOM     13  F   UNL     1      -5.946 -12.195 -11.968  1.00  0.00    -0.206 F 
ATOM     14  F   UNL     1      -4.885 -13.809 -16.285  1.00  0.00    -0.207 F 
ENDBRANCH   1   7
BRANCH   4  15
ATOM     15  C   UNL     1      -9.628  -8.012 -11.784  1.00  0.00     0.339 C 
ATOM     16  O   UNL     1     -10.425  -7.776 -12.695  1.00  0.00    -0.246 OA
BRANCH  15  17
ATOM     17  O   UNL     1     -10.007  -8.043 -10.477  1.00  0.00    -0.478 OA
ATOM     18  H   UNL     1      -9.449  -7.458  -9.922  1.00  0.00     0.297 HD
ENDBRANCH  15  17
ENDBRANCH   4  15
BRANCH   5  19
ATOM     19  O   UNL     1      -7.609  -6.483 -10.492  1.00  0.00    -0.507 OA
ATOM     20  H   UNL     1      -8.375  -6.026 -10.881  1.00  0.00     0.293 HD
ENDBRANCH   5  19
TORSDOF 4
ENDMDL
