MODEL 1
REMARK VINA RESULT:    -6.994      0.000      0.000
REMARK INTER + INTRA:          -8.785
REMARK INTER:                  -8.221
REMARK INTRA:                  -0.564
REMARK UNBOUND:                -0.564
REMARK SMILES O=C(O)c1cc(-c2ccc(F)cc2F)ccc1O
REMARK SMILES IDX 6 1 5 2 15 3 4 4 17 5 16 6 7 7 13 8 12 9 8 10 10 11 9 12
REMARK SMILES IDX 14 13 11 14 2 15 1 16 3 17 18 19
REMARK H PARENT 3 18 18 20
ROOT
ATOM      1  C   UNL     1      -5.945  -2.135  -5.957  1.00  0.00    -0.014 A 
ATOM      2  C   UNL     1      -4.995  -3.111  -5.656  1.00  0.00     0.028 A 
ATOM      3  C   UNL     1      -5.874  -0.882  -5.349  1.00  0.00     0.013 A 
ATOM      4  C   UNL     1      -3.974  -2.833  -4.747  1.00  0.00     0.102 A 
ATOM      5  C   UNL     1      -3.903  -1.580  -4.139  1.00  0.00     0.130 A 
ATOM      6  C   UNL     1      -4.854  -0.604  -4.440  1.00  0.00     0.048 A 
ENDROOT
BRANCH   1   7
ATOM      7  C   UNL     1      -7.005  -2.423  -6.899  1.00  0.00     0.018 A 
ATOM      8  C   UNL     1      -6.719  -3.078  -8.097  1.00  0.00     0.133 A 
ATOM      9  C   UNL     1      -7.744  -3.352  -9.003  1.00  0.00     0.079 A 
ATOM     10  C   UNL     1      -8.315  -2.044  -6.606  1.00  0.00     0.015 A 
ATOM     11  C   UNL     1      -9.054  -2.973  -8.710  1.00  0.00     0.126 A 
ATOM     12  C   UNL     1      -9.339  -2.320  -7.511  1.00  0.00     0.040 A 
ATOM     13  F   UNL     1      -5.465  -3.445  -8.395  1.00  0.00    -0.206 F 
ATOM     14  F   UNL     1     -10.038  -3.237  -9.579  1.00  0.00    -0.207 F 
ENDBRANCH   1   7
BRANCH   4  15
ATOM     15  C   UNL     1      -2.991  -3.866  -4.447  1.00  0.00     0.339 C 
ATOM     16  O   UNL     1      -2.701  -4.268  -3.318  1.00  0.00    -0.246 OA
BRANCH  15  17
ATOM     17  O   UNL     1      -2.403  -4.363  -5.568  1.00  0.00    -0.478 OA
ATOM     18  H   UNL     1      -2.714  -5.270  -5.772  1.00  0.00     0.297 HD
ENDBRANCH  15  17
ENDBRANCH   4  15
BRANCH   5  19
ATOM     19  O   UNL     1      -2.913  -1.289  -3.248  1.00  0.00    -0.507 OA
ATOM     20  H   UNL     1      -3.180  -1.597  -2.365  1.00  0.00     0.293 HD
ENDBRANCH   5  19
TORSDOF 4
ENDMDL
MODEL 2
REMARK VINA RESULT:    -6.994      1.129      1.610
REMARK INTER + INTRA:          -8.785
REMARK INTER:                  -8.221
REMARK INTRA:                  -0.563
REMARK UNBOUND:                -0.564
REMARK SMILES O=C(O)c1cc(-c2ccc(F)cc2F)ccc1O
REMARK SMILES IDX 6 1 5 2 15 3 4 4 17 5 16 6 7 7 13 8 12 9 8 10 10 11 9 12
REMARK SMILES IDX 14 13 11 14 2 15 1 16 3 17 18 19
REMARK H PARENT 3 18 18 20
ROOT
ATOM      1  C   UNL     1      -5.967  -2.128  -5.907  1.00  0.00    -0.014 A 
ATOM      2  C   UNL     1      -5.013  -3.104  -5.623  1.00  0.00     0.028 A 
ATOM      3  C   UNL     1      -5.891  -0.878  -5.292  1.00  0.00     0.013 A 
ATOM      4  C   UNL     1      -3.981  -2.832  -4.724  1.00  0.00     0.102 A 
ATOM      5  C   UNL     1      -3.905  -1.582  -4.109  1.00  0.00     0.130 A 
ATOM      6  C   UNL     1      -4.860  -0.605  -4.393  1.00  0.00     0.048 A 
ENDROOT
BRANCH   1   7
ATOM      7  C   UNL     1      -7.037  -2.411  -6.839  1.00  0.00     0.018 A 
ATOM      8  C   UNL     1      -8.350  -2.056  -6.526  1.00  0.00     0.133 A 
ATOM      9  C   UNL     1      -9.379  -2.331  -7.427  1.00  0.00     0.079 A 
ATOM     10  C   UNL     1      -6.754  -3.038  -8.052  1.00  0.00     0.015 A 
ATOM     11  C   UNL     1      -9.096  -2.959  -8.640  1.00  0.00     0.126 A 
ATOM     12  C   UNL     1      -7.783  -3.312  -8.952  1.00  0.00     0.040 A 
ATOM     13  F   UNL     1      -8.640  -1.456  -5.363  1.00  0.00    -0.206 F 
ATOM     14  F   UNL     1     -10.083  -3.223  -9.505  1.00  0.00    -0.207 F 
ENDBRANCH   1   7
BRANCH   4  15
ATOM     15  C   UNL     1      -2.994  -3.864  -4.441  1.00  0.00     0.339 C 
ATOM     16  O   UNL     1      -2.694  -4.276  -3.318  1.00  0.00    -0.246 OA
BRANCH  15  17
ATOM     17  O   UNL     1      -2.415  -4.351  -5.572  1.00  0.00    -0.478 OA
ATOM     18  H   UNL     1      -2.410  -5.332  -5.586  1.00  0.00     0.297 HD
ENDBRANCH  15  17
ENDBRANCH   4  15
BRANCH   5  19
ATOM     19  O   UNL     1      -2.905  -1.295  -3.228  1.00  0.00    -0.507 OA
ATOM     20  H   UNL     1      -2.220  -1.982  -3.291  1.00  0.00     0.293 HD
ENDBRANCH   5  19
TORSDOF 4
ENDMDL
MODEL 3
REMARK VINA RESULT:    -6.981      1.636      3.130
REMARK INTER + INTRA:          -8.769
REMARK INTER:                  -8.193
REMARK INTRA:                  -0.577
REMARK UNBOUND:                -0.564
REMARK SMILES O=C(O)c1cc(-c2ccc(F)cc2F)ccc1O
REMARK SMILES IDX 6 1 5 2 15 3 4 4 17 5 16 6 7 7 13 8 12 9 8 10 10 11 9 12
REMARK SMILES IDX 14 13 11 14 2 15 1 16 3 17 18 19
REMARK H PARENT 3 18 18 20
ROOT
ATOM      1  C   UNL     1      -5.993  -2.205  -5.905  1.00  0.00    -0.014 A 
ATOM      2  C   UNL     1      -5.938  -0.944  -5.314  1.00  0.00     0.028 A 
ATOM      3  C   UNL     1      -5.045  -3.173  -5.574  1.00  0.00     0.013 A 
ATOM      4  C   UNL     1      -4.933  -0.649  -4.391  1.00  0.00     0.102 A 
ATOM      5  C   UNL     1      -3.984  -1.617  -4.061  1.00  0.00     0.130 A 
ATOM      6  C   UNL     1      -4.040  -2.880  -4.653  1.00  0.00     0.048 A 
ENDROOT
BRANCH   1   7
ATOM      7  C   UNL     1      -7.035  -2.512  -6.862  1.00  0.00     0.018 A 
ATOM      8  C   UNL     1      -8.357  -2.151  -6.599  1.00  0.00     0.133 A 
ATOM      9  C   UNL     1      -9.357  -2.448  -7.524  1.00  0.00     0.079 A 
ATOM     10  C   UNL     1      -6.714  -3.167  -8.050  1.00  0.00     0.015 A 
ATOM     11  C   UNL     1      -9.036  -3.105  -8.712  1.00  0.00     0.126 A 
ATOM     12  C   UNL     1      -7.714  -3.464  -8.975  1.00  0.00     0.040 A 
ATOM     13  F   UNL     1      -8.682  -1.522  -5.460  1.00  0.00    -0.206 F 
ATOM     14  F   UNL     1      -9.996  -3.390  -9.601  1.00  0.00    -0.207 F 
ENDBRANCH   1   7
BRANCH   4  15
ATOM     15  C   UNL     1      -4.892   0.674  -3.785  1.00  0.00     0.339 C 
ATOM     16  O   UNL     1      -3.915   1.427  -3.780  1.00  0.00    -0.246 OA
BRANCH  15  17
ATOM     17  O   UNL     1      -6.075   1.015  -3.205  1.00  0.00    -0.478 OA
ATOM     18  H   UNL     1      -6.670   0.243  -3.109  1.00  0.00     0.297 HD
ENDBRANCH  15  17
ENDBRANCH   4  15
BRANCH   5  19
ATOM     19  O   UNL     1      -2.995  -1.349  -3.162  1.00  0.00    -0.507 OA
ATOM     20  H   UNL     1      -3.172  -0.490  -2.742  1.00  0.00     0.293 HD
ENDBRANCH   5  19
TORSDOF 4
ENDMDL
MODEL 4
REMARK VINA RESULT:    -6.981      1.208      2.689
REMARK INTER + INTRA:          -8.769
REMARK INTER:                  -8.199
REMARK INTRA:                  -0.570
REMARK UNBOUND:                -0.564
REMARK SMILES O=C(O)c1cc(-c2ccc(F)cc2F)ccc1O
REMARK SMILES IDX 6 1 5 2 15 3 4 4 17 5 16 6 7 7 13 8 12 9 8 10 10 11 9 12
REMARK SMILES IDX 14 13 11 14 2 15 1 16 3 17 18 19
REMARK H PARENT 3 18 18 20
ROOT
ATOM      1  C   UNL     1      -5.933  -2.203  -5.935  1.00  0.00    -0.014 A 
ATOM      2  C   UNL     1      -5.897  -0.946  -5.334  1.00  0.00     0.028 A 
ATOM      3  C   UNL     1      -4.973  -3.160  -5.608  1.00  0.00     0.013 A 
ATOM      4  C   UNL     1      -4.901  -0.644  -4.405  1.00  0.00     0.102 A 
ATOM      5  C   UNL     1      -3.941  -1.602  -4.077  1.00  0.00     0.130 A 
ATOM      6  C   UNL     1      -3.977  -2.860  -4.679  1.00  0.00     0.048 A 
ENDROOT
BRANCH   1   7
ATOM      7  C   UNL     1      -6.965  -2.516  -6.900  1.00  0.00     0.018 A 
ATOM      8  C   UNL     1      -6.633  -3.143  -8.102  1.00  0.00     0.133 A 
ATOM      9  C   UNL     1      -7.632  -3.442  -9.030  1.00  0.00     0.079 A 
ATOM     10  C   UNL     1      -8.293  -2.189  -6.627  1.00  0.00     0.015 A 
ATOM     11  C   UNL     1      -8.959  -3.115  -8.756  1.00  0.00     0.126 A 
ATOM     12  C   UNL     1      -9.290  -2.489  -7.554  1.00  0.00     0.040 A 
ATOM     13  F   UNL     1      -5.362  -3.461  -8.382  1.00  0.00    -0.206 F 
ATOM     14  F   UNL     1      -9.918  -3.402  -9.646  1.00  0.00    -0.207 F 
ENDBRANCH   1   7
BRANCH   4  15
ATOM     15  C   UNL     1      -4.881   0.675  -3.788  1.00  0.00     0.339 C 
ATOM     16  O   UNL     1      -3.915   1.441  -3.773  1.00  0.00    -0.246 OA
BRANCH  15  17
ATOM     17  O   UNL     1      -6.071   0.994  -3.210  1.00  0.00    -0.478 OA
ATOM     18  H   UNL     1      -6.055   1.892  -2.816  1.00  0.00     0.297 HD
ENDBRANCH  15  17
ENDBRANCH   4  15
BRANCH   5  19
ATOM     19  O   UNL     1      -2.960  -1.328  -3.171  1.00  0.00    -0.507 OA
ATOM     20  H   UNL     1      -2.110  -1.657  -3.514  1.00  0.00     0.293 HD
ENDBRANCH   5  19
TORSDOF 4
ENDMDL
MODEL 5
REMARK VINA RESULT:    -5.462      4.078      6.311
REMARK INTER + INTRA:          -6.984
REMARK INTER:                  -5.911
REMARK INTRA:                  -1.073
REMARK UNBOUND:                -0.564
REMARK SMILES O=C(O)c1cc(-c2ccc(F)cc2F)ccc1O
REMARK SMILES IDX 6 1 5 2 15 3 4 4 17 5 16 6 7 7 13 8 12 9 8 10 10 11 9 12
REMARK SMILES IDX 14 13 11 14 2 15 1 16 3 17 18 19
REMARK H PARENT 3 18 18 20
ROOT
ATOM      1  C   UNL     1      -7.843  -2.784  -7.739  1.00  0.00    -0.014 A 
ATOM      2  C   UNL     1      -8.432  -4.045  -7.818  1.00  0.00     0.028 A 
ATOM      3  C   UNL     1      -8.295  -1.751  -8.560  1.00  0.00     0.013 A 
ATOM      4  C   UNL     1      -9.474  -4.275  -8.718  1.00  0.00     0.102 A 
ATOM      5  C   UNL     1      -9.926  -3.241  -9.538  1.00  0.00     0.130 A 
ATOM      6  C   UNL     1      -9.336  -1.979  -9.459  1.00  0.00     0.048 A 
ENDROOT
BRANCH   1   7
ATOM      7  C   UNL     1      -6.762  -2.546  -6.808  1.00  0.00     0.018 A 
ATOM      8  C   UNL     1      -5.451  -2.869  -7.159  1.00  0.00     0.133 A 
ATOM      9  C   UNL     1      -4.411  -2.639  -6.257  1.00  0.00     0.079 A 
ATOM     10  C   UNL     1      -7.033  -1.992  -5.557  1.00  0.00     0.015 A 
ATOM     11  C   UNL     1      -4.682  -2.085  -5.007  1.00  0.00     0.126 A 
ATOM     12  C   UNL     1      -5.993  -1.761  -4.657  1.00  0.00     0.040 A 
ATOM     13  F   UNL     1      -5.174  -3.406  -8.356  1.00  0.00    -0.206 F 
ATOM     14  F   UNL     1      -3.685  -1.863  -4.141  1.00  0.00    -0.207 F 
ENDBRANCH   1   7
BRANCH   4  15
ATOM     15  C   UNL     1     -10.076  -5.599  -8.784  1.00  0.00     0.339 C 
ATOM     16  O   UNL     1     -11.111  -5.883  -9.393  1.00  0.00    -0.246 OA
BRANCH  15  17
ATOM     17  O   UNL     1      -9.364  -6.527  -8.090  1.00  0.00    -0.478 OA
ATOM     18  H   UNL     1      -8.477  -6.674  -8.480  1.00  0.00     0.297 HD
ENDBRANCH  15  17
ENDBRANCH   4  15
BRANCH   5  19
ATOM     19  O   UNL     1     -10.943  -3.444 -10.423  1.00  0.00    -0.507 OA
ATOM     20  H   UNL     1     -10.851  -2.817 -11.161  1.00  0.00     0.293 HD
ENDBRANCH   5  19
TORSDOF 4
ENDMDL
MODEL 6
REMARK VINA RESULT:    -5.426      1.865      3.150
REMARK INTER + INTRA:          -6.942
REMARK INTER:                  -6.417
REMARK INTRA:                  -0.525
REMARK UNBOUND:                -0.564
REMARK SMILES O=C(O)c1cc(-c2ccc(F)cc2F)ccc1O
REMARK SMILES IDX 6 1 5 2 15 3 4 4 17 5 16 6 7 7 13 8 12 9 8 10 10 11 9 12
REMARK SMILES IDX 14 13 11 14 2 15 1 16 3 17 18 19
REMARK H PARENT 3 18 18 20
ROOT
ATOM      1  C   UNL     1      -6.585  -2.335  -6.223  1.00  0.00    -0.014 A 
ATOM      2  C   UNL     1      -6.648  -1.062  -5.659  1.00  0.00     0.028 A 
ATOM      3  C   UNL     1      -5.561  -3.210  -5.859  1.00  0.00     0.013 A 
ATOM      4  C   UNL     1      -5.687  -0.662  -4.730  1.00  0.00     0.102 A 
ATOM      5  C   UNL     1      -4.663  -1.536  -4.366  1.00  0.00     0.130 A 
ATOM      6  C   UNL     1      -4.600  -2.811  -4.931  1.00  0.00     0.048 A 
ENDROOT
BRANCH   1   7
ATOM      7  C   UNL     1      -7.581  -2.750  -7.188  1.00  0.00     0.018 A 
ATOM      8  C   UNL     1      -8.066  -1.841  -8.129  1.00  0.00     0.133 A 
ATOM      9  C   UNL     1      -9.026  -2.245  -9.057  1.00  0.00     0.079 A 
ATOM     10  C   UNL     1      -8.054  -4.062  -7.176  1.00  0.00     0.015 A 
ATOM     11  C   UNL     1      -9.500  -3.556  -9.044  1.00  0.00     0.126 A 
ATOM     12  C   UNL     1      -9.013  -4.465  -8.104  1.00  0.00     0.040 A 
ATOM     13  F   UNL     1      -7.623  -0.576  -8.152  1.00  0.00    -0.206 F 
ATOM     14  F   UNL     1     -10.421  -3.945  -9.935  1.00  0.00    -0.207 F 
ENDBRANCH   1   7
BRANCH   4  15
ATOM     15  C   UNL     1      -5.770   0.672  -4.152  1.00  0.00     0.339 C 
ATOM     16  O   UNL     1      -5.767   1.728  -4.789  1.00  0.00    -0.246 OA
BRANCH  15  17
ATOM     17  O   UNL     1      -5.856   0.644  -2.794  1.00  0.00    -0.478 OA
ATOM     18  H   UNL     1      -5.755   1.538  -2.404  1.00  0.00     0.297 HD
ENDBRANCH  15  17
ENDBRANCH   4  15
BRANCH   5  19
ATOM     19  O   UNL     1      -3.715  -1.165  -3.459  1.00  0.00    -0.507 OA
ATOM     20  H   UNL     1      -4.141  -0.671  -2.738  1.00  0.00     0.293 HD
ENDBRANCH   5  19
TORSDOF 4
ENDMDL
MODEL 7
REMARK VINA RESULT:    -5.403      4.557      6.903
REMARK INTER + INTRA:          -6.914
REMARK INTER:                  -5.854
REMARK INTRA:                  -1.060
REMARK UNBOUND:                -0.564
REMARK SMILES O=C(O)c1cc(-c2ccc(F)cc2F)ccc1O
REMARK SMILES IDX 6 1 5 2 15 3 4 4 17 5 16 6 7 7 13 8 12 9 8 10 10 11 9 12
REMARK SMILES IDX 14 13 11 14 2 15 1 16 3 17 18 19
REMARK H PARENT 3 18 18 20
ROOT
ATOM      1  C   UNL     1      -7.942  -2.658  -7.671  1.00  0.00    -0.014 A 
ATOM      2  C   UNL     1      -8.422  -1.655  -8.512  1.00  0.00     0.028 A 
ATOM      3  C   UNL     1      -8.461  -3.950  -7.760  1.00  0.00     0.013 A 
ATOM      4  C   UNL     1      -9.422  -1.942  -9.442  1.00  0.00     0.102 A 
ATOM      5  C   UNL     1      -9.940  -3.234  -9.531  1.00  0.00     0.130 A 
ATOM      6  C   UNL     1      -9.460  -4.238  -8.689  1.00  0.00     0.048 A 
ENDROOT
BRANCH   1   7
ATOM      7  C   UNL     1      -6.906  -2.360  -6.706  1.00  0.00     0.018 A 
ATOM      8  C   UNL     1      -7.236  -1.771  -5.484  1.00  0.00     0.133 A 
ATOM      9  C   UNL     1      -6.234  -1.485  -4.556  1.00  0.00     0.079 A 
ATOM     10  C   UNL     1      -5.577  -2.665  -6.997  1.00  0.00     0.015 A 
ATOM     11  C   UNL     1      -4.905  -1.789  -4.849  1.00  0.00     0.126 A 
ATOM     12  C   UNL     1      -4.576  -2.379  -6.069  1.00  0.00     0.040 A 
ATOM     13  F   UNL     1      -8.508  -1.470  -5.189  1.00  0.00    -0.206 F 
ATOM     14  F   UNL     1      -3.943  -1.515  -3.958  1.00  0.00    -0.207 F 
ENDBRANCH   1   7
BRANCH   4  15
ATOM     15  C   UNL     1      -9.910  -0.880 -10.311  1.00  0.00     0.339 C 
ATOM     16  O   UNL     1     -10.976  -0.898 -10.929  1.00  0.00    -0.246 OA
BRANCH  15  17
ATOM     17  O   UNL     1      -9.049   0.172 -10.378  1.00  0.00    -0.478 OA
ATOM     18  H   UNL     1      -8.127  -0.099 -10.182  1.00  0.00     0.297 HD
ENDBRANCH  15  17
ENDBRANCH   4  15
BRANCH   5  19
ATOM     19  O   UNL     1     -10.917  -3.536 -10.433  1.00  0.00    -0.507 OA
ATOM     20  H   UNL     1     -10.604  -4.252 -11.011  1.00  0.00     0.293 HD
ENDBRANCH   5  19
TORSDOF 4
ENDMDL
MODEL 8
REMARK VINA RESULT:    -4.859      1.549      1.905
REMARK INTER + INTRA:          -6.274
REMARK INTER:                  -5.315
REMARK INTRA:                  -0.959
REMARK UNBOUND:                -0.564
REMARK SMILES O=C(O)c1cc(-c2ccc(F)cc2F)ccc1O
REMARK SMILES IDX 6 1 5 2 15 3 4 4 17 5 16 6 7 7 13 8 12 9 8 10 10 11 9 12
REMARK SMILES IDX 14 13 11 14 2 15 1 16 3 17 18 19
REMARK H PARENT 3 18 18 20
ROOT
ATOM      1  C   UNL     1      -7.172  -2.354  -6.672  1.00  0.00    -0.014 A 
ATOM      2  C   UNL     1      -5.937  -2.981  -6.826  1.00  0.00     0.028 A 
ATOM      3  C   UNL     1      -7.465  -1.670  -5.492  1.00  0.00     0.013 A 
ATOM      4  C   UNL     1      -4.993  -2.925  -5.800  1.00  0.00     0.102 A 
ATOM      5  C   UNL     1      -5.286  -2.241  -4.620  1.00  0.00     0.130 A 
ATOM      6  C   UNL     1      -6.523  -1.613  -4.466  1.00  0.00     0.048 A 
ENDROOT
BRANCH   1   7
ATOM      7  C   UNL     1      -8.152  -2.412  -7.735  1.00  0.00     0.018 A 
ATOM      8  C   UNL     1      -8.752  -3.627  -8.069  1.00  0.00     0.133 A 
ATOM      9  C   UNL     1      -9.696  -3.680  -9.095  1.00  0.00     0.079 A 
ATOM     10  C   UNL     1      -8.497  -1.251  -8.427  1.00  0.00     0.015 A 
ATOM     11  C   UNL     1     -10.040  -2.519  -9.786  1.00  0.00     0.126 A 
ATOM     12  C   UNL     1      -9.440  -1.304  -9.452  1.00  0.00     0.040 A 
ATOM     13  F   UNL     1      -8.430  -4.753  -7.416  1.00  0.00    -0.206 F 
ATOM     14  F   UNL     1     -10.946  -2.568 -10.771  1.00  0.00    -0.207 F 
ENDBRANCH   1   7
BRANCH   4  15
ATOM     15  C   UNL     1      -3.708  -3.586  -5.980  1.00  0.00     0.339 C 
ATOM     16  O   UNL     1      -2.903  -3.839  -5.081  1.00  0.00    -0.246 OA
BRANCH  15  17
ATOM     17  O   UNL     1      -3.470  -3.911  -7.280  1.00  0.00    -0.478 OA
ATOM     18  H   UNL     1      -3.389  -4.880  -7.404  1.00  0.00     0.297 HD
ENDBRANCH  15  17
ENDBRANCH   4  15
BRANCH   5  19
ATOM     19  O   UNL     1      -4.378  -2.174  -3.605  1.00  0.00    -0.507 OA
ATOM     20  H   UNL     1      -4.128  -1.244  -3.465  1.00  0.00     0.293 HD
ENDBRANCH   5  19
TORSDOF 4
ENDMDL
MODEL 9
REMARK VINA RESULT:    -4.172      6.313      8.658
REMARK INTER + INTRA:          -5.467
REMARK INTER:                  -4.876
REMARK INTRA:                  -0.591
REMARK UNBOUND:                -0.564
REMARK SMILES O=C(O)c1cc(-c2ccc(F)cc2F)ccc1O
REMARK SMILES IDX 6 1 5 2 15 3 4 4 17 5 16 6 7 7 13 8 12 9 8 10 10 11 9 12
REMARK SMILES IDX 14 13 11 14 2 15 1 16 3 17 18 19
REMARK H PARENT 3 18 18 20
ROOT
ATOM      1  C   UNL     1     -10.021  -1.306 -10.557  1.00  0.00    -0.014 A 
ATOM      2  C   UNL     1     -11.351  -1.632 -10.817  1.00  0.00     0.028 A 
ATOM      3  C   UNL     1      -9.368  -0.358 -11.345  1.00  0.00     0.013 A 
ATOM      4  C   UNL     1     -12.030  -1.010 -11.866  1.00  0.00     0.102 A 
ATOM      5  C   UNL     1     -11.377  -0.062 -12.653  1.00  0.00     0.130 A 
ATOM      6  C   UNL     1     -10.045   0.265 -12.393  1.00  0.00     0.048 A 
ENDROOT
BRANCH   1   7
ATOM      7  C   UNL     1      -9.316  -1.952  -9.471  1.00  0.00     0.018 A 
ATOM      8  C   UNL     1      -9.531  -3.304  -9.202  1.00  0.00     0.133 A 
ATOM      9  C   UNL     1      -8.849  -3.922  -8.153  1.00  0.00     0.079 A 
ATOM     10  C   UNL     1      -8.419  -1.219  -8.693  1.00  0.00     0.015 A 
ATOM     11  C   UNL     1      -7.953  -3.190  -7.375  1.00  0.00     0.126 A 
ATOM     12  C   UNL     1      -7.738  -1.838  -7.646  1.00  0.00     0.040 A 
ATOM     13  F   UNL     1     -10.391  -4.021  -9.938  1.00  0.00    -0.206 F 
ATOM     14  F   UNL     1      -7.299  -3.783  -6.369  1.00  0.00    -0.207 F 
ENDBRANCH   1   7
BRANCH   4  15
ATOM     15  C   UNL     1     -13.419  -1.364 -12.121  1.00  0.00     0.339 C 
ATOM     16  O   UNL     1     -14.160  -0.806 -12.934  1.00  0.00    -0.246 OA
BRANCH  15  17
ATOM     17  O   UNL     1     -13.838  -2.406 -11.352  1.00  0.00    -0.478 OA
ATOM     18  H   UNL     1     -13.871  -3.244 -11.860  1.00  0.00     0.297 HD
ENDBRANCH  15  17
ENDBRANCH   4  15
BRANCH   5  19
ATOM     19  O   UNL     1     -12.022   0.558 -13.682  1.00  0.00    -0.507 OA
ATOM     20  H   UNL     1     -11.777   1.499 -13.689  1.00  0.00     0.293 HD
ENDBRANCH   5  19
TORSDOF 4
ENDMDL
