MODEL 1
REMARK VINA RESULT:    -7.016      0.000      0.000
REMARK INTER + INTRA:          -8.920
REMARK INTER:                  -8.246
REMARK INTRA:                  -0.674
REMARK UNBOUND:                -0.674
REMARK SMILES O=C(O)c1cc(-c2ccc(F)cc2F)ccc1O
REMARK SMILES IDX 6 1 5 2 15 3 4 4 17 5 16 6 7 7 13 8 12 9 8 10 10 11 9 12
REMARK SMILES IDX 14 13 11 14 2 15 1 16 3 17 18 19
REMARK H PARENT 3 18 18 20
ROOT
ATOM      1  C   UNL     1       6.682  -2.232  -5.303  1.00  0.00    -0.014 A 
ATOM      2  C   UNL     1       6.390  -2.974  -4.159  1.00  0.00     0.028 A 
ATOM      3  C   UNL     1       5.960  -1.074  -5.587  1.00  0.00     0.013 A 
ATOM      4  C   UNL     1       5.375  -2.556  -3.298  1.00  0.00     0.102 A 
ATOM      5  C   UNL     1       4.652  -1.398  -3.581  1.00  0.00     0.130 A 
ATOM      6  C   UNL     1       4.945  -0.656  -4.727  1.00  0.00     0.048 A 
ENDROOT
BRANCH   1   7
ATOM      7  C   UNL     1       7.734  -2.665  -6.198  1.00  0.00     0.018 A 
ATOM      8  C   UNL     1       7.493  -2.762  -7.568  1.00  0.00     0.133 A 
ATOM      9  C   UNL     1       8.510  -3.180  -8.427  1.00  0.00     0.079 A 
ATOM     10  C   UNL     1       8.992  -2.985  -5.687  1.00  0.00     0.015 A 
ATOM     11  C   UNL     1       9.767  -3.500  -7.916  1.00  0.00     0.126 A 
ATOM     12  C   UNL     1      10.008  -3.402  -6.546  1.00  0.00     0.040 A 
ATOM     13  F   UNL     1       6.289  -2.461  -8.075  1.00  0.00    -0.206 F 
ATOM     14  F   UNL     1      10.743  -3.902  -8.740  1.00  0.00    -0.207 F 
ENDBRANCH   1   7
BRANCH   4  15
ATOM     15  C   UNL     1       5.085  -3.344  -2.107  1.00  0.00     0.339 C 
ATOM     16  O   UNL     1       3.960  -3.686  -1.734  1.00  0.00    -0.246 OA
BRANCH  15  17
ATOM     17  O   UNL     1       6.211  -3.681  -1.422  1.00  0.00    -0.478 OA
ATOM     18  H   UNL     1       6.354  -4.651  -1.409  1.00  0.00     0.297 HD
ENDBRANCH  15  17
ENDBRANCH   4  15
BRANCH   5  19
ATOM     19  O   UNL     1       3.657  -0.972  -2.753  1.00  0.00    -0.507 OA
ATOM     20  H   UNL     1       2.978  -0.517  -3.280  1.00  0.00     0.293 HD
ENDBRANCH   5  19
TORSDOF 4
ENDMDL
MODEL 2
REMARK VINA RESULT:    -6.997      1.127      1.605
REMARK INTER + INTRA:          -8.899
REMARK INTER:                  -8.245
REMARK INTRA:                  -0.654
REMARK UNBOUND:                -0.674
REMARK SMILES O=C(O)c1cc(-c2ccc(F)cc2F)ccc1O
REMARK SMILES IDX 6 1 5 2 15 3 4 4 17 5 16 6 7 7 13 8 12 9 8 10 10 11 9 12
REMARK SMILES IDX 14 13 11 14 2 15 1 16 3 17 18 19
REMARK H PARENT 3 18 18 20
ROOT
ATOM      1  C   UNL     1       6.700  -2.265  -5.293  1.00  0.00    -0.014 A 
ATOM      2  C   UNL     1       6.407  -2.994  -4.141  1.00  0.00     0.028 A 
ATOM      3  C   UNL     1       5.967  -1.119  -5.599  1.00  0.00     0.013 A 
ATOM      4  C   UNL     1       5.381  -2.577  -3.294  1.00  0.00     0.102 A 
ATOM      5  C   UNL     1       4.647  -1.430  -3.599  1.00  0.00     0.130 A 
ATOM      6  C   UNL     1       4.940  -0.701  -4.752  1.00  0.00     0.048 A 
ENDROOT
BRANCH   1   7
ATOM      7  C   UNL     1       7.764  -2.698  -6.174  1.00  0.00     0.018 A 
ATOM      8  C   UNL     1       9.011  -3.040  -5.650  1.00  0.00     0.133 A 
ATOM      9  C   UNL     1      10.034  -3.457  -6.502  1.00  0.00     0.079 A 
ATOM     10  C   UNL     1       7.540  -2.775  -7.548  1.00  0.00     0.015 A 
ATOM     11  C   UNL     1       9.811  -3.532  -7.876  1.00  0.00     0.126 A 
ATOM     12  C   UNL     1       8.563  -3.191  -8.399  1.00  0.00     0.040 A 
ATOM     13  F   UNL     1       9.244  -2.969  -4.331  1.00  0.00    -0.206 F 
ATOM     14  F   UNL     1      10.792  -3.932  -8.695  1.00  0.00    -0.207 F 
ENDBRANCH   1   7
BRANCH   4  15
ATOM     15  C   UNL     1       5.091  -3.351  -2.095  1.00  0.00     0.339 C 
ATOM     16  O   UNL     1       3.967  -3.697  -1.723  1.00  0.00    -0.246 OA
BRANCH  15  17
ATOM     17  O   UNL     1       6.216  -3.671  -1.400  1.00  0.00    -0.478 OA
ATOM     18  H   UNL     1       6.415  -3.010  -0.704  1.00  0.00     0.297 HD
ENDBRANCH  15  17
ENDBRANCH   4  15
BRANCH   5  19
ATOM     19  O   UNL     1       3.641  -1.005  -2.784  1.00  0.00    -0.507 OA
ATOM     20  H   UNL     1       2.882  -0.735  -3.331  1.00  0.00     0.293 HD
ENDBRANCH   5  19
TORSDOF 4
ENDMDL
MODEL 3
REMARK VINA RESULT:    -6.916      1.682      3.143
REMARK INTER + INTRA:          -8.803
REMARK INTER:                  -8.190
REMARK INTRA:                  -0.613
REMARK UNBOUND:                -0.674
REMARK SMILES O=C(O)c1cc(-c2ccc(F)cc2F)ccc1O
REMARK SMILES IDX 6 1 5 2 15 3 4 4 17 5 16 6 7 7 13 8 12 9 8 10 10 11 9 12
REMARK SMILES IDX 14 13 11 14 2 15 1 16 3 17 18 19
REMARK H PARENT 3 18 18 20
ROOT
ATOM      1  C   UNL     1       6.637  -2.304  -5.226  1.00  0.00    -0.014 A 
ATOM      2  C   UNL     1       5.910  -1.169  -5.584  1.00  0.00     0.028 A 
ATOM      3  C   UNL     1       6.306  -3.008  -4.069  1.00  0.00     0.013 A 
ATOM      4  C   UNL     1       4.851  -0.738  -4.784  1.00  0.00     0.102 A 
ATOM      5  C   UNL     1       4.520  -1.443  -3.627  1.00  0.00     0.130 A 
ATOM      6  C   UNL     1       5.248  -2.578  -3.269  1.00  0.00     0.048 A 
ENDROOT
BRANCH   1   7
ATOM      7  C   UNL     1       7.737  -2.750  -6.055  1.00  0.00     0.018 A 
ATOM      8  C   UNL     1       8.969  -3.057  -5.477  1.00  0.00     0.133 A 
ATOM      9  C   UNL     1      10.027  -3.487  -6.279  1.00  0.00     0.079 A 
ATOM     10  C   UNL     1       7.561  -2.876  -7.433  1.00  0.00     0.015 A 
ATOM     11  C   UNL     1       9.852  -3.611  -7.657  1.00  0.00     0.126 A 
ATOM     12  C   UNL     1       8.618  -3.306  -8.233  1.00  0.00     0.040 A 
ATOM     13  F   UNL     1       9.155  -2.939  -4.155  1.00  0.00    -0.206 F 
ATOM     14  F   UNL     1      10.866  -4.024  -8.428  1.00  0.00    -0.207 F 
ENDBRANCH   1   7
BRANCH   4  15
ATOM     15  C   UNL     1       4.104   0.449  -5.175  1.00  0.00     0.339 C 
ATOM     16  O   UNL     1       3.905   1.435  -4.461  1.00  0.00    -0.246 OA
BRANCH  15  17
ATOM     17  O   UNL     1       3.630   0.367  -6.448  1.00  0.00    -0.478 OA
ATOM     18  H   UNL     1       2.697   0.664  -6.510  1.00  0.00     0.297 HD
ENDBRANCH  15  17
ENDBRANCH   4  15
BRANCH   5  19
ATOM     19  O   UNL     1       3.489  -1.039  -2.832  1.00  0.00    -0.507 OA
ATOM     20  H   UNL     1       3.484  -1.576  -2.022  1.00  0.00     0.293 HD
ENDBRANCH   5  19
TORSDOF 4
ENDMDL
MODEL 4
REMARK VINA RESULT:    -5.397      4.403      6.745
REMARK INTER + INTRA:          -7.018
REMARK INTER:                  -5.937
REMARK INTRA:                  -1.080
REMARK UNBOUND:                -0.674
REMARK SMILES O=C(O)c1cc(-c2ccc(F)cc2F)ccc1O
REMARK SMILES IDX 6 1 5 2 15 3 4 4 17 5 16 6 7 7 13 8 12 9 8 10 10 11 9 12
REMARK SMILES IDX 14 13 11 14 2 15 1 16 3 17 18 19
REMARK H PARENT 3 18 18 20
ROOT
ATOM      1  C   UNL     1       8.643  -3.090  -7.049  1.00  0.00    -0.014 A 
ATOM      2  C   UNL     1       9.504  -2.204  -7.695  1.00  0.00     0.028 A 
ATOM      3  C   UNL     1       8.842  -4.466  -7.166  1.00  0.00     0.013 A 
ATOM      4  C   UNL     1      10.564  -2.692  -8.460  1.00  0.00     0.102 A 
ATOM      5  C   UNL     1      10.762  -4.068  -8.577  1.00  0.00     0.130 A 
ATOM      6  C   UNL     1       9.901  -4.955  -7.929  1.00  0.00     0.048 A 
ENDROOT
BRANCH   1   7
ATOM      7  C   UNL     1       7.543  -2.584  -6.257  1.00  0.00     0.018 A 
ATOM      8  C   UNL     1       6.324  -2.280  -6.865  1.00  0.00     0.133 A 
ATOM      9  C   UNL     1       5.266  -1.792  -6.097  1.00  0.00     0.079 A 
ATOM     10  C   UNL     1       7.702  -2.401  -4.883  1.00  0.00     0.015 A 
ATOM     11  C   UNL     1       5.426  -1.608  -4.724  1.00  0.00     0.126 A 
ATOM     12  C   UNL     1       6.644  -1.914  -4.117  1.00  0.00     0.040 A 
ATOM     13  F   UNL     1       6.155  -2.447  -8.184  1.00  0.00    -0.206 F 
ATOM     14  F   UNL     1       4.410  -1.140  -3.987  1.00  0.00    -0.207 F 
ENDBRANCH   1   7
BRANCH   4  15
ATOM     15  C   UNL     1      11.451  -1.750  -9.127  1.00  0.00     0.339 C 
ATOM     16  O   UNL     1      12.478  -2.049  -9.740  1.00  0.00    -0.246 OA
BRANCH  15  17
ATOM     17  O   UNL     1      11.025  -0.463  -9.007  1.00  0.00    -0.478 OA
ATOM     18  H   UNL     1      11.537   0.029  -8.331  1.00  0.00     0.297 HD
ENDBRANCH  15  17
ENDBRANCH   4  15
BRANCH   5  19
ATOM     19  O   UNL     1      11.792  -4.566  -9.318  1.00  0.00    -0.507 OA
ATOM     20  H   UNL     1      12.458  -4.948  -8.720  1.00  0.00     0.293 HD
ENDBRANCH   5  19
TORSDOF 4
ENDMDL
MODEL 5
REMARK VINA RESULT:    -5.364      3.994      6.293
REMARK INTER + INTRA:          -6.978
REMARK INTER:                  -5.908
REMARK INTRA:                  -1.070
REMARK UNBOUND:                -0.674
REMARK SMILES O=C(O)c1cc(-c2ccc(F)cc2F)ccc1O
REMARK SMILES IDX 6 1 5 2 15 3 4 4 17 5 16 6 7 7 13 8 12 9 8 10 10 11 9 12
REMARK SMILES IDX 14 13 11 14 2 15 1 16 3 17 18 19
REMARK H PARENT 3 18 18 20
ROOT
ATOM      1  C   UNL     1       8.672  -3.112  -7.006  1.00  0.00    -0.014 A 
ATOM      2  C   UNL     1       8.891  -4.484  -7.120  1.00  0.00     0.028 A 
ATOM      3  C   UNL     1       9.502  -2.215  -7.678  1.00  0.00     0.013 A 
ATOM      4  C   UNL     1       9.941  -4.960  -7.907  1.00  0.00     0.102 A 
ATOM      5  C   UNL     1      10.771  -4.063  -8.579  1.00  0.00     0.130 A 
ATOM      6  C   UNL     1      10.551  -2.689  -8.464  1.00  0.00     0.048 A 
ENDROOT
BRANCH   1   7
ATOM      7  C   UNL     1       7.584  -2.618  -6.189  1.00  0.00     0.018 A 
ATOM      8  C   UNL     1       6.357  -2.301  -6.774  1.00  0.00     0.133 A 
ATOM      9  C   UNL     1       5.311  -1.825  -5.983  1.00  0.00     0.079 A 
ATOM     10  C   UNL     1       7.764  -2.460  -4.815  1.00  0.00     0.015 A 
ATOM     11  C   UNL     1       5.492  -1.666  -4.609  1.00  0.00     0.126 A 
ATOM     12  C   UNL     1       6.718  -1.984  -4.026  1.00  0.00     0.040 A 
ATOM     13  F   UNL     1       6.169  -2.445  -8.093  1.00  0.00    -0.206 F 
ATOM     14  F   UNL     1       4.488  -1.209  -3.849  1.00  0.00    -0.207 F 
ENDBRANCH   1   7
BRANCH   4  15
ATOM     15  C   UNL     1      10.153  -6.397  -8.013  1.00  0.00     0.339 C 
ATOM     16  O   UNL     1      11.195  -6.938  -8.392  1.00  0.00    -0.246 OA
BRANCH  15  17
ATOM     17  O   UNL     1       9.056  -7.112  -7.642  1.00  0.00    -0.478 OA
ATOM     18  H   UNL     1       8.906  -7.881  -8.231  1.00  0.00     0.297 HD
ENDBRANCH  15  17
ENDBRANCH   4  15
BRANCH   5  19
ATOM     19  O   UNL     1      11.801  -4.507  -9.353  1.00  0.00    -0.507 OA
ATOM     20  H   UNL     1      11.507  -5.286  -9.856  1.00  0.00     0.293 HD
ENDBRANCH   5  19
TORSDOF 4
ENDMDL
MODEL 6
REMARK VINA RESULT:    -5.082      1.240      1.335
REMARK INTER + INTRA:          -6.647
REMARK INTER:                  -5.875
REMARK INTRA:                  -0.772
REMARK UNBOUND:                -0.674
REMARK SMILES O=C(O)c1cc(-c2ccc(F)cc2F)ccc1O
REMARK SMILES IDX 6 1 5 2 15 3 4 4 17 5 16 6 7 7 13 8 12 9 8 10 10 11 9 12
REMARK SMILES IDX 14 13 11 14 2 15 1 16 3 17 18 19
REMARK H PARENT 3 18 18 20
ROOT
ATOM      1  C   UNL     1       7.014  -2.681  -5.793  1.00  0.00    -0.014 A 
ATOM      2  C   UNL     1       6.807  -3.210  -4.520  1.00  0.00     0.028 A 
ATOM      3  C   UNL     1       6.144  -1.714  -6.296  1.00  0.00     0.013 A 
ATOM      4  C   UNL     1       5.730  -2.774  -3.749  1.00  0.00     0.102 A 
ATOM      5  C   UNL     1       4.859  -1.807  -4.252  1.00  0.00     0.130 A 
ATOM      6  C   UNL     1       5.066  -1.276  -5.526  1.00  0.00     0.048 A 
ENDROOT
BRANCH   1   7
ATOM      7  C   UNL     1       8.131  -3.134  -6.594  1.00  0.00     0.018 A 
ATOM      8  C   UNL     1       9.040  -2.212  -7.115  1.00  0.00     0.133 A 
ATOM      9  C   UNL     1      10.115  -2.653  -7.887  1.00  0.00     0.079 A 
ATOM     10  C   UNL     1       8.299  -4.496  -6.843  1.00  0.00     0.015 A 
ATOM     11  C   UNL     1      10.282  -4.015  -8.137  1.00  0.00     0.126 A 
ATOM     12  C   UNL     1       9.374  -4.936  -7.614  1.00  0.00     0.040 A 
ATOM     13  F   UNL     1       8.891  -0.899  -6.887  1.00  0.00    -0.206 F 
ATOM     14  F   UNL     1      11.313  -4.439  -8.877  1.00  0.00    -0.207 F 
ENDBRANCH   1   7
BRANCH   4  15
ATOM     15  C   UNL     1       5.531  -3.339  -2.422  1.00  0.00     0.339 C 
ATOM     16  O   UNL     1       4.437  -3.572  -1.901  1.00  0.00    -0.246 OA
BRANCH  15  17
ATOM     17  O   UNL     1       6.707  -3.598  -1.787  1.00  0.00    -0.478 OA
ATOM     18  H   UNL     1       6.655  -3.400  -0.828  1.00  0.00     0.297 HD
ENDBRANCH  15  17
ENDBRANCH   4  15
BRANCH   5  19
ATOM     19  O   UNL     1       3.801  -1.366  -3.514  1.00  0.00    -0.507 OA
ATOM     20  H   UNL     1       3.812  -1.808  -2.647  1.00  0.00     0.293 HD
ENDBRANCH   5  19
TORSDOF 4
ENDMDL
MODEL 7
REMARK VINA RESULT:    -4.994      1.655      2.866
REMARK INTER + INTRA:          -6.544
REMARK INTER:                  -5.789
REMARK INTRA:                  -0.755
REMARK UNBOUND:                -0.674
REMARK SMILES O=C(O)c1cc(-c2ccc(F)cc2F)ccc1O
REMARK SMILES IDX 6 1 5 2 15 3 4 4 17 5 16 6 7 7 13 8 12 9 8 10 10 11 9 12
REMARK SMILES IDX 14 13 11 14 2 15 1 16 3 17 18 19
REMARK H PARENT 3 18 18 20
ROOT
ATOM      1  C   UNL     1       7.221  -2.472  -5.492  1.00  0.00    -0.014 A 
ATOM      2  C   UNL     1       6.341  -1.474  -5.909  1.00  0.00     0.028 A 
ATOM      3  C   UNL     1       7.116  -3.001  -4.206  1.00  0.00     0.013 A 
ATOM      4  C   UNL     1       5.355  -1.005  -5.040  1.00  0.00     0.102 A 
ATOM      5  C   UNL     1       5.250  -1.534  -3.754  1.00  0.00     0.130 A 
ATOM      6  C   UNL     1       6.131  -2.533  -3.336  1.00  0.00     0.048 A 
ENDROOT
BRANCH   1   7
ATOM      7  C   UNL     1       8.245  -2.958  -6.392  1.00  0.00     0.018 A 
ATOM      8  C   UNL     1       9.076  -2.057  -7.059  1.00  0.00     0.133 A 
ATOM      9  C   UNL     1      10.061  -2.531  -7.926  1.00  0.00     0.079 A 
ATOM     10  C   UNL     1       8.399  -4.330  -6.591  1.00  0.00     0.015 A 
ATOM     11  C   UNL     1      10.215  -3.902  -8.126  1.00  0.00     0.126 A 
ATOM     12  C   UNL     1       9.384  -4.801  -7.458  1.00  0.00     0.040 A 
ATOM     13  F   UNL     1       8.939  -0.736  -6.880  1.00  0.00    -0.206 F 
ATOM     14  F   UNL     1      11.161  -4.357  -8.958  1.00  0.00    -0.207 F 
ENDBRANCH   1   7
BRANCH   4  15
ATOM     15  C   UNL     1       4.446   0.038  -5.495  1.00  0.00     0.339 C 
ATOM     16  O   UNL     1       3.943   0.105  -6.619  1.00  0.00    -0.246 OA
BRANCH  15  17
ATOM     17  O   UNL     1       4.193   0.962  -4.529  1.00  0.00    -0.478 OA
ATOM     18  H   UNL     1       4.873   0.949  -3.824  1.00  0.00     0.297 HD
ENDBRANCH  15  17
ENDBRANCH   4  15
BRANCH   5  19
ATOM     19  O   UNL     1       4.294  -1.090  -2.890  1.00  0.00    -0.507 OA
ATOM     20  H   UNL     1       3.859  -0.309  -3.273  1.00  0.00     0.293 HD
ENDBRANCH   5  19
TORSDOF 4
ENDMDL
