MODEL 1
REMARK VINA RESULT:    -7.434      0.000      0.000
REMARK INTER + INTRA:          -9.347
REMARK INTER:                  -8.738
REMARK INTRA:                  -0.610
REMARK UNBOUND:                -0.610
REMARK SMILES O=C(O)c1cc(-c2ccc(F)cc2F)ccc1O
REMARK SMILES IDX 6 1 5 2 15 3 4 4 17 5 16 6 7 7 13 8 12 9 8 10 10 11 9 12
REMARK SMILES IDX 14 13 11 14 2 15 1 16 3 17 18 19
REMARK H PARENT 3 18 18 20
ROOT
ATOM      1  C   UNL     1      -9.311   2.845  -1.307  1.00  0.00    -0.014 A 
ATOM      2  C   UNL     1      -8.499   3.127  -0.209  1.00  0.00     0.028 A 
ATOM      3  C   UNL     1      -8.788   2.156  -2.402  1.00  0.00     0.013 A 
ATOM      4  C   UNL     1      -7.164   2.722  -0.206  1.00  0.00     0.102 A 
ATOM      5  C   UNL     1      -6.642   2.033  -1.300  1.00  0.00     0.130 A 
ATOM      6  C   UNL     1      -7.454   1.750  -2.399  1.00  0.00     0.048 A 
ENDROOT
BRANCH   1   7
ATOM      7  C   UNL     1     -10.695   3.266  -1.312  1.00  0.00     0.018 A 
ATOM      8  C   UNL     1     -11.225   3.915  -2.427  1.00  0.00     0.133 A 
ATOM      9  C   UNL     1     -12.561   4.320  -2.428  1.00  0.00     0.079 A 
ATOM     10  C   UNL     1     -11.499   3.022  -0.199  1.00  0.00     0.015 A 
ATOM     11  C   UNL     1     -13.364   4.077  -1.315  1.00  0.00     0.126 A 
ATOM     12  C   UNL     1     -12.833   3.426  -0.200  1.00  0.00     0.040 A 
ATOM     13  F   UNL     1     -10.465   4.161  -3.504  1.00  0.00    -0.206 F 
ATOM     14  F   UNL     1     -14.646   4.465  -1.314  1.00  0.00    -0.207 F 
ENDBRANCH   1   7
BRANCH   4  15
ATOM     15  C   UNL     1      -6.332   3.026   0.951  1.00  0.00     0.339 C 
ATOM     16  O   UNL     1      -5.231   3.579   0.912  1.00  0.00    -0.246 OA
BRANCH  15  17
ATOM     17  O   UNL     1      -6.905   2.631   2.120  1.00  0.00    -0.478 OA
ATOM     18  H   UNL     1      -6.251   2.232   2.730  1.00  0.00     0.297 HD
ENDBRANCH  15  17
ENDBRANCH   4  15
BRANCH   5  19
ATOM     19  O   UNL     1      -5.340   1.627  -1.317  1.00  0.00    -0.507 OA
ATOM     20  H   UNL     1      -4.766   2.398  -1.164  1.00  0.00     0.293 HD
ENDBRANCH   5  19
TORSDOF 4
ENDMDL
MODEL 2
REMARK VINA RESULT:    -7.429      1.123      1.606
REMARK INTER + INTRA:          -9.341
REMARK INTER:                  -8.716
REMARK INTRA:                  -0.625
REMARK UNBOUND:                -0.610
REMARK SMILES O=C(O)c1cc(-c2ccc(F)cc2F)ccc1O
REMARK SMILES IDX 6 1 5 2 15 3 4 4 17 5 16 6 7 7 13 8 12 9 8 10 10 11 9 12
REMARK SMILES IDX 14 13 11 14 2 15 1 16 3 17 18 19
REMARK H PARENT 3 18 18 20
ROOT
ATOM      1  C   UNL     1      -9.323   2.844  -1.270  1.00  0.00    -0.014 A 
ATOM      2  C   UNL     1      -8.504   3.129  -0.178  1.00  0.00     0.028 A 
ATOM      3  C   UNL     1      -8.807   2.156  -2.368  1.00  0.00     0.013 A 
ATOM      4  C   UNL     1      -7.168   2.726  -0.183  1.00  0.00     0.102 A 
ATOM      5  C   UNL     1      -6.652   2.038  -1.281  1.00  0.00     0.130 A 
ATOM      6  C   UNL     1      -7.472   1.753  -2.374  1.00  0.00     0.048 A 
ENDROOT
BRANCH   1   7
ATOM      7  C   UNL     1     -10.709   3.262  -1.266  1.00  0.00     0.018 A 
ATOM      8  C   UNL     1     -11.508   3.025  -0.147  1.00  0.00     0.133 A 
ATOM      9  C   UNL     1     -12.843   3.430  -0.147  1.00  0.00     0.079 A 
ATOM     10  C   UNL     1     -11.243   3.904  -2.382  1.00  0.00     0.015 A 
ATOM     11  C   UNL     1     -13.378   4.071  -1.264  1.00  0.00     0.126 A 
ATOM     12  C   UNL     1     -12.577   4.308  -2.381  1.00  0.00     0.040 A 
ATOM     13  F   UNL     1     -11.010   2.407   0.933  1.00  0.00    -0.206 F 
ATOM     14  F   UNL     1     -14.659   4.460  -1.265  1.00  0.00    -0.207 F 
ENDBRANCH   1   7
BRANCH   4  15
ATOM     15  C   UNL     1      -6.330   3.034   0.967  1.00  0.00     0.339 C 
ATOM     16  O   UNL     1      -5.225   3.580   0.919  1.00  0.00    -0.246 OA
BRANCH  15  17
ATOM     17  O   UNL     1      -6.900   2.649   2.141  1.00  0.00    -0.478 OA
ATOM     18  H   UNL     1      -7.687   3.191   2.359  1.00  0.00     0.297 HD
ENDBRANCH  15  17
ENDBRANCH   4  15
BRANCH   5  19
ATOM     19  O   UNL     1      -5.350   1.636  -1.306  1.00  0.00    -0.507 OA
ATOM     20  H   UNL     1      -4.835   2.262  -1.844  1.00  0.00     0.293 HD
ENDBRANCH   5  19
TORSDOF 4
ENDMDL
MODEL 3
REMARK VINA RESULT:    -7.422      1.214      2.696
REMARK INTER + INTRA:          -9.333
REMARK INTER:                  -8.699
REMARK INTRA:                  -0.634
REMARK UNBOUND:                -0.610
REMARK SMILES O=C(O)c1cc(-c2ccc(F)cc2F)ccc1O
REMARK SMILES IDX 6 1 5 2 15 3 4 4 17 5 16 6 7 7 13 8 12 9 8 10 10 11 9 12
REMARK SMILES IDX 14 13 11 14 2 15 1 16 3 17 18 19
REMARK H PARENT 3 18 18 20
ROOT
ATOM      1  C   UNL     1      -9.325   2.877  -1.304  1.00  0.00    -0.014 A 
ATOM      2  C   UNL     1      -8.828   2.176  -2.402  1.00  0.00     0.028 A 
ATOM      3  C   UNL     1      -8.489   3.170  -0.226  1.00  0.00     0.013 A 
ATOM      4  C   UNL     1      -7.495   1.767  -2.423  1.00  0.00     0.102 A 
ATOM      5  C   UNL     1      -6.658   2.060  -1.346  1.00  0.00     0.130 A 
ATOM      6  C   UNL     1      -7.156   2.762  -0.247  1.00  0.00     0.048 A 
ENDROOT
BRANCH   1   7
ATOM      7  C   UNL     1     -10.709   3.300  -1.280  1.00  0.00     0.018 A 
ATOM      8  C   UNL     1     -11.262   3.950  -2.385  1.00  0.00     0.133 A 
ATOM      9  C   UNL     1     -12.596   4.357  -2.358  1.00  0.00     0.079 A 
ATOM     10  C   UNL     1     -11.490   3.057  -0.151  1.00  0.00     0.015 A 
ATOM     11  C   UNL     1     -13.377   4.114  -1.229  1.00  0.00     0.126 A 
ATOM     12  C   UNL     1     -12.824   3.463  -0.125  1.00  0.00     0.040 A 
ATOM     13  F   UNL     1     -10.523   4.194  -3.477  1.00  0.00    -0.206 F 
ATOM     14  F   UNL     1     -14.658   4.504  -1.202  1.00  0.00    -0.207 F 
ENDBRANCH   1   7
BRANCH   4  15
ATOM     15  C   UNL     1      -6.995   1.036  -3.579  1.00  0.00     0.339 C 
ATOM     16  O   UNL     1      -6.387  -0.036  -3.537  1.00  0.00    -0.246 OA
BRANCH  15  17
ATOM     17  O   UNL     1      -7.271   1.669  -4.752  1.00  0.00    -0.478 OA
ATOM     18  H   UNL     1      -8.094   2.199  -4.695  1.00  0.00     0.297 HD
ENDBRANCH  15  17
ENDBRANCH   4  15
BRANCH   5  19
ATOM     19  O   UNL     1      -5.352   1.670  -1.347  1.00  0.00    -0.507 OA
ATOM     20  H   UNL     1      -5.241   0.930  -0.725  1.00  0.00     0.293 HD
ENDBRANCH   5  19
TORSDOF 4
ENDMDL
MODEL 4
REMARK VINA RESULT:    -7.418      1.657      3.135
REMARK INTER + INTRA:          -9.328
REMARK INTER:                  -8.700
REMARK INTRA:                  -0.629
REMARK UNBOUND:                -0.610
REMARK SMILES O=C(O)c1cc(-c2ccc(F)cc2F)ccc1O
REMARK SMILES IDX 6 1 5 2 15 3 4 4 17 5 16 6 7 7 13 8 12 9 8 10 10 11 9 12
REMARK SMILES IDX 14 13 11 14 2 15 1 16 3 17 18 19
REMARK H PARENT 3 18 18 20
ROOT
ATOM      1  C   UNL     1      -9.313   2.873  -1.267  1.00  0.00    -0.014 A 
ATOM      2  C   UNL     1      -8.822   2.178  -2.371  1.00  0.00     0.028 A 
ATOM      3  C   UNL     1      -8.471   3.160  -0.192  1.00  0.00     0.013 A 
ATOM      4  C   UNL     1      -7.488   1.769  -2.402  1.00  0.00     0.102 A 
ATOM      5  C   UNL     1      -6.646   2.056  -1.327  1.00  0.00     0.130 A 
ATOM      6  C   UNL     1      -7.138   2.752  -0.222  1.00  0.00     0.048 A 
ENDROOT
BRANCH   1   7
ATOM      7  C   UNL     1     -10.697   3.296  -1.233  1.00  0.00     0.018 A 
ATOM      8  C   UNL     1     -11.481   3.040  -0.108  1.00  0.00     0.133 A 
ATOM      9  C   UNL     1     -12.814   3.449  -0.080  1.00  0.00     0.079 A 
ATOM     10  C   UNL     1     -11.245   3.962  -2.329  1.00  0.00     0.015 A 
ATOM     11  C   UNL     1     -13.363   4.114  -1.176  1.00  0.00     0.126 A 
ATOM     12  C   UNL     1     -12.578   4.371  -2.300  1.00  0.00     0.040 A 
ATOM     13  F   UNL     1     -10.969   2.399   0.953  1.00  0.00    -0.206 F 
ATOM     14  F   UNL     1     -14.642   4.508  -1.150  1.00  0.00    -0.207 F 
ENDBRANCH   1   7
BRANCH   4  15
ATOM     15  C   UNL     1      -6.995   1.045  -3.565  1.00  0.00     0.339 C 
ATOM     16  O   UNL     1      -6.392  -0.031  -3.533  1.00  0.00    -0.246 OA
BRANCH  15  17
ATOM     17  O   UNL     1      -7.271   1.688  -4.732  1.00  0.00    -0.478 OA
ATOM     18  H   UNL     1      -8.157   1.451  -5.078  1.00  0.00     0.297 HD
ENDBRANCH  15  17
ENDBRANCH   4  15
BRANCH   5  19
ATOM     19  O   UNL     1      -5.340   1.667  -1.338  1.00  0.00    -0.507 OA
ATOM     20  H   UNL     1      -5.228   0.952  -1.989  1.00  0.00     0.293 HD
ENDBRANCH   5  19
TORSDOF 4
ENDMDL
MODEL 5
REMARK VINA RESULT:    -5.092      4.428      6.739
REMARK INTER + INTRA:          -6.595
REMARK INTER:                  -5.512
REMARK INTRA:                  -1.083
REMARK UNBOUND:                -0.610
REMARK SMILES O=C(O)c1cc(-c2ccc(F)cc2F)ccc1O
REMARK SMILES IDX 6 1 5 2 15 3 4 4 17 5 16 6 7 7 13 8 12 9 8 10 10 11 9 12
REMARK SMILES IDX 14 13 11 14 2 15 1 16 3 17 18 19
REMARK H PARENT 3 18 18 20
ROOT
ATOM      1  C   UNL     1     -11.878   3.619  -1.509  1.00  0.00    -0.014 A 
ATOM      2  C   UNL     1     -12.935   2.875  -2.031  1.00  0.00     0.028 A 
ATOM      3  C   UNL     1     -12.130   4.814  -0.837  1.00  0.00     0.013 A 
ATOM      4  C   UNL     1     -14.247   3.327  -1.881  1.00  0.00     0.102 A 
ATOM      5  C   UNL     1     -14.500   4.522  -1.209  1.00  0.00     0.130 A 
ATOM      6  C   UNL     1     -13.441   5.267  -0.686  1.00  0.00     0.048 A 
ENDROOT
BRANCH   1   7
ATOM      7  C   UNL     1     -10.517   3.152  -1.666  1.00  0.00     0.018 A 
ATOM      8  C   UNL     1      -9.793   3.475  -2.814  1.00  0.00     0.133 A 
ATOM      9  C   UNL     1      -8.481   3.023  -2.960  1.00  0.00     0.079 A 
ATOM     10  C   UNL     1      -9.930   2.377  -0.665  1.00  0.00     0.015 A 
ATOM     11  C   UNL     1      -7.895   2.248  -1.961  1.00  0.00     0.126 A 
ATOM     12  C   UNL     1      -8.619   1.926  -0.813  1.00  0.00     0.040 A 
ATOM     13  F   UNL     1     -10.343   4.216  -3.786  1.00  0.00    -0.206 F 
ATOM     14  F   UNL     1      -6.636   1.813  -2.101  1.00  0.00    -0.207 F 
ENDBRANCH   1   7
BRANCH   4  15
ATOM     15  C   UNL     1     -15.338   2.535  -2.433  1.00  0.00     0.339 C 
ATOM     16  O   UNL     1     -16.524   2.872  -2.454  1.00  0.00    -0.246 OA
BRANCH  15  17
ATOM     17  O   UNL     1     -14.910   1.349  -2.944  1.00  0.00    -0.478 OA
ATOM     18  H   UNL     1     -15.182   1.235  -3.878  1.00  0.00     0.297 HD
ENDBRANCH  15  17
ENDBRANCH   4  15
BRANCH   5  19
ATOM     19  O   UNL     1     -15.774   4.981  -1.051  1.00  0.00    -0.507 OA
ATOM     20  H   UNL     1     -16.111   4.688  -0.186  1.00  0.00     0.293 HD
ENDBRANCH   5  19
TORSDOF 4
ENDMDL
MODEL 6
REMARK VINA RESULT:    -5.079      4.287      6.555
REMARK INTER + INTRA:          -6.580
REMARK INTER:                  -5.498
REMARK INTRA:                  -1.082
REMARK UNBOUND:                -0.610
REMARK SMILES O=C(O)c1cc(-c2ccc(F)cc2F)ccc1O
REMARK SMILES IDX 6 1 5 2 15 3 4 4 17 5 16 6 7 7 13 8 12 9 8 10 10 11 9 12
REMARK SMILES IDX 14 13 11 14 2 15 1 16 3 17 18 19
REMARK H PARENT 3 18 18 20
ROOT
ATOM      1  C   UNL     1     -11.874   3.639  -0.996  1.00  0.00    -0.014 A 
ATOM      2  C   UNL     1     -12.320   4.846  -0.460  1.00  0.00     0.028 A 
ATOM      3  C   UNL     1     -12.767   2.800  -1.662  1.00  0.00     0.013 A 
ATOM      4  C   UNL     1     -13.659   5.215  -0.589  1.00  0.00     0.102 A 
ATOM      5  C   UNL     1     -14.552   4.376  -1.256  1.00  0.00     0.130 A 
ATOM      6  C   UNL     1     -14.105   3.167  -1.793  1.00  0.00     0.048 A 
ENDROOT
BRANCH   1   7
ATOM      7  C   UNL     1     -10.485   3.255  -0.861  1.00  0.00     0.018 A 
ATOM      8  C   UNL     1     -10.055   2.574   0.278  1.00  0.00     0.133 A 
ATOM      9  C   UNL     1      -8.715   2.206   0.405  1.00  0.00     0.079 A 
ATOM     10  C   UNL     1      -9.577   3.567  -1.872  1.00  0.00     0.015 A 
ATOM     11  C   UNL     1      -7.807   2.518  -0.606  1.00  0.00     0.126 A 
ATOM     12  C   UNL     1      -8.239   3.199  -1.745  1.00  0.00     0.040 A 
ATOM     13  F   UNL     1     -10.914   2.269   1.261  1.00  0.00    -0.206 F 
ATOM     14  F   UNL     1      -6.521   2.166  -0.486  1.00  0.00    -0.207 F 
ENDBRANCH   1   7
BRANCH   4  15
ATOM     15  C   UNL     1     -14.105   6.480  -0.023  1.00  0.00     0.339 C 
ATOM     16  O   UNL     1     -15.273   6.875   0.011  1.00  0.00    -0.246 OA
BRANCH  15  17
ATOM     17  O   UNL     1     -13.076   7.212   0.486  1.00  0.00    -0.478 OA
ATOM     18  H   UNL     1     -13.187   7.378   1.445  1.00  0.00     0.297 HD
ENDBRANCH  15  17
ENDBRANCH   4  15
BRANCH   5  19
ATOM     19  O   UNL     1     -15.864   4.718  -1.394  1.00  0.00    -0.507 OA
ATOM     20  H   UNL     1     -16.403   4.148  -0.818  1.00  0.00     0.293 HD
ENDBRANCH   5  19
TORSDOF 4
ENDMDL
