MODEL 1
REMARK VINA RESULT:    -7.347      0.000      0.000
REMARK INTER + INTRA:          -9.236
REMARK INTER:                  -8.636
REMARK INTRA:                  -0.600
REMARK UNBOUND:                -0.600
REMARK SMILES O=C(O)c1cc(-c2ccc(F)cc2F)ccc1O
REMARK SMILES IDX 6 1 5 2 15 3 4 4 17 5 16 6 7 7 13 8 12 9 8 10 10 11 9 12
REMARK SMILES IDX 14 13 11 14 2 15 1 16 3 17 18 19
REMARK H PARENT 3 18 18 20
ROOT
ATOM      1  C   UNL     1       3.946   2.296  -7.870  1.00  0.00    -0.014 A 
ATOM      2  C   UNL     1       3.093   3.186  -7.218  1.00  0.00     0.028 A 
ATOM      3  C   UNL     1       4.164   1.024  -7.340  1.00  0.00     0.013 A 
ATOM      4  C   UNL     1       2.458   2.805  -6.036  1.00  0.00     0.102 A 
ATOM      5  C   UNL     1       2.676   1.533  -5.505  1.00  0.00     0.130 A 
ATOM      6  C   UNL     1       3.530   0.643  -6.158  1.00  0.00     0.048 A 
ENDROOT
BRANCH   1   7
ATOM      7  C   UNL     1       4.606   2.691  -9.096  1.00  0.00     0.018 A 
ATOM      8  C   UNL     1       3.880   3.310 -10.114  1.00  0.00     0.133 A 
ATOM      9  C   UNL     1       4.520   3.689 -11.294  1.00  0.00     0.079 A 
ATOM     10  C   UNL     1       5.970   2.452  -9.257  1.00  0.00     0.015 A 
ATOM     11  C   UNL     1       5.884   3.449 -11.456  1.00  0.00     0.126 A 
ATOM     12  C   UNL     1       6.609   2.831 -10.437  1.00  0.00     0.040 A 
ATOM     13  F   UNL     1       2.567   3.544  -9.975  1.00  0.00    -0.206 F 
ATOM     14  F   UNL     1       6.500   3.813 -12.588  1.00  0.00    -0.207 F 
ENDBRANCH   1   7
BRANCH   4  15
ATOM     15  C   UNL     1       1.571   3.749  -5.370  1.00  0.00     0.339 C 
ATOM     16  O   UNL     1       1.654   4.097  -4.190  1.00  0.00    -0.246 OA
BRANCH  15  17
ATOM     17  O   UNL     1       0.607   4.229  -6.203  1.00  0.00    -0.478 OA
ATOM     18  H   UNL     1       0.244   5.083  -5.886  1.00  0.00     0.297 HD
ENDBRANCH  15  17
ENDBRANCH   4  15
BRANCH   5  19
ATOM     19  O   UNL     1       2.065   1.141  -4.352  1.00  0.00    -0.507 OA
ATOM     20  H   UNL     1       1.380   1.792  -4.119  1.00  0.00     0.293 HD
ENDBRANCH   5  19
TORSDOF 4
ENDMDL
MODEL 2
REMARK VINA RESULT:    -7.343      1.135      1.614
REMARK INTER + INTRA:          -9.231
REMARK INTER:                  -8.642
REMARK INTRA:                  -0.589
REMARK UNBOUND:                -0.600
REMARK SMILES O=C(O)c1cc(-c2ccc(F)cc2F)ccc1O
REMARK SMILES IDX 6 1 5 2 15 3 4 4 17 5 16 6 7 7 13 8 12 9 8 10 10 11 9 12
REMARK SMILES IDX 14 13 11 14 2 15 1 16 3 17 18 19
REMARK H PARENT 3 18 18 20
ROOT
ATOM      1  C   UNL     1       3.992   2.270  -7.826  1.00  0.00    -0.014 A 
ATOM      2  C   UNL     1       3.129   3.164  -7.194  1.00  0.00     0.028 A 
ATOM      3  C   UNL     1       4.206   1.004  -7.282  1.00  0.00     0.013 A 
ATOM      4  C   UNL     1       2.479   2.792  -6.017  1.00  0.00     0.102 A 
ATOM      5  C   UNL     1       2.693   1.525  -5.473  1.00  0.00     0.130 A 
ATOM      6  C   UNL     1       3.557   0.631  -6.106  1.00  0.00     0.048 A 
ENDROOT
BRANCH   1   7
ATOM      7  C   UNL     1       4.668   2.656  -9.047  1.00  0.00     0.018 A 
ATOM      8  C   UNL     1       6.037   2.427  -9.191  1.00  0.00     0.133 A 
ATOM      9  C   UNL     1       6.685   2.801 -10.369  1.00  0.00     0.079 A 
ATOM     10  C   UNL     1       3.948   3.256 -10.079  1.00  0.00     0.015 A 
ATOM     11  C   UNL     1       5.965   3.402 -11.401  1.00  0.00     0.126 A 
ATOM     12  C   UNL     1       4.596   3.629 -11.256  1.00  0.00     0.040 A 
ATOM     13  F   UNL     1       6.745   1.854  -8.208  1.00  0.00    -0.206 F 
ATOM     14  F   UNL     1       6.585   3.761 -12.532  1.00  0.00    -0.207 F 
ENDBRANCH   1   7
BRANCH   4  15
ATOM     15  C   UNL     1       1.581   3.740  -5.372  1.00  0.00     0.339 C 
ATOM     16  O   UNL     1       1.651   4.102  -4.195  1.00  0.00    -0.246 OA
BRANCH  15  17
ATOM     17  O   UNL     1       0.624   4.206  -6.220  1.00  0.00    -0.478 OA
ATOM     18  H   UNL     1       0.455   5.163  -6.088  1.00  0.00     0.297 HD
ENDBRANCH  15  17
ENDBRANCH   4  15
BRANCH   5  19
ATOM     19  O   UNL     1       2.067   1.142  -4.324  1.00  0.00    -0.507 OA
ATOM     20  H   UNL     1       1.829   1.935  -3.813  1.00  0.00     0.293 HD
ENDBRANCH   5  19
TORSDOF 4
ENDMDL
MODEL 3
REMARK VINA RESULT:    -7.342      1.651      3.150
REMARK INTER + INTRA:          -9.230
REMARK INTER:                  -8.633
REMARK INTRA:                  -0.597
REMARK UNBOUND:                -0.600
REMARK SMILES O=C(O)c1cc(-c2ccc(F)cc2F)ccc1O
REMARK SMILES IDX 6 1 5 2 15 3 4 4 17 5 16 6 7 7 13 8 12 9 8 10 10 11 9 12
REMARK SMILES IDX 14 13 11 14 2 15 1 16 3 17 18 19
REMARK H PARENT 3 18 18 20
ROOT
ATOM      1  C   UNL     1       4.021   2.303  -7.821  1.00  0.00    -0.014 A 
ATOM      2  C   UNL     1       4.244   1.026  -7.307  1.00  0.00     0.028 A 
ATOM      3  C   UNL     1       3.174   3.186  -7.150  1.00  0.00     0.013 A 
ATOM      4  C   UNL     1       3.622   0.631  -6.122  1.00  0.00     0.102 A 
ATOM      5  C   UNL     1       2.776   1.515  -5.452  1.00  0.00     0.130 A 
ATOM      6  C   UNL     1       2.552   2.792  -5.966  1.00  0.00     0.048 A 
ENDROOT
BRANCH   1   7
ATOM      7  C   UNL     1       4.665   2.712  -9.050  1.00  0.00     0.018 A 
ATOM      8  C   UNL     1       6.029   2.483  -9.236  1.00  0.00     0.133 A 
ATOM      9  C   UNL     1       6.646   2.880 -10.423  1.00  0.00     0.079 A 
ATOM     10  C   UNL     1       3.919   3.335 -10.050  1.00  0.00     0.015 A 
ATOM     11  C   UNL     1       5.901   3.504 -11.422  1.00  0.00     0.126 A 
ATOM     12  C   UNL     1       4.537   3.731 -11.236  1.00  0.00     0.040 A 
ATOM     13  F   UNL     1       6.760   1.888  -8.283  1.00  0.00    -0.206 F 
ATOM     14  F   UNL     1       6.492   3.884 -12.562  1.00  0.00    -0.207 F 
ENDBRANCH   1   7
BRANCH   4  15
ATOM     15  C   UNL     1       3.869  -0.706  -5.601  1.00  0.00     0.339 C 
ATOM     16  O   UNL     1       2.999  -1.532  -5.314  1.00  0.00    -0.246 OA
BRANCH  15  17
ATOM     17  O   UNL     1       5.196  -0.969  -5.458  1.00  0.00    -0.478 OA
ATOM     18  H   UNL     1       5.523  -0.722  -4.568  1.00  0.00     0.297 HD
ENDBRANCH  15  17
ENDBRANCH   4  15
BRANCH   5  19
ATOM     19  O   UNL     1       2.158   1.149  -4.293  1.00  0.00    -0.507 OA
ATOM     20  H   UNL     1       1.649   0.334  -4.448  1.00  0.00     0.293 HD
ENDBRANCH   5  19
TORSDOF 4
ENDMDL
MODEL 4
REMARK VINA RESULT:    -5.479      4.113      6.361
REMARK INTER + INTRA:          -7.041
REMARK INTER:                  -5.959
REMARK INTRA:                  -1.082
REMARK UNBOUND:                -0.600
REMARK SMILES O=C(O)c1cc(-c2ccc(F)cc2F)ccc1O
REMARK SMILES IDX 6 1 5 2 15 3 4 4 17 5 16 6 7 7 13 8 12 9 8 10 10 11 9 12
REMARK SMILES IDX 14 13 11 14 2 15 1 16 3 17 18 19
REMARK H PARENT 3 18 18 20
ROOT
ATOM      1  C   UNL     1       5.023   3.229 -10.223  1.00  0.00    -0.014 A 
ATOM      2  C   UNL     1       5.512   4.512 -10.462  1.00  0.00     0.028 A 
ATOM      3  C   UNL     1       5.244   2.214 -11.155  1.00  0.00     0.013 A 
ATOM      4  C   UNL     1       6.222   4.783 -11.632  1.00  0.00     0.102 A 
ATOM      5  C   UNL     1       6.444   3.768 -12.563  1.00  0.00     0.130 A 
ATOM      6  C   UNL     1       5.954   2.483 -12.324  1.00  0.00     0.048 A 
ENDROOT
BRANCH   1   7
ATOM      7  C   UNL     1       4.285   2.948  -9.011  1.00  0.00     0.018 A 
ATOM      8  C   UNL     1       2.907   3.164  -8.964  1.00  0.00     0.133 A 
ATOM      9  C   UNL     1       2.199   2.892  -7.793  1.00  0.00     0.079 A 
ATOM     10  C   UNL     1       4.953   2.460  -7.889  1.00  0.00     0.015 A 
ATOM     11  C   UNL     1       2.868   2.405  -6.670  1.00  0.00     0.126 A 
ATOM     12  C   UNL     1       4.245   2.188  -6.719  1.00  0.00     0.040 A 
ATOM     13  F   UNL     1       2.250   3.636 -10.033  1.00  0.00    -0.206 F 
ATOM     14  F   UNL     1       2.189   2.144  -5.546  1.00  0.00    -0.207 F 
ENDBRANCH   1   7
BRANCH   4  15
ATOM     15  C   UNL     1       6.725   6.130 -11.862  1.00  0.00     0.339 C 
ATOM     16  O   UNL     1       7.376   6.491 -12.845  1.00  0.00    -0.246 OA
BRANCH  15  17
ATOM     17  O   UNL     1       6.396   6.985 -10.855  1.00  0.00    -0.478 OA
ATOM     18  H   UNL     1       6.538   6.581  -9.973  1.00  0.00     0.297 HD
ENDBRANCH  15  17
ENDBRANCH   4  15
BRANCH   5  19
ATOM     19  O   UNL     1       7.136   4.011 -13.712  1.00  0.00    -0.507 OA
ATOM     20  H   UNL     1       6.705   3.542 -14.447  1.00  0.00     0.293 HD
ENDBRANCH   5  19
TORSDOF 4
ENDMDL
MODEL 5
REMARK VINA RESULT:    -5.473      4.612      6.967
REMARK INTER + INTRA:          -7.034
REMARK INTER:                  -5.952
REMARK INTRA:                  -1.081
REMARK UNBOUND:                -0.600
REMARK SMILES O=C(O)c1cc(-c2ccc(F)cc2F)ccc1O
REMARK SMILES IDX 6 1 5 2 15 3 4 4 17 5 16 6 7 7 13 8 12 9 8 10 10 11 9 12
REMARK SMILES IDX 14 13 11 14 2 15 1 16 3 17 18 19
REMARK H PARENT 3 18 18 20
ROOT
ATOM      1  C   UNL     1       5.402   2.914 -10.132  1.00  0.00    -0.014 A 
ATOM      2  C   UNL     1       5.619   2.061 -11.214  1.00  0.00     0.028 A 
ATOM      3  C   UNL     1       5.729   4.266 -10.234  1.00  0.00     0.013 A 
ATOM      4  C   UNL     1       6.163   2.560 -12.398  1.00  0.00     0.102 A 
ATOM      5  C   UNL     1       6.490   3.912 -12.499  1.00  0.00     0.130 A 
ATOM      6  C   UNL     1       6.273   4.766 -11.417  1.00  0.00     0.048 A 
ENDROOT
BRANCH   1   7
ATOM      7  C   UNL     1       4.839   2.397  -8.903  1.00  0.00     0.018 A 
ATOM      8  C   UNL     1       5.672   1.842  -7.931  1.00  0.00     0.133 A 
ATOM      9  C   UNL     1       5.125   1.344  -6.748  1.00  0.00     0.079 A 
ATOM     10  C   UNL     1       3.462   2.456  -8.692  1.00  0.00     0.015 A 
ATOM     11  C   UNL     1       3.748   1.402  -6.537  1.00  0.00     0.126 A 
ATOM     12  C   UNL     1       2.917   1.958  -7.509  1.00  0.00     0.040 A 
ATOM     13  F   UNL     1       6.997   1.776  -8.119  1.00  0.00    -0.206 F 
ATOM     14  F   UNL     1       3.222   0.925  -5.401  1.00  0.00    -0.207 F 
ENDBRANCH   1   7
BRANCH   4  15
ATOM     15  C   UNL     1       6.381   1.653 -13.516  1.00  0.00     0.339 C 
ATOM     16  O   UNL     1       6.825   1.975 -14.621  1.00  0.00    -0.246 OA
BRANCH  15  17
ATOM     17  O   UNL     1       6.038   0.370 -13.218  1.00  0.00    -0.478 OA
ATOM     18  H   UNL     1       6.659  -0.033 -12.575  1.00  0.00     0.297 HD
ENDBRANCH  15  17
ENDBRANCH   4  15
BRANCH   5  19
ATOM     19  O   UNL     1       7.021   4.419 -13.648  1.00  0.00    -0.507 OA
ATOM     20  H   UNL     1       6.315   4.511 -14.311  1.00  0.00     0.293 HD
ENDBRANCH   5  19
TORSDOF 4
ENDMDL
MODEL 6
REMARK VINA RESULT:    -5.019      1.680      2.870
REMARK INTER + INTRA:          -6.500
REMARK INTER:                  -5.660
REMARK INTRA:                  -0.840
REMARK UNBOUND:                -0.600
REMARK SMILES O=C(O)c1cc(-c2ccc(F)cc2F)ccc1O
REMARK SMILES IDX 6 1 5 2 15 3 4 4 17 5 16 6 7 7 13 8 12 9 8 10 10 11 9 12
REMARK SMILES IDX 14 13 11 14 2 15 1 16 3 17 18 19
REMARK H PARENT 3 18 18 20
ROOT
ATOM      1  C   UNL     1       4.112   2.431  -8.834  1.00  0.00    -0.014 A 
ATOM      2  C   UNL     1       4.478   1.344  -8.041  1.00  0.00     0.028 A 
ATOM      3  C   UNL     1       3.027   3.227  -8.468  1.00  0.00     0.013 A 
ATOM      4  C   UNL     1       3.760   1.053  -6.881  1.00  0.00     0.102 A 
ATOM      5  C   UNL     1       2.674   1.849  -6.515  1.00  0.00     0.130 A 
ATOM      6  C   UNL     1       2.308   2.937  -7.309  1.00  0.00     0.048 A 
ENDROOT
BRANCH   1   7
ATOM      7  C   UNL     1       4.856   2.733 -10.038  1.00  0.00     0.018 A 
ATOM      8  C   UNL     1       5.443   3.988 -10.202  1.00  0.00     0.133 A 
ATOM      9  C   UNL     1       6.159   4.275 -11.365  1.00  0.00     0.079 A 
ATOM     10  C   UNL     1       4.987   1.766 -11.034  1.00  0.00     0.015 A 
ATOM     11  C   UNL     1       6.290   3.308 -12.361  1.00  0.00     0.126 A 
ATOM     12  C   UNL     1       5.704   2.053 -12.195  1.00  0.00     0.040 A 
ATOM     13  F   UNL     1       5.324   4.930  -9.256  1.00  0.00    -0.206 F 
ATOM     14  F   UNL     1       6.977   3.583 -13.477  1.00  0.00    -0.207 F 
ENDBRANCH   1   7
BRANCH   4  15
ATOM     15  C   UNL     1       4.159  -0.086  -6.066  1.00  0.00     0.339 C 
ATOM     16  O   UNL     1       5.316  -0.360  -5.740  1.00  0.00    -0.246 OA
BRANCH  15  17
ATOM     17  O   UNL     1       3.097  -0.846  -5.683  1.00  0.00    -0.478 OA
ATOM     18  H   UNL     1       2.249  -0.480  -6.011  1.00  0.00     0.297 HD
ENDBRANCH  15  17
ENDBRANCH   4  15
BRANCH   5  19
ATOM     19  O   UNL     1       1.959   1.582  -5.386  1.00  0.00    -0.507 OA
ATOM     20  H   UNL     1       1.214   0.999  -5.613  1.00  0.00     0.293 HD
ENDBRANCH   5  19
TORSDOF 4
ENDMDL
MODEL 7
REMARK VINA RESULT:    -4.457      1.716      2.291
REMARK INTER + INTRA:          -5.839
REMARK INTER:                  -4.832
REMARK INTRA:                  -1.007
REMARK UNBOUND:                -0.600
REMARK SMILES O=C(O)c1cc(-c2ccc(F)cc2F)ccc1O
REMARK SMILES IDX 6 1 5 2 15 3 4 4 17 5 16 6 7 7 13 8 12 9 8 10 10 11 9 12
REMARK SMILES IDX 14 13 11 14 2 15 1 16 3 17 18 19
REMARK H PARENT 3 18 18 20
ROOT
ATOM      1  C   UNL     1       5.111   2.624  -9.271  1.00  0.00    -0.014 A 
ATOM      2  C   UNL     1       3.813   3.058  -9.003  1.00  0.00     0.028 A 
ATOM      3  C   UNL     1       5.880   2.055  -8.256  1.00  0.00     0.013 A 
ATOM      4  C   UNL     1       3.284   2.923  -7.719  1.00  0.00     0.102 A 
ATOM      5  C   UNL     1       4.053   2.354  -6.704  1.00  0.00     0.130 A 
ATOM      6  C   UNL     1       5.351   1.919  -6.973  1.00  0.00     0.048 A 
ENDROOT
BRANCH   1   7
ATOM      7  C   UNL     1       5.661   2.765 -10.602  1.00  0.00     0.018 A 
ATOM      8  C   UNL     1       6.052   4.020 -11.070  1.00  0.00     0.133 A 
ATOM      9  C   UNL     1       6.582   4.151 -12.354  1.00  0.00     0.079 A 
ATOM     10  C   UNL     1       5.801   1.642 -11.418  1.00  0.00     0.015 A 
ATOM     11  C   UNL     1       6.721   3.029 -13.169  1.00  0.00     0.126 A 
ATOM     12  C   UNL     1       6.331   1.774 -12.700  1.00  0.00     0.040 A 
ATOM     13  F   UNL     1       5.921   5.109 -10.300  1.00  0.00    -0.206 F 
ATOM     14  F   UNL     1       7.229   3.154 -14.401  1.00  0.00    -0.207 F 
ENDBRANCH   1   7
BRANCH   4  15
ATOM     15  C   UNL     1       1.926   3.383  -7.459  1.00  0.00     0.339 C 
ATOM     16  O   UNL     1       1.490   3.735  -6.360  1.00  0.00    -0.246 OA
BRANCH  15  17
ATOM     17  O   UNL     1       1.157   3.389  -8.582  1.00  0.00    -0.478 OA
ATOM     18  H   UNL     1       1.671   3.136  -9.377  1.00  0.00     0.297 HD
ENDBRANCH  15  17
ENDBRANCH   4  15
BRANCH   5  19
ATOM     19  O   UNL     1       3.554   2.213  -5.443  1.00  0.00    -0.507 OA
ATOM     20  H   UNL     1       3.634   1.281  -5.173  1.00  0.00     0.293 HD
ENDBRANCH   5  19
TORSDOF 4
ENDMDL
