MODEL 1
REMARK VINA RESULT:    -4.935      0.000      0.000
REMARK INTER + INTRA:          -6.961
REMARK INTER:                  -6.089
REMARK INTRA:                  -0.873
REMARK UNBOUND:                -0.873
REMARK SMILES Cc1ccc(C(=O)c2cc(O)c(O)c([N+](=O)[O-])c2)cc1
REMARK SMILES IDX 8 1 18 2 9 3 14 4 10 5 12 6 6 7 7 8 5 9 4 10 19 11 3 12
REMARK SMILES IDX 20 13 2 14 1 15 15 16 17 17 16 18 11 19 13 21
REMARK H PARENT 11 20 13 22
ROOT
ATOM      1  C   UNL     1       6.146  -3.040  -5.124  1.00  0.00     0.033 A 
ATOM      2  C   UNL     1       5.653  -1.863  -5.638  1.00  0.00     0.102 A 
ATOM      3  C   UNL     1       5.844  -3.486  -3.859  1.00  0.00     0.063 A 
ATOM      4  C   UNL     1       4.809  -1.089  -4.842  1.00  0.00     0.315 A 
ATOM      5  C   UNL     1       5.001  -2.712  -3.062  1.00  0.00     0.165 A 
ATOM      6  C   UNL     1       4.482  -1.513  -3.554  1.00  0.00     0.237 A 
ENDROOT
BRANCH   1   7
ATOM      7  C   UNL     1       7.050  -3.869  -5.977  1.00  0.00     0.193 C 
ATOM      8  O   UNL     1       6.839  -5.091  -6.009  1.00  0.00    -0.289 OA
BRANCH   7   9
ATOM      9  C   UNL     1       8.139  -3.292  -6.748  1.00  0.00     0.023 A 
ATOM     10  C   UNL     1       9.394  -3.121  -6.163  1.00  0.00     0.012 A 
ATOM     11  C   UNL     1       7.930  -2.910  -8.073  1.00  0.00     0.012 A 
ATOM     12  C   UNL     1      10.439  -2.568  -6.903  1.00  0.00     0.004 A 
ATOM     13  C   UNL     1       8.975  -2.357  -8.814  1.00  0.00     0.004 A 
ATOM     14  C   UNL     1      10.230  -2.186  -8.229  1.00  0.00    -0.051 A 
ATOM     15  C   UNL     1      11.347  -1.594  -9.019  1.00  0.00     0.044 C 
ENDBRANCH   7   9
ENDBRANCH   1   7
BRANCH   4  16
ATOM     16  N   UNL     1       4.291   0.130  -5.359  1.00  0.00     0.066 N 
ATOM     17  O   UNL     1       4.165   1.111  -4.588  1.00  0.00    -0.258 OA
ATOM     18  O   UNL     1       3.976   0.188  -6.571  1.00  0.00    -0.258 OA
ENDBRANCH   4  16
BRANCH   5  19
ATOM     19  O   UNL     1       4.690  -3.139  -1.806  1.00  0.00    -0.504 OA
ATOM     20  H   UNL     1       4.950  -2.463  -1.159  1.00  0.00     0.293 HD
ENDBRANCH   5  19
BRANCH   6  21
ATOM     21  O   UNL     1       3.658  -0.765  -2.765  1.00  0.00    -0.500 OA
ATOM     22  H   UNL     1       3.142  -0.156  -3.317  1.00  0.00     0.294 HD
ENDBRANCH   6  21
TORSDOF 5
ENDMDL
MODEL 2
REMARK VINA RESULT:    -4.895      1.778      2.050
REMARK INTER + INTRA:          -6.912
REMARK INTER:                  -6.524
REMARK INTRA:                  -0.388
REMARK UNBOUND:                -0.873
REMARK SMILES Cc1ccc(C(=O)c2cc(O)c(O)c([N+](=O)[O-])c2)cc1
REMARK SMILES IDX 8 1 18 2 9 3 14 4 10 5 12 6 6 7 7 8 5 9 4 10 19 11 3 12
REMARK SMILES IDX 20 13 2 14 1 15 15 16 17 17 16 18 11 19 13 21
REMARK H PARENT 11 20 13 22
ROOT
ATOM      1  C   UNL     1       6.737  -2.061  -3.685  1.00  0.00     0.033 A 
ATOM      2  C   UNL     1       6.127  -1.015  -4.338  1.00  0.00     0.102 A 
ATOM      3  C   UNL     1       6.059  -2.918  -2.851  1.00  0.00     0.063 A 
ATOM      4  C   UNL     1       4.759  -0.817  -4.146  1.00  0.00     0.315 A 
ATOM      5  C   UNL     1       4.692  -2.719  -2.658  1.00  0.00     0.165 A 
ATOM      6  C   UNL     1       4.042  -1.668  -3.307  1.00  0.00     0.237 A 
ENDROOT
BRANCH   1   7
ATOM      7  C   UNL     1       8.202  -2.273  -3.890  1.00  0.00     0.193 C 
ATOM      8  O   UNL     1       8.964  -1.887  -2.991  1.00  0.00    -0.289 OA
BRANCH   7   9
ATOM      9  C   UNL     1       8.738  -2.906  -5.084  1.00  0.00     0.023 A 
ATOM     10  C   UNL     1       9.945  -3.602  -5.022  1.00  0.00     0.012 A 
ATOM     11  C   UNL     1       8.046  -2.816  -6.291  1.00  0.00     0.012 A 
ATOM     12  C   UNL     1      10.459  -4.209  -6.168  1.00  0.00     0.004 A 
ATOM     13  C   UNL     1       8.560  -3.423  -7.438  1.00  0.00     0.004 A 
ATOM     14  C   UNL     1       9.767  -4.120  -7.377  1.00  0.00    -0.051 A 
ATOM     15  C   UNL     1      10.318  -4.767  -8.601  1.00  0.00     0.044 C 
ENDBRANCH   7   9
ENDBRANCH   1   7
BRANCH   4  16
ATOM     16  N   UNL     1       4.114   0.259  -4.815  1.00  0.00     0.066 N 
ATOM     17  O   UNL     1       3.710   0.087  -5.991  1.00  0.00    -0.258 OA
ATOM     18  O   UNL     1       3.967   1.347  -4.211  1.00  0.00    -0.258 OA
ENDBRANCH   4  16
BRANCH   5  19
ATOM     19  O   UNL     1       4.003  -3.559  -1.835  1.00  0.00    -0.504 OA
ATOM     20  H   UNL     1       4.617  -4.196  -1.433  1.00  0.00     0.293 HD
ENDBRANCH   5  19
BRANCH   6  21
ATOM     21  O   UNL     1       2.704  -1.484  -3.111  1.00  0.00    -0.500 OA
ATOM     22  H   UNL     1       2.239  -1.540  -3.961  1.00  0.00     0.294 HD
ENDBRANCH   6  21
TORSDOF 5
ENDMDL
MODEL 3
REMARK VINA RESULT:    -4.848      1.672      3.110
REMARK INTER + INTRA:          -6.854
REMARK INTER:                  -6.166
REMARK INTRA:                  -0.689
REMARK UNBOUND:                -0.873
REMARK SMILES Cc1ccc(C(=O)c2cc(O)c(O)c([N+](=O)[O-])c2)cc1
REMARK SMILES IDX 8 1 18 2 9 3 14 4 10 5 12 6 6 7 7 8 5 9 4 10 19 11 3 12
REMARK SMILES IDX 20 13 2 14 1 15 15 16 17 17 16 18 11 19 13 21
REMARK H PARENT 11 20 13 22
ROOT
ATOM      1  C   UNL     1       5.172  -1.944  -5.875  1.00  0.00     0.033 A 
ATOM      2  C   UNL     1       5.104  -2.842  -4.835  1.00  0.00     0.102 A 
ATOM      3  C   UNL     1       4.824  -0.621  -5.742  1.00  0.00     0.063 A 
ATOM      4  C   UNL     1       4.662  -2.391  -3.591  1.00  0.00     0.315 A 
ATOM      5  C   UNL     1       4.382  -0.169  -4.498  1.00  0.00     0.165 A 
ATOM      6  C   UNL     1       4.301  -1.054  -3.422  1.00  0.00     0.237 A 
ENDROOT
BRANCH   1   7
ATOM      7  C   UNL     1       5.645  -2.427  -7.207  1.00  0.00     0.193 C 
ATOM      8  O   UNL     1       4.779  -2.705  -8.051  1.00  0.00    -0.289 OA
BRANCH   7   9
ATOM      9  C   UNL     1       7.055  -2.574  -7.528  1.00  0.00     0.023 A 
ATOM     10  C   UNL     1       7.472  -2.570  -8.859  1.00  0.00     0.012 A 
ATOM     11  C   UNL     1       7.992  -2.718  -6.505  1.00  0.00     0.012 A 
ATOM     12  C   UNL     1       8.825  -2.711  -9.166  1.00  0.00     0.004 A 
ATOM     13  C   UNL     1       9.346  -2.859  -6.812  1.00  0.00     0.004 A 
ATOM     14  C   UNL     1       9.763  -2.855  -8.143  1.00  0.00    -0.051 A 
ATOM     15  C   UNL     1      11.209  -3.007  -8.472  1.00  0.00     0.044 C 
ENDBRANCH   7   9
ENDBRANCH   1   7
BRANCH   4  16
ATOM     16  N   UNL     1       4.587  -3.308  -2.507  1.00  0.00     0.066 N 
ATOM     17  O   UNL     1       3.525  -3.373  -1.842  1.00  0.00    -0.258 OA
ATOM     18  O   UNL     1       5.582  -4.024  -2.249  1.00  0.00    -0.258 OA
ENDBRANCH   4  16
BRANCH   5  19
ATOM     19  O   UNL     1       4.033   1.140  -4.347  1.00  0.00    -0.504 OA
ATOM     20  H   UNL     1       4.404   1.662  -5.077  1.00  0.00     0.293 HD
ENDBRANCH   5  19
BRANCH   6  21
ATOM     21  O   UNL     1       3.868  -0.601  -2.210  1.00  0.00    -0.500 OA
ATOM     22  H   UNL     1       3.801   0.367  -2.229  1.00  0.00     0.294 HD
ENDBRANCH   6  21
TORSDOF 5
ENDMDL
MODEL 4
REMARK VINA RESULT:    -4.797      2.065      3.488
REMARK INTER + INTRA:          -6.791
REMARK INTER:                  -5.882
REMARK INTRA:                  -0.909
REMARK UNBOUND:                -0.873
REMARK SMILES Cc1ccc(C(=O)c2cc(O)c(O)c([N+](=O)[O-])c2)cc1
REMARK SMILES IDX 8 1 18 2 9 3 14 4 10 5 12 6 6 7 7 8 5 9 4 10 19 11 3 12
REMARK SMILES IDX 20 13 2 14 1 15 15 16 17 17 16 18 11 19 13 21
REMARK H PARENT 11 20 13 22
ROOT
ATOM      1  C   UNL     1       6.808  -1.391  -5.384  1.00  0.00     0.033 A 
ATOM      2  C   UNL     1       6.665  -2.204  -4.283  1.00  0.00     0.102 A 
ATOM      3  C   UNL     1       5.830  -0.520  -5.801  1.00  0.00     0.063 A 
ATOM      4  C   UNL     1       5.476  -2.140  -3.557  1.00  0.00     0.315 A 
ATOM      5  C   UNL     1       4.640  -0.457  -5.075  1.00  0.00     0.165 A 
ATOM      6  C   UNL     1       4.463  -1.267  -3.952  1.00  0.00     0.237 A 
ENDROOT
BRANCH   1   7
ATOM      7  C   UNL     1       8.082  -1.460  -6.162  1.00  0.00     0.193 C 
ATOM      8  O   UNL     1       8.672  -0.391  -6.382  1.00  0.00    -0.289 OA
BRANCH   7   9
ATOM      9  C   UNL     1       8.629  -2.714  -6.653  1.00  0.00     0.023 A 
ATOM     10  C   UNL     1       8.204  -3.229  -7.878  1.00  0.00     0.012 A 
ATOM     11  C   UNL     1       9.580  -3.402  -5.900  1.00  0.00     0.012 A 
ATOM     12  C   UNL     1       8.730  -4.432  -8.348  1.00  0.00     0.004 A 
ATOM     13  C   UNL     1      10.106  -4.606  -6.370  1.00  0.00     0.004 A 
ATOM     14  C   UNL     1       9.681  -5.121  -7.595  1.00  0.00    -0.051 A 
ATOM     15  C   UNL     1      10.242  -6.408  -8.098  1.00  0.00     0.044 C 
ENDBRANCH   7   9
ENDBRANCH   1   7
BRANCH   4  16
ATOM     16  N   UNL     1       5.314  -2.973  -2.416  1.00  0.00     0.066 N 
ATOM     17  O   UNL     1       6.322  -3.255  -1.724  1.00  0.00    -0.258 OA
ATOM     18  O   UNL     1       4.170  -3.401  -2.136  1.00  0.00    -0.258 OA
ENDBRANCH   4  16
BRANCH   5  19
ATOM     19  O   UNL     1       3.659   0.401  -5.473  1.00  0.00    -0.504 OA
ATOM     20  H   UNL     1       2.818   0.151  -5.055  1.00  0.00     0.293 HD
ENDBRANCH   5  19
BRANCH   6  21
ATOM     21  O   UNL     1       3.295  -1.195  -3.250  1.00  0.00    -0.500 OA
ATOM     22  H   UNL     1       3.010  -0.271  -3.185  1.00  0.00     0.294 HD
ENDBRANCH   6  21
TORSDOF 5
ENDMDL
MODEL 5
REMARK VINA RESULT:    -4.566      3.577      4.417
REMARK INTER + INTRA:          -6.507
REMARK INTER:                  -5.536
REMARK INTRA:                  -0.971
REMARK UNBOUND:                -0.873
REMARK SMILES Cc1ccc(C(=O)c2cc(O)c(O)c([N+](=O)[O-])c2)cc1
REMARK SMILES IDX 8 1 18 2 9 3 14 4 10 5 12 6 6 7 7 8 5 9 4 10 19 11 3 12
REMARK SMILES IDX 20 13 2 14 1 15 15 16 17 17 16 18 11 19 13 21
REMARK H PARENT 11 20 13 22
ROOT
ATOM      1  C   UNL     1       9.437  -3.394  -6.292  1.00  0.00     0.033 A 
ATOM      2  C   UNL     1       8.151  -2.909  -6.257  1.00  0.00     0.102 A 
ATOM      3  C   UNL     1      10.205  -3.555  -5.163  1.00  0.00     0.063 A 
ATOM      4  C   UNL     1       7.600  -2.567  -5.022  1.00  0.00     0.315 A 
ATOM      5  C   UNL     1       9.654  -3.213  -3.928  1.00  0.00     0.165 A 
ATOM      6  C   UNL     1       8.351  -2.719  -3.857  1.00  0.00     0.237 A 
ENDROOT
BRANCH   1   7
ATOM      7  C   UNL     1      10.028  -3.759  -7.615  1.00  0.00     0.193 C 
ATOM      8  O   UNL     1      10.428  -2.832  -8.335  1.00  0.00    -0.289 OA
BRANCH   7   9
ATOM      9  C   UNL     1      10.141  -5.138  -8.064  1.00  0.00     0.023 A 
ATOM     10  C   UNL     1      11.367  -5.625  -8.518  1.00  0.00     0.012 A 
ATOM     11  C   UNL     1       9.024  -5.973  -8.040  1.00  0.00     0.012 A 
ATOM     12  C   UNL     1      11.475  -6.947  -8.948  1.00  0.00     0.004 A 
ATOM     13  C   UNL     1       9.132  -7.296  -8.471  1.00  0.00     0.004 A 
ATOM     14  C   UNL     1      10.358  -7.783  -8.925  1.00  0.00    -0.051 A 
ATOM     15  C   UNL     1      10.474  -9.196  -9.386  1.00  0.00     0.044 C 
ENDBRANCH   7   9
ENDBRANCH   1   7
BRANCH   4  16
ATOM     16  N   UNL     1       6.270  -2.065  -4.970  1.00  0.00     0.066 N 
ATOM     17  O   UNL     1       5.395  -2.590  -5.700  1.00  0.00    -0.258 OA
ATOM     18  O   UNL     1       6.012  -1.113  -4.197  1.00  0.00    -0.258 OA
ENDBRANCH   4  16
BRANCH   5  19
ATOM     19  O   UNL     1      10.400  -3.367  -2.798  1.00  0.00    -0.504 OA
ATOM     20  H   UNL     1      10.856  -4.225  -2.823  1.00  0.00     0.293 HD
ENDBRANCH   5  19
BRANCH   6  21
ATOM     21  O   UNL     1       7.823  -2.389  -2.643  1.00  0.00    -0.500 OA
ATOM     22  H   UNL     1       7.661  -1.433  -2.607  1.00  0.00     0.294 HD
ENDBRANCH   6  21
TORSDOF 5
ENDMDL
MODEL 6
REMARK VINA RESULT:    -4.531      3.861      7.089
REMARK INTER + INTRA:          -6.463
REMARK INTER:                  -5.485
REMARK INTRA:                  -0.978
REMARK UNBOUND:                -0.873
REMARK SMILES Cc1ccc(C(=O)c2cc(O)c(O)c([N+](=O)[O-])c2)cc1
REMARK SMILES IDX 8 1 18 2 9 3 14 4 10 5 12 6 6 7 7 8 5 9 4 10 19 11 3 12
REMARK SMILES IDX 20 13 2 14 1 15 15 16 17 17 16 18 11 19 13 21
REMARK H PARENT 11 20 13 22
ROOT
ATOM      1  C   UNL     1       9.522  -3.268  -6.739  1.00  0.00     0.033 A 
ATOM      2  C   UNL     1       9.713  -4.579  -7.110  1.00  0.00     0.102 A 
ATOM      3  C   UNL     1      10.107  -2.213  -7.397  1.00  0.00     0.063 A 
ATOM      4  C   UNL     1      10.535  -4.849  -8.204  1.00  0.00     0.315 A 
ATOM      5  C   UNL     1      10.929  -2.483  -8.492  1.00  0.00     0.165 A 
ATOM      6  C   UNL     1      11.143  -3.801  -8.895  1.00  0.00     0.237 A 
ENDROOT
BRANCH   1   7
ATOM      7  C   UNL     1       8.642  -2.979  -5.566  1.00  0.00     0.193 C 
ATOM      8  O   UNL     1       8.946  -3.502  -4.484  1.00  0.00    -0.289 OA
BRANCH   7   9
ATOM      9  C   UNL     1       7.471  -2.122  -5.663  1.00  0.00     0.023 A 
ATOM     10  C   UNL     1       7.321  -1.045  -4.790  1.00  0.00     0.012 A 
ATOM     11  C   UNL     1       6.498  -2.377  -6.630  1.00  0.00     0.012 A 
ATOM     12  C   UNL     1       6.197  -0.223  -4.883  1.00  0.00     0.004 A 
ATOM     13  C   UNL     1       5.374  -1.555  -6.724  1.00  0.00     0.004 A 
ATOM     14  C   UNL     1       5.224  -0.478  -5.850  1.00  0.00    -0.051 A 
ATOM     15  C   UNL     1       4.023   0.400  -5.949  1.00  0.00     0.044 C 
ENDBRANCH   7   9
ENDBRANCH   1   7
BRANCH   4  16
ATOM     16  N   UNL     1      10.741  -6.199  -8.601  1.00  0.00     0.066 N 
ATOM     17  O   UNL     1      11.802  -6.499  -9.198  1.00  0.00    -0.258 OA
ATOM     18  O   UNL     1       9.857  -7.048  -8.341  1.00  0.00    -0.258 OA
ENDBRANCH   4  16
BRANCH   5  19
ATOM     19  O   UNL     1      11.517  -1.449  -9.157  1.00  0.00    -0.504 OA
ATOM     20  H   UNL     1      12.070  -1.798  -9.876  1.00  0.00     0.293 HD
ENDBRANCH   5  19
BRANCH   6  21
ATOM     21  O   UNL     1      11.949  -4.053  -9.968  1.00  0.00    -0.500 OA
ATOM     22  H   UNL     1      12.861  -3.799  -9.756  1.00  0.00     0.294 HD
ENDBRANCH   6  21
TORSDOF 5
ENDMDL
MODEL 7
REMARK VINA RESULT:    -4.525      3.801      6.901
REMARK INTER + INTRA:          -6.456
REMARK INTER:                  -5.481
REMARK INTRA:                  -0.975
REMARK UNBOUND:                -0.873
REMARK SMILES Cc1ccc(C(=O)c2cc(O)c(O)c([N+](=O)[O-])c2)cc1
REMARK SMILES IDX 8 1 18 2 9 3 14 4 10 5 12 6 6 7 7 8 5 9 4 10 19 11 3 12
REMARK SMILES IDX 20 13 2 14 1 15 15 16 17 17 16 18 11 19 13 21
REMARK H PARENT 11 20 13 22
ROOT
ATOM      1  C   UNL     1       8.694  -3.308  -7.755  1.00  0.00     0.033 A 
ATOM      2  C   UNL     1       9.645  -2.482  -8.307  1.00  0.00     0.102 A 
ATOM      3  C   UNL     1       8.849  -4.672  -7.670  1.00  0.00     0.063 A 
ATOM      4  C   UNL     1      10.819  -3.052  -8.800  1.00  0.00     0.315 A 
ATOM      5  C   UNL     1      10.022  -5.242  -8.164  1.00  0.00     0.165 A 
ATOM      6  C   UNL     1      11.008  -4.432  -8.729  1.00  0.00     0.237 A 
ENDROOT
BRANCH   1   7
ATOM      7  C   UNL     1       7.437  -2.698  -7.226  1.00  0.00     0.193 C 
ATOM      8  O   UNL     1       6.762  -2.016  -8.011  1.00  0.00    -0.289 OA
BRANCH   7   9
ATOM      9  C   UNL     1       7.000  -2.881  -5.851  1.00  0.00     0.023 A 
ATOM     10  C   UNL     1       7.865  -2.580  -4.799  1.00  0.00     0.012 A 
ATOM     11  C   UNL     1       5.717  -3.356  -5.584  1.00  0.00     0.012 A 
ATOM     12  C   UNL     1       7.446  -2.755  -3.480  1.00  0.00     0.004 A 
ATOM     13  C   UNL     1       5.296  -3.531  -4.265  1.00  0.00     0.004 A 
ATOM     14  C   UNL     1       6.161  -3.230  -3.213  1.00  0.00    -0.051 A 
ATOM     15  C   UNL     1       5.714  -3.418  -1.803  1.00  0.00     0.044 C 
ENDBRANCH   7   9
ENDBRANCH   1   7
BRANCH   4  16
ATOM     16  N   UNL     1      11.811  -2.210  -9.373  1.00  0.00     0.066 N 
ATOM     17  O   UNL     1      12.585  -2.687 -10.238  1.00  0.00    -0.258 OA
ATOM     18  O   UNL     1      11.883  -1.016  -8.998  1.00  0.00    -0.258 OA
ENDBRANCH   4  16
BRANCH   5  19
ATOM     19  O   UNL     1      10.194  -6.592  -8.088  1.00  0.00    -0.504 OA
ATOM     20  H   UNL     1       9.569  -6.963  -7.442  1.00  0.00     0.293 HD
ENDBRANCH   5  19
BRANCH   6  21
ATOM     21  O   UNL     1      12.152  -5.001  -9.209  1.00  0.00    -0.500 OA
ATOM     22  H   UNL     1      12.191  -4.891 -10.172  1.00  0.00     0.294 HD
ENDBRANCH   6  21
TORSDOF 5
ENDMDL
MODEL 8
REMARK VINA RESULT:    -4.450      3.791      6.627
REMARK INTER + INTRA:          -6.363
REMARK INTER:                  -5.359
REMARK INTRA:                  -1.004
REMARK UNBOUND:                -0.873
REMARK SMILES Cc1ccc(C(=O)c2cc(O)c(O)c([N+](=O)[O-])c2)cc1
REMARK SMILES IDX 8 1 18 2 9 3 14 4 10 5 12 6 6 7 7 8 5 9 4 10 19 11 3 12
REMARK SMILES IDX 20 13 2 14 1 15 15 16 17 17 16 18 11 19 13 21
REMARK H PARENT 11 20 13 22
ROOT
ATOM      1  C   UNL     1       9.510  -3.299  -6.698  1.00  0.00     0.033 A 
ATOM      2  C   UNL     1      10.104  -2.255  -7.369  1.00  0.00     0.102 A 
ATOM      3  C   UNL     1       9.690  -4.614  -7.055  1.00  0.00     0.063 A 
ATOM      4  C   UNL     1      10.926  -2.544  -8.458  1.00  0.00     0.315 A 
ATOM      5  C   UNL     1      10.512  -4.903  -8.145  1.00  0.00     0.165 A 
ATOM      6  C   UNL     1      11.130  -3.868  -8.847  1.00  0.00     0.237 A 
ENDROOT
BRANCH   1   7
ATOM      7  C   UNL     1       8.630  -2.989  -5.531  1.00  0.00     0.193 C 
ATOM      8  O   UNL     1       8.929  -3.500  -4.441  1.00  0.00    -0.289 OA
BRANCH   7   9
ATOM      9  C   UNL     1       7.463  -2.128  -5.642  1.00  0.00     0.023 A 
ATOM     10  C   UNL     1       7.310  -1.047  -4.773  1.00  0.00     0.012 A 
ATOM     11  C   UNL     1       6.498  -2.382  -6.616  1.00  0.00     0.012 A 
ATOM     12  C   UNL     1       6.192  -0.221  -4.879  1.00  0.00     0.004 A 
ATOM     13  C   UNL     1       5.379  -1.555  -6.722  1.00  0.00     0.004 A 
ATOM     14  C   UNL     1       5.225  -0.474  -5.854  1.00  0.00    -0.051 A 
ATOM     15  C   UNL     1       4.029   0.408  -5.966  1.00  0.00     0.044 C 
ENDBRANCH   7   9
ENDBRANCH   1   7
BRANCH   4  16
ATOM     16  N   UNL     1      11.547  -1.476  -9.162  1.00  0.00     0.066 N 
ATOM     17  O   UNL     1      11.850  -0.432  -8.534  1.00  0.00    -0.258 OA
ATOM     18  O   UNL     1      11.774  -1.608 -10.387  1.00  0.00    -0.258 OA
ENDBRANCH   4  16
BRANCH   5  19
ATOM     19  O   UNL     1      10.702  -6.202  -8.512  1.00  0.00    -0.504 OA
ATOM     20  H   UNL     1      10.385  -6.789  -7.807  1.00  0.00     0.293 HD
ENDBRANCH   5  19
BRANCH   6  21
ATOM     21  O   UNL     1      11.932  -4.163  -9.910  1.00  0.00    -0.500 OA
ATOM     22  H   UNL     1      12.669  -3.534  -9.948  1.00  0.00     0.294 HD
ENDBRANCH   6  21
TORSDOF 5
ENDMDL
MODEL 9
REMARK VINA RESULT:    -4.269      8.826     11.688
REMARK INTER + INTRA:          -6.140
REMARK INTER:                  -5.302
REMARK INTRA:                  -0.837
REMARK UNBOUND:                -0.873
REMARK SMILES Cc1ccc(C(=O)c2cc(O)c(O)c([N+](=O)[O-])c2)cc1
REMARK SMILES IDX 8 1 18 2 9 3 14 4 10 5 12 6 6 7 7 8 5 9 4 10 19 11 3 12
REMARK SMILES IDX 20 13 2 14 1 15 15 16 17 17 16 18 11 19 13 21
REMARK H PARENT 11 20 13 22
ROOT
ATOM      1  C   UNL     1      11.936  -9.995 -11.001  1.00  0.00     0.033 A 
ATOM      2  C   UNL     1      11.903  -9.210 -12.130  1.00  0.00     0.102 A 
ATOM      3  C   UNL     1      12.914 -10.934 -10.773  1.00  0.00     0.063 A 
ATOM      4  C   UNL     1      12.906  -9.373 -13.085  1.00  0.00     0.315 A 
ATOM      5  C   UNL     1      13.917 -11.098 -11.729  1.00  0.00     0.165 A 
ATOM      6  C   UNL     1      13.913 -10.317 -12.885  1.00  0.00     0.237 A 
ENDROOT
BRANCH   1   7
ATOM      7  C   UNL     1      10.862  -9.821  -9.977  1.00  0.00     0.193 C 
ATOM      8  O   UNL     1      10.184 -10.818  -9.688  1.00  0.00    -0.289 OA
BRANCH   7   9
ATOM      9  C   UNL     1      10.601  -8.545  -9.330  1.00  0.00     0.023 A 
ATOM     10  C   UNL     1       9.297  -8.193  -8.982  1.00  0.00     0.012 A 
ATOM     11  C   UNL     1      11.655  -7.673  -9.057  1.00  0.00     0.012 A 
ATOM     12  C   UNL     1       9.047  -6.969  -8.362  1.00  0.00     0.004 A 
ATOM     13  C   UNL     1      11.406  -6.448  -8.436  1.00  0.00     0.004 A 
ATOM     14  C   UNL     1      10.101  -6.096  -8.088  1.00  0.00    -0.051 A 
ATOM     15  C   UNL     1       9.833  -4.788  -7.426  1.00  0.00     0.044 C 
ENDBRANCH   7   9
ENDBRANCH   1   7
BRANCH   4  16
ATOM     16  N   UNL     1      12.885  -8.569 -14.257  1.00  0.00     0.066 N 
ATOM     17  O   UNL     1      11.779  -8.185 -14.709  1.00  0.00    -0.258 OA
ATOM     18  O   UNL     1      13.971  -8.266 -14.804  1.00  0.00    -0.258 OA
ENDBRANCH   4  16
BRANCH   5  19
ATOM     19  O   UNL     1      14.895 -12.024 -11.520  1.00  0.00    -0.504 OA
ATOM     20  H   UNL     1      14.568 -12.904 -11.769  1.00  0.00     0.293 HD
ENDBRANCH   5  19
BRANCH   6  21
ATOM     21  O   UNL     1      14.900 -10.486 -13.813  1.00  0.00    -0.500 OA
ATOM     22  H   UNL     1      14.686  -9.981 -14.612  1.00  0.00     0.294 HD
ENDBRANCH   6  21
TORSDOF 5
ENDMDL
