MODEL 1
REMARK VINA RESULT:    -4.636      0.000      0.000
REMARK INTER + INTRA:          -6.192
REMARK INTER:                  -5.720
REMARK INTRA:                  -0.472
REMARK UNBOUND:                -0.472
REMARK SMILES Cc1ccc(C(=O)c2cc(O)c(O)c([N+](=O)[O-])c2)cc1
REMARK SMILES IDX 8 1 18 2 9 3 14 4 10 5 12 6 6 7 7 8 5 9 4 10 19 11 3 12
REMARK SMILES IDX 20 13 2 14 1 15 15 16 17 17 16 18 11 19 13 21
REMARK H PARENT 11 20 13 22
ROOT
ATOM      1  C   UNL     1      -8.654   2.020  -0.194  1.00  0.00     0.033 A 
ATOM      2  C   UNL     1      -8.401   1.496  -1.441  1.00  0.00     0.102 A 
ATOM      3  C   UNL     1      -7.695   2.658   0.556  1.00  0.00     0.063 A 
ATOM      4  C   UNL     1      -7.116   1.621  -1.968  1.00  0.00     0.315 A 
ATOM      5  C   UNL     1      -6.409   2.782   0.029  1.00  0.00     0.165 A 
ATOM      6  C   UNL     1      -6.119   2.264  -1.234  1.00  0.00     0.237 A 
ENDROOT
BRANCH   1   7
ATOM      7  C   UNL     1     -10.031   1.886   0.371  1.00  0.00     0.193 C 
ATOM      8  O   UNL     1     -10.239   0.940   1.145  1.00  0.00    -0.289 OA
BRANCH   7   9
ATOM      9  C   UNL     1     -11.101   2.815   0.044  1.00  0.00     0.023 A 
ATOM     10  C   UNL     1     -11.165   3.385  -1.228  1.00  0.00     0.012 A 
ATOM     11  C   UNL     1     -12.063   3.135   1.001  1.00  0.00     0.012 A 
ATOM     12  C   UNL     1     -12.192   4.275  -1.541  1.00  0.00     0.004 A 
ATOM     13  C   UNL     1     -13.091   4.026   0.688  1.00  0.00     0.004 A 
ATOM     14  C   UNL     1     -13.155   4.596  -0.583  1.00  0.00    -0.051 A 
ATOM     15  C   UNL     1     -14.252   5.549  -0.919  1.00  0.00     0.044 C 
ENDBRANCH   7   9
ENDBRANCH   1   7
BRANCH   4  16
ATOM     16  N   UNL     1      -6.839   1.086  -3.256  1.00  0.00     0.066 N 
ATOM     17  O   UNL     1      -7.096   1.781  -4.269  1.00  0.00    -0.258 OA
ATOM     18  O   UNL     1      -6.347  -0.063  -3.342  1.00  0.00    -0.258 OA
ENDBRANCH   4  16
BRANCH   5  19
ATOM     19  O   UNL     1      -5.446   3.413   0.758  1.00  0.00    -0.504 OA
ATOM     20  H   UNL     1      -4.855   3.902   0.162  1.00  0.00     0.293 HD
ENDBRANCH   5  19
BRANCH   6  21
ATOM     21  O   UNL     1      -4.858   2.392  -1.738  1.00  0.00    -0.500 OA
ATOM     22  H   UNL     1      -4.888   2.892  -2.569  1.00  0.00     0.294 HD
ENDBRANCH   6  21
TORSDOF 5
ENDMDL
MODEL 2
REMARK VINA RESULT:    -4.580      1.971      3.502
REMARK INTER + INTRA:          -6.123
REMARK INTER:                  -5.656
REMARK INTRA:                  -0.467
REMARK UNBOUND:                -0.472
REMARK SMILES Cc1ccc(C(=O)c2cc(O)c(O)c([N+](=O)[O-])c2)cc1
REMARK SMILES IDX 8 1 18 2 9 3 14 4 10 5 12 6 6 7 7 8 5 9 4 10 19 11 3 12
REMARK SMILES IDX 20 13 2 14 1 15 15 16 17 17 16 18 11 19 13 21
REMARK H PARENT 11 20 13 22
ROOT
ATOM      1  C   UNL     1      -8.317   3.158  -2.397  1.00  0.00     0.033 A 
ATOM      2  C   UNL     1      -7.789   3.444  -1.160  1.00  0.00     0.102 A 
ATOM      3  C   UNL     1      -7.899   2.092  -3.158  1.00  0.00     0.063 A 
ATOM      4  C   UNL     1      -6.786   2.617  -0.655  1.00  0.00     0.315 A 
ATOM      5  C   UNL     1      -6.895   1.265  -2.654  1.00  0.00     0.165 A 
ATOM      6  C   UNL     1      -6.339   1.527  -1.401  1.00  0.00     0.237 A 
ENDROOT
BRANCH   1   7
ATOM      7  C   UNL     1      -9.392   4.044  -2.938  1.00  0.00     0.193 C 
ATOM      8  O   UNL     1      -9.047   4.945  -3.718  1.00  0.00    -0.289 OA
BRANCH   7   9
ATOM      9  C   UNL     1     -10.792   3.878  -2.582  1.00  0.00     0.023 A 
ATOM     10  C   UNL     1     -11.787   4.163  -3.517  1.00  0.00     0.012 A 
ATOM     11  C   UNL     1     -11.139   3.435  -1.306  1.00  0.00     0.012 A 
ATOM     12  C   UNL     1     -13.130   4.004  -3.175  1.00  0.00     0.004 A 
ATOM     13  C   UNL     1     -12.483   3.276  -0.964  1.00  0.00     0.004 A 
ATOM     14  C   UNL     1     -13.478   3.560  -1.898  1.00  0.00    -0.051 A 
ATOM     15  C   UNL     1     -14.914   3.392  -1.533  1.00  0.00     0.044 C 
ENDBRANCH   7   9
ENDBRANCH   1   7
BRANCH   4  16
ATOM     16  N   UNL     1      -6.231   2.900   0.623  1.00  0.00     0.066 N 
ATOM     17  O   UNL     1      -5.176   3.577   0.689  1.00  0.00    -0.258 OA
ATOM     18  O   UNL     1      -6.811   2.466   1.646  1.00  0.00    -0.258 OA
ENDBRANCH   4  16
BRANCH   5  19
ATOM     19  O   UNL     1      -6.469   0.204  -3.394  1.00  0.00    -0.504 OA
ATOM     20  H   UNL     1      -6.980  -0.587  -3.154  1.00  0.00     0.293 HD
ENDBRANCH   5  19
BRANCH   6  21
ATOM     21  O   UNL     1      -5.358   0.710  -0.918  1.00  0.00    -0.500 OA
ATOM     22  H   UNL     1      -4.615   0.690  -1.541  1.00  0.00     0.294 HD
ENDBRANCH   6  21
TORSDOF 5
ENDMDL
MODEL 3
REMARK VINA RESULT:    -4.443      1.613      2.948
REMARK INTER + INTRA:          -5.954
REMARK INTER:                  -5.169
REMARK INTRA:                  -0.786
REMARK UNBOUND:                -0.472
REMARK SMILES Cc1ccc(C(=O)c2cc(O)c(O)c([N+](=O)[O-])c2)cc1
REMARK SMILES IDX 8 1 18 2 9 3 14 4 10 5 12 6 6 7 7 8 5 9 4 10 19 11 3 12
REMARK SMILES IDX 20 13 2 14 1 15 15 16 17 17 16 18 11 19 13 21
REMARK H PARENT 11 20 13 22
ROOT
ATOM      1  C   UNL     1      -9.422   1.870  -1.646  1.00  0.00     0.033 A 
ATOM      2  C   UNL     1      -8.796   2.377  -0.531  1.00  0.00     0.102 A 
ATOM      3  C   UNL     1      -8.738   1.284  -2.684  1.00  0.00     0.063 A 
ATOM      4  C   UNL     1      -7.406   2.293  -0.450  1.00  0.00     0.315 A 
ATOM      5  C   UNL     1      -7.347   1.201  -2.604  1.00  0.00     0.165 A 
ATOM      6  C   UNL     1      -6.681   1.705  -1.486  1.00  0.00     0.237 A 
ENDROOT
BRANCH   1   7
ATOM      7  C   UNL     1     -10.911   1.960  -1.733  1.00  0.00     0.193 C 
ATOM      8  O   UNL     1     -11.512   0.993  -2.223  1.00  0.00    -0.289 OA
BRANCH   7   9
ATOM      9  C   UNL     1     -11.650   3.123  -1.268  1.00  0.00     0.023 A 
ATOM     10  C   UNL     1     -11.934   4.167  -2.148  1.00  0.00     0.012 A 
ATOM     11  C   UNL     1     -12.075   3.195   0.059  1.00  0.00     0.012 A 
ATOM     12  C   UNL     1     -12.643   5.282  -1.702  1.00  0.00     0.004 A 
ATOM     13  C   UNL     1     -12.785   4.310   0.506  1.00  0.00     0.004 A 
ATOM     14  C   UNL     1     -13.069   5.354  -0.375  1.00  0.00    -0.051 A 
ATOM     15  C   UNL     1     -13.826   6.546   0.102  1.00  0.00     0.044 C 
ENDBRANCH   7   9
ENDBRANCH   1   7
BRANCH   4  16
ATOM     16  N   UNL     1      -6.745   2.813   0.697  1.00  0.00     0.066 N 
ATOM     17  O   UNL     1      -7.142   2.465   1.835  1.00  0.00    -0.258 OA
ATOM     18  O   UNL     1      -5.785   3.602   0.537  1.00  0.00    -0.258 OA
ENDBRANCH   4  16
BRANCH   5  19
ATOM     19  O   UNL     1      -6.652   0.623  -3.624  1.00  0.00    -0.504 OA
ATOM     20  H   UNL     1      -5.752   0.987  -3.651  1.00  0.00     0.293 HD
ENDBRANCH   5  19
BRANCH   6  21
ATOM     21  O   UNL     1      -5.321   1.617  -1.419  1.00  0.00    -0.500 OA
ATOM     22  H   UNL     1      -4.962   2.423  -1.018  1.00  0.00     0.294 HD
ENDBRANCH   6  21
TORSDOF 5
ENDMDL
MODEL 4
REMARK VINA RESULT:    -4.438      2.483      4.551
REMARK INTER + INTRA:          -5.948
REMARK INTER:                  -4.997
REMARK INTRA:                  -0.951
REMARK UNBOUND:                -0.472
REMARK SMILES Cc1ccc(C(=O)c2cc(O)c(O)c([N+](=O)[O-])c2)cc1
REMARK SMILES IDX 8 1 18 2 9 3 14 4 10 5 12 6 6 7 7 8 5 9 4 10 19 11 3 12
REMARK SMILES IDX 20 13 2 14 1 15 15 16 17 17 16 18 11 19 13 21
REMARK H PARENT 11 20 13 22
ROOT
ATOM      1  C   UNL     1     -12.462   3.687  -0.392  1.00  0.00     0.033 A 
ATOM      2  C   UNL     1     -11.356   3.648  -1.208  1.00  0.00     0.102 A 
ATOM      3  C   UNL     1     -12.490   3.109   0.855  1.00  0.00     0.063 A 
ATOM      4  C   UNL     1     -10.212   2.993  -0.751  1.00  0.00     0.315 A 
ATOM      5  C   UNL     1     -11.347   2.454   1.313  1.00  0.00     0.165 A 
ATOM      6  C   UNL     1     -10.207   2.396   0.510  1.00  0.00     0.237 A 
ENDROOT
BRANCH   1   7
ATOM      7  C   UNL     1     -13.687   4.388  -0.882  1.00  0.00     0.193 C 
ATOM      8  O   UNL     1     -14.432   3.761  -1.651  1.00  0.00    -0.289 OA
BRANCH   7   9
ATOM      9  C   UNL     1     -14.017   5.748  -0.488  1.00  0.00     0.023 A 
ATOM     10  C   UNL     1     -15.283   6.039   0.022  1.00  0.00     0.012 A 
ATOM     11  C   UNL     1     -13.069   6.762  -0.620  1.00  0.00     0.012 A 
ATOM     12  C   UNL     1     -15.599   7.344   0.400  1.00  0.00     0.004 A 
ATOM     13  C   UNL     1     -13.385   8.068  -0.242  1.00  0.00     0.004 A 
ATOM     14  C   UNL     1     -14.650   8.359   0.268  1.00  0.00    -0.051 A 
ATOM     15  C   UNL     1     -14.990   9.753   0.671  1.00  0.00     0.044 C 
ENDBRANCH   7   9
ENDBRANCH   1   7
BRANCH   4  16
ATOM     16  N   UNL     1      -9.061   2.945  -1.583  1.00  0.00     0.066 N 
ATOM     17  O   UNL     1      -7.926   2.945  -1.048  1.00  0.00    -0.258 OA
ATOM     18  O   UNL     1      -9.213   2.902  -2.826  1.00  0.00    -0.258 OA
ENDBRANCH   4  16
BRANCH   5  19
ATOM     19  O   UNL     1     -11.356   1.875   2.547  1.00  0.00    -0.504 OA
ATOM     20  H   UNL     1     -11.978   2.349   3.123  1.00  0.00     0.293 HD
ENDBRANCH   5  19
BRANCH   6  21
ATOM     21  O   UNL     1      -9.094   1.753   0.969  1.00  0.00    -0.500 OA
ATOM     22  H   UNL     1      -8.698   1.235   0.251  1.00  0.00     0.294 HD
ENDBRANCH   6  21
TORSDOF 5
ENDMDL
MODEL 5
REMARK VINA RESULT:    -4.324      2.566      4.458
REMARK INTER + INTRA:          -5.808
REMARK INTER:                  -5.034
REMARK INTRA:                  -0.774
REMARK UNBOUND:                -0.472
REMARK SMILES Cc1ccc(C(=O)c2cc(O)c(O)c([N+](=O)[O-])c2)cc1
REMARK SMILES IDX 8 1 18 2 9 3 14 4 10 5 12 6 6 7 7 8 5 9 4 10 19 11 3 12
REMARK SMILES IDX 20 13 2 14 1 15 15 16 17 17 16 18 11 19 13 21
REMARK H PARENT 11 20 13 22
ROOT
ATOM      1  C   UNL     1     -11.879   4.058  -1.632  1.00  0.00     0.033 A 
ATOM      2  C   UNL     1     -10.770   3.489  -1.051  1.00  0.00     0.102 A 
ATOM      3  C   UNL     1     -11.909   4.462  -2.945  1.00  0.00     0.063 A 
ATOM      4  C   UNL     1      -9.626   3.313  -1.829  1.00  0.00     0.315 A 
ATOM      5  C   UNL     1     -10.765   4.287  -3.724  1.00  0.00     0.165 A 
ATOM      6  C   UNL     1      -9.623   3.712  -3.165  1.00  0.00     0.237 A 
ENDROOT
BRANCH   1   7
ATOM      7  C   UNL     1     -13.105   4.247  -0.798  1.00  0.00     0.193 C 
ATOM      8  O   UNL     1     -13.687   3.226  -0.403  1.00  0.00    -0.289 OA
BRANCH   7   9
ATOM      9  C   UNL     1     -13.615   5.563  -0.449  1.00  0.00     0.023 A 
ATOM     10  C   UNL     1     -14.950   5.717  -0.076  1.00  0.00     0.012 A 
ATOM     11  C   UNL     1     -12.769   6.672  -0.486  1.00  0.00     0.012 A 
ATOM     12  C   UNL     1     -15.439   6.979   0.259  1.00  0.00     0.004 A 
ATOM     13  C   UNL     1     -13.258   7.935  -0.151  1.00  0.00     0.004 A 
ATOM     14  C   UNL     1     -14.594   8.089   0.222  1.00  0.00    -0.051 A 
ATOM     15  C   UNL     1     -15.117   9.438   0.579  1.00  0.00     0.044 C 
ENDBRANCH   7   9
ENDBRANCH   1   7
BRANCH   4  16
ATOM     16  N   UNL     1      -8.471   2.725  -1.243  1.00  0.00     0.066 N 
ATOM     17  O   UNL     1      -7.349   3.238  -1.469  1.00  0.00    -0.258 OA
ATOM     18  O   UNL     1      -8.609   1.713  -0.516  1.00  0.00    -0.258 OA
ENDBRANCH   4  16
BRANCH   5  19
ATOM     19  O   UNL     1     -10.777   4.681  -5.028  1.00  0.00    -0.504 OA
ATOM     20  H   UNL     1     -10.001   4.316  -5.485  1.00  0.00     0.293 HD
ENDBRANCH   5  19
BRANCH   6  21
ATOM     21  O   UNL     1      -8.510   3.545  -3.937  1.00  0.00    -0.500 OA
ATOM     22  H   UNL     1      -7.732   3.882  -3.465  1.00  0.00     0.294 HD
ENDBRANCH   6  21
TORSDOF 5
ENDMDL
MODEL 6
REMARK VINA RESULT:    -4.318      1.861      2.371
REMARK INTER + INTRA:          -5.799
REMARK INTER:                  -4.895
REMARK INTRA:                  -0.905
REMARK UNBOUND:                -0.472
REMARK SMILES Cc1ccc(C(=O)c2cc(O)c(O)c([N+](=O)[O-])c2)cc1
REMARK SMILES IDX 8 1 18 2 9 3 14 4 10 5 12 6 6 7 7 8 5 9 4 10 19 11 3 12
REMARK SMILES IDX 20 13 2 14 1 15 15 16 17 17 16 18 11 19 13 21
REMARK H PARENT 11 20 13 22
ROOT
ATOM      1  C   UNL     1      -9.037   3.561  -0.866  1.00  0.00     0.033 A 
ATOM      2  C   UNL     1      -8.700   2.914  -2.033  1.00  0.00     0.102 A 
ATOM      3  C   UNL     1      -8.278   3.480   0.278  1.00  0.00     0.063 A 
ATOM      4  C   UNL     1      -7.538   2.144  -2.057  1.00  0.00     0.315 A 
ATOM      5  C   UNL     1      -7.116   2.708   0.254  1.00  0.00     0.165 A 
ATOM      6  C   UNL     1      -6.745   2.040  -0.914  1.00  0.00     0.237 A 
ENDROOT
BRANCH   1   7
ATOM      7  C   UNL     1     -10.282   4.387  -0.840  1.00  0.00     0.193 C 
ATOM      8  O   UNL     1     -10.184   5.551  -0.424  1.00  0.00    -0.289 OA
BRANCH   7   9
ATOM      9  C   UNL     1     -11.568   3.871  -1.279  1.00  0.00     0.023 A 
ATOM     10  C   UNL     1     -12.373   3.156  -0.392  1.00  0.00     0.012 A 
ATOM     11  C   UNL     1     -11.998   4.092  -2.587  1.00  0.00     0.012 A 
ATOM     12  C   UNL     1     -13.607   2.662  -0.813  1.00  0.00     0.004 A 
ATOM     13  C   UNL     1     -13.233   3.598  -3.009  1.00  0.00     0.004 A 
ATOM     14  C   UNL     1     -14.038   2.882  -2.122  1.00  0.00    -0.051 A 
ATOM     15  C   UNL     1     -15.357   2.353  -2.573  1.00  0.00     0.044 C 
ENDBRANCH   7   9
ENDBRANCH   1   7
BRANCH   4  16
ATOM     16  N   UNL     1      -7.177   1.470  -3.256  1.00  0.00     0.066 N 
ATOM     17  O   UNL     1      -6.734   0.298  -3.183  1.00  0.00    -0.258 OA
ATOM     18  O   UNL     1      -7.312   2.066  -4.350  1.00  0.00    -0.258 OA
ENDBRANCH   4  16
BRANCH   5  19
ATOM     19  O   UNL     1      -6.351   2.617   1.378  1.00  0.00    -0.504 OA
ATOM     20  H   UNL     1      -5.819   3.424   1.476  1.00  0.00     0.293 HD
ENDBRANCH   5  19
BRANCH   6  21
ATOM     21  O   UNL     1      -5.606   1.289  -0.925  1.00  0.00    -0.500 OA
ATOM     22  H   UNL     1      -4.832   1.872  -0.957  1.00  0.00     0.294 HD
ENDBRANCH   6  21
TORSDOF 5
ENDMDL
MODEL 7
REMARK VINA RESULT:    -4.294      3.164      4.604
REMARK INTER + INTRA:          -5.770
REMARK INTER:                  -4.950
REMARK INTRA:                  -0.820
REMARK UNBOUND:                -0.472
REMARK SMILES Cc1ccc(C(=O)c2cc(O)c(O)c([N+](=O)[O-])c2)cc1
REMARK SMILES IDX 8 1 18 2 9 3 14 4 10 5 12 6 6 7 7 8 5 9 4 10 19 11 3 12
REMARK SMILES IDX 20 13 2 14 1 15 15 16 17 17 16 18 11 19 13 21
REMARK H PARENT 11 20 13 22
ROOT
ATOM      1  C   UNL     1     -12.126   3.225  -0.887  1.00  0.00     0.033 A 
ATOM      2  C   UNL     1     -10.897   3.016  -1.468  1.00  0.00     0.102 A 
ATOM      3  C   UNL     1     -12.384   2.949   0.434  1.00  0.00     0.063 A 
ATOM      4  C   UNL     1      -9.866   2.502  -0.682  1.00  0.00     0.315 A 
ATOM      5  C   UNL     1     -11.353   2.434   1.221  1.00  0.00     0.165 A 
ATOM      6  C   UNL     1     -10.094   2.211   0.663  1.00  0.00     0.237 A 
ENDROOT
BRANCH   1   7
ATOM      7  C   UNL     1     -13.231   3.776  -1.730  1.00  0.00     0.193 C 
ATOM      8  O   UNL     1     -13.101   4.935  -2.152  1.00  0.00    -0.289 OA
BRANCH   7   9
ATOM      9  C   UNL     1     -14.419   3.005  -2.058  1.00  0.00     0.023 A 
ATOM     10  C   UNL     1     -14.368   1.611  -2.060  1.00  0.00     0.012 A 
ATOM     11  C   UNL     1     -15.611   3.660  -2.370  1.00  0.00     0.012 A 
ATOM     12  C   UNL     1     -15.509   0.873  -2.375  1.00  0.00     0.004 A 
ATOM     13  C   UNL     1     -16.752   2.922  -2.684  1.00  0.00     0.004 A 
ATOM     14  C   UNL     1     -16.701   1.527  -2.687  1.00  0.00    -0.051 A 
ATOM     15  C   UNL     1     -17.920   0.737  -3.024  1.00  0.00     0.044 C 
ENDBRANCH   7   9
ENDBRANCH   1   7
BRANCH   4  16
ATOM     16  N   UNL     1      -8.590   2.281  -1.268  1.00  0.00     0.066 N 
ATOM     17  O   UNL     1      -8.527   1.956  -2.478  1.00  0.00    -0.258 OA
ATOM     18  O   UNL     1      -7.566   2.419  -0.559  1.00  0.00    -0.258 OA
ENDBRANCH   4  16
BRANCH   5  19
ATOM     19  O   UNL     1     -11.590   2.155   2.534  1.00  0.00    -0.504 OA
ATOM     20  H   UNL     1     -11.035   2.724   3.093  1.00  0.00     0.293 HD
ENDBRANCH   5  19
BRANCH   6  21
ATOM     21  O   UNL     1      -9.094   1.708   1.443  1.00  0.00    -0.500 OA
ATOM     22  H   UNL     1      -9.459   1.410   2.291  1.00  0.00     0.294 HD
ENDBRANCH   6  21
TORSDOF 5
ENDMDL
MODEL 8
REMARK VINA RESULT:    -4.024      3.974      6.863
REMARK INTER + INTRA:          -5.437
REMARK INTER:                  -4.501
REMARK INTRA:                  -0.935
REMARK UNBOUND:                -0.472
REMARK SMILES Cc1ccc(C(=O)c2cc(O)c(O)c([N+](=O)[O-])c2)cc1
REMARK SMILES IDX 8 1 18 2 9 3 14 4 10 5 12 6 6 7 7 8 5 9 4 10 19 11 3 12
REMARK SMILES IDX 20 13 2 14 1 15 15 16 17 17 16 18 11 19 13 21
REMARK H PARENT 11 20 13 22
ROOT
ATOM      1  C   UNL     1     -12.424   3.500  -0.554  1.00  0.00     0.033 A 
ATOM      2  C   UNL     1     -13.252   2.702  -1.309  1.00  0.00     0.102 A 
ATOM      3  C   UNL     1     -12.784   4.755  -0.125  1.00  0.00     0.063 A 
ATOM      4  C   UNL     1     -14.514   3.188  -1.653  1.00  0.00     0.315 A 
ATOM      5  C   UNL     1     -14.046   5.241  -0.470  1.00  0.00     0.165 A 
ATOM      6  C   UNL     1     -14.911   4.457  -1.234  1.00  0.00     0.237 A 
ENDROOT
BRANCH   1   7
ATOM      7  C   UNL     1     -11.072   2.980  -0.186  1.00  0.00     0.193 C 
ATOM      8  O   UNL     1     -10.798   2.914   1.022  1.00  0.00    -0.289 OA
BRANCH   7   9
ATOM      9  C   UNL     1     -10.100   2.561  -1.182  1.00  0.00     0.023 A 
ATOM     10  C   UNL     1      -9.809   3.391  -2.265  1.00  0.00     0.012 A 
ATOM     11  C   UNL     1      -9.456   1.331  -1.055  1.00  0.00     0.012 A 
ATOM     12  C   UNL     1      -8.876   2.990  -3.221  1.00  0.00     0.004 A 
ATOM     13  C   UNL     1      -8.522   0.928  -2.011  1.00  0.00     0.004 A 
ATOM     14  C   UNL     1      -8.232   1.758  -3.094  1.00  0.00    -0.051 A 
ATOM     15  C   UNL     1      -7.236   1.329  -4.116  1.00  0.00     0.044 C 
ENDBRANCH   7   9
ENDBRANCH   1   7
BRANCH   4  16
ATOM     16  N   UNL     1     -15.381   2.374  -2.433  1.00  0.00     0.066 N 
ATOM     17  O   UNL     1     -16.620   2.557  -2.351  1.00  0.00    -0.258 OA
ATOM     18  O   UNL     1     -14.884   1.499  -3.179  1.00  0.00    -0.258 OA
ENDBRANCH   4  16
BRANCH   5  19
ATOM     19  O   UNL     1     -14.420   6.483  -0.053  1.00  0.00    -0.504 OA
ATOM     20  H   UNL     1     -13.873   6.751   0.703  1.00  0.00     0.293 HD
ENDBRANCH   5  19
BRANCH   6  21
ATOM     21  O   UNL     1     -16.143   4.943  -1.564  1.00  0.00    -0.500 OA
ATOM     22  H   UNL     1     -16.808   4.587  -0.955  1.00  0.00     0.294 HD
ENDBRANCH   6  21
TORSDOF 5
ENDMDL
MODEL 9
REMARK VINA RESULT:    -4.010      4.168      7.398
REMARK INTER + INTRA:          -5.419
REMARK INTER:                  -4.486
REMARK INTRA:                  -0.933
REMARK UNBOUND:                -0.472
REMARK SMILES Cc1ccc(C(=O)c2cc(O)c(O)c([N+](=O)[O-])c2)cc1
REMARK SMILES IDX 8 1 18 2 9 3 14 4 10 5 12 6 6 7 7 8 5 9 4 10 19 11 3 12
REMARK SMILES IDX 20 13 2 14 1 15 15 16 17 17 16 18 11 19 13 21
REMARK H PARENT 11 20 13 22
ROOT
ATOM      1  C   UNL     1     -12.254   4.050  -1.954  1.00  0.00     0.033 A 
ATOM      2  C   UNL     1     -12.474   5.178  -1.198  1.00  0.00     0.102 A 
ATOM      3  C   UNL     1     -13.267   3.215  -2.360  1.00  0.00     0.063 A 
ATOM      4  C   UNL     1     -13.783   5.489  -0.829  1.00  0.00     0.315 A 
ATOM      5  C   UNL     1     -14.576   3.525  -1.991  1.00  0.00     0.165 A 
ATOM      6  C   UNL     1     -14.834   4.663  -1.225  1.00  0.00     0.237 A 
ENDROOT
BRANCH   1   7
ATOM      7  C   UNL     1     -10.852   3.717  -2.349  1.00  0.00     0.193 C 
ATOM      8  O   UNL     1     -10.612   3.615  -3.562  1.00  0.00    -0.289 OA
BRANCH   7   9
ATOM      9  C   UNL     1      -9.794   3.515  -1.373  1.00  0.00     0.023 A 
ATOM     10  C   UNL     1      -9.998   2.662  -0.288  1.00  0.00     0.012 A 
ATOM     11  C   UNL     1      -8.574   4.175  -1.520  1.00  0.00     0.012 A 
ATOM     12  C   UNL     1      -8.983   2.469   0.648  1.00  0.00     0.004 A 
ATOM     13  C   UNL     1      -7.557   3.982  -0.584  1.00  0.00     0.004 A 
ATOM     14  C   UNL     1      -7.762   3.129   0.501  1.00  0.00    -0.051 A 
ATOM     15  C   UNL     1      -6.677   2.923   1.502  1.00  0.00     0.044 C 
ENDBRANCH   7   9
ENDBRANCH   1   7
BRANCH   4  16
ATOM     16  N   UNL     1     -14.025   6.652  -0.048  1.00  0.00     0.066 N 
ATOM     17  O   UNL     1     -13.101   7.106   0.668  1.00  0.00    -0.258 OA
ATOM     18  O   UNL     1     -15.156   7.191  -0.099  1.00  0.00    -0.258 OA
ENDBRANCH   4  16
BRANCH   5  19
ATOM     19  O   UNL     1     -15.594   2.709  -2.385  1.00  0.00    -0.504 OA
ATOM     20  H   UNL     1     -15.359   2.279  -3.224  1.00  0.00     0.293 HD
ENDBRANCH   5  19
BRANCH   6  21
ATOM     21  O   UNL     1     -16.119   4.957  -0.870  1.00  0.00    -0.500 OA
ATOM     22  H   UNL     1     -16.521   4.188  -0.436  1.00  0.00     0.294 HD
ENDBRANCH   6  21
TORSDOF 5
ENDMDL
