MODEL 1
REMARK VINA RESULT:    -4.497      0.000      0.000
REMARK INTER + INTRA:          -6.566
REMARK INTER:                  -5.549
REMARK INTRA:                  -1.018
REMARK UNBOUND:                -1.018
REMARK SMILES Cc1ccc(C(=O)c2cc(O)c(O)c([N+](=O)[O-])c2)cc1
REMARK SMILES IDX 8 1 18 2 9 3 14 4 10 5 12 6 6 7 7 8 5 9 4 10 19 11 3 12
REMARK SMILES IDX 20 13 2 14 1 15 15 16 17 17 16 18 11 19 13 21
REMARK H PARENT 11 20 13 22
ROOT
ATOM      1  C   UNL     1       6.107   2.676 -10.128  1.00  0.00     0.033 A 
ATOM      2  C   UNL     1       4.952   2.626  -9.383  1.00  0.00     0.102 A 
ATOM      3  C   UNL     1       7.317   2.221  -9.660  1.00  0.00     0.063 A 
ATOM      4  C   UNL     1       5.010   2.089  -8.097  1.00  0.00     0.315 A 
ATOM      5  C   UNL     1       7.376   1.685  -8.373  1.00  0.00     0.165 A 
ATOM      6  C   UNL     1       6.221   1.619  -7.592  1.00  0.00     0.237 A 
ENDROOT
BRANCH   1   7
ATOM      7  C   UNL     1       6.045   3.250 -11.506  1.00  0.00     0.193 C 
ATOM      8  O   UNL     1       5.922   4.480 -11.604  1.00  0.00    -0.289 OA
BRANCH   7   9
ATOM      9  C   UNL     1       6.124   2.424 -12.700  1.00  0.00     0.023 A 
ATOM     10  C   UNL     1       5.196   1.401 -12.903  1.00  0.00     0.012 A 
ATOM     11  C   UNL     1       7.126   2.653 -13.642  1.00  0.00     0.012 A 
ATOM     12  C   UNL     1       5.272   0.609 -14.048  1.00  0.00     0.004 A 
ATOM     13  C   UNL     1       7.202   1.860 -14.788  1.00  0.00     0.004 A 
ATOM     14  C   UNL     1       6.275   0.838 -14.991  1.00  0.00    -0.051 A 
ATOM     15  C   UNL     1       6.356  -0.010 -16.214  1.00  0.00     0.044 C 
ENDBRANCH   7   9
ENDBRANCH   1   7
BRANCH   4  16
ATOM     16  N   UNL     1       3.823   2.030  -7.316  1.00  0.00     0.066 N 
ATOM     17  O   UNL     1       3.898   2.251  -6.083  1.00  0.00    -0.258 OA
ATOM     18  O   UNL     1       2.738   1.761  -7.881  1.00  0.00    -0.258 OA
ENDBRANCH   4  16
BRANCH   5  19
ATOM     19  O   UNL     1       8.566   1.229  -7.892  1.00  0.00    -0.504 OA
ATOM     20  H   UNL     1       9.121   0.928  -8.631  1.00  0.00     0.293 HD
ENDBRANCH   5  19
BRANCH   6  21
ATOM     21  O   UNL     1       6.291   1.092  -6.335  1.00  0.00    -0.500 OA
ATOM     22  H   UNL     1       5.433   1.187  -5.893  1.00  0.00     0.294 HD
ENDBRANCH   6  21
TORSDOF 5
ENDMDL
MODEL 2
REMARK VINA RESULT:    -4.482      3.533      4.387
REMARK INTER + INTRA:          -6.547
REMARK INTER:                  -5.658
REMARK INTRA:                  -0.890
REMARK UNBOUND:                -1.018
REMARK SMILES Cc1ccc(C(=O)c2cc(O)c(O)c([N+](=O)[O-])c2)cc1
REMARK SMILES IDX 8 1 18 2 9 3 14 4 10 5 12 6 6 7 7 8 5 9 4 10 19 11 3 12
REMARK SMILES IDX 20 13 2 14 1 15 15 16 17 17 16 18 11 19 13 21
REMARK H PARENT 11 20 13 22
ROOT
ATOM      1  C   UNL     1       3.805   1.424  -8.112  1.00  0.00     0.033 A 
ATOM      2  C   UNL     1       3.009   2.425  -7.605  1.00  0.00     0.102 A 
ATOM      3  C   UNL     1       4.201   0.336  -7.371  1.00  0.00     0.063 A 
ATOM      4  C   UNL     1       2.584   2.331  -6.279  1.00  0.00     0.315 A 
ATOM      5  C   UNL     1       3.777   0.243  -6.045  1.00  0.00     0.165 A 
ATOM      6  C   UNL     1       2.968   1.241  -5.499  1.00  0.00     0.237 A 
ENDROOT
BRANCH   1   7
ATOM      7  C   UNL     1       4.260   1.524  -9.532  1.00  0.00     0.193 C 
ATOM      8  O   UNL     1       4.098   0.528 -10.253  1.00  0.00    -0.289 OA
BRANCH   7   9
ATOM      9  C   UNL     1       4.871   2.728 -10.072  1.00  0.00     0.023 A 
ATOM     10  C   UNL     1       6.243   2.937  -9.932  1.00  0.00     0.012 A 
ATOM     11  C   UNL     1       4.085   3.674 -10.730  1.00  0.00     0.012 A 
ATOM     12  C   UNL     1       6.828   4.092 -10.450  1.00  0.00     0.004 A 
ATOM     13  C   UNL     1       4.670   4.829 -11.249  1.00  0.00     0.004 A 
ATOM     14  C   UNL     1       6.043   5.038 -11.109  1.00  0.00    -0.051 A 
ATOM     15  C   UNL     1       6.669   6.273 -11.662  1.00  0.00     0.044 C 
ENDBRANCH   7   9
ENDBRANCH   1   7
BRANCH   4  16
ATOM     16  N   UNL     1       1.761   3.358  -5.741  1.00  0.00     0.066 N 
ATOM     17  O   UNL     1       0.802   3.788  -6.426  1.00  0.00    -0.258 OA
ATOM     18  O   UNL     1       2.016   3.802  -4.597  1.00  0.00    -0.258 OA
ENDBRANCH   4  16
BRANCH   5  19
ATOM     19  O   UNL     1       4.159  -0.828  -5.294  1.00  0.00    -0.504 OA
ATOM     20  H   UNL     1       3.385  -1.384  -5.103  1.00  0.00     0.293 HD
ENDBRANCH   5  19
BRANCH   6  21
ATOM     21  O   UNL     1       2.559   1.138  -4.201  1.00  0.00    -0.500 OA
ATOM     22  H   UNL     1       2.433   2.024  -3.828  1.00  0.00     0.294 HD
ENDBRANCH   6  21
TORSDOF 5
ENDMDL
MODEL 3
REMARK VINA RESULT:    -4.471      2.923      4.927
REMARK INTER + INTRA:          -6.535
REMARK INTER:                  -5.519
REMARK INTRA:                  -1.016
REMARK UNBOUND:                -1.018
REMARK SMILES Cc1ccc(C(=O)c2cc(O)c(O)c([N+](=O)[O-])c2)cc1
REMARK SMILES IDX 8 1 18 2 9 3 14 4 10 5 12 6 6 7 7 8 5 9 4 10 19 11 3 12
REMARK SMILES IDX 20 13 2 14 1 15 15 16 17 17 16 18 11 19 13 21
REMARK H PARENT 11 20 13 22
ROOT
ATOM      1  C   UNL     1       4.560   3.591 -10.693  1.00  0.00     0.033 A 
ATOM      2  C   UNL     1       4.661   2.969  -9.469  1.00  0.00     0.102 A 
ATOM      3  C   UNL     1       3.371   4.072 -11.189  1.00  0.00     0.063 A 
ATOM      4  C   UNL     1       3.508   2.823  -8.699  1.00  0.00     0.315 A 
ATOM      5  C   UNL     1       2.218   3.924 -10.418  1.00  0.00     0.165 A 
ATOM      6  C   UNL     1       2.286   3.300  -9.172  1.00  0.00     0.237 A 
ENDROOT
BRANCH   1   7
ATOM      7  C   UNL     1       5.795   3.748 -11.519  1.00  0.00     0.193 C 
ATOM      8  O   UNL     1       6.252   2.729 -12.057  1.00  0.00    -0.289 OA
BRANCH   7   9
ATOM      9  C   UNL     1       6.452   5.032 -11.700  1.00  0.00     0.023 A 
ATOM     10  C   UNL     1       6.635   5.547 -12.984  1.00  0.00     0.012 A 
ATOM     11  C   UNL     1       6.901   5.750 -10.592  1.00  0.00     0.012 A 
ATOM     12  C   UNL     1       7.266   6.778 -13.158  1.00  0.00     0.004 A 
ATOM     13  C   UNL     1       7.532   6.982 -10.765  1.00  0.00     0.004 A 
ATOM     14  C   UNL     1       7.714   7.497 -12.049  1.00  0.00    -0.051 A 
ATOM     15  C   UNL     1       8.390   8.812 -12.236  1.00  0.00     0.044 C 
ENDBRANCH   7   9
ENDBRANCH   1   7
BRANCH   4  16
ATOM     16  N   UNL     1       3.597   2.183  -7.432  1.00  0.00     0.066 N 
ATOM     17  O   UNL     1       4.571   2.448  -6.686  1.00  0.00    -0.258 OA
ATOM     18  O   UNL     1       2.700   1.375  -7.097  1.00  0.00    -0.258 OA
ENDBRANCH   4  16
BRANCH   5  19
ATOM     19  O   UNL     1       1.031   4.396 -10.894  1.00  0.00    -0.504 OA
ATOM     20  H   UNL     1       1.031   5.367 -10.863  1.00  0.00     0.293 HD
ENDBRANCH   5  19
BRANCH   6  21
ATOM     21  O   UNL     1       1.151   3.162  -8.428  1.00  0.00    -0.500 OA
ATOM     22  H   UNL     1       0.936   2.221  -8.331  1.00  0.00     0.294 HD
ENDBRANCH   6  21
TORSDOF 5
ENDMDL
MODEL 4
REMARK VINA RESULT:    -4.434      2.364      4.083
REMARK INTER + INTRA:          -6.488
REMARK INTER:                  -5.604
REMARK INTRA:                  -0.884
REMARK UNBOUND:                -1.018
REMARK SMILES Cc1ccc(C(=O)c2cc(O)c(O)c([N+](=O)[O-])c2)cc1
REMARK SMILES IDX 8 1 18 2 9 3 14 4 10 5 12 6 6 7 7 8 5 9 4 10 19 11 3 12
REMARK SMILES IDX 20 13 2 14 1 15 15 16 17 17 16 18 11 19 13 21
REMARK H PARENT 11 20 13 22
ROOT
ATOM      1  C   UNL     1       4.059   3.138  -7.412  1.00  0.00     0.033 A 
ATOM      2  C   UNL     1       4.388   1.849  -7.064  1.00  0.00     0.102 A 
ATOM      3  C   UNL     1       2.995   3.812  -6.860  1.00  0.00     0.063 A 
ATOM      4  C   UNL     1       3.609   1.197  -6.108  1.00  0.00     0.315 A 
ATOM      5  C   UNL     1       2.215   3.159  -5.905  1.00  0.00     0.165 A 
ATOM      6  C   UNL     1       2.523   1.851  -5.528  1.00  0.00     0.237 A 
ENDROOT
BRANCH   1   7
ATOM      7  C   UNL     1       4.893   3.837  -8.436  1.00  0.00     0.193 C 
ATOM      8  O   UNL     1       5.285   4.982  -8.165  1.00  0.00    -0.289 OA
BRANCH   7   9
ATOM      9  C   UNL     1       5.246   3.222  -9.706  1.00  0.00     0.023 A 
ATOM     10  C   UNL     1       4.375   3.314 -10.791  1.00  0.00     0.012 A 
ATOM     11  C   UNL     1       6.456   2.541  -9.838  1.00  0.00     0.012 A 
ATOM     12  C   UNL     1       4.714   2.725 -12.009  1.00  0.00     0.004 A 
ATOM     13  C   UNL     1       6.795   1.951 -11.056  1.00  0.00     0.004 A 
ATOM     14  C   UNL     1       5.924   2.043 -12.142  1.00  0.00    -0.051 A 
ATOM     15  C   UNL     1       6.285   1.412 -13.443  1.00  0.00     0.044 C 
ENDBRANCH   7   9
ENDBRANCH   1   7
BRANCH   4  16
ATOM     16  N   UNL     1       3.938  -0.136  -5.737  1.00  0.00     0.066 N 
ATOM     17  O   UNL     1       3.019  -0.987  -5.656  1.00  0.00    -0.258 OA
ATOM     18  O   UNL     1       5.135  -0.422  -5.503  1.00  0.00    -0.258 OA
ENDBRANCH   4  16
BRANCH   5  19
ATOM     19  O   UNL     1       1.157   3.811  -5.346  1.00  0.00    -0.504 OA
ATOM     20  H   UNL     1       0.443   3.178  -5.166  1.00  0.00     0.293 HD
ENDBRANCH   5  19
BRANCH   6  21
ATOM     21  O   UNL     1       1.754   1.224  -4.592  1.00  0.00    -0.500 OA
ATOM     22  H   UNL     1       2.310   0.646  -4.046  1.00  0.00     0.294 HD
ENDBRANCH   6  21
TORSDOF 5
ENDMDL
MODEL 5
REMARK VINA RESULT:    -4.349      3.180      4.637
REMARK INTER + INTRA:          -6.383
REMARK INTER:                  -6.110
REMARK INTRA:                  -0.273
REMARK UNBOUND:                -1.018
REMARK SMILES Cc1ccc(C(=O)c2cc(O)c(O)c([N+](=O)[O-])c2)cc1
REMARK SMILES IDX 8 1 18 2 9 3 14 4 10 5 12 6 6 7 7 8 5 9 4 10 19 11 3 12
REMARK SMILES IDX 20 13 2 14 1 15 15 16 17 17 16 18 11 19 13 21
REMARK H PARENT 11 20 13 22
ROOT
ATOM      1  C   UNL     1       4.794   1.426  -6.871  1.00  0.00     0.033 A 
ATOM      2  C   UNL     1       4.110   2.537  -6.437  1.00  0.00     0.102 A 
ATOM      3  C   UNL     1       4.445   0.146  -6.511  1.00  0.00     0.063 A 
ATOM      4  C   UNL     1       3.013   2.358  -5.594  1.00  0.00     0.315 A 
ATOM      5  C   UNL     1       3.349  -0.033  -5.667  1.00  0.00     0.165 A 
ATOM      6  C   UNL     1       2.632   1.073  -5.209  1.00  0.00     0.237 A 
ENDROOT
BRANCH   1   7
ATOM      7  C   UNL     1       5.969   1.618  -7.774  1.00  0.00     0.193 C 
ATOM      8  O   UNL     1       7.003   0.990  -7.503  1.00  0.00    -0.289 OA
BRANCH   7   9
ATOM      9  C   UNL     1       5.928   2.499  -8.931  1.00  0.00     0.023 A 
ATOM     10  C   UNL     1       7.078   2.703  -9.693  1.00  0.00     0.012 A 
ATOM     11  C   UNL     1       4.738   3.138  -9.279  1.00  0.00     0.012 A 
ATOM     12  C   UNL     1       7.038   3.548 -10.802  1.00  0.00     0.004 A 
ATOM     13  C   UNL     1       4.697   3.983 -10.389  1.00  0.00     0.004 A 
ATOM     14  C   UNL     1       5.848   4.188 -11.151  1.00  0.00    -0.051 A 
ATOM     15  C   UNL     1       5.806   5.091 -12.336  1.00  0.00     0.044 C 
ENDBRANCH   7   9
ENDBRANCH   1   7
BRANCH   4  16
ATOM     16  N   UNL     1       2.296   3.497  -5.136  1.00  0.00     0.066 N 
ATOM     17  O   UNL     1       2.092   4.445  -5.933  1.00  0.00    -0.258 OA
ATOM     18  O   UNL     1       1.888   3.521  -3.952  1.00  0.00    -0.258 OA
ENDBRANCH   4  16
BRANCH   5  19
ATOM     19  O   UNL     1       2.988  -1.295  -5.299  1.00  0.00    -0.504 OA
ATOM     20  H   UNL     1       2.714  -1.296  -4.367  1.00  0.00     0.293 HD
ENDBRANCH   5  19
BRANCH   6  21
ATOM     21  O   UNL     1       1.561   0.884  -4.384  1.00  0.00    -0.500 OA
ATOM     22  H   UNL     1       0.871   1.534  -4.592  1.00  0.00     0.294 HD
ENDBRANCH   6  21
TORSDOF 5
ENDMDL
MODEL 6
REMARK VINA RESULT:    -4.335      3.248      6.378
REMARK INTER + INTRA:          -6.367
REMARK INTER:                  -5.382
REMARK INTRA:                  -0.985
REMARK UNBOUND:                -1.018
REMARK SMILES Cc1ccc(C(=O)c2cc(O)c(O)c([N+](=O)[O-])c2)cc1
REMARK SMILES IDX 8 1 18 2 9 3 14 4 10 5 12 6 6 7 7 8 5 9 4 10 19 11 3 12
REMARK SMILES IDX 20 13 2 14 1 15 15 16 17 17 16 18 11 19 13 21
REMARK H PARENT 11 20 13 22
ROOT
ATOM      1  C   UNL     1       4.828   3.365 -10.839  1.00  0.00     0.033 A 
ATOM      2  C   UNL     1       5.424   4.590 -11.030  1.00  0.00     0.102 A 
ATOM      3  C   UNL     1       5.079   2.279 -11.643  1.00  0.00     0.063 A 
ATOM      4  C   UNL     1       6.324   4.736 -12.086  1.00  0.00     0.315 A 
ATOM      5  C   UNL     1       5.978   2.425 -12.700  1.00  0.00     0.165 A 
ATOM      6  C   UNL     1       6.601   3.654 -12.921  1.00  0.00     0.237 A 
ENDROOT
BRANCH   1   7
ATOM      7  C   UNL     1       3.864   3.209  -9.708  1.00  0.00     0.193 C 
ATOM      8  O   UNL     1       2.902   3.991  -9.668  1.00  0.00    -0.289 OA
BRANCH   7   9
ATOM      9  C   UNL     1       4.024   2.190  -8.683  1.00  0.00     0.023 A 
ATOM     10  C   UNL     1       5.236   2.068  -8.003  1.00  0.00     0.012 A 
ATOM     11  C   UNL     1       2.965   1.334  -8.380  1.00  0.00     0.012 A 
ATOM     12  C   UNL     1       5.388   1.090  -7.020  1.00  0.00     0.004 A 
ATOM     13  C   UNL     1       3.117   0.356  -7.396  1.00  0.00     0.004 A 
ATOM     14  C   UNL     1       4.329   0.234  -6.716  1.00  0.00    -0.051 A 
ATOM     15  C   UNL     1       4.493  -0.812  -5.666  1.00  0.00     0.044 C 
ENDBRANCH   7   9
ENDBRANCH   1   7
BRANCH   4  16
ATOM     16  N   UNL     1       6.948   5.996 -12.296  1.00  0.00     0.066 N 
ATOM     17  O   UNL     1       7.277   6.323 -13.462  1.00  0.00    -0.258 OA
ATOM     18  O   UNL     1       7.150   6.744 -11.311  1.00  0.00    -0.258 OA
ENDBRANCH   4  16
BRANCH   5  19
ATOM     19  O   UNL     1       6.240   1.359 -13.507  1.00  0.00    -0.504 OA
ATOM     20  H   UNL     1       6.163   0.537 -12.996  1.00  0.00     0.293 HD
ENDBRANCH   5  19
BRANCH   6  21
ATOM     21  O   UNL     1       7.479   3.785 -13.958  1.00  0.00    -0.500 OA
ATOM     22  H   UNL     1       8.050   3.001 -14.002  1.00  0.00     0.294 HD
ENDBRANCH   6  21
TORSDOF 5
ENDMDL
MODEL 7
REMARK VINA RESULT:    -4.302      2.901      6.707
REMARK INTER + INTRA:          -6.326
REMARK INTER:                  -5.362
REMARK INTRA:                  -0.964
REMARK UNBOUND:                -1.018
REMARK SMILES Cc1ccc(C(=O)c2cc(O)c(O)c([N+](=O)[O-])c2)cc1
REMARK SMILES IDX 8 1 18 2 9 3 14 4 10 5 12 6 6 7 7 8 5 9 4 10 19 11 3 12
REMARK SMILES IDX 20 13 2 14 1 15 15 16 17 17 16 18 11 19 13 21
REMARK H PARENT 11 20 13 22
ROOT
ATOM      1  C   UNL     1       6.045   3.030 -10.341  1.00  0.00     0.033 A 
ATOM      2  C   UNL     1       6.143   2.231 -11.457  1.00  0.00     0.102 A 
ATOM      3  C   UNL     1       6.236   4.390 -10.378  1.00  0.00     0.063 A 
ATOM      4  C   UNL     1       6.448   2.829 -12.680  1.00  0.00     0.315 A 
ATOM      5  C   UNL     1       6.542   4.988 -11.601  1.00  0.00     0.165 A 
ATOM      6  C   UNL     1       6.647   4.207 -12.753  1.00  0.00     0.237 A 
ENDROOT
BRANCH   1   7
ATOM      7  C   UNL     1       5.719   2.390  -9.031  1.00  0.00     0.193 C 
ATOM      8  O   UNL     1       6.463   1.477  -8.643  1.00  0.00    -0.289 OA
BRANCH   7   9
ATOM      9  C   UNL     1       4.581   2.802  -8.225  1.00  0.00     0.023 A 
ATOM     10  C   UNL     1       3.316   2.902  -8.803  1.00  0.00     0.012 A 
ATOM     11  C   UNL     1       4.755   3.095  -6.872  1.00  0.00     0.012 A 
ATOM     12  C   UNL     1       2.225   3.297  -8.029  1.00  0.00     0.004 A 
ATOM     13  C   UNL     1       3.663   3.490  -6.097  1.00  0.00     0.004 A 
ATOM     14  C   UNL     1       2.398   3.591  -6.676  1.00  0.00    -0.051 A 
ATOM     15  C   UNL     1       1.232   4.014  -5.850  1.00  0.00     0.044 C 
ENDBRANCH   7   9
ENDBRANCH   1   7
BRANCH   4  16
ATOM     16  N   UNL     1       6.551   2.016 -13.842  1.00  0.00     0.066 N 
ATOM     17  O   UNL     1       5.881   0.958 -13.904  1.00  0.00    -0.258 OA
ATOM     18  O   UNL     1       7.309   2.382 -14.771  1.00  0.00    -0.258 OA
ENDBRANCH   4  16
BRANCH   5  19
ATOM     19  O   UNL     1       6.734   6.336 -11.657  1.00  0.00    -0.504 OA
ATOM     20  H   UNL     1       7.350   6.547 -12.378  1.00  0.00     0.293 HD
ENDBRANCH   5  19
BRANCH   6  21
ATOM     21  O   UNL     1       6.946   4.803 -13.943  1.00  0.00    -0.500 OA
ATOM     22  H   UNL     1       7.156   5.739 -13.796  1.00  0.00     0.294 HD
ENDBRANCH   6  21
TORSDOF 5
ENDMDL
MODEL 8
REMARK VINA RESULT:    -4.251      3.204      6.318
REMARK INTER + INTRA:          -6.263
REMARK INTER:                  -5.276
REMARK INTRA:                  -0.986
REMARK UNBOUND:                -1.018
REMARK SMILES Cc1ccc(C(=O)c2cc(O)c(O)c([N+](=O)[O-])c2)cc1
REMARK SMILES IDX 8 1 18 2 9 3 14 4 10 5 12 6 6 7 7 8 5 9 4 10 19 11 3 12
REMARK SMILES IDX 20 13 2 14 1 15 15 16 17 17 16 18 11 19 13 21
REMARK H PARENT 11 20 13 22
ROOT
ATOM      1  C   UNL     1       4.822   3.381 -10.839  1.00  0.00     0.033 A 
ATOM      2  C   UNL     1       5.084   2.292 -11.637  1.00  0.00     0.102 A 
ATOM      3  C   UNL     1       5.404   4.610 -11.038  1.00  0.00     0.063 A 
ATOM      4  C   UNL     1       5.979   2.441 -12.696  1.00  0.00     0.315 A 
ATOM      5  C   UNL     1       6.300   4.760 -12.097  1.00  0.00     0.165 A 
ATOM      6  C   UNL     1       6.587   3.675 -12.927  1.00  0.00     0.237 A 
ENDROOT
BRANCH   1   7
ATOM      7  C   UNL     1       3.863   3.221  -9.704  1.00  0.00     0.193 C 
ATOM      8  O   UNL     1       2.902   4.004  -9.656  1.00  0.00    -0.289 OA
BRANCH   7   9
ATOM      9  C   UNL     1       4.026   2.198  -8.684  1.00  0.00     0.023 A 
ATOM     10  C   UNL     1       5.238   2.078  -8.003  1.00  0.00     0.012 A 
ATOM     11  C   UNL     1       2.971   1.336  -8.386  1.00  0.00     0.012 A 
ATOM     12  C   UNL     1       5.394   1.097  -7.025  1.00  0.00     0.004 A 
ATOM     13  C   UNL     1       3.127   0.354  -7.407  1.00  0.00     0.004 A 
ATOM     14  C   UNL     1       4.339   0.234  -6.726  1.00  0.00    -0.051 A 
ATOM     15  C   UNL     1       4.507  -0.816  -5.681  1.00  0.00     0.044 C 
ENDBRANCH   7   9
ENDBRANCH   1   7
BRANCH   4  16
ATOM     16  N   UNL     1       6.259   1.325 -13.531  1.00  0.00     0.066 N 
ATOM     17  O   UNL     1       7.395   1.230 -14.055  1.00  0.00    -0.258 OA
ATOM     18  O   UNL     1       5.364   0.468 -13.717  1.00  0.00    -0.258 OA
ENDBRANCH   4  16
BRANCH   5  19
ATOM     19  O   UNL     1       6.886   5.971 -12.311  1.00  0.00    -0.504 OA
ATOM     20  H   UNL     1       7.795   5.841 -12.630  1.00  0.00     0.293 HD
ENDBRANCH   5  19
BRANCH   6  21
ATOM     21  O   UNL     1       7.464   3.834 -13.960  1.00  0.00    -0.500 OA
ATOM     22  H   UNL     1       8.031   3.050 -14.030  1.00  0.00     0.294 HD
ENDBRANCH   6  21
TORSDOF 5
ENDMDL
MODEL 9
REMARK VINA RESULT:    -4.222      2.793      6.637
REMARK INTER + INTRA:          -6.227
REMARK INTER:                  -5.217
REMARK INTRA:                  -1.010
REMARK UNBOUND:                -1.018
REMARK SMILES Cc1ccc(C(=O)c2cc(O)c(O)c([N+](=O)[O-])c2)cc1
REMARK SMILES IDX 8 1 18 2 9 3 14 4 10 5 12 6 6 7 7 8 5 9 4 10 19 11 3 12
REMARK SMILES IDX 20 13 2 14 1 15 15 16 17 17 16 18 11 19 13 21
REMARK H PARENT 11 20 13 22
ROOT
ATOM      1  C   UNL     1       6.051   3.052 -10.384  1.00  0.00     0.033 A 
ATOM      2  C   UNL     1       6.333   4.398 -10.373  1.00  0.00     0.102 A 
ATOM      3  C   UNL     1       6.071   2.295 -11.531  1.00  0.00     0.063 A 
ATOM      4  C   UNL     1       6.654   5.023 -11.578  1.00  0.00     0.315 A 
ATOM      5  C   UNL     1       6.391   2.920 -12.737  1.00  0.00     0.165 A 
ATOM      6  C   UNL     1       6.683   4.284 -12.760  1.00  0.00     0.237 A 
ENDROOT
BRANCH   1   7
ATOM      7  C   UNL     1       5.707   2.383  -9.093  1.00  0.00     0.193 C 
ATOM      8  O   UNL     1       6.428   1.441  -8.731  1.00  0.00    -0.289 OA
BRANCH   7   9
ATOM      9  C   UNL     1       4.579   2.799  -8.276  1.00  0.00     0.023 A 
ATOM     10  C   UNL     1       3.305   2.887  -8.837  1.00  0.00     0.012 A 
ATOM     11  C   UNL     1       4.770   3.110  -6.930  1.00  0.00     0.012 A 
ATOM     12  C   UNL     1       2.223   3.286  -8.053  1.00  0.00     0.004 A 
ATOM     13  C   UNL     1       3.688   3.509  -6.144  1.00  0.00     0.004 A 
ATOM     14  C   UNL     1       2.414   3.597  -6.706  1.00  0.00    -0.051 A 
ATOM     15  C   UNL     1       1.258   4.025  -5.868  1.00  0.00     0.044 C 
ENDBRANCH   7   9
ENDBRANCH   1   7
BRANCH   4  16
ATOM     16  N   UNL     1       6.948   6.414 -11.581  1.00  0.00     0.066 N 
ATOM     17  O   UNL     1       7.746   6.862 -12.440  1.00  0.00    -0.258 OA
ATOM     18  O   UNL     1       6.402   7.151 -10.728  1.00  0.00    -0.258 OA
ENDBRANCH   4  16
BRANCH   5  19
ATOM     19  O   UNL     1       6.416   2.185 -13.885  1.00  0.00    -0.504 OA
ATOM     20  H   UNL     1       5.521   1.867 -14.087  1.00  0.00     0.293 HD
ENDBRANCH   5  19
BRANCH   6  21
ATOM     21  O   UNL     1       6.996   4.883 -13.946  1.00  0.00    -0.500 OA
ATOM     22  H   UNL     1       6.192   4.995 -14.477  1.00  0.00     0.294 HD
ENDBRANCH   6  21
TORSDOF 5
ENDMDL
