MODEL 1
REMARK VINA RESULT:    -5.295      0.000      0.000
REMARK INTER + INTRA:          -7.336
REMARK INTER:                  -6.534
REMARK INTRA:                  -0.803
REMARK UNBOUND:                -0.803
REMARK SMILES Cc1ccc(C(=O)c2cc(O)c(O)c([N+](=O)[O-])c2)cc1
REMARK SMILES IDX 8 1 18 2 9 3 14 4 10 5 12 6 6 7 7 8 5 9 4 10 19 11 3 12
REMARK SMILES IDX 20 13 2 14 1 15 15 16 17 17 16 18 11 19 13 21
REMARK H PARENT 11 20 13 22
ROOT
ATOM      1  C   UNL     1       7.743  -3.422  -0.909  1.00  0.00     0.033 A 
ATOM      2  C   UNL     1       6.914  -4.087  -1.783  1.00  0.00     0.102 A 
ATOM      3  C   UNL     1       7.310  -2.392  -0.107  1.00  0.00     0.063 A 
ATOM      4  C   UNL     1       5.576  -3.701  -1.857  1.00  0.00     0.315 A 
ATOM      5  C   UNL     1       5.972  -2.005  -0.183  1.00  0.00     0.165 A 
ATOM      6  C   UNL     1       5.104  -2.660  -1.058  1.00  0.00     0.237 A 
ENDROOT
BRANCH   1   7
ATOM      7  C   UNL     1       9.176  -3.835  -0.829  1.00  0.00     0.193 C 
ATOM      8  O   UNL     1       9.704  -3.842   0.293  1.00  0.00    -0.289 OA
BRANCH   7   9
ATOM      9  C   UNL     1       9.944  -4.219  -2.003  1.00  0.00     0.023 A 
ATOM     10  C   UNL     1      10.695  -3.264  -2.688  1.00  0.00     0.012 A 
ATOM     11  C   UNL     1       9.929  -5.542  -2.443  1.00  0.00     0.012 A 
ATOM     12  C   UNL     1      11.432  -3.633  -3.813  1.00  0.00     0.004 A 
ATOM     13  C   UNL     1      10.666  -5.912  -3.570  1.00  0.00     0.004 A 
ATOM     14  C   UNL     1      11.417  -4.957  -4.255  1.00  0.00    -0.051 A 
ATOM     15  C   UNL     1      12.203  -5.350  -5.459  1.00  0.00     0.044 C 
ENDBRANCH   7   9
ENDBRANCH   1   7
BRANCH   4  16
ATOM     16  N   UNL     1       4.707  -4.380  -2.755  1.00  0.00     0.066 N 
ATOM     17  O   UNL     1       3.842  -3.718  -3.379  1.00  0.00    -0.258 OA
ATOM     18  O   UNL     1       4.831  -5.618  -2.898  1.00  0.00    -0.258 OA
ENDBRANCH   4  16
BRANCH   5  19
ATOM     19  O   UNL     1       5.525  -0.987   0.605  1.00  0.00    -0.504 OA
ATOM     20  H   UNL     1       5.962  -1.030   1.471  1.00  0.00     0.293 HD
ENDBRANCH   5  19
BRANCH   6  21
ATOM     21  O   UNL     1       3.797  -2.273  -1.122  1.00  0.00    -0.500 OA
ATOM     22  H   UNL     1       3.303  -2.886  -1.688  1.00  0.00     0.294 HD
ENDBRANCH   6  21
TORSDOF 5
ENDMDL
MODEL 2
REMARK VINA RESULT:    -5.281      2.046      3.546
REMARK INTER + INTRA:          -7.319
REMARK INTER:                  -6.510
REMARK INTRA:                  -0.809
REMARK UNBOUND:                -0.803
REMARK SMILES Cc1ccc(C(=O)c2cc(O)c(O)c([N+](=O)[O-])c2)cc1
REMARK SMILES IDX 8 1 18 2 9 3 14 4 10 5 12 6 6 7 7 8 5 9 4 10 19 11 3 12
REMARK SMILES IDX 20 13 2 14 1 15 15 16 17 17 16 18 11 19 13 21
REMARK H PARENT 11 20 13 22
ROOT
ATOM      1  C   UNL     1       7.381  -3.302  -2.738  1.00  0.00     0.033 A 
ATOM      2  C   UNL     1       7.440  -2.447  -1.661  1.00  0.00     0.102 A 
ATOM      3  C   UNL     1       6.199  -3.801  -3.230  1.00  0.00     0.063 A 
ATOM      4  C   UNL     1       6.248  -2.070  -1.043  1.00  0.00     0.315 A 
ATOM      5  C   UNL     1       5.006  -3.424  -2.611  1.00  0.00     0.165 A 
ATOM      6  C   UNL     1       5.031  -2.558  -1.517  1.00  0.00     0.237 A 
ENDROOT
BRANCH   1   7
ATOM      7  C   UNL     1       8.658  -3.706  -3.400  1.00  0.00     0.193 C 
ATOM      8  O   UNL     1       8.639  -3.848  -4.632  1.00  0.00    -0.289 OA
BRANCH   7   9
ATOM      9  C   UNL     1       9.886  -3.930  -2.655  1.00  0.00     0.023 A 
ATOM     10  C   UNL     1      10.202  -5.210  -2.199  1.00  0.00     0.012 A 
ATOM     11  C   UNL     1      10.749  -2.865  -2.396  1.00  0.00     0.012 A 
ATOM     12  C   UNL     1      11.380  -5.425  -1.484  1.00  0.00     0.004 A 
ATOM     13  C   UNL     1      11.928  -3.079  -1.681  1.00  0.00     0.004 A 
ATOM     14  C   UNL     1      12.244  -4.360  -1.225  1.00  0.00    -0.051 A 
ATOM     15  C   UNL     1      13.502  -4.589  -0.460  1.00  0.00     0.044 C 
ENDBRANCH   7   9
ENDBRANCH   1   7
BRANCH   4  16
ATOM     16  N   UNL     1       6.294  -1.187   0.071  1.00  0.00     0.066 N 
ATOM     17  O   UNL     1       7.217  -0.340   0.136  1.00  0.00    -0.258 OA
ATOM     18  O   UNL     1       5.410  -1.280   0.954  1.00  0.00    -0.258 OA
ENDBRANCH   4  16
BRANCH   5  19
ATOM     19  O   UNL     1       3.825  -3.908  -3.086  1.00  0.00    -0.504 OA
ATOM     20  H   UNL     1       3.317  -4.301  -2.357  1.00  0.00     0.293 HD
ENDBRANCH   5  19
BRANCH   6  21
ATOM     21  O   UNL     1       3.858  -2.196  -0.921  1.00  0.00    -0.500 OA
ATOM     22  H   UNL     1       3.121  -2.671  -1.336  1.00  0.00     0.294 HD
ENDBRANCH   6  21
TORSDOF 5
ENDMDL
MODEL 3
REMARK VINA RESULT:    -4.902      1.662      2.955
REMARK INTER + INTRA:          -6.850
REMARK INTER:                  -6.221
REMARK INTRA:                  -0.629
REMARK UNBOUND:                -0.803
REMARK SMILES Cc1ccc(C(=O)c2cc(O)c(O)c([N+](=O)[O-])c2)cc1
REMARK SMILES IDX 8 1 18 2 9 3 14 4 10 5 12 6 6 7 7 8 5 9 4 10 19 11 3 12
REMARK SMILES IDX 20 13 2 14 1 15 15 16 17 17 16 18 11 19 13 21
REMARK H PARENT 11 20 13 22
ROOT
ATOM      1  C   UNL     1       6.602  -4.404  -1.495  1.00  0.00     0.033 A 
ATOM      2  C   UNL     1       6.700  -3.386  -0.574  1.00  0.00     0.102 A 
ATOM      3  C   UNL     1       5.579  -4.487  -2.409  1.00  0.00     0.063 A 
ATOM      4  C   UNL     1       5.719  -2.395  -0.570  1.00  0.00     0.315 A 
ATOM      5  C   UNL     1       4.597  -3.496  -2.404  1.00  0.00     0.165 A 
ATOM      6  C   UNL     1       4.668  -2.449  -1.484  1.00  0.00     0.237 A 
ENDROOT
BRANCH   1   7
ATOM      7  C   UNL     1       7.652  -5.466  -1.500  1.00  0.00     0.193 C 
ATOM      8  O   UNL     1       7.401  -6.518  -0.893  1.00  0.00    -0.289 OA
BRANCH   7   9
ATOM      9  C   UNL     1       8.926  -5.300  -2.181  1.00  0.00     0.023 A 
ATOM     10  C   UNL     1       9.433  -4.020  -2.409  1.00  0.00     0.012 A 
ATOM     11  C   UNL     1       9.642  -6.419  -2.605  1.00  0.00     0.012 A 
ATOM     12  C   UNL     1      10.655  -3.861  -3.062  1.00  0.00     0.004 A 
ATOM     13  C   UNL     1      10.865  -6.260  -3.259  1.00  0.00     0.004 A 
ATOM     14  C   UNL     1      11.372  -4.981  -3.487  1.00  0.00    -0.051 A 
ATOM     15  C   UNL     1      12.677  -4.810  -4.186  1.00  0.00     0.044 C 
ENDBRANCH   7   9
ENDBRANCH   1   7
BRANCH   4  16
ATOM     16  N   UNL     1       5.807  -1.336   0.375  1.00  0.00     0.066 N 
ATOM     17  O   UNL     1       6.792  -0.560   0.326  1.00  0.00    -0.258 OA
ATOM     18  O   UNL     1       4.898  -1.208   1.229  1.00  0.00    -0.258 OA
ENDBRANCH   4  16
BRANCH   5  19
ATOM     19  O   UNL     1       3.576  -3.562  -3.304  1.00  0.00    -0.504 OA
ATOM     20  H   UNL     1       3.448  -4.483  -3.584  1.00  0.00     0.293 HD
ENDBRANCH   5  19
BRANCH   6  21
ATOM     21  O   UNL     1       3.702  -1.485  -1.490  1.00  0.00    -0.500 OA
ATOM     22  H   UNL     1       3.189  -1.532  -0.668  1.00  0.00     0.294 HD
ENDBRANCH   6  21
TORSDOF 5
ENDMDL
MODEL 4
REMARK VINA RESULT:    -4.894      1.861      2.019
REMARK INTER + INTRA:          -6.841
REMARK INTER:                  -6.121
REMARK INTRA:                  -0.720
REMARK UNBOUND:                -0.803
REMARK SMILES Cc1ccc(C(=O)c2cc(O)c(O)c([N+](=O)[O-])c2)cc1
REMARK SMILES IDX 8 1 18 2 9 3 14 4 10 5 12 6 6 7 7 8 5 9 4 10 19 11 3 12
REMARK SMILES IDX 20 13 2 14 1 15 15 16 17 17 16 18 11 19 13 21
REMARK H PARENT 11 20 13 22
ROOT
ATOM      1  C   UNL     1       7.257  -1.899  -1.936  1.00  0.00     0.033 A 
ATOM      2  C   UNL     1       6.433  -2.644  -2.747  1.00  0.00     0.102 A 
ATOM      3  C   UNL     1       6.871  -1.441  -0.699  1.00  0.00     0.063 A 
ATOM      4  C   UNL     1       5.150  -2.949  -2.294  1.00  0.00     0.315 A 
ATOM      5  C   UNL     1       5.587  -1.745  -0.246  1.00  0.00     0.165 A 
ATOM      6  C   UNL     1       4.726  -2.500  -1.044  1.00  0.00     0.237 A 
ENDROOT
BRANCH   1   7
ATOM      7  C   UNL     1       8.632  -1.571  -2.421  1.00  0.00     0.193 C 
ATOM      8  O   UNL     1       8.790  -0.480  -2.988  1.00  0.00    -0.289 OA
BRANCH   7   9
ATOM      9  C   UNL     1       9.756  -2.477  -2.248  1.00  0.00     0.023 A 
ATOM     10  C   UNL     1      11.055  -1.973  -2.181  1.00  0.00     0.012 A 
ATOM     11  C   UNL     1       9.536  -3.851  -2.148  1.00  0.00     0.012 A 
ATOM     12  C   UNL     1      12.132  -2.842  -2.015  1.00  0.00     0.004 A 
ATOM     13  C   UNL     1      10.614  -4.721  -1.981  1.00  0.00     0.004 A 
ATOM     14  C   UNL     1      11.913  -4.217  -1.915  1.00  0.00    -0.051 A 
ATOM     15  C   UNL     1      13.065  -5.145  -1.738  1.00  0.00     0.044 C 
ENDBRANCH   7   9
ENDBRANCH   1   7
BRANCH   4  16
ATOM     16  N   UNL     1       4.287  -3.719  -3.121  1.00  0.00     0.066 N 
ATOM     17  O   UNL     1       3.146  -3.272  -3.389  1.00  0.00    -0.258 OA
ATOM     18  O   UNL     1       4.692  -4.821  -3.559  1.00  0.00    -0.258 OA
ENDBRANCH   4  16
BRANCH   5  19
ATOM     19  O   UNL     1       5.186  -1.300   0.978  1.00  0.00    -0.504 OA
ATOM     20  H   UNL     1       5.913  -0.813   1.401  1.00  0.00     0.293 HD
ENDBRANCH   5  19
BRANCH   6  21
ATOM     21  O   UNL     1       3.473  -2.792  -0.589  1.00  0.00    -0.500 OA
ATOM     22  H   UNL     1       3.321  -3.749  -0.642  1.00  0.00     0.294 HD
ENDBRANCH   6  21
TORSDOF 5
ENDMDL
MODEL 5
REMARK VINA RESULT:    -4.542      1.907      2.629
REMARK INTER + INTRA:          -6.406
REMARK INTER:                  -5.785
REMARK INTRA:                  -0.622
REMARK UNBOUND:                -0.803
REMARK SMILES Cc1ccc(C(=O)c2cc(O)c(O)c([N+](=O)[O-])c2)cc1
REMARK SMILES IDX 8 1 18 2 9 3 14 4 10 5 12 6 6 7 7 8 5 9 4 10 19 11 3 12
REMARK SMILES IDX 20 13 2 14 1 15 15 16 17 17 16 18 11 19 13 21
REMARK H PARENT 11 20 13 22
ROOT
ATOM      1  C   UNL     1       7.290  -2.742  -1.843  1.00  0.00     0.033 A 
ATOM      2  C   UNL     1       5.924  -2.813  -1.992  1.00  0.00     0.102 A 
ATOM      3  C   UNL     1       7.893  -2.109  -0.782  1.00  0.00     0.063 A 
ATOM      4  C   UNL     1       5.116  -2.218  -1.023  1.00  0.00     0.315 A 
ATOM      5  C   UNL     1       7.085  -1.512   0.186  1.00  0.00     0.165 A 
ATOM      6  C   UNL     1       5.696  -1.567   0.065  1.00  0.00     0.237 A 
ENDROOT
BRANCH   1   7
ATOM      7  C   UNL     1       8.156  -3.381  -2.880  1.00  0.00     0.193 C 
ATOM      8  O   UNL     1       7.657  -3.569  -4.000  1.00  0.00    -0.289 OA
BRANCH   7   9
ATOM      9  C   UNL     1       9.530  -3.774  -2.613  1.00  0.00     0.023 A 
ATOM     10  C   UNL     1       9.844  -5.117  -2.407  1.00  0.00     0.012 A 
ATOM     11  C   UNL     1      10.535  -2.808  -2.565  1.00  0.00     0.012 A 
ATOM     12  C   UNL     1      11.162  -5.494  -2.152  1.00  0.00     0.004 A 
ATOM     13  C   UNL     1      11.854  -3.185  -2.310  1.00  0.00     0.004 A 
ATOM     14  C   UNL     1      12.168  -4.528  -2.103  1.00  0.00    -0.051 A 
ATOM     15  C   UNL     1      13.576  -4.932  -1.829  1.00  0.00     0.044 C 
ENDBRANCH   7   9
ENDBRANCH   1   7
BRANCH   4  16
ATOM     16  N   UNL     1       3.702  -2.283  -1.163  1.00  0.00     0.066 N 
ATOM     17  O   UNL     1       2.988  -2.230  -0.133  1.00  0.00    -0.258 OA
ATOM     18  O   UNL     1       3.212  -2.392  -2.311  1.00  0.00    -0.258 OA
ENDBRANCH   4  16
BRANCH   5  19
ATOM     19  O   UNL     1       7.665  -0.880   1.244  1.00  0.00    -0.504 OA
ATOM     20  H   UNL     1       8.570  -0.615   1.009  1.00  0.00     0.293 HD
ENDBRANCH   5  19
BRANCH   6  21
ATOM     21  O   UNL     1       4.916  -0.980   1.019  1.00  0.00    -0.500 OA
ATOM     22  H   UNL     1       3.984  -1.199   0.859  1.00  0.00     0.294 HD
ENDBRANCH   6  21
TORSDOF 5
ENDMDL
MODEL 6
REMARK VINA RESULT:    -4.377      1.259      2.889
REMARK INTER + INTRA:          -6.203
REMARK INTER:                  -5.479
REMARK INTRA:                  -0.724
REMARK UNBOUND:                -0.803
REMARK SMILES Cc1ccc(C(=O)c2cc(O)c(O)c([N+](=O)[O-])c2)cc1
REMARK SMILES IDX 8 1 18 2 9 3 14 4 10 5 12 6 6 7 7 8 5 9 4 10 19 11 3 12
REMARK SMILES IDX 20 13 2 14 1 15 15 16 17 17 16 18 11 19 13 21
REMARK H PARENT 11 20 13 22
ROOT
ATOM      1  C   UNL     1       8.186  -3.646  -1.211  1.00  0.00     0.033 A 
ATOM      2  C   UNL     1       7.774  -2.538  -0.508  1.00  0.00     0.102 A 
ATOM      3  C   UNL     1       7.320  -4.445  -1.920  1.00  0.00     0.063 A 
ATOM      4  C   UNL     1       6.419  -2.209  -0.516  1.00  0.00     0.315 A 
ATOM      5  C   UNL     1       5.964  -4.116  -1.928  1.00  0.00     0.165 A 
ATOM      6  C   UNL     1       5.513  -2.998  -1.226  1.00  0.00     0.237 A 
ENDROOT
BRANCH   1   7
ATOM      7  C   UNL     1       9.638  -3.999  -1.203  1.00  0.00     0.193 C 
ATOM      8  O   UNL     1      10.222  -3.977  -0.109  1.00  0.00    -0.289 OA
BRANCH   7   9
ATOM      9  C   UNL     1      10.360  -4.357  -2.413  1.00  0.00     0.023 A 
ATOM     10  C   UNL     1      10.360  -5.679  -2.859  1.00  0.00     0.012 A 
ATOM     11  C   UNL     1      11.053  -3.380  -3.127  1.00  0.00     0.012 A 
ATOM     12  C   UNL     1      11.053  -6.022  -4.020  1.00  0.00     0.004 A 
ATOM     13  C   UNL     1      11.746  -3.723  -4.289  1.00  0.00     0.004 A 
ATOM     14  C   UNL     1      11.746  -5.045  -4.736  1.00  0.00    -0.051 A 
ATOM     15  C   UNL     1      12.487  -5.413  -5.975  1.00  0.00     0.044 C 
ENDBRANCH   7   9
ENDBRANCH   1   7
BRANCH   4  16
ATOM     16  N   UNL     1       5.978  -1.066   0.205  1.00  0.00     0.066 N 
ATOM     17  O   UNL     1       6.463   0.055  -0.080  1.00  0.00    -0.258 OA
ATOM     18  O   UNL     1       5.117  -1.212   1.104  1.00  0.00    -0.258 OA
ENDBRANCH   4  16
BRANCH   5  19
ATOM     19  O   UNL     1       5.092  -4.896  -2.626  1.00  0.00    -0.504 OA
ATOM     20  H   UNL     1       4.409  -5.238  -2.025  1.00  0.00     0.293 HD
ENDBRANCH   5  19
BRANCH   6  21
ATOM     21  O   UNL     1       4.185  -2.686  -1.241  1.00  0.00    -0.500 OA
ATOM     22  H   UNL     1       3.953  -2.205  -0.431  1.00  0.00     0.294 HD
ENDBRANCH   6  21
TORSDOF 5
ENDMDL
MODEL 7
REMARK VINA RESULT:    -4.354      1.982      2.301
REMARK INTER + INTRA:          -6.175
REMARK INTER:                  -5.457
REMARK INTRA:                  -0.717
REMARK UNBOUND:                -0.803
REMARK SMILES Cc1ccc(C(=O)c2cc(O)c(O)c([N+](=O)[O-])c2)cc1
REMARK SMILES IDX 8 1 18 2 9 3 14 4 10 5 12 6 6 7 7 8 5 9 4 10 19 11 3 12
REMARK SMILES IDX 20 13 2 14 1 15 15 16 17 17 16 18 11 19 13 21
REMARK H PARENT 11 20 13 22
ROOT
ATOM      1  C   UNL     1       7.972  -3.380  -2.679  1.00  0.00     0.033 A 
ATOM      2  C   UNL     1       6.811  -4.019  -3.046  1.00  0.00     0.102 A 
ATOM      3  C   UNL     1       7.998  -2.323  -1.801  1.00  0.00     0.063 A 
ATOM      4  C   UNL     1       5.605  -3.575  -2.502  1.00  0.00     0.315 A 
ATOM      5  C   UNL     1       6.792  -1.878  -1.257  1.00  0.00     0.165 A 
ATOM      6  C   UNL     1       5.596  -2.505  -1.608  1.00  0.00     0.237 A 
ENDROOT
BRANCH   1   7
ATOM      7  C   UNL     1       9.264  -3.855  -3.262  1.00  0.00     0.193 C 
ATOM      8  O   UNL     1       9.295  -4.059  -4.485  1.00  0.00    -0.289 OA
BRANCH   7   9
ATOM      9  C   UNL     1      10.450  -4.076  -2.451  1.00  0.00     0.023 A 
ATOM     10  C   UNL     1      11.309  -3.014  -2.168  1.00  0.00     0.012 A 
ATOM     11  C   UNL     1      10.730  -5.350  -1.957  1.00  0.00     0.012 A 
ATOM     12  C   UNL     1      12.447  -3.227  -1.390  1.00  0.00     0.004 A 
ATOM     13  C   UNL     1      11.868  -5.563  -1.178  1.00  0.00     0.004 A 
ATOM     14  C   UNL     1      12.727  -4.501  -0.895  1.00  0.00    -0.051 A 
ATOM     15  C   UNL     1      13.944  -4.728  -0.065  1.00  0.00     0.044 C 
ENDBRANCH   7   9
ENDBRANCH   1   7
BRANCH   4  16
ATOM     16  N   UNL     1       4.396  -4.226  -2.871  1.00  0.00     0.066 N 
ATOM     17  O   UNL     1       3.479  -3.549  -3.396  1.00  0.00    -0.258 OA
ATOM     18  O   UNL     1       4.282  -5.456  -2.662  1.00  0.00    -0.258 OA
ENDBRANCH   4  16
BRANCH   5  19
ATOM     19  O   UNL     1       6.798  -0.832  -0.385  1.00  0.00    -0.504 OA
ATOM     20  H   UNL     1       6.418  -1.114   0.464  1.00  0.00     0.293 HD
ENDBRANCH   5  19
BRANCH   6  21
ATOM     21  O   UNL     1       4.423  -2.062  -1.069  1.00  0.00    -0.500 OA
ATOM     22  H   UNL     1       4.439  -2.184  -0.107  1.00  0.00     0.294 HD
ENDBRANCH   6  21
TORSDOF 5
ENDMDL
MODEL 8
REMARK VINA RESULT:    -4.306      3.714      6.609
REMARK INTER + INTRA:          -6.116
REMARK INTER:                  -5.213
REMARK INTRA:                  -0.902
REMARK UNBOUND:                -0.803
REMARK SMILES Cc1ccc(C(=O)c2cc(O)c(O)c([N+](=O)[O-])c2)cc1
REMARK SMILES IDX 8 1 18 2 9 3 14 4 10 5 12 6 6 7 7 8 5 9 4 10 19 11 3 12
REMARK SMILES IDX 20 13 2 14 1 15 15 16 17 17 16 18 11 19 13 21
REMARK H PARENT 11 20 13 22
ROOT
ATOM      1  C   UNL     1      10.940  -3.480  -2.317  1.00  0.00     0.033 A 
ATOM      2  C   UNL     1      11.260  -4.114  -3.495  1.00  0.00     0.102 A 
ATOM      3  C   UNL     1      11.742  -3.529  -1.201  1.00  0.00     0.063 A 
ATOM      4  C   UNL     1      12.451  -4.836  -3.561  1.00  0.00     0.315 A 
ATOM      5  C   UNL     1      12.933  -4.252  -1.267  1.00  0.00     0.165 A 
ATOM      6  C   UNL     1      13.288  -4.906  -2.448  1.00  0.00     0.237 A 
ENDROOT
BRANCH   1   7
ATOM      7  C   UNL     1       9.664  -2.706  -2.245  1.00  0.00     0.193 C 
ATOM      8  O   UNL     1       9.749  -1.491  -2.011  1.00  0.00    -0.289 OA
BRANCH   7   9
ATOM      9  C   UNL     1       8.364  -3.326  -2.439  1.00  0.00     0.023 A 
ATOM     10  C   UNL     1       8.120  -4.606  -1.940  1.00  0.00     0.012 A 
ATOM     11  C   UNL     1       7.360  -2.643  -3.124  1.00  0.00     0.012 A 
ATOM     12  C   UNL     1       6.872  -5.201  -2.126  1.00  0.00     0.004 A 
ATOM     13  C   UNL     1       6.111  -3.237  -3.311  1.00  0.00     0.004 A 
ATOM     14  C   UNL     1       5.867  -4.517  -2.811  1.00  0.00    -0.051 A 
ATOM     15  C   UNL     1       4.534  -5.154  -3.011  1.00  0.00     0.044 C 
ENDBRANCH   7   9
ENDBRANCH   1   7
BRANCH   4  16
ATOM     16  N   UNL     1      12.795  -5.496  -4.773  1.00  0.00     0.066 N 
ATOM     17  O   UNL     1      14.008  -5.634  -5.065  1.00  0.00    -0.258 OA
ATOM     18  O   UNL     1      11.878  -5.922  -5.513  1.00  0.00    -0.258 OA
ENDBRANCH   4  16
BRANCH   5  19
ATOM     19  O   UNL     1      13.741  -4.311  -0.172  1.00  0.00    -0.504 OA
ATOM     20  H   UNL     1      14.438  -3.639  -0.245  1.00  0.00     0.293 HD
ENDBRANCH   5  19
BRANCH   6  21
ATOM     21  O   UNL     1      14.456  -5.610  -2.501  1.00  0.00    -0.500 OA
ATOM     22  H   UNL     1      15.207  -5.002  -2.425  1.00  0.00     0.294 HD
ENDBRANCH   6  21
TORSDOF 5
ENDMDL
MODEL 9
REMARK VINA RESULT:    -4.293      3.574      7.189
REMARK INTER + INTRA:          -6.099
REMARK INTER:                  -5.185
REMARK INTRA:                  -0.914
REMARK UNBOUND:                -0.803
REMARK SMILES Cc1ccc(C(=O)c2cc(O)c(O)c([N+](=O)[O-])c2)cc1
REMARK SMILES IDX 8 1 18 2 9 3 14 4 10 5 12 6 6 7 7 8 5 9 4 10 19 11 3 12
REMARK SMILES IDX 20 13 2 14 1 15 15 16 17 17 16 18 11 19 13 21
REMARK H PARENT 11 20 13 22
ROOT
ATOM      1  C   UNL     1      10.377  -5.104  -2.630  1.00  0.00     0.033 A 
ATOM      2  C   UNL     1      11.372  -4.875  -1.709  1.00  0.00     0.102 A 
ATOM      3  C   UNL     1      10.632  -5.372  -3.954  1.00  0.00     0.063 A 
ATOM      4  C   UNL     1      12.699  -4.919  -2.137  1.00  0.00     0.315 A 
ATOM      5  C   UNL     1      11.959  -5.415  -4.382  1.00  0.00     0.165 A 
ATOM      6  C   UNL     1      12.993  -5.189  -3.473  1.00  0.00     0.237 A 
ENDROOT
BRANCH   1   7
ATOM      7  C   UNL     1       8.955  -5.058  -2.172  1.00  0.00     0.193 C 
ATOM      8  O   UNL     1       8.276  -6.085  -2.319  1.00  0.00    -0.289 OA
BRANCH   7   9
ATOM      9  C   UNL     1       8.367  -3.869  -1.575  1.00  0.00     0.023 A 
ATOM     10  C   UNL     1       7.501  -3.991  -0.488  1.00  0.00     0.012 A 
ATOM     11  C   UNL     1       8.669  -2.608  -2.088  1.00  0.00     0.012 A 
ATOM     12  C   UNL     1       6.937  -2.851   0.085  1.00  0.00     0.004 A 
ATOM     13  C   UNL     1       8.105  -1.468  -1.516  1.00  0.00     0.004 A 
ATOM     14  C   UNL     1       7.239  -1.589  -0.428  1.00  0.00    -0.051 A 
ATOM     15  C   UNL     1       6.635  -0.371   0.183  1.00  0.00     0.044 C 
ENDBRANCH   7   9
ENDBRANCH   1   7
BRANCH   4  16
ATOM     16  N   UNL     1      13.739  -4.685  -1.196  1.00  0.00     0.066 N 
ATOM     17  O   UNL     1      14.844  -5.258  -1.359  1.00  0.00    -0.258 OA
ATOM     18  O   UNL     1      13.523  -3.913  -0.233  1.00  0.00    -0.258 OA
ENDBRANCH   4  16
BRANCH   5  19
ATOM     19  O   UNL     1      12.231  -5.680  -5.691  1.00  0.00    -0.504 OA
ATOM     20  H   UNL     1      11.669  -5.128  -6.259  1.00  0.00     0.293 HD
ENDBRANCH   5  19
BRANCH   6  21
ATOM     21  O   UNL     1      14.287  -5.234  -3.904  1.00  0.00    -0.500 OA
ATOM     22  H   UNL     1      14.862  -5.527  -3.180  1.00  0.00     0.294 HD
ENDBRANCH   6  21
TORSDOF 5
ENDMDL
