MODEL 1
REMARK VINA RESULT:    -3.790      0.000      0.000
REMARK INTER + INTRA:          -5.402
REMARK INTER:                  -4.676
REMARK INTRA:                  -0.726
REMARK UNBOUND:                -0.726
REMARK SMILES Cc1ccc(C(=O)c2cc(O)c(O)c([N+](=O)[O-])c2)cc1
REMARK SMILES IDX 8 1 18 2 9 3 14 4 10 5 12 6 6 7 7 8 5 9 4 10 19 11 3 12
REMARK SMILES IDX 20 13 2 14 1 15 15 16 17 17 16 18 11 19 13 21
REMARK H PARENT 11 20 13 22
ROOT
ATOM      1  C   UNL     1      11.240   1.750  14.050  1.00  0.00     0.033 A 
ATOM      2  C   UNL     1      12.156   2.770  14.167  1.00  0.00     0.102 A 
ATOM      3  C   UNL     1      10.018   1.769  14.679  1.00  0.00     0.063 A 
ATOM      4  C   UNL     1      11.829   3.872  14.957  1.00  0.00     0.315 A 
ATOM      5  C   UNL     1       9.691   2.871  15.470  1.00  0.00     0.165 A 
ATOM      6  C   UNL     1      10.597   3.923  15.608  1.00  0.00     0.237 A 
ENDROOT
BRANCH   1   7
ATOM      7  C   UNL     1      11.590   0.569  13.204  1.00  0.00     0.193 C 
ATOM      8  O   UNL     1      12.673   0.008  13.431  1.00  0.00    -0.289 OA
BRANCH   7   9
ATOM      9  C   UNL     1      10.715   0.077  12.153  1.00  0.00     0.023 A 
ATOM     10  C   UNL     1      10.681  -1.286  11.855  1.00  0.00     0.012 A 
ATOM     11  C   UNL     1       9.910   0.966  11.442  1.00  0.00     0.012 A 
ATOM     12  C   UNL     1       9.841  -1.757  10.846  1.00  0.00     0.004 A 
ATOM     13  C   UNL     1       9.069   0.495  10.433  1.00  0.00     0.004 A 
ATOM     14  C   UNL     1       9.035  -0.868  10.135  1.00  0.00    -0.051 A 
ATOM     15  C   UNL     1       8.139  -1.373   9.056  1.00  0.00     0.044 C 
ENDBRANCH   7   9
ENDBRANCH   1   7
BRANCH   4  16
ATOM     16  N   UNL     1      12.765   4.935  15.087  1.00  0.00     0.066 N 
ATOM     17  O   UNL     1      13.010   5.390  16.230  1.00  0.00    -0.258 OA
ATOM     18  O   UNL     1      13.318   5.384  14.056  1.00  0.00    -0.258 OA
ENDBRANCH   4  16
BRANCH   5  19
ATOM     19  O   UNL     1       8.484   2.907  16.100  1.00  0.00    -0.504 OA
ATOM     20  H   UNL     1       7.771   2.878  15.440  1.00  0.00     0.293 HD
ENDBRANCH   5  19
BRANCH   6  21
ATOM     21  O   UNL     1      10.266   4.996  16.384  1.00  0.00    -0.500 OA
ATOM     22  H   UNL     1      11.039   5.573  16.490  1.00  0.00     0.294 HD
ENDBRANCH   6  21
TORSDOF 5
ENDMDL
MODEL 2
REMARK VINA RESULT:    -3.704      5.057      8.101
REMARK INTER + INTRA:          -5.296
REMARK INTER:                  -4.960
REMARK INTRA:                  -0.336
REMARK UNBOUND:                -0.726
REMARK SMILES Cc1ccc(C(=O)c2cc(O)c(O)c([N+](=O)[O-])c2)cc1
REMARK SMILES IDX 8 1 18 2 9 3 14 4 10 5 12 6 6 7 7 8 5 9 4 10 19 11 3 12
REMARK SMILES IDX 20 13 2 14 1 15 15 16 17 17 16 18 11 19 13 21
REMARK H PARENT 11 20 13 22
ROOT
ATOM      1  C   UNL     1       8.276  -1.598   9.595  1.00  0.00     0.033 A 
ATOM      2  C   UNL     1       8.453  -2.537  10.585  1.00  0.00     0.102 A 
ATOM      3  C   UNL     1       7.424  -1.785   8.533  1.00  0.00     0.063 A 
ATOM      4  C   UNL     1       7.735  -3.731  10.508  1.00  0.00     0.315 A 
ATOM      5  C   UNL     1       6.707  -2.979   8.455  1.00  0.00     0.165 A 
ATOM      6  C   UNL     1       6.862  -3.952   9.443  1.00  0.00     0.237 A 
ENDROOT
BRANCH   1   7
ATOM      7  C   UNL     1       9.045  -0.320   9.678  1.00  0.00     0.193 C 
ATOM      8  O   UNL     1       9.144   0.352   8.640  1.00  0.00    -0.289 OA
BRANCH   7   9
ATOM      9  C   UNL     1       9.661   0.141  10.911  1.00  0.00     0.023 A 
ATOM     10  C   UNL     1      10.710  -0.582  11.479  1.00  0.00     0.012 A 
ATOM     11  C   UNL     1       9.204   1.306  11.526  1.00  0.00     0.012 A 
ATOM     12  C   UNL     1      11.302  -0.139  12.662  1.00  0.00     0.004 A 
ATOM     13  C   UNL     1       9.796   1.750  12.710  1.00  0.00     0.004 A 
ATOM     14  C   UNL     1      10.845   1.026  13.278  1.00  0.00    -0.051 A 
ATOM     15  C   UNL     1      11.476   1.498  14.543  1.00  0.00     0.044 C 
ENDBRANCH   7   9
ENDBRANCH   1   7
BRANCH   4  16
ATOM     16  N   UNL     1       7.906  -4.710  11.524  1.00  0.00     0.066 N 
ATOM     17  O   UNL     1       7.274  -5.790  11.438  1.00  0.00    -0.258 OA
ATOM     18  O   UNL     1       8.684  -4.466  12.475  1.00  0.00    -0.258 OA
ENDBRANCH   4  16
BRANCH   5  19
ATOM     19  O   UNL     1       5.857  -3.182   7.409  1.00  0.00    -0.504 OA
ATOM     20  H   UNL     1       4.999  -2.770   7.602  1.00  0.00     0.293 HD
ENDBRANCH   5  19
BRANCH   6  21
ATOM     21  O   UNL     1       6.154  -5.116   9.356  1.00  0.00    -0.500 OA
ATOM     22  H   UNL     1       5.881  -5.398  10.243  1.00  0.00     0.294 HD
ENDBRANCH   6  21
TORSDOF 5
ENDMDL
MODEL 3
REMARK VINA RESULT:    -3.695      5.935      8.401
REMARK INTER + INTRA:          -5.284
REMARK INTER:                  -4.960
REMARK INTRA:                  -0.324
REMARK UNBOUND:                -0.726
REMARK SMILES Cc1ccc(C(=O)c2cc(O)c(O)c([N+](=O)[O-])c2)cc1
REMARK SMILES IDX 8 1 18 2 9 3 14 4 10 5 12 6 6 7 7 8 5 9 4 10 19 11 3 12
REMARK SMILES IDX 20 13 2 14 1 15 15 16 17 17 16 18 11 19 13 21
REMARK H PARENT 11 20 13 22
ROOT
ATOM      1  C   UNL     1       7.164  -3.985   9.715  1.00  0.00     0.033 A 
ATOM      2  C   UNL     1       8.137  -3.445  10.523  1.00  0.00     0.102 A 
ATOM      3  C   UNL     1       6.639  -3.321   8.632  1.00  0.00     0.063 A 
ATOM      4  C   UNL     1       8.613  -2.167  10.230  1.00  0.00     0.315 A 
ATOM      5  C   UNL     1       7.115  -2.042   8.339  1.00  0.00     0.165 A 
ATOM      6  C   UNL     1       8.102  -1.465   9.139  1.00  0.00     0.237 A 
ENDROOT
BRANCH   1   7
ATOM      7  C   UNL     1       6.654  -5.354  10.029  1.00  0.00     0.193 C 
ATOM      8  O   UNL     1       5.578  -5.692   9.512  1.00  0.00    -0.289 OA
BRANCH   7   9
ATOM      9  C   UNL     1       7.370  -6.272  10.900  1.00  0.00     0.023 A 
ATOM     10  C   UNL     1       7.542  -5.962  12.249  1.00  0.00     0.012 A 
ATOM     11  C   UNL     1       7.883  -7.463  10.388  1.00  0.00     0.012 A 
ATOM     12  C   UNL     1       8.229  -6.843  13.085  1.00  0.00     0.004 A 
ATOM     13  C   UNL     1       8.570  -8.345  11.223  1.00  0.00     0.004 A 
ATOM     14  C   UNL     1       8.743  -8.035  12.572  1.00  0.00    -0.051 A 
ATOM     15  C   UNL     1       9.477  -8.975  13.466  1.00  0.00     0.044 C 
ENDBRANCH   7   9
ENDBRANCH   1   7
BRANCH   4  16
ATOM     16  N   UNL     1       9.619  -1.595  11.056  1.00  0.00     0.066 N 
ATOM     17  O   UNL     1      10.009  -2.231  12.066  1.00  0.00    -0.258 OA
ATOM     18  O   UNL     1      10.088  -0.473  10.752  1.00  0.00    -0.258 OA
ENDBRANCH   4  16
BRANCH   5  19
ATOM     19  O   UNL     1       6.607  -1.369   7.269  1.00  0.00    -0.504 OA
ATOM     20  H   UNL     1       7.299  -0.812   6.877  1.00  0.00     0.293 HD
ENDBRANCH   5  19
BRANCH   6  21
ATOM     21  O   UNL     1       8.560  -0.214   8.842  1.00  0.00    -0.500 OA
ATOM     22  H   UNL     1       9.162   0.087   9.540  1.00  0.00     0.294 HD
ENDBRANCH   6  21
TORSDOF 5
ENDMDL
MODEL 4
REMARK VINA RESULT:    -3.466      8.925     11.346
REMARK INTER + INTRA:          -5.003
REMARK INTER:                  -4.145
REMARK INTRA:                  -0.858
REMARK UNBOUND:                -0.726
REMARK SMILES Cc1ccc(C(=O)c2cc(O)c(O)c([N+](=O)[O-])c2)cc1
REMARK SMILES IDX 8 1 18 2 9 3 14 4 10 5 12 6 6 7 7 8 5 9 4 10 19 11 3 12
REMARK SMILES IDX 20 13 2 14 1 15 15 16 17 17 16 18 11 19 13 21
REMARK H PARENT 11 20 13 22
ROOT
ATOM      1  C   UNL     1       9.263  -8.920  12.956  1.00  0.00     0.033 A 
ATOM      2  C   UNL     1      10.409  -8.578  13.635  1.00  0.00     0.102 A 
ATOM      3  C   UNL     1       9.175 -10.031  12.151  1.00  0.00     0.063 A 
ATOM      4  C   UNL     1      11.531  -9.396  13.502  1.00  0.00     0.315 A 
ATOM      5  C   UNL     1      10.298 -10.848  12.017  1.00  0.00     0.165 A 
ATOM      6  C   UNL     1      11.476 -10.531  12.694  1.00  0.00     0.237 A 
ENDROOT
BRANCH   1   7
ATOM      7  C   UNL     1       8.060  -8.044  13.097  1.00  0.00     0.193 C 
ATOM      8  O   UNL     1       7.309  -8.262  14.060  1.00  0.00    -0.289 OA
BRANCH   7   9
ATOM      9  C   UNL     1       7.761  -6.973  12.160  1.00  0.00     0.023 A 
ATOM     10  C   UNL     1       7.814  -5.644  12.580  1.00  0.00     0.012 A 
ATOM     11  C   UNL     1       7.421  -7.275  10.842  1.00  0.00     0.012 A 
ATOM     12  C   UNL     1       7.526  -4.617  11.681  1.00  0.00     0.004 A 
ATOM     13  C   UNL     1       7.134  -6.248   9.942  1.00  0.00     0.004 A 
ATOM     14  C   UNL     1       7.186  -4.919  10.362  1.00  0.00    -0.051 A 
ATOM     15  C   UNL     1       6.878  -3.821   9.402  1.00  0.00     0.044 C 
ENDBRANCH   7   9
ENDBRANCH   1   7
BRANCH   4  16
ATOM     16  N   UNL     1      12.724  -9.056  14.198  1.00  0.00     0.066 N 
ATOM     17  O   UNL     1      13.319  -9.947  14.851  1.00  0.00    -0.258 OA
ATOM     18  O   UNL     1      13.145  -7.877  14.139  1.00  0.00    -0.258 OA
ENDBRANCH   4  16
BRANCH   5  19
ATOM     19  O   UNL     1      10.229 -11.954  11.225  1.00  0.00    -0.504 OA
ATOM     20  H   UNL     1       9.484 -12.511  11.506  1.00  0.00     0.293 HD
ENDBRANCH   5  19
BRANCH   6  21
ATOM     21  O   UNL     1      12.567 -11.339  12.556  1.00  0.00    -0.500 OA
ATOM     22  H   UNL     1      13.073 -11.347  13.383  1.00  0.00     0.294 HD
ENDBRANCH   6  21
TORSDOF 5
ENDMDL
MODEL 5
REMARK VINA RESULT:    -3.454      6.539      9.168
REMARK INTER + INTRA:          -4.987
REMARK INTER:                  -3.966
REMARK INTRA:                  -1.021
REMARK UNBOUND:                -0.726
REMARK SMILES Cc1ccc(C(=O)c2cc(O)c(O)c([N+](=O)[O-])c2)cc1
REMARK SMILES IDX 8 1 18 2 9 3 14 4 10 5 12 6 6 7 7 8 5 9 4 10 19 11 3 12
REMARK SMILES IDX 20 13 2 14 1 15 15 16 17 17 16 18 11 19 13 21
REMARK H PARENT 11 20 13 22
ROOT
ATOM      1  C   UNL     1       7.043  -3.909  10.166  1.00  0.00     0.033 A 
ATOM      2  C   UNL     1       6.455  -3.548   8.976  1.00  0.00     0.102 A 
ATOM      3  C   UNL     1       8.083  -3.207  10.728  1.00  0.00     0.063 A 
ATOM      4  C   UNL     1       6.933  -2.419   8.311  1.00  0.00     0.315 A 
ATOM      5  C   UNL     1       8.562  -2.078  10.063  1.00  0.00     0.165 A 
ATOM      6  C   UNL     1       7.986  -1.684   8.854  1.00  0.00     0.237 A 
ENDROOT
BRANCH   1   7
ATOM      7  C   UNL     1       6.531  -5.118  10.879  1.00  0.00     0.193 C 
ATOM      8  O   UNL     1       5.336  -5.120  11.210  1.00  0.00    -0.289 OA
BRANCH   7   9
ATOM      9  C   UNL     1       7.377  -6.261  11.183  1.00  0.00     0.023 A 
ATOM     10  C   UNL     1       7.800  -6.486  12.493  1.00  0.00     0.012 A 
ATOM     11  C   UNL     1       7.766  -7.131  10.165  1.00  0.00     0.012 A 
ATOM     12  C   UNL     1       8.612  -7.582  12.785  1.00  0.00     0.004 A 
ATOM     13  C   UNL     1       8.579  -8.228  10.457  1.00  0.00     0.004 A 
ATOM     14  C   UNL     1       9.001  -8.454  11.767  1.00  0.00    -0.051 A 
ATOM     15  C   UNL     1       9.870  -9.624  12.079  1.00  0.00     0.044 C 
ENDBRANCH   7   9
ENDBRANCH   1   7
BRANCH   4  16
ATOM     16  N   UNL     1       6.334  -2.033   7.081  1.00  0.00     0.066 N 
ATOM     17  O   UNL     1       6.314  -0.817   6.772  1.00  0.00    -0.258 OA
ATOM     18  O   UNL     1       5.845  -2.918   6.341  1.00  0.00    -0.258 OA
ENDBRANCH   4  16
BRANCH   5  19
ATOM     19  O   UNL     1       9.591  -1.369  10.605  1.00  0.00    -0.504 OA
ATOM     20  H   UNL     1       9.240  -0.700  11.216  1.00  0.00     0.293 HD
ENDBRANCH   5  19
BRANCH   6  21
ATOM     21  O   UNL     1       8.463  -0.577   8.213  1.00  0.00    -0.500 OA
ATOM     22  H   UNL     1       9.303  -0.790   7.778  1.00  0.00     0.294 HD
ENDBRANCH   6  21
TORSDOF 5
ENDMDL
MODEL 6
REMARK VINA RESULT:    -3.392      9.319     11.531
REMARK INTER + INTRA:          -4.910
REMARK INTER:                  -4.205
REMARK INTRA:                  -0.706
REMARK UNBOUND:                -0.726
REMARK SMILES Cc1ccc(C(=O)c2cc(O)c(O)c([N+](=O)[O-])c2)cc1
REMARK SMILES IDX 8 1 18 2 9 3 14 4 10 5 12 6 6 7 7 8 5 9 4 10 19 11 3 12
REMARK SMILES IDX 20 13 2 14 1 15 15 16 17 17 16 18 11 19 13 21
REMARK H PARENT 11 20 13 22
ROOT
ATOM      1  C   UNL     1       9.745  -9.168  13.412  1.00  0.00     0.033 A 
ATOM      2  C   UNL     1       9.830 -10.097  14.423  1.00  0.00     0.102 A 
ATOM      3  C   UNL     1      10.800  -8.367  13.044  1.00  0.00     0.063 A 
ATOM      4  C   UNL     1      11.041 -10.234  15.103  1.00  0.00     0.315 A 
ATOM      5  C   UNL     1      12.010  -8.503  13.725  1.00  0.00     0.165 A 
ATOM      6  C   UNL     1      12.131  -9.437  14.754  1.00  0.00     0.237 A 
ENDROOT
BRANCH   1   7
ATOM      7  C   UNL     1       8.449  -9.021  12.684  1.00  0.00     0.193 C 
ATOM      8  O   UNL     1       7.707 -10.014  12.638  1.00  0.00    -0.289 OA
BRANCH   7   9
ATOM      9  C   UNL     1       8.049  -7.777  12.047  1.00  0.00     0.023 A 
ATOM     10  C   UNL     1       8.028  -6.592  12.783  1.00  0.00     0.012 A 
ATOM     11  C   UNL     1       7.687  -7.768  10.700  1.00  0.00     0.012 A 
ATOM     12  C   UNL     1       7.645  -5.398  12.171  1.00  0.00     0.004 A 
ATOM     13  C   UNL     1       7.303  -6.574  10.088  1.00  0.00     0.004 A 
ATOM     14  C   UNL     1       7.282  -5.389  10.823  1.00  0.00    -0.051 A 
ATOM     15  C   UNL     1       6.871  -4.113  10.171  1.00  0.00     0.044 C 
ENDBRANCH   7   9
ENDBRANCH   1   7
BRANCH   4  16
ATOM     16  N   UNL     1      11.144 -11.191  16.150  1.00  0.00     0.066 N 
ATOM     17  O   UNL     1      10.122 -11.463  16.825  1.00  0.00    -0.258 OA
ATOM     18  O   UNL     1      12.252 -11.734  16.366  1.00  0.00    -0.258 OA
ENDBRANCH   4  16
BRANCH   5  19
ATOM     19  O   UNL     1      13.067  -7.718  13.373  1.00  0.00    -0.504 OA
ATOM     20  H   UNL     1      13.131  -7.673  12.404  1.00  0.00     0.293 HD
ENDBRANCH   5  19
BRANCH   6  21
ATOM     21  O   UNL     1      13.320  -9.561  15.412  1.00  0.00    -0.500 OA
ATOM     22  H   UNL     1      14.045  -9.289  14.828  1.00  0.00     0.294 HD
ENDBRANCH   6  21
TORSDOF 5
ENDMDL
MODEL 7
REMARK VINA RESULT:    -3.386      2.518      4.162
REMARK INTER + INTRA:          -4.903
REMARK INTER:                  -4.274
REMARK INTRA:                  -0.629
REMARK UNBOUND:                -0.726
REMARK SMILES Cc1ccc(C(=O)c2cc(O)c(O)c([N+](=O)[O-])c2)cc1
REMARK SMILES IDX 8 1 18 2 9 3 14 4 10 5 12 6 6 7 7 8 5 9 4 10 19 11 3 12
REMARK SMILES IDX 20 13 2 14 1 15 15 16 17 17 16 18 11 19 13 21
REMARK H PARENT 11 20 13 22
ROOT
ATOM      1  C   UNL     1       9.695   0.308  11.153  1.00  0.00     0.033 A 
ATOM      2  C   UNL     1      10.819  -0.217  11.748  1.00  0.00     0.102 A 
ATOM      3  C   UNL     1       8.985   1.355  11.693  1.00  0.00     0.063 A 
ATOM      4  C   UNL     1      11.258   0.337  12.950  1.00  0.00     0.315 A 
ATOM      5  C   UNL     1       9.423   1.908  12.896  1.00  0.00     0.165 A 
ATOM      6  C   UNL     1      10.561   1.400  13.524  1.00  0.00     0.237 A 
ENDROOT
BRANCH   1   7
ATOM      7  C   UNL     1       9.224  -0.285   9.865  1.00  0.00     0.193 C 
ATOM      8  O   UNL     1       9.479   0.340   8.824  1.00  0.00    -0.289 OA
BRANCH   7   9
ATOM      9  C   UNL     1       8.497  -1.542   9.806  1.00  0.00     0.023 A 
ATOM     10  C   UNL     1       8.697  -2.512  10.788  1.00  0.00     0.012 A 
ATOM     11  C   UNL     1       7.597  -1.779   8.766  1.00  0.00     0.012 A 
ATOM     12  C   UNL     1       7.999  -3.717  10.731  1.00  0.00     0.004 A 
ATOM     13  C   UNL     1       6.898  -2.985   8.709  1.00  0.00     0.004 A 
ATOM     14  C   UNL     1       7.099  -3.955   9.692  1.00  0.00    -0.051 A 
ATOM     15  C   UNL     1       6.354  -5.244   9.630  1.00  0.00     0.044 C 
ENDBRANCH   7   9
ENDBRANCH   1   7
BRANCH   4  16
ATOM     16  N   UNL     1      12.418  -0.195  13.576  1.00  0.00     0.066 N 
ATOM     17  O   UNL     1      13.320   0.593  13.952  1.00  0.00    -0.258 OA
ATOM     18  O   UNL     1      12.507  -1.435  13.735  1.00  0.00    -0.258 OA
ENDBRANCH   4  16
BRANCH   5  19
ATOM     19  O   UNL     1       8.732   2.946  13.445  1.00  0.00    -0.504 OA
ATOM     20  H   UNL     1       8.632   3.654  12.788  1.00  0.00     0.293 HD
ENDBRANCH   5  19
BRANCH   6  21
ATOM     21  O   UNL     1      10.980   1.950  14.701  1.00  0.00    -0.500 OA
ATOM     22  H   UNL     1      11.016   2.915  14.614  1.00  0.00     0.294 HD
ENDBRANCH   6  21
TORSDOF 5
ENDMDL
MODEL 8
REMARK VINA RESULT:    -3.382     10.470     12.668
REMARK INTER + INTRA:          -4.898
REMARK INTER:                  -4.018
REMARK INTRA:                  -0.880
REMARK UNBOUND:                -0.726
REMARK SMILES Cc1ccc(C(=O)c2cc(O)c(O)c([N+](=O)[O-])c2)cc1
REMARK SMILES IDX 8 1 18 2 9 3 14 4 10 5 12 6 6 7 7 8 5 9 4 10 19 11 3 12
REMARK SMILES IDX 20 13 2 14 1 15 15 16 17 17 16 18 11 19 13 21
REMARK H PARENT 11 20 13 22
ROOT
ATOM      1  C   UNL     1       9.265 -10.011  12.983  1.00  0.00     0.033 A 
ATOM      2  C   UNL     1       8.070 -10.606  13.314  1.00  0.00     0.102 A 
ATOM      3  C   UNL     1      10.385 -10.095  13.776  1.00  0.00     0.063 A 
ATOM      4  C   UNL     1       7.991 -11.328  14.505  1.00  0.00     0.315 A 
ATOM      5  C   UNL     1      10.306 -10.816  14.968  1.00  0.00     0.165 A 
ATOM      6  C   UNL     1       9.109 -11.433  15.332  1.00  0.00     0.237 A 
ENDROOT
BRANCH   1   7
ATOM      7  C   UNL     1       9.349  -9.238  11.707  1.00  0.00     0.193 C 
ATOM      8  O   UNL     1      10.114  -9.668  10.831  1.00  0.00    -0.289 OA
BRANCH   7   9
ATOM      9  C   UNL     1       8.578  -8.027  11.477  1.00  0.00     0.023 A 
ATOM     10  C   UNL     1       8.388  -7.113  12.513  1.00  0.00     0.012 A 
ATOM     11  C   UNL     1       8.027  -7.779  10.220  1.00  0.00     0.012 A 
ATOM     12  C   UNL     1       7.648  -5.951  12.292  1.00  0.00     0.004 A 
ATOM     13  C   UNL     1       7.287  -6.617   9.997  1.00  0.00     0.004 A 
ATOM     14  C   UNL     1       7.098  -5.703  11.034  1.00  0.00    -0.051 A 
ATOM     15  C   UNL     1       6.306  -4.462  10.798  1.00  0.00     0.044 C 
ENDBRANCH   7   9
ENDBRANCH   1   7
BRANCH   4  16
ATOM     16  N   UNL     1       6.762 -11.949  14.860  1.00  0.00     0.066 N 
ATOM     17  O   UNL     1       6.529 -12.183  16.070  1.00  0.00    -0.258 OA
ATOM     18  O   UNL     1       5.949 -12.245  13.953  1.00  0.00    -0.258 OA
ENDBRANCH   4  16
BRANCH   5  19
ATOM     19  O   UNL     1      11.406 -10.910  15.766  1.00  0.00    -0.504 OA
ATOM     20  H   UNL     1      12.179 -10.553  15.298  1.00  0.00     0.293 HD
ENDBRANCH   5  19
BRANCH   6  21
ATOM     21  O   UNL     1       9.044 -12.136  16.500  1.00  0.00    -0.500 OA
ATOM     22  H   UNL     1       8.757 -11.550  17.218  1.00  0.00     0.294 HD
ENDBRANCH   6  21
TORSDOF 5
ENDMDL
