MODEL 1
REMARK VINA RESULT:    -4.670      0.000      0.000
REMARK INTER + INTRA:          -6.567
REMARK INTER:                  -5.489
REMARK INTRA:                  -1.078
REMARK UNBOUND:                -1.078
REMARK SMILES O=C(O)c1cc(-c2ccc(F)cc2F)ccc1O
REMARK SMILES IDX 6 1 5 2 15 3 4 4 17 5 16 6 7 7 13 8 12 9 8 10 10 11 9 12
REMARK SMILES IDX 14 13 11 14 2 15 1 16 3 17 18 19
REMARK H PARENT 3 18 18 20
ROOT
ATOM      1  C   UNL     1      10.359   1.993  13.272  1.00  0.00    -0.014 A 
ATOM      2  C   UNL     1      11.410   2.900  13.150  1.00  0.00     0.028 A 
ATOM      3  C   UNL     1       9.559   2.000  14.415  1.00  0.00     0.013 A 
ATOM      4  C   UNL     1      11.663   3.816  14.172  1.00  0.00     0.102 A 
ATOM      5  C   UNL     1      10.864   3.824  15.315  1.00  0.00     0.130 A 
ATOM      6  C   UNL     1       9.811   2.915  15.436  1.00  0.00     0.048 A 
ENDROOT
BRANCH   1   7
ATOM      7  C   UNL     1      10.097   1.041  12.213  1.00  0.00     0.018 A 
ATOM      8  C   UNL     1      10.751  -0.191  12.201  1.00  0.00     0.133 A 
ATOM      9  C   UNL     1      10.495  -1.105  11.178  1.00  0.00     0.079 A 
ATOM     10  C   UNL     1       9.187   1.359  11.204  1.00  0.00     0.015 A 
ATOM     11  C   UNL     1       9.587  -0.787  10.169  1.00  0.00     0.126 A 
ATOM     12  C   UNL     1       8.932   0.445  10.183  1.00  0.00     0.040 A 
ATOM     13  F   UNL     1      11.630  -0.510  13.161  1.00  0.00    -0.206 F 
ATOM     14  F   UNL     1       9.341  -1.664   9.187  1.00  0.00    -0.207 F 
ENDBRANCH   1   7
BRANCH   4  15
ATOM     15  C   UNL     1      12.766   4.756  14.026  1.00  0.00     0.339 C 
ATOM     16  O   UNL     1      13.320   5.356  14.950  1.00  0.00    -0.246 OA
BRANCH  15  17
ATOM     17  O   UNL     1      13.142   4.916  12.728  1.00  0.00    -0.478 OA
ATOM     18  H   UNL     1      13.705   5.709  12.606  1.00  0.00     0.297 HD
ENDBRANCH  15  17
ENDBRANCH   4  15
BRANCH   5  19
ATOM     19  O   UNL     1      11.094   4.711  16.324  1.00  0.00    -0.507 OA
ATOM     20  H   UNL     1      12.034   4.672  16.572  1.00  0.00     0.293 HD
ENDBRANCH   5  19
TORSDOF 4
ENDMDL
MODEL 2
REMARK VINA RESULT:    -4.053     10.072     12.153
REMARK INTER + INTRA:          -5.842
REMARK INTER:                  -4.892
REMARK INTRA:                  -0.949
REMARK UNBOUND:                -1.078
REMARK SMILES O=C(O)c1cc(-c2ccc(F)cc2F)ccc1O
REMARK SMILES IDX 6 1 5 2 15 3 4 4 17 5 16 6 7 7 13 8 12 9 8 10 10 11 9 12
REMARK SMILES IDX 14 13 11 14 2 15 1 16 3 17 18 19
REMARK H PARENT 3 18 18 20
ROOT
ATOM      1  C   UNL     1       8.701  -8.615  11.693  1.00  0.00    -0.014 A 
ATOM      2  C   UNL     1       8.077  -9.543  12.526  1.00  0.00     0.028 A 
ATOM      3  C   UNL     1       9.974  -8.879  11.186  1.00  0.00     0.013 A 
ATOM      4  C   UNL     1       8.725 -10.735  12.853  1.00  0.00     0.102 A 
ATOM      5  C   UNL     1       9.997 -10.998  12.346  1.00  0.00     0.130 A 
ATOM      6  C   UNL     1      10.622 -10.070  11.512  1.00  0.00     0.048 A 
ENDROOT
BRANCH   1   7
ATOM      7  C   UNL     1       8.031  -7.379  11.355  1.00  0.00     0.018 A 
ATOM      8  C   UNL     1       7.948  -6.348  12.291  1.00  0.00     0.133 A 
ATOM      9  C   UNL     1       7.300  -5.157  11.961  1.00  0.00     0.079 A 
ATOM     10  C   UNL     1       7.468  -7.218  10.089  1.00  0.00     0.015 A 
ATOM     11  C   UNL     1       6.736  -4.997  10.696  1.00  0.00     0.126 A 
ATOM     12  C   UNL     1       6.821  -6.028   9.760  1.00  0.00     0.040 A 
ATOM     13  F   UNL     1       8.482  -6.487  13.513  1.00  0.00    -0.206 F 
ATOM     14  F   UNL     1       6.114  -3.855  10.378  1.00  0.00    -0.207 F 
ENDBRANCH   1   7
BRANCH   4  15
ATOM     15  C   UNL     1       8.056 -11.690  13.725  1.00  0.00     0.339 C 
ATOM     16  O   UNL     1       8.566 -12.245  14.701  1.00  0.00    -0.246 OA
BRANCH  15  17
ATOM     17  O   UNL     1       6.769 -11.921  13.349  1.00  0.00    -0.478 OA
ATOM     18  H   UNL     1       6.649 -12.829  12.997  1.00  0.00     0.297 HD
ENDBRANCH  15  17
ENDBRANCH   4  15
BRANCH   5  19
ATOM     19  O   UNL     1      10.647 -12.156  12.653  1.00  0.00    -0.507 OA
ATOM     20  H   UNL     1      11.293 -11.981  13.359  1.00  0.00     0.293 HD
ENDBRANCH   5  19
TORSDOF 4
ENDMDL
MODEL 3
REMARK VINA RESULT:    -3.936      3.632      5.341
REMARK INTER + INTRA:          -5.704
REMARK INTER:                  -4.670
REMARK INTRA:                  -1.034
REMARK UNBOUND:                -1.078
REMARK SMILES O=C(O)c1cc(-c2ccc(F)cc2F)ccc1O
REMARK SMILES IDX 6 1 5 2 15 3 4 4 17 5 16 6 7 7 13 8 12 9 8 10 10 11 9 12
REMARK SMILES IDX 14 13 11 14 2 15 1 16 3 17 18 19
REMARK H PARENT 3 18 18 20
ROOT
ATOM      1  C   UNL     1       8.946  -0.915  10.331  1.00  0.00    -0.014 A 
ATOM      2  C   UNL     1       9.824  -1.687  11.091  1.00  0.00     0.028 A 
ATOM      3  C   UNL     1       8.947   0.473  10.460  1.00  0.00     0.013 A 
ATOM      4  C   UNL     1      10.705  -1.071  11.980  1.00  0.00     0.102 A 
ATOM      5  C   UNL     1      10.707   0.318  12.109  1.00  0.00     0.130 A 
ATOM      6  C   UNL     1       9.827   1.091  11.349  1.00  0.00     0.048 A 
ENDROOT
BRANCH   1   7
ATOM      7  C   UNL     1       8.031  -1.554   9.410  1.00  0.00     0.018 A 
ATOM      8  C   UNL     1       8.496  -2.045   8.189  1.00  0.00     0.133 A 
ATOM      9  C   UNL     1       7.610  -2.660   7.303  1.00  0.00     0.079 A 
ATOM     10  C   UNL     1       6.683  -1.680   9.745  1.00  0.00     0.015 A 
ATOM     11  C   UNL     1       6.263  -2.785   7.638  1.00  0.00     0.126 A 
ATOM     12  C   UNL     1       5.799  -2.295   8.859  1.00  0.00     0.040 A 
ATOM     13  F   UNL     1       9.788  -1.930   7.850  1.00  0.00    -0.206 F 
ATOM     14  F   UNL     1       5.412  -3.375   6.789  1.00  0.00    -0.207 F 
ENDBRANCH   1   7
BRANCH   4  15
ATOM     15  C   UNL     1      11.615  -1.894  12.764  1.00  0.00     0.339 C 
ATOM     16  O   UNL     1      12.379  -1.480  13.639  1.00  0.00    -0.246 OA
BRANCH  15  17
ATOM     17  O   UNL     1      11.541  -3.211  12.429  1.00  0.00    -0.478 OA
ATOM     18  H   UNL     1      12.037  -3.407  11.606  1.00  0.00     0.297 HD
ENDBRANCH  15  17
ENDBRANCH   4  15
BRANCH   5  19
ATOM     19  O   UNL     1      11.560   0.940  12.971  1.00  0.00    -0.507 OA
ATOM     20  H   UNL     1      12.409   0.465  12.976  1.00  0.00     0.293 HD
ENDBRANCH   5  19
TORSDOF 4
ENDMDL
MODEL 4
REMARK VINA RESULT:    -3.919      7.748      8.871
REMARK INTER + INTRA:          -5.685
REMARK INTER:                  -4.652
REMARK INTRA:                  -1.032
REMARK UNBOUND:                -1.078
REMARK SMILES O=C(O)c1cc(-c2ccc(F)cc2F)ccc1O
REMARK SMILES IDX 6 1 5 2 15 3 4 4 17 5 16 6 7 7 13 8 12 9 8 10 10 11 9 12
REMARK SMILES IDX 14 13 11 14 2 15 1 16 3 17 18 19
REMARK H PARENT 3 18 18 20
ROOT
ATOM      1  C   UNL     1       7.368  -4.966  10.373  1.00  0.00    -0.014 A 
ATOM      2  C   UNL     1       7.802  -4.660  11.662  1.00  0.00     0.028 A 
ATOM      3  C   UNL     1       7.205  -6.297   9.989  1.00  0.00     0.013 A 
ATOM      4  C   UNL     1       8.075  -5.685  12.568  1.00  0.00     0.102 A 
ATOM      5  C   UNL     1       7.912  -7.016  12.185  1.00  0.00     0.130 A 
ATOM      6  C   UNL     1       7.476  -7.322  10.895  1.00  0.00     0.048 A 
ENDROOT
BRANCH   1   7
ATOM      7  C   UNL     1       7.086  -3.903   9.432  1.00  0.00     0.018 A 
ATOM      8  C   UNL     1       5.913  -3.157   9.548  1.00  0.00     0.133 A 
ATOM      9  C   UNL     1       5.646  -2.133   8.639  1.00  0.00     0.079 A 
ATOM     10  C   UNL     1       7.991  -3.625   8.408  1.00  0.00     0.015 A 
ATOM     11  C   UNL     1       6.550  -1.856   7.614  1.00  0.00     0.126 A 
ATOM     12  C   UNL     1       7.723  -2.602   7.499  1.00  0.00     0.040 A 
ATOM     13  F   UNL     1       5.032  -3.413  10.525  1.00  0.00    -0.206 F 
ATOM     14  F   UNL     1       6.294  -0.874   6.741  1.00  0.00    -0.207 F 
ENDBRANCH   1   7
BRANCH   4  15
ATOM     15  C   UNL     1       8.528  -5.344  13.910  1.00  0.00     0.339 C 
ATOM     16  O   UNL     1       8.868  -6.155  14.776  1.00  0.00    -0.246 OA
BRANCH  15  17
ATOM     17  O   UNL     1       8.543  -4.001  14.126  1.00  0.00    -0.478 OA
ATOM     18  H   UNL     1       9.167  -3.754  14.841  1.00  0.00     0.297 HD
ENDBRANCH  15  17
ENDBRANCH   4  15
BRANCH   5  19
ATOM     19  O   UNL     1       8.172  -8.032  13.055  1.00  0.00    -0.507 OA
ATOM     20  H   UNL     1       9.023  -7.863  13.496  1.00  0.00     0.293 HD
ENDBRANCH   5  19
TORSDOF 4
ENDMDL
MODEL 5
REMARK VINA RESULT:    -3.595      3.852      6.257
REMARK INTER + INTRA:          -5.304
REMARK INTER:                  -4.243
REMARK INTRA:                  -1.061
REMARK UNBOUND:                -1.078
REMARK SMILES O=C(O)c1cc(-c2ccc(F)cc2F)ccc1O
REMARK SMILES IDX 6 1 5 2 15 3 4 4 17 5 16 6 7 7 13 8 12 9 8 10 10 11 9 12
REMARK SMILES IDX 14 13 11 14 2 15 1 16 3 17 18 19
REMARK H PARENT 3 18 18 20
ROOT
ATOM      1  C   UNL     1      10.636   1.495  13.062  1.00  0.00    -0.014 A 
ATOM      2  C   UNL     1      11.092   0.190  13.236  1.00  0.00     0.028 A 
ATOM      3  C   UNL     1       9.870   1.823  11.943  1.00  0.00     0.013 A 
ATOM      4  C   UNL     1      10.782  -0.790  12.292  1.00  0.00     0.102 A 
ATOM      5  C   UNL     1      10.016  -0.462  11.173  1.00  0.00     0.130 A 
ATOM      6  C   UNL     1       9.560   0.845  10.999  1.00  0.00     0.048 A 
ENDROOT
BRANCH   1   7
ATOM      7  C   UNL     1      10.958   2.512  14.040  1.00  0.00     0.018 A 
ATOM      8  C   UNL     1      10.084   2.769  15.097  1.00  0.00     0.133 A 
ATOM      9  C   UNL     1      10.398   3.750  16.038  1.00  0.00     0.079 A 
ATOM     10  C   UNL     1      12.145   3.235  13.925  1.00  0.00     0.015 A 
ATOM     11  C   UNL     1      11.585   4.473  15.922  1.00  0.00     0.126 A 
ATOM     12  C   UNL     1      12.458   4.215  14.865  1.00  0.00     0.040 A 
ATOM     13  F   UNL     1       8.938   2.085  15.221  1.00  0.00    -0.206 F 
ATOM     14  F   UNL     1      11.887   5.415  16.824  1.00  0.00    -0.207 F 
ENDBRANCH   1   7
BRANCH   4  15
ATOM     15  C   UNL     1      11.268  -2.148  12.493  1.00  0.00     0.339 C 
ATOM     16  O   UNL     1      12.439  -2.461  12.722  1.00  0.00    -0.246 OA
BRANCH  15  17
ATOM     17  O   UNL     1      10.273  -3.073  12.403  1.00  0.00    -0.478 OA
ATOM     18  H   UNL     1       9.404  -2.699  12.658  1.00  0.00     0.297 HD
ENDBRANCH  15  17
ENDBRANCH   4  15
BRANCH   5  19
ATOM     19  O   UNL     1       9.702  -1.405  10.240  1.00  0.00    -0.507 OA
ATOM     20  H   UNL     1      10.430  -2.048  10.181  1.00  0.00     0.293 HD
ENDBRANCH   5  19
TORSDOF 4
ENDMDL
MODEL 6
REMARK VINA RESULT:    -3.308     11.124     12.773
REMARK INTER + INTRA:          -4.967
REMARK INTER:                  -4.162
REMARK INTRA:                  -0.805
REMARK UNBOUND:                -1.078
REMARK SMILES O=C(O)c1cc(-c2ccc(F)cc2F)ccc1O
REMARK SMILES IDX 6 1 5 2 15 3 4 4 17 5 16 6 7 7 13 8 12 9 8 10 10 11 9 12
REMARK SMILES IDX 14 13 11 14 2 15 1 16 3 17 18 19
REMARK H PARENT 3 18 18 20
ROOT
ATOM      1  C   UNL     1       9.278  -9.835  13.931  1.00  0.00    -0.014 A 
ATOM      2  C   UNL     1       9.103  -9.549  12.578  1.00  0.00     0.028 A 
ATOM      3  C   UNL     1      10.483  -9.524  14.560  1.00  0.00     0.013 A 
ATOM      4  C   UNL     1      10.134  -8.951  11.852  1.00  0.00     0.102 A 
ATOM      5  C   UNL     1      11.339  -8.641  12.481  1.00  0.00     0.130 A 
ATOM      6  C   UNL     1      11.514  -8.927  13.835  1.00  0.00     0.048 A 
ENDROOT
BRANCH   1   7
ATOM      7  C   UNL     1       8.209 -10.456  14.684  1.00  0.00     0.018 A 
ATOM      8  C   UNL     1       7.749  -9.867  15.863  1.00  0.00     0.133 A 
ATOM      9  C   UNL     1       6.719 -10.470  16.586  1.00  0.00     0.079 A 
ATOM     10  C   UNL     1       7.639 -11.644  14.229  1.00  0.00     0.015 A 
ATOM     11  C   UNL     1       6.149 -11.658  16.131  1.00  0.00     0.126 A 
ATOM     12  C   UNL     1       6.609 -12.245  14.952  1.00  0.00     0.040 A 
ATOM     13  F   UNL     1       8.289  -8.727  16.316  1.00  0.00    -0.206 F 
ATOM     14  F   UNL     1       5.161 -12.237  16.824  1.00  0.00    -0.207 F 
ENDBRANCH   1   7
BRANCH   4  15
ATOM     15  C   UNL     1       9.931  -8.660  10.439  1.00  0.00     0.339 C 
ATOM     16  O   UNL     1       8.880  -8.253   9.938  1.00  0.00    -0.246 OA
BRANCH  15  17
ATOM     17  O   UNL     1      11.050  -8.886   9.698  1.00  0.00    -0.478 OA
ATOM     18  H   UNL     1      10.979  -8.494   8.802  1.00  0.00     0.297 HD
ENDBRANCH  15  17
ENDBRANCH   4  15
BRANCH   5  19
ATOM     19  O   UNL     1      12.359  -8.056  11.790  1.00  0.00    -0.507 OA
ATOM     20  H   UNL     1      12.171  -8.115  10.837  1.00  0.00     0.293 HD
ENDBRANCH   5  19
TORSDOF 4
ENDMDL
MODEL 7
REMARK VINA RESULT:    -3.235      9.464     11.451
REMARK INTER + INTRA:          -4.881
REMARK INTER:                  -3.950
REMARK INTRA:                  -0.930
REMARK UNBOUND:                -1.078
REMARK SMILES O=C(O)c1cc(-c2ccc(F)cc2F)ccc1O
REMARK SMILES IDX 6 1 5 2 15 3 4 4 17 5 16 6 7 7 13 8 12 9 8 10 10 11 9 12
REMARK SMILES IDX 14 13 11 14 2 15 1 16 3 17 18 19
REMARK H PARENT 3 18 18 20
ROOT
ATOM      1  C   UNL     1       8.982  -8.838  12.460  1.00  0.00    -0.014 A 
ATOM      2  C   UNL     1      10.311  -8.771  12.877  1.00  0.00     0.028 A 
ATOM      3  C   UNL     1       8.288 -10.046  12.534  1.00  0.00     0.013 A 
ATOM      4  C   UNL     1      10.947  -9.911  13.369  1.00  0.00     0.102 A 
ATOM      5  C   UNL     1      10.253 -11.119  13.443  1.00  0.00     0.130 A 
ATOM      6  C   UNL     1       8.923 -11.186  13.026  1.00  0.00     0.048 A 
ENDROOT
BRANCH   1   7
ATOM      7  C   UNL     1       8.323  -7.656  11.949  1.00  0.00     0.018 A 
ATOM      8  C   UNL     1       8.119  -6.553  12.779  1.00  0.00     0.133 A 
ATOM      9  C   UNL     1       7.482  -5.415  12.282  1.00  0.00     0.079 A 
ATOM     10  C   UNL     1       7.892  -7.620  10.623  1.00  0.00     0.015 A 
ATOM     11  C   UNL     1       7.050  -5.380  10.957  1.00  0.00     0.126 A 
ATOM     12  C   UNL     1       7.256  -6.483  10.127  1.00  0.00     0.040 A 
ATOM     13  F   UNL     1       8.525  -6.572  14.057  1.00  0.00    -0.206 F 
ATOM     14  F   UNL     1       6.439  -4.289  10.479  1.00  0.00    -0.207 F 
ENDBRANCH   1   7
BRANCH   4  15
ATOM     15  C   UNL     1      12.335  -9.820  13.800  1.00  0.00     0.339 C 
ATOM     16  O   UNL     1      13.042 -10.773  14.138  1.00  0.00    -0.246 OA
BRANCH  15  17
ATOM     17  O   UNL     1      12.796  -8.540  13.794  1.00  0.00    -0.478 OA
ATOM     18  H   UNL     1      12.109  -7.906  13.501  1.00  0.00     0.297 HD
ENDBRANCH  15  17
ENDBRANCH   4  15
BRANCH   5  19
ATOM     19  O   UNL     1      10.855 -12.244  13.921  1.00  0.00    -0.507 OA
ATOM     20  H   UNL     1      11.747 -12.017  14.237  1.00  0.00     0.293 HD
ENDBRANCH   5  19
TORSDOF 4
ENDMDL
MODEL 8
REMARK VINA RESULT:    -3.156      9.494     11.247
REMARK INTER + INTRA:          -4.787
REMARK INTER:                  -3.731
REMARK INTRA:                  -1.056
REMARK UNBOUND:                -1.078
REMARK SMILES O=C(O)c1cc(-c2ccc(F)cc2F)ccc1O
REMARK SMILES IDX 6 1 5 2 15 3 4 4 17 5 16 6 7 7 13 8 12 9 8 10 10 11 9 12
REMARK SMILES IDX 14 13 11 14 2 15 1 16 3 17 18 19
REMARK H PARENT 3 18 18 20
ROOT
ATOM      1  C   UNL     1       8.828  -7.925  13.506  1.00  0.00    -0.014 A 
ATOM      2  C   UNL     1       8.040  -8.786  14.270  1.00  0.00     0.028 A 
ATOM      3  C   UNL     1      10.190  -7.799  13.779  1.00  0.00     0.013 A 
ATOM      4  C   UNL     1       8.614  -9.522  15.307  1.00  0.00     0.102 A 
ATOM      5  C   UNL     1       9.977  -9.396  15.580  1.00  0.00     0.130 A 
ATOM      6  C   UNL     1      10.765  -8.535  14.815  1.00  0.00     0.048 A 
ENDROOT
BRANCH   1   7
ATOM      7  C   UNL     1       8.233  -7.161  12.431  1.00  0.00     0.018 A 
ATOM      8  C   UNL     1       7.886  -5.824  12.631  1.00  0.00     0.133 A 
ATOM      9  C   UNL     1       7.312  -5.090  11.592  1.00  0.00     0.079 A 
ATOM     10  C   UNL     1       8.007  -7.762  11.194  1.00  0.00     0.015 A 
ATOM     11  C   UNL     1       7.086  -5.692  10.355  1.00  0.00     0.126 A 
ATOM     12  C   UNL     1       7.434  -7.029  10.156  1.00  0.00     0.040 A 
ATOM     13  F   UNL     1       8.094  -5.231  13.815  1.00  0.00    -0.206 F 
ATOM     14  F   UNL     1       6.535  -4.989   9.358  1.00  0.00    -0.207 F 
ENDBRANCH   1   7
BRANCH   4  15
ATOM     15  C   UNL     1       7.775 -10.416  16.092  1.00  0.00     0.339 C 
ATOM     16  O   UNL     1       8.185 -11.320  16.824  1.00  0.00    -0.246 OA
BRANCH  15  17
ATOM     17  O   UNL     1       6.449 -10.151  15.938  1.00  0.00    -0.478 OA
ATOM     18  H   UNL     1       5.941 -10.955  15.704  1.00  0.00     0.297 HD
ENDBRANCH  15  17
ENDBRANCH   4  15
BRANCH   5  19
ATOM     19  O   UNL     1      10.557 -10.107  16.588  1.00  0.00    -0.507 OA
ATOM     20  H   UNL     1      11.033 -10.866  16.208  1.00  0.00     0.293 HD
ENDBRANCH   5  19
TORSDOF 4
ENDMDL
MODEL 9
REMARK VINA RESULT:    -3.058      8.961     10.556
REMARK INTER + INTRA:          -4.673
REMARK INTER:                  -3.594
REMARK INTRA:                  -1.079
REMARK UNBOUND:                -1.078
REMARK SMILES O=C(O)c1cc(-c2ccc(F)cc2F)ccc1O
REMARK SMILES IDX 6 1 5 2 15 3 4 4 17 5 16 6 7 7 13 8 12 9 8 10 10 11 9 12
REMARK SMILES IDX 14 13 11 14 2 15 1 16 3 17 18 19
REMARK H PARENT 3 18 18 20
ROOT
ATOM      1  C   UNL     1       9.042  -7.953  13.396  1.00  0.00    -0.014 A 
ATOM      2  C   UNL     1      10.435  -7.917  13.442  1.00  0.00     0.028 A 
ATOM      3  C   UNL     1       8.332  -8.704  14.333  1.00  0.00     0.013 A 
ATOM      4  C   UNL     1      11.120  -8.633  14.425  1.00  0.00     0.102 A 
ATOM      5  C   UNL     1      10.410  -9.384  15.361  1.00  0.00     0.130 A 
ATOM      6  C   UNL     1       9.015  -9.420  15.315  1.00  0.00     0.048 A 
ENDROOT
BRANCH   1   7
ATOM      7  C   UNL     1       8.331  -7.212  12.376  1.00  0.00     0.018 A 
ATOM      8  C   UNL     1       8.091  -7.790  11.129  1.00  0.00     0.133 A 
ATOM      9  C   UNL     1       7.406  -7.072  10.149  1.00  0.00     0.079 A 
ATOM     10  C   UNL     1       7.885  -5.918  12.643  1.00  0.00     0.015 A 
ATOM     11  C   UNL     1       6.961  -5.778  10.415  1.00  0.00     0.126 A 
ATOM     12  C   UNL     1       7.200  -5.201  11.663  1.00  0.00     0.040 A 
ATOM     13  F   UNL     1       8.516  -9.032  10.856  1.00  0.00    -0.206 F 
ATOM     14  F   UNL     1       6.303  -5.088   9.475  1.00  0.00    -0.207 F 
ENDBRANCH   1   7
BRANCH   4  15
ATOM     15  C   UNL     1      12.575  -8.582  14.456  1.00  0.00     0.339 C 
ATOM     16  O   UNL     1      13.305  -9.393  15.031  1.00  0.00    -0.246 OA
BRANCH  15  17
ATOM     17  O   UNL     1      13.071  -7.520  13.765  1.00  0.00    -0.478 OA
ATOM     18  H   UNL     1      14.051  -7.524  13.744  1.00  0.00     0.297 HD
ENDBRANCH  15  17
ENDBRANCH   4  15
BRANCH   5  19
ATOM     19  O   UNL     1      11.060 -10.090  16.330  1.00  0.00    -0.507 OA
ATOM     20  H   UNL     1      10.404 -10.557  16.876  1.00  0.00     0.293 HD
ENDBRANCH   5  19
TORSDOF 4
ENDMDL
