REMARK SMILES Cc1ccc(C(=O)c2cc(O)c(O)c([N+](=O)[O-])c2)cc1
REMARK SMILES IDX 8 1 18 2 9 3 14 4 10 5 12 6 6 7 7 8 5 9 4 10 19 11 3 12
REMARK SMILES IDX 20 13 2 14 1 15 15 16 17 17 16 18 11 19 13 21
REMARK H PARENT 11 20 13 22
ROOT
ATOM      1  C   UNL     1      -0.443   0.511   0.688  1.00  0.00     0.033 A 
ATOM      2  C   UNL     1      -1.185  -0.647   0.659  1.00  0.00     0.102 A 
ATOM      3  C   UNL     1      -0.891   1.698   0.159  1.00  0.00     0.063 A 
ATOM      4  C   UNL     1      -2.448  -0.615   0.068  1.00  0.00     0.315 A 
ATOM      5  C   UNL     1      -2.154   1.730  -0.433  1.00  0.00     0.165 A 
ATOM      6  C   UNL     1      -2.933   0.573  -0.478  1.00  0.00     0.237 A 
ENDROOT
BRANCH   1   7
ATOM      7  C   UNL     1       0.910   0.477   1.321  1.00  0.00     0.193 C 
ATOM      8  O   UNL     1       0.977   0.727   2.534  1.00  0.00    -0.289 OA
BRANCH   7   9
ATOM      9  C   UNL     1       2.115   0.166   0.569  1.00  0.00     0.023 A 
ATOM     10  C   UNL     1       2.033  -0.115  -0.795  1.00  0.00     0.012 A 
ATOM     11  C   UNL     1       3.353   0.149   1.211  1.00  0.00     0.012 A 
ATOM     12  C   UNL     1       3.189  -0.413  -1.516  1.00  0.00     0.004 A 
ATOM     13  C   UNL     1       4.510  -0.149   0.490  1.00  0.00     0.004 A 
ATOM     14  C   UNL     1       4.428  -0.430  -0.874  1.00  0.00    -0.051 A 
ATOM     15  C   UNL     1       5.663  -0.750  -1.645  1.00  0.00     0.044 C 
ENDBRANCH   7   9
ENDBRANCH   1   7
BRANCH   4  16
ATOM     16  N   UNL     1      -3.227  -1.804   0.031  1.00  0.00     0.066 N 
ATOM     17  O   UNL     1      -2.756  -2.853   0.533  1.00  0.00    -0.258 OA
ATOM     18  O   UNL     1      -4.361  -1.769  -0.501  1.00  0.00    -0.258 OA
ENDBRANCH   4  16
BRANCH   5  19
ATOM     19  O   UNL     1      -2.615   2.898  -0.962  1.00  0.00    -0.504 OA
ATOM     20  H   UNL     1      -3.294   2.707  -1.630  1.00  0.00     0.293 HD
ENDBRANCH   5  19
BRANCH   6  21
ATOM     21  O   UNL     1      -4.167   0.617  -1.059  1.00  0.00    -0.500 OA
ATOM     22  H   UNL     1      -4.507   1.525  -1.034  1.00  0.00     0.294 HD
ENDBRANCH   6  21
TORSDOF 5
