MODEL 1
REMARK VINA RESULT:    -6.791      0.000      0.000
REMARK INTER + INTRA:          -8.507
REMARK INTER:                  -7.982
REMARK INTRA:                  -0.525
REMARK UNBOUND:                -0.525
REMARK SMILES O=C(O)c1cc(-c2ccc(F)cc2F)ccc1O
REMARK SMILES IDX 6 1 5 2 15 3 4 4 17 5 16 6 7 7 13 8 12 9 8 10 10 11 9 12
REMARK SMILES IDX 14 13 11 14 2 15 1 16 3 17 18 19
REMARK H PARENT 3 18 18 20
ROOT
ATOM      1  C   UNL     1      -7.738   1.773  -0.950  1.00  0.00    -0.014 A 
ATOM      2  C   UNL     1      -7.389   0.931  -2.005  1.00  0.00     0.028 A 
ATOM      3  C   UNL     1      -6.756   2.242  -0.077  1.00  0.00     0.013 A 
ATOM      4  C   UNL     1      -6.057   0.557  -2.188  1.00  0.00     0.102 A 
ATOM      5  C   UNL     1      -5.076   1.025  -1.315  1.00  0.00     0.130 A 
ATOM      6  C   UNL     1      -5.425   1.868  -0.259  1.00  0.00     0.048 A 
ENDROOT
BRANCH   1   7
ATOM      7  C   UNL     1      -9.119   2.161  -0.759  1.00  0.00     0.018 A 
ATOM      8  C   UNL     1      -9.913   2.490  -1.859  1.00  0.00     0.133 A 
ATOM      9  C   UNL     1     -11.244   2.864  -1.670  1.00  0.00     0.079 A 
ATOM     10  C   UNL     1      -9.656   2.204   0.527  1.00  0.00     0.015 A 
ATOM     11  C   UNL     1     -11.781   2.908  -0.384  1.00  0.00     0.126 A 
ATOM     12  C   UNL     1     -10.987   2.578   0.715  1.00  0.00     0.040 A 
ATOM     13  F   UNL     1      -9.411   2.456  -3.101  1.00  0.00    -0.206 F 
ATOM     14  F   UNL     1     -13.058   3.266  -0.202  1.00  0.00    -0.207 F 
ENDBRANCH   1   7
BRANCH   4  15
ATOM     15  C   UNL     1      -5.713  -0.323  -3.296  1.00  0.00     0.339 C 
ATOM     16  O   UNL     1      -5.077  -1.375  -3.201  1.00  0.00    -0.246 OA
BRANCH  15  17
ATOM     17  O   UNL     1      -6.178   0.139  -4.488  1.00  0.00    -0.478 OA
ATOM     18  H   UNL     1      -5.452   0.278  -5.133  1.00  0.00     0.297 HD
ENDBRANCH  15  17
ENDBRANCH   4  15
BRANCH   5  19
ATOM     19  O   UNL     1      -3.769   0.672  -1.476  1.00  0.00    -0.507 OA
ATOM     20  H   UNL     1      -3.296   0.813  -0.638  1.00  0.00     0.293 HD
ENDBRANCH   5  19
TORSDOF 4
ENDMDL
MODEL 2
REMARK VINA RESULT:    -6.779      1.648      3.145
REMARK INTER + INTRA:          -8.493
REMARK INTER:                  -7.971
REMARK INTRA:                  -0.522
REMARK UNBOUND:                -0.525
REMARK SMILES O=C(O)c1cc(-c2ccc(F)cc2F)ccc1O
REMARK SMILES IDX 6 1 5 2 15 3 4 4 17 5 16 6 7 7 13 8 12 9 8 10 10 11 9 12
REMARK SMILES IDX 14 13 11 14 2 15 1 16 3 17 18 19
REMARK H PARENT 3 18 18 20
ROOT
ATOM      1  C   UNL     1      -7.760   1.690  -0.946  1.00  0.00    -0.014 A 
ATOM      2  C   UNL     1      -6.820   2.181  -0.041  1.00  0.00     0.028 A 
ATOM      3  C   UNL     1      -7.358   0.844  -1.980  1.00  0.00     0.013 A 
ATOM      4  C   UNL     1      -5.477   1.825  -0.168  1.00  0.00     0.102 A 
ATOM      5  C   UNL     1      -5.075   0.978  -1.202  1.00  0.00     0.130 A 
ATOM      6  C   UNL     1      -6.016   0.488  -2.108  1.00  0.00     0.048 A 
ENDROOT
BRANCH   1   7
ATOM      7  C   UNL     1      -9.153   2.060  -0.816  1.00  0.00     0.018 A 
ATOM      8  C   UNL     1      -9.748   2.114   0.445  1.00  0.00     0.133 A 
ATOM      9  C   UNL     1     -11.092   2.470   0.567  1.00  0.00     0.079 A 
ATOM     10  C   UNL     1      -9.900   2.364  -1.953  1.00  0.00     0.015 A 
ATOM     11  C   UNL     1     -11.839   2.774  -0.571  1.00  0.00     0.126 A 
ATOM     12  C   UNL     1     -11.243   2.721  -1.831  1.00  0.00     0.040 A 
ATOM     13  F   UNL     1      -9.045   1.822   1.548  1.00  0.00    -0.206 F 
ATOM     14  F   UNL     1     -13.128   3.116  -0.455  1.00  0.00    -0.207 F 
ENDBRANCH   1   7
BRANCH   4  15
ATOM     15  C   UNL     1      -4.510   2.347   0.788  1.00  0.00     0.339 C 
ATOM     16  O   UNL     1      -3.469   2.941   0.498  1.00  0.00    -0.246 OA
BRANCH  15  17
ATOM     17  O   UNL     1      -4.877   2.111   2.077  1.00  0.00    -0.478 OA
ATOM     18  H   UNL     1      -5.712   2.570   2.308  1.00  0.00     0.297 HD
ENDBRANCH  15  17
ENDBRANCH   4  15
BRANCH   5  19
ATOM     19  O   UNL     1      -3.768   0.618  -1.343  1.00  0.00    -0.507 OA
ATOM     20  H   UNL     1      -3.243   1.050  -0.648  1.00  0.00     0.293 HD
ENDBRANCH   5  19
TORSDOF 4
ENDMDL
MODEL 3
REMARK VINA RESULT:    -6.756      1.240      2.716
REMARK INTER + INTRA:          -8.466
REMARK INTER:                  -7.945
REMARK INTRA:                  -0.520
REMARK UNBOUND:                -0.525
REMARK SMILES O=C(O)c1cc(-c2ccc(F)cc2F)ccc1O
REMARK SMILES IDX 6 1 5 2 15 3 4 4 17 5 16 6 7 7 13 8 12 9 8 10 10 11 9 12
REMARK SMILES IDX 14 13 11 14 2 15 1 16 3 17 18 19
REMARK H PARENT 3 18 18 20
ROOT
ATOM      1  C   UNL     1      -7.752   1.733  -0.957  1.00  0.00    -0.014 A 
ATOM      2  C   UNL     1      -6.812   2.211  -0.045  1.00  0.00     0.028 A 
ATOM      3  C   UNL     1      -7.351   0.890  -1.994  1.00  0.00     0.013 A 
ATOM      4  C   UNL     1      -5.470   1.848  -0.170  1.00  0.00     0.102 A 
ATOM      5  C   UNL     1      -5.070   1.005  -1.207  1.00  0.00     0.130 A 
ATOM      6  C   UNL     1      -6.011   0.526  -2.119  1.00  0.00     0.048 A 
ENDROOT
BRANCH   1   7
ATOM      7  C   UNL     1      -9.143   2.110  -0.829  1.00  0.00     0.018 A 
ATOM      8  C   UNL     1      -9.884   2.445  -1.963  1.00  0.00     0.133 A 
ATOM      9  C   UNL     1     -11.225   2.809  -1.835  1.00  0.00     0.079 A 
ATOM     10  C   UNL     1      -9.742   2.138   0.430  1.00  0.00     0.015 A 
ATOM     11  C   UNL     1     -11.824   2.837  -0.576  1.00  0.00     0.126 A 
ATOM     12  C   UNL     1     -11.082   2.501   0.556  1.00  0.00     0.040 A 
ATOM     13  F   UNL     1      -9.323   2.427  -3.180  1.00  0.00    -0.206 F 
ATOM     14  F   UNL     1     -13.111   3.186  -0.453  1.00  0.00    -0.207 F 
ENDBRANCH   1   7
BRANCH   4  15
ATOM     15  C   UNL     1      -4.504   2.358   0.793  1.00  0.00     0.339 C 
ATOM     16  O   UNL     1      -3.458   2.947   0.511  1.00  0.00    -0.246 OA
BRANCH  15  17
ATOM     17  O   UNL     1      -4.878   2.117   2.079  1.00  0.00    -0.478 OA
ATOM     18  H   UNL     1      -4.334   1.413   2.491  1.00  0.00     0.297 HD
ENDBRANCH  15  17
ENDBRANCH   4  15
BRANCH   5  19
ATOM     19  O   UNL     1      -3.765   0.638  -1.345  1.00  0.00    -0.507 OA
ATOM     20  H   UNL     1      -3.702  -0.065  -2.015  1.00  0.00     0.293 HD
ENDBRANCH   5  19
TORSDOF 4
ENDMDL
MODEL 4
REMARK VINA RESULT:    -5.485      4.585      6.919
REMARK INTER + INTRA:          -6.972
REMARK INTER:                  -5.895
REMARK INTRA:                  -1.078
REMARK UNBOUND:                -0.525
REMARK SMILES O=C(O)c1cc(-c2ccc(F)cc2F)ccc1O
REMARK SMILES IDX 6 1 5 2 15 3 4 4 17 5 16 6 7 7 13 8 12 9 8 10 10 11 9 12
REMARK SMILES IDX 14 13 11 14 2 15 1 16 3 17 18 19
REMARK H PARENT 3 18 18 20
ROOT
ATOM      1  C   UNL     1     -10.244   2.475  -0.459  1.00  0.00    -0.014 A 
ATOM      2  C   UNL     1     -10.684   3.728  -0.036  1.00  0.00     0.028 A 
ATOM      3  C   UNL     1     -11.169   1.504  -0.843  1.00  0.00     0.013 A 
ATOM      4  C   UNL     1     -12.049   4.012   0.003  1.00  0.00     0.102 A 
ATOM      5  C   UNL     1     -12.974   3.042  -0.382  1.00  0.00     0.130 A 
ATOM      6  C   UNL     1     -12.534   1.787  -0.805  1.00  0.00     0.048 A 
ENDROOT
BRANCH   1   7
ATOM      7  C   UNL     1      -8.828   2.179  -0.498  1.00  0.00     0.018 A 
ATOM      8  C   UNL     1      -8.175   1.728   0.650  1.00  0.00     0.133 A 
ATOM      9  C   UNL     1      -6.809   1.444   0.608  1.00  0.00     0.079 A 
ATOM     10  C   UNL     1      -8.117   2.344  -1.686  1.00  0.00     0.015 A 
ATOM     11  C   UNL     1      -6.098   1.611  -0.580  1.00  0.00     0.126 A 
ATOM     12  C   UNL     1      -6.752   2.060  -1.727  1.00  0.00     0.040 A 
ATOM     13  F   UNL     1      -8.843   1.566   1.801  1.00  0.00    -0.206 F 
ATOM     14  F   UNL     1      -4.788   1.339  -0.621  1.00  0.00    -0.207 F 
ENDBRANCH   1   7
BRANCH   4  15
ATOM     15  C   UNL     1     -12.489   5.328   0.447  1.00  0.00     0.339 C 
ATOM     16  O   UNL     1     -13.648   5.747   0.400  1.00  0.00    -0.246 OA
BRANCH  15  17
ATOM     17  O   UNL     1     -11.464   6.078   0.937  1.00  0.00    -0.478 OA
ATOM     18  H   UNL     1     -11.653   7.038   0.875  1.00  0.00     0.297 HD
ENDBRANCH  15  17
ENDBRANCH   4  15
BRANCH   5  19
ATOM     19  O   UNL     1     -14.313   3.299  -0.352  1.00  0.00    -0.507 OA
ATOM     20  H   UNL     1     -14.708   2.836   0.407  1.00  0.00     0.293 HD
ENDBRANCH   5  19
TORSDOF 4
ENDMDL
MODEL 5
REMARK VINA RESULT:    -5.478      4.070      6.318
REMARK INTER + INTRA:          -6.964
REMARK INTER:                  -5.885
REMARK INTRA:                  -1.079
REMARK UNBOUND:                -0.525
REMARK SMILES O=C(O)c1cc(-c2ccc(F)cc2F)ccc1O
REMARK SMILES IDX 6 1 5 2 15 3 4 4 17 5 16 6 7 7 13 8 12 9 8 10 10 11 9 12
REMARK SMILES IDX 14 13 11 14 2 15 1 16 3 17 18 19
REMARK H PARENT 3 18 18 20
ROOT
ATOM      1  C   UNL     1     -10.309   2.359  -0.851  1.00  0.00    -0.014 A 
ATOM      2  C   UNL     1     -11.400   1.527  -1.095  1.00  0.00     0.028 A 
ATOM      3  C   UNL     1     -10.509   3.637  -0.330  1.00  0.00     0.013 A 
ATOM      4  C   UNL     1     -12.693   1.973  -0.820  1.00  0.00     0.102 A 
ATOM      5  C   UNL     1     -12.893   3.252  -0.300  1.00  0.00     0.130 A 
ATOM      6  C   UNL     1     -11.800   4.084  -0.055  1.00  0.00     0.048 A 
ENDROOT
BRANCH   1   7
ATOM      7  C   UNL     1      -8.967   1.897  -1.137  1.00  0.00     0.018 A 
ATOM      8  C   UNL     1      -8.438   2.035  -2.421  1.00  0.00     0.133 A 
ATOM      9  C   UNL     1      -7.145   1.588  -2.693  1.00  0.00     0.079 A 
ATOM     10  C   UNL     1      -8.203   1.314  -0.127  1.00  0.00     0.015 A 
ATOM     11  C   UNL     1      -6.381   1.005  -1.683  1.00  0.00     0.126 A 
ATOM     12  C   UNL     1      -6.911   0.868  -0.399  1.00  0.00     0.040 A 
ATOM     13  F   UNL     1      -9.160   2.591  -3.404  1.00  0.00    -0.206 F 
ATOM     14  F   UNL     1      -5.140   0.576  -1.943  1.00  0.00    -0.207 F 
ENDBRANCH   1   7
BRANCH   4  15
ATOM     15  C   UNL     1     -13.821   1.089  -1.082  1.00  0.00     0.339 C 
ATOM     16  O   UNL     1     -14.987   1.299  -0.740  1.00  0.00    -0.246 OA
BRANCH  15  17
ATOM     17  O   UNL     1     -13.454  -0.030  -1.765  1.00  0.00    -0.478 OA
ATOM     18  H   UNL     1     -13.366  -0.806  -1.173  1.00  0.00     0.297 HD
ENDBRANCH  15  17
ENDBRANCH   4  15
BRANCH   5  19
ATOM     19  O   UNL     1     -14.148   3.707  -0.023  1.00  0.00    -0.507 OA
ATOM     20  H   UNL     1     -14.530   3.170   0.693  1.00  0.00     0.293 HD
ENDBRANCH   5  19
TORSDOF 4
ENDMDL
MODEL 6
REMARK VINA RESULT:    -5.437      4.363      6.686
REMARK INTER + INTRA:          -6.916
REMARK INTER:                  -5.862
REMARK INTRA:                  -1.054
REMARK UNBOUND:                -0.525
REMARK SMILES O=C(O)c1cc(-c2ccc(F)cc2F)ccc1O
REMARK SMILES IDX 6 1 5 2 15 3 4 4 17 5 16 6 7 7 13 8 12 9 8 10 10 11 9 12
REMARK SMILES IDX 14 13 11 14 2 15 1 16 3 17 18 19
REMARK H PARENT 3 18 18 20
ROOT
ATOM      1  C   UNL     1     -10.320   2.420  -0.766  1.00  0.00    -0.014 A 
ATOM      2  C   UNL     1     -10.575   3.674  -0.212  1.00  0.00     0.028 A 
ATOM      3  C   UNL     1     -11.380   1.576  -1.097  1.00  0.00     0.013 A 
ATOM      4  C   UNL     1     -11.889   4.085   0.011  1.00  0.00     0.102 A 
ATOM      5  C   UNL     1     -12.949   3.241  -0.320  1.00  0.00     0.130 A 
ATOM      6  C   UNL     1     -12.694   1.985  -0.875  1.00  0.00     0.048 A 
ENDROOT
BRANCH   1   7
ATOM      7  C   UNL     1      -8.957   1.993  -0.997  1.00  0.00     0.018 A 
ATOM      8  C   UNL     1      -8.402   2.081  -2.274  1.00  0.00     0.133 A 
ATOM      9  C   UNL     1      -7.087   1.668  -2.492  1.00  0.00     0.079 A 
ATOM     10  C   UNL     1      -8.198   1.493   0.061  1.00  0.00     0.015 A 
ATOM     11  C   UNL     1      -6.329   1.168  -1.434  1.00  0.00     0.126 A 
ATOM     12  C   UNL     1      -6.884   1.081  -0.158  1.00  0.00     0.040 A 
ATOM     13  F   UNL     1      -9.119   2.557  -3.302  1.00  0.00    -0.206 F 
ATOM     14  F   UNL     1      -5.067   0.771  -1.642  1.00  0.00    -0.207 F 
ENDBRANCH   1   7
BRANCH   4  15
ATOM     15  C   UNL     1     -12.134   5.398   0.590  1.00  0.00     0.339 C 
ATOM     16  O   UNL     1     -13.210   5.786   1.052  1.00  0.00    -0.246 OA
BRANCH  15  17
ATOM     17  O   UNL     1     -11.025   6.186   0.575  1.00  0.00    -0.478 OA
ATOM     18  H   UNL     1     -10.227   5.698   0.869  1.00  0.00     0.297 HD
ENDBRANCH  15  17
ENDBRANCH   4  15
BRANCH   5  19
ATOM     19  O   UNL     1     -14.241   3.623  -0.111  1.00  0.00    -0.507 OA
ATOM     20  H   UNL     1     -14.834   2.909  -0.402  1.00  0.00     0.293 HD
ENDBRANCH   5  19
TORSDOF 4
ENDMDL
MODEL 7
REMARK VINA RESULT:    -5.434      4.164      6.445
REMARK INTER + INTRA:          -6.913
REMARK INTER:                  -5.859
REMARK INTRA:                  -1.053
REMARK UNBOUND:                -0.525
REMARK SMILES O=C(O)c1cc(-c2ccc(F)cc2F)ccc1O
REMARK SMILES IDX 6 1 5 2 15 3 4 4 17 5 16 6 7 7 13 8 12 9 8 10 10 11 9 12
REMARK SMILES IDX 14 13 11 14 2 15 1 16 3 17 18 19
REMARK H PARENT 3 18 18 20
ROOT
ATOM      1  C   UNL     1     -10.268   2.438  -0.534  1.00  0.00    -0.014 A 
ATOM      2  C   UNL     1     -11.233   1.519  -0.943  1.00  0.00     0.028 A 
ATOM      3  C   UNL     1     -10.656   3.681  -0.033  1.00  0.00     0.013 A 
ATOM      4  C   UNL     1     -12.587   1.841  -0.852  1.00  0.00     0.102 A 
ATOM      5  C   UNL     1     -12.976   3.083  -0.350  1.00  0.00     0.130 A 
ATOM      6  C   UNL     1     -12.010   4.003   0.059  1.00  0.00     0.048 A 
ENDROOT
BRANCH   1   7
ATOM      7  C   UNL     1      -8.863   2.106  -0.630  1.00  0.00     0.018 A 
ATOM      8  C   UNL     1      -8.165   1.679   0.500  1.00  0.00     0.133 A 
ATOM      9  C   UNL     1      -6.810   1.360   0.403  1.00  0.00     0.079 A 
ATOM     10  C   UNL     1      -8.207   2.211  -1.857  1.00  0.00     0.015 A 
ATOM     11  C   UNL     1      -6.154   1.466  -0.823  1.00  0.00     0.126 A 
ATOM     12  C   UNL     1      -6.853   1.891  -1.953  1.00  0.00     0.040 A 
ATOM     13  F   UNL     1      -8.780   1.575   1.687  1.00  0.00    -0.206 F 
ATOM     14  F   UNL     1      -4.854   1.159  -0.917  1.00  0.00    -0.207 F 
ENDBRANCH   1   7
BRANCH   4  15
ATOM     15  C   UNL     1     -13.579   0.866  -1.284  1.00  0.00     0.339 C 
ATOM     16  O   UNL     1     -14.763   1.113  -1.527  1.00  0.00    -0.246 OA
BRANCH  15  17
ATOM     17  O   UNL     1     -13.059  -0.386  -1.401  1.00  0.00    -0.478 OA
ATOM     18  H   UNL     1     -12.814  -0.594  -2.327  1.00  0.00     0.297 HD
ENDBRANCH  15  17
ENDBRANCH   4  15
BRANCH   5  19
ATOM     19  O   UNL     1     -14.294   3.417  -0.252  1.00  0.00    -0.507 OA
ATOM     20  H   UNL     1     -14.444   4.256  -0.721  1.00  0.00     0.293 HD
ENDBRANCH   5  19
TORSDOF 4
ENDMDL
MODEL 8
REMARK VINA RESULT:    -4.962      1.435      1.729
REMARK INTER + INTRA:          -6.358
REMARK INTER:                  -5.525
REMARK INTRA:                  -0.832
REMARK UNBOUND:                -0.525
REMARK SMILES O=C(O)c1cc(-c2ccc(F)cc2F)ccc1O
REMARK SMILES IDX 6 1 5 2 15 3 4 4 17 5 16 6 7 7 13 8 12 9 8 10 10 11 9 12
REMARK SMILES IDX 14 13 11 14 2 15 1 16 3 17 18 19
REMARK H PARENT 3 18 18 20
ROOT
ATOM      1  C   UNL     1      -8.910   1.629  -0.731  1.00  0.00    -0.014 A 
ATOM      2  C   UNL     1      -8.387   1.181  -1.944  1.00  0.00     0.028 A 
ATOM      3  C   UNL     1      -8.098   1.681   0.402  1.00  0.00     0.013 A 
ATOM      4  C   UNL     1      -7.051   0.786  -2.024  1.00  0.00     0.102 A 
ATOM      5  C   UNL     1      -6.239   0.838  -0.891  1.00  0.00     0.130 A 
ATOM      6  C   UNL     1      -6.763   1.286   0.323  1.00  0.00     0.048 A 
ENDROOT
BRANCH   1   7
ATOM      7  C   UNL     1     -10.295   2.038  -0.647  1.00  0.00     0.018 A 
ATOM      8  C   UNL     1     -10.621   3.319  -0.201  1.00  0.00     0.133 A 
ATOM      9  C   UNL     1     -11.958   3.710  -0.122  1.00  0.00     0.079 A 
ATOM     10  C   UNL     1     -11.305   1.149  -1.014  1.00  0.00     0.015 A 
ATOM     11  C   UNL     1     -12.968   2.820  -0.487  1.00  0.00     0.126 A 
ATOM     12  C   UNL     1     -12.641   1.540  -0.934  1.00  0.00     0.040 A 
ATOM     13  F   UNL     1      -9.663   4.185   0.157  1.00  0.00    -0.206 F 
ATOM     14  F   UNL     1     -14.252   3.194  -0.411  1.00  0.00    -0.207 F 
ENDBRANCH   1   7
BRANCH   4  15
ATOM     15  C   UNL     1      -6.523   0.321  -3.300  1.00  0.00     0.339 C 
ATOM     16  O   UNL     1      -5.520  -0.381  -3.444  1.00  0.00    -0.246 OA
BRANCH  15  17
ATOM     17  O   UNL     1      -7.269   0.749  -4.355  1.00  0.00    -0.478 OA
ATOM     18  H   UNL     1      -6.726   1.231  -5.014  1.00  0.00     0.297 HD
ENDBRANCH  15  17
ENDBRANCH   4  15
BRANCH   5  19
ATOM     19  O   UNL     1      -4.932   0.457  -0.948  1.00  0.00    -0.507 OA
ATOM     20  H   UNL     1      -4.888  -0.508  -1.064  1.00  0.00     0.293 HD
ENDBRANCH   5  19
TORSDOF 4
ENDMDL
MODEL 9
REMARK VINA RESULT:    -4.959      2.036      3.271
REMARK INTER + INTRA:          -6.353
REMARK INTER:                  -5.426
REMARK INTRA:                  -0.927
REMARK UNBOUND:                -0.525
REMARK SMILES O=C(O)c1cc(-c2ccc(F)cc2F)ccc1O
REMARK SMILES IDX 6 1 5 2 15 3 4 4 17 5 16 6 7 7 13 8 12 9 8 10 10 11 9 12
REMARK SMILES IDX 14 13 11 14 2 15 1 16 3 17 18 19
REMARK H PARENT 3 18 18 20
ROOT
ATOM      1  C   UNL     1      -9.105   2.224  -0.980  1.00  0.00    -0.014 A 
ATOM      2  C   UNL     1      -8.302   2.172   0.158  1.00  0.00     0.028 A 
ATOM      3  C   UNL     1      -8.527   2.136  -2.247  1.00  0.00     0.013 A 
ATOM      4  C   UNL     1      -6.920   2.034   0.032  1.00  0.00     0.102 A 
ATOM      5  C   UNL     1      -6.341   1.947  -1.235  1.00  0.00     0.130 A 
ATOM      6  C   UNL     1      -7.145   1.998  -2.374  1.00  0.00     0.048 A 
ENDROOT
BRANCH   1   7
ATOM      7  C   UNL     1     -10.539   2.368  -0.850  1.00  0.00     0.018 A 
ATOM      8  C   UNL     1     -11.079   3.532  -0.300  1.00  0.00     0.133 A 
ATOM      9  C   UNL     1     -12.462   3.667  -0.175  1.00  0.00     0.079 A 
ATOM     10  C   UNL     1     -11.382   1.343  -1.276  1.00  0.00     0.015 A 
ATOM     11  C   UNL     1     -13.304   2.641  -0.601  1.00  0.00     0.126 A 
ATOM     12  C   UNL     1     -12.764   1.479  -1.152  1.00  0.00     0.040 A 
ATOM     13  F   UNL     1     -10.282   4.526   0.118  1.00  0.00    -0.206 F 
ATOM     14  F   UNL     1     -14.632   2.771  -0.482  1.00  0.00    -0.207 F 
ENDBRANCH   1   7
BRANCH   4  15
ATOM     15  C   UNL     1      -6.099   1.982   1.233  1.00  0.00     0.339 C 
ATOM     16  O   UNL     1      -4.890   2.222   1.282  1.00  0.00    -0.246 OA
BRANCH  15  17
ATOM     17  O   UNL     1      -6.815   1.632   2.336  1.00  0.00    -0.478 OA
ATOM     18  H   UNL     1      -6.801   2.337   3.018  1.00  0.00     0.297 HD
ENDBRANCH  15  17
ENDBRANCH   4  15
BRANCH   5  19
ATOM     19  O   UNL     1      -4.993   1.810  -1.380  1.00  0.00    -0.507 OA
ATOM     20  H   UNL     1      -4.708   2.301  -2.171  1.00  0.00     0.293 HD
ENDBRANCH   5  19
TORSDOF 4
ENDMDL
