MODEL 1
REMARK VINA RESULT:    -6.821      0.000      0.000
REMARK INTER + INTRA:          -8.699
REMARK INTER:                  -8.018
REMARK INTRA:                  -0.682
REMARK UNBOUND:                -0.682
REMARK SMILES O=C(O)c1cc(-c2ccc(F)cc2F)ccc1O
REMARK SMILES IDX 6 1 5 2 15 3 4 4 17 5 16 6 7 7 13 8 12 9 8 10 10 11 9 12
REMARK SMILES IDX 14 13 11 14 2 15 1 16 3 17 18 19
REMARK H PARENT 3 18 18 20
ROOT
ATOM      1  C   UNL     1       2.950   9.300   1.854  1.00  0.00    -0.014 A 
ATOM      2  C   UNL     1       2.371   8.438   2.784  1.00  0.00     0.028 A 
ATOM      3  C   UNL     1       3.081   8.904   0.523  1.00  0.00     0.013 A 
ATOM      4  C   UNL     1       1.923   7.179   2.385  1.00  0.00     0.102 A 
ATOM      5  C   UNL     1       2.053   6.783   1.054  1.00  0.00     0.130 A 
ATOM      6  C   UNL     1       2.633   7.646   0.122  1.00  0.00     0.048 A 
ENDROOT
BRANCH   1   7
ATOM      7  C   UNL     1       3.417  10.606   2.269  1.00  0.00     0.018 A 
ATOM      8  C   UNL     1       2.590  11.438   3.024  1.00  0.00     0.133 A 
ATOM      9  C   UNL     1       3.044  12.696   3.421  1.00  0.00     0.079 A 
ATOM     10  C   UNL     1       4.696  11.031   1.912  1.00  0.00     0.015 A 
ATOM     11  C   UNL     1       4.323  13.121   3.064  1.00  0.00     0.126 A 
ATOM     12  C   UNL     1       5.149  12.288   2.310  1.00  0.00     0.040 A 
ATOM     13  F   UNL     1       1.356  11.046   3.372  1.00  0.00    -0.206 F 
ATOM     14  F   UNL     1       4.759  14.329   3.445  1.00  0.00    -0.207 F 
ENDBRANCH   1   7
BRANCH   4  15
ATOM     15  C   UNL     1       1.320   6.294   3.372  1.00  0.00     0.339 C 
ATOM     16  O   UNL     1       1.568   5.092   3.498  1.00  0.00    -0.246 OA
BRANCH  15  17
ATOM     17  O   UNL     1       0.428   6.939   4.171  1.00  0.00    -0.478 OA
ATOM     18  H   UNL     1       0.854   7.297   4.978  1.00  0.00     0.297 HD
ENDBRANCH  15  17
ENDBRANCH   4  15
BRANCH   5  19
ATOM     19  O   UNL     1       1.621   5.557   0.642  1.00  0.00    -0.507 OA
ATOM     20  H   UNL     1       2.121   4.869   1.115  1.00  0.00     0.293 HD
ENDBRANCH   5  19
TORSDOF 4
ENDMDL
MODEL 2
REMARK VINA RESULT:    -6.819      1.135      1.615
REMARK INTER + INTRA:          -8.696
REMARK INTER:                  -8.019
REMARK INTRA:                  -0.677
REMARK UNBOUND:                -0.682
REMARK SMILES O=C(O)c1cc(-c2ccc(F)cc2F)ccc1O
REMARK SMILES IDX 6 1 5 2 15 3 4 4 17 5 16 6 7 7 13 8 12 9 8 10 10 11 9 12
REMARK SMILES IDX 14 13 11 14 2 15 1 16 3 17 18 19
REMARK H PARENT 3 18 18 20
ROOT
ATOM      1  C   UNL     1       3.010   9.263   1.819  1.00  0.00    -0.014 A 
ATOM      2  C   UNL     1       2.412   8.419   2.754  1.00  0.00     0.028 A 
ATOM      3  C   UNL     1       3.149   8.850   0.494  1.00  0.00     0.013 A 
ATOM      4  C   UNL     1       1.952   7.161   2.364  1.00  0.00     0.102 A 
ATOM      5  C   UNL     1       2.091   6.747   1.039  1.00  0.00     0.130 A 
ATOM      6  C   UNL     1       2.690   7.592   0.104  1.00  0.00     0.048 A 
ENDROOT
BRANCH   1   7
ATOM      7  C   UNL     1       3.488  10.568   2.223  1.00  0.00     0.018 A 
ATOM      8  C   UNL     1       4.780  10.975   1.888  1.00  0.00     0.133 A 
ATOM      9  C   UNL     1       5.238  12.233   2.279  1.00  0.00     0.079 A 
ATOM     10  C   UNL     1       2.654  11.420   2.946  1.00  0.00     0.015 A 
ATOM     11  C   UNL     1       4.404  13.085   3.004  1.00  0.00     0.126 A 
ATOM     12  C   UNL     1       3.111  12.678   3.336  1.00  0.00     0.040 A 
ATOM     13  F   UNL     1       5.596  10.167   1.196  1.00  0.00    -0.206 F 
ATOM     14  F   UNL     1       4.842  14.293   3.379  1.00  0.00    -0.207 F 
ENDBRANCH   1   7
BRANCH   4  15
ATOM     15  C   UNL     1       1.330   6.294   3.356  1.00  0.00     0.339 C 
ATOM     16  O   UNL     1       1.564   5.092   3.500  1.00  0.00    -0.246 OA
BRANCH  15  17
ATOM     17  O   UNL     1       0.435   6.959   4.136  1.00  0.00    -0.478 OA
ATOM     18  H   UNL     1       0.851   7.306   4.953  1.00  0.00     0.297 HD
ENDBRANCH  15  17
ENDBRANCH   4  15
BRANCH   5  19
ATOM     19  O   UNL     1       1.648   5.522   0.638  1.00  0.00    -0.507 OA
ATOM     20  H   UNL     1       2.138   5.252  -0.158  1.00  0.00     0.293 HD
ENDBRANCH   5  19
TORSDOF 4
ENDMDL
MODEL 3
REMARK VINA RESULT:    -6.777      1.695      3.184
REMARK INTER + INTRA:          -8.647
REMARK INTER:                  -7.931
REMARK INTRA:                  -0.716
REMARK UNBOUND:                -0.682
REMARK SMILES O=C(O)c1cc(-c2ccc(F)cc2F)ccc1O
REMARK SMILES IDX 6 1 5 2 15 3 4 4 17 5 16 6 7 7 13 8 12 9 8 10 10 11 9 12
REMARK SMILES IDX 14 13 11 14 2 15 1 16 3 17 18 19
REMARK H PARENT 3 18 18 20
ROOT
ATOM      1  C   UNL     1       3.081   9.253   1.822  1.00  0.00    -0.014 A 
ATOM      2  C   UNL     1       3.221   8.921   0.475  1.00  0.00     0.028 A 
ATOM      3  C   UNL     1       2.530   8.332   2.713  1.00  0.00     0.013 A 
ATOM      4  C   UNL     1       2.809   7.669   0.017  1.00  0.00     0.102 A 
ATOM      5  C   UNL     1       2.258   6.748   0.909  1.00  0.00     0.130 A 
ATOM      6  C   UNL     1       2.118   7.080   2.257  1.00  0.00     0.048 A 
ENDROOT
BRANCH   1   7
ATOM      7  C   UNL     1       3.506  10.552   2.296  1.00  0.00     0.018 A 
ATOM      8  C   UNL     1       4.780  11.029   1.986  1.00  0.00     0.133 A 
ATOM      9  C   UNL     1       5.186  12.282   2.446  1.00  0.00     0.079 A 
ATOM     10  C   UNL     1       2.638  11.329   3.064  1.00  0.00     0.015 A 
ATOM     11  C   UNL     1       4.318  13.058   3.214  1.00  0.00     0.126 A 
ATOM     12  C   UNL     1       3.044  12.581   3.522  1.00  0.00     0.040 A 
ATOM     13  F   UNL     1       5.627  10.294   1.252  1.00  0.00    -0.206 F 
ATOM     14  F   UNL     1       4.707  14.261   3.656  1.00  0.00    -0.207 F 
ENDBRANCH   1   7
BRANCH   4  15
ATOM     15  C   UNL     1       2.965   7.342  -1.393  1.00  0.00     0.339 C 
ATOM     16  O   UNL     1       2.143   6.729  -2.078  1.00  0.00    -0.246 OA
BRANCH  15  17
ATOM     17  O   UNL     1       4.142   7.794  -1.903  1.00  0.00    -0.478 OA
ATOM     18  H   UNL     1       4.765   7.060  -2.089  1.00  0.00     0.297 HD
ENDBRANCH  15  17
ENDBRANCH   4  15
BRANCH   5  19
ATOM     19  O   UNL     1       1.851   5.519   0.482  1.00  0.00    -0.507 OA
ATOM     20  H   UNL     1       1.511   5.595  -0.426  1.00  0.00     0.293 HD
ENDBRANCH   5  19
TORSDOF 4
ENDMDL
MODEL 4
REMARK VINA RESULT:    -5.354      4.390      6.738
REMARK INTER + INTRA:          -6.974
REMARK INTER:                  -5.892
REMARK INTRA:                  -1.082
REMARK UNBOUND:                -0.682
REMARK SMILES O=C(O)c1cc(-c2ccc(F)cc2F)ccc1O
REMARK SMILES IDX 6 1 5 2 15 3 4 4 17 5 16 6 7 7 13 8 12 9 8 10 10 11 9 12
REMARK SMILES IDX 14 13 11 14 2 15 1 16 3 17 18 19
REMARK H PARENT 3 18 18 20
ROOT
ATOM      1  C   UNL     1       3.862  11.750   2.748  1.00  0.00    -0.014 A 
ATOM      2  C   UNL     1       3.759  12.856   1.905  1.00  0.00     0.028 A 
ATOM      3  C   UNL     1       4.399  11.896   4.027  1.00  0.00     0.013 A 
ATOM      4  C   UNL     1       4.193  14.108   2.341  1.00  0.00     0.102 A 
ATOM      5  C   UNL     1       4.730  14.254   3.620  1.00  0.00     0.130 A 
ATOM      6  C   UNL     1       4.833  13.147   4.463  1.00  0.00     0.048 A 
ENDROOT
BRANCH   1   7
ATOM      7  C   UNL     1       3.413  10.450   2.296  1.00  0.00     0.018 A 
ATOM      8  C   UNL     1       2.113  10.025   2.568  1.00  0.00     0.133 A 
ATOM      9  C   UNL     1       1.684   8.771   2.131  1.00  0.00     0.079 A 
ATOM     10  C   UNL     1       4.284   9.623   1.587  1.00  0.00     0.015 A 
ATOM     11  C   UNL     1       2.555   7.944   1.423  1.00  0.00     0.126 A 
ATOM     12  C   UNL     1       3.855   8.371   1.150  1.00  0.00     0.040 A 
ATOM     13  F   UNL     1       1.264  10.806   3.251  1.00  0.00    -0.206 F 
ATOM     14  F   UNL     1       2.145   6.741   1.003  1.00  0.00    -0.207 F 
ENDBRANCH   1   7
BRANCH   4  15
ATOM     15  C   UNL     1       4.076  15.251   1.445  1.00  0.00     0.339 C 
ATOM     16  O   UNL     1       4.285  16.426   1.757  1.00  0.00    -0.246 OA
BRANCH  15  17
ATOM     17  O   UNL     1       3.704  14.888   0.188  1.00  0.00    -0.478 OA
ATOM     18  H   UNL     1       3.687  13.914   0.079  1.00  0.00     0.297 HD
ENDBRANCH  15  17
ENDBRANCH   4  15
BRANCH   5  19
ATOM     19  O   UNL     1       5.159  15.469   4.065  1.00  0.00    -0.507 OA
ATOM     20  H   UNL     1       5.242  15.440   5.034  1.00  0.00     0.293 HD
ENDBRANCH   5  19
TORSDOF 4
ENDMDL
MODEL 5
REMARK VINA RESULT:    -5.349      4.552      6.935
REMARK INTER + INTRA:          -6.969
REMARK INTER:                  -5.885
REMARK INTRA:                  -1.083
REMARK UNBOUND:                -0.682
REMARK SMILES O=C(O)c1cc(-c2ccc(F)cc2F)ccc1O
REMARK SMILES IDX 6 1 5 2 15 3 4 4 17 5 16 6 7 7 13 8 12 9 8 10 10 11 9 12
REMARK SMILES IDX 14 13 11 14 2 15 1 16 3 17 18 19
REMARK H PARENT 3 18 18 20
ROOT
ATOM      1  C   UNL     1       3.944  11.728   2.622  1.00  0.00    -0.014 A 
ATOM      2  C   UNL     1       3.832  12.864   1.822  1.00  0.00     0.028 A 
ATOM      3  C   UNL     1       4.453  11.833   3.916  1.00  0.00     0.013 A 
ATOM      4  C   UNL     1       4.229  14.107   2.316  1.00  0.00     0.102 A 
ATOM      5  C   UNL     1       4.738  14.213   3.610  1.00  0.00     0.130 A 
ATOM      6  C   UNL     1       4.850  13.075   4.411  1.00  0.00     0.048 A 
ENDROOT
BRANCH   1   7
ATOM      7  C   UNL     1       3.534  10.438   2.110  1.00  0.00     0.018 A 
ATOM      8  C   UNL     1       4.435   9.650   1.393  1.00  0.00     0.133 A 
ATOM      9  C   UNL     1       4.035   8.407   0.900  1.00  0.00     0.079 A 
ATOM     10  C   UNL     1       2.235   9.983   2.335  1.00  0.00     0.015 A 
ATOM     11  C   UNL     1       2.736   7.953   1.125  1.00  0.00     0.126 A 
ATOM     12  C   UNL     1       1.837   8.741   1.843  1.00  0.00     0.040 A 
ATOM     13  F   UNL     1       5.686  10.074   1.165  1.00  0.00    -0.206 F 
ATOM     14  F   UNL     1       2.352   6.760   0.653  1.00  0.00    -0.207 F 
ENDBRANCH   1   7
BRANCH   4  15
ATOM     15  C   UNL     1       4.104  15.282   1.465  1.00  0.00     0.339 C 
ATOM     16  O   UNL     1       4.348  16.441   1.808  1.00  0.00    -0.246 OA
BRANCH  15  17
ATOM     17  O   UNL     1       3.678  14.971   0.210  1.00  0.00    -0.478 OA
ATOM     18  H   UNL     1       3.545  14.006   0.100  1.00  0.00     0.297 HD
ENDBRANCH  15  17
ENDBRANCH   4  15
BRANCH   5  19
ATOM     19  O   UNL     1       5.131  15.418   4.112  1.00  0.00    -0.507 OA
ATOM     20  H   UNL     1       4.576  16.118   3.727  1.00  0.00     0.293 HD
ENDBRANCH   5  19
TORSDOF 4
ENDMDL
MODEL 6
REMARK VINA RESULT:    -5.312      4.159      6.484
REMARK INTER + INTRA:          -6.925
REMARK INTER:                  -5.846
REMARK INTRA:                  -1.079
REMARK UNBOUND:                -0.682
REMARK SMILES O=C(O)c1cc(-c2ccc(F)cc2F)ccc1O
REMARK SMILES IDX 6 1 5 2 15 3 4 4 17 5 16 6 7 7 13 8 12 9 8 10 10 11 9 12
REMARK SMILES IDX 14 13 11 14 2 15 1 16 3 17 18 19
REMARK H PARENT 3 18 18 20
ROOT
ATOM      1  C   UNL     1       3.958  11.753   2.574  1.00  0.00    -0.014 A 
ATOM      2  C   UNL     1       4.416  11.855   3.886  1.00  0.00     0.028 A 
ATOM      3  C   UNL     1       3.889  12.889   1.768  1.00  0.00     0.013 A 
ATOM      4  C   UNL     1       4.807  13.095   4.395  1.00  0.00     0.102 A 
ATOM      5  C   UNL     1       4.738  14.231   3.589  1.00  0.00     0.130 A 
ATOM      6  C   UNL     1       4.279  14.128   2.275  1.00  0.00     0.048 A 
ENDROOT
BRANCH   1   7
ATOM      7  C   UNL     1       3.551  10.468   2.046  1.00  0.00     0.018 A 
ATOM      8  C   UNL     1       4.467   9.673   1.356  1.00  0.00     0.133 A 
ATOM      9  C   UNL     1       4.071   8.435   0.849  1.00  0.00     0.079 A 
ATOM     10  C   UNL     1       2.242  10.024   2.231  1.00  0.00     0.015 A 
ATOM     11  C   UNL     1       2.762   7.992   1.033  1.00  0.00     0.126 A 
ATOM     12  C   UNL     1       1.847   8.787   1.725  1.00  0.00     0.040 A 
ATOM     13  F   UNL     1       5.728  10.085   1.167  1.00  0.00    -0.206 F 
ATOM     14  F   UNL     1       2.381   6.804   0.547  1.00  0.00    -0.207 F 
ENDBRANCH   1   7
BRANCH   4  15
ATOM     15  C   UNL     1       5.283  13.181   5.768  1.00  0.00     0.339 C 
ATOM     16  O   UNL     1       5.367  14.218   6.431  1.00  0.00    -0.246 OA
BRANCH  15  17
ATOM     17  O   UNL     1       5.638  11.967   6.271  1.00  0.00    -0.478 OA
ATOM     18  H   UNL     1       6.460  11.627   5.858  1.00  0.00     0.297 HD
ENDBRANCH  15  17
ENDBRANCH   4  15
BRANCH   5  19
ATOM     19  O   UNL     1       5.115  15.451   4.066  1.00  0.00    -0.507 OA
ATOM     20  H   UNL     1       5.962  15.360   4.536  1.00  0.00     0.293 HD
ENDBRANCH   5  19
TORSDOF 4
ENDMDL
MODEL 7
REMARK VINA RESULT:    -4.619      2.155      3.312
REMARK INTER + INTRA:          -6.111
REMARK INTER:                  -5.096
REMARK INTRA:                  -1.015
REMARK UNBOUND:                -0.682
REMARK SMILES O=C(O)c1cc(-c2ccc(F)cc2F)ccc1O
REMARK SMILES IDX 6 1 5 2 15 3 4 4 17 5 16 6 7 7 13 8 12 9 8 10 10 11 9 12
REMARK SMILES IDX 14 13 11 14 2 15 1 16 3 17 18 19
REMARK H PARENT 3 18 18 20
ROOT
ATOM      1  C   UNL     1       3.256  10.852   2.467  1.00  0.00    -0.014 A 
ATOM      2  C   UNL     1       4.013  10.157   1.526  1.00  0.00     0.028 A 
ATOM      3  C   UNL     1       1.954  10.442   2.755  1.00  0.00     0.013 A 
ATOM      4  C   UNL     1       3.470   9.051   0.871  1.00  0.00     0.102 A 
ATOM      5  C   UNL     1       2.168   8.641   1.159  1.00  0.00     0.130 A 
ATOM      6  C   UNL     1       1.410   9.336   2.102  1.00  0.00     0.048 A 
ENDROOT
BRANCH   1   7
ATOM      7  C   UNL     1       3.818  12.000   3.145  1.00  0.00     0.018 A 
ATOM      8  C   UNL     1       3.954  13.214   2.472  1.00  0.00     0.133 A 
ATOM      9  C   UNL     1       4.497  14.318   3.129  1.00  0.00     0.079 A 
ATOM     10  C   UNL     1       4.223  11.890   4.475  1.00  0.00     0.015 A 
ATOM     11  C   UNL     1       4.903  14.208   4.459  1.00  0.00     0.126 A 
ATOM     12  C   UNL     1       4.766  12.994   5.132  1.00  0.00     0.040 A 
ATOM     13  F   UNL     1       3.572  13.335   1.193  1.00  0.00    -0.206 F 
ATOM     14  F   UNL     1       5.424  15.268   5.091  1.00  0.00    -0.207 F 
ENDBRANCH   1   7
BRANCH   4  15
ATOM     15  C   UNL     1       4.278   8.338  -0.109  1.00  0.00     0.339 C 
ATOM     16  O   UNL     1       3.837   7.667  -1.045  1.00  0.00    -0.246 OA
BRANCH  15  17
ATOM     17  O   UNL     1       5.612   8.489   0.111  1.00  0.00    -0.478 OA
ATOM     18  H   UNL     1       5.960   9.307  -0.301  1.00  0.00     0.297 HD
ENDBRANCH  15  17
ENDBRANCH   4  15
BRANCH   5  19
ATOM     19  O   UNL     1       1.619   7.563   0.531  1.00  0.00    -0.507 OA
ATOM     20  H   UNL     1       0.651   7.661   0.520  1.00  0.00     0.293 HD
ENDBRANCH   5  19
TORSDOF 4
ENDMDL
MODEL 8
REMARK VINA RESULT:    -4.462     10.223     12.198
REMARK INTER + INTRA:          -5.926
REMARK INTER:                  -4.915
REMARK INTRA:                  -1.011
REMARK UNBOUND:                -0.682
REMARK SMILES O=C(O)c1cc(-c2ccc(F)cc2F)ccc1O
REMARK SMILES IDX 6 1 5 2 15 3 4 4 17 5 16 6 7 7 13 8 12 9 8 10 10 11 9 12
REMARK SMILES IDX 14 13 11 14 2 15 1 16 3 17 18 19
REMARK H PARENT 3 18 18 20
ROOT
ATOM      1  C   UNL     1       8.620  17.601   8.032  1.00  0.00    -0.014 A 
ATOM      2  C   UNL     1       7.430  17.360   7.347  1.00  0.00     0.028 A 
ATOM      3  C   UNL     1       9.436  18.668   7.659  1.00  0.00     0.013 A 
ATOM      4  C   UNL     1       7.055  18.187   6.288  1.00  0.00     0.102 A 
ATOM      5  C   UNL     1       7.871  19.255   5.915  1.00  0.00     0.130 A 
ATOM      6  C   UNL     1       9.062  19.496   6.601  1.00  0.00     0.048 A 
ENDROOT
BRANCH   1   7
ATOM      7  C   UNL     1       9.010  16.742   9.130  1.00  0.00     0.018 A 
ATOM      8  C   UNL     1       8.428  16.904  10.388  1.00  0.00     0.133 A 
ATOM      9  C   UNL     1       8.807  16.075  11.443  1.00  0.00     0.079 A 
ATOM     10  C   UNL     1       9.970  15.751   8.928  1.00  0.00     0.015 A 
ATOM     11  C   UNL     1       9.767  15.084  11.242  1.00  0.00     0.126 A 
ATOM     12  C   UNL     1      10.348  14.922   9.984  1.00  0.00     0.040 A 
ATOM     13  F   UNL     1       7.506  17.854  10.599  1.00  0.00    -0.206 F 
ATOM     14  F   UNL     1      10.132  14.287  12.254  1.00  0.00    -0.207 F 
ENDBRANCH   1   7
BRANCH   4  15
ATOM     15  C   UNL     1       5.807  17.920   5.586  1.00  0.00     0.339 C 
ATOM     16  O   UNL     1       5.501  16.847   5.060  1.00  0.00    -0.246 OA
BRANCH  15  17
ATOM     17  O   UNL     1       4.982  19.002   5.565  1.00  0.00    -0.478 OA
ATOM     18  H   UNL     1       4.190  18.845   5.009  1.00  0.00     0.297 HD
ENDBRANCH  15  17
ENDBRANCH   4  15
BRANCH   5  19
ATOM     19  O   UNL     1       7.522  20.076   4.884  1.00  0.00    -0.507 OA
ATOM     20  H   UNL     1       7.717  19.628   4.042  1.00  0.00     0.293 HD
ENDBRANCH   5  19
TORSDOF 4
ENDMDL
