MODEL 1
REMARK VINA RESULT:    -5.395      0.000      0.000
REMARK INTER + INTRA:          -7.483
REMARK INTER:                  -6.657
REMARK INTRA:                  -0.826
REMARK UNBOUND:                -0.826
REMARK SMILES Cc1ccc(C(=O)c2cc(O)c(O)c([N+](=O)[O-])c2)cc1
REMARK SMILES IDX 8 1 18 2 9 3 14 4 10 5 12 6 6 7 7 8 5 9 4 10 19 11 3 12
REMARK SMILES IDX 20 13 2 14 1 15 15 16 17 17 16 18 11 19 13 21
REMARK H PARENT 11 20 13 22
ROOT
ATOM      1  C   UNL     1       2.513   9.440   1.038  1.00  0.00     0.033 A 
ATOM      2  C   UNL     1       2.121   8.746   2.159  1.00  0.00     0.102 A 
ATOM      3  C   UNL     1       2.677   8.845  -0.190  1.00  0.00     0.063 A 
ATOM      4  C   UNL     1       1.876   7.377   2.043  1.00  0.00     0.315 A 
ATOM      5  C   UNL     1       2.434   7.476  -0.305  1.00  0.00     0.165 A 
ATOM      6  C   UNL     1       2.033   6.742   0.812  1.00  0.00     0.237 A 
ENDROOT
BRANCH   1   7
ATOM      7  C   UNL     1       2.775  10.906   1.161  1.00  0.00     0.193 C 
ATOM      8  O   UNL     1       2.416  11.629   0.220  1.00  0.00    -0.289 OA
BRANCH   7   9
ATOM      9  C   UNL     1       3.422  11.487   2.326  1.00  0.00     0.023 A 
ATOM     10  C   UNL     1       4.811  11.617   2.361  1.00  0.00     0.012 A 
ATOM     11  C   UNL     1       2.655  11.916   3.410  1.00  0.00     0.012 A 
ATOM     12  C   UNL     1       5.431  12.175   3.479  1.00  0.00     0.004 A 
ATOM     13  C   UNL     1       3.275  12.474   4.528  1.00  0.00     0.004 A 
ATOM     14  C   UNL     1       4.664  12.604   4.562  1.00  0.00    -0.051 A 
ATOM     15  C   UNL     1       5.328  13.199   5.757  1.00  0.00     0.044 C 
ENDBRANCH   7   9
ENDBRANCH   1   7
BRANCH   4  16
ATOM     16  N   UNL     1       1.469   6.646   3.193  1.00  0.00     0.066 N 
ATOM     17  O   UNL     1       1.771   5.431   3.277  1.00  0.00    -0.258 OA
ATOM     18  O   UNL     1       0.822   7.236   4.089  1.00  0.00    -0.258 OA
ENDBRANCH   4  16
BRANCH   5  19
ATOM     19  O   UNL     1       2.590   6.869  -1.515  1.00  0.00    -0.504 OA
ATOM     20  H   UNL     1       3.176   6.100  -1.420  1.00  0.00     0.293 HD
ENDBRANCH   5  19
BRANCH   6  21
ATOM     21  O   UNL     1       1.797   5.404   0.686  1.00  0.00    -0.500 OA
ATOM     22  H   UNL     1       1.547   5.201  -0.228  1.00  0.00     0.294 HD
ENDBRANCH   6  21
TORSDOF 5
ENDMDL
MODEL 2
REMARK VINA RESULT:    -5.377      2.051      3.523
REMARK INTER + INTRA:          -7.461
REMARK INTER:                  -6.595
REMARK INTRA:                  -0.866
REMARK UNBOUND:                -0.826
REMARK SMILES Cc1ccc(C(=O)c2cc(O)c(O)c([N+](=O)[O-])c2)cc1
REMARK SMILES IDX 8 1 18 2 9 3 14 4 10 5 12 6 6 7 7 8 5 9 4 10 19 11 3 12
REMARK SMILES IDX 20 13 2 14 1 15 15 16 17 17 16 18 11 19 13 21
REMARK H PARENT 11 20 13 22
ROOT
ATOM      1  C   UNL     1       3.360   8.673   2.475  1.00  0.00     0.033 A 
ATOM      2  C   UNL     1       3.592   8.571   1.122  1.00  0.00     0.102 A 
ATOM      3  C   UNL     1       2.553   7.797   3.161  1.00  0.00     0.063 A 
ATOM      4  C   UNL     1       2.983   7.533   0.418  1.00  0.00     0.315 A 
ATOM      5  C   UNL     1       1.943   6.760   2.456  1.00  0.00     0.165 A 
ATOM      6  C   UNL     1       2.158   6.627   1.084  1.00  0.00     0.237 A 
ENDROOT
BRANCH   1   7
ATOM      7  C   UNL     1       4.013   9.785   3.230  1.00  0.00     0.193 C 
ATOM      8  O   UNL     1       4.552   9.499   4.310  1.00  0.00    -0.289 OA
BRANCH   7   9
ATOM      9  C   UNL     1       4.030  11.154   2.741  1.00  0.00     0.023 A 
ATOM     10  C   UNL     1       2.981  12.020   3.055  1.00  0.00     0.012 A 
ATOM     11  C   UNL     1       5.094  11.603   1.960  1.00  0.00     0.012 A 
ATOM     12  C   UNL     1       2.998  13.333   2.586  1.00  0.00     0.004 A 
ATOM     13  C   UNL     1       5.112  12.917   1.491  1.00  0.00     0.004 A 
ATOM     14  C   UNL     1       4.063  13.783   1.805  1.00  0.00    -0.051 A 
ATOM     15  C   UNL     1       4.080  15.186   1.303  1.00  0.00     0.044 C 
ENDBRANCH   7   9
ENDBRANCH   1   7
BRANCH   4  16
ATOM     16  N   UNL     1       3.214   7.415  -0.980  1.00  0.00     0.066 N 
ATOM     17  O   UNL     1       4.347   7.704  -1.434  1.00  0.00    -0.258 OA
ATOM     18  O   UNL     1       2.279   7.024  -1.718  1.00  0.00    -0.258 OA
ENDBRANCH   4  16
BRANCH   5  19
ATOM     19  O   UNL     1       1.140   5.882   3.121  1.00  0.00    -0.504 OA
ATOM     20  H   UNL     1       0.467   6.371   3.621  1.00  0.00     0.293 HD
ENDBRANCH   5  19
BRANCH   6  21
ATOM     21  O   UNL     1       1.556   5.608   0.405  1.00  0.00    -0.500 OA
ATOM     22  H   UNL     1       2.232   5.033   0.013  1.00  0.00     0.294 HD
ENDBRANCH   6  21
TORSDOF 5
ENDMDL
MODEL 3
REMARK VINA RESULT:    -4.687      1.821      1.973
REMARK INTER + INTRA:          -6.609
REMARK INTER:                  -6.155
REMARK INTRA:                  -0.454
REMARK UNBOUND:                -0.826
REMARK SMILES Cc1ccc(C(=O)c2cc(O)c(O)c([N+](=O)[O-])c2)cc1
REMARK SMILES IDX 8 1 18 2 9 3 14 4 10 5 12 6 6 7 7 8 5 9 4 10 19 11 3 12
REMARK SMILES IDX 20 13 2 14 1 15 15 16 17 17 16 18 11 19 13 21
REMARK H PARENT 11 20 13 22
ROOT
ATOM      1  C   UNL     1       3.921   8.200   1.035  1.00  0.00     0.033 A 
ATOM      2  C   UNL     1       3.257   7.600   2.079  1.00  0.00     0.102 A 
ATOM      3  C   UNL     1       3.606   7.966  -0.283  1.00  0.00     0.063 A 
ATOM      4  C   UNL     1       2.218   6.716   1.789  1.00  0.00     0.315 A 
ATOM      5  C   UNL     1       2.566   7.082  -0.573  1.00  0.00     0.165 A 
ATOM      6  C   UNL     1       1.872   6.457   0.464  1.00  0.00     0.237 A 
ENDROOT
BRANCH   1   7
ATOM      7  C   UNL     1       5.035   9.146   1.345  1.00  0.00     0.193 C 
ATOM      8  O   UNL     1       6.191   8.698   1.304  1.00  0.00    -0.289 OA
BRANCH   7   9
ATOM      9  C   UNL     1       4.801  10.541   1.684  1.00  0.00     0.023 A 
ATOM     10  C   UNL     1       5.766  11.503   1.382  1.00  0.00     0.012 A 
ATOM     11  C   UNL     1       3.613  10.917   2.310  1.00  0.00     0.012 A 
ATOM     12  C   UNL     1       5.541  12.840   1.707  1.00  0.00     0.004 A 
ATOM     13  C   UNL     1       3.388  12.255   2.635  1.00  0.00     0.004 A 
ATOM     14  C   UNL     1       4.352  13.217   2.333  1.00  0.00    -0.051 A 
ATOM     15  C   UNL     1       4.114  14.647   2.682  1.00  0.00     0.044 C 
ENDBRANCH   7   9
ENDBRANCH   1   7
BRANCH   4  16
ATOM     16  N   UNL     1       1.522   6.089   2.859  1.00  0.00     0.066 N 
ATOM     17  O   UNL     1       1.825   4.912   3.172  1.00  0.00    -0.258 OA
ATOM     18  O   UNL     1       0.627   6.730   3.458  1.00  0.00    -0.258 OA
ENDBRANCH   4  16
BRANCH   5  19
ATOM     19  O   UNL     1       2.239   6.838  -1.873  1.00  0.00    -0.504 OA
ATOM     20  H   UNL     1       2.741   6.072  -2.197  1.00  0.00     0.293 HD
ENDBRANCH   5  19
BRANCH   6  21
ATOM     21  O   UNL     1       0.856   5.595   0.167  1.00  0.00    -0.500 OA
ATOM     22  H   UNL     1       0.989   4.759   0.642  1.00  0.00     0.294 HD
ENDBRANCH   6  21
TORSDOF 5
ENDMDL
MODEL 4
REMARK VINA RESULT:    -4.684      1.623      2.919
REMARK INTER + INTRA:          -6.606
REMARK INTER:                  -5.890
REMARK INTRA:                  -0.715
REMARK UNBOUND:                -0.826
REMARK SMILES Cc1ccc(C(=O)c2cc(O)c(O)c([N+](=O)[O-])c2)cc1
REMARK SMILES IDX 8 1 18 2 9 3 14 4 10 5 12 6 6 7 7 8 5 9 4 10 19 11 3 12
REMARK SMILES IDX 20 13 2 14 1 15 15 16 17 17 16 18 11 19 13 21
REMARK H PARENT 11 20 13 22
ROOT
ATOM      1  C   UNL     1       1.546   8.797   2.069  1.00  0.00     0.033 A 
ATOM      2  C   UNL     1       1.867   8.707   0.735  1.00  0.00     0.102 A 
ATOM      3  C   UNL     1       1.494   7.703   2.900  1.00  0.00     0.063 A 
ATOM      4  C   UNL     1       2.154   7.451   0.201  1.00  0.00     0.315 A 
ATOM      5  C   UNL     1       1.780   6.446   2.366  1.00  0.00     0.165 A 
ATOM      6  C   UNL     1       2.110   6.320   1.016  1.00  0.00     0.237 A 
ENDROOT
BRANCH   1   7
ATOM      7  C   UNL     1       1.239  10.143   2.641  1.00  0.00     0.193 C 
ATOM      8  O   UNL     1       0.045  10.470   2.717  1.00  0.00    -0.289 OA
BRANCH   7   9
ATOM      9  C   UNL     1       2.279  11.052   3.098  1.00  0.00     0.023 A 
ATOM     10  C   UNL     1       3.534  11.039   2.489  1.00  0.00     0.012 A 
ATOM     11  C   UNL     1       2.021  11.936   4.145  1.00  0.00     0.012 A 
ATOM     12  C   UNL     1       4.530  11.910   2.928  1.00  0.00     0.004 A 
ATOM     13  C   UNL     1       3.018  12.809   4.584  1.00  0.00     0.004 A 
ATOM     14  C   UNL     1       4.273  12.796   3.975  1.00  0.00    -0.051 A 
ATOM     15  C   UNL     1       5.339  13.726   4.444  1.00  0.00     0.044 C 
ENDBRANCH   7   9
ENDBRANCH   1   7
BRANCH   4  16
ATOM     16  N   UNL     1       2.488   7.342  -1.176  1.00  0.00     0.066 N 
ATOM     17  O   UNL     1       1.875   6.507  -1.885  1.00  0.00    -0.258 OA
ATOM     18  O   UNL     1       3.385   8.083  -1.643  1.00  0.00    -0.258 OA
ENDBRANCH   4  16
BRANCH   5  19
ATOM     19  O   UNL     1       1.734   5.351   3.175  1.00  0.00    -0.504 OA
ATOM     20  H   UNL     1       1.359   4.600   2.685  1.00  0.00     0.293 HD
ENDBRANCH   5  19
BRANCH   6  21
ATOM     21  O   UNL     1       2.388   5.085   0.506  1.00  0.00    -0.500 OA
ATOM     22  H   UNL     1       2.510   5.149  -0.454  1.00  0.00     0.294 HD
ENDBRANCH   6  21
TORSDOF 5
ENDMDL
MODEL 5
REMARK VINA RESULT:    -4.532      3.880      7.095
REMARK INTER + INTRA:          -6.418
REMARK INTER:                  -5.408
REMARK INTRA:                  -1.010
REMARK UNBOUND:                -0.826
REMARK SMILES Cc1ccc(C(=O)c2cc(O)c(O)c([N+](=O)[O-])c2)cc1
REMARK SMILES IDX 8 1 18 2 9 3 14 4 10 5 12 6 6 7 7 8 5 9 4 10 19 11 3 12
REMARK SMILES IDX 20 13 2 14 1 15 15 16 17 17 16 18 11 19 13 21
REMARK H PARENT 11 20 13 22
ROOT
ATOM      1  C   UNL     1       4.651  12.132   2.634  1.00  0.00     0.033 A 
ATOM      2  C   UNL     1       4.426  13.289   1.925  1.00  0.00     0.102 A 
ATOM      3  C   UNL     1       4.998  12.127   3.964  1.00  0.00     0.063 A 
ATOM      4  C   UNL     1       4.554  14.511   2.584  1.00  0.00     0.315 A 
ATOM      5  C   UNL     1       5.127  13.350   4.624  1.00  0.00     0.165 A 
ATOM      6  C   UNL     1       4.904  14.542   3.934  1.00  0.00     0.237 A 
ENDROOT
BRANCH   1   7
ATOM      7  C   UNL     1       4.514  10.822   1.927  1.00  0.00     0.193 C 
ATOM      8  O   UNL     1       5.232  10.635   0.933  1.00  0.00    -0.289 OA
BRANCH   7   9
ATOM      9  C   UNL     1       3.586   9.793   2.366  1.00  0.00     0.023 A 
ATOM     10  C   UNL     1       4.045   8.499   2.614  1.00  0.00     0.012 A 
ATOM     11  C   UNL     1       2.236  10.099   2.539  1.00  0.00     0.012 A 
ATOM     12  C   UNL     1       3.154   7.512   3.035  1.00  0.00     0.004 A 
ATOM     13  C   UNL     1       1.344   9.112   2.960  1.00  0.00     0.004 A 
ATOM     14  C   UNL     1       1.803   7.818   3.208  1.00  0.00    -0.051 A 
ATOM     15  C   UNL     1       0.852   6.762   3.657  1.00  0.00     0.044 C 
ENDBRANCH   7   9
ENDBRANCH   1   7
BRANCH   4  16
ATOM     16  N   UNL     1       4.323  15.715   1.865  1.00  0.00     0.066 N 
ATOM     17  O   UNL     1       3.515  15.703   0.905  1.00  0.00    -0.258 OA
ATOM     18  O   UNL     1       4.933  16.754   2.210  1.00  0.00    -0.258 OA
ENDBRANCH   4  16
BRANCH   5  19
ATOM     19  O   UNL     1       5.470  13.365   5.942  1.00  0.00    -0.504 OA
ATOM     20  H   UNL     1       5.493  14.282   6.262  1.00  0.00     0.293 HD
ENDBRANCH   5  19
BRANCH   6  21
ATOM     21  O   UNL     1       5.032  15.731   4.590  1.00  0.00    -0.500 OA
ATOM     22  H   UNL     1       4.381  16.364   4.250  1.00  0.00     0.294 HD
ENDBRANCH   6  21
TORSDOF 5
ENDMDL
MODEL 6
REMARK VINA RESULT:    -4.487      3.625      7.190
REMARK INTER + INTRA:          -6.363
REMARK INTER:                  -5.387
REMARK INTRA:                  -0.976
REMARK UNBOUND:                -0.826
REMARK SMILES Cc1ccc(C(=O)c2cc(O)c(O)c([N+](=O)[O-])c2)cc1
REMARK SMILES IDX 8 1 18 2 9 3 14 4 10 5 12 6 6 7 7 8 5 9 4 10 19 11 3 12
REMARK SMILES IDX 20 13 2 14 1 15 15 16 17 17 16 18 11 19 13 21
REMARK H PARENT 11 20 13 22
ROOT
ATOM      1  C   UNL     1       3.342  12.240   3.265  1.00  0.00     0.033 A 
ATOM      2  C   UNL     1       3.432  13.223   2.307  1.00  0.00     0.102 A 
ATOM      3  C   UNL     1       3.964  12.329   4.487  1.00  0.00     0.063 A 
ATOM      4  C   UNL     1       4.187  14.362   2.590  1.00  0.00     0.315 A 
ATOM      5  C   UNL     1       4.719  13.467   4.770  1.00  0.00     0.165 A 
ATOM      6  C   UNL     1       4.830  14.484   3.821  1.00  0.00     0.237 A 
ENDROOT
BRANCH   1   7
ATOM      7  C   UNL     1       2.534  11.020   2.962  1.00  0.00     0.193 C 
ATOM      8  O   UNL     1       1.573  10.775   3.707  1.00  0.00    -0.289 OA
BRANCH   7   9
ATOM      9  C   UNL     1       2.840  10.139   1.846  1.00  0.00     0.023 A 
ATOM     10  C   UNL     1       4.151   9.714   1.633  1.00  0.00     0.012 A 
ATOM     11  C   UNL     1       1.823   9.718   0.990  1.00  0.00     0.012 A 
ATOM     12  C   UNL     1       4.445   8.869   0.563  1.00  0.00     0.004 A 
ATOM     13  C   UNL     1       2.115   8.872  -0.080  1.00  0.00     0.004 A 
ATOM     14  C   UNL     1       3.427   8.447  -0.294  1.00  0.00    -0.051 A 
ATOM     15  C   UNL     1       3.741   7.545  -1.438  1.00  0.00     0.044 C 
ENDBRANCH   7   9
ENDBRANCH   1   7
BRANCH   4  16
ATOM     16  N   UNL     1       4.289  15.387   1.610  1.00  0.00     0.066 N 
ATOM     17  O   UNL     1       4.429  16.575   1.989  1.00  0.00    -0.258 OA
ATOM     18  O   UNL     1       4.236  15.074   0.398  1.00  0.00    -0.258 OA
ENDBRANCH   4  16
BRANCH   5  19
ATOM     19  O   UNL     1       5.342  13.574   5.977  1.00  0.00    -0.504 OA
ATOM     20  H   UNL     1       4.703  13.868   6.648  1.00  0.00     0.293 HD
ENDBRANCH   5  19
BRANCH   6  21
ATOM     21  O   UNL     1       5.571  15.593   4.110  1.00  0.00    -0.500 OA
ATOM     22  H   UNL     1       5.272  16.337   3.563  1.00  0.00     0.294 HD
ENDBRANCH   6  21
TORSDOF 5
ENDMDL
MODEL 7
REMARK VINA RESULT:    -4.485      3.714      6.628
REMARK INTER + INTRA:          -6.360
REMARK INTER:                  -5.423
REMARK INTRA:                  -0.937
REMARK UNBOUND:                -0.826
REMARK SMILES Cc1ccc(C(=O)c2cc(O)c(O)c([N+](=O)[O-])c2)cc1
REMARK SMILES IDX 8 1 18 2 9 3 14 4 10 5 12 6 6 7 7 8 5 9 4 10 19 11 3 12
REMARK SMILES IDX 20 13 2 14 1 15 15 16 17 17 16 18 11 19 13 21
REMARK H PARENT 11 20 13 22
ROOT
ATOM      1  C   UNL     1       4.680  12.043   2.304  1.00  0.00     0.033 A 
ATOM      2  C   UNL     1       4.885  12.222   3.653  1.00  0.00     0.102 A 
ATOM      3  C   UNL     1       4.526  13.090   1.427  1.00  0.00     0.063 A 
ATOM      4  C   UNL     1       4.941  13.524   4.151  1.00  0.00     0.315 A 
ATOM      5  C   UNL     1       4.582  14.392   1.925  1.00  0.00     0.165 A 
ATOM      6  C   UNL     1       4.790  14.609   3.288  1.00  0.00     0.237 A 
ENDROOT
BRANCH   1   7
ATOM      7  C   UNL     1       4.619  10.649   1.770  1.00  0.00     0.193 C 
ATOM      8  O   UNL     1       5.428  10.345   0.881  1.00  0.00    -0.289 OA
BRANCH   7   9
ATOM      9  C   UNL     1       3.662   9.668   2.256  1.00  0.00     0.023 A 
ATOM     10  C   UNL     1       2.327  10.030   2.442  1.00  0.00     0.012 A 
ATOM     11  C   UNL     1       4.077   8.367   2.536  1.00  0.00     0.012 A 
ATOM     12  C   UNL     1       1.409   9.089   2.908  1.00  0.00     0.004 A 
ATOM     13  C   UNL     1       3.158   7.425   3.002  1.00  0.00     0.004 A 
ATOM     14  C   UNL     1       1.824   7.787   3.188  1.00  0.00    -0.051 A 
ATOM     15  C   UNL     1       0.842   6.782   3.687  1.00  0.00     0.044 C 
ENDBRANCH   7   9
ENDBRANCH   1   7
BRANCH   4  16
ATOM     16  N   UNL     1       5.154  13.725   5.543  1.00  0.00     0.066 N 
ATOM     17  O   UNL     1       4.565  12.977   6.360  1.00  0.00    -0.258 OA
ATOM     18  O   UNL     1       5.922  14.644   5.912  1.00  0.00    -0.258 OA
ENDBRANCH   4  16
BRANCH   5  19
ATOM     19  O   UNL     1       4.433  15.442   1.070  1.00  0.00    -0.504 OA
ATOM     20  H   UNL     1       4.953  16.197   1.389  1.00  0.00     0.293 HD
ENDBRANCH   5  19
BRANCH   6  21
ATOM     21  O   UNL     1       4.843  15.887   3.764  1.00  0.00    -0.500 OA
ATOM     22  H   UNL     1       4.250  16.452   3.245  1.00  0.00     0.294 HD
ENDBRANCH   6  21
TORSDOF 5
ENDMDL
MODEL 8
REMARK VINA RESULT:    -4.468      3.797      6.892
REMARK INTER + INTRA:          -6.339
REMARK INTER:                  -5.421
REMARK INTRA:                  -0.918
REMARK UNBOUND:                -0.826
REMARK SMILES Cc1ccc(C(=O)c2cc(O)c(O)c([N+](=O)[O-])c2)cc1
REMARK SMILES IDX 8 1 18 2 9 3 14 4 10 5 12 6 6 7 7 8 5 9 4 10 19 11 3 12
REMARK SMILES IDX 20 13 2 14 1 15 15 16 17 17 16 18 11 19 13 21
REMARK H PARENT 11 20 13 22
ROOT
ATOM      1  C   UNL     1       3.409  12.332   3.156  1.00  0.00     0.033 A 
ATOM      2  C   UNL     1       4.099  12.472   4.337  1.00  0.00     0.102 A 
ATOM      3  C   UNL     1       3.408  13.294   2.174  1.00  0.00     0.063 A 
ATOM      4  C   UNL     1       4.832  13.640   4.547  1.00  0.00     0.315 A 
ATOM      5  C   UNL     1       4.139  14.463   2.384  1.00  0.00     0.165 A 
ATOM      6  C   UNL     1       4.852  14.636   3.571  1.00  0.00     0.237 A 
ENDROOT
BRANCH   1   7
ATOM      7  C   UNL     1       2.625  11.080   2.930  1.00  0.00     0.193 C 
ATOM      8  O   UNL     1       1.710  10.831   3.730  1.00  0.00    -0.289 OA
BRANCH   7   9
ATOM      9  C   UNL     1       2.901  10.175   1.827  1.00  0.00     0.023 A 
ATOM     10  C   UNL     1       1.861   9.737   1.006  1.00  0.00     0.012 A 
ATOM     11  C   UNL     1       4.206   9.745   1.588  1.00  0.00     0.012 A 
ATOM     12  C   UNL     1       2.127   8.869  -0.052  1.00  0.00     0.004 A 
ATOM     13  C   UNL     1       4.473   8.876   0.529  1.00  0.00     0.004 A 
ATOM     14  C   UNL     1       3.433   8.438  -0.292  1.00  0.00    -0.051 A 
ATOM     15  C   UNL     1       3.716   7.509  -1.422  1.00  0.00     0.044 C 
ENDBRANCH   7   9
ENDBRANCH   1   7
BRANCH   4  16
ATOM     16  N   UNL     1       5.551  13.799   5.764  1.00  0.00     0.066 N 
ATOM     17  O   UNL     1       5.851  12.778   6.428  1.00  0.00    -0.258 OA
ATOM     18  O   UNL     1       5.864  14.954   6.136  1.00  0.00    -0.258 OA
ENDBRANCH   4  16
BRANCH   5  19
ATOM     19  O   UNL     1       4.150  15.427   1.421  1.00  0.00    -0.504 OA
ATOM     20  H   UNL     1       3.993  15.021   0.553  1.00  0.00     0.293 HD
ENDBRANCH   5  19
BRANCH   6  21
ATOM     21  O   UNL     1       5.564  15.784   3.765  1.00  0.00    -0.500 OA
ATOM     22  H   UNL     1       6.124  15.955   2.992  1.00  0.00     0.294 HD
ENDBRANCH   6  21
TORSDOF 5
ENDMDL
MODEL 9
REMARK VINA RESULT:    -4.391      1.962      2.501
REMARK INTER + INTRA:          -6.244
REMARK INTER:                  -5.498
REMARK INTRA:                  -0.745
REMARK UNBOUND:                -0.826
REMARK SMILES Cc1ccc(C(=O)c2cc(O)c(O)c([N+](=O)[O-])c2)cc1
REMARK SMILES IDX 8 1 18 2 9 3 14 4 10 5 12 6 6 7 7 8 5 9 4 10 19 11 3 12
REMARK SMILES IDX 20 13 2 14 1 15 15 16 17 17 16 18 11 19 13 21
REMARK H PARENT 11 20 13 22
ROOT
ATOM      1  C   UNL     1       3.547   9.215   2.439  1.00  0.00     0.033 A 
ATOM      2  C   UNL     1       2.728   8.338   3.112  1.00  0.00     0.102 A 
ATOM      3  C   UNL     1       3.887   9.052   1.117  1.00  0.00     0.063 A 
ATOM      4  C   UNL     1       2.220   7.237   2.424  1.00  0.00     0.315 A 
ATOM      5  C   UNL     1       3.380   7.950   0.428  1.00  0.00     0.165 A 
ATOM      6  C   UNL     1       2.546   7.042   1.082  1.00  0.00     0.237 A 
ENDROOT
BRANCH   1   7
ATOM      7  C   UNL     1       4.091  10.395   3.176  1.00  0.00     0.193 C 
ATOM      8  O   UNL     1       4.587  10.188   4.294  1.00  0.00    -0.289 OA
BRANCH   7   9
ATOM      9  C   UNL     1       4.054  11.741   2.628  1.00  0.00     0.023 A 
ATOM     10  C   UNL     1       2.968  12.575   2.899  1.00  0.00     0.012 A 
ATOM     11  C   UNL     1       5.103  12.200   1.833  1.00  0.00     0.012 A 
ATOM     12  C   UNL     1       2.933  13.866   2.374  1.00  0.00     0.004 A 
ATOM     13  C   UNL     1       5.068  13.493   1.307  1.00  0.00     0.004 A 
ATOM     14  C   UNL     1       3.983  14.326   1.578  1.00  0.00    -0.051 A 
ATOM     15  C   UNL     1       3.943  15.706   1.016  1.00  0.00     0.044 C 
ENDBRANCH   7   9
ENDBRANCH   1   7
BRANCH   4  16
ATOM     16  N   UNL     1       1.373   6.322   3.107  1.00  0.00     0.066 N 
ATOM     17  O   UNL     1       1.726   5.122   3.201  1.00  0.00    -0.258 OA
ATOM     18  O   UNL     1       0.298   6.742   3.596  1.00  0.00    -0.258 OA
ENDBRANCH   4  16
BRANCH   5  19
ATOM     19  O   UNL     1       3.706   7.773  -0.883  1.00  0.00    -0.504 OA
ATOM     20  H   UNL     1       4.584   8.151  -1.054  1.00  0.00     0.293 HD
ENDBRANCH   5  19
BRANCH   6  21
ATOM     21  O   UNL     1       2.055   5.968   0.397  1.00  0.00    -0.500 OA
ATOM     22  H   UNL     1       2.376   5.148   0.804  1.00  0.00     0.294 HD
ENDBRANCH   6  21
TORSDOF 5
ENDMDL
