MODEL 1
REMARK VINA RESULT:    -6.851      0.000      0.000
REMARK INTER + INTRA:          -8.639
REMARK INTER:                  -8.053
REMARK INTRA:                  -0.586
REMARK UNBOUND:                -0.586
REMARK SMILES O=C(O)c1cc(-c2ccc(F)cc2F)ccc1O
REMARK SMILES IDX 6 1 5 2 15 3 4 4 17 5 16 6 7 7 13 8 12 9 8 10 10 11 9 12
REMARK SMILES IDX 14 13 11 14 2 15 1 16 3 17 18 19
REMARK H PARENT 3 18 18 20
ROOT
ATOM      1  C   UNL     1      -3.160   4.335   8.356  1.00  0.00    -0.014 A 
ATOM      2  C   UNL     1      -2.698   5.190   7.356  1.00  0.00     0.028 A 
ATOM      3  C   UNL     1      -3.216   2.961   8.127  1.00  0.00     0.013 A 
ATOM      4  C   UNL     1      -2.293   4.671   6.126  1.00  0.00     0.102 A 
ATOM      5  C   UNL     1      -2.349   3.297   5.897  1.00  0.00     0.130 A 
ATOM      6  C   UNL     1      -2.811   2.441   6.898  1.00  0.00     0.048 A 
ENDROOT
BRANCH   1   7
ATOM      7  C   UNL     1      -3.582   4.873   9.632  1.00  0.00     0.018 A 
ATOM      8  C   UNL     1      -4.784   4.457  10.204  1.00  0.00     0.133 A 
ATOM      9  C   UNL     1      -5.187   4.978  11.434  1.00  0.00     0.079 A 
ATOM     10  C   UNL     1      -2.783   5.809  10.289  1.00  0.00     0.015 A 
ATOM     11  C   UNL     1      -4.389   5.914  12.090  1.00  0.00     0.126 A 
ATOM     12  C   UNL     1      -3.186   6.329  11.518  1.00  0.00     0.040 A 
ATOM     13  F   UNL     1      -5.565   3.561   9.584  1.00  0.00    -0.206 F 
ATOM     14  F   UNL     1      -4.775   6.415  13.271  1.00  0.00    -0.207 F 
ENDBRANCH   1   7
BRANCH   4  15
ATOM     15  C   UNL     1      -1.814   5.581   5.095  1.00  0.00     0.339 C 
ATOM     16  O   UNL     1      -2.248   5.646   3.942  1.00  0.00    -0.246 OA
BRANCH  15  17
ATOM     17  O   UNL     1      -0.807   6.383   5.538  1.00  0.00    -0.478 OA
ATOM     18  H   UNL     1      -1.060   7.330   5.519  1.00  0.00     0.297 HD
ENDBRANCH  15  17
ENDBRANCH   4  15
BRANCH   5  19
ATOM     19  O   UNL     1      -1.958   2.769   4.703  1.00  0.00    -0.507 OA
ATOM     20  H   UNL     1      -2.205   3.382   3.989  1.00  0.00     0.293 HD
ENDBRANCH   5  19
TORSDOF 4
ENDMDL
MODEL 2
REMARK VINA RESULT:    -6.847      1.130      1.610
REMARK INTER + INTRA:          -8.633
REMARK INTER:                  -8.045
REMARK INTRA:                  -0.588
REMARK UNBOUND:                -0.586
REMARK SMILES O=C(O)c1cc(-c2ccc(F)cc2F)ccc1O
REMARK SMILES IDX 6 1 5 2 15 3 4 4 17 5 16 6 7 7 13 8 12 9 8 10 10 11 9 12
REMARK SMILES IDX 14 13 11 14 2 15 1 16 3 17 18 19
REMARK H PARENT 3 18 18 20
ROOT
ATOM      1  C   UNL     1      -3.120   4.370   8.379  1.00  0.00    -0.014 A 
ATOM      2  C   UNL     1      -2.670   5.217   7.367  1.00  0.00     0.028 A 
ATOM      3  C   UNL     1      -3.173   2.993   8.163  1.00  0.00     0.013 A 
ATOM      4  C   UNL     1      -2.274   4.688   6.138  1.00  0.00     0.102 A 
ATOM      5  C   UNL     1      -2.328   3.311   5.922  1.00  0.00     0.130 A 
ATOM      6  C   UNL     1      -2.778   2.463   6.935  1.00  0.00     0.048 A 
ENDROOT
BRANCH   1   7
ATOM      7  C   UNL     1      -3.532   4.918   9.653  1.00  0.00     0.018 A 
ATOM      8  C   UNL     1      -2.745   5.878  10.290  1.00  0.00     0.133 A 
ATOM      9  C   UNL     1      -3.146   6.404  11.519  1.00  0.00     0.079 A 
ATOM     10  C   UNL     1      -4.719   4.486  10.243  1.00  0.00     0.015 A 
ATOM     11  C   UNL     1      -4.332   5.971  12.109  1.00  0.00     0.126 A 
ATOM     12  C   UNL     1      -5.119   5.012  11.471  1.00  0.00     0.040 A 
ATOM     13  F   UNL     1      -1.600   6.303   9.737  1.00  0.00    -0.206 F 
ATOM     14  F   UNL     1      -4.718   6.475  13.288  1.00  0.00    -0.207 F 
ENDBRANCH   1   7
BRANCH   4  15
ATOM     15  C   UNL     1      -1.807   5.590   5.094  1.00  0.00     0.339 C 
ATOM     16  O   UNL     1      -2.250   5.640   3.944  1.00  0.00    -0.246 OA
BRANCH  15  17
ATOM     17  O   UNL     1      -0.802   6.402   5.522  1.00  0.00    -0.478 OA
ATOM     18  H   UNL     1      -0.215   5.949   6.162  1.00  0.00     0.297 HD
ENDBRANCH  15  17
ENDBRANCH   4  15
BRANCH   5  19
ATOM     19  O   UNL     1      -1.945   2.774   4.729  1.00  0.00    -0.507 OA
ATOM     20  H   UNL     1      -1.211   3.300   4.366  1.00  0.00     0.293 HD
ENDBRANCH   5  19
TORSDOF 4
ENDMDL
MODEL 3
REMARK VINA RESULT:    -6.764      1.349      2.770
REMARK INTER + INTRA:          -8.536
REMARK INTER:                  -7.722
REMARK INTRA:                  -0.814
REMARK UNBOUND:                -0.586
REMARK SMILES O=C(O)c1cc(-c2ccc(F)cc2F)ccc1O
REMARK SMILES IDX 6 1 5 2 15 3 4 4 17 5 16 6 7 7 13 8 12 9 8 10 10 11 9 12
REMARK SMILES IDX 14 13 11 14 2 15 1 16 3 17 18 19
REMARK H PARENT 3 18 18 20
ROOT
ATOM      1  C   UNL     1      -3.308   4.300   8.429  1.00  0.00    -0.014 A 
ATOM      2  C   UNL     1      -3.214   2.911   8.350  1.00  0.00     0.028 A 
ATOM      3  C   UNL     1      -3.055   5.081   7.302  1.00  0.00     0.013 A 
ATOM      4  C   UNL     1      -2.867   2.303   7.144  1.00  0.00     0.102 A 
ATOM      5  C   UNL     1      -2.613   3.084   6.017  1.00  0.00     0.130 A 
ATOM      6  C   UNL     1      -2.708   4.474   6.096  1.00  0.00     0.048 A 
ENDROOT
BRANCH   1   7
ATOM      7  C   UNL     1      -3.668   4.932   9.681  1.00  0.00     0.018 A 
ATOM      8  C   UNL     1      -4.848   4.573  10.333  1.00  0.00     0.133 A 
ATOM      9  C   UNL     1      -5.190   5.185  11.539  1.00  0.00     0.079 A 
ATOM     10  C   UNL     1      -2.830   5.900  10.235  1.00  0.00     0.015 A 
ATOM     11  C   UNL     1      -4.354   6.154  12.093  1.00  0.00     0.126 A 
ATOM     12  C   UNL     1      -3.173   6.510  11.440  1.00  0.00     0.040 A 
ATOM     13  F   UNL     1      -5.665   3.647   9.812  1.00  0.00    -0.206 F 
ATOM     14  F   UNL     1      -4.682   6.741  13.250  1.00  0.00    -0.207 F 
ENDBRANCH   1   7
BRANCH   4  15
ATOM     15  C   UNL     1      -2.774   0.850   7.082  1.00  0.00     0.339 C 
ATOM     16  O   UNL     1      -2.044   0.214   6.318  1.00  0.00    -0.246 OA
BRANCH  15  17
ATOM     17  O   UNL     1      -3.596   0.240   7.978  1.00  0.00    -0.478 OA
ATOM     18  H   UNL     1      -4.329   0.827   8.259  1.00  0.00     0.297 HD
ENDBRANCH  15  17
ENDBRANCH   4  15
BRANCH   5  19
ATOM     19  O   UNL     1      -2.273   2.509   4.828  1.00  0.00    -0.507 OA
ATOM     20  H   UNL     1      -1.933   1.613   4.995  1.00  0.00     0.293 HD
ENDBRANCH   5  19
TORSDOF 4
ENDMDL
MODEL 4
REMARK VINA RESULT:    -6.713      1.730      3.175
REMARK INTER + INTRA:          -8.476
REMARK INTER:                  -7.671
REMARK INTRA:                  -0.805
REMARK UNBOUND:                -0.586
REMARK SMILES O=C(O)c1cc(-c2ccc(F)cc2F)ccc1O
REMARK SMILES IDX 6 1 5 2 15 3 4 4 17 5 16 6 7 7 13 8 12 9 8 10 10 11 9 12
REMARK SMILES IDX 14 13 11 14 2 15 1 16 3 17 18 19
REMARK H PARENT 3 18 18 20
ROOT
ATOM      1  C   UNL     1      -3.212   4.334   8.387  1.00  0.00    -0.014 A 
ATOM      2  C   UNL     1      -3.134   2.945   8.298  1.00  0.00     0.028 A 
ATOM      3  C   UNL     1      -2.926   5.122   7.272  1.00  0.00     0.013 A 
ATOM      4  C   UNL     1      -2.771   2.342   7.093  1.00  0.00     0.102 A 
ATOM      5  C   UNL     1      -2.485   3.130   5.978  1.00  0.00     0.130 A 
ATOM      6  C   UNL     1      -2.563   4.520   6.067  1.00  0.00     0.048 A 
ENDROOT
BRANCH   1   7
ATOM      7  C   UNL     1      -3.588   4.960   9.636  1.00  0.00     0.018 A 
ATOM      8  C   UNL     1      -2.759   5.923  10.214  1.00  0.00     0.133 A 
ATOM      9  C   UNL     1      -3.125   6.524  11.419  1.00  0.00     0.079 A 
ATOM     10  C   UNL     1      -4.781   4.601  10.262  1.00  0.00     0.015 A 
ATOM     11  C   UNL     1      -4.318   6.163  12.045  1.00  0.00     0.126 A 
ATOM     12  C   UNL     1      -5.146   5.202  11.465  1.00  0.00     0.040 A 
ATOM     13  F   UNL     1      -1.607   6.278   9.628  1.00  0.00    -0.206 F 
ATOM     14  F   UNL     1      -4.670   6.740  13.201  1.00  0.00    -0.207 F 
ENDBRANCH   1   7
BRANCH   4  15
ATOM     15  C   UNL     1      -2.696   0.889   7.021  1.00  0.00     0.339 C 
ATOM     16  O   UNL     1      -1.965   0.250   6.261  1.00  0.00    -0.246 OA
BRANCH  15  17
ATOM     17  O   UNL     1      -3.537   0.283   7.901  1.00  0.00    -0.478 OA
ATOM     18  H   UNL     1      -3.512  -0.694   7.817  1.00  0.00     0.297 HD
ENDBRANCH  15  17
ENDBRANCH   4  15
BRANCH   5  19
ATOM     19  O   UNL     1      -2.129   2.560   4.792  1.00  0.00    -0.507 OA
ATOM     20  H   UNL     1      -1.159   2.565   4.716  1.00  0.00     0.293 HD
ENDBRANCH   5  19
TORSDOF 4
ENDMDL
MODEL 5
REMARK VINA RESULT:    -5.462      4.299      6.566
REMARK INTER + INTRA:          -7.006
REMARK INTER:                  -5.922
REMARK INTRA:                  -1.084
REMARK UNBOUND:                -0.586
REMARK SMILES O=C(O)c1cc(-c2ccc(F)cc2F)ccc1O
REMARK SMILES IDX 6 1 5 2 15 3 4 4 17 5 16 6 7 7 13 8 12 9 8 10 10 11 9 12
REMARK SMILES IDX 14 13 11 14 2 15 1 16 3 17 18 19
REMARK H PARENT 3 18 18 20
ROOT
ATOM      1  C   UNL     1      -3.774   5.630  10.713  1.00  0.00    -0.014 A 
ATOM      2  C   UNL     1      -4.459   6.837  10.843  1.00  0.00     0.028 A 
ATOM      3  C   UNL     1      -3.514   4.850  11.839  1.00  0.00     0.013 A 
ATOM      4  C   UNL     1      -4.886   7.265  12.100  1.00  0.00     0.102 A 
ATOM      5  C   UNL     1      -4.627   6.485  13.227  1.00  0.00     0.130 A 
ATOM      6  C   UNL     1      -3.941   5.276  13.097  1.00  0.00     0.048 A 
ENDROOT
BRANCH   1   7
ATOM      7  C   UNL     1      -3.330   5.186   9.409  1.00  0.00     0.018 A 
ATOM      8  C   UNL     1      -2.088   5.590   8.916  1.00  0.00     0.133 A 
ATOM      9  C   UNL     1      -1.664   5.160   7.659  1.00  0.00     0.079 A 
ATOM     10  C   UNL     1      -4.145   4.351   8.645  1.00  0.00     0.015 A 
ATOM     11  C   UNL     1      -2.480   4.326   6.895  1.00  0.00     0.126 A 
ATOM     12  C   UNL     1      -3.720   3.921   7.388  1.00  0.00     0.040 A 
ATOM     13  F   UNL     1      -1.294   6.394   9.637  1.00  0.00    -0.206 F 
ATOM     14  F   UNL     1      -2.073   3.913   5.688  1.00  0.00    -0.207 F 
ENDBRANCH   1   7
BRANCH   4  15
ATOM     15  C   UNL     1      -5.601   8.529  12.215  1.00  0.00     0.339 C 
ATOM     16  O   UNL     1      -6.111   8.969  13.248  1.00  0.00    -0.246 OA
BRANCH  15  17
ATOM     17  O   UNL     1      -5.653   9.203  11.035  1.00  0.00    -0.478 OA
ATOM     18  H   UNL     1      -4.761   9.338  10.651  1.00  0.00     0.297 HD
ENDBRANCH  15  17
ENDBRANCH   4  15
BRANCH   5  19
ATOM     19  O   UNL     1      -5.036   6.885  14.465  1.00  0.00    -0.507 OA
ATOM     20  H   UNL     1      -5.890   6.466  14.667  1.00  0.00     0.293 HD
ENDBRANCH   5  19
TORSDOF 4
ENDMDL
MODEL 6
REMARK VINA RESULT:    -5.433      4.444      6.705
REMARK INTER + INTRA:          -6.972
REMARK INTER:                  -5.886
REMARK INTRA:                  -1.086
REMARK UNBOUND:                -0.586
REMARK SMILES O=C(O)c1cc(-c2ccc(F)cc2F)ccc1O
REMARK SMILES IDX 6 1 5 2 15 3 4 4 17 5 16 6 7 7 13 8 12 9 8 10 10 11 9 12
REMARK SMILES IDX 14 13 11 14 2 15 1 16 3 17 18 19
REMARK H PARENT 3 18 18 20
ROOT
ATOM      1  C   UNL     1      -3.983   5.188  10.660  1.00  0.00    -0.014 A 
ATOM      2  C   UNL     1      -3.784   4.649  11.930  1.00  0.00     0.028 A 
ATOM      3  C   UNL     1      -4.562   6.449  10.520  1.00  0.00     0.013 A 
ATOM      4  C   UNL     1      -4.165   5.370  13.062  1.00  0.00     0.102 A 
ATOM      5  C   UNL     1      -4.745   6.631  12.923  1.00  0.00     0.130 A 
ATOM      6  C   UNL     1      -4.943   7.171  11.651  1.00  0.00     0.048 A 
ENDROOT
BRANCH   1   7
ATOM      7  C   UNL     1      -3.589   4.440   9.486  1.00  0.00     0.018 A 
ATOM      8  C   UNL     1      -4.490   3.565   8.877  1.00  0.00     0.133 A 
ATOM      9  C   UNL     1      -4.106   2.846   7.745  1.00  0.00     0.079 A 
ATOM     10  C   UNL     1      -2.306   4.595   8.962  1.00  0.00     0.015 A 
ATOM     11  C   UNL     1      -2.823   3.000   7.222  1.00  0.00     0.126 A 
ATOM     12  C   UNL     1      -1.923   3.876   7.830  1.00  0.00     0.040 A 
ATOM     13  F   UNL     1      -5.726   3.402   9.370  1.00  0.00    -0.206 F 
ATOM     14  F   UNL     1      -2.454   2.310   6.136  1.00  0.00    -0.207 F 
ENDBRANCH   1   7
BRANCH   4  15
ATOM     15  C   UNL     1      -3.949   4.789  14.380  1.00  0.00     0.339 C 
ATOM     16  O   UNL     1      -4.135   5.367  15.454  1.00  0.00    -0.246 OA
BRANCH  15  17
ATOM     17  O   UNL     1      -3.510   3.503  14.314  1.00  0.00    -0.478 OA
ATOM     18  H   UNL     1      -3.902   2.947  15.019  1.00  0.00     0.297 HD
ENDBRANCH  15  17
ENDBRANCH   4  15
BRANCH   5  19
ATOM     19  O   UNL     1      -5.123   7.352  14.016  1.00  0.00    -0.507 OA
ATOM     20  H   UNL     1      -5.610   6.772  14.626  1.00  0.00     0.293 HD
ENDBRANCH   5  19
TORSDOF 4
ENDMDL
MODEL 7
REMARK VINA RESULT:    -5.373      4.572      6.908
REMARK INTER + INTRA:          -6.901
REMARK INTER:                  -5.815
REMARK INTRA:                  -1.086
REMARK UNBOUND:                -0.586
REMARK SMILES O=C(O)c1cc(-c2ccc(F)cc2F)ccc1O
REMARK SMILES IDX 6 1 5 2 15 3 4 4 17 5 16 6 7 7 13 8 12 9 8 10 10 11 9 12
REMARK SMILES IDX 14 13 11 14 2 15 1 16 3 17 18 19
REMARK H PARENT 3 18 18 20
ROOT
ATOM      1  C   UNL     1      -3.783   5.557  10.722  1.00  0.00    -0.014 A 
ATOM      2  C   UNL     1      -3.494   4.782  11.844  1.00  0.00     0.028 A 
ATOM      3  C   UNL     1      -4.477   6.759  10.864  1.00  0.00     0.013 A 
ATOM      4  C   UNL     1      -3.899   5.208  13.110  1.00  0.00     0.102 A 
ATOM      5  C   UNL     1      -4.593   6.410  13.252  1.00  0.00     0.130 A 
ATOM      6  C   UNL     1      -4.882   7.185  12.128  1.00  0.00     0.048 A 
ENDROOT
BRANCH   1   7
ATOM      7  C   UNL     1      -3.365   5.115   9.409  1.00  0.00     0.018 A 
ATOM      8  C   UNL     1      -2.139   5.530   8.888  1.00  0.00     0.133 A 
ATOM      9  C   UNL     1      -1.739   5.101   7.622  1.00  0.00     0.079 A 
ATOM     10  C   UNL     1      -4.190   4.272   8.665  1.00  0.00     0.015 A 
ATOM     11  C   UNL     1      -2.565   4.259   6.877  1.00  0.00     0.126 A 
ATOM     12  C   UNL     1      -3.790   3.845   7.399  1.00  0.00     0.040 A 
ATOM     13  F   UNL     1      -1.335   6.341   9.589  1.00  0.00    -0.206 F 
ATOM     14  F   UNL     1      -2.182   3.848   5.662  1.00  0.00    -0.207 F 
ENDBRANCH   1   7
BRANCH   4  15
ATOM     15  C   UNL     1      -3.587   4.384  14.269  1.00  0.00     0.339 C 
ATOM     16  O   UNL     1      -2.537   3.760  14.440  1.00  0.00    -0.246 OA
BRANCH  15  17
ATOM     17  O   UNL     1      -4.597   4.369  15.181  1.00  0.00    -0.478 OA
ATOM     18  H   UNL     1      -4.375   4.890  15.981  1.00  0.00     0.297 HD
ENDBRANCH  15  17
ENDBRANCH   4  15
BRANCH   5  19
ATOM     19  O   UNL     1      -4.996   6.844  14.479  1.00  0.00    -0.507 OA
ATOM     20  H   UNL     1      -4.757   6.178  15.146  1.00  0.00     0.293 HD
ENDBRANCH   5  19
TORSDOF 4
ENDMDL
MODEL 8
REMARK VINA RESULT:    -5.139      4.041      6.105
REMARK INTER + INTRA:          -6.626
REMARK INTER:                  -5.818
REMARK INTRA:                  -0.809
REMARK UNBOUND:                -0.586
REMARK SMILES O=C(O)c1cc(-c2ccc(F)cc2F)ccc1O
REMARK SMILES IDX 6 1 5 2 15 3 4 4 17 5 16 6 7 7 13 8 12 9 8 10 10 11 9 12
REMARK SMILES IDX 14 13 11 14 2 15 1 16 3 17 18 19
REMARK H PARENT 3 18 18 20
ROOT
ATOM      1  C   UNL     1      -3.982   5.101  10.662  1.00  0.00    -0.014 A 
ATOM      2  C   UNL     1      -4.525   6.374  10.494  1.00  0.00     0.028 A 
ATOM      3  C   UNL     1      -3.820   4.575  11.944  1.00  0.00     0.013 A 
ATOM      4  C   UNL     1      -4.906   7.123  11.607  1.00  0.00     0.102 A 
ATOM      5  C   UNL     1      -4.744   6.598  12.889  1.00  0.00     0.130 A 
ATOM      6  C   UNL     1      -4.201   5.323  13.058  1.00  0.00     0.048 A 
ENDROOT
BRANCH   1   7
ATOM      7  C   UNL     1      -3.585   4.324   9.508  1.00  0.00     0.018 A 
ATOM      8  C   UNL     1      -4.501   3.475   8.886  1.00  0.00     0.133 A 
ATOM      9  C   UNL     1      -4.114   2.728   7.773  1.00  0.00     0.079 A 
ATOM     10  C   UNL     1      -2.283   4.425   9.017  1.00  0.00     0.015 A 
ATOM     11  C   UNL     1      -2.813   2.829   7.283  1.00  0.00     0.126 A 
ATOM     12  C   UNL     1      -1.897   3.678   7.905  1.00  0.00     0.040 A 
ATOM     13  F   UNL     1      -5.755   3.364   9.346  1.00  0.00    -0.206 F 
ATOM     14  F   UNL     1      -2.440   2.112   6.215  1.00  0.00    -0.207 F 
ENDBRANCH   1   7
BRANCH   4  15
ATOM     15  C   UNL     1      -5.472   8.450  11.410  1.00  0.00     0.339 C 
ATOM     16  O   UNL     1      -6.653   8.692  11.153  1.00  0.00    -0.246 OA
BRANCH  15  17
ATOM     17  O   UNL     1      -4.541   9.435  11.542  1.00  0.00    -0.478 OA
ATOM     18  H   UNL     1      -3.640   9.116  11.326  1.00  0.00     0.297 HD
ENDBRANCH  15  17
ENDBRANCH   4  15
BRANCH   5  19
ATOM     19  O   UNL     1      -5.111   7.313  13.990  1.00  0.00    -0.507 OA
ATOM     20  H   UNL     1      -6.075   7.444  13.977  1.00  0.00     0.293 HD
ENDBRANCH   5  19
TORSDOF 4
ENDMDL
MODEL 9
REMARK VINA RESULT:    -5.022      1.624      2.049
REMARK INTER + INTRA:          -6.488
REMARK INTER:                  -5.528
REMARK INTRA:                  -0.961
REMARK UNBOUND:                -0.586
REMARK SMILES O=C(O)c1cc(-c2ccc(F)cc2F)ccc1O
REMARK SMILES IDX 6 1 5 2 15 3 4 4 17 5 16 6 7 7 13 8 12 9 8 10 10 11 9 12
REMARK SMILES IDX 14 13 11 14 2 15 1 16 3 17 18 19
REMARK H PARENT 3 18 18 20
ROOT
ATOM      1  C   UNL     1      -3.805   4.866   9.611  1.00  0.00    -0.014 A 
ATOM      2  C   UNL     1      -2.816   5.504   8.863  1.00  0.00     0.028 A 
ATOM      3  C   UNL     1      -4.543   3.825   9.047  1.00  0.00     0.013 A 
ATOM      4  C   UNL     1      -2.564   5.102   7.551  1.00  0.00     0.102 A 
ATOM      5  C   UNL     1      -3.302   4.061   6.988  1.00  0.00     0.130 A 
ATOM      6  C   UNL     1      -4.292   3.422   7.736  1.00  0.00     0.048 A 
ENDROOT
BRANCH   1   7
ATOM      7  C   UNL     1      -4.068   5.283  10.971  1.00  0.00     0.018 A 
ATOM      8  C   UNL     1      -4.621   6.539  11.224  1.00  0.00     0.133 A 
ATOM      9  C   UNL     1      -4.873   6.938  12.537  1.00  0.00     0.079 A 
ATOM     10  C   UNL     1      -3.768   4.427  12.030  1.00  0.00     0.015 A 
ATOM     11  C   UNL     1      -4.572   6.082  13.596  1.00  0.00     0.126 A 
ATOM     12  C   UNL     1      -4.020   4.826  13.342  1.00  0.00     0.040 A 
ATOM     13  F   UNL     1      -4.913   7.375  10.217  1.00  0.00    -0.206 F 
ATOM     14  F   UNL     1      -4.813   6.464  14.856  1.00  0.00    -0.207 F 
ENDBRANCH   1   7
BRANCH   4  15
ATOM     15  C   UNL     1      -1.527   5.781   6.787  1.00  0.00     0.339 C 
ATOM     16  O   UNL     1      -1.406   5.746   5.561  1.00  0.00    -0.246 OA
BRANCH  15  17
ATOM     17  O   UNL     1      -0.674   6.483   7.582  1.00  0.00    -0.478 OA
ATOM     18  H   UNL     1      -0.111   7.094   7.062  1.00  0.00     0.297 HD
ENDBRANCH  15  17
ENDBRANCH   4  15
BRANCH   5  19
ATOM     19  O   UNL     1      -3.071   3.652   5.708  1.00  0.00    -0.507 OA
ATOM     20  H   UNL     1      -2.392   4.224   5.310  1.00  0.00     0.293 HD
ENDBRANCH   5  19
TORSDOF 4
ENDMDL
