MODEL 1
REMARK VINA RESULT:    -5.317      0.000      0.000
REMARK INTER + INTRA:          -7.352
REMARK INTER:                  -6.560
REMARK INTRA:                  -0.792
REMARK UNBOUND:                -0.792
REMARK SMILES Cc1ccc(C(=O)c2cc(O)c(O)c([N+](=O)[O-])c2)cc1
REMARK SMILES IDX 8 1 18 2 9 3 14 4 10 5 12 6 6 7 7 8 5 9 4 10 19 11 3 12
REMARK SMILES IDX 20 13 2 14 1 15 15 16 17 17 16 18 11 19 13 21
REMARK H PARENT 11 20 13 22
ROOT
ATOM      1  C   UNL     1      -2.621   3.671   8.647  1.00  0.00     0.033 A 
ATOM      2  C   UNL     1      -2.412   4.732   7.796  1.00  0.00     0.102 A 
ATOM      3  C   UNL     1      -2.644   2.365   8.220  1.00  0.00     0.063 A 
ATOM      4  C   UNL     1      -2.213   4.469   6.440  1.00  0.00     0.315 A 
ATOM      5  C   UNL     1      -2.446   2.102   6.864  1.00  0.00     0.165 A 
ATOM      6  C   UNL     1      -2.230   3.155   5.974  1.00  0.00     0.237 A 
ENDROOT
BRANCH   1   7
ATOM      7  C   UNL     1      -2.834   3.952  10.099  1.00  0.00     0.193 C 
ATOM      8  O   UNL     1      -2.395   3.122  10.909  1.00  0.00    -0.289 OA
BRANCH   7   9
ATOM      9  C   UNL     1      -3.524   5.143  10.570  1.00  0.00     0.023 A 
ATOM     10  C   UNL     1      -4.895   5.100  10.825  1.00  0.00     0.012 A 
ATOM     11  C   UNL     1      -2.815   6.327  10.767  1.00  0.00     0.012 A 
ATOM     12  C   UNL     1      -5.556   6.241  11.277  1.00  0.00     0.004 A 
ATOM     13  C   UNL     1      -3.476   7.470  11.219  1.00  0.00     0.004 A 
ATOM     14  C   UNL     1      -4.847   7.427  11.474  1.00  0.00    -0.051 A 
ATOM     15  C   UNL     1      -5.554   8.647  11.956  1.00  0.00     0.044 C 
ENDBRANCH   7   9
ENDBRANCH   1   7
BRANCH   4  16
ATOM     16  N   UNL     1      -1.995   5.555   5.548  1.00  0.00     0.066 N 
ATOM     17  O   UNL     1      -2.377   5.447   4.358  1.00  0.00    -0.258 OA
ATOM     18  O   UNL     1      -1.428   6.587   5.977  1.00  0.00    -0.258 OA
ENDBRANCH   4  16
BRANCH   5  19
ATOM     19  O   UNL     1      -2.465   0.813   6.423  1.00  0.00    -0.504 OA
ATOM     20  H   UNL     1      -3.226   0.683   5.833  1.00  0.00     0.293 HD
ENDBRANCH   5  19
BRANCH   6  21
ATOM     21  O   UNL     1      -2.037   2.885   4.650  1.00  0.00    -0.500 OA
ATOM     22  H   UNL     1      -1.088   2.802   4.470  1.00  0.00     0.294 HD
ENDBRANCH   6  21
TORSDOF 5
ENDMDL
MODEL 2
REMARK VINA RESULT:    -5.267      2.018      3.546
REMARK INTER + INTRA:          -7.291
REMARK INTER:                  -6.478
REMARK INTRA:                  -0.813
REMARK UNBOUND:                -0.792
REMARK SMILES Cc1ccc(C(=O)c2cc(O)c(O)c([N+](=O)[O-])c2)cc1
REMARK SMILES IDX 8 1 18 2 9 3 14 4 10 5 12 6 6 7 7 8 5 9 4 10 19 11 3 12
REMARK SMILES IDX 20 13 2 14 1 15 15 16 17 17 16 18 11 19 13 21
REMARK H PARENT 11 20 13 22
ROOT
ATOM      1  C   UNL     1      -3.611   4.977   7.786  1.00  0.00     0.033 A 
ATOM      2  C   UNL     1      -3.628   3.609   7.923  1.00  0.00     0.102 A 
ATOM      3  C   UNL     1      -3.080   5.611   6.688  1.00  0.00     0.063 A 
ATOM      4  C   UNL     1      -3.084   2.830   6.902  1.00  0.00     0.315 A 
ATOM      5  C   UNL     1      -2.535   4.832   5.667  1.00  0.00     0.165 A 
ATOM      6  C   UNL     1      -2.538   3.441   5.774  1.00  0.00     0.237 A 
ENDROOT
BRANCH   1   7
ATOM      7  C   UNL     1      -4.193   5.812   8.880  1.00  0.00     0.193 C 
ATOM      8  O   UNL     1      -4.798   6.843   8.549  1.00  0.00    -0.289 OA
BRANCH   7   9
ATOM      9  C   UNL     1      -4.070   5.453  10.284  1.00  0.00     0.023 A 
ATOM     10  C   UNL     1      -3.002   5.941  11.038  1.00  0.00     0.012 A 
ATOM     11  C   UNL     1      -5.021   4.623  10.878  1.00  0.00     0.012 A 
ATOM     12  C   UNL     1      -2.885   5.597  12.384  1.00  0.00     0.004 A 
ATOM     13  C   UNL     1      -4.904   4.279  12.225  1.00  0.00     0.004 A 
ATOM     14  C   UNL     1      -3.835   4.766  12.979  1.00  0.00    -0.051 A 
ATOM     15  C   UNL     1      -3.709   4.398  14.417  1.00  0.00     0.044 C 
ENDBRANCH   7   9
ENDBRANCH   1   7
BRANCH   4  16
ATOM     16  N   UNL     1      -3.095   1.413   7.029  1.00  0.00     0.066 N 
ATOM     17  O   UNL     1      -2.135   0.755   6.561  1.00  0.00    -0.258 OA
ATOM     18  O   UNL     1      -4.064   0.864   7.604  1.00  0.00    -0.258 OA
ENDBRANCH   4  16
BRANCH   5  19
ATOM     19  O   UNL     1      -2.005   5.443   4.570  1.00  0.00    -0.504 OA
ATOM     20  H   UNL     1      -1.509   6.231   4.845  1.00  0.00     0.293 HD
ENDBRANCH   5  19
BRANCH   6  21
ATOM     21  O   UNL     1      -2.003   2.689   4.768  1.00  0.00    -0.500 OA
ATOM     22  H   UNL     1      -1.978   3.210   3.950  1.00  0.00     0.294 HD
ENDBRANCH   6  21
TORSDOF 5
ENDMDL
MODEL 3
REMARK VINA RESULT:    -4.675      3.554      7.122
REMARK INTER + INTRA:          -6.561
REMARK INTER:                  -5.621
REMARK INTRA:                  -0.940
REMARK UNBOUND:                -0.792
REMARK SMILES Cc1ccc(C(=O)c2cc(O)c(O)c([N+](=O)[O-])c2)cc1
REMARK SMILES IDX 8 1 18 2 9 3 14 4 10 5 12 6 6 7 7 8 5 9 4 10 19 11 3 12
REMARK SMILES IDX 20 13 2 14 1 15 15 16 17 17 16 18 11 19 13 21
REMARK H PARENT 11 20 13 22
ROOT
ATOM      1  C   UNL     1      -3.448   6.146  11.066  1.00  0.00     0.033 A 
ATOM      2  C   UNL     1      -3.406   5.317  12.163  1.00  0.00     0.102 A 
ATOM      3  C   UNL     1      -4.143   7.332  11.053  1.00  0.00     0.063 A 
ATOM      4  C   UNL     1      -4.096   5.698  13.314  1.00  0.00     0.315 A 
ATOM      5  C   UNL     1      -4.834   7.713  12.204  1.00  0.00     0.165 A 
ATOM      6  C   UNL     1      -4.810   6.895  13.335  1.00  0.00     0.237 A 
ENDROOT
BRANCH   1   7
ATOM      7  C   UNL     1      -2.709   5.738   9.834  1.00  0.00     0.193 C 
ATOM      8  O   UNL     1      -1.863   6.529   9.390  1.00  0.00    -0.289 OA
BRANCH   7   9
ATOM      9  C   UNL     1      -2.951   4.471   9.162  1.00  0.00     0.023 A 
ATOM     10  C   UNL     1      -4.258   4.039   8.938  1.00  0.00     0.012 A 
ATOM     11  C   UNL     1      -1.876   3.688   8.743  1.00  0.00     0.012 A 
ATOM     12  C   UNL     1      -4.490   2.824   8.294  1.00  0.00     0.004 A 
ATOM     13  C   UNL     1      -2.107   2.472   8.098  1.00  0.00     0.004 A 
ATOM     14  C   UNL     1      -3.414   2.040   7.873  1.00  0.00    -0.051 A 
ATOM     15  C   UNL     1      -3.663   0.741   7.186  1.00  0.00     0.044 C 
ENDBRANCH   7   9
ENDBRANCH   1   7
BRANCH   4  16
ATOM     16  N   UNL     1      -4.061   4.852  14.456  1.00  0.00     0.066 N 
ATOM     17  O   UNL     1      -4.023   3.609  14.289  1.00  0.00    -0.258 OA
ATOM     18  O   UNL     1      -4.067   5.372  15.596  1.00  0.00    -0.258 OA
ENDBRANCH   4  16
BRANCH   5  19
ATOM     19  O   UNL     1      -5.528   8.886  12.210  1.00  0.00    -0.504 OA
ATOM     20  H   UNL     1      -5.064   9.535  12.764  1.00  0.00     0.293 HD
ENDBRANCH   5  19
BRANCH   6  21
ATOM     21  O   UNL     1      -5.490   7.279  14.454  1.00  0.00    -0.500 OA
ATOM     22  H   UNL     1      -6.328   7.695  14.200  1.00  0.00     0.294 HD
ENDBRANCH   6  21
TORSDOF 5
ENDMDL
MODEL 4
REMARK VINA RESULT:    -4.661      3.657      6.510
REMARK INTER + INTRA:          -6.544
REMARK INTER:                  -5.627
REMARK INTRA:                  -0.916
REMARK UNBOUND:                -0.792
REMARK SMILES Cc1ccc(C(=O)c2cc(O)c(O)c([N+](=O)[O-])c2)cc1
REMARK SMILES IDX 8 1 18 2 9 3 14 4 10 5 12 6 6 7 7 8 5 9 4 10 19 11 3 12
REMARK SMILES IDX 20 13 2 14 1 15 15 16 17 17 16 18 11 19 13 21
REMARK H PARENT 11 20 13 22
ROOT
ATOM      1  C   UNL     1      -4.585   4.993  11.173  1.00  0.00     0.033 A 
ATOM      2  C   UNL     1      -4.951   6.318  11.221  1.00  0.00     0.102 A 
ATOM      3  C   UNL     1      -4.249   4.271  12.294  1.00  0.00     0.063 A 
ATOM      4  C   UNL     1      -4.984   6.957  12.461  1.00  0.00     0.315 A 
ATOM      5  C   UNL     1      -4.281   4.909  13.534  1.00  0.00     0.165 A 
ATOM      6  C   UNL     1      -4.649   6.253  13.617  1.00  0.00     0.237 A 
ENDROOT
BRANCH   1   7
ATOM      7  C   UNL     1      -4.550   4.309   9.846  1.00  0.00     0.193 C 
ATOM      8  O   UNL     1      -5.241   3.288   9.713  1.00  0.00    -0.289 OA
BRANCH   7   9
ATOM      9  C   UNL     1      -3.747   4.799   8.737  1.00  0.00     0.023 A 
ATOM     10  C   UNL     1      -4.278   4.819   7.447  1.00  0.00     0.012 A 
ATOM     11  C   UNL     1      -2.447   5.250   8.963  1.00  0.00     0.012 A 
ATOM     12  C   UNL     1      -3.507   5.290   6.384  1.00  0.00     0.004 A 
ATOM     13  C   UNL     1      -1.676   5.721   7.900  1.00  0.00     0.004 A 
ATOM     14  C   UNL     1      -2.206   5.741   6.609  1.00  0.00    -0.051 A 
ATOM     15  C   UNL     1      -1.383   6.243   5.472  1.00  0.00     0.044 C 
ENDBRANCH   7   9
ENDBRANCH   1   7
BRANCH   4  16
ATOM     16  N   UNL     1      -5.361   8.326  12.526  1.00  0.00     0.066 N 
ATOM     17  O   UNL     1      -5.961   8.741  13.547  1.00  0.00    -0.258 OA
ATOM     18  O   UNL     1      -5.083   9.078  11.563  1.00  0.00    -0.258 OA
ENDBRANCH   4  16
BRANCH   5  19
ATOM     19  O   UNL     1      -3.951   4.209  14.655  1.00  0.00    -0.504 OA
ATOM     20  H   UNL     1      -4.703   3.657  14.926  1.00  0.00     0.293 HD
ENDBRANCH   5  19
BRANCH   6  21
ATOM     21  O   UNL     1      -4.677   6.866  14.836  1.00  0.00    -0.500 OA
ATOM     22  H   UNL     1      -5.004   6.246  15.506  1.00  0.00     0.294 HD
ENDBRANCH   6  21
TORSDOF 5
ENDMDL
MODEL 5
REMARK VINA RESULT:    -4.646      1.665      3.119
REMARK INTER + INTRA:          -6.525
REMARK INTER:                  -5.809
REMARK INTRA:                  -0.716
REMARK UNBOUND:                -0.792
REMARK SMILES Cc1ccc(C(=O)c2cc(O)c(O)c([N+](=O)[O-])c2)cc1
REMARK SMILES IDX 8 1 18 2 9 3 14 4 10 5 12 6 6 7 7 8 5 9 4 10 19 11 3 12
REMARK SMILES IDX 20 13 2 14 1 15 15 16 17 17 16 18 11 19 13 21
REMARK H PARENT 11 20 13 22
ROOT
ATOM      1  C   UNL     1      -1.766   4.733   7.751  1.00  0.00     0.033 A 
ATOM      2  C   UNL     1      -1.923   3.372   7.876  1.00  0.00     0.102 A 
ATOM      3  C   UNL     1      -1.900   5.393   6.552  1.00  0.00     0.063 A 
ATOM      4  C   UNL     1      -2.232   2.629   6.737  1.00  0.00     0.315 A 
ATOM      5  C   UNL     1      -2.208   4.649   5.412  1.00  0.00     0.165 A 
ATOM      6  C   UNL     1      -2.374   3.267   5.505  1.00  0.00     0.237 A 
ENDROOT
BRANCH   1   7
ATOM      7  C   UNL     1      -1.436   5.530   8.971  1.00  0.00     0.193 C 
ATOM      8  O   UNL     1      -0.240   5.793   9.171  1.00  0.00    -0.289 OA
BRANCH   7   9
ATOM      9  C   UNL     1      -2.454   5.990   9.901  1.00  0.00     0.023 A 
ATOM     10  C   UNL     1      -2.258   7.167  10.624  1.00  0.00     0.012 A 
ATOM     11  C   UNL     1      -3.627   5.254  10.071  1.00  0.00     0.012 A 
ATOM     12  C   UNL     1      -3.235   7.608  11.516  1.00  0.00     0.004 A 
ATOM     13  C   UNL     1      -4.605   5.695  10.964  1.00  0.00     0.004 A 
ATOM     14  C   UNL     1      -4.409   6.872  11.686  1.00  0.00    -0.051 A 
ATOM     15  C   UNL     1      -5.452   7.344  12.641  1.00  0.00     0.044 C 
ENDBRANCH   7   9
ENDBRANCH   1   7
BRANCH   4  16
ATOM     16  N   UNL     1      -2.397   1.221   6.851  1.00  0.00     0.066 N 
ATOM     17  O   UNL     1      -1.781   0.472   6.054  1.00  0.00    -0.258 OA
ATOM     18  O   UNL     1      -3.152   0.770   7.743  1.00  0.00    -0.258 OA
ENDBRANCH   4  16
BRANCH   5  19
ATOM     19  O   UNL     1      -2.344   5.286   4.215  1.00  0.00    -0.504 OA
ATOM     20  H   UNL     1      -2.961   6.030   4.311  1.00  0.00     0.293 HD
ENDBRANCH   5  19
BRANCH   6  21
ATOM     21  O   UNL     1      -2.676   2.550   4.383  1.00  0.00    -0.500 OA
ATOM     22  H   UNL     1      -2.054   1.812   4.290  1.00  0.00     0.294 HD
ENDBRANCH   6  21
TORSDOF 5
ENDMDL
MODEL 6
REMARK VINA RESULT:    -4.622      3.908      7.164
REMARK INTER + INTRA:          -6.495
REMARK INTER:                  -5.837
REMARK INTRA:                  -0.658
REMARK UNBOUND:                -0.792
REMARK SMILES Cc1ccc(C(=O)c2cc(O)c(O)c([N+](=O)[O-])c2)cc1
REMARK SMILES IDX 8 1 18 2 9 3 14 4 10 5 12 6 6 7 7 8 5 9 4 10 19 11 3 12
REMARK SMILES IDX 20 13 2 14 1 15 15 16 17 17 16 18 11 19 13 21
REMARK H PARENT 11 20 13 22
ROOT
ATOM      1  C   UNL     1      -4.111   5.572  11.597  1.00  0.00     0.033 A 
ATOM      2  C   UNL     1      -4.662   6.670  12.216  1.00  0.00     0.102 A 
ATOM      3  C   UNL     1      -3.658   4.474  12.288  1.00  0.00     0.063 A 
ATOM      4  C   UNL     1      -4.766   6.669  13.607  1.00  0.00     0.315 A 
ATOM      5  C   UNL     1      -3.761   4.473  13.680  1.00  0.00     0.165 A 
ATOM      6  C   UNL     1      -4.316   5.570  14.339  1.00  0.00     0.237 A 
ENDROOT
BRANCH   1   7
ATOM      7  C   UNL     1      -4.000   5.574  10.107  1.00  0.00     0.193 C 
ATOM      8  O   UNL     1      -4.082   6.669   9.531  1.00  0.00    -0.289 OA
BRANCH   7   9
ATOM      9  C   UNL     1      -3.802   4.355   9.339  1.00  0.00     0.023 A 
ATOM     10  C   UNL     1      -2.510   3.913   9.052  1.00  0.00     0.012 A 
ATOM     11  C   UNL     1      -4.903   3.628   8.889  1.00  0.00     0.012 A 
ATOM     12  C   UNL     1      -2.321   2.744   8.315  1.00  0.00     0.004 A 
ATOM     13  C   UNL     1      -4.714   2.458   8.152  1.00  0.00     0.004 A 
ATOM     14  C   UNL     1      -3.423   2.016   7.865  1.00  0.00    -0.051 A 
ATOM     15  C   UNL     1      -3.219   0.767   7.076  1.00  0.00     0.044 C 
ENDBRANCH   7   9
ENDBRANCH   1   7
BRANCH   4  16
ATOM     16  N   UNL     1      -5.333   7.796  14.262  1.00  0.00     0.066 N 
ATOM     17  O   UNL     1      -5.824   8.717  13.566  1.00  0.00    -0.258 OA
ATOM     18  O   UNL     1      -5.327   7.836  15.514  1.00  0.00    -0.258 OA
ENDBRANCH   4  16
BRANCH   5  19
ATOM     19  O   UNL     1      -3.318   3.393  14.382  1.00  0.00    -0.504 OA
ATOM     20  H   UNL     1      -2.550   3.647  14.920  1.00  0.00     0.293 HD
ENDBRANCH   5  19
BRANCH   6  21
ATOM     21  O   UNL     1      -4.412   5.557  15.701  1.00  0.00    -0.500 OA
ATOM     22  H   UNL     1      -4.559   4.649  16.008  1.00  0.00     0.294 HD
ENDBRANCH   6  21
TORSDOF 5
ENDMDL
MODEL 7
REMARK VINA RESULT:    -4.593      3.989      7.240
REMARK INTER + INTRA:          -6.460
REMARK INTER:                  -5.820
REMARK INTRA:                  -0.640
REMARK UNBOUND:                -0.792
REMARK SMILES Cc1ccc(C(=O)c2cc(O)c(O)c([N+](=O)[O-])c2)cc1
REMARK SMILES IDX 8 1 18 2 9 3 14 4 10 5 12 6 6 7 7 8 5 9 4 10 19 11 3 12
REMARK SMILES IDX 20 13 2 14 1 15 15 16 17 17 16 18 11 19 13 21
REMARK H PARENT 11 20 13 22
ROOT
ATOM      1  C   UNL     1      -4.206   6.072  11.379  1.00  0.00     0.033 A 
ATOM      2  C   UNL     1      -4.266   5.890  12.741  1.00  0.00     0.102 A 
ATOM      3  C   UNL     1      -4.715   7.183  10.751  1.00  0.00     0.063 A 
ATOM      4  C   UNL     1      -4.868   6.878  13.520  1.00  0.00     0.315 A 
ATOM      5  C   UNL     1      -5.319   8.171  11.530  1.00  0.00     0.165 A 
ATOM      6  C   UNL     1      -5.395   8.019  12.915  1.00  0.00     0.237 A 
ENDROOT
BRANCH   1   7
ATOM      7  C   UNL     1      -3.561   5.013  10.544  1.00  0.00     0.193 C 
ATOM      8  O   UNL     1      -3.437   3.888  11.050  1.00  0.00    -0.289 OA
BRANCH   7   9
ATOM      9  C   UNL     1      -3.090   5.266   9.192  1.00  0.00     0.023 A 
ATOM     10  C   UNL     1      -1.774   5.678   8.977  1.00  0.00     0.012 A 
ATOM     11  C   UNL     1      -3.953   5.096   8.110  1.00  0.00     0.012 A 
ATOM     12  C   UNL     1      -1.323   5.920   7.680  1.00  0.00     0.004 A 
ATOM     13  C   UNL     1      -3.501   5.338   6.811  1.00  0.00     0.004 A 
ATOM     14  C   UNL     1      -2.186   5.750   6.597  1.00  0.00    -0.051 A 
ATOM     15  C   UNL     1      -1.703   6.011   5.211  1.00  0.00     0.044 C 
ENDBRANCH   7   9
ENDBRANCH   1   7
BRANCH   4  16
ATOM     16  N   UNL     1      -4.937   6.704  14.929  1.00  0.00     0.066 N 
ATOM     17  O   UNL     1      -4.482   5.649  15.433  1.00  0.00    -0.258 OA
ATOM     18  O   UNL     1      -5.448   7.611  15.627  1.00  0.00    -0.258 OA
ENDBRANCH   4  16
BRANCH   5  19
ATOM     19  O   UNL     1      -5.829   9.281  10.925  1.00  0.00    -0.504 OA
ATOM     20  H   UNL     1      -5.626  10.066  11.461  1.00  0.00     0.293 HD
ENDBRANCH   5  19
BRANCH   6  21
ATOM     21  O   UNL     1      -5.986   8.992  13.666  1.00  0.00    -0.500 OA
ATOM     22  H   UNL     1      -5.748   9.865  13.316  1.00  0.00     0.294 HD
ENDBRANCH   6  21
TORSDOF 5
ENDMDL
MODEL 8
REMARK VINA RESULT:    -4.461      1.285      2.919
REMARK INTER + INTRA:          -6.296
REMARK INTER:                  -5.575
REMARK INTRA:                  -0.721
REMARK UNBOUND:                -0.792
REMARK SMILES Cc1ccc(C(=O)c2cc(O)c(O)c([N+](=O)[O-])c2)cc1
REMARK SMILES IDX 8 1 18 2 9 3 14 4 10 5 12 6 6 7 7 8 5 9 4 10 19 11 3 12
REMARK SMILES IDX 20 13 2 14 1 15 15 16 17 17 16 18 11 19 13 21
REMARK H PARENT 11 20 13 22
ROOT
ATOM      1  C   UNL     1      -2.812   4.095   9.059  1.00  0.00     0.033 A 
ATOM      2  C   UNL     1      -3.025   2.813   8.610  1.00  0.00     0.102 A 
ATOM      3  C   UNL     1      -2.324   5.097   8.253  1.00  0.00     0.063 A 
ATOM      4  C   UNL     1      -2.735   2.515   7.279  1.00  0.00     0.315 A 
ATOM      5  C   UNL     1      -2.033   4.799   6.922  1.00  0.00     0.165 A 
ATOM      6  C   UNL     1      -2.239   3.508   6.434  1.00  0.00     0.237 A 
ENDROOT
BRANCH   1   7
ATOM      7  C   UNL     1      -3.122   4.414  10.485  1.00  0.00     0.193 C 
ATOM      8  O   UNL     1      -2.726   3.614  11.346  1.00  0.00    -0.289 OA
BRANCH   7   9
ATOM      9  C   UNL     1      -3.857   5.607  10.876  1.00  0.00     0.023 A 
ATOM     10  C   UNL     1      -3.178   6.809  11.079  1.00  0.00     0.012 A 
ATOM     11  C   UNL     1      -5.240   5.550  11.046  1.00  0.00     0.012 A 
ATOM     12  C   UNL     1      -3.883   7.953  11.453  1.00  0.00     0.004 A 
ATOM     13  C   UNL     1      -5.945   6.694  11.420  1.00  0.00     0.004 A 
ATOM     14  C   UNL     1      -5.267   7.896  11.624  1.00  0.00    -0.051 A 
ATOM     15  C   UNL     1      -6.019   9.119  12.025  1.00  0.00     0.044 C 
ENDBRANCH   7   9
ENDBRANCH   1   7
BRANCH   4  16
ATOM     16  N   UNL     1      -2.951   1.194   6.800  1.00  0.00     0.066 N 
ATOM     17  O   UNL     1      -1.981   0.554   6.327  1.00  0.00    -0.258 OA
ATOM     18  O   UNL     1      -4.104   0.707   6.866  1.00  0.00    -0.258 OA
ENDBRANCH   4  16
BRANCH   5  19
ATOM     19  O   UNL     1      -1.549   5.779   6.108  1.00  0.00    -0.504 OA
ATOM     20  H   UNL     1      -2.205   6.491   6.031  1.00  0.00     0.293 HD
ENDBRANCH   5  19
BRANCH   6  21
ATOM     21  O   UNL     1      -1.951   3.229   5.130  1.00  0.00    -0.500 OA
ATOM     22  H   UNL     1      -0.990   3.227   5.001  1.00  0.00     0.294 HD
ENDBRANCH   6  21
TORSDOF 5
ENDMDL
MODEL 9
REMARK VINA RESULT:    -4.439      1.981      2.640
REMARK INTER + INTRA:          -6.270
REMARK INTER:                  -5.544
REMARK INTRA:                  -0.725
REMARK UNBOUND:                -0.792
REMARK SMILES Cc1ccc(C(=O)c2cc(O)c(O)c([N+](=O)[O-])c2)cc1
REMARK SMILES IDX 8 1 18 2 9 3 14 4 10 5 12 6 6 7 7 8 5 9 4 10 19 11 3 12
REMARK SMILES IDX 20 13 2 14 1 15 15 16 17 17 16 18 11 19 13 21
REMARK H PARENT 11 20 13 22
ROOT
ATOM      1  C   UNL     1      -3.720   4.998   8.376  1.00  0.00     0.033 A 
ATOM      2  C   UNL     1      -3.048   5.633   7.357  1.00  0.00     0.102 A 
ATOM      3  C   UNL     1      -3.958   3.644   8.383  1.00  0.00     0.063 A 
ATOM      4  C   UNL     1      -2.587   4.869   6.285  1.00  0.00     0.315 A 
ATOM      5  C   UNL     1      -3.498   2.880   7.310  1.00  0.00     0.165 A 
ATOM      6  C   UNL     1      -2.812   3.493   6.261  1.00  0.00     0.237 A 
ENDROOT
BRANCH   1   7
ATOM      7  C   UNL     1      -4.213   5.816   9.525  1.00  0.00     0.193 C 
ATOM      8  O   UNL     1      -4.797   6.877   9.258  1.00  0.00    -0.289 OA
BRANCH   7   9
ATOM      9  C   UNL     1      -4.030   5.407  10.908  1.00  0.00     0.023 A 
ATOM     10  C   UNL     1      -2.921   5.855  11.627  1.00  0.00     0.012 A 
ATOM     11  C   UNL     1      -4.963   4.569  11.517  1.00  0.00     0.012 A 
ATOM     12  C   UNL     1      -2.746   5.463  12.954  1.00  0.00     0.004 A 
ATOM     13  C   UNL     1      -4.789   4.177  12.845  1.00  0.00     0.004 A 
ATOM     14  C   UNL     1      -3.680   4.624  13.564  1.00  0.00    -0.051 A 
ATOM     15  C   UNL     1      -3.492   4.205  14.982  1.00  0.00     0.044 C 
ENDBRANCH   7   9
ENDBRANCH   1   7
BRANCH   4  16
ATOM     16  N   UNL     1      -1.891   5.511   5.224  1.00  0.00     0.066 N 
ATOM     17  O   UNL     1      -0.839   6.143   5.485  1.00  0.00    -0.258 OA
ATOM     18  O   UNL     1      -2.347   5.425   4.060  1.00  0.00    -0.258 OA
ENDBRANCH   4  16
BRANCH   5  19
ATOM     19  O   UNL     1      -3.725   1.536   7.301  1.00  0.00    -0.504 OA
ATOM     20  H   UNL     1      -4.667   1.366   7.136  1.00  0.00     0.293 HD
ENDBRANCH   5  19
BRANCH   6  21
ATOM     21  O   UNL     1      -2.366   2.734   5.217  1.00  0.00    -0.500 OA
ATOM     22  H   UNL     1      -2.688   3.108   4.382  1.00  0.00     0.294 HD
ENDBRANCH   6  21
TORSDOF 5
ENDMDL
