MODEL 1
REMARK VINA RESULT:    -5.286      0.000      0.000
REMARK INTER + INTRA:          -7.294
REMARK INTER:                  -6.523
REMARK INTRA:                  -0.771
REMARK UNBOUND:                -0.771
REMARK SMILES Cc1ccc(C(=O)c2cc(O)c(O)c([N+](=O)[O-])c2)cc1
REMARK SMILES IDX 8 1 18 2 9 3 14 4 10 5 12 6 6 7 7 8 5 9 4 10 19 11 3 12
REMARK SMILES IDX 20 13 2 14 1 15 15 16 17 17 16 18 11 19 13 21
REMARK H PARENT 11 20 13 22
ROOT
ATOM      1  C   UNL     1       3.421   6.137  -2.750  1.00  0.00     0.033 A 
ATOM      2  C   UNL     1       2.291   5.765  -3.441  1.00  0.00     0.102 A 
ATOM      3  C   UNL     1       3.923   5.412  -1.695  1.00  0.00     0.063 A 
ATOM      4  C   UNL     1       1.626   4.601  -3.054  1.00  0.00     0.315 A 
ATOM      5  C   UNL     1       3.257   4.249  -1.308  1.00  0.00     0.165 A 
ATOM      6  C   UNL     1       2.108   3.843  -1.988  1.00  0.00     0.237 A 
ENDROOT
BRANCH   1   7
ATOM      7  C   UNL     1       4.133   7.383  -3.163  1.00  0.00     0.193 C 
ATOM      8  O   UNL     1       5.373   7.370  -3.123  1.00  0.00    -0.289 OA
BRANCH   7   9
ATOM      9  C   UNL     1       3.427   8.577  -3.600  1.00  0.00     0.023 A 
ATOM     10  C   UNL     1       3.146   9.594  -2.688  1.00  0.00     0.012 A 
ATOM     11  C   UNL     1       3.030   8.705  -4.931  1.00  0.00     0.012 A 
ATOM     12  C   UNL     1       2.469  10.739  -3.107  1.00  0.00     0.004 A 
ATOM     13  C   UNL     1       2.352   9.850  -5.351  1.00  0.00     0.004 A 
ATOM     14  C   UNL     1       2.072  10.867  -4.439  1.00  0.00    -0.051 A 
ATOM     15  C   UNL     1       1.346  12.091  -4.886  1.00  0.00     0.044 C 
ENDBRANCH   7   9
ENDBRANCH   1   7
BRANCH   4  16
ATOM     16  N   UNL     1       0.456   4.204  -3.759  1.00  0.00     0.066 N 
ATOM     17  O   UNL     1       0.422   4.346  -5.005  1.00  0.00    -0.258 OA
ATOM     18  O   UNL     1      -0.505   3.723  -3.115  1.00  0.00    -0.258 OA
ENDBRANCH   4  16
BRANCH   5  19
ATOM     19  O   UNL     1       3.741   3.518  -0.265  1.00  0.00    -0.504 OA
ATOM     20  H   UNL     1       4.280   4.087   0.309  1.00  0.00     0.293 HD
ENDBRANCH   5  19
BRANCH   6  21
ATOM     21  O   UNL     1       1.467   2.703  -1.601  1.00  0.00    -0.500 OA
ATOM     22  H   UNL     1       0.573   2.687  -1.978  1.00  0.00     0.294 HD
ENDBRANCH   6  21
TORSDOF 5
ENDMDL
MODEL 2
REMARK VINA RESULT:    -5.265      2.034      3.556
REMARK INTER + INTRA:          -7.268
REMARK INTER:                  -6.500
REMARK INTRA:                  -0.767
REMARK UNBOUND:                -0.771
REMARK SMILES Cc1ccc(C(=O)c2cc(O)c(O)c([N+](=O)[O-])c2)cc1
REMARK SMILES IDX 8 1 18 2 9 3 14 4 10 5 12 6 6 7 7 8 5 9 4 10 19 11 3 12
REMARK SMILES IDX 20 13 2 14 1 15 15 16 17 17 16 18 11 19 13 21
REMARK H PARENT 11 20 13 22
ROOT
ATOM      1  C   UNL     1       1.655   6.595  -2.733  1.00  0.00     0.033 A 
ATOM      2  C   UNL     1       2.624   6.184  -1.847  1.00  0.00     0.102 A 
ATOM      3  C   UNL     1       0.695   5.748  -3.233  1.00  0.00     0.063 A 
ATOM      4  C   UNL     1       2.632   4.851  -1.437  1.00  0.00     0.315 A 
ATOM      5  C   UNL     1       0.702   4.414  -2.824  1.00  0.00     0.165 A 
ATOM      6  C   UNL     1       1.671   3.966  -1.925  1.00  0.00     0.237 A 
ENDROOT
BRANCH   1   7
ATOM      7  C   UNL     1       1.647   8.023  -3.173  1.00  0.00     0.193 C 
ATOM      8  O   UNL     1       0.544   8.544  -3.393  1.00  0.00    -0.289 OA
BRANCH   7   9
ATOM      9  C   UNL     1       2.869   8.793  -3.342  1.00  0.00     0.023 A 
ATOM     10  C   UNL     1       3.458   8.898  -4.602  1.00  0.00     0.012 A 
ATOM     11  C   UNL     1       3.451   9.428  -2.245  1.00  0.00     0.012 A 
ATOM     12  C   UNL     1       4.630   9.637  -4.764  1.00  0.00     0.004 A 
ATOM     13  C   UNL     1       4.623  10.168  -2.407  1.00  0.00     0.004 A 
ATOM     14  C   UNL     1       5.212  10.273  -3.667  1.00  0.00    -0.051 A 
ATOM     15  C   UNL     1       6.465  11.061  -3.841  1.00  0.00     0.044 C 
ENDBRANCH   7   9
ENDBRANCH   1   7
BRANCH   4  16
ATOM     16  N   UNL     1       3.627   4.413  -0.521  1.00  0.00     0.066 N 
ATOM     17  O   UNL     1       4.080   5.228   0.318  1.00  0.00    -0.258 OA
ATOM     18  O   UNL     1       4.021   3.225  -0.578  1.00  0.00    -0.258 OA
ENDBRANCH   4  16
BRANCH   5  19
ATOM     19  O   UNL     1      -0.243   3.561  -3.309  1.00  0.00    -0.504 OA
ATOM     20  H   UNL     1       0.183   2.741  -3.610  1.00  0.00     0.293 HD
ENDBRANCH   5  19
BRANCH   6  21
ATOM     21  O   UNL     1       1.668   2.659  -1.531  1.00  0.00    -0.500 OA
ATOM     22  H   UNL     1       0.836   2.240  -1.800  1.00  0.00     0.294 HD
ENDBRANCH   6  21
TORSDOF 5
ENDMDL
MODEL 3
REMARK VINA RESULT:    -4.552      1.656      2.955
REMARK INTER + INTRA:          -6.388
REMARK INTER:                  -5.656
REMARK INTRA:                  -0.732
REMARK UNBOUND:                -0.771
REMARK SMILES Cc1ccc(C(=O)c2cc(O)c(O)c([N+](=O)[O-])c2)cc1
REMARK SMILES IDX 8 1 18 2 9 3 14 4 10 5 12 6 6 7 7 8 5 9 4 10 19 11 3 12
REMARK SMILES IDX 20 13 2 14 1 15 15 16 17 17 16 18 11 19 13 21
REMARK H PARENT 11 20 13 22
ROOT
ATOM      1  C   UNL     1       2.451   5.385  -3.810  1.00  0.00     0.033 A 
ATOM      2  C   UNL     1       3.331   5.053  -2.805  1.00  0.00     0.102 A 
ATOM      3  C   UNL     1       1.175   4.879  -3.881  1.00  0.00     0.063 A 
ATOM      4  C   UNL     1       2.909   4.166  -1.815  1.00  0.00     0.315 A 
ATOM      5  C   UNL     1       0.753   3.991  -2.891  1.00  0.00     0.165 A 
ATOM      6  C   UNL     1       1.620   3.635  -1.857  1.00  0.00     0.237 A 
ENDROOT
BRANCH   1   7
ATOM      7  C   UNL     1       2.903   6.335  -4.870  1.00  0.00     0.193 C 
ATOM      8  O   UNL     1       3.357   5.846  -5.916  1.00  0.00    -0.289 OA
BRANCH   7   9
ATOM      9  C   UNL     1       2.825   7.778  -4.709  1.00  0.00     0.023 A 
ATOM     10  C   UNL     1       2.932   8.345  -3.439  1.00  0.00     0.012 A 
ATOM     11  C   UNL     1       2.643   8.596  -5.824  1.00  0.00     0.012 A 
ATOM     12  C   UNL     1       2.857   9.729  -3.285  1.00  0.00     0.004 A 
ATOM     13  C   UNL     1       2.568   9.981  -5.671  1.00  0.00     0.004 A 
ATOM     14  C   UNL     1       2.675  10.548  -4.400  1.00  0.00    -0.051 A 
ATOM     15  C   UNL     1       2.594  12.027  -4.235  1.00  0.00     0.044 C 
ENDBRANCH   7   9
ENDBRANCH   1   7
BRANCH   4  16
ATOM     16  N   UNL     1       3.807   3.814  -0.770  1.00  0.00     0.066 N 
ATOM     17  O   UNL     1       3.976   2.601  -0.499  1.00  0.00    -0.258 OA
ATOM     18  O   UNL     1       4.403   4.726  -0.151  1.00  0.00    -0.258 OA
ENDBRANCH   4  16
BRANCH   5  19
ATOM     19  O   UNL     1      -0.509   3.480  -2.945  1.00  0.00    -0.504 OA
ATOM     20  H   UNL     1      -0.466   2.521  -3.088  1.00  0.00     0.293 HD
ENDBRANCH   5  19
BRANCH   6  21
ATOM     21  O   UNL     1       1.196   2.766  -0.895  1.00  0.00    -0.500 OA
ATOM     22  H   UNL     1       0.377   2.334  -1.184  1.00  0.00     0.294 HD
ENDBRANCH   6  21
TORSDOF 5
ENDMDL
MODEL 4
REMARK VINA RESULT:    -4.540      1.815      2.349
REMARK INTER + INTRA:          -6.373
REMARK INTER:                  -5.729
REMARK INTRA:                  -0.644
REMARK UNBOUND:                -0.771
REMARK SMILES Cc1ccc(C(=O)c2cc(O)c(O)c([N+](=O)[O-])c2)cc1
REMARK SMILES IDX 8 1 18 2 9 3 14 4 10 5 12 6 6 7 7 8 5 9 4 10 19 11 3 12
REMARK SMILES IDX 20 13 2 14 1 15 15 16 17 17 16 18 11 19 13 21
REMARK H PARENT 11 20 13 22
ROOT
ATOM      1  C   UNL     1       2.304   6.215  -1.316  1.00  0.00     0.033 A 
ATOM      2  C   UNL     1       1.277   5.830  -2.145  1.00  0.00     0.102 A 
ATOM      3  C   UNL     1       3.186   5.322  -0.756  1.00  0.00     0.063 A 
ATOM      4  C   UNL     1       1.124   4.473  -2.432  1.00  0.00     0.315 A 
ATOM      5  C   UNL     1       3.034   3.965  -1.042  1.00  0.00     0.165 A 
ATOM      6  C   UNL     1       2.002   3.540  -1.881  1.00  0.00     0.237 A 
ENDROOT
BRANCH   1   7
ATOM      7  C   UNL     1       2.467   7.668  -1.008  1.00  0.00     0.193 C 
ATOM      8  O   UNL     1       1.988   8.081   0.058  1.00  0.00    -0.289 OA
BRANCH   7   9
ATOM      9  C   UNL     1       3.156   8.582  -1.905  1.00  0.00     0.023 A 
ATOM     10  C   UNL     1       3.068   8.403  -3.286  1.00  0.00     0.012 A 
ATOM     11  C   UNL     1       3.905   9.638  -1.386  1.00  0.00     0.012 A 
ATOM     12  C   UNL     1       3.728   9.280  -4.146  1.00  0.00     0.004 A 
ATOM     13  C   UNL     1       4.566  10.516  -2.246  1.00  0.00     0.004 A 
ATOM     14  C   UNL     1       4.477  10.337  -3.626  1.00  0.00    -0.051 A 
ATOM     15  C   UNL     1       5.184  11.273  -4.546  1.00  0.00     0.044 C 
ENDBRANCH   7   9
ENDBRANCH   1   7
BRANCH   4  16
ATOM     16  N   UNL     1       0.067   4.059  -3.288  1.00  0.00     0.066 N 
ATOM     17  O   UNL     1      -0.798   3.266  -2.844  1.00  0.00    -0.258 OA
ATOM     18  O   UNL     1       0.030   4.499  -4.461  1.00  0.00    -0.258 OA
ENDBRANCH   4  16
BRANCH   5  19
ATOM     19  O   UNL     1       3.899   3.065  -0.496  1.00  0.00    -0.504 OA
ATOM     20  H   UNL     1       3.414   2.461   0.090  1.00  0.00     0.293 HD
ENDBRANCH   5  19
BRANCH   6  21
ATOM     21  O   UNL     1       1.864   2.211  -2.153  1.00  0.00    -0.500 OA
ATOM     22  H   UNL     1       2.403   1.693  -1.535  1.00  0.00     0.294 HD
ENDBRANCH   6  21
TORSDOF 5
ENDMDL
MODEL 5
REMARK VINA RESULT:    -4.415      2.368      4.042
REMARK INTER + INTRA:          -6.219
REMARK INTER:                  -5.236
REMARK INTRA:                  -0.982
REMARK UNBOUND:                -0.771
REMARK SMILES Cc1ccc(C(=O)c2cc(O)c(O)c([N+](=O)[O-])c2)cc1
REMARK SMILES IDX 8 1 18 2 9 3 14 4 10 5 12 6 6 7 7 8 5 9 4 10 19 11 3 12
REMARK SMILES IDX 20 13 2 14 1 15 15 16 17 17 16 18 11 19 13 21
REMARK H PARENT 11 20 13 22
ROOT
ATOM      1  C   UNL     1       3.097   9.045  -4.632  1.00  0.00     0.033 A 
ATOM      2  C   UNL     1       2.890   8.173  -3.588  1.00  0.00     0.102 A 
ATOM      3  C   UNL     1       3.035   8.659  -5.950  1.00  0.00     0.063 A 
ATOM      4  C   UNL     1       2.602   6.840  -3.880  1.00  0.00     0.315 A 
ATOM      5  C   UNL     1       2.748   7.325  -6.242  1.00  0.00     0.165 A 
ATOM      6  C   UNL     1       2.531   6.416  -5.206  1.00  0.00     0.237 A 
ENDROOT
BRANCH   1   7
ATOM      7  C   UNL     1       3.405  10.473  -4.320  1.00  0.00     0.193 C 
ATOM      8  O   UNL     1       4.550  10.735  -3.921  1.00  0.00    -0.289 OA
BRANCH   7   9
ATOM      9  C   UNL     1       2.421  11.533  -4.469  1.00  0.00     0.023 A 
ATOM     10  C   UNL     1       1.174  11.420  -3.853  1.00  0.00     0.012 A 
ATOM     11  C   UNL     1       2.723  12.665  -5.227  1.00  0.00     0.012 A 
ATOM     12  C   UNL     1       0.231  12.437  -3.996  1.00  0.00     0.004 A 
ATOM     13  C   UNL     1       1.780  13.683  -5.370  1.00  0.00     0.004 A 
ATOM     14  C   UNL     1       0.533  13.569  -4.754  1.00  0.00    -0.051 A 
ATOM     15  C   UNL     1      -0.476  14.655  -4.908  1.00  0.00     0.044 C 
ENDBRANCH   7   9
ENDBRANCH   1   7
BRANCH   4  16
ATOM     16  N   UNL     1       2.385   5.927  -2.811  1.00  0.00     0.066 N 
ATOM     17  O   UNL     1       2.905   4.787  -2.873  1.00  0.00    -0.258 OA
ATOM     18  O   UNL     1       1.681   6.289  -1.839  1.00  0.00    -0.258 OA
ENDBRANCH   4  16
BRANCH   5  19
ATOM     19  O   UNL     1       2.682   6.925  -7.543  1.00  0.00    -0.504 OA
ATOM     20  H   UNL     1       2.066   6.178  -7.622  1.00  0.00     0.293 HD
ENDBRANCH   5  19
BRANCH   6  21
ATOM     21  O   UNL     1       2.251   5.114  -5.504  1.00  0.00    -0.500 OA
ATOM     22  H   UNL     1       2.224   4.998  -6.467  1.00  0.00     0.294 HD
ENDBRANCH   6  21
TORSDOF 5
ENDMDL
MODEL 6
REMARK VINA RESULT:    -4.384      3.608      4.449
REMARK INTER + INTRA:          -6.180
REMARK INTER:                  -5.223
REMARK INTRA:                  -0.958
REMARK UNBOUND:                -0.771
REMARK SMILES Cc1ccc(C(=O)c2cc(O)c(O)c([N+](=O)[O-])c2)cc1
REMARK SMILES IDX 8 1 18 2 9 3 14 4 10 5 12 6 6 7 7 8 5 9 4 10 19 11 3 12
REMARK SMILES IDX 20 13 2 14 1 15 15 16 17 17 16 18 11 19 13 21
REMARK H PARENT 11 20 13 22
ROOT
ATOM      1  C   UNL     1       3.536   9.619  -2.711  1.00  0.00     0.033 A 
ATOM      2  C   UNL     1       3.178   8.365  -3.147  1.00  0.00     0.102 A 
ATOM      3  C   UNL     1       3.585   9.961  -1.380  1.00  0.00     0.063 A 
ATOM      4  C   UNL     1       2.853   7.396  -2.198  1.00  0.00     0.315 A 
ATOM      5  C   UNL     1       3.259   8.992  -0.430  1.00  0.00     0.165 A 
ATOM      6  C   UNL     1       2.893   7.709  -0.839  1.00  0.00     0.237 A 
ENDROOT
BRANCH   1   7
ATOM      7  C   UNL     1       3.884  10.657  -3.727  1.00  0.00     0.193 C 
ATOM      8  O   UNL     1       2.945  11.234  -4.296  1.00  0.00    -0.289 OA
BRANCH   7   9
ATOM      9  C   UNL     1       5.260  10.997  -4.055  1.00  0.00     0.023 A 
ATOM     10  C   UNL     1       5.666  12.331  -4.062  1.00  0.00     0.012 A 
ATOM     11  C   UNL     1       6.173   9.988  -4.363  1.00  0.00     0.012 A 
ATOM     12  C   UNL     1       6.986  12.656  -4.376  1.00  0.00     0.004 A 
ATOM     13  C   UNL     1       7.493  10.313  -4.677  1.00  0.00     0.004 A 
ATOM     14  C   UNL     1       7.900  11.647  -4.684  1.00  0.00    -0.051 A 
ATOM     15  C   UNL     1       9.309  11.995  -5.021  1.00  0.00     0.044 C 
ENDBRANCH   7   9
ENDBRANCH   1   7
BRANCH   4  16
ATOM     16  N   UNL     1       2.482   6.095  -2.634  1.00  0.00     0.066 N 
ATOM     17  O   UNL     1       3.022   5.623  -3.663  1.00  0.00    -0.258 OA
ATOM     18  O   UNL     1       1.627   5.456  -1.976  1.00  0.00    -0.258 OA
ENDBRANCH   4  16
BRANCH   5  19
ATOM     19  O   UNL     1       3.304   9.312   0.894  1.00  0.00    -0.504 OA
ATOM     20  H   UNL     1       3.281  10.278   0.996  1.00  0.00     0.293 HD
ENDBRANCH   5  19
BRANCH   6  21
ATOM     21  O   UNL     1       2.577   6.770   0.099  1.00  0.00    -0.500 OA
ATOM     22  H   UNL     1       1.626   6.584   0.066  1.00  0.00     0.294 HD
ENDBRANCH   6  21
TORSDOF 5
ENDMDL
MODEL 7
REMARK VINA RESULT:    -4.379      1.265      2.684
REMARK INTER + INTRA:          -6.174
REMARK INTER:                  -5.481
REMARK INTRA:                  -0.693
REMARK UNBOUND:                -0.771
REMARK SMILES Cc1ccc(C(=O)c2cc(O)c(O)c([N+](=O)[O-])c2)cc1
REMARK SMILES IDX 8 1 18 2 9 3 14 4 10 5 12 6 6 7 7 8 5 9 4 10 19 11 3 12
REMARK SMILES IDX 20 13 2 14 1 15 15 16 17 17 16 18 11 19 13 21
REMARK H PARENT 11 20 13 22
ROOT
ATOM      1  C   UNL     1       3.333   6.678  -2.976  1.00  0.00     0.033 A 
ATOM      2  C   UNL     1       3.763   6.016  -1.849  1.00  0.00     0.102 A 
ATOM      3  C   UNL     1       2.337   6.195  -3.791  1.00  0.00     0.063 A 
ATOM      4  C   UNL     1       3.161   4.802  -1.519  1.00  0.00     0.315 A 
ATOM      5  C   UNL     1       1.735   4.980  -3.461  1.00  0.00     0.165 A 
ATOM      6  C   UNL     1       2.147   4.283  -2.324  1.00  0.00     0.237 A 
ENDROOT
BRANCH   1   7
ATOM      7  C   UNL     1       3.977   7.978  -3.330  1.00  0.00     0.193 C 
ATOM      8  O   UNL     1       5.214   8.037  -3.263  1.00  0.00    -0.289 OA
BRANCH   7   9
ATOM      9  C   UNL     1       3.209   9.143  -3.740  1.00  0.00     0.023 A 
ATOM     10  C   UNL     1       2.866  10.117  -2.802  1.00  0.00     0.012 A 
ATOM     11  C   UNL     1       2.816   9.287  -5.070  1.00  0.00     0.012 A 
ATOM     12  C   UNL     1       2.130  11.235  -3.196  1.00  0.00     0.004 A 
ATOM     13  C   UNL     1       2.080  10.404  -5.464  1.00  0.00     0.004 A 
ATOM     14  C   UNL     1       1.736  11.379  -4.527  1.00  0.00    -0.051 A 
ATOM     15  C   UNL     1       0.948  12.572  -4.946  1.00  0.00     0.044 C 
ENDBRANCH   7   9
ENDBRANCH   1   7
BRANCH   4  16
ATOM     16  N   UNL     1       3.594   4.106  -0.357  1.00  0.00     0.066 N 
ATOM     17  O   UNL     1       4.038   2.939  -0.480  1.00  0.00    -0.258 OA
ATOM     18  O   UNL     1       3.521   4.679   0.755  1.00  0.00    -0.258 OA
ENDBRANCH   4  16
BRANCH   5  19
ATOM     19  O   UNL     1       0.746   4.486  -4.257  1.00  0.00    -0.504 OA
ATOM     20  H   UNL     1      -0.115   4.817  -3.950  1.00  0.00     0.293 HD
ENDBRANCH   5  19
BRANCH   6  21
ATOM     21  O   UNL     1       1.550   3.097  -2.011  1.00  0.00    -0.500 OA
ATOM     22  H   UNL     1       1.409   3.045  -1.053  1.00  0.00     0.294 HD
ENDBRANCH   6  21
TORSDOF 5
ENDMDL
MODEL 8
REMARK VINA RESULT:    -4.274      3.691      6.485
REMARK INTER + INTRA:          -6.045
REMARK INTER:                  -5.157
REMARK INTRA:                  -0.888
REMARK UNBOUND:                -0.771
REMARK SMILES Cc1ccc(C(=O)c2cc(O)c(O)c([N+](=O)[O-])c2)cc1
REMARK SMILES IDX 8 1 18 2 9 3 14 4 10 5 12 6 6 7 7 8 5 9 4 10 19 11 3 12
REMARK SMILES IDX 20 13 2 14 1 15 15 16 17 17 16 18 11 19 13 21
REMARK H PARENT 11 20 13 22
ROOT
ATOM      1  C   UNL     1       3.648   9.513  -2.815  1.00  0.00     0.033 A 
ATOM      2  C   UNL     1       2.782  10.327  -3.507  1.00  0.00     0.102 A 
ATOM      3  C   UNL     1       5.008   9.710  -2.802  1.00  0.00     0.063 A 
ATOM      4  C   UNL     1       3.307  11.400  -4.227  1.00  0.00     0.315 A 
ATOM      5  C   UNL     1       5.534  10.783  -3.522  1.00  0.00     0.165 A 
ATOM      6  C   UNL     1       4.683  11.629  -4.235  1.00  0.00     0.237 A 
ENDROOT
BRANCH   1   7
ATOM      7  C   UNL     1       3.086   8.363  -2.044  1.00  0.00     0.193 C 
ATOM      8  O   UNL     1       3.283   8.348  -0.820  1.00  0.00    -0.289 OA
BRANCH   7   9
ATOM      9  C   UNL     1       2.333   7.292  -2.678  1.00  0.00     0.023 A 
ATOM     10  C   UNL     1       1.247   6.718  -2.019  1.00  0.00     0.012 A 
ATOM     11  C   UNL     1       2.698   6.840  -3.946  1.00  0.00     0.012 A 
ATOM     12  C   UNL     1       0.525   5.691  -2.627  1.00  0.00     0.004 A 
ATOM     13  C   UNL     1       1.976   5.813  -4.556  1.00  0.00     0.004 A 
ATOM     14  C   UNL     1       0.889   5.239  -3.896  1.00  0.00    -0.051 A 
ATOM     15  C   UNL     1       0.119   4.140  -4.546  1.00  0.00     0.044 C 
ENDBRANCH   7   9
ENDBRANCH   1   7
BRANCH   4  16
ATOM     16  N   UNL     1       2.424  12.251  -4.947  1.00  0.00     0.066 N 
ATOM     17  O   UNL     1       2.734  13.457  -5.099  1.00  0.00    -0.258 OA
ATOM     18  O   UNL     1       1.363  11.771  -5.410  1.00  0.00    -0.258 OA
ENDBRANCH   4  16
BRANCH   5  19
ATOM     19  O   UNL     1       6.880  10.994  -3.521  1.00  0.00    -0.504 OA
ATOM     20  H   UNL     1       7.061  11.941  -3.397  1.00  0.00     0.293 HD
ENDBRANCH   5  19
BRANCH   6  21
ATOM     21  O   UNL     1       5.209  12.675  -4.935  1.00  0.00    -0.500 OA
ATOM     22  H   UNL     1       4.525  13.064  -5.503  1.00  0.00     0.294 HD
ENDBRANCH   6  21
TORSDOF 5
ENDMDL
MODEL 9
REMARK VINA RESULT:    -4.252      3.539      7.142
REMARK INTER + INTRA:          -6.017
REMARK INTER:                  -5.129
REMARK INTRA:                  -0.888
REMARK UNBOUND:                -0.771
REMARK SMILES Cc1ccc(C(=O)c2cc(O)c(O)c([N+](=O)[O-])c2)cc1
REMARK SMILES IDX 8 1 18 2 9 3 14 4 10 5 12 6 6 7 7 8 5 9 4 10 19 11 3 12
REMARK SMILES IDX 20 13 2 14 1 15 15 16 17 17 16 18 11 19 13 21
REMARK H PARENT 11 20 13 22
ROOT
ATOM      1  C   UNL     1       2.972   9.120  -4.513  1.00  0.00     0.033 A 
ATOM      2  C   UNL     1       4.202   9.677  -4.252  1.00  0.00     0.102 A 
ATOM      3  C   UNL     1       1.864   9.870  -4.828  1.00  0.00     0.063 A 
ATOM      4  C   UNL     1       4.332  11.064  -4.311  1.00  0.00     0.315 A 
ATOM      5  C   UNL     1       1.993  11.258  -4.886  1.00  0.00     0.165 A 
ATOM      6  C   UNL     1       3.228  11.856  -4.628  1.00  0.00     0.237 A 
ENDROOT
BRANCH   1   7
ATOM      7  C   UNL     1       2.833   7.633  -4.450  1.00  0.00     0.193 C 
ATOM      8  O   UNL     1       2.478   7.051  -5.486  1.00  0.00    -0.289 OA
BRANCH   7   9
ATOM      9  C   UNL     1       3.096   6.876  -3.237  1.00  0.00     0.023 A 
ATOM     10  C   UNL     1       3.700   5.621  -3.316  1.00  0.00     0.012 A 
ATOM     11  C   UNL     1       2.747   7.405  -1.995  1.00  0.00     0.012 A 
ATOM     12  C   UNL     1       3.953   4.895  -2.152  1.00  0.00     0.004 A 
ATOM     13  C   UNL     1       3.000   6.680  -0.830  1.00  0.00     0.004 A 
ATOM     14  C   UNL     1       3.604   5.424  -0.909  1.00  0.00    -0.051 A 
ATOM     15  C   UNL     1       3.873   4.647   0.334  1.00  0.00     0.044 C 
ENDBRANCH   7   9
ENDBRANCH   1   7
BRANCH   4  16
ATOM     16  N   UNL     1       5.597  11.655  -4.044  1.00  0.00     0.066 N 
ATOM     17  O   UNL     1       6.376  11.083  -3.244  1.00  0.00    -0.258 OA
ATOM     18  O   UNL     1       5.898  12.728  -4.617  1.00  0.00    -0.258 OA
ENDBRANCH   4  16
BRANCH   5  19
ATOM     19  O   UNL     1       0.906  12.019  -5.198  1.00  0.00    -0.504 OA
ATOM     20  H   UNL     1       1.192  12.920  -5.418  1.00  0.00     0.293 HD
ENDBRANCH   5  19
BRANCH   6  21
ATOM     21  O   UNL     1       3.342  13.214  -4.689  1.00  0.00    -0.500 OA
ATOM     22  H   UNL     1       3.705  13.473  -5.550  1.00  0.00     0.294 HD
ENDBRANCH   6  21
TORSDOF 5
ENDMDL
