MODEL 1
REMARK VINA RESULT:    -6.902      0.000      0.000
REMARK INTER + INTRA:          -8.695
REMARK INTER:                  -8.112
REMARK INTRA:                  -0.583
REMARK UNBOUND:                -0.583
REMARK SMILES O=C(O)c1cc(-c2ccc(F)cc2F)ccc1O
REMARK SMILES IDX 6 1 5 2 15 3 4 4 17 5 16 6 7 7 13 8 12 9 8 10 10 11 9 12
REMARK SMILES IDX 14 13 11 14 2 15 1 16 3 17 18 19
REMARK H PARENT 3 18 18 20
ROOT
ATOM      1  C   UNL     1       2.525   6.492  -2.804  1.00  0.00    -0.014 A 
ATOM      2  C   UNL     1       3.232   5.896  -1.761  1.00  0.00     0.028 A 
ATOM      3  C   UNL     1       1.478   5.806  -3.419  1.00  0.00     0.013 A 
ATOM      4  C   UNL     1       2.893   4.612  -1.332  1.00  0.00     0.102 A 
ATOM      5  C   UNL     1       1.846   3.926  -1.947  1.00  0.00     0.130 A 
ATOM      6  C   UNL     1       1.138   4.523  -2.991  1.00  0.00     0.048 A 
ENDROOT
BRANCH   1   7
ATOM      7  C   UNL     1       2.877   7.823  -3.251  1.00  0.00     0.018 A 
ATOM      8  C   UNL     1       3.001   8.095  -4.614  1.00  0.00     0.133 A 
ATOM      9  C   UNL     1       3.341   9.379  -5.040  1.00  0.00     0.079 A 
ATOM     10  C   UNL     1       3.090   8.835  -2.315  1.00  0.00     0.015 A 
ATOM     11  C   UNL     1       3.555  10.391  -4.104  1.00  0.00     0.126 A 
ATOM     12  C   UNL     1       3.429  10.118  -2.742  1.00  0.00     0.040 A 
ATOM     13  F   UNL     1       2.802   7.132  -5.526  1.00  0.00    -0.206 F 
ATOM     14  F   UNL     1       3.881  11.624  -4.512  1.00  0.00    -0.207 F 
ENDBRANCH   1   7
BRANCH   4  15
ATOM     15  C   UNL     1       3.644   4.007  -0.241  1.00  0.00     0.339 C 
ATOM     16  O   UNL     1       4.188   2.901  -0.276  1.00  0.00    -0.246 OA
BRANCH  15  17
ATOM     17  O   UNL     1       3.692   4.806   0.860  1.00  0.00    -0.478 OA
ATOM     18  H   UNL     1       4.325   5.546   0.747  1.00  0.00     0.297 HD
ENDBRANCH  15  17
ENDBRANCH   4  15
BRANCH   5  19
ATOM     19  O   UNL     1       1.499   2.671  -1.542  1.00  0.00    -0.507 OA
ATOM     20  H   UNL     1       1.698   2.577  -0.595  1.00  0.00     0.293 HD
ENDBRANCH   5  19
TORSDOF 4
ENDMDL
MODEL 2
REMARK VINA RESULT:    -6.900      1.207      2.686
REMARK INTER + INTRA:          -8.693
REMARK INTER:                  -8.111
REMARK INTRA:                  -0.582
REMARK UNBOUND:                -0.583
REMARK SMILES O=C(O)c1cc(-c2ccc(F)cc2F)ccc1O
REMARK SMILES IDX 6 1 5 2 15 3 4 4 17 5 16 6 7 7 13 8 12 9 8 10 10 11 9 12
REMARK SMILES IDX 14 13 11 14 2 15 1 16 3 17 18 19
REMARK H PARENT 3 18 18 20
ROOT
ATOM      1  C   UNL     1       2.607   6.497  -2.793  1.00  0.00    -0.014 A 
ATOM      2  C   UNL     1       1.553   5.837  -3.423  1.00  0.00     0.028 A 
ATOM      3  C   UNL     1       3.316   5.864  -1.772  1.00  0.00     0.013 A 
ATOM      4  C   UNL     1       1.207   4.542  -3.033  1.00  0.00     0.102 A 
ATOM      5  C   UNL     1       1.917   3.909  -2.013  1.00  0.00     0.130 A 
ATOM      6  C   UNL     1       2.971   4.570  -1.382  1.00  0.00     0.048 A 
ENDROOT
BRANCH   1   7
ATOM      7  C   UNL     1       2.964   7.840  -3.196  1.00  0.00     0.018 A 
ATOM      8  C   UNL     1       3.068   8.161  -4.550  1.00  0.00     0.133 A 
ATOM      9  C   UNL     1       3.414   9.457  -4.934  1.00  0.00     0.079 A 
ATOM     10  C   UNL     1       3.204   8.815  -2.228  1.00  0.00     0.015 A 
ATOM     11  C   UNL     1       3.655  10.431  -3.966  1.00  0.00     0.126 A 
ATOM     12  C   UNL     1       3.549  10.110  -2.613  1.00  0.00     0.040 A 
ATOM     13  F   UNL     1       2.844   7.235  -5.493  1.00  0.00    -0.206 F 
ATOM     14  F   UNL     1       3.986  11.675  -4.334  1.00  0.00    -0.207 F 
ENDBRANCH   1   7
BRANCH   4  15
ATOM     15  C   UNL     1       0.104   3.869  -3.704  1.00  0.00     0.339 C 
ATOM     16  O   UNL     1      -0.869   3.360  -3.143  1.00  0.00    -0.246 OA
BRANCH  15  17
ATOM     17  O   UNL     1       0.251   3.856  -5.057  1.00  0.00    -0.478 OA
ATOM     18  H   UNL     1       1.194   3.830  -5.321  1.00  0.00     0.297 HD
ENDBRANCH  15  17
ENDBRANCH   4  15
BRANCH   5  19
ATOM     19  O   UNL     1       1.596   2.645  -1.617  1.00  0.00    -0.507 OA
ATOM     20  H   UNL     1       0.841   2.686  -1.005  1.00  0.00     0.293 HD
ENDBRANCH   5  19
TORSDOF 4
ENDMDL
MODEL 3
REMARK VINA RESULT:    -6.895      1.663      3.134
REMARK INTER + INTRA:          -8.686
REMARK INTER:                  -8.101
REMARK INTRA:                  -0.585
REMARK UNBOUND:                -0.583
REMARK SMILES O=C(O)c1cc(-c2ccc(F)cc2F)ccc1O
REMARK SMILES IDX 6 1 5 2 15 3 4 4 17 5 16 6 7 7 13 8 12 9 8 10 10 11 9 12
REMARK SMILES IDX 14 13 11 14 2 15 1 16 3 17 18 19
REMARK H PARENT 3 18 18 20
ROOT
ATOM      1  C   UNL     1       2.593   6.497  -2.748  1.00  0.00    -0.014 A 
ATOM      2  C   UNL     1       1.547   5.837  -3.392  1.00  0.00     0.028 A 
ATOM      3  C   UNL     1       3.292   5.861  -1.722  1.00  0.00     0.013 A 
ATOM      4  C   UNL     1       1.199   4.541  -3.011  1.00  0.00     0.102 A 
ATOM      5  C   UNL     1       1.898   3.905  -1.985  1.00  0.00     0.130 A 
ATOM      6  C   UNL     1       2.945   4.565  -1.340  1.00  0.00     0.048 A 
ENDROOT
BRANCH   1   7
ATOM      7  C   UNL     1       2.954   7.842  -3.142  1.00  0.00     0.018 A 
ATOM      8  C   UNL     1       3.162   8.824  -2.173  1.00  0.00     0.133 A 
ATOM      9  C   UNL     1       3.509  10.119  -2.557  1.00  0.00     0.079 A 
ATOM     10  C   UNL     1       3.094   8.155  -4.494  1.00  0.00     0.015 A 
ATOM     11  C   UNL     1       3.648  10.432  -3.909  1.00  0.00     0.126 A 
ATOM     12  C   UNL     1       3.441   9.450  -4.877  1.00  0.00     0.040 A 
ATOM     13  F   UNL     1       3.029   8.540  -0.869  1.00  0.00    -0.206 F 
ATOM     14  F   UNL     1       3.981  11.675  -4.278  1.00  0.00    -0.207 F 
ENDBRANCH   1   7
BRANCH   4  15
ATOM     15  C   UNL     1       0.104   3.869  -3.697  1.00  0.00     0.339 C 
ATOM     16  O   UNL     1      -0.874   3.357  -3.148  1.00  0.00    -0.246 OA
BRANCH  15  17
ATOM     17  O   UNL     1       0.267   3.859  -5.048  1.00  0.00    -0.478 OA
ATOM     18  H   UNL     1      -0.592   3.859  -5.519  1.00  0.00     0.297 HD
ENDBRANCH  15  17
ENDBRANCH   4  15
BRANCH   5  19
ATOM     19  O   UNL     1       1.575   2.639  -1.598  1.00  0.00    -0.507 OA
ATOM     20  H   UNL     1       2.230   2.018  -1.962  1.00  0.00     0.293 HD
ENDBRANCH   5  19
TORSDOF 4
ENDMDL
MODEL 4
REMARK VINA RESULT:    -5.414      1.602      2.854
REMARK INTER + INTRA:          -6.946
REMARK INTER:                  -6.334
REMARK INTRA:                  -0.612
REMARK UNBOUND:                -0.583
REMARK SMILES O=C(O)c1cc(-c2ccc(F)cc2F)ccc1O
REMARK SMILES IDX 6 1 5 2 15 3 4 4 17 5 16 6 7 7 13 8 12 9 8 10 10 11 9 12
REMARK SMILES IDX 14 13 11 14 2 15 1 16 3 17 18 19
REMARK H PARENT 3 18 18 20
ROOT
ATOM      1  C   UNL     1       2.733   6.856  -2.833  1.00  0.00    -0.014 A 
ATOM      2  C   UNL     1       1.751   6.177  -3.553  1.00  0.00     0.028 A 
ATOM      3  C   UNL     1       3.315   6.261  -1.714  1.00  0.00     0.013 A 
ATOM      4  C   UNL     1       1.351   4.901  -3.155  1.00  0.00     0.102 A 
ATOM      5  C   UNL     1       1.934   4.305  -2.036  1.00  0.00     0.130 A 
ATOM      6  C   UNL     1       2.917   4.985  -1.316  1.00  0.00     0.048 A 
ENDROOT
BRANCH   1   7
ATOM      7  C   UNL     1       3.147   8.181  -3.245  1.00  0.00     0.018 A 
ATOM      8  C   UNL     1       2.199   9.106  -3.685  1.00  0.00     0.133 A 
ATOM      9  C   UNL     1       2.603  10.381  -4.081  1.00  0.00     0.079 A 
ATOM     10  C   UNL     1       4.496   8.531  -3.200  1.00  0.00     0.015 A 
ATOM     11  C   UNL     1       3.952  10.731  -4.037  1.00  0.00     0.126 A 
ATOM     12  C   UNL     1       4.898   9.806  -3.596  1.00  0.00     0.040 A 
ATOM     13  F   UNL     1       0.899   8.784  -3.736  1.00  0.00    -0.206 F 
ATOM     14  F   UNL     1       4.340  11.955  -4.417  1.00  0.00    -0.207 F 
ENDBRANCH   1   7
BRANCH   4  15
ATOM     15  C   UNL     1       0.325   4.207  -3.920  1.00  0.00     0.339 C 
ATOM     16  O   UNL     1       0.277   4.137  -5.151  1.00  0.00    -0.246 OA
BRANCH  15  17
ATOM     17  O   UNL     1      -0.610   3.622  -3.123  1.00  0.00    -0.478 OA
ATOM     18  H   UNL     1      -0.807   4.167  -2.332  1.00  0.00     0.297 HD
ENDBRANCH  15  17
ENDBRANCH   4  15
BRANCH   5  19
ATOM     19  O   UNL     1       1.558   3.059  -1.631  1.00  0.00    -0.507 OA
ATOM     20  H   UNL     1       0.806   2.763  -2.172  1.00  0.00     0.293 HD
ENDBRANCH   5  19
TORSDOF 4
ENDMDL
MODEL 5
REMARK VINA RESULT:    -5.138      4.414      6.637
REMARK INTER + INTRA:          -6.622
REMARK INTER:                  -5.536
REMARK INTRA:                  -1.085
REMARK UNBOUND:                -0.583
REMARK SMILES O=C(O)c1cc(-c2ccc(F)cc2F)ccc1O
REMARK SMILES IDX 6 1 5 2 15 3 4 4 17 5 16 6 7 7 13 8 12 9 8 10 10 11 9 12
REMARK SMILES IDX 14 13 11 14 2 15 1 16 3 17 18 19
REMARK H PARENT 3 18 18 20
ROOT
ATOM      1  C   UNL     1       2.874   8.601  -3.719  1.00  0.00    -0.014 A 
ATOM      2  C   UNL     1       2.165   9.702  -4.197  1.00  0.00     0.028 A 
ATOM      3  C   UNL     1       4.237   8.715  -3.443  1.00  0.00     0.013 A 
ATOM      4  C   UNL     1       2.818  10.918  -4.400  1.00  0.00     0.102 A 
ATOM      5  C   UNL     1       4.181  11.032  -4.123  1.00  0.00     0.130 A 
ATOM      6  C   UNL     1       4.890   9.930  -3.644  1.00  0.00     0.048 A 
ENDROOT
BRANCH   1   7
ATOM      7  C   UNL     1       2.198   7.339  -3.510  1.00  0.00     0.018 A 
ATOM      8  C   UNL     1       2.158   6.388  -4.530  1.00  0.00     0.133 A 
ATOM      9  C   UNL     1       1.504   5.173  -4.325  1.00  0.00     0.079 A 
ATOM     10  C   UNL     1       1.586   7.074  -2.285  1.00  0.00     0.015 A 
ATOM     11  C   UNL     1       0.892   4.908  -3.100  1.00  0.00     0.126 A 
ATOM     12  C   UNL     1       0.933   5.859  -2.080  1.00  0.00     0.040 A 
ATOM     13  F   UNL     1       2.739   6.628  -5.715  1.00  0.00    -0.206 F 
ATOM     14  F   UNL     1       0.265   3.742  -2.902  1.00  0.00    -0.207 F 
ENDBRANCH   1   7
BRANCH   4  15
ATOM     15  C   UNL     1       2.060  12.057  -4.899  1.00  0.00     0.339 C 
ATOM     16  O   UNL     1       2.500  13.200  -5.041  1.00  0.00    -0.246 OA
BRANCH  15  17
ATOM     17  O   UNL     1       0.776  11.729  -5.208  1.00  0.00    -0.478 OA
ATOM     18  H   UNL     1       0.575  11.890  -6.154  1.00  0.00     0.297 HD
ENDBRANCH  15  17
ENDBRANCH   4  15
BRANCH   5  19
ATOM     19  O   UNL     1       4.837  12.212  -4.314  1.00  0.00    -0.507 OA
ATOM     20  H   UNL     1       5.250  12.206  -5.195  1.00  0.00     0.293 HD
ENDBRANCH   5  19
TORSDOF 4
ENDMDL
MODEL 6
REMARK VINA RESULT:    -5.061      4.230      6.489
REMARK INTER + INTRA:          -6.531
REMARK INTER:                  -5.448
REMARK INTRA:                  -1.083
REMARK UNBOUND:                -0.583
REMARK SMILES O=C(O)c1cc(-c2ccc(F)cc2F)ccc1O
REMARK SMILES IDX 6 1 5 2 15 3 4 4 17 5 16 6 7 7 13 8 12 9 8 10 10 11 9 12
REMARK SMILES IDX 14 13 11 14 2 15 1 16 3 17 18 19
REMARK H PARENT 3 18 18 20
ROOT
ATOM      1  C   UNL     1       3.264   8.831  -3.331  1.00  0.00    -0.014 A 
ATOM      2  C   UNL     1       4.560   9.342  -3.373  1.00  0.00     0.028 A 
ATOM      3  C   UNL     1       2.192   9.612  -3.763  1.00  0.00     0.013 A 
ATOM      4  C   UNL     1       4.786  10.634  -3.848  1.00  0.00     0.102 A 
ATOM      5  C   UNL     1       3.714  11.415  -4.280  1.00  0.00     0.130 A 
ATOM      6  C   UNL     1       2.416  10.903  -4.238  1.00  0.00     0.048 A 
ENDROOT
BRANCH   1   7
ATOM      7  C   UNL     1       3.028   7.491  -2.837  1.00  0.00     0.018 A 
ATOM      8  C   UNL     1       2.843   7.270  -1.472  1.00  0.00     0.133 A 
ATOM      9  C   UNL     1       2.617   5.977  -1.000  1.00  0.00     0.079 A 
ATOM     10  C   UNL     1       2.986   6.420  -3.729  1.00  0.00     0.015 A 
ATOM     11  C   UNL     1       2.576   4.906  -1.892  1.00  0.00     0.126 A 
ATOM     12  C   UNL     1       2.760   5.128  -3.257  1.00  0.00     0.040 A 
ATOM     13  F   UNL     1       2.883   8.288  -0.600  1.00  0.00    -0.206 F 
ATOM     14  F   UNL     1       2.359   3.664  -1.440  1.00  0.00    -0.207 F 
ENDBRANCH   1   7
BRANCH   4  15
ATOM     15  C   UNL     1       6.148  11.149  -3.885  1.00  0.00     0.339 C 
ATOM     16  O   UNL     1       6.466  12.306  -4.171  1.00  0.00    -0.246 OA
BRANCH  15  17
ATOM     17  O   UNL     1       7.069  10.201  -3.561  1.00  0.00    -0.478 OA
ATOM     18  H   UNL     1       6.647   9.360  -3.288  1.00  0.00     0.297 HD
ENDBRANCH  15  17
ENDBRANCH   4  15
BRANCH   5  19
ATOM     19  O   UNL     1       3.914  12.679  -4.748  1.00  0.00    -0.507 OA
ATOM     20  H   UNL     1       3.670  13.317  -4.055  1.00  0.00     0.293 HD
ENDBRANCH   5  19
TORSDOF 4
ENDMDL
MODEL 7
REMARK VINA RESULT:    -4.776      1.648      2.050
REMARK INTER + INTRA:          -6.197
REMARK INTER:                  -5.211
REMARK INTRA:                  -0.985
REMARK UNBOUND:                -0.583
REMARK SMILES O=C(O)c1cc(-c2ccc(F)cc2F)ccc1O
REMARK SMILES IDX 6 1 5 2 15 3 4 4 17 5 16 6 7 7 13 8 12 9 8 10 10 11 9 12
REMARK SMILES IDX 14 13 11 14 2 15 1 16 3 17 18 19
REMARK H PARENT 3 18 18 20
ROOT
ATOM      1  C   UNL     1       2.998   7.699  -3.431  1.00  0.00    -0.014 A 
ATOM      2  C   UNL     1       3.196   7.359  -2.094  1.00  0.00     0.028 A 
ATOM      3  C   UNL     1       2.769   6.700  -4.378  1.00  0.00     0.013 A 
ATOM      4  C   UNL     1       3.164   6.020  -1.702  1.00  0.00     0.102 A 
ATOM      5  C   UNL     1       2.935   5.022  -2.649  1.00  0.00     0.130 A 
ATOM      6  C   UNL     1       2.738   5.362  -3.988  1.00  0.00     0.048 A 
ENDROOT
BRANCH   1   7
ATOM      7  C   UNL     1       3.032   9.087  -3.839  1.00  0.00     0.018 A 
ATOM      8  C   UNL     1       4.238   9.788  -3.837  1.00  0.00     0.133 A 
ATOM      9  C   UNL     1       4.266  11.127  -4.230  1.00  0.00     0.079 A 
ATOM     10  C   UNL     1       1.856   9.723  -4.235  1.00  0.00     0.015 A 
ATOM     11  C   UNL     1       3.090  11.762  -4.625  1.00  0.00     0.126 A 
ATOM     12  C   UNL     1       1.885  11.060  -4.628  1.00  0.00     0.040 A 
ATOM     13  F   UNL     1       5.377   9.193  -3.457  1.00  0.00    -0.206 F 
ATOM     14  F   UNL     1       3.116  13.047  -5.003  1.00  0.00    -0.207 F 
ENDBRANCH   1   7
BRANCH   4  15
ATOM     15  C   UNL     1       3.372   5.686  -0.300  1.00  0.00     0.339 C 
ATOM     16  O   UNL     1       3.660   4.567   0.132  1.00  0.00    -0.246 OA
BRANCH  15  17
ATOM     17  O   UNL     1       3.216   6.762   0.518  1.00  0.00    -0.478 OA
ATOM     18  H   UNL     1       2.502   7.356   0.206  1.00  0.00     0.297 HD
ENDBRANCH  15  17
ENDBRANCH   4  15
BRANCH   5  19
ATOM     19  O   UNL     1       2.900   3.708  -2.286  1.00  0.00    -0.507 OA
ATOM     20  H   UNL     1       2.568   3.639  -1.374  1.00  0.00     0.293 HD
ENDBRANCH   5  19
TORSDOF 4
ENDMDL
MODEL 8
REMARK VINA RESULT:    -4.087      5.940      8.322
REMARK INTER + INTRA:          -5.386
REMARK INTER:                  -4.738
REMARK INTRA:                  -0.648
REMARK UNBOUND:                -0.583
REMARK SMILES O=C(O)c1cc(-c2ccc(F)cc2F)ccc1O
REMARK SMILES IDX 6 1 5 2 15 3 4 4 17 5 16 6 7 7 13 8 12 9 8 10 10 11 9 12
REMARK SMILES IDX 14 13 11 14 2 15 1 16 3 17 18 19
REMARK H PARENT 3 18 18 20
ROOT
ATOM      1  C   UNL     1       6.159  11.345  -4.197  1.00  0.00    -0.014 A 
ATOM      2  C   UNL     1       6.182  12.701  -3.877  1.00  0.00     0.028 A 
ATOM      3  C   UNL     1       7.293  10.735  -4.734  1.00  0.00     0.013 A 
ATOM      4  C   UNL     1       7.339  13.450  -4.093  1.00  0.00     0.102 A 
ATOM      5  C   UNL     1       8.474  12.841  -4.630  1.00  0.00     0.130 A 
ATOM      6  C   UNL     1       8.450  11.482  -4.950  1.00  0.00     0.048 A 
ENDROOT
BRANCH   1   7
ATOM      7  C   UNL     1       4.958  10.568  -3.974  1.00  0.00     0.018 A 
ATOM      8  C   UNL     1       3.710  11.099  -4.300  1.00  0.00     0.133 A 
ATOM      9  C   UNL     1       2.555  10.347  -4.083  1.00  0.00     0.079 A 
ATOM     10  C   UNL     1       5.052   9.286  -3.434  1.00  0.00     0.015 A 
ATOM     11  C   UNL     1       2.648   9.065  -3.542  1.00  0.00     0.126 A 
ATOM     12  C   UNL     1       3.897   8.535  -3.218  1.00  0.00     0.040 A 
ATOM     13  F   UNL     1       3.603  12.331  -4.818  1.00  0.00    -0.206 F 
ATOM     14  F   UNL     1       1.540   8.343  -3.334  1.00  0.00    -0.207 F 
ENDBRANCH   1   7
BRANCH   4  15
ATOM     15  C   UNL     1       7.343  14.866  -3.751  1.00  0.00     0.339 C 
ATOM     16  O   UNL     1       8.351  15.555  -3.576  1.00  0.00    -0.246 OA
BRANCH  15  17
ATOM     17  O   UNL     1       6.087  15.376  -3.641  1.00  0.00    -0.478 OA
ATOM     18  H   UNL     1       5.902  16.044  -4.335  1.00  0.00     0.297 HD
ENDBRANCH  15  17
ENDBRANCH   4  15
BRANCH   5  19
ATOM     19  O   UNL     1       9.614  13.554  -4.848  1.00  0.00    -0.507 OA
ATOM     20  H   UNL     1       9.718  13.702  -5.804  1.00  0.00     0.293 HD
ENDBRANCH   5  19
TORSDOF 4
ENDMDL
MODEL 9
REMARK VINA RESULT:    -4.087      6.311      8.664
REMARK INTER + INTRA:          -5.386
REMARK INTER:                  -4.725
REMARK INTRA:                  -0.662
REMARK UNBOUND:                -0.583
REMARK SMILES O=C(O)c1cc(-c2ccc(F)cc2F)ccc1O
REMARK SMILES IDX 6 1 5 2 15 3 4 4 17 5 16 6 7 7 13 8 12 9 8 10 10 11 9 12
REMARK SMILES IDX 14 13 11 14 2 15 1 16 3 17 18 19
REMARK H PARENT 3 18 18 20
ROOT
ATOM      1  C   UNL     1       1.786  12.329  -4.711  1.00  0.00    -0.014 A 
ATOM      2  C   UNL     1       2.329  13.126  -5.718  1.00  0.00     0.028 A 
ATOM      3  C   UNL     1       0.595  12.703  -4.091  1.00  0.00     0.013 A 
ATOM      4  C   UNL     1       1.680  14.299  -6.105  1.00  0.00     0.102 A 
ATOM      5  C   UNL     1       0.488  14.673  -5.485  1.00  0.00     0.130 A 
ATOM      6  C   UNL     1      -0.055  13.875  -4.477  1.00  0.00     0.048 A 
ENDROOT
BRANCH   1   7
ATOM      7  C   UNL     1       2.460  11.113  -4.307  1.00  0.00     0.018 A 
ATOM      8  C   UNL     1       3.845  11.102  -4.141  1.00  0.00     0.133 A 
ATOM      9  C   UNL     1       4.490   9.927  -3.752  1.00  0.00     0.079 A 
ATOM     10  C   UNL     1       1.721   9.951  -4.084  1.00  0.00     0.015 A 
ATOM     11  C   UNL     1       3.752   8.766  -3.530  1.00  0.00     0.126 A 
ATOM     12  C   UNL     1       2.366   8.778  -3.695  1.00  0.00     0.040 A 
ATOM     13  F   UNL     1       4.570  12.209  -4.354  1.00  0.00    -0.206 F 
ATOM     14  F   UNL     1       4.370   7.639  -3.157  1.00  0.00    -0.207 F 
ENDBRANCH   1   7
BRANCH   4  15
ATOM     15  C   UNL     1       2.262  15.117  -7.159  1.00  0.00     0.339 C 
ATOM     16  O   UNL     1       1.665  15.984  -7.803  1.00  0.00    -0.246 OA
BRANCH  15  17
ATOM     17  O   UNL     1       3.575  14.828  -7.375  1.00  0.00    -0.478 OA
ATOM     18  H   UNL     1       4.167  15.445  -6.896  1.00  0.00     0.297 HD
ENDBRANCH  15  17
ENDBRANCH   4  15
BRANCH   5  19
ATOM     19  O   UNL     1      -0.162  15.814  -5.849  1.00  0.00    -0.507 OA
ATOM     20  H   UNL     1      -0.158  16.435  -5.100  1.00  0.00     0.293 HD
ENDBRANCH   5  19
TORSDOF 4
ENDMDL
