MODEL 1
REMARK VINA RESULT:    -5.397      0.000      0.000
REMARK INTER + INTRA:          -7.463
REMARK INTER:                  -6.659
REMARK INTRA:                  -0.805
REMARK UNBOUND:                -0.805
REMARK SMILES Cc1ccc(C(=O)c2cc(O)c(O)c([N+](=O)[O-])c2)cc1
REMARK SMILES IDX 8 1 18 2 9 3 14 4 10 5 12 6 6 7 7 8 5 9 4 10 19 11 3 12
REMARK SMILES IDX 20 13 2 14 1 15 15 16 17 17 16 18 11 19 13 21
REMARK H PARENT 11 20 13 22
ROOT
ATOM      1  C   UNL     1      -7.014   4.584   3.796  1.00  0.00     0.033 A 
ATOM      2  C   UNL     1      -6.471   3.587   4.573  1.00  0.00     0.102 A 
ATOM      3  C   UNL     1      -6.378   5.102   2.694  1.00  0.00     0.063 A 
ATOM      4  C   UNL     1      -5.219   3.079   4.225  1.00  0.00     0.315 A 
ATOM      5  C   UNL     1      -5.125   4.595   2.346  1.00  0.00     0.165 A 
ATOM      6  C   UNL     1      -4.546   3.582   3.112  1.00  0.00     0.237 A 
ENDROOT
BRANCH   1   7
ATOM      7  C   UNL     1      -8.355   5.129   4.168  1.00  0.00     0.193 C 
ATOM      8  O   UNL     1      -9.112   5.458   3.243  1.00  0.00    -0.289 OA
BRANCH   7   9
ATOM      9  C   UNL     1      -8.780   5.277   5.551  1.00  0.00     0.023 A 
ATOM     10  C   UNL     1      -8.567   6.482   6.221  1.00  0.00     0.012 A 
ATOM     11  C   UNL     1      -9.401   4.215   6.207  1.00  0.00     0.012 A 
ATOM     12  C   UNL     1      -8.975   6.624   7.547  1.00  0.00     0.004 A 
ATOM     13  C   UNL     1      -9.809   4.356   7.534  1.00  0.00     0.004 A 
ATOM     14  C   UNL     1      -9.597   5.561   8.204  1.00  0.00    -0.051 A 
ATOM     15  C   UNL     1     -10.031   5.713   9.622  1.00  0.00     0.044 C 
ENDBRANCH   7   9
ENDBRANCH   1   7
BRANCH   4  16
ATOM     16  N   UNL     1      -4.645   2.048   5.018  1.00  0.00     0.066 N 
ATOM     17  O   UNL     1      -3.395   1.980   5.112  1.00  0.00    -0.258 OA
ATOM     18  O   UNL     1      -5.403   1.237   5.599  1.00  0.00    -0.258 OA
ENDBRANCH   4  16
BRANCH   5  19
ATOM     19  O   UNL     1      -4.480   5.096   1.256  1.00  0.00    -0.504 OA
ATOM     20  H   UNL     1      -5.131   5.367   0.588  1.00  0.00     0.293 HD
ENDBRANCH   5  19
BRANCH   6  21
ATOM     21  O   UNL     1      -3.321   3.093   2.762  1.00  0.00    -0.500 OA
ATOM     22  H   UNL     1      -3.030   3.505   1.934  1.00  0.00     0.294 HD
ENDBRANCH   6  21
TORSDOF 5
ENDMDL
MODEL 2
REMARK VINA RESULT:    -5.330      2.039      3.526
REMARK INTER + INTRA:          -7.381
REMARK INTER:                  -6.543
REMARK INTRA:                  -0.838
REMARK UNBOUND:                -0.805
REMARK SMILES Cc1ccc(C(=O)c2cc(O)c(O)c([N+](=O)[O-])c2)cc1
REMARK SMILES IDX 8 1 18 2 9 3 14 4 10 5 12 6 6 7 7 8 5 9 4 10 19 11 3 12
REMARK SMILES IDX 20 13 2 14 1 15 15 16 17 17 16 18 11 19 13 21
REMARK H PARENT 11 20 13 22
ROOT
ATOM      1  C   UNL     1      -6.113   4.432   5.409  1.00  0.00     0.033 A 
ATOM      2  C   UNL     1      -5.942   5.216   4.292  1.00  0.00     0.102 A 
ATOM      3  C   UNL     1      -5.452   3.241   5.593  1.00  0.00     0.063 A 
ATOM      4  C   UNL     1      -5.057   4.785   3.303  1.00  0.00     0.315 A 
ATOM      5  C   UNL     1      -4.568   2.809   4.603  1.00  0.00     0.165 A 
ATOM      6  C   UNL     1      -4.370   3.581   3.458  1.00  0.00     0.237 A 
ENDROOT
BRANCH   1   7
ATOM      7  C   UNL     1      -7.060   4.894   6.468  1.00  0.00     0.193 C 
ATOM      8  O   UNL     1      -6.698   4.770   7.648  1.00  0.00    -0.289 OA
BRANCH   7   9
ATOM      9  C   UNL     1      -8.358   5.469   6.156  1.00  0.00     0.023 A 
ATOM     10  C   UNL     1      -9.478   4.644   6.045  1.00  0.00     0.012 A 
ATOM     11  C   UNL     1      -8.485   6.845   5.968  1.00  0.00     0.012 A 
ATOM     12  C   UNL     1     -10.723   5.196   5.746  1.00  0.00     0.004 A 
ATOM     13  C   UNL     1      -9.731   7.398   5.668  1.00  0.00     0.004 A 
ATOM     14  C   UNL     1     -10.850   6.573   5.558  1.00  0.00    -0.051 A 
ATOM     15  C   UNL     1     -12.181   7.162   5.237  1.00  0.00     0.044 C 
ENDBRANCH   7   9
ENDBRANCH   1   7
BRANCH   4  16
ATOM     16  N   UNL     1      -4.870   5.585   2.143  1.00  0.00     0.066 N 
ATOM     17  O   UNL     1      -4.835   6.833   2.267  1.00  0.00    -0.258 OA
ATOM     18  O   UNL     1      -4.744   5.021   1.031  1.00  0.00    -0.258 OA
ENDBRANCH   4  16
BRANCH   5  19
ATOM     19  O   UNL     1      -3.903   1.631   4.769  1.00  0.00    -0.504 OA
ATOM     20  H   UNL     1      -3.070   1.654   4.270  1.00  0.00     0.293 HD
ENDBRANCH   5  19
BRANCH   6  21
ATOM     21  O   UNL     1      -3.503   3.148   2.498  1.00  0.00    -0.500 OA
ATOM     22  H   UNL     1      -3.757   3.518   1.638  1.00  0.00     0.294 HD
ENDBRANCH   6  21
TORSDOF 5
ENDMDL
MODEL 3
REMARK VINA RESULT:    -4.803      1.793      2.057
REMARK INTER + INTRA:          -6.731
REMARK INTER:                  -6.283
REMARK INTRA:                  -0.449
REMARK UNBOUND:                -0.805
REMARK SMILES Cc1ccc(C(=O)c2cc(O)c(O)c([N+](=O)[O-])c2)cc1
REMARK SMILES IDX 8 1 18 2 9 3 14 4 10 5 12 6 6 7 7 8 5 9 4 10 19 11 3 12
REMARK SMILES IDX 20 13 2 14 1 15 15 16 17 17 16 18 11 19 13 21
REMARK H PARENT 11 20 13 22
ROOT
ATOM      1  C   UNL     1      -5.504   5.430   4.304  1.00  0.00     0.033 A 
ATOM      2  C   UNL     1      -5.151   4.233   4.882  1.00  0.00     0.102 A 
ATOM      3  C   UNL     1      -5.309   5.702   2.971  1.00  0.00     0.063 A 
ATOM      4  C   UNL     1      -4.569   3.251   4.080  1.00  0.00     0.315 A 
ATOM      5  C   UNL     1      -4.726   4.720   2.169  1.00  0.00     0.165 A 
ATOM      6  C   UNL     1      -4.357   3.494   2.723  1.00  0.00     0.237 A 
ENDROOT
BRANCH   1   7
ATOM      7  C   UNL     1      -6.127   6.481   5.164  1.00  0.00     0.193 C 
ATOM      8  O   UNL     1      -5.385   7.375   5.598  1.00  0.00    -0.289 OA
BRANCH   7   9
ATOM      9  C   UNL     1      -7.544   6.481   5.492  1.00  0.00     0.023 A 
ATOM     10  C   UNL     1      -8.220   7.689   5.666  1.00  0.00     0.012 A 
ATOM     11  C   UNL     1      -8.227   5.274   5.634  1.00  0.00     0.012 A 
ATOM     12  C   UNL     1      -9.578   7.689   5.981  1.00  0.00     0.004 A 
ATOM     13  C   UNL     1      -9.586   5.273   5.950  1.00  0.00     0.004 A 
ATOM     14  C   UNL     1     -10.262   6.481   6.123  1.00  0.00    -0.051 A 
ATOM     15  C   UNL     1     -11.714   6.481   6.461  1.00  0.00     0.044 C 
ENDBRANCH   7   9
ENDBRANCH   1   7
BRANCH   4  16
ATOM     16  N   UNL     1      -4.198   2.008   4.663  1.00  0.00     0.066 N 
ATOM     17  O   UNL     1      -5.054   1.093   4.733  1.00  0.00    -0.258 OA
ATOM     18  O   UNL     1      -3.029   1.863   5.088  1.00  0.00    -0.258 OA
ENDBRANCH   4  16
BRANCH   5  19
ATOM     19  O   UNL     1      -4.525   4.972   0.845  1.00  0.00    -0.504 OA
ATOM     20  H   UNL     1      -4.640   4.152   0.337  1.00  0.00     0.293 HD
ENDBRANCH   5  19
BRANCH   6  21
ATOM     21  O   UNL     1      -3.789   2.542   1.928  1.00  0.00    -0.500 OA
ATOM     22  H   UNL     1      -4.056   1.661   2.232  1.00  0.00     0.294 HD
ENDBRANCH   6  21
TORSDOF 5
ENDMDL
MODEL 4
REMARK VINA RESULT:    -4.749      1.638      2.939
REMARK INTER + INTRA:          -6.664
REMARK INTER:                  -6.037
REMARK INTRA:                  -0.627
REMARK UNBOUND:                -0.805
REMARK SMILES Cc1ccc(C(=O)c2cc(O)c(O)c([N+](=O)[O-])c2)cc1
REMARK SMILES IDX 8 1 18 2 9 3 14 4 10 5 12 6 6 7 7 8 5 9 4 10 19 11 3 12
REMARK SMILES IDX 20 13 2 14 1 15 15 16 17 17 16 18 11 19 13 21
REMARK H PARENT 11 20 13 22
ROOT
ATOM      1  C   UNL     1      -6.618   3.128   4.239  1.00  0.00     0.033 A 
ATOM      2  C   UNL     1      -6.410   4.017   3.210  1.00  0.00     0.102 A 
ATOM      3  C   UNL     1      -5.599   2.422   4.833  1.00  0.00     0.063 A 
ATOM      4  C   UNL     1      -5.108   4.212   2.750  1.00  0.00     0.315 A 
ATOM      5  C   UNL     1      -4.296   2.616   4.372  1.00  0.00     0.165 A 
ATOM      6  C   UNL     1      -4.051   3.512   3.331  1.00  0.00     0.237 A 
ENDROOT
BRANCH   1   7
ATOM      7  C   UNL     1      -8.013   2.919   4.732  1.00  0.00     0.193 C 
ATOM      8  O   UNL     1      -8.629   1.935   4.295  1.00  0.00    -0.289 OA
BRANCH   7   9
ATOM      9  C   UNL     1      -8.646   3.816   5.685  1.00  0.00     0.023 A 
ATOM     10  C   UNL     1      -8.283   5.163   5.722  1.00  0.00     0.012 A 
ATOM     11  C   UNL     1      -9.617   3.332   6.561  1.00  0.00     0.012 A 
ATOM     12  C   UNL     1      -8.891   6.024   6.635  1.00  0.00     0.004 A 
ATOM     13  C   UNL     1     -10.225   4.193   7.475  1.00  0.00     0.004 A 
ATOM     14  C   UNL     1      -9.862   5.539   7.512  1.00  0.00    -0.051 A 
ATOM     15  C   UNL     1     -10.510   6.460   8.490  1.00  0.00     0.044 C 
ENDBRANCH   7   9
ENDBRANCH   1   7
BRANCH   4  16
ATOM     16  N   UNL     1      -4.877   5.128   1.688  1.00  0.00     0.066 N 
ATOM     17  O   UNL     1      -4.391   4.700   0.613  1.00  0.00    -0.258 OA
ATOM     18  O   UNL     1      -5.168   6.335   1.855  1.00  0.00    -0.258 OA
ENDBRANCH   4  16
BRANCH   5  19
ATOM     19  O   UNL     1      -3.273   1.926   4.950  1.00  0.00    -0.504 OA
ATOM     20  H   UNL     1      -2.757   2.522   5.517  1.00  0.00     0.293 HD
ENDBRANCH   5  19
BRANCH   6  21
ATOM     21  O   UNL     1      -2.772   3.694   2.890  1.00  0.00    -0.500 OA
ATOM     22  H   UNL     1      -2.409   2.847   2.587  1.00  0.00     0.294 HD
ENDBRANCH   6  21
TORSDOF 5
ENDMDL
MODEL 5
REMARK VINA RESULT:    -4.595      3.738      6.554
REMARK INTER + INTRA:          -6.474
REMARK INTER:                  -5.568
REMARK INTRA:                  -0.906
REMARK UNBOUND:                -0.805
REMARK SMILES Cc1ccc(C(=O)c2cc(O)c(O)c([N+](=O)[O-])c2)cc1
REMARK SMILES IDX 8 1 18 2 9 3 14 4 10 5 12 6 6 7 7 8 5 9 4 10 19 11 3 12
REMARK SMILES IDX 20 13 2 14 1 15 15 16 17 17 16 18 11 19 13 21
REMARK H PARENT 11 20 13 22
ROOT
ATOM      1  C   UNL     1      -9.003   6.510   5.992  1.00  0.00     0.033 A 
ATOM      2  C   UNL     1      -9.269   6.183   7.302  1.00  0.00     0.102 A 
ATOM      3  C   UNL     1      -9.966   6.976   5.129  1.00  0.00     0.063 A 
ATOM      4  C   UNL     1     -10.573   6.331   7.774  1.00  0.00     0.315 A 
ATOM      5  C   UNL     1     -11.270   7.123   5.601  1.00  0.00     0.165 A 
ATOM      6  C   UNL     1     -11.574   6.801   6.924  1.00  0.00     0.237 A 
ENDROOT
BRANCH   1   7
ATOM      7  C   UNL     1      -7.606   6.352   5.486  1.00  0.00     0.193 C 
ATOM      8  O   UNL     1      -7.016   7.378   5.114  1.00  0.00    -0.289 OA
BRANCH   7   9
ATOM      9  C   UNL     1      -6.942   5.060   5.422  1.00  0.00     0.023 A 
ATOM     10  C   UNL     1      -5.578   4.962   5.700  1.00  0.00     0.012 A 
ATOM     11  C   UNL     1      -7.668   3.919   5.083  1.00  0.00     0.012 A 
ATOM     12  C   UNL     1      -4.942   3.723   5.639  1.00  0.00     0.004 A 
ATOM     13  C   UNL     1      -7.031   2.678   5.021  1.00  0.00     0.004 A 
ATOM     14  C   UNL     1      -5.668   2.580   5.299  1.00  0.00    -0.051 A 
ATOM     15  C   UNL     1      -4.986   1.256   5.232  1.00  0.00     0.044 C 
ENDBRANCH   7   9
ENDBRANCH   1   7
BRANCH   4  16
ATOM     16  N   UNL     1     -10.864   5.997   9.125  1.00  0.00     0.066 N 
ATOM     17  O   UNL     1     -11.771   6.624   9.723  1.00  0.00    -0.258 OA
ATOM     18  O   UNL     1     -10.206   5.085   9.679  1.00  0.00    -0.258 OA
ENDBRANCH   4  16
BRANCH   5  19
ATOM     19  O   UNL     1     -12.238   7.584   4.759  1.00  0.00    -0.504 OA
ATOM     20  H   UNL     1     -12.879   8.115   5.260  1.00  0.00     0.293 HD
ENDBRANCH   5  19
BRANCH   6  21
ATOM     21  O   UNL     1     -12.854   6.950   7.375  1.00  0.00    -0.500 OA
ATOM     22  H   UNL     1     -13.423   7.245   6.647  1.00  0.00     0.294 HD
ENDBRANCH   6  21
TORSDOF 5
ENDMDL
MODEL 6
REMARK VINA RESULT:    -4.584      3.610      7.225
REMARK INTER + INTRA:          -6.461
REMARK INTER:                  -5.497
REMARK INTRA:                  -0.964
REMARK UNBOUND:                -0.805
REMARK SMILES Cc1ccc(C(=O)c2cc(O)c(O)c([N+](=O)[O-])c2)cc1
REMARK SMILES IDX 8 1 18 2 9 3 14 4 10 5 12 6 6 7 7 8 5 9 4 10 19 11 3 12
REMARK SMILES IDX 20 13 2 14 1 15 15 16 17 17 16 18 11 19 13 21
REMARK H PARENT 11 20 13 22
ROOT
ATOM      1  C   UNL     1      -9.477   4.883   6.457  1.00  0.00     0.033 A 
ATOM      2  C   UNL     1     -10.391   5.663   5.787  1.00  0.00     0.102 A 
ATOM      3  C   UNL     1      -9.404   4.831   7.829  1.00  0.00     0.063 A 
ATOM      4  C   UNL     1     -11.282   6.435   6.532  1.00  0.00     0.315 A 
ATOM      5  C   UNL     1     -10.295   5.604   8.574  1.00  0.00     0.165 A 
ATOM      6  C   UNL     1     -11.235   6.406   7.925  1.00  0.00     0.237 A 
ENDROOT
BRANCH   1   7
ATOM      7  C   UNL     1      -8.522   4.056   5.659  1.00  0.00     0.193 C 
ATOM      8  O   UNL     1      -8.548   2.828   5.835  1.00  0.00    -0.289 OA
BRANCH   7   9
ATOM      9  C   UNL     1      -7.590   4.640   4.708  1.00  0.00     0.023 A 
ATOM     10  C   UNL     1      -7.441   4.077   3.441  1.00  0.00     0.012 A 
ATOM     11  C   UNL     1      -6.846   5.765   5.063  1.00  0.00     0.012 A 
ATOM     12  C   UNL     1      -6.547   4.638   2.529  1.00  0.00     0.004 A 
ATOM     13  C   UNL     1      -5.951   6.327   4.151  1.00  0.00     0.004 A 
ATOM     14  C   UNL     1      -5.802   5.764   2.884  1.00  0.00    -0.051 A 
ATOM     15  C   UNL     1      -4.846   6.362   1.910  1.00  0.00     0.044 C 
ENDBRANCH   7   9
ENDBRANCH   1   7
BRANCH   4  16
ATOM     16  N   UNL     1     -12.233   7.246   5.853  1.00  0.00     0.066 N 
ATOM     17  O   UNL     1     -13.355   7.434   6.380  1.00  0.00    -0.258 OA
ATOM     18  O   UNL     1     -11.921   7.749   4.748  1.00  0.00    -0.258 OA
ENDBRANCH   4  16
BRANCH   5  19
ATOM     19  O   UNL     1     -10.237   5.565   9.935  1.00  0.00    -0.504 OA
ATOM     20  H   UNL     1     -11.133   5.467  10.296  1.00  0.00     0.293 HD
ENDBRANCH   5  19
BRANCH   6  21
ATOM     21  O   UNL     1     -12.101   7.156   8.665  1.00  0.00    -0.500 OA
ATOM     22  H   UNL     1     -11.755   8.058   8.758  1.00  0.00     0.294 HD
ENDBRANCH   6  21
TORSDOF 5
ENDMDL
MODEL 7
REMARK VINA RESULT:    -4.579      3.960      7.127
REMARK INTER + INTRA:          -6.454
REMARK INTER:                  -5.822
REMARK INTRA:                  -0.631
REMARK UNBOUND:                -0.805
REMARK SMILES Cc1ccc(C(=O)c2cc(O)c(O)c([N+](=O)[O-])c2)cc1
REMARK SMILES IDX 8 1 18 2 9 3 14 4 10 5 12 6 6 7 7 8 5 9 4 10 19 11 3 12
REMARK SMILES IDX 20 13 2 14 1 15 15 16 17 17 16 18 11 19 13 21
REMARK H PARENT 11 20 13 22
ROOT
ATOM      1  C   UNL     1      -9.684   5.938   6.304  1.00  0.00     0.033 A 
ATOM      2  C   UNL     1     -10.285   6.068   7.534  1.00  0.00     0.102 A 
ATOM      3  C   UNL     1     -10.281   6.349   5.135  1.00  0.00     0.063 A 
ATOM      4  C   UNL     1     -11.555   6.642   7.599  1.00  0.00     0.315 A 
ATOM      5  C   UNL     1     -11.551   6.922   5.200  1.00  0.00     0.165 A 
ATOM      6  C   UNL     1     -12.188   7.069   6.432  1.00  0.00     0.237 A 
ENDROOT
BRANCH   1   7
ATOM      7  C   UNL     1      -8.324   5.324   6.234  1.00  0.00     0.193 C 
ATOM      8  O   UNL     1      -7.951   4.655   7.210  1.00  0.00    -0.289 OA
BRANCH   7   9
ATOM      9  C   UNL     1      -7.454   5.486   5.080  1.00  0.00     0.023 A 
ATOM     10  C   UNL     1      -6.529   6.530   5.045  1.00  0.00     0.012 A 
ATOM     11  C   UNL     1      -7.542   4.597   4.009  1.00  0.00     0.012 A 
ATOM     12  C   UNL     1      -5.694   6.685   3.939  1.00  0.00     0.004 A 
ATOM     13  C   UNL     1      -6.707   4.752   2.902  1.00  0.00     0.004 A 
ATOM     14  C   UNL     1      -5.783   5.796   2.867  1.00  0.00    -0.051 A 
ATOM     15  C   UNL     1      -4.891   5.963   1.684  1.00  0.00     0.044 C 
ENDBRANCH   7   9
ENDBRANCH   1   7
BRANCH   4  16
ATOM     16  N   UNL     1     -12.188   6.783   8.864  1.00  0.00     0.066 N 
ATOM     17  O   UNL     1     -11.552   6.471   9.899  1.00  0.00    -0.258 OA
ATOM     18  O   UNL     1     -13.363   7.216   8.908  1.00  0.00    -0.258 OA
ENDBRANCH   4  16
BRANCH   5  19
ATOM     19  O   UNL     1     -12.157   7.335   4.051  1.00  0.00    -0.504 OA
ATOM     20  H   UNL     1     -12.512   6.566   3.576  1.00  0.00     0.293 HD
ENDBRANCH   5  19
BRANCH   6  21
ATOM     21  O   UNL     1     -13.430   7.632   6.483  1.00  0.00    -0.500 OA
ATOM     22  H   UNL     1     -14.088   6.951   6.692  1.00  0.00     0.294 HD
ENDBRANCH   6  21
TORSDOF 5
ENDMDL
MODEL 8
REMARK VINA RESULT:    -4.495      1.985      2.400
REMARK INTER + INTRA:          -6.350
REMARK INTER:                  -5.622
REMARK INTRA:                  -0.728
REMARK UNBOUND:                -0.805
REMARK SMILES Cc1ccc(C(=O)c2cc(O)c(O)c([N+](=O)[O-])c2)cc1
REMARK SMILES IDX 8 1 18 2 9 3 14 4 10 5 12 6 6 7 7 8 5 9 4 10 19 11 3 12
REMARK SMILES IDX 20 13 2 14 1 15 15 16 17 17 16 18 11 19 13 21
REMARK H PARENT 11 20 13 22
ROOT
ATOM      1  C   UNL     1      -6.635   4.728   5.536  1.00  0.00     0.033 A 
ATOM      2  C   UNL     1      -6.021   3.506   5.688  1.00  0.00     0.102 A 
ATOM      3  C   UNL     1      -6.324   5.598   4.519  1.00  0.00     0.063 A 
ATOM      4  C   UNL     1      -5.040   3.134   4.769  1.00  0.00     0.315 A 
ATOM      5  C   UNL     1      -5.343   5.226   3.599  1.00  0.00     0.165 A 
ATOM      6  C   UNL     1      -4.701   3.993   3.724  1.00  0.00     0.237 A 
ENDROOT
BRANCH   1   7
ATOM      7  C   UNL     1      -7.685   5.127   6.521  1.00  0.00     0.193 C 
ATOM      8  O   UNL     1      -7.428   4.966   7.724  1.00  0.00    -0.289 OA
BRANCH   7   9
ATOM      9  C   UNL     1      -8.965   5.684   6.113  1.00  0.00     0.023 A 
ATOM     10  C   UNL     1      -9.094   7.057   5.906  1.00  0.00     0.012 A 
ATOM     11  C   UNL     1     -10.064   4.845   5.929  1.00  0.00     0.012 A 
ATOM     12  C   UNL     1     -10.321   7.591   5.515  1.00  0.00     0.004 A 
ATOM     13  C   UNL     1     -11.292   5.379   5.537  1.00  0.00     0.004 A 
ATOM     14  C   UNL     1     -11.421   6.753   5.330  1.00  0.00    -0.051 A 
ATOM     15  C   UNL     1     -12.733   7.324   4.913  1.00  0.00     0.044 C 
ENDBRANCH   7   9
ENDBRANCH   1   7
BRANCH   4  16
ATOM     16  N   UNL     1      -4.396   1.874   4.913  1.00  0.00     0.066 N 
ATOM     17  O   UNL     1      -5.092   0.831   4.879  1.00  0.00    -0.258 OA
ATOM     18  O   UNL     1      -3.154   1.843   5.069  1.00  0.00    -0.258 OA
ENDBRANCH   4  16
BRANCH   5  19
ATOM     19  O   UNL     1      -5.022   6.076   2.583  1.00  0.00    -0.504 OA
ATOM     20  H   UNL     1      -5.723   6.741   2.482  1.00  0.00     0.293 HD
ENDBRANCH   5  19
BRANCH   6  21
ATOM     21  O   UNL     1      -3.743   3.640   2.819  1.00  0.00    -0.500 OA
ATOM     22  H   UNL     1      -4.054   3.839   1.921  1.00  0.00     0.294 HD
ENDBRANCH   6  21
TORSDOF 5
ENDMDL
MODEL 9
REMARK VINA RESULT:    -4.452      3.759      6.831
REMARK INTER + INTRA:          -6.298
REMARK INTER:                  -5.328
REMARK INTRA:                  -0.970
REMARK UNBOUND:                -0.805
REMARK SMILES Cc1ccc(C(=O)c2cc(O)c(O)c([N+](=O)[O-])c2)cc1
REMARK SMILES IDX 8 1 18 2 9 3 14 4 10 5 12 6 6 7 7 8 5 9 4 10 19 11 3 12
REMARK SMILES IDX 20 13 2 14 1 15 15 16 17 17 16 18 11 19 13 21
REMARK H PARENT 11 20 13 22
ROOT
ATOM      1  C   UNL     1      -9.489   4.918   6.434  1.00  0.00     0.033 A 
ATOM      2  C   UNL     1      -9.400   4.914   7.807  1.00  0.00     0.102 A 
ATOM      3  C   UNL     1     -10.426   5.654   5.749  1.00  0.00     0.063 A 
ATOM      4  C   UNL     1     -10.300   5.693   8.535  1.00  0.00     0.315 A 
ATOM      5  C   UNL     1     -11.327   6.432   6.477  1.00  0.00     0.165 A 
ATOM      6  C   UNL     1     -11.263   6.451   7.871  1.00  0.00     0.237 A 
ENDROOT
BRANCH   1   7
ATOM      7  C   UNL     1      -8.525   4.085   5.653  1.00  0.00     0.193 C 
ATOM      8  O   UNL     1      -8.548   2.860   5.844  1.00  0.00    -0.289 OA
BRANCH   7   9
ATOM      9  C   UNL     1      -7.588   4.661   4.702  1.00  0.00     0.023 A 
ATOM     10  C   UNL     1      -7.421   4.077   3.447  1.00  0.00     0.012 A 
ATOM     11  C   UNL     1      -6.857   5.798   5.045  1.00  0.00     0.012 A 
ATOM     12  C   UNL     1      -6.523   4.630   2.534  1.00  0.00     0.004 A 
ATOM     13  C   UNL     1      -5.958   6.352   4.133  1.00  0.00     0.004 A 
ATOM     14  C   UNL     1      -5.791   5.768   2.877  1.00  0.00    -0.051 A 
ATOM     15  C   UNL     1      -4.830   6.358   1.902  1.00  0.00     0.044 C 
ENDBRANCH   7   9
ENDBRANCH   1   7
BRANCH   4  16
ATOM     16  N   UNL     1     -10.220   5.699   9.955  1.00  0.00     0.066 N 
ATOM     17  O   UNL     1     -11.276   5.826  10.621  1.00  0.00    -0.258 OA
ATOM     18  O   UNL     1      -9.098   5.578  10.499  1.00  0.00    -0.258 OA
ENDBRANCH   4  16
BRANCH   5  19
ATOM     19  O   UNL     1     -12.262   7.169   5.815  1.00  0.00    -0.504 OA
ATOM     20  H   UNL     1     -11.820   7.794   5.217  1.00  0.00     0.293 HD
ENDBRANCH   5  19
BRANCH   6  21
ATOM     21  O   UNL     1     -12.149   7.216   8.573  1.00  0.00    -0.500 OA
ATOM     22  H   UNL     1     -11.771   8.096   8.725  1.00  0.00     0.294 HD
ENDBRANCH   6  21
TORSDOF 5
ENDMDL
