MODEL 1
REMARK VINA RESULT:    -6.792      0.000      0.000
REMARK INTER + INTRA:          -8.648
REMARK INTER:                  -7.983
REMARK INTRA:                  -0.665
REMARK UNBOUND:                -0.665
REMARK SMILES O=C(O)c1cc(-c2ccc(F)cc2F)ccc1O
REMARK SMILES IDX 6 1 5 2 15 3 4 4 17 5 16 6 7 7 13 8 12 9 8 10 10 11 9 12
REMARK SMILES IDX 14 13 11 14 2 15 1 16 3 17 18 19
REMARK H PARENT 3 18 18 20
ROOT
ATOM      1  C   UNL     1      -6.799   4.519   4.732  1.00  0.00    -0.014 A 
ATOM      2  C   UNL     1      -6.146   3.393   5.232  1.00  0.00     0.028 A 
ATOM      3  C   UNL     1      -6.341   5.129   3.564  1.00  0.00     0.013 A 
ATOM      4  C   UNL     1      -5.035   2.877   4.565  1.00  0.00     0.102 A 
ATOM      5  C   UNL     1      -4.577   3.487   3.398  1.00  0.00     0.130 A 
ATOM      6  C   UNL     1      -5.230   4.614   2.897  1.00  0.00     0.048 A 
ENDROOT
BRANCH   1   7
ATOM      7  C   UNL     1      -7.951   5.055   5.423  1.00  0.00     0.018 A 
ATOM      8  C   UNL     1      -8.989   4.209   5.816  1.00  0.00     0.133 A 
ATOM      9  C   UNL     1     -10.099   4.731   6.482  1.00  0.00     0.079 A 
ATOM     10  C   UNL     1      -8.022   6.421   5.698  1.00  0.00     0.015 A 
ATOM     11  C   UNL     1     -10.170   6.096   6.757  1.00  0.00     0.126 A 
ATOM     12  C   UNL     1      -9.131   6.941   6.365  1.00  0.00     0.040 A 
ATOM     13  F   UNL     1      -8.938   2.895   5.557  1.00  0.00    -0.206 F 
ATOM     14  F   UNL     1     -11.234   6.597   7.396  1.00  0.00    -0.207 F 
ENDBRANCH   1   7
BRANCH   4  15
ATOM     15  C   UNL     1      -4.367   1.700   5.104  1.00  0.00     0.339 C 
ATOM     16  O   UNL     1      -3.149   1.574   5.249  1.00  0.00    -0.246 OA
BRANCH  15  17
ATOM     17  O   UNL     1      -5.244   0.717   5.445  1.00  0.00    -0.478 OA
ATOM     18  H   UNL     1      -4.818  -0.166   5.450  1.00  0.00     0.297 HD
ENDBRANCH  15  17
ENDBRANCH   4  15
BRANCH   5  19
ATOM     19  O   UNL     1      -3.493   2.998   2.731  1.00  0.00    -0.507 OA
ATOM     20  H   UNL     1      -3.610   3.154   1.778  1.00  0.00     0.293 HD
ENDBRANCH   5  19
TORSDOF 4
ENDMDL
MODEL 2
REMARK VINA RESULT:    -6.786      1.731      3.224
REMARK INTER + INTRA:          -8.641
REMARK INTER:                  -7.915
REMARK INTRA:                  -0.726
REMARK UNBOUND:                -0.665
REMARK SMILES O=C(O)c1cc(-c2ccc(F)cc2F)ccc1O
REMARK SMILES IDX 6 1 5 2 15 3 4 4 17 5 16 6 7 7 13 8 12 9 8 10 10 11 9 12
REMARK SMILES IDX 14 13 11 14 2 15 1 16 3 17 18 19
REMARK H PARENT 3 18 18 20
ROOT
ATOM      1  C   UNL     1      -6.708   4.692   4.722  1.00  0.00    -0.014 A 
ATOM      2  C   UNL     1      -6.338   5.332   3.540  1.00  0.00     0.028 A 
ATOM      3  C   UNL     1      -5.962   3.611   5.193  1.00  0.00     0.013 A 
ATOM      4  C   UNL     1      -5.222   4.892   2.827  1.00  0.00     0.102 A 
ATOM      5  C   UNL     1      -4.476   3.811   3.298  1.00  0.00     0.130 A 
ATOM      6  C   UNL     1      -4.846   3.171   4.481  1.00  0.00     0.048 A 
ENDROOT
BRANCH   1   7
ATOM      7  C   UNL     1      -7.866   5.147   5.461  1.00  0.00     0.018 A 
ATOM      8  C   UNL     1      -7.997   6.495   5.797  1.00  0.00     0.133 A 
ATOM      9  C   UNL     1      -9.115   6.929   6.510  1.00  0.00     0.079 A 
ATOM     10  C   UNL     1      -8.852   4.235   5.835  1.00  0.00     0.015 A 
ATOM     11  C   UNL     1     -10.101   6.017   6.885  1.00  0.00     0.126 A 
ATOM     12  C   UNL     1      -9.969   4.670   6.547  1.00  0.00     0.040 A 
ATOM     13  F   UNL     1      -7.057   7.383   5.447  1.00  0.00    -0.206 F 
ATOM     14  F   UNL     1     -11.174   6.433   7.569  1.00  0.00    -0.207 F 
ENDBRANCH   1   7
BRANCH   4  15
ATOM     15  C   UNL     1      -4.852   5.574   1.595  1.00  0.00     0.339 C 
ATOM     16  O   UNL     1      -4.487   5.021   0.555  1.00  0.00    -0.246 OA
BRANCH  15  17
ATOM     17  O   UNL     1      -4.952   6.927   1.702  1.00  0.00    -0.478 OA
ATOM     18  H   UNL     1      -4.132   7.326   2.060  1.00  0.00     0.297 HD
ENDBRANCH  15  17
ENDBRANCH   4  15
BRANCH   5  19
ATOM     19  O   UNL     1      -3.382   3.366   2.617  1.00  0.00    -0.507 OA
ATOM     20  H   UNL     1      -3.242   2.426   2.822  1.00  0.00     0.293 HD
ENDBRANCH   5  19
TORSDOF 4
ENDMDL
MODEL 3
REMARK VINA RESULT:    -6.783      1.132      1.612
REMARK INTER + INTRA:          -8.638
REMARK INTER:                  -7.982
REMARK INTRA:                  -0.657
REMARK UNBOUND:                -0.665
REMARK SMILES O=C(O)c1cc(-c2ccc(F)cc2F)ccc1O
REMARK SMILES IDX 6 1 5 2 15 3 4 4 17 5 16 6 7 7 13 8 12 9 8 10 10 11 9 12
REMARK SMILES IDX 14 13 11 14 2 15 1 16 3 17 18 19
REMARK H PARENT 3 18 18 20
ROOT
ATOM      1  C   UNL     1      -6.746   4.562   4.731  1.00  0.00    -0.014 A 
ATOM      2  C   UNL     1      -6.117   3.422   5.229  1.00  0.00     0.028 A 
ATOM      3  C   UNL     1      -6.265   5.176   3.574  1.00  0.00     0.013 A 
ATOM      4  C   UNL     1      -5.006   2.894   4.571  1.00  0.00     0.102 A 
ATOM      5  C   UNL     1      -4.525   3.507   3.414  1.00  0.00     0.130 A 
ATOM      6  C   UNL     1      -5.155   4.649   2.916  1.00  0.00     0.048 A 
ENDROOT
BRANCH   1   7
ATOM      7  C   UNL     1      -7.898   5.111   5.414  1.00  0.00     0.018 A 
ATOM      8  C   UNL     1      -7.957   6.475   5.703  1.00  0.00     0.133 A 
ATOM      9  C   UNL     1      -9.069   7.000   6.361  1.00  0.00     0.079 A 
ATOM     10  C   UNL     1      -8.951   4.274   5.782  1.00  0.00     0.015 A 
ATOM     11  C   UNL     1     -10.121   6.162   6.731  1.00  0.00     0.126 A 
ATOM     12  C   UNL     1     -10.062   4.799   6.441  1.00  0.00     0.040 A 
ATOM     13  F   UNL     1      -6.953   7.293   5.358  1.00  0.00    -0.206 F 
ATOM     14  F   UNL     1     -11.189   6.665   7.363  1.00  0.00    -0.207 F 
ENDBRANCH   1   7
BRANCH   4  15
ATOM     15  C   UNL     1      -4.363   1.702   5.107  1.00  0.00     0.339 C 
ATOM     16  O   UNL     1      -3.149   1.554   5.261  1.00  0.00    -0.246 OA
BRANCH  15  17
ATOM     17  O   UNL     1      -5.260   0.733   5.435  1.00  0.00    -0.478 OA
ATOM     18  H   UNL     1      -6.138   0.897   5.031  1.00  0.00     0.297 HD
ENDBRANCH  15  17
ENDBRANCH   4  15
BRANCH   5  19
ATOM     19  O   UNL     1      -3.441   3.007   2.756  1.00  0.00    -0.507 OA
ATOM     20  H   UNL     1      -3.147   2.194   3.201  1.00  0.00     0.293 HD
ENDBRANCH   5  19
TORSDOF 4
ENDMDL
MODEL 4
REMARK VINA RESULT:    -6.779      1.339      2.786
REMARK INTER + INTRA:          -8.633
REMARK INTER:                  -7.917
REMARK INTRA:                  -0.716
REMARK UNBOUND:                -0.665
REMARK SMILES O=C(O)c1cc(-c2ccc(F)cc2F)ccc1O
REMARK SMILES IDX 6 1 5 2 15 3 4 4 17 5 16 6 7 7 13 8 12 9 8 10 10 11 9 12
REMARK SMILES IDX 14 13 11 14 2 15 1 16 3 17 18 19
REMARK H PARENT 3 18 18 20
ROOT
ATOM      1  C   UNL     1      -6.719   4.636   4.712  1.00  0.00    -0.014 A 
ATOM      2  C   UNL     1      -6.347   5.295   3.540  1.00  0.00     0.028 A 
ATOM      3  C   UNL     1      -5.972   3.551   5.169  1.00  0.00     0.013 A 
ATOM      4  C   UNL     1      -5.228   4.868   2.825  1.00  0.00     0.102 A 
ATOM      5  C   UNL     1      -4.481   3.783   3.282  1.00  0.00     0.130 A 
ATOM      6  C   UNL     1      -4.853   3.124   4.455  1.00  0.00     0.048 A 
ENDROOT
BRANCH   1   7
ATOM      7  C   UNL     1      -7.881   5.078   5.453  1.00  0.00     0.018 A 
ATOM      8  C   UNL     1      -8.871   4.163   5.814  1.00  0.00     0.133 A 
ATOM      9  C   UNL     1      -9.989   4.592   6.529  1.00  0.00     0.079 A 
ATOM     10  C   UNL     1      -8.009   6.420   5.808  1.00  0.00     0.015 A 
ATOM     11  C   UNL     1     -10.117   5.935   6.883  1.00  0.00     0.126 A 
ATOM     12  C   UNL     1      -9.127   6.849   6.523  1.00  0.00     0.040 A 
ATOM     13  F   UNL     1      -8.764   2.869   5.478  1.00  0.00    -0.206 F 
ATOM     14  F   UNL     1     -11.191   6.348   7.569  1.00  0.00    -0.207 F 
ENDBRANCH   1   7
BRANCH   4  15
ATOM     15  C   UNL     1      -4.856   5.570   1.604  1.00  0.00     0.339 C 
ATOM     16  O   UNL     1      -4.490   5.033   0.556  1.00  0.00    -0.246 OA
BRANCH  15  17
ATOM     17  O   UNL     1      -4.954   6.921   1.732  1.00  0.00    -0.478 OA
ATOM     18  H   UNL     1      -5.706   7.179   2.305  1.00  0.00     0.297 HD
ENDBRANCH  15  17
ENDBRANCH   4  15
BRANCH   5  19
ATOM     19  O   UNL     1      -3.383   3.351   2.598  1.00  0.00    -0.507 OA
ATOM     20  H   UNL     1      -3.533   2.436   2.304  1.00  0.00     0.293 HD
ENDBRANCH   5  19
TORSDOF 4
ENDMDL
MODEL 5
REMARK VINA RESULT:    -5.217      4.012      6.266
REMARK INTER + INTRA:          -6.797
REMARK INTER:                  -5.713
REMARK INTRA:                  -1.084
REMARK UNBOUND:                -0.665
REMARK SMILES O=C(O)c1cc(-c2ccc(F)cc2F)ccc1O
REMARK SMILES IDX 6 1 5 2 15 3 4 4 17 5 16 6 7 7 13 8 12 9 8 10 10 11 9 12
REMARK SMILES IDX 14 13 11 14 2 15 1 16 3 17 18 19
REMARK H PARENT 3 18 18 20
ROOT
ATOM      1  C   UNL     1      -8.633   5.127   6.075  1.00  0.00    -0.014 A 
ATOM      2  C   UNL     1      -8.977   5.161   7.426  1.00  0.00     0.028 A 
ATOM      3  C   UNL     1      -9.447   5.754   5.132  1.00  0.00     0.013 A 
ATOM      4  C   UNL     1     -10.136   5.822   7.835  1.00  0.00     0.102 A 
ATOM      5  C   UNL     1     -10.950   6.449   6.892  1.00  0.00     0.130 A 
ATOM      6  C   UNL     1     -10.605   6.415   5.540  1.00  0.00     0.048 A 
ENDROOT
BRANCH   1   7
ATOM      7  C   UNL     1      -7.432   4.440   5.651  1.00  0.00     0.018 A 
ATOM      8  C   UNL     1      -7.491   3.102   5.259  1.00  0.00     0.133 A 
ATOM      9  C   UNL     1      -6.331   2.444   4.851  1.00  0.00     0.079 A 
ATOM     10  C   UNL     1      -6.214   5.119   5.632  1.00  0.00     0.015 A 
ATOM     11  C   UNL     1      -5.113   3.122   4.833  1.00  0.00     0.126 A 
ATOM     12  C   UNL     1      -5.055   4.461   5.223  1.00  0.00     0.040 A 
ATOM     13  F   UNL     1      -8.654   2.434   5.274  1.00  0.00    -0.206 F 
ATOM     14  F   UNL     1      -3.999   2.491   4.441  1.00  0.00    -0.207 F 
ENDBRANCH   1   7
BRANCH   4  15
ATOM     15  C   UNL     1     -10.477   5.847   9.250  1.00  0.00     0.339 C 
ATOM     16  O   UNL     1     -11.407   6.485   9.749  1.00  0.00    -0.246 OA
BRANCH  15  17
ATOM     17  O   UNL     1      -9.645   5.071   9.998  1.00  0.00    -0.478 OA
ATOM     18  H   UNL     1     -10.131   4.582  10.695  1.00  0.00     0.297 HD
ENDBRANCH  15  17
ENDBRANCH   4  15
BRANCH   5  19
ATOM     19  O   UNL     1     -12.086   7.101   7.270  1.00  0.00    -0.507 OA
ATOM     20  H   UNL     1     -12.839   6.489   7.205  1.00  0.00     0.293 HD
ENDBRANCH   5  19
TORSDOF 4
ENDMDL
MODEL 6
REMARK VINA RESULT:    -5.171      4.139      6.387
REMARK INTER + INTRA:          -6.743
REMARK INTER:                  -5.655
REMARK INTRA:                  -1.087
REMARK UNBOUND:                -0.665
REMARK SMILES O=C(O)c1cc(-c2ccc(F)cc2F)ccc1O
REMARK SMILES IDX 6 1 5 2 15 3 4 4 17 5 16 6 7 7 13 8 12 9 8 10 10 11 9 12
REMARK SMILES IDX 14 13 11 14 2 15 1 16 3 17 18 19
REMARK H PARENT 3 18 18 20
ROOT
ATOM      1  C   UNL     1      -8.793   5.600   6.030  1.00  0.00    -0.014 A 
ATOM      2  C   UNL     1      -8.736   5.424   7.412  1.00  0.00     0.028 A 
ATOM      3  C   UNL     1      -9.922   6.173   5.446  1.00  0.00     0.013 A 
ATOM      4  C   UNL     1      -9.809   5.822   8.211  1.00  0.00     0.102 A 
ATOM      5  C   UNL     1     -10.938   6.396   7.627  1.00  0.00     0.130 A 
ATOM      6  C   UNL     1     -10.995   6.572   6.244  1.00  0.00     0.048 A 
ENDROOT
BRANCH   1   7
ATOM      7  C   UNL     1      -7.682   5.186   5.201  1.00  0.00     0.018 A 
ATOM      8  C   UNL     1      -6.675   6.095   4.874  1.00  0.00     0.133 A 
ATOM      9  C   UNL     1      -5.605   5.692   4.074  1.00  0.00     0.079 A 
ATOM     10  C   UNL     1      -7.618   3.875   4.729  1.00  0.00     0.015 A 
ATOM     11  C   UNL     1      -5.542   4.382   3.602  1.00  0.00     0.126 A 
ATOM     12  C   UNL     1      -6.548   3.473   3.930  1.00  0.00     0.040 A 
ATOM     13  F   UNL     1      -6.723   7.360   5.317  1.00  0.00    -0.206 F 
ATOM     14  F   UNL     1      -4.516   3.994   2.834  1.00  0.00    -0.207 F 
ENDBRANCH   1   7
BRANCH   4  15
ATOM     15  C   UNL     1      -9.729   5.630   9.653  1.00  0.00     0.339 C 
ATOM     16  O   UNL     1      -8.718   5.791  10.340  1.00  0.00    -0.246 OA
BRANCH  15  17
ATOM     17  O   UNL     1     -10.919   5.245  10.190  1.00  0.00    -0.478 OA
ATOM     18  H   UNL     1     -10.816   4.924  11.111  1.00  0.00     0.297 HD
ENDBRANCH  15  17
ENDBRANCH   4  15
BRANCH   5  19
ATOM     19  O   UNL     1     -11.996   6.792   8.390  1.00  0.00    -0.507 OA
ATOM     20  H   UNL     1     -12.718   7.081   7.805  1.00  0.00     0.293 HD
ENDBRANCH   5  19
TORSDOF 4
ENDMDL
MODEL 7
REMARK VINA RESULT:    -5.124      4.562      6.882
REMARK INTER + INTRA:          -6.688
REMARK INTER:                  -5.604
REMARK INTRA:                  -1.084
REMARK UNBOUND:                -0.665
REMARK SMILES O=C(O)c1cc(-c2ccc(F)cc2F)ccc1O
REMARK SMILES IDX 6 1 5 2 15 3 4 4 17 5 16 6 7 7 13 8 12 9 8 10 10 11 9 12
REMARK SMILES IDX 14 13 11 14 2 15 1 16 3 17 18 19
REMARK H PARENT 3 18 18 20
ROOT
ATOM      1  C   UNL     1      -8.732   5.635   5.891  1.00  0.00    -0.014 A 
ATOM      2  C   UNL     1      -9.860   6.214   5.312  1.00  0.00     0.028 A 
ATOM      3  C   UNL     1      -8.680   5.438   7.271  1.00  0.00     0.013 A 
ATOM      4  C   UNL     1     -10.937   6.597   6.112  1.00  0.00     0.102 A 
ATOM      5  C   UNL     1     -10.885   6.399   7.492  1.00  0.00     0.130 A 
ATOM      6  C   UNL     1      -9.756   5.819   8.071  1.00  0.00     0.048 A 
ENDROOT
BRANCH   1   7
ATOM      7  C   UNL     1      -7.614   5.240   5.062  1.00  0.00     0.018 A 
ATOM      8  C   UNL     1      -6.596   6.151   4.777  1.00  0.00     0.133 A 
ATOM      9  C   UNL     1      -5.520   5.766   3.976  1.00  0.00     0.079 A 
ATOM     10  C   UNL     1      -7.554   3.945   4.548  1.00  0.00     0.015 A 
ATOM     11  C   UNL     1      -5.461   4.471   3.462  1.00  0.00     0.126 A 
ATOM     12  C   UNL     1      -6.479   3.560   3.749  1.00  0.00     0.040 A 
ATOM     13  F   UNL     1      -6.639   7.401   5.260  1.00  0.00    -0.206 F 
ATOM     14  F   UNL     1      -4.429   4.101   2.694  1.00  0.00    -0.207 F 
ENDBRANCH   1   7
BRANCH   4  15
ATOM     15  C   UNL     1     -12.107   7.199   5.488  1.00  0.00     0.339 C 
ATOM     16  O   UNL     1     -13.033   7.749   6.089  1.00  0.00    -0.246 OA
BRANCH  15  17
ATOM     17  O   UNL     1     -12.081   7.097   4.131  1.00  0.00    -0.478 OA
ATOM     18  H   UNL     1     -12.939   6.787   3.772  1.00  0.00     0.297 HD
ENDBRANCH  15  17
ENDBRANCH   4  15
BRANCH   5  19
ATOM     19  O   UNL     1     -11.927   6.765   8.291  1.00  0.00    -0.507 OA
ATOM     20  H   UNL     1     -12.222   5.991   8.802  1.00  0.00     0.293 HD
ENDBRANCH   5  19
TORSDOF 4
ENDMDL
MODEL 8
REMARK VINA RESULT:    -4.306      5.916      8.341
REMARK INTER + INTRA:          -5.726
REMARK INTER:                  -5.151
REMARK INTRA:                  -0.575
REMARK UNBOUND:                -0.665
REMARK SMILES O=C(O)c1cc(-c2ccc(F)cc2F)ccc1O
REMARK SMILES IDX 6 1 5 2 15 3 4 4 17 5 16 6 7 7 13 8 12 9 8 10 10 11 9 12
REMARK SMILES IDX 14 13 11 14 2 15 1 16 3 17 18 19
REMARK H PARENT 3 18 18 20
ROOT
ATOM      1  C   UNL     1     -10.440   6.065   9.523  1.00  0.00    -0.014 A 
ATOM      2  C   UNL     1     -11.791   5.960   9.850  1.00  0.00     0.028 A 
ATOM      3  C   UNL     1      -9.500   6.336  10.517  1.00  0.00     0.013 A 
ATOM      4  C   UNL     1     -12.204   6.125  11.173  1.00  0.00     0.102 A 
ATOM      5  C   UNL     1     -11.264   6.395  12.167  1.00  0.00     0.130 A 
ATOM      6  C   UNL     1      -9.912   6.501  11.839  1.00  0.00     0.048 A 
ENDROOT
BRANCH   1   7
ATOM      7  C   UNL     1     -10.012   5.896   8.151  1.00  0.00     0.018 A 
ATOM      8  C   UNL     1     -10.800   6.379   7.106  1.00  0.00     0.133 A 
ATOM      9  C   UNL     1     -10.384   6.213   5.785  1.00  0.00     0.079 A 
ATOM     10  C   UNL     1      -8.808   5.249   7.875  1.00  0.00     0.015 A 
ATOM     11  C   UNL     1      -9.180   5.565   5.509  1.00  0.00     0.126 A 
ATOM     12  C   UNL     1      -8.392   5.084   6.554  1.00  0.00     0.040 A 
ATOM     13  F   UNL     1     -11.962   7.001   7.354  1.00  0.00    -0.206 F 
ATOM     14  F   UNL     1      -8.779   5.406   4.241  1.00  0.00    -0.207 F 
ENDBRANCH   1   7
BRANCH   4  15
ATOM     15  C   UNL     1     -13.620   6.011  11.494  1.00  0.00     0.339 C 
ATOM     16  O   UNL     1     -14.111   6.157  12.616  1.00  0.00    -0.246 OA
BRANCH  15  17
ATOM     17  O   UNL     1     -14.377   5.719  10.402  1.00  0.00    -0.478 OA
ATOM     18  H   UNL     1     -15.131   6.338  10.305  1.00  0.00     0.297 HD
ENDBRANCH  15  17
ENDBRANCH   4  15
BRANCH   5  19
ATOM     19  O   UNL     1     -11.646   6.559  13.465  1.00  0.00    -0.507 OA
ATOM     20  H   UNL     1     -11.037   6.064  14.040  1.00  0.00     0.293 HD
ENDBRANCH   5  19
TORSDOF 4
ENDMDL
MODEL 9
REMARK VINA RESULT:    -3.943      5.116      7.036
REMARK INTER + INTRA:          -5.299
REMARK INTER:                  -4.485
REMARK INTRA:                  -0.815
REMARK UNBOUND:                -0.665
REMARK SMILES O=C(O)c1cc(-c2ccc(F)cc2F)ccc1O
REMARK SMILES IDX 6 1 5 2 15 3 4 4 17 5 16 6 7 7 13 8 12 9 8 10 10 11 9 12
REMARK SMILES IDX 14 13 11 14 2 15 1 16 3 17 18 19
REMARK H PARENT 3 18 18 20
ROOT
ATOM      1  C   UNL     1     -10.388   5.923   9.009  1.00  0.00    -0.014 A 
ATOM      2  C   UNL     1     -11.161   6.478   7.989  1.00  0.00     0.028 A 
ATOM      3  C   UNL     1      -9.237   5.200   8.697  1.00  0.00     0.013 A 
ATOM      4  C   UNL     1     -10.782   6.310   6.657  1.00  0.00     0.102 A 
ATOM      5  C   UNL     1      -9.631   5.587   6.345  1.00  0.00     0.130 A 
ATOM      6  C   UNL     1      -8.858   5.032   7.366  1.00  0.00     0.048 A 
ENDROOT
BRANCH   1   7
ATOM      7  C   UNL     1     -10.781   6.096  10.391  1.00  0.00     0.018 A 
ATOM      8  C   UNL     1      -9.887   6.645  11.310  1.00  0.00     0.133 A 
ATOM      9  C   UNL     1     -10.269   6.810  12.641  1.00  0.00     0.079 A 
ATOM     10  C   UNL     1     -12.057   5.713  10.803  1.00  0.00     0.015 A 
ATOM     11  C   UNL     1     -11.545   6.426  13.053  1.00  0.00     0.126 A 
ATOM     12  C   UNL     1     -12.439   5.878  12.133  1.00  0.00     0.040 A 
ATOM     13  F   UNL     1      -8.655   7.016  10.931  1.00  0.00    -0.206 F 
ATOM     14  F   UNL     1     -11.913   6.583  14.331  1.00  0.00    -0.207 F 
ENDBRANCH   1   7
BRANCH   4  15
ATOM     15  C   UNL     1     -11.602   6.898   5.606  1.00  0.00     0.339 C 
ATOM     16  O   UNL     1     -11.373   6.824   4.397  1.00  0.00    -0.246 OA
BRANCH  15  17
ATOM     17  O   UNL     1     -12.684   7.558   6.102  1.00  0.00    -0.478 OA
ATOM     18  H   UNL     1     -12.688   7.568   7.082  1.00  0.00     0.297 HD
ENDBRANCH  15  17
ENDBRANCH   4  15
BRANCH   5  19
ATOM     19  O   UNL     1      -9.243   5.412   5.050  1.00  0.00    -0.507 OA
ATOM     20  H   UNL     1      -8.302   5.645   4.966  1.00  0.00     0.293 HD
ENDBRANCH   5  19
TORSDOF 4
ENDMDL
