MODEL 1
REMARK VINA RESULT:    -6.702      0.000      0.000
REMARK INTER + INTRA:          -8.578
REMARK INTER:                  -7.877
REMARK INTRA:                  -0.701
REMARK UNBOUND:                -0.701
REMARK SMILES O=C(O)c1cc(-c2ccc(F)cc2F)ccc1O
REMARK SMILES IDX 6 1 5 2 15 3 4 4 17 5 16 6 7 7 13 8 12 9 8 10 10 11 9 12
REMARK SMILES IDX 14 13 11 14 2 15 1 16 3 17 18 19
REMARK H PARENT 3 18 18 20
ROOT
ATOM      1  C   UNL     1      -2.359  -6.496   1.061  1.00  0.00    -0.014 A 
ATOM      2  C   UNL     1      -3.139  -5.348   1.196  1.00  0.00     0.028 A 
ATOM      3  C   UNL     1      -1.012  -6.388   0.716  1.00  0.00     0.013 A 
ATOM      4  C   UNL     1      -2.572  -4.091   0.986  1.00  0.00     0.102 A 
ATOM      5  C   UNL     1      -1.225  -3.982   0.641  1.00  0.00     0.130 A 
ATOM      6  C   UNL     1      -0.444  -5.131   0.506  1.00  0.00     0.048 A 
ENDROOT
BRANCH   1   7
ATOM      7  C   UNL     1      -2.947  -7.801   1.278  1.00  0.00     0.018 A 
ATOM      8  C   UNL     1      -3.696  -8.049   2.428  1.00  0.00     0.133 A 
ATOM      9  C   UNL     1      -4.261  -9.308   2.633  1.00  0.00     0.079 A 
ATOM     10  C   UNL     1      -2.764  -8.810   0.333  1.00  0.00     0.015 A 
ATOM     11  C   UNL     1      -4.077 -10.317   1.688  1.00  0.00     0.126 A 
ATOM     12  C   UNL     1      -3.329 -10.068   0.538  1.00  0.00     0.040 A 
ATOM     13  F   UNL     1      -3.879  -7.091   3.347  1.00  0.00    -0.206 F 
ATOM     14  F   UNL     1      -4.619 -11.526   1.884  1.00  0.00    -0.207 F 
ENDBRANCH   1   7
BRANCH   4  15
ATOM     15  C   UNL     1      -3.403  -2.904   1.132  1.00  0.00     0.339 C 
ATOM     16  O   UNL     1      -3.380  -1.920   0.388  1.00  0.00    -0.246 OA
BRANCH  15  17
ATOM     17  O   UNL     1      -4.238  -2.985   2.203  1.00  0.00    -0.478 OA
ATOM     18  H   UNL     1      -5.144  -2.683   1.983  1.00  0.00     0.297 HD
ENDBRANCH  15  17
ENDBRANCH   4  15
BRANCH   5  19
ATOM     19  O   UNL     1      -0.651  -2.763   0.432  1.00  0.00    -0.507 OA
ATOM     20  H   UNL     1      -1.344  -2.080   0.450  1.00  0.00     0.293 HD
ENDBRANCH   5  19
TORSDOF 4
ENDMDL
MODEL 2
REMARK VINA RESULT:    -6.690      1.135      1.614
REMARK INTER + INTRA:          -8.565
REMARK INTER:                  -7.880
REMARK INTRA:                  -0.684
REMARK UNBOUND:                -0.701
REMARK SMILES O=C(O)c1cc(-c2ccc(F)cc2F)ccc1O
REMARK SMILES IDX 6 1 5 2 15 3 4 4 17 5 16 6 7 7 13 8 12 9 8 10 10 11 9 12
REMARK SMILES IDX 14 13 11 14 2 15 1 16 3 17 18 19
REMARK H PARENT 3 18 18 20
ROOT
ATOM      1  C   UNL     1      -2.340  -6.495   0.996  1.00  0.00    -0.014 A 
ATOM      2  C   UNL     1      -3.125  -5.353   1.154  1.00  0.00     0.028 A 
ATOM      3  C   UNL     1      -0.996  -6.374   0.645  1.00  0.00     0.013 A 
ATOM      4  C   UNL     1      -2.565  -4.089   0.961  1.00  0.00     0.102 A 
ATOM      5  C   UNL     1      -1.221  -3.969   0.611  1.00  0.00     0.130 A 
ATOM      6  C   UNL     1      -0.435  -5.112   0.453  1.00  0.00     0.048 A 
ENDROOT
BRANCH   1   7
ATOM      7  C   UNL     1      -2.920  -7.806   1.194  1.00  0.00     0.018 A 
ATOM      8  C   UNL     1      -2.733  -8.806   0.239  1.00  0.00     0.133 A 
ATOM      9  C   UNL     1      -3.295 -10.068   0.434  1.00  0.00     0.079 A 
ATOM     10  C   UNL     1      -3.667  -8.068   2.342  1.00  0.00     0.015 A 
ATOM     11  C   UNL     1      -4.042 -10.330   1.582  1.00  0.00     0.126 A 
ATOM     12  C   UNL     1      -4.227  -9.330   2.536  1.00  0.00     0.040 A 
ATOM     13  F   UNL     1      -2.021  -8.569  -0.872  1.00  0.00    -0.206 F 
ATOM     14  F   UNL     1      -4.581 -11.542   1.769  1.00  0.00    -0.207 F 
ENDBRANCH   1   7
BRANCH   4  15
ATOM     15  C   UNL     1      -3.402  -2.909   1.132  1.00  0.00     0.339 C 
ATOM     16  O   UNL     1      -3.394  -1.917   0.399  1.00  0.00    -0.246 OA
BRANCH  15  17
ATOM     17  O   UNL     1      -4.222  -3.007   2.213  1.00  0.00    -0.478 OA
ATOM     18  H   UNL     1      -3.720  -3.177   3.037  1.00  0.00     0.297 HD
ENDBRANCH  15  17
ENDBRANCH   4  15
BRANCH   5  19
ATOM     19  O   UNL     1      -0.654  -2.744   0.419  1.00  0.00    -0.507 OA
ATOM     20  H   UNL     1       0.312  -2.826   0.493  1.00  0.00     0.293 HD
ENDBRANCH   5  19
TORSDOF 4
ENDMDL
MODEL 3
REMARK VINA RESULT:    -6.685      1.747      3.237
REMARK INTER + INTRA:          -8.559
REMARK INTER:                  -7.902
REMARK INTRA:                  -0.657
REMARK UNBOUND:                -0.701
REMARK SMILES O=C(O)c1cc(-c2ccc(F)cc2F)ccc1O
REMARK SMILES IDX 6 1 5 2 15 3 4 4 17 5 16 6 7 7 13 8 12 9 8 10 10 11 9 12
REMARK SMILES IDX 14 13 11 14 2 15 1 16 3 17 18 19
REMARK H PARENT 3 18 18 20
ROOT
ATOM      1  C   UNL     1      -2.293  -6.621   0.855  1.00  0.00    -0.014 A 
ATOM      2  C   UNL     1      -0.954  -6.591   0.468  1.00  0.00     0.028 A 
ATOM      3  C   UNL     1      -3.005  -5.430   0.997  1.00  0.00     0.013 A 
ATOM      4  C   UNL     1      -0.325  -5.370   0.224  1.00  0.00     0.102 A 
ATOM      5  C   UNL     1      -1.037  -4.179   0.366  1.00  0.00     0.130 A 
ATOM      6  C   UNL     1      -2.378  -4.209   0.752  1.00  0.00     0.048 A 
ENDROOT
BRANCH   1   7
ATOM      7  C   UNL     1      -2.946  -7.887   1.110  1.00  0.00     0.018 A 
ATOM      8  C   UNL     1      -2.819  -8.937   0.199  1.00  0.00     0.133 A 
ATOM      9  C   UNL     1      -3.450 -10.156   0.449  1.00  0.00     0.079 A 
ATOM     10  C   UNL     1      -3.701  -8.057   2.270  1.00  0.00     0.015 A 
ATOM     11  C   UNL     1      -4.206 -10.325   1.609  1.00  0.00     0.126 A 
ATOM     12  C   UNL     1      -4.331  -9.276   2.519  1.00  0.00     0.040 A 
ATOM     13  F   UNL     1      -2.099  -8.789  -0.922  1.00  0.00    -0.206 F 
ATOM     14  F   UNL     1      -4.812 -11.495   1.849  1.00  0.00    -0.207 F 
ENDBRANCH   1   7
BRANCH   4  15
ATOM     15  C   UNL     1       1.074  -5.360  -0.180  1.00  0.00     0.339 C 
ATOM     16  O   UNL     1       1.947  -4.627   0.291  1.00  0.00    -0.246 OA
BRANCH  15  17
ATOM     17  O   UNL     1       1.338  -6.269  -1.157  1.00  0.00    -0.478 OA
ATOM     18  H   UNL     1       0.857  -6.064  -1.986  1.00  0.00     0.297 HD
ENDBRANCH  15  17
ENDBRANCH   4  15
BRANCH   5  19
ATOM     19  O   UNL     1      -0.441  -2.975   0.131  1.00  0.00    -0.507 OA
ATOM     20  H   UNL     1       0.292  -3.101  -0.496  1.00  0.00     0.293 HD
ENDBRANCH   5  19
TORSDOF 4
ENDMDL
MODEL 4
REMARK VINA RESULT:    -6.672      1.307      2.762
REMARK INTER + INTRA:          -8.542
REMARK INTER:                  -7.957
REMARK INTRA:                  -0.585
REMARK UNBOUND:                -0.701
REMARK SMILES O=C(O)c1cc(-c2ccc(F)cc2F)ccc1O
REMARK SMILES IDX 6 1 5 2 15 3 4 4 17 5 16 6 7 7 13 8 12 9 8 10 10 11 9 12
REMARK SMILES IDX 14 13 11 14 2 15 1 16 3 17 18 19
REMARK H PARENT 3 18 18 20
ROOT
ATOM      1  C   UNL     1      -2.325  -6.518   0.989  1.00  0.00    -0.014 A 
ATOM      2  C   UNL     1      -1.007  -6.499   0.537  1.00  0.00     0.028 A 
ATOM      3  C   UNL     1      -3.011  -5.320   1.190  1.00  0.00     0.013 A 
ATOM      4  C   UNL     1      -0.373  -5.282   0.285  1.00  0.00     0.102 A 
ATOM      5  C   UNL     1      -1.059  -4.084   0.485  1.00  0.00     0.130 A 
ATOM      6  C   UNL     1      -2.379  -4.103   0.937  1.00  0.00     0.048 A 
ENDROOT
BRANCH   1   7
ATOM      7  C   UNL     1      -2.983  -7.780   1.253  1.00  0.00     0.018 A 
ATOM      8  C   UNL     1      -3.726  -7.952   2.421  1.00  0.00     0.133 A 
ATOM      9  C   UNL     1      -4.358  -9.170   2.671  1.00  0.00     0.079 A 
ATOM     10  C   UNL     1      -2.873  -8.825   0.335  1.00  0.00     0.015 A 
ATOM     11  C   UNL     1      -4.248 -10.215   1.754  1.00  0.00     0.126 A 
ATOM     12  C   UNL     1      -3.505 -10.042   0.586  1.00  0.00     0.040 A 
ATOM     13  F   UNL     1      -3.840  -6.959   3.314  1.00  0.00    -0.206 F 
ATOM     14  F   UNL     1      -4.854 -11.385   1.993  1.00  0.00    -0.207 F 
ENDBRANCH   1   7
BRANCH   4  15
ATOM     15  C   UNL     1       1.005  -5.284  -0.188  1.00  0.00     0.339 C 
ATOM     16  O   UNL     1       1.928  -4.627   0.300  1.00  0.00    -0.246 OA
BRANCH  15  17
ATOM     17  O   UNL     1       1.186  -6.108  -1.255  1.00  0.00    -0.478 OA
ATOM     18  H   UNL     1       1.844  -5.748  -1.887  1.00  0.00     0.297 HD
ENDBRANCH  15  17
ENDBRANCH   4  15
BRANCH   5  19
ATOM     19  O   UNL     1      -0.458  -2.885   0.243  1.00  0.00    -0.507 OA
ATOM     20  H   UNL     1       0.268  -2.760   0.879  1.00  0.00     0.293 HD
ENDBRANCH   5  19
TORSDOF 4
ENDMDL
MODEL 5
REMARK VINA RESULT:    -5.360      1.174      1.444
REMARK INTER + INTRA:          -7.000
REMARK INTER:                  -6.299
REMARK INTRA:                  -0.701
REMARK UNBOUND:                -0.701
REMARK SMILES O=C(O)c1cc(-c2ccc(F)cc2F)ccc1O
REMARK SMILES IDX 6 1 5 2 15 3 4 4 17 5 16 6 7 7 13 8 12 9 8 10 10 11 9 12
REMARK SMILES IDX 14 13 11 14 2 15 1 16 3 17 18 19
REMARK H PARENT 3 18 18 20
ROOT
ATOM      1  C   UNL     1      -2.514  -7.083   0.907  1.00  0.00    -0.014 A 
ATOM      2  C   UNL     1      -3.150  -5.907   1.301  1.00  0.00     0.028 A 
ATOM      3  C   UNL     1      -1.302  -7.025   0.219  1.00  0.00     0.013 A 
ATOM      4  C   UNL     1      -2.573  -4.670   1.008  1.00  0.00     0.102 A 
ATOM      5  C   UNL     1      -1.361  -4.612   0.320  1.00  0.00     0.130 A 
ATOM      6  C   UNL     1      -0.725  -5.790  -0.074  1.00  0.00     0.048 A 
ENDROOT
BRANCH   1   7
ATOM      7  C   UNL     1      -3.112  -8.366   1.209  1.00  0.00     0.018 A 
ATOM      8  C   UNL     1      -4.470  -8.580   0.969  1.00  0.00     0.133 A 
ATOM      9  C   UNL     1      -5.042  -9.819   1.262  1.00  0.00     0.079 A 
ATOM     10  C   UNL     1      -2.328  -9.389   1.741  1.00  0.00     0.015 A 
ATOM     11  C   UNL     1      -4.258 -10.841   1.794  1.00  0.00     0.126 A 
ATOM     12  C   UNL     1      -2.901 -10.626   2.033  1.00  0.00     0.040 A 
ATOM     13  F   UNL     1      -5.238  -7.607   0.460  1.00  0.00    -0.206 F 
ATOM     14  F   UNL     1      -4.807 -12.030   2.076  1.00  0.00    -0.207 F 
ENDBRANCH   1   7
BRANCH   4  15
ATOM     15  C   UNL     1      -3.253  -3.453   1.429  1.00  0.00     0.339 C 
ATOM     16  O   UNL     1      -3.833  -3.295   2.506  1.00  0.00    -0.246 OA
BRANCH  15  17
ATOM     17  O   UNL     1      -3.184  -2.470   0.490  1.00  0.00    -0.478 OA
ATOM     18  H   UNL     1      -3.530  -2.769  -0.377  1.00  0.00     0.297 HD
ENDBRANCH  15  17
ENDBRANCH   4  15
BRANCH   5  19
ATOM     19  O   UNL     1      -0.781  -3.414   0.025  1.00  0.00    -0.507 OA
ATOM     20  H   UNL     1      -0.968  -2.785   0.743  1.00  0.00     0.293 HD
ENDBRANCH   5  19
TORSDOF 4
ENDMDL
MODEL 6
REMARK VINA RESULT:    -5.271      4.031      6.324
REMARK INTER + INTRA:          -6.897
REMARK INTER:                  -5.815
REMARK INTRA:                  -1.082
REMARK UNBOUND:                -0.701
REMARK SMILES O=C(O)c1cc(-c2ccc(F)cc2F)ccc1O
REMARK SMILES IDX 6 1 5 2 15 3 4 4 17 5 16 6 7 7 13 8 12 9 8 10 10 11 9 12
REMARK SMILES IDX 14 13 11 14 2 15 1 16 3 17 18 19
REMARK H PARENT 3 18 18 20
ROOT
ATOM      1  C   UNL     1      -3.539  -8.834   1.528  1.00  0.00    -0.014 A 
ATOM      2  C   UNL     1      -4.861  -9.179   1.253  1.00  0.00     0.028 A 
ATOM      3  C   UNL     1      -2.655  -9.794   2.020  1.00  0.00     0.013 A 
ATOM      4  C   UNL     1      -5.301 -10.486   1.469  1.00  0.00     0.102 A 
ATOM      5  C   UNL     1      -4.417 -11.446   1.960  1.00  0.00     0.130 A 
ATOM      6  C   UNL     1      -3.093 -11.100   2.236  1.00  0.00     0.048 A 
ENDROOT
BRANCH   1   7
ATOM      7  C   UNL     1      -3.083  -7.478   1.305  1.00  0.00     0.018 A 
ATOM      8  C   UNL     1      -3.226  -6.518   2.307  1.00  0.00     0.133 A 
ATOM      9  C   UNL     1      -2.785  -5.212   2.088  1.00  0.00     0.079 A 
ATOM     10  C   UNL     1      -2.499  -7.134   0.087  1.00  0.00     0.015 A 
ATOM     11  C   UNL     1      -2.202  -4.868   0.870  1.00  0.00     0.126 A 
ATOM     12  C   UNL     1      -2.058  -5.829  -0.131  1.00  0.00     0.040 A 
ATOM     13  F   UNL     1      -3.788  -6.832   3.483  1.00  0.00    -0.206 F 
ATOM     14  F   UNL     1      -1.778  -3.615   0.659  1.00  0.00    -0.207 F 
ENDBRANCH   1   7
BRANCH   4  15
ATOM     15  C   UNL     1      -6.686 -10.826   1.174  1.00  0.00     0.339 C 
ATOM     16  O   UNL     1      -7.141 -11.971   1.107  1.00  0.00    -0.246 OA
BRANCH  15  17
ATOM     17  O   UNL     1      -7.460  -9.725   0.974  1.00  0.00    -0.478 OA
ATOM     18  H   UNL     1      -8.182  -9.898   0.335  1.00  0.00     0.297 HD
ENDBRANCH  15  17
ENDBRANCH   4  15
BRANCH   5  19
ATOM     19  O   UNL     1      -4.826 -12.728   2.178  1.00  0.00    -0.507 OA
ATOM     20  H   UNL     1      -5.654 -12.883   1.691  1.00  0.00     0.293 HD
ENDBRANCH   5  19
TORSDOF 4
ENDMDL
MODEL 7
REMARK VINA RESULT:    -5.254      4.641      6.984
REMARK INTER + INTRA:          -6.876
REMARK INTER:                  -5.794
REMARK INTRA:                  -1.082
REMARK UNBOUND:                -0.701
REMARK SMILES O=C(O)c1cc(-c2ccc(F)cc2F)ccc1O
REMARK SMILES IDX 6 1 5 2 15 3 4 4 17 5 16 6 7 7 13 8 12 9 8 10 10 11 9 12
REMARK SMILES IDX 14 13 11 14 2 15 1 16 3 17 18 19
REMARK H PARENT 3 18 18 20
ROOT
ATOM      1  C   UNL     1      -3.310  -9.089   1.232  1.00  0.00    -0.014 A 
ATOM      2  C   UNL     1      -2.643 -10.164   1.816  1.00  0.00     0.028 A 
ATOM      3  C   UNL     1      -4.677  -9.176   0.966  1.00  0.00     0.013 A 
ATOM      4  C   UNL     1      -3.342 -11.329   2.136  1.00  0.00     0.102 A 
ATOM      5  C   UNL     1      -4.709 -11.416   1.870  1.00  0.00     0.130 A 
ATOM      6  C   UNL     1      -5.376 -10.339   1.285  1.00  0.00     0.048 A 
ENDROOT
BRANCH   1   7
ATOM      7  C   UNL     1      -2.585  -7.881   0.899  1.00  0.00     0.018 A 
ATOM      8  C   UNL     1      -1.942  -7.767  -0.334  1.00  0.00     0.133 A 
ATOM      9  C   UNL     1      -1.244  -6.601  -0.651  1.00  0.00     0.079 A 
ATOM     10  C   UNL     1      -2.531  -6.830   1.814  1.00  0.00     0.015 A 
ATOM     11  C   UNL     1      -1.190  -5.551   0.264  1.00  0.00     0.126 A 
ATOM     12  C   UNL     1      -1.834  -5.665   1.496  1.00  0.00     0.040 A 
ATOM     13  F   UNL     1      -1.982  -8.770  -1.223  1.00  0.00    -0.206 F 
ATOM     14  F   UNL     1      -0.520  -4.431  -0.039  1.00  0.00    -0.207 F 
ENDBRANCH   1   7
BRANCH   4  15
ATOM     15  C   UNL     1      -2.627 -12.441   2.746  1.00  0.00     0.339 C 
ATOM     16  O   UNL     1      -3.153 -13.440   3.243  1.00  0.00    -0.246 OA
BRANCH  15  17
ATOM     17  O   UNL     1      -1.278 -12.270   2.714  1.00  0.00    -0.478 OA
ATOM     18  H   UNL     1      -0.800 -13.117   2.835  1.00  0.00     0.297 HD
ENDBRANCH  15  17
ENDBRANCH   4  15
BRANCH   5  19
ATOM     19  O   UNL     1      -5.410 -12.545   2.175  1.00  0.00    -0.507 OA
ATOM     20  H   UNL     1      -5.223 -12.795   3.096  1.00  0.00     0.293 HD
ENDBRANCH   5  19
TORSDOF 4
ENDMDL
MODEL 8
REMARK VINA RESULT:    -4.963      1.965      3.111
REMARK INTER + INTRA:          -6.534
REMARK INTER:                  -5.558
REMARK INTRA:                  -0.976
REMARK UNBOUND:                -0.701
REMARK SMILES O=C(O)c1cc(-c2ccc(F)cc2F)ccc1O
REMARK SMILES IDX 6 1 5 2 15 3 4 4 17 5 16 6 7 7 13 8 12 9 8 10 10 11 9 12
REMARK SMILES IDX 14 13 11 14 2 15 1 16 3 17 18 19
REMARK H PARENT 3 18 18 20
ROOT
ATOM      1  C   UNL     1      -2.741  -7.807   1.477  1.00  0.00    -0.014 A 
ATOM      2  C   UNL     1      -1.739  -7.627   0.524  1.00  0.00     0.028 A 
ATOM      3  C   UNL     1      -3.123  -6.746   2.297  1.00  0.00     0.013 A 
ATOM      4  C   UNL     1      -1.118  -6.384   0.391  1.00  0.00     0.102 A 
ATOM      5  C   UNL     1      -1.500  -5.323   1.211  1.00  0.00     0.130 A 
ATOM      6  C   UNL     1      -2.503  -5.503   2.164  1.00  0.00     0.048 A 
ENDROOT
BRANCH   1   7
ATOM      7  C   UNL     1      -3.384  -9.096   1.616  1.00  0.00     0.018 A 
ATOM      8  C   UNL     1      -4.715  -9.260   1.231  1.00  0.00     0.133 A 
ATOM      9  C   UNL     1      -5.332 -10.504   1.367  1.00  0.00     0.079 A 
ATOM     10  C   UNL     1      -2.671 -10.175   2.137  1.00  0.00     0.015 A 
ATOM     11  C   UNL     1      -4.619 -11.583   1.888  1.00  0.00     0.126 A 
ATOM     12  C   UNL     1      -3.288 -11.418   2.272  1.00  0.00     0.040 A 
ATOM     13  F   UNL     1      -5.416  -8.232   0.731  1.00  0.00    -0.206 F 
ATOM     14  F   UNL     1      -5.210 -12.777   2.020  1.00  0.00    -0.207 F 
ENDBRANCH   1   7
BRANCH   4  15
ATOM     15  C   UNL     1      -0.074  -6.216  -0.610  1.00  0.00     0.339 C 
ATOM     16  O   UNL     1       0.782  -5.329  -0.607  1.00  0.00    -0.246 OA
BRANCH  15  17
ATOM     17  O   UNL     1      -0.132  -7.165  -1.584  1.00  0.00    -0.478 OA
ATOM     18  H   UNL     1       0.691  -7.696  -1.626  1.00  0.00     0.297 HD
ENDBRANCH  15  17
ENDBRANCH   4  15
BRANCH   5  19
ATOM     19  O   UNL     1      -0.907  -4.101   1.096  1.00  0.00    -0.507 OA
ATOM     20  H   UNL     1      -0.338  -4.097   0.307  1.00  0.00     0.293 HD
ENDBRANCH   5  19
TORSDOF 4
ENDMDL
MODEL 9
REMARK VINA RESULT:    -4.321      6.454      8.824
REMARK INTER + INTRA:          -5.780
REMARK INTER:                  -5.087
REMARK INTRA:                  -0.693
REMARK UNBOUND:                -0.701
REMARK SMILES O=C(O)c1cc(-c2ccc(F)cc2F)ccc1O
REMARK SMILES IDX 6 1 5 2 15 3 4 4 17 5 16 6 7 7 13 8 12 9 8 10 10 11 9 12
REMARK SMILES IDX 14 13 11 14 2 15 1 16 3 17 18 19
REMARK H PARENT 3 18 18 20
ROOT
ATOM      1  C   UNL     1      -2.873 -12.682   2.745  1.00  0.00    -0.014 A 
ATOM      2  C   UNL     1      -3.299 -13.864   2.140  1.00  0.00     0.028 A 
ATOM      3  C   UNL     1      -2.040 -12.730   3.862  1.00  0.00     0.013 A 
ATOM      4  C   UNL     1      -2.892 -15.096   2.653  1.00  0.00     0.102 A 
ATOM      5  C   UNL     1      -2.058 -15.145   3.771  1.00  0.00     0.130 A 
ATOM      6  C   UNL     1      -1.632 -13.961   4.375  1.00  0.00     0.048 A 
ENDROOT
BRANCH   1   7
ATOM      7  C   UNL     1      -3.296 -11.403   2.214  1.00  0.00     0.018 A 
ATOM      8  C   UNL     1      -4.632 -11.196   1.868  1.00  0.00     0.133 A 
ATOM      9  C   UNL     1      -5.035  -9.962   1.356  1.00  0.00     0.079 A 
ATOM     10  C   UNL     1      -2.366 -10.377   2.051  1.00  0.00     0.015 A 
ATOM     11  C   UNL     1      -4.105  -8.937   1.192  1.00  0.00     0.126 A 
ATOM     12  C   UNL     1      -2.770  -9.145   1.540  1.00  0.00     0.040 A 
ATOM     13  F   UNL     1      -5.538 -12.173   2.016  1.00  0.00    -0.206 F 
ATOM     14  F   UNL     1      -4.491  -7.753   0.701  1.00  0.00    -0.207 F 
ENDBRANCH   1   7
BRANCH   4  15
ATOM     15  C   UNL     1      -3.347 -16.319   2.007  1.00  0.00     0.339 C 
ATOM     16  O   UNL     1      -2.868 -17.441   2.186  1.00  0.00    -0.246 OA
BRANCH  15  17
ATOM     17  O   UNL     1      -4.389 -16.100   1.159  1.00  0.00    -0.478 OA
ATOM     18  H   UNL     1      -5.249 -16.318   1.575  1.00  0.00     0.297 HD
ENDBRANCH  15  17
ENDBRANCH   4  15
BRANCH   5  19
ATOM     19  O   UNL     1      -1.649 -16.338   4.287  1.00  0.00    -0.507 OA
ATOM     20  H   UNL     1      -1.520 -16.971   3.559  1.00  0.00     0.293 HD
ENDBRANCH   5  19
TORSDOF 4
ENDMDL
