MODEL 1
REMARK VINA RESULT:    -5.414      0.000      0.000
REMARK INTER + INTRA:          -7.444
REMARK INTER:                  -6.681
REMARK INTRA:                  -0.763
REMARK UNBOUND:                -0.763
REMARK SMILES Cc1ccc(C(=O)c2cc(O)c(O)c([N+](=O)[O-])c2)cc1
REMARK SMILES IDX 8 1 18 2 9 3 14 4 10 5 12 6 6 7 7 8 5 9 4 10 19 11 3 12
REMARK SMILES IDX 20 13 2 14 1 15 15 16 17 17 16 18 11 19 13 21
REMARK H PARENT 11 20 13 22
ROOT
ATOM      1  C   UNL     1      -1.454  -6.626   1.386  1.00  0.00     0.033 A 
ATOM      2  C   UNL     1      -2.451  -5.686   1.503  1.00  0.00     0.102 A 
ATOM      3  C   UNL     1      -0.200  -6.328   0.908  1.00  0.00     0.063 A 
ATOM      4  C   UNL     1      -2.178  -4.372   1.120  1.00  0.00     0.315 A 
ATOM      5  C   UNL     1       0.074  -5.015   0.524  1.00  0.00     0.165 A 
ATOM      6  C   UNL     1      -0.916  -4.036   0.631  1.00  0.00     0.237 A 
ENDROOT
BRANCH   1   7
ATOM      7  C   UNL     1      -1.746  -8.032   1.796  1.00  0.00     0.193 C 
ATOM      8  O   UNL     1      -0.831  -8.669   2.340  1.00  0.00    -0.289 OA
BRANCH   7   9
ATOM      9  C   UNL     1      -3.043  -8.654   1.578  1.00  0.00     0.023 A 
ATOM     10  C   UNL     1      -3.256  -9.444   0.448  1.00  0.00     0.012 A 
ATOM     11  C   UNL     1      -4.072  -8.462   2.499  1.00  0.00     0.012 A 
ATOM     12  C   UNL     1      -4.499 -10.041   0.239  1.00  0.00     0.004 A 
ATOM     13  C   UNL     1      -5.316  -9.059   2.290  1.00  0.00     0.004 A 
ATOM     14  C   UNL     1      -5.530  -9.848   1.160  1.00  0.00    -0.051 A 
ATOM     15  C   UNL     1      -6.859 -10.485   0.936  1.00  0.00     0.044 C 
ENDBRANCH   7   9
ENDBRANCH   1   7
BRANCH   4  16
ATOM     16  N   UNL     1      -3.199  -3.389   1.235  1.00  0.00     0.066 N 
ATOM     17  O   UNL     1      -3.210  -2.430   0.427  1.00  0.00    -0.258 OA
ATOM     18  O   UNL     1      -4.057  -3.511   2.140  1.00  0.00    -0.258 OA
ENDBRANCH   4  16
BRANCH   5  19
ATOM     19  O   UNL     1       1.311  -4.701   0.049  1.00  0.00    -0.504 OA
ATOM     20  H   UNL     1       1.225  -4.214  -0.787  1.00  0.00     0.293 HD
ENDBRANCH   5  19
BRANCH   6  21
ATOM     21  O   UNL     1      -0.636  -2.755   0.253  1.00  0.00    -0.500 OA
ATOM     22  H   UNL     1      -1.078  -2.559  -0.587  1.00  0.00     0.294 HD
ENDBRANCH   6  21
TORSDOF 5
ENDMDL
MODEL 2
REMARK VINA RESULT:    -5.395      2.025      3.525
REMARK INTER + INTRA:          -7.420
REMARK INTER:                  -6.631
REMARK INTRA:                  -0.789
REMARK UNBOUND:                -0.763
REMARK SMILES Cc1ccc(C(=O)c2cc(O)c(O)c([N+](=O)[O-])c2)cc1
REMARK SMILES IDX 8 1 18 2 9 3 14 4 10 5 12 6 6 7 7 8 5 9 4 10 19 11 3 12
REMARK SMILES IDX 20 13 2 14 1 15 15 16 17 17 16 18 11 19 13 21
REMARK H PARENT 11 20 13 22
ROOT
ATOM      1  C   UNL     1      -3.005  -6.057   0.439  1.00  0.00     0.033 A 
ATOM      2  C   UNL     1      -1.683  -6.290   0.137  1.00  0.00     0.102 A 
ATOM      3  C   UNL     1      -3.502  -4.802   0.698  1.00  0.00     0.063 A 
ATOM      4  C   UNL     1      -0.809  -5.204   0.091  1.00  0.00     0.315 A 
ATOM      5  C   UNL     1      -2.627  -3.716   0.652  1.00  0.00     0.165 A 
ATOM      6  C   UNL     1      -1.280  -3.917   0.348  1.00  0.00     0.237 A 
ENDROOT
BRANCH   1   7
ATOM      7  C   UNL     1      -3.942  -7.220   0.489  1.00  0.00     0.193 C 
ATOM      8  O   UNL     1      -5.078  -7.056   0.017  1.00  0.00    -0.289 OA
BRANCH   7   9
ATOM      9  C   UNL     1      -3.564  -8.502   1.061  1.00  0.00     0.023 A 
ATOM     10  C   UNL     1      -3.851  -8.781   2.397  1.00  0.00     0.012 A 
ATOM     11  C   UNL     1      -2.915  -9.453   0.274  1.00  0.00     0.012 A 
ATOM     12  C   UNL     1      -3.488 -10.011   2.946  1.00  0.00     0.004 A 
ATOM     13  C   UNL     1      -2.552 -10.684   0.822  1.00  0.00     0.004 A 
ATOM     14  C   UNL     1      -2.838 -10.963   2.158  1.00  0.00    -0.051 A 
ATOM     15  C   UNL     1      -2.450 -12.277   2.746  1.00  0.00     0.044 C 
ENDBRANCH   7   9
ENDBRANCH   1   7
BRANCH   4  16
ATOM     16  N   UNL     1       0.560  -5.429  -0.220  1.00  0.00     0.066 N 
ATOM     17  O   UNL     1       0.851  -6.279  -1.097  1.00  0.00    -0.258 OA
ATOM     18  O   UNL     1       1.436  -4.772   0.389  1.00  0.00    -0.258 OA
ENDBRANCH   4  16
BRANCH   5  19
ATOM     19  O   UNL     1      -3.102  -2.464   0.905  1.00  0.00    -0.504 OA
ATOM     20  H   UNL     1      -2.357  -1.852   1.026  1.00  0.00     0.293 HD
ENDBRANCH   5  19
BRANCH   6  21
ATOM     21  O   UNL     1      -0.434  -2.847   0.305  1.00  0.00    -0.500 OA
ATOM     22  H   UNL     1       0.275  -2.966   0.956  1.00  0.00     0.294 HD
ENDBRANCH   6  21
TORSDOF 5
ENDMDL
MODEL 3
REMARK VINA RESULT:    -5.030      1.760      2.180
REMARK INTER + INTRA:          -6.969
REMARK INTER:                  -6.364
REMARK INTRA:                  -0.605
REMARK UNBOUND:                -0.763
REMARK SMILES Cc1ccc(C(=O)c2cc(O)c(O)c([N+](=O)[O-])c2)cc1
REMARK SMILES IDX 8 1 18 2 9 3 14 4 10 5 12 6 6 7 7 8 5 9 4 10 19 11 3 12
REMARK SMILES IDX 20 13 2 14 1 15 15 16 17 17 16 18 11 19 13 21
REMARK H PARENT 11 20 13 22
ROOT
ATOM      1  C   UNL     1      -1.554  -6.221  -0.370  1.00  0.00     0.033 A 
ATOM      2  C   UNL     1      -2.518  -5.298  -0.038  1.00  0.00     0.102 A 
ATOM      3  C   UNL     1      -0.208  -5.974  -0.242  1.00  0.00     0.063 A 
ATOM      4  C   UNL     1      -2.112  -4.057   0.453  1.00  0.00     0.315 A 
ATOM      5  C   UNL     1       0.198  -4.732   0.248  1.00  0.00     0.165 A 
ATOM      6  C   UNL     1      -0.754  -3.774   0.596  1.00  0.00     0.237 A 
ENDROOT
BRANCH   1   7
ATOM      7  C   UNL     1      -1.989  -7.550  -0.896  1.00  0.00     0.193 C 
ATOM      8  O   UNL     1      -1.934  -7.723  -2.123  1.00  0.00    -0.289 OA
BRANCH   7   9
ATOM      9  C   UNL     1      -2.461  -8.616  -0.027  1.00  0.00     0.023 A 
ATOM     10  C   UNL     1      -3.058  -8.306   1.196  1.00  0.00     0.012 A 
ATOM     11  C   UNL     1      -2.319  -9.948  -0.415  1.00  0.00     0.012 A 
ATOM     12  C   UNL     1      -3.511  -9.328   2.029  1.00  0.00     0.004 A 
ATOM     13  C   UNL     1      -2.772 -10.971   0.419  1.00  0.00     0.004 A 
ATOM     14  C   UNL     1      -3.369 -10.661   1.641  1.00  0.00    -0.051 A 
ATOM     15  C   UNL     1      -3.852 -11.753   2.533  1.00  0.00     0.044 C 
ENDBRANCH   7   9
ENDBRANCH   1   7
BRANCH   4  16
ATOM     16  N   UNL     1      -3.097  -3.093   0.802  1.00  0.00     0.066 N 
ATOM     17  O   UNL     1      -3.091  -1.981   0.219  1.00  0.00    -0.258 OA
ATOM     18  O   UNL     1      -3.943  -3.381   1.680  1.00  0.00    -0.258 OA
ENDBRANCH   4  16
BRANCH   5  19
ATOM     19  O   UNL     1       1.528  -4.470   0.383  1.00  0.00    -0.504 OA
ATOM     20  H   UNL     1       2.017  -5.304   0.476  1.00  0.00     0.293 HD
ENDBRANCH   5  19
BRANCH   6  21
ATOM     21  O   UNL     1      -0.344  -2.563   1.075  1.00  0.00    -0.500 OA
ATOM     22  H   UNL     1       0.615  -2.475   0.960  1.00  0.00     0.294 HD
ENDBRANCH   6  21
TORSDOF 5
ENDMDL
MODEL 4
REMARK VINA RESULT:    -5.014      1.674      3.123
REMARK INTER + INTRA:          -6.949
REMARK INTER:                  -6.270
REMARK INTRA:                  -0.679
REMARK UNBOUND:                -0.763
REMARK SMILES Cc1ccc(C(=O)c2cc(O)c(O)c([N+](=O)[O-])c2)cc1
REMARK SMILES IDX 8 1 18 2 9 3 14 4 10 5 12 6 6 7 7 8 5 9 4 10 19 11 3 12
REMARK SMILES IDX 20 13 2 14 1 15 15 16 17 17 16 18 11 19 13 21
REMARK H PARENT 11 20 13 22
ROOT
ATOM      1  C   UNL     1      -2.386  -5.408   2.078  1.00  0.00     0.033 A 
ATOM      2  C   UNL     1      -1.096  -5.682   1.687  1.00  0.00     0.102 A 
ATOM      3  C   UNL     1      -3.071  -4.292   1.662  1.00  0.00     0.063 A 
ATOM      4  C   UNL     1      -0.455  -4.789   0.830  1.00  0.00     0.315 A 
ATOM      5  C   UNL     1      -2.429  -3.397   0.805  1.00  0.00     0.165 A 
ATOM      6  C   UNL     1      -1.121  -3.646   0.388  1.00  0.00     0.237 A 
ENDROOT
BRANCH   1   7
ATOM      7  C   UNL     1      -3.072  -6.366   2.997  1.00  0.00     0.193 C 
ATOM      8  O   UNL     1      -3.106  -6.073   4.202  1.00  0.00    -0.289 OA
BRANCH   7   9
ATOM      9  C   UNL     1      -3.684  -7.597   2.525  1.00  0.00     0.023 A 
ATOM     10  C   UNL     1      -4.786  -8.130   3.195  1.00  0.00     0.012 A 
ATOM     11  C   UNL     1      -3.171  -8.245   1.402  1.00  0.00     0.012 A 
ATOM     12  C   UNL     1      -5.373  -9.311   2.741  1.00  0.00     0.004 A 
ATOM     13  C   UNL     1      -3.758  -9.427   0.948  1.00  0.00     0.004 A 
ATOM     14  C   UNL     1      -4.859  -9.960   1.617  1.00  0.00    -0.051 A 
ATOM     15  C   UNL     1      -5.486 -11.223   1.134  1.00  0.00     0.044 C 
ENDBRANCH   7   9
ENDBRANCH   1   7
BRANCH   4  16
ATOM     16  N   UNL     1       0.879  -5.059   0.416  1.00  0.00     0.066 N 
ATOM     17  O   UNL     1       1.731  -4.141   0.482  1.00  0.00    -0.258 OA
ATOM     18  O   UNL     1       1.163  -6.206  -0.001  1.00  0.00    -0.258 OA
ENDBRANCH   4  16
BRANCH   5  19
ATOM     19  O   UNL     1      -3.093  -2.285   0.381  1.00  0.00    -0.504 OA
ATOM     20  H   UNL     1      -3.142  -1.639   1.105  1.00  0.00     0.293 HD
ENDBRANCH   5  19
BRANCH   6  21
ATOM     21  O   UNL     1      -0.505  -2.764  -0.452  1.00  0.00    -0.500 OA
ATOM     22  H   UNL     1       0.111  -3.240  -1.030  1.00  0.00     0.294 HD
ENDBRANCH   6  21
TORSDOF 5
ENDMDL
MODEL 5
REMARK VINA RESULT:    -4.944      3.701      6.627
REMARK INTER + INTRA:          -6.863
REMARK INTER:                  -5.921
REMARK INTRA:                  -0.942
REMARK UNBOUND:                -0.763
REMARK SMILES Cc1ccc(C(=O)c2cc(O)c(O)c([N+](=O)[O-])c2)cc1
REMARK SMILES IDX 8 1 18 2 9 3 14 4 10 5 12 6 6 7 7 8 5 9 4 10 19 11 3 12
REMARK SMILES IDX 20 13 2 14 1 15 15 16 17 17 16 18 11 19 13 21
REMARK H PARENT 11 20 13 22
ROOT
ATOM      1  C   UNL     1      -3.193  -9.666   0.864  1.00  0.00     0.033 A 
ATOM      2  C   UNL     1      -4.561  -9.792   0.798  1.00  0.00     0.102 A 
ATOM      3  C   UNL     1      -2.387 -10.591   1.485  1.00  0.00     0.063 A 
ATOM      4  C   UNL     1      -5.157 -10.907   1.385  1.00  0.00     0.315 A 
ATOM      5  C   UNL     1      -2.984 -11.706   2.073  1.00  0.00     0.165 A 
ATOM      6  C   UNL     1      -4.369 -11.865   2.023  1.00  0.00     0.237 A 
ENDROOT
BRANCH   1   7
ATOM      7  C   UNL     1      -2.554  -8.471   0.235  1.00  0.00     0.193 C 
ATOM      8  O   UNL     1      -1.743  -8.675  -0.681  1.00  0.00    -0.289 OA
BRANCH   7   9
ATOM      9  C   UNL     1      -2.852  -7.113   0.661  1.00  0.00     0.023 A 
ATOM     10  C   UNL     1      -2.958  -6.815   2.020  1.00  0.00     0.012 A 
ATOM     11  C   UNL     1      -3.032  -6.107  -0.289  1.00  0.00     0.012 A 
ATOM     12  C   UNL     1      -3.244  -5.512   2.427  1.00  0.00     0.004 A 
ATOM     13  C   UNL     1      -3.318  -4.804   0.118  1.00  0.00     0.004 A 
ATOM     14  C   UNL     1      -3.424  -4.506   1.477  1.00  0.00    -0.051 A 
ATOM     15  C   UNL     1      -3.731  -3.114   1.913  1.00  0.00     0.044 C 
ENDBRANCH   7   9
ENDBRANCH   1   7
BRANCH   4  16
ATOM     16  N   UNL     1      -6.571 -11.052   1.324  1.00  0.00     0.066 N 
ATOM     17  O   UNL     1      -7.060 -12.205   1.256  1.00  0.00    -0.258 OA
ATOM     18  O   UNL     1      -7.286 -10.023   1.340  1.00  0.00    -0.258 OA
ENDBRANCH   4  16
BRANCH   5  19
ATOM     19  O   UNL     1      -2.201 -12.634   2.693  1.00  0.00    -0.504 OA
ATOM     20  H   UNL     1      -2.764 -13.300   3.122  1.00  0.00     0.293 HD
ENDBRANCH   5  19
BRANCH   6  21
ATOM     21  O   UNL     1      -4.941 -12.961   2.601  1.00  0.00    -0.500 OA
ATOM     22  H   UNL     1      -4.399 -13.255   3.350  1.00  0.00     0.294 HD
ENDBRANCH   6  21
TORSDOF 5
ENDMDL
MODEL 6
REMARK VINA RESULT:    -4.931      3.623      7.191
REMARK INTER + INTRA:          -6.848
REMARK INTER:                  -5.921
REMARK INTRA:                  -0.927
REMARK UNBOUND:                -0.763
REMARK SMILES Cc1ccc(C(=O)c2cc(O)c(O)c([N+](=O)[O-])c2)cc1
REMARK SMILES IDX 8 1 18 2 9 3 14 4 10 5 12 6 6 7 7 8 5 9 4 10 19 11 3 12
REMARK SMILES IDX 20 13 2 14 1 15 15 16 17 17 16 18 11 19 13 21
REMARK H PARENT 11 20 13 22
ROOT
ATOM      1  C   UNL     1      -4.148  -9.014   2.083  1.00  0.00     0.033 A 
ATOM      2  C   UNL     1      -3.378 -10.123   2.348  1.00  0.00     0.102 A 
ATOM      3  C   UNL     1      -5.453  -9.096   1.658  1.00  0.00     0.063 A 
ATOM      4  C   UNL     1      -3.946 -11.385   2.180  1.00  0.00     0.315 A 
ATOM      5  C   UNL     1      -6.022 -10.359   1.489  1.00  0.00     0.165 A 
ATOM      6  C   UNL     1      -5.268 -11.504   1.751  1.00  0.00     0.237 A 
ENDROOT
BRANCH   1   7
ATOM      7  C   UNL     1      -3.540  -7.662   2.263  1.00  0.00     0.193 C 
ATOM      8  O   UNL     1      -4.063  -6.909   3.099  1.00  0.00    -0.289 OA
BRANCH   7   9
ATOM      9  C   UNL     1      -2.382  -7.220   1.502  1.00  0.00     0.023 A 
ATOM     10  C   UNL     1      -1.374  -6.486   2.129  1.00  0.00     0.012 A 
ATOM     11  C   UNL     1      -2.278  -7.531   0.147  1.00  0.00     0.012 A 
ATOM     12  C   UNL     1      -0.263  -6.063   1.399  1.00  0.00     0.004 A 
ATOM     13  C   UNL     1      -1.167  -7.108  -0.584  1.00  0.00     0.004 A 
ATOM     14  C   UNL     1      -0.159  -6.374   0.043  1.00  0.00    -0.051 A 
ATOM     15  C   UNL     1       1.028  -5.920  -0.737  1.00  0.00     0.044 C 
ENDBRANCH   7   9
ENDBRANCH   1   7
BRANCH   4  16
ATOM     16  N   UNL     1      -3.163 -12.540   2.451  1.00  0.00     0.066 N 
ATOM     17  O   UNL     1      -1.928 -12.501   2.229  1.00  0.00    -0.258 OA
ATOM     18  O   UNL     1      -3.727 -13.563   2.904  1.00  0.00    -0.258 OA
ENDBRANCH   4  16
BRANCH   5  19
ATOM     19  O   UNL     1      -7.314 -10.460   1.070  1.00  0.00    -0.504 OA
ATOM     20  H   UNL     1      -7.399 -10.075   0.182  1.00  0.00     0.293 HD
ENDBRANCH   5  19
BRANCH   6  21
ATOM     21  O   UNL     1      -5.835 -12.734   1.583  1.00  0.00    -0.500 OA
ATOM     22  H   UNL     1      -5.422 -13.369   2.188  1.00  0.00     0.294 HD
ENDBRANCH   6  21
TORSDOF 5
ENDMDL
MODEL 7
REMARK VINA RESULT:    -4.929      4.008      7.199
REMARK INTER + INTRA:          -6.844
REMARK INTER:                  -6.203
REMARK INTRA:                  -0.641
REMARK UNBOUND:                -0.763
REMARK SMILES Cc1ccc(C(=O)c2cc(O)c(O)c([N+](=O)[O-])c2)cc1
REMARK SMILES IDX 8 1 18 2 9 3 14 4 10 5 12 6 6 7 7 8 5 9 4 10 19 11 3 12
REMARK SMILES IDX 20 13 2 14 1 15 15 16 17 17 16 18 11 19 13 21
REMARK H PARENT 11 20 13 22
ROOT
ATOM      1  C   UNL     1      -4.103  -9.627   1.488  1.00  0.00     0.033 A 
ATOM      2  C   UNL     1      -3.913 -10.921   1.915  1.00  0.00     0.102 A 
ATOM      3  C   UNL     1      -5.308  -9.166   1.016  1.00  0.00     0.063 A 
ATOM      4  C   UNL     1      -4.992 -11.804   1.867  1.00  0.00     0.315 A 
ATOM      5  C   UNL     1      -6.388 -10.049   0.967  1.00  0.00     0.165 A 
ATOM      6  C   UNL     1      -6.229 -11.369   1.393  1.00  0.00     0.237 A 
ENDROOT
BRANCH   1   7
ATOM      7  C   UNL     1      -2.947  -8.681   1.540  1.00  0.00     0.193 C 
ATOM      8  O   UNL     1      -1.810  -9.175   1.590  1.00  0.00    -0.289 OA
BRANCH   7   9
ATOM      9  C   UNL     1      -3.120  -7.238   1.532  1.00  0.00     0.023 A 
ATOM     10  C   UNL     1      -3.173  -6.548   0.320  1.00  0.00     0.012 A 
ATOM     11  C   UNL     1      -3.234  -6.542   2.735  1.00  0.00     0.012 A 
ATOM     12  C   UNL     1      -3.340  -5.163   0.313  1.00  0.00     0.004 A 
ATOM     13  C   UNL     1      -3.401  -5.157   2.729  1.00  0.00     0.004 A 
ATOM     14  C   UNL     1      -3.454  -4.467   1.517  1.00  0.00    -0.051 A 
ATOM     15  C   UNL     1      -3.630  -2.987   1.509  1.00  0.00     0.044 C 
ENDBRANCH   7   9
ENDBRANCH   1   7
BRANCH   4  16
ATOM     16  N   UNL     1      -4.812 -13.145   2.305  1.00  0.00     0.066 N 
ATOM     17  O   UNL     1      -5.763 -13.954   2.186  1.00  0.00    -0.258 OA
ATOM     18  O   UNL     1      -3.708 -13.478   2.795  1.00  0.00    -0.258 OA
ENDBRANCH   4  16
BRANCH   5  19
ATOM     19  O   UNL     1      -7.591  -9.610   0.502  1.00  0.00    -0.504 OA
ATOM     20  H   UNL     1      -7.514  -8.681   0.228  1.00  0.00     0.293 HD
ENDBRANCH   5  19
BRANCH   6  21
ATOM     21  O   UNL     1      -7.292 -12.223   1.341  1.00  0.00    -0.500 OA
ATOM     22  H   UNL     1      -8.084 -11.741   1.057  1.00  0.00     0.294 HD
ENDBRANCH   6  21
TORSDOF 5
ENDMDL
MODEL 8
REMARK VINA RESULT:    -4.858      3.949      7.090
REMARK INTER + INTRA:          -6.758
REMARK INTER:                  -5.978
REMARK INTRA:                  -0.779
REMARK UNBOUND:                -0.763
REMARK SMILES Cc1ccc(C(=O)c2cc(O)c(O)c([N+](=O)[O-])c2)cc1
REMARK SMILES IDX 8 1 18 2 9 3 14 4 10 5 12 6 6 7 7 8 5 9 4 10 19 11 3 12
REMARK SMILES IDX 20 13 2 14 1 15 15 16 17 17 16 18 11 19 13 21
REMARK H PARENT 11 20 13 22
ROOT
ATOM      1  C   UNL     1      -3.777  -9.754   1.515  1.00  0.00     0.033 A 
ATOM      2  C   UNL     1      -4.989 -10.403   1.473  1.00  0.00     0.102 A 
ATOM      3  C   UNL     1      -2.617 -10.365   1.926  1.00  0.00     0.063 A 
ATOM      4  C   UNL     1      -5.043 -11.740   1.863  1.00  0.00     0.315 A 
ATOM      5  C   UNL     1      -2.671 -11.703   2.318  1.00  0.00     0.165 A 
ATOM      6  C   UNL     1      -3.884 -12.391   2.286  1.00  0.00     0.237 A 
ENDROOT
BRANCH   1   7
ATOM      7  C   UNL     1      -3.719  -8.320   1.097  1.00  0.00     0.193 C 
ATOM      8  O   UNL     1      -4.785  -7.687   1.086  1.00  0.00    -0.289 OA
BRANCH   7   9
ATOM      9  C   UNL     1      -2.476  -7.670   0.713  1.00  0.00     0.023 A 
ATOM     10  C   UNL     1      -2.036  -7.732  -0.609  1.00  0.00     0.012 A 
ATOM     11  C   UNL     1      -1.725  -6.984   1.667  1.00  0.00     0.012 A 
ATOM     12  C   UNL     1      -0.844  -7.107  -0.977  1.00  0.00     0.004 A 
ATOM     13  C   UNL     1      -0.532  -6.359   1.299  1.00  0.00     0.004 A 
ATOM     14  C   UNL     1      -0.092  -6.421  -0.023  1.00  0.00    -0.051 A 
ATOM     15  C   UNL     1       1.182  -5.755  -0.416  1.00  0.00     0.044 C 
ENDBRANCH   7   9
ENDBRANCH   1   7
BRANCH   4  16
ATOM     16  N   UNL     1      -6.289 -12.425   1.825  1.00  0.00     0.066 N 
ATOM     17  O   UNL     1      -7.175 -12.027   1.030  1.00  0.00    -0.258 OA
ATOM     18  O   UNL     1      -6.465 -13.406   2.584  1.00  0.00    -0.258 OA
ENDBRANCH   4  16
BRANCH   5  19
ATOM     19  O   UNL     1      -1.530 -12.327   2.727  1.00  0.00    -0.504 OA
ATOM     20  H   UNL     1      -0.806 -11.681   2.777  1.00  0.00     0.293 HD
ENDBRANCH   5  19
BRANCH   6  21
ATOM     21  O   UNL     1      -3.924 -13.700   2.670  1.00  0.00    -0.500 OA
ATOM     22  H   UNL     1      -4.446 -14.212   2.032  1.00  0.00     0.294 HD
ENDBRANCH   6  21
TORSDOF 5
ENDMDL
MODEL 9
REMARK VINA RESULT:    -4.645      1.295      2.695
REMARK INTER + INTRA:          -6.495
REMARK INTER:                  -5.828
REMARK INTRA:                  -0.667
REMARK UNBOUND:                -0.763
REMARK SMILES Cc1ccc(C(=O)c2cc(O)c(O)c([N+](=O)[O-])c2)cc1
REMARK SMILES IDX 8 1 18 2 9 3 14 4 10 5 12 6 6 7 7 8 5 9 4 10 19 11 3 12
REMARK SMILES IDX 20 13 2 14 1 15 15 16 17 17 16 18 11 19 13 21
REMARK H PARENT 11 20 13 22
ROOT
ATOM      1  C   UNL     1      -1.918  -7.077   1.458  1.00  0.00     0.033 A 
ATOM      2  C   UNL     1      -0.730  -6.813   0.816  1.00  0.00     0.102 A 
ATOM      3  C   UNL     1      -2.799  -6.091   1.834  1.00  0.00     0.063 A 
ATOM      4  C   UNL     1      -0.406  -5.486   0.533  1.00  0.00     0.315 A 
ATOM      5  C   UNL     1      -2.474  -4.763   1.552  1.00  0.00     0.165 A 
ATOM      6  C   UNL     1      -1.277  -4.461   0.901  1.00  0.00     0.237 A 
ENDROOT
BRANCH   1   7
ATOM      7  C   UNL     1      -2.266  -8.498   1.761  1.00  0.00     0.193 C 
ATOM      8  O   UNL     1      -1.368  -9.217   2.224  1.00  0.00    -0.289 OA
BRANCH   7   9
ATOM      9  C   UNL     1      -3.595  -9.042   1.531  1.00  0.00     0.023 A 
ATOM     10  C   UNL     1      -3.864  -9.758   0.364  1.00  0.00     0.012 A 
ATOM     11  C   UNL     1      -4.601  -8.847   2.478  1.00  0.00     0.012 A 
ATOM     12  C   UNL     1      -5.139 -10.279   0.145  1.00  0.00     0.004 A 
ATOM     13  C   UNL     1      -5.876  -9.369   2.258  1.00  0.00     0.004 A 
ATOM     14  C   UNL     1      -6.145 -10.085   1.092  1.00  0.00    -0.051 A 
ATOM     15  C   UNL     1      -7.508 -10.641   0.856  1.00  0.00     0.044 C 
ENDBRANCH   7   9
ENDBRANCH   1   7
BRANCH   4  16
ATOM     16  N   UNL     1       0.818  -5.197  -0.131  1.00  0.00     0.066 N 
ATOM     17  O   UNL     1       1.026  -5.697  -1.263  1.00  0.00    -0.258 OA
ATOM     18  O   UNL     1       1.652  -4.452   0.434  1.00  0.00    -0.258 OA
ENDBRANCH   4  16
BRANCH   5  19
ATOM     19  O   UNL     1      -3.335  -3.772   1.917  1.00  0.00    -0.504 OA
ATOM     20  H   UNL     1      -2.997  -2.917   1.605  1.00  0.00     0.293 HD
ENDBRANCH   5  19
BRANCH   6  21
ATOM     21  O   UNL     1      -0.971  -3.159   0.630  1.00  0.00    -0.500 OA
ATOM     22  H   UNL     1      -1.454  -2.577   1.237  1.00  0.00     0.294 HD
ENDBRANCH   6  21
TORSDOF 5
ENDMDL
