MODEL 1
REMARK VINA RESULT:    -5.295      0.000      0.000
REMARK INTER + INTRA:          -7.283
REMARK INTER:                  -6.533
REMARK INTRA:                  -0.750
REMARK UNBOUND:                -0.750
REMARK SMILES Cc1ccc(C(=O)c2cc(O)c(O)c([N+](=O)[O-])c2)cc1
REMARK SMILES IDX 8 1 18 2 9 3 14 4 10 5 12 6 6 7 7 8 5 9 4 10 19 11 3 12
REMARK SMILES IDX 20 13 2 14 1 15 15 16 17 17 16 18 11 19 13 21
REMARK H PARENT 11 20 13 22
ROOT
ATOM      1  C   UNL     1      -0.492  -7.855   1.978  1.00  0.00     0.033 A 
ATOM      2  C   UNL     1      -1.705  -7.241   2.190  1.00  0.00     0.102 A 
ATOM      3  C   UNL     1       0.616  -7.181   1.522  1.00  0.00     0.063 A 
ATOM      4  C   UNL     1      -1.814  -5.874   1.932  1.00  0.00     0.315 A 
ATOM      5  C   UNL     1       0.506  -5.815   1.263  1.00  0.00     0.165 A 
ATOM      6  C   UNL     1      -0.709  -5.161   1.468  1.00  0.00     0.237 A 
ENDROOT
BRANCH   1   7
ATOM      7  C   UNL     1      -0.375  -9.319   2.254  1.00  0.00     0.193 C 
ATOM      8  O   UNL     1       0.714  -9.731   2.683  1.00  0.00    -0.289 OA
BRANCH   7   9
ATOM      9  C   UNL     1      -1.476 -10.244   2.039  1.00  0.00     0.023 A 
ATOM     10  C   UNL     1      -1.553 -10.972   0.852  1.00  0.00     0.012 A 
ATOM     11  C   UNL     1      -2.455 -10.403   3.020  1.00  0.00     0.012 A 
ATOM     12  C   UNL     1      -2.609 -11.859   0.646  1.00  0.00     0.004 A 
ATOM     13  C   UNL     1      -3.511 -11.291   2.814  1.00  0.00     0.004 A 
ATOM     14  C   UNL     1      -3.589 -12.019   1.627  1.00  0.00    -0.051 A 
ATOM     15  C   UNL     1      -4.718 -12.967   1.406  1.00  0.00     0.044 C 
ENDBRANCH   7   9
ENDBRANCH   1   7
BRANCH   4  16
ATOM     16  N   UNL     1      -3.061  -5.226   2.147  1.00  0.00     0.066 N 
ATOM     17  O   UNL     1      -3.821  -5.656   3.047  1.00  0.00    -0.258 OA
ATOM     18  O   UNL     1      -3.364  -4.242   1.431  1.00  0.00    -0.258 OA
ENDBRANCH   4  16
BRANCH   5  19
ATOM     19  O   UNL     1       1.594  -5.131   0.811  1.00  0.00    -0.504 OA
ATOM     20  H   UNL     1       1.611  -4.245   1.210  1.00  0.00     0.293 HD
ENDBRANCH   5  19
BRANCH   6  21
ATOM     21  O   UNL     1      -0.804  -3.824   1.212  1.00  0.00    -0.500 OA
ATOM     22  H   UNL     1      -1.037  -3.686   0.281  1.00  0.00     0.294 HD
ENDBRANCH   6  21
TORSDOF 5
ENDMDL
MODEL 2
REMARK VINA RESULT:    -5.292      1.994      3.538
REMARK INTER + INTRA:          -7.280
REMARK INTER:                  -6.530
REMARK INTRA:                  -0.750
REMARK UNBOUND:                -0.750
REMARK SMILES Cc1ccc(C(=O)c2cc(O)c(O)c([N+](=O)[O-])c2)cc1
REMARK SMILES IDX 8 1 18 2 9 3 14 4 10 5 12 6 6 7 7 8 5 9 4 10 19 11 3 12
REMARK SMILES IDX 20 13 2 14 1 15 15 16 17 17 16 18 11 19 13 21
REMARK H PARENT 11 20 13 22
ROOT
ATOM      1  C   UNL     1      -2.110  -7.666   1.197  1.00  0.00     0.033 A 
ATOM      2  C   UNL     1      -0.773  -7.505   0.913  1.00  0.00     0.102 A 
ATOM      3  C   UNL     1      -2.940  -6.613   1.499  1.00  0.00     0.063 A 
ATOM      4  C   UNL     1      -0.238  -6.218   0.931  1.00  0.00     0.315 A 
ATOM      5  C   UNL     1      -2.404  -5.325   1.518  1.00  0.00     0.165 A 
ATOM      6  C   UNL     1      -1.052  -5.127   1.233  1.00  0.00     0.237 A 
ENDROOT
BRANCH   1   7
ATOM      7  C   UNL     1      -2.684  -9.045   1.178  1.00  0.00     0.193 C 
ATOM      8  O   UNL     1      -3.856  -9.168   0.791  1.00  0.00    -0.289 OA
BRANCH   7   9
ATOM      9  C   UNL     1      -1.922 -10.213   1.591  1.00  0.00     0.023 A 
ATOM     10  C   UNL     1      -2.053 -10.708   2.888  1.00  0.00     0.012 A 
ATOM     11  C   UNL     1      -1.060 -10.837   0.689  1.00  0.00     0.012 A 
ATOM     12  C   UNL     1      -1.322 -11.828   3.283  1.00  0.00     0.004 A 
ATOM     13  C   UNL     1      -0.328 -11.958   1.084  1.00  0.00     0.004 A 
ATOM     14  C   UNL     1      -0.459 -12.454   2.382  1.00  0.00    -0.051 A 
ATOM     15  C   UNL     1       0.323 -13.650   2.805  1.00  0.00     0.044 C 
ENDBRANCH   7   9
ENDBRANCH   1   7
BRANCH   4  16
ATOM     16  N   UNL     1       1.142  -6.036   0.639  1.00  0.00     0.066 N 
ATOM     17  O   UNL     1       1.705  -6.834  -0.148  1.00  0.00    -0.258 OA
ATOM     18  O   UNL     1       1.755  -5.084   1.177  1.00  0.00    -0.258 OA
ENDBRANCH   4  16
BRANCH   5  19
ATOM     19  O   UNL     1      -3.213  -4.269   1.814  1.00  0.00    -0.504 OA
ATOM     20  H   UNL     1      -4.129  -4.484   1.576  1.00  0.00     0.293 HD
ENDBRANCH   5  19
BRANCH   6  21
ATOM     21  O   UNL     1      -0.540  -3.862   1.254  1.00  0.00    -0.500 OA
ATOM     22  H   UNL     1      -1.264  -3.217   1.230  1.00  0.00     0.294 HD
ENDBRANCH   6  21
TORSDOF 5
ENDMDL
MODEL 3
REMARK VINA RESULT:    -4.612      1.652      2.941
REMARK INTER + INTRA:          -6.440
REMARK INTER:                  -5.706
REMARK INTRA:                  -0.735
REMARK UNBOUND:                -0.750
REMARK SMILES Cc1ccc(C(=O)c2cc(O)c(O)c([N+](=O)[O-])c2)cc1
REMARK SMILES IDX 8 1 18 2 9 3 14 4 10 5 12 6 6 7 7 8 5 9 4 10 19 11 3 12
REMARK SMILES IDX 20 13 2 14 1 15 15 16 17 17 16 18 11 19 13 21
REMARK H PARENT 11 20 13 22
ROOT
ATOM      1  C   UNL     1      -1.630  -7.006   2.797  1.00  0.00     0.033 A 
ATOM      2  C   UNL     1      -0.334  -6.874   2.356  1.00  0.00     0.102 A 
ATOM      3  C   UNL     1      -2.614  -6.092   2.506  1.00  0.00     0.063 A 
ATOM      4  C   UNL     1      -0.004  -5.764   1.578  1.00  0.00     0.315 A 
ATOM      5  C   UNL     1      -2.284  -4.981   1.729  1.00  0.00     0.165 A 
ATOM      6  C   UNL     1      -0.978  -4.818   1.264  1.00  0.00     0.237 A 
ENDROOT
BRANCH   1   7
ATOM      7  C   UNL     1      -1.984  -8.195   3.630  1.00  0.00     0.193 C 
ATOM      8  O   UNL     1      -1.966  -8.052   4.862  1.00  0.00    -0.289 OA
BRANCH   7   9
ATOM      9  C   UNL     1      -2.339  -9.479   3.046  1.00  0.00     0.023 A 
ATOM     10  C   UNL     1      -1.762  -9.881   1.841  1.00  0.00     0.012 A 
ATOM     11  C   UNL     1      -3.257 -10.308   3.690  1.00  0.00     0.012 A 
ATOM     12  C   UNL     1      -2.102 -11.112   1.281  1.00  0.00     0.004 A 
ATOM     13  C   UNL     1      -3.598 -11.540   3.130  1.00  0.00     0.004 A 
ATOM     14  C   UNL     1      -3.021 -11.942   1.926  1.00  0.00    -0.051 A 
ATOM     15  C   UNL     1      -3.385 -13.257   1.326  1.00  0.00     0.044 C 
ENDBRANCH   7   9
ENDBRANCH   1   7
BRANCH   4  16
ATOM     16  N   UNL     1       1.332  -5.615   1.115  1.00  0.00     0.066 N 
ATOM     17  O   UNL     1       1.902  -6.596   0.580  1.00  0.00    -0.258 OA
ATOM     18  O   UNL     1       1.901  -4.507   1.253  1.00  0.00    -0.258 OA
ENDBRANCH   4  16
BRANCH   5  19
ATOM     19  O   UNL     1      -3.247  -4.065   1.430  1.00  0.00    -0.504 OA
ATOM     20  H   UNL     1      -3.089  -3.250   1.935  1.00  0.00     0.293 HD
ENDBRANCH   5  19
BRANCH   6  21
ATOM     21  O   UNL     1      -0.668  -3.728   0.504  1.00  0.00    -0.500 OA
ATOM     22  H   UNL     1       0.188  -3.367   0.785  1.00  0.00     0.294 HD
ENDBRANCH   6  21
TORSDOF 5
ENDMDL
MODEL 4
REMARK VINA RESULT:    -4.565      3.584      4.469
REMARK INTER + INTRA:          -6.383
REMARK INTER:                  -5.411
REMARK INTRA:                  -0.971
REMARK UNBOUND:                -0.750
REMARK SMILES Cc1ccc(C(=O)c2cc(O)c(O)c([N+](=O)[O-])c2)cc1
REMARK SMILES IDX 8 1 18 2 9 3 14 4 10 5 12 6 6 7 7 8 5 9 4 10 19 11 3 12
REMARK SMILES IDX 20 13 2 14 1 15 15 16 17 17 16 18 11 19 13 21
REMARK H PARENT 11 20 13 22
ROOT
ATOM      1  C   UNL     1      -1.245 -11.061   1.078  1.00  0.00     0.033 A 
ATOM      2  C   UNL     1      -1.419  -9.828   1.663  1.00  0.00     0.102 A 
ATOM      3  C   UNL     1      -0.681 -11.224  -0.165  1.00  0.00     0.063 A 
ATOM      4  C   UNL     1      -1.004  -8.694   0.965  1.00  0.00     0.315 A 
ATOM      5  C   UNL     1      -0.266 -10.090  -0.864  1.00  0.00     0.165 A 
ATOM      6  C   UNL     1      -0.427  -8.824  -0.298  1.00  0.00     0.237 A 
ENDROOT
BRANCH   1   7
ATOM      7  C   UNL     1      -1.689 -12.276   1.826  1.00  0.00     0.193 C 
ATOM      8  O   UNL     1      -2.903 -12.528   1.831  1.00  0.00    -0.289 OA
BRANCH   7   9
ATOM      9  C   UNL     1      -0.757 -13.144   2.527  1.00  0.00     0.023 A 
ATOM     10  C   UNL     1      -0.767 -14.518   2.285  1.00  0.00     0.012 A 
ATOM     11  C   UNL     1       0.147 -12.604   3.441  1.00  0.00     0.012 A 
ATOM     12  C   UNL     1       0.128 -15.351   2.957  1.00  0.00     0.004 A 
ATOM     13  C   UNL     1       1.042 -13.437   4.114  1.00  0.00     0.004 A 
ATOM     14  C   UNL     1       1.032 -14.810   3.872  1.00  0.00    -0.051 A 
ATOM     15  C   UNL     1       1.987 -15.701   4.591  1.00  0.00     0.044 C 
ENDBRANCH   7   9
ENDBRANCH   1   7
BRANCH   4  16
ATOM     16  N   UNL     1      -1.177  -7.413   1.557  1.00  0.00     0.066 N 
ATOM     17  O   UNL     1      -1.561  -6.460   0.837  1.00  0.00    -0.258 OA
ATOM     18  O   UNL     1      -0.941  -7.274   2.780  1.00  0.00    -0.258 OA
ENDBRANCH   4  16
BRANCH   5  19
ATOM     19  O   UNL     1       0.296 -10.233  -2.097  1.00  0.00    -0.504 OA
ATOM     20  H   UNL     1       0.655 -11.131  -2.189  1.00  0.00     0.293 HD
ENDBRANCH   5  19
BRANCH   6  21
ATOM     21  O   UNL     1      -0.018  -7.723  -0.991  1.00  0.00    -0.500 OA
ATOM     22  H   UNL     1      -0.643  -6.995  -0.847  1.00  0.00     0.294 HD
ENDBRANCH   6  21
TORSDOF 5
ENDMDL
MODEL 5
REMARK VINA RESULT:    -4.538      3.637      6.494
REMARK INTER + INTRA:          -6.349
REMARK INTER:                  -5.382
REMARK INTRA:                  -0.967
REMARK UNBOUND:                -0.750
REMARK SMILES Cc1ccc(C(=O)c2cc(O)c(O)c([N+](=O)[O-])c2)cc1
REMARK SMILES IDX 8 1 18 2 9 3 14 4 10 5 12 6 6 7 7 8 5 9 4 10 19 11 3 12
REMARK SMILES IDX 20 13 2 14 1 15 15 16 17 17 16 18 11 19 13 21
REMARK H PARENT 11 20 13 22
ROOT
ATOM      1  C   UNL     1      -1.429 -11.103   1.301  1.00  0.00     0.033 A 
ATOM      2  C   UNL     1      -2.741 -11.488   1.153  1.00  0.00     0.102 A 
ATOM      3  C   UNL     1      -0.462 -11.930   1.821  1.00  0.00     0.063 A 
ATOM      4  C   UNL     1      -3.107 -12.774   1.548  1.00  0.00     0.315 A 
ATOM      5  C   UNL     1      -0.828 -13.217   2.217  1.00  0.00     0.165 A 
ATOM      6  C   UNL     1      -2.151 -13.639   2.080  1.00  0.00     0.237 A 
ENDROOT
BRANCH   1   7
ATOM      7  C   UNL     1      -1.037  -9.724   0.878  1.00  0.00     0.193 C 
ATOM      8  O   UNL     1      -0.103  -9.622   0.068  1.00  0.00    -0.289 OA
BRANCH   7   9
ATOM      9  C   UNL     1      -1.706  -8.535   1.380  1.00  0.00     0.023 A 
ATOM     10  C   UNL     1      -2.161  -7.562   0.489  1.00  0.00     0.012 A 
ATOM     11  C   UNL     1      -1.894  -8.366   2.751  1.00  0.00     0.012 A 
ATOM     12  C   UNL     1      -2.803  -6.421   0.971  1.00  0.00     0.004 A 
ATOM     13  C   UNL     1      -2.537  -7.226   3.234  1.00  0.00     0.004 A 
ATOM     14  C   UNL     1      -2.991  -6.253   2.343  1.00  0.00    -0.051 A 
ATOM     15  C   UNL     1      -3.676  -5.033   2.857  1.00  0.00     0.044 C 
ENDBRANCH   7   9
ENDBRANCH   1   7
BRANCH   4  16
ATOM     16  N   UNL     1      -4.460 -13.187   1.402  1.00  0.00     0.066 N 
ATOM     17  O   UNL     1      -4.704 -14.397   1.179  1.00  0.00    -0.258 OA
ATOM     18  O   UNL     1      -5.369 -12.330   1.500  1.00  0.00    -0.258 OA
ENDBRANCH   4  16
BRANCH   5  19
ATOM     19  O   UNL     1       0.117 -14.051   2.734  1.00  0.00    -0.504 OA
ATOM     20  H   UNL     1       0.422 -13.707   3.590  1.00  0.00     0.293 HD
ENDBRANCH   5  19
BRANCH   6  21
ATOM     21  O   UNL     1      -2.497 -14.901   2.470  1.00  0.00    -0.500 OA
ATOM     22  H   UNL     1      -3.267 -14.861   3.058  1.00  0.00     0.294 HD
ENDBRANCH   6  21
TORSDOF 5
ENDMDL
MODEL 6
REMARK VINA RESULT:    -4.523      2.399      4.172
REMARK INTER + INTRA:          -6.330
REMARK INTER:                  -5.371
REMARK INTRA:                  -0.959
REMARK UNBOUND:                -0.750
REMARK SMILES Cc1ccc(C(=O)c2cc(O)c(O)c([N+](=O)[O-])c2)cc1
REMARK SMILES IDX 8 1 18 2 9 3 14 4 10 5 12 6 6 7 7 8 5 9 4 10 19 11 3 12
REMARK SMILES IDX 20 13 2 14 1 15 15 16 17 17 16 18 11 19 13 21
REMARK H PARENT 11 20 13 22
ROOT
ATOM      1  C   UNL     1      -2.405 -10.820   2.700  1.00  0.00     0.033 A 
ATOM      2  C   UNL     1      -1.851  -9.851   1.895  1.00  0.00     0.102 A 
ATOM      3  C   UNL     1      -2.947 -10.546   3.932  1.00  0.00     0.063 A 
ATOM      4  C   UNL     1      -1.842  -8.532   2.350  1.00  0.00     0.315 A 
ATOM      5  C   UNL     1      -2.937  -9.227   4.388  1.00  0.00     0.165 A 
ATOM      6  C   UNL     1      -2.385  -8.220   3.596  1.00  0.00     0.237 A 
ENDROOT
BRANCH   1   7
ATOM      7  C   UNL     1      -2.415 -12.233   2.213  1.00  0.00     0.193 C 
ATOM      8  O   UNL     1      -1.369 -12.887   2.344  1.00  0.00    -0.289 OA
BRANCH   7   9
ATOM      9  C   UNL     1      -3.589 -12.840   1.607  1.00  0.00     0.023 A 
ATOM     10  C   UNL     1      -4.085 -14.046   2.102  1.00  0.00     0.012 A 
ATOM     11  C   UNL     1      -4.219 -12.217   0.530  1.00  0.00     0.012 A 
ATOM     12  C   UNL     1      -5.211 -14.628   1.521  1.00  0.00     0.004 A 
ATOM     13  C   UNL     1      -5.346 -12.799  -0.052  1.00  0.00     0.004 A 
ATOM     14  C   UNL     1      -5.842 -14.005   0.444  1.00  0.00    -0.051 A 
ATOM     15  C   UNL     1      -7.044 -14.628  -0.178  1.00  0.00     0.044 C 
ENDBRANCH   7   9
ENDBRANCH   1   7
BRANCH   4  16
ATOM     16  N   UNL     1      -1.274  -7.519   1.529  1.00  0.00     0.066 N 
ATOM     17  O   UNL     1      -1.361  -7.630   0.282  1.00  0.00    -0.258 OA
ATOM     18  O   UNL     1      -0.705  -6.546   2.075  1.00  0.00    -0.258 OA
ENDBRANCH   4  16
BRANCH   5  19
ATOM     19  O   UNL     1      -3.472  -8.937   5.607  1.00  0.00    -0.504 OA
ATOM     20  H   UNL     1      -3.251  -8.023   5.850  1.00  0.00     0.293 HD
ENDBRANCH   5  19
BRANCH   6  21
ATOM     21  O   UNL     1      -2.382  -6.934   4.051  1.00  0.00    -0.500 OA
ATOM     22  H   UNL     1      -3.101  -6.437   3.631  1.00  0.00     0.294 HD
ENDBRANCH   6  21
TORSDOF 5
ENDMDL
MODEL 7
REMARK VINA RESULT:    -4.522      3.756      6.990
REMARK INTER + INTRA:          -6.329
REMARK INTER:                  -5.344
REMARK INTRA:                  -0.985
REMARK UNBOUND:                -0.750
REMARK SMILES Cc1ccc(C(=O)c2cc(O)c(O)c([N+](=O)[O-])c2)cc1
REMARK SMILES IDX 8 1 18 2 9 3 14 4 10 5 12 6 6 7 7 8 5 9 4 10 19 11 3 12
REMARK SMILES IDX 20 13 2 14 1 15 15 16 17 17 16 18 11 19 13 21
REMARK H PARENT 11 20 13 22
ROOT
ATOM      1  C   UNL     1      -1.585 -11.153   1.348  1.00  0.00     0.033 A 
ATOM      2  C   UNL     1      -0.691 -12.015   1.940  1.00  0.00     0.102 A 
ATOM      3  C   UNL     1      -2.893 -11.490   1.097  1.00  0.00     0.063 A 
ATOM      4  C   UNL     1      -1.133 -13.288   2.302  1.00  0.00     0.315 A 
ATOM      5  C   UNL     1      -3.335 -12.763   1.459  1.00  0.00     0.165 A 
ATOM      6  C   UNL     1      -2.455 -13.662   2.062  1.00  0.00     0.237 A 
ENDROOT
BRANCH   1   7
ATOM      7  C   UNL     1      -1.111  -9.790   0.959  1.00  0.00     0.193 C 
ATOM      8  O   UNL     1      -0.131  -9.722   0.203  1.00  0.00    -0.289 OA
BRANCH   7   9
ATOM      9  C   UNL     1      -1.756  -8.576   1.434  1.00  0.00     0.023 A 
ATOM     10  C   UNL     1      -2.191  -7.614   0.522  1.00  0.00     0.012 A 
ATOM     11  C   UNL     1      -1.940  -8.373   2.801  1.00  0.00     0.012 A 
ATOM     12  C   UNL     1      -2.810  -6.450   0.977  1.00  0.00     0.004 A 
ATOM     13  C   UNL     1      -2.559  -7.208   3.258  1.00  0.00     0.004 A 
ATOM     14  C   UNL     1      -2.994  -6.247   2.345  1.00  0.00    -0.051 A 
ATOM     15  C   UNL     1      -3.654  -5.002   2.832  1.00  0.00     0.044 C 
ENDBRANCH   7   9
ENDBRANCH   1   7
BRANCH   4  16
ATOM     16  N   UNL     1      -0.221 -14.190   2.915  1.00  0.00     0.066 N 
ATOM     17  O   UNL     1      -0.395 -15.424   2.764  1.00  0.00    -0.258 OA
ATOM     18  O   UNL     1       0.729 -13.728   3.588  1.00  0.00    -0.258 OA
ENDBRANCH   4  16
BRANCH   5  19
ATOM     19  O   UNL     1      -4.630 -13.114   1.219  1.00  0.00    -0.504 OA
ATOM     20  H   UNL     1      -4.664 -13.743   0.479  1.00  0.00     0.293 HD
ENDBRANCH   5  19
BRANCH   6  21
ATOM     21  O   UNL     1      -2.899 -14.904   2.412  1.00  0.00    -0.500 OA
ATOM     22  H   UNL     1      -3.303 -15.334   1.643  1.00  0.00     0.294 HD
ENDBRANCH   6  21
TORSDOF 5
ENDMDL
MODEL 8
REMARK VINA RESULT:    -4.474      1.284      2.697
REMARK INTER + INTRA:          -6.270
REMARK INTER:                  -5.605
REMARK INTRA:                  -0.665
REMARK UNBOUND:                -0.750
REMARK SMILES Cc1ccc(C(=O)c2cc(O)c(O)c([N+](=O)[O-])c2)cc1
REMARK SMILES IDX 8 1 18 2 9 3 14 4 10 5 12 6 6 7 7 8 5 9 4 10 19 11 3 12
REMARK SMILES IDX 20 13 2 14 1 15 15 16 17 17 16 18 11 19 13 21
REMARK H PARENT 11 20 13 22
ROOT
ATOM      1  C   UNL     1      -0.791  -8.388   2.010  1.00  0.00     0.033 A 
ATOM      2  C   UNL     1       0.262  -7.763   1.383  1.00  0.00     0.102 A 
ATOM      3  C   UNL     1      -1.893  -7.709   2.474  1.00  0.00     0.063 A 
ATOM      4  C   UNL     1       0.209  -6.380   1.209  1.00  0.00     0.315 A 
ATOM      5  C   UNL     1      -1.946  -6.326   2.301  1.00  0.00     0.165 A 
ATOM      6  C   UNL     1      -0.894  -5.661   1.667  1.00  0.00     0.237 A 
ENDROOT
BRANCH   1   7
ATOM      7  C   UNL     1      -0.734  -9.869   2.196  1.00  0.00     0.193 C 
ATOM      8  O   UNL     1       0.339 -10.353   2.586  1.00  0.00    -0.289 OA
BRANCH   7   9
ATOM      9  C   UNL     1      -1.876 -10.732   1.939  1.00  0.00     0.023 A 
ATOM     10  C   UNL     1      -1.981 -11.406   0.722  1.00  0.00     0.012 A 
ATOM     11  C   UNL     1      -2.867 -10.886   2.908  1.00  0.00     0.012 A 
ATOM     12  C   UNL     1      -3.076 -12.233   0.475  1.00  0.00     0.004 A 
ATOM     13  C   UNL     1      -3.963 -11.714   2.662  1.00  0.00     0.004 A 
ATOM     14  C   UNL     1      -4.068 -12.388   1.445  1.00  0.00    -0.051 A 
ATOM     15  C   UNL     1      -5.239 -13.271   1.181  1.00  0.00     0.044 C 
ENDBRANCH   7   9
ENDBRANCH   1   7
BRANCH   4  16
ATOM     16  N   UNL     1       1.290  -5.720   0.562  1.00  0.00     0.066 N 
ATOM     17  O   UNL     1       1.905  -4.817   1.179  1.00  0.00    -0.258 OA
ATOM     18  O   UNL     1       1.597  -6.061  -0.604  1.00  0.00    -0.258 OA
ENDBRANCH   4  16
BRANCH   5  19
ATOM     19  O   UNL     1      -3.030  -5.636   2.753  1.00  0.00    -0.504 OA
ATOM     20  H   UNL     1      -3.829  -6.179   2.645  1.00  0.00     0.293 HD
ENDBRANCH   5  19
BRANCH   6  21
ATOM     21  O   UNL     1      -0.958  -4.308   1.503  1.00  0.00    -0.500 OA
ATOM     22  H   UNL     1      -0.927  -4.092   0.558  1.00  0.00     0.294 HD
ENDBRANCH   6  21
TORSDOF 5
ENDMDL
MODEL 9
REMARK VINA RESULT:    -4.452      1.970      2.323
REMARK INTER + INTRA:          -6.242
REMARK INTER:                  -5.580
REMARK INTRA:                  -0.663
REMARK UNBOUND:                -0.750
REMARK SMILES Cc1ccc(C(=O)c2cc(O)c(O)c([N+](=O)[O-])c2)cc1
REMARK SMILES IDX 8 1 18 2 9 3 14 4 10 5 12 6 6 7 7 8 5 9 4 10 19 11 3 12
REMARK SMILES IDX 20 13 2 14 1 15 15 16 17 17 16 18 11 19 13 21
REMARK H PARENT 11 20 13 22
ROOT
ATOM      1  C   UNL     1      -1.985  -8.272   1.278  1.00  0.00     0.033 A 
ATOM      2  C   UNL     1      -2.773  -7.250   1.754  1.00  0.00     0.102 A 
ATOM      3  C   UNL     1      -0.741  -8.063   0.730  1.00  0.00     0.063 A 
ATOM      4  C   UNL     1      -2.288  -5.944   1.679  1.00  0.00     0.315 A 
ATOM      5  C   UNL     1      -0.257  -6.757   0.654  1.00  0.00     0.165 A 
ATOM      6  C   UNL     1      -1.031  -5.697   1.129  1.00  0.00     0.237 A 
ENDROOT
BRANCH   1   7
ATOM      7  C   UNL     1      -2.503  -9.671   1.359  1.00  0.00     0.193 C 
ATOM      8  O   UNL     1      -3.685  -9.859   1.032  1.00  0.00    -0.289 OA
BRANCH   7   9
ATOM      9  C   UNL     1      -1.678 -10.784   1.799  1.00  0.00     0.023 A 
ATOM     10  C   UNL     1      -0.807 -11.404   0.903  1.00  0.00     0.012 A 
ATOM     11  C   UNL     1      -1.757 -11.232   3.118  1.00  0.00     0.012 A 
ATOM     12  C   UNL     1      -0.016 -12.472   1.326  1.00  0.00     0.004 A 
ATOM     13  C   UNL     1      -0.965 -12.301   3.541  1.00  0.00     0.004 A 
ATOM     14  C   UNL     1      -0.094 -12.920   2.645  1.00  0.00    -0.051 A 
ATOM     15  C   UNL     1       0.751 -14.062   3.095  1.00  0.00     0.044 C 
ENDBRANCH   7   9
ENDBRANCH   1   7
BRANCH   4  16
ATOM     16  N   UNL     1      -3.091  -4.877   2.168  1.00  0.00     0.066 N 
ATOM     17  O   UNL     1      -3.463  -4.898   3.366  1.00  0.00    -0.258 OA
ATOM     18  O   UNL     1      -3.403  -3.947   1.388  1.00  0.00    -0.258 OA
ENDBRANCH   4  16
BRANCH   5  19
ATOM     19  O   UNL     1       0.973  -6.531   0.114  1.00  0.00    -0.504 OA
ATOM     20  H   UNL     1       1.600  -6.298   0.819  1.00  0.00     0.293 HD
ENDBRANCH   5  19
BRANCH   6  21
ATOM     21  O   UNL     1      -0.546  -4.424   1.049  1.00  0.00    -0.500 OA
ATOM     22  H   UNL     1      -1.090  -3.833   1.593  1.00  0.00     0.294 HD
ENDBRANCH   6  21
TORSDOF 5
ENDMDL
