MODEL 1
REMARK VINA RESULT:    -6.936      0.000      0.000
REMARK INTER + INTRA:          -8.717
REMARK INTER:                  -8.153
REMARK INTRA:                  -0.564
REMARK UNBOUND:                -0.564
REMARK SMILES O=C(O)c1cc(-c2ccc(F)cc2F)ccc1O
REMARK SMILES IDX 6 1 5 2 15 3 4 4 17 5 16 6 7 7 13 8 12 9 8 10 10 11 9 12
REMARK SMILES IDX 14 13 11 14 2 15 1 16 3 17 18 19
REMARK H PARENT 3 18 18 20
ROOT
ATOM      1  C   UNL     1      -1.347  -7.905   1.576  1.00  0.00    -0.014 A 
ATOM      2  C   UNL     1      -0.112  -7.454   1.113  1.00  0.00     0.028 A 
ATOM      3  C   UNL     1      -2.347  -6.989   1.901  1.00  0.00     0.013 A 
ATOM      4  C   UNL     1       0.124  -6.085   0.975  1.00  0.00     0.102 A 
ATOM      5  C   UNL     1      -0.876  -5.169   1.300  1.00  0.00     0.130 A 
ATOM      6  C   UNL     1      -2.112  -5.622   1.764  1.00  0.00     0.048 A 
ENDROOT
BRANCH   1   7
ATOM      7  C   UNL     1      -1.592  -9.324   1.720  1.00  0.00     0.018 A 
ATOM      8  C   UNL     1      -1.201 -10.208   0.714  1.00  0.00     0.133 A 
ATOM      9  C   UNL     1      -1.440 -11.576   0.857  1.00  0.00     0.079 A 
ATOM     10  C   UNL     1      -2.219  -9.807   2.868  1.00  0.00     0.015 A 
ATOM     11  C   UNL     1      -2.067 -12.058   2.005  1.00  0.00     0.126 A 
ATOM     12  C   UNL     1      -2.456 -11.173   3.011  1.00  0.00     0.040 A 
ATOM     13  F   UNL     1      -0.600  -9.760  -0.397  1.00  0.00    -0.206 F 
ATOM     14  F   UNL     1      -2.296 -13.370   2.143  1.00  0.00    -0.207 F 
ENDBRANCH   1   7
BRANCH   4  15
ATOM     15  C   UNL     1       1.421  -5.634   0.490  1.00  0.00     0.339 C 
ATOM     16  O   UNL     1       2.149  -4.814   1.055  1.00  0.00    -0.246 OA
BRANCH  15  17
ATOM     17  O   UNL     1       1.768  -6.224  -0.687  1.00  0.00    -0.478 OA
ATOM     18  H   UNL     1       2.309  -5.629  -1.247  1.00  0.00     0.297 HD
ENDBRANCH  15  17
ENDBRANCH   4  15
BRANCH   5  19
ATOM     19  O   UNL     1      -0.666  -3.829   1.172  1.00  0.00    -0.507 OA
ATOM     20  H   UNL     1      -0.550  -3.440   2.057  1.00  0.00     0.293 HD
ENDBRANCH   5  19
TORSDOF 4
ENDMDL
MODEL 2
REMARK VINA RESULT:    -6.928      1.126      1.608
REMARK INTER + INTRA:          -8.707
REMARK INTER:                  -8.143
REMARK INTRA:                  -0.563
REMARK UNBOUND:                -0.564
REMARK SMILES O=C(O)c1cc(-c2ccc(F)cc2F)ccc1O
REMARK SMILES IDX 6 1 5 2 15 3 4 4 17 5 16 6 7 7 13 8 12 9 8 10 10 11 9 12
REMARK SMILES IDX 14 13 11 14 2 15 1 16 3 17 18 19
REMARK H PARENT 3 18 18 20
ROOT
ATOM      1  C   UNL     1      -1.352  -7.887   1.616  1.00  0.00    -0.014 A 
ATOM      2  C   UNL     1      -0.119  -7.441   1.142  1.00  0.00     0.028 A 
ATOM      3  C   UNL     1      -2.349  -6.967   1.939  1.00  0.00     0.013 A 
ATOM      4  C   UNL     1       0.118  -6.075   0.992  1.00  0.00     0.102 A 
ATOM      5  C   UNL     1      -0.879  -5.154   1.316  1.00  0.00     0.130 A 
ATOM      6  C   UNL     1      -2.113  -5.601   1.790  1.00  0.00     0.048 A 
ENDROOT
BRANCH   1   7
ATOM      7  C   UNL     1      -1.599  -9.305   1.773  1.00  0.00     0.018 A 
ATOM      8  C   UNL     1      -2.203  -9.786   2.935  1.00  0.00     0.133 A 
ATOM      9  C   UNL     1      -2.438 -11.153   3.082  1.00  0.00     0.079 A 
ATOM     10  C   UNL     1      -1.232 -10.189   0.759  1.00  0.00     0.015 A 
ATOM     11  C   UNL     1      -2.071 -12.038   2.069  1.00  0.00     0.126 A 
ATOM     12  C   UNL     1      -1.468 -11.555   0.907  1.00  0.00     0.040 A 
ATOM     13  F   UNL     1      -2.559  -8.949   3.920  1.00  0.00    -0.206 F 
ATOM     14  F   UNL     1      -2.297 -13.350   2.210  1.00  0.00    -0.207 F 
ENDBRANCH   1   7
BRANCH   4  15
ATOM     15  C   UNL     1       1.413  -5.629   0.496  1.00  0.00     0.339 C 
ATOM     16  O   UNL     1       2.149  -4.813   1.055  1.00  0.00    -0.246 OA
BRANCH  15  17
ATOM     17  O   UNL     1       1.747  -6.220  -0.684  1.00  0.00    -0.478 OA
ATOM     18  H   UNL     1       1.189  -5.900  -1.423  1.00  0.00     0.297 HD
ENDBRANCH  15  17
ENDBRANCH   4  15
BRANCH   5  19
ATOM     19  O   UNL     1      -0.667  -3.815   1.176  1.00  0.00    -0.507 OA
ATOM     20  H   UNL     1      -1.451  -3.335   1.495  1.00  0.00     0.293 HD
ENDBRANCH   5  19
TORSDOF 4
ENDMDL
MODEL 3
REMARK VINA RESULT:    -6.927      1.692      3.185
REMARK INTER + INTRA:          -8.705
REMARK INTER:                  -8.067
REMARK INTRA:                  -0.638
REMARK UNBOUND:                -0.564
REMARK SMILES O=C(O)c1cc(-c2ccc(F)cc2F)ccc1O
REMARK SMILES IDX 6 1 5 2 15 3 4 4 17 5 16 6 7 7 13 8 12 9 8 10 10 11 9 12
REMARK SMILES IDX 14 13 11 14 2 15 1 16 3 17 18 19
REMARK H PARENT 3 18 18 20
ROOT
ATOM      1  C   UNL     1      -1.370  -7.947   1.689  1.00  0.00    -0.014 A 
ATOM      2  C   UNL     1      -2.418  -7.083   2.003  1.00  0.00     0.028 A 
ATOM      3  C   UNL     1      -0.143  -7.433   1.269  1.00  0.00     0.013 A 
ATOM      4  C   UNL     1      -2.240  -5.703   1.897  1.00  0.00     0.102 A 
ATOM      5  C   UNL     1      -1.013  -5.189   1.477  1.00  0.00     0.130 A 
ATOM      6  C   UNL     1       0.036  -6.054   1.163  1.00  0.00     0.048 A 
ENDROOT
BRANCH   1   7
ATOM      7  C   UNL     1      -1.554  -9.379   1.797  1.00  0.00     0.018 A 
ATOM      8  C   UNL     1      -2.159  -9.923   2.931  1.00  0.00     0.133 A 
ATOM      9  C   UNL     1      -2.335 -11.304   3.031  1.00  0.00     0.079 A 
ATOM     10  C   UNL     1      -1.127 -10.213   0.765  1.00  0.00     0.015 A 
ATOM     11  C   UNL     1      -1.906 -12.138   1.999  1.00  0.00     0.126 A 
ATOM     12  C   UNL     1      -1.303 -11.593   0.866  1.00  0.00     0.040 A 
ATOM     13  F   UNL     1      -2.573  -9.135   3.933  1.00  0.00    -0.206 F 
ATOM     14  F   UNL     1      -2.075 -13.463   2.095  1.00  0.00    -0.207 F 
ENDBRANCH   1   7
BRANCH   4  15
ATOM     15  C   UNL     1      -3.347  -4.817   2.230  1.00  0.00     0.339 C 
ATOM     16  O   UNL     1      -3.707  -3.843   1.564  1.00  0.00    -0.246 OA
BRANCH  15  17
ATOM     17  O   UNL     1      -3.970  -5.177   3.385  1.00  0.00    -0.478 OA
ATOM     18  H   UNL     1      -4.945  -5.191   3.285  1.00  0.00     0.297 HD
ENDBRANCH  15  17
ENDBRANCH   4  15
BRANCH   5  19
ATOM     19  O   UNL     1      -0.818  -3.844   1.368  1.00  0.00    -0.507 OA
ATOM     20  H   UNL     1      -1.476  -3.382   1.918  1.00  0.00     0.293 HD
ENDBRANCH   5  19
TORSDOF 4
ENDMDL
MODEL 4
REMARK VINA RESULT:    -6.907      1.285      2.749
REMARK INTER + INTRA:          -8.682
REMARK INTER:                  -8.048
REMARK INTRA:                  -0.634
REMARK UNBOUND:                -0.564
REMARK SMILES O=C(O)c1cc(-c2ccc(F)cc2F)ccc1O
REMARK SMILES IDX 6 1 5 2 15 3 4 4 17 5 16 6 7 7 13 8 12 9 8 10 10 11 9 12
REMARK SMILES IDX 14 13 11 14 2 15 1 16 3 17 18 19
REMARK H PARENT 3 18 18 20
ROOT
ATOM      1  C   UNL     1      -1.365  -7.943   1.648  1.00  0.00    -0.014 A 
ATOM      2  C   UNL     1      -2.412  -7.082   1.975  1.00  0.00     0.028 A 
ATOM      3  C   UNL     1      -0.141  -7.424   1.226  1.00  0.00     0.013 A 
ATOM      4  C   UNL     1      -2.236  -5.701   1.880  1.00  0.00     0.102 A 
ATOM      5  C   UNL     1      -1.012  -5.182   1.457  1.00  0.00     0.130 A 
ATOM      6  C   UNL     1       0.036  -6.044   1.130  1.00  0.00     0.048 A 
ENDROOT
BRANCH   1   7
ATOM      7  C   UNL     1      -1.548  -9.375   1.746  1.00  0.00     0.018 A 
ATOM      8  C   UNL     1      -1.140 -10.206   0.702  1.00  0.00     0.133 A 
ATOM      9  C   UNL     1      -1.318 -11.586   0.800  1.00  0.00     0.079 A 
ATOM     10  C   UNL     1      -2.132  -9.924   2.887  1.00  0.00     0.015 A 
ATOM     11  C   UNL     1      -1.903 -12.135   1.941  1.00  0.00     0.126 A 
ATOM     12  C   UNL     1      -2.309 -11.303   2.985  1.00  0.00     0.040 A 
ATOM     13  F   UNL     1      -0.579  -9.694  -0.403  1.00  0.00    -0.206 F 
ATOM     14  F   UNL     1      -2.074 -13.460   2.036  1.00  0.00    -0.207 F 
ENDBRANCH   1   7
BRANCH   4  15
ATOM     15  C   UNL     1      -3.341  -4.818   2.226  1.00  0.00     0.339 C 
ATOM     16  O   UNL     1      -3.710  -3.844   1.566  1.00  0.00    -0.246 OA
BRANCH  15  17
ATOM     17  O   UNL     1      -3.951  -5.183   3.387  1.00  0.00    -0.478 OA
ATOM     18  H   UNL     1      -4.920  -5.037   3.351  1.00  0.00     0.297 HD
ENDBRANCH  15  17
ENDBRANCH   4  15
BRANCH   5  19
ATOM     19  O   UNL     1      -0.819  -3.836   1.357  1.00  0.00    -0.507 OA
ATOM     20  H   UNL     1      -1.657  -3.381   1.548  1.00  0.00     0.293 HD
ENDBRANCH   5  19
TORSDOF 4
ENDMDL
MODEL 5
REMARK VINA RESULT:    -5.450      4.080      6.319
REMARK INTER + INTRA:          -6.969
REMARK INTER:                  -5.888
REMARK INTRA:                  -1.081
REMARK UNBOUND:                -0.564
REMARK SMILES O=C(O)c1cc(-c2ccc(F)cc2F)ccc1O
REMARK SMILES IDX 6 1 5 2 15 3 4 4 17 5 16 6 7 7 13 8 12 9 8 10 10 11 9 12
REMARK SMILES IDX 14 13 11 14 2 15 1 16 3 17 18 19
REMARK H PARENT 3 18 18 20
ROOT
ATOM      1  C   UNL     1      -1.586 -10.537   1.705  1.00  0.00    -0.014 A 
ATOM      2  C   UNL     1      -0.627 -11.450   2.140  1.00  0.00     0.028 A 
ATOM      3  C   UNL     1      -2.889 -10.964   1.448  1.00  0.00     0.013 A 
ATOM      4  C   UNL     1      -0.969 -12.790   2.320  1.00  0.00     0.102 A 
ATOM      5  C   UNL     1      -2.272 -13.217   2.064  1.00  0.00     0.130 A 
ATOM      6  C   UNL     1      -3.233 -12.303   1.628  1.00  0.00     0.048 A 
ENDROOT
BRANCH   1   7
ATOM      7  C   UNL     1      -1.231  -9.147   1.517  1.00  0.00     0.018 A 
ATOM      8  C   UNL     1      -0.696  -8.718   0.301  1.00  0.00     0.133 A 
ATOM      9  C   UNL     1      -0.355  -7.377   0.125  1.00  0.00     0.079 A 
ATOM     10  C   UNL     1      -1.427  -8.234   2.553  1.00  0.00     0.015 A 
ATOM     11  C   UNL     1      -0.549  -6.465   1.161  1.00  0.00     0.126 A 
ATOM     12  C   UNL     1      -1.086  -6.894   2.376  1.00  0.00     0.040 A 
ATOM     13  F   UNL     1      -0.500  -9.583  -0.704  1.00  0.00    -0.206 F 
ATOM     14  F   UNL     1      -0.222  -5.178   0.993  1.00  0.00    -0.207 F 
ENDBRANCH   1   7
BRANCH   4  15
ATOM     15  C   UNL     1       0.047 -13.728   2.776  1.00  0.00     0.339 C 
ATOM     16  O   UNL     1      -0.160 -14.894   3.121  1.00  0.00    -0.246 OA
BRANCH  15  17
ATOM     17  O   UNL     1       1.292 -13.178   2.785  1.00  0.00    -0.478 OA
ATOM     18  H   UNL     1       1.315 -12.318   2.316  1.00  0.00     0.297 HD
ENDBRANCH  15  17
ENDBRANCH   4  15
BRANCH   5  19
ATOM     19  O   UNL     1      -2.628 -14.522   2.234  1.00  0.00    -0.507 OA
ATOM     20  H   UNL     1      -3.241 -14.779   1.523  1.00  0.00     0.293 HD
ENDBRANCH   5  19
TORSDOF 4
ENDMDL
MODEL 6
REMARK VINA RESULT:    -5.441      4.598      6.920
REMARK INTER + INTRA:          -6.959
REMARK INTER:                  -5.874
REMARK INTRA:                  -1.085
REMARK UNBOUND:                -0.564
REMARK SMILES O=C(O)c1cc(-c2ccc(F)cc2F)ccc1O
REMARK SMILES IDX 6 1 5 2 15 3 4 4 17 5 16 6 7 7 13 8 12 9 8 10 10 11 9 12
REMARK SMILES IDX 14 13 11 14 2 15 1 16 3 17 18 19
REMARK H PARENT 3 18 18 20
ROOT
ATOM      1  C   UNL     1      -1.937 -10.435   1.985  1.00  0.00    -0.014 A 
ATOM      2  C   UNL     1      -3.130 -11.092   1.686  1.00  0.00     0.028 A 
ATOM      3  C   UNL     1      -0.812 -11.169   2.358  1.00  0.00     0.013 A 
ATOM      4  C   UNL     1      -3.199 -12.483   1.761  1.00  0.00     0.102 A 
ATOM      5  C   UNL     1      -2.074 -13.217   2.135  1.00  0.00     0.130 A 
ATOM      6  C   UNL     1      -0.879 -12.560   2.433  1.00  0.00     0.048 A 
ENDROOT
BRANCH   1   7
ATOM      7  C   UNL     1      -1.866  -8.992   1.908  1.00  0.00     0.018 A 
ATOM      8  C   UNL     1      -2.192  -8.215   3.020  1.00  0.00     0.133 A 
ATOM      9  C   UNL     1      -2.122  -6.823   2.943  1.00  0.00     0.079 A 
ATOM     10  C   UNL     1      -1.469  -8.378   0.721  1.00  0.00     0.015 A 
ATOM     11  C   UNL     1      -1.726  -6.210   1.755  1.00  0.00     0.126 A 
ATOM     12  C   UNL     1      -1.399  -6.988   0.644  1.00  0.00     0.040 A 
ATOM     13  F   UNL     1      -2.578  -8.788   4.169  1.00  0.00    -0.206 F 
ATOM     14  F   UNL     1      -1.658  -4.875   1.679  1.00  0.00    -0.207 F 
ENDBRANCH   1   7
BRANCH   4  15
ATOM     15  C   UNL     1      -4.455 -13.150   1.445  1.00  0.00     0.339 C 
ATOM     16  O   UNL     1      -4.620 -14.371   1.388  1.00  0.00    -0.246 OA
BRANCH  15  17
ATOM     17  O   UNL     1      -5.465 -12.269   1.212  1.00  0.00    -0.478 OA
ATOM     18  H   UNL     1      -5.490 -11.983   0.274  1.00  0.00     0.297 HD
ENDBRANCH  15  17
ENDBRANCH   4  15
BRANCH   5  19
ATOM     19  O   UNL     1      -2.119 -14.578   2.213  1.00  0.00    -0.507 OA
ATOM     20  H   UNL     1      -2.158 -14.840   3.150  1.00  0.00     0.293 HD
ENDBRANCH   5  19
TORSDOF 4
ENDMDL
MODEL 7
REMARK VINA RESULT:    -5.404      4.386      6.712
REMARK INTER + INTRA:          -6.915
REMARK INTER:                  -5.845
REMARK INTRA:                  -1.070
REMARK UNBOUND:                -0.564
REMARK SMILES O=C(O)c1cc(-c2ccc(F)cc2F)ccc1O
REMARK SMILES IDX 6 1 5 2 15 3 4 4 17 5 16 6 7 7 13 8 12 9 8 10 10 11 9 12
REMARK SMILES IDX 14 13 11 14 2 15 1 16 3 17 18 19
REMARK H PARENT 3 18 18 20
ROOT
ATOM      1  C   UNL     1      -1.679 -10.570   1.837  1.00  0.00    -0.014 A 
ATOM      2  C   UNL     1      -2.929 -11.126   1.568  1.00  0.00     0.028 A 
ATOM      3  C   UNL     1      -0.626 -11.387   2.249  1.00  0.00     0.013 A 
ATOM      4  C   UNL     1      -3.127 -12.500   1.710  1.00  0.00     0.102 A 
ATOM      5  C   UNL     1      -2.074 -13.317   2.122  1.00  0.00     0.130 A 
ATOM      6  C   UNL     1      -0.823 -12.760   2.391  1.00  0.00     0.048 A 
ENDROOT
BRANCH   1   7
ATOM      7  C   UNL     1      -1.473  -9.145   1.691  1.00  0.00     0.018 A 
ATOM      8  C   UNL     1      -0.921  -8.634   0.515  1.00  0.00     0.133 A 
ATOM      9  C   UNL     1      -0.724  -7.259   0.379  1.00  0.00     0.079 A 
ATOM     10  C   UNL     1      -1.829  -8.282   2.727  1.00  0.00     0.015 A 
ATOM     11  C   UNL     1      -1.079  -6.397   1.415  1.00  0.00     0.126 A 
ATOM     12  C   UNL     1      -1.632  -6.909   2.589  1.00  0.00     0.040 A 
ATOM     13  F   UNL     1      -0.572  -9.450  -0.489  1.00  0.00    -0.206 F 
ATOM     14  F   UNL     1      -0.891  -5.078   1.285  1.00  0.00    -0.207 F 
ENDBRANCH   1   7
BRANCH   4  15
ATOM     15  C   UNL     1      -4.440 -13.061   1.424  1.00  0.00     0.339 C 
ATOM     16  O   UNL     1      -4.690 -14.262   1.299  1.00  0.00    -0.246 OA
BRANCH  15  17
ATOM     17  O   UNL     1      -5.398 -12.103   1.303  1.00  0.00    -0.478 OA
ATOM     18  H   UNL     1      -5.018 -11.237   1.044  1.00  0.00     0.297 HD
ENDBRANCH  15  17
ENDBRANCH   4  15
BRANCH   5  19
ATOM     19  O   UNL     1      -2.246 -14.661   2.267  1.00  0.00    -0.507 OA
ATOM     20  H   UNL     1      -3.029 -14.823   2.822  1.00  0.00     0.293 HD
ENDBRANCH   5  19
TORSDOF 4
ENDMDL
MODEL 8
REMARK VINA RESULT:    -5.397      4.219      6.491
REMARK INTER + INTRA:          -6.907
REMARK INTER:                  -5.848
REMARK INTRA:                  -1.059
REMARK UNBOUND:                -0.564
REMARK SMILES O=C(O)c1cc(-c2ccc(F)cc2F)ccc1O
REMARK SMILES IDX 6 1 5 2 15 3 4 4 17 5 16 6 7 7 13 8 12 9 8 10 10 11 9 12
REMARK SMILES IDX 14 13 11 14 2 15 1 16 3 17 18 19
REMARK H PARENT 3 18 18 20
ROOT
ATOM      1  C   UNL     1      -1.796 -10.523   1.868  1.00  0.00    -0.014 A 
ATOM      2  C   UNL     1      -0.768 -11.376   2.267  1.00  0.00     0.028 A 
ATOM      3  C   UNL     1      -3.060 -11.040   1.581  1.00  0.00     0.013 A 
ATOM      4  C   UNL     1      -1.003 -12.747   2.380  1.00  0.00     0.102 A 
ATOM      5  C   UNL     1      -2.266 -13.264   2.094  1.00  0.00     0.130 A 
ATOM      6  C   UNL     1      -3.295 -12.410   1.694  1.00  0.00     0.048 A 
ENDROOT
BRANCH   1   7
ATOM      7  C   UNL     1      -1.553  -9.101   1.749  1.00  0.00     0.018 A 
ATOM      8  C   UNL     1      -1.924  -8.239   2.781  1.00  0.00     0.133 A 
ATOM      9  C   UNL     1      -1.688  -6.869   2.662  1.00  0.00     0.079 A 
ATOM     10  C   UNL     1      -0.946  -8.595   0.600  1.00  0.00     0.015 A 
ATOM     11  C   UNL     1      -1.082  -6.362   1.513  1.00  0.00     0.126 A 
ATOM     12  C   UNL     1      -0.710  -7.226   0.482  1.00  0.00     0.040 A 
ATOM     13  F   UNL     1      -2.512  -8.709   3.890  1.00  0.00    -0.206 F 
ATOM     14  F   UNL     1      -0.855  -5.048   1.398  1.00  0.00    -0.207 F 
ENDBRANCH   1   7
BRANCH   4  15
ATOM     15  C   UNL     1       0.084 -13.621   2.799  1.00  0.00     0.339 C 
ATOM     16  O   UNL     1      -0.051 -14.758   3.258  1.00  0.00    -0.246 OA
BRANCH  15  17
ATOM     17  O   UNL     1       1.306 -13.046   2.630  1.00  0.00    -0.478 OA
ATOM     18  H   UNL     1       1.546 -12.469   3.385  1.00  0.00     0.297 HD
ENDBRANCH  15  17
ENDBRANCH   4  15
BRANCH   5  19
ATOM     19  O   UNL     1      -2.516 -14.600   2.199  1.00  0.00    -0.507 OA
ATOM     20  H   UNL     1      -2.661 -14.823   3.135  1.00  0.00     0.293 HD
ENDBRANCH   5  19
TORSDOF 4
ENDMDL
MODEL 9
REMARK VINA RESULT:    -5.328      1.041      1.088
REMARK INTER + INTRA:          -6.826
REMARK INTER:                  -6.328
REMARK INTRA:                  -0.497
REMARK UNBOUND:                -0.564
REMARK SMILES O=C(O)c1cc(-c2ccc(F)cc2F)ccc1O
REMARK SMILES IDX 6 1 5 2 15 3 4 4 17 5 16 6 7 7 13 8 12 9 8 10 10 11 9 12
REMARK SMILES IDX 14 13 11 14 2 15 1 16 3 17 18 19
REMARK H PARENT 3 18 18 20
ROOT
ATOM      1  C   UNL     1      -1.440  -8.241   1.630  1.00  0.00    -0.014 A 
ATOM      2  C   UNL     1      -0.186  -7.817   1.191  1.00  0.00     0.028 A 
ATOM      3  C   UNL     1      -2.418  -7.302   1.957  1.00  0.00     0.013 A 
ATOM      4  C   UNL     1       0.090  -6.455   1.077  1.00  0.00     0.102 A 
ATOM      5  C   UNL     1      -0.889  -5.516   1.403  1.00  0.00     0.130 A 
ATOM      6  C   UNL     1      -2.143  -5.940   1.843  1.00  0.00     0.048 A 
ENDROOT
BRANCH   1   7
ATOM      7  C   UNL     1      -1.726  -9.654   1.750  1.00  0.00     0.018 A 
ATOM      8  C   UNL     1      -0.719 -10.544   2.126  1.00  0.00     0.133 A 
ATOM      9  C   UNL     1      -1.000 -11.906   2.239  1.00  0.00     0.079 A 
ATOM     10  C   UNL     1      -3.012 -10.126   1.489  1.00  0.00     0.015 A 
ATOM     11  C   UNL     1      -2.285 -12.378   1.978  1.00  0.00     0.126 A 
ATOM     12  C   UNL     1      -3.292 -11.487   1.603  1.00  0.00     0.040 A 
ATOM     13  F   UNL     1       0.523 -10.107   2.378  1.00  0.00    -0.206 F 
ATOM     14  F   UNL     1      -2.555 -13.685   2.087  1.00  0.00    -0.207 F 
ENDBRANCH   1   7
BRANCH   4  15
ATOM     15  C   UNL     1       1.405  -6.033   0.616  1.00  0.00     0.339 C 
ATOM     16  O   UNL     1       1.993  -5.009   0.973  1.00  0.00    -0.246 OA
BRANCH  15  17
ATOM     17  O   UNL     1       1.946  -6.906  -0.278  1.00  0.00    -0.478 OA
ATOM     18  H   UNL     1       1.324  -7.629  -0.502  1.00  0.00     0.297 HD
ENDBRANCH  15  17
ENDBRANCH   4  15
BRANCH   5  19
ATOM     19  O   UNL     1      -0.639  -4.180   1.299  1.00  0.00    -0.507 OA
ATOM     20  H   UNL     1      -0.099  -3.897   2.057  1.00  0.00     0.293 HD
ENDBRANCH   5  19
TORSDOF 4
ENDMDL
