MODEL 1
REMARK VINA RESULT:    -5.154      0.000      0.000
REMARK INTER + INTRA:          -7.126
REMARK INTER:                  -6.359
REMARK INTRA:                  -0.767
REMARK UNBOUND:                -0.767
REMARK SMILES Cc1ccc(C(=O)c2cc(O)c(O)c([N+](=O)[O-])c2)cc1
REMARK SMILES IDX 8 1 18 2 9 3 14 4 10 5 12 6 6 7 7 8 5 9 4 10 19 11 3 12
REMARK SMILES IDX 20 13 2 14 1 15 15 16 17 17 16 18 11 19 13 21
REMARK H PARENT 11 20 13 22
ROOT
ATOM      1  C   UNL     1       6.151   0.421   5.209  1.00  0.00     0.033 A 
ATOM      2  C   UNL     1       5.321  -0.665   5.369  1.00  0.00     0.102 A 
ATOM      3  C   UNL     1       5.859   1.465   4.364  1.00  0.00     0.063 A 
ATOM      4  C   UNL     1       4.131  -0.707   4.643  1.00  0.00     0.315 A 
ATOM      5  C   UNL     1       4.669   1.423   3.637  1.00  0.00     0.165 A 
ATOM      6  C   UNL     1       3.804   0.336   3.777  1.00  0.00     0.237 A 
ENDROOT
BRANCH   1   7
ATOM      7  C   UNL     1       7.426   0.467   5.987  1.00  0.00     0.193 C 
ATOM      8  O   UNL     1       7.838   1.582   6.338  1.00  0.00    -0.289 OA
BRANCH   7   9
ATOM      9  C   UNL     1       8.172  -0.733   6.331  1.00  0.00     0.023 A 
ATOM     10  C   UNL     1       9.227  -1.154   5.521  1.00  0.00     0.012 A 
ATOM     11  C   UNL     1       7.834  -1.462   7.471  1.00  0.00     0.012 A 
ATOM     12  C   UNL     1       9.943  -2.304   5.852  1.00  0.00     0.004 A 
ATOM     13  C   UNL     1       8.551  -2.612   7.802  1.00  0.00     0.004 A 
ATOM     14  C   UNL     1       9.606  -3.034   6.993  1.00  0.00    -0.051 A 
ATOM     15  C   UNL     1      10.370  -4.264   7.345  1.00  0.00     0.044 C 
ENDBRANCH   7   9
ENDBRANCH   1   7
BRANCH   4  16
ATOM     16  N   UNL     1       3.263  -1.823   4.798  1.00  0.00     0.066 N 
ATOM     17  O   UNL     1       3.233  -2.418   5.902  1.00  0.00    -0.258 OA
ATOM     18  O   UNL     1       2.553  -2.177   3.829  1.00  0.00    -0.258 OA
ENDBRANCH   4  16
BRANCH   5  19
ATOM     19  O   UNL     1       4.363   2.449   2.795  1.00  0.00    -0.504 OA
ATOM     20  H   UNL     1       3.403   2.600   2.802  1.00  0.00     0.293 HD
ENDBRANCH   5  19
BRANCH   6  21
ATOM     21  O   UNL     1       2.643   0.306   3.061  1.00  0.00    -0.500 OA
ATOM     22  H   UNL     1       2.779  -0.190   2.239  1.00  0.00     0.294 HD
ENDBRANCH   6  21
TORSDOF 5
ENDMDL
MODEL 2
REMARK VINA RESULT:    -5.046      2.038      3.545
REMARK INTER + INTRA:          -6.993
REMARK INTER:                  -6.192
REMARK INTRA:                  -0.801
REMARK UNBOUND:                -0.767
REMARK SMILES Cc1ccc(C(=O)c2cc(O)c(O)c([N+](=O)[O-])c2)cc1
REMARK SMILES IDX 8 1 18 2 9 3 14 4 10 5 12 6 6 7 7 8 5 9 4 10 19 11 3 12
REMARK SMILES IDX 20 13 2 14 1 15 15 16 17 17 16 18 11 19 13 21
REMARK H PARENT 11 20 13 22
ROOT
ATOM      1  C   UNL     1       6.030  -1.296   4.695  1.00  0.00     0.033 A 
ATOM      2  C   UNL     1       6.200  -0.091   4.054  1.00  0.00     0.102 A 
ATOM      3  C   UNL     1       4.804  -1.902   4.833  1.00  0.00     0.063 A 
ATOM      4  C   UNL     1       5.079   0.544   3.519  1.00  0.00     0.315 A 
ATOM      5  C   UNL     1       3.683  -1.267   4.299  1.00  0.00     0.165 A 
ATOM      6  C   UNL     1       3.820  -0.044   3.641  1.00  0.00     0.237 A 
ENDROOT
BRANCH   1   7
ATOM      7  C   UNL     1       7.231  -1.977   5.268  1.00  0.00     0.193 C 
ATOM      8  O   UNL     1       7.296  -3.210   5.151  1.00  0.00    -0.289 OA
BRANCH   7   9
ATOM      9  C   UNL     1       8.294  -1.247   5.939  1.00  0.00     0.023 A 
ATOM     10  C   UNL     1       8.258  -1.078   7.324  1.00  0.00     0.012 A 
ATOM     11  C   UNL     1       9.351  -0.715   5.200  1.00  0.00     0.012 A 
ATOM     12  C   UNL     1       9.278  -0.379   7.968  1.00  0.00     0.004 A 
ATOM     13  C   UNL     1      10.372  -0.015   5.844  1.00  0.00     0.004 A 
ATOM     14  C   UNL     1      10.336   0.153   7.228  1.00  0.00    -0.051 A 
ATOM     15  C   UNL     1      11.425   0.902   7.917  1.00  0.00     0.044 C 
ENDBRANCH   7   9
ENDBRANCH   1   7
BRANCH   4  16
ATOM     16  N   UNL     1       5.239   1.790   2.854  1.00  0.00     0.066 N 
ATOM     17  O   UNL     1       4.378   2.685   3.028  1.00  0.00    -0.258 OA
ATOM     18  O   UNL     1       6.237   1.958   2.114  1.00  0.00    -0.258 OA
ENDBRANCH   4  16
BRANCH   5  19
ATOM     19  O   UNL     1       2.459  -1.853   4.425  1.00  0.00    -0.504 OA
ATOM     20  H   UNL     1       1.864  -1.515   3.736  1.00  0.00     0.293 HD
ENDBRANCH   5  19
BRANCH   6  21
ATOM     21  O   UNL     1       2.716   0.568   3.122  1.00  0.00    -0.500 OA
ATOM     22  H   UNL     1       2.383   0.055   2.370  1.00  0.00     0.294 HD
ENDBRANCH   6  21
TORSDOF 5
ENDMDL
MODEL 3
REMARK VINA RESULT:    -4.390      1.850      2.371
REMARK INTER + INTRA:          -6.183
REMARK INTER:                  -5.648
REMARK INTRA:                  -0.535
REMARK UNBOUND:                -0.767
REMARK SMILES Cc1ccc(C(=O)c2cc(O)c(O)c([N+](=O)[O-])c2)cc1
REMARK SMILES IDX 8 1 18 2 9 3 14 4 10 5 12 6 6 7 7 8 5 9 4 10 19 11 3 12
REMARK SMILES IDX 20 13 2 14 1 15 15 16 17 17 16 18 11 19 13 21
REMARK H PARENT 11 20 13 22
ROOT
ATOM      1  C   UNL     1       6.119  -0.231   3.516  1.00  0.00     0.033 A 
ATOM      2  C   UNL     1       5.179  -1.160   3.896  1.00  0.00     0.102 A 
ATOM      3  C   UNL     1       5.796   1.059   3.168  1.00  0.00     0.063 A 
ATOM      4  C   UNL     1       3.839  -0.777   3.932  1.00  0.00     0.315 A 
ATOM      5  C   UNL     1       4.455   1.443   3.203  1.00  0.00     0.165 A 
ATOM      6  C   UNL     1       3.476   0.525   3.585  1.00  0.00     0.237 A 
ENDROOT
BRANCH   1   7
ATOM      7  C   UNL     1       7.555  -0.642   3.478  1.00  0.00     0.193 C 
ATOM      8  O   UNL     1       8.001  -1.055   2.396  1.00  0.00    -0.289 OA
BRANCH   7   9
ATOM      9  C   UNL     1       8.418  -0.570   4.646  1.00  0.00     0.023 A 
ATOM     10  C   UNL     1       7.888  -0.782   5.919  1.00  0.00     0.012 A 
ATOM     11  C   UNL     1       9.776  -0.290   4.495  1.00  0.00     0.012 A 
ATOM     12  C   UNL     1       8.716  -0.713   7.039  1.00  0.00     0.004 A 
ATOM     13  C   UNL     1      10.605  -0.222   5.615  1.00  0.00     0.004 A 
ATOM     14  C   UNL     1      10.074  -0.433   6.888  1.00  0.00    -0.051 A 
ATOM     15  C   UNL     1      10.958  -0.359   8.086  1.00  0.00     0.044 C 
ENDBRANCH   7   9
ENDBRANCH   1   7
BRANCH   4  16
ATOM     16  N   UNL     1       2.855  -1.726   4.323  1.00  0.00     0.066 N 
ATOM     17  O   UNL     1       2.140  -2.257   3.440  1.00  0.00    -0.258 OA
ATOM     18  O   UNL     1       2.733  -2.006   5.539  1.00  0.00    -0.258 OA
ENDBRANCH   4  16
BRANCH   5  19
ATOM     19  O   UNL     1       4.115   2.718   2.862  1.00  0.00    -0.504 OA
ATOM     20  H   UNL     1       4.186   2.827   1.899  1.00  0.00     0.293 HD
ENDBRANCH   5  19
BRANCH   6  21
ATOM     21  O   UNL     1       2.168   0.912   3.616  1.00  0.00    -0.500 OA
ATOM     22  H   UNL     1       1.723   0.498   4.372  1.00  0.00     0.294 HD
ENDBRANCH   6  21
TORSDOF 5
ENDMDL
MODEL 4
REMARK VINA RESULT:    -4.172      1.269      2.735
REMARK INTER + INTRA:          -5.914
REMARK INTER:                  -5.217
REMARK INTRA:                  -0.697
REMARK UNBOUND:                -0.767
REMARK SMILES Cc1ccc(C(=O)c2cc(O)c(O)c([N+](=O)[O-])c2)cc1
REMARK SMILES IDX 8 1 18 2 9 3 14 4 10 5 12 6 6 7 7 8 5 9 4 10 19 11 3 12
REMARK SMILES IDX 20 13 2 14 1 15 15 16 17 17 16 18 11 19 13 21
REMARK H PARENT 11 20 13 22
ROOT
ATOM      1  C   UNL     1       6.502   0.206   5.408  1.00  0.00     0.033 A 
ATOM      2  C   UNL     1       6.361   1.171   4.439  1.00  0.00     0.102 A 
ATOM      3  C   UNL     1       5.528  -0.725   5.682  1.00  0.00     0.063 A 
ATOM      4  C   UNL     1       5.178   1.207   3.700  1.00  0.00     0.315 A 
ATOM      5  C   UNL     1       4.345  -0.689   4.944  1.00  0.00     0.165 A 
ATOM      6  C   UNL     1       4.170   0.277   3.952  1.00  0.00     0.237 A 
ENDROOT
BRANCH   1   7
ATOM      7  C   UNL     1       7.769   0.168   6.200  1.00  0.00     0.193 C 
ATOM      8  O   UNL     1       8.214   1.249   6.613  1.00  0.00    -0.289 OA
BRANCH   7   9
ATOM      9  C   UNL     1       8.471  -1.073   6.488  1.00  0.00     0.023 A 
ATOM     10  C   UNL     1       9.491  -1.509   5.643  1.00  0.00     0.012 A 
ATOM     11  C   UNL     1       8.124  -1.826   7.610  1.00  0.00     0.012 A 
ATOM     12  C   UNL     1      10.165  -2.699   5.920  1.00  0.00     0.004 A 
ATOM     13  C   UNL     1       8.797  -3.016   7.887  1.00  0.00     0.004 A 
ATOM     14  C   UNL     1       9.818  -3.453   7.043  1.00  0.00    -0.051 A 
ATOM     15  C   UNL     1      10.537  -4.725   7.337  1.00  0.00     0.044 C 
ENDBRANCH   7   9
ENDBRANCH   1   7
BRANCH   4  16
ATOM     16  N   UNL     1       5.018   2.199   2.694  1.00  0.00     0.066 N 
ATOM     17  O   UNL     1       5.798   2.197   1.711  1.00  0.00    -0.258 OA
ATOM     18  O   UNL     1       4.102   3.046   2.819  1.00  0.00    -0.258 OA
ENDBRANCH   4  16
BRANCH   5  19
ATOM     19  O   UNL     1       3.368  -1.604   5.201  1.00  0.00    -0.504 OA
ATOM     20  H   UNL     1       3.609  -2.457   4.802  1.00  0.00     0.293 HD
ENDBRANCH   5  19
BRANCH   6  21
ATOM     21  O   UNL     1       3.008   0.301   3.236  1.00  0.00    -0.500 OA
ATOM     22  H   UNL     1       3.042  -0.369   2.537  1.00  0.00     0.294 HD
ENDBRANCH   6  21
TORSDOF 5
ENDMDL
MODEL 5
REMARK VINA RESULT:    -4.104      3.638      6.486
REMARK INTER + INTRA:          -5.831
REMARK INTER:                  -4.865
REMARK INTRA:                  -0.966
REMARK UNBOUND:                -0.767
REMARK SMILES Cc1ccc(C(=O)c2cc(O)c(O)c([N+](=O)[O-])c2)cc1
REMARK SMILES IDX 8 1 18 2 9 3 14 4 10 5 12 6 6 7 7 8 5 9 4 10 19 11 3 12
REMARK SMILES IDX 20 13 2 14 1 15 15 16 17 17 16 18 11 19 13 21
REMARK H PARENT 11 20 13 22
ROOT
ATOM      1  C   UNL     1       9.254  -0.958   5.932  1.00  0.00     0.033 A 
ATOM      2  C   UNL     1       9.399  -2.293   6.229  1.00  0.00     0.102 A 
ATOM      3  C   UNL     1      10.044   0.020   6.487  1.00  0.00     0.063 A 
ATOM      4  C   UNL     1      10.392  -2.671   7.133  1.00  0.00     0.315 A 
ATOM      5  C   UNL     1      11.036  -0.357   7.392  1.00  0.00     0.165 A 
ATOM      6  C   UNL     1      11.211  -1.704   7.714  1.00  0.00     0.237 A 
ENDROOT
BRANCH   1   7
ATOM      7  C   UNL     1       8.190  -0.553   4.964  1.00  0.00     0.193 C 
ATOM      8  O   UNL     1       8.528   0.175   4.019  1.00  0.00    -0.289 OA
BRANCH   7   9
ATOM      9  C   UNL     1       6.807  -0.981   5.101  1.00  0.00     0.023 A 
ATOM     10  C   UNL     1       6.157  -1.594   4.030  1.00  0.00     0.012 A 
ATOM     11  C   UNL     1       6.131  -0.779   6.304  1.00  0.00     0.012 A 
ATOM     12  C   UNL     1       4.831  -2.005   4.162  1.00  0.00     0.004 A 
ATOM     13  C   UNL     1       4.804  -1.190   6.437  1.00  0.00     0.004 A 
ATOM     14  C   UNL     1       4.153  -1.803   5.366  1.00  0.00    -0.051 A 
ATOM     15  C   UNL     1       2.735  -2.241   5.506  1.00  0.00     0.044 C 
ENDBRANCH   7   9
ENDBRANCH   1   7
BRANCH   4  16
ATOM     16  N   UNL     1      10.555  -4.048   7.450  1.00  0.00     0.066 N 
ATOM     17  O   UNL     1      11.698  -4.471   7.746  1.00  0.00    -0.258 OA
ATOM     18  O   UNL     1       9.551  -4.798   7.425  1.00  0.00    -0.258 OA
ENDBRANCH   4  16
BRANCH   5  19
ATOM     19  O   UNL     1      11.829   0.599   7.952  1.00  0.00    -0.504 OA
ATOM     20  H   UNL     1      11.319   1.102   8.608  1.00  0.00     0.293 HD
ENDBRANCH   5  19
BRANCH   6  21
ATOM     21  O   UNL     1      12.186  -2.061   8.600  1.00  0.00    -0.500 OA
ATOM     22  H   UNL     1      12.387  -3.005   8.501  1.00  0.00     0.294 HD
ENDBRANCH   6  21
TORSDOF 5
ENDMDL
MODEL 6
REMARK VINA RESULT:    -4.104      3.521      7.128
REMARK INTER + INTRA:          -5.831
REMARK INTER:                  -4.872
REMARK INTRA:                  -0.958
REMARK UNBOUND:                -0.767
REMARK SMILES Cc1ccc(C(=O)c2cc(O)c(O)c([N+](=O)[O-])c2)cc1
REMARK SMILES IDX 8 1 18 2 9 3 14 4 10 5 12 6 6 7 7 8 5 9 4 10 19 11 3 12
REMARK SMILES IDX 20 13 2 14 1 15 15 16 17 17 16 18 11 19 13 21
REMARK H PARENT 11 20 13 22
ROOT
ATOM      1  C   UNL     1       8.499  -1.364   7.110  1.00  0.00     0.033 A 
ATOM      2  C   UNL     1       9.322  -0.288   7.348  1.00  0.00     0.102 A 
ATOM      3  C   UNL     1       8.923  -2.667   7.221  1.00  0.00     0.063 A 
ATOM      4  C   UNL     1      10.644  -0.529   7.721  1.00  0.00     0.315 A 
ATOM      5  C   UNL     1      10.246  -2.909   7.594  1.00  0.00     0.165 A 
ATOM      6  C   UNL     1      11.106  -1.839   7.844  1.00  0.00     0.237 A 
ENDROOT
BRANCH   1   7
ATOM      7  C   UNL     1       7.083  -1.106   6.710  1.00  0.00     0.193 C 
ATOM      8  O   UNL     1       6.194  -1.664   7.372  1.00  0.00    -0.289 OA
BRANCH   7   9
ATOM      9  C   UNL     1       6.732  -0.241   5.595  1.00  0.00     0.023 A 
ATOM     10  C   UNL     1       7.345  -0.419   4.355  1.00  0.00     0.012 A 
ATOM     11  C   UNL     1       5.783   0.766   5.766  1.00  0.00     0.012 A 
ATOM     12  C   UNL     1       7.009   0.412   3.286  1.00  0.00     0.004 A 
ATOM     13  C   UNL     1       5.446   1.597   4.697  1.00  0.00     0.004 A 
ATOM     14  C   UNL     1       6.059   1.420   3.456  1.00  0.00    -0.051 A 
ATOM     15  C   UNL     1       5.701   2.307   2.313  1.00  0.00     0.044 C 
ENDBRANCH   7   9
ENDBRANCH   1   7
BRANCH   4  16
ATOM     16  N   UNL     1      11.506   0.573   7.972  1.00  0.00     0.066 N 
ATOM     17  O   UNL     1      12.423   0.445   8.818  1.00  0.00    -0.258 OA
ATOM     18  O   UNL     1      11.325   1.640   7.339  1.00  0.00    -0.258 OA
ENDBRANCH   4  16
BRANCH   5  19
ATOM     19  O   UNL     1      10.684  -4.194   7.710  1.00  0.00    -0.504 OA
ATOM     20  H   UNL     1      10.849  -4.398   8.645  1.00  0.00     0.293 HD
ENDBRANCH   5  19
BRANCH   6  21
ATOM     21  O   UNL     1      12.398  -2.088   8.208  1.00  0.00    -0.500 OA
ATOM     22  H   UNL     1      12.994  -1.501   7.717  1.00  0.00     0.294 HD
ENDBRANCH   6  21
TORSDOF 5
ENDMDL
MODEL 7
REMARK VINA RESULT:    -4.073      3.709      6.783
REMARK INTER + INTRA:          -5.793
REMARK INTER:                  -4.840
REMARK INTRA:                  -0.952
REMARK UNBOUND:                -0.767
REMARK SMILES Cc1ccc(C(=O)c2cc(O)c(O)c([N+](=O)[O-])c2)cc1
REMARK SMILES IDX 8 1 18 2 9 3 14 4 10 5 12 6 6 7 7 8 5 9 4 10 19 11 3 12
REMARK SMILES IDX 20 13 2 14 1 15 15 16 17 17 16 18 11 19 13 21
REMARK H PARENT 11 20 13 22
ROOT
ATOM      1  C   UNL     1       8.590  -1.313   7.078  1.00  0.00     0.033 A 
ATOM      2  C   UNL     1       9.102  -2.589   7.112  1.00  0.00     0.102 A 
ATOM      3  C   UNL     1       9.328  -0.203   7.414  1.00  0.00     0.063 A 
ATOM      4  C   UNL     1      10.429  -2.765   7.503  1.00  0.00     0.315 A 
ATOM      5  C   UNL     1      10.656  -0.379   7.806  1.00  0.00     0.165 A 
ATOM      6  C   UNL     1      11.206  -1.660   7.850  1.00  0.00     0.237 A 
ENDROOT
BRANCH   1   7
ATOM      7  C   UNL     1       7.168  -1.124   6.659  1.00  0.00     0.193 C 
ATOM      8  O   UNL     1       6.301  -1.746   7.292  1.00  0.00    -0.289 OA
BRANCH   7   9
ATOM      9  C   UNL     1       6.788  -0.253   5.559  1.00  0.00     0.023 A 
ATOM     10  C   UNL     1       7.391  -0.405   4.309  1.00  0.00     0.012 A 
ATOM     11  C   UNL     1       5.822   0.734   5.751  1.00  0.00     0.012 A 
ATOM     12  C   UNL     1       7.026   0.431   3.254  1.00  0.00     0.004 A 
ATOM     13  C   UNL     1       5.457   1.570   4.696  1.00  0.00     0.004 A 
ATOM     14  C   UNL     1       6.059   1.418   3.446  1.00  0.00    -0.051 A 
ATOM     15  C   UNL     1       5.671   2.312   2.318  1.00  0.00     0.044 C 
ENDBRANCH   7   9
ENDBRANCH   1   7
BRANCH   4  16
ATOM     16  N   UNL     1      10.973  -4.078   7.543  1.00  0.00     0.066 N 
ATOM     17  O   UNL     1      11.940  -4.311   8.307  1.00  0.00    -0.258 OA
ATOM     18  O   UNL     1      10.469  -4.964   6.813  1.00  0.00    -0.258 OA
ENDBRANCH   4  16
BRANCH   5  19
ATOM     19  O   UNL     1      11.403   0.710   8.142  1.00  0.00    -0.504 OA
ATOM     20  H   UNL     1      12.314   0.589   7.826  1.00  0.00     0.293 HD
ENDBRANCH   5  19
BRANCH   6  21
ATOM     21  O   UNL     1      12.506  -1.819   8.234  1.00  0.00    -0.500 OA
ATOM     22  H   UNL     1      13.093  -1.640   7.483  1.00  0.00     0.294 HD
ENDBRANCH   6  21
TORSDOF 5
ENDMDL
MODEL 8
REMARK VINA RESULT:    -4.035      2.270      3.708
REMARK INTER + INTRA:          -5.746
REMARK INTER:                  -4.845
REMARK INTRA:                  -0.901
REMARK UNBOUND:                -0.767
REMARK SMILES Cc1ccc(C(=O)c2cc(O)c(O)c([N+](=O)[O-])c2)cc1
REMARK SMILES IDX 8 1 18 2 9 3 14 4 10 5 12 6 6 7 7 8 5 9 4 10 19 11 3 12
REMARK SMILES IDX 20 13 2 14 1 15 15 16 17 17 16 18 11 19 13 21
REMARK H PARENT 11 20 13 22
ROOT
ATOM      1  C   UNL     1       8.745  -1.286   5.729  1.00  0.00     0.033 A 
ATOM      2  C   UNL     1       7.386  -1.229   5.525  1.00  0.00     0.102 A 
ATOM      3  C   UNL     1       9.658  -0.860   4.794  1.00  0.00     0.063 A 
ATOM      4  C   UNL     1       6.914  -0.716   4.317  1.00  0.00     0.315 A 
ATOM      5  C   UNL     1       9.186  -0.348   3.585  1.00  0.00     0.165 A 
ATOM      6  C   UNL     1       7.813  -0.275   3.347  1.00  0.00     0.237 A 
ENDROOT
BRANCH   1   7
ATOM      7  C   UNL     1       9.251  -1.835   7.023  1.00  0.00     0.193 C 
ATOM      8  O   UNL     1       9.018  -1.179   8.049  1.00  0.00    -0.289 OA
BRANCH   7   9
ATOM      9  C   UNL     1       9.989  -3.085   7.104  1.00  0.00     0.023 A 
ATOM     10  C   UNL     1      11.009  -3.234   8.044  1.00  0.00     0.012 A 
ATOM     11  C   UNL     1       9.678  -4.136   6.241  1.00  0.00     0.012 A 
ATOM     12  C   UNL     1      11.716  -4.434   8.122  1.00  0.00     0.004 A 
ATOM     13  C   UNL     1      10.385  -5.336   6.318  1.00  0.00     0.004 A 
ATOM     14  C   UNL     1      11.404  -5.485   7.259  1.00  0.00    -0.051 A 
ATOM     15  C   UNL     1      12.162  -6.767   7.341  1.00  0.00     0.044 C 
ENDBRANCH   7   9
ENDBRANCH   1   7
BRANCH   4  16
ATOM     16  N   UNL     1       5.511  -0.650   4.092  1.00  0.00     0.066 N 
ATOM     17  O   UNL     1       5.038   0.351   3.503  1.00  0.00    -0.258 OA
ATOM     18  O   UNL     1       4.789  -1.595   4.488  1.00  0.00    -0.258 OA
ENDBRANCH   4  16
BRANCH   5  19
ATOM     19  O   UNL     1      10.077   0.079   2.646  1.00  0.00    -0.504 OA
ATOM     20  H   UNL     1      10.966  -0.239   2.873  1.00  0.00     0.293 HD
ENDBRANCH   5  19
BRANCH   6  21
ATOM     21  O   UNL     1       7.363   0.228   2.161  1.00  0.00    -0.500 OA
ATOM     22  H   UNL     1       7.826   1.057   1.962  1.00  0.00     0.294 HD
ENDBRANCH   6  21
TORSDOF 5
ENDMDL
MODEL 9
REMARK VINA RESULT:    -3.960      3.282      4.464
REMARK INTER + INTRA:          -5.653
REMARK INTER:                  -4.791
REMARK INTRA:                  -0.862
REMARK UNBOUND:                -0.767
REMARK SMILES Cc1ccc(C(=O)c2cc(O)c(O)c([N+](=O)[O-])c2)cc1
REMARK SMILES IDX 8 1 18 2 9 3 14 4 10 5 12 6 6 7 7 8 5 9 4 10 19 11 3 12
REMARK SMILES IDX 20 13 2 14 1 15 15 16 17 17 16 18 11 19 13 21
REMARK H PARENT 11 20 13 22
ROOT
ATOM      1  C   UNL     1       8.233  -0.988   6.797  1.00  0.00     0.033 A 
ATOM      2  C   UNL     1       7.458  -0.645   5.713  1.00  0.00     0.102 A 
ATOM      3  C   UNL     1       7.700  -1.365   8.006  1.00  0.00     0.063 A 
ATOM      4  C   UNL     1       6.071  -0.684   5.847  1.00  0.00     0.315 A 
ATOM      5  C   UNL     1       6.312  -1.404   8.141  1.00  0.00     0.165 A 
ATOM      6  C   UNL     1       5.497  -1.063   7.060  1.00  0.00     0.237 A 
ENDROOT
BRANCH   1   7
ATOM      7  C   UNL     1       9.720  -0.946   6.654  1.00  0.00     0.193 C 
ATOM      8  O   UNL     1      10.232  -1.696   5.809  1.00  0.00    -0.289 OA
BRANCH   7   9
ATOM      9  C   UNL     1      10.557  -0.070   7.458  1.00  0.00     0.023 A 
ATOM     10  C   UNL     1      11.835  -0.481   7.836  1.00  0.00     0.012 A 
ATOM     11  C   UNL     1      10.081   1.180   7.852  1.00  0.00     0.012 A 
ATOM     12  C   UNL     1      12.637   0.359   8.608  1.00  0.00     0.004 A 
ATOM     13  C   UNL     1      10.883   2.021   8.625  1.00  0.00     0.004 A 
ATOM     14  C   UNL     1      12.162   1.611   9.002  1.00  0.00    -0.051 A 
ATOM     15  C   UNL     1      13.019   2.508   9.829  1.00  0.00     0.044 C 
ENDBRANCH   7   9
ENDBRANCH   1   7
BRANCH   4  16
ATOM     16  N   UNL     1       5.256  -0.333   4.735  1.00  0.00     0.066 N 
ATOM     17  O   UNL     1       4.191   0.299   4.940  1.00  0.00    -0.258 OA
ATOM     18  O   UNL     1       5.626  -0.664   3.585  1.00  0.00    -0.258 OA
ENDBRANCH   4  16
BRANCH   5  19
ATOM     19  O   UNL     1       5.766  -1.776   9.332  1.00  0.00    -0.504 OA
ATOM     20  H   UNL     1       5.746  -2.746   9.391  1.00  0.00     0.293 HD
ENDBRANCH   5  19
BRANCH   6  21
ATOM     21  O   UNL     1       4.141  -1.105   7.204  1.00  0.00    -0.500 OA
ATOM     22  H   UNL     1       3.906  -0.955   8.133  1.00  0.00     0.294 HD
ENDBRANCH   6  21
TORSDOF 5
ENDMDL
