MODEL 1
REMARK VINA RESULT:    -7.042      0.000      0.000
REMARK INTER + INTRA:          -8.864
REMARK INTER:                  -8.276
REMARK INTRA:                  -0.588
REMARK UNBOUND:                -0.588
REMARK SMILES O=C(O)c1cc(-c2ccc(F)cc2F)ccc1O
REMARK SMILES IDX 6 1 5 2 15 3 4 4 17 5 16 6 7 7 13 8 12 9 8 10 10 11 9 12
REMARK SMILES IDX 14 13 11 14 2 15 1 16 3 17 18 19
REMARK H PARENT 3 18 18 20
ROOT
ATOM      1  C   UNL     1       6.249  -0.503   5.002  1.00  0.00    -0.014 A 
ATOM      2  C   UNL     1       6.191   0.637   4.201  1.00  0.00     0.028 A 
ATOM      3  C   UNL     1       5.126  -1.319   5.135  1.00  0.00     0.013 A 
ATOM      4  C   UNL     1       5.010   0.962   3.533  1.00  0.00     0.102 A 
ATOM      5  C   UNL     1       3.887   0.145   3.666  1.00  0.00     0.130 A 
ATOM      6  C   UNL     1       3.945  -0.996   4.467  1.00  0.00     0.048 A 
ENDROOT
BRANCH   1   7
ATOM      7  C   UNL     1       7.473  -0.839   5.696  1.00  0.00     0.018 A 
ATOM      8  C   UNL     1       8.694  -0.804   5.021  1.00  0.00     0.133 A 
ATOM      9  C   UNL     1       9.872  -1.129   5.694  1.00  0.00     0.079 A 
ATOM     10  C   UNL     1       7.431  -1.197   7.043  1.00  0.00     0.015 A 
ATOM     11  C   UNL     1       9.829  -1.488   7.040  1.00  0.00     0.126 A 
ATOM     12  C   UNL     1       8.609  -1.521   7.715  1.00  0.00     0.040 A 
ATOM     13  F   UNL     1       8.751  -0.464   3.725  1.00  0.00    -0.206 F 
ATOM     14  F   UNL     1      10.960  -1.800   7.687  1.00  0.00    -0.207 F 
ENDBRANCH   1   7
BRANCH   4  15
ATOM     15  C   UNL     1       4.970   2.156   2.701  1.00  0.00     0.339 C 
ATOM     16  O   UNL     1       4.147   3.070   2.803  1.00  0.00    -0.246 OA
BRANCH  15  17
ATOM     17  O   UNL     1       5.960   2.172   1.768  1.00  0.00    -0.478 OA
ATOM     18  H   UNL     1       6.701   2.757   2.033  1.00  0.00     0.297 HD
ENDBRANCH  15  17
ENDBRANCH   4  15
BRANCH   5  19
ATOM     19  O   UNL     1       2.723   0.444   3.021  1.00  0.00    -0.507 OA
ATOM     20  H   UNL     1       2.047  -0.211   3.268  1.00  0.00     0.293 HD
ENDBRANCH   5  19
TORSDOF 4
ENDMDL
MODEL 2
REMARK VINA RESULT:    -7.032      1.123      1.606
REMARK INTER + INTRA:          -8.852
REMARK INTER:                  -8.255
REMARK INTRA:                  -0.598
REMARK UNBOUND:                -0.588
REMARK SMILES O=C(O)c1cc(-c2ccc(F)cc2F)ccc1O
REMARK SMILES IDX 6 1 5 2 15 3 4 4 17 5 16 6 7 7 13 8 12 9 8 10 10 11 9 12
REMARK SMILES IDX 14 13 11 14 2 15 1 16 3 17 18 19
REMARK H PARENT 3 18 18 20
ROOT
ATOM      1  C   UNL     1       6.222  -0.503   5.028  1.00  0.00    -0.014 A 
ATOM      2  C   UNL     1       6.173   0.633   4.221  1.00  0.00     0.028 A 
ATOM      3  C   UNL     1       5.096  -1.315   5.159  1.00  0.00     0.013 A 
ATOM      4  C   UNL     1       4.997   0.958   3.545  1.00  0.00     0.102 A 
ATOM      5  C   UNL     1       3.870   0.146   3.676  1.00  0.00     0.130 A 
ATOM      6  C   UNL     1       3.920  -0.991   4.483  1.00  0.00     0.048 A 
ENDROOT
BRANCH   1   7
ATOM      7  C   UNL     1       7.442  -0.840   5.731  1.00  0.00     0.018 A 
ATOM      8  C   UNL     1       7.401  -1.169   7.086  1.00  0.00     0.133 A 
ATOM      9  C   UNL     1       8.579  -1.494   7.760  1.00  0.00     0.079 A 
ATOM     10  C   UNL     1       8.659  -0.837   5.050  1.00  0.00     0.015 A 
ATOM     11  C   UNL     1       9.795  -1.490   7.079  1.00  0.00     0.126 A 
ATOM     12  C   UNL     1       9.835  -1.162   5.724  1.00  0.00     0.040 A 
ATOM     13  F   UNL     1       6.239  -1.175   7.756  1.00  0.00    -0.206 F 
ATOM     14  F   UNL     1      10.926  -1.801   7.725  1.00  0.00    -0.207 F 
ENDBRANCH   1   7
BRANCH   4  15
ATOM     15  C   UNL     1       4.966   2.149   2.707  1.00  0.00     0.339 C 
ATOM     16  O   UNL     1       4.150   3.068   2.803  1.00  0.00    -0.246 OA
BRANCH  15  17
ATOM     17  O   UNL     1       5.958   2.153   1.775  1.00  0.00    -0.478 OA
ATOM     18  H   UNL     1       6.015   3.012   1.306  1.00  0.00     0.297 HD
ENDBRANCH  15  17
ENDBRANCH   4  15
BRANCH   5  19
ATOM     19  O   UNL     1       2.712   0.446   3.023  1.00  0.00    -0.507 OA
ATOM     20  H   UNL     1       2.368  -0.360   2.601  1.00  0.00     0.293 HD
ENDBRANCH   5  19
TORSDOF 4
ENDMDL
MODEL 3
REMARK VINA RESULT:    -7.014      1.703      3.198
REMARK INTER + INTRA:          -8.832
REMARK INTER:                  -8.164
REMARK INTRA:                  -0.668
REMARK UNBOUND:                -0.588
REMARK SMILES O=C(O)c1cc(-c2ccc(F)cc2F)ccc1O
REMARK SMILES IDX 6 1 5 2 15 3 4 4 17 5 16 6 7 7 13 8 12 9 8 10 10 11 9 12
REMARK SMILES IDX 14 13 11 14 2 15 1 16 3 17 18 19
REMARK H PARENT 3 18 18 20
ROOT
ATOM      1  C   UNL     1       6.224  -0.520   5.123  1.00  0.00    -0.014 A 
ATOM      2  C   UNL     1       5.149  -1.396   5.270  1.00  0.00     0.028 A 
ATOM      3  C   UNL     1       6.091   0.620   4.330  1.00  0.00     0.013 A 
ATOM      4  C   UNL     1       3.941  -1.133   4.624  1.00  0.00     0.102 A 
ATOM      5  C   UNL     1       3.809   0.007   3.831  1.00  0.00     0.130 A 
ATOM      6  C   UNL     1       4.884   0.884   3.684  1.00  0.00     0.048 A 
ENDROOT
BRANCH   1   7
ATOM      7  C   UNL     1       7.478  -0.793   5.793  1.00  0.00     0.018 A 
ATOM      8  C   UNL     1       7.490  -1.129   7.147  1.00  0.00     0.133 A 
ATOM      9  C   UNL     1       8.701  -1.391   7.788  1.00  0.00     0.079 A 
ATOM     10  C   UNL     1       8.675  -0.720   5.081  1.00  0.00     0.015 A 
ATOM     11  C   UNL     1       9.898  -1.318   7.076  1.00  0.00     0.126 A 
ATOM     12  C   UNL     1       9.884  -0.982   5.722  1.00  0.00     0.040 A 
ATOM     13  F   UNL     1       6.349  -1.201   7.846  1.00  0.00    -0.206 F 
ATOM     14  F   UNL     1      11.061  -1.569   7.691  1.00  0.00    -0.207 F 
ENDBRANCH   1   7
BRANCH   4  15
ATOM     15  C   UNL     1       2.830  -2.060   4.790  1.00  0.00     0.339 C 
ATOM     16  O   UNL     1       2.112  -2.484   3.881  1.00  0.00    -0.246 OA
BRANCH  15  17
ATOM     17  O   UNL     1       2.654  -2.430   6.087  1.00  0.00    -0.478 OA
ATOM     18  H   UNL     1       3.417  -2.943   6.427  1.00  0.00     0.297 HD
ENDBRANCH  15  17
ENDBRANCH   4  15
BRANCH   5  19
ATOM     19  O   UNL     1       2.637   0.283   3.191  1.00  0.00    -0.507 OA
ATOM     20  H   UNL     1       2.804   0.344   2.235  1.00  0.00     0.293 HD
ENDBRANCH   5  19
TORSDOF 4
ENDMDL
MODEL 4
REMARK VINA RESULT:    -7.001      1.293      2.759
REMARK INTER + INTRA:          -8.816
REMARK INTER:                  -8.149
REMARK INTRA:                  -0.668
REMARK UNBOUND:                -0.588
REMARK SMILES O=C(O)c1cc(-c2ccc(F)cc2F)ccc1O
REMARK SMILES IDX 6 1 5 2 15 3 4 4 17 5 16 6 7 7 13 8 12 9 8 10 10 11 9 12
REMARK SMILES IDX 14 13 11 14 2 15 1 16 3 17 18 19
REMARK H PARENT 3 18 18 20
ROOT
ATOM      1  C   UNL     1       6.232  -0.511   5.094  1.00  0.00    -0.014 A 
ATOM      2  C   UNL     1       5.158  -1.386   5.250  1.00  0.00     0.028 A 
ATOM      3  C   UNL     1       6.094   0.627   4.298  1.00  0.00     0.013 A 
ATOM      4  C   UNL     1       3.945  -1.125   4.610  1.00  0.00     0.102 A 
ATOM      5  C   UNL     1       3.808   0.013   3.815  1.00  0.00     0.130 A 
ATOM      6  C   UNL     1       4.883   0.889   3.659  1.00  0.00     0.048 A 
ENDROOT
BRANCH   1   7
ATOM      7  C   UNL     1       7.490  -0.782   5.755  1.00  0.00     0.018 A 
ATOM      8  C   UNL     1       8.685  -0.727   5.037  1.00  0.00     0.133 A 
ATOM      9  C   UNL     1       9.895  -0.990   5.679  1.00  0.00     0.079 A 
ATOM     10  C   UNL     1       7.505  -1.098   7.114  1.00  0.00     0.015 A 
ATOM     11  C   UNL     1       9.911  -1.307   7.037  1.00  0.00     0.126 A 
ATOM     12  C   UNL     1       8.716  -1.360   7.754  1.00  0.00     0.040 A 
ATOM     13  F   UNL     1       8.687  -0.428   3.731  1.00  0.00    -0.206 F 
ATOM     14  F   UNL     1      11.073  -1.559   7.654  1.00  0.00    -0.207 F 
ENDBRANCH   1   7
BRANCH   4  15
ATOM     15  C   UNL     1       2.836  -2.052   4.786  1.00  0.00     0.339 C 
ATOM     16  O   UNL     1       2.115  -2.482   3.882  1.00  0.00    -0.246 OA
BRANCH  15  17
ATOM     17  O   UNL     1       2.662  -2.412   6.087  1.00  0.00    -0.478 OA
ATOM     18  H   UNL     1       1.838  -2.926   6.216  1.00  0.00     0.297 HD
ENDBRANCH  15  17
ENDBRANCH   4  15
BRANCH   5  19
ATOM     19  O   UNL     1       2.632   0.287   3.182  1.00  0.00    -0.507 OA
ATOM     20  H   UNL     1       2.452   1.241   3.247  1.00  0.00     0.293 HD
ENDBRANCH   5  19
TORSDOF 4
ENDMDL
MODEL 5
REMARK VINA RESULT:    -5.372      1.884      3.161
REMARK INTER + INTRA:          -6.902
REMARK INTER:                  -6.381
REMARK INTRA:                  -0.520
REMARK UNBOUND:                -0.588
REMARK SMILES O=C(O)c1cc(-c2ccc(F)cc2F)ccc1O
REMARK SMILES IDX 6 1 5 2 15 3 4 4 17 5 16 6 7 7 13 8 12 9 8 10 10 11 9 12
REMARK SMILES IDX 14 13 11 14 2 15 1 16 3 17 18 19
REMARK H PARENT 3 18 18 20
ROOT
ATOM      1  C   UNL     1       6.717  -0.514   5.566  1.00  0.00    -0.014 A 
ATOM      2  C   UNL     1       5.680  -1.416   5.796  1.00  0.00     0.028 A 
ATOM      3  C   UNL     1       6.510   0.590   4.738  1.00  0.00     0.013 A 
ATOM      4  C   UNL     1       4.435  -1.217   5.199  1.00  0.00     0.102 A 
ATOM      5  C   UNL     1       4.228  -0.113   4.371  1.00  0.00     0.130 A 
ATOM      6  C   UNL     1       5.266   0.790   4.140  1.00  0.00     0.048 A 
ENDROOT
BRANCH   1   7
ATOM      7  C   UNL     1       8.009  -0.721   6.184  1.00  0.00     0.018 A 
ATOM      8  C   UNL     1       8.518  -2.012   6.325  1.00  0.00     0.133 A 
ATOM      9  C   UNL     1       9.764  -2.208   6.922  1.00  0.00     0.079 A 
ATOM     10  C   UNL     1       8.745   0.373   6.637  1.00  0.00     0.015 A 
ATOM     11  C   UNL     1      10.500  -1.114   7.376  1.00  0.00     0.126 A 
ATOM     12  C   UNL     1       9.990   0.177   7.233  1.00  0.00     0.040 A 
ATOM     13  F   UNL     1       7.822  -3.075   5.897  1.00  0.00    -0.206 F 
ATOM     14  F   UNL     1      11.695  -1.301   7.949  1.00  0.00    -0.207 F 
ENDBRANCH   1   7
BRANCH   4  15
ATOM     15  C   UNL     1       3.364  -2.171   5.452  1.00  0.00     0.339 C 
ATOM     16  O   UNL     1       3.419  -3.382   5.225  1.00  0.00    -0.246 OA
BRANCH  15  17
ATOM     17  O   UNL     1       2.259  -1.581   5.984  1.00  0.00    -0.478 OA
ATOM     18  H   UNL     1       1.438  -1.875   5.537  1.00  0.00     0.297 HD
ENDBRANCH  15  17
ENDBRANCH   4  15
BRANCH   5  19
ATOM     19  O   UNL     1       3.019   0.101   3.778  1.00  0.00    -0.507 OA
ATOM     20  H   UNL     1       2.982  -0.398   2.943  1.00  0.00     0.293 HD
ENDBRANCH   5  19
TORSDOF 4
ENDMDL
MODEL 6
REMARK VINA RESULT:    -5.184      4.057      6.286
REMARK INTER + INTRA:          -6.681
REMARK INTER:                  -5.597
REMARK INTRA:                  -1.084
REMARK UNBOUND:                -0.588
REMARK SMILES O=C(O)c1cc(-c2ccc(F)cc2F)ccc1O
REMARK SMILES IDX 6 1 5 2 15 3 4 4 17 5 16 6 7 7 13 8 12 9 8 10 10 11 9 12
REMARK SMILES IDX 14 13 11 14 2 15 1 16 3 17 18 19
REMARK H PARENT 3 18 18 20
ROOT
ATOM      1  C   UNL     1       8.533  -0.881   6.107  1.00  0.00    -0.014 A 
ATOM      2  C   UNL     1       9.404   0.067   6.643  1.00  0.00     0.028 A 
ATOM      3  C   UNL     1       8.784  -2.241   6.288  1.00  0.00     0.013 A 
ATOM      4  C   UNL     1      10.527  -0.345   7.360  1.00  0.00     0.102 A 
ATOM      5  C   UNL     1      10.779  -1.705   7.541  1.00  0.00     0.130 A 
ATOM      6  C   UNL     1       9.907  -2.653   7.005  1.00  0.00     0.048 A 
ENDROOT
BRANCH   1   7
ATOM      7  C   UNL     1       7.368  -0.455   5.361  1.00  0.00     0.018 A 
ATOM      8  C   UNL     1       7.462  -0.219   3.989  1.00  0.00     0.133 A 
ATOM      9  C   UNL     1       6.337   0.192   3.274  1.00  0.00     0.079 A 
ATOM     10  C   UNL     1       6.150  -0.280   6.017  1.00  0.00     0.015 A 
ATOM     11  C   UNL     1       5.119   0.367   3.930  1.00  0.00     0.126 A 
ATOM     12  C   UNL     1       5.026   0.130   5.302  1.00  0.00     0.040 A 
ATOM     13  F   UNL     1       8.626  -0.380   3.344  1.00  0.00    -0.206 F 
ATOM     14  F   UNL     1       4.038   0.761   3.244  1.00  0.00    -0.207 F 
ENDBRANCH   1   7
BRANCH   4  15
ATOM     15  C   UNL     1      11.425   0.661   7.913  1.00  0.00     0.339 C 
ATOM     16  O   UNL     1      12.383   0.432   8.654  1.00  0.00    -0.246 OA
BRANCH  15  17
ATOM     17  O   UNL     1      11.096   1.921   7.518  1.00  0.00    -0.478 OA
ATOM     18  H   UNL     1      11.850   2.377   7.088  1.00  0.00     0.297 HD
ENDBRANCH  15  17
ENDBRANCH   4  15
BRANCH   5  19
ATOM     19  O   UNL     1      11.870  -2.128   8.240  1.00  0.00    -0.507 OA
ATOM     20  H   UNL     1      12.291  -2.861   7.758  1.00  0.00     0.293 HD
ENDBRANCH   5  19
TORSDOF 4
ENDMDL
MODEL 7
REMARK VINA RESULT:    -5.176      4.584      6.909
REMARK INTER + INTRA:          -6.672
REMARK INTER:                  -5.588
REMARK INTRA:                  -1.084
REMARK UNBOUND:                -0.588
REMARK SMILES O=C(O)c1cc(-c2ccc(F)cc2F)ccc1O
REMARK SMILES IDX 6 1 5 2 15 3 4 4 17 5 16 6 7 7 13 8 12 9 8 10 10 11 9 12
REMARK SMILES IDX 14 13 11 14 2 15 1 16 3 17 18 19
REMARK H PARENT 3 18 18 20
ROOT
ATOM      1  C   UNL     1       8.295  -1.217   6.379  1.00  0.00    -0.014 A 
ATOM      2  C   UNL     1       8.763  -2.513   6.589  1.00  0.00     0.028 A 
ATOM      3  C   UNL     1       9.069  -0.124   6.769  1.00  0.00     0.013 A 
ATOM      4  C   UNL     1      10.006  -2.718   7.190  1.00  0.00     0.102 A 
ATOM      5  C   UNL     1      10.780  -1.625   7.580  1.00  0.00     0.130 A 
ATOM      6  C   UNL     1      10.311  -0.327   7.369  1.00  0.00     0.048 A 
ENDROOT
BRANCH   1   7
ATOM      7  C   UNL     1       7.006  -1.004   5.757  1.00  0.00     0.018 A 
ATOM      8  C   UNL     1       5.850  -0.965   6.537  1.00  0.00     0.133 A 
ATOM      9  C   UNL     1       4.609  -0.760   5.934  1.00  0.00     0.079 A 
ATOM     10  C   UNL     1       6.921  -0.837   4.375  1.00  0.00     0.015 A 
ATOM     11  C   UNL     1       4.524  -0.594   4.552  1.00  0.00     0.126 A 
ATOM     12  C   UNL     1       5.680  -0.632   3.773  1.00  0.00     0.040 A 
ATOM     13  F   UNL     1       5.914  -1.126   7.867  1.00  0.00    -0.206 F 
ATOM     14  F   UNL     1       3.333  -0.396   3.972  1.00  0.00    -0.207 F 
ENDBRANCH   1   7
BRANCH   4  15
ATOM     15  C   UNL     1      10.477  -4.079   7.401  1.00  0.00     0.339 C 
ATOM     16  O   UNL     1      11.600  -4.392   7.803  1.00  0.00    -0.246 OA
BRANCH  15  17
ATOM     17  O   UNL     1       9.528  -5.008   7.103  1.00  0.00    -0.478 OA
ATOM     18  H   UNL     1       9.896  -5.917   7.099  1.00  0.00     0.297 HD
ENDBRANCH  15  17
ENDBRANCH   4  15
BRANCH   5  19
ATOM     19  O   UNL     1      11.997  -1.803   8.168  1.00  0.00    -0.507 OA
ATOM     20  H   UNL     1      12.277  -0.966   8.577  1.00  0.00     0.293 HD
ENDBRANCH   5  19
TORSDOF 4
ENDMDL
MODEL 8
REMARK VINA RESULT:    -5.106      1.221      1.490
REMARK INTER + INTRA:          -6.589
REMARK INTER:                  -5.854
REMARK INTRA:                  -0.735
REMARK UNBOUND:                -0.588
REMARK SMILES O=C(O)c1cc(-c2ccc(F)cc2F)ccc1O
REMARK SMILES IDX 6 1 5 2 15 3 4 4 17 5 16 6 7 7 13 8 12 9 8 10 10 11 9 12
REMARK SMILES IDX 14 13 11 14 2 15 1 16 3 17 18 19
REMARK H PARENT 3 18 18 20
ROOT
ATOM      1  C   UNL     1       6.660  -0.613   5.572  1.00  0.00    -0.014 A 
ATOM      2  C   UNL     1       6.635   0.363   4.577  1.00  0.00     0.028 A 
ATOM      3  C   UNL     1       5.474  -1.228   5.975  1.00  0.00     0.013 A 
ATOM      4  C   UNL     1       5.425   0.726   3.984  1.00  0.00     0.102 A 
ATOM      5  C   UNL     1       4.240   0.111   4.387  1.00  0.00     0.130 A 
ATOM      6  C   UNL     1       4.264  -0.866   5.383  1.00  0.00     0.048 A 
ENDROOT
BRANCH   1   7
ATOM      7  C   UNL     1       7.914  -0.989   6.188  1.00  0.00     0.018 A 
ATOM      8  C   UNL     1       8.784  -0.006   6.661  1.00  0.00     0.133 A 
ATOM      9  C   UNL     1       9.992  -0.372   7.254  1.00  0.00     0.079 A 
ATOM     10  C   UNL     1       8.252  -2.336   6.308  1.00  0.00     0.015 A 
ATOM     11  C   UNL     1      10.330  -1.720   7.374  1.00  0.00     0.126 A 
ATOM     12  C   UNL     1       9.460  -2.702   6.901  1.00  0.00     0.040 A 
ATOM     13  F   UNL     1       8.475   1.294   6.551  1.00  0.00    -0.206 F 
ATOM     14  F   UNL     1      11.490  -2.072   7.943  1.00  0.00    -0.207 F 
ENDBRANCH   1   7
BRANCH   4  15
ATOM     15  C   UNL     1       5.421   1.748   2.947  1.00  0.00     0.339 C 
ATOM     16  O   UNL     1       6.240   1.837   2.029  1.00  0.00    -0.246 OA
BRANCH  15  17
ATOM     17  O   UNL     1       4.391   2.626   3.088  1.00  0.00    -0.478 OA
ATOM     18  H   UNL     1       4.435   3.350   2.428  1.00  0.00     0.297 HD
ENDBRANCH  15  17
ENDBRANCH   4  15
BRANCH   5  19
ATOM     19  O   UNL     1       3.047   0.450   3.821  1.00  0.00    -0.507 OA
ATOM     20  H   UNL     1       3.050   0.176   2.887  1.00  0.00     0.293 HD
ENDBRANCH   5  19
TORSDOF 4
ENDMDL
