MODEL 1
REMARK VINA RESULT:    -5.335      0.000      0.000
REMARK INTER + INTRA:          -7.355
REMARK INTER:                  -6.582
REMARK INTRA:                  -0.773
REMARK UNBOUND:                -0.773
REMARK SMILES Cc1ccc(C(=O)c2cc(O)c(O)c([N+](=O)[O-])c2)cc1
REMARK SMILES IDX 8 1 18 2 9 3 14 4 10 5 12 6 6 7 7 8 5 9 4 10 19 11 3 12
REMARK SMILES IDX 20 13 2 14 1 15 15 16 17 17 16 18 11 19 13 21
REMARK H PARENT 11 20 13 22
ROOT
ATOM      1  C   UNL     1      -3.909   2.753  -6.089  1.00  0.00     0.033 A 
ATOM      2  C   UNL     1      -4.866   2.103  -5.346  1.00  0.00     0.102 A 
ATOM      3  C   UNL     1      -2.630   2.971  -5.633  1.00  0.00     0.063 A 
ATOM      4  C   UNL     1      -4.525   1.643  -4.074  1.00  0.00     0.315 A 
ATOM      5  C   UNL     1      -2.289   2.512  -4.361  1.00  0.00     0.165 A 
ATOM      6  C   UNL     1      -3.236   1.847  -3.581  1.00  0.00     0.237 A 
ENDROOT
BRANCH   1   7
ATOM      7  C   UNL     1      -4.274   3.246  -7.452  1.00  0.00     0.193 C 
ATOM      8  O   UNL     1      -3.413   3.157  -8.339  1.00  0.00    -0.289 OA
BRANCH   7   9
ATOM      9  C   UNL     1      -5.580   3.811  -7.752  1.00  0.00     0.023 A 
ATOM     10  C   UNL     1      -5.769   5.193  -7.706  1.00  0.00     0.012 A 
ATOM     11  C   UNL     1      -6.643   2.973  -8.085  1.00  0.00     0.012 A 
ATOM     12  C   UNL     1      -7.022   5.734  -7.995  1.00  0.00     0.004 A 
ATOM     13  C   UNL     1      -7.897   3.514  -8.374  1.00  0.00     0.004 A 
ATOM     14  C   UNL     1      -8.086   4.896  -8.329  1.00  0.00    -0.051 A 
ATOM     15  C   UNL     1      -9.425   5.475  -8.635  1.00  0.00     0.044 C 
ENDBRANCH   7   9
ENDBRANCH   1   7
BRANCH   4  16
ATOM     16  N   UNL     1      -5.504   0.969  -3.294  1.00  0.00     0.066 N 
ATOM     17  O   UNL     1      -6.297   0.182  -3.865  1.00  0.00    -0.258 OA
ATOM     18  O   UNL     1      -5.546   1.180  -2.060  1.00  0.00    -0.258 OA
ENDBRANCH   4  16
BRANCH   5  19
ATOM     19  O   UNL     1      -1.026   2.717  -3.893  1.00  0.00    -0.504 OA
ATOM     20  H   UNL     1      -0.605   1.862  -3.704  1.00  0.00     0.293 HD
ENDBRANCH   5  19
BRANCH   6  21
ATOM     21  O   UNL     1      -2.890   1.402  -2.339  1.00  0.00    -0.500 OA
ATOM     22  H   UNL     1      -3.274   1.984  -1.665  1.00  0.00     0.294 HD
ENDBRANCH   6  21
TORSDOF 5
ENDMDL
MODEL 2
REMARK VINA RESULT:    -5.326      2.047      3.570
REMARK INTER + INTRA:          -7.344
REMARK INTER:                  -6.585
REMARK INTRA:                  -0.759
REMARK UNBOUND:                -0.773
REMARK SMILES Cc1ccc(C(=O)c2cc(O)c(O)c([N+](=O)[O-])c2)cc1
REMARK SMILES IDX 8 1 18 2 9 3 14 4 10 5 12 6 6 7 7 8 5 9 4 10 19 11 3 12
REMARK SMILES IDX 20 13 2 14 1 15 15 16 17 17 16 18 11 19 13 21
REMARK H PARENT 11 20 13 22
ROOT
ATOM      1  C   UNL     1      -5.327   3.242  -5.038  1.00  0.00     0.033 A 
ATOM      2  C   UNL     1      -3.988   3.549  -5.106  1.00  0.00     0.102 A 
ATOM      3  C   UNL     1      -5.843   2.345  -4.134  1.00  0.00     0.063 A 
ATOM      4  C   UNL     1      -3.115   2.923  -4.216  1.00  0.00     0.315 A 
ATOM      5  C   UNL     1      -4.970   1.718  -3.244  1.00  0.00     0.165 A 
ATOM      6  C   UNL     1      -3.605   2.007  -3.285  1.00  0.00     0.237 A 
ENDROOT
BRANCH   1   7
ATOM      7  C   UNL     1      -6.263   3.913  -5.991  1.00  0.00     0.193 C 
ATOM      8  O   UNL     1      -7.384   4.224  -5.563  1.00  0.00    -0.289 OA
BRANCH   7   9
ATOM      9  C   UNL     1      -5.898   4.201  -7.369  1.00  0.00     0.023 A 
ATOM     10  C   UNL     1      -6.261   3.317  -8.386  1.00  0.00     0.012 A 
ATOM     11  C   UNL     1      -5.186   5.360  -7.674  1.00  0.00     0.012 A 
ATOM     12  C   UNL     1      -5.911   3.594  -9.707  1.00  0.00     0.004 A 
ATOM     13  C   UNL     1      -4.836   5.638  -8.996  1.00  0.00     0.004 A 
ATOM     14  C   UNL     1      -5.199   4.755 -10.013  1.00  0.00    -0.051 A 
ATOM     15  C   UNL     1      -4.824   5.049 -11.426  1.00  0.00     0.044 C 
ENDBRANCH   7   9
ENDBRANCH   1   7
BRANCH   4  16
ATOM     16  N   UNL     1      -1.728   3.230  -4.273  1.00  0.00     0.066 N 
ATOM     17  O   UNL     1      -1.378   4.416  -4.489  1.00  0.00    -0.258 OA
ATOM     18  O   UNL     1      -0.896   2.309  -4.105  1.00  0.00    -0.258 OA
ENDBRANCH   4  16
BRANCH   5  19
ATOM     19  O   UNL     1      -5.463   0.826  -2.340  1.00  0.00    -0.504 OA
ATOM     20  H   UNL     1      -5.928   1.303  -1.633  1.00  0.00     0.293 HD
ENDBRANCH   5  19
BRANCH   6  21
ATOM     21  O   UNL     1      -2.761   1.388  -2.410  1.00  0.00    -0.500 OA
ATOM     22  H   UNL     1      -2.563   1.984  -1.671  1.00  0.00     0.294 HD
ENDBRANCH   6  21
TORSDOF 5
ENDMDL
MODEL 3
REMARK VINA RESULT:    -4.561      3.582      4.522
REMARK INTER + INTRA:          -6.401
REMARK INTER:                  -5.443
REMARK INTRA:                  -0.958
REMARK UNBOUND:                -0.773
REMARK SMILES Cc1ccc(C(=O)c2cc(O)c(O)c([N+](=O)[O-])c2)cc1
REMARK SMILES IDX 8 1 18 2 9 3 14 4 10 5 12 6 6 7 7 8 5 9 4 10 19 11 3 12
REMARK SMILES IDX 20 13 2 14 1 15 15 16 17 17 16 18 11 19 13 21
REMARK H PARENT 11 20 13 22
ROOT
ATOM      1  C   UNL     1      -5.454   5.089  -7.991  1.00  0.00     0.033 A 
ATOM      2  C   UNL     1      -5.287   3.941  -7.252  1.00  0.00     0.102 A 
ATOM      3  C   UNL     1      -4.871   6.287  -7.650  1.00  0.00     0.063 A 
ATOM      4  C   UNL     1      -4.491   3.994  -6.107  1.00  0.00     0.315 A 
ATOM      5  C   UNL     1      -4.076   6.340  -6.505  1.00  0.00     0.165 A 
ATOM      6  C   UNL     1      -3.886   5.193  -5.734  1.00  0.00     0.237 A 
ENDROOT
BRANCH   1   7
ATOM      7  C   UNL     1      -6.306   5.032  -9.217  1.00  0.00     0.193 C 
ATOM      8  O   UNL     1      -7.535   5.070  -9.057  1.00  0.00    -0.289 OA
BRANCH   7   9
ATOM      9  C   UNL     1      -5.743   4.938 -10.554  1.00  0.00     0.023 A 
ATOM     10  C   UNL     1      -4.799   3.952 -10.846  1.00  0.00     0.012 A 
ATOM     11  C   UNL     1      -6.146   5.832 -11.545  1.00  0.00     0.012 A 
ATOM     12  C   UNL     1      -4.260   3.862 -12.128  1.00  0.00     0.004 A 
ATOM     13  C   UNL     1      -5.606   5.742 -12.829  1.00  0.00     0.004 A 
ATOM     14  C   UNL     1      -4.663   4.756 -13.121  1.00  0.00    -0.051 A 
ATOM     15  C   UNL     1      -4.085   4.660 -14.491  1.00  0.00     0.044 C 
ENDBRANCH   7   9
ENDBRANCH   1   7
BRANCH   4  16
ATOM     16  N   UNL     1      -4.309   2.815  -5.333  1.00  0.00     0.066 N 
ATOM     17  O   UNL     1      -4.317   2.904  -4.082  1.00  0.00    -0.258 OA
ATOM     18  O   UNL     1      -4.148   1.722  -5.924  1.00  0.00    -0.258 OA
ENDBRANCH   4  16
BRANCH   5  19
ATOM     19  O   UNL     1      -3.491   7.519  -6.152  1.00  0.00    -0.504 OA
ATOM     20  H   UNL     1      -2.815   7.356  -5.474  1.00  0.00     0.293 HD
ENDBRANCH   5  19
BRANCH   6  21
ATOM     21  O   UNL     1      -3.105   5.258  -4.616  1.00  0.00    -0.500 OA
ATOM     22  H   UNL     1      -2.905   4.361  -4.306  1.00  0.00     0.294 HD
ENDBRANCH   6  21
TORSDOF 5
ENDMDL
MODEL 4
REMARK VINA RESULT:    -4.525      2.389      4.163
REMARK INTER + INTRA:          -6.356
REMARK INTER:                  -5.411
REMARK INTRA:                  -0.945
REMARK UNBOUND:                -0.773
REMARK SMILES Cc1ccc(C(=O)c2cc(O)c(O)c([N+](=O)[O-])c2)cc1
REMARK SMILES IDX 8 1 18 2 9 3 14 4 10 5 12 6 6 7 7 8 5 9 4 10 19 11 3 12
REMARK SMILES IDX 20 13 2 14 1 15 15 16 17 17 16 18 11 19 13 21
REMARK H PARENT 11 20 13 22
ROOT
ATOM      1  C   UNL     1      -6.619   3.518  -8.279  1.00  0.00     0.033 A 
ATOM      2  C   UNL     1      -5.723   3.800  -7.274  1.00  0.00     0.102 A 
ATOM      3  C   UNL     1      -7.162   2.269  -8.466  1.00  0.00     0.063 A 
ATOM      4  C   UNL     1      -5.350   2.774  -6.406  1.00  0.00     0.315 A 
ATOM      5  C   UNL     1      -6.788   1.242  -7.599  1.00  0.00     0.165 A 
ATOM      6  C   UNL     1      -5.882   1.495  -6.568  1.00  0.00     0.237 A 
ENDROOT
BRANCH   1   7
ATOM      7  C   UNL     1      -7.019   4.617  -9.209  1.00  0.00     0.193 C 
ATOM      8  O   UNL     1      -6.240   4.891 -10.134  1.00  0.00    -0.289 OA
BRANCH   7   9
ATOM      9  C   UNL     1      -8.265   5.351  -9.057  1.00  0.00     0.023 A 
ATOM     10  C   UNL     1      -9.099   5.545 -10.159  1.00  0.00     0.012 A 
ATOM     11  C   UNL     1      -8.627   5.862  -7.811  1.00  0.00     0.012 A 
ATOM     12  C   UNL     1     -10.294   6.249 -10.013  1.00  0.00     0.004 A 
ATOM     13  C   UNL     1      -9.823   6.566  -7.665  1.00  0.00     0.004 A 
ATOM     14  C   UNL     1     -10.656   6.760  -8.766  1.00  0.00    -0.051 A 
ATOM     15  C   UNL     1     -11.933   7.514  -8.612  1.00  0.00     0.044 C 
ENDBRANCH   7   9
ENDBRANCH   1   7
BRANCH   4  16
ATOM     16  N   UNL     1      -4.425   3.050  -5.362  1.00  0.00     0.066 N 
ATOM     17  O   UNL     1      -4.502   4.147  -4.758  1.00  0.00    -0.258 OA
ATOM     18  O   UNL     1      -3.560   2.189  -5.076  1.00  0.00    -0.258 OA
ENDBRANCH   4  16
BRANCH   5  19
ATOM     19  O   UNL     1      -7.316  -0.002  -7.769  1.00  0.00    -0.504 OA
ATOM     20  H   UNL     1      -6.970  -0.599  -7.085  1.00  0.00     0.293 HD
ENDBRANCH   5  19
BRANCH   6  21
ATOM     21  O   UNL     1      -5.524   0.482  -5.726  1.00  0.00    -0.500 OA
ATOM     22  H   UNL     1      -6.012  -0.323  -5.959  1.00  0.00     0.294 HD
ENDBRANCH   6  21
TORSDOF 5
ENDMDL
MODEL 5
REMARK VINA RESULT:    -4.428      3.509      7.179
REMARK INTER + INTRA:          -6.237
REMARK INTER:                  -5.310
REMARK INTRA:                  -0.927
REMARK UNBOUND:                -0.773
REMARK SMILES Cc1ccc(C(=O)c2cc(O)c(O)c([N+](=O)[O-])c2)cc1
REMARK SMILES IDX 8 1 18 2 9 3 14 4 10 5 12 6 6 7 7 8 5 9 4 10 19 11 3 12
REMARK SMILES IDX 20 13 2 14 1 15 15 16 17 17 16 18 11 19 13 21
REMARK H PARENT 11 20 13 22
ROOT
ATOM      1  C   UNL     1      -6.543   3.629  -8.198  1.00  0.00     0.033 A 
ATOM      2  C   UNL     1      -5.753   4.005  -9.259  1.00  0.00     0.102 A 
ATOM      3  C   UNL     1      -7.835   4.070  -8.035  1.00  0.00     0.063 A 
ATOM      4  C   UNL     1      -6.287   4.872 -10.213  1.00  0.00     0.315 A 
ATOM      5  C   UNL     1      -8.369   4.937  -8.989  1.00  0.00     0.165 A 
ATOM      6  C   UNL     1      -7.594   5.338 -10.079  1.00  0.00     0.237 A 
ENDROOT
BRANCH   1   7
ATOM      7  C   UNL     1      -5.972   2.701  -7.175  1.00  0.00     0.193 C 
ATOM      8  O   UNL     1      -6.591   1.650  -6.952  1.00  0.00    -0.289 OA
BRANCH   7   9
ATOM      9  C   UNL     1      -4.742   2.994  -6.458  1.00  0.00     0.023 A 
ATOM     10  C   UNL     1      -3.777   2.000  -6.292  1.00  0.00     0.012 A 
ATOM     11  C   UNL     1      -4.526   4.269  -5.935  1.00  0.00     0.012 A 
ATOM     12  C   UNL     1      -2.597   2.281  -5.604  1.00  0.00     0.004 A 
ATOM     13  C   UNL     1      -3.345   4.551  -5.246  1.00  0.00     0.004 A 
ATOM     14  C   UNL     1      -2.381   3.557  -5.081  1.00  0.00    -0.051 A 
ATOM     15  C   UNL     1      -1.120   3.856  -4.344  1.00  0.00     0.044 C 
ENDBRANCH   7   9
ENDBRANCH   1   7
BRANCH   4  16
ATOM     16  N   UNL     1      -5.482   5.269 -11.316  1.00  0.00     0.066 N 
ATOM     17  O   UNL     1      -4.242   5.367 -11.157  1.00  0.00    -0.258 OA
ATOM     18  O   UNL     1      -6.036   5.509 -12.414  1.00  0.00    -0.258 OA
ENDBRANCH   4  16
BRANCH   5  19
ATOM     19  O   UNL     1      -9.648   5.384  -8.845  1.00  0.00    -0.504 OA
ATOM     20  H   UNL     1     -10.262   4.633  -8.897  1.00  0.00     0.293 HD
ENDBRANCH   5  19
BRANCH   6  21
ATOM     21  O   UNL     1      -8.128   6.186 -11.006  1.00  0.00    -0.500 OA
ATOM     22  H   UNL     1      -7.479   6.351 -11.707  1.00  0.00     0.294 HD
ENDBRANCH   6  21
TORSDOF 5
ENDMDL
MODEL 6
REMARK VINA RESULT:    -4.424      1.251      2.678
REMARK INTER + INTRA:          -6.232
REMARK INTER:                  -5.553
REMARK INTRA:                  -0.679
REMARK UNBOUND:                -0.773
REMARK SMILES Cc1ccc(C(=O)c2cc(O)c(O)c([N+](=O)[O-])c2)cc1
REMARK SMILES IDX 8 1 18 2 9 3 14 4 10 5 12 6 6 7 7 8 5 9 4 10 19 11 3 12
REMARK SMILES IDX 20 13 2 14 1 15 15 16 17 17 16 18 11 19 13 21
REMARK H PARENT 11 20 13 22
ROOT
ATOM      1  C   UNL     1      -4.339   2.952  -6.394  1.00  0.00     0.033 A 
ATOM      2  C   UNL     1      -3.094   3.255  -5.893  1.00  0.00     0.102 A 
ATOM      3  C   UNL     1      -5.234   2.147  -5.732  1.00  0.00     0.063 A 
ATOM      4  C   UNL     1      -2.725   2.723  -4.658  1.00  0.00     0.315 A 
ATOM      5  C   UNL     1      -4.865   1.614  -4.497  1.00  0.00     0.165 A 
ATOM      6  C   UNL     1      -3.610   1.902  -3.959  1.00  0.00     0.237 A 
ENDROOT
BRANCH   1   7
ATOM      7  C   UNL     1      -4.735   3.522  -7.718  1.00  0.00     0.193 C 
ATOM      8  O   UNL     1      -3.893   3.485  -8.628  1.00  0.00    -0.289 OA
BRANCH   7   9
ATOM      9  C   UNL     1      -6.046   4.102  -7.956  1.00  0.00     0.023 A 
ATOM     10  C   UNL     1      -6.226   5.482  -7.861  1.00  0.00     0.012 A 
ATOM     11  C   UNL     1      -7.125   3.279  -8.280  1.00  0.00     0.012 A 
ATOM     12  C   UNL     1      -7.484   6.039  -8.090  1.00  0.00     0.004 A 
ATOM     13  C   UNL     1      -8.384   3.835  -8.509  1.00  0.00     0.004 A 
ATOM     14  C   UNL     1      -8.564   5.216  -8.414  1.00  0.00    -0.051 A 
ATOM     15  C   UNL     1      -9.909   5.811  -8.657  1.00  0.00     0.044 C 
ENDBRANCH   7   9
ENDBRANCH   1   7
BRANCH   4  16
ATOM     16  N   UNL     1      -1.442   3.028  -4.126  1.00  0.00     0.066 N 
ATOM     17  O   UNL     1      -0.648   2.088  -3.882  1.00  0.00    -0.258 OA
ATOM     18  O   UNL     1      -1.142   4.227  -3.919  1.00  0.00    -0.258 OA
ENDBRANCH   4  16
BRANCH   5  19
ATOM     19  O   UNL     1      -5.740   0.814  -3.825  1.00  0.00    -0.504 OA
ATOM     20  H   UNL     1      -5.805   1.106  -2.901  1.00  0.00     0.293 HD
ENDBRANCH   5  19
BRANCH   6  21
ATOM     21  O   UNL     1      -3.260   1.376  -2.750  1.00  0.00    -0.500 OA
ATOM     22  H   UNL     1      -3.231   0.408  -2.812  1.00  0.00     0.294 HD
ENDBRANCH   6  21
TORSDOF 5
ENDMDL
MODEL 7
REMARK VINA RESULT:    -4.415      3.637      6.458
REMARK INTER + INTRA:          -6.221
REMARK INTER:                  -5.312
REMARK INTRA:                  -0.909
REMARK UNBOUND:                -0.773
REMARK SMILES Cc1ccc(C(=O)c2cc(O)c(O)c([N+](=O)[O-])c2)cc1
REMARK SMILES IDX 8 1 18 2 9 3 14 4 10 5 12 6 6 7 7 8 5 9 4 10 19 11 3 12
REMARK SMILES IDX 20 13 2 14 1 15 15 16 17 17 16 18 11 19 13 21
REMARK H PARENT 11 20 13 22
ROOT
ATOM      1  C   UNL     1      -5.469   4.974  -8.034  1.00  0.00     0.033 A 
ATOM      2  C   UNL     1      -6.838   5.108  -8.054  1.00  0.00     0.102 A 
ATOM      3  C   UNL     1      -4.696   5.038  -9.168  1.00  0.00     0.063 A 
ATOM      4  C   UNL     1      -7.469   5.318  -9.280  1.00  0.00     0.315 A 
ATOM      5  C   UNL     1      -5.327   5.248 -10.395  1.00  0.00     0.165 A 
ATOM      6  C   UNL     1      -6.714   5.389 -10.450  1.00  0.00     0.237 A 
ENDROOT
BRANCH   1   7
ATOM      7  C   UNL     1      -4.793   4.749  -6.721  1.00  0.00     0.193 C 
ATOM      8  O   UNL     1      -3.911   5.555  -6.389  1.00  0.00    -0.289 OA
BRANCH   7   9
ATOM      9  C   UNL     1      -5.135   3.637  -5.848  1.00  0.00     0.023 A 
ATOM     10  C   UNL     1      -5.241   3.838  -4.472  1.00  0.00     0.012 A 
ATOM     11  C   UNL     1      -5.359   2.370  -6.387  1.00  0.00     0.012 A 
ATOM     12  C   UNL     1      -5.570   2.772  -3.635  1.00  0.00     0.004 A 
ATOM     13  C   UNL     1      -5.688   1.303  -5.550  1.00  0.00     0.004 A 
ATOM     14  C   UNL     1      -5.794   1.504  -4.174  1.00  0.00    -0.051 A 
ATOM     15  C   UNL     1      -6.144   0.364  -3.279  1.00  0.00     0.044 C 
ENDBRANCH   7   9
ENDBRANCH   1   7
BRANCH   4  16
ATOM     16  N   UNL     1      -8.884   5.459  -9.317  1.00  0.00     0.066 N 
ATOM     17  O   UNL     1      -9.398   6.184 -10.202  1.00  0.00    -0.258 OA
ATOM     18  O   UNL     1      -9.575   4.853  -8.465  1.00  0.00    -0.258 OA
ENDBRANCH   4  16
BRANCH   5  19
ATOM     19  O   UNL     1      -4.577   5.315 -11.530  1.00  0.00    -0.504 OA
ATOM     20  H   UNL     1      -4.774   4.551 -12.096  1.00  0.00     0.293 HD
ENDBRANCH   5  19
BRANCH   6  21
ATOM     21  O   UNL     1      -7.320   5.594 -11.656  1.00  0.00    -0.500 OA
ATOM     22  H   UNL     1      -7.518   4.741 -12.071  1.00  0.00     0.294 HD
ENDBRANCH   6  21
TORSDOF 5
ENDMDL
MODEL 8
REMARK VINA RESULT:    -4.404      1.961      2.552
REMARK INTER + INTRA:          -6.207
REMARK INTER:                  -5.525
REMARK INTRA:                  -0.682
REMARK UNBOUND:                -0.773
REMARK SMILES Cc1ccc(C(=O)c2cc(O)c(O)c([N+](=O)[O-])c2)cc1
REMARK SMILES IDX 8 1 18 2 9 3 14 4 10 5 12 6 6 7 7 8 5 9 4 10 19 11 3 12
REMARK SMILES IDX 20 13 2 14 1 15 15 16 17 17 16 18 11 19 13 21
REMARK H PARENT 11 20 13 22
ROOT
ATOM      1  C   UNL     1      -5.345   3.462  -5.581  1.00  0.00     0.033 A 
ATOM      2  C   UNL     1      -5.839   2.487  -4.747  1.00  0.00     0.102 A 
ATOM      3  C   UNL     1      -4.046   3.907  -5.523  1.00  0.00     0.063 A 
ATOM      4  C   UNL     1      -4.984   1.924  -3.800  1.00  0.00     0.315 A 
ATOM      5  C   UNL     1      -3.190   3.344  -4.575  1.00  0.00     0.165 A 
ATOM      6  C   UNL     1      -3.659   2.351  -3.714  1.00  0.00     0.237 A 
ENDROOT
BRANCH   1   7
ATOM      7  C   UNL     1      -6.261   4.066  -6.596  1.00  0.00     0.193 C 
ATOM      8  O   UNL     1      -7.406   4.364  -6.222  1.00  0.00    -0.289 OA
BRANCH   7   9
ATOM      9  C   UNL     1      -5.853   4.305  -7.971  1.00  0.00     0.023 A 
ATOM     10  C   UNL     1      -6.166   3.375  -8.963  1.00  0.00     0.012 A 
ATOM     11  C   UNL     1      -5.149   5.463  -8.298  1.00  0.00     0.012 A 
ATOM     12  C   UNL     1      -5.775   3.604 -10.282  1.00  0.00     0.004 A 
ATOM     13  C   UNL     1      -4.757   5.693  -9.618  1.00  0.00     0.004 A 
ATOM     14  C   UNL     1      -5.070   4.764 -10.610  1.00  0.00    -0.051 A 
ATOM     15  C   UNL     1      -4.651   5.007 -12.019  1.00  0.00     0.044 C 
ENDBRANCH   7   9
ENDBRANCH   1   7
BRANCH   4  16
ATOM     16  N   UNL     1      -5.480   0.914  -2.930  1.00  0.00     0.066 N 
ATOM     17  O   UNL     1      -5.961  -0.132  -3.428  1.00  0.00    -0.258 OA
ATOM     18  O   UNL     1      -5.422   1.098  -1.692  1.00  0.00    -0.258 OA
ENDBRANCH   4  16
BRANCH   5  19
ATOM     19  O   UNL     1      -1.898   3.772  -4.503  1.00  0.00    -0.504 OA
ATOM     20  H   UNL     1      -1.756   4.236  -3.662  1.00  0.00     0.293 HD
ENDBRANCH   5  19
BRANCH   6  21
ATOM     21  O   UNL     1      -2.813   1.808  -2.791  1.00  0.00    -0.500 OA
ATOM     22  H   UNL     1      -2.283   1.110  -3.207  1.00  0.00     0.294 HD
ENDBRANCH   6  21
TORSDOF 5
ENDMDL
MODEL 9
REMARK VINA RESULT:    -4.324      3.192      4.486
REMARK INTER + INTRA:          -6.108
REMARK INTER:                  -5.169
REMARK INTRA:                  -0.939
REMARK UNBOUND:                -0.773
REMARK SMILES Cc1ccc(C(=O)c2cc(O)c(O)c([N+](=O)[O-])c2)cc1
REMARK SMILES IDX 8 1 18 2 9 3 14 4 10 5 12 6 6 7 7 8 5 9 4 10 19 11 3 12
REMARK SMILES IDX 20 13 2 14 1 15 15 16 17 17 16 18 11 19 13 21
REMARK H PARENT 11 20 13 22
ROOT
ATOM      1  C   UNL     1      -5.875   3.518  -7.970  1.00  0.00     0.033 A 
ATOM      2  C   UNL     1      -4.987   3.431  -6.923  1.00  0.00     0.102 A 
ATOM      3  C   UNL     1      -6.728   2.496  -8.312  1.00  0.00     0.063 A 
ATOM      4  C   UNL     1      -4.953   2.255  -6.174  1.00  0.00     0.315 A 
ATOM      5  C   UNL     1      -6.693   1.319  -7.563  1.00  0.00     0.165 A 
ATOM      6  C   UNL     1      -5.805   1.199  -6.493  1.00  0.00     0.237 A 
ENDROOT
BRANCH   1   7
ATOM      7  C   UNL     1      -5.913   4.777  -8.773  1.00  0.00     0.193 C 
ATOM      8  O   UNL     1      -6.286   5.809  -8.195  1.00  0.00    -0.289 OA
BRANCH   7   9
ATOM      9  C   UNL     1      -5.531   4.820 -10.175  1.00  0.00     0.023 A 
ATOM     10  C   UNL     1      -4.416   4.107 -10.617  1.00  0.00     0.012 A 
ATOM     11  C   UNL     1      -6.280   5.572 -11.079  1.00  0.00     0.012 A 
ATOM     12  C   UNL     1      -4.051   4.148 -11.962  1.00  0.00     0.004 A 
ATOM     13  C   UNL     1      -5.915   5.613 -12.426  1.00  0.00     0.004 A 
ATOM     14  C   UNL     1      -4.800   4.901 -12.867  1.00  0.00    -0.051 A 
ATOM     15  C   UNL     1      -4.408   4.945 -14.305  1.00  0.00     0.044 C 
ENDBRANCH   7   9
ENDBRANCH   1   7
BRANCH   4  16
ATOM     16  N   UNL     1      -4.041   2.151  -5.087  1.00  0.00     0.066 N 
ATOM     17  O   UNL     1      -2.863   2.555  -5.244  1.00  0.00    -0.258 OA
ATOM     18  O   UNL     1      -4.440   1.660  -4.006  1.00  0.00    -0.258 OA
ENDBRANCH   4  16
BRANCH   5  19
ATOM     19  O   UNL     1      -7.532   0.295  -7.886  1.00  0.00    -0.504 OA
ATOM     20  H   UNL     1      -8.274   0.637  -8.412  1.00  0.00     0.293 HD
ENDBRANCH   5  19
BRANCH   6  21
ATOM     21  O   UNL     1      -5.781   0.043  -5.768  1.00  0.00    -0.500 OA
ATOM     22  H   UNL     1      -6.030   0.229  -4.849  1.00  0.00     0.294 HD
ENDBRANCH   6  21
TORSDOF 5
ENDMDL
