MODEL 1
REMARK VINA RESULT:    -6.764      0.000      0.000
REMARK INTER + INTRA:          -8.612
REMARK INTER:                  -7.950
REMARK INTRA:                  -0.662
REMARK UNBOUND:                -0.662
REMARK SMILES O=C(O)c1cc(-c2ccc(F)cc2F)ccc1O
REMARK SMILES IDX 6 1 5 2 15 3 4 4 17 5 16 6 7 7 13 8 12 9 8 10 10 11 9 12
REMARK SMILES IDX 14 13 11 14 2 15 1 16 3 17 18 19
REMARK H PARENT 3 18 18 20
ROOT
ATOM      1  C   UNL     1      -6.420  -0.708   1.910  1.00  0.00    -0.014 A 
ATOM      2  C   UNL     1      -5.591   0.150   2.631  1.00  0.00     0.028 A 
ATOM      3  C   UNL     1      -5.903  -1.444   0.844  1.00  0.00     0.013 A 
ATOM      4  C   UNL     1      -4.244   0.274   2.287  1.00  0.00     0.102 A 
ATOM      5  C   UNL     1      -3.727  -0.462   1.221  1.00  0.00     0.130 A 
ATOM      6  C   UNL     1      -4.557  -1.322   0.499  1.00  0.00     0.048 A 
ENDROOT
BRANCH   1   7
ATOM      7  C   UNL     1      -7.816  -0.835   2.266  1.00  0.00     0.018 A 
ATOM      8  C   UNL     1      -8.185  -1.031   3.597  1.00  0.00     0.133 A 
ATOM      9  C   UNL     1      -9.533  -1.154   3.936  1.00  0.00     0.079 A 
ATOM     10  C   UNL     1      -8.795  -0.760   1.275  1.00  0.00     0.015 A 
ATOM     11  C   UNL     1     -10.511  -1.079   2.945  1.00  0.00     0.126 A 
ATOM     12  C   UNL     1     -10.142  -0.882   1.614  1.00  0.00     0.040 A 
ATOM     13  F   UNL     1      -7.257  -1.109   4.561  1.00  0.00    -0.206 F 
ATOM     14  F   UNL     1     -11.805  -1.197   3.269  1.00  0.00    -0.207 F 
ENDBRANCH   1   7
BRANCH   4  15
ATOM     15  C   UNL     1      -3.395   1.175   3.053  1.00  0.00     0.339 C 
ATOM     16  O   UNL     1      -2.593   1.980   2.573  1.00  0.00    -0.246 OA
BRANCH  15  17
ATOM     17  O   UNL     1      -3.577   1.043   4.395  1.00  0.00    -0.478 OA
ATOM     18  H   UNL     1      -3.176   1.786   4.892  1.00  0.00     0.297 HD
ENDBRANCH  15  17
ENDBRANCH   4  15
BRANCH   5  19
ATOM     19  O   UNL     1      -2.415  -0.357   0.868  1.00  0.00    -0.507 OA
ATOM     20  H   UNL     1      -1.975  -1.211   1.023  1.00  0.00     0.293 HD
ENDBRANCH   5  19
TORSDOF 4
ENDMDL
MODEL 2
REMARK VINA RESULT:    -6.724      1.731      3.216
REMARK INTER + INTRA:          -8.565
REMARK INTER:                  -8.010
REMARK INTRA:                  -0.554
REMARK UNBOUND:                -0.662
REMARK SMILES O=C(O)c1cc(-c2ccc(F)cc2F)ccc1O
REMARK SMILES IDX 6 1 5 2 15 3 4 4 17 5 16 6 7 7 13 8 12 9 8 10 10 11 9 12
REMARK SMILES IDX 14 13 11 14 2 15 1 16 3 17 18 19
REMARK H PARENT 3 18 18 20
ROOT
ATOM      1  C   UNL     1      -6.438  -0.556   1.637  1.00  0.00    -0.014 A 
ATOM      2  C   UNL     1      -5.985  -1.231   0.503  1.00  0.00     0.028 A 
ATOM      3  C   UNL     1      -5.565   0.257   2.360  1.00  0.00     0.013 A 
ATOM      4  C   UNL     1      -4.659  -1.093   0.093  1.00  0.00     0.102 A 
ATOM      5  C   UNL     1      -3.786  -0.280   0.816  1.00  0.00     0.130 A 
ATOM      6  C   UNL     1      -4.240   0.395   1.950  1.00  0.00     0.048 A 
ENDROOT
BRANCH   1   7
ATOM      7  C   UNL     1      -7.813  -0.700   2.064  1.00  0.00     0.018 A 
ATOM      8  C   UNL     1      -8.846  -0.654   1.127  1.00  0.00     0.133 A 
ATOM      9  C   UNL     1     -10.170  -0.793   1.543  1.00  0.00     0.079 A 
ATOM     10  C   UNL     1      -8.104  -0.887   3.415  1.00  0.00     0.015 A 
ATOM     11  C   UNL     1     -10.461  -0.978   2.894  1.00  0.00     0.126 A 
ATOM     12  C   UNL     1      -9.428  -1.026   3.830  1.00  0.00     0.040 A 
ATOM     13  F   UNL     1      -8.584  -0.473  -0.175  1.00  0.00    -0.206 F 
ATOM     14  F   UNL     1     -11.732  -1.112   3.295  1.00  0.00    -0.207 F 
ENDBRANCH   1   7
BRANCH   4  15
ATOM     15  C   UNL     1      -4.205  -1.805  -1.094  1.00  0.00     0.339 C 
ATOM     16  O   UNL     1      -3.233  -2.563  -1.143  1.00  0.00    -0.246 OA
BRANCH  15  17
ATOM     17  O   UNL     1      -4.982  -1.548  -2.181  1.00  0.00    -0.478 OA
ATOM     18  H   UNL     1      -5.485  -0.713  -2.080  1.00  0.00     0.297 HD
ENDBRANCH  15  17
ENDBRANCH   4  15
BRANCH   5  19
ATOM     19  O   UNL     1      -2.487  -0.131   0.431  1.00  0.00    -0.507 OA
ATOM     20  H   UNL     1      -2.009  -0.962   0.598  1.00  0.00     0.293 HD
ENDBRANCH   5  19
TORSDOF 4
ENDMDL
MODEL 3
REMARK VINA RESULT:    -6.714      1.125      1.607
REMARK INTER + INTRA:          -8.553
REMARK INTER:                  -7.911
REMARK INTRA:                  -0.641
REMARK UNBOUND:                -0.662
REMARK SMILES O=C(O)c1cc(-c2ccc(F)cc2F)ccc1O
REMARK SMILES IDX 6 1 5 2 15 3 4 4 17 5 16 6 7 7 13 8 12 9 8 10 10 11 9 12
REMARK SMILES IDX 14 13 11 14 2 15 1 16 3 17 18 19
REMARK H PARENT 3 18 18 20
ROOT
ATOM      1  C   UNL     1      -6.437  -0.675   1.881  1.00  0.00    -0.014 A 
ATOM      2  C   UNL     1      -5.605   0.171   2.612  1.00  0.00     0.028 A 
ATOM      3  C   UNL     1      -5.920  -1.411   0.815  1.00  0.00     0.013 A 
ATOM      4  C   UNL     1      -4.255   0.282   2.279  1.00  0.00     0.102 A 
ATOM      5  C   UNL     1      -3.738  -0.454   1.213  1.00  0.00     0.130 A 
ATOM      6  C   UNL     1      -4.571  -1.301   0.480  1.00  0.00     0.048 A 
ENDROOT
BRANCH   1   7
ATOM      7  C   UNL     1      -7.838  -0.790   2.226  1.00  0.00     0.018 A 
ATOM      8  C   UNL     1      -8.814  -0.705   1.231  1.00  0.00     0.133 A 
ATOM      9  C   UNL     1     -10.163  -0.816   1.568  1.00  0.00     0.079 A 
ATOM     10  C   UNL     1      -8.212  -0.986   3.555  1.00  0.00     0.015 A 
ATOM     11  C   UNL     1     -10.536  -1.012   2.897  1.00  0.00     0.126 A 
ATOM     12  C   UNL     1      -9.560  -1.097   3.890  1.00  0.00     0.040 A 
ATOM     13  F   UNL     1      -8.471  -0.513  -0.051  1.00  0.00    -0.206 F 
ATOM     14  F   UNL     1     -11.831  -1.118   3.222  1.00  0.00    -0.207 F 
ENDBRANCH   1   7
BRANCH   4  15
ATOM     15  C   UNL     1      -3.403   1.172   3.055  1.00  0.00     0.339 C 
ATOM     16  O   UNL     1      -2.598   1.980   2.586  1.00  0.00    -0.246 OA
BRANCH  15  17
ATOM     17  O   UNL     1      -3.584   1.023   4.396  1.00  0.00    -0.478 OA
ATOM     18  H   UNL     1      -4.506   0.773   4.614  1.00  0.00     0.297 HD
ENDBRANCH  15  17
ENDBRANCH   4  15
BRANCH   5  19
ATOM     19  O   UNL     1      -2.422  -0.360   0.871  1.00  0.00    -0.507 OA
ATOM     20  H   UNL     1      -1.984   0.275   1.464  1.00  0.00     0.293 HD
ENDBRANCH   5  19
TORSDOF 4
ENDMDL
MODEL 4
REMARK VINA RESULT:    -6.697      1.326      2.773
REMARK INTER + INTRA:          -8.533
REMARK INTER:                  -7.996
REMARK INTRA:                  -0.538
REMARK UNBOUND:                -0.662
REMARK SMILES O=C(O)c1cc(-c2ccc(F)cc2F)ccc1O
REMARK SMILES IDX 6 1 5 2 15 3 4 4 17 5 16 6 7 7 13 8 12 9 8 10 10 11 9 12
REMARK SMILES IDX 14 13 11 14 2 15 1 16 3 17 18 19
REMARK H PARENT 3 18 18 20
ROOT
ATOM      1  C   UNL     1      -6.373  -0.602   1.683  1.00  0.00    -0.014 A 
ATOM      2  C   UNL     1      -5.939  -1.265   0.536  1.00  0.00     0.028 A 
ATOM      3  C   UNL     1      -5.488   0.206   2.398  1.00  0.00     0.013 A 
ATOM      4  C   UNL     1      -4.621  -1.121   0.103  1.00  0.00     0.102 A 
ATOM      5  C   UNL     1      -3.737  -0.313   0.818  1.00  0.00     0.130 A 
ATOM      6  C   UNL     1      -4.171   0.350   1.966  1.00  0.00     0.048 A 
ENDROOT
BRANCH   1   7
ATOM      7  C   UNL     1      -7.740  -0.752   2.134  1.00  0.00     0.018 A 
ATOM      8  C   UNL     1      -8.013  -0.951   3.488  1.00  0.00     0.133 A 
ATOM      9  C   UNL     1      -9.333  -1.096   3.918  1.00  0.00     0.079 A 
ATOM     10  C   UNL     1      -8.785  -0.695   1.212  1.00  0.00     0.015 A 
ATOM     11  C   UNL     1     -10.377  -1.040   2.996  1.00  0.00     0.126 A 
ATOM     12  C   UNL     1     -10.103  -0.839   1.643  1.00  0.00     0.040 A 
ATOM     13  F   UNL     1      -7.020  -1.011   4.386  1.00  0.00    -0.206 F 
ATOM     14  F   UNL     1     -11.644  -1.178   3.408  1.00  0.00    -0.207 F 
ENDBRANCH   1   7
BRANCH   4  15
ATOM     15  C   UNL     1      -4.188  -1.821  -1.099  1.00  0.00     0.339 C 
ATOM     16  O   UNL     1      -3.217  -2.578  -1.172  1.00  0.00    -0.246 OA
BRANCH  15  17
ATOM     17  O   UNL     1      -4.984  -1.554  -2.170  1.00  0.00    -0.478 OA
ATOM     18  H   UNL     1      -4.853  -2.204  -2.892  1.00  0.00     0.297 HD
ENDBRANCH  15  17
ENDBRANCH   4  15
BRANCH   5  19
ATOM     19  O   UNL     1      -2.445  -0.159   0.411  1.00  0.00    -0.507 OA
ATOM     20  H   UNL     1      -1.931  -0.939   0.683  1.00  0.00     0.293 HD
ENDBRANCH   5  19
TORSDOF 4
ENDMDL
MODEL 5
REMARK VINA RESULT:    -5.339      4.034      6.258
REMARK INTER + INTRA:          -6.936
REMARK INTER:                  -5.853
REMARK INTRA:                  -1.083
REMARK UNBOUND:                -0.662
REMARK SMILES O=C(O)c1cc(-c2ccc(F)cc2F)ccc1O
REMARK SMILES IDX 6 1 5 2 15 3 4 4 17 5 16 6 7 7 13 8 12 9 8 10 10 11 9 12
REMARK SMILES IDX 14 13 11 14 2 15 1 16 3 17 18 19
REMARK H PARENT 3 18 18 20
ROOT
ATOM      1  C   UNL     1      -8.605  -0.658   2.684  1.00  0.00    -0.014 A 
ATOM      2  C   UNL     1      -9.525   0.139   3.365  1.00  0.00     0.028 A 
ATOM      3  C   UNL     1      -9.005  -1.882   2.148  1.00  0.00     0.013 A 
ATOM      4  C   UNL     1     -10.845  -0.288   3.511  1.00  0.00     0.102 A 
ATOM      5  C   UNL     1     -11.245  -1.513   2.975  1.00  0.00     0.130 A 
ATOM      6  C   UNL     1     -10.324  -2.310   2.293  1.00  0.00     0.048 A 
ENDROOT
BRANCH   1   7
ATOM      7  C   UNL     1      -7.236  -0.216   2.534  1.00  0.00     0.018 A 
ATOM      8  C   UNL     1      -6.276  -0.575   3.481  1.00  0.00     0.133 A 
ATOM      9  C   UNL     1      -4.956  -0.146   3.332  1.00  0.00     0.079 A 
ATOM     10  C   UNL     1      -6.876   0.569   1.439  1.00  0.00     0.015 A 
ATOM     11  C   UNL     1      -4.597   0.639   2.238  1.00  0.00     0.126 A 
ATOM     12  C   UNL     1      -5.557   0.997   1.291  1.00  0.00     0.040 A 
ATOM     13  F   UNL     1      -6.606  -1.327   4.540  1.00  0.00    -0.206 F 
ATOM     14  F   UNL     1      -3.331   1.051   2.095  1.00  0.00    -0.207 F 
ENDBRANCH   1   7
BRANCH   4  15
ATOM     15  C   UNL     1     -11.791   0.558   4.225  1.00  0.00     0.339 C 
ATOM     16  O   UNL     1     -13.016   0.422   4.219  1.00  0.00    -0.246 OA
BRANCH  15  17
ATOM     17  O   UNL     1     -11.173   1.547   4.927  1.00  0.00    -0.478 OA
ATOM     18  H   UNL     1     -11.329   1.463   5.891  1.00  0.00     0.297 HD
ENDBRANCH  15  17
ENDBRANCH   4  15
BRANCH   5  19
ATOM     19  O   UNL     1     -12.530  -1.948   3.105  1.00  0.00    -0.507 OA
ATOM     20  H   UNL     1     -12.527  -2.823   3.531  1.00  0.00     0.293 HD
ENDBRANCH   5  19
TORSDOF 4
ENDMDL
MODEL 6
REMARK VINA RESULT:    -5.263      4.125      6.460
REMARK INTER + INTRA:          -6.848
REMARK INTER:                  -5.778
REMARK INTRA:                  -1.070
REMARK UNBOUND:                -0.662
REMARK SMILES O=C(O)c1cc(-c2ccc(F)cc2F)ccc1O
REMARK SMILES IDX 6 1 5 2 15 3 4 4 17 5 16 6 7 7 13 8 12 9 8 10 10 11 9 12
REMARK SMILES IDX 14 13 11 14 2 15 1 16 3 17 18 19
REMARK H PARENT 3 18 18 20
ROOT
ATOM      1  C   UNL     1      -9.147  -0.945   2.320  1.00  0.00    -0.014 A 
ATOM      2  C   UNL     1      -9.673   0.138   3.023  1.00  0.00     0.028 A 
ATOM      3  C   UNL     1      -9.915  -2.094   2.133  1.00  0.00     0.013 A 
ATOM      4  C   UNL     1     -10.967   0.073   3.540  1.00  0.00     0.102 A 
ATOM      5  C   UNL     1     -11.735  -1.076   3.353  1.00  0.00     0.130 A 
ATOM      6  C   UNL     1     -11.209  -2.160   2.649  1.00  0.00     0.048 A 
ENDROOT
BRANCH   1   7
ATOM      7  C   UNL     1      -7.804  -0.879   1.785  1.00  0.00     0.018 A 
ATOM      8  C   UNL     1      -7.598  -0.523   0.451  1.00  0.00     0.133 A 
ATOM      9  C   UNL     1      -6.302  -0.461  -0.061  1.00  0.00     0.079 A 
ATOM     10  C   UNL     1      -6.715  -1.170   2.605  1.00  0.00     0.015 A 
ATOM     11  C   UNL     1      -5.213  -0.753   0.760  1.00  0.00     0.126 A 
ATOM     12  C   UNL     1      -5.420  -1.106   2.093  1.00  0.00     0.040 A 
ATOM     13  F   UNL     1      -8.635  -0.243  -0.352  1.00  0.00    -0.206 F 
ATOM     14  F   UNL     1      -3.968  -0.693   0.269  1.00  0.00    -0.207 F 
ENDBRANCH   1   7
BRANCH   4  15
ATOM     15  C   UNL     1     -11.498   1.215   4.270  1.00  0.00     0.339 C 
ATOM     16  O   UNL     1     -12.554   1.227   4.908  1.00  0.00    -0.246 OA
BRANCH  15  17
ATOM     17  O   UNL     1     -10.691   2.308   4.182  1.00  0.00    -0.478 OA
ATOM     18  H   UNL     1      -9.892   2.216   4.742  1.00  0.00     0.297 HD
ENDBRANCH  15  17
ENDBRANCH   4  15
BRANCH   5  19
ATOM     19  O   UNL     1     -13.002  -1.160   3.849  1.00  0.00    -0.507 OA
ATOM     20  H   UNL     1     -13.003  -0.849   4.771  1.00  0.00     0.293 HD
ENDBRANCH   5  19
TORSDOF 4
ENDMDL
MODEL 7
REMARK VINA RESULT:    -5.258      4.370      6.745
REMARK INTER + INTRA:          -6.842
REMARK INTER:                  -5.768
REMARK INTRA:                  -1.074
REMARK UNBOUND:                -0.662
REMARK SMILES O=C(O)c1cc(-c2ccc(F)cc2F)ccc1O
REMARK SMILES IDX 6 1 5 2 15 3 4 4 17 5 16 6 7 7 13 8 12 9 8 10 10 11 9 12
REMARK SMILES IDX 14 13 11 14 2 15 1 16 3 17 18 19
REMARK H PARENT 3 18 18 20
ROOT
ATOM      1  C   UNL     1      -9.084  -0.832   2.908  1.00  0.00    -0.014 A 
ATOM      2  C   UNL     1      -9.692  -2.030   2.533  1.00  0.00     0.028 A 
ATOM      3  C   UNL     1      -9.836   0.169   3.522  1.00  0.00     0.013 A 
ATOM      4  C   UNL     1     -11.052  -2.227   2.772  1.00  0.00     0.102 A 
ATOM      5  C   UNL     1     -11.804  -1.225   3.386  1.00  0.00     0.130 A 
ATOM      6  C   UNL     1     -11.195  -0.027   3.762  1.00  0.00     0.048 A 
ENDROOT
BRANCH   1   7
ATOM      7  C   UNL     1      -7.673  -0.626   2.659  1.00  0.00     0.018 A 
ATOM      8  C   UNL     1      -6.740  -0.883   3.665  1.00  0.00     0.133 A 
ATOM      9  C   UNL     1      -5.381  -0.683   3.420  1.00  0.00     0.079 A 
ATOM     10  C   UNL     1      -7.247  -0.172   1.411  1.00  0.00     0.015 A 
ATOM     11  C   UNL     1      -4.955  -0.228   2.173  1.00  0.00     0.126 A 
ATOM     12  C   UNL     1      -5.889   0.027   1.168  1.00  0.00     0.040 A 
ATOM     13  F   UNL     1      -7.133  -1.318   4.870  1.00  0.00    -0.206 F 
ATOM     14  F   UNL     1      -3.651  -0.036   1.938  1.00  0.00    -0.207 F 
ENDBRANCH   1   7
BRANCH   4  15
ATOM     15  C   UNL     1     -11.668  -3.485   2.373  1.00  0.00     0.339 C 
ATOM     16  O   UNL     1     -12.853  -3.784   2.540  1.00  0.00    -0.246 OA
BRANCH  15  17
ATOM     17  O   UNL     1     -10.782  -4.329   1.778  1.00  0.00    -0.478 OA
ATOM     18  H   UNL     1     -10.069  -3.842   1.314  1.00  0.00     0.297 HD
ENDBRANCH  15  17
ENDBRANCH   4  15
BRANCH   5  19
ATOM     19  O   UNL     1     -13.134  -1.398   3.629  1.00  0.00    -0.507 OA
ATOM     20  H   UNL     1     -13.430  -0.727   4.269  1.00  0.00     0.293 HD
ENDBRANCH   5  19
TORSDOF 4
ENDMDL
MODEL 8
REMARK VINA RESULT:    -5.242      4.659      7.019
REMARK INTER + INTRA:          -6.823
REMARK INTER:                  -5.755
REMARK INTRA:                  -1.069
REMARK UNBOUND:                -0.662
REMARK SMILES O=C(O)c1cc(-c2ccc(F)cc2F)ccc1O
REMARK SMILES IDX 6 1 5 2 15 3 4 4 17 5 16 6 7 7 13 8 12 9 8 10 10 11 9 12
REMARK SMILES IDX 14 13 11 14 2 15 1 16 3 17 18 19
REMARK H PARENT 3 18 18 20
ROOT
ATOM      1  C   UNL     1      -9.234  -1.016   2.254  1.00  0.00    -0.014 A 
ATOM      2  C   UNL     1      -9.958  -2.199   2.108  1.00  0.00     0.028 A 
ATOM      3  C   UNL     1      -9.796   0.067   2.930  1.00  0.00     0.013 A 
ATOM      4  C   UNL     1     -11.245  -2.299   2.638  1.00  0.00     0.102 A 
ATOM      5  C   UNL     1     -11.806  -1.217   3.315  1.00  0.00     0.130 A 
ATOM      6  C   UNL     1     -11.082  -0.033   3.461  1.00  0.00     0.048 A 
ENDROOT
BRANCH   1   7
ATOM      7  C   UNL     1      -7.900  -0.910   1.703  1.00  0.00     0.018 A 
ATOM      8  C   UNL     1      -7.720  -0.526   0.373  1.00  0.00     0.133 A 
ATOM      9  C   UNL     1      -6.432  -0.426  -0.154  1.00  0.00     0.079 A 
ATOM     10  C   UNL     1      -6.794  -1.192   2.504  1.00  0.00     0.015 A 
ATOM     11  C   UNL     1      -5.326  -0.708   0.647  1.00  0.00     0.126 A 
ATOM     12  C   UNL     1      -5.508  -1.091   1.976  1.00  0.00     0.040 A 
ATOM     13  F   UNL     1      -8.773  -0.255  -0.411  1.00  0.00    -0.206 F 
ATOM     14  F   UNL     1      -4.090  -0.612   0.141  1.00  0.00    -0.207 F 
ENDBRANCH   1   7
BRANCH   4  15
ATOM     15  C   UNL     1     -11.984  -3.543   2.475  1.00  0.00     0.339 C 
ATOM     16  O   UNL     1     -13.213  -3.647   2.468  1.00  0.00    -0.246 OA
BRANCH  15  17
ATOM     17  O   UNL     1     -11.164  -4.618   2.324  1.00  0.00    -0.478 OA
ATOM     18  H   UNL     1     -10.586  -4.748   3.106  1.00  0.00     0.297 HD
ENDBRANCH  15  17
ENDBRANCH   4  15
BRANCH   5  19
ATOM     19  O   UNL     1     -13.062  -1.295   3.841  1.00  0.00    -0.507 OA
ATOM     20  H   UNL     1     -13.437  -0.399   3.901  1.00  0.00     0.293 HD
ENDBRANCH   5  19
TORSDOF 4
ENDMDL
MODEL 9
REMARK VINA RESULT:    -5.227      1.126      1.385
REMARK INTER + INTRA:          -6.805
REMARK INTER:                  -6.195
REMARK INTRA:                  -0.610
REMARK UNBOUND:                -0.662
REMARK SMILES O=C(O)c1cc(-c2ccc(F)cc2F)ccc1O
REMARK SMILES IDX 6 1 5 2 15 3 4 4 17 5 16 6 7 7 13 8 12 9 8 10 10 11 9 12
REMARK SMILES IDX 14 13 11 14 2 15 1 16 3 17 18 19
REMARK H PARENT 3 18 18 20
ROOT
ATOM      1  C   UNL     1      -7.011  -0.661   1.672  1.00  0.00    -0.014 A 
ATOM      2  C   UNL     1      -6.075  -0.050   2.505  1.00  0.00     0.028 A 
ATOM      3  C   UNL     1      -6.641  -1.078   0.393  1.00  0.00     0.013 A 
ATOM      4  C   UNL     1      -4.767   0.145   2.060  1.00  0.00     0.102 A 
ATOM      5  C   UNL     1      -4.396  -0.271   0.782  1.00  0.00     0.130 A 
ATOM      6  C   UNL     1      -5.334  -0.883  -0.052  1.00  0.00     0.048 A 
ENDROOT
BRANCH   1   7
ATOM      7  C   UNL     1      -8.368  -0.863   2.132  1.00  0.00     0.018 A 
ATOM      8  C   UNL     1      -9.009   0.127   2.879  1.00  0.00     0.133 A 
ATOM      9  C   UNL     1     -10.318  -0.072   3.321  1.00  0.00     0.079 A 
ATOM     10  C   UNL     1      -9.036  -2.049   1.828  1.00  0.00     0.015 A 
ATOM     11  C   UNL     1     -10.984  -1.258   3.017  1.00  0.00     0.126 A 
ATOM     12  C   UNL     1     -10.343  -2.246   2.270  1.00  0.00     0.040 A 
ATOM     13  F   UNL     1      -8.381   1.271   3.182  1.00  0.00    -0.206 F 
ATOM     14  F   UNL     1     -12.240  -1.449   3.441  1.00  0.00    -0.207 F 
ENDBRANCH   1   7
BRANCH   4  15
ATOM     15  C   UNL     1      -3.804   0.785   2.946  1.00  0.00     0.339 C 
ATOM     16  O   UNL     1      -3.724   0.604   4.163  1.00  0.00    -0.246 OA
BRANCH  15  17
ATOM     17  O   UNL     1      -2.970   1.630   2.281  1.00  0.00    -0.478 OA
ATOM     18  H   UNL     1      -3.413   2.473   2.050  1.00  0.00     0.297 HD
ENDBRANCH  15  17
ENDBRANCH   4  15
BRANCH   5  19
ATOM     19  O   UNL     1      -3.124  -0.091   0.328  1.00  0.00    -0.507 OA
ATOM     20  H   UNL     1      -3.100   0.695  -0.245  1.00  0.00     0.293 HD
ENDBRANCH   5  19
TORSDOF 4
ENDMDL
