MODEL 1
REMARK VINA RESULT:    -5.602      0.000      0.000
REMARK INTER + INTRA:          -7.546
REMARK INTER:                  -6.912
REMARK INTRA:                  -0.634
REMARK UNBOUND:                -0.634
REMARK SMILES Cc1ccc(C(=O)c2cc(O)c(O)c([N+](=O)[O-])c2)cc1
REMARK SMILES IDX 8 1 18 2 9 3 14 4 10 5 12 6 6 7 7 8 5 9 4 10 19 11 3 12
REMARK SMILES IDX 20 13 2 14 1 15 15 16 17 17 16 18 11 19 13 21
REMARK H PARENT 11 20 13 22
ROOT
ATOM      1  C   UNL     1      -6.073  -0.196   0.291  1.00  0.00     0.033 A 
ATOM      2  C   UNL     1      -5.456   0.582   1.243  1.00  0.00     0.102 A 
ATOM      3  C   UNL     1      -5.410  -1.160  -0.431  1.00  0.00     0.063 A 
ATOM      4  C   UNL     1      -4.097   0.384   1.486  1.00  0.00     0.315 A 
ATOM      5  C   UNL     1      -4.050  -1.357  -0.188  1.00  0.00     0.165 A 
ATOM      6  C   UNL     1      -3.394  -0.585   0.772  1.00  0.00     0.237 A 
ENDROOT
BRANCH   1   7
ATOM      7  C   UNL     1      -7.529   0.015   0.030  1.00  0.00     0.193 C 
ATOM      8  O   UNL     1      -7.836   0.726  -0.939  1.00  0.00    -0.289 OA
BRANCH   7   9
ATOM      9  C   UNL     1      -8.565  -0.576   0.862  1.00  0.00     0.023 A 
ATOM     10  C   UNL     1      -8.380  -0.674   2.241  1.00  0.00     0.012 A 
ATOM     11  C   UNL     1      -9.743  -1.045   0.281  1.00  0.00     0.012 A 
ATOM     12  C   UNL     1      -9.374  -1.242   3.038  1.00  0.00     0.004 A 
ATOM     13  C   UNL     1     -10.737  -1.613   1.078  1.00  0.00     0.004 A 
ATOM     14  C   UNL     1     -10.553  -1.711   2.457  1.00  0.00    -0.051 A 
ATOM     15  C   UNL     1     -11.614  -2.319   3.310  1.00  0.00     0.044 C 
ENDBRANCH   7   9
ENDBRANCH   1   7
BRANCH   4  16
ATOM     16  N   UNL     1      -3.445   1.181   2.467  1.00  0.00     0.066 N 
ATOM     17  O   UNL     1      -3.838   1.119   3.657  1.00  0.00    -0.258 OA
ATOM     18  O   UNL     1      -2.496   1.919   2.115  1.00  0.00    -0.258 OA
ENDBRANCH   4  16
BRANCH   5  19
ATOM     19  O   UNL     1      -3.376  -2.308  -0.893  1.00  0.00    -0.504 OA
ATOM     20  H   UNL     1      -3.250  -3.096  -0.339  1.00  0.00     0.293 HD
ENDBRANCH   5  19
BRANCH   6  21
ATOM     21  O   UNL     1      -2.064  -0.788   1.001  1.00  0.00    -0.500 OA
ATOM     22  H   UNL     1      -1.598   0.063   0.995  1.00  0.00     0.294 HD
ENDBRANCH   6  21
TORSDOF 5
ENDMDL
MODEL 2
REMARK VINA RESULT:    -5.531      2.045      3.678
REMARK INTER + INTRA:          -7.458
REMARK INTER:                  -6.721
REMARK INTRA:                  -0.737
REMARK UNBOUND:                -0.634
REMARK SMILES Cc1ccc(C(=O)c2cc(O)c(O)c([N+](=O)[O-])c2)cc1
REMARK SMILES IDX 8 1 18 2 9 3 14 4 10 5 12 6 6 7 7 8 5 9 4 10 19 11 3 12
REMARK SMILES IDX 20 13 2 14 1 15 15 16 17 17 16 18 11 19 13 21
REMARK H PARENT 11 20 13 22
ROOT
ATOM      1  C   UNL     1      -5.252  -0.962   2.676  1.00  0.00     0.033 A 
ATOM      2  C   UNL     1      -5.110  -1.718   1.535  1.00  0.00     0.102 A 
ATOM      3  C   UNL     1      -4.511   0.170   2.918  1.00  0.00     0.063 A 
ATOM      4  C   UNL     1      -4.173  -1.318   0.583  1.00  0.00     0.315 A 
ATOM      5  C   UNL     1      -3.573   0.569   1.966  1.00  0.00     0.165 A 
ATOM      6  C   UNL     1      -3.404  -0.175   0.798  1.00  0.00     0.237 A 
ENDROOT
BRANCH   1   7
ATOM      7  C   UNL     1      -6.256  -1.390   3.696  1.00  0.00     0.193 C 
ATOM      8  O   UNL     1      -5.849  -2.091   4.635  1.00  0.00    -0.289 OA
BRANCH   7   9
ATOM      9  C   UNL     1      -7.658  -1.014   3.616  1.00  0.00     0.023 A 
ATOM     10  C   UNL     1      -8.290  -0.936   2.375  1.00  0.00     0.012 A 
ATOM     11  C   UNL     1      -8.372  -0.732   4.780  1.00  0.00     0.012 A 
ATOM     12  C   UNL     1      -9.635  -0.575   2.298  1.00  0.00     0.004 A 
ATOM     13  C   UNL     1      -9.718  -0.371   4.705  1.00  0.00     0.004 A 
ATOM     14  C   UNL     1     -10.350  -0.293   3.463  1.00  0.00    -0.051 A 
ATOM     15  C   UNL     1     -11.787   0.094   3.381  1.00  0.00     0.044 C 
ENDBRANCH   7   9
ENDBRANCH   1   7
BRANCH   4  16
ATOM     16  N   UNL     1      -4.015  -2.089  -0.601  1.00  0.00     0.066 N 
ATOM     17  O   UNL     1      -5.033  -2.384  -1.273  1.00  0.00    -0.258 OA
ATOM     18  O   UNL     1      -2.864  -2.451  -0.940  1.00  0.00    -0.258 OA
ENDBRANCH   4  16
BRANCH   5  19
ATOM     19  O   UNL     1      -2.829   1.689   2.189  1.00  0.00    -0.504 OA
ATOM     20  H   UNL     1      -1.884   1.466   2.144  1.00  0.00     0.293 HD
ENDBRANCH   5  19
BRANCH   6  21
ATOM     21  O   UNL     1      -2.484   0.227  -0.127  1.00  0.00    -0.500 OA
ATOM     22  H   UNL     1      -1.774   0.721   0.313  1.00  0.00     0.294 HD
ENDBRANCH   6  21
TORSDOF 5
ENDMDL
MODEL 3
REMARK VINA RESULT:    -5.484      1.616      2.928
REMARK INTER + INTRA:          -7.401
REMARK INTER:                  -6.720
REMARK INTRA:                  -0.681
REMARK UNBOUND:                -0.634
REMARK SMILES Cc1ccc(C(=O)c2cc(O)c(O)c([N+](=O)[O-])c2)cc1
REMARK SMILES IDX 8 1 18 2 9 3 14 4 10 5 12 6 6 7 7 8 5 9 4 10 19 11 3 12
REMARK SMILES IDX 20 13 2 14 1 15 15 16 17 17 16 18 11 19 13 21
REMARK H PARENT 11 20 13 22
ROOT
ATOM      1  C   UNL     1      -6.237   0.390   1.741  1.00  0.00     0.033 A 
ATOM      2  C   UNL     1      -6.066  -0.472   0.683  1.00  0.00     0.102 A 
ATOM      3  C   UNL     1      -5.188   1.013   2.375  1.00  0.00     0.063 A 
ATOM      4  C   UNL     1      -4.770  -0.724   0.232  1.00  0.00     0.315 A 
ATOM      5  C   UNL     1      -3.892   0.760   1.924  1.00  0.00     0.165 A 
ATOM      6  C   UNL     1      -3.683  -0.109   0.852  1.00  0.00     0.237 A 
ENDROOT
BRANCH   1   7
ATOM      7  C   UNL     1      -7.625   0.661   2.225  1.00  0.00     0.193 C 
ATOM      8  O   UNL     1      -7.887   1.819   2.583  1.00  0.00    -0.289 OA
BRANCH   7   9
ATOM      9  C   UNL     1      -8.646  -0.373   2.283  1.00  0.00     0.023 A 
ATOM     10  C   UNL     1      -8.955  -0.980   3.501  1.00  0.00     0.012 A 
ATOM     11  C   UNL     1      -9.316  -0.758   1.122  1.00  0.00     0.012 A 
ATOM     12  C   UNL     1      -9.934  -1.972   3.556  1.00  0.00     0.004 A 
ATOM     13  C   UNL     1     -10.296  -1.750   1.177  1.00  0.00     0.004 A 
ATOM     14  C   UNL     1     -10.605  -2.357   2.395  1.00  0.00    -0.051 A 
ATOM     15  C   UNL     1     -11.651  -3.418   2.455  1.00  0.00     0.044 C 
ENDBRANCH   7   9
ENDBRANCH   1   7
BRANCH   4  16
ATOM     16  N   UNL     1      -4.577  -1.613  -0.861  1.00  0.00     0.066 N 
ATOM     17  O   UNL     1      -5.415  -1.617  -1.795  1.00  0.00    -0.258 OA
ATOM     18  O   UNL     1      -3.575  -2.365  -0.860  1.00  0.00    -0.258 OA
ENDBRANCH   4  16
BRANCH   5  19
ATOM     19  O   UNL     1      -2.840   1.369   2.539  1.00  0.00    -0.504 OA
ATOM     20  H   UNL     1      -2.401   1.970   1.914  1.00  0.00     0.293 HD
ENDBRANCH   5  19
BRANCH   6  21
ATOM     21  O   UNL     1      -2.411  -0.348   0.420  1.00  0.00    -0.500 OA
ATOM     22  H   UNL     1      -1.845  -0.565   1.177  1.00  0.00     0.294 HD
ENDBRANCH   6  21
TORSDOF 5
ENDMDL
MODEL 4
REMARK VINA RESULT:    -5.481      1.744      2.185
REMARK INTER + INTRA:          -7.397
REMARK INTER:                  -6.710
REMARK INTRA:                  -0.687
REMARK UNBOUND:                -0.634
REMARK SMILES Cc1ccc(C(=O)c2cc(O)c(O)c([N+](=O)[O-])c2)cc1
REMARK SMILES IDX 8 1 18 2 9 3 14 4 10 5 12 6 6 7 7 8 5 9 4 10 19 11 3 12
REMARK SMILES IDX 20 13 2 14 1 15 15 16 17 17 16 18 11 19 13 21
REMARK H PARENT 11 20 13 22
ROOT
ATOM      1  C   UNL     1      -6.074  -1.581   1.516  1.00  0.00     0.033 A 
ATOM      2  C   UNL     1      -5.534  -0.595   2.310  1.00  0.00     0.102 A 
ATOM      3  C   UNL     1      -5.430  -2.087   0.413  1.00  0.00     0.063 A 
ATOM      4  C   UNL     1      -4.277  -0.088   1.981  1.00  0.00     0.315 A 
ATOM      5  C   UNL     1      -4.173  -1.580   0.083  1.00  0.00     0.165 A 
ATOM      6  C   UNL     1      -3.596  -0.580   0.868  1.00  0.00     0.237 A 
ENDROOT
BRANCH   1   7
ATOM      7  C   UNL     1      -7.421  -2.123   1.868  1.00  0.00     0.193 C 
ATOM      8  O   UNL     1      -7.624  -3.327   1.649  1.00  0.00    -0.289 OA
BRANCH   7   9
ATOM      9  C   UNL     1      -8.469  -1.296   2.445  1.00  0.00     0.023 A 
ATOM     10  C   UNL     1      -9.500  -0.814   1.639  1.00  0.00     0.012 A 
ATOM     11  C   UNL     1      -8.443  -0.986   3.804  1.00  0.00     0.012 A 
ATOM     12  C   UNL     1     -10.505  -0.021   2.193  1.00  0.00     0.004 A 
ATOM     13  C   UNL     1      -9.448  -0.193   4.359  1.00  0.00     0.004 A 
ATOM     14  C   UNL     1     -10.479   0.290   3.553  1.00  0.00    -0.051 A 
ATOM     15  C   UNL     1     -11.553   1.139   4.144  1.00  0.00     0.044 C 
ENDBRANCH   7   9
ENDBRANCH   1   7
BRANCH   4  16
ATOM     16  N   UNL     1      -3.706   0.930   2.792  1.00  0.00     0.066 N 
ATOM     17  O   UNL     1      -3.995   0.966   4.013  1.00  0.00    -0.258 OA
ATOM     18  O   UNL     1      -2.930   1.761   2.264  1.00  0.00    -0.258 OA
ENDBRANCH   4  16
BRANCH   5  19
ATOM     19  O   UNL     1      -3.518  -2.070  -1.007  1.00  0.00    -0.504 OA
ATOM     20  H   UNL     1      -4.152  -2.518  -1.592  1.00  0.00     0.293 HD
ENDBRANCH   5  19
BRANCH   6  21
ATOM     21  O   UNL     1      -2.365  -0.093   0.536  1.00  0.00    -0.500 OA
ATOM     22  H   UNL     1      -2.423   0.864   0.388  1.00  0.00     0.294 HD
ENDBRANCH   6  21
TORSDOF 5
ENDMDL
MODEL 5
REMARK VINA RESULT:    -5.229      3.978      6.797
REMARK INTER + INTRA:          -7.086
REMARK INTER:                  -6.157
REMARK INTRA:                  -0.929
REMARK UNBOUND:                -0.634
REMARK SMILES Cc1ccc(C(=O)c2cc(O)c(O)c([N+](=O)[O-])c2)cc1
REMARK SMILES IDX 8 1 18 2 9 3 14 4 10 5 12 6 6 7 7 8 5 9 4 10 19 11 3 12
REMARK SMILES IDX 20 13 2 14 1 15 15 16 17 17 16 18 11 19 13 21
REMARK H PARENT 11 20 13 22
ROOT
ATOM      1  C   UNL     1      -9.628  -1.085   1.714  1.00  0.00     0.033 A 
ATOM      2  C   UNL     1     -10.244  -0.191   2.558  1.00  0.00     0.102 A 
ATOM      3  C   UNL     1     -10.086  -2.367   1.519  1.00  0.00     0.063 A 
ATOM      4  C   UNL     1     -11.385  -0.603   3.247  1.00  0.00     0.315 A 
ATOM      5  C   UNL     1     -11.228  -2.778   2.208  1.00  0.00     0.165 A 
ATOM      6  C   UNL     1     -11.878  -1.896   3.072  1.00  0.00     0.237 A 
ENDROOT
BRANCH   1   7
ATOM      7  C   UNL     1      -8.405  -0.645   0.977  1.00  0.00     0.193 C 
ATOM      8  O   UNL     1      -8.457  -0.647  -0.263  1.00  0.00    -0.289 OA
BRANCH   7   9
ATOM      9  C   UNL     1      -7.191  -0.227   1.659  1.00  0.00     0.023 A 
ATOM     10  C   UNL     1      -6.751  -0.921   2.787  1.00  0.00     0.012 A 
ATOM     11  C   UNL     1      -6.466   0.867   1.186  1.00  0.00     0.012 A 
ATOM     12  C   UNL     1      -5.586  -0.519   3.441  1.00  0.00     0.004 A 
ATOM     13  C   UNL     1      -5.301   1.268   1.841  1.00  0.00     0.004 A 
ATOM     14  C   UNL     1      -4.861   0.575   2.968  1.00  0.00    -0.051 A 
ATOM     15  C   UNL     1      -3.617   1.004   3.669  1.00  0.00     0.044 C 
ENDBRANCH   7   9
ENDBRANCH   1   7
BRANCH   4  16
ATOM     16  N   UNL     1     -12.034   0.311   4.123  1.00  0.00     0.066 N 
ATOM     17  O   UNL     1     -11.345   1.179   4.710  1.00  0.00    -0.258 OA
ATOM     18  O   UNL     1     -13.274   0.221   4.282  1.00  0.00    -0.258 OA
ENDBRANCH   4  16
BRANCH   5  19
ATOM     19  O   UNL     1     -11.697  -4.044   2.027  1.00  0.00    -0.504 OA
ATOM     20  H   UNL     1     -12.159  -4.101   1.175  1.00  0.00     0.293 HD
ENDBRANCH   5  19
BRANCH   6  21
ATOM     21  O   UNL     1     -12.993  -2.310   3.740  1.00  0.00    -0.500 OA
ATOM     22  H   UNL     1     -12.929  -2.052   4.673  1.00  0.00     0.294 HD
ENDBRANCH   6  21
TORSDOF 5
ENDMDL
MODEL 6
REMARK VINA RESULT:    -5.176      4.097      7.320
REMARK INTER + INTRA:          -7.021
REMARK INTER:                  -6.099
REMARK INTRA:                  -0.922
REMARK UNBOUND:                -0.634
REMARK SMILES Cc1ccc(C(=O)c2cc(O)c(O)c([N+](=O)[O-])c2)cc1
REMARK SMILES IDX 8 1 18 2 9 3 14 4 10 5 12 6 6 7 7 8 5 9 4 10 19 11 3 12
REMARK SMILES IDX 20 13 2 14 1 15 15 16 17 17 16 18 11 19 13 21
REMARK H PARENT 11 20 13 22
ROOT
ATOM      1  C   UNL     1      -9.047  -0.743   3.515  1.00  0.00     0.033 A 
ATOM      2  C   UNL     1      -9.878  -1.766   3.121  1.00  0.00     0.102 A 
ATOM      3  C   UNL     1      -9.516   0.454   4.002  1.00  0.00     0.063 A 
ATOM      4  C   UNL     1     -11.257  -1.581   3.222  1.00  0.00     0.315 A 
ATOM      5  C   UNL     1     -10.895   0.640   4.102  1.00  0.00     0.165 A 
ATOM      6  C   UNL     1     -11.766  -0.379   3.712  1.00  0.00     0.237 A 
ENDROOT
BRANCH   1   7
ATOM      7  C   UNL     1      -7.570  -0.941   3.407  1.00  0.00     0.193 C 
ATOM      8  O   UNL     1      -6.912  -0.896   4.458  1.00  0.00    -0.289 OA
BRANCH   7   9
ATOM      9  C   UNL     1      -6.906  -1.178   2.136  1.00  0.00     0.023 A 
ATOM     10  C   UNL     1      -7.315  -0.486   0.996  1.00  0.00     0.012 A 
ATOM     11  C   UNL     1      -5.860  -2.096   2.056  1.00  0.00     0.012 A 
ATOM     12  C   UNL     1      -6.677  -0.713  -0.224  1.00  0.00     0.004 A 
ATOM     13  C   UNL     1      -5.221  -2.324   0.836  1.00  0.00     0.004 A 
ATOM     14  C   UNL     1      -5.630  -1.632  -0.304  1.00  0.00    -0.051 A 
ATOM     15  C   UNL     1      -4.950  -1.876  -1.608  1.00  0.00     0.044 C 
ENDBRANCH   7   9
ENDBRANCH   1   7
BRANCH   4  16
ATOM     16  N   UNL     1     -12.129  -2.630   2.820  1.00  0.00     0.066 N 
ATOM     17  O   UNL     1     -11.765  -3.400   1.898  1.00  0.00    -0.258 OA
ATOM     18  O   UNL     1     -13.234  -2.754   3.397  1.00  0.00    -0.258 OA
ENDBRANCH   4  16
BRANCH   5  19
ATOM     19  O   UNL     1     -11.378   1.819   4.583  1.00  0.00    -0.504 OA
ATOM     20  H   UNL     1     -12.346   1.771   4.650  1.00  0.00     0.293 HD
ENDBRANCH   5  19
BRANCH   6  21
ATOM     21  O   UNL     1     -13.113  -0.186   3.815  1.00  0.00    -0.500 OA
ATOM     22  H   UNL     1     -13.581  -0.961   3.468  1.00  0.00     0.294 HD
ENDBRANCH   6  21
TORSDOF 5
ENDMDL
MODEL 7
REMARK VINA RESULT:    -4.997      4.004      6.946
REMARK INTER + INTRA:          -6.800
REMARK INTER:                  -5.824
REMARK INTRA:                  -0.976
REMARK UNBOUND:                -0.634
REMARK SMILES Cc1ccc(C(=O)c2cc(O)c(O)c([N+](=O)[O-])c2)cc1
REMARK SMILES IDX 8 1 18 2 9 3 14 4 10 5 12 6 6 7 7 8 5 9 4 10 19 11 3 12
REMARK SMILES IDX 20 13 2 14 1 15 15 16 17 17 16 18 11 19 13 21
REMARK H PARENT 11 20 13 22
ROOT
ATOM      1  C   UNL     1      -9.169  -0.843   3.391  1.00  0.00     0.033 A 
ATOM      2  C   UNL     1      -9.782   0.301   3.847  1.00  0.00     0.102 A 
ATOM      3  C   UNL     1      -9.868  -1.968   3.024  1.00  0.00     0.063 A 
ATOM      4  C   UNL     1     -11.174   0.321   3.939  1.00  0.00     0.315 A 
ATOM      5  C   UNL     1     -11.260  -1.949   3.117  1.00  0.00     0.165 A 
ATOM      6  C   UNL     1     -11.913  -0.804   3.574  1.00  0.00     0.237 A 
ENDROOT
BRANCH   1   7
ATOM      7  C   UNL     1      -7.679  -0.864   3.293  1.00  0.00     0.193 C 
ATOM      8  O   UNL     1      -7.036  -0.645   4.331  1.00  0.00    -0.289 OA
BRANCH   7   9
ATOM      9  C   UNL     1      -6.984  -1.129   2.043  1.00  0.00     0.023 A 
ATOM     10  C   UNL     1      -7.347  -0.444   0.884  1.00  0.00     0.012 A 
ATOM     11  C   UNL     1      -5.953  -2.068   2.003  1.00  0.00     0.012 A 
ATOM     12  C   UNL     1      -6.681  -0.698  -0.314  1.00  0.00     0.004 A 
ATOM     13  C   UNL     1      -5.286  -2.323   0.805  1.00  0.00     0.004 A 
ATOM     14  C   UNL     1      -5.649  -1.637  -0.355  1.00  0.00    -0.051 A 
ATOM     15  C   UNL     1      -4.938  -1.909  -1.636  1.00  0.00     0.044 C 
ENDBRANCH   7   9
ENDBRANCH   1   7
BRANCH   4  16
ATOM     16  N   UNL     1     -11.822   1.496   4.408  1.00  0.00     0.066 N 
ATOM     17  O   UNL     1     -11.370   2.615   4.065  1.00  0.00    -0.258 OA
ATOM     18  O   UNL     1     -12.825   1.381   5.150  1.00  0.00    -0.258 OA
ENDBRANCH   4  16
BRANCH   5  19
ATOM     19  O   UNL     1     -11.969  -3.055   2.756  1.00  0.00    -0.504 OA
ATOM     20  H   UNL     1     -12.612  -3.271   3.452  1.00  0.00     0.293 HD
ENDBRANCH   5  19
BRANCH   6  21
ATOM     21  O   UNL     1     -13.275  -0.797   3.660  1.00  0.00    -0.500 OA
ATOM     22  H   UNL     1     -13.595  -1.694   3.842  1.00  0.00     0.294 HD
ENDBRANCH   6  21
TORSDOF 5
ENDMDL
MODEL 8
REMARK VINA RESULT:    -4.938      4.212      7.365
REMARK INTER + INTRA:          -6.726
REMARK INTER:                  -5.728
REMARK INTRA:                  -0.999
REMARK UNBOUND:                -0.634
REMARK SMILES Cc1ccc(C(=O)c2cc(O)c(O)c([N+](=O)[O-])c2)cc1
REMARK SMILES IDX 8 1 18 2 9 3 14 4 10 5 12 6 6 7 7 8 5 9 4 10 19 11 3 12
REMARK SMILES IDX 20 13 2 14 1 15 15 16 17 17 16 18 11 19 13 21
REMARK H PARENT 11 20 13 22
ROOT
ATOM      1  C   UNL     1      -9.712  -0.913   1.985  1.00  0.00     0.033 A 
ATOM      2  C   UNL     1     -10.353  -2.130   1.956  1.00  0.00     0.102 A 
ATOM      3  C   UNL     1     -10.193   0.168   2.685  1.00  0.00     0.063 A 
ATOM      4  C   UNL     1     -11.544  -2.273   2.668  1.00  0.00     0.315 A 
ATOM      5  C   UNL     1     -11.384   0.025   3.397  1.00  0.00     0.165 A 
ATOM      6  C   UNL     1     -12.060  -1.196   3.389  1.00  0.00     0.237 A 
ENDROOT
BRANCH   1   7
ATOM      7  C   UNL     1      -8.436  -0.759   1.222  1.00  0.00     0.193 C 
ATOM      8  O   UNL     1      -8.459  -1.041   0.014  1.00  0.00    -0.289 OA
BRANCH   7   9
ATOM      9  C   UNL     1      -7.205  -0.300   1.845  1.00  0.00     0.023 A 
ATOM     10  C   UNL     1      -6.518   0.791   1.312  1.00  0.00     0.012 A 
ATOM     11  C   UNL     1      -6.711  -0.950   2.976  1.00  0.00     0.012 A 
ATOM     12  C   UNL     1      -5.338   1.231   1.910  1.00  0.00     0.004 A 
ATOM     13  C   UNL     1      -5.530  -0.510   3.575  1.00  0.00     0.004 A 
ATOM     14  C   UNL     1      -4.843   0.581   3.041  1.00  0.00    -0.051 A 
ATOM     15  C   UNL     1      -3.581   1.051   3.679  1.00  0.00     0.044 C 
ENDBRANCH   7   9
ENDBRANCH   1   7
BRANCH   4  16
ATOM     16  N   UNL     1     -12.218  -3.525   2.648  1.00  0.00     0.066 N 
ATOM     17  O   UNL     1     -13.472  -3.538   2.689  1.00  0.00    -0.258 OA
ATOM     18  O   UNL     1     -11.540  -4.577   2.588  1.00  0.00    -0.258 OA
ENDBRANCH   4  16
BRANCH   5  19
ATOM     19  O   UNL     1     -11.876   1.085   4.097  1.00  0.00    -0.504 OA
ATOM     20  H   UNL     1     -12.778   1.283   3.796  1.00  0.00     0.293 HD
ENDBRANCH   5  19
BRANCH   6  21
ATOM     21  O   UNL     1     -13.223  -1.324   4.090  1.00  0.00    -0.500 OA
ATOM     22  H   UNL     1     -13.882  -1.783   3.546  1.00  0.00     0.294 HD
ENDBRANCH   6  21
TORSDOF 5
ENDMDL
MODEL 9
REMARK VINA RESULT:    -4.799      2.436      4.348
REMARK INTER + INTRA:          -6.555
REMARK INTER:                  -5.572
REMARK INTRA:                  -0.984
REMARK UNBOUND:                -0.634
REMARK SMILES Cc1ccc(C(=O)c2cc(O)c(O)c([N+](=O)[O-])c2)cc1
REMARK SMILES IDX 8 1 18 2 9 3 14 4 10 5 12 6 6 7 7 8 5 9 4 10 19 11 3 12
REMARK SMILES IDX 20 13 2 14 1 15 15 16 17 17 16 18 11 19 13 21
REMARK H PARENT 11 20 13 22
ROOT
ATOM      1  C   UNL     1      -9.652  -0.910   1.687  1.00  0.00     0.033 A 
ATOM      2  C   UNL     1      -8.338  -0.890   2.095  1.00  0.00     0.102 A 
ATOM      3  C   UNL     1     -10.030  -0.720   0.379  1.00  0.00     0.063 A 
ATOM      4  C   UNL     1      -7.346  -0.669   1.140  1.00  0.00     0.315 A 
ATOM      5  C   UNL     1      -9.038  -0.498  -0.576  1.00  0.00     0.165 A 
ATOM      6  C   UNL     1      -7.695  -0.473  -0.196  1.00  0.00     0.237 A 
ENDROOT
BRANCH   1   7
ATOM      7  C   UNL     1     -10.715  -1.146   2.710  1.00  0.00     0.193 C 
ATOM      8  O   UNL     1     -10.975  -0.214   3.486  1.00  0.00    -0.289 OA
BRANCH   7   9
ATOM      9  C   UNL     1     -11.430  -2.408   2.814  1.00  0.00     0.023 A 
ATOM     10  C   UNL     1     -10.726  -3.612   2.811  1.00  0.00     0.012 A 
ATOM     11  C   UNL     1     -12.821  -2.414   2.916  1.00  0.00     0.012 A 
ATOM     12  C   UNL     1     -11.413  -4.822   2.910  1.00  0.00     0.004 A 
ATOM     13  C   UNL     1     -13.509  -3.625   3.015  1.00  0.00     0.004 A 
ATOM     14  C   UNL     1     -12.804  -4.829   3.013  1.00  0.00    -0.051 A 
ATOM     15  C   UNL     1     -13.538  -6.122   3.117  1.00  0.00     0.044 C 
ENDBRANCH   7   9
ENDBRANCH   1   7
BRANCH   4  16
ATOM     16  N   UNL     1      -5.984  -0.646   1.547  1.00  0.00     0.066 N 
ATOM     17  O   UNL     1      -5.186   0.118   0.951  1.00  0.00    -0.258 OA
ATOM     18  O   UNL     1      -5.621  -1.389   2.488  1.00  0.00    -0.258 OA
ENDBRANCH   4  16
BRANCH   5  19
ATOM     19  O   UNL     1      -9.394  -0.308  -1.878  1.00  0.00    -0.504 OA
ATOM     20  H   UNL     1      -8.838   0.385  -2.270  1.00  0.00     0.293 HD
ENDBRANCH   5  19
BRANCH   6  21
ATOM     21  O   UNL     1      -6.734  -0.256  -1.140  1.00  0.00    -0.500 OA
ATOM     22  H   UNL     1      -5.916  -0.709  -0.882  1.00  0.00     0.294 HD
ENDBRANCH   6  21
TORSDOF 5
ENDMDL
