MODEL 1
REMARK VINA RESULT:    -5.457      0.000      0.000
REMARK INTER + INTRA:          -7.555
REMARK INTER:                  -6.733
REMARK INTRA:                  -0.822
REMARK UNBOUND:                -0.822
REMARK SMILES Cc1ccc(C(=O)c2cc(O)c(O)c([N+](=O)[O-])c2)cc1
REMARK SMILES IDX 8 1 18 2 9 3 14 4 10 5 12 6 6 7 7 8 5 9 4 10 19 11 3 12
REMARK SMILES IDX 20 13 2 14 1 15 15 16 17 17 16 18 11 19 13 21
REMARK H PARENT 11 20 13 22
ROOT
ATOM      1  C   UNL     1       3.814  -2.970   6.313  1.00  0.00     0.033 A 
ATOM      2  C   UNL     1       4.309  -1.950   5.534  1.00  0.00     0.102 A 
ATOM      3  C   UNL     1       2.531  -3.447   6.190  1.00  0.00     0.063 A 
ATOM      4  C   UNL     1       3.473  -1.376   4.577  1.00  0.00     0.315 A 
ATOM      5  C   UNL     1       1.694  -2.873   5.233  1.00  0.00     0.165 A 
ATOM      6  C   UNL     1       2.165  -1.837   4.426  1.00  0.00     0.237 A 
ENDROOT
BRANCH   1   7
ATOM      7  C   UNL     1       4.710  -3.585   7.339  1.00  0.00     0.193 C 
ATOM      8  O   UNL     1       4.652  -4.816   7.479  1.00  0.00    -0.289 OA
BRANCH   7   9
ATOM      9  C   UNL     1       5.621  -2.796   8.152  1.00  0.00     0.023 A 
ATOM     10  C   UNL     1       6.912  -2.532   7.696  1.00  0.00     0.012 A 
ATOM     11  C   UNL     1       5.204  -2.303   9.388  1.00  0.00     0.012 A 
ATOM     12  C   UNL     1       7.786  -1.775   8.476  1.00  0.00     0.004 A 
ATOM     13  C   UNL     1       6.077  -1.546  10.169  1.00  0.00     0.004 A 
ATOM     14  C   UNL     1       7.369  -1.281   9.713  1.00  0.00    -0.051 A 
ATOM     15  C   UNL     1       8.304  -0.473  10.547  1.00  0.00     0.044 C 
ENDBRANCH   7   9
ENDBRANCH   1   7
BRANCH   4  16
ATOM     16  N   UNL     1       3.971  -0.321   3.764  1.00  0.00     0.066 N 
ATOM     17  O   UNL     1       5.150  -0.387   3.340  1.00  0.00    -0.258 OA
ATOM     18  O   UNL     1       3.217   0.643   3.493  1.00  0.00    -0.258 OA
ENDBRANCH   4  16
BRANCH   5  19
ATOM     19  O   UNL     1       0.419  -3.334   5.097  1.00  0.00    -0.504 OA
ATOM     20  H   UNL     1       0.184  -3.875   5.869  1.00  0.00     0.293 HD
ENDBRANCH   5  19
BRANCH   6  21
ATOM     21  O   UNL     1       1.337  -1.283   3.493  1.00  0.00    -0.500 OA
ATOM     22  H   UNL     1       0.588  -1.876   3.329  1.00  0.00     0.294 HD
ENDBRANCH   6  21
TORSDOF 5
ENDMDL
MODEL 2
REMARK VINA RESULT:    -5.441      2.071      3.402
REMARK INTER + INTRA:          -7.535
REMARK INTER:                  -6.726
REMARK INTRA:                  -0.809
REMARK UNBOUND:                -0.822
REMARK SMILES Cc1ccc(C(=O)c2cc(O)c(O)c([N+](=O)[O-])c2)cc1
REMARK SMILES IDX 8 1 18 2 9 3 14 4 10 5 12 6 6 7 7 8 5 9 4 10 19 11 3 12
REMARK SMILES IDX 20 13 2 14 1 15 15 16 17 17 16 18 11 19 13 21
REMARK H PARENT 11 20 13 22
ROOT
ATOM      1  C   UNL     1       3.985  -1.079   6.597  1.00  0.00     0.033 A 
ATOM      2  C   UNL     1       2.938  -1.959   6.742  1.00  0.00     0.102 A 
ATOM      3  C   UNL     1       4.171  -0.318   5.468  1.00  0.00     0.063 A 
ATOM      4  C   UNL     1       2.023  -2.084   5.696  1.00  0.00     0.315 A 
ATOM      5  C   UNL     1       3.256  -0.444   4.421  1.00  0.00     0.165 A 
ATOM      6  C   UNL     1       2.182  -1.327   4.536  1.00  0.00     0.237 A 
ENDROOT
BRANCH   1   7
ATOM      7  C   UNL     1       4.965  -0.944   7.717  1.00  0.00     0.193 C 
ATOM      8  O   UNL     1       5.379   0.195   7.978  1.00  0.00    -0.289 OA
BRANCH   7   9
ATOM      9  C   UNL     1       5.432  -2.087   8.486  1.00  0.00     0.023 A 
ATOM     10  C   UNL     1       6.589  -2.763   8.099  1.00  0.00     0.012 A 
ATOM     11  C   UNL     1       4.722  -2.507   9.611  1.00  0.00     0.012 A 
ATOM     12  C   UNL     1       7.036  -3.858   8.837  1.00  0.00     0.004 A 
ATOM     13  C   UNL     1       5.169  -3.603  10.350  1.00  0.00     0.004 A 
ATOM     14  C   UNL     1       6.327  -4.279   9.963  1.00  0.00    -0.051 A 
ATOM     15  C   UNL     1       6.804  -5.451  10.751  1.00  0.00     0.044 C 
ENDBRANCH   7   9
ENDBRANCH   1   7
BRANCH   4  16
ATOM     16  N   UNL     1       0.935  -2.989   5.831  1.00  0.00     0.066 N 
ATOM     17  O   UNL     1       0.360  -3.085   6.942  1.00  0.00    -0.258 OA
ATOM     18  O   UNL     1       0.582  -3.664   4.836  1.00  0.00    -0.258 OA
ENDBRANCH   4  16
BRANCH   5  19
ATOM     19  O   UNL     1       3.424   0.303   3.294  1.00  0.00    -0.504 OA
ATOM     20  H   UNL     1       2.887  -0.069   2.575  1.00  0.00     0.293 HD
ENDBRANCH   5  19
BRANCH   6  21
ATOM     21  O   UNL     1       1.294  -1.440   3.506  1.00  0.00    -0.500 OA
ATOM     22  H   UNL     1       1.192  -2.374   3.264  1.00  0.00     0.294 HD
ENDBRANCH   6  21
TORSDOF 5
ENDMDL
MODEL 3
REMARK VINA RESULT:    -4.443      1.232      2.942
REMARK INTER + INTRA:          -6.303
REMARK INTER:                  -5.555
REMARK INTRA:                  -0.748
REMARK UNBOUND:                -0.822
REMARK SMILES Cc1ccc(C(=O)c2cc(O)c(O)c([N+](=O)[O-])c2)cc1
REMARK SMILES IDX 8 1 18 2 9 3 14 4 10 5 12 6 6 7 7 8 5 9 4 10 19 11 3 12
REMARK SMILES IDX 20 13 2 14 1 15 15 16 17 17 16 18 11 19 13 21
REMARK H PARENT 11 20 13 22
ROOT
ATOM      1  C   UNL     1       4.026  -2.954   6.492  1.00  0.00     0.033 A 
ATOM      2  C   UNL     1       2.719  -3.382   6.501  1.00  0.00     0.102 A 
ATOM      3  C   UNL     1       4.504  -2.035   5.588  1.00  0.00     0.063 A 
ATOM      4  C   UNL     1       1.839  -2.860   5.553  1.00  0.00     0.315 A 
ATOM      5  C   UNL     1       3.624  -1.513   4.639  1.00  0.00     0.165 A 
ATOM      6  C   UNL     1       2.291  -1.925   4.622  1.00  0.00     0.237 A 
ENDROOT
BRANCH   1   7
ATOM      7  C   UNL     1       4.968  -3.513   7.507  1.00  0.00     0.193 C 
ATOM      8  O   UNL     1       4.978  -4.744   7.657  1.00  0.00    -0.289 OA
BRANCH   7   9
ATOM      9  C   UNL     1       5.849  -2.671   8.300  1.00  0.00     0.023 A 
ATOM     10  C   UNL     1       5.413  -2.161   9.523  1.00  0.00     0.012 A 
ATOM     11  C   UNL     1       7.132  -2.373   7.839  1.00  0.00     0.012 A 
ATOM     12  C   UNL     1       6.258  -1.354  10.284  1.00  0.00     0.004 A 
ATOM     13  C   UNL     1       7.978  -1.566   8.600  1.00  0.00     0.004 A 
ATOM     14  C   UNL     1       7.541  -1.056   9.822  1.00  0.00    -0.051 A 
ATOM     15  C   UNL     1       8.444  -0.192  10.635  1.00  0.00     0.044 C 
ENDBRANCH   7   9
ENDBRANCH   1   7
BRANCH   4  16
ATOM     16  N   UNL     1       0.485  -3.293   5.550  1.00  0.00     0.066 N 
ATOM     17  O   UNL     1      -0.229  -3.055   6.555  1.00  0.00    -0.258 OA
ATOM     18  O   UNL     1       0.044  -3.898   4.546  1.00  0.00    -0.258 OA
ENDBRANCH   4  16
BRANCH   5  19
ATOM     19  O   UNL     1       4.080  -0.600   3.736  1.00  0.00    -0.504 OA
ATOM     20  H   UNL     1       3.812   0.292   4.012  1.00  0.00     0.293 HD
ENDBRANCH   5  19
BRANCH   6  21
ATOM     21  O   UNL     1       1.440  -1.407   3.689  1.00  0.00    -0.500 OA
ATOM     22  H   UNL     1       1.403  -1.995   2.919  1.00  0.00     0.294 HD
ENDBRANCH   6  21
TORSDOF 5
ENDMDL
MODEL 4
REMARK VINA RESULT:    -4.282      1.949      2.379
REMARK INTER + INTRA:          -6.105
REMARK INTER:                  -5.397
REMARK INTRA:                  -0.708
REMARK UNBOUND:                -0.822
REMARK SMILES Cc1ccc(C(=O)c2cc(O)c(O)c([N+](=O)[O-])c2)cc1
REMARK SMILES IDX 8 1 18 2 9 3 14 4 10 5 12 6 6 7 7 8 5 9 4 10 19 11 3 12
REMARK SMILES IDX 20 13 2 14 1 15 15 16 17 17 16 18 11 19 13 21
REMARK H PARENT 11 20 13 22
ROOT
ATOM      1  C   UNL     1       4.214  -1.318   6.959  1.00  0.00     0.033 A 
ATOM      2  C   UNL     1       4.477  -0.644   5.789  1.00  0.00     0.102 A 
ATOM      3  C   UNL     1       3.066  -2.047   7.158  1.00  0.00     0.063 A 
ATOM      4  C   UNL     1       3.539  -0.705   4.759  1.00  0.00     0.315 A 
ATOM      5  C   UNL     1       2.127  -2.108   6.128  1.00  0.00     0.165 A 
ATOM      6  C   UNL     1       2.364  -1.436   4.928  1.00  0.00     0.237 A 
ENDROOT
BRANCH   1   7
ATOM      7  C   UNL     1       5.219  -1.253   8.063  1.00  0.00     0.193 C 
ATOM      8  O   UNL     1       5.682  -0.137   8.345  1.00  0.00    -0.289 OA
BRANCH   7   9
ATOM      9  C   UNL     1       5.654  -2.433   8.792  1.00  0.00     0.023 A 
ATOM     10  C   UNL     1       6.797  -3.122   8.386  1.00  0.00     0.012 A 
ATOM     11  C   UNL     1       4.929  -2.876   9.898  1.00  0.00     0.012 A 
ATOM     12  C   UNL     1       7.214  -4.254   9.086  1.00  0.00     0.004 A 
ATOM     13  C   UNL     1       5.346  -4.009  10.598  1.00  0.00     0.004 A 
ATOM     14  C   UNL     1       6.489  -4.698  10.192  1.00  0.00    -0.051 A 
ATOM     15  C   UNL     1       6.934  -5.909  10.939  1.00  0.00     0.044 C 
ENDBRANCH   7   9
ENDBRANCH   1   7
BRANCH   4  16
ATOM     16  N   UNL     1       3.797  -0.014   3.543  1.00  0.00     0.066 N 
ATOM     17  O   UNL     1       3.008   0.893   3.182  1.00  0.00    -0.258 OA
ATOM     18  O   UNL     1       4.805  -0.330   2.869  1.00  0.00    -0.258 OA
ENDBRANCH   4  16
BRANCH   5  19
ATOM     19  O   UNL     1       0.984  -2.827   6.308  1.00  0.00    -0.504 OA
ATOM     20  H   UNL     1       0.773  -3.312   5.493  1.00  0.00     0.293 HD
ENDBRANCH   5  19
BRANCH   6  21
ATOM     21  O   UNL     1       1.438  -1.504   3.928  1.00  0.00    -0.500 OA
ATOM     22  H   UNL     1       1.629  -0.826   3.261  1.00  0.00     0.294 HD
ENDBRANCH   6  21
TORSDOF 5
ENDMDL
MODEL 5
REMARK VINA RESULT:    -4.219      3.829      7.039
REMARK INTER + INTRA:          -6.027
REMARK INTER:                  -5.041
REMARK INTRA:                  -0.986
REMARK UNBOUND:                -0.822
REMARK SMILES Cc1ccc(C(=O)c2cc(O)c(O)c([N+](=O)[O-])c2)cc1
REMARK SMILES IDX 8 1 18 2 9 3 14 4 10 5 12 6 6 7 7 8 5 9 4 10 19 11 3 12
REMARK SMILES IDX 20 13 2 14 1 15 15 16 17 17 16 18 11 19 13 21
REMARK H PARENT 11 20 13 22
ROOT
ATOM      1  C   UNL     1       5.660  -2.507   9.417  1.00  0.00     0.033 A 
ATOM      2  C   UNL     1       5.954  -3.760   9.903  1.00  0.00     0.102 A 
ATOM      3  C   UNL     1       6.439  -1.404   9.676  1.00  0.00     0.063 A 
ATOM      4  C   UNL     1       7.093  -3.918  10.692  1.00  0.00     0.315 A 
ATOM      5  C   UNL     1       7.578  -1.563  10.466  1.00  0.00     0.165 A 
ATOM      6  C   UNL     1       7.905  -2.821  10.974  1.00  0.00     0.237 A 
ENDROOT
BRANCH   1   7
ATOM      7  C   UNL     1       4.440  -2.336   8.571  1.00  0.00     0.193 C 
ATOM      8  O   UNL     1       3.360  -2.717   9.047  1.00  0.00    -0.289 OA
BRANCH   7   9
ATOM      9  C   UNL     1       4.489  -1.749   7.241  1.00  0.00     0.023 A 
ATOM     10  C   UNL     1       5.329  -2.294   6.269  1.00  0.00     0.012 A 
ATOM     11  C   UNL     1       3.697  -0.643   6.938  1.00  0.00     0.012 A 
ATOM     12  C   UNL     1       5.375  -1.731   4.994  1.00  0.00     0.004 A 
ATOM     13  C   UNL     1       3.743  -0.079   5.662  1.00  0.00     0.004 A 
ATOM     14  C   UNL     1       4.582  -0.624   4.689  1.00  0.00    -0.051 A 
ATOM     15  C   UNL     1       4.633  -0.022   3.327  1.00  0.00     0.044 C 
ENDBRANCH   7   9
ENDBRANCH   1   7
BRANCH   4  16
ATOM     16  N   UNL     1       7.410  -5.208  11.201  1.00  0.00     0.066 N 
ATOM     17  O   UNL     1       8.053  -5.294  12.275  1.00  0.00    -0.258 OA
ATOM     18  O   UNL     1       7.036  -6.220  10.563  1.00  0.00    -0.258 OA
ENDBRANCH   4  16
BRANCH   5  19
ATOM     19  O   UNL     1       8.362  -0.481  10.733  1.00  0.00    -0.504 OA
ATOM     20  H   UNL     1       9.039  -0.391  10.042  1.00  0.00     0.293 HD
ENDBRANCH   5  19
BRANCH   6  21
ATOM     21  O   UNL     1       9.022  -2.963  11.746  1.00  0.00    -0.500 OA
ATOM     22  H   UNL     1       9.161  -2.159  12.269  1.00  0.00     0.294 HD
ENDBRANCH   6  21
TORSDOF 5
ENDMDL
MODEL 6
REMARK VINA RESULT:    -4.217      3.707      6.559
REMARK INTER + INTRA:          -6.025
REMARK INTER:                  -5.040
REMARK INTRA:                  -0.985
REMARK UNBOUND:                -0.822
REMARK SMILES Cc1ccc(C(=O)c2cc(O)c(O)c([N+](=O)[O-])c2)cc1
REMARK SMILES IDX 8 1 18 2 9 3 14 4 10 5 12 6 6 7 7 8 5 9 4 10 19 11 3 12
REMARK SMILES IDX 20 13 2 14 1 15 15 16 17 17 16 18 11 19 13 21
REMARK H PARENT 11 20 13 22
ROOT
ATOM      1  C   UNL     1       5.553  -2.596   9.420  1.00  0.00     0.033 A 
ATOM      2  C   UNL     1       6.404  -1.544   9.670  1.00  0.00     0.102 A 
ATOM      3  C   UNL     1       5.766  -3.861   9.913  1.00  0.00     0.063 A 
ATOM      4  C   UNL     1       7.532  -1.771  10.459  1.00  0.00     0.315 A 
ATOM      5  C   UNL     1       6.895  -4.089  10.701  1.00  0.00     0.165 A 
ATOM      6  C   UNL     1       7.778  -3.043  10.974  1.00  0.00     0.237 A 
ENDROOT
BRANCH   1   7
ATOM      7  C   UNL     1       4.345  -2.353   8.576  1.00  0.00     0.193 C 
ATOM      8  O   UNL     1       3.245  -2.676   9.050  1.00  0.00    -0.289 OA
BRANCH   7   9
ATOM      9  C   UNL     1       4.427  -1.763   7.249  1.00  0.00     0.023 A 
ATOM     10  C   UNL     1       5.285  -2.309   6.295  1.00  0.00     0.012 A 
ATOM     11  C   UNL     1       3.647  -0.651   6.931  1.00  0.00     0.012 A 
ATOM     12  C   UNL     1       5.363  -1.743   5.023  1.00  0.00     0.004 A 
ATOM     13  C   UNL     1       3.725  -0.084   5.658  1.00  0.00     0.004 A 
ATOM     14  C   UNL     1       4.583  -0.630   4.703  1.00  0.00    -0.051 A 
ATOM     15  C   UNL     1       4.668  -0.025   3.344  1.00  0.00     0.044 C 
ENDBRANCH   7   9
ENDBRANCH   1   7
BRANCH   4  16
ATOM     16  N   UNL     1       8.420  -0.693  10.726  1.00  0.00     0.066 N 
ATOM     17  O   UNL     1       9.017  -0.660  11.829  1.00  0.00    -0.258 OA
ATOM     18  O   UNL     1       8.580   0.191   9.853  1.00  0.00    -0.258 OA
ENDBRANCH   4  16
BRANCH   5  19
ATOM     19  O   UNL     1       7.122  -5.337  11.198  1.00  0.00    -0.504 OA
ATOM     20  H   UNL     1       8.027  -5.388  11.549  1.00  0.00     0.293 HD
ENDBRANCH   5  19
BRANCH   6  21
ATOM     21  O   UNL     1       8.878  -3.278  11.747  1.00  0.00    -0.500 OA
ATOM     22  H   UNL     1       9.027  -4.234  11.820  1.00  0.00     0.294 HD
ENDBRANCH   6  21
TORSDOF 5
ENDMDL
MODEL 7
REMARK VINA RESULT:    -4.214      3.570      7.157
REMARK INTER + INTRA:          -6.021
REMARK INTER:                  -5.020
REMARK INTRA:                  -1.001
REMARK UNBOUND:                -0.822
REMARK SMILES Cc1ccc(C(=O)c2cc(O)c(O)c([N+](=O)[O-])c2)cc1
REMARK SMILES IDX 8 1 18 2 9 3 14 4 10 5 12 6 6 7 7 8 5 9 4 10 19 11 3 12
REMARK SMILES IDX 20 13 2 14 1 15 15 16 17 17 16 18 11 19 13 21
REMARK H PARENT 11 20 13 22
ROOT
ATOM      1  C   UNL     1       6.596  -2.606   8.526  1.00  0.00     0.033 A 
ATOM      2  C   UNL     1       6.492  -3.866   9.068  1.00  0.00     0.102 A 
ATOM      3  C   UNL     1       7.291  -1.588   9.133  1.00  0.00     0.063 A 
ATOM      4  C   UNL     1       7.122  -4.123  10.286  1.00  0.00     0.315 A 
ATOM      5  C   UNL     1       7.921  -1.843  10.352  1.00  0.00     0.165 A 
ATOM      6  C   UNL     1       7.837  -3.112  10.928  1.00  0.00     0.237 A 
ENDROOT
BRANCH   1   7
ATOM      7  C   UNL     1       5.921  -2.331   7.222  1.00  0.00     0.193 C 
ATOM      8  O   UNL     1       6.620  -1.874   6.305  1.00  0.00    -0.289 OA
BRANCH   7   9
ATOM      9  C   UNL     1       4.505  -2.582   7.009  1.00  0.00     0.023 A 
ATOM     10  C   UNL     1       4.091  -3.393   5.952  1.00  0.00     0.012 A 
ATOM     11  C   UNL     1       3.559  -2.012   7.862  1.00  0.00     0.012 A 
ATOM     12  C   UNL     1       2.732  -3.633   5.748  1.00  0.00     0.004 A 
ATOM     13  C   UNL     1       2.200  -2.252   7.658  1.00  0.00     0.004 A 
ATOM     14  C   UNL     1       1.786  -3.063   6.601  1.00  0.00    -0.051 A 
ATOM     15  C   UNL     1       0.334  -3.319   6.381  1.00  0.00     0.044 C 
ENDBRANCH   7   9
ENDBRANCH   1   7
BRANCH   4  16
ATOM     16  N   UNL     1       7.025  -5.421  10.858  1.00  0.00     0.066 N 
ATOM     17  O   UNL     1       7.974  -5.846  11.560  1.00  0.00    -0.258 OA
ATOM     18  O   UNL     1       5.995  -6.101  10.644  1.00  0.00    -0.258 OA
ENDBRANCH   4  16
BRANCH   5  19
ATOM     19  O   UNL     1       8.616  -0.846  10.968  1.00  0.00    -0.504 OA
ATOM     20  H   UNL     1       9.293  -1.232  11.547  1.00  0.00     0.293 HD
ENDBRANCH   5  19
BRANCH   6  21
ATOM     21  O   UNL     1       8.457  -3.350  12.120  1.00  0.00    -0.500 OA
ATOM     22  H   UNL     1       8.641  -4.298  12.208  1.00  0.00     0.294 HD
ENDBRANCH   6  21
TORSDOF 5
ENDMDL
MODEL 8
REMARK VINA RESULT:    -4.202      3.763      6.832
REMARK INTER + INTRA:          -6.007
REMARK INTER:                  -5.016
REMARK INTRA:                  -0.991
REMARK UNBOUND:                -0.822
REMARK SMILES Cc1ccc(C(=O)c2cc(O)c(O)c([N+](=O)[O-])c2)cc1
REMARK SMILES IDX 8 1 18 2 9 3 14 4 10 5 12 6 6 7 7 8 5 9 4 10 19 11 3 12
REMARK SMILES IDX 20 13 2 14 1 15 15 16 17 17 16 18 11 19 13 21
REMARK H PARENT 11 20 13 22
ROOT
ATOM      1  C   UNL     1       6.564  -2.667   8.572  1.00  0.00     0.033 A 
ATOM      2  C   UNL     1       7.254  -1.667   9.217  1.00  0.00     0.102 A 
ATOM      3  C   UNL     1       6.457  -3.943   9.073  1.00  0.00     0.063 A 
ATOM      4  C   UNL     1       7.871  -1.960  10.433  1.00  0.00     0.315 A 
ATOM      5  C   UNL     1       7.075  -4.237  10.289  1.00  0.00     0.165 A 
ATOM      6  C   UNL     1       7.782  -3.245  10.969  1.00  0.00     0.237 A 
ENDROOT
BRANCH   1   7
ATOM      7  C   UNL     1       5.903  -2.354   7.270  1.00  0.00     0.193 C 
ATOM      8  O   UNL     1       6.611  -1.869   6.374  1.00  0.00    -0.289 OA
BRANCH   7   9
ATOM      9  C   UNL     1       4.488  -2.596   7.035  1.00  0.00     0.023 A 
ATOM     10  C   UNL     1       4.086  -3.392   5.962  1.00  0.00     0.012 A 
ATOM     11  C   UNL     1       3.534  -2.035   7.883  1.00  0.00     0.012 A 
ATOM     12  C   UNL     1       2.729  -3.625   5.737  1.00  0.00     0.004 A 
ATOM     13  C   UNL     1       2.176  -2.267   7.659  1.00  0.00     0.004 A 
ATOM     14  C   UNL     1       1.774  -3.063   6.586  1.00  0.00    -0.051 A 
ATOM     15  C   UNL     1       0.324  -3.311   6.344  1.00  0.00     0.044 C 
ENDBRANCH   7   9
ENDBRANCH   1   7
BRANCH   4  16
ATOM     16  N   UNL     1       8.588  -0.937  11.112  1.00  0.00     0.066 N 
ATOM     17  O   UNL     1       9.549  -1.258  11.852  1.00  0.00    -0.258 OA
ATOM     18  O   UNL     1       8.239   0.256  10.951  1.00  0.00    -0.258 OA
ENDBRANCH   4  16
BRANCH   5  19
ATOM     19  O   UNL     1       6.979  -5.496  10.801  1.00  0.00    -0.504 OA
ATOM     20  H   UNL     1       6.229  -5.540  11.417  1.00  0.00     0.293 HD
ENDBRANCH   5  19
BRANCH   6  21
ATOM     21  O   UNL     1       8.382  -3.544  12.158  1.00  0.00    -0.500 OA
ATOM     22  H   UNL     1       9.076  -4.207  12.016  1.00  0.00     0.294 HD
ENDBRANCH   6  21
TORSDOF 5
ENDMDL
MODEL 9
REMARK VINA RESULT:    -4.188      1.522      1.737
REMARK INTER + INTRA:          -5.989
REMARK INTER:                  -5.701
REMARK INTRA:                  -0.288
REMARK UNBOUND:                -0.822
REMARK SMILES Cc1ccc(C(=O)c2cc(O)c(O)c([N+](=O)[O-])c2)cc1
REMARK SMILES IDX 8 1 18 2 9 3 14 4 10 5 12 6 6 7 7 8 5 9 4 10 19 11 3 12
REMARK SMILES IDX 20 13 2 14 1 15 15 16 17 17 16 18 11 19 13 21
REMARK H PARENT 11 20 13 22
ROOT
ATOM      1  C   UNL     1       2.701  -1.972   7.134  1.00  0.00     0.033 A 
ATOM      2  C   UNL     1       3.353  -1.079   6.316  1.00  0.00     0.102 A 
ATOM      3  C   UNL     1       1.730  -2.831   6.676  1.00  0.00     0.063 A 
ATOM      4  C   UNL     1       3.015  -1.043   4.963  1.00  0.00     0.315 A 
ATOM      5  C   UNL     1       1.391  -2.795   5.323  1.00  0.00     0.165 A 
ATOM      6  C   UNL     1       2.034  -1.901   4.466  1.00  0.00     0.237 A 
ENDROOT
BRANCH   1   7
ATOM      7  C   UNL     1       3.062  -2.011   8.583  1.00  0.00     0.193 C 
ATOM      8  O   UNL     1       2.131  -2.036   9.401  1.00  0.00    -0.289 OA
BRANCH   7   9
ATOM      9  C   UNL     1       4.442  -2.019   9.042  1.00  0.00     0.023 A 
ATOM     10  C   UNL     1       4.878  -3.009   9.923  1.00  0.00     0.012 A 
ATOM     11  C   UNL     1       5.330  -1.038   8.601  1.00  0.00     0.012 A 
ATOM     12  C   UNL     1       6.201  -3.017  10.364  1.00  0.00     0.004 A 
ATOM     13  C   UNL     1       6.654  -1.046   9.042  1.00  0.00     0.004 A 
ATOM     14  C   UNL     1       7.090  -2.035   9.923  1.00  0.00    -0.051 A 
ATOM     15  C   UNL     1       8.504  -2.044  10.395  1.00  0.00     0.044 C 
ENDBRANCH   7   9
ENDBRANCH   1   7
BRANCH   4  16
ATOM     16  N   UNL     1       3.681  -0.125   4.106  1.00  0.00     0.066 N 
ATOM     17  O   UNL     1       4.936  -0.118   4.082  1.00  0.00    -0.258 OA
ATOM     18  O   UNL     1       2.996   0.650   3.398  1.00  0.00    -0.258 OA
ENDBRANCH   4  16
BRANCH   5  19
ATOM     19  O   UNL     1       0.431  -3.640   4.852  1.00  0.00    -0.504 OA
ATOM     20  H   UNL     1       0.108  -3.318   3.994  1.00  0.00     0.293 HD
ENDBRANCH   5  19
BRANCH   6  21
ATOM     21  O   UNL     1       1.695  -1.876   3.145  1.00  0.00    -0.500 OA
ATOM     22  H   UNL     1       2.121  -1.119   2.713  1.00  0.00     0.294 HD
ENDBRANCH   6  21
TORSDOF 5
ENDMDL
