MODEL 1
REMARK VINA RESULT:    -6.845      0.000      0.000
REMARK INTER + INTRA:          -8.707
REMARK INTER:                  -8.045
REMARK INTRA:                  -0.662
REMARK UNBOUND:                -0.662
REMARK SMILES O=C(O)c1cc(-c2ccc(F)cc2F)ccc1O
REMARK SMILES IDX 6 1 5 2 15 3 4 4 17 5 16 6 7 7 13 8 12 9 8 10 10 11 9 12
REMARK SMILES IDX 14 13 11 14 2 15 1 16 3 17 18 19
REMARK H PARENT 3 18 18 20
ROOT
ATOM      1  C   UNL     1       3.982  -2.059   6.667  1.00  0.00    -0.014 A 
ATOM      2  C   UNL     1       2.787  -2.777   6.671  1.00  0.00     0.028 A 
ATOM      3  C   UNL     1       4.242  -1.143   5.648  1.00  0.00     0.013 A 
ATOM      4  C   UNL     1       1.851  -2.579   5.655  1.00  0.00     0.102 A 
ATOM      5  C   UNL     1       2.111  -1.663   4.636  1.00  0.00     0.130 A 
ATOM      6  C   UNL     1       3.308  -0.945   4.633  1.00  0.00     0.048 A 
ENDROOT
BRANCH   1   7
ATOM      7  C   UNL     1       4.954  -2.265   7.720  1.00  0.00     0.018 A 
ATOM      8  C   UNL     1       4.550  -2.266   9.055  1.00  0.00     0.133 A 
ATOM      9  C   UNL     1       5.490  -2.464  10.067  1.00  0.00     0.079 A 
ATOM     10  C   UNL     1       6.296  -2.464   7.396  1.00  0.00     0.015 A 
ATOM     11  C   UNL     1       6.832  -2.662   9.743  1.00  0.00     0.126 A 
ATOM     12  C   UNL     1       7.234  -2.662   8.407  1.00  0.00     0.040 A 
ATOM     13  F   UNL     1       3.265  -2.073   9.383  1.00  0.00    -0.206 F 
ATOM     14  F   UNL     1       7.735  -2.852  10.713  1.00  0.00    -0.207 F 
ENDBRANCH   1   7
BRANCH   4  15
ATOM     15  C   UNL     1       0.608  -3.338   5.677  1.00  0.00     0.339 C 
ATOM     16  O   UNL     1       0.103  -3.908   4.707  1.00  0.00    -0.246 OA
BRANCH  15  17
ATOM     17  O   UNL     1       0.037  -3.362   6.912  1.00  0.00    -0.478 OA
ATOM     18  H   UNL     1       0.669  -3.090   7.611  1.00  0.00     0.297 HD
ENDBRANCH  15  17
ENDBRANCH   4  15
BRANCH   5  19
ATOM     19  O   UNL     1       1.210  -1.455   3.635  1.00  0.00    -0.507 OA
ATOM     20  H   UNL     1       1.652  -0.993   2.901  1.00  0.00     0.293 HD
ENDBRANCH   5  19
TORSDOF 4
ENDMDL
MODEL 2
REMARK VINA RESULT:    -6.835      1.121      1.605
REMARK INTER + INTRA:          -8.695
REMARK INTER:                  -8.033
REMARK INTRA:                  -0.662
REMARK UNBOUND:                -0.662
REMARK SMILES O=C(O)c1cc(-c2ccc(F)cc2F)ccc1O
REMARK SMILES IDX 6 1 5 2 15 3 4 4 17 5 16 6 7 7 13 8 12 9 8 10 10 11 9 12
REMARK SMILES IDX 14 13 11 14 2 15 1 16 3 17 18 19
REMARK H PARENT 3 18 18 20
ROOT
ATOM      1  C   UNL     1       3.997  -2.069   6.640  1.00  0.00    -0.014 A 
ATOM      2  C   UNL     1       2.799  -2.782   6.654  1.00  0.00     0.028 A 
ATOM      3  C   UNL     1       4.255  -1.157   5.617  1.00  0.00     0.013 A 
ATOM      4  C   UNL     1       1.857  -2.583   5.644  1.00  0.00     0.102 A 
ATOM      5  C   UNL     1       2.115  -1.671   4.620  1.00  0.00     0.130 A 
ATOM      6  C   UNL     1       3.314  -0.958   4.607  1.00  0.00     0.048 A 
ENDROOT
BRANCH   1   7
ATOM      7  C   UNL     1       4.975  -2.276   7.687  1.00  0.00     0.018 A 
ATOM      8  C   UNL     1       6.313  -2.498   7.361  1.00  0.00     0.133 A 
ATOM      9  C   UNL     1       7.253  -2.697   8.373  1.00  0.00     0.079 A 
ATOM     10  C   UNL     1       4.577  -2.252   9.023  1.00  0.00     0.015 A 
ATOM     11  C   UNL     1       6.854  -2.674   9.709  1.00  0.00     0.126 A 
ATOM     12  C   UNL     1       5.516  -2.451  10.034  1.00  0.00     0.040 A 
ATOM     13  F   UNL     1       6.712  -2.527   6.081  1.00  0.00    -0.206 F 
ATOM     14  F   UNL     1       7.755  -2.865  10.681  1.00  0.00    -0.207 F 
ENDBRANCH   1   7
BRANCH   4  15
ATOM     15  C   UNL     1       0.611  -3.336   5.676  1.00  0.00     0.339 C 
ATOM     16  O   UNL     1       0.099  -3.911   4.712  1.00  0.00    -0.246 OA
BRANCH  15  17
ATOM     17  O   UNL     1       0.045  -3.349   6.914  1.00  0.00    -0.478 OA
ATOM     18  H   UNL     1      -0.691  -2.705   6.985  1.00  0.00     0.297 HD
ENDBRANCH  15  17
ENDBRANCH   4  15
BRANCH   5  19
ATOM     19  O   UNL     1       1.208  -1.461   3.625  1.00  0.00    -0.507 OA
ATOM     20  H   UNL     1       0.356  -1.854   3.883  1.00  0.00     0.293 HD
ENDBRANCH   5  19
TORSDOF 4
ENDMDL
MODEL 3
REMARK VINA RESULT:    -6.815      1.690      3.183
REMARK INTER + INTRA:          -8.672
REMARK INTER:                  -8.077
REMARK INTRA:                  -0.594
REMARK UNBOUND:                -0.662
REMARK SMILES O=C(O)c1cc(-c2ccc(F)cc2F)ccc1O
REMARK SMILES IDX 6 1 5 2 15 3 4 4 17 5 16 6 7 7 13 8 12 9 8 10 10 11 9 12
REMARK SMILES IDX 14 13 11 14 2 15 1 16 3 17 18 19
REMARK H PARENT 3 18 18 20
ROOT
ATOM      1  C   UNL     1       4.018  -2.090   6.568  1.00  0.00    -0.014 A 
ATOM      2  C   UNL     1       4.349  -1.184   5.562  1.00  0.00     0.028 A 
ATOM      3  C   UNL     1       2.793  -2.756   6.532  1.00  0.00     0.013 A 
ATOM      4  C   UNL     1       3.456  -0.942   4.518  1.00  0.00     0.102 A 
ATOM      5  C   UNL     1       2.231  -1.608   4.482  1.00  0.00     0.130 A 
ATOM      6  C   UNL     1       1.899  -2.516   5.489  1.00  0.00     0.048 A 
ENDROOT
BRANCH   1   7
ATOM      7  C   UNL     1       4.944  -2.340   7.652  1.00  0.00     0.018 A 
ATOM      8  C   UNL     1       6.294  -2.566   7.382  1.00  0.00     0.133 A 
ATOM      9  C   UNL     1       7.183  -2.807   8.430  1.00  0.00     0.079 A 
ATOM     10  C   UNL     1       4.484  -2.354   8.969  1.00  0.00     0.015 A 
ATOM     11  C   UNL     1       6.723  -2.821   9.746  1.00  0.00     0.126 A 
ATOM     12  C   UNL     1       5.374  -2.594  10.015  1.00  0.00     0.040 A 
ATOM     13  F   UNL     1       6.752  -2.559   6.122  1.00  0.00    -0.206 F 
ATOM     14  F   UNL     1       7.576  -3.052  10.752  1.00  0.00    -0.207 F 
ENDBRANCH   1   7
BRANCH   4  15
ATOM     15  C   UNL     1       3.821   0.008   3.477  1.00  0.00     0.339 C 
ATOM     16  O   UNL     1       3.139   0.972   3.119  1.00  0.00    -0.246 OA
BRANCH  15  17
ATOM     17  O   UNL     1       5.028  -0.275   2.917  1.00  0.00    -0.478 OA
ATOM     18  H   UNL     1       5.046  -1.173   2.524  1.00  0.00     0.297 HD
ENDBRANCH  15  17
ENDBRANCH   4  15
BRANCH   5  19
ATOM     19  O   UNL     1       1.344  -1.387   3.470  1.00  0.00    -0.507 OA
ATOM     20  H   UNL     1       0.466  -1.707   3.742  1.00  0.00     0.293 HD
ENDBRANCH   5  19
TORSDOF 4
ENDMDL
MODEL 4
REMARK VINA RESULT:    -6.814      1.286      2.747
REMARK INTER + INTRA:          -8.672
REMARK INTER:                  -8.071
REMARK INTRA:                  -0.601
REMARK UNBOUND:                -0.662
REMARK SMILES O=C(O)c1cc(-c2ccc(F)cc2F)ccc1O
REMARK SMILES IDX 6 1 5 2 15 3 4 4 17 5 16 6 7 7 13 8 12 9 8 10 10 11 9 12
REMARK SMILES IDX 14 13 11 14 2 15 1 16 3 17 18 19
REMARK H PARENT 3 18 18 20
ROOT
ATOM      1  C   UNL     1       3.983  -2.082   6.577  1.00  0.00    -0.014 A 
ATOM      2  C   UNL     1       4.323  -1.178   5.571  1.00  0.00     0.028 A 
ATOM      3  C   UNL     1       2.758  -2.748   6.532  1.00  0.00     0.013 A 
ATOM      4  C   UNL     1       3.438  -0.940   4.519  1.00  0.00     0.102 A 
ATOM      5  C   UNL     1       2.213  -1.606   4.474  1.00  0.00     0.130 A 
ATOM      6  C   UNL     1       1.873  -2.511   5.481  1.00  0.00     0.048 A 
ENDROOT
BRANCH   1   7
ATOM      7  C   UNL     1       4.900  -2.328   7.670  1.00  0.00     0.018 A 
ATOM      8  C   UNL     1       4.441  -2.307   8.987  1.00  0.00     0.133 A 
ATOM      9  C   UNL     1       5.329  -2.545  10.037  1.00  0.00     0.079 A 
ATOM     10  C   UNL     1       6.244  -2.588   7.402  1.00  0.00     0.015 A 
ATOM     11  C   UNL     1       6.672  -2.804   9.770  1.00  0.00     0.126 A 
ATOM     12  C   UNL     1       7.130  -2.826   8.452  1.00  0.00     0.040 A 
ATOM     13  F   UNL     1       3.153  -2.056   9.261  1.00  0.00    -0.206 F 
ATOM     14  F   UNL     1       7.525  -3.032  10.777  1.00  0.00    -0.207 F 
ENDBRANCH   1   7
BRANCH   4  15
ATOM     15  C   UNL     1       3.811   0.007   3.478  1.00  0.00     0.339 C 
ATOM     16  O   UNL     1       3.137   0.975   3.118  1.00  0.00    -0.246 OA
BRANCH  15  17
ATOM     17  O   UNL     1       5.018  -0.285   2.920  1.00  0.00    -0.478 OA
ATOM     18  H   UNL     1       5.754  -0.155   3.554  1.00  0.00     0.297 HD
ENDBRANCH  15  17
ENDBRANCH   4  15
BRANCH   5  19
ATOM     19  O   UNL     1       1.335  -1.388   3.455  1.00  0.00    -0.507 OA
ATOM     20  H   UNL     1       0.429  -1.535   3.779  1.00  0.00     0.293 HD
ENDBRANCH   5  19
TORSDOF 4
ENDMDL
MODEL 5
REMARK VINA RESULT:    -5.544      1.148      1.430
REMARK INTER + INTRA:          -7.178
REMARK INTER:                  -6.441
REMARK INTRA:                  -0.737
REMARK UNBOUND:                -0.662
REMARK SMILES O=C(O)c1cc(-c2ccc(F)cc2F)ccc1O
REMARK SMILES IDX 6 1 5 2 15 3 4 4 17 5 16 6 7 7 13 8 12 9 8 10 10 11 9 12
REMARK SMILES IDX 14 13 11 14 2 15 1 16 3 17 18 19
REMARK H PARENT 3 18 18 20
ROOT
ATOM      1  C   UNL     1       4.443  -2.193   6.874  1.00  0.00    -0.014 A 
ATOM      2  C   UNL     1       3.152  -2.714   6.953  1.00  0.00     0.028 A 
ATOM      3  C   UNL     1       4.845  -1.496   5.735  1.00  0.00     0.013 A 
ATOM      4  C   UNL     1       2.262  -2.538   5.893  1.00  0.00     0.102 A 
ATOM      5  C   UNL     1       2.665  -1.841   4.754  1.00  0.00     0.130 A 
ATOM      6  C   UNL     1       3.957  -1.320   4.675  1.00  0.00     0.048 A 
ENDROOT
BRANCH   1   7
ATOM      7  C   UNL     1       5.366  -2.376   7.973  1.00  0.00     0.018 A 
ATOM      8  C   UNL     1       5.546  -3.641   8.534  1.00  0.00     0.133 A 
ATOM      9  C   UNL     1       6.438  -3.813   9.593  1.00  0.00     0.079 A 
ATOM     10  C   UNL     1       6.078  -1.285   8.471  1.00  0.00     0.015 A 
ATOM     11  C   UNL     1       7.148  -2.722  10.091  1.00  0.00     0.126 A 
ATOM     12  C   UNL     1       6.969  -1.458   9.529  1.00  0.00     0.040 A 
ATOM     13  F   UNL     1       4.868  -4.700   8.069  1.00  0.00    -0.206 F 
ATOM     14  F   UNL     1       8.004  -2.886  11.108  1.00  0.00    -0.207 F 
ENDBRANCH   1   7
BRANCH   4  15
ATOM     15  C   UNL     1       0.918  -3.089   5.995  1.00  0.00     0.339 C 
ATOM     16  O   UNL     1       0.221  -3.086   7.013  1.00  0.00    -0.246 OA
BRANCH  15  17
ATOM     17  O   UNL     1       0.487  -3.626   4.821  1.00  0.00    -0.478 OA
ATOM     18  H   UNL     1       0.259  -2.934   4.166  1.00  0.00     0.297 HD
ENDBRANCH  15  17
ENDBRANCH   4  15
BRANCH   5  19
ATOM     19  O   UNL     1       1.811  -1.658   3.707  1.00  0.00    -0.507 OA
ATOM     20  H   UNL     1       2.195  -1.008   3.094  1.00  0.00     0.293 HD
ENDBRANCH   5  19
TORSDOF 4
ENDMDL
MODEL 6
REMARK VINA RESULT:    -5.234      4.010      6.276
REMARK INTER + INTRA:          -6.814
REMARK INTER:                  -5.731
REMARK INTRA:                  -1.083
REMARK UNBOUND:                -0.662
REMARK SMILES O=C(O)c1cc(-c2ccc(F)cc2F)ccc1O
REMARK SMILES IDX 6 1 5 2 15 3 4 4 17 5 16 6 7 7 13 8 12 9 8 10 10 11 9 12
REMARK SMILES IDX 14 13 11 14 2 15 1 16 3 17 18 19
REMARK H PARENT 3 18 18 20
ROOT
ATOM      1  C   UNL     1       5.393  -2.637   8.536  1.00  0.00    -0.014 A 
ATOM      2  C   UNL     1       5.696  -3.792   9.256  1.00  0.00     0.028 A 
ATOM      3  C   UNL     1       6.111  -1.464   8.764  1.00  0.00     0.013 A 
ATOM      4  C   UNL     1       6.717  -3.773  10.207  1.00  0.00     0.102 A 
ATOM      5  C   UNL     1       7.435  -2.600  10.436  1.00  0.00     0.130 A 
ATOM      6  C   UNL     1       7.132  -1.444   9.714  1.00  0.00     0.048 A 
ENDROOT
BRANCH   1   7
ATOM      7  C   UNL     1       4.334  -2.656   7.550  1.00  0.00     0.018 A 
ATOM      8  C   UNL     1       3.038  -2.279   7.908  1.00  0.00     0.133 A 
ATOM      9  C   UNL     1       2.020  -2.298   6.955  1.00  0.00     0.079 A 
ATOM     10  C   UNL     1       4.610  -3.049   6.241  1.00  0.00     0.015 A 
ATOM     11  C   UNL     1       2.295  -2.693   5.646  1.00  0.00     0.126 A 
ATOM     12  C   UNL     1       3.591  -3.068   5.290  1.00  0.00     0.040 A 
ATOM     13  F   UNL     1       2.756  -1.901   9.163  1.00  0.00    -0.206 F 
ATOM     14  F   UNL     1       1.318  -2.711   4.731  1.00  0.00    -0.207 F 
ENDBRANCH   1   7
BRANCH   4  15
ATOM     15  C   UNL     1       7.018  -4.990  10.949  1.00  0.00     0.339 C 
ATOM     16  O   UNL     1       7.929  -5.117  11.771  1.00  0.00    -0.246 OA
BRANCH  15  17
ATOM     17  O   UNL     1       6.170  -6.008  10.641  1.00  0.00    -0.478 OA
ATOM     18  H   UNL     1       5.848  -5.947   9.718  1.00  0.00     0.297 HD
ENDBRANCH  15  17
ENDBRANCH   4  15
BRANCH   5  19
ATOM     19  O   UNL     1       8.437  -2.561  11.360  1.00  0.00    -0.507 OA
ATOM     20  H   UNL     1       8.163  -3.063  12.147  1.00  0.00     0.293 HD
ENDBRANCH   5  19
TORSDOF 4
ENDMDL
MODEL 7
REMARK VINA RESULT:    -5.233      4.608      6.879
REMARK INTER + INTRA:          -6.813
REMARK INTER:                  -5.730
REMARK INTRA:                  -1.083
REMARK UNBOUND:                -0.662
REMARK SMILES O=C(O)c1cc(-c2ccc(F)cc2F)ccc1O
REMARK SMILES IDX 6 1 5 2 15 3 4 4 17 5 16 6 7 7 13 8 12 9 8 10 10 11 9 12
REMARK SMILES IDX 14 13 11 14 2 15 1 16 3 17 18 19
REMARK H PARENT 3 18 18 20
ROOT
ATOM      1  C   UNL     1       5.827  -2.277   8.255  1.00  0.00    -0.014 A 
ATOM      2  C   UNL     1       6.717  -1.429   8.913  1.00  0.00     0.028 A 
ATOM      3  C   UNL     1       5.675  -3.596   8.682  1.00  0.00     0.013 A 
ATOM      4  C   UNL     1       7.456  -1.900   9.999  1.00  0.00     0.102 A 
ATOM      5  C   UNL     1       7.304  -3.219  10.426  1.00  0.00     0.130 A 
ATOM      6  C   UNL     1       6.413  -4.067   9.767  1.00  0.00     0.048 A 
ENDROOT
BRANCH   1   7
ATOM      7  C   UNL     1       5.061  -1.790   7.127  1.00  0.00     0.018 A 
ATOM      8  C   UNL     1       5.545  -1.953   5.829  1.00  0.00     0.133 A 
ATOM      9  C   UNL     1       4.804  -1.482   4.745  1.00  0.00     0.079 A 
ATOM     10  C   UNL     1       3.837  -1.157   7.341  1.00  0.00     0.015 A 
ATOM     11  C   UNL     1       3.580  -0.849   4.959  1.00  0.00     0.126 A 
ATOM     12  C   UNL     1       3.097  -0.687   6.258  1.00  0.00     0.040 A 
ATOM     13  F   UNL     1       6.721  -2.557   5.606  1.00  0.00    -0.206 F 
ATOM     14  F   UNL     1       2.868  -0.396   3.919  1.00  0.00    -0.207 F 
ENDBRANCH   1   7
BRANCH   4  15
ATOM     15  C   UNL     1       8.380  -0.998  10.673  1.00  0.00     0.339 C 
ATOM     16  O   UNL     1       9.066  -1.284  11.657  1.00  0.00    -0.246 OA
BRANCH  15  17
ATOM     17  O   UNL     1       8.418   0.233  10.094  1.00  0.00    -0.478 OA
ATOM     18  H   UNL     1       7.764   0.315   9.369  1.00  0.00     0.297 HD
ENDBRANCH  15  17
ENDBRANCH   4  15
BRANCH   5  19
ATOM     19  O   UNL     1       8.016  -3.698  11.485  1.00  0.00    -0.507 OA
ATOM     20  H   UNL     1       8.872  -4.031  11.167  1.00  0.00     0.293 HD
ENDBRANCH   5  19
TORSDOF 4
ENDMDL
MODEL 8
REMARK VINA RESULT:    -5.201      4.150      6.466
REMARK INTER + INTRA:          -6.775
REMARK INTER:                  -5.703
REMARK INTRA:                  -1.071
REMARK UNBOUND:                -0.662
REMARK SMILES O=C(O)c1cc(-c2ccc(F)cc2F)ccc1O
REMARK SMILES IDX 6 1 5 2 15 3 4 4 17 5 16 6 7 7 13 8 12 9 8 10 10 11 9 12
REMARK SMILES IDX 14 13 11 14 2 15 1 16 3 17 18 19
REMARK H PARENT 3 18 18 20
ROOT
ATOM      1  C   UNL     1       5.778  -2.493   8.578  1.00  0.00    -0.014 A 
ATOM      2  C   UNL     1       5.891  -3.760   9.147  1.00  0.00     0.028 A 
ATOM      3  C   UNL     1       6.569  -1.444   9.047  1.00  0.00     0.013 A 
ATOM      4  C   UNL     1       6.796  -3.981  10.186  1.00  0.00     0.102 A 
ATOM      5  C   UNL     1       7.588  -2.932  10.655  1.00  0.00     0.130 A 
ATOM      6  C   UNL     1       7.474  -1.663  10.085  1.00  0.00     0.048 A 
ENDROOT
BRANCH   1   7
ATOM      7  C   UNL     1       4.838  -2.263   7.501  1.00  0.00     0.018 A 
ATOM      8  C   UNL     1       5.267  -2.312   6.174  1.00  0.00     0.133 A 
ATOM      9  C   UNL     1       4.358  -2.090   5.140  1.00  0.00     0.079 A 
ATOM     10  C   UNL     1       3.501  -1.994   7.793  1.00  0.00     0.015 A 
ATOM     11  C   UNL     1       3.022  -1.820   5.431  1.00  0.00     0.126 A 
ATOM     12  C   UNL     1       2.593  -1.773   6.758  1.00  0.00     0.040 A 
ATOM     13  F   UNL     1       6.550  -2.567   5.878  1.00  0.00    -0.206 F 
ATOM     14  F   UNL     1       2.149  -1.607   4.438  1.00  0.00    -0.207 F 
ENDBRANCH   1   7
BRANCH   4  15
ATOM     15  C   UNL     1       6.900  -5.312  10.767  1.00  0.00     0.339 C 
ATOM     16  O   UNL     1       7.793  -5.691  11.528  1.00  0.00    -0.246 OA
BRANCH  15  17
ATOM     17  O   UNL     1       5.883  -6.128  10.378  1.00  0.00    -0.478 OA
ATOM     18  H   UNL     1       5.237  -6.276  11.101  1.00  0.00     0.297 HD
ENDBRANCH  15  17
ENDBRANCH   4  15
BRANCH   5  19
ATOM     19  O   UNL     1       8.479  -3.126  11.668  1.00  0.00    -0.507 OA
ATOM     20  H   UNL     1       8.962  -2.297  11.828  1.00  0.00     0.293 HD
ENDBRANCH   5  19
TORSDOF 4
ENDMDL
MODEL 9
REMARK VINA RESULT:    -4.858      9.064     11.544
REMARK INTER + INTRA:          -6.373
REMARK INTER:                  -5.320
REMARK INTRA:                  -1.052
REMARK UNBOUND:                -0.662
REMARK SMILES O=C(O)c1cc(-c2ccc(F)cc2F)ccc1O
REMARK SMILES IDX 6 1 5 2 15 3 4 4 17 5 16 6 7 7 13 8 12 9 8 10 10 11 9 12
REMARK SMILES IDX 14 13 11 14 2 15 1 16 3 17 18 19
REMARK H PARENT 3 18 18 20
ROOT
ATOM      1  C   UNL     1       9.336   2.137  13.849  1.00  0.00    -0.014 A 
ATOM      2  C   UNL     1      10.265   3.169  13.717  1.00  0.00     0.028 A 
ATOM      3  C   UNL     1       8.652   1.964  15.051  1.00  0.00     0.013 A 
ATOM      4  C   UNL     1      10.509   4.029  14.789  1.00  0.00     0.102 A 
ATOM      5  C   UNL     1       9.824   3.856  15.991  1.00  0.00     0.130 A 
ATOM      6  C   UNL     1       8.895   2.823  16.123  1.00  0.00     0.048 A 
ENDROOT
BRANCH   1   7
ATOM      7  C   UNL     1       9.084   1.244  12.738  1.00  0.00     0.018 A 
ATOM      8  C   UNL     1       9.954   0.185  12.479  1.00  0.00     0.133 A 
ATOM      9  C   UNL     1       9.707  -0.673  11.407  1.00  0.00     0.079 A 
ATOM     10  C   UNL     1       7.967   1.444  11.927  1.00  0.00     0.015 A 
ATOM     11  C   UNL     1       8.591  -0.473  10.596  1.00  0.00     0.126 A 
ATOM     12  C   UNL     1       7.720   0.586  10.857  1.00  0.00     0.040 A 
ATOM     13  F   UNL     1      11.034  -0.019  13.247  1.00  0.00    -0.206 F 
ATOM     14  F   UNL     1       8.353  -1.296   9.567  1.00  0.00    -0.207 F 
ENDBRANCH   1   7
BRANCH   4  15
ATOM     15  C   UNL     1      11.482   5.101  14.631  1.00  0.00     0.339 C 
ATOM     16  O   UNL     1      12.072   5.670  15.552  1.00  0.00    -0.246 OA
BRANCH  15  17
ATOM     17  O   UNL     1      11.687   5.427  13.326  1.00  0.00    -0.478 OA
ATOM     18  H   UNL     1      12.584   5.172  13.023  1.00  0.00     0.297 HD
ENDBRANCH  15  17
ENDBRANCH   4  15
BRANCH   5  19
ATOM     19  O   UNL     1      10.047   4.685  17.050  1.00  0.00    -0.507 OA
ATOM     20  H   UNL     1       9.657   4.292  17.849  1.00  0.00     0.293 HD
ENDBRANCH   5  19
TORSDOF 4
ENDMDL
