MODEL 1
REMARK VINA RESULT:    -5.399      0.000      0.000
REMARK INTER + INTRA:          -7.430
REMARK INTER:                  -6.662
REMARK INTRA:                  -0.768
REMARK UNBOUND:                -0.768
REMARK SMILES Cc1ccc(C(=O)c2cc(O)c(O)c([N+](=O)[O-])c2)cc1
REMARK SMILES IDX 8 1 18 2 9 3 14 4 10 5 12 6 6 7 7 8 5 9 4 10 19 11 3 12
REMARK SMILES IDX 20 13 2 14 1 15 15 16 17 17 16 18 11 19 13 21
REMARK H PARENT 11 20 13 22
ROOT
ATOM      1  C   UNL     1      -2.180   6.212  -4.745  1.00  0.00     0.033 A 
ATOM      2  C   UNL     1      -3.010   5.128  -4.913  1.00  0.00     0.102 A 
ATOM      3  C   UNL     1      -1.045   6.170  -3.971  1.00  0.00     0.063 A 
ATOM      4  C   UNL     1      -2.683   3.933  -4.272  1.00  0.00     0.315 A 
ATOM      5  C   UNL     1      -0.718   4.975  -3.330  1.00  0.00     0.165 A 
ATOM      6  C   UNL     1      -1.538   3.856  -3.481  1.00  0.00     0.237 A 
ENDROOT
BRANCH   1   7
ATOM      7  C   UNL     1      -2.530   7.492  -5.431  1.00  0.00     0.193 C 
ATOM      8  O   UNL     1      -1.592   8.202  -5.823  1.00  0.00    -0.289 OA
BRANCH   7   9
ATOM      9  C   UNL     1      -3.906   7.912  -5.644  1.00  0.00     0.023 A 
ATOM     10  C   UNL     1      -4.519   8.777  -4.737  1.00  0.00     0.012 A 
ATOM     11  C   UNL     1      -4.612   7.451  -6.755  1.00  0.00     0.012 A 
ATOM     12  C   UNL     1      -5.839   9.180  -4.942  1.00  0.00     0.004 A 
ATOM     13  C   UNL     1      -5.932   7.854  -6.960  1.00  0.00     0.004 A 
ATOM     14  C   UNL     1      -6.546   8.719  -6.054  1.00  0.00    -0.051 A 
ATOM     15  C   UNL     1      -7.956   9.149  -6.271  1.00  0.00     0.044 C 
ENDBRANCH   7   9
ENDBRANCH   1   7
BRANCH   4  16
ATOM     16  N   UNL     1      -3.530   2.803  -4.437  1.00  0.00     0.066 N 
ATOM     17  O   UNL     1      -4.168   2.675  -5.511  1.00  0.00    -0.258 OA
ATOM     18  O   UNL     1      -3.615   1.968  -3.507  1.00  0.00    -0.258 OA
ENDBRANCH   4  16
BRANCH   5  19
ATOM     19  O   UNL     1       0.404   4.915  -2.560  1.00  0.00    -0.504 OA
ATOM     20  H   UNL     1       0.819   5.792  -2.520  1.00  0.00     0.293 HD
ENDBRANCH   5  19
BRANCH   6  21
ATOM     21  O   UNL     1      -1.207   2.692  -2.848  1.00  0.00    -0.500 OA
ATOM     22  H   UNL     1      -1.962   2.084  -2.870  1.00  0.00     0.294 HD
ENDBRANCH   6  21
TORSDOF 5
ENDMDL
MODEL 2
REMARK VINA RESULT:    -5.381      1.994      3.540
REMARK INTER + INTRA:          -7.407
REMARK INTER:                  -6.631
REMARK INTRA:                  -0.776
REMARK UNBOUND:                -0.768
REMARK SMILES Cc1ccc(C(=O)c2cc(O)c(O)c([N+](=O)[O-])c2)cc1
REMARK SMILES IDX 8 1 18 2 9 3 14 4 10 5 12 6 6 7 7 8 5 9 4 10 19 11 3 12
REMARK SMILES IDX 20 13 2 14 1 15 15 16 17 17 16 18 11 19 13 21
REMARK H PARENT 11 20 13 22
ROOT
ATOM      1  C   UNL     1      -3.778   5.561  -4.111  1.00  0.00     0.033 A 
ATOM      2  C   UNL     1      -2.578   6.037  -3.636  1.00  0.00     0.102 A 
ATOM      3  C   UNL     1      -4.074   4.221  -4.182  1.00  0.00     0.063 A 
ATOM      4  C   UNL     1      -1.620   5.120  -3.206  1.00  0.00     0.315 A 
ATOM      5  C   UNL     1      -3.115   3.303  -3.752  1.00  0.00     0.165 A 
ATOM      6  C   UNL     1      -1.888   3.752  -3.264  1.00  0.00     0.237 A 
ENDROOT
BRANCH   1   7
ATOM      7  C   UNL     1      -4.804   6.544  -4.572  1.00  0.00     0.193 C 
ATOM      8  O   UNL     1      -5.996   6.252  -4.387  1.00  0.00    -0.289 OA
BRANCH   7   9
ATOM      9  C   UNL     1      -4.449   7.799  -5.215  1.00  0.00     0.023 A 
ATOM     10  C   UNL     1      -4.410   7.884  -6.607  1.00  0.00     0.012 A 
ATOM     11  C   UNL     1      -4.147   8.919  -4.440  1.00  0.00     0.012 A 
ATOM     12  C   UNL     1      -4.069   9.088  -7.223  1.00  0.00     0.004 A 
ATOM     13  C   UNL     1      -3.806  10.124  -5.056  1.00  0.00     0.004 A 
ATOM     14  C   UNL     1      -3.767  10.208  -6.448  1.00  0.00    -0.051 A 
ATOM     15  C   UNL     1      -3.402  11.495  -7.107  1.00  0.00     0.044 C 
ENDBRANCH   7   9
ENDBRANCH   1   7
BRANCH   4  16
ATOM     16  N   UNL     1      -0.375   5.597  -2.712  1.00  0.00     0.066 N 
ATOM     17  O   UNL     1       0.650   4.890  -2.867  1.00  0.00    -0.258 OA
ATOM     18  O   UNL     1      -0.338   6.709  -2.136  1.00  0.00    -0.258 OA
ENDBRANCH   4  16
BRANCH   5  19
ATOM     19  O   UNL     1      -3.391   1.970  -3.814  1.00  0.00    -0.504 OA
ATOM     20  H   UNL     1      -4.272   1.837  -4.203  1.00  0.00     0.293 HD
ENDBRANCH   5  19
BRANCH   6  21
ATOM     21  O   UNL     1      -0.959   2.844  -2.846  1.00  0.00    -0.500 OA
ATOM     22  H   UNL     1      -0.795   2.959  -1.897  1.00  0.00     0.294 HD
ENDBRANCH   6  21
TORSDOF 5
ENDMDL
MODEL 3
REMARK VINA RESULT:    -4.726      1.628      3.121
REMARK INTER + INTRA:          -6.598
REMARK INTER:                  -5.956
REMARK INTRA:                  -0.642
REMARK UNBOUND:                -0.768
REMARK SMILES Cc1ccc(C(=O)c2cc(O)c(O)c([N+](=O)[O-])c2)cc1
REMARK SMILES IDX 8 1 18 2 9 3 14 4 10 5 12 6 6 7 7 8 5 9 4 10 19 11 3 12
REMARK SMILES IDX 20 13 2 14 1 15 15 16 17 17 16 18 11 19 13 21
REMARK H PARENT 11 20 13 22
ROOT
ATOM      1  C   UNL     1      -2.701   4.861  -5.350  1.00  0.00     0.033 A 
ATOM      2  C   UNL     1      -1.628   5.385  -4.667  1.00  0.00     0.102 A 
ATOM      3  C   UNL     1      -3.322   3.691  -4.980  1.00  0.00     0.063 A 
ATOM      4  C   UNL     1      -1.150   4.701  -3.550  1.00  0.00     0.315 A 
ATOM      5  C   UNL     1      -2.843   3.006  -3.863  1.00  0.00     0.165 A 
ATOM      6  C   UNL     1      -1.757   3.512  -3.147  1.00  0.00     0.237 A 
ENDROOT
BRANCH   1   7
ATOM      7  C   UNL     1      -3.213   5.593  -6.547  1.00  0.00     0.193 C 
ATOM      8  O   UNL     1      -2.807   5.222  -7.659  1.00  0.00    -0.289 OA
BRANCH   7   9
ATOM      9  C   UNL     1      -4.152   6.699  -6.442  1.00  0.00     0.023 A 
ATOM     10  C   UNL     1      -5.064   6.940  -7.469  1.00  0.00     0.012 A 
ATOM     11  C   UNL     1      -4.140   7.519  -5.314  1.00  0.00     0.012 A 
ATOM     12  C   UNL     1      -5.964   8.001  -7.368  1.00  0.00     0.004 A 
ATOM     13  C   UNL     1      -5.041   8.580  -5.211  1.00  0.00     0.004 A 
ATOM     14  C   UNL     1      -5.953   8.821  -6.239  1.00  0.00    -0.051 A 
ATOM     15  C   UNL     1      -6.914   9.955  -6.132  1.00  0.00     0.044 C 
ENDBRANCH   7   9
ENDBRANCH   1   7
BRANCH   4  16
ATOM     16  N   UNL     1      -0.042   5.231  -2.833  1.00  0.00     0.066 N 
ATOM     17  O   UNL     1       1.017   4.561  -2.772  1.00  0.00    -0.258 OA
ATOM     18  O   UNL     1      -0.155   6.353  -2.286  1.00  0.00    -0.258 OA
ENDBRANCH   4  16
BRANCH   5  19
ATOM     19  O   UNL     1      -3.446   1.846  -3.481  1.00  0.00    -0.504 OA
ATOM     20  H   UNL     1      -2.837   1.102  -3.620  1.00  0.00     0.293 HD
ENDBRANCH   5  19
BRANCH   6  21
ATOM     21  O   UNL     1      -1.298   2.833  -2.056  1.00  0.00    -0.500 OA
ATOM     22  H   UNL     1      -1.348   3.403  -1.273  1.00  0.00     0.294 HD
ENDBRANCH   6  21
TORSDOF 5
ENDMDL
MODEL 4
REMARK VINA RESULT:    -4.634      2.385      4.075
REMARK INTER + INTRA:          -6.486
REMARK INTER:                  -5.488
REMARK INTRA:                  -0.998
REMARK UNBOUND:                -0.768
REMARK SMILES Cc1ccc(C(=O)c2cc(O)c(O)c([N+](=O)[O-])c2)cc1
REMARK SMILES IDX 8 1 18 2 9 3 14 4 10 5 12 6 6 7 7 8 5 9 4 10 19 11 3 12
REMARK SMILES IDX 20 13 2 14 1 15 15 16 17 17 16 18 11 19 13 21
REMARK H PARENT 11 20 13 22
ROOT
ATOM      1  C   UNL     1      -4.741   7.846  -6.501  1.00  0.00     0.033 A 
ATOM      2  C   UNL     1      -4.090   7.297  -5.420  1.00  0.00     0.102 A 
ATOM      3  C   UNL     1      -4.876   7.191  -7.702  1.00  0.00     0.063 A 
ATOM      4  C   UNL     1      -3.544   6.020  -5.548  1.00  0.00     0.315 A 
ATOM      5  C   UNL     1      -4.329   5.913  -7.830  1.00  0.00     0.165 A 
ATOM      6  C   UNL     1      -3.664   5.328  -6.753  1.00  0.00     0.237 A 
ENDROOT
BRANCH   1   7
ATOM      7  C   UNL     1      -5.326   9.214  -6.364  1.00  0.00     0.193 C 
ATOM      8  O   UNL     1      -4.540  10.173  -6.380  1.00  0.00    -0.289 OA
BRANCH   7   9
ATOM      9  C   UNL     1      -6.755   9.439  -6.217  1.00  0.00     0.023 A 
ATOM     10  C   UNL     1      -7.454   8.831  -5.175  1.00  0.00     0.012 A 
ATOM     11  C   UNL     1      -7.427  10.265  -7.118  1.00  0.00     0.012 A 
ATOM     12  C   UNL     1      -8.825   9.048  -5.034  1.00  0.00     0.004 A 
ATOM     13  C   UNL     1      -8.798  10.482  -6.978  1.00  0.00     0.004 A 
ATOM     14  C   UNL     1      -9.497   9.874  -5.935  1.00  0.00    -0.051 A 
ATOM     15  C   UNL     1     -10.962  10.104  -5.785  1.00  0.00     0.044 C 
ENDBRANCH   7   9
ENDBRANCH   1   7
BRANCH   4  16
ATOM     16  N   UNL     1      -2.869   5.440  -4.439  1.00  0.00     0.066 N 
ATOM     17  O   UNL     1      -3.369   5.560  -3.295  1.00  0.00    -0.258 OA
ATOM     18  O   UNL     1      -1.795   4.826  -4.638  1.00  0.00    -0.258 OA
ENDBRANCH   4  16
BRANCH   5  19
ATOM     19  O   UNL     1      -4.454   5.249  -9.013  1.00  0.00    -0.504 OA
ATOM     20  H   UNL     1      -4.807   4.358  -8.850  1.00  0.00     0.293 HD
ENDBRANCH   5  19
BRANCH   6  21
ATOM     21  O   UNL     1      -3.134   4.078  -6.890  1.00  0.00    -0.500 OA
ATOM     22  H   UNL     1      -2.352   4.116  -7.464  1.00  0.00     0.294 HD
ENDBRANCH   6  21
TORSDOF 5
ENDMDL
MODEL 5
REMARK VINA RESULT:    -4.490      3.633      4.481
REMARK INTER + INTRA:          -6.308
REMARK INTER:                  -5.360
REMARK INTRA:                  -0.948
REMARK UNBOUND:                -0.768
REMARK SMILES Cc1ccc(C(=O)c2cc(O)c(O)c([N+](=O)[O-])c2)cc1
REMARK SMILES IDX 8 1 18 2 9 3 14 4 10 5 12 6 6 7 7 8 5 9 4 10 19 11 3 12
REMARK SMILES IDX 20 13 2 14 1 15 15 16 17 17 16 18 11 19 13 21
REMARK H PARENT 11 20 13 22
ROOT
ATOM      1  C   UNL     1      -4.324   9.038  -5.007  1.00  0.00     0.033 A 
ATOM      2  C   UNL     1      -3.909   7.753  -5.272  1.00  0.00     0.102 A 
ATOM      3  C   UNL     1      -4.156   9.639  -3.783  1.00  0.00     0.063 A 
ATOM      4  C   UNL     1      -3.290   7.029  -4.253  1.00  0.00     0.315 A 
ATOM      5  C   UNL     1      -3.537   8.915  -2.763  1.00  0.00     0.165 A 
ATOM      6  C   UNL     1      -3.104   7.610  -2.998  1.00  0.00     0.237 A 
ENDROOT
BRANCH   1   7
ATOM      7  C   UNL     1      -4.987   9.814  -6.099  1.00  0.00     0.193 C 
ATOM      8  O   UNL     1      -6.190   9.593  -6.303  1.00  0.00    -0.289 OA
BRANCH   7   9
ATOM      9  C   UNL     1      -4.274  10.794  -6.902  1.00  0.00     0.023 A 
ATOM     10  C   UNL     1      -4.801  12.075  -7.070  1.00  0.00     0.012 A 
ATOM     11  C   UNL     1      -3.064  10.453  -7.506  1.00  0.00     0.012 A 
ATOM     12  C   UNL     1      -4.117  13.014  -7.841  1.00  0.00     0.004 A 
ATOM     13  C   UNL     1      -2.379  11.393  -8.277  1.00  0.00     0.004 A 
ATOM     14  C   UNL     1      -2.906  12.674  -8.445  1.00  0.00    -0.051 A 
ATOM     15  C   UNL     1      -2.176  13.679  -9.270  1.00  0.00     0.044 C 
ENDBRANCH   7   9
ENDBRANCH   1   7
BRANCH   4  16
ATOM     16  N   UNL     1      -2.856   5.700  -4.511  1.00  0.00     0.066 N 
ATOM     17  O   UNL     1      -2.366   5.430  -5.634  1.00  0.00    -0.258 OA
ATOM     18  O   UNL     1      -2.974   4.838  -3.609  1.00  0.00    -0.258 OA
ENDBRANCH   4  16
BRANCH   5  19
ATOM     19  O   UNL     1      -3.362   9.495  -1.543  1.00  0.00    -0.504 OA
ATOM     20  H   UNL     1      -2.493   9.247  -1.186  1.00  0.00     0.293 HD
ENDBRANCH   5  19
BRANCH   6  21
ATOM     21  O   UNL     1      -2.500   6.912  -1.993  1.00  0.00    -0.500 OA
ATOM     22  H   UNL     1      -2.883   6.023  -1.937  1.00  0.00     0.294 HD
ENDBRANCH   6  21
TORSDOF 5
ENDMDL
MODEL 6
REMARK VINA RESULT:    -4.490      3.554      7.191
REMARK INTER + INTRA:          -6.307
REMARK INTER:                  -5.367
REMARK INTRA:                  -0.941
REMARK UNBOUND:                -0.768
REMARK SMILES Cc1ccc(C(=O)c2cc(O)c(O)c([N+](=O)[O-])c2)cc1
REMARK SMILES IDX 8 1 18 2 9 3 14 4 10 5 12 6 6 7 7 8 5 9 4 10 19 11 3 12
REMARK SMILES IDX 20 13 2 14 1 15 15 16 17 17 16 18 11 19 13 21
REMARK H PARENT 11 20 13 22
ROOT
ATOM      1  C   UNL     1      -4.804   7.961  -6.396  1.00  0.00     0.033 A 
ATOM      2  C   UNL     1      -4.113   9.129  -6.618  1.00  0.00     0.102 A 
ATOM      3  C   UNL     1      -6.177   7.901  -6.360  1.00  0.00     0.063 A 
ATOM      4  C   UNL     1      -4.837  10.305  -6.816  1.00  0.00     0.315 A 
ATOM      5  C   UNL     1      -6.902   9.077  -6.557  1.00  0.00     0.165 A 
ATOM      6  C   UNL     1      -6.231  10.279  -6.786  1.00  0.00     0.237 A 
ENDROOT
BRANCH   1   7
ATOM      7  C   UNL     1      -4.029   6.701  -6.184  1.00  0.00     0.193 C 
ATOM      8  O   UNL     1      -4.266   5.752  -6.947  1.00  0.00    -0.289 OA
BRANCH   7   9
ATOM      9  C   UNL     1      -3.032   6.567  -5.135  1.00  0.00     0.023 A 
ATOM     10  C   UNL     1      -1.797   5.982  -5.417  1.00  0.00     0.012 A 
ATOM     11  C   UNL     1      -3.309   7.022  -3.846  1.00  0.00     0.012 A 
ATOM     12  C   UNL     1      -0.840   5.854  -4.410  1.00  0.00     0.004 A 
ATOM     13  C   UNL     1      -2.352   6.894  -2.839  1.00  0.00     0.004 A 
ATOM     14  C   UNL     1      -1.117   6.310  -3.121  1.00  0.00    -0.051 A 
ATOM     15  C   UNL     1      -0.095   6.171  -2.045  1.00  0.00     0.044 C 
ENDBRANCH   7   9
ENDBRANCH   1   7
BRANCH   4  16
ATOM     16  N   UNL     1      -4.136  11.520  -7.046  1.00  0.00     0.066 N 
ATOM     17  O   UNL     1      -3.012  11.683  -6.513  1.00  0.00    -0.258 OA
ATOM     18  O   UNL     1      -4.662  12.393  -7.776  1.00  0.00    -0.258 OA
ENDBRANCH   4  16
BRANCH   5  19
ATOM     19  O   UNL     1      -8.263   9.037  -6.526  1.00  0.00    -0.504 OA
ATOM     20  H   UNL     1      -8.601   9.825  -6.070  1.00  0.00     0.293 HD
ENDBRANCH   5  19
BRANCH   6  21
ATOM     21  O   UNL     1      -6.950  11.423  -6.978  1.00  0.00    -0.500 OA
ATOM     22  H   UNL     1      -7.724  11.233  -7.531  1.00  0.00     0.294 HD
ENDBRANCH   6  21
TORSDOF 5
ENDMDL
MODEL 7
REMARK VINA RESULT:    -4.429      3.812      7.044
REMARK INTER + INTRA:          -6.232
REMARK INTER:                  -5.244
REMARK INTRA:                  -0.988
REMARK UNBOUND:                -0.768
REMARK SMILES Cc1ccc(C(=O)c2cc(O)c(O)c([N+](=O)[O-])c2)cc1
REMARK SMILES IDX 8 1 18 2 9 3 14 4 10 5 12 6 6 7 7 8 5 9 4 10 19 11 3 12
REMARK SMILES IDX 20 13 2 14 1 15 15 16 17 17 16 18 11 19 13 21
REMARK H PARENT 11 20 13 22
ROOT
ATOM      1  C   UNL     1      -4.597   8.886  -5.253  1.00  0.00     0.033 A 
ATOM      2  C   UNL     1      -3.966   9.899  -5.937  1.00  0.00     0.102 A 
ATOM      3  C   UNL     1      -5.955   8.682  -5.307  1.00  0.00     0.063 A 
ATOM      4  C   UNL     1      -4.737  10.756  -6.721  1.00  0.00     0.315 A 
ATOM      5  C   UNL     1      -6.728   9.540  -6.091  1.00  0.00     0.165 A 
ATOM      6  C   UNL     1      -6.118  10.577  -6.799  1.00  0.00     0.237 A 
ENDROOT
BRANCH   1   7
ATOM      7  C   UNL     1      -3.771   7.968  -4.412  1.00  0.00     0.193 C 
ATOM      8  O   UNL     1      -3.055   8.484  -3.541  1.00  0.00    -0.289 OA
BRANCH   7   9
ATOM      9  C   UNL     1      -3.787   6.524  -4.587  1.00  0.00     0.023 A 
ATOM     10  C   UNL     1      -4.089   5.694  -3.507  1.00  0.00     0.012 A 
ATOM     11  C   UNL     1      -3.500   5.970  -5.834  1.00  0.00     0.012 A 
ATOM     12  C   UNL     1      -4.105   4.310  -3.676  1.00  0.00     0.004 A 
ATOM     13  C   UNL     1      -3.515   4.584  -6.003  1.00  0.00     0.004 A 
ATOM     14  C   UNL     1      -3.818   3.754  -4.923  1.00  0.00    -0.051 A 
ATOM     15  C   UNL     1      -3.833   2.274  -5.102  1.00  0.00     0.044 C 
ENDBRANCH   7   9
ENDBRANCH   1   7
BRANCH   4  16
ATOM     16  N   UNL     1      -4.098  11.807  -7.435  1.00  0.00     0.066 N 
ATOM     17  O   UNL     1      -2.902  11.662  -7.784  1.00  0.00    -0.258 OA
ATOM     18  O   UNL     1      -4.749  12.845  -7.694  1.00  0.00    -0.258 OA
ENDBRANCH   4  16
BRANCH   5  19
ATOM     19  O   UNL     1      -8.076   9.353  -6.158  1.00  0.00    -0.504 OA
ATOM     20  H   UNL     1      -8.392   9.579  -7.049  1.00  0.00     0.293 HD
ENDBRANCH   5  19
BRANCH   6  21
ATOM     21  O   UNL     1      -6.884  11.408  -7.563  1.00  0.00    -0.500 OA
ATOM     22  H   UNL     1      -7.819  11.295  -7.332  1.00  0.00     0.294 HD
ENDBRANCH   6  21
TORSDOF 5
ENDMDL
MODEL 8
REMARK VINA RESULT:    -4.416      1.890      2.263
REMARK INTER + INTRA:          -6.216
REMARK INTER:                  -5.518
REMARK INTRA:                  -0.698
REMARK UNBOUND:                -0.768
REMARK SMILES Cc1ccc(C(=O)c2cc(O)c(O)c([N+](=O)[O-])c2)cc1
REMARK SMILES IDX 8 1 18 2 9 3 14 4 10 5 12 6 6 7 7 8 5 9 4 10 19 11 3 12
REMARK SMILES IDX 20 13 2 14 1 15 15 16 17 17 16 18 11 19 13 21
REMARK H PARENT 11 20 13 22
ROOT
ATOM      1  C   UNL     1      -3.902   5.954  -4.297  1.00  0.00     0.033 A 
ATOM      2  C   UNL     1      -4.168   4.631  -4.565  1.00  0.00     0.102 A 
ATOM      3  C   UNL     1      -2.785   6.366  -3.609  1.00  0.00     0.063 A 
ATOM      4  C   UNL     1      -3.265   3.666  -4.121  1.00  0.00     0.315 A 
ATOM      5  C   UNL     1      -1.882   5.401  -3.164  1.00  0.00     0.165 A 
ATOM      6  C   UNL     1      -2.122   4.050  -3.420  1.00  0.00     0.237 A 
ENDROOT
BRANCH   1   7
ATOM      7  C   UNL     1      -4.869   6.989  -4.773  1.00  0.00     0.193 C 
ATOM      8  O   UNL     1      -6.076   6.767  -4.588  1.00  0.00    -0.289 OA
BRANCH   7   9
ATOM      9  C   UNL     1      -4.441   8.214  -5.428  1.00  0.00     0.023 A 
ATOM     10  C   UNL     1      -4.118   9.336  -4.665  1.00  0.00     0.012 A 
ATOM     11  C   UNL     1      -4.353   8.267  -6.819  1.00  0.00     0.012 A 
ATOM     12  C   UNL     1      -3.707  10.511  -5.294  1.00  0.00     0.004 A 
ATOM     13  C   UNL     1      -3.942   9.442  -7.448  1.00  0.00     0.004 A 
ATOM     14  C   UNL     1      -3.618  10.565  -6.686  1.00  0.00    -0.051 A 
ATOM     15  C   UNL     1      -3.180  11.822  -7.357  1.00  0.00     0.044 C 
ENDBRANCH   7   9
ENDBRANCH   1   7
BRANCH   4  16
ATOM     16  N   UNL     1      -3.526   2.295  -4.391  1.00  0.00     0.066 N 
ATOM     17  O   UNL     1      -3.566   1.909  -5.584  1.00  0.00    -0.258 OA
ATOM     18  O   UNL     1      -3.708   1.512  -3.430  1.00  0.00    -0.258 OA
ENDBRANCH   4  16
BRANCH   5  19
ATOM     19  O   UNL     1      -0.769   5.790  -2.481  1.00  0.00    -0.504 OA
ATOM     20  H   UNL     1      -0.431   6.620  -2.857  1.00  0.00     0.293 HD
ENDBRANCH   5  19
BRANCH   6  21
ATOM     21  O   UNL     1      -1.231   3.115  -2.980  1.00  0.00    -0.500 OA
ATOM     22  H   UNL     1      -1.583   2.674  -2.191  1.00  0.00     0.294 HD
ENDBRANCH   6  21
TORSDOF 5
ENDMDL
MODEL 9
REMARK VINA RESULT:    -4.294      9.268     11.993
REMARK INTER + INTRA:          -6.066
REMARK INTER:                  -5.093
REMARK INTRA:                  -0.972
REMARK UNBOUND:                -0.768
REMARK SMILES Cc1ccc(C(=O)c2cc(O)c(O)c([N+](=O)[O-])c2)cc1
REMARK SMILES IDX 8 1 18 2 9 3 14 4 10 5 12 6 6 7 7 8 5 9 4 10 19 11 3 12
REMARK SMILES IDX 20 13 2 14 1 15 15 16 17 17 16 18 11 19 13 21
REMARK H PARENT 11 20 13 22
ROOT
ATOM      1  C   UNL     1      -3.416  15.436 -11.136  1.00  0.00     0.033 A 
ATOM      2  C   UNL     1      -4.785  15.442 -11.270  1.00  0.00     0.102 A 
ATOM      3  C   UNL     1      -2.561  15.617 -12.197  1.00  0.00     0.063 A 
ATOM      4  C   UNL     1      -5.330  15.640 -12.538  1.00  0.00     0.315 A 
ATOM      5  C   UNL     1      -3.106  15.814 -13.466  1.00  0.00     0.165 A 
ATOM      6  C   UNL     1      -4.491  15.826 -13.637  1.00  0.00     0.237 A 
ENDROOT
BRANCH   1   7
ATOM      7  C   UNL     1      -2.832  15.224  -9.777  1.00  0.00     0.193 C 
ATOM      8  O   UNL     1      -2.171  16.153  -9.290  1.00  0.00    -0.289 OA
BRANCH   7   9
ATOM      9  C   UNL     1      -3.016  13.988  -9.034  1.00  0.00     0.023 A 
ATOM     10  C   UNL     1      -4.004  13.904  -8.052  1.00  0.00     0.012 A 
ATOM     11  C   UNL     1      -2.206  12.885  -9.303  1.00  0.00     0.012 A 
ATOM     12  C   UNL     1      -4.180  12.719  -7.339  1.00  0.00     0.004 A 
ATOM     13  C   UNL     1      -2.382  11.698  -8.590  1.00  0.00     0.004 A 
ATOM     14  C   UNL     1      -3.370  11.615  -7.608  1.00  0.00    -0.051 A 
ATOM     15  C   UNL     1      -3.558  10.348  -6.846  1.00  0.00     0.044 C 
ENDBRANCH   7   9
ENDBRANCH   1   7
BRANCH   4  16
ATOM     16  N   UNL     1      -6.743  15.649 -12.693  1.00  0.00     0.066 N 
ATOM     17  O   UNL     1      -7.243  15.138 -13.724  1.00  0.00    -0.258 OA
ATOM     18  O   UNL     1      -7.448  16.165 -11.794  1.00  0.00    -0.258 OA
ENDBRANCH   4  16
BRANCH   5  19
ATOM     19  O   UNL     1      -2.274  15.996 -14.530  1.00  0.00    -0.504 OA
ATOM     20  H   UNL     1      -2.791  16.275 -15.303  1.00  0.00     0.293 HD
ENDBRANCH   5  19
BRANCH   6  21
ATOM     21  O   UNL     1      -5.012  16.021 -14.883  1.00  0.00    -0.500 OA
ATOM     22  H   UNL     1      -4.456  16.645 -15.375  1.00  0.00     0.294 HD
ENDBRANCH   6  21
TORSDOF 5
ENDMDL
