MODEL 1
REMARK VINA RESULT:    -7.003      0.000      0.000
REMARK INTER + INTRA:          -8.816
REMARK INTER:                  -8.232
REMARK INTRA:                  -0.585
REMARK UNBOUND:                -0.585
REMARK SMILES O=C(O)c1cc(-c2ccc(F)cc2F)ccc1O
REMARK SMILES IDX 6 1 5 2 15 3 4 4 17 5 16 6 7 7 13 8 12 9 8 10 10 11 9 12
REMARK SMILES IDX 14 13 11 14 2 15 1 16 3 17 18 19
REMARK H PARENT 3 18 18 20
ROOT
ATOM      1  C   UNL     1      -3.041   6.056  -4.483  1.00  0.00    -0.014 A 
ATOM      2  C   UNL     1      -3.562   4.777  -4.678  1.00  0.00     0.028 A 
ATOM      3  C   UNL     1      -1.864   6.226  -3.755  1.00  0.00     0.013 A 
ATOM      4  C   UNL     1      -2.906   3.667  -4.144  1.00  0.00     0.102 A 
ATOM      5  C   UNL     1      -1.729   3.837  -3.416  1.00  0.00     0.130 A 
ATOM      6  C   UNL     1      -1.208   5.117  -3.221  1.00  0.00     0.048 A 
ENDROOT
BRANCH   1   7
ATOM      7  C   UNL     1      -3.721   7.207  -5.036  1.00  0.00     0.018 A 
ATOM      8  C   UNL     1      -3.955   8.330  -4.241  1.00  0.00     0.133 A 
ATOM      9  C   UNL     1      -4.612   9.438  -4.777  1.00  0.00     0.079 A 
ATOM     10  C   UNL     1      -4.142   7.194  -6.365  1.00  0.00     0.015 A 
ATOM     11  C   UNL     1      -5.033   9.424  -6.107  1.00  0.00     0.126 A 
ATOM     12  C   UNL     1      -4.797   8.301  -6.901  1.00  0.00     0.040 A 
ATOM     13  F   UNL     1      -3.560   8.359  -2.960  1.00  0.00    -0.206 F 
ATOM     14  F   UNL     1      -5.663  10.487  -6.622  1.00  0.00    -0.207 F 
ENDBRANCH   1   7
BRANCH   4  15
ATOM     15  C   UNL     1      -3.467   2.341  -4.359  1.00  0.00     0.339 C 
ATOM     16  O   UNL     1      -3.754   1.535  -3.471  1.00  0.00    -0.246 OA
BRANCH  15  17
ATOM     17  O   UNL     1      -3.652   2.064  -5.679  1.00  0.00    -0.478 OA
ATOM     18  H   UNL     1      -3.677   1.098  -5.848  1.00  0.00     0.297 HD
ENDBRANCH  15  17
ENDBRANCH   4  15
BRANCH   5  19
ATOM     19  O   UNL     1      -1.073   2.766  -2.886  1.00  0.00    -0.507 OA
ATOM     20  H   UNL     1      -0.352   2.508  -3.486  1.00  0.00     0.293 HD
ENDBRANCH   5  19
TORSDOF 4
ENDMDL
MODEL 2
REMARK VINA RESULT:    -6.998      1.131      1.611
REMARK INTER + INTRA:          -8.811
REMARK INTER:                  -8.230
REMARK INTRA:                  -0.581
REMARK UNBOUND:                -0.585
REMARK SMILES O=C(O)c1cc(-c2ccc(F)cc2F)ccc1O
REMARK SMILES IDX 6 1 5 2 15 3 4 4 17 5 16 6 7 7 13 8 12 9 8 10 10 11 9 12
REMARK SMILES IDX 14 13 11 14 2 15 1 16 3 17 18 19
REMARK H PARENT 3 18 18 20
ROOT
ATOM      1  C   UNL     1      -3.054   6.045  -4.543  1.00  0.00    -0.014 A 
ATOM      2  C   UNL     1      -3.574   4.764  -4.722  1.00  0.00     0.028 A 
ATOM      3  C   UNL     1      -1.877   6.225  -3.817  1.00  0.00     0.013 A 
ATOM      4  C   UNL     1      -2.916   3.661  -4.176  1.00  0.00     0.102 A 
ATOM      5  C   UNL     1      -1.739   3.841  -3.450  1.00  0.00     0.130 A 
ATOM      6  C   UNL     1      -1.219   5.123  -3.271  1.00  0.00     0.048 A 
ENDROOT
BRANCH   1   7
ATOM      7  C   UNL     1      -3.736   7.189  -5.108  1.00  0.00     0.018 A 
ATOM      8  C   UNL     1      -4.184   7.155  -6.429  1.00  0.00     0.133 A 
ATOM      9  C   UNL     1      -4.841   8.261  -6.970  1.00  0.00     0.079 A 
ATOM     10  C   UNL     1      -3.947   8.326  -4.329  1.00  0.00     0.015 A 
ATOM     11  C   UNL     1      -5.051   9.398  -6.191  1.00  0.00     0.126 A 
ATOM     12  C   UNL     1      -4.604   9.431  -4.870  1.00  0.00     0.040 A 
ATOM     13  F   UNL     1      -3.988   6.071  -7.192  1.00  0.00    -0.206 F 
ATOM     14  F   UNL     1      -5.681  10.460  -6.710  1.00  0.00    -0.207 F 
ENDBRANCH   1   7
BRANCH   4  15
ATOM     15  C   UNL     1      -3.475   2.331  -4.375  1.00  0.00     0.339 C 
ATOM     16  O   UNL     1      -3.758   1.534  -3.477  1.00  0.00    -0.246 OA
BRANCH  15  17
ATOM     17  O   UNL     1      -3.665   2.040  -5.690  1.00  0.00    -0.478 OA
ATOM     18  H   UNL     1      -4.116   2.770  -6.164  1.00  0.00     0.297 HD
ENDBRANCH  15  17
ENDBRANCH   4  15
BRANCH   5  19
ATOM     19  O   UNL     1      -1.081   2.777  -2.909  1.00  0.00    -0.507 OA
ATOM     20  H   UNL     1      -1.652   2.356  -2.243  1.00  0.00     0.293 HD
ENDBRANCH   5  19
TORSDOF 4
ENDMDL
MODEL 3
REMARK VINA RESULT:    -6.955      1.693      3.165
REMARK INTER + INTRA:          -8.760
REMARK INTER:                  -8.146
REMARK INTRA:                  -0.614
REMARK UNBOUND:                -0.585
REMARK SMILES O=C(O)c1cc(-c2ccc(F)cc2F)ccc1O
REMARK SMILES IDX 6 1 5 2 15 3 4 4 17 5 16 6 7 7 13 8 12 9 8 10 10 11 9 12
REMARK SMILES IDX 14 13 11 14 2 15 1 16 3 17 18 19
REMARK H PARENT 3 18 18 20
ROOT
ATOM      1  C   UNL     1      -3.092   6.062  -4.539  1.00  0.00    -0.014 A 
ATOM      2  C   UNL     1      -1.928   6.301  -3.811  1.00  0.00     0.028 A 
ATOM      3  C   UNL     1      -3.564   4.759  -4.693  1.00  0.00     0.013 A 
ATOM      4  C   UNL     1      -1.234   5.237  -3.235  1.00  0.00     0.102 A 
ATOM      5  C   UNL     1      -1.705   3.933  -3.389  1.00  0.00     0.130 A 
ATOM      6  C   UNL     1      -2.871   3.694  -4.118  1.00  0.00     0.048 A 
ENDROOT
BRANCH   1   7
ATOM      7  C   UNL     1      -3.812   7.166  -5.138  1.00  0.00     0.018 A 
ATOM      8  C   UNL     1      -4.233   7.089  -6.466  1.00  0.00     0.133 A 
ATOM      9  C   UNL     1      -4.927   8.156  -7.039  1.00  0.00     0.079 A 
ATOM     10  C   UNL     1      -4.084   8.307  -4.384  1.00  0.00     0.015 A 
ATOM     11  C   UNL     1      -5.198   9.297  -6.285  1.00  0.00     0.126 A 
ATOM     12  C   UNL     1      -4.777   9.373  -4.958  1.00  0.00     0.040 A 
ATOM     13  F   UNL     1      -3.977   6.001  -7.205  1.00  0.00    -0.206 F 
ATOM     14  F   UNL     1      -5.863  10.321  -6.835  1.00  0.00    -0.207 F 
ENDBRANCH   1   7
BRANCH   4  15
ATOM     15  C   UNL     1      -0.020   5.507  -2.477  1.00  0.00     0.339 C 
ATOM     16  O   UNL     1       1.061   4.935  -2.634  1.00  0.00    -0.246 OA
BRANCH  15  17
ATOM     17  O   UNL     1      -0.196   6.486  -1.549  1.00  0.00    -0.478 OA
ATOM     18  H   UNL     1      -0.306   7.367  -1.964  1.00  0.00     0.297 HD
ENDBRANCH  15  17
ENDBRANCH   4  15
BRANCH   5  19
ATOM     19  O   UNL     1      -1.043   2.879  -2.834  1.00  0.00    -0.507 OA
ATOM     20  H   UNL     1      -1.682   2.312  -2.367  1.00  0.00     0.293 HD
ENDBRANCH   5  19
TORSDOF 4
ENDMDL
MODEL 4
REMARK VINA RESULT:    -6.916      1.284      2.736
REMARK INTER + INTRA:          -8.714
REMARK INTER:                  -7.946
REMARK INTRA:                  -0.768
REMARK UNBOUND:                -0.585
REMARK SMILES O=C(O)c1cc(-c2ccc(F)cc2F)ccc1O
REMARK SMILES IDX 6 1 5 2 15 3 4 4 17 5 16 6 7 7 13 8 12 9 8 10 10 11 9 12
REMARK SMILES IDX 14 13 11 14 2 15 1 16 3 17 18 19
REMARK H PARENT 3 18 18 20
ROOT
ATOM      1  C   UNL     1      -3.091   6.146  -4.420  1.00  0.00    -0.014 A 
ATOM      2  C   UNL     1      -1.857   6.361  -3.808  1.00  0.00     0.028 A 
ATOM      3  C   UNL     1      -3.628   4.860  -4.475  1.00  0.00     0.013 A 
ATOM      4  C   UNL     1      -1.159   5.289  -3.249  1.00  0.00     0.102 A 
ATOM      5  C   UNL     1      -1.696   4.003  -3.304  1.00  0.00     0.130 A 
ATOM      6  C   UNL     1      -2.931   3.788  -3.917  1.00  0.00     0.048 A 
ENDROOT
BRANCH   1   7
ATOM      7  C   UNL     1      -3.815   7.256  -5.001  1.00  0.00     0.018 A 
ATOM      8  C   UNL     1      -4.078   8.395  -4.239  1.00  0.00     0.133 A 
ATOM      9  C   UNL     1      -4.777   9.464  -4.802  1.00  0.00     0.079 A 
ATOM     10  C   UNL     1      -4.248   7.187  -6.324  1.00  0.00     0.015 A 
ATOM     11  C   UNL     1      -5.211   9.393  -6.126  1.00  0.00     0.126 A 
ATOM     12  C   UNL     1      -4.945   8.255  -6.887  1.00  0.00     0.040 A 
ATOM     13  F   UNL     1      -3.671   8.477  -2.964  1.00  0.00    -0.206 F 
ATOM     14  F   UNL     1      -5.881  10.418  -6.667  1.00  0.00    -0.207 F 
ENDBRANCH   1   7
BRANCH   4  15
ATOM     15  C   UNL     1       0.129   5.535  -2.614  1.00  0.00     0.339 C 
ATOM     16  O   UNL     1       1.097   4.771  -2.645  1.00  0.00    -0.246 OA
BRANCH  15  17
ATOM     17  O   UNL     1       0.165   6.728  -1.961  1.00  0.00    -0.478 OA
ATOM     18  H   UNL     1       0.043   6.619  -0.994  1.00  0.00     0.297 HD
ENDBRANCH  15  17
ENDBRANCH   4  15
BRANCH   5  19
ATOM     19  O   UNL     1      -1.030   2.943  -2.765  1.00  0.00    -0.507 OA
ATOM     20  H   UNL     1      -0.608   3.223  -1.934  1.00  0.00     0.293 HD
ENDBRANCH   5  19
TORSDOF 4
ENDMDL
MODEL 5
REMARK VINA RESULT:    -5.247      4.429      6.735
REMARK INTER + INTRA:          -6.753
REMARK INTER:                  -5.667
REMARK INTRA:                  -1.086
REMARK UNBOUND:                -0.585
REMARK SMILES O=C(O)c1cc(-c2ccc(F)cc2F)ccc1O
REMARK SMILES IDX 6 1 5 2 15 3 4 4 17 5 16 6 7 7 13 8 12 9 8 10 10 11 9 12
REMARK SMILES IDX 14 13 11 14 2 15 1 16 3 17 18 19
REMARK H PARENT 3 18 18 20
ROOT
ATOM      1  C   UNL     1      -4.259   8.282  -5.414  1.00  0.00    -0.014 A 
ATOM      2  C   UNL     1      -3.621   9.382  -5.987  1.00  0.00     0.028 A 
ATOM      3  C   UNL     1      -5.649   8.181  -5.459  1.00  0.00     0.013 A 
ATOM      4  C   UNL     1      -4.373  10.381  -6.605  1.00  0.00     0.102 A 
ATOM      5  C   UNL     1      -5.763  10.280  -6.651  1.00  0.00     0.130 A 
ATOM      6  C   UNL     1      -6.402   9.179  -6.077  1.00  0.00     0.048 A 
ENDROOT
BRANCH   1   7
ATOM      7  C   UNL     1      -3.480   7.246  -4.771  1.00  0.00     0.018 A 
ATOM      8  C   UNL     1      -3.152   7.353  -3.419  1.00  0.00     0.133 A 
ATOM      9  C   UNL     1      -2.401   6.352  -2.803  1.00  0.00     0.079 A 
ATOM     10  C   UNL     1      -3.057   6.139  -5.506  1.00  0.00     0.015 A 
ATOM     11  C   UNL     1      -1.977   5.245  -3.538  1.00  0.00     0.126 A 
ATOM     12  C   UNL     1      -2.306   5.139  -4.890  1.00  0.00     0.040 A 
ATOM     13  F   UNL     1      -3.549   8.412  -2.699  1.00  0.00    -0.206 F 
ATOM     14  F   UNL     1      -1.256   4.284  -2.948  1.00  0.00    -0.207 F 
ENDBRANCH   1   7
BRANCH   4  15
ATOM     15  C   UNL     1      -3.687  11.521  -7.198  1.00  0.00     0.339 C 
ATOM     16  O   UNL     1      -4.231  12.433  -7.825  1.00  0.00    -0.246 OA
BRANCH  15  17
ATOM     17  O   UNL     1      -2.344  11.486  -6.986  1.00  0.00    -0.478 OA
ATOM     18  H   UNL     1      -1.920  10.736  -7.455  1.00  0.00     0.297 HD
ENDBRANCH  15  17
ENDBRANCH   4  15
BRANCH   5  19
ATOM     19  O   UNL     1      -6.516  11.245  -7.251  1.00  0.00    -0.507 OA
ATOM     20  H   UNL     1      -7.439  10.940  -7.304  1.00  0.00     0.293 HD
ENDBRANCH   5  19
TORSDOF 4
ENDMDL
MODEL 6
REMARK VINA RESULT:    -5.217      4.309      6.557
REMARK INTER + INTRA:          -6.717
REMARK INTER:                  -5.631
REMARK INTRA:                  -1.086
REMARK UNBOUND:                -0.585
REMARK SMILES O=C(O)c1cc(-c2ccc(F)cc2F)ccc1O
REMARK SMILES IDX 6 1 5 2 15 3 4 4 17 5 16 6 7 7 13 8 12 9 8 10 10 11 9 12
REMARK SMILES IDX 14 13 11 14 2 15 1 16 3 17 18 19
REMARK H PARENT 3 18 18 20
ROOT
ATOM      1  C   UNL     1      -4.458   8.004  -5.723  1.00  0.00    -0.014 A 
ATOM      2  C   UNL     1      -5.845   8.139  -5.778  1.00  0.00     0.028 A 
ATOM      3  C   UNL     1      -3.638   9.045  -6.157  1.00  0.00     0.013 A 
ATOM      4  C   UNL     1      -6.413   9.316  -6.267  1.00  0.00     0.102 A 
ATOM      5  C   UNL     1      -5.593  10.357  -6.701  1.00  0.00     0.130 A 
ATOM      6  C   UNL     1      -4.205  10.222  -6.646  1.00  0.00     0.048 A 
ENDROOT
BRANCH   1   7
ATOM      7  C   UNL     1      -3.869   6.783  -5.217  1.00  0.00     0.018 A 
ATOM      8  C   UNL     1      -3.609   5.720  -6.082  1.00  0.00     0.133 A 
ATOM      9  C   UNL     1      -3.041   4.544  -5.589  1.00  0.00     0.079 A 
ATOM     10  C   UNL     1      -3.560   6.672  -3.861  1.00  0.00     0.015 A 
ATOM     11  C   UNL     1      -2.732   4.433  -4.234  1.00  0.00     0.126 A 
ATOM     12  C   UNL     1      -2.992   5.497  -3.370  1.00  0.00     0.040 A 
ATOM     13  F   UNL     1      -3.903   5.809  -7.386  1.00  0.00    -0.206 F 
ATOM     14  F   UNL     1      -2.187   3.305  -3.761  1.00  0.00    -0.207 F 
ENDBRANCH   1   7
BRANCH   4  15
ATOM     15  C   UNL     1      -7.863   9.437  -6.316  1.00  0.00     0.339 C 
ATOM     16  O   UNL     1      -8.484  10.442  -6.673  1.00  0.00    -0.246 OA
BRANCH  15  17
ATOM     17  O   UNL     1      -8.493   8.298  -5.918  1.00  0.00    -0.478 OA
ATOM     18  H   UNL     1      -7.972   7.810  -5.246  1.00  0.00     0.297 HD
ENDBRANCH  15  17
ENDBRANCH   4  15
BRANCH   5  19
ATOM     19  O   UNL     1      -6.127  11.515  -7.182  1.00  0.00    -0.507 OA
ATOM     20  H   UNL     1      -6.725  11.891  -6.513  1.00  0.00     0.293 HD
ENDBRANCH   5  19
TORSDOF 4
ENDMDL
MODEL 7
REMARK VINA RESULT:    -4.774      1.632      2.035
REMARK INTER + INTRA:          -6.197
REMARK INTER:                  -5.231
REMARK INTRA:                  -0.966
REMARK UNBOUND:                -0.585
REMARK SMILES O=C(O)c1cc(-c2ccc(F)cc2F)ccc1O
REMARK SMILES IDX 6 1 5 2 15 3 4 4 17 5 16 6 7 7 13 8 12 9 8 10 10 11 9 12
REMARK SMILES IDX 14 13 11 14 2 15 1 16 3 17 18 19
REMARK H PARENT 3 18 18 20
ROOT
ATOM      1  C   UNL     1      -3.792   7.228  -4.817  1.00  0.00    -0.014 A 
ATOM      2  C   UNL     1      -3.885   6.006  -5.483  1.00  0.00     0.028 A 
ATOM      3  C   UNL     1      -3.304   7.276  -3.511  1.00  0.00     0.013 A 
ATOM      4  C   UNL     1      -3.490   4.831  -4.843  1.00  0.00     0.102 A 
ATOM      5  C   UNL     1      -3.002   4.879  -3.537  1.00  0.00     0.130 A 
ATOM      6  C   UNL     1      -2.909   6.102  -2.871  1.00  0.00     0.048 A 
ENDROOT
BRANCH   1   7
ATOM      7  C   UNL     1      -4.203   8.447  -5.480  1.00  0.00     0.018 A 
ATOM      8  C   UNL     1      -5.550   8.668  -5.768  1.00  0.00     0.133 A 
ATOM      9  C   UNL     1      -5.942   9.845  -6.407  1.00  0.00     0.079 A 
ATOM     10  C   UNL     1      -3.249   9.403  -5.829  1.00  0.00     0.015 A 
ATOM     11  C   UNL     1      -4.988  10.799  -6.757  1.00  0.00     0.126 A 
ATOM     12  C   UNL     1      -3.642  10.578  -6.467  1.00  0.00     0.040 A 
ATOM     13  F   UNL     1      -6.479   7.759  -5.441  1.00  0.00    -0.206 F 
ATOM     14  F   UNL     1      -5.364  11.929  -7.370  1.00  0.00    -0.207 F 
ENDBRANCH   1   7
BRANCH   4  15
ATOM     15  C   UNL     1      -3.594   3.565  -5.555  1.00  0.00     0.339 C 
ATOM     16  O   UNL     1      -3.602   2.449  -5.030  1.00  0.00    -0.246 OA
BRANCH  15  17
ATOM     17  O   UNL     1      -3.687   3.735  -6.903  1.00  0.00    -0.478 OA
ATOM     18  H   UNL     1      -2.831   3.567  -7.351  1.00  0.00     0.297 HD
ENDBRANCH  15  17
ENDBRANCH   4  15
BRANCH   5  19
ATOM     19  O   UNL     1      -2.610   3.742  -2.895  1.00  0.00    -0.507 OA
ATOM     20  H   UNL     1      -1.865   3.345  -3.378  1.00  0.00     0.293 HD
ENDBRANCH   5  19
TORSDOF 4
ENDMDL
MODEL 8
REMARK VINA RESULT:    -4.443      9.203     11.679
REMARK INTER + INTRA:          -5.807
REMARK INTER:                  -4.851
REMARK INTRA:                  -0.956
REMARK UNBOUND:                -0.585
REMARK SMILES O=C(O)c1cc(-c2ccc(F)cc2F)ccc1O
REMARK SMILES IDX 6 1 5 2 15 3 4 4 17 5 16 6 7 7 13 8 12 9 8 10 10 11 9 12
REMARK SMILES IDX 14 13 11 14 2 15 1 16 3 17 18 19
REMARK H PARENT 3 18 18 20
ROOT
ATOM      1  C   UNL     1      -2.355  14.372 -10.625  1.00  0.00    -0.014 A 
ATOM      2  C   UNL     1      -3.257  14.585 -11.666  1.00  0.00     0.028 A 
ATOM      3  C   UNL     1      -1.083  14.943 -10.677  1.00  0.00     0.013 A 
ATOM      4  C   UNL     1      -2.889  15.370 -12.759  1.00  0.00     0.102 A 
ATOM      5  C   UNL     1      -1.618  15.941 -12.811  1.00  0.00     0.130 A 
ATOM      6  C   UNL     1      -0.714  15.727 -11.769  1.00  0.00     0.048 A 
ENDROOT
BRANCH   1   7
ATOM      7  C   UNL     1      -2.736  13.557  -9.492  1.00  0.00     0.018 A 
ATOM      8  C   UNL     1      -3.707  14.010  -8.598  1.00  0.00     0.133 A 
ATOM      9  C   UNL     1      -4.071  13.221  -7.506  1.00  0.00     0.079 A 
ATOM     10  C   UNL     1      -2.131  12.316  -9.294  1.00  0.00     0.015 A 
ATOM     11  C   UNL     1      -3.465  11.981  -7.309  1.00  0.00     0.126 A 
ATOM     12  C   UNL     1      -2.495  11.528  -8.203  1.00  0.00     0.040 A 
ATOM     13  F   UNL     1      -4.296  15.201  -8.772  1.00  0.00    -0.206 F 
ATOM     14  F   UNL     1      -3.814  11.223  -6.261  1.00  0.00    -0.207 F 
ENDBRANCH   1   7
BRANCH   4  15
ATOM     15  C   UNL     1      -3.847  15.581 -13.836  1.00  0.00     0.339 C 
ATOM     16  O   UNL     1      -3.559  15.767 -15.021  1.00  0.00    -0.246 OA
BRANCH  15  17
ATOM     17  O   UNL     1      -5.135  15.552 -13.398  1.00  0.00    -0.478 OA
ATOM     18  H   UNL     1      -5.694  14.965 -13.948  1.00  0.00     0.297 HD
ENDBRANCH  15  17
ENDBRANCH   4  15
BRANCH   5  19
ATOM     19  O   UNL     1      -1.238  16.711 -13.870  1.00  0.00    -0.507 OA
ATOM     20  H   UNL     1      -0.792  16.150 -14.527  1.00  0.00     0.293 HD
ENDBRANCH   5  19
TORSDOF 4
ENDMDL
MODEL 9
REMARK VINA RESULT:    -4.071      6.160      8.382
REMARK INTER + INTRA:          -5.370
REMARK INTER:                  -4.312
REMARK INTRA:                  -1.058
REMARK UNBOUND:                -0.585
REMARK SMILES O=C(O)c1cc(-c2ccc(F)cc2F)ccc1O
REMARK SMILES IDX 6 1 5 2 15 3 4 4 17 5 16 6 7 7 13 8 12 9 8 10 10 11 9 12
REMARK SMILES IDX 14 13 11 14 2 15 1 16 3 17 18 19
REMARK H PARENT 3 18 18 20
ROOT
ATOM      1  C   UNL     1      -3.738  11.245  -7.314  1.00  0.00    -0.014 A 
ATOM      2  C   UNL     1      -4.665  12.286  -7.293  1.00  0.00     0.028 A 
ATOM      3  C   UNL     1      -2.541  11.391  -8.013  1.00  0.00     0.013 A 
ATOM      4  C   UNL     1      -4.396  13.474  -7.973  1.00  0.00     0.102 A 
ATOM      5  C   UNL     1      -3.198  13.620  -8.672  1.00  0.00     0.130 A 
ATOM      6  C   UNL     1      -2.270  12.578  -8.693  1.00  0.00     0.048 A 
ENDROOT
BRANCH   1   7
ATOM      7  C   UNL     1      -4.018  10.011  -6.610  1.00  0.00     0.018 A 
ATOM      8  C   UNL     1      -3.802   9.925  -5.234  1.00  0.00     0.133 A 
ATOM      9  C   UNL     1      -4.073   8.734  -4.560  1.00  0.00     0.079 A 
ATOM     10  C   UNL     1      -4.506   8.908  -7.311  1.00  0.00     0.015 A 
ATOM     11  C   UNL     1      -4.560   7.631  -5.261  1.00  0.00     0.126 A 
ATOM     12  C   UNL     1      -4.776   7.718  -6.636  1.00  0.00     0.040 A 
ATOM     13  F   UNL     1      -3.332  10.975  -4.547  1.00  0.00    -0.206 F 
ATOM     14  F   UNL     1      -4.820   6.487  -4.614  1.00  0.00    -0.207 F 
ENDBRANCH   1   7
BRANCH   4  15
ATOM     15  C   UNL     1      -5.377  14.550  -7.939  1.00  0.00     0.339 C 
ATOM     16  O   UNL     1      -5.423  15.499  -8.725  1.00  0.00    -0.246 OA
BRANCH  15  17
ATOM     17  O   UNL     1      -6.270  14.404  -6.923  1.00  0.00    -0.478 OA
ATOM     18  H   UNL     1      -6.726  13.537  -6.959  1.00  0.00     0.297 HD
ENDBRANCH  15  17
ENDBRANCH   4  15
BRANCH   5  19
ATOM     19  O   UNL     1      -2.915  14.773  -9.342  1.00  0.00    -0.507 OA
ATOM     20  H   UNL     1      -2.917  15.515  -8.712  1.00  0.00     0.293 HD
ENDBRANCH   5  19
TORSDOF 4
ENDMDL
