MODEL 1
REMARK VINA RESULT:    -5.227      0.000      0.000
REMARK INTER + INTRA:          -7.241
REMARK INTER:                  -6.449
REMARK INTRA:                  -0.792
REMARK UNBOUND:                -0.792
REMARK SMILES Cc1ccc(C(=O)c2cc(O)c(O)c([N+](=O)[O-])c2)cc1
REMARK SMILES IDX 8 1 18 2 9 3 14 4 10 5 12 6 6 7 7 8 5 9 4 10 19 11 3 12
REMARK SMILES IDX 20 13 2 14 1 15 15 16 17 17 16 18 11 19 13 21
REMARK H PARENT 11 20 13 22
ROOT
ATOM      1  C   UNL     1      -0.110   0.999  -6.803  1.00  0.00     0.033 A 
ATOM      2  C   UNL     1       0.066  -0.350  -6.597  1.00  0.00     0.102 A 
ATOM      3  C   UNL     1      -0.534   1.856  -5.815  1.00  0.00     0.063 A 
ATOM      4  C   UNL     1      -0.196  -0.871  -5.330  1.00  0.00     0.315 A 
ATOM      5  C   UNL     1      -0.797   1.334  -4.548  1.00  0.00     0.165 A 
ATOM      6  C   UNL     1      -0.627  -0.029  -4.305  1.00  0.00     0.237 A 
ENDROOT
BRANCH   1   7
ATOM      7  C   UNL     1       0.170   1.557  -8.160  1.00  0.00     0.193 C 
ATOM      8  O   UNL     1       0.633   2.706  -8.218  1.00  0.00    -0.289 OA
BRANCH   7   9
ATOM      9  C   UNL     1      -0.080   0.806  -9.379  1.00  0.00     0.023 A 
ATOM     10  C   UNL     1      -1.295   0.949 -10.051  1.00  0.00     0.012 A 
ATOM     11  C   UNL     1       0.894  -0.059  -9.878  1.00  0.00     0.012 A 
ATOM     12  C   UNL     1      -1.534   0.229 -11.220  1.00  0.00     0.004 A 
ATOM     13  C   UNL     1       0.655  -0.780 -11.048  1.00  0.00     0.004 A 
ATOM     14  C   UNL     1      -0.559  -0.636 -11.720  1.00  0.00    -0.051 A 
ATOM     15  C   UNL     1      -0.817  -1.408 -12.969  1.00  0.00     0.044 C 
ENDBRANCH   7   9
ENDBRANCH   1   7
BRANCH   4  16
ATOM     16  N   UNL     1      -0.018  -2.263  -5.102  1.00  0.00     0.066 N 
ATOM     17  O   UNL     1       0.856  -2.878  -5.759  1.00  0.00    -0.258 OA
ATOM     18  O   UNL     1      -0.739  -2.834  -4.251  1.00  0.00    -0.258 OA
ENDBRANCH   4  16
BRANCH   5  19
ATOM     19  O   UNL     1      -1.217   2.169  -3.556  1.00  0.00    -0.504 OA
ATOM     20  H   UNL     1      -0.486   2.750  -3.288  1.00  0.00     0.293 HD
ENDBRANCH   5  19
BRANCH   6  21
ATOM     21  O   UNL     1      -0.887  -0.527  -3.061  1.00  0.00    -0.500 OA
ATOM     22  H   UNL     1      -1.002  -1.489  -3.112  1.00  0.00     0.294 HD
ENDBRANCH   6  21
TORSDOF 5
ENDMDL
MODEL 2
REMARK VINA RESULT:    -5.188      2.038      3.547
REMARK INTER + INTRA:          -7.194
REMARK INTER:                  -6.392
REMARK INTRA:                  -0.801
REMARK UNBOUND:                -0.792
REMARK SMILES Cc1ccc(C(=O)c2cc(O)c(O)c([N+](=O)[O-])c2)cc1
REMARK SMILES IDX 8 1 18 2 9 3 14 4 10 5 12 6 6 7 7 8 5 9 4 10 19 11 3 12
REMARK SMILES IDX 20 13 2 14 1 15 15 16 17 17 16 18 11 19 13 21
REMARK H PARENT 11 20 13 22
ROOT
ATOM      1  C   UNL     1      -0.994  -0.575  -7.137  1.00  0.00     0.033 A 
ATOM      2  C   UNL     1      -1.299   0.631  -6.550  1.00  0.00     0.102 A 
ATOM      3  C   UNL     1      -0.641  -1.689  -6.413  1.00  0.00     0.063 A 
ATOM      4  C   UNL     1      -1.250   0.727  -5.160  1.00  0.00     0.315 A 
ATOM      5  C   UNL     1      -0.592  -1.593  -5.022  1.00  0.00     0.165 A 
ATOM      6  C   UNL     1      -0.897  -0.384  -4.395  1.00  0.00     0.237 A 
ENDROOT
BRANCH   1   7
ATOM      7  C   UNL     1      -1.046  -0.679  -8.627  1.00  0.00     0.193 C 
ATOM      8  O   UNL     1      -1.474  -1.738  -9.109  1.00  0.00    -0.289 OA
BRANCH   7   9
ATOM      9  C   UNL     1      -0.618   0.403  -9.499  1.00  0.00     0.023 A 
ATOM     10  C   UNL     1       0.694   0.443  -9.969  1.00  0.00     0.012 A 
ATOM     11  C   UNL     1      -1.520   1.402  -9.865  1.00  0.00     0.012 A 
ATOM     12  C   UNL     1       1.104   1.481 -10.806  1.00  0.00     0.004 A 
ATOM     13  C   UNL     1      -1.111   2.441 -10.702  1.00  0.00     0.004 A 
ATOM     14  C   UNL     1       0.202   2.480 -11.173  1.00  0.00    -0.051 A 
ATOM     15  C   UNL     1       0.641   3.590 -12.066  1.00  0.00     0.044 C 
ENDBRANCH   7   9
ENDBRANCH   1   7
BRANCH   4  16
ATOM     16  N   UNL     1      -1.564   1.968  -4.539  1.00  0.00     0.066 N 
ATOM     17  O   UNL     1      -0.889   2.336  -3.547  1.00  0.00    -0.258 OA
ATOM     18  O   UNL     1      -2.504   2.656  -5.000  1.00  0.00    -0.258 OA
ENDBRANCH   4  16
BRANCH   5  19
ATOM     19  O   UNL     1      -0.245  -2.687  -4.288  1.00  0.00    -0.504 OA
ATOM     20  H   UNL     1      -0.757  -3.456  -4.589  1.00  0.00     0.293 HD
ENDBRANCH   5  19
BRANCH   6  21
ATOM     21  O   UNL     1      -0.845  -0.302  -3.034  1.00  0.00    -0.500 OA
ATOM     22  H   UNL     1      -0.795  -1.194  -2.655  1.00  0.00     0.294 HD
ENDBRANCH   6  21
TORSDOF 5
ENDMDL
MODEL 3
REMARK VINA RESULT:    -4.416      1.620      2.928
REMARK INTER + INTRA:          -6.241
REMARK INTER:                  -5.560
REMARK INTRA:                  -0.681
REMARK UNBOUND:                -0.792
REMARK SMILES Cc1ccc(C(=O)c2cc(O)c(O)c([N+](=O)[O-])c2)cc1
REMARK SMILES IDX 8 1 18 2 9 3 14 4 10 5 12 6 6 7 7 8 5 9 4 10 19 11 3 12
REMARK SMILES IDX 20 13 2 14 1 15 15 16 17 17 16 18 11 19 13 21
REMARK H PARENT 11 20 13 22
ROOT
ATOM      1  C   UNL     1       0.624  -0.286  -6.386  1.00  0.00     0.033 A 
ATOM      2  C   UNL     1       0.158   0.897  -5.859  1.00  0.00     0.102 A 
ATOM      3  C   UNL     1       0.360  -1.510  -5.819  1.00  0.00     0.063 A 
ATOM      4  C   UNL     1      -0.617   0.851  -4.700  1.00  0.00     0.315 A 
ATOM      5  C   UNL     1      -0.414  -1.556  -4.660  1.00  0.00     0.165 A 
ATOM      6  C   UNL     1      -0.903  -0.375  -4.100  1.00  0.00     0.237 A 
ENDROOT
BRANCH   1   7
ATOM      7  C   UNL     1       1.454  -0.237  -7.627  1.00  0.00     0.193 C 
ATOM      8  O   UNL     1       2.687  -0.248  -7.488  1.00  0.00    -0.289 OA
BRANCH   7   9
ATOM      9  C   UNL     1       0.867  -0.180  -8.956  1.00  0.00     0.023 A 
ATOM     10  C   UNL     1      -0.325   0.513  -9.162  1.00  0.00     0.012 A 
ATOM     11  C   UNL     1       1.497  -0.818 -10.025  1.00  0.00     0.012 A 
ATOM     12  C   UNL     1      -0.888   0.568 -10.437  1.00  0.00     0.004 A 
ATOM     13  C   UNL     1       0.934  -0.763 -11.301  1.00  0.00     0.004 A 
ATOM     14  C   UNL     1      -0.259  -0.070 -11.507  1.00  0.00    -0.051 A 
ATOM     15  C   UNL     1      -0.861  -0.012 -12.869  1.00  0.00     0.044 C 
ENDBRANCH   7   9
ENDBRANCH   1   7
BRANCH   4  16
ATOM     16  N   UNL     1      -1.106   2.065  -4.145  1.00  0.00     0.066 N 
ATOM     17  O   UNL     1      -1.831   2.806  -4.851  1.00  0.00    -0.258 OA
ATOM     18  O   UNL     1      -0.799   2.358  -2.965  1.00  0.00    -0.258 OA
ENDBRANCH   4  16
BRANCH   5  19
ATOM     19  O   UNL     1      -0.686  -2.761  -4.085  1.00  0.00    -0.504 OA
ATOM     20  H   UNL     1      -0.131  -3.448  -4.490  1.00  0.00     0.293 HD
ENDBRANCH   5  19
BRANCH   6  21
ATOM     21  O   UNL     1      -1.660  -0.433  -2.967  1.00  0.00    -0.500 OA
ATOM     22  H   UNL     1      -2.339   0.260  -2.992  1.00  0.00     0.294 HD
ENDBRANCH   6  21
TORSDOF 5
ENDMDL
MODEL 4
REMARK VINA RESULT:    -4.238      1.974      2.544
REMARK INTER + INTRA:          -6.021
REMARK INTER:                  -5.308
REMARK INTRA:                  -0.713
REMARK UNBOUND:                -0.792
REMARK SMILES Cc1ccc(C(=O)c2cc(O)c(O)c([N+](=O)[O-])c2)cc1
REMARK SMILES IDX 8 1 18 2 9 3 14 4 10 5 12 6 6 7 7 8 5 9 4 10 19 11 3 12
REMARK SMILES IDX 20 13 2 14 1 15 15 16 17 17 16 18 11 19 13 21
REMARK H PARENT 11 20 13 22
ROOT
ATOM      1  C   UNL     1      -0.915  -0.227  -7.626  1.00  0.00     0.033 A 
ATOM      2  C   UNL     1      -0.452  -1.306  -6.910  1.00  0.00     0.102 A 
ATOM      3  C   UNL     1      -1.403   0.911  -7.029  1.00  0.00     0.063 A 
ATOM      4  C   UNL     1      -0.477  -1.242  -5.517  1.00  0.00     0.315 A 
ATOM      5  C   UNL     1      -1.429   0.975  -5.636  1.00  0.00     0.165 A 
ATOM      6  C   UNL     1      -0.965  -0.102  -4.879  1.00  0.00     0.237 A 
ENDROOT
BRANCH   1   7
ATOM      7  C   UNL     1      -0.888  -0.295  -9.118  1.00  0.00     0.193 C 
ATOM      8  O   UNL     1      -1.291  -1.342  -9.647  1.00  0.00    -0.289 OA
BRANCH   7   9
ATOM      9  C   UNL     1      -0.415   0.807  -9.941  1.00  0.00     0.023 A 
ATOM     10  C   UNL     1       0.916   0.845 -10.357  1.00  0.00     0.012 A 
ATOM     11  C   UNL     1      -1.292   1.825 -10.314  1.00  0.00     0.012 A 
ATOM     12  C   UNL     1       1.369   1.902 -11.146  1.00  0.00     0.004 A 
ATOM     13  C   UNL     1      -0.839   2.882 -11.104  1.00  0.00     0.004 A 
ATOM     14  C   UNL     1       0.492   2.921 -11.520  1.00  0.00    -0.051 A 
ATOM     15  C   UNL     1       0.978   4.051 -12.363  1.00  0.00     0.044 C 
ENDBRANCH   7   9
ENDBRANCH   1   7
BRANCH   4  16
ATOM     16  N   UNL     1      -0.001  -2.350  -4.763  1.00  0.00     0.066 N 
ATOM     17  O   UNL     1       1.192  -2.713  -4.906  1.00  0.00    -0.258 OA
ATOM     18  O   UNL     1      -0.786  -2.930  -3.977  1.00  0.00    -0.258 OA
ENDBRANCH   4  16
BRANCH   5  19
ATOM     19  O   UNL     1      -1.908   2.096  -5.027  1.00  0.00    -0.504 OA
ATOM     20  H   UNL     1      -1.185   2.733  -4.903  1.00  0.00     0.293 HD
ENDBRANCH   5  19
BRANCH   6  21
ATOM     21  O   UNL     1      -0.995  -0.027  -3.517  1.00  0.00    -0.500 OA
ATOM     22  H   UNL     1      -0.284   0.555  -3.207  1.00  0.00     0.294 HD
ENDBRANCH   6  21
TORSDOF 5
ENDMDL
MODEL 5
REMARK VINA RESULT:    -4.235      1.287      2.904
REMARK INTER + INTRA:          -6.017
REMARK INTER:                  -5.307
REMARK INTRA:                  -0.710
REMARK UNBOUND:                -0.792
REMARK SMILES Cc1ccc(C(=O)c2cc(O)c(O)c([N+](=O)[O-])c2)cc1
REMARK SMILES IDX 8 1 18 2 9 3 14 4 10 5 12 6 6 7 7 8 5 9 4 10 19 11 3 12
REMARK SMILES IDX 20 13 2 14 1 15 15 16 17 17 16 18 11 19 13 21
REMARK H PARENT 11 20 13 22
ROOT
ATOM      1  C   UNL     1      -0.084   0.840  -7.427  1.00  0.00     0.033 A 
ATOM      2  C   UNL     1      -0.681   1.666  -6.502  1.00  0.00     0.102 A 
ATOM      3  C   UNL     1       0.341  -0.432  -7.128  1.00  0.00     0.063 A 
ATOM      4  C   UNL     1      -0.864   1.189  -5.204  1.00  0.00     0.315 A 
ATOM      5  C   UNL     1       0.158  -0.908  -5.830  1.00  0.00     0.165 A 
ATOM      6  C   UNL     1      -0.445  -0.097  -4.867  1.00  0.00     0.237 A 
ENDROOT
BRANCH   1   7
ATOM      7  C   UNL     1       0.113   1.350  -8.818  1.00  0.00     0.193 C 
ATOM      8  O   UNL     1       0.567   2.497  -8.945  1.00  0.00    -0.289 OA
BRANCH   7   9
ATOM      9  C   UNL     1      -0.207   0.555  -9.993  1.00  0.00     0.023 A 
ATOM     10  C   UNL     1       0.733  -0.337 -10.509  1.00  0.00     0.012 A 
ATOM     11  C   UNL     1      -1.455   0.683 -10.603  1.00  0.00     0.012 A 
ATOM     12  C   UNL     1       0.426  -1.100 -11.635  1.00  0.00     0.004 A 
ATOM     13  C   UNL     1      -1.763  -0.080 -11.730  1.00  0.00     0.004 A 
ATOM     14  C   UNL     1      -0.822  -0.972 -12.246  1.00  0.00    -0.051 A 
ATOM     15  C   UNL     1      -1.149  -1.787 -13.451  1.00  0.00     0.044 C 
ENDBRANCH   7   9
ENDBRANCH   1   7
BRANCH   4  16
ATOM     16  N   UNL     1      -1.480   2.031  -4.237  1.00  0.00     0.066 N 
ATOM     17  O   UNL     1      -0.844   2.323  -3.196  1.00  0.00    -0.258 OA
ATOM     18  O   UNL     1      -2.638   2.456  -4.454  1.00  0.00    -0.258 OA
ENDBRANCH   4  16
BRANCH   5  19
ATOM     19  O   UNL     1       0.572  -2.168  -5.515  1.00  0.00    -0.504 OA
ATOM     20  H   UNL     1       1.536  -2.171  -5.389  1.00  0.00     0.293 HD
ENDBRANCH   5  19
BRANCH   6  21
ATOM     21  O   UNL     1      -0.618  -0.574  -3.601  1.00  0.00    -0.500 OA
ATOM     22  H   UNL     1      -1.554  -0.509  -3.353  1.00  0.00     0.294 HD
ENDBRANCH   6  21
TORSDOF 5
ENDMDL
MODEL 6
REMARK VINA RESULT:    -4.233     10.055     12.779
REMARK INTER + INTRA:          -6.014
REMARK INTER:                  -5.561
REMARK INTRA:                  -0.454
REMARK UNBOUND:                -0.792
REMARK SMILES Cc1ccc(C(=O)c2cc(O)c(O)c([N+](=O)[O-])c2)cc1
REMARK SMILES IDX 8 1 18 2 9 3 14 4 10 5 12 6 6 7 7 8 5 9 4 10 19 11 3 12
REMARK SMILES IDX 20 13 2 14 1 15 15 16 17 17 16 18 11 19 13 21
REMARK H PARENT 11 20 13 22
ROOT
ATOM      1  C   UNL     1       3.529   6.848 -16.152  1.00  0.00     0.033 A 
ATOM      2  C   UNL     1       4.656   7.534 -16.540  1.00  0.00     0.102 A 
ATOM      3  C   UNL     1       2.257   7.335 -16.338  1.00  0.00     0.063 A 
ATOM      4  C   UNL     1       4.501   8.779 -17.151  1.00  0.00     0.315 A 
ATOM      5  C   UNL     1       2.102   8.580 -16.948  1.00  0.00     0.165 A 
ATOM      6  C   UNL     1       3.225   9.302 -17.355  1.00  0.00     0.237 A 
ENDROOT
BRANCH   1   7
ATOM      7  C   UNL     1       3.694   5.514 -15.498  1.00  0.00     0.193 C 
ATOM      8  O   UNL     1       4.631   4.801 -15.889  1.00  0.00    -0.289 OA
BRANCH   7   9
ATOM      9  C   UNL     1       2.807   5.047 -14.445  1.00  0.00     0.023 A 
ATOM     10  C   UNL     1       1.513   4.631 -14.756  1.00  0.00     0.012 A 
ATOM     11  C   UNL     1       3.251   5.016 -13.123  1.00  0.00     0.012 A 
ATOM     12  C   UNL     1       0.663   4.183 -13.745  1.00  0.00     0.004 A 
ATOM     13  C   UNL     1       2.401   4.568 -12.111  1.00  0.00     0.004 A 
ATOM     14  C   UNL     1       1.106   4.151 -12.422  1.00  0.00    -0.051 A 
ATOM     15  C   UNL     1       0.197   3.673 -11.342  1.00  0.00     0.044 C 
ENDBRANCH   7   9
ENDBRANCH   1   7
BRANCH   4  16
ATOM     16  N   UNL     1       5.657   9.500 -17.558  1.00  0.00     0.066 N 
ATOM     17  O   UNL     1       6.786   9.089 -17.197  1.00  0.00    -0.258 OA
ATOM     18  O   UNL     1       5.514  10.525 -18.265  1.00  0.00    -0.258 OA
ENDBRANCH   4  16
BRANCH   5  19
ATOM     19  O   UNL     1       0.849   9.079 -17.142  1.00  0.00    -0.504 OA
ATOM     20  H   UNL     1       0.779   9.446 -18.038  1.00  0.00     0.293 HD
ENDBRANCH   5  19
BRANCH   6  21
ATOM     21  O   UNL     1       3.061  10.519 -17.951  1.00  0.00    -0.500 OA
ATOM     22  H   UNL     1       2.363  11.014 -17.494  1.00  0.00     0.294 HD
ENDBRANCH   6  21
TORSDOF 5
ENDMDL
MODEL 7
REMARK VINA RESULT:    -4.140      3.648      6.588
REMARK INTER + INTRA:          -5.900
REMARK INTER:                  -4.935
REMARK INTRA:                  -0.965
REMARK UNBOUND:                -0.792
REMARK SMILES Cc1ccc(C(=O)c2cc(O)c(O)c([N+](=O)[O-])c2)cc1
REMARK SMILES IDX 8 1 18 2 9 3 14 4 10 5 12 6 6 7 7 8 5 9 4 10 19 11 3 12
REMARK SMILES IDX 20 13 2 14 1 15 15 16 17 17 16 18 11 19 13 21
REMARK H PARENT 11 20 13 22
ROOT
ATOM      1  C   UNL     1      -0.906   1.177 -10.215  1.00  0.00     0.033 A 
ATOM      2  C   UNL     1      -1.012   0.042 -10.985  1.00  0.00     0.102 A 
ATOM      3  C   UNL     1      -0.421   2.367 -10.704  1.00  0.00     0.063 A 
ATOM      4  C   UNL     1      -0.612   0.101 -12.320  1.00  0.00     0.315 A 
ATOM      5  C   UNL     1      -0.020   2.427 -12.039  1.00  0.00     0.165 A 
ATOM      6  C   UNL     1      -0.116   1.293 -12.847  1.00  0.00     0.237 A 
ENDROOT
BRANCH   1   7
ATOM      7  C   UNL     1      -1.334   1.114  -8.785  1.00  0.00     0.193 C 
ATOM      8  O   UNL     1      -2.155   1.960  -8.400  1.00  0.00    -0.289 OA
BRANCH   7   9
ATOM      9  C   UNL     1      -0.825   0.113  -7.863  1.00  0.00     0.023 A 
ATOM     10  C   UNL     1       0.550  -0.088  -7.740  1.00  0.00     0.012 A 
ATOM     11  C   UNL     1      -1.711  -0.647  -7.100  1.00  0.00     0.012 A 
ATOM     12  C   UNL     1       1.038  -1.048  -6.854  1.00  0.00     0.004 A 
ATOM     13  C   UNL     1      -1.223  -1.609  -6.213  1.00  0.00     0.004 A 
ATOM     14  C   UNL     1       0.152  -1.809  -6.091  1.00  0.00    -0.051 A 
ATOM     15  C   UNL     1       0.674  -2.837  -5.145  1.00  0.00     0.044 C 
ENDBRANCH   7   9
ENDBRANCH   1   7
BRANCH   4  16
ATOM     16  N   UNL     1      -0.717  -1.064 -13.128  1.00  0.00     0.066 N 
ATOM     17  O   UNL     1      -0.598  -2.190 -12.586  1.00  0.00    -0.258 OA
ATOM     18  O   UNL     1      -0.926  -0.933 -14.356  1.00  0.00    -0.258 OA
ENDBRANCH   4  16
BRANCH   5  19
ATOM     19  O   UNL     1       0.462   3.598 -12.541  1.00  0.00    -0.504 OA
ATOM     20  H   UNL     1       1.390   3.707 -12.277  1.00  0.00     0.293 HD
ENDBRANCH   5  19
BRANCH   6  21
ATOM     21  O   UNL     1       0.278   1.363 -14.152  1.00  0.00    -0.500 OA
ATOM     22  H   UNL     1       1.235   1.214 -14.212  1.00  0.00     0.294 HD
ENDBRANCH   6  21
TORSDOF 5
ENDMDL
MODEL 8
REMARK VINA RESULT:    -4.098      9.884     12.770
REMARK INTER + INTRA:          -5.848
REMARK INTER:                  -5.077
REMARK INTRA:                  -0.771
REMARK UNBOUND:                -0.792
REMARK SMILES Cc1ccc(C(=O)c2cc(O)c(O)c([N+](=O)[O-])c2)cc1
REMARK SMILES IDX 8 1 18 2 9 3 14 4 10 5 12 6 6 7 7 8 5 9 4 10 19 11 3 12
REMARK SMILES IDX 20 13 2 14 1 15 15 16 17 17 16 18 11 19 13 21
REMARK H PARENT 11 20 13 22
ROOT
ATOM      1  C   UNL     1       3.474   6.468 -16.605  1.00  0.00     0.033 A 
ATOM      2  C   UNL     1       3.616   7.800 -16.294  1.00  0.00     0.102 A 
ATOM      3  C   UNL     1       4.468   5.730 -17.202  1.00  0.00     0.063 A 
ATOM      4  C   UNL     1       4.823   8.430 -16.597  1.00  0.00     0.315 A 
ATOM      5  C   UNL     1       5.675   6.360 -17.506  1.00  0.00     0.165 A 
ATOM      6  C   UNL     1       5.853   7.711 -17.203  1.00  0.00     0.237 A 
ENDROOT
BRANCH   1   7
ATOM      7  C   UNL     1       2.181   5.793 -16.281  1.00  0.00     0.193 C 
ATOM      8  O   UNL     1       1.334   5.722 -17.184  1.00  0.00    -0.289 OA
BRANCH   7   9
ATOM      9  C   UNL     1       1.901   5.233 -14.968  1.00  0.00     0.023 A 
ATOM     10  C   UNL     1       2.810   5.413 -13.925  1.00  0.00     0.012 A 
ATOM     11  C   UNL     1       0.724   4.517 -14.751  1.00  0.00     0.012 A 
ATOM     12  C   UNL     1       2.541   4.876 -12.666  1.00  0.00     0.004 A 
ATOM     13  C   UNL     1       0.455   3.980 -13.492  1.00  0.00     0.004 A 
ATOM     14  C   UNL     1       1.364   4.160 -12.449  1.00  0.00    -0.051 A 
ATOM     15  C   UNL     1       1.078   3.585 -11.104  1.00  0.00     0.044 C 
ENDBRANCH   7   9
ENDBRANCH   1   7
BRANCH   4  16
ATOM     16  N   UNL     1       4.986   9.807 -16.282  1.00  0.00     0.066 N 
ATOM     17  O   UNL     1       5.681  10.525 -17.040  1.00  0.00    -0.258 OA
ATOM     18  O   UNL     1       4.428  10.264 -15.256  1.00  0.00    -0.258 OA
ENDBRANCH   4  16
BRANCH   5  19
ATOM     19  O   UNL     1       6.673   5.645 -18.097  1.00  0.00    -0.504 OA
ATOM     20  H   UNL     1       7.051   6.158 -18.830  1.00  0.00     0.293 HD
ENDBRANCH   5  19
BRANCH   6  21
ATOM     21  O   UNL     1       7.038   8.316 -17.504  1.00  0.00    -0.500 OA
ATOM     22  H   UNL     1       7.700   8.089 -16.833  1.00  0.00     0.294 HD
ENDBRANCH   6  21
TORSDOF 5
ENDMDL
