MODEL 1
REMARK VINA RESULT:    -7.094      0.000      0.000
REMARK INTER + INTRA:          -8.941
REMARK INTER:                  -8.338
REMARK INTRA:                  -0.603
REMARK UNBOUND:                -0.603
REMARK SMILES O=C(O)c1cc(-c2ccc(F)cc2F)ccc1O
REMARK SMILES IDX 6 1 5 2 15 3 4 4 17 5 16 6 7 7 13 8 12 9 8 10 10 11 9 12
REMARK SMILES IDX 14 13 11 14 2 15 1 16 3 17 18 19
REMARK H PARENT 3 18 18 20
ROOT
ATOM      1  C   UNL     1      -0.512   0.205  -7.137  1.00  0.00    -0.014 A 
ATOM      2  C   UNL     1      -0.946   1.247  -6.320  1.00  0.00     0.028 A 
ATOM      3  C   UNL     1      -0.204  -1.036  -6.581  1.00  0.00     0.013 A 
ATOM      4  C   UNL     1      -1.072   1.049  -4.944  1.00  0.00     0.102 A 
ATOM      5  C   UNL     1      -0.764  -0.192  -4.388  1.00  0.00     0.130 A 
ATOM      6  C   UNL     1      -0.330  -1.235  -5.206  1.00  0.00     0.048 A 
ENDROOT
BRANCH   1   7
ATOM      7  C   UNL     1      -0.380   0.410  -8.564  1.00  0.00     0.018 A 
ATOM      8  C   UNL     1       0.785   0.015  -9.223  1.00  0.00     0.133 A 
ATOM      9  C   UNL     1       0.908   0.214 -10.599  1.00  0.00     0.079 A 
ATOM     10  C   UNL     1      -1.420   1.003  -9.279  1.00  0.00     0.015 A 
ATOM     11  C   UNL     1      -0.131   0.808 -11.314  1.00  0.00     0.126 A 
ATOM     12  C   UNL     1      -1.296   1.201 -10.654  1.00  0.00     0.040 A 
ATOM     13  F   UNL     1       1.795  -0.554  -8.550  1.00  0.00    -0.206 F 
ATOM     14  F   UNL     1      -0.014   1.000 -12.634  1.00  0.00    -0.207 F 
ENDBRANCH   1   7
BRANCH   4  15
ATOM     15  C   UNL     1      -1.528   2.151  -4.107  1.00  0.00     0.339 C 
ATOM     16  O   UNL     1      -0.934   2.589  -3.120  1.00  0.00    -0.246 OA
BRANCH  15  17
ATOM     17  O   UNL     1      -2.711   2.670  -4.533  1.00  0.00    -0.478 OA
ATOM     18  H   UNL     1      -2.721   3.649  -4.479  1.00  0.00     0.297 HD
ENDBRANCH  15  17
ENDBRANCH   4  15
BRANCH   5  19
ATOM     19  O   UNL     1      -0.881  -0.406  -3.047  1.00  0.00    -0.507 OA
ATOM     20  H   UNL     1      -1.824  -0.491  -2.820  1.00  0.00     0.293 HD
ENDBRANCH   5  19
TORSDOF 4
ENDMDL
MODEL 2
REMARK VINA RESULT:    -7.093      1.134      1.613
REMARK INTER + INTRA:          -8.939
REMARK INTER:                  -8.340
REMARK INTRA:                  -0.599
REMARK UNBOUND:                -0.603
REMARK SMILES O=C(O)c1cc(-c2ccc(F)cc2F)ccc1O
REMARK SMILES IDX 6 1 5 2 15 3 4 4 17 5 16 6 7 7 13 8 12 9 8 10 10 11 9 12
REMARK SMILES IDX 14 13 11 14 2 15 1 16 3 17 18 19
REMARK H PARENT 3 18 18 20
ROOT
ATOM      1  C   UNL     1      -0.573   0.232  -7.165  1.00  0.00    -0.014 A 
ATOM      2  C   UNL     1      -0.989   1.273  -6.335  1.00  0.00     0.028 A 
ATOM      3  C   UNL     1      -0.272  -1.016  -6.621  1.00  0.00     0.013 A 
ATOM      4  C   UNL     1      -1.105   1.065  -4.960  1.00  0.00     0.102 A 
ATOM      5  C   UNL     1      -0.803  -0.183  -4.416  1.00  0.00     0.130 A 
ATOM      6  C   UNL     1      -0.387  -1.224  -5.247  1.00  0.00     0.048 A 
ENDROOT
BRANCH   1   7
ATOM      7  C   UNL     1      -0.452   0.447  -8.591  1.00  0.00     0.018 A 
ATOM      8  C   UNL     1      -1.480   1.076  -9.294  1.00  0.00     0.133 A 
ATOM      9  C   UNL     1      -1.359   1.281 -10.669  1.00  0.00     0.079 A 
ATOM     10  C   UNL     1       0.696   0.026  -9.261  1.00  0.00     0.015 A 
ATOM     11  C   UNL     1      -0.211   0.858 -11.339  1.00  0.00     0.126 A 
ATOM     12  C   UNL     1       0.817   0.231 -10.635  1.00  0.00     0.040 A 
ATOM     13  F   UNL     1      -2.591   1.484  -8.666  1.00  0.00    -0.206 F 
ATOM     14  F   UNL     1      -0.095   1.055 -12.659  1.00  0.00    -0.207 F 
ENDBRANCH   1   7
BRANCH   4  15
ATOM     15  C   UNL     1      -1.542   2.164  -4.110  1.00  0.00     0.339 C 
ATOM     16  O   UNL     1      -0.935   2.589  -3.124  1.00  0.00    -0.246 OA
BRANCH  15  17
ATOM     17  O   UNL     1      -2.723   2.700  -4.522  1.00  0.00    -0.478 OA
ATOM     18  H   UNL     1      -3.337   2.849  -3.773  1.00  0.00     0.297 HD
ENDBRANCH  15  17
ENDBRANCH   4  15
BRANCH   5  19
ATOM     19  O   UNL     1      -0.910  -0.407  -3.075  1.00  0.00    -0.507 OA
ATOM     20  H   UNL     1      -1.831  -0.640  -2.865  1.00  0.00     0.293 HD
ENDBRANCH   5  19
TORSDOF 4
ENDMDL
MODEL 3
REMARK VINA RESULT:    -7.088      1.198      2.682
REMARK INTER + INTRA:          -8.934
REMARK INTER:                  -8.331
REMARK INTRA:                  -0.603
REMARK UNBOUND:                -0.603
REMARK SMILES O=C(O)c1cc(-c2ccc(F)cc2F)ccc1O
REMARK SMILES IDX 6 1 5 2 15 3 4 4 17 5 16 6 7 7 13 8 12 9 8 10 10 11 9 12
REMARK SMILES IDX 14 13 11 14 2 15 1 16 3 17 18 19
REMARK H PARENT 3 18 18 20
ROOT
ATOM      1  C   UNL     1      -0.490   0.282  -7.141  1.00  0.00    -0.014 A 
ATOM      2  C   UNL     1      -0.180  -0.968  -6.606  1.00  0.00     0.028 A 
ATOM      3  C   UNL     1      -0.905   1.316  -6.302  1.00  0.00     0.013 A 
ATOM      4  C   UNL     1      -0.285  -1.185  -5.232  1.00  0.00     0.102 A 
ATOM      5  C   UNL     1      -0.701  -0.150  -4.393  1.00  0.00     0.130 A 
ATOM      6  C   UNL     1      -1.010   1.101  -4.929  1.00  0.00     0.048 A 
ENDROOT
BRANCH   1   7
ATOM      7  C   UNL     1      -0.382   0.507  -8.567  1.00  0.00     0.018 A 
ATOM      8  C   UNL     1       0.759   0.095  -9.256  1.00  0.00     0.133 A 
ATOM      9  C   UNL     1       0.858   0.314 -10.631  1.00  0.00     0.079 A 
ATOM     10  C   UNL     1      -1.422   1.136  -9.251  1.00  0.00     0.015 A 
ATOM     11  C   UNL     1      -0.181   0.944 -11.314  1.00  0.00     0.126 A 
ATOM     12  C   UNL     1      -1.322   1.354 -10.624  1.00  0.00     0.040 A 
ATOM     13  F   UNL     1       1.768  -0.509  -8.614  1.00  0.00    -0.206 F 
ATOM     14  F   UNL     1      -0.086   1.154 -12.633  1.00  0.00    -0.207 F 
ENDBRANCH   1   7
BRANCH   4  15
ATOM     15  C   UNL     1       0.043  -2.497  -4.693  1.00  0.00     0.339 C 
ATOM     16  O   UNL     1      -0.696  -3.182  -3.981  1.00  0.00    -0.246 OA
BRANCH  15  17
ATOM     17  O   UNL     1       1.285  -2.913  -5.063  1.00  0.00    -0.478 OA
ATOM     18  H   UNL     1       1.246  -3.665  -5.691  1.00  0.00     0.297 HD
ENDBRANCH  15  17
ENDBRANCH   4  15
BRANCH   5  19
ATOM     19  O   UNL     1      -0.809  -0.341  -3.048  1.00  0.00    -0.507 OA
ATOM     20  H   UNL     1       0.036  -0.681  -2.706  1.00  0.00     0.293 HD
ENDBRANCH   5  19
TORSDOF 4
ENDMDL
MODEL 4
REMARK VINA RESULT:    -7.085      1.654      3.129
REMARK INTER + INTRA:          -8.930
REMARK INTER:                  -8.330
REMARK INTRA:                  -0.600
REMARK UNBOUND:                -0.603
REMARK SMILES O=C(O)c1cc(-c2ccc(F)cc2F)ccc1O
REMARK SMILES IDX 6 1 5 2 15 3 4 4 17 5 16 6 7 7 13 8 12 9 8 10 10 11 9 12
REMARK SMILES IDX 14 13 11 14 2 15 1 16 3 17 18 19
REMARK H PARENT 3 18 18 20
ROOT
ATOM      1  C   UNL     1      -0.543   0.294  -7.121  1.00  0.00    -0.014 A 
ATOM      2  C   UNL     1      -0.217  -0.955  -6.593  1.00  0.00     0.028 A 
ATOM      3  C   UNL     1      -0.959   1.322  -6.275  1.00  0.00     0.013 A 
ATOM      4  C   UNL     1      -0.308  -1.177  -5.218  1.00  0.00     0.102 A 
ATOM      5  C   UNL     1      -0.724  -0.149  -4.372  1.00  0.00     0.130 A 
ATOM      6  C   UNL     1      -1.050   1.101  -4.901  1.00  0.00     0.048 A 
ENDROOT
BRANCH   1   7
ATOM      7  C   UNL     1      -0.451   0.524  -8.547  1.00  0.00     0.018 A 
ATOM      8  C   UNL     1      -1.509   1.124  -9.229  1.00  0.00     0.133 A 
ATOM      9  C   UNL     1      -1.416   1.344 -10.604  1.00  0.00     0.079 A 
ATOM     10  C   UNL     1       0.700   0.146  -9.238  1.00  0.00     0.015 A 
ATOM     11  C   UNL     1      -0.266   0.965 -11.295  1.00  0.00     0.126 A 
ATOM     12  C   UNL     1       0.792   0.366 -10.611  1.00  0.00     0.040 A 
ATOM     13  F   UNL     1      -2.623   1.492  -8.580  1.00  0.00    -0.206 F 
ATOM     14  F   UNL     1      -0.176   1.176 -12.614  1.00  0.00    -0.207 F 
ENDBRANCH   1   7
BRANCH   4  15
ATOM     15  C   UNL     1       0.038  -2.488  -4.687  1.00  0.00     0.339 C 
ATOM     16  O   UNL     1      -0.695  -3.188  -3.983  1.00  0.00    -0.246 OA
BRANCH  15  17
ATOM     17  O   UNL     1       1.287  -2.883  -5.052  1.00  0.00    -0.478 OA
ATOM     18  H   UNL     1       1.867  -2.118  -5.254  1.00  0.00     0.297 HD
ENDBRANCH  15  17
ENDBRANCH   4  15
BRANCH   5  19
ATOM     19  O   UNL     1      -0.818  -0.345  -3.027  1.00  0.00    -0.507 OA
ATOM     20  H   UNL     1      -0.109   0.153  -2.583  1.00  0.00     0.293 HD
ENDBRANCH   5  19
TORSDOF 4
ENDMDL
MODEL 5
REMARK VINA RESULT:    -5.230      4.005      6.258
REMARK INTER + INTRA:          -6.749
REMARK INTER:                  -5.678
REMARK INTRA:                  -1.072
REMARK UNBOUND:                -0.603
REMARK SMILES O=C(O)c1cc(-c2ccc(F)cc2F)ccc1O
REMARK SMILES IDX 6 1 5 2 15 3 4 4 17 5 16 6 7 7 13 8 12 9 8 10 10 11 9 12
REMARK SMILES IDX 14 13 11 14 2 15 1 16 3 17 18 19
REMARK H PARENT 3 18 18 20
ROOT
ATOM      1  C   UNL     1      -0.203   0.589  -9.781  1.00  0.00    -0.014 A 
ATOM      2  C   UNL     1       0.149   1.871 -10.201  1.00  0.00     0.028 A 
ATOM      3  C   UNL     1      -0.486  -0.400 -10.723  1.00  0.00     0.013 A 
ATOM      4  C   UNL     1       0.218   2.165 -11.563  1.00  0.00     0.102 A 
ATOM      5  C   UNL     1      -0.064   1.176 -12.505  1.00  0.00     0.130 A 
ATOM      6  C   UNL     1      -0.416  -0.107 -12.084  1.00  0.00     0.048 A 
ENDROOT
BRANCH   1   7
ATOM      7  C   UNL     1      -0.277   0.284  -8.368  1.00  0.00     0.018 A 
ATOM      8  C   UNL     1       0.811  -0.304  -7.721  1.00  0.00     0.133 A 
ATOM      9  C   UNL     1       0.735  -0.597  -6.359  1.00  0.00     0.079 A 
ATOM     10  C   UNL     1      -1.437   0.580  -7.654  1.00  0.00     0.015 A 
ATOM     11  C   UNL     1      -0.426  -0.302  -5.645  1.00  0.00     0.126 A 
ATOM     12  C   UNL     1      -1.512   0.287  -6.293  1.00  0.00     0.040 A 
ATOM     13  F   UNL     1       1.932  -0.597  -8.394  1.00  0.00    -0.206 F 
ATOM     14  F   UNL     1      -0.499  -0.582  -4.338  1.00  0.00    -0.207 F 
ENDBRANCH   1   7
BRANCH   4  15
ATOM     15  C   UNL     1       0.588   3.511 -11.981  1.00  0.00     0.339 C 
ATOM     16  O   UNL     1       0.485   3.956 -13.126  1.00  0.00    -0.246 OA
BRANCH  15  17
ATOM     17  O   UNL     1       1.075   4.257 -10.952  1.00  0.00    -0.478 OA
ATOM     18  H   UNL     1       1.999   4.543 -11.114  1.00  0.00     0.297 HD
ENDBRANCH  15  17
ENDBRANCH   4  15
BRANCH   5  19
ATOM     19  O   UNL     1      -0.001   1.443 -13.840  1.00  0.00    -0.507 OA
ATOM     20  H   UNL     1       0.308   2.356 -13.967  1.00  0.00     0.293 HD
ENDBRANCH   5  19
TORSDOF 4
ENDMDL
MODEL 6
REMARK VINA RESULT:    -5.211      4.377      6.712
REMARK INTER + INTRA:          -6.728
REMARK INTER:                  -5.646
REMARK INTRA:                  -1.082
REMARK UNBOUND:                -0.603
REMARK SMILES O=C(O)c1cc(-c2ccc(F)cc2F)ccc1O
REMARK SMILES IDX 6 1 5 2 15 3 4 4 17 5 16 6 7 7 13 8 12 9 8 10 10 11 9 12
REMARK SMILES IDX 14 13 11 14 2 15 1 16 3 17 18 19
REMARK H PARENT 3 18 18 20
ROOT
ATOM      1  C   UNL     1      -0.206   0.567  -9.765  1.00  0.00    -0.014 A 
ATOM      2  C   UNL     1      -0.538  -0.406 -10.707  1.00  0.00     0.028 A 
ATOM      3  C   UNL     1       0.194   1.836 -10.184  1.00  0.00     0.013 A 
ATOM      4  C   UNL     1      -0.469  -0.111 -12.069  1.00  0.00     0.102 A 
ATOM      5  C   UNL     1      -0.069   1.158 -12.488  1.00  0.00     0.130 A 
ATOM      6  C   UNL     1       0.263   2.131 -11.545  1.00  0.00     0.048 A 
ENDROOT
BRANCH   1   7
ATOM      7  C   UNL     1      -0.276   0.261  -8.352  1.00  0.00     0.018 A 
ATOM      8  C   UNL     1       0.815  -0.323  -7.707  1.00  0.00     0.133 A 
ATOM      9  C   UNL     1       0.744  -0.616  -6.345  1.00  0.00     0.079 A 
ATOM     10  C   UNL     1      -1.436   0.553  -7.635  1.00  0.00     0.015 A 
ATOM     11  C   UNL     1      -0.417  -0.325  -5.629  1.00  0.00     0.126 A 
ATOM     12  C   UNL     1      -1.506   0.259  -6.274  1.00  0.00     0.040 A 
ATOM     13  F   UNL     1       1.937  -0.612  -8.382  1.00  0.00    -0.206 F 
ATOM     14  F   UNL     1      -0.486  -0.607  -4.321  1.00  0.00    -0.207 F 
ENDBRANCH   1   7
BRANCH   4  15
ATOM     15  C   UNL     1      -0.820  -1.141 -13.037  1.00  0.00     0.339 C 
ATOM     16  O   UNL     1      -0.815  -1.001 -14.262  1.00  0.00    -0.246 OA
BRANCH  15  17
ATOM     17  O   UNL     1      -1.165  -2.316 -12.442  1.00  0.00    -0.478 OA
ATOM     18  H   UNL     1      -0.402  -2.733 -11.989  1.00  0.00     0.297 HD
ENDBRANCH  15  17
ENDBRANCH   4  15
BRANCH   5  19
ATOM     19  O   UNL     1       0.004   1.466 -13.813  1.00  0.00    -0.507 OA
ATOM     20  H   UNL     1      -0.548   2.248 -13.988  1.00  0.00     0.293 HD
ENDBRANCH   5  19
TORSDOF 4
ENDMDL
MODEL 7
REMARK VINA RESULT:    -5.127      8.727     11.009
REMARK INTER + INTRA:          -6.628
REMARK INTER:                  -5.568
REMARK INTRA:                  -1.060
REMARK UNBOUND:                -0.603
REMARK SMILES O=C(O)c1cc(-c2ccc(F)cc2F)ccc1O
REMARK SMILES IDX 6 1 5 2 15 3 4 4 17 5 16 6 7 7 13 8 12 9 8 10 10 11 9 12
REMARK SMILES IDX 14 13 11 14 2 15 1 16 3 17 18 19
REMARK H PARENT 3 18 18 20
ROOT
ATOM      1  C   UNL     1       3.645   5.792 -14.271  1.00  0.00    -0.014 A 
ATOM      2  C   UNL     1       3.552   7.172 -14.441  1.00  0.00     0.028 A 
ATOM      3  C   UNL     1       4.758   5.104 -14.755  1.00  0.00     0.013 A 
ATOM      4  C   UNL     1       4.570   7.866 -15.095  1.00  0.00     0.102 A 
ATOM      5  C   UNL     1       5.683   7.178 -15.578  1.00  0.00     0.130 A 
ATOM      6  C   UNL     1       5.777   5.796 -15.408  1.00  0.00     0.048 A 
ENDROOT
BRANCH   1   7
ATOM      7  C   UNL     1       2.588   5.072 -13.594  1.00  0.00     0.018 A 
ATOM      8  C   UNL     1       1.432   4.711 -14.286  1.00  0.00     0.133 A 
ATOM      9  C   UNL     1       0.415   4.017 -13.630  1.00  0.00     0.079 A 
ATOM     10  C   UNL     1       2.728   4.737 -12.247  1.00  0.00     0.015 A 
ATOM     11  C   UNL     1       0.555   3.684 -12.283  1.00  0.00     0.126 A 
ATOM     12  C   UNL     1       1.712   4.043 -11.592  1.00  0.00     0.040 A 
ATOM     13  F   UNL     1       1.280   5.027 -15.580  1.00  0.00    -0.206 F 
ATOM     14  F   UNL     1      -0.421   3.017 -11.652  1.00  0.00    -0.207 F 
ENDBRANCH   1   7
BRANCH   4  15
ATOM     15  C   UNL     1       4.454   9.308 -15.262  1.00  0.00     0.339 C 
ATOM     16  O   UNL     1       5.129   9.994 -16.033  1.00  0.00    -0.246 OA
BRANCH  15  17
ATOM     17  O   UNL     1       3.495   9.847 -14.460  1.00  0.00    -0.478 OA
ATOM     18  H   UNL     1       3.821   9.987 -13.546  1.00  0.00     0.297 HD
ENDBRANCH  15  17
ENDBRANCH   4  15
BRANCH   5  19
ATOM     19  O   UNL     1       6.690   7.837 -16.219  1.00  0.00    -0.507 OA
ATOM     20  H   UNL     1       6.807   7.452 -17.105  1.00  0.00     0.293 HD
ENDBRANCH   5  19
TORSDOF 4
ENDMDL
MODEL 8
REMARK VINA RESULT:    -4.506      1.653      2.118
REMARK INTER + INTRA:          -5.899
REMARK INTER:                  -4.895
REMARK INTRA:                  -1.004
REMARK UNBOUND:                -0.603
REMARK SMILES O=C(O)c1cc(-c2ccc(F)cc2F)ccc1O
REMARK SMILES IDX 6 1 5 2 15 3 4 4 17 5 16 6 7 7 13 8 12 9 8 10 10 11 9 12
REMARK SMILES IDX 14 13 11 14 2 15 1 16 3 17 18 19
REMARK H PARENT 3 18 18 20
ROOT
ATOM      1  C   UNL     1      -0.088   0.370  -8.620  1.00  0.00    -0.014 A 
ATOM      2  C   UNL     1      -1.092   1.024  -7.907  1.00  0.00     0.028 A 
ATOM      3  C   UNL     1       0.962  -0.246  -7.940  1.00  0.00     0.013 A 
ATOM      4  C   UNL     1      -1.047   1.061  -6.513  1.00  0.00     0.102 A 
ATOM      5  C   UNL     1       0.003   0.445  -5.833  1.00  0.00     0.130 A 
ATOM      6  C   UNL     1       1.008  -0.210  -6.547  1.00  0.00     0.048 A 
ENDROOT
BRANCH   1   7
ATOM      7  C   UNL     1      -0.133   0.332 -10.066  1.00  0.00     0.018 A 
ATOM      8  C   UNL     1       0.143   1.483 -10.806  1.00  0.00     0.133 A 
ATOM      9  C   UNL     1       0.098   1.442 -12.200  1.00  0.00     0.079 A 
ATOM     10  C   UNL     1      -0.452  -0.858 -10.719  1.00  0.00     0.015 A 
ATOM     11  C   UNL     1      -0.222   0.252 -12.853  1.00  0.00     0.126 A 
ATOM     12  C   UNL     1      -0.497  -0.898 -12.112  1.00  0.00     0.040 A 
ATOM     13  F   UNL     1       0.449   2.635 -10.193  1.00  0.00    -0.206 F 
ATOM     14  F   UNL     1      -0.265   0.212 -14.191  1.00  0.00    -0.207 F 
ENDBRANCH   1   7
BRANCH   4  15
ATOM     15  C   UNL     1      -2.106   1.749  -5.787  1.00  0.00     0.339 C 
ATOM     16  O   UNL     1      -2.037   2.132  -4.617  1.00  0.00    -0.246 OA
BRANCH  15  17
ATOM     17  O   UNL     1      -3.219   1.937  -6.548  1.00  0.00    -0.478 OA
ATOM     18  H   UNL     1      -3.462   2.885  -6.609  1.00  0.00     0.297 HD
ENDBRANCH  15  17
ENDBRANCH   4  15
BRANCH   5  19
ATOM     19  O   UNL     1       0.065   0.469  -4.471  1.00  0.00    -0.507 OA
ATOM     20  H   UNL     1      -0.401   1.259  -4.147  1.00  0.00     0.293 HD
ENDBRANCH   5  19
TORSDOF 4
ENDMDL
MODEL 9
REMARK VINA RESULT:    -4.310      9.539     11.937
REMARK INTER + INTRA:          -5.668
REMARK INTER:                  -4.701
REMARK INTRA:                  -0.967
REMARK UNBOUND:                -0.603
REMARK SMILES O=C(O)c1cc(-c2ccc(F)cc2F)ccc1O
REMARK SMILES IDX 6 1 5 2 15 3 4 4 17 5 16 6 7 7 13 8 12 9 8 10 10 11 9 12
REMARK SMILES IDX 14 13 11 14 2 15 1 16 3 17 18 19
REMARK H PARENT 3 18 18 20
ROOT
ATOM      1  C   UNL     1       2.770   6.457 -15.763  1.00  0.00    -0.014 A 
ATOM      2  C   UNL     1       1.907   5.676 -16.530  1.00  0.00     0.028 A 
ATOM      3  C   UNL     1       2.894   6.221 -14.394  1.00  0.00     0.013 A 
ATOM      4  C   UNL     1       1.167   4.658 -15.929  1.00  0.00     0.102 A 
ATOM      5  C   UNL     1       1.290   4.421 -14.560  1.00  0.00     0.130 A 
ATOM      6  C   UNL     1       2.154   5.203 -13.792  1.00  0.00     0.048 A 
ENDROOT
BRANCH   1   7
ATOM      7  C   UNL     1       3.537   7.515 -16.386  1.00  0.00     0.018 A 
ATOM      8  C   UNL     1       2.892   8.644 -16.891  1.00  0.00     0.133 A 
ATOM      9  C   UNL     1       3.635   9.661 -17.491  1.00  0.00     0.079 A 
ATOM     10  C   UNL     1       4.924   7.403 -16.480  1.00  0.00     0.015 A 
ATOM     11  C   UNL     1       5.022   9.549 -17.585  1.00  0.00     0.126 A 
ATOM     12  C   UNL     1       5.666   8.420 -17.079  1.00  0.00     0.040 A 
ATOM     13  F   UNL     1       1.559   8.766 -16.811  1.00  0.00    -0.206 F 
ATOM     14  F   UNL     1       5.736  10.525 -18.161  1.00  0.00    -0.207 F 
ENDBRANCH   1   7
BRANCH   4  15
ATOM     15  C   UNL     1       0.271   3.853 -16.748  1.00  0.00     0.339 C 
ATOM     16  O   UNL     1       0.506   3.468 -17.896  1.00  0.00    -0.246 OA
BRANCH  15  17
ATOM     17  O   UNL     1      -0.890   3.552 -16.105  1.00  0.00    -0.478 OA
ATOM     18  H   UNL     1      -1.660   3.998 -16.515  1.00  0.00     0.297 HD
ENDBRANCH  15  17
ENDBRANCH   4  15
BRANCH   5  19
ATOM     19  O   UNL     1       0.577   3.431 -13.953  1.00  0.00    -0.507 OA
ATOM     20  H   UNL     1       0.755   3.451 -12.997  1.00  0.00     0.293 HD
ENDBRANCH   5  19
TORSDOF 4
ENDMDL
