MODEL 1
REMARK VINA RESULT:    -4.828      0.000      0.000
REMARK INTER + INTRA:          -6.744
REMARK INTER:                  -5.957
REMARK INTRA:                  -0.787
REMARK UNBOUND:                -0.787
REMARK SMILES Cc1ccc(C(=O)c2cc(O)c(O)c([N+](=O)[O-])c2)cc1
REMARK SMILES IDX 8 1 18 2 9 3 14 4 10 5 12 6 6 7 7 8 5 9 4 10 19 11 3 12
REMARK SMILES IDX 20 13 2 14 1 15 15 16 17 17 16 18 11 19 13 21
REMARK H PARENT 11 20 13 22
ROOT
ATOM      1  C   UNL     1      -3.164  -4.209   6.919  1.00  0.00     0.033 A 
ATOM      2  C   UNL     1      -4.007  -3.201   6.513  1.00  0.00     0.102 A 
ATOM      3  C   UNL     1      -2.147  -4.694   6.131  1.00  0.00     0.063 A 
ATOM      4  C   UNL     1      -3.821  -2.644   5.248  1.00  0.00     0.315 A 
ATOM      5  C   UNL     1      -1.961  -4.138   4.865  1.00  0.00     0.165 A 
ATOM      6  C   UNL     1      -2.798  -3.113   4.423  1.00  0.00     0.237 A 
ENDROOT
BRANCH   1   7
ATOM      7  C   UNL     1      -3.363  -4.805   8.274  1.00  0.00     0.193 C 
ATOM      8  O   UNL     1      -2.353  -5.205   8.873  1.00  0.00    -0.289 OA
BRANCH   7   9
ATOM      9  C   UNL     1      -4.675  -4.923   8.889  1.00  0.00     0.023 A 
ATOM     10  C   UNL     1      -5.408  -6.102   8.749  1.00  0.00     0.012 A 
ATOM     11  C   UNL     1      -5.201  -3.858   9.619  1.00  0.00     0.012 A 
ATOM     12  C   UNL     1      -6.666  -6.215   9.339  1.00  0.00     0.004 A 
ATOM     13  C   UNL     1      -6.461  -3.970  10.210  1.00  0.00     0.004 A 
ATOM     14  C   UNL     1      -7.193  -5.149  10.070  1.00  0.00    -0.051 A 
ATOM     15  C   UNL     1      -8.539  -5.270  10.699  1.00  0.00     0.044 C 
ENDBRANCH   7   9
ENDBRANCH   1   7
BRANCH   4  16
ATOM     16  N   UNL     1      -4.684  -1.601   4.815  1.00  0.00     0.066 N 
ATOM     17  O   UNL     1      -5.167  -0.820   5.670  1.00  0.00    -0.258 OA
ATOM     18  O   UNL     1      -4.936  -1.491   3.593  1.00  0.00    -0.258 OA
ENDBRANCH   4  16
BRANCH   5  19
ATOM     19  O   UNL     1      -0.958  -4.605   4.070  1.00  0.00    -0.504 OA
ATOM     20  H   UNL     1      -0.124  -4.166   4.306  1.00  0.00     0.293 HD
ENDBRANCH   5  19
BRANCH   6  21
ATOM     21  O   UNL     1      -2.606  -2.577   3.183  1.00  0.00    -0.500 OA
ATOM     22  H   UNL     1      -3.173  -1.797   3.073  1.00  0.00     0.294 HD
ENDBRANCH   6  21
TORSDOF 5
ENDMDL
MODEL 2
REMARK VINA RESULT:    -4.798      2.033      3.574
REMARK INTER + INTRA:          -6.708
REMARK INTER:                  -5.924
REMARK INTRA:                  -0.784
REMARK UNBOUND:                -0.787
REMARK SMILES Cc1ccc(C(=O)c2cc(O)c(O)c([N+](=O)[O-])c2)cc1
REMARK SMILES IDX 8 1 18 2 9 3 14 4 10 5 12 6 6 7 7 8 5 9 4 10 19 11 3 12
REMARK SMILES IDX 20 13 2 14 1 15 15 16 17 17 16 18 11 19 13 21
REMARK H PARENT 11 20 13 22
ROOT
ATOM      1  C   UNL     1      -4.756  -4.021   6.299  1.00  0.00     0.033 A 
ATOM      2  C   UNL     1      -3.608  -4.721   6.010  1.00  0.00     0.102 A 
ATOM      3  C   UNL     1      -5.135  -2.893   5.612  1.00  0.00     0.063 A 
ATOM      4  C   UNL     1      -2.794  -4.267   4.972  1.00  0.00     0.315 A 
ATOM      5  C   UNL     1      -4.321  -2.438   4.575  1.00  0.00     0.165 A 
ATOM      6  C   UNL     1      -3.149  -3.126   4.254  1.00  0.00     0.237 A 
ENDROOT
BRANCH   1   7
ATOM      7  C   UNL     1      -5.628  -4.507   7.411  1.00  0.00     0.193 C 
ATOM      8  O   UNL     1      -6.849  -4.322   7.298  1.00  0.00    -0.289 OA
BRANCH   7   9
ATOM      9  C   UNL     1      -5.094  -5.175   8.587  1.00  0.00     0.023 A 
ATOM     10  C   UNL     1      -4.805  -4.438   9.736  1.00  0.00     0.012 A 
ATOM     11  C   UNL     1      -4.869  -6.551   8.566  1.00  0.00     0.012 A 
ATOM     12  C   UNL     1      -4.293  -5.078  10.864  1.00  0.00     0.004 A 
ATOM     13  C   UNL     1      -4.357  -7.192   9.695  1.00  0.00     0.004 A 
ATOM     14  C   UNL     1      -4.068  -6.455  10.844  1.00  0.00    -0.051 A 
ATOM     15  C   UNL     1      -3.519  -7.139  12.049  1.00  0.00     0.044 C 
ENDBRANCH   7   9
ENDBRANCH   1   7
BRANCH   4  16
ATOM     16  N   UNL     1      -1.604  -4.981   4.661  1.00  0.00     0.066 N 
ATOM     17  O   UNL     1      -1.574  -6.221   4.849  1.00  0.00    -0.258 OA
ATOM     18  O   UNL     1      -0.620  -4.351   4.207  1.00  0.00    -0.258 OA
ENDBRANCH   4  16
BRANCH   5  19
ATOM     19  O   UNL     1      -4.681  -1.321   3.882  1.00  0.00    -0.504 OA
ATOM     20  H   UNL     1      -5.606  -1.401   3.595  1.00  0.00     0.293 HD
ENDBRANCH   5  19
BRANCH   6  21
ATOM     21  O   UNL     1      -2.361  -2.672   3.237  1.00  0.00    -0.500 OA
ATOM     22  H   UNL     1      -1.822  -3.400   2.892  1.00  0.00     0.294 HD
ENDBRANCH   6  21
TORSDOF 5
ENDMDL
MODEL 3
REMARK VINA RESULT:    -3.784      1.836      2.427
REMARK INTER + INTRA:          -5.457
REMARK INTER:                  -4.634
REMARK INTRA:                  -0.823
REMARK UNBOUND:                -0.787
REMARK SMILES Cc1ccc(C(=O)c2cc(O)c(O)c([N+](=O)[O-])c2)cc1
REMARK SMILES IDX 8 1 18 2 9 3 14 4 10 5 12 6 6 7 7 8 5 9 4 10 19 11 3 12
REMARK SMILES IDX 20 13 2 14 1 15 15 16 17 17 16 18 11 19 13 21
REMARK H PARENT 11 20 13 22
ROOT
ATOM      1  C   UNL     1      -3.913  -5.198   5.699  1.00  0.00     0.033 A 
ATOM      2  C   UNL     1      -4.638  -4.073   5.381  1.00  0.00     0.102 A 
ATOM      3  C   UNL     1      -2.611  -5.385   5.301  1.00  0.00     0.063 A 
ATOM      4  C   UNL     1      -4.023  -3.078   4.621  1.00  0.00     0.315 A 
ATOM      5  C   UNL     1      -1.997  -4.390   4.540  1.00  0.00     0.165 A 
ATOM      6  C   UNL     1      -2.703  -3.236   4.200  1.00  0.00     0.237 A 
ENDROOT
BRANCH   1   7
ATOM      7  C   UNL     1      -4.571  -6.265   6.513  1.00  0.00     0.193 C 
ATOM      8  O   UNL     1      -5.168  -7.162   5.900  1.00  0.00    -0.289 OA
BRANCH   7   9
ATOM      9  C   UNL     1      -4.527  -6.275   7.967  1.00  0.00     0.023 A 
ATOM     10  C   UNL     1      -4.711  -5.089   8.678  1.00  0.00     0.012 A 
ATOM     11  C   UNL     1      -4.302  -7.469   8.650  1.00  0.00     0.012 A 
ATOM     12  C   UNL     1      -4.670  -5.098  10.072  1.00  0.00     0.004 A 
ATOM     13  C   UNL     1      -4.261  -7.480  10.045  1.00  0.00     0.004 A 
ATOM     14  C   UNL     1      -4.445  -6.294  10.756  1.00  0.00    -0.051 A 
ATOM     15  C   UNL     1      -4.399  -6.303  12.246  1.00  0.00     0.044 C 
ENDBRANCH   7   9
ENDBRANCH   1   7
BRANCH   4  16
ATOM     16  N   UNL     1      -4.759  -1.908   4.284  1.00  0.00     0.066 N 
ATOM     17  O   UNL     1      -4.710  -1.480   3.106  1.00  0.00    -0.258 OA
ATOM     18  O   UNL     1      -5.436  -1.341   5.174  1.00  0.00    -0.258 OA
ENDBRANCH   4  16
BRANCH   5  19
ATOM     19  O   UNL     1      -0.706  -4.558   4.136  1.00  0.00    -0.504 OA
ATOM     20  H   UNL     1      -0.488  -3.895   3.460  1.00  0.00     0.293 HD
ENDBRANCH   5  19
BRANCH   6  21
ATOM     21  O   UNL     1      -2.091  -2.269   3.456  1.00  0.00    -0.500 OA
ATOM     22  H   UNL     1      -1.526  -1.727   4.028  1.00  0.00     0.294 HD
ENDBRANCH   6  21
TORSDOF 5
ENDMDL
MODEL 4
REMARK VINA RESULT:    -3.770      1.245      2.727
REMARK INTER + INTRA:          -5.439
REMARK INTER:                  -4.720
REMARK INTRA:                  -0.719
REMARK UNBOUND:                -0.787
REMARK SMILES Cc1ccc(C(=O)c2cc(O)c(O)c([N+](=O)[O-])c2)cc1
REMARK SMILES IDX 8 1 18 2 9 3 14 4 10 5 12 6 6 7 7 8 5 9 4 10 19 11 3 12
REMARK SMILES IDX 20 13 2 14 1 15 15 16 17 17 16 18 11 19 13 21
REMARK H PARENT 11 20 13 22
ROOT
ATOM      1  C   UNL     1      -3.297  -4.245   7.206  1.00  0.00     0.033 A 
ATOM      2  C   UNL     1      -2.414  -4.911   6.388  1.00  0.00     0.102 A 
ATOM      3  C   UNL     1      -3.943  -3.092   6.825  1.00  0.00     0.063 A 
ATOM      4  C   UNL     1      -2.163  -4.395   5.117  1.00  0.00     0.315 A 
ATOM      5  C   UNL     1      -3.692  -2.576   5.553  1.00  0.00     0.165 A 
ATOM      6  C   UNL     1      -2.802  -3.228   4.699  1.00  0.00     0.237 A 
ENDROOT
BRANCH   1   7
ATOM      7  C   UNL     1      -3.565  -4.797   8.568  1.00  0.00     0.193 C 
ATOM      8  O   UNL     1      -2.586  -5.149   9.242  1.00  0.00    -0.289 OA
BRANCH   7   9
ATOM      9  C   UNL     1      -4.910  -4.926   9.106  1.00  0.00     0.023 A 
ATOM     10  C   UNL     1      -5.618  -6.116   8.935  1.00  0.00     0.012 A 
ATOM     11  C   UNL     1      -5.492  -3.861   9.793  1.00  0.00     0.012 A 
ATOM     12  C   UNL     1      -6.908  -6.240   9.451  1.00  0.00     0.004 A 
ATOM     13  C   UNL     1      -6.783  -3.985  10.309  1.00  0.00     0.004 A 
ATOM     14  C   UNL     1      -7.491  -5.174  10.138  1.00  0.00    -0.051 A 
ATOM     15  C   UNL     1      -8.870  -5.307  10.689  1.00  0.00     0.044 C 
ENDBRANCH   7   9
ENDBRANCH   1   7
BRANCH   4  16
ATOM     16  N   UNL     1      -1.253  -5.073   4.260  1.00  0.00     0.066 N 
ATOM     17  O   UNL     1      -1.516  -6.247   3.903  1.00  0.00    -0.258 OA
ATOM     18  O   UNL     1      -0.216  -4.478   3.886  1.00  0.00    -0.258 OA
ENDBRANCH   4  16
BRANCH   5  19
ATOM     19  O   UNL     1      -4.323  -1.435   5.159  1.00  0.00    -0.504 OA
ATOM     20  H   UNL     1      -3.673  -0.719   5.066  1.00  0.00     0.293 HD
ENDBRANCH   5  19
BRANCH   6  21
ATOM     21  O   UNL     1      -2.565  -2.714   3.457  1.00  0.00    -0.500 OA
ATOM     22  H   UNL     1      -3.408  -2.542   3.009  1.00  0.00     0.294 HD
ENDBRANCH   6  21
TORSDOF 5
ENDMDL
MODEL 5
REMARK VINA RESULT:    -3.594      1.975      2.670
REMARK INTER + INTRA:          -5.221
REMARK INTER:                  -4.504
REMARK INTRA:                  -0.717
REMARK UNBOUND:                -0.787
REMARK SMILES Cc1ccc(C(=O)c2cc(O)c(O)c([N+](=O)[O-])c2)cc1
REMARK SMILES IDX 8 1 18 2 9 3 14 4 10 5 12 6 6 7 7 8 5 9 4 10 19 11 3 12
REMARK SMILES IDX 20 13 2 14 1 15 15 16 17 17 16 18 11 19 13 21
REMARK H PARENT 11 20 13 22
ROOT
ATOM      1  C   UNL     1      -4.778  -4.310   6.783  1.00  0.00     0.033 A 
ATOM      2  C   UNL     1      -5.068  -3.081   6.239  1.00  0.00     0.102 A 
ATOM      3  C   UNL     1      -3.782  -5.125   6.299  1.00  0.00     0.063 A 
ATOM      4  C   UNL     1      -4.318  -2.641   5.148  1.00  0.00     0.315 A 
ATOM      5  C   UNL     1      -3.032  -4.685   5.208  1.00  0.00     0.165 A 
ATOM      6  C   UNL     1      -3.300  -3.443   4.632  1.00  0.00     0.237 A 
ENDROOT
BRANCH   1   7
ATOM      7  C   UNL     1      -5.581  -4.782   7.952  1.00  0.00     0.193 C 
ATOM      8  O   UNL     1      -6.808  -4.608   7.906  1.00  0.00    -0.289 OA
BRANCH   7   9
ATOM      9  C   UNL     1      -4.974  -5.422   9.108  1.00  0.00     0.023 A 
ATOM     10  C   UNL     1      -4.610  -4.659  10.217  1.00  0.00     0.012 A 
ATOM     11  C   UNL     1      -4.755  -6.800   9.108  1.00  0.00     0.012 A 
ATOM     12  C   UNL     1      -4.028  -5.273  11.326  1.00  0.00     0.004 A 
ATOM     13  C   UNL     1      -4.173  -7.415  10.217  1.00  0.00     0.004 A 
ATOM     14  C   UNL     1      -3.809  -6.651  11.326  1.00  0.00    -0.051 A 
ATOM     15  C   UNL     1      -3.186  -7.307  12.511  1.00  0.00     0.044 C 
ENDBRANCH   7   9
ENDBRANCH   1   7
BRANCH   4  16
ATOM     16  N   UNL     1      -4.607  -1.372   4.574  1.00  0.00     0.066 N 
ATOM     17  O   UNL     1      -4.945  -1.315   3.368  1.00  0.00    -0.258 OA
ATOM     18  O   UNL     1      -4.515  -0.349   5.291  1.00  0.00    -0.258 OA
ENDBRANCH   4  16
BRANCH   5  19
ATOM     19  O   UNL     1      -2.040  -5.479   4.714  1.00  0.00    -0.504 OA
ATOM     20  H   UNL     1      -2.392  -6.367   4.539  1.00  0.00     0.293 HD
ENDBRANCH   5  19
BRANCH   6  21
ATOM     21  O   UNL     1      -2.560  -3.023   3.565  1.00  0.00    -0.500 OA
ATOM     22  H   UNL     1      -3.149  -2.684   2.873  1.00  0.00     0.294 HD
ENDBRANCH   6  21
TORSDOF 5
ENDMDL
MODEL 6
REMARK VINA RESULT:    -3.588      2.234      3.553
REMARK INTER + INTRA:          -5.214
REMARK INTER:                  -4.283
REMARK INTRA:                  -0.931
REMARK UNBOUND:                -0.787
REMARK SMILES Cc1ccc(C(=O)c2cc(O)c(O)c([N+](=O)[O-])c2)cc1
REMARK SMILES IDX 8 1 18 2 9 3 14 4 10 5 12 6 6 7 7 8 5 9 4 10 19 11 3 12
REMARK SMILES IDX 20 13 2 14 1 15 15 16 17 17 16 18 11 19 13 21
REMARK H PARENT 11 20 13 22
ROOT
ATOM      1  C   UNL     1      -5.392  -5.444   8.513  1.00  0.00     0.033 A 
ATOM      2  C   UNL     1      -5.135  -4.513   7.534  1.00  0.00     0.102 A 
ATOM      3  C   UNL     1      -5.162  -6.789   8.344  1.00  0.00     0.063 A 
ATOM      4  C   UNL     1      -4.617  -4.953   6.316  1.00  0.00     0.315 A 
ATOM      5  C   UNL     1      -4.645  -7.229   7.125  1.00  0.00     0.165 A 
ATOM      6  C   UNL     1      -4.372  -6.310   6.111  1.00  0.00     0.237 A 
ENDROOT
BRANCH   1   7
ATOM      7  C   UNL     1      -5.947  -4.973   9.818  1.00  0.00     0.193 C 
ATOM      8  O   UNL     1      -5.223  -4.245  10.515  1.00  0.00    -0.289 OA
BRANCH   7   9
ATOM      9  C   UNL     1      -7.277  -5.338  10.277  1.00  0.00     0.023 A 
ATOM     10  C   UNL     1      -8.359  -5.276   9.398  1.00  0.00     0.012 A 
ATOM     11  C   UNL     1      -7.472  -5.751  11.595  1.00  0.00     0.012 A 
ATOM     12  C   UNL     1      -9.635  -5.627   9.839  1.00  0.00     0.004 A 
ATOM     13  C   UNL     1      -8.749  -6.102  12.036  1.00  0.00     0.004 A 
ATOM     14  C   UNL     1      -9.831  -6.040  11.157  1.00  0.00    -0.051 A 
ATOM     15  C   UNL     1     -11.195  -6.413  11.627  1.00  0.00     0.044 C 
ENDBRANCH   7   9
ENDBRANCH   1   7
BRANCH   4  16
ATOM     16  N   UNL     1      -4.345  -4.002   5.294  1.00  0.00     0.066 N 
ATOM     17  O   UNL     1      -3.204  -3.982   4.773  1.00  0.00    -0.258 OA
ATOM     18  O   UNL     1      -5.253  -3.214   4.943  1.00  0.00    -0.258 OA
ENDBRANCH   4  16
BRANCH   5  19
ATOM     19  O   UNL     1      -4.410  -8.558   6.940  1.00  0.00    -0.504 OA
ATOM     20  H   UNL     1      -4.080  -8.707   6.039  1.00  0.00     0.293 HD
ENDBRANCH   5  19
BRANCH   6  21
ATOM     21  O   UNL     1      -3.865  -6.753   4.924  1.00  0.00    -0.500 OA
ATOM     22  H   UNL     1      -4.361  -6.358   4.190  1.00  0.00     0.294 HD
ENDBRANCH   6  21
TORSDOF 5
ENDMDL
MODEL 7
REMARK VINA RESULT:    -3.565      3.294      4.553
REMARK INTER + INTRA:          -5.186
REMARK INTER:                  -4.236
REMARK INTRA:                  -0.950
REMARK UNBOUND:                -0.787
REMARK SMILES Cc1ccc(C(=O)c2cc(O)c(O)c([N+](=O)[O-])c2)cc1
REMARK SMILES IDX 8 1 18 2 9 3 14 4 10 5 12 6 6 7 7 8 5 9 4 10 19 11 3 12
REMARK SMILES IDX 20 13 2 14 1 15 15 16 17 17 16 18 11 19 13 21
REMARK H PARENT 11 20 13 22
ROOT
ATOM      1  C   UNL     1      -4.614  -4.738   9.266  1.00  0.00     0.033 A 
ATOM      2  C   UNL     1      -4.030  -4.739   8.020  1.00  0.00     0.102 A 
ATOM      3  C   UNL     1      -4.946  -3.584   9.935  1.00  0.00     0.063 A 
ATOM      4  C   UNL     1      -3.764  -3.514   7.409  1.00  0.00     0.315 A 
ATOM      5  C   UNL     1      -4.679  -2.359   9.323  1.00  0.00     0.165 A 
ATOM      6  C   UNL     1      -4.088  -2.324   8.059  1.00  0.00     0.237 A 
ENDROOT
BRANCH   1   7
ATOM      7  C   UNL     1      -4.899  -6.050   9.922  1.00  0.00     0.193 C 
ATOM      8  O   UNL     1      -5.699  -6.808   9.353  1.00  0.00    -0.289 OA
BRANCH   7   9
ATOM      9  C   UNL     1      -4.277  -6.447  11.175  1.00  0.00     0.023 A 
ATOM     10  C   UNL     1      -2.920  -6.202  11.388  1.00  0.00     0.012 A 
ATOM     11  C   UNL     1      -5.036  -7.073  12.163  1.00  0.00     0.012 A 
ATOM     12  C   UNL     1      -2.324  -6.582  12.590  1.00  0.00     0.004 A 
ATOM     13  C   UNL     1      -4.440  -7.454  13.366  1.00  0.00     0.004 A 
ATOM     14  C   UNL     1      -3.083  -7.209  13.580  1.00  0.00    -0.051 A 
ATOM     15  C   UNL     1      -2.445  -7.616  14.863  1.00  0.00     0.044 C 
ENDBRANCH   7   9
ENDBRANCH   1   7
BRANCH   4  16
ATOM     16  N   UNL     1      -3.161  -3.498   6.121  1.00  0.00     0.066 N 
ATOM     17  O   UNL     1      -2.361  -4.414   5.815  1.00  0.00    -0.258 OA
ATOM     18  O   UNL     1      -3.448  -2.570   5.329  1.00  0.00    -0.258 OA
ENDBRANCH   4  16
BRANCH   5  19
ATOM     19  O   UNL     1      -5.001  -1.204   9.971  1.00  0.00    -0.504 OA
ATOM     20  H   UNL     1      -4.205  -0.826  10.378  1.00  0.00     0.293 HD
ENDBRANCH   5  19
BRANCH   6  21
ATOM     21  O   UNL     1      -3.833  -1.119   7.471  1.00  0.00    -0.500 OA
ATOM     22  H   UNL     1      -4.659  -0.620   7.379  1.00  0.00     0.294 HD
ENDBRANCH   6  21
TORSDOF 5
ENDMDL
MODEL 8
REMARK VINA RESULT:    -3.351      9.503     11.395
REMARK INTER + INTRA:          -4.922
REMARK INTER:                  -3.951
REMARK INTRA:                  -0.971
REMARK UNBOUND:                -0.787
REMARK SMILES Cc1ccc(C(=O)c2cc(O)c(O)c([N+](=O)[O-])c2)cc1
REMARK SMILES IDX 8 1 18 2 9 3 14 4 10 5 12 6 6 7 7 8 5 9 4 10 19 11 3 12
REMARK SMILES IDX 20 13 2 14 1 15 15 16 17 17 16 18 11 19 13 21
REMARK H PARENT 11 20 13 22
ROOT
ATOM      1  C   UNL     1      -8.131  -8.280  16.266  1.00  0.00     0.033 A 
ATOM      2  C   UNL     1      -6.843  -7.798  16.244  1.00  0.00     0.102 A 
ATOM      3  C   UNL     1      -8.433  -9.593  16.543  1.00  0.00     0.063 A 
ATOM      4  C   UNL     1      -5.797  -8.680  16.516  1.00  0.00     0.315 A 
ATOM      5  C   UNL     1      -7.386 -10.474  16.815  1.00  0.00     0.165 A 
ATOM      6  C   UNL     1      -6.068 -10.017  16.801  1.00  0.00     0.237 A 
ENDROOT
BRANCH   1   7
ATOM      7  C   UNL     1      -9.253  -7.337  15.974  1.00  0.00     0.193 C 
ATOM      8  O   UNL     1      -9.732  -6.710  16.931  1.00  0.00    -0.289 OA
BRANCH   7   9
ATOM      9  C   UNL     1      -9.779  -7.142  14.633  1.00  0.00     0.023 A 
ATOM     10  C   UNL     1      -9.151  -6.255  13.759  1.00  0.00     0.012 A 
ATOM     11  C   UNL     1     -10.912  -7.843  14.220  1.00  0.00     0.012 A 
ATOM     12  C   UNL     1      -9.656  -6.069  12.472  1.00  0.00     0.004 A 
ATOM     13  C   UNL     1     -11.418  -7.657  12.933  1.00  0.00     0.004 A 
ATOM     14  C   UNL     1     -10.789  -6.770  12.059  1.00  0.00    -0.051 A 
ATOM     15  C   UNL     1     -11.329  -6.569  10.684  1.00  0.00     0.044 C 
ENDBRANCH   7   9
ENDBRANCH   1   7
BRANCH   4  16
ATOM     16  N   UNL     1      -4.460  -8.196  16.497  1.00  0.00     0.066 N 
ATOM     17  O   UNL     1      -4.244  -6.999  16.805  1.00  0.00    -0.258 OA
ATOM     18  O   UNL     1      -3.537  -8.979  16.174  1.00  0.00    -0.258 OA
ENDBRANCH   4  16
BRANCH   5  19
ATOM     19  O   UNL     1      -7.666 -11.779  17.093  1.00  0.00    -0.504 OA
ATOM     20  H   UNL     1      -8.591 -11.968  16.866  1.00  0.00     0.293 HD
ENDBRANCH   5  19
BRANCH   6  21
ATOM     21  O   UNL     1      -5.052 -10.889  17.069  1.00  0.00    -0.500 OA
ATOM     22  H   UNL     1      -5.175 -11.701  16.553  1.00  0.00     0.294 HD
ENDBRANCH   6  21
TORSDOF 5
ENDMDL
MODEL 9
REMARK VINA RESULT:    -3.293      9.258     12.279
REMARK INTER + INTRA:          -4.851
REMARK INTER:                  -3.955
REMARK INTRA:                  -0.896
REMARK UNBOUND:                -0.787
REMARK SMILES Cc1ccc(C(=O)c2cc(O)c(O)c([N+](=O)[O-])c2)cc1
REMARK SMILES IDX 8 1 18 2 9 3 14 4 10 5 12 6 6 7 7 8 5 9 4 10 19 11 3 12
REMARK SMILES IDX 20 13 2 14 1 15 15 16 17 17 16 18 11 19 13 21
REMARK H PARENT 11 20 13 22
ROOT
ATOM      1  C   UNL     1      -5.770  -8.890  16.984  1.00  0.00     0.033 A 
ATOM      2  C   UNL     1      -6.276 -10.168  17.052  1.00  0.00     0.102 A 
ATOM      3  C   UNL     1      -6.546  -7.770  17.163  1.00  0.00     0.063 A 
ATOM      4  C   UNL     1      -7.635 -10.334  17.317  1.00  0.00     0.315 A 
ATOM      5  C   UNL     1      -7.906  -7.936  17.426  1.00  0.00     0.165 A 
ATOM      6  C   UNL     1      -8.451  -9.218  17.504  1.00  0.00     0.237 A 
ENDROOT
BRANCH   1   7
ATOM      7  C   UNL     1      -4.314  -8.712  16.700  1.00  0.00     0.193 C 
ATOM      8  O   UNL     1      -3.516  -9.072  17.578  1.00  0.00    -0.289 OA
BRANCH   7   9
ATOM      9  C   UNL     1      -3.826  -8.143  15.454  1.00  0.00     0.023 A 
ATOM     10  C   UNL     1      -2.670  -7.363  15.449  1.00  0.00     0.012 A 
ATOM     11  C   UNL     1      -4.513  -8.379  14.264  1.00  0.00     0.012 A 
ATOM     12  C   UNL     1      -2.202  -6.817  14.254  1.00  0.00     0.004 A 
ATOM     13  C   UNL     1      -4.046  -7.834  13.067  1.00  0.00     0.004 A 
ATOM     14  C   UNL     1      -2.889  -7.053  13.062  1.00  0.00    -0.051 A 
ATOM     15  C   UNL     1      -2.390  -6.468  11.785  1.00  0.00     0.044 C 
ENDBRANCH   7   9
ENDBRANCH   1   7
BRANCH   4  16
ATOM     16  N   UNL     1      -8.172 -11.648  17.392  1.00  0.00     0.066 N 
ATOM     17  O   UNL     1      -7.427 -12.587  17.765  1.00  0.00    -0.258 OA
ATOM     18  O   UNL     1      -9.373 -11.831  17.084  1.00  0.00    -0.258 OA
ENDBRANCH   4  16
BRANCH   5  19
ATOM     19  O   UNL     1      -8.691  -6.836  17.608  1.00  0.00    -0.504 OA
ATOM     20  H   UNL     1      -9.502  -6.925  17.081  1.00  0.00     0.293 HD
ENDBRANCH   5  19
BRANCH   6  21
ATOM     21  O   UNL     1      -9.782  -9.367  17.763  1.00  0.00    -0.500 OA
ATOM     22  H   UNL     1      -9.900  -9.881  18.578  1.00  0.00     0.294 HD
ENDBRANCH   6  21
TORSDOF 5
ENDMDL
