MODEL 1
REMARK VINA RESULT:    -6.716      0.000      0.000
REMARK INTER + INTRA:          -8.501
REMARK INTER:                  -7.894
REMARK INTRA:                  -0.607
REMARK UNBOUND:                -0.607
REMARK SMILES O=C(O)c1cc(-c2ccc(F)cc2F)ccc1O
REMARK SMILES IDX 6 1 5 2 15 3 4 4 17 5 16 6 7 7 13 8 12 9 8 10 10 11 9 12
REMARK SMILES IDX 14 13 11 14 2 15 1 16 3 17 18 19
REMARK H PARENT 3 18 18 20
ROOT
ATOM      1  C   UNL     1      -3.961  -4.178   6.698  1.00  0.00    -0.014 A 
ATOM      2  C   UNL     1      -4.526  -3.020   6.166  1.00  0.00     0.028 A 
ATOM      3  C   UNL     1      -2.896  -4.798   6.046  1.00  0.00     0.013 A 
ATOM      4  C   UNL     1      -4.025  -2.480   4.981  1.00  0.00     0.102 A 
ATOM      5  C   UNL     1      -2.959  -3.100   4.329  1.00  0.00     0.130 A 
ATOM      6  C   UNL     1      -2.394  -4.260   4.862  1.00  0.00     0.048 A 
ENDROOT
BRANCH   1   7
ATOM      7  C   UNL     1      -4.481  -4.739   7.927  1.00  0.00     0.018 A 
ATOM      8  C   UNL     1      -4.764  -6.103   8.010  1.00  0.00     0.133 A 
ATOM      9  C   UNL     1      -5.265  -6.639   9.197  1.00  0.00     0.079 A 
ATOM     10  C   UNL     1      -4.699  -3.913   9.029  1.00  0.00     0.015 A 
ATOM     11  C   UNL     1      -5.484  -5.813  10.298  1.00  0.00     0.126 A 
ATOM     12  C   UNL     1      -5.200  -4.450  10.215  1.00  0.00     0.040 A 
ATOM     13  F   UNL     1      -4.562  -6.910   6.959  1.00  0.00    -0.206 F 
ATOM     14  F   UNL     1      -5.965  -6.327  11.437  1.00  0.00    -0.207 F 
ENDBRANCH   1   7
BRANCH   4  15
ATOM     15  C   UNL     1      -4.628  -1.269   4.441  1.00  0.00     0.339 C 
ATOM     16  O   UNL     1      -5.056  -1.136   3.292  1.00  0.00    -0.246 OA
BRANCH  15  17
ATOM     17  O   UNL     1      -4.678  -0.263   5.356  1.00  0.00    -0.478 OA
ATOM     18  H   UNL     1      -4.332   0.579   4.992  1.00  0.00     0.297 HD
ENDBRANCH  15  17
ENDBRANCH   4  15
BRANCH   5  19
ATOM     19  O   UNL     1      -2.454  -2.589   3.170  1.00  0.00    -0.507 OA
ATOM     20  H   UNL     1      -3.149  -2.079   2.719  1.00  0.00     0.293 HD
ENDBRANCH   5  19
TORSDOF 4
ENDMDL
MODEL 2
REMARK VINA RESULT:    -6.716      1.287      2.746
REMARK INTER + INTRA:          -8.501
REMARK INTER:                  -7.834
REMARK INTRA:                  -0.667
REMARK UNBOUND:                -0.607
REMARK SMILES O=C(O)c1cc(-c2ccc(F)cc2F)ccc1O
REMARK SMILES IDX 6 1 5 2 15 3 4 4 17 5 16 6 7 7 13 8 12 9 8 10 10 11 9 12
REMARK SMILES IDX 14 13 11 14 2 15 1 16 3 17 18 19
REMARK H PARENT 3 18 18 20
ROOT
ATOM      1  C   UNL     1      -4.016  -4.230   6.698  1.00  0.00    -0.014 A 
ATOM      2  C   UNL     1      -2.925  -4.883   6.127  1.00  0.00     0.028 A 
ATOM      3  C   UNL     1      -4.546  -3.093   6.087  1.00  0.00     0.013 A 
ATOM      4  C   UNL     1      -2.363  -4.400   4.945  1.00  0.00     0.102 A 
ATOM      5  C   UNL     1      -2.893  -3.264   4.334  1.00  0.00     0.130 A 
ATOM      6  C   UNL     1      -3.985  -2.610   4.906  1.00  0.00     0.048 A 
ENDROOT
BRANCH   1   7
ATOM      7  C   UNL     1      -4.598  -4.729   7.925  1.00  0.00     0.018 A 
ATOM      8  C   UNL     1      -4.891  -6.087   8.060  1.00  0.00     0.133 A 
ATOM      9  C   UNL     1      -5.453  -6.564   9.245  1.00  0.00     0.079 A 
ATOM     10  C   UNL     1      -4.866  -3.850   8.974  1.00  0.00     0.015 A 
ATOM     11  C   UNL     1      -5.721  -5.685  10.293  1.00  0.00     0.126 A 
ATOM     12  C   UNL     1      -5.427  -4.328  10.158  1.00  0.00     0.040 A 
ATOM     13  F   UNL     1      -4.642  -6.944   7.060  1.00  0.00    -0.206 F 
ATOM     14  F   UNL     1      -6.260  -6.142  11.431  1.00  0.00    -0.207 F 
ENDBRANCH   1   7
BRANCH   4  15
ATOM     15  C   UNL     1      -1.223  -5.097   4.364  1.00  0.00     0.339 C 
ATOM     16  O   UNL     1      -0.212  -4.557   3.909  1.00  0.00    -0.246 OA
BRANCH  15  17
ATOM     17  O   UNL     1      -1.384  -6.449   4.371  1.00  0.00    -0.478 OA
ATOM     18  H   UNL     1      -0.729  -6.897   3.796  1.00  0.00     0.297 HD
ENDBRANCH  15  17
ENDBRANCH   4  15
BRANCH   5  19
ATOM     19  O   UNL     1      -2.359  -2.777   3.178  1.00  0.00    -0.507 OA
ATOM     20  H   UNL     1      -2.927  -2.062   2.843  1.00  0.00     0.293 HD
ENDBRANCH   5  19
TORSDOF 4
ENDMDL
MODEL 3
REMARK VINA RESULT:    -6.707      1.712      3.179
REMARK INTER + INTRA:          -8.491
REMARK INTER:                  -7.814
REMARK INTRA:                  -0.677
REMARK UNBOUND:                -0.607
REMARK SMILES O=C(O)c1cc(-c2ccc(F)cc2F)ccc1O
REMARK SMILES IDX 6 1 5 2 15 3 4 4 17 5 16 6 7 7 13 8 12 9 8 10 10 11 9 12
REMARK SMILES IDX 14 13 11 14 2 15 1 16 3 17 18 19
REMARK H PARENT 3 18 18 20
ROOT
ATOM      1  C   UNL     1      -4.008  -4.205   6.705  1.00  0.00    -0.014 A 
ATOM      2  C   UNL     1      -2.922  -4.866   6.133  1.00  0.00     0.028 A 
ATOM      3  C   UNL     1      -4.532  -3.066   6.093  1.00  0.00     0.013 A 
ATOM      4  C   UNL     1      -2.359  -4.389   4.949  1.00  0.00     0.102 A 
ATOM      5  C   UNL     1      -2.883  -3.250   4.337  1.00  0.00     0.130 A 
ATOM      6  C   UNL     1      -3.970  -2.588   4.910  1.00  0.00     0.048 A 
ENDROOT
BRANCH   1   7
ATOM      7  C   UNL     1      -4.592  -4.699   7.933  1.00  0.00     0.018 A 
ATOM      8  C   UNL     1      -4.827  -3.827   8.997  1.00  0.00     0.133 A 
ATOM      9  C   UNL     1      -5.390  -4.307  10.180  1.00  0.00     0.079 A 
ATOM     10  C   UNL     1      -4.920  -6.049   8.052  1.00  0.00     0.015 A 
ATOM     11  C   UNL     1      -5.717  -5.657  10.299  1.00  0.00     0.126 A 
ATOM     12  C   UNL     1      -5.482  -6.528   9.235  1.00  0.00     0.040 A 
ATOM     13  F   UNL     1      -4.515  -2.527   8.900  1.00  0.00    -0.206 F 
ATOM     14  F   UNL     1      -6.257  -6.119  11.434  1.00  0.00    -0.207 F 
ENDBRANCH   1   7
BRANCH   4  15
ATOM     15  C   UNL     1      -1.225  -5.094   4.367  1.00  0.00     0.339 C 
ATOM     16  O   UNL     1      -0.212  -4.561   3.909  1.00  0.00    -0.246 OA
BRANCH  15  17
ATOM     17  O   UNL     1      -1.394  -6.445   4.377  1.00  0.00    -0.478 OA
ATOM     18  H   UNL     1      -0.617  -6.912   4.005  1.00  0.00     0.297 HD
ENDBRANCH  15  17
ENDBRANCH   4  15
BRANCH   5  19
ATOM     19  O   UNL     1      -2.348  -2.768   3.180  1.00  0.00    -0.507 OA
ATOM     20  H   UNL     1      -1.690  -2.085   3.395  1.00  0.00     0.293 HD
ENDBRANCH   5  19
TORSDOF 4
ENDMDL
MODEL 4
REMARK VINA RESULT:    -6.706      1.120      1.603
REMARK INTER + INTRA:          -8.489
REMARK INTER:                  -7.898
REMARK INTRA:                  -0.592
REMARK UNBOUND:                -0.607
REMARK SMILES O=C(O)c1cc(-c2ccc(F)cc2F)ccc1O
REMARK SMILES IDX 6 1 5 2 15 3 4 4 17 5 16 6 7 7 13 8 12 9 8 10 10 11 9 12
REMARK SMILES IDX 14 13 11 14 2 15 1 16 3 17 18 19
REMARK H PARENT 3 18 18 20
ROOT
ATOM      1  C   UNL     1      -3.961  -4.159   6.717  1.00  0.00    -0.014 A 
ATOM      2  C   UNL     1      -4.526  -3.004   6.179  1.00  0.00     0.028 A 
ATOM      3  C   UNL     1      -2.895  -4.782   6.068  1.00  0.00     0.013 A 
ATOM      4  C   UNL     1      -4.026  -2.470   4.990  1.00  0.00     0.102 A 
ATOM      5  C   UNL     1      -2.961  -3.093   4.341  1.00  0.00     0.130 A 
ATOM      6  C   UNL     1      -2.395  -4.249   4.880  1.00  0.00     0.048 A 
ENDROOT
BRANCH   1   7
ATOM      7  C   UNL     1      -4.480  -4.713   7.949  1.00  0.00     0.018 A 
ATOM      8  C   UNL     1      -4.735  -3.881   9.039  1.00  0.00     0.133 A 
ATOM      9  C   UNL     1      -5.235  -4.419  10.225  1.00  0.00     0.079 A 
ATOM     10  C   UNL     1      -4.727  -6.083   8.044  1.00  0.00     0.015 A 
ATOM     11  C   UNL     1      -5.481  -5.789  10.320  1.00  0.00     0.126 A 
ATOM     12  C   UNL     1      -5.227  -6.620   9.229  1.00  0.00     0.040 A 
ATOM     13  F   UNL     1      -4.501  -2.563   8.965  1.00  0.00    -0.206 F 
ATOM     14  F   UNL     1      -5.961  -6.306  11.458  1.00  0.00    -0.207 F 
ENDBRANCH   1   7
BRANCH   4  15
ATOM     15  C   UNL     1      -4.630  -1.263   4.445  1.00  0.00     0.339 C 
ATOM     16  O   UNL     1      -5.057  -1.135   3.295  1.00  0.00    -0.246 OA
BRANCH  15  17
ATOM     17  O   UNL     1      -4.683  -0.253   5.355  1.00  0.00    -0.478 OA
ATOM     18  H   UNL     1      -3.878  -0.223   5.913  1.00  0.00     0.297 HD
ENDBRANCH  15  17
ENDBRANCH   4  15
BRANCH   5  19
ATOM     19  O   UNL     1      -2.457  -2.588   3.180  1.00  0.00    -0.507 OA
ATOM     20  H   UNL     1      -1.531  -2.873   3.085  1.00  0.00     0.293 HD
ENDBRANCH   5  19
TORSDOF 4
ENDMDL
MODEL 5
REMARK VINA RESULT:    -5.095      1.597      2.894
REMARK INTER + INTRA:          -6.596
REMARK INTER:                  -6.128
REMARK INTRA:                  -0.468
REMARK UNBOUND:                -0.607
REMARK SMILES O=C(O)c1cc(-c2ccc(F)cc2F)ccc1O
REMARK SMILES IDX 6 1 5 2 15 3 4 4 17 5 16 6 7 7 13 8 12 9 8 10 10 11 9 12
REMARK SMILES IDX 14 13 11 14 2 15 1 16 3 17 18 19
REMARK H PARENT 3 18 18 20
ROOT
ATOM      1  C   UNL     1      -4.176  -4.193   6.879  1.00  0.00    -0.014 A 
ATOM      2  C   UNL     1      -3.132  -4.876   6.256  1.00  0.00     0.028 A 
ATOM      3  C   UNL     1      -4.658  -3.005   6.329  1.00  0.00     0.013 A 
ATOM      4  C   UNL     1      -2.570  -4.372   5.083  1.00  0.00     0.102 A 
ATOM      5  C   UNL     1      -3.052  -3.184   4.533  1.00  0.00     0.130 A 
ATOM      6  C   UNL     1      -4.097  -2.500   5.157  1.00  0.00     0.048 A 
ENDROOT
BRANCH   1   7
ATOM      7  C   UNL     1      -4.759  -4.716   8.096  1.00  0.00     0.018 A 
ATOM      8  C   UNL     1      -3.952  -5.345   9.045  1.00  0.00     0.133 A 
ATOM      9  C   UNL     1      -4.518  -5.847  10.217  1.00  0.00     0.079 A 
ATOM     10  C   UNL     1      -6.129  -4.588   8.320  1.00  0.00     0.015 A 
ATOM     11  C   UNL     1      -5.889  -5.720  10.440  1.00  0.00     0.126 A 
ATOM     12  C   UNL     1      -6.694  -5.090   9.491  1.00  0.00     0.040 A 
ATOM     13  F   UNL     1      -2.634  -5.478   8.844  1.00  0.00    -0.206 F 
ATOM     14  F   UNL     1      -6.433  -6.202  11.565  1.00  0.00    -0.207 F 
ENDBRANCH   1   7
BRANCH   4  15
ATOM     15  C   UNL     1      -1.481  -5.100   4.447  1.00  0.00     0.339 C 
ATOM     16  O   UNL     1      -0.411  -4.607   4.080  1.00  0.00    -0.246 OA
BRANCH  15  17
ATOM     17  O   UNL     1      -1.763  -6.422   4.291  1.00  0.00    -0.478 OA
ATOM     18  H   UNL     1      -0.960  -6.944   4.081  1.00  0.00     0.297 HD
ENDBRANCH  15  17
ENDBRANCH   4  15
BRANCH   5  19
ATOM     19  O   UNL     1      -2.517  -2.674   3.388  1.00  0.00    -0.507 OA
ATOM     20  H   UNL     1      -3.061  -2.955   2.631  1.00  0.00     0.293 HD
ENDBRANCH   5  19
TORSDOF 4
ENDMDL
MODEL 6
REMARK VINA RESULT:    -4.071      4.132      6.383
REMARK INTER + INTRA:          -5.392
REMARK INTER:                  -4.321
REMARK INTRA:                  -1.072
REMARK UNBOUND:                -0.607
REMARK SMILES O=C(O)c1cc(-c2ccc(F)cc2F)ccc1O
REMARK SMILES IDX 6 1 5 2 15 3 4 4 17 5 16 6 7 7 13 8 12 9 8 10 10 11 9 12
REMARK SMILES IDX 14 13 11 14 2 15 1 16 3 17 18 19
REMARK H PARENT 3 18 18 20
ROOT
ATOM      1  C   UNL     1      -5.021  -4.826   8.554  1.00  0.00    -0.014 A 
ATOM      2  C   UNL     1      -6.366  -4.755   8.914  1.00  0.00     0.028 A 
ATOM      3  C   UNL     1      -4.110  -5.476   9.386  1.00  0.00     0.013 A 
ATOM      4  C   UNL     1      -6.801  -5.334  10.106  1.00  0.00     0.102 A 
ATOM      5  C   UNL     1      -5.890  -5.984  10.938  1.00  0.00     0.130 A 
ATOM      6  C   UNL     1      -4.544  -6.055  10.578  1.00  0.00     0.048 A 
ENDROOT
BRANCH   1   7
ATOM      7  C   UNL     1      -4.568  -4.224   7.318  1.00  0.00     0.018 A 
ATOM      8  C   UNL     1      -4.261  -2.864   7.273  1.00  0.00     0.133 A 
ATOM      9  C   UNL     1      -3.826  -2.288   6.079  1.00  0.00     0.079 A 
ATOM     10  C   UNL     1      -4.439  -5.008   6.172  1.00  0.00     0.015 A 
ATOM     11  C   UNL     1      -3.697  -3.071   4.932  1.00  0.00     0.126 A 
ATOM     12  C   UNL     1      -4.003  -4.431   4.979  1.00  0.00     0.040 A 
ATOM     13  F   UNL     1      -4.383  -2.096   8.365  1.00  0.00    -0.206 F 
ATOM     14  F   UNL     1      -3.279  -2.519   3.786  1.00  0.00    -0.207 F 
ENDBRANCH   1   7
BRANCH   4  15
ATOM     15  C   UNL     1      -8.211  -5.249  10.463  1.00  0.00     0.339 C 
ATOM     16  O   UNL     1      -8.683  -5.515  11.571  1.00  0.00    -0.246 OA
BRANCH  15  17
ATOM     17  O   UNL     1      -8.985  -4.833   9.424  1.00  0.00    -0.478 OA
ATOM     18  H   UNL     1      -9.228  -5.574   8.831  1.00  0.00     0.297 HD
ENDBRANCH  15  17
ENDBRANCH   4  15
BRANCH   5  19
ATOM     19  O   UNL     1      -6.295  -6.557  12.107  1.00  0.00    -0.507 OA
ATOM     20  H   UNL     1      -6.031  -7.493  12.110  1.00  0.00     0.293 HD
ENDBRANCH   5  19
TORSDOF 4
ENDMDL
MODEL 7
REMARK VINA RESULT:    -4.070      4.297      6.594
REMARK INTER + INTRA:          -5.391
REMARK INTER:                  -4.322
REMARK INTRA:                  -1.069
REMARK UNBOUND:                -0.607
REMARK SMILES O=C(O)c1cc(-c2ccc(F)cc2F)ccc1O
REMARK SMILES IDX 6 1 5 2 15 3 4 4 17 5 16 6 7 7 13 8 12 9 8 10 10 11 9 12
REMARK SMILES IDX 14 13 11 14 2 15 1 16 3 17 18 19
REMARK H PARENT 3 18 18 20
ROOT
ATOM      1  C   UNL     1      -4.619  -5.105   8.597  1.00  0.00    -0.014 A 
ATOM      2  C   UNL     1      -3.843  -5.756   9.555  1.00  0.00     0.028 A 
ATOM      3  C   UNL     1      -5.984  -4.921   8.812  1.00  0.00     0.013 A 
ATOM      4  C   UNL     1      -4.433  -6.224  10.730  1.00  0.00     0.102 A 
ATOM      5  C   UNL     1      -5.799  -6.039  10.945  1.00  0.00     0.130 A 
ATOM      6  C   UNL     1      -6.575  -5.387   9.986  1.00  0.00     0.048 A 
ENDROOT
BRANCH   1   7
ATOM      7  C   UNL     1      -4.007  -4.621   7.378  1.00  0.00     0.018 A 
ATOM      8  C   UNL     1      -3.812  -5.486   6.301  1.00  0.00     0.133 A 
ATOM      9  C   UNL     1      -3.222  -5.015   5.127  1.00  0.00     0.079 A 
ATOM     10  C   UNL     1      -3.615  -3.286   7.281  1.00  0.00     0.015 A 
ATOM     11  C   UNL     1      -2.829  -3.681   5.031  1.00  0.00     0.126 A 
ATOM     12  C   UNL     1      -3.025  -2.816   6.108  1.00  0.00     0.040 A 
ATOM     13  F   UNL     1      -4.181  -6.772   6.378  1.00  0.00    -0.206 F 
ATOM     14  F   UNL     1      -2.263  -3.228   3.905  1.00  0.00    -0.207 F 
ENDBRANCH   1   7
BRANCH   4  15
ATOM     15  C   UNL     1      -3.606  -6.901  11.719  1.00  0.00     0.339 C 
ATOM     16  O   UNL     1      -4.029  -7.557  12.674  1.00  0.00    -0.246 OA
BRANCH  15  17
ATOM     17  O   UNL     1      -2.276  -6.738  11.482  1.00  0.00    -0.478 OA
ATOM     18  H   UNL     1      -1.918  -5.950  11.941  1.00  0.00     0.297 HD
ENDBRANCH  15  17
ENDBRANCH   4  15
BRANCH   5  19
ATOM     19  O   UNL     1      -6.395  -6.488  12.086  1.00  0.00    -0.507 OA
ATOM     20  H   UNL     1      -7.091  -5.861  12.348  1.00  0.00     0.293 HD
ENDBRANCH   5  19
TORSDOF 4
ENDMDL
MODEL 8
REMARK VINA RESULT:    -4.031      3.919      6.141
REMARK INTER + INTRA:          -5.345
REMARK INTER:                  -4.324
REMARK INTRA:                  -1.022
REMARK UNBOUND:                -0.607
REMARK SMILES O=C(O)c1cc(-c2ccc(F)cc2F)ccc1O
REMARK SMILES IDX 6 1 5 2 15 3 4 4 17 5 16 6 7 7 13 8 12 9 8 10 10 11 9 12
REMARK SMILES IDX 14 13 11 14 2 15 1 16 3 17 18 19
REMARK H PARENT 3 18 18 20
ROOT
ATOM      1  C   UNL     1      -4.943  -4.915   8.491  1.00  0.00    -0.014 A 
ATOM      2  C   UNL     1      -6.290  -4.814   8.837  1.00  0.00     0.028 A 
ATOM      3  C   UNL     1      -4.049  -5.556   9.349  1.00  0.00     0.013 A 
ATOM      4  C   UNL     1      -6.744  -5.353  10.042  1.00  0.00     0.102 A 
ATOM      5  C   UNL     1      -5.850  -5.994  10.899  1.00  0.00     0.130 A 
ATOM      6  C   UNL     1      -4.501  -6.095  10.553  1.00  0.00     0.048 A 
ENDROOT
BRANCH   1   7
ATOM      7  C   UNL     1      -4.472  -4.355   7.243  1.00  0.00     0.018 A 
ATOM      8  C   UNL     1      -4.162  -5.194   6.172  1.00  0.00     0.133 A 
ATOM      9  C   UNL     1      -3.707  -4.650   4.970  1.00  0.00     0.079 A 
ATOM     10  C   UNL     1      -4.329  -2.974   7.112  1.00  0.00     0.015 A 
ATOM     11  C   UNL     1      -3.564  -3.269   4.840  1.00  0.00     0.126 A 
ATOM     12  C   UNL     1      -3.875  -2.431   5.911  1.00  0.00     0.040 A 
ATOM     13  F   UNL     1      -4.291  -6.524   6.282  1.00  0.00    -0.206 F 
ATOM     14  F   UNL     1      -3.128  -2.746   3.687  1.00  0.00    -0.207 F 
ENDBRANCH   1   7
BRANCH   4  15
ATOM     15  C   UNL     1      -8.155  -5.237  10.384  1.00  0.00     0.339 C 
ATOM     16  O   UNL     1      -8.642  -5.480  11.491  1.00  0.00    -0.246 OA
BRANCH  15  17
ATOM     17  O   UNL     1      -8.911  -4.821   9.333  1.00  0.00    -0.478 OA
ATOM     18  H   UNL     1      -9.373  -5.568   8.897  1.00  0.00     0.297 HD
ENDBRANCH  15  17
ENDBRANCH   4  15
BRANCH   5  19
ATOM     19  O   UNL     1      -6.273  -6.528  12.080  1.00  0.00    -0.507 OA
ATOM     20  H   UNL     1      -5.610  -7.166  12.395  1.00  0.00     0.293 HD
ENDBRANCH   5  19
TORSDOF 4
ENDMDL
MODEL 9
REMARK VINA RESULT:    -4.029      4.406      6.755
REMARK INTER + INTRA:          -5.343
REMARK INTER:                  -4.332
REMARK INTRA:                  -1.011
REMARK UNBOUND:                -0.607
REMARK SMILES O=C(O)c1cc(-c2ccc(F)cc2F)ccc1O
REMARK SMILES IDX 6 1 5 2 15 3 4 4 17 5 16 6 7 7 13 8 12 9 8 10 10 11 9 12
REMARK SMILES IDX 14 13 11 14 2 15 1 16 3 17 18 19
REMARK H PARENT 3 18 18 20
ROOT
ATOM      1  C   UNL     1      -4.665  -4.984   8.563  1.00  0.00    -0.014 A 
ATOM      2  C   UNL     1      -3.878  -5.650   9.501  1.00  0.00     0.028 A 
ATOM      3  C   UNL     1      -6.031  -4.818   8.791  1.00  0.00     0.013 A 
ATOM      4  C   UNL     1      -4.456  -6.151  10.668  1.00  0.00     0.102 A 
ATOM      5  C   UNL     1      -5.822  -5.985  10.896  1.00  0.00     0.130 A 
ATOM      6  C   UNL     1      -6.610  -5.318   9.957  1.00  0.00     0.048 A 
ENDROOT
BRANCH   1   7
ATOM      7  C   UNL     1      -4.066  -4.465   7.352  1.00  0.00     0.018 A 
ATOM      8  C   UNL     1      -3.873  -3.092   7.199  1.00  0.00     0.133 A 
ATOM      9  C   UNL     1      -3.296  -2.596   6.029  1.00  0.00     0.079 A 
ATOM     10  C   UNL     1      -3.681  -5.341   6.338  1.00  0.00     0.015 A 
ATOM     11  C   UNL     1      -2.911  -3.472   5.015  1.00  0.00     0.126 A 
ATOM     12  C   UNL     1      -3.104  -4.845   5.170  1.00  0.00     0.040 A 
ATOM     13  F   UNL     1      -4.240  -2.236   8.163  1.00  0.00    -0.206 F 
ATOM     14  F   UNL     1      -2.357  -2.997   3.893  1.00  0.00    -0.207 F 
ENDBRANCH   1   7
BRANCH   4  15
ATOM     15  C   UNL     1      -3.616  -6.843  11.636  1.00  0.00     0.339 C 
ATOM     16  O   UNL     1      -4.026  -7.512  12.587  1.00  0.00    -0.246 OA
BRANCH  15  17
ATOM     17  O   UNL     1      -2.289  -6.677  11.383  1.00  0.00    -0.478 OA
ATOM     18  H   UNL     1      -1.816  -6.300  12.154  1.00  0.00     0.297 HD
ENDBRANCH  15  17
ENDBRANCH   4  15
BRANCH   5  19
ATOM     19  O   UNL     1      -6.406  -6.466  12.030  1.00  0.00    -0.507 OA
ATOM     20  H   UNL     1      -6.432  -7.438  11.985  1.00  0.00     0.293 HD
ENDBRANCH   5  19
TORSDOF 4
ENDMDL
