MODEL 1
REMARK VINA RESULT:    -6.926      0.000      0.000
REMARK INTER + INTRA:          -8.694
REMARK INTER:                  -8.140
REMARK INTRA:                  -0.554
REMARK UNBOUND:                -0.554
REMARK SMILES O=C(O)c1cc(-c2ccc(F)cc2F)ccc1O
REMARK SMILES IDX 6 1 5 2 15 3 4 4 17 5 16 6 7 7 13 8 12 9 8 10 10 11 9 12
REMARK SMILES IDX 14 13 11 14 2 15 1 16 3 17 18 19
REMARK H PARENT 3 18 18 20
ROOT
ATOM      1  C   UNL     1       1.234  -6.210  -4.974  1.00  0.00    -0.014 A 
ATOM      2  C   UNL     1      -0.131  -5.936  -4.892  1.00  0.00     0.028 A 
ATOM      3  C   UNL     1       2.149  -5.404  -4.296  1.00  0.00     0.013 A 
ATOM      4  C   UNL     1      -0.582  -4.857  -4.131  1.00  0.00     0.102 A 
ATOM      5  C   UNL     1       0.333  -4.052  -3.453  1.00  0.00     0.130 A 
ATOM      6  C   UNL     1       1.699  -4.325  -3.536  1.00  0.00     0.048 A 
ENDROOT
BRANCH   1   7
ATOM      7  C   UNL     1       1.702  -7.328  -5.764  1.00  0.00     0.018 A 
ATOM      8  C   UNL     1       2.799  -7.176  -6.612  1.00  0.00     0.133 A 
ATOM      9  C   UNL     1       3.248  -8.257  -7.372  1.00  0.00     0.079 A 
ATOM     10  C   UNL     1       1.055  -8.561  -5.674  1.00  0.00     0.015 A 
ATOM     11  C   UNL     1       2.600  -9.489  -7.283  1.00  0.00     0.126 A 
ATOM     12  C   UNL     1       1.504  -9.640  -6.433  1.00  0.00     0.040 A 
ATOM     13  F   UNL     1       3.431  -5.998  -6.712  1.00  0.00    -0.206 F 
ATOM     14  F   UNL     1       3.030 -10.527  -8.012  1.00  0.00    -0.207 F 
ENDBRANCH   1   7
BRANCH   4  15
ATOM     15  C   UNL     1      -2.011  -4.588  -4.058  1.00  0.00     0.339 C 
ATOM     16  O   UNL     1      -2.548  -3.508  -4.312  1.00  0.00    -0.246 OA
BRANCH  15  17
ATOM     17  O   UNL     1      -2.725  -5.681  -3.670  1.00  0.00    -0.478 OA
ATOM     18  H   UNL     1      -2.803  -6.340  -4.391  1.00  0.00     0.297 HD
ENDBRANCH  15  17
ENDBRANCH   4  15
BRANCH   5  19
ATOM     19  O   UNL     1      -0.087  -2.993  -2.705  1.00  0.00    -0.507 OA
ATOM     20  H   UNL     1      -0.798  -3.287  -2.109  1.00  0.00     0.293 HD
ENDBRANCH   5  19
TORSDOF 4
ENDMDL
MODEL 2
REMARK VINA RESULT:    -6.879      1.266      2.734
REMARK INTER + INTRA:          -8.639
REMARK INTER:                  -8.057
REMARK INTRA:                  -0.582
REMARK UNBOUND:                -0.554
REMARK SMILES O=C(O)c1cc(-c2ccc(F)cc2F)ccc1O
REMARK SMILES IDX 6 1 5 2 15 3 4 4 17 5 16 6 7 7 13 8 12 9 8 10 10 11 9 12
REMARK SMILES IDX 14 13 11 14 2 15 1 16 3 17 18 19
REMARK H PARENT 3 18 18 20
ROOT
ATOM      1  C   UNL     1       1.261  -6.226  -5.042  1.00  0.00    -0.014 A 
ATOM      2  C   UNL     1       2.220  -5.458  -4.384  1.00  0.00     0.028 A 
ATOM      3  C   UNL     1      -0.090  -5.898  -4.932  1.00  0.00     0.013 A 
ATOM      4  C   UNL     1       1.829  -4.360  -3.616  1.00  0.00     0.102 A 
ATOM      5  C   UNL     1       0.478  -4.032  -3.507  1.00  0.00     0.130 A 
ATOM      6  C   UNL     1      -0.482  -4.801  -4.166  1.00  0.00     0.048 A 
ENDROOT
BRANCH   1   7
ATOM      7  C   UNL     1       1.666  -7.366  -5.837  1.00  0.00     0.018 A 
ATOM      8  C   UNL     1       2.766  -7.269  -6.689  1.00  0.00     0.133 A 
ATOM      9  C   UNL     1       3.153  -8.370  -7.454  1.00  0.00     0.079 A 
ATOM     10  C   UNL     1       0.954  -8.562  -5.749  1.00  0.00     0.015 A 
ATOM     11  C   UNL     1       2.441  -9.566  -7.367  1.00  0.00     0.126 A 
ATOM     12  C   UNL     1       1.341  -9.661  -6.513  1.00  0.00     0.040 A 
ATOM     13  F   UNL     1       3.460  -6.126  -6.788  1.00  0.00    -0.206 F 
ATOM     14  F   UNL     1       2.811 -10.623  -8.100  1.00  0.00    -0.207 F 
ENDBRANCH   1   7
BRANCH   4  15
ATOM     15  C   UNL     1       2.847  -3.570  -2.938  1.00  0.00     0.339 C 
ATOM     16  O   UNL     1       2.815  -3.232  -1.752  1.00  0.00    -0.246 OA
BRANCH  15  17
ATOM     17  O   UNL     1       3.874  -3.228  -3.763  1.00  0.00    -0.478 OA
ATOM     18  H   UNL     1       4.712  -3.104  -3.270  1.00  0.00     0.297 HD
ENDBRANCH  15  17
ENDBRANCH   4  15
BRANCH   5  19
ATOM     19  O   UNL     1       0.075  -2.963  -2.763  1.00  0.00    -0.507 OA
ATOM     20  H   UNL     1      -0.878  -3.042  -2.586  1.00  0.00     0.293 HD
ENDBRANCH   5  19
TORSDOF 4
ENDMDL
MODEL 3
REMARK VINA RESULT:    -6.857      1.696      3.170
REMARK INTER + INTRA:          -8.614
REMARK INTER:                  -8.030
REMARK INTRA:                  -0.584
REMARK UNBOUND:                -0.554
REMARK SMILES O=C(O)c1cc(-c2ccc(F)cc2F)ccc1O
REMARK SMILES IDX 6 1 5 2 15 3 4 4 17 5 16 6 7 7 13 8 12 9 8 10 10 11 9 12
REMARK SMILES IDX 14 13 11 14 2 15 1 16 3 17 18 19
REMARK H PARENT 3 18 18 20
ROOT
ATOM      1  C   UNL     1       1.250  -6.231  -5.009  1.00  0.00    -0.014 A 
ATOM      2  C   UNL     1       2.211  -5.460  -4.356  1.00  0.00     0.028 A 
ATOM      3  C   UNL     1      -0.101  -5.899  -4.901  1.00  0.00     0.013 A 
ATOM      4  C   UNL     1       1.823  -4.357  -3.595  1.00  0.00     0.102 A 
ATOM      5  C   UNL     1       0.472  -4.025  -3.488  1.00  0.00     0.130 A 
ATOM      6  C   UNL     1      -0.490  -4.797  -4.141  1.00  0.00     0.048 A 
ENDROOT
BRANCH   1   7
ATOM      7  C   UNL     1       1.652  -7.376  -5.797  1.00  0.00     0.018 A 
ATOM      8  C   UNL     1       0.958  -8.582  -5.685  1.00  0.00     0.133 A 
ATOM      9  C   UNL     1       1.349  -9.683  -6.447  1.00  0.00     0.079 A 
ATOM     10  C   UNL     1       2.734  -7.272  -6.670  1.00  0.00     0.015 A 
ATOM     11  C   UNL     1       2.432  -9.579  -7.319  1.00  0.00     0.126 A 
ATOM     12  C   UNL     1       3.124  -8.373  -7.431  1.00  0.00     0.040 A 
ATOM     13  F   UNL     1      -0.083  -8.699  -4.849  1.00  0.00    -0.206 F 
ATOM     14  F   UNL     1       2.808 -10.636  -8.051  1.00  0.00    -0.207 F 
ENDBRANCH   1   7
BRANCH   4  15
ATOM     15  C   UNL     1       2.842  -3.565  -2.922  1.00  0.00     0.339 C 
ATOM     16  O   UNL     1       2.813  -3.222  -1.737  1.00  0.00    -0.246 OA
BRANCH  15  17
ATOM     17  O   UNL     1       3.867  -3.227  -3.751  1.00  0.00    -0.478 OA
ATOM     18  H   UNL     1       4.685  -3.725  -3.541  1.00  0.00     0.297 HD
ENDBRANCH  15  17
ENDBRANCH   4  15
BRANCH   5  19
ATOM     19  O   UNL     1       0.072  -2.951  -2.750  1.00  0.00    -0.507 OA
ATOM     20  H   UNL     1       0.760  -2.265  -2.789  1.00  0.00     0.293 HD
ENDBRANCH   5  19
TORSDOF 4
ENDMDL
MODEL 4
REMARK VINA RESULT:    -5.280      3.959      6.229
REMARK INTER + INTRA:          -6.759
REMARK INTER:                  -5.694
REMARK INTRA:                  -1.066
REMARK UNBOUND:                -0.554
REMARK SMILES O=C(O)c1cc(-c2ccc(F)cc2F)ccc1O
REMARK SMILES IDX 6 1 5 2 15 3 4 4 17 5 16 6 7 7 13 8 12 9 8 10 10 11 9 12
REMARK SMILES IDX 14 13 11 14 2 15 1 16 3 17 18 19
REMARK H PARENT 3 18 18 20
ROOT
ATOM      1  C   UNL     1       2.207  -8.191  -6.474  1.00  0.00    -0.014 A 
ATOM      2  C   UNL     1       1.418  -8.512  -7.577  1.00  0.00     0.028 A 
ATOM      3  C   UNL     1       3.304  -8.988  -6.145  1.00  0.00     0.013 A 
ATOM      4  C   UNL     1       1.724  -9.630  -8.353  1.00  0.00     0.102 A 
ATOM      5  C   UNL     1       2.821 -10.427  -8.024  1.00  0.00     0.130 A 
ATOM      6  C   UNL     1       3.611 -10.106  -6.920  1.00  0.00     0.048 A 
ENDROOT
BRANCH   1   7
ATOM      7  C   UNL     1       1.890  -7.031  -5.668  1.00  0.00     0.018 A 
ATOM      8  C   UNL     1       2.564  -5.828  -5.876  1.00  0.00     0.133 A 
ATOM      9  C   UNL     1       2.254  -4.713  -5.097  1.00  0.00     0.079 A 
ATOM     10  C   UNL     1       0.906  -7.119  -4.683  1.00  0.00     0.015 A 
ATOM     11  C   UNL     1       1.272  -4.801  -4.111  1.00  0.00     0.126 A 
ATOM     12  C   UNL     1       0.598  -6.004  -3.905  1.00  0.00     0.040 A 
ATOM     13  F   UNL     1       3.513  -5.727  -6.817  1.00  0.00    -0.206 F 
ATOM     14  F   UNL     1       0.974  -3.731  -3.363  1.00  0.00    -0.207 F 
ENDBRANCH   1   7
BRANCH   4  15
ATOM     15  C   UNL     1       0.887  -9.948  -9.501  1.00  0.00     0.339 C 
ATOM     16  O   UNL     1       0.962 -10.978 -10.176  1.00  0.00    -0.246 OA
BRANCH  15  17
ATOM     17  O   UNL     1      -0.019  -8.969  -9.770  1.00  0.00    -0.478 OA
ATOM     18  H   UNL     1      -0.923  -9.222  -9.490  1.00  0.00     0.297 HD
ENDBRANCH  15  17
ENDBRANCH   4  15
BRANCH   5  19
ATOM     19  O   UNL     1       3.137 -11.524  -8.769  1.00  0.00    -0.507 OA
ATOM     20  H   UNL     1       3.915 -11.960  -8.378  1.00  0.00     0.293 HD
ENDBRANCH   5  19
TORSDOF 4
ENDMDL
MODEL 5
REMARK VINA RESULT:    -5.271      4.374      6.698
REMARK INTER + INTRA:          -6.749
REMARK INTER:                  -5.677
REMARK INTRA:                  -1.072
REMARK UNBOUND:                -0.554
REMARK SMILES O=C(O)c1cc(-c2ccc(F)cc2F)ccc1O
REMARK SMILES IDX 6 1 5 2 15 3 4 4 17 5 16 6 7 7 13 8 12 9 8 10 10 11 9 12
REMARK SMILES IDX 14 13 11 14 2 15 1 16 3 17 18 19
REMARK H PARENT 3 18 18 20
ROOT
ATOM      1  C   UNL     1       2.224  -8.147  -6.352  1.00  0.00    -0.014 A 
ATOM      2  C   UNL     1       3.316  -8.929  -5.978  1.00  0.00     0.028 A 
ATOM      3  C   UNL     1       1.478  -8.485  -7.480  1.00  0.00     0.013 A 
ATOM      4  C   UNL     1       3.662 -10.051  -6.732  1.00  0.00     0.102 A 
ATOM      5  C   UNL     1       2.915 -10.389  -7.861  1.00  0.00     0.130 A 
ATOM      6  C   UNL     1       1.823  -9.606  -8.235  1.00  0.00     0.048 A 
ENDROOT
BRANCH   1   7
ATOM      7  C   UNL     1       1.866  -6.983  -5.571  1.00  0.00     0.018 A 
ATOM      8  C   UNL     1       2.506  -5.763  -5.796  1.00  0.00     0.133 A 
ATOM      9  C   UNL     1       2.157  -4.644  -5.040  1.00  0.00     0.079 A 
ATOM     10  C   UNL     1       0.877  -7.081  -4.592  1.00  0.00     0.015 A 
ATOM     11  C   UNL     1       1.169  -4.743  -4.061  1.00  0.00     0.126 A 
ATOM     12  C   UNL     1       0.529  -5.961  -3.838  1.00  0.00     0.040 A 
ATOM     13  F   UNL     1       3.460  -5.652  -6.731  1.00  0.00    -0.206 F 
ATOM     14  F   UNL     1       0.834  -3.668  -3.336  1.00  0.00    -0.207 F 
ENDBRANCH   1   7
BRANCH   4  15
ATOM     15  C   UNL     1       4.806 -10.855  -6.325  1.00  0.00     0.339 C 
ATOM     16  O   UNL     1       5.367 -11.702  -7.023  1.00  0.00    -0.246 OA
BRANCH  15  17
ATOM     17  O   UNL     1       5.212 -10.573  -5.057  1.00  0.00    -0.478 OA
ATOM     18  H   UNL     1       5.846 -11.241  -4.721  1.00  0.00     0.297 HD
ENDBRANCH  15  17
ENDBRANCH   4  15
BRANCH   5  19
ATOM     19  O   UNL     1       3.236 -11.481  -8.611  1.00  0.00    -0.507 OA
ATOM     20  H   UNL     1       4.136 -11.370  -8.965  1.00  0.00     0.293 HD
ENDBRANCH   5  19
TORSDOF 4
ENDMDL
