MODEL 1
REMARK VINA RESULT:    -5.147      0.000      0.000
REMARK INTER + INTRA:          -7.065
REMARK INTER:                  -6.350
REMARK INTRA:                  -0.715
REMARK UNBOUND:                -0.715
REMARK SMILES Cc1ccc(C(=O)c2cc(O)c(O)c([N+](=O)[O-])c2)cc1
REMARK SMILES IDX 8 1 18 2 9 3 14 4 10 5 12 6 6 7 7 8 5 9 4 10 19 11 3 12
REMARK SMILES IDX 20 13 2 14 1 15 15 16 17 17 16 18 11 19 13 21
REMARK H PARENT 11 20 13 22
ROOT
ATOM      1  C   UNL     1       0.619  -5.885  -5.612  1.00  0.00     0.033 A 
ATOM      2  C   UNL     1       1.721  -5.362  -4.976  1.00  0.00     0.102 A 
ATOM      3  C   UNL     1      -0.666  -5.486  -5.330  1.00  0.00     0.063 A 
ATOM      4  C   UNL     1       1.526  -4.383  -4.002  1.00  0.00     0.315 A 
ATOM      5  C   UNL     1      -0.861  -4.507  -4.355  1.00  0.00     0.165 A 
ATOM      6  C   UNL     1       0.235  -3.955  -3.691  1.00  0.00     0.237 A 
ENDROOT
BRANCH   1   7
ATOM      7  C   UNL     1       0.828  -6.933  -6.656  1.00  0.00     0.193 C 
ATOM      8  O   UNL     1       0.073  -6.915  -7.640  1.00  0.00    -0.289 OA
BRANCH   7   9
ATOM      9  C   UNL     1       1.865  -7.946  -6.547  1.00  0.00     0.023 A 
ATOM     10  C   UNL     1       1.548  -9.223  -6.085  1.00  0.00     0.012 A 
ATOM     11  C   UNL     1       3.178  -7.640  -6.905  1.00  0.00     0.012 A 
ATOM     12  C   UNL     1       2.544 -10.194  -5.981  1.00  0.00     0.004 A 
ATOM     13  C   UNL     1       4.175  -8.611  -6.802  1.00  0.00     0.004 A 
ATOM     14  C   UNL     1       3.858  -9.889  -6.340  1.00  0.00    -0.051 A 
ATOM     15  C   UNL     1       4.922 -10.927  -6.227  1.00  0.00     0.044 C 
ENDBRANCH   7   9
ENDBRANCH   1   7
BRANCH   4  16
ATOM     16  N   UNL     1       2.655  -3.832  -3.336  1.00  0.00     0.066 N 
ATOM     17  O   UNL     1       3.697  -3.605  -3.996  1.00  0.00    -0.258 OA
ATOM     18  O   UNL     1       2.576  -3.589  -2.109  1.00  0.00    -0.258 OA
ENDBRANCH   4  16
BRANCH   5  19
ATOM     19  O   UNL     1      -2.128  -4.099  -4.061  1.00  0.00    -0.504 OA
ATOM     20  H   UNL     1      -2.558  -4.757  -3.492  1.00  0.00     0.293 HD
ENDBRANCH   5  19
BRANCH   6  21
ATOM     21  O   UNL     1       0.032  -2.998  -2.739  1.00  0.00    -0.500 OA
ATOM     22  H   UNL     1      -0.203  -3.419  -1.898  1.00  0.00     0.294 HD
ENDBRANCH   6  21
TORSDOF 5
ENDMDL
MODEL 2
REMARK VINA RESULT:    -5.137      2.016      3.552
REMARK INTER + INTRA:          -7.053
REMARK INTER:                  -6.356
REMARK INTRA:                  -0.697
REMARK UNBOUND:                -0.715
REMARK SMILES Cc1ccc(C(=O)c2cc(O)c(O)c([N+](=O)[O-])c2)cc1
REMARK SMILES IDX 8 1 18 2 9 3 14 4 10 5 12 6 6 7 7 8 5 9 4 10 19 11 3 12
REMARK SMILES IDX 20 13 2 14 1 15 15 16 17 17 16 18 11 19 13 21
REMARK H PARENT 11 20 13 22
ROOT
ATOM      1  C   UNL     1       1.755  -6.344  -4.265  1.00  0.00     0.033 A 
ATOM      2  C   UNL     1       0.411  -6.195  -4.521  1.00  0.00     0.102 A 
ATOM      3  C   UNL     1       2.484  -5.425  -3.549  1.00  0.00     0.063 A 
ATOM      4  C   UNL     1      -0.239  -5.063  -4.031  1.00  0.00     0.315 A 
ATOM      5  C   UNL     1       1.834  -4.292  -3.059  1.00  0.00     0.165 A 
ATOM      6  C   UNL     1       0.471  -4.111  -3.300  1.00  0.00     0.237 A 
ENDROOT
BRANCH   1   7
ATOM      7  C   UNL     1       2.452  -7.557  -4.790  1.00  0.00     0.193 C 
ATOM      8  O   UNL     1       3.395  -8.005  -4.121  1.00  0.00    -0.289 OA
BRANCH   7   9
ATOM      9  C   UNL     1       2.061  -8.205  -6.031  1.00  0.00     0.023 A 
ATOM     10  C   UNL     1       2.781  -7.964  -7.201  1.00  0.00     0.012 A 
ATOM     11  C   UNL     1       0.965  -9.068  -6.053  1.00  0.00     0.012 A 
ATOM     12  C   UNL     1       2.406  -8.586  -8.392  1.00  0.00     0.004 A 
ATOM     13  C   UNL     1       0.589  -9.691  -7.243  1.00  0.00     0.004 A 
ATOM     14  C   UNL     1       1.310  -9.450  -8.413  1.00  0.00    -0.051 A 
ATOM     15  C   UNL     1       0.909 -10.113  -9.686  1.00  0.00     0.044 C 
ENDBRANCH   7   9
ENDBRANCH   1   7
BRANCH   4  16
ATOM     16  N   UNL     1      -1.628  -4.895  -4.287  1.00  0.00     0.066 N 
ATOM     17  O   UNL     1      -2.349  -5.915  -4.407  1.00  0.00    -0.258 OA
ATOM     18  O   UNL     1      -2.091  -3.735  -4.384  1.00  0.00    -0.258 OA
ENDBRANCH   4  16
BRANCH   5  19
ATOM     19  O   UNL     1       2.541  -3.371  -2.347  1.00  0.00    -0.504 OA
ATOM     20  H   UNL     1       3.488  -3.465  -2.542  1.00  0.00     0.293 HD
ENDBRANCH   5  19
BRANCH   6  21
ATOM     21  O   UNL     1      -0.154  -2.999  -2.816  1.00  0.00    -0.500 OA
ATOM     22  H   UNL     1       0.168  -2.808  -1.921  1.00  0.00     0.294 HD
ENDBRANCH   6  21
TORSDOF 5
ENDMDL
MODEL 3
REMARK VINA RESULT:    -4.392      3.581      4.555
REMARK INTER + INTRA:          -6.134
REMARK INTER:                  -5.134
REMARK INTRA:                  -1.000
REMARK UNBOUND:                -0.715
REMARK SMILES Cc1ccc(C(=O)c2cc(O)c(O)c([N+](=O)[O-])c2)cc1
REMARK SMILES IDX 8 1 18 2 9 3 14 4 10 5 12 6 6 7 7 8 5 9 4 10 19 11 3 12
REMARK SMILES IDX 20 13 2 14 1 15 15 16 17 17 16 18 11 19 13 21
REMARK H PARENT 11 20 13 22
ROOT
ATOM      1  C   UNL     1       1.310  -9.080  -6.387  1.00  0.00     0.033 A 
ATOM      2  C   UNL     1       1.480  -7.759  -6.043  1.00  0.00     0.102 A 
ATOM      3  C   UNL     1       0.352  -9.883  -5.816  1.00  0.00     0.063 A 
ATOM      4  C   UNL     1       0.642  -7.210  -5.073  1.00  0.00     0.315 A 
ATOM      5  C   UNL     1      -0.486  -9.334  -4.844  1.00  0.00     0.165 A 
ATOM      6  C   UNL     1      -0.341  -7.997  -4.473  1.00  0.00     0.237 A 
ENDROOT
BRANCH   1   7
ATOM      7  C   UNL     1       2.208  -9.669  -7.427  1.00  0.00     0.193 C 
ATOM      8  O   UNL     1       3.372  -9.933  -7.090  1.00  0.00    -0.289 OA
BRANCH   7   9
ATOM      9  C   UNL     1       1.760  -9.933  -8.785  1.00  0.00     0.023 A 
ATOM     10  C   UNL     1       1.229  -8.899  -9.557  1.00  0.00     0.012 A 
ATOM     11  C   UNL     1       1.861 -11.218  -9.315  1.00  0.00     0.012 A 
ATOM     12  C   UNL     1       0.800  -9.152 -10.860  1.00  0.00     0.004 A 
ATOM     13  C   UNL     1       1.432 -11.472 -10.619  1.00  0.00     0.004 A 
ATOM     14  C   UNL     1       0.901 -10.439 -11.391  1.00  0.00    -0.051 A 
ATOM     15  C   UNL     1       0.441 -10.709 -12.783  1.00  0.00     0.044 C 
ENDBRANCH   7   9
ENDBRANCH   1   7
BRANCH   4  16
ATOM     16  N   UNL     1       0.806  -5.846  -4.707  1.00  0.00     0.066 N 
ATOM     17  O   UNL     1       0.709  -5.527  -3.497  1.00  0.00    -0.258 OA
ATOM     18  O   UNL     1       1.042  -5.002  -5.603  1.00  0.00    -0.258 OA
ENDBRANCH   4  16
BRANCH   5  19
ATOM     19  O   UNL     1      -1.442 -10.114  -4.268  1.00  0.00    -0.504 OA
ATOM     20  H   UNL     1      -2.147 -10.294  -4.911  1.00  0.00     0.293 HD
ENDBRANCH   5  19
BRANCH   6  21
ATOM     21  O   UNL     1      -1.167  -7.471  -3.522  1.00  0.00    -0.500 OA
ATOM     22  H   UNL     1      -0.883  -7.768  -2.644  1.00  0.00     0.294 HD
ENDBRANCH   6  21
TORSDOF 5
ENDMDL
MODEL 4
REMARK VINA RESULT:    -4.381      3.623      6.545
REMARK INTER + INTRA:          -6.120
REMARK INTER:                  -5.162
REMARK INTRA:                  -0.959
REMARK UNBOUND:                -0.715
REMARK SMILES Cc1ccc(C(=O)c2cc(O)c(O)c([N+](=O)[O-])c2)cc1
REMARK SMILES IDX 8 1 18 2 9 3 14 4 10 5 12 6 6 7 7 8 5 9 4 10 19 11 3 12
REMARK SMILES IDX 20 13 2 14 1 15 15 16 17 17 16 18 11 19 13 21
REMARK H PARENT 11 20 13 22
ROOT
ATOM      1  C   UNL     1       1.619  -9.009  -6.504  1.00  0.00     0.033 A 
ATOM      2  C   UNL     1       2.806  -9.560  -6.078  1.00  0.00     0.102 A 
ATOM      3  C   UNL     1       1.052  -9.308  -7.720  1.00  0.00     0.063 A 
ATOM      4  C   UNL     1       3.461 -10.462  -6.916  1.00  0.00     0.315 A 
ATOM      5  C   UNL     1       1.708 -10.210  -8.558  1.00  0.00     0.165 A 
ATOM      6  C   UNL     1       2.913 -10.787  -8.156  1.00  0.00     0.237 A 
ENDROOT
BRANCH   1   7
ATOM      7  C   UNL     1       0.917  -8.043  -5.606  1.00  0.00     0.193 C 
ATOM      8  O   UNL     1      -0.278  -8.262  -5.359  1.00  0.00    -0.289 OA
BRANCH   7   9
ATOM      9  C   UNL     1       1.585  -6.886  -5.032  1.00  0.00     0.023 A 
ATOM     10  C   UNL     1       2.296  -6.012  -5.854  1.00  0.00     0.012 A 
ATOM     11  C   UNL     1       1.513  -6.649  -3.660  1.00  0.00     0.012 A 
ATOM     12  C   UNL     1       2.936  -4.902  -5.304  1.00  0.00     0.004 A 
ATOM     13  C   UNL     1       2.153  -5.538  -3.108  1.00  0.00     0.004 A 
ATOM     14  C   UNL     1       2.865  -4.664  -3.930  1.00  0.00    -0.051 A 
ATOM     15  C   UNL     1       3.550  -3.478  -3.342  1.00  0.00     0.044 C 
ENDBRANCH   7   9
ENDBRANCH   1   7
BRANCH   4  16
ATOM     16  N   UNL     1       4.688 -11.040  -6.489  1.00  0.00     0.066 N 
ATOM     17  O   UNL     1       4.980 -12.197  -6.876  1.00  0.00    -0.258 OA
ATOM     18  O   UNL     1       5.442 -10.376  -5.740  1.00  0.00    -0.258 OA
ENDBRANCH   4  16
BRANCH   5  19
ATOM     19  O   UNL     1       1.159 -10.519  -9.767  1.00  0.00    -0.504 OA
ATOM     20  H   UNL     1       1.096 -11.484  -9.858  1.00  0.00     0.293 HD
ENDBRANCH   5  19
BRANCH   6  21
ATOM     21  O   UNL     1       3.544 -11.668  -8.985  1.00  0.00    -0.500 OA
ATOM     22  H   UNL     1       4.075 -12.288  -8.459  1.00  0.00     0.294 HD
ENDBRANCH   6  21
TORSDOF 5
ENDMDL
MODEL 5
REMARK VINA RESULT:    -4.379      2.348      4.042
REMARK INTER + INTRA:          -6.119
REMARK INTER:                  -5.145
REMARK INTRA:                  -0.973
REMARK UNBOUND:                -0.715
REMARK SMILES Cc1ccc(C(=O)c2cc(O)c(O)c([N+](=O)[O-])c2)cc1
REMARK SMILES IDX 8 1 18 2 9 3 14 4 10 5 12 6 6 7 7 8 5 9 4 10 19 11 3 12
REMARK SMILES IDX 20 13 2 14 1 15 15 16 17 17 16 18 11 19 13 21
REMARK H PARENT 11 20 13 22
ROOT
ATOM      1  C   UNL     1       3.020  -8.132  -6.852  1.00  0.00     0.033 A 
ATOM      2  C   UNL     1       2.125  -7.683  -5.909  1.00  0.00     0.102 A 
ATOM      3  C   UNL     1       3.963  -7.318  -7.433  1.00  0.00     0.063 A 
ATOM      4  C   UNL     1       2.176  -6.343  -5.525  1.00  0.00     0.315 A 
ATOM      5  C   UNL     1       4.014  -5.978  -7.050  1.00  0.00     0.165 A 
ATOM      6  C   UNL     1       3.121  -5.490  -6.095  1.00  0.00     0.237 A 
ENDROOT
BRANCH   1   7
ATOM      7  C   UNL     1       2.965  -9.568  -7.263  1.00  0.00     0.193 C 
ATOM      8  O   UNL     1       2.082  -9.894  -8.071  1.00  0.00    -0.289 OA
BRANCH   7   9
ATOM      9  C   UNL     1       3.896 -10.561  -6.753  1.00  0.00     0.023 A 
ATOM     10  C   UNL     1       4.052 -10.729  -5.377  1.00  0.00     0.012 A 
ATOM     11  C   UNL     1       4.633 -11.347  -7.639  1.00  0.00     0.012 A 
ATOM     12  C   UNL     1       4.944 -11.683  -4.888  1.00  0.00     0.004 A 
ATOM     13  C   UNL     1       5.526 -12.301  -7.150  1.00  0.00     0.004 A 
ATOM     14  C   UNL     1       5.682 -12.469  -5.774  1.00  0.00    -0.051 A 
ATOM     15  C   UNL     1       6.637 -13.487  -5.251  1.00  0.00     0.044 C 
ENDBRANCH   7   9
ENDBRANCH   1   7
BRANCH   4  16
ATOM     16  N   UNL     1       1.258  -5.864  -4.551  1.00  0.00     0.066 N 
ATOM     17  O   UNL     1       0.803  -4.701  -4.667  1.00  0.00    -0.258 OA
ATOM     18  O   UNL     1       0.929  -6.619  -3.606  1.00  0.00    -0.258 OA
ENDBRANCH   4  16
BRANCH   5  19
ATOM     19  O   UNL     1       4.943  -5.156  -7.615  1.00  0.00    -0.504 OA
ATOM     20  H   UNL     1       4.871  -5.201  -8.583  1.00  0.00     0.293 HD
ENDBRANCH   5  19
BRANCH   6  21
ATOM     21  O   UNL     1       3.181  -4.177  -5.728  1.00  0.00    -0.500 OA
ATOM     22  H   UNL     1       2.584  -3.655  -6.286  1.00  0.00     0.294 HD
ENDBRANCH   6  21
TORSDOF 5
ENDMDL
MODEL 6
REMARK VINA RESULT:    -4.360      3.691      6.860
REMARK INTER + INTRA:          -6.095
REMARK INTER:                  -5.122
REMARK INTRA:                  -0.973
REMARK UNBOUND:                -0.715
REMARK SMILES Cc1ccc(C(=O)c2cc(O)c(O)c([N+](=O)[O-])c2)cc1
REMARK SMILES IDX 8 1 18 2 9 3 14 4 10 5 12 6 6 7 7 8 5 9 4 10 19 11 3 12
REMARK SMILES IDX 20 13 2 14 1 15 15 16 17 17 16 18 11 19 13 21
REMARK H PARENT 11 20 13 22
ROOT
ATOM      1  C   UNL     1       2.685  -8.370  -6.916  1.00  0.00     0.033 A 
ATOM      2  C   UNL     1       3.616  -9.274  -6.461  1.00  0.00     0.102 A 
ATOM      3  C   UNL     1       1.888  -8.606  -8.010  1.00  0.00     0.063 A 
ATOM      4  C   UNL     1       3.755 -10.486  -7.138  1.00  0.00     0.315 A 
ATOM      5  C   UNL     1       2.028  -9.817  -8.689  1.00  0.00     0.165 A 
ATOM      6  C   UNL     1       2.962 -10.758  -8.252  1.00  0.00     0.237 A 
ENDROOT
BRANCH   1   7
ATOM      7  C   UNL     1       2.536  -7.072  -6.191  1.00  0.00     0.193 C 
ATOM      8  O   UNL     1       3.554  -6.377  -6.052  1.00  0.00    -0.289 OA
BRANCH   7   9
ATOM      9  C   UNL     1       1.261  -6.618  -5.659  1.00  0.00     0.023 A 
ATOM     10  C   UNL     1       0.774  -5.355  -5.996  1.00  0.00     0.012 A 
ATOM     11  C   UNL     1       0.523  -7.446  -4.813  1.00  0.00     0.012 A 
ATOM     12  C   UNL     1      -0.449  -4.920  -5.486  1.00  0.00     0.004 A 
ATOM     13  C   UNL     1      -0.701  -7.012  -4.303  1.00  0.00     0.004 A 
ATOM     14  C   UNL     1      -1.187  -5.748  -4.639  1.00  0.00    -0.051 A 
ATOM     15  C   UNL     1      -2.494  -5.283  -4.094  1.00  0.00     0.044 C 
ENDBRANCH   7   9
ENDBRANCH   1   7
BRANCH   4  16
ATOM     16  N   UNL     1       4.713 -11.431  -6.679  1.00  0.00     0.066 N 
ATOM     17  O   UNL     1       5.221 -12.229  -7.503  1.00  0.00    -0.258 OA
ATOM     18  O   UNL     1       5.022 -11.440  -5.464  1.00  0.00    -0.258 OA
ENDBRANCH   4  16
BRANCH   5  19
ATOM     19  O   UNL     1       1.245 -10.069  -9.775  1.00  0.00    -0.504 OA
ATOM     20  H   UNL     1       1.558 -10.872 -10.223  1.00  0.00     0.293 HD
ENDBRANCH   5  19
BRANCH   6  21
ATOM     21  O   UNL     1       3.089 -11.939  -8.923  1.00  0.00    -0.500 OA
ATOM     22  H   UNL     1       3.774 -12.481  -8.503  1.00  0.00     0.294 HD
ENDBRANCH   6  21
TORSDOF 5
ENDMDL
MODEL 7
REMARK VINA RESULT:    -4.298      3.455      7.100
REMARK INTER + INTRA:          -6.018
REMARK INTER:                  -5.115
REMARK INTRA:                  -0.904
REMARK UNBOUND:                -0.715
REMARK SMILES Cc1ccc(C(=O)c2cc(O)c(O)c([N+](=O)[O-])c2)cc1
REMARK SMILES IDX 8 1 18 2 9 3 14 4 10 5 12 6 6 7 7 8 5 9 4 10 19 11 3 12
REMARK SMILES IDX 20 13 2 14 1 15 15 16 17 17 16 18 11 19 13 21
REMARK H PARENT 11 20 13 22
ROOT
ATOM      1  C   UNL     1       2.915  -8.123  -6.737  1.00  0.00     0.033 A 
ATOM      2  C   UNL     1       2.095  -8.636  -7.715  1.00  0.00     0.102 A 
ATOM      3  C   UNL     1       3.993  -8.810  -6.231  1.00  0.00     0.063 A 
ATOM      4  C   UNL     1       2.370  -9.908  -8.216  1.00  0.00     0.315 A 
ATOM      5  C   UNL     1       4.268 -10.083  -6.732  1.00  0.00     0.165 A 
ATOM      6  C   UNL     1       3.456 -10.632  -7.725  1.00  0.00     0.237 A 
ENDROOT
BRANCH   1   7
ATOM      7  C   UNL     1       2.621  -6.760  -6.200  1.00  0.00     0.193 C 
ATOM      8  O   UNL     1       3.540  -5.928  -6.226  1.00  0.00    -0.289 OA
BRANCH   7   9
ATOM      9  C   UNL     1       1.319  -6.398  -5.664  1.00  0.00     0.023 A 
ATOM     10  C   UNL     1       0.743  -5.172  -5.998  1.00  0.00     0.012 A 
ATOM     11  C   UNL     1       0.645  -7.276  -4.815  1.00  0.00     0.012 A 
ATOM     12  C   UNL     1      -0.506  -4.825  -5.484  1.00  0.00     0.004 A 
ATOM     13  C   UNL     1      -0.604  -6.929  -4.300  1.00  0.00     0.004 A 
ATOM     14  C   UNL     1      -1.180  -5.704  -4.634  1.00  0.00    -0.051 A 
ATOM     15  C   UNL     1      -2.515  -5.331  -4.084  1.00  0.00     0.044 C 
ENDBRANCH   7   9
ENDBRANCH   1   7
BRANCH   4  16
ATOM     16  N   UNL     1       1.531 -10.452  -9.228  1.00  0.00     0.066 N 
ATOM     17  O   UNL     1       2.027 -11.244 -10.065  1.00  0.00    -0.258 OA
ATOM     18  O   UNL     1       0.322 -10.124  -9.253  1.00  0.00    -0.258 OA
ENDBRANCH   4  16
BRANCH   5  19
ATOM     19  O   UNL     1       5.333 -10.778  -6.243  1.00  0.00    -0.504 OA
ATOM     20  H   UNL     1       5.071 -11.246  -5.433  1.00  0.00     0.293 HD
ENDBRANCH   5  19
BRANCH   6  21
ATOM     21  O   UNL     1       3.735 -11.878  -8.207  1.00  0.00    -0.500 OA
ATOM     22  H   UNL     1       2.949 -12.441  -8.131  1.00  0.00     0.294 HD
ENDBRANCH   6  21
TORSDOF 5
ENDMDL
MODEL 8
REMARK VINA RESULT:    -4.263      1.248      2.716
REMARK INTER + INTRA:          -5.975
REMARK INTER:                  -5.331
REMARK INTRA:                  -0.644
REMARK UNBOUND:                -0.715
REMARK SMILES Cc1ccc(C(=O)c2cc(O)c(O)c([N+](=O)[O-])c2)cc1
REMARK SMILES IDX 8 1 18 2 9 3 14 4 10 5 12 6 6 7 7 8 5 9 4 10 19 11 3 12
REMARK SMILES IDX 20 13 2 14 1 15 15 16 17 17 16 18 11 19 13 21
REMARK H PARENT 11 20 13 22
ROOT
ATOM      1  C   UNL     1       0.932  -6.297  -5.750  1.00  0.00     0.033 A 
ATOM      2  C   UNL     1      -0.360  -5.988  -5.391  1.00  0.00     0.102 A 
ATOM      3  C   UNL     1       2.025  -5.634  -5.245  1.00  0.00     0.063 A 
ATOM      4  C   UNL     1      -0.570  -4.959  -4.474  1.00  0.00     0.315 A 
ATOM      5  C   UNL     1       1.815  -4.604  -4.328  1.00  0.00     0.165 A 
ATOM      6  C   UNL     1       0.517  -4.267  -3.941  1.00  0.00     0.237 A 
ENDROOT
BRANCH   1   7
ATOM      7  C   UNL     1       1.157  -7.399  -6.733  1.00  0.00     0.193 C 
ATOM      8  O   UNL     1       0.401  -7.448  -7.716  1.00  0.00    -0.289 OA
BRANCH   7   9
ATOM      9  C   UNL     1       2.211  -8.387  -6.569  1.00  0.00     0.023 A 
ATOM     10  C   UNL     1       1.914  -9.642  -6.038  1.00  0.00     0.012 A 
ATOM     11  C   UNL     1       3.519  -8.080  -6.943  1.00  0.00     0.012 A 
ATOM     12  C   UNL     1       2.925 -10.590  -5.881  1.00  0.00     0.004 A 
ATOM     13  C   UNL     1       4.531  -9.028  -6.786  1.00  0.00     0.004 A 
ATOM     14  C   UNL     1       4.234 -10.283  -6.255  1.00  0.00    -0.051 A 
ATOM     15  C   UNL     1       5.315 -11.296  -6.086  1.00  0.00     0.044 C 
ENDBRANCH   7   9
ENDBRANCH   1   7
BRANCH   4  16
ATOM     16  N   UNL     1      -1.900  -4.630  -4.093  1.00  0.00     0.066 N 
ATOM     17  O   UNL     1      -2.618  -5.516  -3.570  1.00  0.00    -0.258 OA
ATOM     18  O   UNL     1      -2.315  -3.464  -4.289  1.00  0.00    -0.258 OA
ENDBRANCH   4  16
BRANCH   5  19
ATOM     19  O   UNL     1       2.887  -3.936  -3.816  1.00  0.00    -0.504 OA
ATOM     20  H   UNL     1       2.580  -3.261  -3.188  1.00  0.00     0.293 HD
ENDBRANCH   5  19
BRANCH   6  21
ATOM     21  O   UNL     1       0.325  -3.258  -3.043  1.00  0.00    -0.500 OA
ATOM     22  H   UNL     1      -0.220  -3.576  -2.307  1.00  0.00     0.294 HD
ENDBRANCH   6  21
TORSDOF 5
ENDMDL
MODEL 9
REMARK VINA RESULT:    -4.238      1.946      2.417
REMARK INTER + INTRA:          -5.944
REMARK INTER:                  -5.315
REMARK INTRA:                  -0.629
REMARK UNBOUND:                -0.715
REMARK SMILES Cc1ccc(C(=O)c2cc(O)c(O)c([N+](=O)[O-])c2)cc1
REMARK SMILES IDX 8 1 18 2 9 3 14 4 10 5 12 6 6 7 7 8 5 9 4 10 19 11 3 12
REMARK SMILES IDX 20 13 2 14 1 15 15 16 17 17 16 18 11 19 13 21
REMARK H PARENT 11 20 13 22
ROOT
ATOM      1  C   UNL     1       1.770  -6.754  -4.653  1.00  0.00     0.033 A 
ATOM      2  C   UNL     1       2.548  -5.758  -4.110  1.00  0.00     0.102 A 
ATOM      3  C   UNL     1       0.397  -6.709  -4.659  1.00  0.00     0.063 A 
ATOM      4  C   UNL     1       1.915  -4.653  -3.541  1.00  0.00     0.315 A 
ATOM      5  C   UNL     1      -0.237  -5.604  -4.090  1.00  0.00     0.165 A 
ATOM      6  C   UNL     1       0.523  -4.575  -3.531  1.00  0.00     0.237 A 
ENDROOT
BRANCH   1   7
ATOM      7  C   UNL     1       2.448  -7.938  -5.262  1.00  0.00     0.193 C 
ATOM      8  O   UNL     1       3.415  -8.418  -4.650  1.00  0.00    -0.289 OA
BRANCH   7   9
ATOM      9  C   UNL     1       2.013  -8.524  -6.520  1.00  0.00     0.023 A 
ATOM     10  C   UNL     1       0.918  -9.389  -6.545  1.00  0.00     0.012 A 
ATOM     11  C   UNL     1       2.690  -8.222  -7.701  1.00  0.00     0.012 A 
ATOM     12  C   UNL     1       0.501  -9.951  -7.751  1.00  0.00     0.004 A 
ATOM     13  C   UNL     1       2.272  -8.784  -8.909  1.00  0.00     0.004 A 
ATOM     14  C   UNL     1       1.178  -9.649  -8.933  1.00  0.00    -0.051 A 
ATOM     15  C   UNL     1       0.732 -10.251 -10.222  1.00  0.00     0.044 C 
ENDBRANCH   7   9
ENDBRANCH   1   7
BRANCH   4  16
ATOM     16  N   UNL     1       2.706  -3.615  -2.976  1.00  0.00     0.066 N 
ATOM     17  O   UNL     1       2.550  -3.326  -1.765  1.00  0.00    -0.258 OA
ATOM     18  O   UNL     1       3.535  -3.021  -3.704  1.00  0.00    -0.258 OA
ENDBRANCH   4  16
BRANCH   5  19
ATOM     19  O   UNL     1      -1.598  -5.542  -4.087  1.00  0.00    -0.504 OA
ATOM     20  H   UNL     1      -1.915  -5.320  -4.978  1.00  0.00     0.293 HD
ENDBRANCH   5  19
BRANCH   6  21
ATOM     21  O   UNL     1      -0.108  -3.499  -2.977  1.00  0.00    -0.500 OA
ATOM     22  H   UNL     1       0.467  -2.720  -3.032  1.00  0.00     0.294 HD
ENDBRANCH   6  21
TORSDOF 5
ENDMDL
