MODEL 1
REMARK VINA RESULT:    -5.198      0.000      0.000
REMARK INTER + INTRA:          -7.185
REMARK INTER:                  -6.414
REMARK INTRA:                  -0.771
REMARK UNBOUND:                -0.771
REMARK SMILES Cc1ccc(C(=O)c2cc(O)c(O)c([N+](=O)[O-])c2)cc1
REMARK SMILES IDX 8 1 18 2 9 3 14 4 10 5 12 6 6 7 7 8 5 9 4 10 19 11 3 12
REMARK SMILES IDX 20 13 2 14 1 15 15 16 17 17 16 18 11 19 13 21
REMARK H PARENT 11 20 13 22
ROOT
ATOM      1  C   UNL     1      -0.022   6.033  -2.416  1.00  0.00     0.033 A 
ATOM      2  C   UNL     1       1.002   5.928  -1.503  1.00  0.00     0.102 A 
ATOM      3  C   UNL     1      -0.820   4.970  -2.766  1.00  0.00     0.063 A 
ATOM      4  C   UNL     1       1.240   4.690  -0.906  1.00  0.00     0.315 A 
ATOM      5  C   UNL     1      -0.582   3.732  -2.170  1.00  0.00     0.165 A 
ATOM      6  C   UNL     1       0.448   3.592  -1.239  1.00  0.00     0.237 A 
ENDROOT
BRANCH   1   7
ATOM      7  C   UNL     1      -0.276   7.359  -3.055  1.00  0.00     0.193 C 
ATOM      8  O   UNL     1      -1.450   7.635  -3.344  1.00  0.00    -0.289 OA
BRANCH   7   9
ATOM      9  C   UNL     1       0.791   8.305  -3.339  1.00  0.00     0.023 A 
ATOM     10  C   UNL     1       1.381   8.332  -4.603  1.00  0.00     0.012 A 
ATOM     11  C   UNL     1       1.224   9.186  -2.348  1.00  0.00     0.012 A 
ATOM     12  C   UNL     1       2.405   9.240  -4.875  1.00  0.00     0.004 A 
ATOM     13  C   UNL     1       2.247  10.095  -2.620  1.00  0.00     0.004 A 
ATOM     14  C   UNL     1       2.838  10.122  -3.884  1.00  0.00    -0.051 A 
ATOM     15  C   UNL     1       3.932  11.091  -4.174  1.00  0.00     0.044 C 
ENDBRANCH   7   9
ENDBRANCH   1   7
BRANCH   4  16
ATOM     16  N   UNL     1       2.294   4.567   0.040  1.00  0.00     0.066 N 
ATOM     17  O   UNL     1       2.598   5.562   0.742  1.00  0.00    -0.258 OA
ATOM     18  O   UNL     1       2.888   3.469   0.145  1.00  0.00    -0.258 OA
ENDBRANCH   4  16
BRANCH   5  19
ATOM     19  O   UNL     1      -1.364   2.667  -2.505  1.00  0.00    -0.504 OA
ATOM     20  H   UNL     1      -0.831   1.855  -2.495  1.00  0.00     0.293 HD
ENDBRANCH   5  19
BRANCH   6  21
ATOM     21  O   UNL     1       0.670   2.375  -0.662  1.00  0.00    -0.500 OA
ATOM     22  H   UNL     1       1.623   2.242  -0.538  1.00  0.00     0.294 HD
ENDBRANCH   6  21
TORSDOF 5
ENDMDL
MODEL 2
REMARK VINA RESULT:    -5.191      2.035      3.560
REMARK INTER + INTRA:          -7.177
REMARK INTER:                  -6.407
REMARK INTRA:                  -0.770
REMARK UNBOUND:                -0.771
REMARK SMILES Cc1ccc(C(=O)c2cc(O)c(O)c([N+](=O)[O-])c2)cc1
REMARK SMILES IDX 8 1 18 2 9 3 14 4 10 5 12 6 6 7 7 8 5 9 4 10 19 11 3 12
REMARK SMILES IDX 20 13 2 14 1 15 15 16 17 17 16 18 11 19 13 21
REMARK H PARENT 11 20 13 22
ROOT
ATOM      1  C   UNL     1       1.819   5.920  -2.400  1.00  0.00     0.033 A 
ATOM      2  C   UNL     1       0.782   5.266  -3.023  1.00  0.00     0.102 A 
ATOM      3  C   UNL     1       2.432   5.439  -1.268  1.00  0.00     0.063 A 
ATOM      4  C   UNL     1       0.334   4.060  -2.483  1.00  0.00     0.315 A 
ATOM      5  C   UNL     1       1.984   4.233  -0.727  1.00  0.00     0.165 A 
ATOM      6  C   UNL     1       0.934   3.543  -1.336  1.00  0.00     0.237 A 
ENDROOT
BRANCH   1   7
ATOM      7  C   UNL     1       2.299   7.212  -2.977  1.00  0.00     0.193 C 
ATOM      8  O   UNL     1       3.517   7.442  -2.923  1.00  0.00    -0.289 OA
BRANCH   7   9
ATOM      9  C   UNL     1       1.397   8.177  -3.585  1.00  0.00     0.023 A 
ATOM     10  C   UNL     1       0.892   9.233  -2.827  1.00  0.00     0.012 A 
ATOM     11  C   UNL     1       1.038   8.047  -4.926  1.00  0.00     0.012 A 
ATOM     12  C   UNL     1       0.027  10.159  -3.410  1.00  0.00     0.004 A 
ATOM     13  C   UNL     1       0.172   8.974  -5.511  1.00  0.00     0.004 A 
ATOM     14  C   UNL     1      -0.333  10.030  -4.752  1.00  0.00    -0.051 A 
ATOM     15  C   UNL     1      -1.258  11.019  -5.375  1.00  0.00     0.044 C 
ENDBRANCH   7   9
ENDBRANCH   1   7
BRANCH   4  16
ATOM     16  N   UNL     1      -0.737   3.372  -3.117  1.00  0.00     0.066 N 
ATOM     17  O   UNL     1      -0.771   3.326  -4.370  1.00  0.00    -0.258 OA
ATOM     18  O   UNL     1      -1.615   2.830  -2.405  1.00  0.00    -0.258 OA
ENDBRANCH   4  16
BRANCH   5  19
ATOM     19  O   UNL     1       2.580   3.740   0.394  1.00  0.00    -0.504 OA
ATOM     20  H   UNL     1       2.186   2.882   0.622  1.00  0.00     0.293 HD
ENDBRANCH   5  19
BRANCH   6  21
ATOM     21  O   UNL     1       0.505   2.365  -0.798  1.00  0.00    -0.500 OA
ATOM     22  H   UNL     1       0.882   1.623  -1.296  1.00  0.00     0.294 HD
ENDBRANCH   6  21
TORSDOF 5
ENDMDL
MODEL 3
REMARK VINA RESULT:    -4.519      1.648      3.130
REMARK INTER + INTRA:          -6.347
REMARK INTER:                  -5.863
REMARK INTRA:                  -0.484
REMARK UNBOUND:                -0.771
REMARK SMILES Cc1ccc(C(=O)c2cc(O)c(O)c([N+](=O)[O-])c2)cc1
REMARK SMILES IDX 8 1 18 2 9 3 14 4 10 5 12 6 6 7 7 8 5 9 4 10 19 11 3 12
REMARK SMILES IDX 20 13 2 14 1 15 15 16 17 17 16 18 11 19 13 21
REMARK H PARENT 11 20 13 22
ROOT
ATOM      1  C   UNL     1       0.664   5.840  -0.939  1.00  0.00     0.033 A 
ATOM      2  C   UNL     1      -0.223   5.110  -1.696  1.00  0.00     0.102 A 
ATOM      3  C   UNL     1       1.709   5.267  -0.254  1.00  0.00     0.063 A 
ATOM      4  C   UNL     1      -0.053   3.728  -1.774  1.00  0.00     0.315 A 
ATOM      5  C   UNL     1       1.878   3.884  -0.331  1.00  0.00     0.165 A 
ATOM      6  C   UNL     1       0.997   3.115  -1.091  1.00  0.00     0.237 A 
ENDROOT
BRANCH   1   7
ATOM      7  C   UNL     1       0.482   7.321  -0.855  1.00  0.00     0.193 C 
ATOM      8  O   UNL     1      -0.148   7.763   0.117  1.00  0.00    -0.289 OA
BRANCH   7   9
ATOM      9  C   UNL     1       1.013   8.229  -1.859  1.00  0.00     0.023 A 
ATOM     10  C   UNL     1       1.430   9.509  -1.491  1.00  0.00     0.012 A 
ATOM     11  C   UNL     1       1.107   7.821  -3.189  1.00  0.00     0.012 A 
ATOM     12  C   UNL     1       1.940  10.380  -2.454  1.00  0.00     0.004 A 
ATOM     13  C   UNL     1       1.616   8.692  -4.153  1.00  0.00     0.004 A 
ATOM     14  C   UNL     1       2.033   9.972  -3.785  1.00  0.00    -0.051 A 
ATOM     15  C   UNL     1       2.577  10.904  -4.814  1.00  0.00     0.044 C 
ENDBRANCH   7   9
ENDBRANCH   1   7
BRANCH   4  16
ATOM     16  N   UNL     1      -0.961   2.960  -2.553  1.00  0.00     0.066 N 
ATOM     17  O   UNL     1      -1.907   2.371  -1.976  1.00  0.00    -0.258 OA
ATOM     18  O   UNL     1      -0.791   2.895  -3.793  1.00  0.00    -0.258 OA
ENDBRANCH   4  16
BRANCH   5  19
ATOM     19  O   UNL     1       2.909   3.299   0.341  1.00  0.00    -0.504 OA
ATOM     20  H   UNL     1       2.975   2.364   0.084  1.00  0.00     0.293 HD
ENDBRANCH   5  19
BRANCH   6  21
ATOM     21  O   UNL     1       1.173   1.763  -1.159  1.00  0.00    -0.500 OA
ATOM     22  H   UNL     1       1.126   1.383  -0.268  1.00  0.00     0.294 HD
ENDBRANCH   6  21
TORSDOF 5
ENDMDL
MODEL 4
REMARK VINA RESULT:    -4.510      1.831      2.107
REMARK INTER + INTRA:          -6.336
REMARK INTER:                  -5.820
REMARK INTRA:                  -0.516
REMARK UNBOUND:                -0.771
REMARK SMILES Cc1ccc(C(=O)c2cc(O)c(O)c([N+](=O)[O-])c2)cc1
REMARK SMILES IDX 8 1 18 2 9 3 14 4 10 5 12 6 6 7 7 8 5 9 4 10 19 11 3 12
REMARK SMILES IDX 20 13 2 14 1 15 15 16 17 17 16 18 11 19 13 21
REMARK H PARENT 11 20 13 22
ROOT
ATOM      1  C   UNL     1       0.992   4.763  -3.252  1.00  0.00     0.033 A 
ATOM      2  C   UNL     1       1.819   4.738  -2.152  1.00  0.00     0.102 A 
ATOM      3  C   UNL     1      -0.174   4.038  -3.325  1.00  0.00     0.063 A 
ATOM      4  C   UNL     1       1.458   3.944  -1.064  1.00  0.00     0.315 A 
ATOM      5  C   UNL     1      -0.535   3.243  -2.237  1.00  0.00     0.165 A 
ATOM      6  C   UNL     1       0.281   3.196  -1.106  1.00  0.00     0.237 A 
ENDROOT
BRANCH   1   7
ATOM      7  C   UNL     1       1.378   5.614  -4.417  1.00  0.00     0.193 C 
ATOM      8  O   UNL     1       1.999   5.065  -5.341  1.00  0.00    -0.289 OA
BRANCH   7   9
ATOM      9  C   UNL     1       1.053   7.029  -4.492  1.00  0.00     0.023 A 
ATOM     10  C   UNL     1       0.777   7.617  -5.727  1.00  0.00     0.012 A 
ATOM     11  C   UNL     1       1.015   7.798  -3.329  1.00  0.00     0.012 A 
ATOM     12  C   UNL     1       0.465   8.974  -5.798  1.00  0.00     0.004 A 
ATOM     13  C   UNL     1       0.702   9.156  -3.400  1.00  0.00     0.004 A 
ATOM     14  C   UNL     1       0.427   9.745  -4.635  1.00  0.00    -0.051 A 
ATOM     15  C   UNL     1       0.094  11.196  -4.711  1.00  0.00     0.044 C 
ENDBRANCH   7   9
ENDBRANCH   1   7
BRANCH   4  16
ATOM     16  N   UNL     1       2.302   3.909   0.080  1.00  0.00     0.066 N 
ATOM     17  O   UNL     1       3.034   2.906   0.262  1.00  0.00    -0.258 OA
ATOM     18  O   UNL     1       2.291   4.880   0.871  1.00  0.00    -0.258 OA
ENDBRANCH   4  16
BRANCH   5  19
ATOM     19  O   UNL     1      -1.687   2.518  -2.292  1.00  0.00    -0.504 OA
ATOM     20  H   UNL     1      -1.921   2.348  -3.219  1.00  0.00     0.293 HD
ENDBRANCH   5  19
BRANCH   6  21
ATOM     21  O   UNL     1      -0.083   2.415  -0.047  1.00  0.00    -0.500 OA
ATOM     22  H   UNL     1       0.428   2.670   0.737  1.00  0.00     0.294 HD
ENDBRANCH   6  21
TORSDOF 5
ENDMDL
MODEL 5
REMARK VINA RESULT:    -4.307      3.790      7.085
REMARK INTER + INTRA:          -6.086
REMARK INTER:                  -5.099
REMARK INTRA:                  -0.987
REMARK UNBOUND:                -0.771
REMARK SMILES Cc1ccc(C(=O)c2cc(O)c(O)c([N+](=O)[O-])c2)cc1
REMARK SMILES IDX 8 1 18 2 9 3 14 4 10 5 12 6 6 7 7 8 5 9 4 10 19 11 3 12
REMARK SMILES IDX 20 13 2 14 1 15 15 16 17 17 16 18 11 19 13 21
REMARK H PARENT 11 20 13 22
ROOT
ATOM      1  C   UNL     1       1.196   8.760  -4.392  1.00  0.00     0.033 A 
ATOM      2  C   UNL     1       0.112   9.522  -4.763  1.00  0.00     0.102 A 
ATOM      3  C   UNL     1       2.466   9.274  -4.281  1.00  0.00     0.063 A 
ATOM      4  C   UNL     1       0.310  10.875  -5.036  1.00  0.00     0.315 A 
ATOM      5  C   UNL     1       2.664  10.628  -4.554  1.00  0.00     0.165 A 
ATOM      6  C   UNL     1       1.585  11.429  -4.932  1.00  0.00     0.237 A 
ENDROOT
BRANCH   1   7
ATOM      7  C   UNL     1       0.984   7.311  -4.100  1.00  0.00     0.193 C 
ATOM      8  O   UNL     1       0.462   6.621  -4.989  1.00  0.00    -0.289 OA
BRANCH   7   9
ATOM      9  C   UNL     1       1.366   6.707  -2.834  1.00  0.00     0.023 A 
ATOM     10  C   UNL     1       0.903   7.249  -1.635  1.00  0.00     0.012 A 
ATOM     11  C   UNL     1       2.194   5.585  -2.818  1.00  0.00     0.012 A 
ATOM     12  C   UNL     1       1.270   6.669  -0.420  1.00  0.00     0.004 A 
ATOM     13  C   UNL     1       2.561   5.004  -1.603  1.00  0.00     0.004 A 
ATOM     14  C   UNL     1       2.098   5.547  -0.403  1.00  0.00    -0.051 A 
ATOM     15  C   UNL     1       2.491   4.929   0.895  1.00  0.00     0.044 C 
ENDBRANCH   7   9
ENDBRANCH   1   7
BRANCH   4  16
ATOM     16  N   UNL     1      -0.802  11.676  -5.419  1.00  0.00     0.066 N 
ATOM     17  O   UNL     1      -1.946  11.358  -5.013  1.00  0.00    -0.258 OA
ATOM     18  O   UNL     1      -0.606  12.674  -6.150  1.00  0.00    -0.258 OA
ENDBRANCH   4  16
BRANCH   5  19
ATOM     19  O   UNL     1       3.916  11.155  -4.448  1.00  0.00    -0.504 OA
ATOM     20  H   UNL     1       4.029  11.551  -3.568  1.00  0.00     0.293 HD
ENDBRANCH   5  19
BRANCH   6  21
ATOM     21  O   UNL     1       1.792  12.752  -5.196  1.00  0.00    -0.500 OA
ATOM     22  H   UNL     1       1.221  13.031  -5.929  1.00  0.00     0.294 HD
ENDBRANCH   6  21
TORSDOF 5
ENDMDL
MODEL 6
REMARK VINA RESULT:    -4.268      1.966      2.643
REMARK INTER + INTRA:          -6.037
REMARK INTER:                  -5.339
REMARK INTRA:                  -0.699
REMARK UNBOUND:                -0.771
REMARK SMILES Cc1ccc(C(=O)c2cc(O)c(O)c([N+](=O)[O-])c2)cc1
REMARK SMILES IDX 8 1 18 2 9 3 14 4 10 5 12 6 6 7 7 8 5 9 4 10 19 11 3 12
REMARK SMILES IDX 20 13 2 14 1 15 15 16 17 17 16 18 11 19 13 21
REMARK H PARENT 11 20 13 22
ROOT
ATOM      1  C   UNL     1       1.667   6.370  -2.687  1.00  0.00     0.033 A 
ATOM      2  C   UNL     1       2.185   5.965  -1.478  1.00  0.00     0.102 A 
ATOM      3  C   UNL     1       0.787   5.606  -3.415  1.00  0.00     0.063 A 
ATOM      4  C   UNL     1       1.799   4.725  -0.970  1.00  0.00     0.315 A 
ATOM      5  C   UNL     1       0.402   4.365  -2.907  1.00  0.00     0.165 A 
ATOM      6  C   UNL     1       0.908   3.925  -1.683  1.00  0.00     0.237 A 
ENDROOT
BRANCH   1   7
ATOM      7  C   UNL     1       2.079   7.699  -3.232  1.00  0.00     0.193 C 
ATOM      8  O   UNL     1       3.285   7.985  -3.181  1.00  0.00    -0.289 OA
BRANCH   7   9
ATOM      9  C   UNL     1       1.127   8.636  -3.805  1.00  0.00     0.023 A 
ATOM     10  C   UNL     1       0.585   9.650  -3.014  1.00  0.00     0.012 A 
ATOM     11  C   UNL     1       0.756   8.523  -5.144  1.00  0.00     0.012 A 
ATOM     12  C   UNL     1      -0.328  10.549  -3.564  1.00  0.00     0.004 A 
ATOM     13  C   UNL     1      -0.158   9.423  -5.695  1.00  0.00     0.004 A 
ATOM     14  C   UNL     1      -0.700  10.436  -4.904  1.00  0.00    -0.051 A 
ATOM     15  C   UNL     1      -1.677  11.397  -5.491  1.00  0.00     0.044 C 
ENDBRANCH   7   9
ENDBRANCH   1   7
BRANCH   4  16
ATOM     16  N   UNL     1       2.326   4.293   0.278  1.00  0.00     0.066 N 
ATOM     17  O   UNL     1       2.987   3.227   0.321  1.00  0.00    -0.258 OA
ATOM     18  O   UNL     1       2.116   4.990   1.299  1.00  0.00    -0.258 OA
ENDBRANCH   4  16
BRANCH   5  19
ATOM     19  O   UNL     1      -0.470   3.594  -3.615  1.00  0.00    -0.504 OA
ATOM     20  H   UNL     1      -0.619   3.990  -4.489  1.00  0.00     0.293 HD
ENDBRANCH   5  19
BRANCH   6  21
ATOM     21  O   UNL     1       0.523   2.709  -1.196  1.00  0.00    -0.500 OA
ATOM     22  H   UNL     1       0.329   2.109  -1.933  1.00  0.00     0.294 HD
ENDBRANCH   6  21
TORSDOF 5
ENDMDL
MODEL 7
REMARK VINA RESULT:    -4.264      3.617      4.535
REMARK INTER + INTRA:          -6.032
REMARK INTER:                  -5.036
REMARK INTRA:                  -0.996
REMARK UNBOUND:                -0.771
REMARK SMILES Cc1ccc(C(=O)c2cc(O)c(O)c([N+](=O)[O-])c2)cc1
REMARK SMILES IDX 8 1 18 2 9 3 14 4 10 5 12 6 6 7 7 8 5 9 4 10 19 11 3 12
REMARK SMILES IDX 20 13 2 14 1 15 15 16 17 17 16 18 11 19 13 21
REMARK H PARENT 11 20 13 22
ROOT
ATOM      1  C   UNL     1       1.023   8.423  -4.685  1.00  0.00     0.033 A 
ATOM      2  C   UNL     1       0.956   7.683  -3.527  1.00  0.00     0.102 A 
ATOM      3  C   UNL     1       1.060   7.852  -5.934  1.00  0.00     0.063 A 
ATOM      4  C   UNL     1       0.922   6.292  -3.626  1.00  0.00     0.315 A 
ATOM      5  C   UNL     1       1.027   6.461  -6.033  1.00  0.00     0.165 A 
ATOM      6  C   UNL     1       0.957   5.680  -4.878  1.00  0.00     0.237 A 
ENDROOT
BRANCH   1   7
ATOM      7  C   UNL     1       1.059   9.913  -4.579  1.00  0.00     0.193 C 
ATOM      8  O   UNL     1       2.129  10.433  -4.227  1.00  0.00    -0.289 OA
BRANCH   7   9
ATOM      9  C   UNL     1      -0.098  10.744  -4.872  1.00  0.00     0.023 A 
ATOM     10  C   UNL     1      -1.304  10.519  -4.208  1.00  0.00     0.012 A 
ATOM     11  C   UNL     1      -0.002  11.765  -5.817  1.00  0.00     0.012 A 
ATOM     12  C   UNL     1      -2.413  11.316  -4.489  1.00  0.00     0.004 A 
ATOM     13  C   UNL     1      -1.111  12.563  -6.099  1.00  0.00     0.004 A 
ATOM     14  C   UNL     1      -2.317  12.339  -5.435  1.00  0.00    -0.051 A 
ATOM     15  C   UNL     1      -3.504  13.189  -5.736  1.00  0.00     0.044 C 
ENDBRANCH   7   9
ENDBRANCH   1   7
BRANCH   4  16
ATOM     16  N   UNL     1       0.852   5.514  -2.438  1.00  0.00     0.066 N 
ATOM     17  O   UNL     1       0.145   5.924  -1.485  1.00  0.00    -0.258 OA
ATOM     18  O   UNL     1       1.497   4.441  -2.377  1.00  0.00    -0.258 OA
ENDBRANCH   4  16
BRANCH   5  19
ATOM     19  O   UNL     1       1.062   5.877  -7.264  1.00  0.00    -0.504 OA
ATOM     20  H   UNL     1       1.909   6.077  -7.695  1.00  0.00     0.293 HD
ENDBRANCH   5  19
BRANCH   6  21
ATOM     21  O   UNL     1       0.925   4.321  -4.988  1.00  0.00    -0.500 OA
ATOM     22  H   UNL     1       1.511   3.926  -4.323  1.00  0.00     0.294 HD
ENDBRANCH   6  21
TORSDOF 5
ENDMDL
MODEL 8
REMARK VINA RESULT:    -4.245      3.695      6.524
REMARK INTER + INTRA:          -6.009
REMARK INTER:                  -5.012
REMARK INTRA:                  -0.997
REMARK UNBOUND:                -0.771
REMARK SMILES Cc1ccc(C(=O)c2cc(O)c(O)c([N+](=O)[O-])c2)cc1
REMARK SMILES IDX 8 1 18 2 9 3 14 4 10 5 12 6 6 7 7 8 5 9 4 10 19 11 3 12
REMARK SMILES IDX 20 13 2 14 1 15 15 16 17 17 16 18 11 19 13 21
REMARK H PARENT 11 20 13 22
ROOT
ATOM      1  C   UNL     1       1.174   8.727  -4.400  1.00  0.00     0.033 A 
ATOM      2  C   UNL     1       2.440   9.253  -4.282  1.00  0.00     0.102 A 
ATOM      3  C   UNL     1       0.088   9.475  -4.785  1.00  0.00     0.063 A 
ATOM      4  C   UNL     1       2.629  10.605  -4.567  1.00  0.00     0.315 A 
ATOM      5  C   UNL     1       0.276  10.828  -5.069  1.00  0.00     0.165 A 
ATOM      6  C   UNL     1       1.548  11.393  -4.961  1.00  0.00     0.237 A 
ENDROOT
BRANCH   1   7
ATOM      7  C   UNL     1       0.972   7.278  -4.095  1.00  0.00     0.193 C 
ATOM      8  O   UNL     1       0.448   6.579  -4.976  1.00  0.00    -0.289 OA
BRANCH   7   9
ATOM      9  C   UNL     1       1.363   6.686  -2.826  1.00  0.00     0.023 A 
ATOM     10  C   UNL     1       2.193   5.565  -2.805  1.00  0.00     0.012 A 
ATOM     11  C   UNL     1       0.910   7.240  -1.629  1.00  0.00     0.012 A 
ATOM     12  C   UNL     1       2.569   4.998  -1.588  1.00  0.00     0.004 A 
ATOM     13  C   UNL     1       1.285   6.673  -0.410  1.00  0.00     0.004 A 
ATOM     14  C   UNL     1       2.115   5.552  -0.390  1.00  0.00    -0.051 A 
ATOM     15  C   UNL     1       2.516   4.944   0.911  1.00  0.00     0.044 C 
ENDBRANCH   7   9
ENDBRANCH   1   7
BRANCH   4  16
ATOM     16  N   UNL     1       3.931  11.163  -4.451  1.00  0.00     0.066 N 
ATOM     17  O   UNL     1       4.047  12.369  -4.124  1.00  0.00    -0.258 OA
ATOM     18  O   UNL     1       4.925  10.435  -4.677  1.00  0.00    -0.258 OA
ENDBRANCH   4  16
BRANCH   5  19
ATOM     19  O   UNL     1      -0.789  11.585  -5.453  1.00  0.00    -0.504 OA
ATOM     20  H   UNL     1      -1.554  11.010  -5.621  1.00  0.00     0.293 HD
ENDBRANCH   5  19
BRANCH   6  21
ATOM     21  O   UNL     1       1.720  12.717  -5.242  1.00  0.00    -0.500 OA
ATOM     22  H   UNL     1       2.577  13.014  -4.900  1.00  0.00     0.294 HD
ENDBRANCH   6  21
TORSDOF 5
ENDMDL
MODEL 9
REMARK VINA RESULT:    -4.030      3.263      4.483
REMARK INTER + INTRA:          -5.743
REMARK INTER:                  -4.891
REMARK INTRA:                  -0.852
REMARK UNBOUND:                -0.771
REMARK SMILES Cc1ccc(C(=O)c2cc(O)c(O)c([N+](=O)[O-])c2)cc1
REMARK SMILES IDX 8 1 18 2 9 3 14 4 10 5 12 6 6 7 7 8 5 9 4 10 19 11 3 12
REMARK SMILES IDX 20 13 2 14 1 15 15 16 17 17 16 18 11 19 13 21
REMARK H PARENT 11 20 13 22
ROOT
ATOM      1  C   UNL     1       0.968   8.776  -3.055  1.00  0.00     0.033 A 
ATOM      2  C   UNL     1       0.891   7.403  -3.049  1.00  0.00     0.102 A 
ATOM      3  C   UNL     1       1.036   9.524  -1.904  1.00  0.00     0.063 A 
ATOM      4  C   UNL     1       0.884   6.740  -1.822  1.00  0.00     0.315 A 
ATOM      5  C   UNL     1       1.028   8.862  -0.676  1.00  0.00     0.165 A 
ATOM      6  C   UNL     1       0.953   7.469  -0.635  1.00  0.00     0.237 A 
ENDROOT
BRANCH   1   7
ATOM      7  C   UNL     1       0.975   9.486  -4.369  1.00  0.00     0.193 C 
ATOM      8  O   UNL     1       1.914   9.242  -5.142  1.00  0.00    -0.289 OA
BRANCH   7   9
ATOM      9  C   UNL     1      -0.063  10.429  -4.752  1.00  0.00     0.023 A 
ATOM     10  C   UNL     1      -1.374  10.239  -4.314  1.00  0.00     0.012 A 
ATOM     11  C   UNL     1       0.251  11.524  -5.557  1.00  0.00     0.012 A 
ATOM     12  C   UNL     1      -2.370  11.144  -4.681  1.00  0.00     0.004 A 
ATOM     13  C   UNL     1      -0.745  12.430  -5.924  1.00  0.00     0.004 A 
ATOM     14  C   UNL     1      -2.056  12.240  -5.486  1.00  0.00    -0.051 A 
ATOM     15  C   UNL     1      -3.121  13.206  -5.879  1.00  0.00     0.044 C 
ENDBRANCH   7   9
ENDBRANCH   1   7
BRANCH   4  16
ATOM     16  N   UNL     1       0.806   5.320  -1.801  1.00  0.00     0.066 N 
ATOM     17  O   UNL     1       0.064   4.767  -0.954  1.00  0.00    -0.258 OA
ATOM     18  O   UNL     1       1.480   4.664  -2.629  1.00  0.00    -0.258 OA
ENDBRANCH   4  16
BRANCH   5  19
ATOM     19  O   UNL     1       1.096   9.587   0.476  1.00  0.00    -0.504 OA
ATOM     20  H   UNL     1       0.238   9.555   0.931  1.00  0.00     0.293 HD
ENDBRANCH   5  19
BRANCH   6  21
ATOM     21  O   UNL     1       0.946   6.832   0.572  1.00  0.00    -0.500 OA
ATOM     22  H   UNL     1       0.035   6.613   0.820  1.00  0.00     0.294 HD
ENDBRANCH   6  21
TORSDOF 5
ENDMDL
