MODEL 1
REMARK VINA RESULT:    -6.839      0.000      0.000
REMARK INTER + INTRA:          -8.618
REMARK INTER:                  -8.038
REMARK INTRA:                  -0.579
REMARK UNBOUND:                -0.579
REMARK SMILES O=C(O)c1cc(-c2ccc(F)cc2F)ccc1O
REMARK SMILES IDX 6 1 5 2 15 3 4 4 17 5 16 6 7 7 13 8 12 9 8 10 10 11 9 12
REMARK SMILES IDX 14 13 11 14 2 15 1 16 3 17 18 19
REMARK H PARENT 3 18 18 20
ROOT
ATOM      1  C   UNL     1       0.927   6.098  -2.498  1.00  0.00    -0.014 A 
ATOM      2  C   UNL     1       0.021   5.182  -3.032  1.00  0.00     0.028 A 
ATOM      3  C   UNL     1       1.704   5.747  -1.395  1.00  0.00     0.013 A 
ATOM      4  C   UNL     1      -0.108   3.915  -2.464  1.00  0.00     0.102 A 
ATOM      5  C   UNL     1       0.670   3.564  -1.360  1.00  0.00     0.130 A 
ATOM      6  C   UNL     1       1.577   4.481  -0.826  1.00  0.00     0.048 A 
ENDROOT
BRANCH   1   7
ATOM      7  C   UNL     1       1.059   7.413  -3.087  1.00  0.00     0.018 A 
ATOM      8  C   UNL     1       1.154   7.555  -4.472  1.00  0.00     0.133 A 
ATOM      9  C   UNL     1       1.282   8.825  -5.035  1.00  0.00     0.079 A 
ATOM     10  C   UNL     1       1.092   8.541  -2.267  1.00  0.00     0.015 A 
ATOM     11  C   UNL     1       1.315   9.952  -4.215  1.00  0.00     0.126 A 
ATOM     12  C   UNL     1       1.220   9.810  -2.831  1.00  0.00     0.040 A 
ATOM     13  F   UNL     1       1.127   6.481  -5.274  1.00  0.00    -0.206 F 
ATOM     14  F   UNL     1       1.438  11.171  -4.755  1.00  0.00    -0.207 F 
ENDBRANCH   1   7
BRANCH   4  15
ATOM     15  C   UNL     1      -1.059   2.973  -3.037  1.00  0.00     0.339 C 
ATOM     16  O   UNL     1      -1.952   2.393  -2.415  1.00  0.00    -0.246 OA
BRANCH  15  17
ATOM     17  O   UNL     1      -0.864   2.786  -4.370  1.00  0.00    -0.478 OA
ATOM     18  H   UNL     1      -0.576   3.610  -4.816  1.00  0.00     0.297 HD
ENDBRANCH  15  17
ENDBRANCH   4  15
BRANCH   5  19
ATOM     19  O   UNL     1       0.561   2.331  -0.790  1.00  0.00    -0.507 OA
ATOM     20  H   UNL     1       1.194   2.264  -0.054  1.00  0.00     0.293 HD
ENDBRANCH   5  19
TORSDOF 4
ENDMDL
MODEL 2
REMARK VINA RESULT:    -6.808      1.230      2.710
REMARK INTER + INTRA:          -8.581
REMARK INTER:                  -7.998
REMARK INTRA:                  -0.582
REMARK UNBOUND:                -0.579
REMARK SMILES O=C(O)c1cc(-c2ccc(F)cc2F)ccc1O
REMARK SMILES IDX 6 1 5 2 15 3 4 4 17 5 16 6 7 7 13 8 12 9 8 10 10 11 9 12
REMARK SMILES IDX 14 13 11 14 2 15 1 16 3 17 18 19
REMARK H PARENT 3 18 18 20
ROOT
ATOM      1  C   UNL     1       0.867   6.093  -2.490  1.00  0.00    -0.014 A 
ATOM      2  C   UNL     1       1.647   5.794  -1.373  1.00  0.00     0.028 A 
ATOM      3  C   UNL     1      -0.020   5.143  -2.997  1.00  0.00     0.013 A 
ATOM      4  C   UNL     1       1.540   4.544  -0.762  1.00  0.00     0.102 A 
ATOM      5  C   UNL     1       0.653   3.594  -1.269  1.00  0.00     0.130 A 
ATOM      6  C   UNL     1      -0.127   3.894  -2.387  1.00  0.00     0.048 A 
ENDROOT
BRANCH   1   7
ATOM      7  C   UNL     1       0.979   7.389  -3.125  1.00  0.00     0.018 A 
ATOM      8  C   UNL     1       1.091   7.481  -4.513  1.00  0.00     0.133 A 
ATOM      9  C   UNL     1       1.198   8.732  -5.121  1.00  0.00     0.079 A 
ATOM     10  C   UNL     1       0.973   8.546  -2.347  1.00  0.00     0.015 A 
ATOM     11  C   UNL     1       1.193   9.889  -4.343  1.00  0.00     0.126 A 
ATOM     12  C   UNL     1       1.080   9.796  -2.956  1.00  0.00     0.040 A 
ATOM     13  F   UNL     1       1.100   6.378  -5.275  1.00  0.00    -0.206 F 
ATOM     14  F   UNL     1       1.296  11.090  -4.926  1.00  0.00    -0.207 F 
ENDBRANCH   1   7
BRANCH   4  15
ATOM     15  C   UNL     1       2.362   4.251   0.403  1.00  0.00     0.339 C 
ATOM     16  O   UNL     1       3.114   3.280   0.521  1.00  0.00    -0.246 OA
BRANCH  15  17
ATOM     17  O   UNL     1       2.220   5.182   1.385  1.00  0.00    -0.478 OA
ATOM     18  H   UNL     1       2.618   6.042   1.134  1.00  0.00     0.297 HD
ENDBRANCH  15  17
ENDBRANCH   4  15
BRANCH   5  19
ATOM     19  O   UNL     1       0.533   2.368  -0.686  1.00  0.00    -0.507 OA
ATOM     20  H   UNL     1       1.345   2.173  -0.187  1.00  0.00     0.293 HD
ENDBRANCH   5  19
TORSDOF 4
ENDMDL
MODEL 3
REMARK VINA RESULT:    -6.805      1.649      3.148
REMARK INTER + INTRA:          -8.578
REMARK INTER:                  -7.999
REMARK INTRA:                  -0.579
REMARK UNBOUND:                -0.579
REMARK SMILES O=C(O)c1cc(-c2ccc(F)cc2F)ccc1O
REMARK SMILES IDX 6 1 5 2 15 3 4 4 17 5 16 6 7 7 13 8 12 9 8 10 10 11 9 12
REMARK SMILES IDX 14 13 11 14 2 15 1 16 3 17 18 19
REMARK H PARENT 3 18 18 20
ROOT
ATOM      1  C   UNL     1       0.850   6.134  -2.454  1.00  0.00    -0.014 A 
ATOM      2  C   UNL     1       1.640   5.817  -1.349  1.00  0.00     0.028 A 
ATOM      3  C   UNL     1      -0.053   5.198  -2.957  1.00  0.00     0.013 A 
ATOM      4  C   UNL     1       1.527   4.564  -0.747  1.00  0.00     0.102 A 
ATOM      5  C   UNL     1       0.624   3.627  -1.251  1.00  0.00     0.130 A 
ATOM      6  C   UNL     1      -0.166   3.945  -2.356  1.00  0.00     0.048 A 
ENDROOT
BRANCH   1   7
ATOM      7  C   UNL     1       0.967   7.434  -3.079  1.00  0.00     0.018 A 
ATOM      8  C   UNL     1       0.999   8.588  -2.296  1.00  0.00     0.133 A 
ATOM      9  C   UNL     1       1.112   9.839  -2.903  1.00  0.00     0.079 A 
ATOM     10  C   UNL     1       1.049   7.531  -4.468  1.00  0.00     0.015 A 
ATOM     11  C   UNL     1       1.193   9.936  -4.291  1.00  0.00     0.126 A 
ATOM     12  C   UNL     1       1.162   8.782  -5.074  1.00  0.00     0.040 A 
ATOM     13  F   UNL     1       0.919   8.513  -0.960  1.00  0.00    -0.206 F 
ATOM     14  F   UNL     1       1.302  11.137  -4.875  1.00  0.00    -0.207 F 
ENDBRANCH   1   7
BRANCH   4  15
ATOM     15  C   UNL     1       2.361   4.252   0.405  1.00  0.00     0.339 C 
ATOM     16  O   UNL     1       3.104   3.273   0.505  1.00  0.00    -0.246 OA
BRANCH  15  17
ATOM     17  O   UNL     1       2.241   5.177   1.397  1.00  0.00    -0.478 OA
ATOM     18  H   UNL     1       2.635   4.863   2.237  1.00  0.00     0.297 HD
ENDBRANCH  15  17
ENDBRANCH   4  15
BRANCH   5  19
ATOM     19  O   UNL     1       0.499   2.397  -0.677  1.00  0.00    -0.507 OA
ATOM     20  H   UNL     1       1.342   2.156  -0.256  1.00  0.00     0.293 HD
ENDBRANCH   5  19
TORSDOF 4
ENDMDL
MODEL 4
REMARK VINA RESULT:    -5.246      4.086      6.323
REMARK INTER + INTRA:          -6.745
REMARK INTER:                  -5.659
REMARK INTRA:                  -1.086
REMARK UNBOUND:                -0.579
REMARK SMILES O=C(O)c1cc(-c2ccc(F)cc2F)ccc1O
REMARK SMILES IDX 6 1 5 2 15 3 4 4 17 5 16 6 7 7 13 8 12 9 8 10 10 11 9 12
REMARK SMILES IDX 14 13 11 14 2 15 1 16 3 17 18 19
REMARK H PARENT 3 18 18 20
ROOT
ATOM      1  C   UNL     1       0.968   8.386  -3.796  1.00  0.00    -0.014 A 
ATOM      2  C   UNL     1      -0.097   9.133  -4.298  1.00  0.00     0.028 A 
ATOM      3  C   UNL     1       2.251   8.933  -3.768  1.00  0.00     0.013 A 
ATOM      4  C   UNL     1       0.119  10.427  -4.772  1.00  0.00     0.102 A 
ATOM      5  C   UNL     1       1.402  10.974  -4.744  1.00  0.00     0.130 A 
ATOM      6  C   UNL     1       2.469  10.227  -4.241  1.00  0.00     0.048 A 
ENDROOT
BRANCH   1   7
ATOM      7  C   UNL     1       0.744   7.044  -3.305  1.00  0.00     0.018 A 
ATOM      8  C   UNL     1       0.860   5.954  -4.169  1.00  0.00     0.133 A 
ATOM      9  C   UNL     1       0.643   4.661  -3.692  1.00  0.00     0.079 A 
ATOM     10  C   UNL     1       0.413   6.840  -1.966  1.00  0.00     0.015 A 
ATOM     11  C   UNL     1       0.311   4.458  -2.353  1.00  0.00     0.126 A 
ATOM     12  C   UNL     1       0.197   5.548  -1.490  1.00  0.00     0.040 A 
ATOM     13  F   UNL     1       1.175   6.132  -5.460  1.00  0.00    -0.206 F 
ATOM     14  F   UNL     1       0.103   3.217  -1.894  1.00  0.00    -0.207 F 
ENDBRANCH   1   7
BRANCH   4  15
ATOM     15  C   UNL     1      -1.006  11.191  -5.291  1.00  0.00     0.339 C 
ATOM     16  O   UNL     1      -0.944  12.337  -5.742  1.00  0.00    -0.246 OA
BRANCH  15  17
ATOM     17  O   UNL     1      -2.175  10.496  -5.232  1.00  0.00    -0.478 OA
ATOM     18  H   UNL     1      -2.238   9.957  -4.416  1.00  0.00     0.297 HD
ENDBRANCH  15  17
ENDBRANCH   4  15
BRANCH   5  19
ATOM     19  O   UNL     1       1.635  12.237  -5.202  1.00  0.00    -0.507 OA
ATOM     20  H   UNL     1       0.971  12.457  -5.878  1.00  0.00     0.293 HD
ENDBRANCH   5  19
TORSDOF 4
ENDMDL
MODEL 5
REMARK VINA RESULT:    -5.241      4.363      6.677
REMARK INTER + INTRA:          -6.739
REMARK INTER:                  -5.666
REMARK INTRA:                  -1.073
REMARK UNBOUND:                -0.579
REMARK SMILES O=C(O)c1cc(-c2ccc(F)cc2F)ccc1O
REMARK SMILES IDX 6 1 5 2 15 3 4 4 17 5 16 6 7 7 13 8 12 9 8 10 10 11 9 12
REMARK SMILES IDX 14 13 11 14 2 15 1 16 3 17 18 19
REMARK H PARENT 3 18 18 20
ROOT
ATOM      1  C   UNL     1       1.068   8.449  -3.724  1.00  0.00    -0.014 A 
ATOM      2  C   UNL     1       2.327   9.047  -3.672  1.00  0.00     0.028 A 
ATOM      3  C   UNL     1      -0.007   9.135  -4.289  1.00  0.00     0.013 A 
ATOM      4  C   UNL     1       2.511  10.331  -4.186  1.00  0.00     0.102 A 
ATOM      5  C   UNL     1       1.436  11.017  -4.752  1.00  0.00     0.130 A 
ATOM      6  C   UNL     1       0.176  10.418  -4.803  1.00  0.00     0.048 A 
ENDROOT
BRANCH   1   7
ATOM      7  C   UNL     1       0.876   7.118  -3.190  1.00  0.00     0.018 A 
ATOM      8  C   UNL     1       0.929   6.010  -4.035  1.00  0.00     0.133 A 
ATOM      9  C   UNL     1       0.743   4.728  -3.516  1.00  0.00     0.079 A 
ATOM     10  C   UNL     1       0.639   6.945  -1.826  1.00  0.00     0.015 A 
ATOM     11  C   UNL     1       0.505   4.555  -2.153  1.00  0.00     0.126 A 
ATOM     12  C   UNL     1       0.454   5.664  -1.308  1.00  0.00     0.040 A 
ATOM     13  F   UNL     1       1.154   6.159  -5.349  1.00  0.00    -0.206 F 
ATOM     14  F   UNL     1       0.327   3.325  -1.654  1.00  0.00    -0.207 F 
ENDBRANCH   1   7
BRANCH   4  15
ATOM     15  C   UNL     1       3.833  10.938  -4.123  1.00  0.00     0.339 C 
ATOM     16  O   UNL     1       4.090  12.118  -4.374  1.00  0.00    -0.246 OA
BRANCH  15  17
ATOM     17  O   UNL     1       4.794  10.051  -3.747  1.00  0.00    -0.478 OA
ATOM     18  H   UNL     1       5.287  10.359  -2.958  1.00  0.00     0.297 HD
ENDBRANCH  15  17
ENDBRANCH   4  15
BRANCH   5  19
ATOM     19  O   UNL     1       1.594  12.271  -5.260  1.00  0.00    -0.507 OA
ATOM     20  H   UNL     1       1.983  12.844  -4.576  1.00  0.00     0.293 HD
ENDBRANCH   5  19
TORSDOF 4
ENDMDL
MODEL 6
REMARK VINA RESULT:    -4.732      1.451      1.805
REMARK INTER + INTRA:          -6.141
REMARK INTER:                  -5.295
REMARK INTRA:                  -0.847
REMARK UNBOUND:                -0.579
REMARK SMILES O=C(O)c1cc(-c2ccc(F)cc2F)ccc1O
REMARK SMILES IDX 6 1 5 2 15 3 4 4 17 5 16 6 7 7 13 8 12 9 8 10 10 11 9 12
REMARK SMILES IDX 14 13 11 14 2 15 1 16 3 17 18 19
REMARK H PARENT 3 18 18 20
ROOT
ATOM      1  C   UNL     1       0.788   7.288  -2.723  1.00  0.00    -0.014 A 
ATOM      2  C   UNL     1       0.262   6.235  -3.471  1.00  0.00     0.028 A 
ATOM      3  C   UNL     1       1.014   7.127  -1.356  1.00  0.00     0.013 A 
ATOM      4  C   UNL     1      -0.039   5.022  -2.852  1.00  0.00     0.102 A 
ATOM      5  C   UNL     1       0.187   4.861  -1.485  1.00  0.00     0.130 A 
ATOM      6  C   UNL     1       0.714   5.915  -0.736  1.00  0.00     0.048 A 
ENDROOT
BRANCH   1   7
ATOM      7  C   UNL     1       1.100   8.547  -3.364  1.00  0.00     0.018 A 
ATOM      8  C   UNL     1       0.100   9.263  -4.024  1.00  0.00     0.133 A 
ATOM      9  C   UNL     1       0.405  10.477  -4.641  1.00  0.00     0.079 A 
ATOM     10  C   UNL     1       2.401   9.046  -3.319  1.00  0.00     0.015 A 
ATOM     11  C   UNL     1       1.706  10.975  -4.597  1.00  0.00     0.126 A 
ATOM     12  C   UNL     1       2.705  10.259  -3.936  1.00  0.00     0.040 A 
ATOM     13  F   UNL     1      -1.155   8.797  -4.078  1.00  0.00    -0.206 F 
ATOM     14  F   UNL     1       1.999  12.140  -5.189  1.00  0.00    -0.207 F 
ENDBRANCH   1   7
BRANCH   4  15
ATOM     15  C   UNL     1      -0.588   3.934  -3.650  1.00  0.00     0.339 C 
ATOM     16  O   UNL     1      -0.276   3.677  -4.816  1.00  0.00    -0.246 OA
BRANCH  15  17
ATOM     17  O   UNL     1      -1.508   3.202  -2.966  1.00  0.00    -0.478 OA
ATOM     18  H   UNL     1      -1.537   3.447  -2.017  1.00  0.00     0.297 HD
ENDBRANCH  15  17
ENDBRANCH   4  15
BRANCH   5  19
ATOM     19  O   UNL     1      -0.100   3.684  -0.861  1.00  0.00    -0.507 OA
ATOM     20  H   UNL     1       0.621   3.468  -0.244  1.00  0.00     0.293 HD
ENDBRANCH   5  19
TORSDOF 4
ENDMDL
MODEL 7
REMARK VINA RESULT:    -4.204      8.022      9.588
REMARK INTER + INTRA:          -5.520
REMARK INTER:                  -4.537
REMARK INTRA:                  -0.983
REMARK UNBOUND:                -0.579
REMARK SMILES O=C(O)c1cc(-c2ccc(F)cc2F)ccc1O
REMARK SMILES IDX 6 1 5 2 15 3 4 4 17 5 16 6 7 7 13 8 12 9 8 10 10 11 9 12
REMARK SMILES IDX 14 13 11 14 2 15 1 16 3 17 18 19
REMARK H PARENT 3 18 18 20
ROOT
ATOM      1  C   UNL     1      -1.720  -0.506   1.718  1.00  0.00    -0.014 A 
ATOM      2  C   UNL     1      -1.722   0.269   2.877  1.00  0.00     0.028 A 
ATOM      3  C   UNL     1      -2.924  -0.831   1.094  1.00  0.00     0.013 A 
ATOM      4  C   UNL     1      -2.928   0.720   3.412  1.00  0.00     0.102 A 
ATOM      5  C   UNL     1      -4.133   0.396   2.788  1.00  0.00     0.130 A 
ATOM      6  C   UNL     1      -4.131  -0.380   1.628  1.00  0.00     0.048 A 
ENDROOT
BRANCH   1   7
ATOM      7  C   UNL     1      -0.468  -0.976   1.162  1.00  0.00     0.018 A 
ATOM      8  C   UNL     1       0.322  -0.120   0.395  1.00  0.00     0.133 A 
ATOM      9  C   UNL     1       1.528  -0.577  -0.139  1.00  0.00     0.079 A 
ATOM     10  C   UNL     1      -0.053  -2.286   1.397  1.00  0.00     0.015 A 
ATOM     11  C   UNL     1       1.942  -1.887   0.095  1.00  0.00     0.126 A 
ATOM     12  C   UNL     1       1.152  -2.742   0.864  1.00  0.00     0.040 A 
ATOM     13  F   UNL     1      -0.064   1.142   0.158  1.00  0.00    -0.206 F 
ATOM     14  F   UNL     1       3.099  -2.326  -0.417  1.00  0.00    -0.207 F 
ENDBRANCH   1   7
BRANCH   4  15
ATOM     15  C   UNL     1      -2.909   1.529   4.623  1.00  0.00     0.339 C 
ATOM     16  O   UNL     1      -3.542   2.574   4.794  1.00  0.00    -0.246 OA
BRANCH  15  17
ATOM     17  O   UNL     1      -2.099   1.006   5.584  1.00  0.00    -0.478 OA
ATOM     18  H   UNL     1      -1.579   0.246   5.247  1.00  0.00     0.297 HD
ENDBRANCH  15  17
ENDBRANCH   4  15
BRANCH   5  19
ATOM     19  O   UNL     1      -5.322   0.827   3.295  1.00  0.00    -0.507 OA
ATOM     20  H   UNL     1      -5.855   0.056   3.555  1.00  0.00     0.293 HD
ENDBRANCH   5  19
TORSDOF 4
ENDMDL
MODEL 8
REMARK VINA RESULT:    -4.185      8.209      9.548
REMARK INTER + INTRA:          -5.498
REMARK INTER:                  -4.511
REMARK INTRA:                  -0.988
REMARK UNBOUND:                -0.579
REMARK SMILES O=C(O)c1cc(-c2ccc(F)cc2F)ccc1O
REMARK SMILES IDX 6 1 5 2 15 3 4 4 17 5 16 6 7 7 13 8 12 9 8 10 10 11 9 12
REMARK SMILES IDX 14 13 11 14 2 15 1 16 3 17 18 19
REMARK H PARENT 3 18 18 20
ROOT
ATOM      1  C   UNL     1      -1.397  -0.457   2.050  1.00  0.00    -0.014 A 
ATOM      2  C   UNL     1      -2.662  -0.909   1.678  1.00  0.00     0.028 A 
ATOM      3  C   UNL     1      -1.250   0.356   3.174  1.00  0.00     0.013 A 
ATOM      4  C   UNL     1      -3.781  -0.549   2.428  1.00  0.00     0.102 A 
ATOM      5  C   UNL     1      -3.634   0.264   3.552  1.00  0.00     0.130 A 
ATOM      6  C   UNL     1      -2.368   0.717   3.925  1.00  0.00     0.048 A 
ENDROOT
BRANCH   1   7
ATOM      7  C   UNL     1      -0.236  -0.830   1.271  1.00  0.00     0.018 A 
ATOM      8  C   UNL     1       0.247  -2.139   1.316  1.00  0.00     0.133 A 
ATOM      9  C   UNL     1       1.367  -2.494   0.563  1.00  0.00     0.079 A 
ATOM     10  C   UNL     1       0.400   0.121   0.474  1.00  0.00     0.015 A 
ATOM     11  C   UNL     1       2.003  -1.542  -0.233  1.00  0.00     0.126 A 
ATOM     12  C   UNL     1       1.519  -0.234  -0.278  1.00  0.00     0.040 A 
ATOM     13  F   UNL     1      -0.351  -3.065   2.079  1.00  0.00    -0.206 F 
ATOM     14  F   UNL     1       3.078  -1.882  -0.955  1.00  0.00    -0.207 F 
ENDBRANCH   1   7
BRANCH   4  15
ATOM     15  C   UNL     1      -5.094  -1.031   2.022  1.00  0.00     0.339 C 
ATOM     16  O   UNL     1      -6.163  -0.453   2.231  1.00  0.00    -0.246 OA
BRANCH  15  17
ATOM     17  O   UNL     1      -5.029  -2.222   1.367  1.00  0.00    -0.478 OA
ATOM     18  H   UNL     1      -4.393  -2.193   0.621  1.00  0.00     0.297 HD
ENDBRANCH  15  17
ENDBRANCH   4  15
BRANCH   5  19
ATOM     19  O   UNL     1      -4.715   0.628   4.299  1.00  0.00    -0.507 OA
ATOM     20  H   UNL     1      -4.823  -0.006   5.030  1.00  0.00     0.293 HD
ENDBRANCH   5  19
TORSDOF 4
ENDMDL
MODEL 9
REMARK VINA RESULT:    -4.167      8.336     10.541
REMARK INTER + INTRA:          -5.477
REMARK INTER:                  -4.561
REMARK INTRA:                  -0.916
REMARK UNBOUND:                -0.579
REMARK SMILES O=C(O)c1cc(-c2ccc(F)cc2F)ccc1O
REMARK SMILES IDX 6 1 5 2 15 3 4 4 17 5 16 6 7 7 13 8 12 9 8 10 10 11 9 12
REMARK SMILES IDX 14 13 11 14 2 15 1 16 3 17 18 19
REMARK H PARENT 3 18 18 20
ROOT
ATOM      1  C   UNL     1      -3.554  13.892  -4.912  1.00  0.00    -0.014 A 
ATOM      2  C   UNL     1      -4.397  14.373  -5.913  1.00  0.00     0.028 A 
ATOM      3  C   UNL     1      -3.525  14.516  -3.665  1.00  0.00     0.013 A 
ATOM      4  C   UNL     1      -5.211  15.479  -5.668  1.00  0.00     0.102 A 
ATOM      5  C   UNL     1      -5.183  16.103  -4.421  1.00  0.00     0.130 A 
ATOM      6  C   UNL     1      -4.339  15.622  -3.419  1.00  0.00     0.048 A 
ENDROOT
BRANCH   1   7
ATOM      7  C   UNL     1      -2.707  12.746  -5.166  1.00  0.00     0.018 A 
ATOM      8  C   UNL     1      -1.703  12.817  -6.132  1.00  0.00     0.133 A 
ATOM      9  C   UNL     1      -0.890  11.710  -6.373  1.00  0.00     0.079 A 
ATOM     10  C   UNL     1      -2.897  11.570  -4.441  1.00  0.00     0.015 A 
ATOM     11  C   UNL     1      -1.080  10.533  -5.650  1.00  0.00     0.126 A 
ATOM     12  C   UNL     1      -2.083  10.464  -4.683  1.00  0.00     0.040 A 
ATOM     13  F   UNL     1      -1.510  13.940  -6.838  1.00  0.00    -0.206 F 
ATOM     14  F   UNL     1      -0.299   9.470  -5.881  1.00  0.00    -0.207 F 
ENDBRANCH   1   7
BRANCH   4  15
ATOM     15  C   UNL     1      -6.085  15.966  -6.727  1.00  0.00     0.339 C 
ATOM     16  O   UNL     1      -6.520  17.116  -6.821  1.00  0.00    -0.246 OA
BRANCH  15  17
ATOM     17  O   UNL     1      -6.386  14.999  -7.636  1.00  0.00    -0.478 OA
ATOM     18  H   UNL     1      -5.581  14.637  -8.063  1.00  0.00     0.297 HD
ENDBRANCH  15  17
ENDBRANCH   4  15
BRANCH   5  19
ATOM     19  O   UNL     1      -5.971  17.184  -4.161  1.00  0.00    -0.507 OA
ATOM     20  H   UNL     1      -5.493  17.993  -4.412  1.00  0.00     0.293 HD
ENDBRANCH   5  19
TORSDOF 4
ENDMDL
