MODEL 1
REMARK VINA RESULT:    -6.895      0.000      0.000
REMARK INTER + INTRA:          -8.687
REMARK INTER:                  -8.104
REMARK INTRA:                  -0.582
REMARK UNBOUND:                -0.582
REMARK SMILES O=C(O)c1cc(-c2ccc(F)cc2F)ccc1O
REMARK SMILES IDX 6 1 5 2 15 3 4 4 17 5 16 6 7 7 13 8 12 9 8 10 10 11 9 12
REMARK SMILES IDX 14 13 11 14 2 15 1 16 3 17 18 19
REMARK H PARENT 3 18 18 20
ROOT
ATOM      1  C   UNL     1       1.627  -6.301   4.066  1.00  0.00    -0.014 A 
ATOM      2  C   UNL     1       1.679  -6.299   2.673  1.00  0.00     0.028 A 
ATOM      3  C   UNL     1       1.417  -5.108   4.758  1.00  0.00     0.013 A 
ATOM      4  C   UNL     1       1.523  -5.104   1.970  1.00  0.00     0.102 A 
ATOM      5  C   UNL     1       1.313  -3.911   2.662  1.00  0.00     0.130 A 
ATOM      6  C   UNL     1       1.260  -3.913   4.057  1.00  0.00     0.048 A 
ENDROOT
BRANCH   1   7
ATOM      7  C   UNL     1       1.790  -7.540   4.796  1.00  0.00     0.018 A 
ATOM      8  C   UNL     1       1.114  -8.690   4.385  1.00  0.00     0.133 A 
ATOM      9  C   UNL     1       1.274  -9.882   5.092  1.00  0.00     0.079 A 
ATOM     10  C   UNL     1       2.627  -7.584   5.911  1.00  0.00     0.015 A 
ATOM     11  C   UNL     1       2.110  -9.925   6.207  1.00  0.00     0.126 A 
ATOM     12  C   UNL     1       2.787  -8.776   6.616  1.00  0.00     0.040 A 
ATOM     13  F   UNL     1       0.304  -8.664   3.317  1.00  0.00    -0.206 F 
ATOM     14  F   UNL     1       2.265 -11.070   6.885  1.00  0.00    -0.207 F 
ENDBRANCH   1   7
BRANCH   4  15
ATOM     15  C   UNL     1       1.581  -5.124   0.515  1.00  0.00     0.339 C 
ATOM     16  O   UNL     1       2.311  -4.412  -0.179  1.00  0.00    -0.246 OA
BRANCH  15  17
ATOM     17  O   UNL     1       0.726  -6.033  -0.026  1.00  0.00    -0.478 OA
ATOM     18  H   UNL     1       0.003  -5.601  -0.527  1.00  0.00     0.297 HD
ENDBRANCH  15  17
ENDBRANCH   4  15
BRANCH   5  19
ATOM     19  O   UNL     1       1.157  -2.733   1.994  1.00  0.00    -0.507 OA
ATOM     20  H   UNL     1       1.275  -2.890   1.042  1.00  0.00     0.293 HD
ENDBRANCH   5  19
TORSDOF 4
ENDMDL
MODEL 2
REMARK VINA RESULT:    -6.885      1.122      1.605
REMARK INTER + INTRA:          -8.676
REMARK INTER:                  -8.093
REMARK INTRA:                  -0.583
REMARK UNBOUND:                -0.582
REMARK SMILES O=C(O)c1cc(-c2ccc(F)cc2F)ccc1O
REMARK SMILES IDX 6 1 5 2 15 3 4 4 17 5 16 6 7 7 13 8 12 9 8 10 10 11 9 12
REMARK SMILES IDX 14 13 11 14 2 15 1 16 3 17 18 19
REMARK H PARENT 3 18 18 20
ROOT
ATOM      1  C   UNL     1       1.648  -6.282   4.077  1.00  0.00    -0.014 A 
ATOM      2  C   UNL     1       1.697  -6.285   2.684  1.00  0.00     0.028 A 
ATOM      3  C   UNL     1       1.435  -5.087   4.765  1.00  0.00     0.013 A 
ATOM      4  C   UNL     1       1.533  -5.094   1.977  1.00  0.00     0.102 A 
ATOM      5  C   UNL     1       1.320  -3.899   2.664  1.00  0.00     0.130 A 
ATOM      6  C   UNL     1       1.271  -3.896   4.059  1.00  0.00     0.048 A 
ENDROOT
BRANCH   1   7
ATOM      7  C   UNL     1       1.819  -7.517   4.811  1.00  0.00     0.018 A 
ATOM      8  C   UNL     1       2.671  -7.564   5.915  1.00  0.00     0.133 A 
ATOM      9  C   UNL     1       2.833  -8.757   6.620  1.00  0.00     0.079 A 
ATOM     10  C   UNL     1       1.130  -8.662   4.413  1.00  0.00     0.015 A 
ATOM     11  C   UNL     1       2.145  -9.902   6.221  1.00  0.00     0.126 A 
ATOM     12  C   UNL     1       1.293  -9.854   5.118  1.00  0.00     0.040 A 
ATOM     13  F   UNL     1       3.343  -6.473   6.309  1.00  0.00    -0.206 F 
ATOM     14  F   UNL     1       2.300 -11.048   6.897  1.00  0.00    -0.207 F 
ENDBRANCH   1   7
BRANCH   4  15
ATOM     15  C   UNL     1       1.588  -5.119   0.522  1.00  0.00     0.339 C 
ATOM     16  O   UNL     1       2.316  -4.410  -0.178  1.00  0.00    -0.246 OA
BRANCH  15  17
ATOM     17  O   UNL     1       0.730  -6.030  -0.014  1.00  0.00    -0.478 OA
ATOM     18  H   UNL     1       1.053  -6.373  -0.873  1.00  0.00     0.297 HD
ENDBRANCH  15  17
ENDBRANCH   4  15
BRANCH   5  19
ATOM     19  O   UNL     1       1.157  -2.724   1.992  1.00  0.00    -0.507 OA
ATOM     20  H   UNL     1       1.852  -2.647   1.315  1.00  0.00     0.293 HD
ENDBRANCH   5  19
TORSDOF 4
ENDMDL
MODEL 3
REMARK VINA RESULT:    -6.879      1.233      2.714
REMARK INTER + INTRA:          -8.668
REMARK INTER:                  -8.088
REMARK INTRA:                  -0.580
REMARK UNBOUND:                -0.582
REMARK SMILES O=C(O)c1cc(-c2ccc(F)cc2F)ccc1O
REMARK SMILES IDX 6 1 5 2 15 3 4 4 17 5 16 6 7 7 13 8 12 9 8 10 10 11 9 12
REMARK SMILES IDX 14 13 11 14 2 15 1 16 3 17 18 19
REMARK H PARENT 3 18 18 20
ROOT
ATOM      1  C   UNL     1       1.660  -6.304   4.053  1.00  0.00    -0.014 A 
ATOM      2  C   UNL     1       1.463  -5.132   4.783  1.00  0.00     0.028 A 
ATOM      3  C   UNL     1       1.714  -6.256   2.660  1.00  0.00     0.013 A 
ATOM      4  C   UNL     1       1.319  -3.913   4.121  1.00  0.00     0.102 A 
ATOM      5  C   UNL     1       1.373  -3.866   2.728  1.00  0.00     0.130 A 
ATOM      6  C   UNL     1       1.571  -5.038   1.997  1.00  0.00     0.048 A 
ENDROOT
BRANCH   1   7
ATOM      7  C   UNL     1       1.808  -7.569   4.739  1.00  0.00     0.018 A 
ATOM      8  C   UNL     1       1.105  -8.691   4.299  1.00  0.00     0.133 A 
ATOM      9  C   UNL     1       1.250  -9.909   4.964  1.00  0.00     0.079 A 
ATOM     10  C   UNL     1       2.657  -7.665   5.842  1.00  0.00     0.015 A 
ATOM     11  C   UNL     1       2.098 -10.005   6.067  1.00  0.00     0.126 A 
ATOM     12  C   UNL     1       2.802  -8.883   6.505  1.00  0.00     0.040 A 
ATOM     13  F   UNL     1       0.283  -8.614   3.243  1.00  0.00    -0.206 F 
ATOM     14  F   UNL     1       2.238 -11.174   6.705  1.00  0.00    -0.207 F 
ENDBRANCH   1   7
BRANCH   4  15
ATOM     15  C   UNL     1       1.114  -2.701   4.901  1.00  0.00     0.339 C 
ATOM     16  O   UNL     1       0.191  -1.898   4.744  1.00  0.00    -0.246 OA
BRANCH  15  17
ATOM     17  O   UNL     1       2.069  -2.531   5.856  1.00  0.00    -0.478 OA
ATOM     18  H   UNL     1       2.800  -3.177   5.759  1.00  0.00     0.297 HD
ENDBRANCH  15  17
ENDBRANCH   4  15
BRANCH   5  19
ATOM     19  O   UNL     1       1.235  -2.684   2.061  1.00  0.00    -0.507 OA
ATOM     20  H   UNL     1       2.083  -2.456   1.641  1.00  0.00     0.293 HD
ENDBRANCH   5  19
TORSDOF 4
ENDMDL
MODEL 4
REMARK VINA RESULT:    -6.835      1.671      3.165
REMARK INTER + INTRA:          -8.617
REMARK INTER:                  -8.007
REMARK INTRA:                  -0.610
REMARK UNBOUND:                -0.582
REMARK SMILES O=C(O)c1cc(-c2ccc(F)cc2F)ccc1O
REMARK SMILES IDX 6 1 5 2 15 3 4 4 17 5 16 6 7 7 13 8 12 9 8 10 10 11 9 12
REMARK SMILES IDX 14 13 11 14 2 15 1 16 3 17 18 19
REMARK H PARENT 3 18 18 20
ROOT
ATOM      1  C   UNL     1       1.696  -6.323   4.106  1.00  0.00    -0.014 A 
ATOM      2  C   UNL     1       1.490  -5.158   4.844  1.00  0.00     0.028 A 
ATOM      3  C   UNL     1       1.746  -6.267   2.713  1.00  0.00     0.013 A 
ATOM      4  C   UNL     1       1.334  -3.936   4.189  1.00  0.00     0.102 A 
ATOM      5  C   UNL     1       1.385  -3.879   2.797  1.00  0.00     0.130 A 
ATOM      6  C   UNL     1       1.591  -5.046   2.058  1.00  0.00     0.048 A 
ENDROOT
BRANCH   1   7
ATOM      7  C   UNL     1       1.856  -7.592   4.784  1.00  0.00     0.018 A 
ATOM      8  C   UNL     1       2.688  -7.689   5.899  1.00  0.00     0.133 A 
ATOM      9  C   UNL     1       2.840  -8.914   6.550  1.00  0.00     0.079 A 
ATOM     10  C   UNL     1       1.175  -8.717   4.320  1.00  0.00     0.015 A 
ATOM     11  C   UNL     1       2.160 -10.040   6.086  1.00  0.00     0.126 A 
ATOM     12  C   UNL     1       1.327  -9.941   4.971  1.00  0.00     0.040 A 
ATOM     13  F   UNL     1       3.352  -6.618   6.356  1.00  0.00    -0.206 F 
ATOM     14  F   UNL     1       2.305 -11.216   6.710  1.00  0.00    -0.207 F 
ENDBRANCH   1   7
BRANCH   4  15
ATOM     15  C   UNL     1       1.121  -2.730   4.978  1.00  0.00     0.339 C 
ATOM     16  O   UNL     1       0.242  -1.890   4.773  1.00  0.00    -0.246 OA
BRANCH  15  17
ATOM     17  O   UNL     1       2.013  -2.615   6.000  1.00  0.00    -0.478 OA
ATOM     18  H   UNL     1       2.638  -3.369   6.025  1.00  0.00     0.297 HD
ENDBRANCH  15  17
ENDBRANCH   4  15
BRANCH   5  19
ATOM     19  O   UNL     1       1.236  -2.695   2.138  1.00  0.00    -0.507 OA
ATOM     20  H   UNL     1       0.463  -2.755   1.549  1.00  0.00     0.293 HD
ENDBRANCH   5  19
TORSDOF 4
ENDMDL
MODEL 5
REMARK VINA RESULT:    -5.451      4.058      6.297
REMARK INTER + INTRA:          -6.990
REMARK INTER:                  -5.908
REMARK INTRA:                  -1.082
REMARK UNBOUND:                -0.582
REMARK SMILES O=C(O)c1cc(-c2ccc(F)cc2F)ccc1O
REMARK SMILES IDX 6 1 5 2 15 3 4 4 17 5 16 6 7 7 13 8 12 9 8 10 10 11 9 12
REMARK SMILES IDX 14 13 11 14 2 15 1 16 3 17 18 19
REMARK H PARENT 3 18 18 20
ROOT
ATOM      1  C   UNL     1       1.888  -8.632   5.186  1.00  0.00    -0.014 A 
ATOM      2  C   UNL     1       2.768  -9.640   4.793  1.00  0.00     0.028 A 
ATOM      3  C   UNL     1       1.154  -8.767   6.365  1.00  0.00     0.013 A 
ATOM      4  C   UNL     1       2.914 -10.784   5.579  1.00  0.00     0.102 A 
ATOM      5  C   UNL     1       2.180 -10.919   6.757  1.00  0.00     0.130 A 
ATOM      6  C   UNL     1       1.300  -9.910   7.150  1.00  0.00     0.048 A 
ENDROOT
BRANCH   1   7
ATOM      7  C   UNL     1       1.735  -7.446   4.372  1.00  0.00     0.018 A 
ATOM      8  C   UNL     1       0.819  -7.433   3.319  1.00  0.00     0.133 A 
ATOM      9  C   UNL     1       0.675  -6.287   2.536  1.00  0.00     0.079 A 
ATOM     10  C   UNL     1       2.504  -6.315   4.641  1.00  0.00     0.015 A 
ATOM     11  C   UNL     1       1.444  -5.156   2.805  1.00  0.00     0.126 A 
ATOM     12  C   UNL     1       2.359  -5.170   3.858  1.00  0.00     0.040 A 
ATOM     13  F   UNL     1       0.074  -8.513   3.045  1.00  0.00    -0.206 F 
ATOM     14  F   UNL     1       1.306  -4.056   2.054  1.00  0.00    -0.207 F 
ENDBRANCH   1   7
BRANCH   4  15
ATOM     15  C   UNL     1       3.839 -11.825   5.151  1.00  0.00     0.339 C 
ATOM     16  O   UNL     1       4.123 -12.836   5.797  1.00  0.00    -0.246 OA
BRANCH  15  17
ATOM     17  O   UNL     1       4.377 -11.570   3.928  1.00  0.00    -0.478 OA
ATOM     18  H   UNL     1       4.920 -10.754   3.931  1.00  0.00     0.297 HD
ENDBRANCH  15  17
ENDBRANCH   4  15
BRANCH   5  19
ATOM     19  O   UNL     1       2.309 -12.029   7.539  1.00  0.00    -0.507 OA
ATOM     20  H   UNL     1       2.198 -11.774   8.471  1.00  0.00     0.293 HD
ENDBRANCH   5  19
TORSDOF 4
ENDMDL
MODEL 6
REMARK VINA RESULT:    -5.448      4.563      6.908
REMARK INTER + INTRA:          -6.986
REMARK INTER:                  -5.903
REMARK INTRA:                  -1.082
REMARK UNBOUND:                -0.582
REMARK SMILES O=C(O)c1cc(-c2ccc(F)cc2F)ccc1O
REMARK SMILES IDX 6 1 5 2 15 3 4 4 17 5 16 6 7 7 13 8 12 9 8 10 10 11 9 12
REMARK SMILES IDX 14 13 11 14 2 15 1 16 3 17 18 19
REMARK H PARENT 3 18 18 20
ROOT
ATOM      1  C   UNL     1       2.009  -8.455   5.507  1.00  0.00    -0.014 A 
ATOM      2  C   UNL     1       1.305  -8.794   6.661  1.00  0.00     0.028 A 
ATOM      3  C   UNL     1       2.869  -9.382   4.918  1.00  0.00     0.013 A 
ATOM      4  C   UNL     1       1.459 -10.059   7.228  1.00  0.00     0.102 A 
ATOM      5  C   UNL     1       2.320 -10.986   6.639  1.00  0.00     0.130 A 
ATOM      6  C   UNL     1       3.025 -10.647   5.484  1.00  0.00     0.048 A 
ENDROOT
BRANCH   1   7
ATOM      7  C   UNL     1       1.850  -7.142   4.920  1.00  0.00     0.018 A 
ATOM      8  C   UNL     1       2.636  -6.077   5.361  1.00  0.00     0.133 A 
ATOM      9  C   UNL     1       2.479  -4.813   4.792  1.00  0.00     0.079 A 
ATOM     10  C   UNL     1       0.910  -6.943   3.909  1.00  0.00     0.015 A 
ATOM     11  C   UNL     1       1.538  -4.614   3.783  1.00  0.00     0.126 A 
ATOM     12  C   UNL     1       0.754  -5.680   3.341  1.00  0.00     0.040 A 
ATOM     13  F   UNL     1       3.543  -6.251   6.333  1.00  0.00    -0.206 F 
ATOM     14  F   UNL     1       1.387  -3.401   3.236  1.00  0.00    -0.207 F 
ENDBRANCH   1   7
BRANCH   4  15
ATOM     15  C   UNL     1       0.714 -10.393   8.434  1.00  0.00     0.339 C 
ATOM     16  O   UNL     1       0.726 -11.489   9.000  1.00  0.00    -0.246 OA
BRANCH  15  17
ATOM     17  O   UNL     1      -0.022  -9.346   8.895  1.00  0.00    -0.478 OA
ATOM     18  H   UNL     1       0.103  -9.208   9.857  1.00  0.00     0.297 HD
ENDBRANCH  15  17
ENDBRANCH   4  15
BRANCH   5  19
ATOM     19  O   UNL     1       2.485 -12.228   7.176  1.00  0.00    -0.507 OA
ATOM     20  H   UNL     1       3.330 -12.597   6.868  1.00  0.00     0.293 HD
ENDBRANCH   5  19
TORSDOF 4
ENDMDL
MODEL 7
REMARK VINA RESULT:    -5.402      4.164      6.433
REMARK INTER + INTRA:          -6.932
REMARK INTER:                  -5.858
REMARK INTRA:                  -1.074
REMARK UNBOUND:                -0.582
REMARK SMILES O=C(O)c1cc(-c2ccc(F)cc2F)ccc1O
REMARK SMILES IDX 6 1 5 2 15 3 4 4 17 5 16 6 7 7 13 8 12 9 8 10 10 11 9 12
REMARK SMILES IDX 14 13 11 14 2 15 1 16 3 17 18 19
REMARK H PARENT 3 18 18 20
ROOT
ATOM      1  C   UNL     1       1.982  -8.465   5.431  1.00  0.00    -0.014 A 
ATOM      2  C   UNL     1       2.831  -9.420   4.874  1.00  0.00     0.028 A 
ATOM      3  C   UNL     1       1.286  -8.751   6.605  1.00  0.00     0.013 A 
ATOM      4  C   UNL     1       2.985 -10.662   5.491  1.00  0.00     0.102 A 
ATOM      5  C   UNL     1       2.288 -10.948   6.665  1.00  0.00     0.130 A 
ATOM      6  C   UNL     1       1.438  -9.992   7.222  1.00  0.00     0.048 A 
ENDROOT
BRANCH   1   7
ATOM      7  C   UNL     1       1.821  -7.177   4.791  1.00  0.00     0.018 A 
ATOM      8  C   UNL     1       2.577  -6.084   5.217  1.00  0.00     0.133 A 
ATOM      9  C   UNL     1       2.418  -4.844   4.598  1.00  0.00     0.079 A 
ATOM     10  C   UNL     1       0.910  -7.031   3.745  1.00  0.00     0.015 A 
ATOM     11  C   UNL     1       1.507  -4.697   3.553  1.00  0.00     0.126 A 
ATOM     12  C   UNL     1       0.753  -5.791   3.126  1.00  0.00     0.040 A 
ATOM     13  F   UNL     1       3.455  -6.207   6.223  1.00  0.00    -0.206 F 
ATOM     14  F   UNL     1       1.355  -3.508   2.957  1.00  0.00    -0.207 F 
ENDBRANCH   1   7
BRANCH   4  15
ATOM     15  C   UNL     1       3.877 -11.646   4.893  1.00  0.00     0.339 C 
ATOM     16  O   UNL     1       4.008 -12.813   5.271  1.00  0.00    -0.246 OA
BRANCH  15  17
ATOM     17  O   UNL     1       4.576 -11.141   3.841  1.00  0.00    -0.478 OA
ATOM     18  H   UNL     1       4.026 -11.082   3.032  1.00  0.00     0.297 HD
ENDBRANCH  15  17
ENDBRANCH   4  15
BRANCH   5  19
ATOM     19  O   UNL     1       2.425 -12.155   7.284  1.00  0.00    -0.507 OA
ATOM     20  H   UNL     1       2.581 -12.009   8.233  1.00  0.00     0.293 HD
ENDBRANCH   5  19
TORSDOF 4
ENDMDL
MODEL 8
REMARK VINA RESULT:    -5.009      9.191     11.670
REMARK INTER + INTRA:          -6.470
REMARK INTER:                  -5.408
REMARK INTRA:                  -1.062
REMARK UNBOUND:                -0.582
REMARK SMILES O=C(O)c1cc(-c2ccc(F)cc2F)ccc1O
REMARK SMILES IDX 6 1 5 2 15 3 4 4 17 5 16 6 7 7 13 8 12 9 8 10 10 11 9 12
REMARK SMILES IDX 14 13 11 14 2 15 1 16 3 17 18 19
REMARK H PARENT 3 18 18 20
ROOT
ATOM      1  C   UNL     1      -2.458 -12.674  10.675  1.00  0.00    -0.014 A 
ATOM      2  C   UNL     1      -2.875 -12.388  11.975  1.00  0.00     0.028 A 
ATOM      3  C   UNL     1      -3.067 -13.705   9.959  1.00  0.00     0.013 A 
ATOM      4  C   UNL     1      -3.900 -13.131  12.559  1.00  0.00     0.102 A 
ATOM      5  C   UNL     1      -4.509 -14.162  11.843  1.00  0.00     0.130 A 
ATOM      6  C   UNL     1      -4.092 -14.449  10.543  1.00  0.00     0.048 A 
ENDROOT
BRANCH   1   7
ATOM      7  C   UNL     1      -1.394 -11.904  10.069  1.00  0.00     0.018 A 
ATOM      8  C   UNL     1      -0.061 -12.212  10.345  1.00  0.00     0.133 A 
ATOM      9  C   UNL     1       0.962 -11.467   9.759  1.00  0.00     0.079 A 
ATOM     10  C   UNL     1      -1.702 -10.853   9.206  1.00  0.00     0.015 A 
ATOM     11  C   UNL     1       0.653 -10.415   8.897  1.00  0.00     0.126 A 
ATOM     12  C   UNL     1      -0.679 -10.108   8.620  1.00  0.00     0.040 A 
ATOM     13  F   UNL     1       0.252 -13.218  11.174  1.00  0.00    -0.206 F 
ATOM     14  F   UNL     1       1.635  -9.699   8.334  1.00  0.00    -0.207 F 
ENDBRANCH   1   7
BRANCH   4  15
ATOM     15  C   UNL     1      -4.321 -12.816  13.918  1.00  0.00     0.339 C 
ATOM     16  O   UNL     1      -4.982 -13.556  14.650  1.00  0.00    -0.246 OA
BRANCH  15  17
ATOM     17  O   UNL     1      -3.899 -11.586  14.318  1.00  0.00    -0.478 OA
ATOM     18  H   UNL     1      -4.295 -11.326  15.176  1.00  0.00     0.297 HD
ENDBRANCH  15  17
ENDBRANCH   4  15
BRANCH   5  19
ATOM     19  O   UNL     1      -5.513 -14.900  12.396  1.00  0.00    -0.507 OA
ATOM     20  H   UNL     1      -6.315 -14.352  12.452  1.00  0.00     0.293 HD
ENDBRANCH   5  19
TORSDOF 4
ENDMDL
MODEL 9
REMARK VINA RESULT:    -4.102      8.696     10.773
REMARK INTER + INTRA:          -5.404
REMARK INTER:                  -4.409
REMARK INTRA:                  -0.995
REMARK UNBOUND:                -0.582
REMARK SMILES O=C(O)c1cc(-c2ccc(F)cc2F)ccc1O
REMARK SMILES IDX 6 1 5 2 15 3 4 4 17 5 16 6 7 7 13 8 12 9 8 10 10 11 9 12
REMARK SMILES IDX 14 13 11 14 2 15 1 16 3 17 18 19
REMARK H PARENT 3 18 18 20
ROOT
ATOM      1  C   UNL     1      -1.862 -12.629  10.913  1.00  0.00    -0.014 A 
ATOM      2  C   UNL     1      -0.545 -13.086  10.916  1.00  0.00     0.028 A 
ATOM      3  C   UNL     1      -2.209 -11.507  10.161  1.00  0.00     0.013 A 
ATOM      4  C   UNL     1       0.427 -12.421  10.167  1.00  0.00     0.102 A 
ATOM      5  C   UNL     1       0.080 -11.299   9.416  1.00  0.00     0.130 A 
ATOM      6  C   UNL     1      -1.239 -10.841   9.413  1.00  0.00     0.048 A 
ENDROOT
BRANCH   1   7
ATOM      7  C   UNL     1      -2.869 -13.318  11.691  1.00  0.00     0.018 A 
ATOM      8  C   UNL     1      -3.806 -14.136  11.057  1.00  0.00     0.133 A 
ATOM      9  C   UNL     1      -4.776 -14.797  11.810  1.00  0.00     0.079 A 
ATOM     10  C   UNL     1      -2.903 -13.163  13.076  1.00  0.00     0.015 A 
ATOM     11  C   UNL     1      -4.809 -14.642  13.195  1.00  0.00     0.126 A 
ATOM     12  C   UNL     1      -3.872 -13.825  13.828  1.00  0.00     0.040 A 
ATOM     13  F   UNL     1      -3.789 -14.293   9.726  1.00  0.00    -0.206 F 
ATOM     14  F   UNL     1      -5.740 -15.277  13.919  1.00  0.00    -0.207 F 
ENDBRANCH   1   7
BRANCH   4  15
ATOM     15  C   UNL     1       1.797 -12.915  10.184  1.00  0.00     0.339 C 
ATOM     16  O   UNL     1       2.470 -13.118  11.197  1.00  0.00    -0.246 OA
BRANCH  15  17
ATOM     17  O   UNL     1       2.281 -13.140   8.932  1.00  0.00    -0.478 OA
ATOM     18  H   UNL     1       2.484 -14.088   8.784  1.00  0.00     0.297 HD
ENDBRANCH  15  17
ENDBRANCH   4  15
BRANCH   5  19
ATOM     19  O   UNL     1       1.014 -10.635   8.677  1.00  0.00    -0.507 OA
ATOM     20  H   UNL     1       0.684  -9.741   8.478  1.00  0.00     0.293 HD
ENDBRANCH   5  19
TORSDOF 4
ENDMDL
