MODEL 1
REMARK VINA RESULT:    -6.862      0.000      0.000
REMARK INTER + INTRA:          -8.688
REMARK INTER:                  -8.065
REMARK INTRA:                  -0.623
REMARK UNBOUND:                -0.623
REMARK SMILES O=C(O)c1cc(-c2ccc(F)cc2F)ccc1O
REMARK SMILES IDX 6 1 5 2 15 3 4 4 17 5 16 6 7 7 13 8 12 9 8 10 10 11 9 12
REMARK SMILES IDX 14 13 11 14 2 15 1 16 3 17 18 19
REMARK H PARENT 3 18 18 20
ROOT
ATOM      1  C   UNL     1      -4.319  -6.276  -0.466  1.00  0.00    -0.014 A 
ATOM      2  C   UNL     1      -2.972  -6.546  -0.705  1.00  0.00     0.028 A 
ATOM      3  C   UNL     1      -4.716  -4.995  -0.081  1.00  0.00     0.013 A 
ATOM      4  C   UNL     1      -2.021  -5.536  -0.559  1.00  0.00     0.102 A 
ATOM      5  C   UNL     1      -2.418  -4.255  -0.174  1.00  0.00     0.130 A 
ATOM      6  C   UNL     1      -3.766  -3.985   0.065  1.00  0.00     0.048 A 
ENDROOT
BRANCH   1   7
ATOM      7  C   UNL     1      -5.306  -7.324  -0.616  1.00  0.00     0.018 A 
ATOM      8  C   UNL     1      -5.294  -8.141  -1.746  1.00  0.00     0.133 A 
ATOM      9  C   UNL     1      -6.247  -9.150  -1.887  1.00  0.00     0.079 A 
ATOM     10  C   UNL     1      -6.270  -7.516   0.374  1.00  0.00     0.015 A 
ATOM     11  C   UNL     1      -7.211  -9.341  -0.898  1.00  0.00     0.126 A 
ATOM     12  C   UNL     1      -7.222  -8.524   0.233  1.00  0.00     0.040 A 
ATOM     13  F   UNL     1      -4.376  -7.968  -2.708  1.00  0.00    -0.206 F 
ATOM     14  F   UNL     1      -8.127 -10.309  -1.032  1.00  0.00    -0.207 F 
ENDBRANCH   1   7
BRANCH   4  15
ATOM     15  C   UNL     1      -0.620  -5.838  -0.814  1.00  0.00     0.339 C 
ATOM     16  O   UNL     1       0.317  -5.575  -0.055  1.00  0.00    -0.246 OA
BRANCH  15  17
ATOM     17  O   UNL     1      -0.433  -6.461  -2.009  1.00  0.00    -0.478 OA
ATOM     18  H   UNL     1      -0.772  -7.381  -1.997  1.00  0.00     0.297 HD
ENDBRANCH  15  17
ENDBRANCH   4  15
BRANCH   5  19
ATOM     19  O   UNL     1      -1.505  -3.254  -0.027  1.00  0.00    -0.507 OA
ATOM     20  H   UNL     1      -0.884  -3.278  -0.775  1.00  0.00     0.293 HD
ENDBRANCH   5  19
TORSDOF 4
ENDMDL
MODEL 2
REMARK VINA RESULT:    -6.856      1.128      1.611
REMARK INTER + INTRA:          -8.681
REMARK INTER:                  -8.080
REMARK INTRA:                  -0.601
REMARK UNBOUND:                -0.623
REMARK SMILES O=C(O)c1cc(-c2ccc(F)cc2F)ccc1O
REMARK SMILES IDX 6 1 5 2 15 3 4 4 17 5 16 6 7 7 13 8 12 9 8 10 10 11 9 12
REMARK SMILES IDX 14 13 11 14 2 15 1 16 3 17 18 19
REMARK H PARENT 3 18 18 20
ROOT
ATOM      1  C   UNL     1      -4.319  -6.268  -0.401  1.00  0.00    -0.014 A 
ATOM      2  C   UNL     1      -2.977  -6.539  -0.663  1.00  0.00     0.028 A 
ATOM      3  C   UNL     1      -4.708  -4.989  -0.002  1.00  0.00     0.013 A 
ATOM      4  C   UNL     1      -2.022  -5.531  -0.526  1.00  0.00     0.102 A 
ATOM      5  C   UNL     1      -2.411  -4.252  -0.127  1.00  0.00     0.130 A 
ATOM      6  C   UNL     1      -3.754  -3.981   0.135  1.00  0.00     0.048 A 
ENDROOT
BRANCH   1   7
ATOM      7  C   UNL     1      -5.310  -7.313  -0.541  1.00  0.00     0.018 A 
ATOM      8  C   UNL     1      -6.268  -7.509   0.455  1.00  0.00     0.133 A 
ATOM      9  C   UNL     1      -7.221  -8.518   0.316  1.00  0.00     0.079 A 
ATOM     10  C   UNL     1      -5.307  -8.125  -1.675  1.00  0.00     0.015 A 
ATOM     11  C   UNL     1      -7.217  -9.330  -0.818  1.00  0.00     0.126 A 
ATOM     12  C   UNL     1      -6.261  -9.133  -1.814  1.00  0.00     0.040 A 
ATOM     13  F   UNL     1      -6.283  -6.740   1.552  1.00  0.00    -0.206 F 
ATOM     14  F   UNL     1      -8.132 -10.299  -0.952  1.00  0.00    -0.207 F 
ENDBRANCH   1   7
BRANCH   4  15
ATOM     15  C   UNL     1      -0.625  -5.834  -0.805  1.00  0.00     0.339 C 
ATOM     16  O   UNL     1       0.323  -5.579  -0.058  1.00  0.00    -0.246 OA
BRANCH  15  17
ATOM     17  O   UNL     1      -0.458  -6.448  -2.007  1.00  0.00    -0.478 OA
ATOM     18  H   UNL     1       0.408  -6.230  -2.411  1.00  0.00     0.297 HD
ENDBRANCH  15  17
ENDBRANCH   4  15
BRANCH   5  19
ATOM     19  O   UNL     1      -1.493  -3.253   0.012  1.00  0.00    -0.507 OA
ATOM     20  H   UNL     1      -0.977  -3.181  -0.809  1.00  0.00     0.293 HD
ENDBRANCH   5  19
TORSDOF 4
ENDMDL
MODEL 3
REMARK VINA RESULT:    -6.844      1.763      3.243
REMARK INTER + INTRA:          -8.666
REMARK INTER:                  -7.896
REMARK INTRA:                  -0.771
REMARK UNBOUND:                -0.623
REMARK SMILES O=C(O)c1cc(-c2ccc(F)cc2F)ccc1O
REMARK SMILES IDX 6 1 5 2 15 3 4 4 17 5 16 6 7 7 13 8 12 9 8 10 10 11 9 12
REMARK SMILES IDX 14 13 11 14 2 15 1 16 3 17 18 19
REMARK H PARENT 3 18 18 20
ROOT
ATOM      1  C   UNL     1      -4.450  -6.267  -0.286  1.00  0.00    -0.014 A 
ATOM      2  C   UNL     1      -4.958  -4.996  -0.023  1.00  0.00     0.028 A 
ATOM      3  C   UNL     1      -3.071  -6.469  -0.344  1.00  0.00     0.013 A 
ATOM      4  C   UNL     1      -4.088  -3.925   0.181  1.00  0.00     0.102 A 
ATOM      5  C   UNL     1      -2.709  -4.127   0.123  1.00  0.00     0.130 A 
ATOM      6  C   UNL     1      -2.200  -5.399  -0.140  1.00  0.00     0.048 A 
ENDROOT
BRANCH   1   7
ATOM      7  C   UNL     1      -5.352  -7.379  -0.500  1.00  0.00     0.018 A 
ATOM      8  C   UNL     1      -6.339  -7.670   0.442  1.00  0.00     0.133 A 
ATOM      9  C   UNL     1      -7.207  -8.743   0.232  1.00  0.00     0.079 A 
ATOM     10  C   UNL     1      -5.233  -8.157  -1.651  1.00  0.00     0.015 A 
ATOM     11  C   UNL     1      -7.088  -9.522  -0.918  1.00  0.00     0.126 A 
ATOM     12  C   UNL     1      -6.101  -9.228  -1.860  1.00  0.00     0.040 A 
ATOM     13  F   UNL     1      -6.465  -6.933   1.554  1.00  0.00    -0.206 F 
ATOM     14  F   UNL     1      -7.920 -10.551  -1.121  1.00  0.00    -0.207 F 
ENDBRANCH   1   7
BRANCH   4  15
ATOM     15  C   UNL     1      -4.638  -2.605   0.455  1.00  0.00     0.339 C 
ATOM     16  O   UNL     1      -4.173  -1.539   0.045  1.00  0.00    -0.246 OA
BRANCH  15  17
ATOM     17  O   UNL     1      -5.755  -2.660   1.231  1.00  0.00    -0.478 OA
ATOM     18  H   UNL     1      -6.567  -2.779   0.694  1.00  0.00     0.297 HD
ENDBRANCH  15  17
ENDBRANCH   4  15
BRANCH   5  19
ATOM     19  O   UNL     1      -1.841  -3.094   0.321  1.00  0.00    -0.507 OA
ATOM     20  H   UNL     1      -0.950  -3.370   0.044  1.00  0.00     0.293 HD
ENDBRANCH   5  19
TORSDOF 4
ENDMDL
MODEL 4
REMARK VINA RESULT:    -6.826      1.375      2.808
REMARK INTER + INTRA:          -8.645
REMARK INTER:                  -7.876
REMARK INTRA:                  -0.769
REMARK UNBOUND:                -0.623
REMARK SMILES O=C(O)c1cc(-c2ccc(F)cc2F)ccc1O
REMARK SMILES IDX 6 1 5 2 15 3 4 4 17 5 16 6 7 7 13 8 12 9 8 10 10 11 9 12
REMARK SMILES IDX 14 13 11 14 2 15 1 16 3 17 18 19
REMARK H PARENT 3 18 18 20
ROOT
ATOM      1  C   UNL     1      -4.429  -6.270  -0.330  1.00  0.00    -0.014 A 
ATOM      2  C   UNL     1      -4.943  -5.004  -0.055  1.00  0.00     0.028 A 
ATOM      3  C   UNL     1      -3.049  -6.464  -0.392  1.00  0.00     0.013 A 
ATOM      4  C   UNL     1      -4.078  -3.930   0.159  1.00  0.00     0.102 A 
ATOM      5  C   UNL     1      -2.698  -4.124   0.097  1.00  0.00     0.130 A 
ATOM      6  C   UNL     1      -2.184  -5.392  -0.179  1.00  0.00     0.048 A 
ENDROOT
BRANCH   1   7
ATOM      7  C   UNL     1      -5.326  -7.383  -0.553  1.00  0.00     0.018 A 
ATOM      8  C   UNL     1      -5.215  -8.151  -1.714  1.00  0.00     0.133 A 
ATOM      9  C   UNL     1      -6.082  -9.223  -1.925  1.00  0.00     0.079 A 
ATOM     10  C   UNL     1      -6.302  -7.689   0.395  1.00  0.00     0.015 A 
ATOM     11  C   UNL     1      -7.058  -9.528  -0.977  1.00  0.00     0.126 A 
ATOM     12  C   UNL     1      -7.167  -8.762   0.184  1.00  0.00     0.040 A 
ATOM     13  F   UNL     1      -4.285  -7.868  -2.636  1.00  0.00    -0.206 F 
ATOM     14  F   UNL     1      -7.891 -10.558  -1.179  1.00  0.00    -0.207 F 
ENDBRANCH   1   7
BRANCH   4  15
ATOM     15  C   UNL     1      -4.635  -2.615   0.446  1.00  0.00     0.339 C 
ATOM     16  O   UNL     1      -4.175  -1.543   0.047  1.00  0.00    -0.246 OA
BRANCH  15  17
ATOM     17  O   UNL     1      -5.752  -2.683   1.221  1.00  0.00    -0.478 OA
ATOM     18  H   UNL     1      -6.119  -1.794   1.411  1.00  0.00     0.297 HD
ENDBRANCH  15  17
ENDBRANCH   4  15
BRANCH   5  19
ATOM     19  O   UNL     1      -1.836  -3.089   0.303  1.00  0.00    -0.507 OA
ATOM     20  H   UNL     1      -2.100  -2.339  -0.259  1.00  0.00     0.293 HD
ENDBRANCH   5  19
TORSDOF 4
ENDMDL
MODEL 5
REMARK VINA RESULT:    -5.522      1.275      1.352
REMARK INTER + INTRA:          -7.113
REMARK INTER:                  -6.582
REMARK INTRA:                  -0.531
REMARK UNBOUND:                -0.623
REMARK SMILES O=C(O)c1cc(-c2ccc(F)cc2F)ccc1O
REMARK SMILES IDX 6 1 5 2 15 3 4 4 17 5 16 6 7 7 13 8 12 9 8 10 10 11 9 12
REMARK SMILES IDX 14 13 11 14 2 15 1 16 3 17 18 19
REMARK H PARENT 3 18 18 20
ROOT
ATOM      1  C   UNL     1      -4.756  -6.739  -0.759  1.00  0.00    -0.014 A 
ATOM      2  C   UNL     1      -3.434  -7.084  -1.038  1.00  0.00     0.028 A 
ATOM      3  C   UNL     1      -5.071  -5.435  -0.377  1.00  0.00     0.013 A 
ATOM      4  C   UNL     1      -2.426  -6.125  -0.936  1.00  0.00     0.102 A 
ATOM      5  C   UNL     1      -2.741  -4.821  -0.554  1.00  0.00     0.130 A 
ATOM      6  C   UNL     1      -4.064  -4.476  -0.274  1.00  0.00     0.048 A 
ENDROOT
BRANCH   1   7
ATOM      7  C   UNL     1      -5.802  -7.734  -0.863  1.00  0.00     0.018 A 
ATOM      8  C   UNL     1      -5.559  -9.050  -0.468  1.00  0.00     0.133 A 
ATOM      9  C   UNL     1      -6.570 -10.006  -0.571  1.00  0.00     0.079 A 
ATOM     10  C   UNL     1      -7.055  -7.374  -1.360  1.00  0.00     0.015 A 
ATOM     11  C   UNL     1      -7.822  -9.647  -1.068  1.00  0.00     0.126 A 
ATOM     12  C   UNL     1      -8.064  -8.330  -1.462  1.00  0.00     0.040 A 
ATOM     13  F   UNL     1      -4.359  -9.413   0.008  1.00  0.00    -0.206 F 
ATOM     14  F   UNL     1      -8.793 -10.564  -1.167  1.00  0.00    -0.207 F 
ENDBRANCH   1   7
BRANCH   4  15
ATOM     15  C   UNL     1      -1.052  -6.504  -1.232  1.00  0.00     0.339 C 
ATOM     16  O   UNL     1      -0.435  -7.427  -0.694  1.00  0.00    -0.246 OA
BRANCH  15  17
ATOM     17  O   UNL     1      -0.493  -5.719  -2.192  1.00  0.00    -0.478 OA
ATOM     18  H   UNL     1      -0.718  -4.774  -2.067  1.00  0.00     0.297 HD
ENDBRANCH  15  17
ENDBRANCH   4  15
BRANCH   5  19
ATOM     19  O   UNL     1      -1.772  -3.868  -0.448  1.00  0.00    -0.507 OA
ATOM     20  H   UNL     1      -0.911  -4.266  -0.666  1.00  0.00     0.293 HD
ENDBRANCH   5  19
TORSDOF 4
ENDMDL
MODEL 6
REMARK VINA RESULT:    -5.351      4.064      6.320
REMARK INTER + INTRA:          -6.912
REMARK INTER:                  -5.827
REMARK INTRA:                  -1.086
REMARK UNBOUND:                -0.623
REMARK SMILES O=C(O)c1cc(-c2ccc(F)cc2F)ccc1O
REMARK SMILES IDX 6 1 5 2 15 3 4 4 17 5 16 6 7 7 13 8 12 9 8 10 10 11 9 12
REMARK SMILES IDX 14 13 11 14 2 15 1 16 3 17 18 19
REMARK H PARENT 3 18 18 20
ROOT
ATOM      1  C   UNL     1      -5.828  -8.320  -0.881  1.00  0.00    -0.014 A 
ATOM      2  C   UNL     1      -5.685  -9.679  -0.606  1.00  0.00     0.028 A 
ATOM      3  C   UNL     1      -7.062  -7.818  -1.295  1.00  0.00     0.013 A 
ATOM      4  C   UNL     1      -6.775 -10.538  -0.745  1.00  0.00     0.102 A 
ATOM      5  C   UNL     1      -8.009 -10.037  -1.159  1.00  0.00     0.130 A 
ATOM      6  C   UNL     1      -8.153  -8.676  -1.434  1.00  0.00     0.048 A 
ENDROOT
BRANCH   1   7
ATOM      7  C   UNL     1      -4.697  -7.429  -0.738  1.00  0.00     0.018 A 
ATOM      8  C   UNL     1      -3.846  -7.198  -1.820  1.00  0.00     0.133 A 
ATOM      9  C   UNL     1      -2.757  -6.338  -1.678  1.00  0.00     0.079 A 
ATOM     10  C   UNL     1      -4.459  -6.799   0.483  1.00  0.00     0.015 A 
ATOM     11  C   UNL     1      -2.518  -5.709  -0.456  1.00  0.00     0.126 A 
ATOM     12  C   UNL     1      -3.371  -5.939   0.624  1.00  0.00     0.040 A 
ATOM     13  F   UNL     1      -4.059  -7.798  -3.000  1.00  0.00    -0.206 F 
ATOM     14  F   UNL     1      -1.473  -4.884  -0.319  1.00  0.00    -0.207 F 
ENDBRANCH   1   7
BRANCH   4  15
ATOM     15  C   UNL     1      -6.605 -11.955  -0.452  1.00  0.00     0.339 C 
ATOM     16  O   UNL     1      -7.514 -12.786  -0.398  1.00  0.00    -0.246 OA
BRANCH  15  17
ATOM     17  O   UNL     1      -5.303 -12.287  -0.239  1.00  0.00    -0.478 OA
ATOM     18  H   UNL     1      -5.207 -13.219   0.049  1.00  0.00     0.297 HD
ENDBRANCH  15  17
ENDBRANCH   4  15
BRANCH   5  19
ATOM     19  O   UNL     1      -9.087 -10.859  -1.300  1.00  0.00    -0.507 OA
ATOM     20  H   UNL     1      -8.776 -11.762  -1.485  1.00  0.00     0.293 HD
ENDBRANCH   5  19
TORSDOF 4
ENDMDL
MODEL 7
REMARK VINA RESULT:    -5.344      4.629      6.930
REMARK INTER + INTRA:          -6.903
REMARK INTER:                  -5.819
REMARK INTRA:                  -1.084
REMARK UNBOUND:                -0.623
REMARK SMILES O=C(O)c1cc(-c2ccc(F)cc2F)ccc1O
REMARK SMILES IDX 6 1 5 2 15 3 4 4 17 5 16 6 7 7 13 8 12 9 8 10 10 11 9 12
REMARK SMILES IDX 14 13 11 14 2 15 1 16 3 17 18 19
REMARK H PARENT 3 18 18 20
ROOT
ATOM      1  C   UNL     1      -6.231  -8.054  -0.552  1.00  0.00    -0.014 A 
ATOM      2  C   UNL     1      -7.540  -7.978  -1.027  1.00  0.00     0.028 A 
ATOM      3  C   UNL     1      -5.669  -9.295  -0.253  1.00  0.00     0.013 A 
ATOM      4  C   UNL     1      -8.288  -9.143  -1.203  1.00  0.00     0.102 A 
ATOM      5  C   UNL     1      -7.725 -10.384  -0.904  1.00  0.00     0.130 A 
ATOM      6  C   UNL     1      -6.415 -10.460  -0.429  1.00  0.00     0.048 A 
ENDROOT
BRANCH   1   7
ATOM      7  C   UNL     1      -5.456  -6.846  -0.368  1.00  0.00     0.018 A 
ATOM      8  C   UNL     1      -5.504  -6.161   0.846  1.00  0.00     0.133 A 
ATOM      9  C   UNL     1      -4.755  -4.996   1.019  1.00  0.00     0.079 A 
ATOM     10  C   UNL     1      -4.657  -6.369  -1.407  1.00  0.00     0.015 A 
ATOM     11  C   UNL     1      -3.958  -4.519  -0.020  1.00  0.00     0.126 A 
ATOM     12  C   UNL     1      -3.909  -5.206  -1.233  1.00  0.00     0.040 A 
ATOM     13  F   UNL     1      -6.268  -6.605   1.854  1.00  0.00    -0.206 F 
ATOM     14  F   UNL     1      -3.239  -3.401   0.145  1.00  0.00    -0.207 F 
ENDBRANCH   1   7
BRANCH   4  15
ATOM     15  C   UNL     1      -9.653  -9.042  -1.700  1.00  0.00     0.339 C 
ATOM     16  O   UNL     1     -10.351  -9.990  -2.066  1.00  0.00    -0.246 OA
BRANCH  15  17
ATOM     17  O   UNL     1     -10.102  -7.757  -1.722  1.00  0.00    -0.478 OA
ATOM     18  H   UNL     1     -10.629  -7.569  -2.527  1.00  0.00     0.297 HD
ENDBRANCH  15  17
ENDBRANCH   4  15
BRANCH   5  19
ATOM     19  O   UNL     1      -8.439 -11.533  -1.069  1.00  0.00    -0.507 OA
ATOM     20  H   UNL     1      -7.850 -12.223  -1.422  1.00  0.00     0.293 HD
ENDBRANCH   5  19
TORSDOF 4
ENDMDL
MODEL 8
REMARK VINA RESULT:    -5.313      4.177      6.475
REMARK INTER + INTRA:          -6.867
REMARK INTER:                  -5.795
REMARK INTRA:                  -1.072
REMARK UNBOUND:                -0.623
REMARK SMILES O=C(O)c1cc(-c2ccc(F)cc2F)ccc1O
REMARK SMILES IDX 6 1 5 2 15 3 4 4 17 5 16 6 7 7 13 8 12 9 8 10 10 11 9 12
REMARK SMILES IDX 14 13 11 14 2 15 1 16 3 17 18 19
REMARK H PARENT 3 18 18 20
ROOT
ATOM      1  C   UNL     1      -6.255  -8.211  -0.623  1.00  0.00    -0.014 A 
ATOM      2  C   UNL     1      -5.809  -9.505  -0.356  1.00  0.00     0.028 A 
ATOM      3  C   UNL     1      -7.554  -8.004  -1.088  1.00  0.00     0.013 A 
ATOM      4  C   UNL     1      -6.660 -10.592  -0.554  1.00  0.00     0.102 A 
ATOM      5  C   UNL     1      -7.959 -10.385  -1.019  1.00  0.00     0.130 A 
ATOM      6  C   UNL     1      -8.406  -9.090  -1.286  1.00  0.00     0.048 A 
ENDROOT
BRANCH   1   7
ATOM      7  C   UNL     1      -5.372  -7.083  -0.419  1.00  0.00     0.018 A 
ATOM      8  C   UNL     1      -5.421  -6.363   0.775  1.00  0.00     0.133 A 
ATOM      9  C   UNL     1      -4.568  -5.276   0.968  1.00  0.00     0.079 A 
ATOM     10  C   UNL     1      -4.470  -6.718  -1.418  1.00  0.00     0.015 A 
ATOM     11  C   UNL     1      -3.667  -4.910  -0.032  1.00  0.00     0.126 A 
ATOM     12  C   UNL     1      -3.618  -5.632  -1.224  1.00  0.00     0.040 A 
ATOM     13  F   UNL     1      -6.283  -6.699   1.745  1.00  0.00    -0.206 F 
ATOM     14  F   UNL     1      -2.848  -3.867   0.152  1.00  0.00    -0.207 F 
ENDBRANCH   1   7
BRANCH   4  15
ATOM     15  C   UNL     1      -6.175 -11.935  -0.269  1.00  0.00     0.339 C 
ATOM     16  O   UNL     1      -6.724 -12.982  -0.621  1.00  0.00    -0.246 OA
BRANCH  15  17
ATOM     17  O   UNL     1      -5.017 -11.927   0.445  1.00  0.00    -0.478 OA
ATOM     18  H   UNL     1      -4.676 -11.018   0.577  1.00  0.00     0.297 HD
ENDBRANCH  15  17
ENDBRANCH   4  15
BRANCH   5  19
ATOM     19  O   UNL     1      -8.807 -11.433  -1.219  1.00  0.00    -0.507 OA
ATOM     20  H   UNL     1      -8.310 -12.265  -1.126  1.00  0.00     0.293 HD
ENDBRANCH   5  19
TORSDOF 4
ENDMDL
MODEL 9
REMARK VINA RESULT:    -4.585      2.214      3.403
REMARK INTER + INTRA:          -6.012
REMARK INTER:                  -5.055
REMARK INTRA:                  -0.957
REMARK UNBOUND:                -0.623
REMARK SMILES O=C(O)c1cc(-c2ccc(F)cc2F)ccc1O
REMARK SMILES IDX 6 1 5 2 15 3 4 4 17 5 16 6 7 7 13 8 12 9 8 10 10 11 9 12
REMARK SMILES IDX 14 13 11 14 2 15 1 16 3 17 18 19
REMARK H PARENT 3 18 18 20
ROOT
ATOM      1  C   UNL     1      -5.337  -7.645  -0.904  1.00  0.00    -0.014 A 
ATOM      2  C   UNL     1      -5.543  -6.714   0.114  1.00  0.00     0.028 A 
ATOM      3  C   UNL     1      -4.446  -7.361  -1.939  1.00  0.00     0.013 A 
ATOM      4  C   UNL     1      -4.858  -5.499   0.097  1.00  0.00     0.102 A 
ATOM      5  C   UNL     1      -3.967  -5.215  -0.938  1.00  0.00     0.130 A 
ATOM      6  C   UNL     1      -3.761  -6.147  -1.957  1.00  0.00     0.048 A 
ENDROOT
BRANCH   1   7
ATOM      7  C   UNL     1      -6.048  -8.905  -0.887  1.00  0.00     0.018 A 
ATOM      8  C   UNL     1      -7.430  -8.932  -1.079  1.00  0.00     0.133 A 
ATOM      9  C   UNL     1      -8.112 -10.149  -1.063  1.00  0.00     0.079 A 
ATOM     10  C   UNL     1      -5.349 -10.094  -0.680  1.00  0.00     0.015 A 
ATOM     11  C   UNL     1      -7.413 -11.338  -0.855  1.00  0.00     0.126 A 
ATOM     12  C   UNL     1      -6.031 -11.310  -0.664  1.00  0.00     0.040 A 
ATOM     13  F   UNL     1      -8.117  -7.798  -1.277  1.00  0.00    -0.206 F 
ATOM     14  F   UNL     1      -8.067 -12.506  -0.838  1.00  0.00    -0.207 F 
ENDBRANCH   1   7
BRANCH   4  15
ATOM     15  C   UNL     1      -5.086  -4.540   1.169  1.00  0.00     0.339 C 
ATOM     16  O   UNL     1      -4.866  -3.328   1.102  1.00  0.00    -0.246 OA
BRANCH  15  17
ATOM     17  O   UNL     1      -5.585  -5.126   2.291  1.00  0.00    -0.478 OA
ATOM     18  H   UNL     1      -6.318  -5.744   2.085  1.00  0.00     0.297 HD
ENDBRANCH  15  17
ENDBRANCH   4  15
BRANCH   5  19
ATOM     19  O   UNL     1      -3.287  -4.034  -0.973  1.00  0.00    -0.507 OA
ATOM     20  H   UNL     1      -2.494  -4.108  -0.414  1.00  0.00     0.293 HD
ENDBRANCH   5  19
TORSDOF 4
ENDMDL
