MODEL 1
REMARK VINA RESULT:    -5.197      0.000      0.000
REMARK INTER + INTRA:          -7.184
REMARK INTER:                  -6.412
REMARK INTRA:                  -0.772
REMARK UNBOUND:                -0.772
REMARK SMILES Cc1ccc(C(=O)c2cc(O)c(O)c([N+](=O)[O-])c2)cc1
REMARK SMILES IDX 8 1 18 2 9 3 14 4 10 5 12 6 6 7 7 8 5 9 4 10 19 11 3 12
REMARK SMILES IDX 20 13 2 14 1 15 15 16 17 17 16 18 11 19 13 21
REMARK H PARENT 11 20 13 22
ROOT
ATOM      1  C   UNL     1       2.334  -6.408   3.518  1.00  0.00     0.033 A 
ATOM      2  C   UNL     1       1.967  -5.458   4.443  1.00  0.00     0.102 A 
ATOM      3  C   UNL     1       2.318  -6.176   2.163  1.00  0.00     0.063 A 
ATOM      4  C   UNL     1       1.562  -4.204   3.986  1.00  0.00     0.315 A 
ATOM      5  C   UNL     1       1.912  -4.922   1.706  1.00  0.00     0.165 A 
ATOM      6  C   UNL     1       1.534  -3.935   2.618  1.00  0.00     0.237 A 
ENDROOT
BRANCH   1   7
ATOM      7  C   UNL     1       2.767  -7.752   4.007  1.00  0.00     0.193 C 
ATOM      8  O   UNL     1       3.647  -8.337   3.358  1.00  0.00    -0.289 OA
BRANCH   7   9
ATOM      9  C   UNL     1       2.198  -8.370   5.194  1.00  0.00     0.023 A 
ATOM     10  C   UNL     1       1.140  -9.271   5.071  1.00  0.00     0.012 A 
ATOM     11  C   UNL     1       2.711  -8.064   6.454  1.00  0.00     0.012 A 
ATOM     12  C   UNL     1       0.595  -9.865   6.209  1.00  0.00     0.004 A 
ATOM     13  C   UNL     1       2.165  -8.658   7.593  1.00  0.00     0.004 A 
ATOM     14  C   UNL     1       1.107  -9.558   7.471  1.00  0.00    -0.051 A 
ATOM     15  C   UNL     1       0.523 -10.192   8.687  1.00  0.00     0.044 C 
ENDBRANCH   7   9
ENDBRANCH   1   7
BRANCH   4  16
ATOM     16  N   UNL     1       1.180  -3.212   4.930  1.00  0.00     0.066 N 
ATOM     17  O   UNL     1       0.315  -2.364   4.602  1.00  0.00    -0.258 OA
ATOM     18  O   UNL     1       1.718  -3.214   6.062  1.00  0.00    -0.258 OA
ENDBRANCH   4  16
BRANCH   5  19
ATOM     19  O   UNL     1       1.890  -4.674   0.366  1.00  0.00    -0.504 OA
ATOM     20  H   UNL     1       0.988  -4.439   0.093  1.00  0.00     0.293 HD
ENDBRANCH   5  19
BRANCH   6  21
ATOM     21  O   UNL     1       1.140  -2.712   2.158  1.00  0.00    -0.500 OA
ATOM     22  H   UNL     1       0.231  -2.534   2.446  1.00  0.00     0.294 HD
ENDBRANCH   6  21
TORSDOF 5
ENDMDL
MODEL 2
REMARK VINA RESULT:    -5.161      2.048      3.574
REMARK INTER + INTRA:          -7.139
REMARK INTER:                  -6.371
REMARK INTRA:                  -0.767
REMARK UNBOUND:                -0.772
REMARK SMILES Cc1ccc(C(=O)c2cc(O)c(O)c([N+](=O)[O-])c2)cc1
REMARK SMILES IDX 8 1 18 2 9 3 14 4 10 5 12 6 6 7 7 8 5 9 4 10 19 11 3 12
REMARK SMILES IDX 20 13 2 14 1 15 15 16 17 17 16 18 11 19 13 21
REMARK H PARENT 11 20 13 22
ROOT
ATOM      1  C   UNL     1       0.934  -6.032   4.553  1.00  0.00     0.033 A 
ATOM      2  C   UNL     1       1.147  -6.266   3.214  1.00  0.00     0.102 A 
ATOM      3  C   UNL     1       0.816  -4.768   5.081  1.00  0.00     0.063 A 
ATOM      4  C   UNL     1       1.247  -5.172   2.354  1.00  0.00     0.315 A 
ATOM      5  C   UNL     1       0.917  -3.674   4.221  1.00  0.00     0.165 A 
ATOM      6  C   UNL     1       1.131  -3.876   2.857  1.00  0.00     0.237 A 
ENDROOT
BRANCH   1   7
ATOM      7  C   UNL     1       0.827  -7.204   5.474  1.00  0.00     0.193 C 
ATOM      8  O   UNL     1       0.007  -7.125   6.401  1.00  0.00    -0.289 OA
BRANCH   7   9
ATOM      9  C   UNL     1       1.640  -8.399   5.313  1.00  0.00     0.023 A 
ATOM     10  C   UNL     1       2.828  -8.536   6.031  1.00  0.00     0.012 A 
ATOM     11  C   UNL     1       1.231  -9.408   4.442  1.00  0.00     0.012 A 
ATOM     12  C   UNL     1       3.607  -9.683   5.877  1.00  0.00     0.004 A 
ATOM     13  C   UNL     1       2.010 -10.555   4.287  1.00  0.00     0.004 A 
ATOM     14  C   UNL     1       3.198 -10.693   5.005  1.00  0.00    -0.051 A 
ATOM     15  C   UNL     1       4.032 -11.917   4.839  1.00  0.00     0.044 C 
ENDBRANCH   7   9
ENDBRANCH   1   7
BRANCH   4  16
ATOM     16  N   UNL     1       1.466  -5.398   0.968  1.00  0.00     0.066 N 
ATOM     17  O   UNL     1       2.242  -4.633   0.345  1.00  0.00    -0.258 OA
ATOM     18  O   UNL     1       0.879  -6.353   0.409  1.00  0.00    -0.258 OA
ENDBRANCH   4  16
BRANCH   5  19
ATOM     19  O   UNL     1       0.802  -2.414   4.726  1.00  0.00    -0.504 OA
ATOM     20  H   UNL     1       1.377  -2.322   5.504  1.00  0.00     0.293 HD
ENDBRANCH   5  19
BRANCH   6  21
ATOM     21  O   UNL     1       1.227  -2.798   2.026  1.00  0.00    -0.500 OA
ATOM     22  H   UNL     1       0.340  -2.513   1.758  1.00  0.00     0.294 HD
ENDBRANCH   6  21
TORSDOF 5
ENDMDL
MODEL 3
REMARK VINA RESULT:    -4.423      3.676      6.881
REMARK INTER + INTRA:          -6.229
REMARK INTER:                  -5.279
REMARK INTRA:                  -0.951
REMARK UNBOUND:                -0.772
REMARK SMILES Cc1ccc(C(=O)c2cc(O)c(O)c([N+](=O)[O-])c2)cc1
REMARK SMILES IDX 8 1 18 2 9 3 14 4 10 5 12 6 6 7 7 8 5 9 4 10 19 11 3 12
REMARK SMILES IDX 20 13 2 14 1 15 15 16 17 17 16 18 11 19 13 21
REMARK H PARENT 11 20 13 22
ROOT
ATOM      1  C   UNL     1       2.388  -8.779   6.028  1.00  0.00     0.033 A 
ATOM      2  C   UNL     1       1.584  -9.164   7.076  1.00  0.00     0.102 A 
ATOM      3  C   UNL     1       3.215  -9.653   5.363  1.00  0.00     0.063 A 
ATOM      4  C   UNL     1       1.607 -10.499   7.479  1.00  0.00     0.315 A 
ATOM      5  C   UNL     1       3.239 -10.988   5.767  1.00  0.00     0.165 A 
ATOM      6  C   UNL     1       2.434 -11.411   6.825  1.00  0.00     0.237 A 
ENDROOT
BRANCH   1   7
ATOM      7  C   UNL     1       2.363  -7.349   5.596  1.00  0.00     0.193 C 
ATOM      8  O   UNL     1       2.588  -6.490   6.461  1.00  0.00    -0.289 OA
BRANCH   7   9
ATOM      9  C   UNL     1       2.090  -6.954   4.223  1.00  0.00     0.023 A 
ATOM     10  C   UNL     1       2.991  -6.138   3.540  1.00  0.00     0.012 A 
ATOM     11  C   UNL     1       0.926  -7.392   3.591  1.00  0.00     0.012 A 
ATOM     12  C   UNL     1       2.728  -5.760   2.223  1.00  0.00     0.004 A 
ATOM     13  C   UNL     1       0.663  -7.014   2.273  1.00  0.00     0.004 A 
ATOM     14  C   UNL     1       1.564  -6.197   1.589  1.00  0.00    -0.051 A 
ATOM     15  C   UNL     1       1.283  -5.791   0.183  1.00  0.00     0.044 C 
ENDBRANCH   7   9
ENDBRANCH   1   7
BRANCH   4  16
ATOM     16  N   UNL     1       0.780 -10.912   8.560  1.00  0.00     0.066 N 
ATOM     17  O   UNL     1       1.112 -11.922   9.225  1.00  0.00    -0.258 OA
ATOM     18  O   UNL     1      -0.255 -10.254   8.816  1.00  0.00    -0.258 OA
ENDBRANCH   4  16
BRANCH   5  19
ATOM     19  O   UNL     1       4.052 -11.868   5.118  1.00  0.00    -0.504 OA
ATOM     20  H   UNL     1       4.185 -11.574   4.201  1.00  0.00     0.293 HD
ENDBRANCH   5  19
BRANCH   6  21
ATOM     21  O   UNL     1       2.466 -12.720   7.211  1.00  0.00    -0.500 OA
ATOM     22  H   UNL     1       1.640 -13.156   6.951  1.00  0.00     0.294 HD
ENDBRANCH   6  21
TORSDOF 5
ENDMDL
MODEL 4
REMARK VINA RESULT:    -4.417      3.463      7.095
REMARK INTER + INTRA:          -6.222
REMARK INTER:                  -5.265
REMARK INTRA:                  -0.957
REMARK UNBOUND:                -0.772
REMARK SMILES Cc1ccc(C(=O)c2cc(O)c(O)c([N+](=O)[O-])c2)cc1
REMARK SMILES IDX 8 1 18 2 9 3 14 4 10 5 12 6 6 7 7 8 5 9 4 10 19 11 3 12
REMARK SMILES IDX 20 13 2 14 1 15 15 16 17 17 16 18 11 19 13 21
REMARK H PARENT 11 20 13 22
ROOT
ATOM      1  C   UNL     1       2.321  -8.624   6.121  1.00  0.00     0.033 A 
ATOM      2  C   UNL     1       3.032  -9.580   5.434  1.00  0.00     0.102 A 
ATOM      3  C   UNL     1       1.574  -8.910   7.239  1.00  0.00     0.063 A 
ATOM      4  C   UNL     1       2.995 -10.897   5.892  1.00  0.00     0.315 A 
ATOM      5  C   UNL     1       1.535 -10.227   7.697  1.00  0.00     0.165 A 
ATOM      6  C   UNL     1       2.246 -11.221   7.023  1.00  0.00     0.237 A 
ENDROOT
BRANCH   1   7
ATOM      7  C   UNL     1       2.362  -7.213   5.631  1.00  0.00     0.193 C 
ATOM      8  O   UNL     1       2.638  -6.331   6.458  1.00  0.00    -0.289 OA
BRANCH   7   9
ATOM      9  C   UNL     1       2.092  -6.861   4.246  1.00  0.00     0.023 A 
ATOM     10  C   UNL     1       0.926  -7.311   3.626  1.00  0.00     0.012 A 
ATOM     11  C   UNL     1       2.999  -6.074   3.537  1.00  0.00     0.012 A 
ATOM     12  C   UNL     1       0.668  -6.973   2.298  1.00  0.00     0.004 A 
ATOM     13  C   UNL     1       2.741  -5.735   2.208  1.00  0.00     0.004 A 
ATOM     14  C   UNL     1       1.575  -6.185   1.588  1.00  0.00    -0.051 A 
ATOM     15  C   UNL     1       1.299  -5.825   0.168  1.00  0.00     0.044 C 
ENDBRANCH   7   9
ENDBRANCH   1   7
BRANCH   4  16
ATOM     16  N   UNL     1       3.725 -11.896   5.192  1.00  0.00     0.066 N 
ATOM     17  O   UNL     1       3.863 -11.788   3.949  1.00  0.00    -0.258 OA
ATOM     18  O   UNL     1       4.210 -12.855   5.836  1.00  0.00    -0.258 OA
ENDBRANCH   4  16
BRANCH   5  19
ATOM     19  O   UNL     1       0.800 -10.529   8.804  1.00  0.00    -0.504 OA
ATOM     20  H   UNL     1       1.254 -11.217   9.318  1.00  0.00     0.293 HD
ENDBRANCH   5  19
BRANCH   6  21
ATOM     21  O   UNL     1       2.201 -12.506   7.481  1.00  0.00    -0.500 OA
ATOM     22  H   UNL     1       3.074 -12.764   7.816  1.00  0.00     0.294 HD
ENDBRANCH   6  21
TORSDOF 5
ENDMDL
MODEL 5
REMARK VINA RESULT:    -4.407      3.731      7.024
REMARK INTER + INTRA:          -6.210
REMARK INTER:                  -5.225
REMARK INTRA:                  -0.985
REMARK UNBOUND:                -0.772
REMARK SMILES Cc1ccc(C(=O)c2cc(O)c(O)c([N+](=O)[O-])c2)cc1
REMARK SMILES IDX 8 1 18 2 9 3 14 4 10 5 12 6 6 7 7 8 5 9 4 10 19 11 3 12
REMARK SMILES IDX 20 13 2 14 1 15 15 16 17 17 16 18 11 19 13 21
REMARK H PARENT 11 20 13 22
ROOT
ATOM      1  C   UNL     1       1.637  -9.316   5.225  1.00  0.00     0.033 A 
ATOM      2  C   UNL     1       2.610 -10.241   4.929  1.00  0.00     0.102 A 
ATOM      3  C   UNL     1       0.912  -9.341   6.393  1.00  0.00     0.063 A 
ATOM      4  C   UNL     1       2.875 -11.249   5.856  1.00  0.00     0.315 A 
ATOM      5  C   UNL     1       1.177 -10.350   7.320  1.00  0.00     0.165 A 
ATOM      6  C   UNL     1       2.159 -11.304   7.051  1.00  0.00     0.237 A 
ENDROOT
BRANCH   1   7
ATOM      7  C   UNL     1       1.352  -8.236   4.232  1.00  0.00     0.193 C 
ATOM      8  O   UNL     1       1.081  -8.585   3.073  1.00  0.00    -0.289 OA
BRANCH   7   9
ATOM      9  C   UNL     1       1.386  -6.825   4.583  1.00  0.00     0.023 A 
ATOM     10  C   UNL     1       2.531  -6.278   5.162  1.00  0.00     0.012 A 
ATOM     11  C   UNL     1       0.274  -6.019   4.341  1.00  0.00     0.012 A 
ATOM     12  C   UNL     1       2.563  -4.925   5.499  1.00  0.00     0.004 A 
ATOM     13  C   UNL     1       0.305  -4.665   4.677  1.00  0.00     0.004 A 
ATOM     14  C   UNL     1       1.450  -4.118   5.256  1.00  0.00    -0.051 A 
ATOM     15  C   UNL     1       1.484  -2.672   5.618  1.00  0.00     0.044 C 
ENDBRANCH   7   9
ENDBRANCH   1   7
BRANCH   4  16
ATOM     16  N   UNL     1       3.880 -12.213   5.565  1.00  0.00     0.066 N 
ATOM     17  O   UNL     1       4.838 -11.885   4.825  1.00  0.00    -0.258 OA
ATOM     18  O   UNL     1       3.778 -13.361   6.056  1.00  0.00    -0.258 OA
ENDBRANCH   4  16
BRANCH   5  19
ATOM     19  O   UNL     1       0.469 -10.391   8.483  1.00  0.00    -0.504 OA
ATOM     20  H   UNL     1       1.061 -10.204   9.231  1.00  0.00     0.293 HD
ENDBRANCH   5  19
BRANCH   6  21
ATOM     21  O   UNL     1       2.409 -12.285   7.966  1.00  0.00    -0.500 OA
ATOM     22  H   UNL     1       1.605 -12.807   8.112  1.00  0.00     0.294 HD
ENDBRANCH   6  21
TORSDOF 5
ENDMDL
MODEL 6
REMARK VINA RESULT:    -4.405      3.610      6.535
REMARK INTER + INTRA:          -6.206
REMARK INTER:                  -5.229
REMARK INTRA:                  -0.978
REMARK UNBOUND:                -0.772
REMARK SMILES Cc1ccc(C(=O)c2cc(O)c(O)c([N+](=O)[O-])c2)cc1
REMARK SMILES IDX 8 1 18 2 9 3 14 4 10 5 12 6 6 7 7 8 5 9 4 10 19 11 3 12
REMARK SMILES IDX 20 13 2 14 1 15 15 16 17 17 16 18 11 19 13 21
REMARK H PARENT 11 20 13 22
ROOT
ATOM      1  C   UNL     1       1.645  -9.334   5.095  1.00  0.00     0.033 A 
ATOM      2  C   UNL     1       1.005  -9.375   6.312  1.00  0.00     0.102 A 
ATOM      3  C   UNL     1       2.585 -10.261   4.715  1.00  0.00     0.063 A 
ATOM      4  C   UNL     1       1.324 -10.403   7.199  1.00  0.00     0.315 A 
ATOM      5  C   UNL     1       2.905 -11.290   5.602  1.00  0.00     0.165 A 
ATOM      6  C   UNL     1       2.274 -11.361   6.844  1.00  0.00     0.237 A 
ENDROOT
BRANCH   1   7
ATOM      7  C   UNL     1       1.303  -8.232   4.145  1.00  0.00     0.193 C 
ATOM      8  O   UNL     1       0.970  -8.555   2.995  1.00  0.00    -0.289 OA
BRANCH   7   9
ATOM      9  C   UNL     1       1.352  -6.830   4.528  1.00  0.00     0.023 A 
ATOM     10  C   UNL     1       2.508  -6.303   5.103  1.00  0.00     0.012 A 
ATOM     11  C   UNL     1       0.242  -6.011   4.319  1.00  0.00     0.012 A 
ATOM     12  C   UNL     1       2.555  -4.958   5.470  1.00  0.00     0.004 A 
ATOM     13  C   UNL     1       0.288  -4.665   4.685  1.00  0.00     0.004 A 
ATOM     14  C   UNL     1       1.445  -4.139   5.261  1.00  0.00    -0.051 A 
ATOM     15  C   UNL     1       1.494  -2.702   5.654  1.00  0.00     0.044 C 
ENDBRANCH   7   9
ENDBRANCH   1   7
BRANCH   4  16
ATOM     16  N   UNL     1       0.671 -10.459   8.461  1.00  0.00     0.066 N 
ATOM     17  O   UNL     1       0.304  -9.388   9.001  1.00  0.00    -0.258 OA
ATOM     18  O   UNL     1       0.481 -11.576   8.996  1.00  0.00    -0.258 OA
ENDBRANCH   4  16
BRANCH   5  19
ATOM     19  O   UNL     1       3.834 -12.218   5.241  1.00  0.00    -0.504 OA
ATOM     20  H   UNL     1       3.403 -13.080   5.118  1.00  0.00     0.293 HD
ENDBRANCH   5  19
BRANCH   6  21
ATOM     21  O   UNL     1       2.594 -12.372   7.703  1.00  0.00    -0.500 OA
ATOM     22  H   UNL     1       3.441 -12.766   7.441  1.00  0.00     0.294 HD
ENDBRANCH   6  21
TORSDOF 5
ENDMDL
MODEL 7
REMARK VINA RESULT:    -4.333      1.251      2.899
REMARK INTER + INTRA:          -6.118
REMARK INTER:                  -5.415
REMARK INTRA:                  -0.703
REMARK UNBOUND:                -0.772
REMARK SMILES Cc1ccc(C(=O)c2cc(O)c(O)c([N+](=O)[O-])c2)cc1
REMARK SMILES IDX 8 1 18 2 9 3 14 4 10 5 12 6 6 7 7 8 5 9 4 10 19 11 3 12
REMARK SMILES IDX 20 13 2 14 1 15 15 16 17 17 16 18 11 19 13 21
REMARK H PARENT 11 20 13 22
ROOT
ATOM      1  C   UNL     1       2.260  -6.768   3.916  1.00  0.00     0.033 A 
ATOM      2  C   UNL     1       2.102  -6.595   2.561  1.00  0.00     0.102 A 
ATOM      3  C   UNL     1       2.104  -5.747   4.823  1.00  0.00     0.063 A 
ATOM      4  C   UNL     1       1.767  -5.327   2.085  1.00  0.00     0.315 A 
ATOM      5  C   UNL     1       1.770  -4.478   4.347  1.00  0.00     0.165 A 
ATOM      6  C   UNL     1       1.601  -4.268   2.978  1.00  0.00     0.237 A 
ENDROOT
BRANCH   1   7
ATOM      7  C   UNL     1       2.619  -8.126   4.425  1.00  0.00     0.193 C 
ATOM      8  O   UNL     1       3.488  -8.756   3.803  1.00  0.00    -0.289 OA
BRANCH   7   9
ATOM      9  C   UNL     1       1.991  -8.709   5.600  1.00  0.00     0.023 A 
ATOM     10  C   UNL     1       2.485  -8.419   6.872  1.00  0.00     0.012 A 
ATOM     11  C   UNL     1       0.894  -9.559   5.456  1.00  0.00     0.012 A 
ATOM     12  C   UNL     1       1.882  -8.978   7.998  1.00  0.00     0.004 A 
ATOM     13  C   UNL     1       0.291 -10.119   6.582  1.00  0.00     0.004 A 
ATOM     14  C   UNL     1       0.785  -9.828   7.854  1.00  0.00    -0.051 A 
ATOM     15  C   UNL     1       0.142 -10.427   9.059  1.00  0.00     0.044 C 
ENDBRANCH   7   9
ENDBRANCH   1   7
BRANCH   4  16
ATOM     16  N   UNL     1       1.600  -5.132   0.687  1.00  0.00     0.066 N 
ATOM     17  O   UNL     1       0.738  -5.812   0.079  1.00  0.00    -0.258 OA
ATOM     18  O   UNL     1       2.317  -4.286   0.103  1.00  0.00    -0.258 OA
ENDBRANCH   4  16
BRANCH   5  19
ATOM     19  O   UNL     1       1.610  -3.454   5.231  1.00  0.00    -0.504 OA
ATOM     20  H   UNL     1       1.954  -3.718   6.101  1.00  0.00     0.293 HD
ENDBRANCH   5  19
BRANCH   6  21
ATOM     21  O   UNL     1       1.273  -3.023   2.525  1.00  0.00    -0.500 OA
ATOM     22  H   UNL     1       2.079  -2.544   2.277  1.00  0.00     0.294 HD
ENDBRANCH   6  21
TORSDOF 5
ENDMDL
MODEL 8
REMARK VINA RESULT:    -4.332      2.325      4.049
REMARK INTER + INTRA:          -6.117
REMARK INTER:                  -5.140
REMARK INTRA:                  -0.977
REMARK UNBOUND:                -0.772
REMARK SMILES Cc1ccc(C(=O)c2cc(O)c(O)c([N+](=O)[O-])c2)cc1
REMARK SMILES IDX 8 1 18 2 9 3 14 4 10 5 12 6 6 7 7 8 5 9 4 10 19 11 3 12
REMARK SMILES IDX 20 13 2 14 1 15 15 16 17 17 16 18 11 19 13 21
REMARK H PARENT 11 20 13 22
ROOT
ATOM      1  C   UNL     1       2.464  -8.438   6.283  1.00  0.00     0.033 A 
ATOM      2  C   UNL     1       1.865  -7.812   5.214  1.00  0.00     0.102 A 
ATOM      3  C   UNL     1       3.335  -7.796   7.130  1.00  0.00     0.063 A 
ATOM      4  C   UNL     1       2.154  -6.468   4.981  1.00  0.00     0.315 A 
ATOM      5  C   UNL     1       3.625  -6.452   6.897  1.00  0.00     0.165 A 
ATOM      6  C   UNL     1       3.034  -5.787   5.822  1.00  0.00     0.237 A 
ENDROOT
BRANCH   1   7
ATOM      7  C   UNL     1       2.154  -9.878   6.533  1.00  0.00     0.193 C 
ATOM      8  O   UNL     1       2.732 -10.715   5.823  1.00  0.00    -0.289 OA
BRANCH   7   9
ATOM      9  C   UNL     1       1.219 -10.307   7.560  1.00  0.00     0.023 A 
ATOM     10  C   UNL     1       1.616 -11.238   8.520  1.00  0.00     0.012 A 
ATOM     11  C   UNL     1      -0.076  -9.789   7.585  1.00  0.00     0.012 A 
ATOM     12  C   UNL     1       0.719 -11.650   9.505  1.00  0.00     0.004 A 
ATOM     13  C   UNL     1      -0.974 -10.200   8.571  1.00  0.00     0.004 A 
ATOM     14  C   UNL     1      -0.576 -11.131   9.531  1.00  0.00    -0.051 A 
ATOM     15  C   UNL     1      -1.535 -11.572  10.584  1.00  0.00     0.044 C 
ENDBRANCH   7   9
ENDBRANCH   1   7
BRANCH   4  16
ATOM     16  N   UNL     1       1.543  -5.807   3.880  1.00  0.00     0.066 N 
ATOM     17  O   UNL     1       2.178  -4.902   3.287  1.00  0.00    -0.258 OA
ATOM     18  O   UNL     1       0.388  -6.150   3.533  1.00  0.00    -0.258 OA
ENDBRANCH   4  16
BRANCH   5  19
ATOM     19  O   UNL     1       4.487  -5.799   7.727  1.00  0.00    -0.504 OA
ATOM     20  H   UNL     1       4.238  -5.968   8.651  1.00  0.00     0.293 HD
ENDBRANCH   5  19
BRANCH   6  21
ATOM     21  O   UNL     1       3.325  -4.472   5.604  1.00  0.00    -0.500 OA
ATOM     22  H   UNL     1       4.174  -4.253   6.018  1.00  0.00     0.294 HD
ENDBRANCH   6  21
TORSDOF 5
ENDMDL
MODEL 9
REMARK VINA RESULT:    -4.294      1.971      2.330
REMARK INTER + INTRA:          -6.069
REMARK INTER:                  -5.377
REMARK INTRA:                  -0.692
REMARK UNBOUND:                -0.772
REMARK SMILES Cc1ccc(C(=O)c2cc(O)c(O)c([N+](=O)[O-])c2)cc1
REMARK SMILES IDX 8 1 18 2 9 3 14 4 10 5 12 6 6 7 7 8 5 9 4 10 19 11 3 12
REMARK SMILES IDX 20 13 2 14 1 15 15 16 17 17 16 18 11 19 13 21
REMARK H PARENT 11 20 13 22
ROOT
ATOM      1  C   UNL     1       1.150  -6.561   4.586  1.00  0.00     0.033 A 
ATOM      2  C   UNL     1       1.128  -5.295   5.123  1.00  0.00     0.102 A 
ATOM      3  C   UNL     1       1.194  -6.797   3.232  1.00  0.00     0.063 A 
ATOM      4  C   UNL     1       1.151  -4.202   4.257  1.00  0.00     0.315 A 
ATOM      5  C   UNL     1       1.216  -5.704   2.365  1.00  0.00     0.165 A 
ATOM      6  C   UNL     1       1.195  -4.406   2.878  1.00  0.00     0.237 A 
ENDROOT
BRANCH   1   7
ATOM      7  C   UNL     1       1.125  -7.732   5.514  1.00  0.00     0.193 C 
ATOM      8  O   UNL     1       0.327  -7.689   6.462  1.00  0.00    -0.289 OA
BRANCH   7   9
ATOM      9  C   UNL     1       1.990  -8.887   5.335  1.00  0.00     0.023 A 
ATOM     10  C   UNL     1       1.619  -9.907   4.459  1.00  0.00     0.012 A 
ATOM     11  C   UNL     1       3.191  -8.975   6.039  1.00  0.00     0.012 A 
ATOM     12  C   UNL     1       2.449 -11.015   4.287  1.00  0.00     0.004 A 
ATOM     13  C   UNL     1       4.022 -10.083   5.868  1.00  0.00     0.004 A 
ATOM     14  C   UNL     1       3.651 -11.103   4.991  1.00  0.00    -0.051 A 
ATOM     15  C   UNL     1       4.537 -12.288   4.809  1.00  0.00     0.044 C 
ENDBRANCH   7   9
ENDBRANCH   1   7
BRANCH   4  16
ATOM     16  N   UNL     1       1.128  -2.887   4.797  1.00  0.00     0.066 N 
ATOM     17  O   UNL     1       0.210  -2.105   4.451  1.00  0.00    -0.258 OA
ATOM     18  O   UNL     1       2.025  -2.549   5.604  1.00  0.00    -0.258 OA
ENDBRANCH   4  16
BRANCH   5  19
ATOM     19  O   UNL     1       1.260  -5.918   1.020  1.00  0.00    -0.504 OA
ATOM     20  H   UNL     1       0.518  -5.458   0.593  1.00  0.00     0.293 HD
ENDBRANCH   5  19
BRANCH   6  21
ATOM     21  O   UNL     1       1.218  -3.345   2.020  1.00  0.00    -0.500 OA
ATOM     22  H   UNL     1       0.316  -3.017   1.883  1.00  0.00     0.294 HD
ENDBRANCH   6  21
TORSDOF 5
ENDMDL
