MODEL 1
REMARK VINA RESULT:    -6.785      0.000      0.000
REMARK INTER + INTRA:          -8.539
REMARK INTER:                  -7.976
REMARK INTRA:                  -0.564
REMARK UNBOUND:                -0.564
REMARK SMILES O=C(O)c1cc(-c2ccc(F)cc2F)ccc1O
REMARK SMILES IDX 6 1 5 2 15 3 4 4 17 5 16 6 7 7 13 8 12 9 8 10 10 11 9 12
REMARK SMILES IDX 14 13 11 14 2 15 1 16 3 17 18 19
REMARK H PARENT 3 18 18 20
ROOT
ATOM      1  C   UNL     1      -3.132  -6.372  -4.912  1.00  0.00    -0.014 A 
ATOM      2  C   UNL     1      -2.713  -5.227  -5.588  1.00  0.00     0.028 A 
ATOM      3  C   UNL     1      -2.860  -6.518  -3.552  1.00  0.00     0.013 A 
ATOM      4  C   UNL     1      -2.021  -4.227  -4.905  1.00  0.00     0.102 A 
ATOM      5  C   UNL     1      -1.749  -4.373  -3.544  1.00  0.00     0.130 A 
ATOM      6  C   UNL     1      -2.169  -5.519  -2.868  1.00  0.00     0.048 A 
ENDROOT
BRANCH   1   7
ATOM      7  C   UNL     1      -3.849  -7.410  -5.621  1.00  0.00     0.018 A 
ATOM      8  C   UNL     1      -4.875  -7.075  -6.505  1.00  0.00     0.133 A 
ATOM      9  C   UNL     1      -5.564  -8.079  -7.186  1.00  0.00     0.079 A 
ATOM     10  C   UNL     1      -3.510  -8.748  -5.421  1.00  0.00     0.015 A 
ATOM     11  C   UNL     1      -5.226  -9.417  -6.985  1.00  0.00     0.126 A 
ATOM     12  C   UNL     1      -4.198  -9.751  -6.102  1.00  0.00     0.040 A 
ATOM     13  F   UNL     1      -5.215  -5.794  -6.707  1.00  0.00    -0.206 F 
ATOM     14  F   UNL     1      -5.886 -10.381  -7.638  1.00  0.00    -0.207 F 
ENDBRANCH   1   7
BRANCH   4  15
ATOM     15  C   UNL     1      -1.592  -3.038  -5.629  1.00  0.00     0.339 C 
ATOM     16  O   UNL     1      -0.440  -2.601  -5.663  1.00  0.00    -0.246 OA
BRANCH  15  17
ATOM     17  O   UNL     1      -2.618  -2.434  -6.288  1.00  0.00    -0.478 OA
ATOM     18  H   UNL     1      -3.326  -2.145  -5.675  1.00  0.00     0.297 HD
ENDBRANCH  15  17
ENDBRANCH   4  15
BRANCH   5  19
ATOM     19  O   UNL     1      -1.075  -3.407  -2.858  1.00  0.00    -0.507 OA
ATOM     20  H   UNL     1      -0.448  -3.831  -2.247  1.00  0.00     0.293 HD
ENDBRANCH   5  19
TORSDOF 4
ENDMDL
MODEL 2
REMARK VINA RESULT:    -6.779      1.123      1.606
REMARK INTER + INTRA:          -8.531
REMARK INTER:                  -7.968
REMARK INTRA:                  -0.564
REMARK UNBOUND:                -0.564
REMARK SMILES O=C(O)c1cc(-c2ccc(F)cc2F)ccc1O
REMARK SMILES IDX 6 1 5 2 15 3 4 4 17 5 16 6 7 7 13 8 12 9 8 10 10 11 9 12
REMARK SMILES IDX 14 13 11 14 2 15 1 16 3 17 18 19
REMARK H PARENT 3 18 18 20
ROOT
ATOM      1  C   UNL     1      -3.095  -6.390  -4.905  1.00  0.00    -0.014 A 
ATOM      2  C   UNL     1      -2.689  -5.242  -5.583  1.00  0.00     0.028 A 
ATOM      3  C   UNL     1      -2.818  -6.533  -3.546  1.00  0.00     0.013 A 
ATOM      4  C   UNL     1      -2.004  -4.235  -4.902  1.00  0.00     0.102 A 
ATOM      5  C   UNL     1      -1.727  -4.377  -3.542  1.00  0.00     0.130 A 
ATOM      6  C   UNL     1      -2.133  -5.527  -2.864  1.00  0.00     0.048 A 
ENDROOT
BRANCH   1   7
ATOM      7  C   UNL     1      -3.804  -7.436  -5.612  1.00  0.00     0.018 A 
ATOM      8  C   UNL     1      -3.446  -8.772  -5.429  1.00  0.00     0.133 A 
ATOM      9  C   UNL     1      -4.132  -9.776  -6.112  1.00  0.00     0.079 A 
ATOM     10  C   UNL     1      -4.848  -7.105  -6.475  1.00  0.00     0.015 A 
ATOM     11  C   UNL     1      -5.175  -9.446  -6.976  1.00  0.00     0.126 A 
ATOM     12  C   UNL     1      -5.533  -8.110  -7.157  1.00  0.00     0.040 A 
ATOM     13  F   UNL     1      -2.443  -9.106  -4.605  1.00  0.00    -0.206 F 
ATOM     14  F   UNL     1      -5.834 -10.409  -7.632  1.00  0.00    -0.207 F 
ENDBRANCH   1   7
BRANCH   4  15
ATOM     15  C   UNL     1      -1.589  -3.042  -5.628  1.00  0.00     0.339 C 
ATOM     16  O   UNL     1      -0.439  -2.598  -5.671  1.00  0.00    -0.246 OA
BRANCH  15  17
ATOM     17  O   UNL     1      -2.624  -2.444  -6.278  1.00  0.00    -0.478 OA
ATOM     18  H   UNL     1      -2.665  -1.483  -6.091  1.00  0.00     0.297 HD
ENDBRANCH  15  17
ENDBRANCH   4  15
BRANCH   5  19
ATOM     19  O   UNL     1      -1.060  -3.405  -2.858  1.00  0.00    -0.507 OA
ATOM     20  H   UNL     1      -1.354  -2.534  -3.177  1.00  0.00     0.293 HD
ENDBRANCH   5  19
TORSDOF 4
ENDMDL
MODEL 3
REMARK VINA RESULT:    -6.639      1.709      3.193
REMARK INTER + INTRA:          -8.367
REMARK INTER:                  -7.649
REMARK INTRA:                  -0.718
REMARK UNBOUND:                -0.564
REMARK SMILES O=C(O)c1cc(-c2ccc(F)cc2F)ccc1O
REMARK SMILES IDX 6 1 5 2 15 3 4 4 17 5 16 6 7 7 13 8 12 9 8 10 10 11 9 12
REMARK SMILES IDX 14 13 11 14 2 15 1 16 3 17 18 19
REMARK H PARENT 3 18 18 20
ROOT
ATOM      1  C   UNL     1      -3.069  -6.487  -4.904  1.00  0.00    -0.014 A 
ATOM      2  C   UNL     1      -2.921  -6.658  -3.529  1.00  0.00     0.028 A 
ATOM      3  C   UNL     1      -2.531  -5.362  -5.529  1.00  0.00     0.013 A 
ATOM      4  C   UNL     1      -2.234  -5.705  -2.776  1.00  0.00     0.102 A 
ATOM      5  C   UNL     1      -1.696  -4.580  -3.401  1.00  0.00     0.130 A 
ATOM      6  C   UNL     1      -1.844  -4.408  -4.778  1.00  0.00     0.048 A 
ENDROOT
BRANCH   1   7
ATOM      7  C   UNL     1      -3.783  -7.475  -5.685  1.00  0.00     0.018 A 
ATOM      8  C   UNL     1      -3.479  -8.830  -5.546  1.00  0.00     0.133 A 
ATOM      9  C   UNL     1      -4.169  -9.779  -6.301  1.00  0.00     0.079 A 
ATOM     10  C   UNL     1      -4.776  -7.070  -6.576  1.00  0.00     0.015 A 
ATOM     11  C   UNL     1      -5.161  -9.374  -7.192  1.00  0.00     0.126 A 
ATOM     12  C   UNL     1      -5.465  -8.019  -7.329  1.00  0.00     0.040 A 
ATOM     13  F   UNL     1      -2.525  -9.235  -4.696  1.00  0.00    -0.206 F 
ATOM     14  F   UNL     1      -5.824 -10.284  -7.917  1.00  0.00    -0.207 F 
ENDBRANCH   1   7
BRANCH   4  15
ATOM     15  C   UNL     1      -2.090  -5.902  -1.341  1.00  0.00     0.339 C 
ATOM     16  O   UNL     1      -2.095  -5.006  -0.493  1.00  0.00    -0.246 OA
BRANCH  15  17
ATOM     17  O   UNL     1      -1.947  -7.215  -1.010  1.00  0.00    -0.478 OA
ATOM     18  H   UNL     1      -1.480  -7.326  -0.155  1.00  0.00     0.297 HD
ENDBRANCH  15  17
ENDBRANCH   4  15
BRANCH   5  19
ATOM     19  O   UNL     1      -1.021  -3.637  -2.684  1.00  0.00    -0.507 OA
ATOM     20  H   UNL     1      -0.964  -3.924  -1.756  1.00  0.00     0.293 HD
ENDBRANCH   5  19
TORSDOF 4
ENDMDL
MODEL 4
REMARK VINA RESULT:    -6.619      1.310      2.758
REMARK INTER + INTRA:          -8.344
REMARK INTER:                  -7.636
REMARK INTRA:                  -0.708
REMARK UNBOUND:                -0.564
REMARK SMILES O=C(O)c1cc(-c2ccc(F)cc2F)ccc1O
REMARK SMILES IDX 6 1 5 2 15 3 4 4 17 5 16 6 7 7 13 8 12 9 8 10 10 11 9 12
REMARK SMILES IDX 14 13 11 14 2 15 1 16 3 17 18 19
REMARK H PARENT 3 18 18 20
ROOT
ATOM      1  C   UNL     1      -3.113  -6.447  -4.907  1.00  0.00    -0.014 A 
ATOM      2  C   UNL     1      -2.948  -6.636  -3.536  1.00  0.00     0.028 A 
ATOM      3  C   UNL     1      -2.590  -5.310  -5.523  1.00  0.00     0.013 A 
ATOM      4  C   UNL     1      -2.260  -5.687  -2.779  1.00  0.00     0.102 A 
ATOM      5  C   UNL     1      -1.737  -4.550  -3.394  1.00  0.00     0.130 A 
ATOM      6  C   UNL     1      -1.902  -4.362  -4.767  1.00  0.00     0.048 A 
ENDROOT
BRANCH   1   7
ATOM      7  C   UNL     1      -3.829  -7.430  -5.693  1.00  0.00     0.018 A 
ATOM      8  C   UNL     1      -4.840  -7.028  -6.566  1.00  0.00     0.133 A 
ATOM      9  C   UNL     1      -5.527  -7.979  -7.321  1.00  0.00     0.079 A 
ATOM     10  C   UNL     1      -3.504  -8.781  -5.576  1.00  0.00     0.015 A 
ATOM     11  C   UNL     1      -5.203  -9.330  -7.204  1.00  0.00     0.126 A 
ATOM     12  C   UNL     1      -4.191  -9.731  -6.332  1.00  0.00     0.040 A 
ATOM     13  F   UNL     1      -5.166  -5.733  -6.688  1.00  0.00    -0.206 F 
ATOM     14  F   UNL     1      -5.862 -10.243  -7.929  1.00  0.00    -0.207 F 
ENDBRANCH   1   7
BRANCH   4  15
ATOM     15  C   UNL     1      -2.098  -5.903  -1.348  1.00  0.00     0.339 C 
ATOM     16  O   UNL     1      -2.094  -5.018  -0.488  1.00  0.00    -0.246 OA
BRANCH  15  17
ATOM     17  O   UNL     1      -1.948  -7.219  -1.035  1.00  0.00    -0.478 OA
ATOM     18  H   UNL     1      -2.810  -7.680  -0.976  1.00  0.00     0.297 HD
ENDBRANCH  15  17
ENDBRANCH   4  15
BRANCH   5  19
ATOM     19  O   UNL     1      -1.061  -3.612  -2.673  1.00  0.00    -0.507 OA
ATOM     20  H   UNL     1      -1.161  -2.746  -3.106  1.00  0.00     0.293 HD
ENDBRANCH   5  19
TORSDOF 4
ENDMDL
MODEL 5
REMARK VINA RESULT:    -5.580      1.916      3.196
REMARK INTER + INTRA:          -7.122
REMARK INTER:                  -6.595
REMARK INTRA:                  -0.527
REMARK UNBOUND:                -0.564
REMARK SMILES O=C(O)c1cc(-c2ccc(F)cc2F)ccc1O
REMARK SMILES IDX 6 1 5 2 15 3 4 4 17 5 16 6 7 7 13 8 12 9 8 10 10 11 9 12
REMARK SMILES IDX 14 13 11 14 2 15 1 16 3 17 18 19
REMARK H PARENT 3 18 18 20
ROOT
ATOM      1  C   UNL     1      -3.212  -7.031  -5.280  1.00  0.00    -0.014 A 
ATOM      2  C   UNL     1      -3.003  -7.333  -3.935  1.00  0.00     0.028 A 
ATOM      3  C   UNL     1      -2.731  -5.834  -5.809  1.00  0.00     0.013 A 
ATOM      4  C   UNL     1      -2.312  -6.437  -3.118  1.00  0.00     0.102 A 
ATOM      5  C   UNL     1      -1.831  -5.240  -3.647  1.00  0.00     0.130 A 
ATOM      6  C   UNL     1      -2.040  -4.938  -4.994  1.00  0.00     0.048 A 
ENDROOT
BRANCH   1   7
ATOM      7  C   UNL     1      -3.930  -7.959  -6.127  1.00  0.00     0.018 A 
ATOM      8  C   UNL     1      -5.014  -8.676  -5.620  1.00  0.00     0.133 A 
ATOM      9  C   UNL     1      -5.703  -9.570  -6.440  1.00  0.00     0.079 A 
ATOM     10  C   UNL     1      -3.537  -8.135  -7.453  1.00  0.00     0.015 A 
ATOM     11  C   UNL     1      -5.309  -9.746  -7.766  1.00  0.00     0.126 A 
ATOM     12  C   UNL     1      -4.226  -9.028  -8.273  1.00  0.00     0.040 A 
ATOM     13  F   UNL     1      -5.403  -8.521  -4.346  1.00  0.00    -0.206 F 
ATOM     14  F   UNL     1      -5.970 -10.604  -8.554  1.00  0.00    -0.207 F 
ENDBRANCH   1   7
BRANCH   4  15
ATOM     15  C   UNL     1      -2.103  -6.771  -1.716  1.00  0.00     0.339 C 
ATOM     16  O   UNL     1      -2.994  -7.040  -0.906  1.00  0.00    -0.246 OA
BRANCH  15  17
ATOM     17  O   UNL     1      -0.787  -6.759  -1.370  1.00  0.00    -0.478 OA
ATOM     18  H   UNL     1      -0.615  -6.163  -0.612  1.00  0.00     0.297 HD
ENDBRANCH  15  17
ENDBRANCH   4  15
BRANCH   5  19
ATOM     19  O   UNL     1      -1.153  -4.352  -2.867  1.00  0.00    -0.507 OA
ATOM     20  H   UNL     1      -0.232  -4.653  -2.769  1.00  0.00     0.293 HD
ENDBRANCH   5  19
TORSDOF 4
ENDMDL
MODEL 6
REMARK VINA RESULT:    -5.475      1.069      1.349
REMARK INTER + INTRA:          -6.999
REMARK INTER:                  -6.364
REMARK INTRA:                  -0.635
REMARK UNBOUND:                -0.564
REMARK SMILES O=C(O)c1cc(-c2ccc(F)cc2F)ccc1O
REMARK SMILES IDX 6 1 5 2 15 3 4 4 17 5 16 6 7 7 13 8 12 9 8 10 10 11 9 12
REMARK SMILES IDX 14 13 11 14 2 15 1 16 3 17 18 19
REMARK H PARENT 3 18 18 20
ROOT
ATOM      1  C   UNL     1      -3.231  -6.799  -5.063  1.00  0.00    -0.014 A 
ATOM      2  C   UNL     1      -2.947  -5.574  -5.664  1.00  0.00     0.028 A 
ATOM      3  C   UNL     1      -2.778  -7.063  -3.770  1.00  0.00     0.013 A 
ATOM      4  C   UNL     1      -2.210  -4.611  -4.974  1.00  0.00     0.102 A 
ATOM      5  C   UNL     1      -1.757  -4.875  -3.681  1.00  0.00     0.130 A 
ATOM      6  C   UNL     1      -2.041  -6.101  -3.079  1.00  0.00     0.048 A 
ENDROOT
BRANCH   1   7
ATOM      7  C   UNL     1      -3.994  -7.799  -5.779  1.00  0.00     0.018 A 
ATOM      8  C   UNL     1      -3.732  -8.048  -7.126  1.00  0.00     0.133 A 
ATOM      9  C   UNL     1      -4.470  -9.012  -7.813  1.00  0.00     0.079 A 
ATOM     10  C   UNL     1      -4.993  -8.513  -5.118  1.00  0.00     0.015 A 
ATOM     11  C   UNL     1      -5.470  -9.726  -7.153  1.00  0.00     0.126 A 
ATOM     12  C   UNL     1      -5.731  -9.477  -5.805  1.00  0.00     0.040 A 
ATOM     13  F   UNL     1      -2.777  -7.368  -7.776  1.00  0.00    -0.206 F 
ATOM     14  F   UNL     1      -6.179 -10.652  -7.811  1.00  0.00    -0.207 F 
ENDBRANCH   1   7
BRANCH   4  15
ATOM     15  C   UNL     1      -1.924  -3.338  -5.620  1.00  0.00     0.339 C 
ATOM     16  O   UNL     1      -2.753  -2.627  -6.193  1.00  0.00    -0.246 OA
BRANCH  15  17
ATOM     17  O   UNL     1      -0.611  -2.993  -5.528  1.00  0.00    -0.478 OA
ATOM     18  H   UNL     1      -0.061  -3.473  -6.183  1.00  0.00     0.297 HD
ENDBRANCH  15  17
ENDBRANCH   4  15
BRANCH   5  19
ATOM     19  O   UNL     1      -1.036  -3.948  -2.990  1.00  0.00    -0.507 OA
ATOM     20  H   UNL     1      -0.121  -3.946  -3.320  1.00  0.00     0.293 HD
ENDBRANCH   5  19
TORSDOF 4
ENDMDL
MODEL 7
REMARK VINA RESULT:    -5.170      4.071      6.298
REMARK INTER + INTRA:          -6.640
REMARK INTER:                  -5.556
REMARK INTRA:                  -1.085
REMARK UNBOUND:                -0.564
REMARK SMILES O=C(O)c1cc(-c2ccc(F)cc2F)ccc1O
REMARK SMILES IDX 6 1 5 2 15 3 4 4 17 5 16 6 7 7 13 8 12 9 8 10 10 11 9 12
REMARK SMILES IDX 14 13 11 14 2 15 1 16 3 17 18 19
REMARK H PARENT 3 18 18 20
ROOT
ATOM      1  C   UNL     1      -4.371  -8.014  -6.344  1.00  0.00    -0.014 A 
ATOM      2  C   UNL     1      -4.183  -8.432  -7.661  1.00  0.00     0.028 A 
ATOM      3  C   UNL     1      -5.309  -8.657  -5.536  1.00  0.00     0.013 A 
ATOM      4  C   UNL     1      -4.932  -9.492  -8.171  1.00  0.00     0.102 A 
ATOM      5  C   UNL     1      -5.870 -10.135  -7.363  1.00  0.00     0.130 A 
ATOM      6  C   UNL     1      -6.058  -9.717  -6.045  1.00  0.00     0.048 A 
ENDROOT
BRANCH   1   7
ATOM      7  C   UNL     1      -3.595  -6.913  -5.815  1.00  0.00     0.018 A 
ATOM      8  C   UNL     1      -4.055  -5.603  -5.953  1.00  0.00     0.133 A 
ATOM      9  C   UNL     1      -3.304  -4.544  -5.442  1.00  0.00     0.079 A 
ATOM     10  C   UNL     1      -2.387  -7.164  -5.166  1.00  0.00     0.015 A 
ATOM     11  C   UNL     1      -2.095  -4.795  -4.793  1.00  0.00     0.126 A 
ATOM     12  C   UNL     1      -1.637  -6.106  -4.655  1.00  0.00     0.040 A 
ATOM     13  F   UNL     1      -5.213  -5.344  -6.577  1.00  0.00    -0.206 F 
ATOM     14  F   UNL     1      -1.373  -3.780  -4.302  1.00  0.00    -0.207 F 
ENDBRANCH   1   7
BRANCH   4  15
ATOM     15  C   UNL     1      -4.720  -9.913  -9.549  1.00  0.00     0.339 C 
ATOM     16  O   UNL     1      -5.214 -10.915 -10.073  1.00  0.00    -0.246 OA
BRANCH  15  17
ATOM     17  O   UNL     1      -3.898  -9.068 -10.229  1.00  0.00    -0.478 OA
ATOM     18  H   UNL     1      -4.295  -8.778 -11.077  1.00  0.00     0.297 HD
ENDBRANCH  15  17
ENDBRANCH   4  15
BRANCH   5  19
ATOM     19  O   UNL     1      -6.611 -11.174  -7.842  1.00  0.00    -0.507 OA
ATOM     20  H   UNL     1      -6.864 -10.986  -8.762  1.00  0.00     0.293 HD
ENDBRANCH   5  19
TORSDOF 4
ENDMDL
MODEL 8
REMARK VINA RESULT:    -5.124      4.562      6.886
REMARK INTER + INTRA:          -6.586
REMARK INTER:                  -5.511
REMARK INTRA:                  -1.075
REMARK UNBOUND:                -0.564
REMARK SMILES O=C(O)c1cc(-c2ccc(F)cc2F)ccc1O
REMARK SMILES IDX 6 1 5 2 15 3 4 4 17 5 16 6 7 7 13 8 12 9 8 10 10 11 9 12
REMARK SMILES IDX 14 13 11 14 2 15 1 16 3 17 18 19
REMARK H PARENT 3 18 18 20
ROOT
ATOM      1  C   UNL     1      -4.359  -8.315  -5.981  1.00  0.00    -0.014 A 
ATOM      2  C   UNL     1      -5.375  -9.050  -5.373  1.00  0.00     0.028 A 
ATOM      3  C   UNL     1      -4.072  -8.506  -7.333  1.00  0.00     0.013 A 
ATOM      4  C   UNL     1      -6.107  -9.977  -6.116  1.00  0.00     0.102 A 
ATOM      5  C   UNL     1      -5.820 -10.168  -7.468  1.00  0.00     0.130 A 
ATOM      6  C   UNL     1      -4.802  -9.432  -8.077  1.00  0.00     0.048 A 
ENDROOT
BRANCH   1   7
ATOM      7  C   UNL     1      -3.599  -7.354  -5.210  1.00  0.00     0.018 A 
ATOM      8  C   UNL     1      -2.499  -7.770  -4.460  1.00  0.00     0.133 A 
ATOM      9  C   UNL     1      -1.770  -6.841  -3.718  1.00  0.00     0.079 A 
ATOM     10  C   UNL     1      -3.968  -6.009  -5.220  1.00  0.00     0.015 A 
ATOM     11  C   UNL     1      -2.139  -5.496  -3.727  1.00  0.00     0.126 A 
ATOM     12  C   UNL     1      -3.238  -5.081  -4.479  1.00  0.00     0.040 A 
ATOM     13  F   UNL     1      -2.133  -9.060  -4.438  1.00  0.00    -0.206 F 
ATOM     14  F   UNL     1      -1.440  -4.603  -3.016  1.00  0.00    -0.207 F 
ENDBRANCH   1   7
BRANCH   4  15
ATOM     15  C   UNL     1      -7.165 -10.735  -5.463  1.00  0.00     0.339 C 
ATOM     16  O   UNL     1      -7.734 -11.720  -5.938  1.00  0.00    -0.246 OA
BRANCH  15  17
ATOM     17  O   UNL     1      -7.477 -10.237  -4.235  1.00  0.00    -0.478 OA
ATOM     18  H   UNL     1      -6.678 -10.104  -3.682  1.00  0.00     0.297 HD
ENDBRANCH  15  17
ENDBRANCH   4  15
BRANCH   5  19
ATOM     19  O   UNL     1      -6.523 -11.069  -8.212  1.00  0.00    -0.507 OA
ATOM     20  H   UNL     1      -6.844 -11.779  -7.630  1.00  0.00     0.293 HD
ENDBRANCH   5  19
TORSDOF 4
ENDMDL
MODEL 9
REMARK VINA RESULT:    -4.139      8.449     10.755
REMARK INTER + INTRA:          -5.428
REMARK INTER:                  -4.466
REMARK INTRA:                  -0.962
REMARK UNBOUND:                -0.564
REMARK SMILES O=C(O)c1cc(-c2ccc(F)cc2F)ccc1O
REMARK SMILES IDX 6 1 5 2 15 3 4 4 17 5 16 6 7 7 13 8 12 9 8 10 10 11 9 12
REMARK SMILES IDX 14 13 11 14 2 15 1 16 3 17 18 19
REMARK H PARENT 3 18 18 20
ROOT
ATOM      1  C   UNL     1      -3.472 -12.727 -12.523  1.00  0.00    -0.014 A 
ATOM      2  C   UNL     1      -4.864 -12.647 -12.509  1.00  0.00     0.028 A 
ATOM      3  C   UNL     1      -2.714 -11.822 -11.780  1.00  0.00     0.013 A 
ATOM      4  C   UNL     1      -5.499 -11.662 -11.751  1.00  0.00     0.102 A 
ATOM      5  C   UNL     1      -4.741 -10.757 -11.009  1.00  0.00     0.130 A 
ATOM      6  C   UNL     1      -3.347 -10.837 -11.023  1.00  0.00     0.048 A 
ENDROOT
BRANCH   1   7
ATOM      7  C   UNL     1      -2.813 -13.747 -13.310  1.00  0.00     0.018 A 
ATOM      8  C   UNL     1      -2.244 -14.857 -12.683  1.00  0.00     0.133 A 
ATOM      9  C   UNL     1      -1.610 -15.838 -13.445  1.00  0.00     0.079 A 
ATOM     10  C   UNL     1      -2.748 -13.620 -14.697  1.00  0.00     0.015 A 
ATOM     11  C   UNL     1      -1.544 -15.711 -14.831  1.00  0.00     0.126 A 
ATOM     12  C   UNL     1      -2.114 -14.602 -15.458  1.00  0.00     0.040 A 
ATOM     13  F   UNL     1      -2.296 -14.992 -11.350  1.00  0.00    -0.206 F 
ATOM     14  F   UNL     1      -0.935 -16.652 -15.563  1.00  0.00    -0.207 F 
ENDBRANCH   1   7
BRANCH   4  15
ATOM     15  C   UNL     1      -6.954 -11.596 -11.749  1.00  0.00     0.339 C 
ATOM     16  O   UNL     1      -7.662 -11.439 -12.747  1.00  0.00    -0.246 OA
BRANCH  15  17
ATOM     17  O   UNL     1      -7.477 -11.728 -10.500  1.00  0.00    -0.478 OA
ATOM     18  H   UNL     1      -7.132 -12.524 -10.043  1.00  0.00     0.297 HD
ENDBRANCH  15  17
ENDBRANCH   4  15
BRANCH   5  19
ATOM     19  O   UNL     1      -5.341  -9.788 -10.262  1.00  0.00    -0.507 OA
ATOM     20  H   UNL     1      -4.830  -9.655  -9.444  1.00  0.00     0.293 HD
ENDBRANCH   5  19
TORSDOF 4
ENDMDL
