MODEL 1
REMARK VINA RESULT:    -5.256      0.000      0.000
REMARK INTER + INTRA:          -7.231
REMARK INTER:                  -6.485
REMARK INTRA:                  -0.745
REMARK UNBOUND:                -0.745
REMARK SMILES Cc1ccc(C(=O)c2cc(O)c(O)c([N+](=O)[O-])c2)cc1
REMARK SMILES IDX 8 1 18 2 9 3 14 4 10 5 12 6 6 7 7 8 5 9 4 10 19 11 3 12
REMARK SMILES IDX 20 13 2 14 1 15 15 16 17 17 16 18 11 19 13 21
REMARK H PARENT 11 20 13 22
ROOT
ATOM      1  C   UNL     1      -3.614  -6.347  -4.197  1.00  0.00     0.033 A 
ATOM      2  C   UNL     1      -3.155  -5.448  -5.132  1.00  0.00     0.102 A 
ATOM      3  C   UNL     1      -3.234  -6.308  -2.876  1.00  0.00     0.063 A 
ATOM      4  C   UNL     1      -2.267  -4.454  -4.723  1.00  0.00     0.315 A 
ATOM      5  C   UNL     1      -2.345  -5.314  -2.467  1.00  0.00     0.165 A 
ATOM      6  C   UNL     1      -1.862  -4.386  -3.390  1.00  0.00     0.237 A 
ENDROOT
BRANCH   1   7
ATOM      7  C   UNL     1      -4.566  -7.412  -4.635  1.00  0.00     0.193 C 
ATOM      8  O   UNL     1      -5.412  -7.792  -3.812  1.00  0.00    -0.289 OA
BRANCH   7   9
ATOM      9  C   UNL     1      -4.523  -7.995  -5.966  1.00  0.00     0.023 A 
ATOM     10  C   UNL     1      -3.856  -9.202  -6.178  1.00  0.00     0.012 A 
ATOM     11  C   UNL     1      -5.150  -7.349  -7.032  1.00  0.00     0.012 A 
ATOM     12  C   UNL     1      -3.816  -9.762  -7.455  1.00  0.00     0.004 A 
ATOM     13  C   UNL     1      -5.110  -7.909  -8.309  1.00  0.00     0.004 A 
ATOM     14  C   UNL     1      -4.443  -9.116  -8.521  1.00  0.00    -0.051 A 
ATOM     15  C   UNL     1      -4.398  -9.714  -9.885  1.00  0.00     0.044 C 
ENDBRANCH   7   9
ENDBRANCH   1   7
BRANCH   4  16
ATOM     16  N   UNL     1      -1.785  -3.518  -5.678  1.00  0.00     0.066 N 
ATOM     17  O   UNL     1      -0.638  -3.032  -5.525  1.00  0.00    -0.258 OA
ATOM     18  O   UNL     1      -2.518  -3.207  -6.646  1.00  0.00    -0.258 OA
ENDBRANCH   4  16
BRANCH   5  19
ATOM     19  O   UNL     1      -1.958  -5.260  -1.161  1.00  0.00    -0.504 OA
ATOM     20  H   UNL     1      -2.692  -5.545  -0.592  1.00  0.00     0.293 HD
ENDBRANCH   5  19
BRANCH   6  21
ATOM     21  O   UNL     1      -0.993  -3.418  -2.977  1.00  0.00    -0.500 OA
ATOM     22  H   UNL     1      -1.488  -2.674  -2.603  1.00  0.00     0.294 HD
ENDBRANCH   6  21
TORSDOF 5
ENDMDL
MODEL 2
REMARK VINA RESULT:    -5.237      2.006      3.559
REMARK INTER + INTRA:          -7.207
REMARK INTER:                  -6.470
REMARK INTRA:                  -0.736
REMARK UNBOUND:                -0.745
REMARK SMILES Cc1ccc(C(=O)c2cc(O)c(O)c([N+](=O)[O-])c2)cc1
REMARK SMILES IDX 8 1 18 2 9 3 14 4 10 5 12 6 6 7 7 8 5 9 4 10 19 11 3 12
REMARK SMILES IDX 20 13 2 14 1 15 15 16 17 17 16 18 11 19 13 21
REMARK H PARENT 11 20 13 22
ROOT
ATOM      1  C   UNL     1      -2.433  -6.250  -5.519  1.00  0.00     0.033 A 
ATOM      2  C   UNL     1      -2.496  -6.590  -4.187  1.00  0.00     0.102 A 
ATOM      3  C   UNL     1      -1.944  -5.043  -5.958  1.00  0.00     0.063 A 
ATOM      4  C   UNL     1      -2.041  -5.671  -3.242  1.00  0.00     0.315 A 
ATOM      5  C   UNL     1      -1.490  -4.123  -5.013  1.00  0.00     0.165 A 
ATOM      6  C   UNL     1      -1.538  -4.437  -3.654  1.00  0.00     0.237 A 
ENDROOT
BRANCH   1   7
ATOM      7  C   UNL     1      -2.920  -7.234  -6.531  1.00  0.00     0.193 C 
ATOM      8  O   UNL     1      -2.347  -7.249  -7.631  1.00  0.00    -0.289 OA
BRANCH   7   9
ATOM      9  C   UNL     1      -4.018  -8.150  -6.264  1.00  0.00     0.023 A 
ATOM     10  C   UNL     1      -5.306  -7.838  -6.698  1.00  0.00     0.012 A 
ATOM     11  C   UNL     1      -3.782  -9.339  -5.575  1.00  0.00     0.012 A 
ATOM     12  C   UNL     1      -6.359  -8.716  -6.442  1.00  0.00     0.004 A 
ATOM     13  C   UNL     1      -4.835 -10.218  -5.319  1.00  0.00     0.004 A 
ATOM     14  C   UNL     1      -6.124  -9.907  -5.752  1.00  0.00    -0.051 A 
ATOM     15  C   UNL     1      -7.250 -10.844  -5.478  1.00  0.00     0.044 C 
ENDBRANCH   7   9
ENDBRANCH   1   7
BRANCH   4  16
ATOM     16  N   UNL     1      -2.099  -6.009  -1.862  1.00  0.00     0.066 N 
ATOM     17  O   UNL     1      -1.990  -7.213  -1.528  1.00  0.00    -0.258 OA
ATOM     18  O   UNL     1      -2.256  -5.094  -1.020  1.00  0.00    -0.258 OA
ENDBRANCH   4  16
BRANCH   5  19
ATOM     19  O   UNL     1      -1.001  -2.921  -5.430  1.00  0.00    -0.504 OA
ATOM     20  H   UNL     1      -0.172  -3.059  -5.917  1.00  0.00     0.293 HD
ENDBRANCH   5  19
BRANCH   6  21
ATOM     21  O   UNL     1      -1.091  -3.529  -2.738  1.00  0.00    -0.500 OA
ATOM     22  H   UNL     1      -0.285  -3.103  -3.069  1.00  0.00     0.294 HD
ENDBRANCH   6  21
TORSDOF 5
ENDMDL
MODEL 3
REMARK VINA RESULT:    -4.352      1.267      2.923
REMARK INTER + INTRA:          -6.115
REMARK INTER:                  -5.433
REMARK INTRA:                  -0.682
REMARK UNBOUND:                -0.745
REMARK SMILES Cc1ccc(C(=O)c2cc(O)c(O)c([N+](=O)[O-])c2)cc1
REMARK SMILES IDX 8 1 18 2 9 3 14 4 10 5 12 6 6 7 7 8 5 9 4 10 19 11 3 12
REMARK SMILES IDX 20 13 2 14 1 15 15 16 17 17 16 18 11 19 13 21
REMARK H PARENT 11 20 13 22
ROOT
ATOM      1  C   UNL     1      -3.810  -6.658  -4.565  1.00  0.00     0.033 A 
ATOM      2  C   UNL     1      -3.282  -6.761  -3.299  1.00  0.00     0.102 A 
ATOM      3  C   UNL     1      -3.559  -5.591  -5.394  1.00  0.00     0.063 A 
ATOM      4  C   UNL     1      -2.454  -5.738  -2.837  1.00  0.00     0.315 A 
ATOM      5  C   UNL     1      -2.731  -4.567  -4.932  1.00  0.00     0.165 A 
ATOM      6  C   UNL     1      -2.178  -4.641  -3.653  1.00  0.00     0.237 A 
ENDROOT
BRANCH   1   7
ATOM      7  C   UNL     1      -4.698  -7.753  -5.060  1.00  0.00     0.193 C 
ATOM      8  O   UNL     1      -5.558  -8.185  -4.279  1.00  0.00    -0.289 OA
BRANCH   7   9
ATOM      9  C   UNL     1      -4.579  -8.308  -6.399  1.00  0.00     0.023 A 
ATOM     10  C   UNL     1      -5.202  -7.674  -7.474  1.00  0.00     0.012 A 
ATOM     11  C   UNL     1      -3.841  -9.473  -6.609  1.00  0.00     0.012 A 
ATOM     12  C   UNL     1      -5.088  -8.206  -8.759  1.00  0.00     0.004 A 
ATOM     13  C   UNL     1      -3.726 -10.005  -7.893  1.00  0.00     0.004 A 
ATOM     14  C   UNL     1      -4.350  -9.372  -8.969  1.00  0.00    -0.051 A 
ATOM     15  C   UNL     1      -4.229  -9.941 -10.341  1.00  0.00     0.044 C 
ENDBRANCH   7   9
ENDBRANCH   1   7
BRANCH   4  16
ATOM     16  N   UNL     1      -1.899  -5.831  -1.531  1.00  0.00     0.066 N 
ATOM     17  O   UNL     1      -2.149  -4.924  -0.701  1.00  0.00    -0.258 OA
ATOM     18  O   UNL     1      -1.179  -6.816  -1.247  1.00  0.00    -0.258 OA
ENDBRANCH   4  16
BRANCH   5  19
ATOM     19  O   UNL     1      -2.470  -3.502  -5.740  1.00  0.00    -0.504 OA
ATOM     20  H   UNL     1      -3.114  -3.480  -6.468  1.00  0.00     0.293 HD
ENDBRANCH   5  19
BRANCH   6  21
ATOM     21  O   UNL     1      -1.369  -3.635  -3.212  1.00  0.00    -0.500 OA
ATOM     22  H   UNL     1      -1.883  -2.817  -3.128  1.00  0.00     0.294 HD
ENDBRANCH   6  21
TORSDOF 5
ENDMDL
MODEL 4
REMARK VINA RESULT:    -4.342      1.874      2.609
REMARK INTER + INTRA:          -6.103
REMARK INTER:                  -5.404
REMARK INTRA:                  -0.699
REMARK UNBOUND:                -0.745
REMARK SMILES Cc1ccc(C(=O)c2cc(O)c(O)c([N+](=O)[O-])c2)cc1
REMARK SMILES IDX 8 1 18 2 9 3 14 4 10 5 12 6 6 7 7 8 5 9 4 10 19 11 3 12
REMARK SMILES IDX 20 13 2 14 1 15 15 16 17 17 16 18 11 19 13 21
REMARK H PARENT 11 20 13 22
ROOT
ATOM      1  C   UNL     1      -2.658  -6.518  -5.653  1.00  0.00     0.033 A 
ATOM      2  C   UNL     1      -2.367  -5.260  -6.127  1.00  0.00     0.102 A 
ATOM      3  C   UNL     1      -2.488  -6.877  -4.337  1.00  0.00     0.063 A 
ATOM      4  C   UNL     1      -1.880  -4.306  -5.234  1.00  0.00     0.315 A 
ATOM      5  C   UNL     1      -1.999  -5.923  -3.443  1.00  0.00     0.165 A 
ATOM      6  C   UNL     1      -1.695  -4.637  -3.892  1.00  0.00     0.237 A 
ENDROOT
BRANCH   1   7
ATOM      7  C   UNL     1      -3.180  -7.540  -6.610  1.00  0.00     0.193 C 
ATOM      8  O   UNL     1      -2.621  -7.624  -7.713  1.00  0.00    -0.289 OA
BRANCH   7   9
ATOM      9  C   UNL     1      -4.297  -8.412  -6.285  1.00  0.00     0.023 A 
ATOM     10  C   UNL     1      -5.593  -8.055  -6.659  1.00  0.00     0.012 A 
ATOM     11  C   UNL     1      -4.074  -9.607  -5.601  1.00  0.00     0.012 A 
ATOM     12  C   UNL     1      -6.664  -8.892  -6.348  1.00  0.00     0.004 A 
ATOM     13  C   UNL     1      -5.145 -10.445  -5.290  1.00  0.00     0.004 A 
ATOM     14  C   UNL     1      -6.441 -10.088  -5.664  1.00  0.00    -0.051 A 
ATOM     15  C   UNL     1      -7.586 -10.981  -5.330  1.00  0.00     0.044 C 
ENDBRANCH   7   9
ENDBRANCH   1   7
BRANCH   4  16
ATOM     16  N   UNL     1      -1.575  -3.001  -5.710  1.00  0.00     0.066 N 
ATOM     17  O   UNL     1      -2.493  -2.312  -6.216  1.00  0.00    -0.258 OA
ATOM     18  O   UNL     1      -0.400  -2.578  -5.609  1.00  0.00    -0.258 OA
ENDBRANCH   4  16
BRANCH   5  19
ATOM     19  O   UNL     1      -1.824  -6.261  -2.135  1.00  0.00    -0.504 OA
ATOM     20  H   UNL     1      -1.758  -5.455  -1.597  1.00  0.00     0.293 HD
ENDBRANCH   5  19
BRANCH   6  21
ATOM     21  O   UNL     1      -1.219  -3.713  -3.008  1.00  0.00    -0.500 OA
ATOM     22  H   UNL     1      -1.929  -3.101  -2.762  1.00  0.00     0.294 HD
ENDBRANCH   6  21
TORSDOF 5
ENDMDL
MODEL 5
REMARK VINA RESULT:    -4.338      3.607      6.436
REMARK INTER + INTRA:          -6.098
REMARK INTER:                  -5.180
REMARK INTRA:                  -0.917
REMARK UNBOUND:                -0.745
REMARK SMILES Cc1ccc(C(=O)c2cc(O)c(O)c([N+](=O)[O-])c2)cc1
REMARK SMILES IDX 8 1 18 2 9 3 14 4 10 5 12 6 6 7 7 8 5 9 4 10 19 11 3 12
REMARK SMILES IDX 20 13 2 14 1 15 15 16 17 17 16 18 11 19 13 21
REMARK H PARENT 11 20 13 22
ROOT
ATOM      1  C   UNL     1      -4.296  -9.122  -5.883  1.00  0.00     0.033 A 
ATOM      2  C   UNL     1      -4.180  -9.202  -7.251  1.00  0.00     0.102 A 
ATOM      3  C   UNL     1      -5.305  -9.738  -5.182  1.00  0.00     0.063 A 
ATOM      4  C   UNL     1      -5.128  -9.941  -7.959  1.00  0.00     0.315 A 
ATOM      5  C   UNL     1      -6.254 -10.477  -5.889  1.00  0.00     0.165 A 
ATOM      6  C   UNL     1      -6.165 -10.579  -7.278  1.00  0.00     0.237 A 
ENDROOT
BRANCH   1   7
ATOM      7  C   UNL     1      -3.280  -8.331  -5.125  1.00  0.00     0.193 C 
ATOM      8  O   UNL     1      -2.669  -8.912  -4.216  1.00  0.00    -0.289 OA
BRANCH   7   9
ATOM      9  C   UNL     1      -3.001  -6.935  -5.420  1.00  0.00     0.023 A 
ATOM     10  C   UNL     1      -1.682  -6.483  -5.470  1.00  0.00     0.012 A 
ATOM     11  C   UNL     1      -4.051  -6.047  -5.655  1.00  0.00     0.012 A 
ATOM     12  C   UNL     1      -1.414  -5.144  -5.753  1.00  0.00     0.004 A 
ATOM     13  C   UNL     1      -3.784  -4.708  -5.939  1.00  0.00     0.004 A 
ATOM     14  C   UNL     1      -2.465  -4.256  -5.988  1.00  0.00    -0.051 A 
ATOM     15  C   UNL     1      -2.178  -2.824  -6.290  1.00  0.00     0.044 C 
ENDBRANCH   7   9
ENDBRANCH   1   7
BRANCH   4  16
ATOM     16  N   UNL     1      -5.021 -10.032  -9.374  1.00  0.00     0.066 N 
ATOM     17  O   UNL     1      -4.509  -9.078 -10.006  1.00  0.00    -0.258 OA
ATOM     18  O   UNL     1      -5.442 -11.064  -9.947  1.00  0.00    -0.258 OA
ENDBRANCH   4  16
BRANCH   5  19
ATOM     19  O   UNL     1      -7.261 -11.095  -5.211  1.00  0.00    -0.504 OA
ATOM     20  H   UNL     1      -6.900 -11.540  -4.427  1.00  0.00     0.293 HD
ENDBRANCH   5  19
BRANCH   6  21
ATOM     21  O   UNL     1      -7.099 -11.304  -7.959  1.00  0.00    -0.500 OA
ATOM     22  H   UNL     1      -6.657 -11.969  -8.511  1.00  0.00     0.294 HD
ENDBRANCH   6  21
TORSDOF 5
ENDMDL
MODEL 6
REMARK VINA RESULT:    -4.330      3.515      7.096
REMARK INTER + INTRA:          -6.088
REMARK INTER:                  -5.136
REMARK INTRA:                  -0.952
REMARK UNBOUND:                -0.745
REMARK SMILES Cc1ccc(C(=O)c2cc(O)c(O)c([N+](=O)[O-])c2)cc1
REMARK SMILES IDX 8 1 18 2 9 3 14 4 10 5 12 6 6 7 7 8 5 9 4 10 19 11 3 12
REMARK SMILES IDX 20 13 2 14 1 15 15 16 17 17 16 18 11 19 13 21
REMARK H PARENT 11 20 13 22
ROOT
ATOM      1  C   UNL     1      -4.939  -8.022  -6.926  1.00  0.00     0.033 A 
ATOM      2  C   UNL     1      -5.757  -8.873  -6.218  1.00  0.00     0.102 A 
ATOM      3  C   UNL     1      -4.522  -8.285  -8.209  1.00  0.00     0.063 A 
ATOM      4  C   UNL     1      -6.181 -10.052  -6.829  1.00  0.00     0.315 A 
ATOM      5  C   UNL     1      -4.945  -9.465  -8.820  1.00  0.00     0.165 A 
ATOM      6  C   UNL     1      -5.776 -10.349  -8.130  1.00  0.00     0.237 A 
ENDROOT
BRANCH   1   7
ATOM      7  C   UNL     1      -4.484  -6.759  -6.271  1.00  0.00     0.193 C 
ATOM      8  O   UNL     1      -4.731  -5.694  -6.857  1.00  0.00    -0.289 OA
BRANCH   7   9
ATOM      9  C   UNL     1      -3.779  -6.749  -5.000  1.00  0.00     0.023 A 
ATOM     10  C   UNL     1      -2.710  -7.620  -4.789  1.00  0.00     0.012 A 
ATOM     11  C   UNL     1      -4.172  -5.870  -3.991  1.00  0.00     0.012 A 
ATOM     12  C   UNL     1      -2.034  -7.610  -3.569  1.00  0.00     0.004 A 
ATOM     13  C   UNL     1      -3.496  -5.860  -2.770  1.00  0.00     0.004 A 
ATOM     14  C   UNL     1      -2.426  -6.731  -2.559  1.00  0.00    -0.051 A 
ATOM     15  C   UNL     1      -1.704  -6.722  -1.255  1.00  0.00     0.044 C 
ENDBRANCH   7   9
ENDBRANCH   1   7
BRANCH   4  16
ATOM     16  N   UNL     1      -7.027 -10.941  -6.110  1.00  0.00     0.066 N 
ATOM     17  O   UNL     1      -6.923 -10.998  -4.861  1.00  0.00    -0.258 OA
ATOM     18  O   UNL     1      -7.851 -11.640  -6.745  1.00  0.00    -0.258 OA
ENDBRANCH   4  16
BRANCH   5  19
ATOM     19  O   UNL     1      -4.542  -9.742 -10.092  1.00  0.00    -0.504 OA
ATOM     20  H   UNL     1      -3.688 -10.204 -10.069  1.00  0.00     0.293 HD
ENDBRANCH   5  19
BRANCH   6  21
ATOM     21  O   UNL     1      -6.185 -11.500  -8.739  1.00  0.00    -0.500 OA
ATOM     22  H   UNL     1      -7.071 -11.375  -9.112  1.00  0.00     0.294 HD
ENDBRANCH   6  21
TORSDOF 5
ENDMDL
MODEL 7
REMARK VINA RESULT:    -4.309      2.336      4.061
REMARK INTER + INTRA:          -6.062
REMARK INTER:                  -5.080
REMARK INTRA:                  -0.983
REMARK UNBOUND:                -0.745
REMARK SMILES Cc1ccc(C(=O)c2cc(O)c(O)c([N+](=O)[O-])c2)cc1
REMARK SMILES IDX 8 1 18 2 9 3 14 4 10 5 12 6 6 7 7 8 5 9 4 10 19 11 3 12
REMARK SMILES IDX 20 13 2 14 1 15 15 16 17 17 16 18 11 19 13 21
REMARK H PARENT 11 20 13 22
ROOT
ATOM      1  C   UNL     1      -5.025  -7.823  -6.984  1.00  0.00     0.033 A 
ATOM      2  C   UNL     1      -4.030  -7.556  -6.073  1.00  0.00     0.102 A 
ATOM      3  C   UNL     1      -5.806  -6.841  -7.545  1.00  0.00     0.063 A 
ATOM      4  C   UNL     1      -3.803  -6.231  -5.702  1.00  0.00     0.315 A 
ATOM      5  C   UNL     1      -5.580  -5.515  -7.174  1.00  0.00     0.165 A 
ATOM      6  C   UNL     1      -4.578  -5.210  -6.252  1.00  0.00     0.237 A 
ENDROOT
BRANCH   1   7
ATOM      7  C   UNL     1      -5.268  -9.243  -7.382  1.00  0.00     0.193 C 
ATOM      8  O   UNL     1      -5.892  -9.958  -6.583  1.00  0.00    -0.289 OA
BRANCH   7   9
ATOM      9  C   UNL     1      -4.804  -9.789  -8.647  1.00  0.00     0.023 A 
ATOM     10  C   UNL     1      -5.700 -10.438  -9.497  1.00  0.00     0.012 A 
ATOM     11  C   UNL     1      -3.464  -9.663  -9.011  1.00  0.00     0.012 A 
ATOM     12  C   UNL     1      -5.254 -10.961 -10.710  1.00  0.00     0.004 A 
ATOM     13  C   UNL     1      -3.018 -10.186 -10.225  1.00  0.00     0.004 A 
ATOM     14  C   UNL     1      -3.913 -10.836 -11.075  1.00  0.00    -0.051 A 
ATOM     15  C   UNL     1      -3.438 -11.397 -12.372  1.00  0.00     0.044 C 
ENDBRANCH   7   9
ENDBRANCH   1   7
BRANCH   4  16
ATOM     16  N   UNL     1      -2.778  -5.940  -4.761  1.00  0.00     0.066 N 
ATOM     17  O   UNL     1      -2.949  -4.998  -3.950  1.00  0.00    -0.258 OA
ATOM     18  O   UNL     1      -1.733  -6.632  -4.769  1.00  0.00    -0.258 OA
ENDBRANCH   4  16
BRANCH   5  19
ATOM     19  O   UNL     1      -6.344  -4.528  -7.720  1.00  0.00    -0.504 OA
ATOM     20  H   UNL     1      -6.902  -4.130  -7.032  1.00  0.00     0.293 HD
ENDBRANCH   5  19
BRANCH   6  21
ATOM     21  O   UNL     1      -4.365  -3.910  -5.897  1.00  0.00    -0.500 OA
ATOM     22  H   UNL     1      -4.595  -3.785  -4.963  1.00  0.00     0.294 HD
ENDBRANCH   6  21
TORSDOF 5
ENDMDL
MODEL 8
REMARK VINA RESULT:    -4.280      3.760      6.995
REMARK INTER + INTRA:          -6.026
REMARK INTER:                  -5.105
REMARK INTRA:                  -0.921
REMARK UNBOUND:                -0.745
REMARK SMILES Cc1ccc(C(=O)c2cc(O)c(O)c([N+](=O)[O-])c2)cc1
REMARK SMILES IDX 8 1 18 2 9 3 14 4 10 5 12 6 6 7 7 8 5 9 4 10 19 11 3 12
REMARK SMILES IDX 20 13 2 14 1 15 15 16 17 17 16 18 11 19 13 21
REMARK H PARENT 11 20 13 22
ROOT
ATOM      1  C   UNL     1      -4.374  -9.085  -6.272  1.00  0.00     0.033 A 
ATOM      2  C   UNL     1      -5.495  -9.725  -5.797  1.00  0.00     0.102 A 
ATOM      3  C   UNL     1      -3.984  -9.141  -7.589  1.00  0.00     0.063 A 
ATOM      4  C   UNL     1      -6.270 -10.463  -6.691  1.00  0.00     0.315 A 
ATOM      5  C   UNL     1      -4.759  -9.880  -8.483  1.00  0.00     0.165 A 
ATOM      6  C   UNL     1      -5.903 -10.540  -8.034  1.00  0.00     0.237 A 
ENDROOT
BRANCH   1   7
ATOM      7  C   UNL     1      -3.543  -8.294  -5.314  1.00  0.00     0.193 C 
ATOM      8  O   UNL     1      -3.158  -8.870  -4.285  1.00  0.00    -0.289 OA
BRANCH   7   9
ATOM      9  C   UNL     1      -3.185  -6.906  -5.555  1.00  0.00     0.023 A 
ATOM     10  C   UNL     1      -1.843  -6.522  -5.560  1.00  0.00     0.012 A 
ATOM     11  C   UNL     1      -4.182  -5.957  -5.781  1.00  0.00     0.012 A 
ATOM     12  C   UNL     1      -1.500  -5.190  -5.790  1.00  0.00     0.004 A 
ATOM     13  C   UNL     1      -3.839  -4.624  -6.012  1.00  0.00     0.004 A 
ATOM     14  C   UNL     1      -2.498  -4.241  -6.017  1.00  0.00    -0.051 A 
ATOM     15  C   UNL     1      -2.130  -2.817  -6.262  1.00  0.00     0.044 C 
ENDBRANCH   7   9
ENDBRANCH   1   7
BRANCH   4  16
ATOM     16  N   UNL     1      -7.433 -11.130  -6.215  1.00  0.00     0.066 N 
ATOM     17  O   UNL     1      -7.958 -10.741  -5.144  1.00  0.00    -0.258 OA
ATOM     18  O   UNL     1      -7.897 -12.085  -6.879  1.00  0.00    -0.258 OA
ENDBRANCH   4  16
BRANCH   5  19
ATOM     19  O   UNL     1      -4.388  -9.946  -9.793  1.00  0.00    -0.504 OA
ATOM     20  H   UNL     1      -5.171  -9.838 -10.358  1.00  0.00     0.293 HD
ENDBRANCH   5  19
BRANCH   6  21
ATOM     21  O   UNL     1      -6.654 -11.259  -8.919  1.00  0.00    -0.500 OA
ATOM     22  H   UNL     1      -6.114 -11.966  -9.305  1.00  0.00     0.294 HD
ENDBRANCH   6  21
TORSDOF 5
ENDMDL
MODEL 9
REMARK VINA RESULT:    -4.233      3.653      6.692
REMARK INTER + INTRA:          -5.968
REMARK INTER:                  -5.020
REMARK INTRA:                  -0.948
REMARK UNBOUND:                -0.745
REMARK SMILES Cc1ccc(C(=O)c2cc(O)c(O)c([N+](=O)[O-])c2)cc1
REMARK SMILES IDX 8 1 18 2 9 3 14 4 10 5 12 6 6 7 7 8 5 9 4 10 19 11 3 12
REMARK SMILES IDX 20 13 2 14 1 15 15 16 17 17 16 18 11 19 13 21
REMARK H PARENT 11 20 13 22
ROOT
ATOM      1  C   UNL     1      -4.870  -7.976  -6.942  1.00  0.00     0.033 A 
ATOM      2  C   UNL     1      -4.404  -8.259  -8.205  1.00  0.00     0.102 A 
ATOM      3  C   UNL     1      -5.731  -8.803  -6.261  1.00  0.00     0.063 A 
ATOM      4  C   UNL     1      -4.822  -9.438  -8.822  1.00  0.00     0.315 A 
ATOM      5  C   UNL     1      -6.150  -9.982  -6.878  1.00  0.00     0.165 A 
ATOM      6  C   UNL     1      -5.695 -10.300  -8.159  1.00  0.00     0.237 A 
ENDROOT
BRANCH   1   7
ATOM      7  C   UNL     1      -4.422  -6.713  -6.281  1.00  0.00     0.193 C 
ATOM      8  O   UNL     1      -4.658  -5.648  -6.871  1.00  0.00    -0.289 OA
BRANCH   7   9
ATOM      9  C   UNL     1      -3.735  -6.705  -4.999  1.00  0.00     0.023 A 
ATOM     10  C   UNL     1      -2.699  -7.607  -4.757  1.00  0.00     0.012 A 
ATOM     11  C   UNL     1      -4.112  -5.794  -4.012  1.00  0.00     0.012 A 
ATOM     12  C   UNL     1      -2.041  -7.598  -3.527  1.00  0.00     0.004 A 
ATOM     13  C   UNL     1      -3.454  -5.785  -2.782  1.00  0.00     0.004 A 
ATOM     14  C   UNL     1      -2.418  -6.688  -2.539  1.00  0.00    -0.051 A 
ATOM     15  C   UNL     1      -1.715  -6.680  -1.225  1.00  0.00     0.044 C 
ENDBRANCH   7   9
ENDBRANCH   1   7
BRANCH   4  16
ATOM     16  N   UNL     1      -4.348  -9.744 -10.127  1.00  0.00     0.066 N 
ATOM     17  O   UNL     1      -5.098 -10.372 -10.912  1.00  0.00    -0.258 OA
ATOM     18  O   UNL     1      -3.196  -9.377 -10.454  1.00  0.00    -0.258 OA
ENDBRANCH   4  16
BRANCH   5  19
ATOM     19  O   UNL     1      -7.003 -10.815  -6.219  1.00  0.00    -0.504 OA
ATOM     20  H   UNL     1      -7.358 -11.474  -6.838  1.00  0.00     0.293 HD
ENDBRANCH   5  19
BRANCH   6  21
ATOM     21  O   UNL     1      -6.112 -11.456  -8.752  1.00  0.00    -0.500 OA
ATOM     22  H   UNL     1      -5.415 -11.792  -9.337  1.00  0.00     0.294 HD
ENDBRANCH   6  21
TORSDOF 5
ENDMDL
