MODEL 1
REMARK VINA RESULT:    -7.005      0.000      0.000
REMARK INTER + INTRA:          -8.892
REMARK INTER:                  -8.234
REMARK INTRA:                  -0.659
REMARK UNBOUND:                -0.659
REMARK SMILES O=C(O)c1cc(-c2ccc(F)cc2F)ccc1O
REMARK SMILES IDX 6 1 5 2 15 3 4 4 17 5 16 6 7 7 13 8 12 9 8 10 10 11 9 12
REMARK SMILES IDX 14 13 11 14 2 15 1 16 3 17 18 19
REMARK H PARENT 3 18 18 20
ROOT
ATOM      1  C   UNL     1       5.119   4.642  -6.159  1.00  0.00    -0.014 A 
ATOM      2  C   UNL     1       3.730   4.581  -6.255  1.00  0.00     0.028 A 
ATOM      3  C   UNL     1       5.747   4.360  -4.946  1.00  0.00     0.013 A 
ATOM      4  C   UNL     1       2.967   4.237  -5.139  1.00  0.00     0.102 A 
ATOM      5  C   UNL     1       3.595   3.954  -3.926  1.00  0.00     0.130 A 
ATOM      6  C   UNL     1       4.986   4.015  -3.830  1.00  0.00     0.048 A 
ENDROOT
BRANCH   1   7
ATOM      7  C   UNL     1       5.911   5.001  -7.316  1.00  0.00     0.018 A 
ATOM      8  C   UNL     1       5.667   4.392  -8.548  1.00  0.00     0.133 A 
ATOM      9  C   UNL     1       6.433   4.740  -9.661  1.00  0.00     0.079 A 
ATOM     10  C   UNL     1       6.919   5.957  -7.198  1.00  0.00     0.015 A 
ATOM     11  C   UNL     1       7.441   5.696  -9.542  1.00  0.00     0.126 A 
ATOM     12  C   UNL     1       7.684   6.305  -8.311  1.00  0.00     0.040 A 
ATOM     13  F   UNL     1       4.703   3.469  -8.677  1.00  0.00    -0.206 F 
ATOM     14  F   UNL     1       8.176   6.031 -10.610  1.00  0.00    -0.207 F 
ENDBRANCH   1   7
BRANCH   4  15
ATOM     15  C   UNL     1       1.517   4.178  -5.261  1.00  0.00     0.339 C 
ATOM     16  O   UNL     1       0.713   4.652  -4.454  1.00  0.00    -0.246 OA
BRANCH  15  17
ATOM     17  O   UNL     1       1.117   3.530  -6.389  1.00  0.00    -0.478 OA
ATOM     18  H   UNL     1       0.194   3.755  -6.631  1.00  0.00     0.297 HD
ENDBRANCH  15  17
ENDBRANCH   4  15
BRANCH   5  19
ATOM     19  O   UNL     1       2.868   3.615  -2.824  1.00  0.00    -0.507 OA
ATOM     20  H   UNL     1       2.789   4.393  -2.245  1.00  0.00     0.293 HD
ENDBRANCH   5  19
TORSDOF 4
ENDMDL
MODEL 2
REMARK VINA RESULT:    -6.989      1.130      1.612
REMARK INTER + INTRA:          -8.873
REMARK INTER:                  -8.227
REMARK INTRA:                  -0.646
REMARK UNBOUND:                -0.659
REMARK SMILES O=C(O)c1cc(-c2ccc(F)cc2F)ccc1O
REMARK SMILES IDX 6 1 5 2 15 3 4 4 17 5 16 6 7 7 13 8 12 9 8 10 10 11 9 12
REMARK SMILES IDX 14 13 11 14 2 15 1 16 3 17 18 19
REMARK H PARENT 3 18 18 20
ROOT
ATOM      1  C   UNL     1       5.128   4.695  -6.120  1.00  0.00    -0.014 A 
ATOM      2  C   UNL     1       3.741   4.614  -6.232  1.00  0.00     0.028 A 
ATOM      3  C   UNL     1       5.747   4.423  -4.900  1.00  0.00     0.013 A 
ATOM      4  C   UNL     1       2.971   4.261  -5.123  1.00  0.00     0.102 A 
ATOM      5  C   UNL     1       3.590   3.988  -3.903  1.00  0.00     0.130 A 
ATOM      6  C   UNL     1       4.979   4.069  -3.792  1.00  0.00     0.048 A 
ENDROOT
BRANCH   1   7
ATOM      7  C   UNL     1       5.927   5.063  -7.270  1.00  0.00     0.018 A 
ATOM      8  C   UNL     1       6.922   6.034  -7.149  1.00  0.00     0.133 A 
ATOM      9  C   UNL     1       7.690   6.386  -8.259  1.00  0.00     0.079 A 
ATOM     10  C   UNL     1       5.701   4.445  -8.499  1.00  0.00     0.015 A 
ATOM     11  C   UNL     1       7.463   5.768  -9.489  1.00  0.00     0.126 A 
ATOM     12  C   UNL     1       6.469   4.797  -9.608  1.00  0.00     0.040 A 
ATOM     13  F   UNL     1       7.151   6.640  -5.975  1.00  0.00    -0.206 F 
ATOM     14  F   UNL     1       8.200   6.105 -10.555  1.00  0.00    -0.207 F 
ENDBRANCH   1   7
BRANCH   4  15
ATOM     15  C   UNL     1       1.523   4.181  -5.260  1.00  0.00     0.339 C 
ATOM     16  O   UNL     1       0.705   4.650  -4.466  1.00  0.00    -0.246 OA
BRANCH  15  17
ATOM     17  O   UNL     1       1.145   3.519  -6.387  1.00  0.00    -0.478 OA
ATOM     18  H   UNL     1       0.320   3.888  -6.767  1.00  0.00     0.297 HD
ENDBRANCH  15  17
ENDBRANCH   4  15
BRANCH   5  19
ATOM     19  O   UNL     1       2.856   3.640  -2.808  1.00  0.00    -0.507 OA
ATOM     20  H   UNL     1       3.450   3.265  -2.135  1.00  0.00     0.293 HD
ENDBRANCH   5  19
TORSDOF 4
ENDMDL
MODEL 3
REMARK VINA RESULT:    -6.978      1.742      3.230
REMARK INTER + INTRA:          -8.861
REMARK INTER:                  -8.161
REMARK INTRA:                  -0.700
REMARK UNBOUND:                -0.659
REMARK SMILES O=C(O)c1cc(-c2ccc(F)cc2F)ccc1O
REMARK SMILES IDX 6 1 5 2 15 3 4 4 17 5 16 6 7 7 13 8 12 9 8 10 10 11 9 12
REMARK SMILES IDX 14 13 11 14 2 15 1 16 3 17 18 19
REMARK H PARENT 3 18 18 20
ROOT
ATOM      1  C   UNL     1       5.209   4.751  -6.025  1.00  0.00    -0.014 A 
ATOM      2  C   UNL     1       5.916   4.446  -4.863  1.00  0.00     0.028 A 
ATOM      3  C   UNL     1       3.815   4.705  -6.026  1.00  0.00     0.013 A 
ATOM      4  C   UNL     1       5.229   4.094  -3.700  1.00  0.00     0.102 A 
ATOM      5  C   UNL     1       3.835   4.047  -3.701  1.00  0.00     0.130 A 
ATOM      6  C   UNL     1       3.128   4.353  -4.864  1.00  0.00     0.048 A 
ENDROOT
BRANCH   1   7
ATOM      7  C   UNL     1       5.920   5.115  -7.231  1.00  0.00     0.018 A 
ATOM      8  C   UNL     1       6.921   6.086  -7.188  1.00  0.00     0.133 A 
ATOM      9  C   UNL     1       7.604   6.435  -8.354  1.00  0.00     0.079 A 
ATOM     10  C   UNL     1       5.604   4.492  -8.438  1.00  0.00     0.015 A 
ATOM     11  C   UNL     1       7.287   5.812  -9.561  1.00  0.00     0.126 A 
ATOM     12  C   UNL     1       6.287   4.840  -9.603  1.00  0.00     0.040 A 
ATOM     13  F   UNL     1       7.235   6.697  -6.037  1.00  0.00    -0.206 F 
ATOM     14  F   UNL     1       7.943   6.146 -10.680  1.00  0.00    -0.207 F 
ENDBRANCH   1   7
BRANCH   4  15
ATOM     15  C   UNL     1       5.986   3.779  -2.497  1.00  0.00     0.339 C 
ATOM     16  O   UNL     1       5.725   2.867  -1.707  1.00  0.00    -0.246 OA
BRANCH  15  17
ATOM     17  O   UNL     1       7.047   4.612  -2.319  1.00  0.00    -0.478 OA
ATOM     18  H   UNL     1       7.894   4.180  -2.556  1.00  0.00     0.297 HD
ENDBRANCH  15  17
ENDBRANCH   4  15
BRANCH   5  19
ATOM     19  O   UNL     1       3.146   3.706  -2.576  1.00  0.00    -0.507 OA
ATOM     20  H   UNL     1       3.504   4.204  -1.821  1.00  0.00     0.293 HD
ENDBRANCH   5  19
TORSDOF 4
ENDMDL
MODEL 4
REMARK VINA RESULT:    -6.971      1.346      2.793
REMARK INTER + INTRA:          -8.852
REMARK INTER:                  -8.157
REMARK INTRA:                  -0.695
REMARK UNBOUND:                -0.659
REMARK SMILES O=C(O)c1cc(-c2ccc(F)cc2F)ccc1O
REMARK SMILES IDX 6 1 5 2 15 3 4 4 17 5 16 6 7 7 13 8 12 9 8 10 10 11 9 12
REMARK SMILES IDX 14 13 11 14 2 15 1 16 3 17 18 19
REMARK H PARENT 3 18 18 20
ROOT
ATOM      1  C   UNL     1       5.187   4.709  -6.035  1.00  0.00    -0.014 A 
ATOM      2  C   UNL     1       5.899   4.417  -4.873  1.00  0.00     0.028 A 
ATOM      3  C   UNL     1       3.793   4.659  -6.030  1.00  0.00     0.013 A 
ATOM      4  C   UNL     1       5.219   4.075  -3.704  1.00  0.00     0.102 A 
ATOM      5  C   UNL     1       3.825   4.026  -3.699  1.00  0.00     0.130 A 
ATOM      6  C   UNL     1       3.111   4.318  -4.862  1.00  0.00     0.048 A 
ENDROOT
BRANCH   1   7
ATOM      7  C   UNL     1       5.893   5.062  -7.248  1.00  0.00     0.018 A 
ATOM      8  C   UNL     1       5.583   4.424  -8.450  1.00  0.00     0.133 A 
ATOM      9  C   UNL     1       6.266   4.767  -9.617  1.00  0.00     0.079 A 
ATOM     10  C   UNL     1       6.883   6.043  -7.215  1.00  0.00     0.015 A 
ATOM     11  C   UNL     1       7.257   5.748  -9.583  1.00  0.00     0.126 A 
ATOM     12  C   UNL     1       7.565   6.386  -8.381  1.00  0.00     0.040 A 
ATOM     13  F   UNL     1       4.636   3.476  -8.499  1.00  0.00    -0.206 F 
ATOM     14  F   UNL     1       7.913   6.078 -10.703  1.00  0.00    -0.207 F 
ENDBRANCH   1   7
BRANCH   4  15
ATOM     15  C   UNL     1       5.981   3.774  -2.501  1.00  0.00     0.339 C 
ATOM     16  O   UNL     1       5.728   2.867  -1.704  1.00  0.00    -0.246 OA
BRANCH  15  17
ATOM     17  O   UNL     1       7.037   4.615  -2.332  1.00  0.00    -0.478 OA
ATOM     18  H   UNL     1       6.797   5.545  -2.527  1.00  0.00     0.297 HD
ENDBRANCH  15  17
ENDBRANCH   4  15
BRANCH   5  19
ATOM     19  O   UNL     1       3.140   3.695  -2.567  1.00  0.00    -0.507 OA
ATOM     20  H   UNL     1       3.735   3.775  -1.802  1.00  0.00     0.293 HD
ENDBRANCH   5  19
TORSDOF 4
ENDMDL
MODEL 5
REMARK VINA RESULT:    -5.319      4.568      6.919
REMARK INTER + INTRA:          -6.910
REMARK INTER:                  -5.831
REMARK INTRA:                  -1.079
REMARK UNBOUND:                -0.659
REMARK SMILES O=C(O)c1cc(-c2ccc(F)cc2F)ccc1O
REMARK SMILES IDX 6 1 5 2 15 3 4 4 17 5 16 6 7 7 13 8 12 9 8 10 10 11 9 12
REMARK SMILES IDX 14 13 11 14 2 15 1 16 3 17 18 19
REMARK H PARENT 3 18 18 20
ROOT
ATOM      1  C   UNL     1       6.649   5.429  -8.150  1.00  0.00    -0.014 A 
ATOM      2  C   UNL     1       7.901   4.894  -8.451  1.00  0.00     0.028 A 
ATOM      3  C   UNL     1       6.034   6.309  -9.041  1.00  0.00     0.013 A 
ATOM      4  C   UNL     1       8.539   5.239  -9.643  1.00  0.00     0.102 A 
ATOM      5  C   UNL     1       7.924   6.119 -10.534  1.00  0.00     0.130 A 
ATOM      6  C   UNL     1       6.671   6.654 -10.232  1.00  0.00     0.048 A 
ENDROOT
BRANCH   1   7
ATOM      7  C   UNL     1       5.987   5.073  -6.914  1.00  0.00     0.018 A 
ATOM      8  C   UNL     1       6.266   5.777  -5.742  1.00  0.00     0.133 A 
ATOM      9  C   UNL     1       5.625   5.430  -4.552  1.00  0.00     0.079 A 
ATOM     10  C   UNL     1       5.068   4.024  -6.895  1.00  0.00     0.015 A 
ATOM     11  C   UNL     1       4.707   4.381  -4.534  1.00  0.00     0.126 A 
ATOM     12  C   UNL     1       4.428   3.679  -5.706  1.00  0.00     0.040 A 
ATOM     13  F   UNL     1       7.148   6.786  -5.742  1.00  0.00    -0.206 F 
ATOM     14  F   UNL     1       4.092   4.048  -3.392  1.00  0.00    -0.207 F 
ENDBRANCH   1   7
BRANCH   4  15
ATOM     15  C   UNL     1       9.846   4.669  -9.939  1.00  0.00     0.339 C 
ATOM     16  O   UNL     1      10.476   4.835 -10.986  1.00  0.00    -0.246 OA
BRANCH  15  17
ATOM     17  O   UNL     1      10.325   3.912  -8.915  1.00  0.00    -0.478 OA
ATOM     18  H   UNL     1      10.468   4.444  -8.104  1.00  0.00     0.297 HD
ENDBRANCH  15  17
ENDBRANCH   4  15
BRANCH   5  19
ATOM     19  O   UNL     1       8.530   6.468 -11.704  1.00  0.00    -0.507 OA
ATOM     20  H   UNL     1       9.454   6.713 -11.521  1.00  0.00     0.293 HD
ENDBRANCH   5  19
TORSDOF 4
ENDMDL
MODEL 6
REMARK VINA RESULT:    -5.290      4.123      6.435
REMARK INTER + INTRA:          -6.877
REMARK INTER:                  -5.811
REMARK INTRA:                  -1.066
REMARK UNBOUND:                -0.659
REMARK SMILES O=C(O)c1cc(-c2ccc(F)cc2F)ccc1O
REMARK SMILES IDX 6 1 5 2 15 3 4 4 17 5 16 6 7 7 13 8 12 9 8 10 10 11 9 12
REMARK SMILES IDX 14 13 11 14 2 15 1 16 3 17 18 19
REMARK H PARENT 3 18 18 20
ROOT
ATOM      1  C   UNL     1       6.647   5.438  -8.165  1.00  0.00    -0.014 A 
ATOM      2  C   UNL     1       6.014   6.270  -9.088  1.00  0.00     0.028 A 
ATOM      3  C   UNL     1       7.926   4.947  -8.431  1.00  0.00     0.013 A 
ATOM      4  C   UNL     1       6.659   6.613 -10.277  1.00  0.00     0.102 A 
ATOM      5  C   UNL     1       7.937   6.122 -10.542  1.00  0.00     0.130 A 
ATOM      6  C   UNL     1       8.571   5.289  -9.619  1.00  0.00     0.048 A 
ENDROOT
BRANCH   1   7
ATOM      7  C   UNL     1       5.978   5.081  -6.933  1.00  0.00     0.018 A 
ATOM      8  C   UNL     1       6.256   5.780  -5.758  1.00  0.00     0.133 A 
ATOM      9  C   UNL     1       5.609   5.433  -4.571  1.00  0.00     0.079 A 
ATOM     10  C   UNL     1       5.054   4.037  -6.922  1.00  0.00     0.015 A 
ATOM     11  C   UNL     1       4.686   4.388  -4.560  1.00  0.00     0.126 A 
ATOM     12  C   UNL     1       4.408   3.691  -5.736  1.00  0.00     0.040 A 
ATOM     13  F   UNL     1       7.144   6.785  -5.751  1.00  0.00    -0.206 F 
ATOM     14  F   UNL     1       4.064   4.055  -3.422  1.00  0.00    -0.207 F 
ENDBRANCH   1   7
BRANCH   4  15
ATOM     15  C   UNL     1       5.981   7.484 -11.227  1.00  0.00     0.339 C 
ATOM     16  O   UNL     1       6.322   7.666 -12.398  1.00  0.00    -0.246 OA
BRANCH  15  17
ATOM     17  O   UNL     1       4.896   8.099 -10.682  1.00  0.00    -0.478 OA
ATOM     18  H   UNL     1       4.064   7.830 -11.125  1.00  0.00     0.297 HD
ENDBRANCH  15  17
ENDBRANCH   4  15
BRANCH   5  19
ATOM     19  O   UNL     1       8.585   6.445 -11.698  1.00  0.00    -0.507 OA
ATOM     20  H   UNL     1       8.882   5.628 -12.134  1.00  0.00     0.293 HD
ENDBRANCH   5  19
TORSDOF 4
ENDMDL
MODEL 7
REMARK VINA RESULT:    -5.051      8.550     10.802
REMARK INTER + INTRA:          -6.596
REMARK INTER:                  -5.541
REMARK INTRA:                  -1.055
REMARK UNBOUND:                -0.659
REMARK SMILES O=C(O)c1cc(-c2ccc(F)cc2F)ccc1O
REMARK SMILES IDX 6 1 5 2 15 3 4 4 17 5 16 6 7 7 13 8 12 9 8 10 10 11 9 12
REMARK SMILES IDX 14 13 11 14 2 15 1 16 3 17 18 19
REMARK H PARENT 3 18 18 20
ROOT
ATOM      1  C   UNL     1       6.140  11.366 -13.446  1.00  0.00    -0.014 A 
ATOM      2  C   UNL     1       4.984  11.820 -14.081  1.00  0.00     0.028 A 
ATOM      3  C   UNL     1       7.289  12.156 -13.441  1.00  0.00     0.013 A 
ATOM      4  C   UNL     1       4.977  13.065 -14.710  1.00  0.00     0.102 A 
ATOM      5  C   UNL     1       6.126  13.855 -14.705  1.00  0.00     0.130 A 
ATOM      6  C   UNL     1       7.282  13.401 -14.070  1.00  0.00     0.048 A 
ENDROOT
BRANCH   1   7
ATOM      7  C   UNL     1       6.148  10.074 -12.794  1.00  0.00     0.018 A 
ATOM      8  C   UNL     1       6.657   8.957 -13.458  1.00  0.00     0.133 A 
ATOM      9  C   UNL     1       6.663   7.714 -12.826  1.00  0.00     0.079 A 
ATOM     10  C   UNL     1       5.648   9.947 -11.499  1.00  0.00     0.015 A 
ATOM     11  C   UNL     1       6.162   7.587 -11.531  1.00  0.00     0.126 A 
ATOM     12  C   UNL     1       5.655   8.704 -10.867  1.00  0.00     0.040 A 
ATOM     13  F   UNL     1       7.140   9.062 -14.704  1.00  0.00    -0.206 F 
ATOM     14  F   UNL     1       6.168   6.394 -10.923  1.00  0.00    -0.207 F 
ENDBRANCH   1   7
BRANCH   4  15
ATOM     15  C   UNL     1       3.759  13.521 -15.367  1.00  0.00     0.339 C 
ATOM     16  O   UNL     1       3.713  14.296 -16.325  1.00  0.00    -0.246 OA
BRANCH  15  17
ATOM     17  O   UNL     1       2.638  12.992 -14.806  1.00  0.00    -0.478 OA
ATOM     18  H   UNL     1       2.522  13.285 -13.878  1.00  0.00     0.297 HD
ENDBRANCH  15  17
ENDBRANCH   4  15
BRANCH   5  19
ATOM     19  O   UNL     1       6.139  15.075 -15.314  1.00  0.00    -0.507 OA
ATOM     20  H   UNL     1       5.895  15.757 -14.664  1.00  0.00     0.293 HD
ENDBRANCH   5  19
TORSDOF 4
ENDMDL
MODEL 8
REMARK VINA RESULT:    -4.678      2.074      3.227
REMARK INTER + INTRA:          -6.157
REMARK INTER:                  -5.195
REMARK INTRA:                  -0.962
REMARK UNBOUND:                -0.659
REMARK SMILES O=C(O)c1cc(-c2ccc(F)cc2F)ccc1O
REMARK SMILES IDX 6 1 5 2 15 3 4 4 17 5 16 6 7 7 13 8 12 9 8 10 10 11 9 12
REMARK SMILES IDX 14 13 11 14 2 15 1 16 3 17 18 19
REMARK H PARENT 3 18 18 20
ROOT
ATOM      1  C   UNL     1       5.753   4.841  -7.368  1.00  0.00    -0.014 A 
ATOM      2  C   UNL     1       6.243   5.227  -6.121  1.00  0.00     0.028 A 
ATOM      3  C   UNL     1       4.724   3.903  -7.452  1.00  0.00     0.013 A 
ATOM      4  C   UNL     1       5.704   4.677  -4.958  1.00  0.00     0.102 A 
ATOM      5  C   UNL     1       4.675   3.739  -5.042  1.00  0.00     0.130 A 
ATOM      6  C   UNL     1       4.185   3.352  -6.290  1.00  0.00     0.048 A 
ENDROOT
BRANCH   1   7
ATOM      7  C   UNL     1       6.312   5.410  -8.575  1.00  0.00     0.018 A 
ATOM      8  C   UNL     1       7.623   5.111  -8.948  1.00  0.00     0.133 A 
ATOM      9  C   UNL     1       8.158   5.663 -10.113  1.00  0.00     0.079 A 
ATOM     10  C   UNL     1       5.538   6.259  -9.365  1.00  0.00     0.015 A 
ATOM     11  C   UNL     1       7.384   6.512 -10.902  1.00  0.00     0.126 A 
ATOM     12  C   UNL     1       6.073   6.810 -10.528  1.00  0.00     0.040 A 
ATOM     13  F   UNL     1       8.382   4.300  -8.198  1.00  0.00    -0.206 F 
ATOM     14  F   UNL     1       7.897   7.042 -12.020  1.00  0.00    -0.207 F 
ENDBRANCH   1   7
BRANCH   4  15
ATOM     15  C   UNL     1       6.230   5.094  -3.665  1.00  0.00     0.339 C 
ATOM     16  O   UNL     1       6.027   4.519  -2.593  1.00  0.00    -0.246 OA
BRANCH  15  17
ATOM     17  O   UNL     1       6.994   6.217  -3.754  1.00  0.00    -0.478 OA
ATOM     18  H   UNL     1       7.847   6.116  -3.282  1.00  0.00     0.297 HD
ENDBRANCH  15  17
ENDBRANCH   4  15
BRANCH   5  19
ATOM     19  O   UNL     1       4.135   3.189  -3.918  1.00  0.00    -0.507 OA
ATOM     20  H   UNL     1       3.249   2.846  -4.127  1.00  0.00     0.293 HD
ENDBRANCH   5  19
TORSDOF 4
ENDMDL
