MODEL 1
REMARK VINA RESULT:    -5.181      0.000      0.000
REMARK INTER + INTRA:          -7.143
REMARK INTER:                  -6.393
REMARK INTRA:                  -0.750
REMARK UNBOUND:                -0.750
REMARK SMILES Cc1ccc(C(=O)c2cc(O)c(O)c([N+](=O)[O-])c2)cc1
REMARK SMILES IDX 8 1 18 2 9 3 14 4 10 5 12 6 6 7 7 8 5 9 4 10 19 11 3 12
REMARK SMILES IDX 20 13 2 14 1 15 15 16 17 17 16 18 11 19 13 21
REMARK H PARENT 11 20 13 22
ROOT
ATOM      1  C   UNL     1       4.448   5.339  -6.135  1.00  0.00     0.033 A 
ATOM      2  C   UNL     1       5.348   5.048  -5.136  1.00  0.00     0.102 A 
ATOM      3  C   UNL     1       3.102   5.084  -6.025  1.00  0.00     0.063 A 
ATOM      4  C   UNL     1       4.873   4.468  -3.960  1.00  0.00     0.315 A 
ATOM      5  C   UNL     1       2.627   4.503  -4.849  1.00  0.00     0.165 A 
ATOM      6  C   UNL     1       3.513   4.195  -3.816  1.00  0.00     0.237 A 
ENDROOT
BRANCH   1   7
ATOM      7  C   UNL     1       4.956   5.960  -7.395  1.00  0.00     0.193 C 
ATOM      8  O   UNL     1       4.238   6.813  -7.939  1.00  0.00    -0.289 OA
BRANCH   7   9
ATOM      9  C   UNL     1       6.237   5.598  -7.981  1.00  0.00     0.023 A 
ATOM     10  C   UNL     1       6.293   4.651  -9.004  1.00  0.00     0.012 A 
ATOM     11  C   UNL     1       7.409   6.199  -7.522  1.00  0.00     0.012 A 
ATOM     12  C   UNL     1       7.522   4.304  -9.566  1.00  0.00     0.004 A 
ATOM     13  C   UNL     1       8.638   5.853  -8.085  1.00  0.00     0.004 A 
ATOM     14  C   UNL     1       8.695   4.905  -9.107  1.00  0.00    -0.051 A 
ATOM     15  C   UNL     1      10.007   4.533  -9.707  1.00  0.00     0.044 C 
ENDBRANCH   7   9
ENDBRANCH   1   7
BRANCH   4  16
ATOM     16  N   UNL     1       5.791   4.161  -2.918  1.00  0.00     0.066 N 
ATOM     17  O   UNL     1       6.728   4.961  -2.681  1.00  0.00    -0.258 OA
ATOM     18  O   UNL     1       5.636   3.102  -2.267  1.00  0.00    -0.258 OA
ENDBRANCH   4  16
BRANCH   5  19
ATOM     19  O   UNL     1       1.295   4.243  -4.722  1.00  0.00    -0.504 OA
ATOM     20  H   UNL     1       1.093   3.379  -5.118  1.00  0.00     0.293 HD
ENDBRANCH   5  19
BRANCH   6  21
ATOM     21  O   UNL     1       3.036   3.628  -2.669  1.00  0.00    -0.500 OA
ATOM     22  H   UNL     1       2.832   4.322  -2.023  1.00  0.00     0.294 HD
ENDBRANCH   6  21
TORSDOF 5
ENDMDL
MODEL 2
REMARK VINA RESULT:    -5.137      2.033      3.553
REMARK INTER + INTRA:          -7.088
REMARK INTER:                  -6.311
REMARK INTRA:                  -0.777
REMARK UNBOUND:                -0.750
REMARK SMILES Cc1ccc(C(=O)c2cc(O)c(O)c([N+](=O)[O-])c2)cc1
REMARK SMILES IDX 8 1 18 2 9 3 14 4 10 5 12 6 6 7 7 8 5 9 4 10 19 11 3 12
REMARK SMILES IDX 20 13 2 14 1 15 15 16 17 17 16 18 11 19 13 21
REMARK H PARENT 11 20 13 22
ROOT
ATOM      1  C   UNL     1       5.667   4.023  -5.747  1.00  0.00     0.033 A 
ATOM      2  C   UNL     1       4.330   4.065  -6.068  1.00  0.00     0.102 A 
ATOM      3  C   UNL     1       6.121   3.913  -4.454  1.00  0.00     0.063 A 
ATOM      4  C   UNL     1       3.394   3.992  -5.037  1.00  0.00     0.315 A 
ATOM      5  C   UNL     1       5.185   3.841  -3.422  1.00  0.00     0.165 A 
ATOM      6  C   UNL     1       3.821   3.880  -3.714  1.00  0.00     0.237 A 
ENDROOT
BRANCH   1   7
ATOM      7  C   UNL     1       6.670   4.101  -6.852  1.00  0.00     0.193 C 
ATOM      8  O   UNL     1       7.672   3.375  -6.763  1.00  0.00    -0.289 OA
BRANCH   7   9
ATOM      9  C   UNL     1       6.503   4.983  -7.996  1.00  0.00     0.023 A 
ATOM     10  C   UNL     1       7.088   6.249  -7.992  1.00  0.00     0.012 A 
ATOM     11  C   UNL     1       5.758   4.562  -9.097  1.00  0.00     0.012 A 
ATOM     12  C   UNL     1       6.927   7.094  -9.090  1.00  0.00     0.004 A 
ATOM     13  C   UNL     1       5.597   5.408 -10.196  1.00  0.00     0.004 A 
ATOM     14  C   UNL     1       6.182   6.674 -10.192  1.00  0.00    -0.051 A 
ATOM     15  C   UNL     1       6.010   7.579 -11.365  1.00  0.00     0.044 C 
ENDBRANCH   7   9
ENDBRANCH   1   7
BRANCH   4  16
ATOM     16  N   UNL     1       2.009   4.035  -5.353  1.00  0.00     0.066 N 
ATOM     17  O   UNL     1       1.605   3.449  -6.386  1.00  0.00    -0.258 OA
ATOM     18  O   UNL     1       1.232   4.655  -4.590  1.00  0.00    -0.258 OA
ENDBRANCH   4  16
BRANCH   5  19
ATOM     19  O   UNL     1       5.617   3.730  -2.135  1.00  0.00    -0.504 OA
ATOM     20  H   UNL     1       6.480   4.166  -2.043  1.00  0.00     0.293 HD
ENDBRANCH   5  19
BRANCH   6  21
ATOM     21  O   UNL     1       2.915   3.808  -2.696  1.00  0.00    -0.500 OA
ATOM     22  H   UNL     1       2.089   3.419  -3.022  1.00  0.00     0.294 HD
ENDBRANCH   6  21
TORSDOF 5
ENDMDL
MODEL 3
REMARK VINA RESULT:    -4.566      3.610      4.577
REMARK INTER + INTRA:          -6.384
REMARK INTER:                  -5.389
REMARK INTRA:                  -0.995
REMARK UNBOUND:                -0.750
REMARK SMILES Cc1ccc(C(=O)c2cc(O)c(O)c([N+](=O)[O-])c2)cc1
REMARK SMILES IDX 8 1 18 2 9 3 14 4 10 5 12 6 6 7 7 8 5 9 4 10 19 11 3 12
REMARK SMILES IDX 20 13 2 14 1 15 15 16 17 17 16 18 11 19 13 21
REMARK H PARENT 11 20 13 22
ROOT
ATOM      1  C   UNL     1       6.092   4.934  -9.146  1.00  0.00     0.033 A 
ATOM      2  C   UNL     1       5.908   5.114  -7.794  1.00  0.00     0.102 A 
ATOM      3  C   UNL     1       5.380   4.015  -9.880  1.00  0.00     0.063 A 
ATOM      4  C   UNL     1       4.956   4.331  -7.141  1.00  0.00     0.315 A 
ATOM      5  C   UNL     1       4.429   3.231  -9.226  1.00  0.00     0.165 A 
ATOM      6  C   UNL     1       4.217   3.389  -7.856  1.00  0.00     0.237 A 
ENDROOT
BRANCH   1   7
ATOM      7  C   UNL     1       7.111   5.772  -9.846  1.00  0.00     0.193 C 
ATOM      8  O   UNL     1       8.303   5.466  -9.691  1.00  0.00    -0.289 OA
BRANCH   7   9
ATOM      9  C   UNL     1       6.748   6.905 -10.681  1.00  0.00     0.023 A 
ATOM     10  C   UNL     1       5.961   7.933 -10.160  1.00  0.00     0.012 A 
ATOM     11  C   UNL     1       7.186   6.966 -12.004  1.00  0.00     0.012 A 
ATOM     12  C   UNL     1       5.613   9.020 -10.961  1.00  0.00     0.004 A 
ATOM     13  C   UNL     1       6.838   8.054 -12.806  1.00  0.00     0.004 A 
ATOM     14  C   UNL     1       6.051   9.081 -12.284  1.00  0.00    -0.051 A 
ATOM     15  C   UNL     1       5.678  10.242 -13.141  1.00  0.00     0.044 C 
ENDBRANCH   7   9
ENDBRANCH   1   7
BRANCH   4  16
ATOM     16  N   UNL     1       4.754   4.506  -5.744  1.00  0.00     0.066 N 
ATOM     17  O   UNL     1       4.457   3.507  -5.045  1.00  0.00    -0.258 OA
ATOM     18  O   UNL     1       4.879   5.652  -5.253  1.00  0.00    -0.258 OA
ENDBRANCH   4  16
BRANCH   5  19
ATOM     19  O   UNL     1       3.713   2.316  -9.938  1.00  0.00    -0.504 OA
ATOM     20  H   UNL     1       4.054   1.424  -9.757  1.00  0.00     0.293 HD
ENDBRANCH   5  19
BRANCH   6  21
ATOM     21  O   UNL     1       3.283   2.617  -7.228  1.00  0.00    -0.500 OA
ATOM     22  H   UNL     1       2.412   3.039  -7.296  1.00  0.00     0.294 HD
ENDBRANCH   6  21
TORSDOF 5
ENDMDL
MODEL 4
REMARK VINA RESULT:    -4.515      1.634      2.926
REMARK INTER + INTRA:          -6.320
REMARK INTER:                  -5.565
REMARK INTRA:                  -0.755
REMARK UNBOUND:                -0.750
REMARK SMILES Cc1ccc(C(=O)c2cc(O)c(O)c([N+](=O)[O-])c2)cc1
REMARK SMILES IDX 8 1 18 2 9 3 14 4 10 5 12 6 6 7 7 8 5 9 4 10 19 11 3 12
REMARK SMILES IDX 20 13 2 14 1 15 15 16 17 17 16 18 11 19 13 21
REMARK H PARENT 11 20 13 22
ROOT
ATOM      1  C   UNL     1       5.365   5.499  -4.820  1.00  0.00     0.033 A 
ATOM      2  C   UNL     1       4.044   5.489  -5.201  1.00  0.00     0.102 A 
ATOM      3  C   UNL     1       5.857   4.706  -3.810  1.00  0.00     0.063 A 
ATOM      4  C   UNL     1       3.164   4.636  -4.535  1.00  0.00     0.315 A 
ATOM      5  C   UNL     1       4.977   3.853  -3.143  1.00  0.00     0.165 A 
ATOM      6  C   UNL     1       3.630   3.818  -3.506  1.00  0.00     0.237 A 
ENDROOT
BRANCH   1   7
ATOM      7  C   UNL     1       6.308   6.412  -5.533  1.00  0.00     0.193 C 
ATOM      8  O   UNL     1       6.514   7.525  -5.027  1.00  0.00    -0.289 OA
BRANCH   7   9
ATOM      9  C   UNL     1       6.970   6.036  -6.772  1.00  0.00     0.023 A 
ATOM     10  C   UNL     1       6.298   5.258  -7.714  1.00  0.00     0.012 A 
ATOM     11  C   UNL     1       8.278   6.454  -7.018  1.00  0.00     0.012 A 
ATOM     12  C   UNL     1       6.934   4.898  -8.902  1.00  0.00     0.004 A 
ATOM     13  C   UNL     1       8.914   6.094  -8.207  1.00  0.00     0.004 A 
ATOM     14  C   UNL     1       8.242   5.316  -9.149  1.00  0.00    -0.051 A 
ATOM     15  C   UNL     1       8.921   4.929 -10.419  1.00  0.00     0.044 C 
ENDBRANCH   7   9
ENDBRANCH   1   7
BRANCH   4  16
ATOM     16  N   UNL     1       1.795   4.614  -4.918  1.00  0.00     0.066 N 
ATOM     17  O   UNL     1       1.508   4.536  -6.137  1.00  0.00    -0.258 OA
ATOM     18  O   UNL     1       0.915   4.673  -4.027  1.00  0.00    -0.258 OA
ENDBRANCH   4  16
BRANCH   5  19
ATOM     19  O   UNL     1       5.447   3.059  -2.140  1.00  0.00    -0.504 OA
ATOM     20  H   UNL     1       5.890   3.607  -1.472  1.00  0.00     0.293 HD
ENDBRANCH   5  19
BRANCH   6  21
ATOM     21  O   UNL     1       2.779   2.979  -2.846  1.00  0.00    -0.500 OA
ATOM     22  H   UNL     1       1.994   2.817  -3.391  1.00  0.00     0.294 HD
ENDBRANCH   6  21
TORSDOF 5
ENDMDL
MODEL 5
REMARK VINA RESULT:    -4.515      3.628      6.532
REMARK INTER + INTRA:          -6.320
REMARK INTER:                  -5.397
REMARK INTRA:                  -0.923
REMARK UNBOUND:                -0.750
REMARK SMILES Cc1ccc(C(=O)c2cc(O)c(O)c([N+](=O)[O-])c2)cc1
REMARK SMILES IDX 8 1 18 2 9 3 14 4 10 5 12 6 6 7 7 8 5 9 4 10 19 11 3 12
REMARK SMILES IDX 20 13 2 14 1 15 15 16 17 17 16 18 11 19 13 21
REMARK H PARENT 11 20 13 22
ROOT
ATOM      1  C   UNL     1       6.178   5.048  -9.032  1.00  0.00     0.033 A 
ATOM      2  C   UNL     1       7.512   4.715  -9.066  1.00  0.00     0.102 A 
ATOM      3  C   UNL     1       5.617   5.970  -9.884  1.00  0.00     0.063 A 
ATOM      4  C   UNL     1       8.332   5.338 -10.007  1.00  0.00     0.315 A 
ATOM      5  C   UNL     1       6.437   6.594 -10.825  1.00  0.00     0.165 A 
ATOM      6  C   UNL     1       7.795   6.278 -10.886  1.00  0.00     0.237 A 
ENDROOT
BRANCH   1   7
ATOM      7  C   UNL     1       5.300   4.381  -8.024  1.00  0.00     0.193 C 
ATOM      8  O   UNL     1       4.283   3.809  -8.445  1.00  0.00    -0.289 OA
BRANCH   7   9
ATOM      9  C   UNL     1       5.602   4.386  -6.602  1.00  0.00     0.023 A 
ATOM     10  C   UNL     1       6.002   5.568  -5.978  1.00  0.00     0.012 A 
ATOM     11  C   UNL     1       5.491   3.210  -5.861  1.00  0.00     0.012 A 
ATOM     12  C   UNL     1       6.291   5.573  -4.614  1.00  0.00     0.004 A 
ATOM     13  C   UNL     1       5.780   3.215  -4.495  1.00  0.00     0.004 A 
ATOM     14  C   UNL     1       6.180   4.397  -3.872  1.00  0.00    -0.051 A 
ATOM     15  C   UNL     1       6.491   4.403  -2.414  1.00  0.00     0.044 C 
ENDBRANCH   7   9
ENDBRANCH   1   7
BRANCH   4  16
ATOM     16  N   UNL     1       9.713   5.004 -10.054  1.00  0.00     0.066 N 
ATOM     17  O   UNL     1      10.313   5.061 -11.154  1.00  0.00    -0.258 OA
ATOM     18  O   UNL     1      10.290   4.662  -8.996  1.00  0.00    -0.258 OA
ENDBRANCH   4  16
BRANCH   5  19
ATOM     19  O   UNL     1       5.898   7.509 -11.678  1.00  0.00    -0.504 OA
ATOM     20  H   UNL     1       6.177   8.402 -11.416  1.00  0.00     0.293 HD
ENDBRANCH   5  19
BRANCH   6  21
ATOM     21  O   UNL     1       8.586   6.894 -11.811  1.00  0.00    -0.500 OA
ATOM     22  H   UNL     1       8.975   7.695 -11.426  1.00  0.00     0.294 HD
ENDBRANCH   6  21
TORSDOF 5
ENDMDL
MODEL 6
REMARK VINA RESULT:    -4.512      3.786      7.062
REMARK INTER + INTRA:          -6.316
REMARK INTER:                  -5.341
REMARK INTRA:                  -0.975
REMARK UNBOUND:                -0.750
REMARK SMILES Cc1ccc(C(=O)c2cc(O)c(O)c([N+](=O)[O-])c2)cc1
REMARK SMILES IDX 8 1 18 2 9 3 14 4 10 5 12 6 6 7 7 8 5 9 4 10 19 11 3 12
REMARK SMILES IDX 20 13 2 14 1 15 15 16 17 17 16 18 11 19 13 21
REMARK H PARENT 11 20 13 22
ROOT
ATOM      1  C   UNL     1       6.500   5.084  -9.034  1.00  0.00     0.033 A 
ATOM      2  C   UNL     1       6.132   6.096  -9.890  1.00  0.00     0.102 A 
ATOM      3  C   UNL     1       7.757   4.528  -9.032  1.00  0.00     0.063 A 
ATOM      4  C   UNL     1       7.076   6.581 -10.795  1.00  0.00     0.315 A 
ATOM      5  C   UNL     1       8.702   5.012  -9.939  1.00  0.00     0.165 A 
ATOM      6  C   UNL     1       8.361   6.039 -10.820  1.00  0.00     0.237 A 
ENDROOT
BRANCH   1   7
ATOM      7  C   UNL     1       5.489   4.565  -8.064  1.00  0.00     0.193 C 
ATOM      8  O   UNL     1       4.409   4.167  -8.526  1.00  0.00    -0.289 OA
BRANCH   7   9
ATOM      9  C   UNL     1       5.735   4.518  -6.632  1.00  0.00     0.023 A 
ATOM     10  C   UNL     1       6.127   5.671  -5.952  1.00  0.00     0.012 A 
ATOM     11  C   UNL     1       5.580   3.318  -5.937  1.00  0.00     0.012 A 
ATOM     12  C   UNL     1       6.363   5.625  -4.579  1.00  0.00     0.004 A 
ATOM     13  C   UNL     1       5.816   3.271  -4.562  1.00  0.00     0.004 A 
ATOM     14  C   UNL     1       6.207   4.425  -3.883  1.00  0.00    -0.051 A 
ATOM     15  C   UNL     1       6.461   4.376  -2.415  1.00  0.00     0.044 C 
ENDBRANCH   7   9
ENDBRANCH   1   7
BRANCH   4  16
ATOM     16  N   UNL     1       6.710   7.627 -11.686  1.00  0.00     0.066 N 
ATOM     17  O   UNL     1       7.293   7.711 -12.794  1.00  0.00    -0.258 OA
ATOM     18  O   UNL     1       5.816   8.433 -11.339  1.00  0.00    -0.258 OA
ENDBRANCH   4  16
BRANCH   5  19
ATOM     19  O   UNL     1       9.953   4.474  -9.951  1.00  0.00    -0.504 OA
ATOM     20  H   UNL     1      10.088   3.944  -9.148  1.00  0.00     0.293 HD
ENDBRANCH   5  19
BRANCH   6  21
ATOM     21  O   UNL     1       9.293   6.504 -11.701  1.00  0.00    -0.500 OA
ATOM     22  H   UNL     1       8.850   6.858 -12.488  1.00  0.00     0.294 HD
ENDBRANCH   6  21
TORSDOF 5
ENDMDL
MODEL 7
REMARK VINA RESULT:    -4.493      2.345      4.111
REMARK INTER + INTRA:          -6.293
REMARK INTER:                  -5.279
REMARK INTRA:                  -1.014
REMARK UNBOUND:                -0.750
REMARK SMILES Cc1ccc(C(=O)c2cc(O)c(O)c([N+](=O)[O-])c2)cc1
REMARK SMILES IDX 8 1 18 2 9 3 14 4 10 5 12 6 6 7 7 8 5 9 4 10 19 11 3 12
REMARK SMILES IDX 20 13 2 14 1 15 15 16 17 17 16 18 11 19 13 21
REMARK H PARENT 11 20 13 22
ROOT
ATOM      1  C   UNL     1       7.348   5.938  -7.956  1.00  0.00     0.033 A 
ATOM      2  C   UNL     1       6.335   5.186  -7.408  1.00  0.00     0.102 A 
ATOM      3  C   UNL     1       8.070   6.856  -7.233  1.00  0.00     0.063 A 
ATOM      4  C   UNL     1       6.028   5.362  -6.059  1.00  0.00     0.315 A 
ATOM      5  C   UNL     1       7.764   7.034  -5.884  1.00  0.00     0.165 A 
ATOM      6  C   UNL     1       6.742   6.286  -5.296  1.00  0.00     0.237 A 
ENDROOT
BRANCH   1   7
ATOM      7  C   UNL     1       7.676   5.749  -9.402  1.00  0.00     0.193 C 
ATOM      8  O   UNL     1       6.878   6.211 -10.231  1.00  0.00    -0.289 OA
BRANCH   7   9
ATOM      9  C   UNL     1       8.875   5.056  -9.845  1.00  0.00     0.023 A 
ATOM     10  C   UNL     1       9.770   5.691 -10.705  1.00  0.00     0.012 A 
ATOM     11  C   UNL     1       9.131   3.756  -9.408  1.00  0.00     0.012 A 
ATOM     12  C   UNL     1      10.920   5.027 -11.130  1.00  0.00     0.004 A 
ATOM     13  C   UNL     1      10.282   3.090  -9.833  1.00  0.00     0.004 A 
ATOM     14  C   UNL     1      11.177   3.726 -10.694  1.00  0.00    -0.051 A 
ATOM     15  C   UNL     1      12.406   3.016 -11.149  1.00  0.00     0.044 C 
ENDBRANCH   7   9
ENDBRANCH   1   7
BRANCH   4  16
ATOM     16  N   UNL     1       4.984   4.592  -5.478  1.00  0.00     0.066 N 
ATOM     17  O   UNL     1       4.813   3.411  -5.867  1.00  0.00    -0.258 OA
ATOM     18  O   UNL     1       4.265   5.114  -4.594  1.00  0.00    -0.258 OA
ENDBRANCH   4  16
BRANCH   5  19
ATOM     19  O   UNL     1       8.470   7.940  -5.151  1.00  0.00    -0.504 OA
ATOM     20  H   UNL     1       8.044   8.061  -4.286  1.00  0.00     0.293 HD
ENDBRANCH   5  19
BRANCH   6  21
ATOM     21  O   UNL     1       6.452   6.468  -3.975  1.00  0.00    -0.500 OA
ATOM     22  H   UNL     1       5.748   7.128  -3.884  1.00  0.00     0.294 HD
ENDBRANCH   6  21
TORSDOF 5
ENDMDL
MODEL 8
REMARK VINA RESULT:    -4.490      3.719      6.885
REMARK INTER + INTRA:          -6.290
REMARK INTER:                  -5.319
REMARK INTRA:                  -0.971
REMARK UNBOUND:                -0.750
REMARK SMILES Cc1ccc(C(=O)c2cc(O)c(O)c([N+](=O)[O-])c2)cc1
REMARK SMILES IDX 8 1 18 2 9 3 14 4 10 5 12 6 6 7 7 8 5 9 4 10 19 11 3 12
REMARK SMILES IDX 20 13 2 14 1 15 15 16 17 17 16 18 11 19 13 21
REMARK H PARENT 11 20 13 22
ROOT
ATOM      1  C   UNL     1       7.146   5.915  -8.350  1.00  0.00     0.033 A 
ATOM      2  C   UNL     1       8.309   5.290  -8.736  1.00  0.00     0.102 A 
ATOM      3  C   UNL     1       6.421   6.727  -9.189  1.00  0.00     0.063 A 
ATOM      4  C   UNL     1       8.772   5.489 -10.036  1.00  0.00     0.315 A 
ATOM      5  C   UNL     1       6.885   6.927 -10.490  1.00  0.00     0.165 A 
ATOM      6  C   UNL     1       8.061   6.306 -10.913  1.00  0.00     0.237 A 
ENDROOT
BRANCH   1   7
ATOM      7  C   UNL     1       6.649   5.703  -6.957  1.00  0.00     0.193 C 
ATOM      8  O   UNL     1       7.434   5.950  -6.029  1.00  0.00    -0.289 OA
BRANCH   7   9
ATOM      9  C   UNL     1       5.305   5.227  -6.672  1.00  0.00     0.023 A 
ATOM     10  C   UNL     1       4.476   5.950  -5.814  1.00  0.00     0.012 A 
ATOM     11  C   UNL     1       4.843   4.049  -7.258  1.00  0.00     0.012 A 
ATOM     12  C   UNL     1       3.187   5.493  -5.541  1.00  0.00     0.004 A 
ATOM     13  C   UNL     1       3.553   3.592  -6.986  1.00  0.00     0.004 A 
ATOM     14  C   UNL     1       2.724   4.314  -6.128  1.00  0.00    -0.051 A 
ATOM     15  C   UNL     1       1.347   3.827  -5.835  1.00  0.00     0.044 C 
ENDBRANCH   7   9
ENDBRANCH   1   7
BRANCH   4  16
ATOM     16  N   UNL     1       9.973   4.849 -10.450  1.00  0.00     0.066 N 
ATOM     17  O   UNL     1      10.669   5.387 -11.345  1.00  0.00    -0.258 OA
ATOM     18  O   UNL     1      10.301   3.768  -9.908  1.00  0.00    -0.258 OA
ENDBRANCH   4  16
BRANCH   5  19
ATOM     19  O   UNL     1       6.179   7.728 -11.336  1.00  0.00    -0.504 OA
ATOM     20  H   UNL     1       5.438   7.227 -11.716  1.00  0.00     0.293 HD
ENDBRANCH   5  19
BRANCH   6  21
ATOM     21  O   UNL     1       8.504   6.508 -12.188  1.00  0.00    -0.500 OA
ATOM     22  H   UNL     1       8.724   7.445 -12.313  1.00  0.00     0.294 HD
ENDBRANCH   6  21
TORSDOF 5
ENDMDL
MODEL 9
REMARK VINA RESULT:    -4.443      3.473      7.155
REMARK INTER + INTRA:          -6.232
REMARK INTER:                  -5.317
REMARK INTRA:                  -0.915
REMARK UNBOUND:                -0.750
REMARK SMILES Cc1ccc(C(=O)c2cc(O)c(O)c([N+](=O)[O-])c2)cc1
REMARK SMILES IDX 8 1 18 2 9 3 14 4 10 5 12 6 6 7 7 8 5 9 4 10 19 11 3 12
REMARK SMILES IDX 20 13 2 14 1 15 15 16 17 17 16 18 11 19 13 21
REMARK H PARENT 11 20 13 22
ROOT
ATOM      1  C   UNL     1       7.267   5.853  -8.037  1.00  0.00     0.033 A 
ATOM      2  C   UNL     1       6.596   6.503  -9.046  1.00  0.00     0.102 A 
ATOM      3  C   UNL     1       8.493   5.259  -8.217  1.00  0.00     0.063 A 
ATOM      4  C   UNL     1       7.187   6.565 -10.308  1.00  0.00     0.315 A 
ATOM      5  C   UNL     1       9.084   5.320  -9.480  1.00  0.00     0.165 A 
ATOM      6  C   UNL     1       8.431   5.973 -10.525  1.00  0.00     0.237 A 
ENDROOT
BRANCH   1   7
ATOM      7  C   UNL     1       6.634   5.787  -6.685  1.00  0.00     0.193 C 
ATOM      8  O   UNL     1       7.306   6.185  -5.722  1.00  0.00    -0.289 OA
BRANCH   7   9
ATOM      9  C   UNL     1       5.286   5.281  -6.479  1.00  0.00     0.023 A 
ATOM     10  C   UNL     1       4.400   5.974  -5.654  1.00  0.00     0.012 A 
ATOM     11  C   UNL     1       4.878   4.105  -7.107  1.00  0.00     0.012 A 
ATOM     12  C   UNL     1       3.107   5.489  -5.456  1.00  0.00     0.004 A 
ATOM     13  C   UNL     1       3.585   3.619  -6.910  1.00  0.00     0.004 A 
ATOM     14  C   UNL     1       2.699   4.312  -6.085  1.00  0.00    -0.051 A 
ATOM     15  C   UNL     1       1.317   3.794  -5.872  1.00  0.00     0.044 C 
ENDBRANCH   7   9
ENDBRANCH   1   7
BRANCH   4  16
ATOM     16  N   UNL     1       6.506   7.234 -11.362  1.00  0.00     0.066 N 
ATOM     17  O   UNL     1       5.251   7.207 -11.386  1.00  0.00    -0.258 OA
ATOM     18  O   UNL     1       7.178   7.832 -12.234  1.00  0.00    -0.258 OA
ENDBRANCH   4  16
BRANCH   5  19
ATOM     19  O   UNL     1      10.301   4.738  -9.677  1.00  0.00    -0.504 OA
ATOM     20  H   UNL     1      10.885   4.944  -8.929  1.00  0.00     0.293 HD
ENDBRANCH   5  19
BRANCH   6  21
ATOM     21  O   UNL     1       9.019   6.027 -11.756  1.00  0.00    -0.500 OA
ATOM     22  H   UNL     1       8.852   5.199 -12.233  1.00  0.00     0.294 HD
ENDBRANCH   6  21
TORSDOF 5
ENDMDL
