MODEL 1
REMARK VINA RESULT:    -6.825      0.000      0.000
REMARK INTER + INTRA:          -8.696
REMARK INTER:                  -8.023
REMARK INTRA:                  -0.674
REMARK UNBOUND:                -0.674
REMARK SMILES O=C(O)c1cc(-c2ccc(F)cc2F)ccc1O
REMARK SMILES IDX 6 1 5 2 15 3 4 4 17 5 16 6 7 7 13 8 12 9 8 10 10 11 9 12
REMARK SMILES IDX 14 13 11 14 2 15 1 16 3 17 18 19
REMARK H PARENT 3 18 18 20
ROOT
ATOM      1  C   UNL     1      -3.901   3.440   8.104  1.00  0.00    -0.014 A 
ATOM      2  C   UNL     1      -2.511   3.336   8.078  1.00  0.00     0.028 A 
ATOM      3  C   UNL     1      -4.651   3.055   6.992  1.00  0.00     0.013 A 
ATOM      4  C   UNL     1      -1.869   2.847   6.940  1.00  0.00     0.102 A 
ATOM      5  C   UNL     1      -2.618   2.462   5.828  1.00  0.00     0.130 A 
ATOM      6  C   UNL     1      -4.010   2.566   5.854  1.00  0.00     0.048 A 
ENDROOT
BRANCH   1   7
ATOM      7  C   UNL     1      -4.568   3.948   9.283  1.00  0.00     0.018 A 
ATOM      8  C   UNL     1      -4.248   3.440  10.543  1.00  0.00     0.133 A 
ATOM      9  C   UNL     1      -4.893   3.933  11.677  1.00  0.00     0.079 A 
ATOM     10  C   UNL     1      -5.532   4.949   9.159  1.00  0.00     0.015 A 
ATOM     11  C   UNL     1      -5.857   4.933  11.553  1.00  0.00     0.126 A 
ATOM     12  C   UNL     1      -6.176   5.441  10.294  1.00  0.00     0.040 A 
ATOM     13  F   UNL     1      -3.326   2.477  10.679  1.00  0.00    -0.206 F 
ATOM     14  F   UNL     1      -6.477   5.406  12.641  1.00  0.00    -0.207 F 
ENDBRANCH   1   7
BRANCH   4  15
ATOM     15  C   UNL     1      -0.416   2.746   6.933  1.00  0.00     0.339 C 
ATOM     16  O   UNL     1       0.321   3.121   6.017  1.00  0.00    -0.246 OA
BRANCH  15  17
ATOM     17  O   UNL     1       0.070   2.181   8.071  1.00  0.00    -0.478 OA
ATOM     18  H   UNL     1       0.882   2.632   8.384  1.00  0.00     0.297 HD
ENDBRANCH  15  17
ENDBRANCH   4  15
BRANCH   5  19
ATOM     19  O   UNL     1      -2.010   1.981   4.707  1.00  0.00    -0.507 OA
ATOM     20  H   UNL     1      -2.282   2.519   3.943  1.00  0.00     0.293 HD
ENDBRANCH   5  19
TORSDOF 4
ENDMDL
MODEL 2
REMARK VINA RESULT:    -6.811      1.381      2.825
REMARK INTER + INTRA:          -8.680
REMARK INTER:                  -8.036
REMARK INTRA:                  -0.644
REMARK UNBOUND:                -0.674
REMARK SMILES O=C(O)c1cc(-c2ccc(F)cc2F)ccc1O
REMARK SMILES IDX 6 1 5 2 15 3 4 4 17 5 16 6 7 7 13 8 12 9 8 10 10 11 9 12
REMARK SMILES IDX 14 13 11 14 2 15 1 16 3 17 18 19
REMARK H PARENT 3 18 18 20
ROOT
ATOM      1  C   UNL     1      -4.020   3.579   7.936  1.00  0.00    -0.014 A 
ATOM      2  C   UNL     1      -4.845   3.284   6.852  1.00  0.00     0.028 A 
ATOM      3  C   UNL     1      -2.638   3.425   7.823  1.00  0.00     0.013 A 
ATOM      4  C   UNL     1      -4.290   2.833   5.654  1.00  0.00     0.102 A 
ATOM      5  C   UNL     1      -2.908   2.679   5.541  1.00  0.00     0.130 A 
ATOM      6  C   UNL     1      -2.082   2.975   6.626  1.00  0.00     0.048 A 
ENDROOT
BRANCH   1   7
ATOM      7  C   UNL     1      -4.596   4.045   9.179  1.00  0.00     0.018 A 
ATOM      8  C   UNL     1      -4.198   3.478  10.391  1.00  0.00     0.133 A 
ATOM      9  C   UNL     1      -4.756   3.930  11.587  1.00  0.00     0.079 A 
ATOM     10  C   UNL     1      -5.549   5.063   9.164  1.00  0.00     0.015 A 
ATOM     11  C   UNL     1      -5.710   4.948  11.572  1.00  0.00     0.126 A 
ATOM     12  C   UNL     1      -6.106   5.514  10.360  1.00  0.00     0.040 A 
ATOM     13  F   UNL     1      -3.285   2.497  10.422  1.00  0.00    -0.206 F 
ATOM     14  F   UNL     1      -6.246   5.382  12.719  1.00  0.00    -0.207 F 
ENDBRANCH   1   7
BRANCH   4  15
ATOM     15  C   UNL     1      -5.169   2.531   4.533  1.00  0.00     0.339 C 
ATOM     16  O   UNL     1      -5.100   1.524   3.823  1.00  0.00    -0.246 OA
BRANCH  15  17
ATOM     17  O   UNL     1      -6.108   3.495   4.335  1.00  0.00    -0.478 OA
ATOM     18  H   UNL     1      -6.959   3.118   4.029  1.00  0.00     0.297 HD
ENDBRANCH  15  17
ENDBRANCH   4  15
BRANCH   5  19
ATOM     19  O   UNL     1      -2.345   2.241   4.379  1.00  0.00    -0.507 OA
ATOM     20  H   UNL     1      -3.050   1.943   3.778  1.00  0.00     0.293 HD
ENDBRANCH   5  19
TORSDOF 4
ENDMDL
MODEL 3
REMARK VINA RESULT:    -6.794      1.131      1.619
REMARK INTER + INTRA:          -8.659
REMARK INTER:                  -8.015
REMARK INTRA:                  -0.643
REMARK UNBOUND:                -0.674
REMARK SMILES O=C(O)c1cc(-c2ccc(F)cc2F)ccc1O
REMARK SMILES IDX 6 1 5 2 15 3 4 4 17 5 16 6 7 7 13 8 12 9 8 10 10 11 9 12
REMARK SMILES IDX 14 13 11 14 2 15 1 16 3 17 18 19
REMARK H PARENT 3 18 18 20
ROOT
ATOM      1  C   UNL     1      -3.932   3.523   8.014  1.00  0.00    -0.014 A 
ATOM      2  C   UNL     1      -2.545   3.377   8.001  1.00  0.00     0.028 A 
ATOM      3  C   UNL     1      -4.679   3.197   6.882  1.00  0.00     0.013 A 
ATOM      4  C   UNL     1      -1.904   2.904   6.855  1.00  0.00     0.102 A 
ATOM      5  C   UNL     1      -2.651   2.578   5.723  1.00  0.00     0.130 A 
ATOM      6  C   UNL     1      -4.039   2.724   5.737  1.00  0.00     0.048 A 
ENDROOT
BRANCH   1   7
ATOM      7  C   UNL     1      -4.597   4.015   9.202  1.00  0.00     0.018 A 
ATOM      8  C   UNL     1      -5.553   5.026   9.101  1.00  0.00     0.133 A 
ATOM      9  C   UNL     1      -6.191   5.497  10.249  1.00  0.00     0.079 A 
ATOM     10  C   UNL     1      -4.282   3.473  10.448  1.00  0.00     0.015 A 
ATOM     11  C   UNL     1      -5.876   4.957  11.495  1.00  0.00     0.126 A 
ATOM     12  C   UNL     1      -4.921   3.945  11.594  1.00  0.00     0.040 A 
ATOM     13  F   UNL     1      -5.865   5.559   7.912  1.00  0.00    -0.206 F 
ATOM     14  F   UNL     1      -6.488   5.409  12.597  1.00  0.00    -0.207 F 
ENDBRANCH   1   7
BRANCH   4  15
ATOM     15  C   UNL     1      -0.455   2.758   6.862  1.00  0.00     0.339 C 
ATOM     16  O   UNL     1       0.303   3.128   5.963  1.00  0.00    -0.246 OA
BRANCH  15  17
ATOM     17  O   UNL     1      -0.000   2.155   7.994  1.00  0.00    -0.478 OA
ATOM     18  H   UNL     1       0.135   2.798   8.721  1.00  0.00     0.297 HD
ENDBRANCH  15  17
ENDBRANCH   4  15
BRANCH   5  19
ATOM     19  O   UNL     1      -2.044   2.114   4.594  1.00  0.00    -0.507 OA
ATOM     20  H   UNL     1      -1.831   2.867   4.016  1.00  0.00     0.293 HD
ENDBRANCH   5  19
TORSDOF 4
ENDMDL
MODEL 4
REMARK VINA RESULT:    -5.282      4.000      6.271
REMARK INTER + INTRA:          -6.882
REMARK INTER:                  -5.802
REMARK INTRA:                  -1.080
REMARK UNBOUND:                -0.674
REMARK SMILES O=C(O)c1cc(-c2ccc(F)cc2F)ccc1O
REMARK SMILES IDX 6 1 5 2 15 3 4 4 17 5 16 6 7 7 13 8 12 9 8 10 10 11 9 12
REMARK SMILES IDX 14 13 11 14 2 15 1 16 3 17 18 19
REMARK H PARENT 3 18 18 20
ROOT
ATOM      1  C   UNL     1      -4.914   4.331  10.276  1.00  0.00    -0.014 A 
ATOM      2  C   UNL     1      -4.357   5.280  11.132  1.00  0.00     0.028 A 
ATOM      3  C   UNL     1      -6.198   3.841  10.520  1.00  0.00     0.013 A 
ATOM      4  C   UNL     1      -5.081   5.741  12.231  1.00  0.00     0.102 A 
ATOM      5  C   UNL     1      -6.365   5.252  12.474  1.00  0.00     0.130 A 
ATOM      6  C   UNL     1      -6.923   4.302  11.618  1.00  0.00     0.048 A 
ENDROOT
BRANCH   1   7
ATOM      7  C   UNL     1      -4.162   3.851   9.137  1.00  0.00     0.018 A 
ATOM      8  C   UNL     1      -3.272   2.787   9.283  1.00  0.00     0.133 A 
ATOM      9  C   UNL     1      -2.549   2.328   8.182  1.00  0.00     0.079 A 
ATOM     10  C   UNL     1      -4.331   4.454   7.891  1.00  0.00     0.015 A 
ATOM     11  C   UNL     1      -2.716   2.932   6.936  1.00  0.00     0.126 A 
ATOM     12  C   UNL     1      -3.608   3.995   6.791  1.00  0.00     0.040 A 
ATOM     13  F   UNL     1      -3.096   2.198  10.474  1.00  0.00    -0.206 F 
ATOM     14  F   UNL     1      -2.023   2.492   5.878  1.00  0.00    -0.207 F 
ENDBRANCH   1   7
BRANCH   4  15
ATOM     15  C   UNL     1      -4.481   6.733  13.112  1.00  0.00     0.339 C 
ATOM     16  O   UNL     1      -5.063   7.321  14.026  1.00  0.00    -0.246 OA
BRANCH  15  17
ATOM     17  O   UNL     1      -3.170   6.957  12.823  1.00  0.00    -0.478 OA
ATOM     18  H   UNL     1      -2.896   7.869  13.055  1.00  0.00     0.297 HD
ENDBRANCH  15  17
ENDBRANCH   4  15
BRANCH   5  19
ATOM     19  O   UNL     1      -7.090   5.690  13.542  1.00  0.00    -0.507 OA
ATOM     20  H   UNL     1      -7.428   6.582  13.352  1.00  0.00     0.293 HD
ENDBRANCH   5  19
TORSDOF 4
ENDMDL
MODEL 5
REMARK VINA RESULT:    -5.253      4.382      6.712
REMARK INTER + INTRA:          -6.848
REMARK INTER:                  -5.786
REMARK INTRA:                  -1.061
REMARK UNBOUND:                -0.674
REMARK SMILES O=C(O)c1cc(-c2ccc(F)cc2F)ccc1O
REMARK SMILES IDX 6 1 5 2 15 3 4 4 17 5 16 6 7 7 13 8 12 9 8 10 10 11 9 12
REMARK SMILES IDX 14 13 11 14 2 15 1 16 3 17 18 19
REMARK H PARENT 3 18 18 20
ROOT
ATOM      1  C   UNL     1      -5.083   4.417  10.237  1.00  0.00    -0.014 A 
ATOM      2  C   UNL     1      -6.350   3.976  10.617  1.00  0.00     0.028 A 
ATOM      3  C   UNL     1      -4.400   5.341  11.029  1.00  0.00     0.013 A 
ATOM      4  C   UNL     1      -6.936   4.459  11.787  1.00  0.00     0.102 A 
ATOM      5  C   UNL     1      -6.253   5.383  12.578  1.00  0.00     0.130 A 
ATOM      6  C   UNL     1      -4.984   5.824  12.199  1.00  0.00     0.048 A 
ENDROOT
BRANCH   1   7
ATOM      7  C   UNL     1      -4.475   3.917   9.023  1.00  0.00     0.018 A 
ATOM      8  C   UNL     1      -3.546   2.879   9.080  1.00  0.00     0.133 A 
ATOM      9  C   UNL     1      -2.962   2.400   7.907  1.00  0.00     0.079 A 
ATOM     10  C   UNL     1      -4.822   4.476   7.793  1.00  0.00     0.015 A 
ATOM     11  C   UNL     1      -3.308   2.959   6.677  1.00  0.00     0.126 A 
ATOM     12  C   UNL     1      -4.239   3.997   6.620  1.00  0.00     0.040 A 
ATOM     13  F   UNL     1      -3.199   2.333  10.255  1.00  0.00    -0.206 F 
ATOM     14  F   UNL     1      -2.749   2.501   5.550  1.00  0.00    -0.207 F 
ENDBRANCH   1   7
BRANCH   4  15
ATOM     15  C   UNL     1      -8.260   3.986  12.166  1.00  0.00     0.339 C 
ATOM     16  O   UNL     1      -8.764   4.098  13.286  1.00  0.00    -0.246 OA
BRANCH  15  17
ATOM     17  O   UNL     1      -8.913   3.390  11.131  1.00  0.00    -0.478 OA
ATOM     18  H   UNL     1      -9.771   3.824  10.943  1.00  0.00     0.297 HD
ENDBRANCH  15  17
ENDBRANCH   4  15
BRANCH   5  19
ATOM     19  O   UNL     1      -6.807   5.867  13.726  1.00  0.00    -0.507 OA
ATOM     20  H   UNL     1      -6.637   5.239  14.449  1.00  0.00     0.293 HD
ENDBRANCH   5  19
TORSDOF 4
ENDMDL
MODEL 6
REMARK VINA RESULT:    -4.592      1.610      1.996
REMARK INTER + INTRA:          -6.071
REMARK INTER:                  -5.094
REMARK INTRA:                  -0.977
REMARK UNBOUND:                -0.674
REMARK SMILES O=C(O)c1cc(-c2ccc(F)cc2F)ccc1O
REMARK SMILES IDX 6 1 5 2 15 3 4 4 17 5 16 6 7 7 13 8 12 9 8 10 10 11 9 12
REMARK SMILES IDX 14 13 11 14 2 15 1 16 3 17 18 19
REMARK H PARENT 3 18 18 20
ROOT
ATOM      1  C   UNL     1      -4.698   4.258   9.086  1.00  0.00    -0.014 A 
ATOM      2  C   UNL     1      -3.549   3.479   9.212  1.00  0.00     0.028 A 
ATOM      3  C   UNL     1      -5.033   4.812   7.851  1.00  0.00     0.013 A 
ATOM      4  C   UNL     1      -2.733   3.253   8.102  1.00  0.00     0.102 A 
ATOM      5  C   UNL     1      -3.069   3.807   6.867  1.00  0.00     0.130 A 
ATOM      6  C   UNL     1      -4.219   4.587   6.741  1.00  0.00     0.048 A 
ENDROOT
BRANCH   1   7
ATOM      7  C   UNL     1      -5.543   4.493  10.237  1.00  0.00     0.018 A 
ATOM      8  C   UNL     1      -5.095   5.304  11.281  1.00  0.00     0.133 A 
ATOM      9  C   UNL     1      -5.913   5.528  12.388  1.00  0.00     0.079 A 
ATOM     10  C   UNL     1      -6.808   3.909  10.301  1.00  0.00     0.015 A 
ATOM     11  C   UNL     1      -7.177   4.943  12.452  1.00  0.00     0.126 A 
ATOM     12  C   UNL     1      -7.624   4.134  11.408  1.00  0.00     0.040 A 
ATOM     13  F   UNL     1      -3.881   5.871  11.236  1.00  0.00    -0.206 F 
ATOM     14  F   UNL     1      -7.963   5.158  13.515  1.00  0.00    -0.207 F 
ENDBRANCH   1   7
BRANCH   4  15
ATOM     15  C   UNL     1      -1.538   2.436   8.254  1.00  0.00     0.339 C 
ATOM     16  O   UNL     1      -0.566   2.443   7.494  1.00  0.00    -0.246 OA
BRANCH  15  17
ATOM     17  O   UNL     1      -1.593   1.635   9.353  1.00  0.00    -0.478 OA
ATOM     18  H   UNL     1      -1.108   2.024  10.112  1.00  0.00     0.297 HD
ENDBRANCH  15  17
ENDBRANCH   4  15
BRANCH   5  19
ATOM     19  O   UNL     1      -2.286   3.598   5.770  1.00  0.00    -0.507 OA
ATOM     20  H   UNL     1      -1.808   2.758   5.877  1.00  0.00     0.293 HD
ENDBRANCH   5  19
TORSDOF 4
ENDMDL
MODEL 7
REMARK VINA RESULT:    -4.343      8.462     10.840
REMARK INTER + INTRA:          -5.779
REMARK INTER:                  -4.767
REMARK INTRA:                  -1.011
REMARK UNBOUND:                -0.674
REMARK SMILES O=C(O)c1cc(-c2ccc(F)cc2F)ccc1O
REMARK SMILES IDX 6 1 5 2 15 3 4 4 17 5 16 6 7 7 13 8 12 9 8 10 10 11 9 12
REMARK SMILES IDX 14 13 11 14 2 15 1 16 3 17 18 19
REMARK H PARENT 3 18 18 20
ROOT
ATOM      1  C   UNL     1      -4.109  10.438  15.267  1.00  0.00    -0.014 A 
ATOM      2  C   UNL     1      -2.864  11.001  15.540  1.00  0.00     0.028 A 
ATOM      3  C   UNL     1      -5.272  11.066  15.715  1.00  0.00     0.013 A 
ATOM      4  C   UNL     1      -2.779  12.192  16.262  1.00  0.00     0.102 A 
ATOM      5  C   UNL     1      -3.941  12.820  16.710  1.00  0.00     0.130 A 
ATOM      6  C   UNL     1      -5.188  12.256  16.436  1.00  0.00     0.048 A 
ENDROOT
BRANCH   1   7
ATOM      7  C   UNL     1      -4.198   9.202  14.520  1.00  0.00     0.018 A 
ATOM      8  C   UNL     1      -4.517   8.011  15.172  1.00  0.00     0.133 A 
ATOM      9  C   UNL     1      -4.601   6.821  14.448  1.00  0.00     0.079 A 
ATOM     10  C   UNL     1      -3.965   9.204  13.145  1.00  0.00     0.015 A 
ATOM     11  C   UNL     1      -4.367   6.823  13.073  1.00  0.00     0.126 A 
ATOM     12  C   UNL     1      -4.050   8.015  12.421  1.00  0.00     0.040 A 
ATOM     13  F   UNL     1      -4.741   7.991  16.493  1.00  0.00    -0.206 F 
ATOM     14  F   UNL     1      -4.448   5.682  12.377  1.00  0.00    -0.207 F 
ENDBRANCH   1   7
BRANCH   4  15
ATOM     15  C   UNL     1      -1.468  12.764  16.536  1.00  0.00     0.339 C 
ATOM     16  O   UNL     1      -1.212  13.560  17.443  1.00  0.00    -0.246 OA
BRANCH  15  17
ATOM     17  O   UNL     1      -0.517  12.321  15.669  1.00  0.00    -0.478 OA
ATOM     18  H   UNL     1      -0.913  11.928  14.864  1.00  0.00     0.297 HD
ENDBRANCH  15  17
ENDBRANCH   4  15
BRANCH   5  19
ATOM     19  O   UNL     1      -3.880  13.984  17.416  1.00  0.00    -0.507 OA
ATOM     20  H   UNL     1      -4.782  14.328  17.540  1.00  0.00     0.293 HD
ENDBRANCH   5  19
TORSDOF 4
ENDMDL
MODEL 8
REMARK VINA RESULT:    -4.083      6.271      8.597
REMARK INTER + INTRA:          -5.472
REMARK INTER:                  -4.831
REMARK INTRA:                  -0.641
REMARK UNBOUND:                -0.674
REMARK SMILES O=C(O)c1cc(-c2ccc(F)cc2F)ccc1O
REMARK SMILES IDX 6 1 5 2 15 3 4 4 17 5 16 6 7 7 13 8 12 9 8 10 10 11 9 12
REMARK SMILES IDX 14 13 11 14 2 15 1 16 3 17 18 19
REMARK H PARENT 3 18 18 20
ROOT
ATOM      1  C   UNL     1      -8.177   4.033  12.441  1.00  0.00    -0.014 A 
ATOM      2  C   UNL     1      -8.847   5.080  13.074  1.00  0.00     0.028 A 
ATOM      3  C   UNL     1      -8.664   2.730  12.543  1.00  0.00     0.013 A 
ATOM      4  C   UNL     1     -10.005   4.824  13.808  1.00  0.00     0.102 A 
ATOM      5  C   UNL     1     -10.493   3.521  13.910  1.00  0.00     0.130 A 
ATOM      6  C   UNL     1      -9.822   2.474  13.277  1.00  0.00     0.048 A 
ENDROOT
BRANCH   1   7
ATOM      7  C   UNL     1      -6.974   4.297  11.681  1.00  0.00     0.018 A 
ATOM      8  C   UNL     1      -6.017   5.187  12.170  1.00  0.00     0.133 A 
ATOM      9  C   UNL     1      -4.860   5.439  11.433  1.00  0.00     0.079 A 
ATOM     10  C   UNL     1      -6.773   3.659  10.457  1.00  0.00     0.015 A 
ATOM     11  C   UNL     1      -4.659   4.801  10.209  1.00  0.00     0.126 A 
ATOM     12  C   UNL     1      -5.616   3.911   9.721  1.00  0.00     0.040 A 
ATOM     13  F   UNL     1      -6.196   5.810  13.343  1.00  0.00    -0.206 F 
ATOM     14  F   UNL     1      -3.548   5.042   9.501  1.00  0.00    -0.207 F 
ENDBRANCH   1   7
BRANCH   4  15
ATOM     15  C   UNL     1     -10.690   5.931  14.461  1.00  0.00     0.339 C 
ATOM     16  O   UNL     1     -11.864   5.920  14.839  1.00  0.00    -0.246 OA
BRANCH  15  17
ATOM     17  O   UNL     1      -9.886   7.017  14.620  1.00  0.00    -0.478 OA
ATOM     18  H   UNL     1     -10.315   7.713  15.161  1.00  0.00     0.297 HD
ENDBRANCH  15  17
ENDBRANCH   4  15
BRANCH   5  19
ATOM     19  O   UNL     1     -11.623   3.251  14.622  1.00  0.00    -0.507 OA
ATOM     20  H   UNL     1     -12.400   3.460  14.075  1.00  0.00     0.293 HD
ENDBRANCH   5  19
TORSDOF 4
ENDMDL
MODEL 9
REMARK VINA RESULT:    -4.074      5.849      8.216
REMARK INTER + INTRA:          -5.462
REMARK INTER:                  -4.797
REMARK INTRA:                  -0.665
REMARK UNBOUND:                -0.674
REMARK SMILES O=C(O)c1cc(-c2ccc(F)cc2F)ccc1O
REMARK SMILES IDX 6 1 5 2 15 3 4 4 17 5 16 6 7 7 13 8 12 9 8 10 10 11 9 12
REMARK SMILES IDX 14 13 11 14 2 15 1 16 3 17 18 19
REMARK H PARENT 3 18 18 20
ROOT
ATOM      1  C   UNL     1      -4.669   6.857  13.105  1.00  0.00    -0.014 A 
ATOM      2  C   UNL     1      -4.973   6.577  14.436  1.00  0.00     0.028 A 
ATOM      3  C   UNL     1      -4.090   8.079  12.763  1.00  0.00     0.013 A 
ATOM      4  C   UNL     1      -4.700   7.520  15.427  1.00  0.00     0.102 A 
ATOM      5  C   UNL     1      -4.121   8.743  15.086  1.00  0.00     0.130 A 
ATOM      6  C   UNL     1      -3.816   9.022  13.753  1.00  0.00     0.048 A 
ENDROOT
BRANCH   1   7
ATOM      7  C   UNL     1      -4.953   5.880  12.076  1.00  0.00     0.018 A 
ATOM      8  C   UNL     1      -6.168   5.194  12.078  1.00  0.00     0.133 A 
ATOM      9  C   UNL     1      -6.438   4.252  11.085  1.00  0.00     0.079 A 
ATOM     10  C   UNL     1      -4.011   5.626  11.080  1.00  0.00     0.015 A 
ATOM     11  C   UNL     1      -5.496   3.998  10.089  1.00  0.00     0.126 A 
ATOM     12  C   UNL     1      -4.282   4.685  10.087  1.00  0.00     0.040 A 
ATOM     13  F   UNL     1      -7.084   5.424  13.030  1.00  0.00    -0.206 F 
ATOM     14  F   UNL     1      -5.754   3.095   9.135  1.00  0.00    -0.207 F 
ENDBRANCH   1   7
BRANCH   4  15
ATOM     15  C   UNL     1      -5.025   7.209  16.812  1.00  0.00     0.339 C 
ATOM     16  O   UNL     1      -4.524   7.748  17.802  1.00  0.00    -0.246 OA
BRANCH  15  17
ATOM     17  O   UNL     1      -5.968   6.233  16.917  1.00  0.00    -0.478 OA
ATOM     18  H   UNL     1      -5.574   5.338  16.859  1.00  0.00     0.297 HD
ENDBRANCH  15  17
ENDBRANCH   4  15
BRANCH   5  19
ATOM     19  O   UNL     1      -3.845   9.677  16.039  1.00  0.00    -0.507 OA
ATOM     20  H   UNL     1      -3.116   9.356  16.597  1.00  0.00     0.293 HD
ENDBRANCH   5  19
TORSDOF 4
ENDMDL
