MODEL 1
REMARK VINA RESULT:    -5.245      0.000      0.000
REMARK INTER + INTRA:          -7.225
REMARK INTER:                  -6.472
REMARK INTRA:                  -0.754
REMARK UNBOUND:                -0.754
REMARK SMILES Cc1ccc(C(=O)c2cc(O)c(O)c([N+](=O)[O-])c2)cc1
REMARK SMILES IDX 8 1 18 2 9 3 14 4 10 5 12 6 6 7 7 8 5 9 4 10 19 11 3 12
REMARK SMILES IDX 20 13 2 14 1 15 15 16 17 17 16 18 11 19 13 21
REMARK H PARENT 11 20 13 22
ROOT
ATOM      1  C   UNL     1      -3.236   4.118   7.857  1.00  0.00     0.033 A 
ATOM      2  C   UNL     1      -4.260   3.752   7.014  1.00  0.00     0.102 A 
ATOM      3  C   UNL     1      -1.917   3.835   7.597  1.00  0.00     0.063 A 
ATOM      4  C   UNL     1      -3.944   3.064   5.843  1.00  0.00     0.315 A 
ATOM      5  C   UNL     1      -1.601   3.145   6.425  1.00  0.00     0.165 A 
ATOM      6  C   UNL     1      -2.616   2.760   5.548  1.00  0.00     0.237 A 
ENDROOT
BRANCH   1   7
ATOM      7  C   UNL     1      -3.574   4.856   9.112  1.00  0.00     0.193 C 
ATOM      8  O   UNL     1      -2.762   5.705   9.509  1.00  0.00    -0.289 OA
BRANCH   7   9
ATOM      9  C   UNL     1      -4.798   4.608   9.857  1.00  0.00     0.023 A 
ATOM     10  C   UNL     1      -4.786   3.737  10.947  1.00  0.00     0.012 A 
ATOM     11  C   UNL     1      -5.983   5.240   9.483  1.00  0.00     0.012 A 
ATOM     12  C   UNL     1      -5.960   3.500  11.662  1.00  0.00     0.004 A 
ATOM     13  C   UNL     1      -7.158   5.003  10.197  1.00  0.00     0.004 A 
ATOM     14  C   UNL     1      -7.146   4.132  11.287  1.00  0.00    -0.051 A 
ATOM     15  C   UNL     1      -8.401   3.877  12.051  1.00  0.00     0.044 C 
ENDBRANCH   7   9
ENDBRANCH   1   7
BRANCH   4  16
ATOM     16  N   UNL     1      -4.992   2.679   4.961  1.00  0.00     0.066 N 
ATOM     17  O   UNL     1      -4.852   1.640   4.272  1.00  0.00    -0.258 OA
ATOM     18  O   UNL     1      -6.023   3.389   4.899  1.00  0.00    -0.258 OA
ENDBRANCH   4  16
BRANCH   5  19
ATOM     19  O   UNL     1      -0.299   2.856   6.150  1.00  0.00    -0.504 OA
ATOM     20  H   UNL     1       0.275   3.539   6.535  1.00  0.00     0.293 HD
ENDBRANCH   5  19
BRANCH   6  21
ATOM     21  O   UNL     1      -2.295   2.087   4.405  1.00  0.00    -0.500 OA
ATOM     22  H   UNL     1      -1.413   2.357   4.105  1.00  0.00     0.294 HD
ENDBRANCH   6  21
TORSDOF 5
ENDMDL
MODEL 2
REMARK VINA RESULT:    -5.181      2.027      3.538
REMARK INTER + INTRA:          -7.146
REMARK INTER:                  -6.361
REMARK INTRA:                  -0.785
REMARK UNBOUND:                -0.754
REMARK SMILES Cc1ccc(C(=O)c2cc(O)c(O)c([N+](=O)[O-])c2)cc1
REMARK SMILES IDX 8 1 18 2 9 3 14 4 10 5 12 6 6 7 7 8 5 9 4 10 19 11 3 12
REMARK SMILES IDX 20 13 2 14 1 15 15 16 17 17 16 18 11 19 13 21
REMARK H PARENT 11 20 13 22
ROOT
ATOM      1  C   UNL     1      -4.520   2.842   7.716  1.00  0.00     0.033 A 
ATOM      2  C   UNL     1      -3.158   2.838   7.912  1.00  0.00     0.102 A 
ATOM      3  C   UNL     1      -5.097   2.676   6.480  1.00  0.00     0.063 A 
ATOM      4  C   UNL     1      -2.326   2.655   6.807  1.00  0.00     0.315 A 
ATOM      5  C   UNL     1      -4.265   2.495   5.375  1.00  0.00     0.165 A 
ATOM      6  C   UNL     1      -2.879   2.484   5.539  1.00  0.00     0.237 A 
ENDROOT
BRANCH   1   7
ATOM      7  C   UNL     1      -5.411   3.038   8.900  1.00  0.00     0.193 C 
ATOM      8  O   UNL     1      -6.435   2.340   8.962  1.00  0.00    -0.289 OA
BRANCH   7   9
ATOM      9  C   UNL     1      -5.113   3.998   9.950  1.00  0.00     0.023 A 
ATOM     10  C   UNL     1      -5.658   5.281   9.896  1.00  0.00     0.012 A 
ATOM     11  C   UNL     1      -4.283   3.637  11.011  1.00  0.00     0.012 A 
ATOM     12  C   UNL     1      -5.373   6.202  10.904  1.00  0.00     0.004 A 
ATOM     13  C   UNL     1      -3.997   4.559  12.019  1.00  0.00     0.004 A 
ATOM     14  C   UNL     1      -4.542   5.842  11.966  1.00  0.00    -0.051 A 
ATOM     15  C   UNL     1      -4.237   6.827  13.041  1.00  0.00     0.044 C 
ENDBRANCH   7   9
ENDBRANCH   1   7
BRANCH   4  16
ATOM     16  N   UNL     1      -0.917   2.648   6.994  1.00  0.00     0.066 N 
ATOM     17  O   UNL     1      -0.187   3.183   6.124  1.00  0.00    -0.258 OA
ATOM     18  O   UNL     1      -0.444   2.108   8.021  1.00  0.00    -0.258 OA
ENDBRANCH   4  16
BRANCH   5  19
ATOM     19  O   UNL     1      -4.819   2.328   4.141  1.00  0.00    -0.504 OA
ATOM     20  H   UNL     1      -5.638   2.847   4.079  1.00  0.00     0.293 HD
ENDBRANCH   5  19
BRANCH   6  21
ATOM     21  O   UNL     1      -2.076   2.305   4.450  1.00  0.00    -0.500 OA
ATOM     22  H   UNL     1      -2.148   3.072   3.862  1.00  0.00     0.294 HD
ENDBRANCH   6  21
TORSDOF 5
ENDMDL
MODEL 3
REMARK VINA RESULT:    -4.624      1.650      3.109
REMARK INTER + INTRA:          -6.459
REMARK INTER:                  -5.728
REMARK INTRA:                  -0.732
REMARK UNBOUND:                -0.754
REMARK SMILES Cc1ccc(C(=O)c2cc(O)c(O)c([N+](=O)[O-])c2)cc1
REMARK SMILES IDX 8 1 18 2 9 3 14 4 10 5 12 6 6 7 7 8 5 9 4 10 19 11 3 12
REMARK SMILES IDX 20 13 2 14 1 15 15 16 17 17 16 18 11 19 13 21
REMARK H PARENT 11 20 13 22
ROOT
ATOM      1  C   UNL     1      -4.236   4.236   6.597  1.00  0.00     0.033 A 
ATOM      2  C   UNL     1      -2.886   4.187   6.854  1.00  0.00     0.102 A 
ATOM      3  C   UNL     1      -4.858   3.396   5.704  1.00  0.00     0.063 A 
ATOM      4  C   UNL     1      -2.113   3.241   6.180  1.00  0.00     0.315 A 
ATOM      5  C   UNL     1      -4.085   2.451   5.029  1.00  0.00     0.165 A 
ATOM      6  C   UNL     1      -2.712   2.373   5.267  1.00  0.00     0.237 A 
ENDROOT
BRANCH   1   7
ATOM      7  C   UNL     1      -5.064   5.249   7.319  1.00  0.00     0.193 C 
ATOM      8  O   UNL     1      -5.281   6.324   6.740  1.00  0.00    -0.289 OA
BRANCH   7   9
ATOM      9  C   UNL     1      -5.607   5.009   8.647  1.00  0.00     0.023 A 
ATOM     10  C   UNL     1      -6.813   5.599   9.025  1.00  0.00     0.012 A 
ATOM     11  C   UNL     1      -4.922   4.188   9.542  1.00  0.00     0.012 A 
ATOM     12  C   UNL     1      -7.333   5.369  10.298  1.00  0.00     0.004 A 
ATOM     13  C   UNL     1      -5.442   3.957  10.817  1.00  0.00     0.004 A 
ATOM     14  C   UNL     1      -6.648   4.547  11.194  1.00  0.00    -0.051 A 
ATOM     15  C   UNL     1      -7.204   4.302  12.556  1.00  0.00     0.044 C 
ENDBRANCH   7   9
ENDBRANCH   1   7
BRANCH   4  16
ATOM     16  N   UNL     1      -0.716   3.177   6.435  1.00  0.00     0.066 N 
ATOM     17  O   UNL     1       0.077   3.156   5.463  1.00  0.00    -0.258 OA
ATOM     18  O   UNL     1      -0.318   3.145   7.623  1.00  0.00    -0.258 OA
ENDBRANCH   4  16
BRANCH   5  19
ATOM     19  O   UNL     1      -4.684   1.609   4.140  1.00  0.00    -0.504 OA
ATOM     20  H   UNL     1      -5.420   2.067   3.703  1.00  0.00     0.293 HD
ENDBRANCH   5  19
BRANCH   6  21
ATOM     21  O   UNL     1      -1.967   1.444   4.601  1.00  0.00    -0.500 OA
ATOM     22  H   UNL     1      -1.553   1.853   3.825  1.00  0.00     0.294 HD
ENDBRANCH   6  21
TORSDOF 5
ENDMDL
MODEL 4
REMARK VINA RESULT:    -4.480      3.668      6.521
REMARK INTER + INTRA:          -6.282
REMARK INTER:                  -5.307
REMARK INTRA:                  -0.975
REMARK UNBOUND:                -0.754
REMARK SMILES Cc1ccc(C(=O)c2cc(O)c(O)c([N+](=O)[O-])c2)cc1
REMARK SMILES IDX 8 1 18 2 9 3 14 4 10 5 12 6 6 7 7 8 5 9 4 10 19 11 3 12
REMARK SMILES IDX 20 13 2 14 1 15 15 16 17 17 16 18 11 19 13 21
REMARK H PARENT 11 20 13 22
ROOT
ATOM      1  C   UNL     1      -4.862   4.178  10.979  1.00  0.00     0.033 A 
ATOM      2  C   UNL     1      -6.166   3.775  11.151  1.00  0.00     0.102 A 
ATOM      3  C   UNL     1      -4.289   5.187  11.717  1.00  0.00     0.063 A 
ATOM      4  C   UNL     1      -6.940   4.417  12.117  1.00  0.00     0.315 A 
ATOM      5  C   UNL     1      -5.064   5.830  12.683  1.00  0.00     0.165 A 
ATOM      6  C   UNL     1      -6.390   5.444  12.883  1.00  0.00     0.237 A 
ENDROOT
BRANCH   1   7
ATOM      7  C   UNL     1      -4.032   3.491   9.944  1.00  0.00     0.193 C 
ATOM      8  O   UNL     1      -2.954   3.001  10.313  1.00  0.00    -0.289 OA
BRANCH   7   9
ATOM      9  C   UNL     1      -4.447   3.386   8.555  1.00  0.00     0.023 A 
ATOM     10  C   UNL     1      -4.440   2.146   7.916  1.00  0.00     0.012 A 
ATOM     11  C   UNL     1      -4.854   4.526   7.861  1.00  0.00     0.012 A 
ATOM     12  C   UNL     1      -4.839   2.046   6.583  1.00  0.00     0.004 A 
ATOM     13  C   UNL     1      -5.253   4.426   6.527  1.00  0.00     0.004 A 
ATOM     14  C   UNL     1      -5.246   3.186   5.888  1.00  0.00    -0.051 A 
ATOM     15  C   UNL     1      -5.671   3.079   4.464  1.00  0.00     0.044 C 
ENDBRANCH   7   9
ENDBRANCH   1   7
BRANCH   4  16
ATOM     16  N   UNL     1      -8.290   4.010  12.307  1.00  0.00     0.066 N 
ATOM     17  O   UNL     1      -8.932   3.565  11.325  1.00  0.00    -0.258 OA
ATOM     18  O   UNL     1      -8.797   4.108  13.449  1.00  0.00    -0.258 OA
ENDBRANCH   4  16
BRANCH   5  19
ATOM     19  O   UNL     1      -4.513   6.831  13.424  1.00  0.00    -0.504 OA
ATOM     20  H   UNL     1      -4.648   6.649  14.368  1.00  0.00     0.293 HD
ENDBRANCH   5  19
BRANCH   6  21
ATOM     21  O   UNL     1      -7.138   6.080  13.831  1.00  0.00    -0.500 OA
ATOM     22  H   UNL     1      -7.675   6.771  13.414  1.00  0.00     0.294 HD
ENDBRANCH   6  21
TORSDOF 5
ENDMDL
MODEL 5
REMARK VINA RESULT:    -4.470      3.537      7.201
REMARK INTER + INTRA:          -6.269
REMARK INTER:                  -5.294
REMARK INTRA:                  -0.975
REMARK UNBOUND:                -0.754
REMARK SMILES Cc1ccc(C(=O)c2cc(O)c(O)c([N+](=O)[O-])c2)cc1
REMARK SMILES IDX 8 1 18 2 9 3 14 4 10 5 12 6 6 7 7 8 5 9 4 10 19 11 3 12
REMARK SMILES IDX 20 13 2 14 1 15 15 16 17 17 16 18 11 19 13 21
REMARK H PARENT 11 20 13 22
ROOT
ATOM      1  C   UNL     1      -5.749   4.985  10.210  1.00  0.00     0.033 A 
ATOM      2  C   UNL     1      -4.933   5.768  10.993  1.00  0.00     0.102 A 
ATOM      3  C   UNL     1      -6.929   4.448  10.666  1.00  0.00     0.063 A 
ATOM      4  C   UNL     1      -5.320   6.030  12.307  1.00  0.00     0.315 A 
ATOM      5  C   UNL     1      -7.317   4.709  11.981  1.00  0.00     0.165 A 
ATOM      6  C   UNL     1      -6.512   5.501  12.801  1.00  0.00     0.237 A 
ENDROOT
BRANCH   1   7
ATOM      7  C   UNL     1      -5.334   4.705   8.802  1.00  0.00     0.193 C 
ATOM      8  O   UNL     1      -6.142   4.985   7.904  1.00  0.00    -0.289 OA
BRANCH   7   9
ATOM      9  C   UNL     1      -4.041   4.129   8.471  1.00  0.00     0.023 A 
ATOM     10  C   UNL     1      -3.234   4.733   7.505  1.00  0.00     0.012 A 
ATOM     11  C   UNL     1      -3.606   2.972   9.117  1.00  0.00     0.012 A 
ATOM     12  C   UNL     1      -1.994   4.180   7.188  1.00  0.00     0.004 A 
ATOM     13  C   UNL     1      -2.365   2.419   8.800  1.00  0.00     0.004 A 
ATOM     14  C   UNL     1      -1.559   3.023   7.835  1.00  0.00    -0.051 A 
ATOM     15  C   UNL     1      -0.233   2.432   7.494  1.00  0.00     0.044 C 
ENDBRANCH   7   9
ENDBRANCH   1   7
BRANCH   4  16
ATOM     16  N   UNL     1      -4.487   6.838  13.128  1.00  0.00     0.066 N 
ATOM     17  O   UNL     1      -3.247   6.815  12.942  1.00  0.00    -0.258 OA
ATOM     18  O   UNL     1      -5.017   7.550  14.013  1.00  0.00    -0.258 OA
ENDBRANCH   4  16
BRANCH   5  19
ATOM     19  O   UNL     1      -8.484   4.185  12.450  1.00  0.00    -0.504 OA
ATOM     20  H   UNL     1      -8.301   3.361  12.931  1.00  0.00     0.293 HD
ENDBRANCH   5  19
BRANCH   6  21
ATOM     21  O   UNL     1      -6.902   5.749  14.085  1.00  0.00    -0.500 OA
ATOM     22  H   UNL     1      -7.732   6.250  14.082  1.00  0.00     0.294 HD
ENDBRANCH   6  21
TORSDOF 5
ENDMDL
MODEL 6
REMARK VINA RESULT:    -4.391      1.951      2.402
REMARK INTER + INTRA:          -6.172
REMARK INTER:                  -5.495
REMARK INTRA:                  -0.677
REMARK UNBOUND:                -0.754
REMARK SMILES Cc1ccc(C(=O)c2cc(O)c(O)c([N+](=O)[O-])c2)cc1
REMARK SMILES IDX 8 1 18 2 9 3 14 4 10 5 12 6 6 7 7 8 5 9 4 10 19 11 3 12
REMARK SMILES IDX 20 13 2 14 1 15 15 16 17 17 16 18 11 19 13 21
REMARK H PARENT 11 20 13 22
ROOT
ATOM      1  C   UNL     1      -4.587   3.106   8.236  1.00  0.00     0.033 A 
ATOM      2  C   UNL     1      -5.165   2.992   6.993  1.00  0.00     0.102 A 
ATOM      3  C   UNL     1      -3.241   2.934   8.452  1.00  0.00     0.063 A 
ATOM      4  C   UNL     1      -4.348   2.689   5.903  1.00  0.00     0.315 A 
ATOM      5  C   UNL     1      -2.424   2.630   7.363  1.00  0.00     0.165 A 
ATOM      6  C   UNL     1      -2.978   2.508   6.088  1.00  0.00     0.237 A 
ENDROOT
BRANCH   1   7
ATOM      7  C   UNL     1      -5.462   3.431   9.403  1.00  0.00     0.193 C 
ATOM      8  O   UNL     1      -6.541   2.826   9.491  1.00  0.00    -0.289 OA
BRANCH   7   9
ATOM      9  C   UNL     1      -5.087   4.410  10.410  1.00  0.00     0.023 A 
ATOM     10  C   UNL     1      -4.251   4.042  11.464  1.00  0.00     0.012 A 
ATOM     11  C   UNL     1      -5.562   5.719  10.322  1.00  0.00     0.012 A 
ATOM     12  C   UNL     1      -3.891   4.982  12.430  1.00  0.00     0.004 A 
ATOM     13  C   UNL     1      -5.203   6.660  11.287  1.00  0.00     0.004 A 
ATOM     14  C   UNL     1      -4.367   6.291  12.342  1.00  0.00    -0.051 A 
ATOM     15  C   UNL     1      -3.983   7.295  13.375  1.00  0.00     0.044 C 
ENDBRANCH   7   9
ENDBRANCH   1   7
BRANCH   4  16
ATOM     16  N   UNL     1      -4.931   2.569   4.612  1.00  0.00     0.066 N 
ATOM     17  O   UNL     1      -5.551   3.549   4.133  1.00  0.00    -0.258 OA
ATOM     18  O   UNL     1      -4.807   1.488   3.990  1.00  0.00    -0.258 OA
ENDBRANCH   4  16
BRANCH   5  19
ATOM     19  O   UNL     1      -1.087   2.456   7.558  1.00  0.00    -0.504 OA
ATOM     20  H   UNL     1      -0.835   1.554   7.298  1.00  0.00     0.293 HD
ENDBRANCH   5  19
BRANCH   6  21
ATOM     21  O   UNL     1      -2.169   2.211   5.030  1.00  0.00    -0.500 OA
ATOM     22  H   UNL     1      -1.769   3.026   4.686  1.00  0.00     0.294 HD
ENDBRANCH   6  21
TORSDOF 5
ENDMDL
MODEL 7
REMARK VINA RESULT:    -4.380      3.770      6.997
REMARK INTER + INTRA:          -6.158
REMARK INTER:                  -5.176
REMARK INTRA:                  -0.982
REMARK UNBOUND:                -0.754
REMARK SMILES Cc1ccc(C(=O)c2cc(O)c(O)c([N+](=O)[O-])c2)cc1
REMARK SMILES IDX 8 1 18 2 9 3 14 4 10 5 12 6 6 7 7 8 5 9 4 10 19 11 3 12
REMARK SMILES IDX 20 13 2 14 1 15 15 16 17 17 16 18 11 19 13 21
REMARK H PARENT 11 20 13 22
ROOT
ATOM      1  C   UNL     1      -4.884   4.175  10.953  1.00  0.00     0.033 A 
ATOM      2  C   UNL     1      -4.331   5.204  11.681  1.00  0.00     0.102 A 
ATOM      3  C   UNL     1      -6.175   3.740  11.137  1.00  0.00     0.063 A 
ATOM      4  C   UNL     1      -5.116   5.834  12.646  1.00  0.00     0.315 A 
ATOM      5  C   UNL     1      -6.959   4.370  12.104  1.00  0.00     0.165 A 
ATOM      6  C   UNL     1      -6.430   5.417  12.859  1.00  0.00     0.237 A 
ENDROOT
BRANCH   1   7
ATOM      7  C   UNL     1      -4.044   3.500   9.919  1.00  0.00     0.193 C 
ATOM      8  O   UNL     1      -2.959   3.025  10.288  1.00  0.00    -0.289 OA
BRANCH   7   9
ATOM      9  C   UNL     1      -4.457   3.389   8.529  1.00  0.00     0.023 A 
ATOM     10  C   UNL     1      -4.437   2.149   7.892  1.00  0.00     0.012 A 
ATOM     11  C   UNL     1      -4.874   4.524   7.833  1.00  0.00     0.012 A 
ATOM     12  C   UNL     1      -4.834   2.043   6.559  1.00  0.00     0.004 A 
ATOM     13  C   UNL     1      -5.271   4.419   6.500  1.00  0.00     0.004 A 
ATOM     14  C   UNL     1      -5.251   3.178   5.862  1.00  0.00    -0.051 A 
ATOM     15  C   UNL     1      -5.674   3.065   4.437  1.00  0.00     0.044 C 
ENDBRANCH   7   9
ENDBRANCH   1   7
BRANCH   4  16
ATOM     16  N   UNL     1      -4.559   6.899  13.406  1.00  0.00     0.066 N 
ATOM     17  O   UNL     1      -4.932   7.057  14.593  1.00  0.00    -0.258 OA
ATOM     18  O   UNL     1      -3.711   7.649  12.867  1.00  0.00    -0.258 OA
ENDBRANCH   4  16
BRANCH   5  19
ATOM     19  O   UNL     1      -8.241   3.952  12.300  1.00  0.00    -0.504 OA
ATOM     20  H   UNL     1      -8.247   3.189  12.901  1.00  0.00     0.293 HD
ENDBRANCH   5  19
BRANCH   6  21
ATOM     21  O   UNL     1      -7.207   6.026  13.801  1.00  0.00    -0.500 OA
ATOM     22  H   UNL     1      -7.834   6.626  13.368  1.00  0.00     0.294 HD
ENDBRANCH   6  21
TORSDOF 5
ENDMDL
MODEL 8
REMARK VINA RESULT:    -4.369      3.710      6.767
REMARK INTER + INTRA:          -6.145
REMARK INTER:                  -5.167
REMARK INTRA:                  -0.978
REMARK UNBOUND:                -0.754
REMARK SMILES Cc1ccc(C(=O)c2cc(O)c(O)c([N+](=O)[O-])c2)cc1
REMARK SMILES IDX 8 1 18 2 9 3 14 4 10 5 12 6 6 7 7 8 5 9 4 10 19 11 3 12
REMARK SMILES IDX 20 13 2 14 1 15 15 16 17 17 16 18 11 19 13 21
REMARK H PARENT 11 20 13 22
ROOT
ATOM      1  C   UNL     1      -5.724   4.968  10.215  1.00  0.00     0.033 A 
ATOM      2  C   UNL     1      -6.891   4.421  10.696  1.00  0.00     0.102 A 
ATOM      3  C   UNL     1      -4.912   5.779  10.971  1.00  0.00     0.063 A 
ATOM      4  C   UNL     1      -7.266   4.701  12.010  1.00  0.00     0.315 A 
ATOM      5  C   UNL     1      -5.288   6.060  12.285  1.00  0.00     0.165 A 
ATOM      6  C   UNL     1      -6.465   5.520  12.805  1.00  0.00     0.237 A 
ENDROOT
BRANCH   1   7
ATOM      7  C   UNL     1      -5.321   4.668   8.808  1.00  0.00     0.193 C 
ATOM      8  O   UNL     1      -6.143   4.924   7.914  1.00  0.00    -0.289 OA
BRANCH   7   9
ATOM      9  C   UNL     1      -4.026   4.101   8.471  1.00  0.00     0.023 A 
ATOM     10  C   UNL     1      -3.574   2.956   9.128  1.00  0.00     0.012 A 
ATOM     11  C   UNL     1      -3.234   4.701   7.492  1.00  0.00     0.012 A 
ATOM     12  C   UNL     1      -2.331   2.412   8.805  1.00  0.00     0.004 A 
ATOM     13  C   UNL     1      -1.991   4.157   7.168  1.00  0.00     0.004 A 
ATOM     14  C   UNL     1      -1.539   3.012   7.825  1.00  0.00    -0.051 A 
ATOM     15  C   UNL     1      -0.210   2.430   7.481  1.00  0.00     0.044 C 
ENDBRANCH   7   9
ENDBRANCH   1   7
BRANCH   4  16
ATOM     16  N   UNL     1      -8.469   4.142  12.522  1.00  0.00     0.066 N 
ATOM     17  O   UNL     1      -8.829   3.008  12.123  1.00  0.00    -0.258 OA
ATOM     18  O   UNL     1      -9.135   4.798  13.356  1.00  0.00    -0.258 OA
ENDBRANCH   4  16
BRANCH   5  19
ATOM     19  O   UNL     1      -4.495   6.862  13.051  1.00  0.00    -0.504 OA
ATOM     20  H   UNL     1      -3.563   6.708  12.826  1.00  0.00     0.293 HD
ENDBRANCH   5  19
BRANCH   6  21
ATOM     21  O   UNL     1      -6.822   5.802  14.092  1.00  0.00    -0.500 OA
ATOM     22  H   UNL     1      -6.746   6.756  14.250  1.00  0.00     0.294 HD
ENDBRANCH   6  21
TORSDOF 5
ENDMDL
MODEL 9
REMARK VINA RESULT:    -4.325      1.255      2.732
REMARK INTER + INTRA:          -6.091
REMARK INTER:                  -5.390
REMARK INTRA:                  -0.701
REMARK UNBOUND:                -0.754
REMARK SMILES Cc1ccc(C(=O)c2cc(O)c(O)c([N+](=O)[O-])c2)cc1
REMARK SMILES IDX 8 1 18 2 9 3 14 4 10 5 12 6 6 7 7 8 5 9 4 10 19 11 3 12
REMARK SMILES IDX 20 13 2 14 1 15 15 16 17 17 16 18 11 19 13 21
REMARK H PARENT 11 20 13 22
ROOT
ATOM      1  C   UNL     1      -3.437   4.237   8.111  1.00  0.00     0.033 A 
ATOM      2  C   UNL     1      -2.137   3.800   8.013  1.00  0.00     0.102 A 
ATOM      3  C   UNL     1      -4.365   4.051   7.114  1.00  0.00     0.063 A 
ATOM      4  C   UNL     1      -1.742   3.137   6.851  1.00  0.00     0.315 A 
ATOM      5  C   UNL     1      -3.970   3.389   5.951  1.00  0.00     0.165 A 
ATOM      6  C   UNL     1      -2.658   2.931   5.820  1.00  0.00     0.237 A 
ENDROOT
BRANCH   1   7
ATOM      7  C   UNL     1      -3.860   4.947   9.356  1.00  0.00     0.193 C 
ATOM      8  O   UNL     1      -3.108   5.833   9.789  1.00  0.00    -0.289 OA
BRANCH   7   9
ATOM      9  C   UNL     1      -5.098   4.632  10.051  1.00  0.00     0.023 A 
ATOM     10  C   UNL     1      -5.094   3.715  11.102  1.00  0.00     0.012 A 
ATOM     11  C   UNL     1      -6.289   5.247   9.667  1.00  0.00     0.012 A 
ATOM     12  C   UNL     1      -6.281   3.413  11.769  1.00  0.00     0.004 A 
ATOM     13  C   UNL     1      -7.478   4.945  10.334  1.00  0.00     0.004 A 
ATOM     14  C   UNL     1      -7.473   4.028  11.385  1.00  0.00    -0.051 A 
ATOM     15  C   UNL     1      -8.742   3.704  12.097  1.00  0.00     0.044 C 
ENDBRANCH   7   9
ENDBRANCH   1   7
BRANCH   4  16
ATOM     16  N   UNL     1      -0.401   2.679   6.735  1.00  0.00     0.066 N 
ATOM     17  O   UNL     1       0.319   3.140   5.816  1.00  0.00    -0.258 OA
ATOM     18  O   UNL     1       0.022   1.830   7.553  1.00  0.00    -0.258 OA
ENDBRANCH   4  16
BRANCH   5  19
ATOM     19  O   UNL     1      -4.876   3.194   4.952  1.00  0.00    -0.504 OA
ATOM     20  H   UNL     1      -4.616   2.422   4.423  1.00  0.00     0.293 HD
ENDBRANCH   5  19
BRANCH   6  21
ATOM     21  O   UNL     1      -2.284   2.284   4.678  1.00  0.00    -0.500 OA
ATOM     22  H   UNL     1      -2.472   1.337   4.764  1.00  0.00     0.294 HD
ENDBRANCH   6  21
TORSDOF 5
ENDMDL
