MODEL 1
REMARK VINA RESULT:    -5.219      0.000      0.000
REMARK INTER + INTRA:          -7.167
REMARK INTER:                  -6.440
REMARK INTRA:                  -0.727
REMARK UNBOUND:                -0.727
REMARK SMILES Cc1ccc(C(=O)c2cc(O)c(O)c([N+](=O)[O-])c2)cc1
REMARK SMILES IDX 8 1 18 2 9 3 14 4 10 5 12 6 6 7 7 8 5 9 4 10 19 11 3 12
REMARK SMILES IDX 20 13 2 14 1 15 15 16 17 17 16 18 11 19 13 21
REMARK H PARENT 11 20 13 22
ROOT
ATOM      1  C   UNL     1      -2.419   2.619  -4.964  1.00  0.00     0.033 A 
ATOM      2  C   UNL     1      -2.612   3.543  -3.963  1.00  0.00     0.102 A 
ATOM      3  C   UNL     1      -1.565   1.549  -4.838  1.00  0.00     0.063 A 
ATOM      4  C   UNL     1      -1.911   3.386  -2.767  1.00  0.00     0.315 A 
ATOM      5  C   UNL     1      -0.863   1.393  -3.642  1.00  0.00     0.165 A 
ATOM      6  C   UNL     1      -1.037   2.312  -2.606  1.00  0.00     0.237 A 
ENDROOT
BRANCH   1   7
ATOM      7  C   UNL     1      -3.170   2.786  -6.245  1.00  0.00     0.193 C 
ATOM      8  O   UNL     1      -3.493   1.755  -6.854  1.00  0.00    -0.289 OA
BRANCH   7   9
ATOM      9  C   UNL     1      -3.520   4.093  -6.778  1.00  0.00     0.023 A 
ATOM     10  C   UNL     1      -2.733   4.675  -7.771  1.00  0.00     0.012 A 
ATOM     11  C   UNL     1      -4.644   4.764  -6.297  1.00  0.00     0.012 A 
ATOM     12  C   UNL     1      -3.070   5.928  -8.283  1.00  0.00     0.004 A 
ATOM     13  C   UNL     1      -4.982   6.018  -6.808  1.00  0.00     0.004 A 
ATOM     14  C   UNL     1      -4.194   6.600  -7.802  1.00  0.00    -0.051 A 
ATOM     15  C   UNL     1      -4.553   7.940  -8.348  1.00  0.00     0.044 C 
ENDBRANCH   7   9
ENDBRANCH   1   7
BRANCH   4  16
ATOM     16  N   UNL     1      -2.101   4.332  -1.723  1.00  0.00     0.066 N 
ATOM     17  O   UNL     1      -1.151   4.566  -0.937  1.00  0.00    -0.258 OA
ATOM     18  O   UNL     1      -3.210   4.906  -1.619  1.00  0.00    -0.258 OA
ENDBRANCH   4  16
BRANCH   5  19
ATOM     19  O   UNL     1      -0.013   0.338  -3.499  1.00  0.00    -0.504 OA
ATOM     20  H   UNL     1       0.386   0.123  -4.359  1.00  0.00     0.293 HD
ENDBRANCH   5  19
BRANCH   6  21
ATOM     21  O   UNL     1      -0.346   2.148  -1.441  1.00  0.00    -0.500 OA
ATOM     22  H   UNL     1       0.013   3.001  -1.152  1.00  0.00     0.294 HD
ENDBRANCH   6  21
TORSDOF 5
ENDMDL
MODEL 2
REMARK VINA RESULT:    -5.128      2.010      3.528
REMARK INTER + INTRA:          -7.055
REMARK INTER:                  -6.291
REMARK INTRA:                  -0.763
REMARK UNBOUND:                -0.727
REMARK SMILES Cc1ccc(C(=O)c2cc(O)c(O)c([N+](=O)[O-])c2)cc1
REMARK SMILES IDX 8 1 18 2 9 3 14 4 10 5 12 6 6 7 7 8 5 9 4 10 19 11 3 12
REMARK SMILES IDX 20 13 2 14 1 15 15 16 17 17 16 18 11 19 13 21
REMARK H PARENT 11 20 13 22
ROOT
ATOM      1  C   UNL     1      -1.945   4.321  -4.491  1.00  0.00     0.033 A 
ATOM      2  C   UNL     1      -1.295   3.170  -4.870  1.00  0.00     0.102 A 
ATOM      3  C   UNL     1      -2.103   4.690  -3.176  1.00  0.00     0.063 A 
ATOM      4  C   UNL     1      -0.773   2.341  -3.877  1.00  0.00     0.315 A 
ATOM      5  C   UNL     1      -1.582   3.860  -2.183  1.00  0.00     0.165 A 
ATOM      6  C   UNL     1      -0.916   2.685  -2.534  1.00  0.00     0.237 A 
ENDROOT
BRANCH   1   7
ATOM      7  C   UNL     1      -2.504   5.210  -5.554  1.00  0.00     0.193 C 
ATOM      8  O   UNL     1      -2.390   6.434  -5.390  1.00  0.00    -0.289 OA
BRANCH   7   9
ATOM      9  C   UNL     1      -3.159   4.686  -6.742  1.00  0.00     0.023 A 
ATOM     10  C   UNL     1      -4.549   4.567  -6.776  1.00  0.00     0.012 A 
ATOM     11  C   UNL     1      -2.399   4.305  -7.847  1.00  0.00     0.012 A 
ATOM     12  C   UNL     1      -5.177   4.065  -7.916  1.00  0.00     0.004 A 
ATOM     13  C   UNL     1      -3.027   3.803  -8.988  1.00  0.00     0.004 A 
ATOM     14  C   UNL     1      -4.417   3.683  -9.022  1.00  0.00    -0.051 A 
ATOM     15  C   UNL     1      -5.089   3.146 -10.239  1.00  0.00     0.044 C 
ENDBRANCH   7   9
ENDBRANCH   1   7
BRANCH   4  16
ATOM     16  N   UNL     1      -0.098   1.147  -4.254  1.00  0.00     0.066 N 
ATOM     17  O   UNL     1       0.631   1.160  -5.276  1.00  0.00    -0.258 OA
ATOM     18  O   UNL     1      -0.250   0.119  -3.555  1.00  0.00    -0.258 OA
ENDBRANCH   4  16
BRANCH   5  19
ATOM     19  O   UNL     1      -1.729   4.210  -0.874  1.00  0.00    -0.504 OA
ATOM     20  H   UNL     1      -1.528   5.154  -0.765  1.00  0.00     0.293 HD
ENDBRANCH   5  19
BRANCH   6  21
ATOM     21  O   UNL     1      -0.410   1.882  -1.553  1.00  0.00    -0.500 OA
ATOM     22  H   UNL     1      -1.124   1.604  -0.959  1.00  0.00     0.294 HD
ENDBRANCH   6  21
TORSDOF 5
ENDMDL
MODEL 3
REMARK VINA RESULT:    -4.821      1.804      2.320
REMARK INTER + INTRA:          -6.675
REMARK INTER:                  -6.217
REMARK INTRA:                  -0.458
REMARK UNBOUND:                -0.727
REMARK SMILES Cc1ccc(C(=O)c2cc(O)c(O)c([N+](=O)[O-])c2)cc1
REMARK SMILES IDX 8 1 18 2 9 3 14 4 10 5 12 6 6 7 7 8 5 9 4 10 19 11 3 12
REMARK SMILES IDX 20 13 2 14 1 15 15 16 17 17 16 18 11 19 13 21
REMARK H PARENT 11 20 13 22
ROOT
ATOM      1  C   UNL     1      -0.757   3.220  -4.770  1.00  0.00     0.033 A 
ATOM      2  C   UNL     1      -1.208   3.946  -3.692  1.00  0.00     0.102 A 
ATOM      3  C   UNL     1      -0.374   1.904  -4.675  1.00  0.00     0.063 A 
ATOM      4  C   UNL     1      -1.281   3.318  -2.448  1.00  0.00     0.315 A 
ATOM      5  C   UNL     1      -0.446   1.276  -3.432  1.00  0.00     0.165 A 
ATOM      6  C   UNL     1      -0.900   1.983  -2.318  1.00  0.00     0.237 A 
ENDROOT
BRANCH   1   7
ATOM      7  C   UNL     1      -0.679   3.893  -6.102  1.00  0.00     0.193 C 
ATOM      8  O   UNL     1       0.423   4.345  -6.447  1.00  0.00    -0.289 OA
BRANCH   7   9
ATOM      9  C   UNL     1      -1.833   4.025  -6.977  1.00  0.00     0.023 A 
ATOM     10  C   UNL     1      -3.106   4.191  -6.433  1.00  0.00     0.012 A 
ATOM     11  C   UNL     1      -1.666   3.986  -8.361  1.00  0.00     0.012 A 
ATOM     12  C   UNL     1      -4.212   4.318  -7.273  1.00  0.00     0.004 A 
ATOM     13  C   UNL     1      -2.772   4.114  -9.202  1.00  0.00     0.004 A 
ATOM     14  C   UNL     1      -4.046   4.280  -8.658  1.00  0.00    -0.051 A 
ATOM     15  C   UNL     1      -5.229   4.414  -9.555  1.00  0.00     0.044 C 
ENDBRANCH   7   9
ENDBRANCH   1   7
BRANCH   4  16
ATOM     16  N   UNL     1      -1.746   4.055  -1.325  1.00  0.00     0.066 N 
ATOM     17  O   UNL     1      -2.981   4.125  -1.114  1.00  0.00    -0.258 OA
ATOM     18  O   UNL     1      -0.909   4.613  -0.578  1.00  0.00    -0.258 OA
ENDBRANCH   4  16
BRANCH   5  19
ATOM     19  O   UNL     1      -0.071  -0.030  -3.319  1.00  0.00    -0.504 OA
ATOM     20  H   UNL     1       0.723  -0.093  -2.762  1.00  0.00     0.293 HD
ENDBRANCH   5  19
BRANCH   6  21
ATOM     21  O   UNL     1      -0.967   1.358  -1.107  1.00  0.00    -0.500 OA
ATOM     22  H   UNL     1      -0.174   0.815  -0.976  1.00  0.00     0.294 HD
ENDBRANCH   6  21
TORSDOF 5
ENDMDL
MODEL 4
REMARK VINA RESULT:    -4.684      3.659      6.508
REMARK INTER + INTRA:          -6.506
REMARK INTER:                  -5.537
REMARK INTRA:                  -0.970
REMARK UNBOUND:                -0.727
REMARK SMILES Cc1ccc(C(=O)c2cc(O)c(O)c([N+](=O)[O-])c2)cc1
REMARK SMILES IDX 8 1 18 2 9 3 14 4 10 5 12 6 6 7 7 8 5 9 4 10 19 11 3 12
REMARK SMILES IDX 20 13 2 14 1 15 15 16 17 17 16 18 11 19 13 21
REMARK H PARENT 11 20 13 22
ROOT
ATOM      1  C   UNL     1      -3.146   4.530  -7.810  1.00  0.00     0.033 A 
ATOM      2  C   UNL     1      -3.409   5.880  -7.756  1.00  0.00     0.102 A 
ATOM      3  C   UNL     1      -3.725   3.693  -8.734  1.00  0.00     0.063 A 
ATOM      4  C   UNL     1      -4.303   6.422  -8.680  1.00  0.00     0.315 A 
ATOM      5  C   UNL     1      -4.620   4.235  -9.657  1.00  0.00     0.165 A 
ATOM      6  C   UNL     1      -4.908   5.600  -9.631  1.00  0.00     0.237 A 
ENDROOT
BRANCH   1   7
ATOM      7  C   UNL     1      -2.189   3.949  -6.821  1.00  0.00     0.193 C 
ATOM      8  O   UNL     1      -1.238   3.290  -7.268  1.00  0.00    -0.289 OA
BRANCH   7   9
ATOM      9  C   UNL     1      -2.342   4.135  -5.387  1.00  0.00     0.023 A 
ATOM     10  C   UNL     1      -1.269   4.600  -4.625  1.00  0.00     0.012 A 
ATOM     11  C   UNL     1      -3.561   3.848  -4.772  1.00  0.00     0.012 A 
ATOM     12  C   UNL     1      -1.417   4.777  -3.250  1.00  0.00     0.004 A 
ATOM     13  C   UNL     1      -3.708   4.026  -3.396  1.00  0.00     0.004 A 
ATOM     14  C   UNL     1      -2.636   4.491  -2.635  1.00  0.00    -0.051 A 
ATOM     15  C   UNL     1      -2.792   4.679  -1.164  1.00  0.00     0.044 C 
ENDBRANCH   7   9
ENDBRANCH   1   7
BRANCH   4  16
ATOM     16  N   UNL     1      -4.585   7.815  -8.637  1.00  0.00     0.066 N 
ATOM     17  O   UNL     1      -4.537   8.409  -7.533  1.00  0.00    -0.258 OA
ATOM     18  O   UNL     1      -4.872   8.408  -9.703  1.00  0.00    -0.258 OA
ENDBRANCH   4  16
BRANCH   5  19
ATOM     19  O   UNL     1      -5.203   3.420 -10.580  1.00  0.00    -0.504 OA
ATOM     20  H   UNL     1      -6.163   3.569 -10.585  1.00  0.00     0.293 HD
ENDBRANCH   5  19
BRANCH   6  21
ATOM     21  O   UNL     1      -5.784   6.119 -10.540  1.00  0.00    -0.500 OA
ATOM     22  H   UNL     1      -6.515   5.497 -10.679  1.00  0.00     0.294 HD
ENDBRANCH   6  21
TORSDOF 5
ENDMDL
MODEL 5
REMARK VINA RESULT:    -4.683      3.529      7.199
REMARK INTER + INTRA:          -6.505
REMARK INTER:                  -5.533
REMARK INTRA:                  -0.971
REMARK UNBOUND:                -0.727
REMARK SMILES Cc1ccc(C(=O)c2cc(O)c(O)c([N+](=O)[O-])c2)cc1
REMARK SMILES IDX 8 1 18 2 9 3 14 4 10 5 12 6 6 7 7 8 5 9 4 10 19 11 3 12
REMARK SMILES IDX 20 13 2 14 1 15 15 16 17 17 16 18 11 19 13 21
REMARK H PARENT 11 20 13 22
ROOT
ATOM      1  C   UNL     1      -4.292   4.856  -7.014  1.00  0.00     0.033 A 
ATOM      2  C   UNL     1      -4.557   3.920  -7.987  1.00  0.00     0.102 A 
ATOM      3  C   UNL     1      -4.374   6.209  -7.239  1.00  0.00     0.063 A 
ATOM      4  C   UNL     1      -4.928   4.364  -9.256  1.00  0.00     0.315 A 
ATOM      5  C   UNL     1      -4.744   6.654  -8.509  1.00  0.00     0.165 A 
ATOM      6  C   UNL     1      -5.021   5.731  -9.518  1.00  0.00     0.237 A 
ENDROOT
BRANCH   1   7
ATOM      7  C   UNL     1      -3.895   4.380  -5.655  1.00  0.00     0.193 C 
ATOM      8  O   UNL     1      -4.541   4.815  -4.689  1.00  0.00    -0.289 OA
BRANCH   7   9
ATOM      9  C   UNL     1      -2.801   3.446  -5.444  1.00  0.00     0.023 A 
ATOM     10  C   UNL     1      -3.003   2.295  -4.683  1.00  0.00     0.012 A 
ATOM     11  C   UNL     1      -1.549   3.702  -6.002  1.00  0.00     0.012 A 
ATOM     12  C   UNL     1      -1.954   1.399  -4.481  1.00  0.00     0.004 A 
ATOM     13  C   UNL     1      -0.498   2.806  -5.801  1.00  0.00     0.004 A 
ATOM     14  C   UNL     1      -0.700   1.654  -5.040  1.00  0.00    -0.051 A 
ATOM     15  C   UNL     1       0.422   0.697  -4.823  1.00  0.00     0.044 C 
ENDBRANCH   7   9
ENDBRANCH   1   7
BRANCH   4  16
ATOM     16  N   UNL     1      -5.206   3.409 -10.272  1.00  0.00     0.066 N 
ATOM     17  O   UNL     1      -4.599   2.310 -10.254  1.00  0.00    -0.258 OA
ATOM     18  O   UNL     1      -6.049   3.691 -11.155  1.00  0.00    -0.258 OA
ENDBRANCH   4  16
BRANCH   5  19
ATOM     19  O   UNL     1      -4.832   7.992  -8.749  1.00  0.00    -0.504 OA
ATOM     20  H   UNL     1      -5.661   8.185  -9.216  1.00  0.00     0.293 HD
ENDBRANCH   5  19
BRANCH   6  21
ATOM     21  O   UNL     1      -5.382   6.178 -10.756  1.00  0.00    -0.500 OA
ATOM     22  H   UNL     1      -5.804   7.048 -10.678  1.00  0.00     0.294 HD
ENDBRANCH   6  21
TORSDOF 5
ENDMDL
MODEL 6
REMARK VINA RESULT:    -4.682      3.768      7.068
REMARK INTER + INTRA:          -6.504
REMARK INTER:                  -5.538
REMARK INTRA:                  -0.966
REMARK UNBOUND:                -0.727
REMARK SMILES Cc1ccc(C(=O)c2cc(O)c(O)c([N+](=O)[O-])c2)cc1
REMARK SMILES IDX 8 1 18 2 9 3 14 4 10 5 12 6 6 7 7 8 5 9 4 10 19 11 3 12
REMARK SMILES IDX 20 13 2 14 1 15 15 16 17 17 16 18 11 19 13 21
REMARK H PARENT 11 20 13 22
ROOT
ATOM      1  C   UNL     1      -3.216   4.637  -7.774  1.00  0.00     0.033 A 
ATOM      2  C   UNL     1      -3.884   3.846  -8.679  1.00  0.00     0.102 A 
ATOM      3  C   UNL     1      -3.369   6.002  -7.720  1.00  0.00     0.063 A 
ATOM      4  C   UNL     1      -4.757   4.456  -9.581  1.00  0.00     0.315 A 
ATOM      5  C   UNL     1      -4.241   6.612  -8.622  1.00  0.00     0.165 A 
ATOM      6  C   UNL     1      -4.935   5.839  -9.553  1.00  0.00     0.237 A 
ENDROOT
BRANCH   1   7
ATOM      7  C   UNL     1      -2.281   3.984  -6.808  1.00  0.00     0.193 C 
ATOM      8  O   UNL     1      -1.379   3.276  -7.280  1.00  0.00    -0.289 OA
BRANCH   7   9
ATOM      9  C   UNL     1      -2.401   4.156  -5.370  1.00  0.00     0.023 A 
ATOM     10  C   UNL     1      -3.610   3.875  -4.732  1.00  0.00     0.012 A 
ATOM     11  C   UNL     1      -1.308   4.602  -4.627  1.00  0.00     0.012 A 
ATOM     12  C   UNL     1      -3.724   4.040  -3.352  1.00  0.00     0.004 A 
ATOM     13  C   UNL     1      -1.423   4.767  -3.246  1.00  0.00     0.004 A 
ATOM     14  C   UNL     1      -2.631   4.486  -2.608  1.00  0.00    -0.051 A 
ATOM     15  C   UNL     1      -2.755   4.663  -1.133  1.00  0.00     0.044 C 
ENDBRANCH   7   9
ENDBRANCH   1   7
BRANCH   4  16
ATOM     16  N   UNL     1      -5.456   3.651 -10.522  1.00  0.00     0.066 N 
ATOM     17  O   UNL     1      -5.831   4.169 -11.602  1.00  0.00    -0.258 OA
ATOM     18  O   UNL     1      -5.675   2.449 -10.247  1.00  0.00    -0.258 OA
ENDBRANCH   4  16
BRANCH   5  19
ATOM     19  O   UNL     1      -4.405   7.964  -8.582  1.00  0.00    -0.504 OA
ATOM     20  H   UNL     1      -5.350   8.175  -8.504  1.00  0.00     0.293 HD
ENDBRANCH   5  19
BRANCH   6  21
ATOM     21  O   UNL     1      -5.786   6.447 -10.429  1.00  0.00    -0.500 OA
ATOM     22  H   UNL     1      -6.333   5.778 -10.870  1.00  0.00     0.294 HD
ENDBRANCH   6  21
TORSDOF 5
ENDMDL
MODEL 7
REMARK VINA RESULT:    -4.669      3.727      6.809
REMARK INTER + INTRA:          -6.488
REMARK INTER:                  -5.504
REMARK INTRA:                  -0.984
REMARK UNBOUND:                -0.727
REMARK SMILES Cc1ccc(C(=O)c2cc(O)c(O)c([N+](=O)[O-])c2)cc1
REMARK SMILES IDX 8 1 18 2 9 3 14 4 10 5 12 6 6 7 7 8 5 9 4 10 19 11 3 12
REMARK SMILES IDX 20 13 2 14 1 15 15 16 17 17 16 18 11 19 13 21
REMARK H PARENT 11 20 13 22
ROOT
ATOM      1  C   UNL     1      -4.266   4.785  -7.124  1.00  0.00     0.033 A 
ATOM      2  C   UNL     1      -4.300   6.123  -7.439  1.00  0.00     0.102 A 
ATOM      3  C   UNL     1      -4.601   3.798  -8.021  1.00  0.00     0.063 A 
ATOM      4  C   UNL     1      -4.689   6.496  -8.726  1.00  0.00     0.315 A 
ATOM      5  C   UNL     1      -4.991   4.171  -9.308  1.00  0.00     0.165 A 
ATOM      6  C   UNL     1      -5.035   5.521  -9.660  1.00  0.00     0.237 A 
ENDROOT
BRANCH   1   7
ATOM      7  C   UNL     1      -3.849   4.385  -5.746  1.00  0.00     0.193 C 
ATOM      8  O   UNL     1      -4.469   4.887  -4.796  1.00  0.00    -0.289 OA
BRANCH   7   9
ATOM      9  C   UNL     1      -2.765   3.448  -5.501  1.00  0.00     0.023 A 
ATOM     10  C   UNL     1      -1.505   3.679  -6.054  1.00  0.00     0.012 A 
ATOM     11  C   UNL     1      -2.984   2.318  -4.713  1.00  0.00     0.012 A 
ATOM     12  C   UNL     1      -0.465   2.780  -5.818  1.00  0.00     0.004 A 
ATOM     13  C   UNL     1      -1.944   1.419  -4.476  1.00  0.00     0.004 A 
ATOM     14  C   UNL     1      -0.684   1.649  -5.029  1.00  0.00    -0.051 A 
ATOM     15  C   UNL     1       0.428   0.688  -4.779  1.00  0.00     0.044 C 
ENDBRANCH   7   9
ENDBRANCH   1   7
BRANCH   4  16
ATOM     16  N   UNL     1      -4.728   7.876  -9.066  1.00  0.00     0.066 N 
ATOM     17  O   UNL     1      -3.949   8.667  -8.481  1.00  0.00    -0.258 OA
ATOM     18  O   UNL     1      -5.538   8.262  -9.941  1.00  0.00    -0.258 OA
ENDBRANCH   4  16
BRANCH   5  19
ATOM     19  O   UNL     1      -5.326   3.207 -10.211  1.00  0.00    -0.504 OA
ATOM     20  H   UNL     1      -6.259   3.308 -10.464  1.00  0.00     0.293 HD
ENDBRANCH   5  19
BRANCH   6  21
ATOM     21  O   UNL     1      -5.418   5.873 -10.922  1.00  0.00    -0.500 OA
ATOM     22  H   UNL     1      -6.292   5.501 -11.113  1.00  0.00     0.294 HD
ENDBRANCH   6  21
TORSDOF 5
ENDMDL
MODEL 8
REMARK VINA RESULT:    -4.531      8.337     11.784
REMARK INTER + INTRA:          -6.317
REMARK INTER:                  -5.891
REMARK INTRA:                  -0.426
REMARK UNBOUND:                -0.727
REMARK SMILES Cc1ccc(C(=O)c2cc(O)c(O)c([N+](=O)[O-])c2)cc1
REMARK SMILES IDX 8 1 18 2 9 3 14 4 10 5 12 6 6 7 7 8 5 9 4 10 19 11 3 12
REMARK SMILES IDX 20 13 2 14 1 15 15 16 17 17 16 18 11 19 13 21
REMARK H PARENT 11 20 13 22
ROOT
ATOM      1  C   UNL     1      -3.860  11.767 -11.627  1.00  0.00     0.033 A 
ATOM      2  C   UNL     1      -2.868  12.606 -12.078  1.00  0.00     0.102 A 
ATOM      3  C   UNL     1      -4.728  11.115 -12.471  1.00  0.00     0.063 A 
ATOM      4  C   UNL     1      -2.735  12.803 -13.453  1.00  0.00     0.315 A 
ATOM      5  C   UNL     1      -4.596  11.312 -13.846  1.00  0.00     0.165 A 
ATOM      6  C   UNL     1      -3.599  12.156 -14.337  1.00  0.00     0.237 A 
ENDROOT
BRANCH   1   7
ATOM      7  C   UNL     1      -4.002  11.555 -10.155  1.00  0.00     0.193 C 
ATOM      8  O   UNL     1      -3.984  12.563  -9.431  1.00  0.00    -0.289 OA
BRANCH   7   9
ATOM      9  C   UNL     1      -4.158  10.234  -9.568  1.00  0.00     0.023 A 
ATOM     10  C   UNL     1      -5.332   9.511  -9.779  1.00  0.00     0.012 A 
ATOM     11  C   UNL     1      -3.133   9.690  -8.794  1.00  0.00     0.012 A 
ATOM     12  C   UNL     1      -5.480   8.243  -9.216  1.00  0.00     0.004 A 
ATOM     13  C   UNL     1      -3.281   8.422  -8.231  1.00  0.00     0.004 A 
ATOM     14  C   UNL     1      -4.455   7.698  -8.442  1.00  0.00    -0.051 A 
ATOM     15  C   UNL     1      -4.615   6.344  -7.840  1.00  0.00     0.044 C 
ENDBRANCH   7   9
ENDBRANCH   1   7
BRANCH   4  16
ATOM     16  N   UNL     1      -1.714  13.667 -13.934  1.00  0.00     0.066 N 
ATOM     17  O   UNL     1      -0.810  14.035 -13.146  1.00  0.00    -0.258 OA
ATOM     18  O   UNL     1      -1.746  14.034 -15.132  1.00  0.00    -0.258 OA
ENDBRANCH   4  16
BRANCH   5  19
ATOM     19  O   UNL     1      -5.446  10.674 -14.697  1.00  0.00    -0.504 OA
ATOM     20  H   UNL     1      -6.362  10.919 -14.487  1.00  0.00     0.293 HD
ENDBRANCH   5  19
BRANCH   6  21
ATOM     21  O   UNL     1      -3.479  12.341 -15.684  1.00  0.00    -0.500 OA
ATOM     22  H   UNL     1      -3.983  11.658 -16.152  1.00  0.00     0.294 HD
ENDBRANCH   6  21
TORSDOF 5
ENDMDL
