MODEL 1
REMARK VINA RESULT:    -6.997      0.000      0.000
REMARK INTER + INTRA:          -8.798
REMARK INTER:                  -8.225
REMARK INTRA:                  -0.573
REMARK UNBOUND:                -0.573
REMARK SMILES O=C(O)c1cc(-c2ccc(F)cc2F)ccc1O
REMARK SMILES IDX 6 1 5 2 15 3 4 4 17 5 16 6 7 7 13 8 12 9 8 10 10 11 9 12
REMARK SMILES IDX 14 13 11 14 2 15 1 16 3 17 18 19
REMARK H PARENT 3 18 18 20
ROOT
ATOM      1  C   UNL     1      -2.294   3.515  -4.857  1.00  0.00    -0.014 A 
ATOM      2  C   UNL     1      -2.467   4.147  -3.626  1.00  0.00     0.028 A 
ATOM      3  C   UNL     1      -1.481   2.385  -4.953  1.00  0.00     0.013 A 
ATOM      4  C   UNL     1      -1.827   3.650  -2.490  1.00  0.00     0.102 A 
ATOM      5  C   UNL     1      -1.014   2.520  -2.586  1.00  0.00     0.130 A 
ATOM      6  C   UNL     1      -0.841   1.888  -3.818  1.00  0.00     0.048 A 
ENDROOT
BRANCH   1   7
ATOM      7  C   UNL     1      -2.956   4.030  -6.036  1.00  0.00     0.018 A 
ATOM      8  C   UNL     1      -4.301   4.400  -5.979  1.00  0.00     0.133 A 
ATOM      9  C   UNL     1      -4.935   4.896  -7.118  1.00  0.00     0.079 A 
ATOM     10  C   UNL     1      -2.247   4.158  -7.230  1.00  0.00     0.015 A 
ATOM     11  C   UNL     1      -4.227   5.023  -8.312  1.00  0.00     0.126 A 
ATOM     12  C   UNL     1      -2.882   4.655  -8.368  1.00  0.00     0.040 A 
ATOM     13  F   UNL     1      -4.997   4.280  -4.840  1.00  0.00    -0.206 F 
ATOM     14  F   UNL     1      -4.835   5.500  -9.406  1.00  0.00    -0.207 F 
ENDBRANCH   1   7
BRANCH   4  15
ATOM     15  C   UNL     1      -2.021   4.324  -1.214  1.00  0.00     0.339 C 
ATOM     16  O   UNL     1      -1.119   4.737  -0.481  1.00  0.00    -0.246 OA
BRANCH  15  17
ATOM     17  O   UNL     1      -3.337   4.463  -0.896  1.00  0.00    -0.478 OA
ATOM     18  H   UNL     1      -3.465   5.056  -0.127  1.00  0.00     0.297 HD
ENDBRANCH  15  17
ENDBRANCH   4  15
BRANCH   5  19
ATOM     19  O   UNL     1      -0.381   2.019  -1.488  1.00  0.00    -0.507 OA
ATOM     20  H   UNL     1      -1.015   1.496  -0.967  1.00  0.00     0.293 HD
ENDBRANCH   5  19
TORSDOF 4
ENDMDL
MODEL 2
REMARK VINA RESULT:    -6.953      1.710      3.199
REMARK INTER + INTRA:          -8.746
REMARK INTER:                  -8.042
REMARK INTRA:                  -0.704
REMARK UNBOUND:                -0.573
REMARK SMILES O=C(O)c1cc(-c2ccc(F)cc2F)ccc1O
REMARK SMILES IDX 6 1 5 2 15 3 4 4 17 5 16 6 7 7 13 8 12 9 8 10 10 11 9 12
REMARK SMILES IDX 14 13 11 14 2 15 1 16 3 17 18 19
REMARK H PARENT 3 18 18 20
ROOT
ATOM      1  C   UNL     1      -2.168   3.532  -4.972  1.00  0.00    -0.014 A 
ATOM      2  C   UNL     1      -1.442   2.349  -5.104  1.00  0.00     0.028 A 
ATOM      3  C   UNL     1      -2.235   4.175  -3.736  1.00  0.00     0.013 A 
ATOM      4  C   UNL     1      -0.781   1.809  -4.000  1.00  0.00     0.102 A 
ATOM      5  C   UNL     1      -0.848   2.452  -2.765  1.00  0.00     0.130 A 
ATOM      6  C   UNL     1      -1.574   3.636  -2.633  1.00  0.00     0.048 A 
ENDROOT
BRANCH   1   7
ATOM      7  C   UNL     1      -2.855   4.092  -6.116  1.00  0.00     0.018 A 
ATOM      8  C   UNL     1      -2.181   4.254  -7.327  1.00  0.00     0.133 A 
ATOM      9  C   UNL     1      -2.847   4.795  -8.427  1.00  0.00     0.079 A 
ATOM     10  C   UNL     1      -4.194   4.468  -6.006  1.00  0.00     0.015 A 
ATOM     11  C   UNL     1      -4.185   5.172  -8.317  1.00  0.00     0.126 A 
ATOM     12  C   UNL     1      -4.858   5.008  -7.107  1.00  0.00     0.040 A 
ATOM     13  F   UNL     1      -0.894   3.900  -7.448  1.00  0.00    -0.206 F 
ATOM     14  F   UNL     1      -4.825   5.691  -9.373  1.00  0.00    -0.207 F 
ENDBRANCH   1   7
BRANCH   4  15
ATOM     15  C   UNL     1      -0.028   0.572  -4.159  1.00  0.00     0.339 C 
ATOM     16  O   UNL     1      -0.004  -0.358  -3.350  1.00  0.00    -0.246 OA
BRANCH  15  17
ATOM     17  O   UNL     1       0.671   0.538  -5.326  1.00  0.00    -0.478 OA
ATOM     18  H   UNL     1       0.088   0.657  -6.104  1.00  0.00     0.297 HD
ENDBRANCH  15  17
ENDBRANCH   4  15
BRANCH   5  19
ATOM     19  O   UNL     1      -0.209   1.941  -1.674  1.00  0.00    -0.507 OA
ATOM     20  H   UNL     1      -0.496   1.022  -1.540  1.00  0.00     0.293 HD
ENDBRANCH   5  19
TORSDOF 4
ENDMDL
MODEL 3
REMARK VINA RESULT:    -6.928      1.298      2.759
REMARK INTER + INTRA:          -8.716
REMARK INTER:                  -8.021
REMARK INTRA:                  -0.695
REMARK UNBOUND:                -0.573
REMARK SMILES O=C(O)c1cc(-c2ccc(F)cc2F)ccc1O
REMARK SMILES IDX 6 1 5 2 15 3 4 4 17 5 16 6 7 7 13 8 12 9 8 10 10 11 9 12
REMARK SMILES IDX 14 13 11 14 2 15 1 16 3 17 18 19
REMARK H PARENT 3 18 18 20
ROOT
ATOM      1  C   UNL     1      -2.208   3.518  -4.938  1.00  0.00    -0.014 A 
ATOM      2  C   UNL     1      -1.475   2.341  -5.084  1.00  0.00     0.028 A 
ATOM      3  C   UNL     1      -2.264   4.156  -3.698  1.00  0.00     0.013 A 
ATOM      4  C   UNL     1      -0.796   1.801  -3.991  1.00  0.00     0.102 A 
ATOM      5  C   UNL     1      -0.851   2.440  -2.752  1.00  0.00     0.130 A 
ATOM      6  C   UNL     1      -1.585   3.617  -2.606  1.00  0.00     0.048 A 
ENDROOT
BRANCH   1   7
ATOM      7  C   UNL     1      -2.914   4.077  -6.070  1.00  0.00     0.018 A 
ATOM      8  C   UNL     1      -4.256   4.438  -5.950  1.00  0.00     0.133 A 
ATOM      9  C   UNL     1      -4.933   4.977  -7.045  1.00  0.00     0.079 A 
ATOM     10  C   UNL     1      -2.249   4.255  -7.283  1.00  0.00     0.015 A 
ATOM     11  C   UNL     1      -4.268   5.155  -8.258  1.00  0.00     0.126 A 
ATOM     12  C   UNL     1      -2.926   4.794  -8.377  1.00  0.00     0.040 A 
ATOM     13  F   UNL     1      -4.911   4.271  -4.793  1.00  0.00    -0.206 F 
ATOM     14  F   UNL     1      -4.917   5.672  -9.309  1.00  0.00    -0.207 F 
ENDBRANCH   1   7
BRANCH   4  15
ATOM     15  C   UNL     1      -0.035   0.572  -4.164  1.00  0.00     0.339 C 
ATOM     16  O   UNL     1       0.005  -0.363  -3.361  1.00  0.00    -0.246 OA
BRANCH  15  17
ATOM     17  O   UNL     1       0.653   0.549  -5.339  1.00  0.00    -0.478 OA
ATOM     18  H   UNL     1       1.616   0.440  -5.195  1.00  0.00     0.297 HD
ENDBRANCH  15  17
ENDBRANCH   4  15
BRANCH   5  19
ATOM     19  O   UNL     1      -0.194   1.929  -1.672  1.00  0.00    -0.507 OA
ATOM     20  H   UNL     1       0.263   2.652  -1.208  1.00  0.00     0.293 HD
ENDBRANCH   5  19
TORSDOF 4
ENDMDL
MODEL 4
REMARK VINA RESULT:    -6.908      1.165      1.629
REMARK INTER + INTRA:          -8.692
REMARK INTER:                  -7.893
REMARK INTRA:                  -0.799
REMARK UNBOUND:                -0.573
REMARK SMILES O=C(O)c1cc(-c2ccc(F)cc2F)ccc1O
REMARK SMILES IDX 6 1 5 2 15 3 4 4 17 5 16 6 7 7 13 8 12 9 8 10 10 11 9 12
REMARK SMILES IDX 14 13 11 14 2 15 1 16 3 17 18 19
REMARK H PARENT 3 18 18 20
ROOT
ATOM      1  C   UNL     1      -2.405   3.619  -4.833  1.00  0.00    -0.014 A 
ATOM      2  C   UNL     1      -2.465   4.390  -3.673  1.00  0.00     0.028 A 
ATOM      3  C   UNL     1      -1.754   2.386  -4.818  1.00  0.00     0.013 A 
ATOM      4  C   UNL     1      -1.874   3.929  -2.497  1.00  0.00     0.102 A 
ATOM      5  C   UNL     1      -1.223   2.695  -2.481  1.00  0.00     0.130 A 
ATOM      6  C   UNL     1      -1.163   1.923  -3.643  1.00  0.00     0.048 A 
ENDROOT
BRANCH   1   7
ATOM      7  C   UNL     1      -3.017   4.098  -6.054  1.00  0.00     0.018 A 
ATOM      8  C   UNL     1      -2.263   4.196  -7.224  1.00  0.00     0.133 A 
ATOM      9  C   UNL     1      -2.857   4.658  -8.399  1.00  0.00     0.079 A 
ATOM     10  C   UNL     1      -4.364   4.461  -6.059  1.00  0.00     0.015 A 
ATOM     11  C   UNL     1      -4.203   5.022  -8.404  1.00  0.00     0.126 A 
ATOM     12  C   UNL     1      -4.956   4.923  -7.234  1.00  0.00     0.040 A 
ATOM     13  F   UNL     1      -0.967   3.853  -7.235  1.00  0.00    -0.206 F 
ATOM     14  F   UNL     1      -4.774   5.466  -9.531  1.00  0.00    -0.207 F 
ENDBRANCH   1   7
BRANCH   4  15
ATOM     15  C   UNL     1      -1.948   4.749  -1.296  1.00  0.00     0.339 C 
ATOM     16  O   UNL     1      -1.118   4.755  -0.383  1.00  0.00    -0.246 OA
BRANCH  15  17
ATOM     17  O   UNL     1      -3.057   5.537  -1.274  1.00  0.00    -0.478 OA
ATOM     18  H   UNL     1      -2.829   6.489  -1.319  1.00  0.00     0.297 HD
ENDBRANCH  15  17
ENDBRANCH   4  15
BRANCH   5  19
ATOM     19  O   UNL     1      -0.640   2.226  -1.342  1.00  0.00    -0.507 OA
ATOM     20  H   UNL     1      -0.683   2.914  -0.656  1.00  0.00     0.293 HD
ENDBRANCH   5  19
TORSDOF 4
ENDMDL
MODEL 5
REMARK VINA RESULT:    -5.474      4.604      6.938
REMARK INTER + INTRA:          -7.007
REMARK INTER:                  -5.923
REMARK INTRA:                  -1.084
REMARK UNBOUND:                -0.573
REMARK SMILES O=C(O)c1cc(-c2ccc(F)cc2F)ccc1O
REMARK SMILES IDX 6 1 5 2 15 3 4 4 17 5 16 6 7 7 13 8 12 9 8 10 10 11 9 12
REMARK SMILES IDX 14 13 11 14 2 15 1 16 3 17 18 19
REMARK H PARENT 3 18 18 20
ROOT
ATOM      1  C   UNL     1      -3.342   4.390  -7.159  1.00  0.00    -0.014 A 
ATOM      2  C   UNL     1      -3.895   3.612  -8.175  1.00  0.00     0.028 A 
ATOM      3  C   UNL     1      -3.500   5.776  -7.177  1.00  0.00     0.013 A 
ATOM      4  C   UNL     1      -4.608   4.219  -9.210  1.00  0.00     0.102 A 
ATOM      5  C   UNL     1      -4.766   5.604  -9.228  1.00  0.00     0.130 A 
ATOM      6  C   UNL     1      -4.212   6.383  -8.211  1.00  0.00     0.048 A 
ENDROOT
BRANCH   1   7
ATOM      7  C   UNL     1      -2.602   3.761  -6.086  1.00  0.00     0.018 A 
ATOM      8  C   UNL     1      -1.234   3.522  -6.225  1.00  0.00     0.133 A 
ATOM      9  C   UNL     1      -0.525   2.915  -5.188  1.00  0.00     0.079 A 
ATOM     10  C   UNL     1      -3.259   3.395  -4.912  1.00  0.00     0.015 A 
ATOM     11  C   UNL     1      -1.182   2.549  -4.014  1.00  0.00     0.126 A 
ATOM     12  C   UNL     1      -2.549   2.790  -3.876  1.00  0.00     0.040 A 
ATOM     13  F   UNL     1      -0.589   3.865  -7.349  1.00  0.00    -0.206 F 
ATOM     14  F   UNL     1      -0.501   1.966  -3.019  1.00  0.00    -0.207 F 
ENDBRANCH   1   7
BRANCH   4  15
ATOM     15  C   UNL     1      -5.178   3.388 -10.262  1.00  0.00     0.339 C 
ATOM     16  O   UNL     1      -5.886   3.794 -11.186  1.00  0.00    -0.246 OA
BRANCH  15  17
ATOM     17  O   UNL     1      -4.844   2.076 -10.125  1.00  0.00    -0.478 OA
ATOM     18  H   UNL     1      -3.951   1.966  -9.735  1.00  0.00     0.297 HD
ENDBRANCH  15  17
ENDBRANCH   4  15
BRANCH   5  19
ATOM     19  O   UNL     1      -5.459   6.217 -10.230  1.00  0.00    -0.507 OA
ATOM     20  H   UNL     1      -6.369   6.383  -9.930  1.00  0.00     0.293 HD
ENDBRANCH   5  19
TORSDOF 4
ENDMDL
MODEL 6
REMARK VINA RESULT:    -5.470      4.093      6.327
REMARK INTER + INTRA:          -7.003
REMARK INTER:                  -5.923
REMARK INTRA:                  -1.080
REMARK UNBOUND:                -0.573
REMARK SMILES O=C(O)c1cc(-c2ccc(F)cc2F)ccc1O
REMARK SMILES IDX 6 1 5 2 15 3 4 4 17 5 16 6 7 7 13 8 12 9 8 10 10 11 9 12
REMARK SMILES IDX 14 13 11 14 2 15 1 16 3 17 18 19
REMARK H PARENT 3 18 18 20
ROOT
ATOM      1  C   UNL     1      -3.638   4.589  -6.915  1.00  0.00    -0.014 A 
ATOM      2  C   UNL     1      -3.817   5.951  -7.155  1.00  0.00     0.028 A 
ATOM      3  C   UNL     1      -4.046   3.654  -7.867  1.00  0.00     0.013 A 
ATOM      4  C   UNL     1      -4.403   6.379  -8.346  1.00  0.00     0.102 A 
ATOM      5  C   UNL     1      -4.811   5.444  -9.297  1.00  0.00     0.130 A 
ATOM      6  C   UNL     1      -4.632   4.081  -9.057  1.00  0.00     0.048 A 
ENDROOT
BRANCH   1   7
ATOM      7  C   UNL     1      -3.030   4.144  -5.679  1.00  0.00     0.018 A 
ATOM      8  C   UNL     1      -3.816   3.955  -4.541  1.00  0.00     0.133 A 
ATOM      9  C   UNL     1      -3.226   3.526  -3.352  1.00  0.00     0.079 A 
ATOM     10  C   UNL     1      -1.658   3.905  -5.628  1.00  0.00     0.015 A 
ATOM     11  C   UNL     1      -1.853   3.287  -3.300  1.00  0.00     0.126 A 
ATOM     12  C   UNL     1      -1.069   3.476  -4.438  1.00  0.00     0.040 A 
ATOM     13  F   UNL     1      -5.136   4.183  -4.574  1.00  0.00    -0.206 F 
ATOM     14  F   UNL     1      -1.286   2.876  -2.159  1.00  0.00    -0.207 F 
ENDBRANCH   1   7
BRANCH   4  15
ATOM     15  C   UNL     1      -4.581   7.806  -8.578  1.00  0.00     0.339 C 
ATOM     16  O   UNL     1      -4.985   8.314  -9.626  1.00  0.00    -0.246 OA
BRANCH  15  17
ATOM     17  O   UNL     1      -4.249   8.552  -7.489  1.00  0.00    -0.478 OA
ATOM     18  H   UNL     1      -4.177   9.505  -7.709  1.00  0.00     0.297 HD
ENDBRANCH  15  17
ENDBRANCH   4  15
BRANCH   5  19
ATOM     19  O   UNL     1      -5.386   5.841 -10.468  1.00  0.00    -0.507 OA
ATOM     20  H   UNL     1      -5.162   5.200 -11.165  1.00  0.00     0.293 HD
ENDBRANCH   5  19
TORSDOF 4
ENDMDL
MODEL 7
REMARK VINA RESULT:    -4.463     10.564     12.072
REMARK INTER + INTRA:          -5.819
REMARK INTER:                  -4.947
REMARK INTRA:                  -0.873
REMARK UNBOUND:                -0.573
REMARK SMILES O=C(O)c1cc(-c2ccc(F)cc2F)ccc1O
REMARK SMILES IDX 6 1 5 2 15 3 4 4 17 5 16 6 7 7 13 8 12 9 8 10 10 11 9 12
REMARK SMILES IDX 14 13 11 14 2 15 1 16 3 17 18 19
REMARK H PARENT 3 18 18 20
ROOT
ATOM      1  C   UNL     1      -8.865   2.643 -14.074  1.00  0.00    -0.014 A 
ATOM      2  C   UNL     1      -7.690   3.389 -14.148  1.00  0.00     0.028 A 
ATOM      3  C   UNL     1     -10.076   3.273 -13.786  1.00  0.00     0.013 A 
ATOM      4  C   UNL     1      -7.725   4.768 -13.932  1.00  0.00     0.102 A 
ATOM      5  C   UNL     1      -8.935   5.398 -13.644  1.00  0.00     0.130 A 
ATOM      6  C   UNL     1     -10.111   4.650 -13.570  1.00  0.00     0.048 A 
ENDROOT
BRANCH   1   7
ATOM      7  C   UNL     1      -8.830   1.213 -14.297  1.00  0.00     0.018 A 
ATOM      8  C   UNL     1      -8.857   0.335 -13.212  1.00  0.00     0.133 A 
ATOM      9  C   UNL     1      -8.823  -1.043 -13.431  1.00  0.00     0.079 A 
ATOM     10  C   UNL     1      -8.771   0.714 -15.597  1.00  0.00     0.015 A 
ATOM     11  C   UNL     1      -8.763  -1.541 -14.732  1.00  0.00     0.126 A 
ATOM     12  C   UNL     1      -8.738  -0.663 -15.815  1.00  0.00     0.040 A 
ATOM     13  F   UNL     1      -8.911   0.798 -11.956  1.00  0.00    -0.206 F 
ATOM     14  F   UNL     1      -8.730  -2.863 -14.942  1.00  0.00    -0.207 F 
ENDBRANCH   1   7
BRANCH   4  15
ATOM     15  C   UNL     1      -6.486   5.530 -14.014  1.00  0.00     0.339 C 
ATOM     16  O   UNL     1      -5.981   6.171 -13.090  1.00  0.00    -0.246 OA
BRANCH  15  17
ATOM     17  O   UNL     1      -5.918   5.465 -15.249  1.00  0.00    -0.478 OA
ATOM     18  H   UNL     1      -5.229   4.771 -15.297  1.00  0.00     0.297 HD
ENDBRANCH  15  17
ENDBRANCH   4  15
BRANCH   5  19
ATOM     19  O   UNL     1      -8.990   6.743 -13.430  1.00  0.00    -0.507 OA
ATOM     20  H   UNL     1      -8.084   7.095 -13.388  1.00  0.00     0.293 HD
ENDBRANCH   5  19
TORSDOF 4
ENDMDL
MODEL 8
REMARK VINA RESULT:    -4.222      7.958     10.315
REMARK INTER + INTRA:          -5.535
REMARK INTER:                  -4.732
REMARK INTRA:                  -0.803
REMARK UNBOUND:                -0.573
REMARK SMILES O=C(O)c1cc(-c2ccc(F)cc2F)ccc1O
REMARK SMILES IDX 6 1 5 2 15 3 4 4 17 5 16 6 7 7 13 8 12 9 8 10 10 11 9 12
REMARK SMILES IDX 14 13 11 14 2 15 1 16 3 17 18 19
REMARK H PARENT 3 18 18 20
ROOT
ATOM      1  C   UNL     1      -4.067  10.581 -10.073  1.00  0.00    -0.014 A 
ATOM      2  C   UNL     1      -5.150  11.445 -10.232  1.00  0.00     0.028 A 
ATOM      3  C   UNL     1      -2.851  10.865 -10.695  1.00  0.00     0.013 A 
ATOM      4  C   UNL     1      -5.018  12.593 -11.014  1.00  0.00     0.102 A 
ATOM      5  C   UNL     1      -3.802  12.877 -11.636  1.00  0.00     0.130 A 
ATOM      6  C   UNL     1      -2.718  12.012 -11.476  1.00  0.00     0.048 A 
ENDROOT
BRANCH   1   7
ATOM      7  C   UNL     1      -4.204   9.390  -9.263  1.00  0.00     0.018 A 
ATOM      8  C   UNL     1      -5.176   8.439  -9.575  1.00  0.00     0.133 A 
ATOM      9  C   UNL     1      -5.305   7.292  -8.792  1.00  0.00     0.079 A 
ATOM     10  C   UNL     1      -3.360   9.193  -8.170  1.00  0.00     0.015 A 
ATOM     11  C   UNL     1      -4.462   7.095  -7.698  1.00  0.00     0.126 A 
ATOM     12  C   UNL     1      -3.489   8.046  -7.388  1.00  0.00     0.040 A 
ATOM     13  F   UNL     1      -5.997   8.614 -10.621  1.00  0.00    -0.206 F 
ATOM     14  F   UNL     1      -4.585   5.994  -6.946  1.00  0.00    -0.207 F 
ENDBRANCH   1   7
BRANCH   4  15
ATOM     15  C   UNL     1      -6.161  13.483 -11.168  1.00  0.00     0.339 C 
ATOM     16  O   UNL     1      -6.764  14.035 -10.245  1.00  0.00    -0.246 OA
BRANCH  15  17
ATOM     17  O   UNL     1      -6.511  13.655 -12.471  1.00  0.00    -0.478 OA
ATOM     18  H   UNL     1      -7.481  13.584 -12.601  1.00  0.00     0.297 HD
ENDBRANCH  15  17
ENDBRANCH   4  15
BRANCH   5  19
ATOM     19  O   UNL     1      -3.652  13.993 -12.404  1.00  0.00    -0.507 OA
ATOM     20  H   UNL     1      -3.782  13.756 -13.338  1.00  0.00     0.293 HD
ENDBRANCH   5  19
TORSDOF 4
ENDMDL
MODEL 9
REMARK VINA RESULT:    -4.079      5.888      8.145
REMARK INTER + INTRA:          -5.368
REMARK INTER:                  -4.303
REMARK INTRA:                  -1.064
REMARK UNBOUND:                -0.573
REMARK SMILES O=C(O)c1cc(-c2ccc(F)cc2F)ccc1O
REMARK SMILES IDX 6 1 5 2 15 3 4 4 17 5 16 6 7 7 13 8 12 9 8 10 10 11 9 12
REMARK SMILES IDX 14 13 11 14 2 15 1 16 3 17 18 19
REMARK H PARENT 3 18 18 20
ROOT
ATOM      1  C   UNL     1      -4.358   7.656  -8.684  1.00  0.00    -0.014 A 
ATOM      2  C   UNL     1      -5.432   7.752  -9.568  1.00  0.00     0.028 A 
ATOM      3  C   UNL     1      -3.583   8.781  -8.403  1.00  0.00     0.013 A 
ATOM      4  C   UNL     1      -5.732   8.974 -10.172  1.00  0.00     0.102 A 
ATOM      5  C   UNL     1      -4.957  10.099  -9.890  1.00  0.00     0.130 A 
ATOM      6  C   UNL     1      -3.882  10.003  -9.006  1.00  0.00     0.048 A 
ENDROOT
BRANCH   1   7
ATOM      7  C   UNL     1      -4.045   6.389  -8.059  1.00  0.00     0.018 A 
ATOM      8  C   UNL     1      -4.750   5.973  -6.929  1.00  0.00     0.133 A 
ATOM      9  C   UNL     1      -4.445   4.751  -6.329  1.00  0.00     0.079 A 
ATOM     10  C   UNL     1      -3.038   5.583  -8.589  1.00  0.00     0.015 A 
ATOM     11  C   UNL     1      -3.437   3.945  -6.859  1.00  0.00     0.126 A 
ATOM     12  C   UNL     1      -2.734   4.362  -7.990  1.00  0.00     0.040 A 
ATOM     13  F   UNL     1      -5.719   6.737  -6.405  1.00  0.00    -0.206 F 
ATOM     14  F   UNL     1      -3.144   2.772  -6.284  1.00  0.00    -0.207 F 
ENDBRANCH   1   7
BRANCH   4  15
ATOM     15  C   UNL     1      -6.858   9.054 -11.091  1.00  0.00     0.339 C 
ATOM     16  O   UNL     1      -7.101  10.002 -11.842  1.00  0.00    -0.246 OA
BRANCH  15  17
ATOM     17  O   UNL     1      -7.645   7.944 -11.045  1.00  0.00    -0.478 OA
ATOM     18  H   UNL     1      -8.251   7.959 -10.276  1.00  0.00     0.297 HD
ENDBRANCH  15  17
ENDBRANCH   4  15
BRANCH   5  19
ATOM     19  O   UNL     1      -5.234  11.302 -10.469  1.00  0.00    -0.507 OA
ATOM     20  H   UNL     1      -4.493  11.911 -10.304  1.00  0.00     0.293 HD
ENDBRANCH   5  19
TORSDOF 4
ENDMDL
