MODEL 1
REMARK VINA RESULT:    -4.748      0.000      0.000
REMARK INTER + INTRA:          -6.642
REMARK INTER:                  -5.859
REMARK INTRA:                  -0.784
REMARK UNBOUND:                -0.784
REMARK SMILES Cc1ccc(C(=O)c2cc(O)c(O)c([N+](=O)[O-])c2)cc1
REMARK SMILES IDX 8 1 18 2 9 3 14 4 10 5 12 6 6 7 7 8 5 9 4 10 19 11 3 12
REMARK SMILES IDX 20 13 2 14 1 15 15 16 17 17 16 18 11 19 13 21
REMARK H PARENT 11 20 13 22
ROOT
ATOM      1  C   UNL     1       4.148  -4.011   7.590  1.00  0.00     0.033 A 
ATOM      2  C   UNL     1       4.753  -3.079   6.779  1.00  0.00     0.102 A 
ATOM      3  C   UNL     1       2.870  -4.470   7.375  1.00  0.00     0.063 A 
ATOM      4  C   UNL     1       4.040  -2.579   5.690  1.00  0.00     0.315 A 
ATOM      5  C   UNL     1       2.156  -3.969   6.286  1.00  0.00     0.165 A 
ATOM      6  C   UNL     1       2.741  -3.024   5.442  1.00  0.00     0.237 A 
ENDROOT
BRANCH   1   7
ATOM      7  C   UNL     1       4.911  -4.546   8.757  1.00  0.00     0.193 C 
ATOM      8  O   UNL     1       4.710  -5.728   9.075  1.00  0.00    -0.289 OA
BRANCH   7   9
ATOM      9  C   UNL     1       5.858  -3.736   9.507  1.00  0.00     0.023 A 
ATOM     10  C   UNL     1       5.443  -3.061  10.655  1.00  0.00     0.012 A 
ATOM     11  C   UNL     1       7.182  -3.635   9.079  1.00  0.00     0.012 A 
ATOM     12  C   UNL     1       6.352  -2.285  11.374  1.00  0.00     0.004 A 
ATOM     13  C   UNL     1       8.091  -2.859   9.798  1.00  0.00     0.004 A 
ATOM     14  C   UNL     1       7.676  -2.184  10.946  1.00  0.00    -0.051 A 
ATOM     15  C   UNL     1       8.647  -1.353  11.714  1.00  0.00     0.044 C 
ENDBRANCH   7   9
ENDBRANCH   1   7
BRANCH   4  16
ATOM     16  N   UNL     1       4.653  -1.616   4.842  1.00  0.00     0.066 N 
ATOM     17  O   UNL     1       3.930  -0.765   4.269  1.00  0.00    -0.258 OA
ATOM     18  O   UNL     1       5.896  -1.644   4.693  1.00  0.00    -0.258 OA
ENDBRANCH   4  16
BRANCH   5  19
ATOM     19  O   UNL     1       0.888  -4.413   6.056  1.00  0.00    -0.504 OA
ATOM     20  H   UNL     1       0.512  -3.944   5.294  1.00  0.00     0.293 HD
ENDBRANCH   5  19
BRANCH   6  21
ATOM     21  O   UNL     1       2.033  -2.542   4.380  1.00  0.00    -0.500 OA
ATOM     22  H   UNL     1       1.635  -3.280   3.892  1.00  0.00     0.294 HD
ENDBRANCH   6  21
TORSDOF 5
ENDMDL
MODEL 2
REMARK VINA RESULT:    -4.682      2.072      3.552
REMARK INTER + INTRA:          -6.561
REMARK INTER:                  -5.782
REMARK INTRA:                  -0.779
REMARK UNBOUND:                -0.784
REMARK SMILES Cc1ccc(C(=O)c2cc(O)c(O)c([N+](=O)[O-])c2)cc1
REMARK SMILES IDX 8 1 18 2 9 3 14 4 10 5 12 6 6 7 7 8 5 9 4 10 19 11 3 12
REMARK SMILES IDX 20 13 2 14 1 15 15 16 17 17 16 18 11 19 13 21
REMARK H PARENT 11 20 13 22
ROOT
ATOM      1  C   UNL     1       4.532  -2.179   7.591  1.00  0.00     0.033 A 
ATOM      2  C   UNL     1       3.397  -2.936   7.765  1.00  0.00     0.102 A 
ATOM      3  C   UNL     1       4.848  -1.569   6.401  1.00  0.00     0.063 A 
ATOM      4  C   UNL     1       2.527  -3.091   6.685  1.00  0.00     0.315 A 
ATOM      5  C   UNL     1       3.979  -1.724   5.320  1.00  0.00     0.165 A 
ATOM      6  C   UNL     1       2.818  -2.485   5.463  1.00  0.00     0.237 A 
ENDROOT
BRANCH   1   7
ATOM      7  C   UNL     1       5.464  -2.013   8.748  1.00  0.00     0.193 C 
ATOM      8  O   UNL     1       5.986  -0.898   8.903  1.00  0.00    -0.289 OA
BRANCH   7   9
ATOM      9  C   UNL     1       5.764  -3.097   9.669  1.00  0.00     0.023 A 
ATOM     10  C   UNL     1       6.867  -3.921   9.441  1.00  0.00     0.012 A 
ATOM     11  C   UNL     1       4.950  -3.314  10.780  1.00  0.00     0.012 A 
ATOM     12  C   UNL     1       7.155  -4.960  10.325  1.00  0.00     0.004 A 
ATOM     13  C   UNL     1       5.238  -4.354  11.665  1.00  0.00     0.004 A 
ATOM     14  C   UNL     1       6.341  -5.178  11.437  1.00  0.00    -0.051 A 
ATOM     15  C   UNL     1       6.648  -6.290  12.381  1.00  0.00     0.044 C 
ENDBRANCH   7   9
ENDBRANCH   1   7
BRANCH   4  16
ATOM     16  N   UNL     1       1.350  -3.870   6.850  1.00  0.00     0.066 N 
ATOM     17  O   UNL     1       0.622  -3.665   7.851  1.00  0.00    -0.258 OA
ATOM     18  O   UNL     1       1.073  -4.738   5.989  1.00  0.00    -0.258 OA
ENDBRANCH   4  16
BRANCH   5  19
ATOM     19  O   UNL     1       4.275  -1.127   4.132  1.00  0.00    -0.504 OA
ATOM     20  H   UNL     1       4.815  -0.335   4.292  1.00  0.00     0.293 HD
ENDBRANCH   5  19
BRANCH   6  21
ATOM     21  O   UNL     1       1.975  -2.629   4.400  1.00  0.00    -0.500 OA
ATOM     22  H   UNL     1       1.055  -2.575   4.703  1.00  0.00     0.294 HD
ENDBRANCH   6  21
TORSDOF 5
ENDMDL
MODEL 3
REMARK VINA RESULT:    -4.586      8.718     10.718
REMARK INTER + INTRA:          -6.443
REMARK INTER:                  -5.489
REMARK INTRA:                  -0.954
REMARK UNBOUND:                -0.784
REMARK SMILES Cc1ccc(C(=O)c2cc(O)c(O)c([N+](=O)[O-])c2)cc1
REMARK SMILES IDX 8 1 18 2 9 3 14 4 10 5 12 6 6 7 7 8 5 9 4 10 19 11 3 12
REMARK SMILES IDX 20 13 2 14 1 15 15 16 17 17 16 18 11 19 13 21
REMARK H PARENT 11 20 13 22
ROOT
ATOM      1  C   UNL     1       7.969  -6.794  15.066  1.00  0.00     0.033 A 
ATOM      2  C   UNL     1       8.947  -5.832  14.963  1.00  0.00     0.102 A 
ATOM      3  C   UNL     1       7.084  -6.850  16.116  1.00  0.00     0.063 A 
ATOM      4  C   UNL     1       9.045  -4.871  15.969  1.00  0.00     0.315 A 
ATOM      5  C   UNL     1       7.182  -5.889  17.123  1.00  0.00     0.165 A 
ATOM      6  C   UNL     1       8.163  -4.899  17.049  1.00  0.00     0.237 A 
ENDROOT
BRANCH   1   7
ATOM      7  C   UNL     1       7.864  -7.824  13.988  1.00  0.00     0.193 C 
ATOM      8  O   UNL     1       7.016  -7.637  13.103  1.00  0.00    -0.289 OA
BRANCH   7   9
ATOM      9  C   UNL     1       8.710  -9.007  13.955  1.00  0.00     0.023 A 
ATOM     10  C   UNL     1       9.510  -9.261  12.842  1.00  0.00     0.012 A 
ATOM     11  C   UNL     1       8.721  -9.886  15.038  1.00  0.00     0.012 A 
ATOM     12  C   UNL     1      10.321 -10.395  12.811  1.00  0.00     0.004 A 
ATOM     13  C   UNL     1       9.532 -11.021  15.007  1.00  0.00     0.004 A 
ATOM     14  C   UNL     1      10.332 -11.276  13.893  1.00  0.00    -0.051 A 
ATOM     15  C   UNL     1      11.198 -12.489  13.859  1.00  0.00     0.044 C 
ENDBRANCH   7   9
ENDBRANCH   1   7
BRANCH   4  16
ATOM     16  N   UNL     1      10.051  -3.870  15.877  1.00  0.00     0.066 N 
ATOM     17  O   UNL     1      11.157  -4.168  15.365  1.00  0.00    -0.258 OA
ATOM     18  O   UNL     1       9.803  -2.721  16.309  1.00  0.00    -0.258 OA
ENDBRANCH   4  16
BRANCH   5  19
ATOM     19  O   UNL     1       6.313  -5.928  18.171  1.00  0.00    -0.504 OA
ATOM     20  H   UNL     1       5.408  -6.043  17.839  1.00  0.00     0.293 HD
ENDBRANCH   5  19
BRANCH   6  21
ATOM     21  O   UNL     1       8.248  -3.964  18.039  1.00  0.00    -0.500 OA
ATOM     22  H   UNL     1       7.358  -3.679  18.297  1.00  0.00     0.294 HD
ENDBRANCH   6  21
TORSDOF 5
ENDMDL
MODEL 4
REMARK VINA RESULT:    -4.328      8.378     11.460
REMARK INTER + INTRA:          -6.124
REMARK INTER:                  -5.278
REMARK INTRA:                  -0.847
REMARK UNBOUND:                -0.784
REMARK SMILES Cc1ccc(C(=O)c2cc(O)c(O)c([N+](=O)[O-])c2)cc1
REMARK SMILES IDX 8 1 18 2 9 3 14 4 10 5 12 6 6 7 7 8 5 9 4 10 19 11 3 12
REMARK SMILES IDX 20 13 2 14 1 15 15 16 17 17 16 18 11 19 13 21
REMARK H PARENT 11 20 13 22
ROOT
ATOM      1  C   UNL     1      10.806   1.316  15.270  1.00  0.00     0.033 A 
ATOM      2  C   UNL     1      11.629   2.417  15.313  1.00  0.00     0.102 A 
ATOM      3  C   UNL     1       9.673   1.201  16.040  1.00  0.00     0.063 A 
ATOM      4  C   UNL     1      11.300   3.463  16.175  1.00  0.00     0.315 A 
ATOM      5  C   UNL     1       9.344   2.246  16.903  1.00  0.00     0.165 A 
ATOM      6  C   UNL     1      10.157   3.378  16.970  1.00  0.00     0.237 A 
ENDROOT
BRANCH   1   7
ATOM      7  C   UNL     1      11.159   0.196  14.346  1.00  0.00     0.193 C 
ATOM      8  O   UNL     1      12.335  -0.197  14.352  1.00  0.00    -0.289 OA
BRANCH   7   9
ATOM      9  C   UNL     1      10.183  -0.426  13.466  1.00  0.00     0.023 A 
ATOM     10  C   UNL     1       9.321   0.367  12.708  1.00  0.00     0.012 A 
ATOM     11  C   UNL     1      10.108  -1.816  13.380  1.00  0.00     0.012 A 
ATOM     12  C   UNL     1       8.385  -0.230  11.864  1.00  0.00     0.004 A 
ATOM     13  C   UNL     1       9.171  -2.414  12.535  1.00  0.00     0.004 A 
ATOM     14  C   UNL     1       8.310  -1.621  11.777  1.00  0.00    -0.051 A 
ATOM     15  C   UNL     1       7.308  -2.258  10.876  1.00  0.00     0.044 C 
ENDBRANCH   7   9
ENDBRANCH   1   7
BRANCH   4  16
ATOM     16  N   UNL     1      12.141   4.608  16.231  1.00  0.00     0.066 N 
ATOM     17  O   UNL     1      12.590   5.083  15.159  1.00  0.00    -0.258 OA
ATOM     18  O   UNL     1      12.409   5.110  17.347  1.00  0.00    -0.258 OA
ENDBRANCH   4  16
BRANCH   5  19
ATOM     19  O   UNL     1       8.224   2.149  17.673  1.00  0.00    -0.504 OA
ATOM     20  H   UNL     1       7.475   1.864  17.124  1.00  0.00     0.293 HD
ENDBRANCH   5  19
BRANCH   6  21
ATOM     21  O   UNL     1       9.824   4.394  17.818  1.00  0.00    -0.500 OA
ATOM     22  H   UNL     1      10.203   4.226  18.694  1.00  0.00     0.294 HD
ENDBRANCH   6  21
TORSDOF 5
ENDMDL
MODEL 5
REMARK VINA RESULT:    -4.120      9.171     11.338
REMARK INTER + INTRA:          -5.868
REMARK INTER:                  -4.905
REMARK INTRA:                  -0.963
REMARK UNBOUND:                -0.784
REMARK SMILES Cc1ccc(C(=O)c2cc(O)c(O)c([N+](=O)[O-])c2)cc1
REMARK SMILES IDX 8 1 18 2 9 3 14 4 10 5 12 6 6 7 7 8 5 9 4 10 19 11 3 12
REMARK SMILES IDX 20 13 2 14 1 15 15 16 17 17 16 18 11 19 13 21
REMARK H PARENT 11 20 13 22
ROOT
ATOM      1  C   UNL     1      10.073   1.222  14.899  1.00  0.00     0.033 A 
ATOM      2  C   UNL     1      10.950   2.224  14.555  1.00  0.00     0.102 A 
ATOM      3  C   UNL     1       9.322   1.249  16.051  1.00  0.00     0.063 A 
ATOM      4  C   UNL     1      11.082   3.317  15.412  1.00  0.00     0.315 A 
ATOM      5  C   UNL     1       9.455   2.342  16.908  1.00  0.00     0.165 A 
ATOM      6  C   UNL     1      10.335   3.376  16.588  1.00  0.00     0.237 A 
ENDROOT
BRANCH   1   7
ATOM      7  C   UNL     1       9.931   0.051  13.982  1.00  0.00     0.193 C 
ATOM      8  O   UNL     1       9.205   0.193  12.986  1.00  0.00    -0.289 OA
BRANCH   7   9
ATOM      9  C   UNL     1      10.605  -1.215  14.224  1.00  0.00     0.023 A 
ATOM     10  C   UNL     1       9.981  -2.204  14.984  1.00  0.00     0.012 A 
ATOM     11  C   UNL     1      11.875  -1.441  13.694  1.00  0.00     0.012 A 
ATOM     12  C   UNL     1      10.628  -3.418  15.215  1.00  0.00     0.004 A 
ATOM     13  C   UNL     1      12.523  -2.655  13.925  1.00  0.00     0.004 A 
ATOM     14  C   UNL     1      11.899  -3.644  14.686  1.00  0.00    -0.051 A 
ATOM     15  C   UNL     1      12.590  -4.941  14.934  1.00  0.00     0.044 C 
ENDBRANCH   7   9
ENDBRANCH   1   7
BRANCH   4  16
ATOM     16  N   UNL     1      11.984   4.362  15.069  1.00  0.00     0.066 N 
ATOM     17  O   UNL     1      12.589   4.965  15.988  1.00  0.00    -0.258 OA
ATOM     18  O   UNL     1      12.148   4.648  13.860  1.00  0.00    -0.258 OA
ENDBRANCH   4  16
BRANCH   5  19
ATOM     19  O   UNL     1       8.719   2.386  18.053  1.00  0.00    -0.504 OA
ATOM     20  H   UNL     1       8.826   3.255  18.475  1.00  0.00     0.293 HD
ENDBRANCH   5  19
BRANCH   6  21
ATOM     21  O   UNL     1      10.456   4.440  17.434  1.00  0.00    -0.500 OA
ATOM     22  H   UNL     1      10.316   5.265  16.943  1.00  0.00     0.294 HD
ENDBRANCH   6  21
TORSDOF 5
ENDMDL
MODEL 6
REMARK VINA RESULT:    -4.051      7.998      9.958
REMARK INTER + INTRA:          -5.782
REMARK INTER:                  -4.755
REMARK INTRA:                  -1.027
REMARK UNBOUND:                -0.784
REMARK SMILES Cc1ccc(C(=O)c2cc(O)c(O)c([N+](=O)[O-])c2)cc1
REMARK SMILES IDX 8 1 18 2 9 3 14 4 10 5 12 6 6 7 7 8 5 9 4 10 19 11 3 12
REMARK SMILES IDX 20 13 2 14 1 15 15 16 17 17 16 18 11 19 13 21
REMARK H PARENT 11 20 13 22
ROOT
ATOM      1  C   UNL     1      10.783  -2.758  14.768  1.00  0.00     0.033 A 
ATOM      2  C   UNL     1       9.993  -2.211  13.783  1.00  0.00     0.102 A 
ATOM      3  C   UNL     1      11.651  -2.012  15.529  1.00  0.00     0.063 A 
ATOM      4  C   UNL     1      10.077  -0.839  13.546  1.00  0.00     0.315 A 
ATOM      5  C   UNL     1      11.735  -0.639  15.292  1.00  0.00     0.165 A 
ATOM      6  C   UNL     1      10.947  -0.053  14.300  1.00  0.00     0.237 A 
ENDROOT
BRANCH   1   7
ATOM      7  C   UNL     1      10.693  -4.227  15.022  1.00  0.00     0.193 C 
ATOM      8  O   UNL     1      11.643  -4.929  14.641  1.00  0.00    -0.289 OA
BRANCH   7   9
ATOM      9  C   UNL     1       9.552  -4.836  15.685  1.00  0.00     0.023 A 
ATOM     10  C   UNL     1       8.763  -5.765  15.005  1.00  0.00     0.012 A 
ATOM     11  C   UNL     1       9.245  -4.492  17.001  1.00  0.00     0.012 A 
ATOM     12  C   UNL     1       7.669  -6.349  15.642  1.00  0.00     0.004 A 
ATOM     13  C   UNL     1       8.149  -5.076  17.639  1.00  0.00     0.004 A 
ATOM     14  C   UNL     1       7.361  -6.005  16.959  1.00  0.00    -0.051 A 
ATOM     15  C   UNL     1       6.190  -6.629  17.639  1.00  0.00     0.044 C 
ENDBRANCH   7   9
ENDBRANCH   1   7
BRANCH   4  16
ATOM     16  N   UNL     1       9.267  -0.259  12.532  1.00  0.00     0.066 N 
ATOM     17  O   UNL     1       8.963  -0.951  11.530  1.00  0.00    -0.258 OA
ATOM     18  O   UNL     1       8.879   0.925  12.669  1.00  0.00    -0.258 OA
ENDBRANCH   4  16
BRANCH   5  19
ATOM     19  O   UNL     1      12.590   0.117  16.037  1.00  0.00    -0.504 OA
ATOM     20  H   UNL     1      12.668  -0.263  16.928  1.00  0.00     0.293 HD
ENDBRANCH   5  19
BRANCH   6  21
ATOM     21  O   UNL     1      11.038   1.291  14.078  1.00  0.00    -0.500 OA
ATOM     22  H   UNL     1      11.907   1.611  14.368  1.00  0.00     0.294 HD
ENDBRANCH   6  21
TORSDOF 5
ENDMDL
MODEL 7
REMARK VINA RESULT:    -4.006      9.585     11.869
REMARK INTER + INTRA:          -5.726
REMARK INTER:                  -4.775
REMARK INTRA:                  -0.951
REMARK UNBOUND:                -0.784
REMARK SMILES Cc1ccc(C(=O)c2cc(O)c(O)c([N+](=O)[O-])c2)cc1
REMARK SMILES IDX 8 1 18 2 9 3 14 4 10 5 12 6 6 7 7 8 5 9 4 10 19 11 3 12
REMARK SMILES IDX 20 13 2 14 1 15 15 16 17 17 16 18 11 19 13 21
REMARK H PARENT 11 20 13 22
ROOT
ATOM      1  C   UNL     1       9.171  -9.668  14.346  1.00  0.00     0.033 A 
ATOM      2  C   UNL     1       8.433 -10.572  15.075  1.00  0.00     0.102 A 
ATOM      3  C   UNL     1      10.412  -9.959  13.834  1.00  0.00     0.063 A 
ATOM      4  C   UNL     1       8.968 -11.839  15.303  1.00  0.00     0.315 A 
ATOM      5  C   UNL     1      10.948 -11.227  14.062  1.00  0.00     0.165 A 
ATOM      6  C   UNL     1      10.225 -12.168  14.797  1.00  0.00     0.237 A 
ENDROOT
BRANCH   1   7
ATOM      7  C   UNL     1       8.598  -8.310  14.102  1.00  0.00     0.193 C 
ATOM      8  O   UNL     1       7.995  -8.131  13.033  1.00  0.00    -0.289 OA
BRANCH   7   9
ATOM      9  C   UNL     1       8.727  -7.225  15.062  1.00  0.00     0.023 A 
ATOM     10  C   UNL     1       7.623  -6.823  15.814  1.00  0.00     0.012 A 
ATOM     11  C   UNL     1       9.955  -6.586  15.231  1.00  0.00     0.012 A 
ATOM     12  C   UNL     1       7.747  -5.783  16.734  1.00  0.00     0.004 A 
ATOM     13  C   UNL     1      10.080  -5.545  16.152  1.00  0.00     0.004 A 
ATOM     14  C   UNL     1       8.976  -5.143  16.904  1.00  0.00    -0.051 A 
ATOM     15  C   UNL     1       9.108  -4.031  17.887  1.00  0.00     0.044 C 
ENDBRANCH   7   9
ENDBRANCH   1   7
BRANCH   4  16
ATOM     16  N   UNL     1       8.217 -12.785  16.055  1.00  0.00     0.066 N 
ATOM     17  O   UNL     1       8.783 -13.405  16.987  1.00  0.00    -0.258 OA
ATOM     18  O   UNL     1       7.012 -12.970  15.764  1.00  0.00    -0.258 OA
ENDBRANCH   4  16
BRANCH   5  19
ATOM     19  O   UNL     1      12.178 -11.533  13.561  1.00  0.00    -0.504 OA
ATOM     20  H   UNL     1      12.828 -11.551  14.283  1.00  0.00     0.293 HD
ENDBRANCH   5  19
BRANCH   6  21
ATOM     21  O   UNL     1      10.760 -13.404  15.013  1.00  0.00    -0.500 OA
ATOM     22  H   UNL     1      11.719 -13.329  15.135  1.00  0.00     0.294 HD
ENDBRANCH   6  21
TORSDOF 5
ENDMDL
MODEL 8
REMARK VINA RESULT:    -3.946      9.409     11.042
REMARK INTER + INTRA:          -5.653
REMARK INTER:                  -4.709
REMARK INTRA:                  -0.944
REMARK UNBOUND:                -0.784
REMARK SMILES Cc1ccc(C(=O)c2cc(O)c(O)c([N+](=O)[O-])c2)cc1
REMARK SMILES IDX 8 1 18 2 9 3 14 4 10 5 12 6 6 7 7 8 5 9 4 10 19 11 3 12
REMARK SMILES IDX 20 13 2 14 1 15 15 16 17 17 16 18 11 19 13 21
REMARK H PARENT 11 20 13 22
ROOT
ATOM      1  C   UNL     1       8.727  -5.536  16.235  1.00  0.00     0.033 A 
ATOM      2  C   UNL     1       9.712  -5.279  15.310  1.00  0.00     0.102 A 
ATOM      3  C   UNL     1       8.559  -4.786  17.374  1.00  0.00     0.063 A 
ATOM      4  C   UNL     1      10.576  -4.207  15.536  1.00  0.00     0.315 A 
ATOM      5  C   UNL     1       9.424  -3.715  17.601  1.00  0.00     0.165 A 
ATOM      6  C   UNL     1      10.432  -3.425  16.682  1.00  0.00     0.237 A 
ENDROOT
BRANCH   1   7
ATOM      7  C   UNL     1       7.802  -6.684  15.992  1.00  0.00     0.193 C 
ATOM      8  O   UNL     1       6.594  -6.494  16.202  1.00  0.00    -0.289 OA
BRANCH   7   9
ATOM      9  C   UNL     1       8.271  -7.980  15.529  1.00  0.00     0.023 A 
ATOM     10  C   UNL     1       8.967  -8.821  16.397  1.00  0.00     0.012 A 
ATOM     11  C   UNL     1       8.024  -8.383  14.217  1.00  0.00     0.012 A 
ATOM     12  C   UNL     1       9.417 -10.064  15.953  1.00  0.00     0.004 A 
ATOM     13  C   UNL     1       8.474  -9.626  13.771  1.00  0.00     0.004 A 
ATOM     14  C   UNL     1       9.170 -10.467  14.640  1.00  0.00    -0.051 A 
ATOM     15  C   UNL     1       9.652 -11.795  14.165  1.00  0.00     0.044 C 
ENDBRANCH   7   9
ENDBRANCH   1   7
BRANCH   4  16
ATOM     16  N   UNL     1      11.599  -3.928  14.588  1.00  0.00     0.066 N 
ATOM     17  O   UNL     1      12.332  -4.867  14.194  1.00  0.00    -0.258 OA
ATOM     18  O   UNL     1      11.737  -2.754  14.174  1.00  0.00    -0.258 OA
ENDBRANCH   4  16
BRANCH   5  19
ATOM     19  O   UNL     1       9.271  -2.959  18.725  1.00  0.00    -0.504 OA
ATOM     20  H   UNL     1       9.139  -3.540  19.492  1.00  0.00     0.293 HD
ENDBRANCH   5  19
BRANCH   6  21
ATOM     21  O   UNL     1      11.272  -2.375  16.915  1.00  0.00    -0.500 OA
ATOM     22  H   UNL     1      11.613  -2.037  16.072  1.00  0.00     0.294 HD
ENDBRANCH   6  21
TORSDOF 5
ENDMDL
MODEL 9
REMARK VINA RESULT:    -3.844      8.694     10.603
REMARK INTER + INTRA:          -5.527
REMARK INTER:                  -4.676
REMARK INTRA:                  -0.851
REMARK UNBOUND:                -0.784
REMARK SMILES Cc1ccc(C(=O)c2cc(O)c(O)c([N+](=O)[O-])c2)cc1
REMARK SMILES IDX 8 1 18 2 9 3 14 4 10 5 12 6 6 7 7 8 5 9 4 10 19 11 3 12
REMARK SMILES IDX 20 13 2 14 1 15 15 16 17 17 16 18 11 19 13 21
REMARK H PARENT 11 20 13 22
ROOT
ATOM      1  C   UNL     1      10.763  -2.642  14.807  1.00  0.00     0.033 A 
ATOM      2  C   UNL     1      11.477  -1.885  15.706  1.00  0.00     0.102 A 
ATOM      3  C   UNL     1      10.110  -2.099  13.726  1.00  0.00     0.063 A 
ATOM      4  C   UNL     1      11.542  -0.505  15.513  1.00  0.00     0.315 A 
ATOM      5  C   UNL     1      10.175  -0.719  13.533  1.00  0.00     0.165 A 
ATOM      6  C   UNL     1      10.892   0.078  14.426  1.00  0.00     0.237 A 
ENDROOT
BRANCH   1   7
ATOM      7  C   UNL     1      10.693  -4.120  15.014  1.00  0.00     0.193 C 
ATOM      8  O   UNL     1      11.646  -4.798  14.601  1.00  0.00    -0.289 OA
BRANCH   7   9
ATOM      9  C   UNL     1       9.566  -4.763  15.670  1.00  0.00     0.023 A 
ATOM     10  C   UNL     1       8.779  -5.676  14.969  1.00  0.00     0.012 A 
ATOM     11  C   UNL     1       9.273  -4.467  17.001  1.00  0.00     0.012 A 
ATOM     12  C   UNL     1       7.698  -6.293  15.598  1.00  0.00     0.004 A 
ATOM     13  C   UNL     1       8.191  -5.084  17.632  1.00  0.00     0.004 A 
ATOM     14  C   UNL     1       7.404  -5.997  16.930  1.00  0.00    -0.051 A 
ATOM     15  C   UNL     1       6.247  -6.655  17.602  1.00  0.00     0.044 C 
ENDBRANCH   7   9
ENDBRANCH   1   7
BRANCH   4  16
ATOM     16  N   UNL     1      12.277   0.291  16.434  1.00  0.00     0.066 N 
ATOM     17  O   UNL     1      12.590   1.461  16.109  1.00  0.00    -0.258 OA
ATOM     18  O   UNL     1      12.590  -0.200  17.544  1.00  0.00    -0.258 OA
ENDBRANCH   4  16
BRANCH   5  19
ATOM     19  O   UNL     1       9.534  -0.162  12.466  1.00  0.00    -0.504 OA
ATOM     20  H   UNL     1       9.740   0.786  12.422  1.00  0.00     0.293 HD
ENDBRANCH   5  19
BRANCH   6  21
ATOM     21  O   UNL     1      10.948   1.427  14.226  1.00  0.00    -0.500 OA
ATOM     22  H   UNL     1      10.059   1.807  14.310  1.00  0.00     0.294 HD
ENDBRANCH   6  21
TORSDOF 5
ENDMDL
