MODEL 1
REMARK VINA RESULT:    -6.580      0.000      0.000
REMARK INTER + INTRA:          -8.320
REMARK INTER:                  -7.735
REMARK INTRA:                  -0.585
REMARK UNBOUND:                -0.585
REMARK SMILES O=C(O)c1cc(-c2ccc(F)cc2F)ccc1O
REMARK SMILES IDX 6 1 5 2 15 3 4 4 17 5 16 6 7 7 13 8 12 9 8 10 10 11 9 12
REMARK SMILES IDX 14 13 11 14 2 15 1 16 3 17 18 19
REMARK H PARENT 3 18 18 20
ROOT
ATOM      1  C   UNL     1       4.426  -3.190   7.707  1.00  0.00    -0.014 A 
ATOM      2  C   UNL     1       4.887  -2.442   6.625  1.00  0.00     0.028 A 
ATOM      3  C   UNL     1       3.151  -3.754   7.672  1.00  0.00     0.013 A 
ATOM      4  C   UNL     1       4.074  -2.257   5.507  1.00  0.00     0.102 A 
ATOM      5  C   UNL     1       2.799  -2.821   5.471  1.00  0.00     0.130 A 
ATOM      6  C   UNL     1       2.337  -3.570   6.555  1.00  0.00     0.048 A 
ENDROOT
BRANCH   1   7
ATOM      7  C   UNL     1       5.268  -3.381   8.868  1.00  0.00     0.018 A 
ATOM      8  C   UNL     1       6.607  -3.742   8.711  1.00  0.00     0.133 A 
ATOM      9  C   UNL     1       7.416  -3.925   9.833  1.00  0.00     0.079 A 
ATOM     10  C   UNL     1       4.740  -3.202  10.146  1.00  0.00     0.015 A 
ATOM     11  C   UNL     1       6.887  -3.747  11.110  1.00  0.00     0.126 A 
ATOM     12  C   UNL     1       5.549  -3.385  11.267  1.00  0.00     0.040 A 
ATOM     13  F   UNL     1       7.130  -3.920   7.489  1.00  0.00    -0.206 F 
ATOM     14  F   UNL     1       7.663  -3.923  12.188  1.00  0.00    -0.207 F 
ENDBRANCH   1   7
BRANCH   4  15
ATOM     15  C   UNL     1       4.575  -1.472   4.387  1.00  0.00     0.339 C 
ATOM     16  O   UNL     1       4.006  -0.499   3.887  1.00  0.00    -0.246 OA
BRANCH  15  17
ATOM     17  O   UNL     1       5.772  -1.928   3.929  1.00  0.00    -0.478 OA
ATOM     18  H   UNL     1       5.662  -2.559   3.186  1.00  0.00     0.297 HD
ENDBRANCH  15  17
ENDBRANCH   4  15
BRANCH   5  19
ATOM     19  O   UNL     1       1.989  -2.653   4.388  1.00  0.00    -0.507 OA
ATOM     20  H   UNL     1       1.621  -1.752   4.403  1.00  0.00     0.293 HD
ENDBRANCH   5  19
TORSDOF 4
ENDMDL
MODEL 2
REMARK VINA RESULT:    -6.540      1.704      3.192
REMARK INTER + INTRA:          -8.272
REMARK INTER:                  -7.559
REMARK INTRA:                  -0.713
REMARK UNBOUND:                -0.585
REMARK SMILES O=C(O)c1cc(-c2ccc(F)cc2F)ccc1O
REMARK SMILES IDX 6 1 5 2 15 3 4 4 17 5 16 6 7 7 13 8 12 9 8 10 10 11 9 12
REMARK SMILES IDX 14 13 11 14 2 15 1 16 3 17 18 19
REMARK H PARENT 3 18 18 20
ROOT
ATOM      1  C   UNL     1       4.366  -3.140   7.773  1.00  0.00    -0.014 A 
ATOM      2  C   UNL     1       3.140  -3.803   7.778  1.00  0.00     0.028 A 
ATOM      3  C   UNL     1       4.729  -2.353   6.680  1.00  0.00     0.013 A 
ATOM      4  C   UNL     1       2.275  -3.679   6.690  1.00  0.00     0.102 A 
ATOM      5  C   UNL     1       2.637  -2.892   5.597  1.00  0.00     0.130 A 
ATOM      6  C   UNL     1       3.865  -2.229   5.592  1.00  0.00     0.048 A 
ENDROOT
BRANCH   1   7
ATOM      7  C   UNL     1       5.264  -3.269   8.900  1.00  0.00     0.018 A 
ATOM      8  C   UNL     1       4.794  -3.062  10.197  1.00  0.00     0.133 A 
ATOM      9  C   UNL     1       5.664  -3.187  11.281  1.00  0.00     0.079 A 
ATOM     10  C   UNL     1       6.602  -3.601   8.687  1.00  0.00     0.015 A 
ATOM     11  C   UNL     1       7.001  -3.519  11.068  1.00  0.00     0.126 A 
ATOM     12  C   UNL     1       7.470  -3.726   9.771  1.00  0.00     0.040 A 
ATOM     13  F   UNL     1       3.512  -2.739  10.419  1.00  0.00    -0.206 F 
ATOM     14  F   UNL     1       7.836  -3.639  12.108  1.00  0.00    -0.207 F 
ENDBRANCH   1   7
BRANCH   4  15
ATOM     15  C   UNL     1       0.998  -4.379   6.716  1.00  0.00     0.339 C 
ATOM     16  O   UNL     1       0.476  -4.947   5.753  1.00  0.00    -0.246 OA
BRANCH  15  17
ATOM     17  O   UNL     1       0.414  -4.349   7.945  1.00  0.00    -0.478 OA
ATOM     18  H   UNL     1       1.071  -4.193   8.656  1.00  0.00     0.297 HD
ENDBRANCH  15  17
ENDBRANCH   4  15
BRANCH   5  19
ATOM     19  O   UNL     1       1.806  -2.758   4.525  1.00  0.00    -0.507 OA
ATOM     20  H   UNL     1       2.267  -2.262   3.827  1.00  0.00     0.293 HD
ENDBRANCH   5  19
TORSDOF 4
ENDMDL
MODEL 3
REMARK VINA RESULT:    -6.534      1.298      2.754
REMARK INTER + INTRA:          -8.264
REMARK INTER:                  -7.542
REMARK INTRA:                  -0.722
REMARK UNBOUND:                -0.585
REMARK SMILES O=C(O)c1cc(-c2ccc(F)cc2F)ccc1O
REMARK SMILES IDX 6 1 5 2 15 3 4 4 17 5 16 6 7 7 13 8 12 9 8 10 10 11 9 12
REMARK SMILES IDX 14 13 11 14 2 15 1 16 3 17 18 19
REMARK H PARENT 3 18 18 20
ROOT
ATOM      1  C   UNL     1       4.386  -3.152   7.755  1.00  0.00    -0.014 A 
ATOM      2  C   UNL     1       3.156  -3.810   7.765  1.00  0.00     0.028 A 
ATOM      3  C   UNL     1       4.747  -2.366   6.661  1.00  0.00     0.013 A 
ATOM      4  C   UNL     1       2.287  -3.683   6.681  1.00  0.00     0.102 A 
ATOM      5  C   UNL     1       2.649  -2.897   5.587  1.00  0.00     0.130 A 
ATOM      6  C   UNL     1       3.879  -2.238   5.577  1.00  0.00     0.048 A 
ENDROOT
BRANCH   1   7
ATOM      7  C   UNL     1       5.288  -3.285   8.879  1.00  0.00     0.018 A 
ATOM      8  C   UNL     1       6.620  -3.643   8.668  1.00  0.00     0.133 A 
ATOM      9  C   UNL     1       7.487  -3.770   9.755  1.00  0.00     0.079 A 
ATOM     10  C   UNL     1       4.824  -3.052  10.173  1.00  0.00     0.015 A 
ATOM     11  C   UNL     1       7.022  -3.539  11.049  1.00  0.00     0.126 A 
ATOM     12  C   UNL     1       5.690  -3.179  11.258  1.00  0.00     0.040 A 
ATOM     13  F   UNL     1       7.082  -3.872   7.431  1.00  0.00    -0.206 F 
ATOM     14  F   UNL     1       7.853  -3.660  12.092  1.00  0.00    -0.207 F 
ENDBRANCH   1   7
BRANCH   4  15
ATOM     15  C   UNL     1       1.008  -4.378   6.712  1.00  0.00     0.339 C 
ATOM     16  O   UNL     1       0.481  -4.945   5.752  1.00  0.00    -0.246 OA
BRANCH  15  17
ATOM     17  O   UNL     1       0.428  -4.342   7.942  1.00  0.00    -0.478 OA
ATOM     18  H   UNL     1       0.314  -3.424   8.265  1.00  0.00     0.297 HD
ENDBRANCH  15  17
ENDBRANCH   4  15
BRANCH   5  19
ATOM     19  O   UNL     1       1.814  -2.759   4.518  1.00  0.00    -0.507 OA
ATOM     20  H   UNL     1       2.140  -2.038   3.952  1.00  0.00     0.293 HD
ENDBRANCH   5  19
TORSDOF 4
ENDMDL
MODEL 4
REMARK VINA RESULT:    -5.080      9.078     11.574
REMARK INTER + INTRA:          -6.556
REMARK INTER:                  -5.516
REMARK INTRA:                  -1.040
REMARK UNBOUND:                -0.585
REMARK SMILES O=C(O)c1cc(-c2ccc(F)cc2F)ccc1O
REMARK SMILES IDX 6 1 5 2 15 3 4 4 17 5 16 6 7 7 13 8 12 9 8 10 10 11 9 12
REMARK SMILES IDX 14 13 11 14 2 15 1 16 3 17 18 19
REMARK H PARENT 3 18 18 20
ROOT
ATOM      1  C   UNL     1       8.956  -9.648  13.683  1.00  0.00    -0.014 A 
ATOM      2  C   UNL     1       8.440 -10.599  14.562  1.00  0.00     0.028 A 
ATOM      3  C   UNL     1      10.224  -9.825  13.129  1.00  0.00     0.013 A 
ATOM      4  C   UNL     1       9.191 -11.728  14.889  1.00  0.00     0.102 A 
ATOM      5  C   UNL     1      10.460 -11.905  14.336  1.00  0.00     0.130 A 
ATOM      6  C   UNL     1      10.976 -10.953  13.455  1.00  0.00     0.048 A 
ENDROOT
BRANCH   1   7
ATOM      7  C   UNL     1       8.177  -8.476  13.344  1.00  0.00     0.018 A 
ATOM      8  C   UNL     1       8.142  -7.384  14.212  1.00  0.00     0.133 A 
ATOM      9  C   UNL     1       7.390  -6.256  13.882  1.00  0.00     0.079 A 
ATOM     10  C   UNL     1       7.463  -8.439  12.147  1.00  0.00     0.015 A 
ATOM     11  C   UNL     1       6.675  -6.220  12.686  1.00  0.00     0.126 A 
ATOM     12  C   UNL     1       6.712  -7.312  11.818  1.00  0.00     0.040 A 
ATOM     13  F   UNL     1       8.821  -7.404  15.368  1.00  0.00    -0.206 F 
ATOM     14  F   UNL     1       5.953  -5.138  12.368  1.00  0.00    -0.207 F 
ENDBRANCH   1   7
BRANCH   4  15
ATOM     15  C   UNL     1       8.634 -12.709  15.809  1.00  0.00     0.339 C 
ATOM     16  O   UNL     1       9.286 -13.405  16.592  1.00  0.00    -0.246 OA
BRANCH  15  17
ATOM     17  O   UNL     1       7.279 -12.790  15.723  1.00  0.00    -0.478 OA
ATOM     18  H   UNL     1       6.993 -13.531  15.148  1.00  0.00     0.297 HD
ENDBRANCH  15  17
ENDBRANCH   4  15
BRANCH   5  19
ATOM     19  O   UNL     1      11.210 -13.001  14.642  1.00  0.00    -0.507 OA
ATOM     20  H   UNL     1      11.413 -12.991  15.593  1.00  0.00     0.293 HD
ENDBRANCH   5  19
TORSDOF 4
ENDMDL
MODEL 5
REMARK VINA RESULT:    -4.362     10.574     11.567
REMARK INTER + INTRA:          -5.712
REMARK INTER:                  -4.649
REMARK INTRA:                  -1.062
REMARK UNBOUND:                -0.585
REMARK SMILES O=C(O)c1cc(-c2ccc(F)cc2F)ccc1O
REMARK SMILES IDX 6 1 5 2 15 3 4 4 17 5 16 6 7 7 13 8 12 9 8 10 10 11 9 12
REMARK SMILES IDX 14 13 11 14 2 15 1 16 3 17 18 19
REMARK H PARENT 3 18 18 20
ROOT
ATOM      1  C   UNL     1       9.067  -7.745  15.689  1.00  0.00    -0.014 A 
ATOM      2  C   UNL     1       7.828  -7.674  16.323  1.00  0.00     0.028 A 
ATOM      3  C   UNL     1       9.896  -6.624  15.650  1.00  0.00     0.013 A 
ATOM      4  C   UNL     1       7.416  -6.482  16.920  1.00  0.00     0.102 A 
ATOM      5  C   UNL     1       8.244  -5.361  16.881  1.00  0.00     0.130 A 
ATOM      6  C   UNL     1       9.485  -5.432  16.246  1.00  0.00     0.048 A 
ENDROOT
BRANCH   1   7
ATOM      7  C   UNL     1       9.494  -8.981  15.069  1.00  0.00     0.018 A 
ATOM      8  C   UNL     1      10.033 -10.006  15.848  1.00  0.00     0.133 A 
ATOM      9  C   UNL     1      10.443 -11.196  15.247  1.00  0.00     0.079 A 
ATOM     10  C   UNL     1       9.366  -9.147  13.690  1.00  0.00     0.015 A 
ATOM     11  C   UNL     1      10.316 -11.361  13.868  1.00  0.00     0.126 A 
ATOM     12  C   UNL     1       9.776 -10.336  13.090  1.00  0.00     0.040 A 
ATOM     13  F   UNL     1      10.165  -9.861  17.174  1.00  0.00    -0.206 F 
ATOM     14  F   UNL     1      10.710 -12.502  13.290  1.00  0.00    -0.207 F 
ENDBRANCH   1   7
BRANCH   4  15
ATOM     15  C   UNL     1       6.117  -6.429  17.578  1.00  0.00     0.339 C 
ATOM     16  O   UNL     1       5.089  -6.976  17.173  1.00  0.00    -0.246 OA
BRANCH  15  17
ATOM     17  O   UNL     1       6.147  -5.694  18.723  1.00  0.00    -0.478 OA
ATOM     18  H   UNL     1       7.063  -5.550  19.040  1.00  0.00     0.297 HD
ENDBRANCH  15  17
ENDBRANCH   4  15
BRANCH   5  19
ATOM     19  O   UNL     1       7.861  -4.187  17.458  1.00  0.00    -0.507 OA
ATOM     20  H   UNL     1       7.692  -4.338  18.404  1.00  0.00     0.293 HD
ENDBRANCH   5  19
TORSDOF 4
ENDMDL
MODEL 6
REMARK VINA RESULT:    -4.259     10.214     11.055
REMARK INTER + INTRA:          -5.591
REMARK INTER:                  -4.580
REMARK INTRA:                  -1.011
REMARK UNBOUND:                -0.585
REMARK SMILES O=C(O)c1cc(-c2ccc(F)cc2F)ccc1O
REMARK SMILES IDX 6 1 5 2 15 3 4 4 17 5 16 6 7 7 13 8 12 9 8 10 10 11 9 12
REMARK SMILES IDX 14 13 11 14 2 15 1 16 3 17 18 19
REMARK H PARENT 3 18 18 20
ROOT
ATOM      1  C   UNL     1       8.862  -7.581  15.727  1.00  0.00    -0.014 A 
ATOM      2  C   UNL     1       9.571  -6.412  15.455  1.00  0.00     0.028 A 
ATOM      3  C   UNL     1       7.796  -7.557  16.626  1.00  0.00     0.013 A 
ATOM      4  C   UNL     1       9.214  -5.217  16.081  1.00  0.00     0.102 A 
ATOM      5  C   UNL     1       8.147  -5.193  16.980  1.00  0.00     0.130 A 
ATOM      6  C   UNL     1       7.438  -6.363  17.253  1.00  0.00     0.048 A 
ENDROOT
BRANCH   1   7
ATOM      7  C   UNL     1       9.233  -8.821  15.079  1.00  0.00     0.018 A 
ATOM      8  C   UNL     1       9.877  -9.824  15.804  1.00  0.00     0.133 A 
ATOM      9  C   UNL     1      10.233 -11.018  15.175  1.00  0.00     0.079 A 
ATOM     10  C   UNL     1       8.943  -9.011  13.728  1.00  0.00     0.015 A 
ATOM     11  C   UNL     1       9.944 -11.208  13.824  1.00  0.00     0.126 A 
ATOM     12  C   UNL     1       9.299 -10.204  13.101  1.00  0.00     0.040 A 
ATOM     13  F   UNL     1      10.165  -9.656  17.102  1.00  0.00    -0.206 F 
ATOM     14  F   UNL     1      10.286 -12.353  13.220  1.00  0.00    -0.207 F 
ENDBRANCH   1   7
BRANCH   4  15
ATOM     15  C   UNL     1       9.966  -4.006  15.782  1.00  0.00     0.339 C 
ATOM     16  O   UNL     1       9.723  -2.885  16.235  1.00  0.00    -0.246 OA
BRANCH  15  17
ATOM     17  O   UNL     1      11.001  -4.236  14.929  1.00  0.00    -0.478 OA
ATOM     18  H   UNL     1      11.861  -3.973  15.318  1.00  0.00     0.297 HD
ENDBRANCH  15  17
ENDBRANCH   4  15
BRANCH   5  19
ATOM     19  O   UNL     1       7.782  -4.036  17.602  1.00  0.00    -0.507 OA
ATOM     20  H   UNL     1       6.886  -4.141  17.965  1.00  0.00     0.293 HD
ENDBRANCH   5  19
TORSDOF 4
ENDMDL
MODEL 7
REMARK VINA RESULT:    -4.161      4.465      6.789
REMARK INTER + INTRA:          -5.476
REMARK INTER:                  -4.396
REMARK INTRA:                  -1.080
REMARK UNBOUND:                -0.585
REMARK SMILES O=C(O)c1cc(-c2ccc(F)cc2F)ccc1O
REMARK SMILES IDX 6 1 5 2 15 3 4 4 17 5 16 6 7 7 13 8 12 9 8 10 10 11 9 12
REMARK SMILES IDX 14 13 11 14 2 15 1 16 3 17 18 19
REMARK H PARENT 3 18 18 20
ROOT
ATOM      1  C   UNL     1       5.588  -3.567   9.553  1.00  0.00    -0.014 A 
ATOM      2  C   UNL     1       5.648  -4.725  10.327  1.00  0.00     0.028 A 
ATOM      3  C   UNL     1       6.426  -2.491   9.842  1.00  0.00     0.013 A 
ATOM      4  C   UNL     1       6.546  -4.808  11.391  1.00  0.00     0.102 A 
ATOM      5  C   UNL     1       7.384  -3.731  11.681  1.00  0.00     0.130 A 
ATOM      6  C   UNL     1       7.324  -2.572  10.906  1.00  0.00     0.048 A 
ENDROOT
BRANCH   1   7
ATOM      7  C   UNL     1       4.656  -3.481   8.449  1.00  0.00     0.018 A 
ATOM      8  C   UNL     1       3.342  -3.067   8.672  1.00  0.00     0.133 A 
ATOM      9  C   UNL     1       2.447  -2.985   7.605  1.00  0.00     0.079 A 
ATOM     10  C   UNL     1       5.074  -3.811   7.160  1.00  0.00     0.015 A 
ATOM     11  C   UNL     1       2.865  -3.316   6.317  1.00  0.00     0.126 A 
ATOM     12  C   UNL     1       4.179  -3.728   6.094  1.00  0.00     0.040 A 
ATOM     13  F   UNL     1       2.924  -2.749   9.905  1.00  0.00    -0.206 F 
ATOM     14  F   UNL     1       2.006  -3.238   5.292  1.00  0.00    -0.207 F 
ENDBRANCH   1   7
BRANCH   4  15
ATOM     15  C   UNL     1       6.593  -6.026  12.188  1.00  0.00     0.339 C 
ATOM     16  O   UNL     1       7.211  -6.163  13.246  1.00  0.00    -0.246 OA
BRANCH  15  17
ATOM     17  O   UNL     1       5.864  -7.034  11.636  1.00  0.00    -0.478 OA
ATOM     18  H   UNL     1       4.925  -6.780  11.513  1.00  0.00     0.297 HD
ENDBRANCH  15  17
ENDBRANCH   4  15
BRANCH   5  19
ATOM     19  O   UNL     1       8.269  -3.791  12.716  1.00  0.00    -0.507 OA
ATOM     20  H   UNL     1       9.042  -4.315  12.443  1.00  0.00     0.293 HD
ENDBRANCH   5  19
TORSDOF 4
ENDMDL
MODEL 8
REMARK VINA RESULT:    -4.154      3.962      6.175
REMARK INTER + INTRA:          -5.468
REMARK INTER:                  -4.389
REMARK INTRA:                  -1.079
REMARK UNBOUND:                -0.585
REMARK SMILES O=C(O)c1cc(-c2ccc(F)cc2F)ccc1O
REMARK SMILES IDX 6 1 5 2 15 3 4 4 17 5 16 6 7 7 13 8 12 9 8 10 10 11 9 12
REMARK SMILES IDX 14 13 11 14 2 15 1 16 3 17 18 19
REMARK H PARENT 3 18 18 20
ROOT
ATOM      1  C   UNL     1       5.876  -3.254   9.379  1.00  0.00    -0.014 A 
ATOM      2  C   UNL     1       6.757  -2.287   9.861  1.00  0.00     0.028 A 
ATOM      3  C   UNL     1       5.748  -4.474  10.042  1.00  0.00     0.013 A 
ATOM      4  C   UNL     1       7.512  -2.540  11.007  1.00  0.00     0.102 A 
ATOM      5  C   UNL     1       7.384  -3.761  11.670  1.00  0.00     0.130 A 
ATOM      6  C   UNL     1       6.502  -4.728  11.188  1.00  0.00     0.048 A 
ENDROOT
BRANCH   1   7
ATOM      7  C   UNL     1       5.094  -2.993   8.190  1.00  0.00     0.018 A 
ATOM      8  C   UNL     1       5.632  -3.248   6.928  1.00  0.00     0.133 A 
ATOM      9  C   UNL     1       4.875  -2.994   5.784  1.00  0.00     0.079 A 
ATOM     10  C   UNL     1       3.800  -2.487   8.307  1.00  0.00     0.015 A 
ATOM     11  C   UNL     1       3.581  -2.487   5.901  1.00  0.00     0.126 A 
ATOM     12  C   UNL     1       3.044  -2.234   7.163  1.00  0.00     0.040 A 
ATOM     13  F   UNL     1       6.875  -3.732   6.797  1.00  0.00    -0.206 F 
ATOM     14  F   UNL     1       2.854  -2.244   4.804  1.00  0.00    -0.207 F 
ENDBRANCH   1   7
BRANCH   4  15
ATOM     15  C   UNL     1       8.426  -1.517  11.495  1.00  0.00     0.339 C 
ATOM     16  O   UNL     1       9.267  -1.676  12.383  1.00  0.00    -0.246 OA
BRANCH  15  17
ATOM     17  O   UNL     1       8.261  -0.327  10.856  1.00  0.00    -0.478 OA
ATOM     18  H   UNL     1       7.476  -0.334  10.269  1.00  0.00     0.297 HD
ENDBRANCH  15  17
ENDBRANCH   4  15
BRANCH   5  19
ATOM     19  O   UNL     1       8.111  -4.027  12.792  1.00  0.00    -0.507 OA
ATOM     20  H   UNL     1       8.957  -3.549  12.743  1.00  0.00     0.293 HD
ENDBRANCH   5  19
TORSDOF 4
ENDMDL
