MODEL 1
REMARK VINA RESULT:    -6.948      0.000      0.000
REMARK INTER + INTRA:          -8.738
REMARK INTER:                  -8.167
REMARK INTRA:                  -0.571
REMARK UNBOUND:                -0.571
REMARK SMILES O=C(O)c1cc(-c2ccc(F)cc2F)ccc1O
REMARK SMILES IDX 6 1 5 2 15 3 4 4 17 5 16 6 7 7 13 8 12 9 8 10 10 11 9 12
REMARK SMILES IDX 14 13 11 14 2 15 1 16 3 17 18 19
REMARK H PARENT 3 18 18 20
ROOT
ATOM      1  C   UNL     1       3.650  -1.511   7.052  1.00  0.00    -0.014 A 
ATOM      2  C   UNL     1       2.297  -1.288   6.797  1.00  0.00     0.028 A 
ATOM      3  C   UNL     1       4.534  -1.722   5.994  1.00  0.00     0.013 A 
ATOM      4  C   UNL     1       1.827  -1.276   5.483  1.00  0.00     0.102 A 
ATOM      5  C   UNL     1       2.711  -1.487   4.425  1.00  0.00     0.130 A 
ATOM      6  C   UNL     1       4.065  -1.710   4.681  1.00  0.00     0.048 A 
ENDROOT
BRANCH   1   7
ATOM      7  C   UNL     1       4.137  -1.525   8.415  1.00  0.00     0.018 A 
ATOM      8  C   UNL     1       3.719  -0.547   9.318  1.00  0.00     0.133 A 
ATOM      9  C   UNL     1       4.192  -0.564  10.631  1.00  0.00     0.079 A 
ATOM     10  C   UNL     1       5.026  -2.518   8.824  1.00  0.00     0.015 A 
ATOM     11  C   UNL     1       5.081  -1.557  11.039  1.00  0.00     0.126 A 
ATOM     12  C   UNL     1       5.498  -2.535  10.136  1.00  0.00     0.040 A 
ATOM     13  F   UNL     1       2.867   0.417   8.940  1.00  0.00    -0.206 F 
ATOM     14  F   UNL     1       5.535  -1.574  12.299  1.00  0.00    -0.207 F 
ENDBRANCH   1   7
BRANCH   4  15
ATOM     15  C   UNL     1       0.411  -1.041   5.238  1.00  0.00     0.339 C 
ATOM     16  O   UNL     1      -0.325  -1.763   4.562  1.00  0.00    -0.246 OA
BRANCH  15  17
ATOM     17  O   UNL     1      -0.040   0.089   5.848  1.00  0.00    -0.478 OA
ATOM     18  H   UNL     1      -0.923   0.355   5.515  1.00  0.00     0.297 HD
ENDBRANCH  15  17
ENDBRANCH   4  15
BRANCH   5  19
ATOM     19  O   UNL     1       2.273  -1.479   3.135  1.00  0.00    -0.507 OA
ATOM     20  H   UNL     1       1.687  -0.713   3.003  1.00  0.00     0.293 HD
ENDBRANCH   5  19
TORSDOF 4
ENDMDL
MODEL 2
REMARK VINA RESULT:    -6.930      1.130      1.611
REMARK INTER + INTRA:          -8.715
REMARK INTER:                  -8.152
REMARK INTRA:                  -0.563
REMARK UNBOUND:                -0.571
REMARK SMILES O=C(O)c1cc(-c2ccc(F)cc2F)ccc1O
REMARK SMILES IDX 6 1 5 2 15 3 4 4 17 5 16 6 7 7 13 8 12 9 8 10 10 11 9 12
REMARK SMILES IDX 14 13 11 14 2 15 1 16 3 17 18 19
REMARK H PARENT 3 18 18 20
ROOT
ATOM      1  C   UNL     1       3.660  -1.566   7.032  1.00  0.00    -0.014 A 
ATOM      2  C   UNL     1       2.309  -1.326   6.785  1.00  0.00     0.028 A 
ATOM      3  C   UNL     1       4.535  -1.782   5.967  1.00  0.00     0.013 A 
ATOM      4  C   UNL     1       1.832  -1.301   5.474  1.00  0.00     0.102 A 
ATOM      5  C   UNL     1       2.708  -1.517   4.410  1.00  0.00     0.130 A 
ATOM      6  C   UNL     1       4.060  -1.758   4.657  1.00  0.00     0.048 A 
ENDROOT
BRANCH   1   7
ATOM      7  C   UNL     1       4.155  -1.594   8.391  1.00  0.00     0.018 A 
ATOM      8  C   UNL     1       5.022  -2.607   8.801  1.00  0.00     0.133 A 
ATOM      9  C   UNL     1       5.497  -2.630  10.112  1.00  0.00     0.079 A 
ATOM     10  C   UNL     1       3.763  -0.604   9.292  1.00  0.00     0.015 A 
ATOM     11  C   UNL     1       5.105  -1.640  11.014  1.00  0.00     0.126 A 
ATOM     12  C   UNL     1       4.238  -0.627  10.603  1.00  0.00     0.040 A 
ATOM     13  F   UNL     1       5.406  -3.567   7.948  1.00  0.00    -0.206 F 
ATOM     14  F   UNL     1       5.560  -1.661  12.273  1.00  0.00    -0.207 F 
ENDBRANCH   1   7
BRANCH   4  15
ATOM     15  C   UNL     1       0.418  -1.047   5.238  1.00  0.00     0.339 C 
ATOM     16  O   UNL     1      -0.333  -1.761   4.568  1.00  0.00    -0.246 OA
BRANCH  15  17
ATOM     17  O   UNL     1      -0.014   0.091   5.847  1.00  0.00    -0.478 OA
ATOM     18  H   UNL     1      -0.975   0.232   5.716  1.00  0.00     0.297 HD
ENDBRANCH  15  17
ENDBRANCH   4  15
BRANCH   5  19
ATOM     19  O   UNL     1       2.262  -1.496   3.122  1.00  0.00    -0.507 OA
ATOM     20  H   UNL     1       3.007  -1.686   2.525  1.00  0.00     0.293 HD
ENDBRANCH   5  19
TORSDOF 4
ENDMDL
MODEL 3
REMARK VINA RESULT:    -6.926      1.638      3.134
REMARK INTER + INTRA:          -8.711
REMARK INTER:                  -8.144
REMARK INTRA:                  -0.568
REMARK UNBOUND:                -0.571
REMARK SMILES O=C(O)c1cc(-c2ccc(F)cc2F)ccc1O
REMARK SMILES IDX 6 1 5 2 15 3 4 4 17 5 16 6 7 7 13 8 12 9 8 10 10 11 9 12
REMARK SMILES IDX 14 13 11 14 2 15 1 16 3 17 18 19
REMARK H PARENT 3 18 18 20
ROOT
ATOM      1  C   UNL     1       3.610  -1.594   7.067  1.00  0.00    -0.014 A 
ATOM      2  C   UNL     1       4.509  -1.816   6.025  1.00  0.00     0.028 A 
ATOM      3  C   UNL     1       2.260  -1.378   6.790  1.00  0.00     0.013 A 
ATOM      4  C   UNL     1       4.058  -1.823   4.704  1.00  0.00     0.102 A 
ATOM      5  C   UNL     1       2.709  -1.608   4.427  1.00  0.00     0.130 A 
ATOM      6  C   UNL     1       1.809  -1.385   5.470  1.00  0.00     0.048 A 
ENDROOT
BRANCH   1   7
ATOM      7  C   UNL     1       4.076  -1.585   8.437  1.00  0.00     0.018 A 
ATOM      8  C   UNL     1       4.966  -2.565   8.880  1.00  0.00     0.133 A 
ATOM      9  C   UNL     1       5.413  -2.553  10.201  1.00  0.00     0.079 A 
ATOM     10  C   UNL     1       3.635  -0.595   9.314  1.00  0.00     0.015 A 
ATOM     11  C   UNL     1       4.972  -1.563  11.078  1.00  0.00     0.126 A 
ATOM     12  C   UNL     1       4.083  -0.584  10.634  1.00  0.00     0.040 A 
ATOM     13  F   UNL     1       5.398  -3.525   8.050  1.00  0.00    -0.206 F 
ATOM     14  F   UNL     1       5.400  -1.551  12.347  1.00  0.00    -0.207 F 
ENDBRANCH   1   7
BRANCH   4  15
ATOM     15  C   UNL     1       5.013  -2.057   3.630  1.00  0.00     0.339 C 
ATOM     16  O   UNL     1       5.177  -1.328   2.649  1.00  0.00    -0.246 OA
BRANCH  15  17
ATOM     17  O   UNL     1       5.735  -3.196   3.817  1.00  0.00    -0.478 OA
ATOM     18  H   UNL     1       5.290  -3.978   3.425  1.00  0.00     0.297 HD
ENDBRANCH  15  17
ENDBRANCH   4  15
BRANCH   5  19
ATOM     19  O   UNL     1       2.248  -1.611   3.144  1.00  0.00    -0.507 OA
ATOM     20  H   UNL     1       1.482  -2.208   3.083  1.00  0.00     0.293 HD
ENDBRANCH   5  19
TORSDOF 4
ENDMDL
MODEL 4
REMARK VINA RESULT:    -5.975      4.002      6.247
REMARK INTER + INTRA:          -7.594
REMARK INTER:                  -6.528
REMARK INTRA:                  -1.066
REMARK UNBOUND:                -0.571
REMARK SMILES O=C(O)c1cc(-c2ccc(F)cc2F)ccc1O
REMARK SMILES IDX 6 1 5 2 15 3 4 4 17 5 16 6 7 7 13 8 12 9 8 10 10 11 9 12
REMARK SMILES IDX 14 13 11 14 2 15 1 16 3 17 18 19
REMARK H PARENT 3 18 18 20
ROOT
ATOM      1  C   UNL     1       4.253  -1.473   9.475  1.00  0.00    -0.014 A 
ATOM      2  C   UNL     1       3.479  -1.908  10.550  1.00  0.00     0.028 A 
ATOM      3  C   UNL     1       5.574  -1.078   9.682  1.00  0.00     0.013 A 
ATOM      4  C   UNL     1       4.026  -1.949  11.833  1.00  0.00     0.102 A 
ATOM      5  C   UNL     1       5.348  -1.555  12.040  1.00  0.00     0.130 A 
ATOM      6  C   UNL     1       6.122  -1.119  10.964  1.00  0.00     0.048 A 
ENDROOT
BRANCH   1   7
ATOM      7  C   UNL     1       3.685  -1.428   8.145  1.00  0.00     0.018 A 
ATOM      8  C   UNL     1       2.899  -0.344   7.754  1.00  0.00     0.133 A 
ATOM      9  C   UNL     1       2.354  -0.305   6.470  1.00  0.00     0.079 A 
ATOM     10  C   UNL     1       3.926  -2.473   7.252  1.00  0.00     0.015 A 
ATOM     11  C   UNL     1       2.594  -1.350   5.578  1.00  0.00     0.126 A 
ATOM     12  C   UNL     1       3.381  -2.433   5.970  1.00  0.00     0.040 A 
ATOM     13  F   UNL     1       2.656   0.667   8.601  1.00  0.00    -0.206 F 
ATOM     14  F   UNL     1       2.071  -1.313   4.346  1.00  0.00    -0.207 F 
ENDBRANCH   1   7
BRANCH   4  15
ATOM     15  C   UNL     1       3.201  -2.407  12.942  1.00  0.00     0.339 C 
ATOM     16  O   UNL     1       3.551  -2.443  14.124  1.00  0.00    -0.246 OA
BRANCH  15  17
ATOM     17  O   UNL     1       1.964  -2.804  12.538  1.00  0.00    -0.478 OA
ATOM     18  H   UNL     1       1.457  -3.217  13.269  1.00  0.00     0.297 HD
ENDBRANCH  15  17
ENDBRANCH   4  15
BRANCH   5  19
ATOM     19  O   UNL     1       5.901  -1.588  13.285  1.00  0.00    -0.507 OA
ATOM     20  H   UNL     1       6.868  -1.509  13.204  1.00  0.00     0.293 HD
ENDBRANCH   5  19
TORSDOF 4
ENDMDL
MODEL 5
REMARK VINA RESULT:    -5.948      4.321      6.637
REMARK INTER + INTRA:          -7.561
REMARK INTER:                  -6.487
REMARK INTRA:                  -1.074
REMARK UNBOUND:                -0.571
REMARK SMILES O=C(O)c1cc(-c2ccc(F)cc2F)ccc1O
REMARK SMILES IDX 6 1 5 2 15 3 4 4 17 5 16 6 7 7 13 8 12 9 8 10 10 11 9 12
REMARK SMILES IDX 14 13 11 14 2 15 1 16 3 17 18 19
REMARK H PARENT 3 18 18 20
ROOT
ATOM      1  C   UNL     1       4.345  -1.483   9.485  1.00  0.00    -0.014 A 
ATOM      2  C   UNL     1       5.635  -1.006   9.714  1.00  0.00     0.028 A 
ATOM      3  C   UNL     1       3.590  -1.988  10.544  1.00  0.00     0.013 A 
ATOM      4  C   UNL     1       6.171  -1.033  11.002  1.00  0.00     0.102 A 
ATOM      5  C   UNL     1       5.416  -1.538  12.060  1.00  0.00     0.130 A 
ATOM      6  C   UNL     1       4.125  -2.016  11.831  1.00  0.00     0.048 A 
ENDROOT
BRANCH   1   7
ATOM      7  C   UNL     1       3.788  -1.456   8.150  1.00  0.00     0.018 A 
ATOM      8  C   UNL     1       2.974  -0.395   7.751  1.00  0.00     0.133 A 
ATOM      9  C   UNL     1       2.439  -0.373   6.463  1.00  0.00     0.079 A 
ATOM     10  C   UNL     1       4.069  -2.493   7.260  1.00  0.00     0.015 A 
ATOM     11  C   UNL     1       2.719  -1.410   5.574  1.00  0.00     0.126 A 
ATOM     12  C   UNL     1       3.534  -2.470   5.972  1.00  0.00     0.040 A 
ATOM     13  F   UNL     1       2.693   0.608   8.595  1.00  0.00    -0.206 F 
ATOM     14  F   UNL     1       2.206  -1.390   4.337  1.00  0.00    -0.207 F 
ENDBRANCH   1   7
BRANCH   4  15
ATOM     15  C   UNL     1       7.520  -0.530  11.220  1.00  0.00     0.339 C 
ATOM     16  O   UNL     1       8.111  -0.517  12.302  1.00  0.00    -0.246 OA
BRANCH  15  17
ATOM     17  O   UNL     1       8.089  -0.060  10.076  1.00  0.00    -0.478 OA
ATOM     18  H   UNL     1       7.437   0.012   9.347  1.00  0.00     0.297 HD
ENDBRANCH  15  17
ENDBRANCH   4  15
BRANCH   5  19
ATOM     19  O   UNL     1       5.921  -1.574  13.326  1.00  0.00    -0.507 OA
ATOM     20  H   UNL     1       5.258  -1.963  13.922  1.00  0.00     0.293 HD
ENDBRANCH   5  19
TORSDOF 4
ENDMDL
MODEL 6
REMARK VINA RESULT:    -5.529      1.273      1.346
REMARK INTER + INTRA:          -7.069
REMARK INTER:                  -6.537
REMARK INTRA:                  -0.532
REMARK UNBOUND:                -0.571
REMARK SMILES O=C(O)c1cc(-c2ccc(F)cc2F)ccc1O
REMARK SMILES IDX 6 1 5 2 15 3 4 4 17 5 16 6 7 7 13 8 12 9 8 10 10 11 9 12
REMARK SMILES IDX 14 13 11 14 2 15 1 16 3 17 18 19
REMARK H PARENT 3 18 18 20
ROOT
ATOM      1  C   UNL     1       3.828  -1.355   7.705  1.00  0.00    -0.014 A 
ATOM      2  C   UNL     1       2.466  -1.090   7.564  1.00  0.00     0.028 A 
ATOM      3  C   UNL     1       4.615  -1.577   6.575  1.00  0.00     0.013 A 
ATOM      4  C   UNL     1       1.891  -1.047   6.294  1.00  0.00     0.102 A 
ATOM      5  C   UNL     1       2.678  -1.269   5.164  1.00  0.00     0.130 A 
ATOM      6  C   UNL     1       4.041  -1.534   5.305  1.00  0.00     0.048 A 
ENDROOT
BRANCH   1   7
ATOM      7  C   UNL     1       4.425  -1.401   9.022  1.00  0.00     0.018 A 
ATOM      8  C   UNL     1       3.721  -1.956  10.091  1.00  0.00     0.133 A 
ATOM      9  C   UNL     1       4.300  -1.998  11.360  1.00  0.00     0.079 A 
ATOM     10  C   UNL     1       5.707  -0.889   9.222  1.00  0.00     0.015 A 
ATOM     11  C   UNL     1       5.582  -1.486  11.559  1.00  0.00     0.126 A 
ATOM     12  C   UNL     1       6.285  -0.932  10.489  1.00  0.00     0.040 A 
ATOM     13  F   UNL     1       2.487  -2.450   9.917  1.00  0.00    -0.206 F 
ATOM     14  F   UNL     1       6.138  -1.526  12.776  1.00  0.00    -0.207 F 
ENDBRANCH   1   7
BRANCH   4  15
ATOM     15  C   UNL     1       0.467  -0.769   6.169  1.00  0.00     0.339 C 
ATOM     16  O   UNL     1      -0.437  -1.417   6.702  1.00  0.00    -0.246 OA
BRANCH  15  17
ATOM     17  O   UNL     1       0.217   0.312   5.381  1.00  0.00    -0.478 OA
ATOM     18  H   UNL     1      -0.669   0.693   5.554  1.00  0.00     0.297 HD
ENDBRANCH  15  17
ENDBRANCH   4  15
BRANCH   5  19
ATOM     19  O   UNL     1       2.136  -1.231   3.914  1.00  0.00    -0.507 OA
ATOM     20  H   UNL     1       2.812  -1.497   3.267  1.00  0.00     0.293 HD
ENDBRANCH   5  19
TORSDOF 4
ENDMDL
MODEL 7
REMARK VINA RESULT:    -4.734      1.944      3.136
REMARK INTER + INTRA:          -6.135
REMARK INTER:                  -5.233
REMARK INTRA:                  -0.903
REMARK UNBOUND:                -0.571
REMARK SMILES O=C(O)c1cc(-c2ccc(F)cc2F)ccc1O
REMARK SMILES IDX 6 1 5 2 15 3 4 4 17 5 16 6 7 7 13 8 12 9 8 10 10 11 9 12
REMARK SMILES IDX 14 13 11 14 2 15 1 16 3 17 18 19
REMARK H PARENT 3 18 18 20
ROOT
ATOM      1  C   UNL     1       4.011  -1.262   8.182  1.00  0.00    -0.014 A 
ATOM      2  C   UNL     1       4.688  -2.024   7.230  1.00  0.00     0.028 A 
ATOM      3  C   UNL     1       3.005  -0.382   7.783  1.00  0.00     0.013 A 
ATOM      4  C   UNL     1       4.360  -1.906   5.879  1.00  0.00     0.102 A 
ATOM      5  C   UNL     1       3.354  -1.025   5.481  1.00  0.00     0.130 A 
ATOM      6  C   UNL     1       2.677  -0.263   6.433  1.00  0.00     0.048 A 
ENDROOT
BRANCH   1   7
ATOM      7  C   UNL     1       4.352  -1.383   9.583  1.00  0.00     0.018 A 
ATOM      8  C   UNL     1       5.632  -1.046  10.024  1.00  0.00     0.133 A 
ATOM      9  C   UNL     1       5.956  -1.164  11.376  1.00  0.00     0.079 A 
ATOM     10  C   UNL     1       3.397  -1.837  10.493  1.00  0.00     0.015 A 
ATOM     11  C   UNL     1       5.002  -1.619  12.285  1.00  0.00     0.126 A 
ATOM     12  C   UNL     1       3.722  -1.954  11.843  1.00  0.00     0.040 A 
ATOM     13  F   UNL     1       6.562  -0.611   9.162  1.00  0.00    -0.206 F 
ATOM     14  F   UNL     1       5.312  -1.732  13.583  1.00  0.00    -0.207 F 
ENDBRANCH   1   7
BRANCH   4  15
ATOM     15  C   UNL     1       5.079  -2.710   4.901  1.00  0.00     0.339 C 
ATOM     16  O   UNL     1       5.111  -2.498   3.687  1.00  0.00    -0.246 OA
BRANCH  15  17
ATOM     17  O   UNL     1       5.737  -3.756   5.473  1.00  0.00    -0.478 OA
ATOM     18  H   UNL     1       5.140  -4.306   6.021  1.00  0.00     0.297 HD
ENDBRANCH  15  17
ENDBRANCH   4  15
BRANCH   5  19
ATOM     19  O   UNL     1       3.018  -0.896   4.166  1.00  0.00    -0.507 OA
ATOM     20  H   UNL     1       2.050  -0.939   4.080  1.00  0.00     0.293 HD
ENDBRANCH   5  19
TORSDOF 4
ENDMDL
