MODEL 1
REMARK VINA RESULT:    -5.282      0.000      0.000
REMARK INTER + INTRA:          -7.239
REMARK INTER:                  -6.517
REMARK INTRA:                  -0.722
REMARK UNBOUND:                -0.722
REMARK SMILES Cc1ccc(C(=O)c2cc(O)c(O)c([N+](=O)[O-])c2)cc1
REMARK SMILES IDX 8 1 18 2 9 3 14 4 10 5 12 6 6 7 7 8 5 9 4 10 19 11 3 12
REMARK SMILES IDX 20 13 2 14 1 15 15 16 17 17 16 18 11 19 13 21
REMARK H PARENT 11 20 13 22
ROOT
ATOM      1  C   UNL     1       4.258  -1.056   6.671  1.00  0.00     0.033 A 
ATOM      2  C   UNL     1       2.884  -1.000   6.732  1.00  0.00     0.102 A 
ATOM      3  C   UNL     1       4.945  -1.280   5.502  1.00  0.00     0.063 A 
ATOM      4  C   UNL     1       2.157  -1.176   5.555  1.00  0.00     0.315 A 
ATOM      5  C   UNL     1       4.217  -1.457   4.325  1.00  0.00     0.165 A 
ATOM      6  C   UNL     1       2.823  -1.405   4.351  1.00  0.00     0.237 A 
ENDROOT
BRANCH   1   7
ATOM      7  C   UNL     1       5.037  -0.868   7.932  1.00  0.00     0.193 C 
ATOM      8  O   UNL     1       6.167  -0.365   7.833  1.00  0.00    -0.289 OA
BRANCH   7   9
ATOM      9  C   UNL     1       4.515  -1.248   9.235  1.00  0.00     0.023 A 
ATOM     10  C   UNL     1       4.891  -2.462   9.810  1.00  0.00     0.012 A 
ATOM     11  C   UNL     1       3.640  -0.398   9.911  1.00  0.00     0.012 A 
ATOM     12  C   UNL     1       4.391  -2.826  11.060  1.00  0.00     0.004 A 
ATOM     13  C   UNL     1       3.139  -0.762  11.162  1.00  0.00     0.004 A 
ATOM     14  C   UNL     1       3.515  -1.977  11.736  1.00  0.00    -0.051 A 
ATOM     15  C   UNL     1       2.980  -2.367  13.072  1.00  0.00     0.044 C 
ENDBRANCH   7   9
ENDBRANCH   1   7
BRANCH   4  16
ATOM     16  N   UNL     1       0.737  -1.120   5.602  1.00  0.00     0.066 N 
ATOM     17  O   UNL     1       0.188  -0.391   6.462  1.00  0.00    -0.258 OA
ATOM     18  O   UNL     1       0.077  -1.799   4.781  1.00  0.00    -0.258 OA
ENDBRANCH   4  16
BRANCH   5  19
ATOM     19  O   UNL     1       4.881  -1.680   3.156  1.00  0.00    -0.504 OA
ATOM     20  H   UNL     1       4.296  -2.140   2.531  1.00  0.00     0.293 HD
ENDBRANCH   5  19
BRANCH   6  21
ATOM     21  O   UNL     1       2.123  -1.579   3.193  1.00  0.00    -0.500 OA
ATOM     22  H   UNL     1       2.233  -2.490   2.879  1.00  0.00     0.294 HD
ENDBRANCH   6  21
TORSDOF 5
ENDMDL
MODEL 2
REMARK VINA RESULT:    -5.276      2.006      3.571
REMARK INTER + INTRA:          -7.231
REMARK INTER:                  -6.505
REMARK INTRA:                  -0.727
REMARK UNBOUND:                -0.722
REMARK SMILES Cc1ccc(C(=O)c2cc(O)c(O)c([N+](=O)[O-])c2)cc1
REMARK SMILES IDX 8 1 18 2 9 3 14 4 10 5 12 6 6 7 7 8 5 9 4 10 19 11 3 12
REMARK SMILES IDX 20 13 2 14 1 15 15 16 17 17 16 18 11 19 13 21
REMARK H PARENT 11 20 13 22
ROOT
ATOM      1  C   UNL     1       2.899  -2.062   7.134  1.00  0.00     0.033 A 
ATOM      2  C   UNL     1       4.010  -2.116   6.325  1.00  0.00     0.102 A 
ATOM      3  C   UNL     1       1.633  -1.833   6.650  1.00  0.00     0.063 A 
ATOM      4  C   UNL     1       3.845  -1.930   4.953  1.00  0.00     0.315 A 
ATOM      5  C   UNL     1       1.468  -1.647   5.277  1.00  0.00     0.165 A 
ATOM      6  C   UNL     1       2.574  -1.696   4.428  1.00  0.00     0.237 A 
ENDROOT
BRANCH   1   7
ATOM      7  C   UNL     1       3.075  -2.260   8.605  1.00  0.00     0.193 C 
ATOM      8  O   UNL     1       2.132  -2.773   9.227  1.00  0.00    -0.289 OA
BRANCH   7   9
ATOM      9  C   UNL     1       4.292  -1.877   9.303  1.00  0.00     0.023 A 
ATOM     10  C   UNL     1       4.351  -0.663   9.987  1.00  0.00     0.012 A 
ATOM     11  C   UNL     1       5.400  -2.724   9.289  1.00  0.00     0.012 A 
ATOM     12  C   UNL     1       5.518  -0.296  10.656  1.00  0.00     0.004 A 
ATOM     13  C   UNL     1       6.568  -2.357   9.959  1.00  0.00     0.004 A 
ATOM     14  C   UNL     1       6.627  -1.143  10.643  1.00  0.00    -0.051 A 
ATOM     15  C   UNL     1       7.874  -0.749  11.357  1.00  0.00     0.044 C 
ENDBRANCH   7   9
ENDBRANCH   1   7
BRANCH   4  16
ATOM     16  N   UNL     1       4.984  -1.983   4.104  1.00  0.00     0.066 N 
ATOM     17  O   UNL     1       4.993  -1.291   3.057  1.00  0.00    -0.258 OA
ATOM     18  O   UNL     1       5.946  -2.719   4.426  1.00  0.00    -0.258 OA
ENDBRANCH   4  16
BRANCH   5  19
ATOM     19  O   UNL     1       0.220  -1.419   4.778  1.00  0.00    -0.504 OA
ATOM     20  H   UNL     1      -0.434  -1.494   5.492  1.00  0.00     0.293 HD
ENDBRANCH   5  19
BRANCH   6  21
ATOM     21  O   UNL     1       2.400  -1.513   3.087  1.00  0.00    -0.500 OA
ATOM     22  H   UNL     1       2.035  -2.321   2.692  1.00  0.00     0.294 HD
ENDBRANCH   6  21
TORSDOF 5
ENDMDL
MODEL 3
REMARK VINA RESULT:    -4.955      3.613      6.454
REMARK INTER + INTRA:          -6.835
REMARK INTER:                  -5.896
REMARK INTRA:                  -0.939
REMARK UNBOUND:                -0.722
REMARK SMILES Cc1ccc(C(=O)c2cc(O)c(O)c([N+](=O)[O-])c2)cc1
REMARK SMILES IDX 8 1 18 2 9 3 14 4 10 5 12 6 6 7 7 8 5 9 4 10 19 11 3 12
REMARK SMILES IDX 20 13 2 14 1 15 15 16 17 17 16 18 11 19 13 21
REMARK H PARENT 11 20 13 22
ROOT
ATOM      1  C   UNL     1       4.974  -2.040   9.876  1.00  0.00     0.033 A 
ATOM      2  C   UNL     1       3.963  -2.370  10.749  1.00  0.00     0.102 A 
ATOM      3  C   UNL     1       6.174  -1.513  10.289  1.00  0.00     0.063 A 
ATOM      4  C   UNL     1       4.166  -2.160  12.113  1.00  0.00     0.315 A 
ATOM      5  C   UNL     1       6.377  -1.302  11.653  1.00  0.00     0.165 A 
ATOM      6  C   UNL     1       5.372  -1.627  12.566  1.00  0.00     0.237 A 
ENDROOT
BRANCH   1   7
ATOM      7  C   UNL     1       4.757  -2.264   8.415  1.00  0.00     0.193 C 
ATOM      8  O   UNL     1       5.656  -2.847   7.789  1.00  0.00    -0.289 OA
BRANCH   7   9
ATOM      9  C   UNL     1       3.551  -1.828   7.729  1.00  0.00     0.023 A 
ATOM     10  C   UNL     1       2.808  -2.739   6.977  1.00  0.00     0.012 A 
ATOM     11  C   UNL     1       3.136  -0.500   7.824  1.00  0.00     0.012 A 
ATOM     12  C   UNL     1       1.651  -2.320   6.320  1.00  0.00     0.004 A 
ATOM     13  C   UNL     1       1.979  -0.081   7.167  1.00  0.00     0.004 A 
ATOM     14  C   UNL     1       1.236  -0.991   6.415  1.00  0.00    -0.051 A 
ATOM     15  C   UNL     1       0.000  -0.544   5.712  1.00  0.00     0.044 C 
ENDBRANCH   7   9
ENDBRANCH   1   7
BRANCH   4  16
ATOM     16  N   UNL     1       3.130  -2.496  13.028  1.00  0.00     0.066 N 
ATOM     17  O   UNL     1       3.441  -2.859  14.188  1.00  0.00    -0.258 OA
ATOM     18  O   UNL     1       1.938  -2.420  12.649  1.00  0.00    -0.258 OA
ENDBRANCH   4  16
BRANCH   5  19
ATOM     19  O   UNL     1       7.561  -0.781  12.081  1.00  0.00    -0.504 OA
ATOM     20  H   UNL     1       7.596   0.166  11.865  1.00  0.00     0.293 HD
ENDBRANCH   5  19
BRANCH   6  21
ATOM     21  O   UNL     1       5.582  -1.417  13.898  1.00  0.00    -0.500 OA
ATOM     22  H   UNL     1       5.627  -0.465  14.075  1.00  0.00     0.294 HD
ENDBRANCH   6  21
TORSDOF 5
ENDMDL
MODEL 4
REMARK VINA RESULT:    -4.943      3.467      7.169
REMARK INTER + INTRA:          -6.821
REMARK INTER:                  -5.883
REMARK INTRA:                  -0.938
REMARK UNBOUND:                -0.722
REMARK SMILES Cc1ccc(C(=O)c2cc(O)c(O)c([N+](=O)[O-])c2)cc1
REMARK SMILES IDX 8 1 18 2 9 3 14 4 10 5 12 6 6 7 7 8 5 9 4 10 19 11 3 12
REMARK SMILES IDX 20 13 2 14 1 15 15 16 17 17 16 18 11 19 13 21
REMARK H PARENT 11 20 13 22
ROOT
ATOM      1  C   UNL     1       4.331  -1.091  10.112  1.00  0.00     0.033 A 
ATOM      2  C   UNL     1       5.667  -0.764  10.165  1.00  0.00     0.102 A 
ATOM      3  C   UNL     1       3.649  -1.619  11.183  1.00  0.00     0.063 A 
ATOM      4  C   UNL     1       6.358  -0.977  11.358  1.00  0.00     0.315 A 
ATOM      5  C   UNL     1       4.341  -1.833  12.375  1.00  0.00     0.165 A 
ATOM      6  C   UNL     1       5.696  -1.511  12.463  1.00  0.00     0.237 A 
ENDROOT
BRANCH   1   7
ATOM      7  C   UNL     1       3.590  -0.863   8.835  1.00  0.00     0.193 C 
ATOM      8  O   UNL     1       2.496  -0.283   8.908  1.00  0.00    -0.289 OA
BRANCH   7   9
ATOM      9  C   UNL     1       4.108  -1.291   7.546  1.00  0.00     0.023 A 
ATOM     10  C   UNL     1       4.486  -2.620   7.353  1.00  0.00     0.012 A 
ATOM     11  C   UNL     1       4.226  -0.374   6.502  1.00  0.00     0.012 A 
ATOM     12  C   UNL     1       4.983  -3.031   6.116  1.00  0.00     0.004 A 
ATOM     13  C   UNL     1       4.723  -0.785   5.264  1.00  0.00     0.004 A 
ATOM     14  C   UNL     1       5.101  -2.114   5.071  1.00  0.00    -0.051 A 
ATOM     15  C   UNL     1       5.633  -2.553   3.750  1.00  0.00     0.044 C 
ENDBRANCH   7   9
ENDBRANCH   1   7
BRANCH   4  16
ATOM     16  N   UNL     1       7.739  -0.643  11.428  1.00  0.00     0.066 N 
ATOM     17  O   UNL     1       8.434  -0.718  10.386  1.00  0.00    -0.258 OA
ATOM     18  O   UNL     1       8.220  -0.285  12.528  1.00  0.00    -0.258 OA
ENDBRANCH   4  16
BRANCH   5  19
ATOM     19  O   UNL     1       3.681  -2.355  13.447  1.00  0.00    -0.504 OA
ATOM     20  H   UNL     1       2.918  -1.795  13.663  1.00  0.00     0.293 HD
ENDBRANCH   5  19
BRANCH   6  21
ATOM     21  O   UNL     1       6.362  -1.724  13.635  1.00  0.00    -0.500 OA
ATOM     22  H   UNL     1       6.493  -0.880  14.093  1.00  0.00     0.294 HD
ENDBRANCH   6  21
TORSDOF 5
ENDMDL
MODEL 5
REMARK VINA RESULT:    -4.847      3.683      6.962
REMARK INTER + INTRA:          -6.702
REMARK INTER:                  -5.729
REMARK INTRA:                  -0.973
REMARK UNBOUND:                -0.722
REMARK SMILES Cc1ccc(C(=O)c2cc(O)c(O)c([N+](=O)[O-])c2)cc1
REMARK SMILES IDX 8 1 18 2 9 3 14 4 10 5 12 6 6 7 7 8 5 9 4 10 19 11 3 12
REMARK SMILES IDX 20 13 2 14 1 15 15 16 17 17 16 18 11 19 13 21
REMARK H PARENT 11 20 13 22
ROOT
ATOM      1  C   UNL     1       5.067  -2.091   9.681  1.00  0.00     0.033 A 
ATOM      2  C   UNL     1       6.234  -1.446  10.020  1.00  0.00     0.102 A 
ATOM      3  C   UNL     1       4.157  -2.527  10.614  1.00  0.00     0.063 A 
ATOM      4  C   UNL     1       6.506  -1.224  11.370  1.00  0.00     0.315 A 
ATOM      5  C   UNL     1       4.429  -2.306  11.965  1.00  0.00     0.165 A 
ATOM      6  C   UNL     1       5.603  -1.654  12.343  1.00  0.00     0.237 A 
ENDROOT
BRANCH   1   7
ATOM      7  C   UNL     1       4.776  -2.329   8.235  1.00  0.00     0.193 C 
ATOM      8  O   UNL     1       5.630  -2.943   7.576  1.00  0.00    -0.289 OA
BRANCH   7   9
ATOM      9  C   UNL     1       3.551  -1.871   7.600  1.00  0.00     0.023 A 
ATOM     10  C   UNL     1       3.144  -0.545   7.745  1.00  0.00     0.012 A 
ATOM     11  C   UNL     1       2.782  -2.758   6.846  1.00  0.00     0.012 A 
ATOM     12  C   UNL     1       1.968  -0.106   7.137  1.00  0.00     0.004 A 
ATOM     13  C   UNL     1       1.606  -2.319   6.237  1.00  0.00     0.004 A 
ATOM     14  C   UNL     1       1.199  -0.993   6.382  1.00  0.00    -0.051 A 
ATOM     15  C   UNL     1      -0.058  -0.523   5.733  1.00  0.00     0.044 C 
ENDBRANCH   7   9
ENDBRANCH   1   7
BRANCH   4  16
ATOM     16  N   UNL     1       7.708  -0.559  11.736  1.00  0.00     0.066 N 
ATOM     17  O   UNL     1       8.198   0.284  10.946  1.00  0.00    -0.258 OA
ATOM     18  O   UNL     1       8.242  -0.833  12.835  1.00  0.00    -0.258 OA
ENDBRANCH   4  16
BRANCH   5  19
ATOM     19  O   UNL     1       3.538  -2.731  12.904  1.00  0.00    -0.504 OA
ATOM     20  H   UNL     1       3.275  -1.982  13.465  1.00  0.00     0.293 HD
ENDBRANCH   5  19
BRANCH   6  21
ATOM     21  O   UNL     1       5.858  -1.443  13.667  1.00  0.00    -0.500 OA
ATOM     22  H   UNL     1       5.746  -2.272  14.156  1.00  0.00     0.294 HD
ENDBRANCH   6  21
TORSDOF 5
ENDMDL
MODEL 6
REMARK VINA RESULT:    -4.843      3.610      6.807
REMARK INTER + INTRA:          -6.697
REMARK INTER:                  -5.723
REMARK INTRA:                  -0.974
REMARK UNBOUND:                -0.722
REMARK SMILES Cc1ccc(C(=O)c2cc(O)c(O)c([N+](=O)[O-])c2)cc1
REMARK SMILES IDX 8 1 18 2 9 3 14 4 10 5 12 6 6 7 7 8 5 9 4 10 19 11 3 12
REMARK SMILES IDX 20 13 2 14 1 15 15 16 17 17 16 18 11 19 13 21
REMARK H PARENT 11 20 13 22
ROOT
ATOM      1  C   UNL     1       4.149  -1.033  10.017  1.00  0.00     0.033 A 
ATOM      2  C   UNL     1       3.445  -1.676  11.008  1.00  0.00     0.102 A 
ATOM      3  C   UNL     1       5.445  -0.604  10.179  1.00  0.00     0.063 A 
ATOM      4  C   UNL     1       4.075  -1.905  12.231  1.00  0.00     0.315 A 
ATOM      5  C   UNL     1       6.075  -0.833  11.403  1.00  0.00     0.165 A 
ATOM      6  C   UNL     1       5.389  -1.484  12.429  1.00  0.00     0.237 A 
ENDROOT
BRANCH   1   7
ATOM      7  C   UNL     1       3.475  -0.787   8.706  1.00  0.00     0.193 C 
ATOM      8  O   UNL     1       2.400  -0.169   8.726  1.00  0.00    -0.289 OA
BRANCH   7   9
ATOM      9  C   UNL     1       4.035  -1.242   7.444  1.00  0.00     0.023 A 
ATOM     10  C   UNL     1       4.166  -0.352   6.377  1.00  0.00     0.012 A 
ATOM     11  C   UNL     1       4.443  -2.568   7.299  1.00  0.00     0.012 A 
ATOM     12  C   UNL     1       4.703  -0.789   5.167  1.00  0.00     0.004 A 
ATOM     13  C   UNL     1       4.981  -3.006   6.088  1.00  0.00     0.004 A 
ATOM     14  C   UNL     1       5.111  -2.116   5.022  1.00  0.00    -0.051 A 
ATOM     15  C   UNL     1       5.684  -2.582   3.727  1.00  0.00     0.044 C 
ENDBRANCH   7   9
ENDBRANCH   1   7
BRANCH   4  16
ATOM     16  N   UNL     1       3.360  -2.570  13.265  1.00  0.00     0.066 N 
ATOM     17  O   UNL     1       2.481  -3.409  12.952  1.00  0.00    -0.258 OA
ATOM     18  O   UNL     1       3.629  -2.299  14.459  1.00  0.00    -0.258 OA
ENDBRANCH   4  16
BRANCH   5  19
ATOM     19  O   UNL     1       7.360  -0.416  11.582  1.00  0.00    -0.504 OA
ATOM     20  H   UNL     1       7.473  -0.094  12.491  1.00  0.00     0.293 HD
ENDBRANCH   5  19
BRANCH   6  21
ATOM     21  O   UNL     1       6.016  -1.703  13.622  1.00  0.00    -0.500 OA
ATOM     22  H   UNL     1       6.411  -0.876  13.939  1.00  0.00     0.294 HD
ENDBRANCH   6  21
TORSDOF 5
ENDMDL
MODEL 7
REMARK VINA RESULT:    -4.800      1.377      1.469
REMARK INTER + INTRA:          -6.645
REMARK INTER:                  -6.483
REMARK INTRA:                  -0.161
REMARK UNBOUND:                -0.722
REMARK SMILES Cc1ccc(C(=O)c2cc(O)c(O)c([N+](=O)[O-])c2)cc1
REMARK SMILES IDX 8 1 18 2 9 3 14 4 10 5 12 6 6 7 7 8 5 9 4 10 19 11 3 12
REMARK SMILES IDX 20 13 2 14 1 15 15 16 17 17 16 18 11 19 13 21
REMARK H PARENT 11 20 13 22
ROOT
ATOM      1  C   UNL     1       4.284  -2.575   6.094  1.00  0.00     0.033 A 
ATOM      2  C   UNL     1       2.922  -2.421   6.209  1.00  0.00     0.102 A 
ATOM      3  C   UNL     1       4.983  -2.217   4.965  1.00  0.00     0.063 A 
ATOM      4  C   UNL     1       2.219  -1.877   5.134  1.00  0.00     0.315 A 
ATOM      5  C   UNL     1       4.280  -1.673   3.890  1.00  0.00     0.165 A 
ATOM      6  C   UNL     1       2.898  -1.502   3.974  1.00  0.00     0.237 A 
ENDROOT
BRANCH   1   7
ATOM      7  C   UNL     1       5.037  -3.159   7.245  1.00  0.00     0.193 C 
ATOM      8  O   UNL     1       5.860  -4.052   6.992  1.00  0.00    -0.289 OA
BRANCH   7   9
ATOM      9  C   UNL     1       4.832  -2.717   8.615  1.00  0.00     0.023 A 
ATOM     10  C   UNL     1       5.687  -3.158   9.625  1.00  0.00     0.012 A 
ATOM     11  C   UNL     1       3.782  -1.851   8.919  1.00  0.00     0.012 A 
ATOM     12  C   UNL     1       5.490  -2.733  10.939  1.00  0.00     0.004 A 
ATOM     13  C   UNL     1       3.585  -1.425  10.233  1.00  0.00     0.004 A 
ATOM     14  C   UNL     1       4.440  -1.866  11.243  1.00  0.00    -0.051 A 
ATOM     15  C   UNL     1       4.230  -1.414  12.648  1.00  0.00     0.044 C 
ENDBRANCH   7   9
ENDBRANCH   1   7
BRANCH   4  16
ATOM     16  N   UNL     1       0.811  -1.711   5.238  1.00  0.00     0.066 N 
ATOM     17  O   UNL     1       0.324  -1.340   6.333  1.00  0.00    -0.258 OA
ATOM     18  O   UNL     1       0.098  -1.939   4.233  1.00  0.00    -0.258 OA
ENDBRANCH   4  16
BRANCH   5  19
ATOM     19  O   UNL     1       4.957  -1.312   2.764  1.00  0.00    -0.504 OA
ATOM     20  H   UNL     1       5.716  -1.904   2.636  1.00  0.00     0.293 HD
ENDBRANCH   5  19
BRANCH   6  21
ATOM     21  O   UNL     1       2.222  -0.969   2.916  1.00  0.00    -0.500 OA
ATOM     22  H   UNL     1       2.500  -0.049   2.782  1.00  0.00     0.294 HD
ENDBRANCH   6  21
TORSDOF 5
ENDMDL
MODEL 8
REMARK VINA RESULT:    -4.400      1.926      2.562
REMARK INTER + INTRA:          -6.151
REMARK INTER:                  -5.476
REMARK INTRA:                  -0.675
REMARK UNBOUND:                -0.722
REMARK SMILES Cc1ccc(C(=O)c2cc(O)c(O)c([N+](=O)[O-])c2)cc1
REMARK SMILES IDX 8 1 18 2 9 3 14 4 10 5 12 6 6 7 7 8 5 9 4 10 19 11 3 12
REMARK SMILES IDX 20 13 2 14 1 15 15 16 17 17 16 18 11 19 13 21
REMARK H PARENT 11 20 13 22
ROOT
ATOM      1  C   UNL     1       3.205  -2.028   7.566  1.00  0.00     0.033 A 
ATOM      2  C   UNL     1       1.969  -1.622   7.118  1.00  0.00     0.102 A 
ATOM      3  C   UNL     1       4.243  -2.332   6.718  1.00  0.00     0.063 A 
ATOM      4  C   UNL     1       1.761  -1.513   5.743  1.00  0.00     0.315 A 
ATOM      5  C   UNL     1       4.035  -2.224   5.343  1.00  0.00     0.165 A 
ATOM      6  C   UNL     1       2.794  -1.814   4.855  1.00  0.00     0.237 A 
ENDROOT
BRANCH   1   7
ATOM      7  C   UNL     1       3.428  -2.145   9.039  1.00  0.00     0.193 C 
ATOM      8  O   UNL     1       2.502  -2.612   9.719  1.00  0.00    -0.289 OA
BRANCH   7   9
ATOM      9  C   UNL     1       4.670  -1.736   9.674  1.00  0.00     0.023 A 
ATOM     10  C   UNL     1       4.772  -0.473  10.258  1.00  0.00     0.012 A 
ATOM     11  C   UNL     1       5.760  -2.606   9.700  1.00  0.00     0.012 A 
ATOM     12  C   UNL     1       5.964  -0.082  10.868  1.00  0.00     0.004 A 
ATOM     13  C   UNL     1       6.952  -2.215  10.310  1.00  0.00     0.004 A 
ATOM     14  C   UNL     1       7.054  -0.952  10.894  1.00  0.00    -0.051 A 
ATOM     15  C   UNL     1       8.328  -0.532  11.545  1.00  0.00     0.044 C 
ENDBRANCH   7   9
ENDBRANCH   1   7
BRANCH   4  16
ATOM     16  N   UNL     1       0.489  -1.094   5.265  1.00  0.00     0.066 N 
ATOM     17  O   UNL     1       0.040   0.018   5.633  1.00  0.00    -0.258 OA
ATOM     18  O   UNL     1      -0.145  -1.847   4.490  1.00  0.00    -0.258 OA
ENDBRANCH   4  16
BRANCH   5  19
ATOM     19  O   UNL     1       5.053  -2.521   4.487  1.00  0.00    -0.504 OA
ATOM     20  H   UNL     1       4.789  -3.256   3.910  1.00  0.00     0.293 HD
ENDBRANCH   5  19
BRANCH   6  21
ATOM     21  O   UNL     1       2.602  -1.711   3.508  1.00  0.00    -0.500 OA
ATOM     22  H   UNL     1       2.747  -2.575   3.091  1.00  0.00     0.294 HD
ENDBRANCH   6  21
TORSDOF 5
ENDMDL
MODEL 9
REMARK VINA RESULT:    -4.357      1.248      2.920
REMARK INTER + INTRA:          -6.098
REMARK INTER:                  -5.426
REMARK INTRA:                  -0.672
REMARK UNBOUND:                -0.722
REMARK SMILES Cc1ccc(C(=O)c2cc(O)c(O)c([N+](=O)[O-])c2)cc1
REMARK SMILES IDX 8 1 18 2 9 3 14 4 10 5 12 6 6 7 7 8 5 9 4 10 19 11 3 12
REMARK SMILES IDX 20 13 2 14 1 15 15 16 17 17 16 18 11 19 13 21
REMARK H PARENT 11 20 13 22
ROOT
ATOM      1  C   UNL     1       4.314  -1.091   7.054  1.00  0.00     0.033 A 
ATOM      2  C   UNL     1       5.031  -1.483   5.948  1.00  0.00     0.102 A 
ATOM      3  C   UNL     1       2.960  -0.855   7.021  1.00  0.00     0.063 A 
ATOM      4  C   UNL     1       4.355  -1.650   4.740  1.00  0.00     0.315 A 
ATOM      5  C   UNL     1       2.283  -1.022   5.812  1.00  0.00     0.165 A 
ATOM      6  C   UNL     1       2.981  -1.420   4.671  1.00  0.00     0.237 A 
ENDROOT
BRANCH   1   7
ATOM      7  C   UNL     1       5.038  -0.911   8.349  1.00  0.00     0.193 C 
ATOM      8  O   UNL     1       6.163  -0.391   8.304  1.00  0.00    -0.289 OA
BRANCH   7   9
ATOM      9  C   UNL     1       4.470  -1.320   9.623  1.00  0.00     0.023 A 
ATOM     10  C   UNL     1       3.607  -0.465  10.309  1.00  0.00     0.012 A 
ATOM     11  C   UNL     1       4.787  -2.568  10.160  1.00  0.00     0.012 A 
ATOM     12  C   UNL     1       3.063  -0.858  11.531  1.00  0.00     0.004 A 
ATOM     13  C   UNL     1       4.243  -2.961  11.383  1.00  0.00     0.004 A 
ATOM     14  C   UNL     1       3.380  -2.106  12.069  1.00  0.00    -0.051 A 
ATOM     15  C   UNL     1       2.798  -2.525  13.376  1.00  0.00     0.044 C 
ENDBRANCH   7   9
ENDBRANCH   1   7
BRANCH   4  16
ATOM     16  N   UNL     1       5.083  -2.056   3.588  1.00  0.00     0.066 N 
ATOM     17  O   UNL     1       5.113  -1.295   2.590  1.00  0.00    -0.258 OA
ATOM     18  O   UNL     1       5.674  -3.161   3.602  1.00  0.00    -0.258 OA
ENDBRANCH   4  16
BRANCH   5  19
ATOM     19  O   UNL     1       0.941  -0.794   5.760  1.00  0.00    -0.504 OA
ATOM     20  H   UNL     1       0.555  -1.292   5.021  1.00  0.00     0.293 HD
ENDBRANCH   5  19
BRANCH   6  21
ATOM     21  O   UNL     1       2.308  -1.581   3.495  1.00  0.00    -0.500 OA
ATOM     22  H   UNL     1       2.910  -1.422   2.751  1.00  0.00     0.294 HD
ENDBRANCH   6  21
TORSDOF 5
ENDMDL
