MODEL 1
REMARK VINA RESULT:    -6.904      0.000      0.000
REMARK INTER + INTRA:          -8.691
REMARK INTER:                  -8.114
REMARK INTRA:                  -0.576
REMARK UNBOUND:                -0.576
REMARK SMILES O=C(O)c1cc(-c2ccc(F)cc2F)ccc1O
REMARK SMILES IDX 6 1 5 2 15 3 4 4 17 5 16 6 7 7 13 8 12 9 8 10 10 11 9 12
REMARK SMILES IDX 14 13 11 14 2 15 1 16 3 17 18 19
REMARK H PARENT 3 18 18 20
ROOT
ATOM      1  C   UNL     1      -7.044   2.309  -1.473  1.00  0.00    -0.014 A 
ATOM      2  C   UNL     1      -6.379   1.576  -2.456  1.00  0.00     0.028 A 
ATOM      3  C   UNL     1      -6.384   2.650  -0.292  1.00  0.00     0.013 A 
ATOM      4  C   UNL     1      -5.055   1.185  -2.259  1.00  0.00     0.102 A 
ATOM      5  C   UNL     1      -4.395   1.526  -1.078  1.00  0.00     0.130 A 
ATOM      6  C   UNL     1      -5.060   2.259  -0.094  1.00  0.00     0.048 A 
ENDROOT
BRANCH   1   7
ATOM      7  C   UNL     1      -8.418   2.714  -1.676  1.00  0.00     0.018 A 
ATOM      8  C   UNL     1      -9.357   2.541  -0.658  1.00  0.00     0.133 A 
ATOM      9  C   UNL     1     -10.681   2.933  -0.859  1.00  0.00     0.079 A 
ATOM     10  C   UNL     1      -8.802   3.280  -2.891  1.00  0.00     0.015 A 
ATOM     11  C   UNL     1     -11.065   3.498  -2.074  1.00  0.00     0.126 A 
ATOM     12  C   UNL     1     -10.125   3.672  -3.090  1.00  0.00     0.040 A 
ATOM     13  F   UNL     1      -9.005   1.996   0.515  1.00  0.00    -0.206 F 
ATOM     14  F   UNL     1     -12.336   3.875  -2.267  1.00  0.00    -0.207 F 
ENDBRANCH   1   7
BRANCH   4  15
ATOM     15  C   UNL     1      -4.379   0.421  -3.298  1.00  0.00     0.339 C 
ATOM     16  O   UNL     1      -3.816  -0.665  -3.134  1.00  0.00    -0.246 OA
BRANCH  15  17
ATOM     17  O   UNL     1      -4.428   1.037  -4.510  1.00  0.00    -0.478 OA
ATOM     18  H   UNL     1      -3.576   1.464  -4.737  1.00  0.00     0.297 HD
ENDBRANCH  15  17
ENDBRANCH   4  15
BRANCH   5  19
ATOM     19  O   UNL     1      -3.101   1.153  -0.866  1.00  0.00    -0.507 OA
ATOM     20  H   UNL     1      -3.088   0.274  -0.449  1.00  0.00     0.293 HD
ENDBRANCH   5  19
TORSDOF 4
ENDMDL
MODEL 2
REMARK VINA RESULT:    -6.891      1.314      2.760
REMARK INTER + INTRA:          -8.676
REMARK INTER:                  -7.981
REMARK INTRA:                  -0.695
REMARK UNBOUND:                -0.576
REMARK SMILES O=C(O)c1cc(-c2ccc(F)cc2F)ccc1O
REMARK SMILES IDX 6 1 5 2 15 3 4 4 17 5 16 6 7 7 13 8 12 9 8 10 10 11 9 12
REMARK SMILES IDX 14 13 11 14 2 15 1 16 3 17 18 19
REMARK H PARENT 3 18 18 20
ROOT
ATOM      1  C   UNL     1      -7.081   2.297  -1.479  1.00  0.00    -0.014 A 
ATOM      2  C   UNL     1      -6.489   2.750  -0.302  1.00  0.00     0.028 A 
ATOM      3  C   UNL     1      -6.359   1.488  -2.357  1.00  0.00     0.013 A 
ATOM      4  C   UNL     1      -5.173   2.396  -0.001  1.00  0.00     0.102 A 
ATOM      5  C   UNL     1      -4.451   1.588  -0.879  1.00  0.00     0.130 A 
ATOM      6  C   UNL     1      -5.044   1.134  -2.058  1.00  0.00     0.048 A 
ENDROOT
BRANCH   1   7
ATOM      7  C   UNL     1      -8.445   2.665  -1.793  1.00  0.00     0.018 A 
ATOM      8  C   UNL     1      -9.447   2.525  -0.831  1.00  0.00     0.133 A 
ATOM      9  C   UNL     1     -10.761   2.881  -1.137  1.00  0.00     0.079 A 
ATOM     10  C   UNL     1      -8.757   3.162  -3.058  1.00  0.00     0.015 A 
ATOM     11  C   UNL     1     -11.073   3.376  -2.403  1.00  0.00     0.126 A 
ATOM     12  C   UNL     1     -10.070   3.517  -3.363  1.00  0.00     0.040 A 
ATOM     13  F   UNL     1      -9.165   2.046   0.389  1.00  0.00    -0.206 F 
ATOM     14  F   UNL     1     -12.333   3.718  -2.697  1.00  0.00    -0.207 F 
ENDBRANCH   1   7
BRANCH   4  15
ATOM     15  C   UNL     1      -4.572   2.880   1.234  1.00  0.00     0.339 C 
ATOM     16  O   UNL     1      -3.414   3.287   1.353  1.00  0.00    -0.246 OA
BRANCH  15  17
ATOM     17  O   UNL     1      -5.439   2.840   2.282  1.00  0.00    -0.478 OA
ATOM     18  H   UNL     1      -5.291   3.582   2.906  1.00  0.00     0.297 HD
ENDBRANCH  15  17
ENDBRANCH   4  15
BRANCH   5  19
ATOM     19  O   UNL     1      -3.165   1.230  -0.604  1.00  0.00    -0.507 OA
ATOM     20  H   UNL     1      -3.072   1.092   0.355  1.00  0.00     0.293 HD
ENDBRANCH   5  19
TORSDOF 4
ENDMDL
MODEL 3
REMARK VINA RESULT:    -6.886      1.750      3.201
REMARK INTER + INTRA:          -8.671
REMARK INTER:                  -7.991
REMARK INTRA:                  -0.680
REMARK UNBOUND:                -0.576
REMARK SMILES O=C(O)c1cc(-c2ccc(F)cc2F)ccc1O
REMARK SMILES IDX 6 1 5 2 15 3 4 4 17 5 16 6 7 7 13 8 12 9 8 10 10 11 9 12
REMARK SMILES IDX 14 13 11 14 2 15 1 16 3 17 18 19
REMARK H PARENT 3 18 18 20
ROOT
ATOM      1  C   UNL     1      -7.048   2.317  -1.509  1.00  0.00    -0.014 A 
ATOM      2  C   UNL     1      -6.467   2.761  -0.322  1.00  0.00     0.028 A 
ATOM      3  C   UNL     1      -6.315   1.519  -2.388  1.00  0.00     0.013 A 
ATOM      4  C   UNL     1      -5.154   2.408  -0.012  1.00  0.00     0.102 A 
ATOM      5  C   UNL     1      -4.421   1.610  -0.891  1.00  0.00     0.130 A 
ATOM      6  C   UNL     1      -5.002   1.165  -2.079  1.00  0.00     0.048 A 
ENDROOT
BRANCH   1   7
ATOM      7  C   UNL     1      -8.410   2.684  -1.831  1.00  0.00     0.018 A 
ATOM      8  C   UNL     1      -8.719   3.191  -3.094  1.00  0.00     0.133 A 
ATOM      9  C   UNL     1     -10.033   3.544  -3.400  1.00  0.00     0.079 A 
ATOM     10  C   UNL     1      -9.415   2.527  -0.877  1.00  0.00     0.015 A 
ATOM     11  C   UNL     1     -11.038   3.389  -2.446  1.00  0.00     0.126 A 
ATOM     12  C   UNL     1     -10.729   2.880  -1.184  1.00  0.00     0.040 A 
ATOM     13  F   UNL     1      -7.764   3.350  -4.021  1.00  0.00    -0.206 F 
ATOM     14  F   UNL     1     -12.300   3.727  -2.739  1.00  0.00    -0.207 F 
ENDBRANCH   1   7
BRANCH   4  15
ATOM     15  C   UNL     1      -4.566   2.882   1.233  1.00  0.00     0.339 C 
ATOM     16  O   UNL     1      -3.410   3.291   1.367  1.00  0.00    -0.246 OA
BRANCH  15  17
ATOM     17  O   UNL     1      -5.443   2.830   2.273  1.00  0.00    -0.478 OA
ATOM     18  H   UNL     1      -6.219   3.410   2.124  1.00  0.00     0.297 HD
ENDBRANCH  15  17
ENDBRANCH   4  15
BRANCH   5  19
ATOM     19  O   UNL     1      -3.136   1.254  -0.607  1.00  0.00    -0.507 OA
ATOM     20  H   UNL     1      -2.800   1.822   0.108  1.00  0.00     0.293 HD
ENDBRANCH   5  19
TORSDOF 4
ENDMDL
MODEL 4
REMARK VINA RESULT:    -5.418      4.308      6.601
REMARK INTER + INTRA:          -6.944
REMARK INTER:                  -5.898
REMARK INTRA:                  -1.046
REMARK UNBOUND:                -0.576
REMARK SMILES O=C(O)c1cc(-c2ccc(F)cc2F)ccc1O
REMARK SMILES IDX 6 1 5 2 15 3 4 4 17 5 16 6 7 7 13 8 12 9 8 10 10 11 9 12
REMARK SMILES IDX 14 13 11 14 2 15 1 16 3 17 18 19
REMARK H PARENT 3 18 18 20
ROOT
ATOM      1  C   UNL     1      -9.099   3.055  -1.659  1.00  0.00    -0.014 A 
ATOM      2  C   UNL     1      -9.702   4.196  -1.131  1.00  0.00     0.028 A 
ATOM      3  C   UNL     1      -9.814   2.226  -2.523  1.00  0.00     0.013 A 
ATOM      4  C   UNL     1     -11.019   4.509  -1.466  1.00  0.00     0.102 A 
ATOM      5  C   UNL     1     -11.734   3.679  -2.331  1.00  0.00     0.130 A 
ATOM      6  C   UNL     1     -11.131   2.537  -2.859  1.00  0.00     0.048 A 
ENDROOT
BRANCH   1   7
ATOM      7  C   UNL     1      -7.733   2.730  -1.310  1.00  0.00     0.018 A 
ATOM      8  C   UNL     1      -7.447   2.130  -0.083  1.00  0.00     0.133 A 
ATOM      9  C   UNL     1      -6.128   1.818   0.249  1.00  0.00     0.079 A 
ATOM     10  C   UNL     1      -6.701   3.016  -2.204  1.00  0.00     0.015 A 
ATOM     11  C   UNL     1      -5.097   2.105  -0.644  1.00  0.00     0.126 A 
ATOM     12  C   UNL     1      -5.384   2.704  -1.871  1.00  0.00     0.040 A 
ATOM     13  F   UNL     1      -8.427   1.851   0.789  1.00  0.00    -0.206 F 
ATOM     14  F   UNL     1      -3.831   1.806  -0.326  1.00  0.00    -0.207 F 
ENDBRANCH   1   7
BRANCH   4  15
ATOM     15  C   UNL     1     -11.630   5.706  -0.905  1.00  0.00     0.339 C 
ATOM     16  O   UNL     1     -12.841   5.936  -0.863  1.00  0.00    -0.246 OA
BRANCH  15  17
ATOM     17  O   UNL     1     -10.708   6.575  -0.411  1.00  0.00    -0.478 OA
ATOM     18  H   UNL     1     -10.009   6.778  -1.068  1.00  0.00     0.297 HD
ENDBRANCH  15  17
ENDBRANCH   4  15
BRANCH   5  19
ATOM     19  O   UNL     1     -13.022   3.967  -2.672  1.00  0.00    -0.507 OA
ATOM     20  H   UNL     1     -13.521   3.136  -2.757  1.00  0.00     0.293 HD
ENDBRANCH   5  19
TORSDOF 4
ENDMDL
MODEL 5
REMARK VINA RESULT:    -5.407      4.095      6.354
REMARK INTER + INTRA:          -6.932
REMARK INTER:                  -5.897
REMARK INTRA:                  -1.035
REMARK UNBOUND:                -0.576
REMARK SMILES O=C(O)c1cc(-c2ccc(F)cc2F)ccc1O
REMARK SMILES IDX 6 1 5 2 15 3 4 4 17 5 16 6 7 7 13 8 12 9 8 10 10 11 9 12
REMARK SMILES IDX 14 13 11 14 2 15 1 16 3 17 18 19
REMARK H PARENT 3 18 18 20
ROOT
ATOM      1  C   UNL     1      -9.082   2.741  -2.109  1.00  0.00    -0.014 A 
ATOM      2  C   UNL     1      -9.969   2.021  -2.908  1.00  0.00     0.028 A 
ATOM      3  C   UNL     1      -9.509   3.902  -1.464  1.00  0.00     0.013 A 
ATOM      4  C   UNL     1     -11.284   2.462  -3.063  1.00  0.00     0.102 A 
ATOM      5  C   UNL     1     -11.710   3.623  -2.419  1.00  0.00     0.130 A 
ATOM      6  C   UNL     1     -10.822   4.343  -1.619  1.00  0.00     0.048 A 
ENDROOT
BRANCH   1   7
ATOM      7  C   UNL     1      -7.718   2.285  -1.948  1.00  0.00     0.018 A 
ATOM      8  C   UNL     1      -6.786   2.493  -2.966  1.00  0.00     0.133 A 
ATOM      9  C   UNL     1      -5.472   2.052  -2.807  1.00  0.00     0.079 A 
ATOM     10  C   UNL     1      -7.336   1.639  -0.773  1.00  0.00     0.015 A 
ATOM     11  C   UNL     1      -5.090   1.404  -1.632  1.00  0.00     0.126 A 
ATOM     12  C   UNL     1      -6.022   1.199  -0.615  1.00  0.00     0.040 A 
ATOM     13  F   UNL     1      -7.137   3.110  -4.102  1.00  0.00    -0.206 F 
ATOM     14  F   UNL     1      -3.829   0.981  -1.479  1.00  0.00    -0.207 F 
ENDBRANCH   1   7
BRANCH   4  15
ATOM     15  C   UNL     1     -12.195   1.695  -3.902  1.00  0.00     0.339 C 
ATOM     16  O   UNL     1     -13.245   2.120  -4.389  1.00  0.00    -0.246 OA
BRANCH  15  17
ATOM     17  O   UNL     1     -11.763   0.421  -4.106  1.00  0.00    -0.478 OA
ATOM     18  H   UNL     1     -11.344   0.315  -4.986  1.00  0.00     0.297 HD
ENDBRANCH  15  17
ENDBRANCH   4  15
BRANCH   5  19
ATOM     19  O   UNL     1     -12.991   4.070  -2.557  1.00  0.00    -0.507 OA
ATOM     20  H   UNL     1     -13.149   4.295  -3.490  1.00  0.00     0.293 HD
ENDBRANCH   5  19
TORSDOF 4
ENDMDL
MODEL 6
REMARK VINA RESULT:    -5.344      3.874      6.107
REMARK INTER + INTRA:          -6.857
REMARK INTER:                  -5.877
REMARK INTRA:                  -0.980
REMARK UNBOUND:                -0.576
REMARK SMILES O=C(O)c1cc(-c2ccc(F)cc2F)ccc1O
REMARK SMILES IDX 6 1 5 2 15 3 4 4 17 5 16 6 7 7 13 8 12 9 8 10 10 11 9 12
REMARK SMILES IDX 14 13 11 14 2 15 1 16 3 17 18 19
REMARK H PARENT 3 18 18 20
ROOT
ATOM      1  C   UNL     1      -9.039   2.740  -1.981  1.00  0.00    -0.014 A 
ATOM      2  C   UNL     1      -9.909   2.000  -2.780  1.00  0.00     0.028 A 
ATOM      3  C   UNL     1      -9.479   3.918  -1.376  1.00  0.00     0.013 A 
ATOM      4  C   UNL     1     -11.220   2.437  -2.976  1.00  0.00     0.102 A 
ATOM      5  C   UNL     1     -11.659   3.615  -2.371  1.00  0.00     0.130 A 
ATOM      6  C   UNL     1     -10.788   4.356  -1.571  1.00  0.00     0.048 A 
ENDROOT
BRANCH   1   7
ATOM      7  C   UNL     1      -7.679   2.288  -1.778  1.00  0.00     0.018 A 
ATOM      8  C   UNL     1      -7.280   1.806  -0.531  1.00  0.00     0.133 A 
ATOM      9  C   UNL     1      -5.968   1.372  -0.341  1.00  0.00     0.079 A 
ATOM     10  C   UNL     1      -6.769   2.334  -2.833  1.00  0.00     0.015 A 
ATOM     11  C   UNL     1      -5.057   1.418  -1.395  1.00  0.00     0.126 A 
ATOM     12  C   UNL     1      -5.458   1.899  -2.642  1.00  0.00     0.040 A 
ATOM     13  F   UNL     1      -8.142   1.758   0.494  1.00  0.00    -0.206 F 
ATOM     14  F   UNL     1      -3.798   1.001  -1.213  1.00  0.00    -0.207 F 
ENDBRANCH   1   7
BRANCH   4  15
ATOM     15  C   UNL     1     -12.113   1.649  -3.814  1.00  0.00     0.339 C 
ATOM     16  O   UNL     1     -13.152   2.062  -4.334  1.00  0.00    -0.246 OA
BRANCH  15  17
ATOM     17  O   UNL     1     -11.678   0.370  -3.976  1.00  0.00    -0.478 OA
ATOM     18  H   UNL     1     -11.879   0.028  -4.872  1.00  0.00     0.297 HD
ENDBRANCH  15  17
ENDBRANCH   4  15
BRANCH   5  19
ATOM     19  O   UNL     1     -12.936   4.059  -2.549  1.00  0.00    -0.507 OA
ATOM     20  H   UNL     1     -13.467   3.819  -1.770  1.00  0.00     0.293 HD
ENDBRANCH   5  19
TORSDOF 4
ENDMDL
MODEL 7
REMARK VINA RESULT:    -5.331      4.397      6.740
REMARK INTER + INTRA:          -6.842
REMARK INTER:                  -5.819
REMARK INTRA:                  -1.023
REMARK UNBOUND:                -0.576
REMARK SMILES O=C(O)c1cc(-c2ccc(F)cc2F)ccc1O
REMARK SMILES IDX 6 1 5 2 15 3 4 4 17 5 16 6 7 7 13 8 12 9 8 10 10 11 9 12
REMARK SMILES IDX 14 13 11 14 2 15 1 16 3 17 18 19
REMARK H PARENT 3 18 18 20
ROOT
ATOM      1  C   UNL     1      -9.111   2.844  -2.040  1.00  0.00    -0.014 A 
ATOM      2  C   UNL     1      -9.592   4.002  -1.432  1.00  0.00     0.028 A 
ATOM      3  C   UNL     1      -9.952   2.078  -2.847  1.00  0.00     0.013 A 
ATOM      4  C   UNL     1     -10.916   4.396  -1.630  1.00  0.00     0.102 A 
ATOM      5  C   UNL     1     -11.758   3.630  -2.436  1.00  0.00     0.130 A 
ATOM      6  C   UNL     1     -11.276   2.471  -3.045  1.00  0.00     0.048 A 
ENDROOT
BRANCH   1   7
ATOM      7  C   UNL     1      -7.738   2.434  -1.834  1.00  0.00     0.018 A 
ATOM      8  C   UNL     1      -6.793   2.618  -2.845  1.00  0.00     0.133 A 
ATOM      9  C   UNL     1      -5.471   2.221  -2.643  1.00  0.00     0.079 A 
ATOM     10  C   UNL     1      -7.360   1.857  -0.623  1.00  0.00     0.015 A 
ATOM     11  C   UNL     1      -5.094   1.643  -1.431  1.00  0.00     0.126 A 
ATOM     12  C   UNL     1      -6.038   1.461  -0.421  1.00  0.00     0.040 A 
ATOM     13  F   UNL     1      -7.141   3.169  -4.017  1.00  0.00    -0.206 F 
ATOM     14  F   UNL     1      -3.825   1.262  -1.236  1.00  0.00    -0.207 F 
ENDBRANCH   1   7
BRANCH   4  15
ATOM     15  C   UNL     1     -11.400   5.610  -0.986  1.00  0.00     0.339 C 
ATOM     16  O   UNL     1     -12.585   5.899  -0.808  1.00  0.00    -0.246 OA
BRANCH  15  17
ATOM     17  O   UNL     1     -10.385   6.422  -0.584  1.00  0.00    -0.478 OA
ATOM     18  H   UNL     1     -10.647   7.367  -0.599  1.00  0.00     0.297 HD
ENDBRANCH  15  17
ENDBRANCH   4  15
BRANCH   5  19
ATOM     19  O   UNL     1     -13.054   3.997  -2.643  1.00  0.00    -0.507 OA
ATOM     20  H   UNL     1     -13.462   3.380  -3.274  1.00  0.00     0.293 HD
ENDBRANCH   5  19
TORSDOF 4
ENDMDL
MODEL 8
REMARK VINA RESULT:    -4.743      1.321      1.635
REMARK INTER + INTRA:          -6.152
REMARK INTER:                  -5.433
REMARK INTRA:                  -0.719
REMARK UNBOUND:                -0.576
REMARK SMILES O=C(O)c1cc(-c2ccc(F)cc2F)ccc1O
REMARK SMILES IDX 6 1 5 2 15 3 4 4 17 5 16 6 7 7 13 8 12 9 8 10 10 11 9 12
REMARK SMILES IDX 14 13 11 14 2 15 1 16 3 17 18 19
REMARK H PARENT 3 18 18 20
ROOT
ATOM      1  C   UNL     1      -7.763   2.292  -1.731  1.00  0.00    -0.014 A 
ATOM      2  C   UNL     1      -6.970   1.712  -2.720  1.00  0.00     0.028 A 
ATOM      3  C   UNL     1      -7.252   2.476  -0.446  1.00  0.00     0.013 A 
ATOM      4  C   UNL     1      -5.665   1.316  -2.426  1.00  0.00     0.102 A 
ATOM      5  C   UNL     1      -5.153   1.501  -1.141  1.00  0.00     0.130 A 
ATOM      6  C   UNL     1      -5.947   2.081  -0.151  1.00  0.00     0.048 A 
ENDROOT
BRANCH   1   7
ATOM      7  C   UNL     1      -9.117   2.701  -2.035  1.00  0.00     0.018 A 
ATOM      8  C   UNL     1      -9.974   1.836  -2.717  1.00  0.00     0.133 A 
ATOM      9  C   UNL     1     -11.279   2.235  -3.009  1.00  0.00     0.079 A 
ATOM     10  C   UNL     1      -9.566   3.962  -1.644  1.00  0.00     0.015 A 
ATOM     11  C   UNL     1     -11.726   3.496  -2.619  1.00  0.00     0.126 A 
ATOM     12  C   UNL     1     -10.870   4.360  -1.936  1.00  0.00     0.040 A 
ATOM     13  F   UNL     1      -9.558   0.621  -3.102  1.00  0.00    -0.206 F 
ATOM     14  F   UNL     1     -12.979   3.880  -2.898  1.00  0.00    -0.207 F 
ENDBRANCH   1   7
BRANCH   4  15
ATOM     15  C   UNL     1      -4.852   0.713  -3.473  1.00  0.00     0.339 C 
ATOM     16  O   UNL     1      -4.814   1.084  -4.649  1.00  0.00    -0.246 OA
BRANCH  15  17
ATOM     17  O   UNL     1      -4.112  -0.333  -3.017  1.00  0.00    -0.478 OA
ATOM     18  H   UNL     1      -3.926  -0.985  -3.725  1.00  0.00     0.297 HD
ENDBRANCH  15  17
ENDBRANCH   4  15
BRANCH   5  19
ATOM     19  O   UNL     1      -3.881   1.122  -0.833  1.00  0.00    -0.507 OA
ATOM     20  H   UNL     1      -3.296   1.338  -1.580  1.00  0.00     0.293 HD
ENDBRANCH   5  19
TORSDOF 4
ENDMDL
