MODEL 1
REMARK VINA RESULT:    -5.005      0.000      0.000
REMARK INTER + INTRA:          -6.924
REMARK INTER:                  -6.175
REMARK INTRA:                  -0.749
REMARK UNBOUND:                -0.749
REMARK SMILES Cc1ccc(C(=O)c2cc(O)c(O)c([N+](=O)[O-])c2)cc1
REMARK SMILES IDX 8 1 18 2 9 3 14 4 10 5 12 6 6 7 7 8 5 9 4 10 19 11 3 12
REMARK SMILES IDX 20 13 2 14 1 15 15 16 17 17 16 18 11 19 13 21
REMARK H PARENT 11 20 13 22
ROOT
ATOM      1  C   UNL     1      -6.661   3.057  -1.228  1.00  0.00     0.033 A 
ATOM      2  C   UNL     1      -6.327   2.169  -2.224  1.00  0.00     0.102 A 
ATOM      3  C   UNL     1      -5.855   3.296  -0.140  1.00  0.00     0.063 A 
ATOM      4  C   UNL     1      -5.117   1.482  -2.126  1.00  0.00     0.315 A 
ATOM      5  C   UNL     1      -4.645   2.608  -0.042  1.00  0.00     0.165 A 
ATOM      6  C   UNL     1      -4.276   1.701  -1.036  1.00  0.00     0.237 A 
ENDROOT
BRANCH   1   7
ATOM      7  C   UNL     1      -7.956   3.794  -1.332  1.00  0.00     0.193 C 
ATOM      8  O   UNL     1      -8.040   4.883  -0.746  1.00  0.00    -0.289 OA
BRANCH   7   9
ATOM      9  C   UNL     1      -9.088   3.277  -2.085  1.00  0.00     0.023 A 
ATOM     10  C   UNL     1     -10.104   2.581  -1.427  1.00  0.00     0.012 A 
ATOM     11  C   UNL     1      -9.160   3.477  -3.463  1.00  0.00     0.012 A 
ATOM     12  C   UNL     1     -11.189   2.086  -2.149  1.00  0.00     0.004 A 
ATOM     13  C   UNL     1     -10.246   2.982  -4.186  1.00  0.00     0.004 A 
ATOM     14  C   UNL     1     -11.261   2.286  -3.528  1.00  0.00    -0.051 A 
ATOM     15  C   UNL     1     -12.421   1.755  -4.299  1.00  0.00     0.044 C 
ENDBRANCH   7   9
ENDBRANCH   1   7
BRANCH   4  16
ATOM     16  N   UNL     1      -4.758   0.561  -3.149  1.00  0.00     0.066 N 
ATOM     17  O   UNL     1      -5.153   0.772  -4.321  1.00  0.00    -0.258 OA
ATOM     18  O   UNL     1      -4.056  -0.433  -2.849  1.00  0.00    -0.258 OA
ENDBRANCH   4  16
BRANCH   5  19
ATOM     19  O   UNL     1      -3.834   2.833   1.029  1.00  0.00    -0.504 OA
ATOM     20  H   UNL     1      -3.427   1.996   1.310  1.00  0.00     0.293 HD
ENDBRANCH   5  19
BRANCH   6  21
ATOM     21  O   UNL     1      -3.090   1.034  -0.929  1.00  0.00    -0.500 OA
ATOM     22  H   UNL     1      -2.375   1.667  -0.757  1.00  0.00     0.294 HD
ENDBRANCH   6  21
TORSDOF 5
ENDMDL
MODEL 2
REMARK VINA RESULT:    -5.000      2.019      3.591
REMARK INTER + INTRA:          -6.918
REMARK INTER:                  -6.165
REMARK INTRA:                  -0.753
REMARK UNBOUND:                -0.749
REMARK SMILES Cc1ccc(C(=O)c2cc(O)c(O)c([N+](=O)[O-])c2)cc1
REMARK SMILES IDX 8 1 18 2 9 3 14 4 10 5 12 6 6 7 7 8 5 9 4 10 19 11 3 12
REMARK SMILES IDX 20 13 2 14 1 15 15 16 17 17 16 18 11 19 13 21
REMARK H PARENT 11 20 13 22
ROOT
ATOM      1  C   UNL     1      -7.059   1.416  -1.753  1.00  0.00     0.033 A 
ATOM      2  C   UNL     1      -6.655   2.086  -0.621  1.00  0.00     0.102 A 
ATOM      3  C   UNL     1      -6.195   0.698  -2.544  1.00  0.00     0.063 A 
ATOM      4  C   UNL     1      -5.308   2.033  -0.261  1.00  0.00     0.315 A 
ATOM      5  C   UNL     1      -4.848   0.645  -2.184  1.00  0.00     0.165 A 
ATOM      6  C   UNL     1      -4.405   1.313  -1.041  1.00  0.00     0.237 A 
ENDROOT
BRANCH   1   7
ATOM      7  C   UNL     1      -8.501   1.473  -2.139  1.00  0.00     0.193 C 
ATOM      8  O   UNL     1      -8.947   0.531  -2.812  1.00  0.00    -0.289 OA
BRANCH   7   9
ATOM      9  C   UNL     1      -9.369   2.575  -1.755  1.00  0.00     0.023 A 
ATOM     10  C   UNL     1      -9.592   3.629  -2.642  1.00  0.00     0.012 A 
ATOM     11  C   UNL     1      -9.978   2.579  -0.501  1.00  0.00     0.012 A 
ATOM     12  C   UNL     1     -10.424   4.686  -2.273  1.00  0.00     0.004 A 
ATOM     13  C   UNL     1     -10.811   3.636  -0.132  1.00  0.00     0.004 A 
ATOM     14  C   UNL     1     -11.034   4.689  -1.018  1.00  0.00    -0.051 A 
ATOM     15  C   UNL     1     -11.922   5.820  -0.624  1.00  0.00     0.044 C 
ENDBRANCH   7   9
ENDBRANCH   1   7
BRANCH   4  16
ATOM     16  N   UNL     1      -4.875   2.720   0.907  1.00  0.00     0.066 N 
ATOM     17  O   UNL     1      -5.675   2.852   1.864  1.00  0.00    -0.258 OA
ATOM     18  O   UNL     1      -3.707   3.173   0.945  1.00  0.00    -0.258 OA
ENDBRANCH   4  16
BRANCH   5  19
ATOM     19  O   UNL     1      -3.977  -0.063  -2.956  1.00  0.00    -0.504 OA
ATOM     20  H   UNL     1      -3.077   0.283  -2.832  1.00  0.00     0.293 HD
ENDBRANCH   5  19
BRANCH   6  21
ATOM     21  O   UNL     1      -3.085   1.253  -0.699  1.00  0.00    -0.500 OA
ATOM     22  H   UNL     1      -2.618   2.021  -1.064  1.00  0.00     0.294 HD
ENDBRANCH   6  21
TORSDOF 5
ENDMDL
MODEL 3
REMARK VINA RESULT:    -3.889      1.877      2.586
REMARK INTER + INTRA:          -5.547
REMARK INTER:                  -4.806
REMARK INTRA:                  -0.741
REMARK UNBOUND:                -0.749
REMARK SMILES Cc1ccc(C(=O)c2cc(O)c(O)c([N+](=O)[O-])c2)cc1
REMARK SMILES IDX 8 1 18 2 9 3 14 4 10 5 12 6 6 7 7 8 5 9 4 10 19 11 3 12
REMARK SMILES IDX 20 13 2 14 1 15 15 16 17 17 16 18 11 19 13 21
REMARK H PARENT 11 20 13 22
ROOT
ATOM      1  C   UNL     1      -7.377   1.481  -1.746  1.00  0.00     0.033 A 
ATOM      2  C   UNL     1      -6.543   0.952  -2.704  1.00  0.00     0.102 A 
ATOM      3  C   UNL     1      -6.928   1.910  -0.520  1.00  0.00     0.063 A 
ATOM      4  C   UNL     1      -5.182   0.847  -2.419  1.00  0.00     0.315 A 
ATOM      5  C   UNL     1      -5.566   1.805  -0.234  1.00  0.00     0.165 A 
ATOM      6  C   UNL     1      -4.693   1.273  -1.184  1.00  0.00     0.237 A 
ENDROOT
BRANCH   1   7
ATOM      7  C   UNL     1      -8.835   1.593  -2.052  1.00  0.00     0.193 C 
ATOM      8  O   UNL     1      -9.361   0.654  -2.667  1.00  0.00    -0.289 OA
BRANCH   7   9
ATOM      9  C   UNL     1      -9.628   2.745  -1.655  1.00  0.00     0.023 A 
ATOM     10  C   UNL     1      -9.735   3.845  -2.507  1.00  0.00     0.012 A 
ATOM     11  C   UNL     1     -10.283   2.751  -0.424  1.00  0.00     0.012 A 
ATOM     12  C   UNL     1     -10.496   4.950  -2.126  1.00  0.00     0.004 A 
ATOM     13  C   UNL     1     -11.045   3.856  -0.043  1.00  0.00     0.004 A 
ATOM     14  C   UNL     1     -11.152   4.956  -0.894  1.00  0.00    -0.051 A 
ATOM     15  C   UNL     1     -11.964   6.138  -0.487  1.00  0.00     0.044 C 
ENDBRANCH   7   9
ENDBRANCH   1   7
BRANCH   4  16
ATOM     16  N   UNL     1      -4.307   0.303  -3.399  1.00  0.00     0.066 N 
ATOM     17  O   UNL     1      -4.183   0.897  -4.497  1.00  0.00    -0.258 OA
ATOM     18  O   UNL     1      -3.685  -0.753  -3.136  1.00  0.00    -0.258 OA
ENDBRANCH   4  16
BRANCH   5  19
ATOM     19  O   UNL     1      -5.103   2.225   0.976  1.00  0.00    -0.504 OA
ATOM     20  H   UNL     1      -4.464   1.581   1.322  1.00  0.00     0.293 HD
ENDBRANCH   5  19
BRANCH   6  21
ATOM     21  O   UNL     1      -3.363   1.176  -0.893  1.00  0.00    -0.500 OA
ATOM     22  H   UNL     1      -3.067   0.261  -1.020  1.00  0.00     0.294 HD
ENDBRANCH   6  21
TORSDOF 5
ENDMDL
MODEL 4
REMARK VINA RESULT:    -3.796      1.660      2.960
REMARK INTER + INTRA:          -5.432
REMARK INTER:                  -4.700
REMARK INTRA:                  -0.733
REMARK UNBOUND:                -0.749
REMARK SMILES Cc1ccc(C(=O)c2cc(O)c(O)c([N+](=O)[O-])c2)cc1
REMARK SMILES IDX 8 1 18 2 9 3 14 4 10 5 12 6 6 7 7 8 5 9 4 10 19 11 3 12
REMARK SMILES IDX 20 13 2 14 1 15 15 16 17 17 16 18 11 19 13 21
REMARK H PARENT 11 20 13 22
ROOT
ATOM      1  C   UNL     1      -5.935   2.647  -2.614  1.00  0.00     0.033 A 
ATOM      2  C   UNL     1      -5.620   3.157  -1.376  1.00  0.00     0.102 A 
ATOM      3  C   UNL     1      -5.396   1.480  -3.100  1.00  0.00     0.063 A 
ATOM      4  C   UNL     1      -4.715   2.458  -0.577  1.00  0.00     0.315 A 
ATOM      5  C   UNL     1      -4.489   0.781  -2.301  1.00  0.00     0.165 A 
ATOM      6  C   UNL     1      -4.149   1.270  -1.040  1.00  0.00     0.237 A 
ENDROOT
BRANCH   1   7
ATOM      7  C   UNL     1      -6.905   3.396  -3.470  1.00  0.00     0.193 C 
ATOM      8  O   UNL     1      -6.436   4.182  -4.306  1.00  0.00    -0.289 OA
BRANCH   7   9
ATOM      9  C   UNL     1      -8.344   3.227  -3.347  1.00  0.00     0.023 A 
ATOM     10  C   UNL     1      -8.910   2.942  -2.104  1.00  0.00     0.012 A 
ATOM     11  C   UNL     1      -9.159   3.351  -4.472  1.00  0.00     0.012 A 
ATOM     12  C   UNL     1     -10.290   2.781  -1.987  1.00  0.00     0.004 A 
ATOM     13  C   UNL     1     -10.540   3.190  -4.356  1.00  0.00     0.004 A 
ATOM     14  C   UNL     1     -11.106   2.905  -3.113  1.00  0.00    -0.051 A 
ATOM     15  C   UNL     1     -12.581   2.731  -2.987  1.00  0.00     0.044 C 
ENDBRANCH   7   9
ENDBRANCH   1   7
BRANCH   4  16
ATOM     16  N   UNL     1      -4.380   2.973   0.705  1.00  0.00     0.066 N 
ATOM     17  O   UNL     1      -5.305   3.299   1.488  1.00  0.00    -0.258 OA
ATOM     18  O   UNL     1      -3.171   3.084   1.017  1.00  0.00    -0.258 OA
ENDBRANCH   4  16
BRANCH   5  19
ATOM     19  O   UNL     1      -3.945  -0.379  -2.766  1.00  0.00    -0.504 OA
ATOM     20  H   UNL     1      -3.948  -0.373  -3.737  1.00  0.00     0.293 HD
ENDBRANCH   5  19
BRANCH   6  21
ATOM     21  O   UNL     1      -3.262   0.577  -0.268  1.00  0.00    -0.500 OA
ATOM     22  H   UNL     1      -3.743  -0.029   0.317  1.00  0.00     0.294 HD
ENDBRANCH   6  21
TORSDOF 5
ENDMDL
MODEL 5
REMARK VINA RESULT:    -3.649      3.593      6.405
REMARK INTER + INTRA:          -5.250
REMARK INTER:                  -4.422
REMARK INTRA:                  -0.828
REMARK UNBOUND:                -0.749
REMARK SMILES Cc1ccc(C(=O)c2cc(O)c(O)c([N+](=O)[O-])c2)cc1
REMARK SMILES IDX 8 1 18 2 9 3 14 4 10 5 12 6 6 7 7 8 5 9 4 10 19 11 3 12
REMARK SMILES IDX 20 13 2 14 1 15 15 16 17 17 16 18 11 19 13 21
REMARK H PARENT 11 20 13 22
ROOT
ATOM      1  C   UNL     1     -10.049   2.989  -1.496  1.00  0.00     0.033 A 
ATOM      2  C   UNL     1     -10.627   2.169  -2.437  1.00  0.00     0.102 A 
ATOM      3  C   UNL     1     -10.631   4.159  -1.068  1.00  0.00     0.063 A 
ATOM      4  C   UNL     1     -11.857   2.539  -2.980  1.00  0.00     0.315 A 
ATOM      5  C   UNL     1     -11.861   4.530  -1.611  1.00  0.00     0.165 A 
ATOM      6  C   UNL     1     -12.475   3.719  -2.567  1.00  0.00     0.237 A 
ENDROOT
BRANCH   1   7
ATOM      7  C   UNL     1      -8.731   2.593  -0.914  1.00  0.00     0.193 C 
ATOM      8  O   UNL     1      -8.586   2.728   0.310  1.00  0.00    -0.289 OA
BRANCH   7   9
ATOM      9  C   UNL     1      -7.647   2.067  -1.728  1.00  0.00     0.023 A 
ATOM     10  C   UNL     1      -7.051   0.850  -1.395  1.00  0.00     0.012 A 
ATOM     11  C   UNL     1      -7.201   2.779  -2.841  1.00  0.00     0.012 A 
ATOM     12  C   UNL     1      -6.011   0.346  -2.175  1.00  0.00     0.004 A 
ATOM     13  C   UNL     1      -6.161   2.275  -3.623  1.00  0.00     0.004 A 
ATOM     14  C   UNL     1      -5.566   1.058  -3.290  1.00  0.00    -0.051 A 
ATOM     15  C   UNL     1      -4.453   0.519  -4.123  1.00  0.00     0.044 C 
ENDBRANCH   7   9
ENDBRANCH   1   7
BRANCH   4  16
ATOM     16  N   UNL     1     -12.466   1.700  -3.953  1.00  0.00     0.066 N 
ATOM     17  O   UNL     1     -12.755   2.184  -5.074  1.00  0.00    -0.258 OA
ATOM     18  O   UNL     1     -12.696   0.503  -3.663  1.00  0.00    -0.258 OA
ENDBRANCH   4  16
BRANCH   5  19
ATOM     19  O   UNL     1     -12.453   5.685  -1.198  1.00  0.00    -0.504 OA
ATOM     20  H   UNL     1     -13.053   5.497  -0.457  1.00  0.00     0.293 HD
ENDBRANCH   5  19
BRANCH   6  21
ATOM     21  O   UNL     1     -13.679   4.092  -3.091  1.00  0.00    -0.500 OA
ATOM     22  H   UNL     1     -14.267   4.387  -2.378  1.00  0.00     0.294 HD
ENDBRANCH   6  21
TORSDOF 5
ENDMDL
MODEL 6
REMARK VINA RESULT:    -3.641      3.456      7.242
REMARK INTER + INTRA:          -5.241
REMARK INTER:                  -4.368
REMARK INTRA:                  -0.873
REMARK UNBOUND:                -0.749
REMARK SMILES Cc1ccc(C(=O)c2cc(O)c(O)c([N+](=O)[O-])c2)cc1
REMARK SMILES IDX 8 1 18 2 9 3 14 4 10 5 12 6 6 7 7 8 5 9 4 10 19 11 3 12
REMARK SMILES IDX 20 13 2 14 1 15 15 16 17 17 16 18 11 19 13 21
REMARK H PARENT 11 20 13 22
ROOT
ATOM      1  C   UNL     1      -9.796   3.295  -2.567  1.00  0.00     0.033 A 
ATOM      2  C   UNL     1     -10.118   4.357  -1.753  1.00  0.00     0.102 A 
ATOM      3  C   UNL     1     -10.734   2.599  -3.291  1.00  0.00     0.063 A 
ATOM      4  C   UNL     1     -11.455   4.745  -1.660  1.00  0.00     0.315 A 
ATOM      5  C   UNL     1     -12.072   2.987  -3.198  1.00  0.00     0.165 A 
ATOM      6  C   UNL     1     -12.432   4.060  -2.382  1.00  0.00     0.237 A 
ENDROOT
BRANCH   1   7
ATOM      7  C   UNL     1      -8.365   2.880  -2.667  1.00  0.00     0.193 C 
ATOM      8  O   UNL     1      -7.938   2.574  -3.790  1.00  0.00    -0.289 OA
BRANCH   7   9
ATOM      9  C   UNL     1      -7.486   2.827  -1.509  1.00  0.00     0.023 A 
ATOM     10  C   UNL     1      -6.268   3.508  -1.526  1.00  0.00     0.012 A 
ATOM     11  C   UNL     1      -7.860   2.095  -0.382  1.00  0.00     0.012 A 
ATOM     12  C   UNL     1      -5.426   3.457  -0.416  1.00  0.00     0.004 A 
ATOM     13  C   UNL     1      -7.017   2.044   0.729  1.00  0.00     0.004 A 
ATOM     14  C   UNL     1      -5.800   2.726   0.712  1.00  0.00    -0.051 A 
ATOM     15  C   UNL     1      -4.898   2.671   1.898  1.00  0.00     0.044 C 
ENDBRANCH   7   9
ENDBRANCH   1   7
BRANCH   4  16
ATOM     16  N   UNL     1     -11.802   5.841  -0.824  1.00  0.00     0.066 N 
ATOM     17  O   UNL     1     -10.965   6.758  -0.648  1.00  0.00    -0.258 OA
ATOM     18  O   UNL     1     -12.935   5.858  -0.287  1.00  0.00    -0.258 OA
ENDBRANCH   4  16
BRANCH   5  19
ATOM     19  O   UNL     1     -13.015   2.309  -3.910  1.00  0.00    -0.504 OA
ATOM     20  H   UNL     1     -12.980   2.584  -4.841  1.00  0.00     0.293 HD
ENDBRANCH   5  19
BRANCH   6  21
ATOM     21  O   UNL     1     -13.743   4.430  -2.300  1.00  0.00    -0.500 OA
ATOM     22  H   UNL     1     -14.051   4.733  -3.168  1.00  0.00     0.294 HD
ENDBRANCH   6  21
TORSDOF 5
ENDMDL
MODEL 7
REMARK VINA RESULT:    -3.633      3.735      7.018
REMARK INTER + INTRA:          -5.231
REMARK INTER:                  -4.331
REMARK INTRA:                  -0.900
REMARK UNBOUND:                -0.749
REMARK SMILES Cc1ccc(C(=O)c2cc(O)c(O)c([N+](=O)[O-])c2)cc1
REMARK SMILES IDX 8 1 18 2 9 3 14 4 10 5 12 6 6 7 7 8 5 9 4 10 19 11 3 12
REMARK SMILES IDX 20 13 2 14 1 15 15 16 17 17 16 18 11 19 13 21
REMARK H PARENT 11 20 13 22
ROOT
ATOM      1  C   UNL     1     -10.056   3.008  -1.416  1.00  0.00     0.033 A 
ATOM      2  C   UNL     1     -10.588   4.206  -0.999  1.00  0.00     0.102 A 
ATOM      3  C   UNL     1     -10.681   2.192  -2.329  1.00  0.00     0.063 A 
ATOM      4  C   UNL     1     -11.815   4.611  -1.526  1.00  0.00     0.315 A 
ATOM      5  C   UNL     1     -11.908   2.595  -2.855  1.00  0.00     0.165 A 
ATOM      6  C   UNL     1     -12.475   3.806  -2.454  1.00  0.00     0.237 A 
ENDROOT
BRANCH   1   7
ATOM      7  C   UNL     1      -8.742   2.575  -0.852  1.00  0.00     0.193 C 
ATOM      8  O   UNL     1      -8.591   2.668   0.376  1.00  0.00    -0.289 OA
BRANCH   7   9
ATOM      9  C   UNL     1      -7.667   2.061  -1.685  1.00  0.00     0.023 A 
ATOM     10  C   UNL     1      -7.251   2.777  -2.808  1.00  0.00     0.012 A 
ATOM     11  C   UNL     1      -7.052   0.851  -1.363  1.00  0.00     0.012 A 
ATOM     12  C   UNL     1      -6.220   2.284  -3.607  1.00  0.00     0.004 A 
ATOM     13  C   UNL     1      -6.020   0.357  -2.162  1.00  0.00     0.004 A 
ATOM     14  C   UNL     1      -5.604   1.074  -3.284  1.00  0.00    -0.051 A 
ATOM     15  C   UNL     1      -4.503   0.546  -4.139  1.00  0.00     0.044 C 
ENDBRANCH   7   9
ENDBRANCH   1   7
BRANCH   4  16
ATOM     16  N   UNL     1     -12.377   5.847  -1.104  1.00  0.00     0.066 N 
ATOM     17  O   UNL     1     -13.619   5.925  -0.945  1.00  0.00    -0.258 OA
ATOM     18  O   UNL     1     -11.616   6.822  -0.903  1.00  0.00    -0.258 OA
ENDBRANCH   4  16
BRANCH   5  19
ATOM     19  O   UNL     1     -12.541   1.799  -3.761  1.00  0.00    -0.504 OA
ATOM     20  H   UNL     1     -12.929   2.349  -4.462  1.00  0.00     0.293 HD
ENDBRANCH   5  19
BRANCH   6  21
ATOM     21  O   UNL     1     -13.676   4.190  -2.976  1.00  0.00    -0.500 OA
ATOM     22  H   UNL     1     -13.544   4.548  -3.868  1.00  0.00     0.294 HD
ENDBRANCH   6  21
TORSDOF 5
ENDMDL
MODEL 8
REMARK VINA RESULT:    -3.578      1.281      2.957
REMARK INTER + INTRA:          -5.163
REMARK INTER:                  -4.432
REMARK INTRA:                  -0.730
REMARK UNBOUND:                -0.749
REMARK SMILES Cc1ccc(C(=O)c2cc(O)c(O)c([N+](=O)[O-])c2)cc1
REMARK SMILES IDX 8 1 18 2 9 3 14 4 10 5 12 6 6 7 7 8 5 9 4 10 19 11 3 12
REMARK SMILES IDX 20 13 2 14 1 15 15 16 17 17 16 18 11 19 13 21
REMARK H PARENT 11 20 13 22
ROOT
ATOM      1  C   UNL     1      -7.003   2.999  -1.195  1.00  0.00     0.033 A 
ATOM      2  C   UNL     1      -6.244   3.312  -0.091  1.00  0.00     0.102 A 
ATOM      3  C   UNL     1      -6.646   2.022  -2.094  1.00  0.00     0.063 A 
ATOM      4  C   UNL     1      -5.062   2.605   0.127  1.00  0.00     0.315 A 
ATOM      5  C   UNL     1      -5.462   1.315  -1.876  1.00  0.00     0.165 A 
ATOM      6  C   UNL     1      -4.670   1.607  -0.764  1.00  0.00     0.237 A 
ENDROOT
BRANCH   1   7
ATOM      7  C   UNL     1      -8.269   3.756  -1.430  1.00  0.00     0.193 C 
ATOM      8  O   UNL     1      -8.358   4.886  -0.926  1.00  0.00    -0.289 OA
BRANCH   7   9
ATOM      9  C   UNL     1      -9.368   3.213  -2.212  1.00  0.00     0.023 A 
ATOM     10  C   UNL     1      -9.419   3.432  -3.589  1.00  0.00     0.012 A 
ATOM     11  C   UNL     1     -10.372   2.474  -1.587  1.00  0.00     0.012 A 
ATOM     12  C   UNL     1     -10.473   2.912  -4.339  1.00  0.00     0.004 A 
ATOM     13  C   UNL     1     -11.426   1.952  -2.337  1.00  0.00     0.004 A 
ATOM     14  C   UNL     1     -11.477   2.171  -3.714  1.00  0.00    -0.051 A 
ATOM     15  C   UNL     1     -12.604   1.616  -4.516  1.00  0.00     0.044 C 
ENDBRANCH   7   9
ENDBRANCH   1   7
BRANCH   4  16
ATOM     16  N   UNL     1      -4.267   2.917   1.265  1.00  0.00     0.066 N 
ATOM     17  O   UNL     1      -3.080   3.283   1.093  1.00  0.00    -0.258 OA
ATOM     18  O   UNL     1      -4.777   2.817   2.405  1.00  0.00    -0.258 OA
ENDBRANCH   4  16
BRANCH   5  19
ATOM     19  O   UNL     1      -5.093   0.342  -2.755  1.00  0.00    -0.504 OA
ATOM     20  H   UNL     1      -5.214   0.663  -3.664  1.00  0.00     0.293 HD
ENDBRANCH   5  19
BRANCH   6  21
ATOM     21  O   UNL     1      -3.515   0.909  -0.561  1.00  0.00    -0.500 OA
ATOM     22  H   UNL     1      -2.897   1.445  -0.042  1.00  0.00     0.294 HD
ENDBRANCH   6  21
TORSDOF 5
ENDMDL
MODEL 9
REMARK VINA RESULT:    -3.574      3.636      6.811
REMARK INTER + INTRA:          -5.158
REMARK INTER:                  -4.319
REMARK INTRA:                  -0.839
REMARK UNBOUND:                -0.749
REMARK SMILES Cc1ccc(C(=O)c2cc(O)c(O)c([N+](=O)[O-])c2)cc1
REMARK SMILES IDX 8 1 18 2 9 3 14 4 10 5 12 6 6 7 7 8 5 9 4 10 19 11 3 12
REMARK SMILES IDX 20 13 2 14 1 15 15 16 17 17 16 18 11 19 13 21
REMARK H PARENT 11 20 13 22
ROOT
ATOM      1  C   UNL     1      -9.679   3.133  -2.743  1.00  0.00     0.033 A 
ATOM      2  C   UNL     1     -10.550   2.334  -3.447  1.00  0.00     0.102 A 
ATOM      3  C   UNL     1     -10.090   4.225  -2.016  1.00  0.00     0.063 A 
ATOM      4  C   UNL     1     -11.909   2.644  -3.421  1.00  0.00     0.315 A 
ATOM      5  C   UNL     1     -11.450   4.535  -1.990  1.00  0.00     0.165 A 
ATOM      6  C   UNL     1     -12.360   3.744  -2.692  1.00  0.00     0.237 A 
ENDROOT
BRANCH   1   7
ATOM      7  C   UNL     1      -8.223   2.802  -2.771  1.00  0.00     0.193 C 
ATOM      8  O   UNL     1      -7.720   2.539  -3.875  1.00  0.00    -0.289 OA
BRANCH   7   9
ATOM      9  C   UNL     1      -7.404   2.781  -1.570  1.00  0.00     0.023 A 
ATOM     10  C   UNL     1      -6.210   3.500  -1.527  1.00  0.00     0.012 A 
ATOM     11  C   UNL     1      -7.813   2.042  -0.460  1.00  0.00     0.012 A 
ATOM     12  C   UNL     1      -5.426   3.480  -0.374  1.00  0.00     0.004 A 
ATOM     13  C   UNL     1      -7.029   2.022   0.694  1.00  0.00     0.004 A 
ATOM     14  C   UNL     1      -5.835   2.741   0.737  1.00  0.00    -0.051 A 
ATOM     15  C   UNL     1      -4.995   2.719   1.969  1.00  0.00     0.044 C 
ENDBRANCH   7   9
ENDBRANCH   1   7
BRANCH   4  16
ATOM     16  N   UNL     1     -12.821   1.826  -4.143  1.00  0.00     0.066 N 
ATOM     17  O   UNL     1     -12.863   0.597  -3.893  1.00  0.00    -0.258 OA
ATOM     18  O   UNL     1     -13.557   2.357  -5.008  1.00  0.00    -0.258 OA
ENDBRANCH   4  16
BRANCH   5  19
ATOM     19  O   UNL     1     -11.877   5.613  -1.273  1.00  0.00    -0.504 OA
ATOM     20  H   UNL     1     -12.080   6.346  -1.878  1.00  0.00     0.293 HD
ENDBRANCH   5  19
BRANCH   6  21
ATOM     21  O   UNL     1     -13.688   4.057  -2.659  1.00  0.00    -0.500 OA
ATOM     22  H   UNL     1     -13.803   5.008  -2.809  1.00  0.00     0.294 HD
ENDBRANCH   6  21
TORSDOF 5
ENDMDL
