MODEL 1
REMARK VINA RESULT:    -4.707      0.000      0.000
REMARK INTER + INTRA:          -6.534
REMARK INTER:                  -5.808
REMARK INTRA:                  -0.727
REMARK UNBOUND:                -0.727
REMARK SMILES Cc1ccc(C(=O)c2cc(O)c(O)c([N+](=O)[O-])c2)cc1
REMARK SMILES IDX 8 1 18 2 9 3 14 4 10 5 12 6 6 7 7 8 5 9 4 10 19 11 3 12
REMARK SMILES IDX 20 13 2 14 1 15 15 16 17 17 16 18 11 19 13 21
REMARK H PARENT 11 20 13 22
ROOT
ATOM      1  C   UNL     1      -4.755  -5.730   4.690  1.00  0.00     0.033 A 
ATOM      2  C   UNL     1      -4.713  -4.472   5.244  1.00  0.00     0.102 A 
ATOM      3  C   UNL     1      -4.294  -6.005   3.424  1.00  0.00     0.063 A 
ATOM      4  C   UNL     1      -4.177  -3.429   4.489  1.00  0.00     0.315 A 
ATOM      5  C   UNL     1      -3.759  -4.961   2.668  1.00  0.00     0.165 A 
ATOM      6  C   UNL     1      -3.700  -3.673   3.201  1.00  0.00     0.237 A 
ENDROOT
BRANCH   1   7
ATOM      7  C   UNL     1      -5.329  -6.848   5.498  1.00  0.00     0.193 C 
ATOM      8  O   UNL     1      -4.893  -7.989   5.282  1.00  0.00    -0.289 OA
BRANCH   7   9
ATOM      9  C   UNL     1      -6.357  -6.635   6.504  1.00  0.00     0.023 A 
ATOM     10  C   UNL     1      -7.697  -6.867   6.192  1.00  0.00     0.012 A 
ATOM     11  C   UNL     1      -6.004  -6.198   7.781  1.00  0.00     0.012 A 
ATOM     12  C   UNL     1      -8.683  -6.662   7.158  1.00  0.00     0.004 A 
ATOM     13  C   UNL     1      -6.990  -5.994   8.747  1.00  0.00     0.004 A 
ATOM     14  C   UNL     1      -8.330  -6.226   8.435  1.00  0.00    -0.051 A 
ATOM     15  C   UNL     1      -9.384  -6.006   9.466  1.00  0.00     0.044 C 
ENDBRANCH   7   9
ENDBRANCH   1   7
BRANCH   4  16
ATOM     16  N   UNL     1      -4.126  -2.122   5.048  1.00  0.00     0.066 N 
ATOM     17  O   UNL     1      -4.224  -1.132   4.284  1.00  0.00    -0.258 OA
ATOM     18  O   UNL     1      -3.986  -1.999   6.287  1.00  0.00    -0.258 OA
ENDBRANCH   4  16
BRANCH   5  19
ATOM     19  O   UNL     1      -3.296  -5.214   1.412  1.00  0.00    -0.504 OA
ATOM     20  H   UNL     1      -2.385  -4.887   1.329  1.00  0.00     0.293 HD
ENDBRANCH   5  19
BRANCH   6  21
ATOM     21  O   UNL     1      -3.174  -2.660   2.453  1.00  0.00    -0.500 OA
ATOM     22  H   UNL     1      -3.822  -2.372   1.792  1.00  0.00     0.294 HD
ENDBRANCH   6  21
TORSDOF 5
ENDMDL
MODEL 2
REMARK VINA RESULT:    -4.705      2.036      3.599
REMARK INTER + INTRA:          -6.532
REMARK INTER:                  -5.801
REMARK INTRA:                  -0.731
REMARK UNBOUND:                -0.727
REMARK SMILES Cc1ccc(C(=O)c2cc(O)c(O)c([N+](=O)[O-])c2)cc1
REMARK SMILES IDX 8 1 18 2 9 3 14 4 10 5 12 6 6 7 7 8 5 9 4 10 19 11 3 12
REMARK SMILES IDX 20 13 2 14 1 15 15 16 17 17 16 18 11 19 13 21
REMARK H PARENT 11 20 13 22
ROOT
ATOM      1  C   UNL     1      -5.843  -4.417   5.018  1.00  0.00     0.033 A 
ATOM      2  C   UNL     1      -5.459  -5.186   3.944  1.00  0.00     0.102 A 
ATOM      3  C   UNL     1      -5.364  -3.147   5.237  1.00  0.00     0.063 A 
ATOM      4  C   UNL     1      -4.545  -4.652   3.035  1.00  0.00     0.315 A 
ATOM      5  C   UNL     1      -4.449  -2.614   4.329  1.00  0.00     0.165 A 
ATOM      6  C   UNL     1      -4.040  -3.367   3.227  1.00  0.00     0.237 A 
ENDROOT
BRANCH   1   7
ATOM      7  C   UNL     1      -6.822  -4.989   5.992  1.00  0.00     0.193 C 
ATOM      8  O   UNL     1      -7.577  -4.194   6.572  1.00  0.00    -0.289 OA
BRANCH   7   9
ATOM      9  C   UNL     1      -6.908  -6.414   6.265  1.00  0.00     0.023 A 
ATOM     10  C   UNL     1      -6.268  -6.949   7.383  1.00  0.00     0.012 A 
ATOM     11  C   UNL     1      -7.630  -7.246   5.410  1.00  0.00     0.012 A 
ATOM     12  C   UNL     1      -6.351  -8.317   7.646  1.00  0.00     0.004 A 
ATOM     13  C   UNL     1      -7.714  -8.614   5.673  1.00  0.00     0.004 A 
ATOM     14  C   UNL     1      -7.074  -9.150   6.791  1.00  0.00    -0.051 A 
ATOM     15  C   UNL     1      -7.161 -10.611   7.071  1.00  0.00     0.044 C 
ENDBRANCH   7   9
ENDBRANCH   1   7
BRANCH   4  16
ATOM     16  N   UNL     1      -4.139  -5.434   1.919  1.00  0.00     0.066 N 
ATOM     17  O   UNL     1      -4.970  -6.208   1.387  1.00  0.00    -0.258 OA
ATOM     18  O   UNL     1      -2.963  -5.327   1.500  1.00  0.00    -0.258 OA
ENDBRANCH   4  16
BRANCH   5  19
ATOM     19  O   UNL     1      -3.965  -1.356   4.529  1.00  0.00    -0.504 OA
ATOM     20  H   UNL     1      -2.997  -1.363   4.444  1.00  0.00     0.293 HD
ENDBRANCH   5  19
BRANCH   6  21
ATOM     21  O   UNL     1      -3.145  -2.834   2.346  1.00  0.00    -0.500 OA
ATOM     22  H   UNL     1      -3.044  -3.426   1.584  1.00  0.00     0.294 HD
ENDBRANCH   6  21
TORSDOF 5
ENDMDL
MODEL 3
REMARK VINA RESULT:    -3.716      2.048      2.566
REMARK INTER + INTRA:          -5.312
REMARK INTER:                  -5.075
REMARK INTRA:                  -0.237
REMARK UNBOUND:                -0.727
REMARK SMILES Cc1ccc(C(=O)c2cc(O)c(O)c([N+](=O)[O-])c2)cc1
REMARK SMILES IDX 8 1 18 2 9 3 14 4 10 5 12 6 6 7 7 8 5 9 4 10 19 11 3 12
REMARK SMILES IDX 20 13 2 14 1 15 15 16 17 17 16 18 11 19 13 21
REMARK H PARENT 11 20 13 22
ROOT
ATOM      1  C   UNL     1      -6.008  -5.036   5.342  1.00  0.00     0.033 A 
ATOM      2  C   UNL     1      -5.380  -3.858   5.673  1.00  0.00     0.102 A 
ATOM      3  C   UNL     1      -5.896  -5.619   4.102  1.00  0.00     0.063 A 
ATOM      4  C   UNL     1      -4.593  -3.228   4.709  1.00  0.00     0.315 A 
ATOM      5  C   UNL     1      -5.109  -4.989   3.138  1.00  0.00     0.165 A 
ATOM      6  C   UNL     1      -4.457  -3.793   3.442  1.00  0.00     0.237 A 
ENDROOT
BRANCH   1   7
ATOM      7  C   UNL     1      -6.852  -5.711   6.374  1.00  0.00     0.193 C 
ATOM      8  O   UNL     1      -7.607  -4.994   7.049  1.00  0.00    -0.289 OA
BRANCH   7   9
ATOM      9  C   UNL     1      -6.809  -7.146   6.599  1.00  0.00     0.023 A 
ATOM     10  C   UNL     1      -7.780  -7.758   7.393  1.00  0.00     0.012 A 
ATOM     11  C   UNL     1      -5.797  -7.913   6.022  1.00  0.00     0.012 A 
ATOM     12  C   UNL     1      -7.738  -9.135   7.608  1.00  0.00     0.004 A 
ATOM     13  C   UNL     1      -5.755  -9.291   6.237  1.00  0.00     0.004 A 
ATOM     14  C   UNL     1      -6.726  -9.902   7.031  1.00  0.00    -0.051 A 
ATOM     15  C   UNL     1      -6.681 -11.374   7.263  1.00  0.00     0.044 C 
ENDBRANCH   7   9
ENDBRANCH   1   7
BRANCH   4  16
ATOM     16  N   UNL     1      -3.937  -2.010   5.037  1.00  0.00     0.066 N 
ATOM     17  O   UNL     1      -4.141  -1.000   4.321  1.00  0.00    -0.258 OA
ATOM     18  O   UNL     1      -3.175  -1.981   6.032  1.00  0.00    -0.258 OA
ENDBRANCH   4  16
BRANCH   5  19
ATOM     19  O   UNL     1      -4.985  -5.553   1.903  1.00  0.00    -0.504 OA
ATOM     20  H   UNL     1      -5.200  -6.499   1.955  1.00  0.00     0.293 HD
ENDBRANCH   5  19
BRANCH   6  21
ATOM     21  O   UNL     1      -3.689  -3.186   2.490  1.00  0.00    -0.500 OA
ATOM     22  H   UNL     1      -4.245  -2.614   1.939  1.00  0.00     0.294 HD
ENDBRANCH   6  21
TORSDOF 5
ENDMDL
MODEL 4
REMARK VINA RESULT:    -3.714      1.447      2.852
REMARK INTER + INTRA:          -5.309
REMARK INTER:                  -5.081
REMARK INTRA:                  -0.229
REMARK UNBOUND:                -0.727
REMARK SMILES Cc1ccc(C(=O)c2cc(O)c(O)c([N+](=O)[O-])c2)cc1
REMARK SMILES IDX 8 1 18 2 9 3 14 4 10 5 12 6 6 7 7 8 5 9 4 10 19 11 3 12
REMARK SMILES IDX 20 13 2 14 1 15 15 16 17 17 16 18 11 19 13 21
REMARK H PARENT 11 20 13 22
ROOT
ATOM      1  C   UNL     1      -5.064  -5.846   4.980  1.00  0.00     0.033 A 
ATOM      2  C   UNL     1      -4.856  -6.141   3.652  1.00  0.00     0.102 A 
ATOM      3  C   UNL     1      -4.685  -4.653   5.547  1.00  0.00     0.063 A 
ATOM      4  C   UNL     1      -4.235  -5.187   2.846  1.00  0.00     0.315 A 
ATOM      5  C   UNL     1      -4.062  -3.699   4.742  1.00  0.00     0.165 A 
ATOM      6  C   UNL     1      -3.838  -3.966   3.390  1.00  0.00     0.237 A 
ENDROOT
BRANCH   1   7
ATOM      7  C   UNL     1      -5.729  -6.868   5.843  1.00  0.00     0.193 C 
ATOM      8  O   UNL     1      -5.314  -8.034   5.767  1.00  0.00    -0.289 OA
BRANCH   7   9
ATOM      9  C   UNL     1      -6.820  -6.535   6.745  1.00  0.00     0.023 A 
ATOM     10  C   UNL     1      -7.374  -5.255   6.727  1.00  0.00     0.012 A 
ATOM     11  C   UNL     1      -7.314  -7.496   7.627  1.00  0.00     0.012 A 
ATOM     12  C   UNL     1      -8.421  -4.936   7.592  1.00  0.00     0.004 A 
ATOM     13  C   UNL     1      -8.361  -7.177   8.493  1.00  0.00     0.004 A 
ATOM     14  C   UNL     1      -8.915  -5.897   8.475  1.00  0.00    -0.051 A 
ATOM     15  C   UNL     1     -10.033  -5.556   9.400  1.00  0.00     0.044 C 
ENDBRANCH   7   9
ENDBRANCH   1   7
BRANCH   4  16
ATOM     16  N   UNL     1      -4.014  -5.478   1.472  1.00  0.00     0.066 N 
ATOM     17  O   UNL     1      -2.842  -5.443   1.026  1.00  0.00    -0.258 OA
ATOM     18  O   UNL     1      -4.996  -5.760   0.747  1.00  0.00    -0.258 OA
ENDBRANCH   4  16
BRANCH   5  19
ATOM     19  O   UNL     1      -3.680  -2.510   5.287  1.00  0.00    -0.504 OA
ATOM     20  H   UNL     1      -2.725  -2.525   5.464  1.00  0.00     0.293 HD
ENDBRANCH   5  19
BRANCH   6  21
ATOM     21  O   UNL     1      -3.229  -3.025   2.612  1.00  0.00    -0.500 OA
ATOM     22  H   UNL     1      -3.729  -2.195   2.653  1.00  0.00     0.294 HD
ENDBRANCH   6  21
TORSDOF 5
ENDMDL
MODEL 5
REMARK VINA RESULT:    -3.532     10.076     11.198
REMARK INTER + INTRA:          -5.084
REMARK INTER:                  -4.144
REMARK INTRA:                  -0.941
REMARK UNBOUND:                -0.727
REMARK SMILES Cc1ccc(C(=O)c2cc(O)c(O)c([N+](=O)[O-])c2)cc1
REMARK SMILES IDX 8 1 18 2 9 3 14 4 10 5 12 6 6 7 7 8 5 9 4 10 19 11 3 12
REMARK SMILES IDX 20 13 2 14 1 15 15 16 17 17 16 18 11 19 13 21
REMARK H PARENT 11 20 13 22
ROOT
ATOM      1  C   UNL     1      -8.402 -13.232  12.134  1.00  0.00     0.033 A 
ATOM      2  C   UNL     1      -8.489 -13.931  10.953  1.00  0.00     0.102 A 
ATOM      3  C   UNL     1      -7.203 -12.919  12.730  1.00  0.00     0.063 A 
ATOM      4  C   UNL     1      -7.308 -14.340  10.332  1.00  0.00     0.315 A 
ATOM      5  C   UNL     1      -6.023 -13.328  12.110  1.00  0.00     0.165 A 
ATOM      6  C   UNL     1      -6.075 -14.039  10.910  1.00  0.00     0.237 A 
ENDROOT
BRANCH   1   7
ATOM      7  C   UNL     1      -9.666 -12.794  12.800  1.00  0.00     0.193 C 
ATOM      8  O   UNL     1     -10.312 -13.654  13.417  1.00  0.00    -0.289 OA
BRANCH   7   9
ATOM      9  C   UNL     1     -10.143 -11.421  12.742  1.00  0.00     0.023 A 
ATOM     10  C   UNL     1     -10.712 -10.832  13.871  1.00  0.00     0.012 A 
ATOM     11  C   UNL     1     -10.030 -10.693  11.557  1.00  0.00     0.012 A 
ATOM     12  C   UNL     1     -11.169  -9.516  13.815  1.00  0.00     0.004 A 
ATOM     13  C   UNL     1     -10.486  -9.376  11.501  1.00  0.00     0.004 A 
ATOM     14  C   UNL     1     -11.056  -8.787  12.630  1.00  0.00    -0.051 A 
ATOM     15  C   UNL     1     -11.546  -7.380  12.570  1.00  0.00     0.044 C 
ENDBRANCH   7   9
ENDBRANCH   1   7
BRANCH   4  16
ATOM     16  N   UNL     1      -7.382 -15.064   9.110  1.00  0.00     0.066 N 
ATOM     17  O   UNL     1      -6.495 -15.914   8.855  1.00  0.00    -0.258 OA
ATOM     18  O   UNL     1      -8.330 -14.832   8.325  1.00  0.00    -0.258 OA
ENDBRANCH   4  16
BRANCH   5  19
ATOM     19  O   UNL     1      -4.825 -13.026  12.686  1.00  0.00    -0.504 OA
ATOM     20  H   UNL     1      -4.135 -13.606  12.324  1.00  0.00     0.293 HD
ENDBRANCH   5  19
BRANCH   6  21
ATOM     21  O   UNL     1      -4.914 -14.433  10.312  1.00  0.00    -0.500 OA
ATOM     22  H   UNL     1      -4.577 -15.231  10.749  1.00  0.00     0.294 HD
ENDBRANCH   6  21
TORSDOF 5
ENDMDL
MODEL 6
REMARK VINA RESULT:    -3.442      3.380      6.277
REMARK INTER + INTRA:          -4.974
REMARK INTER:                  -4.266
REMARK INTRA:                  -0.708
REMARK UNBOUND:                -0.727
REMARK SMILES Cc1ccc(C(=O)c2cc(O)c(O)c([N+](=O)[O-])c2)cc1
REMARK SMILES IDX 8 1 18 2 9 3 14 4 10 5 12 6 6 7 7 8 5 9 4 10 19 11 3 12
REMARK SMILES IDX 20 13 2 14 1 15 15 16 17 17 16 18 11 19 13 21
REMARK H PARENT 11 20 13 22
ROOT
ATOM      1  C   UNL     1      -6.550  -7.449   6.366  1.00  0.00     0.033 A 
ATOM      2  C   UNL     1      -7.362  -6.625   7.111  1.00  0.00     0.102 A 
ATOM      3  C   UNL     1      -6.537  -8.815   6.513  1.00  0.00     0.063 A 
ATOM      4  C   UNL     1      -8.210  -7.202   8.055  1.00  0.00     0.315 A 
ATOM      5  C   UNL     1      -7.386  -9.393   7.458  1.00  0.00     0.165 A 
ATOM      6  C   UNL     1      -8.223  -8.585   8.229  1.00  0.00     0.237 A 
ENDROOT
BRANCH   1   7
ATOM      7  C   UNL     1      -5.641  -6.831   5.354  1.00  0.00     0.193 C 
ATOM      8  O   UNL     1      -5.237  -7.558   4.433  1.00  0.00    -0.289 OA
BRANCH   7   9
ATOM      9  C   UNL     1      -5.231  -5.438   5.422  1.00  0.00     0.023 A 
ATOM     10  C   UNL     1      -5.762  -4.510   4.526  1.00  0.00     0.012 A 
ATOM     11  C   UNL     1      -4.307  -5.028   6.383  1.00  0.00     0.012 A 
ATOM     12  C   UNL     1      -5.368  -3.173   4.591  1.00  0.00     0.004 A 
ATOM     13  C   UNL     1      -3.913  -3.691   6.449  1.00  0.00     0.004 A 
ATOM     14  C   UNL     1      -4.444  -2.763   5.553  1.00  0.00    -0.051 A 
ATOM     15  C   UNL     1      -4.023  -1.335   5.621  1.00  0.00     0.044 C 
ENDBRANCH   7   9
ENDBRANCH   1   7
BRANCH   4  16
ATOM     16  N   UNL     1      -9.056  -6.363   8.832  1.00  0.00     0.066 N 
ATOM     17  O   UNL     1      -9.659  -6.855   9.816  1.00  0.00    -0.258 OA
ATOM     18  O   UNL     1      -9.173  -5.157   8.512  1.00  0.00    -0.258 OA
ENDBRANCH   4  16
BRANCH   5  19
ATOM     19  O   UNL     1      -7.388 -10.746   7.617  1.00  0.00    -0.504 OA
ATOM     20  H   UNL     1      -6.473 -11.067   7.684  1.00  0.00     0.293 HD
ENDBRANCH   5  19
BRANCH   6  21
ATOM     21  O   UNL     1      -9.049  -9.162   9.150  1.00  0.00    -0.500 OA
ATOM     22  H   UNL     1      -8.889  -8.768  10.023  1.00  0.00     0.294 HD
ENDBRANCH   6  21
TORSDOF 5
ENDMDL
MODEL 7
REMARK VINA RESULT:    -3.432      3.660      6.946
REMARK INTER + INTRA:          -4.962
REMARK INTER:                  -4.036
REMARK INTRA:                  -0.926
REMARK UNBOUND:                -0.727
REMARK SMILES Cc1ccc(C(=O)c2cc(O)c(O)c([N+](=O)[O-])c2)cc1
REMARK SMILES IDX 8 1 18 2 9 3 14 4 10 5 12 6 6 7 7 8 5 9 4 10 19 11 3 12
REMARK SMILES IDX 20 13 2 14 1 15 15 16 17 17 16 18 11 19 13 21
REMARK H PARENT 11 20 13 22
ROOT
ATOM      1  C   UNL     1      -7.198  -7.160   6.182  1.00  0.00     0.033 A 
ATOM      2  C   UNL     1      -6.974  -8.514   6.278  1.00  0.00     0.102 A 
ATOM      3  C   UNL     1      -7.984  -6.468   7.073  1.00  0.00     0.063 A 
ATOM      4  C   UNL     1      -7.568  -9.215   7.327  1.00  0.00     0.315 A 
ATOM      5  C   UNL     1      -8.579  -7.170   8.121  1.00  0.00     0.165 A 
ATOM      6  C   UNL     1      -8.371  -8.544   8.249  1.00  0.00     0.237 A 
ENDROOT
BRANCH   1   7
ATOM      7  C   UNL     1      -6.561  -6.408   5.059  1.00  0.00     0.193 C 
ATOM      8  O   UNL     1      -6.682  -6.879   3.918  1.00  0.00    -0.289 OA
BRANCH   7   9
ATOM      9  C   UNL     1      -5.824  -5.172   5.267  1.00  0.00     0.023 A 
ATOM     10  C   UNL     1      -4.795  -5.123   6.207  1.00  0.00     0.012 A 
ATOM     11  C   UNL     1      -6.146  -4.035   4.526  1.00  0.00     0.012 A 
ATOM     12  C   UNL     1      -4.088  -3.938   6.406  1.00  0.00     0.004 A 
ATOM     13  C   UNL     1      -5.439  -2.848   4.725  1.00  0.00     0.004 A 
ATOM     14  C   UNL     1      -4.410  -2.800   5.665  1.00  0.00    -0.051 A 
ATOM     15  C   UNL     1      -3.655  -1.532   5.880  1.00  0.00     0.044 C 
ENDBRANCH   7   9
ENDBRANCH   1   7
BRANCH   4  16
ATOM     16  N   UNL     1      -7.345 -10.615   7.440  1.00  0.00     0.066 N 
ATOM     17  O   UNL     1      -6.273 -11.095   6.998  1.00  0.00    -0.258 OA
ATOM     18  O   UNL     1      -8.225 -11.328   7.977  1.00  0.00    -0.258 OA
ENDBRANCH   4  16
BRANCH   5  19
ATOM     19  O   UNL     1      -9.361  -6.501   9.015  1.00  0.00    -0.504 OA
ATOM     20  H   UNL     1     -10.024  -5.976   8.537  1.00  0.00     0.293 HD
ENDBRANCH   5  19
BRANCH   6  21
ATOM     21  O   UNL     1      -8.958  -9.220   9.279  1.00  0.00    -0.500 OA
ATOM     22  H   UNL     1      -9.188 -10.117   8.991  1.00  0.00     0.294 HD
ENDBRANCH   6  21
TORSDOF 5
ENDMDL
MODEL 8
REMARK VINA RESULT:    -3.387      3.323      7.123
REMARK INTER + INTRA:          -4.906
REMARK INTER:                  -4.213
REMARK INTRA:                  -0.693
REMARK UNBOUND:                -0.727
REMARK SMILES Cc1ccc(C(=O)c2cc(O)c(O)c([N+](=O)[O-])c2)cc1
REMARK SMILES IDX 8 1 18 2 9 3 14 4 10 5 12 6 6 7 7 8 5 9 4 10 19 11 3 12
REMARK SMILES IDX 20 13 2 14 1 15 15 16 17 17 16 18 11 19 13 21
REMARK H PARENT 11 20 13 22
ROOT
ATOM      1  C   UNL     1      -7.106  -6.249   7.041  1.00  0.00     0.033 A 
ATOM      2  C   UNL     1      -6.748  -7.556   6.805  1.00  0.00     0.102 A 
ATOM      3  C   UNL     1      -8.074  -5.891   7.949  1.00  0.00     0.063 A 
ATOM      4  C   UNL     1      -7.396  -8.563   7.520  1.00  0.00     0.315 A 
ATOM      5  C   UNL     1      -8.723  -6.899   8.663  1.00  0.00     0.165 A 
ATOM      6  C   UNL     1      -8.383  -8.236   8.449  1.00  0.00     0.237 A 
ENDROOT
BRANCH   1   7
ATOM      7  C   UNL     1      -6.412  -5.169   6.275  1.00  0.00     0.193 C 
ATOM      8  O   UNL     1      -6.344  -4.050   6.805  1.00  0.00    -0.289 OA
BRANCH   7   9
ATOM      9  C   UNL     1      -5.832  -5.395   4.961  1.00  0.00     0.023 A 
ATOM     10  C   UNL     1      -4.448  -5.349   4.792  1.00  0.00     0.012 A 
ATOM     11  C   UNL     1      -6.659  -5.658   3.869  1.00  0.00     0.012 A 
ATOM     12  C   UNL     1      -3.892  -5.566   3.532  1.00  0.00     0.004 A 
ATOM     13  C   UNL     1      -6.103  -5.875   2.608  1.00  0.00     0.004 A 
ATOM     14  C   UNL     1      -4.719  -5.829   2.439  1.00  0.00    -0.051 A 
ATOM     15  C   UNL     1      -4.124  -6.060   1.092  1.00  0.00     0.044 C 
ENDBRANCH   7   9
ENDBRANCH   1   7
BRANCH   4  16
ATOM     16  N   UNL     1      -7.037  -9.919   7.288  1.00  0.00     0.066 N 
ATOM     17  O   UNL     1      -6.100 -10.171   6.492  1.00  0.00    -0.258 OA
ATOM     18  O   UNL     1      -7.666 -10.824   7.886  1.00  0.00    -0.258 OA
ENDBRANCH   4  16
BRANCH   5  19
ATOM     19  O   UNL     1      -9.685  -6.564   9.568  1.00  0.00    -0.504 OA
ATOM     20  H   UNL     1      -9.470  -5.705   9.969  1.00  0.00     0.293 HD
ENDBRANCH   5  19
BRANCH   6  21
ATOM     21  O   UNL     1      -9.024  -9.212   9.155  1.00  0.00    -0.500 OA
ATOM     22  H   UNL     1      -8.372  -9.825   9.530  1.00  0.00     0.294 HD
ENDBRANCH   6  21
TORSDOF 5
ENDMDL
MODEL 9
REMARK VINA RESULT:    -3.008     10.024     10.828
REMARK INTER + INTRA:          -4.438
REMARK INTER:                  -3.517
REMARK INTRA:                  -0.921
REMARK UNBOUND:                -0.727
REMARK SMILES Cc1ccc(C(=O)c2cc(O)c(O)c([N+](=O)[O-])c2)cc1
REMARK SMILES IDX 8 1 18 2 9 3 14 4 10 5 12 6 6 7 7 8 5 9 4 10 19 11 3 12
REMARK SMILES IDX 20 13 2 14 1 15 15 16 17 17 16 18 11 19 13 21
REMARK H PARENT 11 20 13 22
ROOT
ATOM      1  C   UNL     1      -8.673 -13.458  11.487  1.00  0.00     0.033 A 
ATOM      2  C   UNL     1      -7.387 -13.292  11.946  1.00  0.00     0.102 A 
ATOM      3  C   UNL     1      -8.965 -14.048  10.280  1.00  0.00     0.063 A 
ATOM      4  C   UNL     1      -6.332 -13.745  11.152  1.00  0.00     0.315 A 
ATOM      5  C   UNL     1      -7.910 -14.500   9.486  1.00  0.00     0.165 A 
ATOM      6  C   UNL     1      -6.593 -14.349   9.923  1.00  0.00     0.237 A 
ENDROOT
BRANCH   1   7
ATOM      7  C   UNL     1      -9.803 -12.973  12.336  1.00  0.00     0.193 C 
ATOM      8  O   UNL     1     -10.265 -13.764  13.173  1.00  0.00    -0.289 OA
BRANCH   7   9
ATOM      9  C   UNL     1     -10.356 -11.635  12.208  1.00  0.00     0.023 A 
ATOM     10  C   UNL     1      -9.682 -10.545  12.759  1.00  0.00     0.012 A 
ATOM     11  C   UNL     1     -11.562 -11.440  11.534  1.00  0.00     0.012 A 
ATOM     12  C   UNL     1     -10.213  -9.262  12.635  1.00  0.00     0.004 A 
ATOM     13  C   UNL     1     -12.093 -10.156  11.410  1.00  0.00     0.004 A 
ATOM     14  C   UNL     1     -11.419  -9.066  11.961  1.00  0.00    -0.051 A 
ATOM     15  C   UNL     1     -11.986  -7.694  11.831  1.00  0.00     0.044 C 
ENDBRANCH   7   9
ENDBRANCH   1   7
BRANCH   4  16
ATOM     16  N   UNL     1      -4.997 -13.581  11.614  1.00  0.00     0.066 N 
ATOM     17  O   UNL     1      -4.164 -13.014  10.867  1.00  0.00    -0.258 OA
ATOM     18  O   UNL     1      -4.693 -14.007  12.752  1.00  0.00    -0.258 OA
ENDBRANCH   4  16
BRANCH   5  19
ATOM     19  O   UNL     1      -8.180 -15.089   8.288  1.00  0.00    -0.504 OA
ATOM     20  H   UNL     1      -8.401 -14.407   7.632  1.00  0.00     0.293 HD
ENDBRANCH   5  19
BRANCH   6  21
ATOM     21  O   UNL     1      -5.570 -14.795   9.138  1.00  0.00    -0.500 OA
ATOM     22  H   UNL     1      -5.020 -14.046   8.863  1.00  0.00     0.294 HD
ENDBRANCH   6  21
TORSDOF 5
ENDMDL
