MODEL 1
REMARK VINA RESULT:    -6.482      0.000      0.000
REMARK INTER + INTRA:          -8.160
REMARK INTER:                  -7.618
REMARK INTRA:                  -0.542
REMARK UNBOUND:                -0.542
REMARK SMILES O=C(O)c1cc(-c2ccc(F)cc2F)ccc1O
REMARK SMILES IDX 6 1 5 2 15 3 4 4 17 5 16 6 7 7 13 8 12 9 8 10 10 11 9 12
REMARK SMILES IDX 14 13 11 14 2 15 1 16 3 17 18 19
REMARK H PARENT 3 18 18 20
ROOT
ATOM      1  C   UNL     1      -5.388  -5.120   4.926  1.00  0.00    -0.014 A 
ATOM      2  C   UNL     1      -5.034  -5.621   3.674  1.00  0.00     0.028 A 
ATOM      3  C   UNL     1      -4.992  -3.835   5.300  1.00  0.00     0.013 A 
ATOM      4  C   UNL     1      -4.284  -4.839   2.795  1.00  0.00     0.102 A 
ATOM      5  C   UNL     1      -3.889  -3.555   3.169  1.00  0.00     0.130 A 
ATOM      6  C   UNL     1      -4.243  -3.053   4.422  1.00  0.00     0.048 A 
ENDROOT
BRANCH   1   7
ATOM      7  C   UNL     1      -6.164  -5.931   5.839  1.00  0.00     0.018 A 
ATOM      8  C   UNL     1      -7.237  -6.686   5.365  1.00  0.00     0.133 A 
ATOM      9  C   UNL     1      -7.983  -7.467   6.248  1.00  0.00     0.079 A 
ATOM     10  C   UNL     1      -5.837  -5.957   7.194  1.00  0.00     0.015 A 
ATOM     11  C   UNL     1      -7.657  -7.493   7.604  1.00  0.00     0.126 A 
ATOM     12  C   UNL     1      -6.583  -6.738   8.076  1.00  0.00     0.040 A 
ATOM     13  F   UNL     1      -7.567  -6.670   4.066  1.00  0.00    -0.206 F 
ATOM     14  F   UNL     1      -8.372  -8.242   8.452  1.00  0.00    -0.207 F 
ENDBRANCH   1   7
BRANCH   4  15
ATOM     15  C   UNL     1      -3.925  -5.381   1.492  1.00  0.00     0.339 C 
ATOM     16  O   UNL     1      -2.785  -5.421   1.025  1.00  0.00    -0.246 OA
BRANCH  15  17
ATOM     17  O   UNL     1      -5.005  -5.858   0.814  1.00  0.00    -0.478 OA
ATOM     18  H   UNL     1      -5.819  -5.355   1.025  1.00  0.00     0.297 HD
ENDBRANCH  15  17
ENDBRANCH   4  15
BRANCH   5  19
ATOM     19  O   UNL     1      -3.157  -2.774   2.325  1.00  0.00    -0.507 OA
ATOM     20  H   UNL     1      -2.305  -2.563   2.746  1.00  0.00     0.293 HD
ENDBRANCH   5  19
TORSDOF 4
ENDMDL
MODEL 2
REMARK VINA RESULT:    -6.454      1.708      3.195
REMARK INTER + INTRA:          -8.127
REMARK INTER:                  -7.465
REMARK INTRA:                  -0.662
REMARK UNBOUND:                -0.542
REMARK SMILES O=C(O)c1cc(-c2ccc(F)cc2F)ccc1O
REMARK SMILES IDX 6 1 5 2 15 3 4 4 17 5 16 6 7 7 13 8 12 9 8 10 10 11 9 12
REMARK SMILES IDX 14 13 11 14 2 15 1 16 3 17 18 19
REMARK H PARENT 3 18 18 20
ROOT
ATOM      1  C   UNL     1      -5.319  -5.131   4.989  1.00  0.00    -0.014 A 
ATOM      2  C   UNL     1      -5.040  -3.833   5.413  1.00  0.00     0.028 A 
ATOM      3  C   UNL     1      -4.860  -5.572   3.747  1.00  0.00     0.013 A 
ATOM      4  C   UNL     1      -4.303  -2.974   4.597  1.00  0.00     0.102 A 
ATOM      5  C   UNL     1      -3.845  -3.415   3.356  1.00  0.00     0.130 A 
ATOM      6  C   UNL     1      -4.123  -4.715   2.931  1.00  0.00     0.048 A 
ENDROOT
BRANCH   1   7
ATOM      7  C   UNL     1      -6.084  -6.022   5.834  1.00  0.00     0.018 A 
ATOM      8  C   UNL     1      -5.784  -6.129   7.192  1.00  0.00     0.133 A 
ATOM      9  C   UNL     1      -6.524  -6.988   8.004  1.00  0.00     0.079 A 
ATOM     10  C   UNL     1      -7.125  -6.773   5.288  1.00  0.00     0.015 A 
ATOM     11  C   UNL     1      -7.564  -7.740   7.458  1.00  0.00     0.126 A 
ATOM     12  C   UNL     1      -7.865  -7.631   6.100  1.00  0.00     0.040 A 
ATOM     13  F   UNL     1      -4.785  -5.416   7.732  1.00  0.00    -0.206 F 
ATOM     14  F   UNL     1      -8.276  -8.565   8.236  1.00  0.00    -0.207 F 
ENDBRANCH   1   7
BRANCH   4  15
ATOM     15  C   UNL     1      -4.023  -1.622   5.059  1.00  0.00     0.339 C 
ATOM     16  O   UNL     1      -4.041  -0.609   4.356  1.00  0.00    -0.246 OA
BRANCH  15  17
ATOM     17  O   UNL     1      -3.729  -1.578   6.387  1.00  0.00    -0.478 OA
ATOM     18  H   UNL     1      -3.543  -2.470   6.749  1.00  0.00     0.297 HD
ENDBRANCH  15  17
ENDBRANCH   4  15
BRANCH   5  19
ATOM     19  O   UNL     1      -3.122  -2.593   2.544  1.00  0.00    -0.507 OA
ATOM     20  H   UNL     1      -2.423  -2.164   3.067  1.00  0.00     0.293 HD
ENDBRANCH   5  19
TORSDOF 4
ENDMDL
MODEL 3
REMARK VINA RESULT:    -5.531      3.923      6.159
REMARK INTER + INTRA:          -7.043
REMARK INTER:                  -5.983
REMARK INTRA:                  -1.060
REMARK UNBOUND:                -0.542
REMARK SMILES O=C(O)c1cc(-c2ccc(F)cc2F)ccc1O
REMARK SMILES IDX 6 1 5 2 15 3 4 4 17 5 16 6 7 7 13 8 12 9 8 10 10 11 9 12
REMARK SMILES IDX 14 13 11 14 2 15 1 16 3 17 18 19
REMARK H PARENT 3 18 18 20
ROOT
ATOM      1  C   UNL     1      -6.513  -6.603   6.166  1.00  0.00    -0.014 A 
ATOM      2  C   UNL     1      -6.388  -7.991   6.205  1.00  0.00     0.028 A 
ATOM      3  C   UNL     1      -7.390  -5.956   7.037  1.00  0.00     0.013 A 
ATOM      4  C   UNL     1      -7.141  -8.734   7.114  1.00  0.00     0.102 A 
ATOM      5  C   UNL     1      -8.018  -8.088   7.985  1.00  0.00     0.130 A 
ATOM      6  C   UNL     1      -8.143  -6.698   7.946  1.00  0.00     0.048 A 
ENDROOT
BRANCH   1   7
ATOM      7  C   UNL     1      -5.733  -5.831   5.222  1.00  0.00     0.018 A 
ATOM      8  C   UNL     1      -6.151  -5.718   3.895  1.00  0.00     0.133 A 
ATOM      9  C   UNL     1      -5.396  -4.973   2.989  1.00  0.00     0.079 A 
ATOM     10  C   UNL     1      -4.562  -5.199   5.641  1.00  0.00     0.015 A 
ATOM     11  C   UNL     1      -4.226  -4.343   3.407  1.00  0.00     0.126 A 
ATOM     12  C   UNL     1      -3.809  -4.455   4.734  1.00  0.00     0.040 A 
ATOM     13  F   UNL     1      -7.272  -6.321   3.476  1.00  0.00    -0.206 F 
ATOM     14  F   UNL     1      -3.501  -3.628   2.537  1.00  0.00    -0.207 F 
ENDBRANCH   1   7
BRANCH   4  15
ATOM     15  C   UNL     1      -6.996 -10.183   7.139  1.00  0.00     0.339 C 
ATOM     16  O   UNL     1      -7.728 -10.963   7.752  1.00  0.00    -0.246 OA
BRANCH  15  17
ATOM     17  O   UNL     1      -5.940 -10.611   6.395  1.00  0.00    -0.478 OA
ATOM     18  H   UNL     1      -5.255 -11.041   6.948  1.00  0.00     0.297 HD
ENDBRANCH  15  17
ENDBRANCH   4  15
BRANCH   5  19
ATOM     19  O   UNL     1      -8.762  -8.796   8.882  1.00  0.00    -0.507 OA
ATOM     20  H   UNL     1      -8.486  -9.728   8.857  1.00  0.00     0.293 HD
ENDBRANCH   5  19
TORSDOF 4
ENDMDL
MODEL 4
REMARK VINA RESULT:    -5.531      4.456      6.791
REMARK INTER + INTRA:          -7.042
REMARK INTER:                  -5.982
REMARK INTRA:                  -1.060
REMARK UNBOUND:                -0.542
REMARK SMILES O=C(O)c1cc(-c2ccc(F)cc2F)ccc1O
REMARK SMILES IDX 6 1 5 2 15 3 4 4 17 5 16 6 7 7 13 8 12 9 8 10 10 11 9 12
REMARK SMILES IDX 14 13 11 14 2 15 1 16 3 17 18 19
REMARK H PARENT 3 18 18 20
ROOT
ATOM      1  C   UNL     1      -6.563  -6.286   6.419  1.00  0.00    -0.014 A 
ATOM      2  C   UNL     1      -7.504  -5.783   7.315  1.00  0.00     0.028 A 
ATOM      3  C   UNL     1      -6.357  -7.663   6.324  1.00  0.00     0.013 A 
ATOM      4  C   UNL     1      -8.240  -6.655   8.118  1.00  0.00     0.102 A 
ATOM      5  C   UNL     1      -8.034  -8.031   8.023  1.00  0.00     0.130 A 
ATOM      6  C   UNL     1      -7.092  -8.535   7.126  1.00  0.00     0.048 A 
ENDROOT
BRANCH   1   7
ATOM      7  C   UNL     1      -5.798  -5.382   5.587  1.00  0.00     0.018 A 
ATOM      8  C   UNL     1      -4.678  -4.732   6.105  1.00  0.00     0.133 A 
ATOM      9  C   UNL     1      -3.944  -3.861   5.300  1.00  0.00     0.079 A 
ATOM     10  C   UNL     1      -6.183  -5.163   4.265  1.00  0.00     0.015 A 
ATOM     11  C   UNL     1      -4.329  -3.641   3.978  1.00  0.00     0.126 A 
ATOM     12  C   UNL     1      -5.449  -4.292   3.460  1.00  0.00     0.040 A 
ATOM     13  F   UNL     1      -4.296  -4.930   7.375  1.00  0.00    -0.206 F 
ATOM     14  F   UNL     1      -3.625  -2.805   3.204  1.00  0.00    -0.207 F 
ENDBRANCH   1   7
BRANCH   4  15
ATOM     15  C   UNL     1      -9.219  -6.108   9.048  1.00  0.00     0.339 C 
ATOM     16  O   UNL     1      -9.783  -6.741   9.944  1.00  0.00    -0.246 OA
BRANCH  15  17
ATOM     17  O   UNL     1      -9.462  -4.787   8.828  1.00  0.00    -0.478 OA
ATOM     18  H   UNL     1      -9.790  -4.338   9.635  1.00  0.00     0.297 HD
ENDBRANCH  15  17
ENDBRANCH   4  15
BRANCH   5  19
ATOM     19  O   UNL     1      -8.743  -8.900   8.798  1.00  0.00    -0.507 OA
ATOM     20  H   UNL     1      -9.401  -9.355   8.244  1.00  0.00     0.293 HD
ENDBRANCH   5  19
TORSDOF 4
ENDMDL
MODEL 5
REMARK VINA RESULT:    -5.489      4.265      6.566
REMARK INTER + INTRA:          -6.993
REMARK INTER:                  -5.984
REMARK INTRA:                  -1.009
REMARK UNBOUND:                -0.542
REMARK SMILES O=C(O)c1cc(-c2ccc(F)cc2F)ccc1O
REMARK SMILES IDX 6 1 5 2 15 3 4 4 17 5 16 6 7 7 13 8 12 9 8 10 10 11 9 12
REMARK SMILES IDX 14 13 11 14 2 15 1 16 3 17 18 19
REMARK H PARENT 3 18 18 20
ROOT
ATOM      1  C   UNL     1      -6.562  -6.291   6.306  1.00  0.00    -0.014 A 
ATOM      2  C   UNL     1      -7.496  -5.774   7.203  1.00  0.00     0.028 A 
ATOM      3  C   UNL     1      -6.349  -7.668   6.238  1.00  0.00     0.013 A 
ATOM      4  C   UNL     1      -8.217  -6.633   8.033  1.00  0.00     0.102 A 
ATOM      5  C   UNL     1      -8.004  -8.010   7.964  1.00  0.00     0.130 A 
ATOM      6  C   UNL     1      -7.069  -8.528   7.066  1.00  0.00     0.048 A 
ENDROOT
BRANCH   1   7
ATOM      7  C   UNL     1      -5.812  -5.400   5.447  1.00  0.00     0.018 A 
ATOM      8  C   UNL     1      -6.104  -5.332   4.084  1.00  0.00     0.133 A 
ATOM      9  C   UNL     1      -5.378  -4.472   3.259  1.00  0.00     0.079 A 
ATOM     10  C   UNL     1      -4.798  -4.608   5.984  1.00  0.00     0.015 A 
ATOM     11  C   UNL     1      -4.363  -3.681   3.796  1.00  0.00     0.126 A 
ATOM     12  C   UNL     1      -4.074  -3.749   5.159  1.00  0.00     0.040 A 
ATOM     13  F   UNL     1      -7.074  -6.088   3.552  1.00  0.00    -0.206 F 
ATOM     14  F   UNL     1      -3.667  -2.855   3.005  1.00  0.00    -0.207 F 
ENDBRANCH   1   7
BRANCH   4  15
ATOM     15  C   UNL     1      -9.188  -6.073   8.962  1.00  0.00     0.339 C 
ATOM     16  O   UNL     1      -9.738  -6.691   9.878  1.00  0.00    -0.246 OA
BRANCH  15  17
ATOM     17  O   UNL     1      -9.440  -4.759   8.719  1.00  0.00    -0.478 OA
ATOM     18  H   UNL     1     -10.291  -4.631   8.248  1.00  0.00     0.297 HD
ENDBRANCH  15  17
ENDBRANCH   4  15
BRANCH   5  19
ATOM     19  O   UNL     1      -8.699  -8.867   8.765  1.00  0.00    -0.507 OA
ATOM     20  H   UNL     1      -8.449  -8.708   9.692  1.00  0.00     0.293 HD
ENDBRANCH   5  19
TORSDOF 4
ENDMDL
