MODEL 1
REMARK VINA RESULT:    -6.555      0.000      0.000
REMARK INTER + INTRA:          -8.436
REMARK INTER:                  -7.704
REMARK INTRA:                  -0.732
REMARK UNBOUND:                -0.732
REMARK SMILES O=C(O)c1cc(-c2ccc(F)cc2F)ccc1O
REMARK SMILES IDX 6 1 5 2 15 3 4 4 17 5 16 6 7 7 13 8 12 9 8 10 10 11 9 12
REMARK SMILES IDX 14 13 11 14 2 15 1 16 3 17 18 19
REMARK H PARENT 3 18 18 20
ROOT
ATOM      1  C   UNL     1      -6.663  -0.863   3.251  1.00  0.00    -0.014 A 
ATOM      2  C   UNL     1      -6.106   0.409   3.127  1.00  0.00     0.028 A 
ATOM      3  C   UNL     1      -5.893  -1.992   2.971  1.00  0.00     0.013 A 
ATOM      4  C   UNL     1      -4.778   0.554   2.723  1.00  0.00     0.102 A 
ATOM      5  C   UNL     1      -4.008  -0.575   2.443  1.00  0.00     0.130 A 
ATOM      6  C   UNL     1      -4.566  -1.849   2.567  1.00  0.00     0.048 A 
ENDROOT
BRANCH   1   7
ATOM      7  C   UNL     1      -8.040  -1.013   3.668  1.00  0.00     0.018 A 
ATOM      8  C   UNL     1      -8.493  -0.384   4.828  1.00  0.00     0.133 A 
ATOM      9  C   UNL     1      -9.822  -0.532   5.227  1.00  0.00     0.079 A 
ATOM     10  C   UNL     1      -8.915  -1.788   2.907  1.00  0.00     0.015 A 
ATOM     11  C   UNL     1     -10.696  -1.307   4.467  1.00  0.00     0.126 A 
ATOM     12  C   UNL     1     -10.243  -1.935   3.307  1.00  0.00     0.040 A 
ATOM     13  F   UNL     1      -7.664   0.362   5.572  1.00  0.00    -0.206 F 
ATOM     14  F   UNL     1     -11.972  -1.450   4.850  1.00  0.00    -0.207 F 
ENDBRANCH   1   7
BRANCH   4  15
ATOM     15  C   UNL     1      -4.215   1.891   2.600  1.00  0.00     0.339 C 
ATOM     16  O   UNL     1      -3.501   2.282   1.674  1.00  0.00    -0.246 OA
BRANCH  15  17
ATOM     17  O   UNL     1      -4.564   2.698   3.639  1.00  0.00    -0.478 OA
ATOM     18  H   UNL     1      -3.813   3.253   3.937  1.00  0.00     0.297 HD
ENDBRANCH  15  17
ENDBRANCH   4  15
BRANCH   5  19
ATOM     19  O   UNL     1      -2.709  -0.456   2.048  1.00  0.00    -0.507 OA
ATOM     20  H   UNL     1      -2.667  -0.504   1.077  1.00  0.00     0.293 HD
ENDBRANCH   5  19
TORSDOF 4
ENDMDL
MODEL 2
REMARK VINA RESULT:    -6.496      2.193      3.605
REMARK INTER + INTRA:          -8.367
REMARK INTER:                  -7.507
REMARK INTRA:                  -0.859
REMARK UNBOUND:                -0.732
REMARK SMILES O=C(O)c1cc(-c2ccc(F)cc2F)ccc1O
REMARK SMILES IDX 6 1 5 2 15 3 4 4 17 5 16 6 7 7 13 8 12 9 8 10 10 11 9 12
REMARK SMILES IDX 14 13 11 14 2 15 1 16 3 17 18 19
REMARK H PARENT 3 18 18 20
ROOT
ATOM      1  C   UNL     1      -6.747  -1.608   2.318  1.00  0.00    -0.014 A 
ATOM      2  C   UNL     1      -5.868  -2.687   2.224  1.00  0.00     0.028 A 
ATOM      3  C   UNL     1      -6.279  -0.308   2.128  1.00  0.00     0.013 A 
ATOM      4  C   UNL     1      -4.521  -2.466   1.939  1.00  0.00     0.102 A 
ATOM      5  C   UNL     1      -4.052  -1.166   1.749  1.00  0.00     0.130 A 
ATOM      6  C   UNL     1      -4.932  -0.086   1.843  1.00  0.00     0.048 A 
ENDROOT
BRANCH   1   7
ATOM      7  C   UNL     1      -8.145  -1.836   2.615  1.00  0.00     0.018 A 
ATOM      8  C   UNL     1      -8.917  -2.639   1.774  1.00  0.00     0.133 A 
ATOM      9  C   UNL     1     -10.265  -2.856   2.064  1.00  0.00     0.079 A 
ATOM     10  C   UNL     1      -8.719  -1.253   3.744  1.00  0.00     0.015 A 
ATOM     11  C   UNL     1     -10.839  -2.272   3.192  1.00  0.00     0.126 A 
ATOM     12  C   UNL     1     -10.066  -1.471   4.032  1.00  0.00     0.040 A 
ATOM     13  F   UNL     1      -8.381  -3.205   0.684  1.00  0.00    -0.206 F 
ATOM     14  F   UNL     1     -12.132  -2.480   3.471  1.00  0.00    -0.207 F 
ENDBRANCH   1   7
BRANCH   4  15
ATOM     15  C   UNL     1      -3.619  -3.606   1.844  1.00  0.00     0.339 C 
ATOM     16  O   UNL     1      -2.403  -3.573   2.050  1.00  0.00    -0.246 OA
BRANCH  15  17
ATOM     17  O   UNL     1      -4.267  -4.751   1.496  1.00  0.00    -0.478 OA
ATOM     18  H   UNL     1      -4.395  -4.818   0.527  1.00  0.00     0.297 HD
ENDBRANCH  15  17
ENDBRANCH   4  15
BRANCH   5  19
ATOM     19  O   UNL     1      -2.739  -0.929   1.469  1.00  0.00    -0.507 OA
ATOM     20  H   UNL     1      -2.249  -0.832   2.304  1.00  0.00     0.293 HD
ENDBRANCH   5  19
TORSDOF 4
ENDMDL
MODEL 3
REMARK VINA RESULT:    -6.469      1.466      2.800
REMARK INTER + INTRA:          -8.336
REMARK INTER:                  -7.595
REMARK INTRA:                  -0.741
REMARK UNBOUND:                -0.732
REMARK SMILES O=C(O)c1cc(-c2ccc(F)cc2F)ccc1O
REMARK SMILES IDX 6 1 5 2 15 3 4 4 17 5 16 6 7 7 13 8 12 9 8 10 10 11 9 12
REMARK SMILES IDX 14 13 11 14 2 15 1 16 3 17 18 19
REMARK H PARENT 3 18 18 20
ROOT
ATOM      1  C   UNL     1      -6.279  -0.831   3.044  1.00  0.00    -0.014 A 
ATOM      2  C   UNL     1      -5.666  -2.020   2.650  1.00  0.00     0.028 A 
ATOM      3  C   UNL     1      -5.596   0.379   2.924  1.00  0.00     0.013 A 
ATOM      4  C   UNL     1      -4.369  -1.999   2.135  1.00  0.00     0.102 A 
ATOM      5  C   UNL     1      -3.686  -0.789   2.016  1.00  0.00     0.130 A 
ATOM      6  C   UNL     1      -4.300   0.400   2.410  1.00  0.00     0.048 A 
ENDROOT
BRANCH   1   7
ATOM      7  C   UNL     1      -7.623  -0.852   3.579  1.00  0.00     0.018 A 
ATOM      8  C   UNL     1      -7.912  -0.190   4.773  1.00  0.00     0.133 A 
ATOM      9  C   UNL     1      -9.210  -0.212   5.285  1.00  0.00     0.079 A 
ATOM     10  C   UNL     1      -8.631  -1.535   2.898  1.00  0.00     0.015 A 
ATOM     11  C   UNL     1     -10.217  -0.896   4.605  1.00  0.00     0.126 A 
ATOM     12  C   UNL     1      -9.927  -1.557   3.411  1.00  0.00     0.040 A 
ATOM     13  F   UNL     1      -6.955   0.469   5.441  1.00  0.00    -0.206 F 
ATOM     14  F   UNL     1     -11.463  -0.918   5.096  1.00  0.00    -0.207 F 
ENDBRANCH   1   7
BRANCH   4  15
ATOM     15  C   UNL     1      -3.747  -3.252   1.729  1.00  0.00     0.339 C 
ATOM     16  O   UNL     1      -4.291  -4.136   1.062  1.00  0.00    -0.246 OA
BRANCH  15  17
ATOM     17  O   UNL     1      -2.463  -3.359   2.167  1.00  0.00    -0.478 OA
ATOM     18  H   UNL     1      -1.824  -3.378   1.424  1.00  0.00     0.297 HD
ENDBRANCH  15  17
ENDBRANCH   4  15
BRANCH   5  19
ATOM     19  O   UNL     1      -2.419  -0.748   1.515  1.00  0.00    -0.507 OA
ATOM     20  H   UNL     1      -2.162   0.181   1.380  1.00  0.00     0.293 HD
ENDBRANCH   5  19
TORSDOF 4
ENDMDL
MODEL 4
REMARK VINA RESULT:    -6.428      1.659      2.092
REMARK INTER + INTRA:          -8.288
REMARK INTER:                  -7.567
REMARK INTRA:                  -0.720
REMARK UNBOUND:                -0.732
REMARK SMILES O=C(O)c1cc(-c2ccc(F)cc2F)ccc1O
REMARK SMILES IDX 6 1 5 2 15 3 4 4 17 5 16 6 7 7 13 8 12 9 8 10 10 11 9 12
REMARK SMILES IDX 14 13 11 14 2 15 1 16 3 17 18 19
REMARK H PARENT 3 18 18 20
ROOT
ATOM      1  C   UNL     1      -6.502  -1.360   2.539  1.00  0.00    -0.014 A 
ATOM      2  C   UNL     1      -6.112  -0.023   2.597  1.00  0.00     0.028 A 
ATOM      3  C   UNL     1      -5.551  -2.354   2.306  1.00  0.00     0.013 A 
ATOM      4  C   UNL     1      -4.771   0.322   2.423  1.00  0.00     0.102 A 
ATOM      5  C   UNL     1      -3.821  -0.672   2.191  1.00  0.00     0.130 A 
ATOM      6  C   UNL     1      -4.211  -2.010   2.132  1.00  0.00     0.048 A 
ENDROOT
BRANCH   1   7
ATOM      7  C   UNL     1      -7.893  -1.718   2.718  1.00  0.00     0.018 A 
ATOM      8  C   UNL     1      -8.530  -2.540   1.787  1.00  0.00     0.133 A 
ATOM      9  C   UNL     1      -9.871  -2.882   1.963  1.00  0.00     0.079 A 
ATOM     10  C   UNL     1      -8.595  -1.241   3.824  1.00  0.00     0.015 A 
ATOM     11  C   UNL     1     -10.573  -2.404   3.069  1.00  0.00     0.126 A 
ATOM     12  C   UNL     1      -9.935  -1.584   3.999  1.00  0.00     0.040 A 
ATOM     13  F   UNL     1      -7.869  -3.005   0.717  1.00  0.00    -0.206 F 
ATOM     14  F   UNL     1     -11.860  -2.733   3.239  1.00  0.00    -0.207 F 
ENDBRANCH   1   7
BRANCH   4  15
ATOM     15  C   UNL     1      -4.385   1.725   2.488  1.00  0.00     0.339 C 
ATOM     16  O   UNL     1      -3.564   2.274   1.750  1.00  0.00    -0.246 OA
BRANCH  15  17
ATOM     17  O   UNL     1      -5.038   2.397   3.475  1.00  0.00    -0.478 OA
ATOM     18  H   UNL     1      -5.475   3.207   3.136  1.00  0.00     0.297 HD
ENDBRANCH  15  17
ENDBRANCH   4  15
BRANCH   5  19
ATOM     19  O   UNL     1      -2.506  -0.356   2.019  1.00  0.00    -0.507 OA
ATOM     20  H   UNL     1      -2.442   0.501   1.563  1.00  0.00     0.293 HD
ENDBRANCH   5  19
TORSDOF 4
ENDMDL
MODEL 5
REMARK VINA RESULT:    -5.645      6.334      7.728
REMARK INTER + INTRA:          -7.366
REMARK INTER:                  -6.365
REMARK INTRA:                  -1.002
REMARK UNBOUND:                -0.732
REMARK SMILES O=C(O)c1cc(-c2ccc(F)cc2F)ccc1O
REMARK SMILES IDX 6 1 5 2 15 3 4 4 17 5 16 6 7 7 13 8 12 9 8 10 10 11 9 12
REMARK SMILES IDX 14 13 11 14 2 15 1 16 3 17 18 19
REMARK H PARENT 3 18 18 20
ROOT
ATOM      1  C   UNL     1     -11.647  -2.718   5.512  1.00  0.00    -0.014 A 
ATOM      2  C   UNL     1     -12.299  -2.488   6.723  1.00  0.00     0.028 A 
ATOM      3  C   UNL     1     -10.876  -3.868   5.342  1.00  0.00     0.013 A 
ATOM      4  C   UNL     1     -12.181  -3.409   7.764  1.00  0.00     0.102 A 
ATOM      5  C   UNL     1     -11.411  -4.560   7.594  1.00  0.00     0.130 A 
ATOM      6  C   UNL     1     -10.758  -4.789   6.382  1.00  0.00     0.048 A 
ENDROOT
BRANCH   1   7
ATOM      7  C   UNL     1     -11.767  -1.762   4.432  1.00  0.00     0.018 A 
ATOM      8  C   UNL     1     -10.786  -0.787   4.247  1.00  0.00     0.133 A 
ATOM      9  C   UNL     1     -10.906   0.132   3.204  1.00  0.00     0.079 A 
ATOM     10  C   UNL     1     -12.866  -1.819   3.575  1.00  0.00     0.015 A 
ATOM     11  C   UNL     1     -12.005   0.076   2.348  1.00  0.00     0.126 A 
ATOM     12  C   UNL     1     -12.985  -0.900   2.533  1.00  0.00     0.040 A 
ATOM     13  F   UNL     1      -9.725  -0.718   5.063  1.00  0.00    -0.206 F 
ATOM     14  F   UNL     1     -12.121   0.958   1.347  1.00  0.00    -0.207 F 
ENDBRANCH   1   7
BRANCH   4  15
ATOM     15  C   UNL     1     -12.871  -3.152   9.021  1.00  0.00     0.339 C 
ATOM     16  O   UNL     1     -14.091  -3.026   9.153  1.00  0.00    -0.246 OA
BRANCH  15  17
ATOM     17  O   UNL     1     -12.013  -3.061  10.074  1.00  0.00    -0.478 OA
ATOM     18  H   UNL     1     -11.214  -3.613   9.941  1.00  0.00     0.297 HD
ENDBRANCH  15  17
ENDBRANCH   4  15
BRANCH   5  19
ATOM     19  O   UNL     1     -11.284  -5.472   8.599  1.00  0.00    -0.507 OA
ATOM     20  H   UNL     1     -11.321  -5.010   9.454  1.00  0.00     0.293 HD
ENDBRANCH   5  19
TORSDOF 4
ENDMDL
MODEL 6
REMARK VINA RESULT:    -5.351      5.229      7.235
REMARK INTER + INTRA:          -7.021
REMARK INTER:                  -5.985
REMARK INTRA:                  -1.036
REMARK UNBOUND:                -0.732
REMARK SMILES O=C(O)c1cc(-c2ccc(F)cc2F)ccc1O
REMARK SMILES IDX 6 1 5 2 15 3 4 4 17 5 16 6 7 7 13 8 12 9 8 10 10 11 9 12
REMARK SMILES IDX 14 13 11 14 2 15 1 16 3 17 18 19
REMARK H PARENT 3 18 18 20
ROOT
ATOM      1  C   UNL     1     -11.618  -2.146   5.658  1.00  0.00    -0.014 A 
ATOM      2  C   UNL     1     -12.655  -2.199   4.728  1.00  0.00     0.028 A 
ATOM      3  C   UNL     1     -10.512  -1.328   5.424  1.00  0.00     0.013 A 
ATOM      4  C   UNL     1     -12.587  -1.435   3.562  1.00  0.00     0.102 A 
ATOM      5  C   UNL     1     -11.481  -0.618   3.328  1.00  0.00     0.130 A 
ATOM      6  C   UNL     1     -10.443  -0.564   4.260  1.00  0.00     0.048 A 
ENDROOT
BRANCH   1   7
ATOM      7  C   UNL     1     -11.687  -2.939   6.867  1.00  0.00     0.018 A 
ATOM      8  C   UNL     1     -12.107  -2.357   8.063  1.00  0.00     0.133 A 
ATOM      9  C   UNL     1     -12.172  -3.125   9.226  1.00  0.00     0.079 A 
ATOM     10  C   UNL     1     -11.335  -4.288   6.833  1.00  0.00     0.015 A 
ATOM     11  C   UNL     1     -11.819  -4.473   9.192  1.00  0.00     0.126 A 
ATOM     12  C   UNL     1     -11.401  -5.055   7.995  1.00  0.00     0.040 A 
ATOM     13  F   UNL     1     -12.447  -1.061   8.114  1.00  0.00    -0.206 F 
ATOM     14  F   UNL     1     -11.881  -5.212  10.308  1.00  0.00    -0.207 F 
ENDBRANCH   1   7
BRANCH   4  15
ATOM     15  C   UNL     1     -13.680  -1.505   2.603  1.00  0.00     0.339 C 
ATOM     16  O   UNL     1     -14.139  -2.542   2.118  1.00  0.00    -0.246 OA
BRANCH  15  17
ATOM     17  O   UNL     1     -14.167  -0.275   2.281  1.00  0.00    -0.478 OA
ATOM     18  H   UNL     1     -15.116  -0.188   2.509  1.00  0.00     0.297 HD
ENDBRANCH  15  17
ENDBRANCH   4  15
BRANCH   5  19
ATOM     19  O   UNL     1     -11.395   0.137   2.196  1.00  0.00    -0.507 OA
ATOM     20  H   UNL     1     -12.293   0.341   1.883  1.00  0.00     0.293 HD
ENDBRANCH   5  19
TORSDOF 4
ENDMDL
MODEL 7
REMARK VINA RESULT:    -5.228      6.136      7.402
REMARK INTER + INTRA:          -6.877
REMARK INTER:                  -5.797
REMARK INTRA:                  -1.080
REMARK UNBOUND:                -0.732
REMARK SMILES O=C(O)c1cc(-c2ccc(F)cc2F)ccc1O
REMARK SMILES IDX 6 1 5 2 15 3 4 4 17 5 16 6 7 7 13 8 12 9 8 10 10 11 9 12
REMARK SMILES IDX 14 13 11 14 2 15 1 16 3 17 18 19
REMARK H PARENT 3 18 18 20
ROOT
ATOM      1  C   UNL     1     -12.035  -2.102   4.027  1.00  0.00    -0.014 A 
ATOM      2  C   UNL     1     -12.635  -2.115   5.285  1.00  0.00     0.028 A 
ATOM      3  C   UNL     1     -10.888  -2.861   3.793  1.00  0.00     0.013 A 
ATOM      4  C   UNL     1     -12.088  -2.886   6.312  1.00  0.00     0.102 A 
ATOM      5  C   UNL     1     -10.941  -3.644   6.078  1.00  0.00     0.130 A 
ATOM      6  C   UNL     1     -10.341  -3.632   4.819  1.00  0.00     0.048 A 
ENDROOT
BRANCH   1   7
ATOM      7  C   UNL     1     -12.601  -1.302   2.962  1.00  0.00     0.018 A 
ATOM      8  C   UNL     1     -12.141  -0.003   2.742  1.00  0.00     0.133 A 
ATOM      9  C   UNL     1     -12.690   0.765   1.715  1.00  0.00     0.079 A 
ATOM     10  C   UNL     1     -13.607  -1.832   2.155  1.00  0.00     0.015 A 
ATOM     11  C   UNL     1     -13.696   0.235   0.908  1.00  0.00     0.126 A 
ATOM     12  C   UNL     1     -14.154  -1.064   1.128  1.00  0.00     0.040 A 
ATOM     13  F   UNL     1     -11.177   0.522   3.511  1.00  0.00    -0.206 F 
ATOM     14  F   UNL     1     -14.223   0.972  -0.078  1.00  0.00    -0.207 F 
ENDBRANCH   1   7
BRANCH   4  15
ATOM     15  C   UNL     1     -12.730  -2.885   7.619  1.00  0.00     0.339 C 
ATOM     16  O   UNL     1     -12.503  -3.690   8.526  1.00  0.00    -0.246 OA
BRANCH  15  17
ATOM     17  O   UNL     1     -13.634  -1.877   7.752  1.00  0.00    -0.478 OA
ATOM     18  H   UNL     1     -13.577  -1.450   8.632  1.00  0.00     0.297 HD
ENDBRANCH  15  17
ENDBRANCH   4  15
BRANCH   5  19
ATOM     19  O   UNL     1     -10.391  -4.404   7.067  1.00  0.00    -0.507 OA
ATOM     20  H   UNL     1     -10.814  -4.178   7.914  1.00  0.00     0.293 HD
ENDBRANCH   5  19
TORSDOF 4
ENDMDL
MODEL 8
REMARK VINA RESULT:    -5.199      4.082      6.294
REMARK INTER + INTRA:          -6.842
REMARK INTER:                  -5.758
REMARK INTRA:                  -1.084
REMARK UNBOUND:                -0.732
REMARK SMILES O=C(O)c1cc(-c2ccc(F)cc2F)ccc1O
REMARK SMILES IDX 6 1 5 2 15 3 4 4 17 5 16 6 7 7 13 8 12 9 8 10 10 11 9 12
REMARK SMILES IDX 14 13 11 14 2 15 1 16 3 17 18 19
REMARK H PARENT 3 18 18 20
ROOT
ATOM      1  C   UNL     1      -9.461  -1.300   3.521  1.00  0.00    -0.014 A 
ATOM      2  C   UNL     1     -10.279  -0.339   2.929  1.00  0.00     0.028 A 
ATOM      3  C   UNL     1     -10.028  -2.339   4.260  1.00  0.00     0.013 A 
ATOM      4  C   UNL     1     -11.665  -0.416   3.075  1.00  0.00     0.102 A 
ATOM      5  C   UNL     1     -12.231  -1.454   3.813  1.00  0.00     0.130 A 
ATOM      6  C   UNL     1     -11.412  -2.416   4.406  1.00  0.00     0.048 A 
ENDROOT
BRANCH   1   7
ATOM      7  C   UNL     1      -8.024  -1.221   3.371  1.00  0.00     0.018 A 
ATOM      8  C   UNL     1      -7.266  -0.471   4.271  1.00  0.00     0.133 A 
ATOM      9  C   UNL     1      -5.881  -0.397   4.123  1.00  0.00     0.079 A 
ATOM     10  C   UNL     1      -7.397  -1.897   2.325  1.00  0.00     0.015 A 
ATOM     11  C   UNL     1      -5.254  -1.072   3.076  1.00  0.00     0.126 A 
ATOM     12  C   UNL     1      -6.012  -1.823   2.177  1.00  0.00     0.040 A 
ATOM     13  F   UNL     1      -7.854   0.187   5.281  1.00  0.00    -0.206 F 
ATOM     14  F   UNL     1      -3.925  -1.001   2.933  1.00  0.00    -0.207 F 
ENDBRANCH   1   7
BRANCH   4  15
ATOM     15  C   UNL     1     -12.501   0.598   2.448  1.00  0.00     0.339 C 
ATOM     16  O   UNL     1     -13.734   0.580   2.406  1.00  0.00    -0.246 OA
BRANCH  15  17
ATOM     17  O   UNL     1     -11.771   1.603   1.893  1.00  0.00    -0.478 OA
ATOM     18  H   UNL     1     -10.984   1.824   2.436  1.00  0.00     0.297 HD
ENDBRANCH  15  17
ENDBRANCH   4  15
BRANCH   5  19
ATOM     19  O   UNL     1     -13.582  -1.547   3.967  1.00  0.00    -0.507 OA
ATOM     20  H   UNL     1     -13.938  -0.668   4.184  1.00  0.00     0.293 HD
ENDBRANCH   5  19
TORSDOF 4
ENDMDL
MODEL 9
REMARK VINA RESULT:    -5.140      4.402      6.679
REMARK INTER + INTRA:          -6.773
REMARK INTER:                  -5.689
REMARK INTRA:                  -1.084
REMARK UNBOUND:                -0.732
REMARK SMILES O=C(O)c1cc(-c2ccc(F)cc2F)ccc1O
REMARK SMILES IDX 6 1 5 2 15 3 4 4 17 5 16 6 7 7 13 8 12 9 8 10 10 11 9 12
REMARK SMILES IDX 14 13 11 14 2 15 1 16 3 17 18 19
REMARK H PARENT 3 18 18 20
ROOT
ATOM      1  C   UNL     1      -9.113  -1.502   3.730  1.00  0.00    -0.014 A 
ATOM      2  C   UNL     1      -9.283  -2.698   4.426  1.00  0.00     0.028 A 
ATOM      3  C   UNL     1     -10.225  -0.735   3.381  1.00  0.00     0.013 A 
ATOM      4  C   UNL     1     -10.564  -3.130   4.772  1.00  0.00     0.102 A 
ATOM      5  C   UNL     1     -11.675  -2.363   4.422  1.00  0.00     0.130 A 
ATOM      6  C   UNL     1     -11.506  -1.165   3.726  1.00  0.00     0.048 A 
ENDROOT
BRANCH   1   7
ATOM      7  C   UNL     1      -7.785  -1.055   3.370  1.00  0.00     0.018 A 
ATOM      8  C   UNL     1      -7.074  -0.212   4.225  1.00  0.00     0.133 A 
ATOM      9  C   UNL     1      -5.793   0.217   3.874  1.00  0.00     0.079 A 
ATOM     10  C   UNL     1      -7.216  -1.469   2.166  1.00  0.00     0.015 A 
ATOM     11  C   UNL     1      -5.225  -0.197   2.670  1.00  0.00     0.126 A 
ATOM     12  C   UNL     1      -5.936  -1.040   1.816  1.00  0.00     0.040 A 
ATOM     13  F   UNL     1      -7.607   0.197   5.385  1.00  0.00    -0.206 F 
ATOM     14  F   UNL     1      -3.996   0.214   2.332  1.00  0.00    -0.207 F 
ENDBRANCH   1   7
BRANCH   4  15
ATOM     15  C   UNL     1     -10.719  -4.382   5.498  1.00  0.00     0.339 C 
ATOM     16  O   UNL     1     -11.758  -4.771   6.037  1.00  0.00    -0.246 OA
BRANCH  15  17
ATOM     17  O   UNL     1      -9.570  -5.110   5.528  1.00  0.00    -0.478 OA
ATOM     18  H   UNL     1      -8.779  -4.540   5.628  1.00  0.00     0.297 HD
ENDBRANCH  15  17
ENDBRANCH   4  15
BRANCH   5  19
ATOM     19  O   UNL     1     -12.935  -2.766   4.751  1.00  0.00    -0.507 OA
ATOM     20  H   UNL     1     -13.421  -2.984   3.937  1.00  0.00     0.293 HD
ENDBRANCH   5  19
TORSDOF 4
ENDMDL
