MODEL 1
REMARK VINA RESULT:    -6.849      0.000      0.000
REMARK INTER + INTRA:          -8.983
REMARK INTER:                  -8.450
REMARK INTRA:                  -0.532
REMARK UNBOUND:                -0.532
REMARK SMILES Cc1ccc(C(=O)c2cc(O)c(O)c([N+](=O)[O-])c2)cc1
REMARK SMILES IDX 8 1 18 2 9 3 14 4 10 5 12 6 6 7 7 8 5 9 4 10 19 11 3 12
REMARK SMILES IDX 20 13 2 14 1 15 15 16 17 17 16 18 11 19 13 21
REMARK H PARENT 11 20 13 22
ROOT
ATOM      1  C   UNL     1      -5.828  -0.325   3.658  1.00  0.00     0.033 A 
ATOM      2  C   UNL     1      -5.394  -1.597   3.368  1.00  0.00     0.102 A 
ATOM      3  C   UNL     1      -5.240   0.802   3.134  1.00  0.00     0.063 A 
ATOM      4  C   UNL     1      -4.311  -1.752   2.503  1.00  0.00     0.315 A 
ATOM      5  C   UNL     1      -4.155   0.648   2.269  1.00  0.00     0.165 A 
ATOM      6  C   UNL     1      -3.691  -0.630   1.953  1.00  0.00     0.237 A 
ENDROOT
BRANCH   1   7
ATOM      7  C   UNL     1      -6.988  -0.159   4.584  1.00  0.00     0.193 C 
ATOM      8  O   UNL     1      -6.775   0.407   5.668  1.00  0.00    -0.289 OA
BRANCH   7   9
ATOM      9  C   UNL     1      -8.323  -0.632   4.254  1.00  0.00     0.023 A 
ATOM     10  C   UNL     1      -8.537  -1.354   3.080  1.00  0.00     0.012 A 
ATOM     11  C   UNL     1      -9.390  -0.364   5.112  1.00  0.00     0.012 A 
ATOM     12  C   UNL     1      -9.817  -1.807   2.764  1.00  0.00     0.004 A 
ATOM     13  C   UNL     1     -10.671  -0.818   4.796  1.00  0.00     0.004 A 
ATOM     14  C   UNL     1     -10.885  -1.540   3.622  1.00  0.00    -0.051 A 
ATOM     15  C   UNL     1     -12.253  -2.024   3.283  1.00  0.00     0.044 C 
ENDBRANCH   7   9
ENDBRANCH   1   7
BRANCH   4  16
ATOM     16  N   UNL     1      -3.851  -3.061   2.193  1.00  0.00     0.066 N 
ATOM     17  O   UNL     1      -4.695  -3.964   1.975  1.00  0.00    -0.258 OA
ATOM     18  O   UNL     1      -2.617  -3.275   2.147  1.00  0.00    -0.258 OA
ENDBRANCH   4  16
BRANCH   5  19
ATOM     19  O   UNL     1      -3.560   1.753   1.740  1.00  0.00    -0.504 OA
ATOM     20  H   UNL     1      -2.865   1.482   1.117  1.00  0.00     0.293 HD
ENDBRANCH   5  19
BRANCH   6  21
ATOM     21  O   UNL     1      -2.630  -0.768   1.106  1.00  0.00    -0.500 OA
ATOM     22  H   UNL     1      -1.910  -0.182   1.387  1.00  0.00     0.294 HD
ENDBRANCH   6  21
TORSDOF 5
ENDMDL
MODEL 2
REMARK VINA RESULT:    -6.727      1.777      3.437
REMARK INTER + INTRA:          -8.833
REMARK INTER:                  -8.344
REMARK INTRA:                  -0.489
REMARK UNBOUND:                -0.532
REMARK SMILES Cc1ccc(C(=O)c2cc(O)c(O)c([N+](=O)[O-])c2)cc1
REMARK SMILES IDX 8 1 18 2 9 3 14 4 10 5 12 6 6 7 7 8 5 9 4 10 19 11 3 12
REMARK SMILES IDX 20 13 2 14 1 15 15 16 17 17 16 18 11 19 13 21
REMARK H PARENT 11 20 13 22
ROOT
ATOM      1  C   UNL     1      -6.267  -1.783   1.969  1.00  0.00     0.033 A 
ATOM      2  C   UNL     1      -5.973  -0.442   2.056  1.00  0.00     0.102 A 
ATOM      3  C   UNL     1      -5.298  -2.756   1.898  1.00  0.00     0.063 A 
ATOM      4  C   UNL     1      -4.634  -0.052   2.073  1.00  0.00     0.315 A 
ATOM      5  C   UNL     1      -3.959  -2.366   1.914  1.00  0.00     0.165 A 
ATOM      6  C   UNL     1      -3.627  -1.014   2.002  1.00  0.00     0.237 A 
ENDROOT
BRANCH   1   7
ATOM      7  C   UNL     1      -7.701  -2.201   1.951  1.00  0.00     0.193 C 
ATOM      8  O   UNL     1      -8.128  -2.726   0.912  1.00  0.00    -0.289 OA
BRANCH   7   9
ATOM      9  C   UNL     1      -8.583  -2.011   3.092  1.00  0.00     0.023 A 
ATOM     10  C   UNL     1      -8.563  -0.807   3.797  1.00  0.00     0.012 A 
ATOM     11  C   UNL     1      -9.450  -3.032   3.481  1.00  0.00     0.012 A 
ATOM     12  C   UNL     1      -9.409  -0.626   4.890  1.00  0.00     0.004 A 
ATOM     13  C   UNL     1     -10.297  -2.851   4.575  1.00  0.00     0.004 A 
ATOM     14  C   UNL     1     -10.276  -1.647   5.280  1.00  0.00    -0.051 A 
ATOM     15  C   UNL     1     -11.179  -1.453   6.450  1.00  0.00     0.044 C 
ENDBRANCH   7   9
ENDBRANCH   1   7
BRANCH   4  16
ATOM     16  N   UNL     1      -4.315   1.331   2.163  1.00  0.00     0.066 N 
ATOM     17  O   UNL     1      -3.387   1.786   1.452  1.00  0.00    -0.258 OA
ATOM     18  O   UNL     1      -4.971   2.054   2.949  1.00  0.00    -0.258 OA
ENDBRANCH   4  16
BRANCH   5  19
ATOM     19  O   UNL     1      -2.985  -3.317   1.844  1.00  0.00    -0.504 OA
ATOM     20  H   UNL     1      -3.154  -4.005   2.509  1.00  0.00     0.293 HD
ENDBRANCH   5  19
BRANCH   6  21
ATOM     21  O   UNL     1      -2.313  -0.645   2.018  1.00  0.00    -0.500 OA
ATOM     22  H   UNL     1      -2.101  -0.159   1.205  1.00  0.00     0.294 HD
ENDBRANCH   6  21
TORSDOF 5
ENDMDL
MODEL 3
REMARK VINA RESULT:    -6.318      1.711      2.393
REMARK INTER + INTRA:          -8.328
REMARK INTER:                  -7.742
REMARK INTRA:                  -0.586
REMARK UNBOUND:                -0.532
REMARK SMILES Cc1ccc(C(=O)c2cc(O)c(O)c([N+](=O)[O-])c2)cc1
REMARK SMILES IDX 8 1 18 2 9 3 14 4 10 5 12 6 6 7 7 8 5 9 4 10 19 11 3 12
REMARK SMILES IDX 20 13 2 14 1 15 15 16 17 17 16 18 11 19 13 21
REMARK H PARENT 11 20 13 22
ROOT
ATOM      1  C   UNL     1      -6.822  -1.880   1.969  1.00  0.00     0.033 A 
ATOM      2  C   UNL     1      -5.865  -2.868   2.001  1.00  0.00     0.102 A 
ATOM      3  C   UNL     1      -6.515  -0.548   1.826  1.00  0.00     0.063 A 
ATOM      4  C   UNL     1      -4.525  -2.503   1.883  1.00  0.00     0.315 A 
ATOM      5  C   UNL     1      -5.174  -0.182   1.708  1.00  0.00     0.165 A 
ATOM      6  C   UNL     1      -4.178  -1.160   1.736  1.00  0.00     0.237 A 
ENDROOT
BRANCH   1   7
ATOM      7  C   UNL     1      -8.258  -2.272   2.096  1.00  0.00     0.193 C 
ATOM      8  O   UNL     1      -8.796  -2.793   1.107  1.00  0.00    -0.289 OA
BRANCH   7   9
ATOM      9  C   UNL     1      -9.018  -2.063   3.318  1.00  0.00     0.023 A 
ATOM     10  C   UNL     1      -8.992  -0.820   3.952  1.00  0.00     0.012 A 
ATOM     11  C   UNL     1      -9.774  -3.104   3.857  1.00  0.00     0.012 A 
ATOM     12  C   UNL     1      -9.721  -0.619   5.123  1.00  0.00     0.004 A 
ATOM     13  C   UNL     1     -10.504  -2.903   5.029  1.00  0.00     0.004 A 
ATOM     14  C   UNL     1     -10.478  -1.661   5.662  1.00  0.00    -0.051 A 
ATOM     15  C   UNL     1     -11.256  -1.446   6.916  1.00  0.00     0.044 C 
ENDBRANCH   7   9
ENDBRANCH   1   7
BRANCH   4  16
ATOM     16  N   UNL     1      -3.525  -3.513   1.914  1.00  0.00     0.066 N 
ATOM     17  O   UNL     1      -3.846  -4.693   1.633  1.00  0.00    -0.258 OA
ATOM     18  O   UNL     1      -2.352  -3.195   2.219  1.00  0.00    -0.258 OA
ENDBRANCH   4  16
BRANCH   5  19
ATOM     19  O   UNL     1      -4.850   1.134   1.565  1.00  0.00    -0.504 OA
ATOM     20  H   UNL     1      -5.104   1.437   0.678  1.00  0.00     0.293 HD
ENDBRANCH   5  19
BRANCH   6  21
ATOM     21  O   UNL     1      -2.870  -0.789   1.619  1.00  0.00    -0.500 OA
ATOM     22  H   UNL     1      -2.300  -1.567   1.724  1.00  0.00     0.294 HD
ENDBRANCH   6  21
TORSDOF 5
ENDMDL
MODEL 4
REMARK VINA RESULT:    -6.294      1.525      2.939
REMARK INTER + INTRA:          -8.298
REMARK INTER:                  -7.721
REMARK INTRA:                  -0.577
REMARK UNBOUND:                -0.532
REMARK SMILES Cc1ccc(C(=O)c2cc(O)c(O)c([N+](=O)[O-])c2)cc1
REMARK SMILES IDX 8 1 18 2 9 3 14 4 10 5 12 6 6 7 7 8 5 9 4 10 19 11 3 12
REMARK SMILES IDX 20 13 2 14 1 15 15 16 17 17 16 18 11 19 13 21
REMARK H PARENT 11 20 13 22
ROOT
ATOM      1  C   UNL     1      -6.529  -0.664   3.542  1.00  0.00     0.033 A 
ATOM      2  C   UNL     1      -5.987   0.534   3.137  1.00  0.00     0.102 A 
ATOM      3  C   UNL     1      -5.876  -1.865   3.400  1.00  0.00     0.063 A 
ATOM      4  C   UNL     1      -4.718   0.529   2.557  1.00  0.00     0.315 A 
ATOM      5  C   UNL     1      -4.607  -1.870   2.820  1.00  0.00     0.165 A 
ATOM      6  C   UNL     1      -4.028  -0.672   2.399  1.00  0.00     0.237 A 
ENDROOT
BRANCH   1   7
ATOM      7  C   UNL     1      -7.888  -0.659   4.162  1.00  0.00     0.193 C 
ATOM      8  O   UNL     1      -7.979  -0.251   5.330  1.00  0.00    -0.289 OA
BRANCH   7   9
ATOM      9  C   UNL     1      -9.073  -1.109   3.449  1.00  0.00     0.023 A 
ATOM     10  C   UNL     1      -9.067  -2.341   2.794  1.00  0.00     0.012 A 
ATOM     11  C   UNL     1     -10.215  -0.310   3.419  1.00  0.00     0.012 A 
ATOM     12  C   UNL     1     -10.203  -2.772   2.109  1.00  0.00     0.004 A 
ATOM     13  C   UNL     1     -11.352  -0.741   2.735  1.00  0.00     0.004 A 
ATOM     14  C   UNL     1     -11.346  -1.973   2.080  1.00  0.00    -0.051 A 
ATOM     15  C   UNL     1     -12.560  -2.434   1.347  1.00  0.00     0.044 C 
ENDBRANCH   7   9
ENDBRANCH   1   7
BRANCH   4  16
ATOM     16  N   UNL     1      -4.144   1.760   2.134  1.00  0.00     0.066 N 
ATOM     17  O   UNL     1      -3.215   1.737   1.292  1.00  0.00    -0.258 OA
ATOM     18  O   UNL     1      -4.584   2.830   2.614  1.00  0.00    -0.258 OA
ENDBRANCH   4  16
BRANCH   5  19
ATOM     19  O   UNL     1      -3.944  -3.051   2.671  1.00  0.00    -0.504 OA
ATOM     20  H   UNL     1      -3.097  -3.010   3.144  1.00  0.00     0.293 HD
ENDBRANCH   5  19
BRANCH   6  21
ATOM     21  O   UNL     1      -2.786  -0.689   1.833  1.00  0.00    -0.500 OA
ATOM     22  H   UNL     1      -2.838  -0.361   0.922  1.00  0.00     0.294 HD
ENDBRANCH   6  21
TORSDOF 5
ENDMDL
MODEL 5
REMARK VINA RESULT:    -6.100      5.618      7.983
REMARK INTER + INTRA:          -8.059
REMARK INTER:                  -7.013
REMARK INTRA:                  -1.046
REMARK UNBOUND:                -0.532
REMARK SMILES Cc1ccc(C(=O)c2cc(O)c(O)c([N+](=O)[O-])c2)cc1
REMARK SMILES IDX 8 1 18 2 9 3 14 4 10 5 12 6 6 7 7 8 5 9 4 10 19 11 3 12
REMARK SMILES IDX 20 13 2 14 1 15 15 16 17 17 16 18 11 19 13 21
REMARK H PARENT 11 20 13 22
ROOT
ATOM      1  C   UNL     1     -11.191  -2.484   6.285  1.00  0.00     0.033 A 
ATOM      2  C   UNL     1     -11.530  -3.776   6.614  1.00  0.00     0.102 A 
ATOM      3  C   UNL     1     -11.303  -1.436   7.167  1.00  0.00     0.063 A 
ATOM      4  C   UNL     1     -12.008  -4.034   7.899  1.00  0.00     0.315 A 
ATOM      5  C   UNL     1     -11.782  -1.693   8.452  1.00  0.00     0.165 A 
ATOM      6  C   UNL     1     -12.134  -2.993   8.818  1.00  0.00     0.237 A 
ENDROOT
BRANCH   1   7
ATOM      7  C   UNL     1     -10.679  -2.208   4.909  1.00  0.00     0.193 C 
ATOM      8  O   UNL     1      -9.577  -2.689   4.605  1.00  0.00    -0.289 OA
BRANCH   7   9
ATOM      9  C   UNL     1     -11.422  -1.412   3.946  1.00  0.00     0.023 A 
ATOM     10  C   UNL     1     -10.928  -0.173   3.535  1.00  0.00     0.012 A 
ATOM     11  C   UNL     1     -12.629  -1.886   3.432  1.00  0.00     0.012 A 
ATOM     12  C   UNL     1     -11.641   0.590   2.611  1.00  0.00     0.004 A 
ATOM     13  C   UNL     1     -13.343  -1.123   2.507  1.00  0.00     0.004 A 
ATOM     14  C   UNL     1     -12.849   0.116   2.097  1.00  0.00    -0.051 A 
ATOM     15  C   UNL     1     -13.611   0.933   1.110  1.00  0.00     0.044 C 
ENDBRANCH   7   9
ENDBRANCH   1   7
BRANCH   4  16
ATOM     16  N   UNL     1     -12.363  -5.364   8.253  1.00  0.00     0.066 N 
ATOM     17  O   UNL     1     -12.220  -5.733   9.444  1.00  0.00    -0.258 OA
ATOM     18  O   UNL     1     -12.809  -6.129   7.366  1.00  0.00    -0.258 OA
ENDBRANCH   4  16
BRANCH   5  19
ATOM     19  O   UNL     1     -11.899  -0.666   9.340  1.00  0.00    -0.504 OA
ATOM     20  H   UNL     1     -12.467   0.026   8.963  1.00  0.00     0.293 HD
ENDBRANCH   5  19
BRANCH   6  21
ATOM     21  O   UNL     1     -12.600  -3.232  10.078  1.00  0.00    -0.500 OA
ATOM     22  H   UNL     1     -13.503  -2.888  10.162  1.00  0.00     0.294 HD
ENDBRANCH   6  21
TORSDOF 5
ENDMDL
MODEL 6
REMARK VINA RESULT:    -5.911      5.277      7.765
REMARK INTER + INTRA:          -7.825
REMARK INTER:                  -6.798
REMARK INTRA:                  -1.027
REMARK UNBOUND:                -0.532
REMARK SMILES Cc1ccc(C(=O)c2cc(O)c(O)c([N+](=O)[O-])c2)cc1
REMARK SMILES IDX 8 1 18 2 9 3 14 4 10 5 12 6 6 7 7 8 5 9 4 10 19 11 3 12
REMARK SMILES IDX 20 13 2 14 1 15 15 16 17 17 16 18 11 19 13 21
REMARK H PARENT 11 20 13 22
ROOT
ATOM      1  C   UNL     1     -10.798  -2.457   5.311  1.00  0.00     0.033 A 
ATOM      2  C   UNL     1     -11.341  -1.728   6.343  1.00  0.00     0.102 A 
ATOM      3  C   UNL     1     -10.606  -3.816   5.378  1.00  0.00     0.063 A 
ATOM      4  C   UNL     1     -11.716  -2.397   7.508  1.00  0.00     0.315 A 
ATOM      5  C   UNL     1     -10.980  -4.486   6.543  1.00  0.00     0.165 A 
ATOM      6  C   UNL     1     -11.536  -3.777   7.609  1.00  0.00     0.237 A 
ENDROOT
BRANCH   1   7
ATOM      7  C   UNL     1     -10.396  -1.740   4.064  1.00  0.00     0.193 C 
ATOM      8  O   UNL     1      -9.188  -1.720   3.783  1.00  0.00    -0.289 OA
BRANCH   7   9
ATOM      9  C   UNL     1     -11.361  -1.084   3.197  1.00  0.00     0.023 A 
ATOM     10  C   UNL     1     -12.362  -1.831   2.576  1.00  0.00     0.012 A 
ATOM     11  C   UNL     1     -11.287   0.293   2.986  1.00  0.00     0.012 A 
ATOM     12  C   UNL     1     -13.288  -1.201   1.744  1.00  0.00     0.004 A 
ATOM     13  C   UNL     1     -12.213   0.924   2.154  1.00  0.00     0.004 A 
ATOM     14  C   UNL     1     -13.214   0.176   1.533  1.00  0.00    -0.051 A 
ATOM     15  C   UNL     1     -14.203   0.848   0.643  1.00  0.00     0.044 C 
ENDBRANCH   7   9
ENDBRANCH   1   7
BRANCH   4  16
ATOM     16  N   UNL     1     -12.280  -1.657   8.583  1.00  0.00     0.066 N 
ATOM     17  O   UNL     1     -11.713  -0.601   8.955  1.00  0.00    -0.258 OA
ATOM     18  O   UNL     1     -13.327  -2.080   9.127  1.00  0.00    -0.258 OA
ENDBRANCH   4  16
BRANCH   5  19
ATOM     19  O   UNL     1     -10.799  -5.834   6.627  1.00  0.00    -0.504 OA
ATOM     20  H   UNL     1     -11.077  -6.146   7.504  1.00  0.00     0.293 HD
ENDBRANCH   5  19
BRANCH   6  21
ATOM     21  O   UNL     1     -11.899  -4.443   8.743  1.00  0.00    -0.500 OA
ATOM     22  H   UNL     1     -12.825  -4.723   8.675  1.00  0.00     0.294 HD
ENDBRANCH   6  21
TORSDOF 5
ENDMDL
MODEL 7
REMARK VINA RESULT:    -5.774      2.412      4.089
REMARK INTER + INTRA:          -7.656
REMARK INTER:                  -6.798
REMARK INTRA:                  -0.858
REMARK UNBOUND:                -0.532
REMARK SMILES Cc1ccc(C(=O)c2cc(O)c(O)c([N+](=O)[O-])c2)cc1
REMARK SMILES IDX 8 1 18 2 9 3 14 4 10 5 12 6 6 7 7 8 5 9 4 10 19 11 3 12
REMARK SMILES IDX 20 13 2 14 1 15 15 16 17 17 16 18 11 19 13 21
REMARK H PARENT 11 20 13 22
ROOT
ATOM      1  C   UNL     1      -9.196  -0.911   4.265  1.00  0.00     0.033 A 
ATOM      2  C   UNL     1      -8.179  -1.198   3.385  1.00  0.00     0.102 A 
ATOM      3  C   UNL     1      -9.034  -0.081   5.348  1.00  0.00     0.063 A 
ATOM      4  C   UNL     1      -6.928  -0.619   3.600  1.00  0.00     0.315 A 
ATOM      5  C   UNL     1      -7.783   0.497   5.565  1.00  0.00     0.165 A 
ATOM      6  C   UNL     1      -6.730   0.228   4.690  1.00  0.00     0.237 A 
ENDROOT
BRANCH   1   7
ATOM      7  C   UNL     1     -10.536  -1.531   4.035  1.00  0.00     0.193 C 
ATOM      8  O   UNL     1     -10.801  -2.566   4.665  1.00  0.00    -0.289 OA
BRANCH   7   9
ATOM      9  C   UNL     1     -11.509  -0.965   3.115  1.00  0.00     0.023 A 
ATOM     10  C   UNL     1     -12.435  -1.794   2.481  1.00  0.00     0.012 A 
ATOM     11  C   UNL     1     -11.518   0.407   2.866  1.00  0.00     0.012 A 
ATOM     12  C   UNL     1     -13.368  -1.251   1.599  1.00  0.00     0.004 A 
ATOM     13  C   UNL     1     -12.452   0.952   1.984  1.00  0.00     0.004 A 
ATOM     14  C   UNL     1     -13.377   0.123   1.350  1.00  0.00    -0.051 A 
ATOM     15  C   UNL     1     -14.375   0.703   0.406  1.00  0.00     0.044 C 
ENDBRANCH   7   9
ENDBRANCH   1   7
BRANCH   4  16
ATOM     16  N   UNL     1      -5.867  -0.906   2.699  1.00  0.00     0.066 N 
ATOM     17  O   UNL     1      -4.715  -1.096   3.159  1.00  0.00    -0.258 OA
ATOM     18  O   UNL     1      -6.113  -0.960   1.471  1.00  0.00    -0.258 OA
ENDBRANCH   4  16
BRANCH   5  19
ATOM     19  O   UNL     1      -7.604   1.324   6.633  1.00  0.00    -0.504 OA
ATOM     20  H   UNL     1      -7.242   2.173   6.330  1.00  0.00     0.293 HD
ENDBRANCH   5  19
BRANCH   6  21
ATOM     21  O   UNL     1      -5.511   0.800   4.911  1.00  0.00    -0.500 OA
ATOM     22  H   UNL     1      -4.919   0.605   4.168  1.00  0.00     0.294 HD
ENDBRANCH   6  21
TORSDOF 5
ENDMDL
MODEL 8
REMARK VINA RESULT:    -5.718      3.171      4.796
REMARK INTER + INTRA:          -7.587
REMARK INTER:                  -6.637
REMARK INTRA:                  -0.951
REMARK UNBOUND:                -0.532
REMARK SMILES Cc1ccc(C(=O)c2cc(O)c(O)c([N+](=O)[O-])c2)cc1
REMARK SMILES IDX 8 1 18 2 9 3 14 4 10 5 12 6 6 7 7 8 5 9 4 10 19 11 3 12
REMARK SMILES IDX 20 13 2 14 1 15 15 16 17 17 16 18 11 19 13 21
REMARK H PARENT 11 20 13 22
ROOT
ATOM      1  C   UNL     1      -9.698  -2.403   2.714  1.00  0.00     0.033 A 
ATOM      2  C   UNL     1      -8.598  -1.690   3.130  1.00  0.00     0.102 A 
ATOM      3  C   UNL     1      -9.689  -3.206   1.599  1.00  0.00     0.063 A 
ATOM      4  C   UNL     1      -7.421  -1.788   2.389  1.00  0.00     0.315 A 
ATOM      5  C   UNL     1      -8.512  -3.304   0.857  1.00  0.00     0.165 A 
ATOM      6  C   UNL     1      -7.377  -2.595   1.252  1.00  0.00     0.237 A 
ENDROOT
BRANCH   1   7
ATOM      7  C   UNL     1     -10.960  -2.298   3.508  1.00  0.00     0.193 C 
ATOM      8  O   UNL     1     -11.901  -1.669   3.000  1.00  0.00    -0.289 OA
BRANCH   7   9
ATOM      9  C   UNL     1     -11.105  -2.899   4.824  1.00  0.00     0.023 A 
ATOM     10  C   UNL     1     -11.780  -2.212   5.834  1.00  0.00     0.012 A 
ATOM     11  C   UNL     1     -10.570  -4.162   5.077  1.00  0.00     0.012 A 
ATOM     12  C   UNL     1     -11.919  -2.789   7.096  1.00  0.00     0.004 A 
ATOM     13  C   UNL     1     -10.709  -4.739   6.340  1.00  0.00     0.004 A 
ATOM     14  C   UNL     1     -11.384  -4.053   7.349  1.00  0.00    -0.051 A 
ATOM     15  C   UNL     1     -11.532  -4.668   8.699  1.00  0.00     0.044 C 
ENDBRANCH   7   9
ENDBRANCH   1   7
BRANCH   4  16
ATOM     16  N   UNL     1      -6.274  -1.057   2.807  1.00  0.00     0.066 N 
ATOM     17  O   UNL     1      -6.035  -0.957   4.035  1.00  0.00    -0.258 OA
ATOM     18  O   UNL     1      -5.538  -0.537   1.938  1.00  0.00    -0.258 OA
ENDBRANCH   4  16
BRANCH   5  19
ATOM     19  O   UNL     1      -8.484  -4.096  -0.251  1.00  0.00    -0.504 OA
ATOM     20  H   UNL     1      -7.895  -4.853  -0.095  1.00  0.00     0.293 HD
ENDBRANCH   5  19
BRANCH   6  21
ATOM     21  O   UNL     1      -6.231  -2.699   0.519  1.00  0.00    -0.500 OA
ATOM     22  H   UNL     1      -6.385  -3.273  -0.247  1.00  0.00     0.294 HD
ENDBRANCH   6  21
TORSDOF 5
ENDMDL
MODEL 9
REMARK VINA RESULT:    -5.612      5.290      7.353
REMARK INTER + INTRA:          -7.456
REMARK INTER:                  -6.423
REMARK INTRA:                  -1.033
REMARK UNBOUND:                -0.532
REMARK SMILES Cc1ccc(C(=O)c2cc(O)c(O)c([N+](=O)[O-])c2)cc1
REMARK SMILES IDX 8 1 18 2 9 3 14 4 10 5 12 6 6 7 7 8 5 9 4 10 19 11 3 12
REMARK SMILES IDX 20 13 2 14 1 15 15 16 17 17 16 18 11 19 13 21
REMARK H PARENT 11 20 13 22
ROOT
ATOM      1  C   UNL     1     -11.247  -1.324   3.079  1.00  0.00     0.033 A 
ATOM      2  C   UNL     1     -12.236  -2.043   2.451  1.00  0.00     0.102 A 
ATOM      3  C   UNL     1     -11.120   0.039   2.952  1.00  0.00     0.063 A 
ATOM      4  C   UNL     1     -13.152  -1.360   1.651  1.00  0.00     0.315 A 
ATOM      5  C   UNL     1     -12.035   0.723   2.151  1.00  0.00     0.165 A 
ATOM      6  C   UNL     1     -13.052   0.023   1.500  1.00  0.00     0.237 A 
ENDROOT
BRANCH   1   7
ATOM      7  C   UNL     1     -10.266  -2.055   3.937  1.00  0.00     0.193 C 
ATOM      8  O   UNL     1      -9.069  -1.983   3.621  1.00  0.00    -0.289 OA
BRANCH   7   9
ATOM      9  C   UNL     1     -10.671  -2.828   5.100  1.00  0.00     0.023 A 
ATOM     10  C   UNL     1     -11.366  -2.210   6.140  1.00  0.00     0.012 A 
ATOM     11  C   UNL     1     -10.367  -4.186   5.176  1.00  0.00     0.012 A 
ATOM     12  C   UNL     1     -11.754  -2.951   7.256  1.00  0.00     0.004 A 
ATOM     13  C   UNL     1     -10.755  -4.928   6.292  1.00  0.00     0.004 A 
ATOM     14  C   UNL     1     -11.450  -4.310   7.332  1.00  0.00    -0.051 A 
ATOM     15  C   UNL     1     -11.864  -5.102   8.526  1.00  0.00     0.044 C 
ENDBRANCH   7   9
ENDBRANCH   1   7
BRANCH   4  16
ATOM     16  N   UNL     1     -14.181  -2.091   0.995  1.00  0.00     0.066 N 
ATOM     17  O   UNL     1     -14.759  -3.014   1.617  1.00  0.00    -0.258 OA
ATOM     18  O   UNL     1     -14.479  -1.790  -0.184  1.00  0.00    -0.258 OA
ENDBRANCH   4  16
BRANCH   5  19
ATOM     19  O   UNL     1     -11.925   2.074   2.014  1.00  0.00    -0.504 OA
ATOM     20  H   UNL     1     -12.791   2.488   2.163  1.00  0.00     0.293 HD
ENDBRANCH   5  19
BRANCH   6  21
ATOM     21  O   UNL     1     -13.941   0.702   0.720  1.00  0.00    -0.500 OA
ATOM     22  H   UNL     1     -13.758   0.523  -0.215  1.00  0.00     0.294 HD
ENDBRANCH   6  21
TORSDOF 5
ENDMDL
