MODEL 1
REMARK VINA RESULT:    -5.271      0.000      0.000
REMARK INTER + INTRA:          -7.210
REMARK INTER:                  -6.503
REMARK INTRA:                  -0.707
REMARK UNBOUND:                -0.707
REMARK SMILES Cc1ccc(C(=O)c2cc(O)c(O)c([N+](=O)[O-])c2)cc1
REMARK SMILES IDX 8 1 18 2 9 3 14 4 10 5 12 6 6 7 7 8 5 9 4 10 19 11 3 12
REMARK SMILES IDX 20 13 2 14 1 15 15 16 17 17 16 18 11 19 13 21
REMARK H PARENT 11 20 13 22
ROOT
ATOM      1  C   UNL     1      -5.694  -5.896  -3.110  1.00  0.00     0.033 A 
ATOM      2  C   UNL     1      -5.998  -5.910  -1.769  1.00  0.00     0.102 A 
ATOM      3  C   UNL     1      -4.829  -4.987  -3.671  1.00  0.00     0.063 A 
ATOM      4  C   UNL     1      -5.400  -4.960  -0.940  1.00  0.00     0.315 A 
ATOM      5  C   UNL     1      -4.232  -4.036  -2.842  1.00  0.00     0.165 A 
ATOM      6  C   UNL     1      -4.518  -4.022  -1.476  1.00  0.00     0.237 A 
ENDROOT
BRANCH   1   7
ATOM      7  C   UNL     1      -6.333  -6.914  -3.998  1.00  0.00     0.193 C 
ATOM      8  O   UNL     1      -5.677  -7.312  -4.972  1.00  0.00    -0.289 OA
BRANCH   7   9
ATOM      9  C   UNL     1      -7.669  -7.433  -3.753  1.00  0.00     0.023 A 
ATOM     10  C   UNL     1      -8.757  -6.924  -4.463  1.00  0.00     0.012 A 
ATOM     11  C   UNL     1      -7.863  -8.440  -2.808  1.00  0.00     0.012 A 
ATOM     12  C   UNL     1     -10.038  -7.423  -4.228  1.00  0.00     0.004 A 
ATOM     13  C   UNL     1      -9.145  -8.939  -2.572  1.00  0.00     0.004 A 
ATOM     14  C   UNL     1     -10.233  -8.430  -3.282  1.00  0.00    -0.051 A 
ATOM     15  C   UNL     1     -11.602  -8.962  -3.030  1.00  0.00     0.044 C 
ENDBRANCH   7   9
ENDBRANCH   1   7
BRANCH   4  16
ATOM     16  N   UNL     1      -5.704  -4.961   0.449  1.00  0.00     0.066 N 
ATOM     17  O   UNL     1      -5.989  -6.049   1.005  1.00  0.00    -0.258 OA
ATOM     18  O   UNL     1      -5.677  -3.877   1.076  1.00  0.00    -0.258 OA
ENDBRANCH   4  16
BRANCH   5  19
ATOM     19  O   UNL     1      -3.371  -3.126  -3.380  1.00  0.00    -0.504 OA
ATOM     20  H   UNL     1      -3.681  -2.228  -3.181  1.00  0.00     0.293 HD
ENDBRANCH   5  19
BRANCH   6  21
ATOM     21  O   UNL     1      -3.927  -3.088  -0.676  1.00  0.00    -0.500 OA
ATOM     22  H   UNL     1      -3.395  -2.485  -1.218  1.00  0.00     0.294 HD
ENDBRANCH   6  21
TORSDOF 5
ENDMDL
MODEL 2
REMARK VINA RESULT:    -5.236      2.005      3.533
REMARK INTER + INTRA:          -7.167
REMARK INTER:                  -6.427
REMARK INTRA:                  -0.740
REMARK UNBOUND:                -0.707
REMARK SMILES Cc1ccc(C(=O)c2cc(O)c(O)c([N+](=O)[O-])c2)cc1
REMARK SMILES IDX 8 1 18 2 9 3 14 4 10 5 12 6 6 7 7 8 5 9 4 10 19 11 3 12
REMARK SMILES IDX 20 13 2 14 1 15 15 16 17 17 16 18 11 19 13 21
REMARK H PARENT 11 20 13 22
ROOT
ATOM      1  C   UNL     1      -7.020  -5.440  -1.979  1.00  0.00     0.033 A 
ATOM      2  C   UNL     1      -6.293  -4.821  -2.968  1.00  0.00     0.102 A 
ATOM      3  C   UNL     1      -6.700  -5.344  -0.645  1.00  0.00     0.063 A 
ATOM      4  C   UNL     1      -5.182  -4.060  -2.602  1.00  0.00     0.315 A 
ATOM      5  C   UNL     1      -5.588  -4.584  -0.279  1.00  0.00     0.165 A 
ATOM      6  C   UNL     1      -4.829  -3.942  -1.258  1.00  0.00     0.237 A 
ENDROOT
BRANCH   1   7
ATOM      7  C   UNL     1      -8.210  -6.255  -2.370  1.00  0.00     0.193 C 
ATOM      8  O   UNL     1      -9.216  -6.175  -1.649  1.00  0.00    -0.289 OA
BRANCH   7   9
ATOM      9  C   UNL     1      -8.215  -7.113  -3.544  1.00  0.00     0.023 A 
ATOM     10  C   UNL     1      -7.958  -8.478  -3.411  1.00  0.00     0.012 A 
ATOM     11  C   UNL     1      -8.478  -6.573  -4.802  1.00  0.00     0.012 A 
ATOM     12  C   UNL     1      -7.963  -9.301  -4.537  1.00  0.00     0.004 A 
ATOM     13  C   UNL     1      -8.483  -7.396  -5.929  1.00  0.00     0.004 A 
ATOM     14  C   UNL     1      -8.226  -8.760  -5.797  1.00  0.00    -0.051 A 
ATOM     15  C   UNL     1      -8.230  -9.640  -7.000  1.00  0.00     0.044 C 
ENDBRANCH   7   9
ENDBRANCH   1   7
BRANCH   4  16
ATOM     16  N   UNL     1      -4.420  -3.413  -3.614  1.00  0.00     0.066 N 
ATOM     17  O   UNL     1      -3.173  -3.355  -3.490  1.00  0.00    -0.258 OA
ATOM     18  O   UNL     1      -5.017  -2.921  -4.600  1.00  0.00    -0.258 OA
ENDBRANCH   4  16
BRANCH   5  19
ATOM     19  O   UNL     1      -5.256  -4.477   1.038  1.00  0.00    -0.504 OA
ATOM     20  H   UNL     1      -6.051  -4.592   1.584  1.00  0.00     0.293 HD
ENDBRANCH   5  19
BRANCH   6  21
ATOM     21  O   UNL     1      -3.745  -3.201  -0.888  1.00  0.00    -0.500 OA
ATOM     22  H   UNL     1      -3.013  -3.791  -0.650  1.00  0.00     0.294 HD
ENDBRANCH   6  21
TORSDOF 5
ENDMDL
MODEL 3
REMARK VINA RESULT:    -4.857      3.550      7.088
REMARK INTER + INTRA:          -6.700
REMARK INTER:                  -5.778
REMARK INTRA:                  -0.922
REMARK UNBOUND:                -0.707
REMARK SMILES Cc1ccc(C(=O)c2cc(O)c(O)c([N+](=O)[O-])c2)cc1
REMARK SMILES IDX 8 1 18 2 9 3 14 4 10 5 12 6 6 7 7 8 5 9 4 10 19 11 3 12
REMARK SMILES IDX 20 13 2 14 1 15 15 16 17 17 16 18 11 19 13 21
REMARK H PARENT 11 20 13 22
ROOT
ATOM      1  C   UNL     1      -8.344  -8.271  -3.230  1.00  0.00     0.033 A 
ATOM      2  C   UNL     1      -8.141  -8.692  -4.524  1.00  0.00     0.102 A 
ATOM      3  C   UNL     1      -9.556  -8.381  -2.591  1.00  0.00     0.063 A 
ATOM      4  C   UNL     1      -9.211  -9.256  -5.218  1.00  0.00     0.315 A 
ATOM      5  C   UNL     1     -10.627  -8.944  -3.285  1.00  0.00     0.165 A 
ATOM      6  C   UNL     1     -10.455  -9.382  -4.599  1.00  0.00     0.237 A 
ENDROOT
BRANCH   1   7
ATOM      7  C   UNL     1      -7.197  -7.667  -2.487  1.00  0.00     0.193 C 
ATOM      8  O   UNL     1      -6.858  -8.210  -1.425  1.00  0.00    -0.289 OA
BRANCH   7   9
ATOM      9  C   UNL     1      -6.489  -6.491  -2.968  1.00  0.00     0.023 A 
ATOM     10  C   UNL     1      -7.201  -5.421  -3.510  1.00  0.00     0.012 A 
ATOM     11  C   UNL     1      -5.098  -6.433  -2.887  1.00  0.00     0.012 A 
ATOM     12  C   UNL     1      -6.521  -4.294  -3.971  1.00  0.00     0.004 A 
ATOM     13  C   UNL     1      -4.417  -5.305  -3.348  1.00  0.00     0.004 A 
ATOM     14  C   UNL     1      -5.129  -4.235  -3.890  1.00  0.00    -0.051 A 
ATOM     15  C   UNL     1      -4.404  -3.030  -4.384  1.00  0.00     0.044 C 
ENDBRANCH   7   9
ENDBRANCH   1   7
BRANCH   4  16
ATOM     16  N   UNL     1      -9.017  -9.696  -6.556  1.00  0.00     0.066 N 
ATOM     17  O   UNL     1      -9.685 -10.671  -6.976  1.00  0.00    -0.258 OA
ATOM     18  O   UNL     1      -8.184  -9.097  -7.276  1.00  0.00    -0.258 OA
ENDBRANCH   4  16
BRANCH   5  19
ATOM     19  O   UNL     1     -11.836  -9.062  -2.667  1.00  0.00    -0.504 OA
ATOM     20  H   UNL     1     -11.836  -8.535  -1.851  1.00  0.00     0.293 HD
ENDBRANCH   5  19
BRANCH   6  21
ATOM     21  O   UNL     1     -11.510  -9.932  -5.267  1.00  0.00    -0.500 OA
ATOM     22  H   UNL     1     -11.204 -10.305  -6.108  1.00  0.00     0.294 HD
ENDBRANCH   6  21
TORSDOF 5
ENDMDL
MODEL 4
REMARK VINA RESULT:    -4.843      3.668      6.484
REMARK INTER + INTRA:          -6.682
REMARK INTER:                  -5.776
REMARK INTRA:                  -0.906
REMARK UNBOUND:                -0.707
REMARK SMILES Cc1ccc(C(=O)c2cc(O)c(O)c([N+](=O)[O-])c2)cc1
REMARK SMILES IDX 8 1 18 2 9 3 14 4 10 5 12 6 6 7 7 8 5 9 4 10 19 11 3 12
REMARK SMILES IDX 20 13 2 14 1 15 15 16 17 17 16 18 11 19 13 21
REMARK H PARENT 11 20 13 22
ROOT
ATOM      1  C   UNL     1      -8.419  -7.165  -4.673  1.00  0.00     0.033 A 
ATOM      2  C   UNL     1      -9.512  -7.676  -4.011  1.00  0.00     0.102 A 
ATOM      3  C   UNL     1      -7.886  -7.750  -5.796  1.00  0.00     0.063 A 
ATOM      4  C   UNL     1     -10.106  -8.837  -4.504  1.00  0.00     0.315 A 
ATOM      5  C   UNL     1      -8.480  -8.913  -6.289  1.00  0.00     0.165 A 
ATOM      6  C   UNL     1      -9.591  -9.456  -5.642  1.00  0.00     0.237 A 
ENDROOT
BRANCH   1   7
ATOM      7  C   UNL     1      -7.782  -5.920  -4.145  1.00  0.00     0.193 C 
ATOM      8  O   UNL     1      -7.728  -4.943  -4.907  1.00  0.00    -0.289 OA
BRANCH   7   9
ATOM      9  C   UNL     1      -7.241  -5.832  -2.799  1.00  0.00     0.023 A 
ATOM     10  C   UNL     1      -7.420  -4.668  -2.050  1.00  0.00     0.012 A 
ATOM     11  C   UNL     1      -6.544  -6.910  -2.254  1.00  0.00     0.012 A 
ATOM     12  C   UNL     1      -6.901  -4.583  -0.759  1.00  0.00     0.004 A 
ATOM     13  C   UNL     1      -6.025  -6.826  -0.962  1.00  0.00     0.004 A 
ATOM     14  C   UNL     1      -6.204  -5.662  -0.214  1.00  0.00    -0.051 A 
ATOM     15  C   UNL     1      -5.648  -5.570   1.167  1.00  0.00     0.044 C 
ENDBRANCH   7   9
ENDBRANCH   1   7
BRANCH   4  16
ATOM     16  N   UNL     1     -11.237  -9.377  -3.831  1.00  0.00     0.066 N 
ATOM     17  O   UNL     1     -11.343  -9.208  -2.593  1.00  0.00    -0.258 OA
ATOM     18  O   UNL     1     -12.095 -10.004  -4.496  1.00  0.00    -0.258 OA
ENDBRANCH   4  16
BRANCH   5  19
ATOM     19  O   UNL     1      -7.965  -9.506  -7.402  1.00  0.00    -0.504 OA
ATOM     20  H   UNL     1      -8.680  -9.936  -7.901  1.00  0.00     0.293 HD
ENDBRANCH   5  19
BRANCH   6  21
ATOM     21  O   UNL     1     -10.163 -10.594  -6.133  1.00  0.00    -0.500 OA
ATOM     22  H   UNL     1      -9.471 -11.205  -6.431  1.00  0.00     0.294 HD
ENDBRANCH   6  21
TORSDOF 5
ENDMDL
MODEL 5
REMARK VINA RESULT:    -4.787      1.771      2.216
REMARK INTER + INTRA:          -6.614
REMARK INTER:                  -5.946
REMARK INTRA:                  -0.668
REMARK UNBOUND:                -0.707
REMARK SMILES Cc1ccc(C(=O)c2cc(O)c(O)c([N+](=O)[O-])c2)cc1
REMARK SMILES IDX 8 1 18 2 9 3 14 4 10 5 12 6 6 7 7 8 5 9 4 10 19 11 3 12
REMARK SMILES IDX 20 13 2 14 1 15 15 16 17 17 16 18 11 19 13 21
REMARK H PARENT 11 20 13 22
ROOT
ATOM      1  C   UNL     1      -6.492  -4.325  -3.028  1.00  0.00     0.033 A 
ATOM      2  C   UNL     1      -6.659  -4.531  -1.678  1.00  0.00     0.102 A 
ATOM      3  C   UNL     1      -5.310  -3.886  -3.576  1.00  0.00     0.063 A 
ATOM      4  C   UNL     1      -5.581  -4.285  -0.828  1.00  0.00     0.315 A 
ATOM      5  C   UNL     1      -4.232  -3.639  -2.725  1.00  0.00     0.165 A 
ATOM      6  C   UNL     1      -4.368  -3.839  -1.351  1.00  0.00     0.237 A 
ENDROOT
BRANCH   1   7
ATOM      7  C   UNL     1      -7.647  -4.589  -3.939  1.00  0.00     0.193 C 
ATOM      8  O   UNL     1      -8.329  -3.614  -4.290  1.00  0.00    -0.289 OA
BRANCH   7   9
ATOM      9  C   UNL     1      -7.979  -5.924  -4.410  1.00  0.00     0.023 A 
ATOM     10  C   UNL     1      -7.777  -7.027  -3.581  1.00  0.00     0.012 A 
ATOM     11  C   UNL     1      -8.501  -6.101  -5.691  1.00  0.00     0.012 A 
ATOM     12  C   UNL     1      -8.096  -8.307  -4.033  1.00  0.00     0.004 A 
ATOM     13  C   UNL     1      -8.821  -7.382  -6.144  1.00  0.00     0.004 A 
ATOM     14  C   UNL     1      -8.618  -8.485  -5.314  1.00  0.00    -0.051 A 
ATOM     15  C   UNL     1      -8.958  -9.854  -5.797  1.00  0.00     0.044 C 
ENDBRANCH   7   9
ENDBRANCH   1   7
BRANCH   4  16
ATOM     16  N   UNL     1      -5.738  -4.493   0.570  1.00  0.00     0.066 N 
ATOM     17  O   UNL     1      -6.121  -5.617   0.975  1.00  0.00    -0.258 OA
ATOM     18  O   UNL     1      -5.488  -3.550   1.355  1.00  0.00    -0.258 OA
ENDBRANCH   4  16
BRANCH   5  19
ATOM     19  O   UNL     1      -3.053  -3.204  -3.251  1.00  0.00    -0.504 OA
ATOM     20  H   UNL     1      -2.980  -2.242  -3.136  1.00  0.00     0.293 HD
ENDBRANCH   5  19
BRANCH   6  21
ATOM     21  O   UNL     1      -3.306  -3.594  -0.530  1.00  0.00    -0.500 OA
ATOM     22  H   UNL     1      -2.576  -3.214  -1.044  1.00  0.00     0.294 HD
ENDBRANCH   6  21
TORSDOF 5
ENDMDL
MODEL 6
REMARK VINA RESULT:    -4.772      1.642      2.944
REMARK INTER + INTRA:          -6.594
REMARK INTER:                  -5.937
REMARK INTRA:                  -0.657
REMARK UNBOUND:                -0.707
REMARK SMILES Cc1ccc(C(=O)c2cc(O)c(O)c([N+](=O)[O-])c2)cc1
REMARK SMILES IDX 8 1 18 2 9 3 14 4 10 5 12 6 6 7 7 8 5 9 4 10 19 11 3 12
REMARK SMILES IDX 20 13 2 14 1 15 15 16 17 17 16 18 11 19 13 21
REMARK H PARENT 11 20 13 22
ROOT
ATOM      1  C   UNL     1      -5.549  -6.284  -1.547  1.00  0.00     0.033 A 
ATOM      2  C   UNL     1      -4.930  -5.631  -2.588  1.00  0.00     0.102 A 
ATOM      3  C   UNL     1      -5.747  -5.706  -0.315  1.00  0.00     0.063 A 
ATOM      4  C   UNL     1      -4.486  -4.325  -2.385  1.00  0.00     0.315 A 
ATOM      5  C   UNL     1      -5.302  -4.399  -0.112  1.00  0.00     0.165 A 
ATOM      6  C   UNL     1      -4.671  -3.708  -1.148  1.00  0.00     0.237 A 
ENDROOT
BRANCH   1   7
ATOM      7  C   UNL     1      -6.025  -7.684  -1.763  1.00  0.00     0.193 C 
ATOM      8  O   UNL     1      -5.300  -8.601  -1.351  1.00  0.00    -0.289 OA
BRANCH   7   9
ATOM      9  C   UNL     1      -7.282  -7.985  -2.427  1.00  0.00     0.023 A 
ATOM     10  C   UNL     1      -7.723  -7.187  -3.484  1.00  0.00     0.012 A 
ATOM     11  C   UNL     1      -8.049  -9.073  -2.009  1.00  0.00     0.012 A 
ATOM     12  C   UNL     1      -8.929  -7.477  -4.120  1.00  0.00     0.004 A 
ATOM     13  C   UNL     1      -9.256  -9.364  -2.646  1.00  0.00     0.004 A 
ATOM     14  C   UNL     1      -9.696  -8.565  -3.702  1.00  0.00    -0.051 A 
ATOM     15  C   UNL     1     -10.986  -8.874  -4.383  1.00  0.00     0.044 C 
ENDBRANCH   7   9
ENDBRANCH   1   7
BRANCH   4  16
ATOM     16  N   UNL     1      -3.845  -3.637  -3.452  1.00  0.00     0.066 N 
ATOM     17  O   UNL     1      -4.437  -3.541  -4.554  1.00  0.00    -0.258 OA
ATOM     18  O   UNL     1      -2.708  -3.145  -3.260  1.00  0.00    -0.258 OA
ENDBRANCH   4  16
BRANCH   5  19
ATOM     19  O   UNL     1      -5.490  -3.810   1.101  1.00  0.00    -0.504 OA
ATOM     20  H   UNL     1      -6.353  -3.363   1.116  1.00  0.00     0.293 HD
ENDBRANCH   5  19
BRANCH   6  21
ATOM     21  O   UNL     1      -4.241  -2.431  -0.938  1.00  0.00    -0.500 OA
ATOM     22  H   UNL     1      -4.752  -2.029  -0.218  1.00  0.00     0.294 HD
ENDBRANCH   6  21
TORSDOF 5
ENDMDL
MODEL 7
REMARK VINA RESULT:    -4.709      3.703      6.720
REMARK INTER + INTRA:          -6.517
REMARK INTER:                  -5.562
REMARK INTRA:                  -0.955
REMARK UNBOUND:                -0.707
REMARK SMILES Cc1ccc(C(=O)c2cc(O)c(O)c([N+](=O)[O-])c2)cc1
REMARK SMILES IDX 8 1 18 2 9 3 14 4 10 5 12 6 6 7 7 8 5 9 4 10 19 11 3 12
REMARK SMILES IDX 20 13 2 14 1 15 15 16 17 17 16 18 11 19 13 21
REMARK H PARENT 11 20 13 22
ROOT
ATOM      1  C   UNL     1      -8.343  -8.259  -3.296  1.00  0.00     0.033 A 
ATOM      2  C   UNL     1      -9.586  -8.343  -2.712  1.00  0.00     0.102 A 
ATOM      3  C   UNL     1      -8.079  -8.729  -4.560  1.00  0.00     0.063 A 
ATOM      4  C   UNL     1     -10.624  -8.929  -3.436  1.00  0.00     0.315 A 
ATOM      5  C   UNL     1      -9.117  -9.316  -5.284  1.00  0.00     0.165 A 
ATOM      6  C   UNL     1     -10.391  -9.416  -4.722  1.00  0.00     0.237 A 
ENDROOT
BRANCH   1   7
ATOM      7  C   UNL     1      -7.231  -7.632  -2.520  1.00  0.00     0.193 C 
ATOM      8  O   UNL     1      -6.935  -8.147  -1.431  1.00  0.00    -0.289 OA
BRANCH   7   9
ATOM      9  C   UNL     1      -6.508  -6.465  -3.000  1.00  0.00     0.023 A 
ATOM     10  C   UNL     1      -7.206  -5.383  -3.537  1.00  0.00     0.012 A 
ATOM     11  C   UNL     1      -5.116  -6.426  -2.922  1.00  0.00     0.012 A 
ATOM     12  C   UNL     1      -6.513  -4.264  -3.996  1.00  0.00     0.004 A 
ATOM     13  C   UNL     1      -4.421  -5.307  -3.382  1.00  0.00     0.004 A 
ATOM     14  C   UNL     1      -5.120  -4.225  -3.919  1.00  0.00    -0.051 A 
ATOM     15  C   UNL     1      -4.379  -3.029  -4.412  1.00  0.00     0.044 C 
ENDBRANCH   7   9
ENDBRANCH   1   7
BRANCH   4  16
ATOM     16  N   UNL     1     -11.915  -9.022  -2.847  1.00  0.00     0.066 N 
ATOM     17  O   UNL     1     -12.311  -8.090  -2.106  1.00  0.00    -0.258 OA
ATOM     18  O   UNL     1     -12.619 -10.031  -3.086  1.00  0.00    -0.258 OA
ENDBRANCH   4  16
BRANCH   5  19
ATOM     19  O   UNL     1      -8.874  -9.787  -6.539  1.00  0.00    -0.504 OA
ATOM     20  H   UNL     1      -9.201  -9.150  -7.195  1.00  0.00     0.293 HD
ENDBRANCH   5  19
BRANCH   6  21
ATOM     21  O   UNL     1     -11.398  -9.991  -5.440  1.00  0.00    -0.500 OA
ATOM     22  H   UNL     1     -11.173 -10.914  -5.636  1.00  0.00     0.294 HD
ENDBRANCH   6  21
TORSDOF 5
ENDMDL
MODEL 8
REMARK VINA RESULT:    -4.707      3.614      4.526
REMARK INTER + INTRA:          -6.515
REMARK INTER:                  -5.560
REMARK INTRA:                  -0.954
REMARK UNBOUND:                -0.707
REMARK SMILES Cc1ccc(C(=O)c2cc(O)c(O)c([N+](=O)[O-])c2)cc1
REMARK SMILES IDX 8 1 18 2 9 3 14 4 10 5 12 6 6 7 7 8 5 9 4 10 19 11 3 12
REMARK SMILES IDX 20 13 2 14 1 15 15 16 17 17 16 18 11 19 13 21
REMARK H PARENT 11 20 13 22
ROOT
ATOM      1  C   UNL     1      -8.587  -7.174  -4.711  1.00  0.00     0.033 A 
ATOM      2  C   UNL     1      -7.683  -7.055  -3.681  1.00  0.00     0.102 A 
ATOM      3  C   UNL     1      -8.923  -6.127  -5.535  1.00  0.00     0.063 A 
ATOM      4  C   UNL     1      -7.078  -5.816  -3.466  1.00  0.00     0.315 A 
ATOM      5  C   UNL     1      -8.319  -4.888  -5.319  1.00  0.00     0.165 A 
ATOM      6  C   UNL     1      -7.396  -4.733  -4.284  1.00  0.00     0.237 A 
ENDROOT
BRANCH   1   7
ATOM      7  C   UNL     1      -9.235  -8.501  -4.942  1.00  0.00     0.193 C 
ATOM      8  O   UNL     1     -10.187  -8.805  -4.207  1.00  0.00    -0.289 OA
BRANCH   7   9
ATOM      9  C   UNL     1      -8.788  -9.416  -5.980  1.00  0.00     0.023 A 
ATOM     10  C   UNL     1      -9.714  -9.983  -6.856  1.00  0.00     0.012 A 
ATOM     11  C   UNL     1      -7.434  -9.728  -6.099  1.00  0.00     0.012 A 
ATOM     12  C   UNL     1      -9.285 -10.861  -7.851  1.00  0.00     0.004 A 
ATOM     13  C   UNL     1      -7.004 -10.606  -7.094  1.00  0.00     0.004 A 
ATOM     14  C   UNL     1      -7.930 -11.173  -7.971  1.00  0.00    -0.051 A 
ATOM     15  C   UNL     1      -7.472 -12.112  -9.034  1.00  0.00     0.044 C 
ENDBRANCH   7   9
ENDBRANCH   1   7
BRANCH   4  16
ATOM     16  N   UNL     1      -6.141  -5.677  -2.406  1.00  0.00     0.066 N 
ATOM     17  O   UNL     1      -6.092  -4.592  -1.778  1.00  0.00    -0.258 OA
ATOM     18  O   UNL     1      -5.391  -6.643  -2.129  1.00  0.00    -0.258 OA
ENDBRANCH   4  16
BRANCH   5  19
ATOM     19  O   UNL     1      -8.639  -3.838  -6.127  1.00  0.00    -0.504 OA
ATOM     20  H   UNL     1      -9.572  -3.903  -6.391  1.00  0.00     0.293 HD
ENDBRANCH   5  19
BRANCH   6  21
ATOM     21  O   UNL     1      -6.812  -3.516  -4.083  1.00  0.00    -0.500 OA
ATOM     22  H   UNL     1      -6.073  -3.608  -3.461  1.00  0.00     0.294 HD
ENDBRANCH   6  21
TORSDOF 5
ENDMDL
MODEL 9
REMARK VINA RESULT:    -4.705      3.791      7.017
REMARK INTER + INTRA:          -6.513
REMARK INTER:                  -5.557
REMARK INTRA:                  -0.956
REMARK UNBOUND:                -0.707
REMARK SMILES Cc1ccc(C(=O)c2cc(O)c(O)c([N+](=O)[O-])c2)cc1
REMARK SMILES IDX 8 1 18 2 9 3 14 4 10 5 12 6 6 7 7 8 5 9 4 10 19 11 3 12
REMARK SMILES IDX 20 13 2 14 1 15 15 16 17 17 16 18 11 19 13 21
REMARK H PARENT 11 20 13 22
ROOT
ATOM      1  C   UNL     1      -8.498  -7.264  -4.596  1.00  0.00     0.033 A 
ATOM      2  C   UNL     1      -8.011  -7.957  -5.680  1.00  0.00     0.102 A 
ATOM      3  C   UNL     1      -9.634  -7.640  -3.919  1.00  0.00     0.063 A 
ATOM      4  C   UNL     1      -8.699  -9.091  -6.111  1.00  0.00     0.315 A 
ATOM      5  C   UNL     1     -10.323  -8.774  -4.350  1.00  0.00     0.165 A 
ATOM      6  C   UNL     1      -9.855  -9.500  -5.446  1.00  0.00     0.237 A 
ENDROOT
BRANCH   1   7
ATOM      7  C   UNL     1      -7.762  -6.049  -4.135  1.00  0.00     0.193 C 
ATOM      8  O   UNL     1      -7.614  -5.128  -4.953  1.00  0.00    -0.289 OA
BRANCH   7   9
ATOM      9  C   UNL     1      -7.231  -5.924  -2.787  1.00  0.00     0.023 A 
ATOM     10  C   UNL     1      -6.508  -6.975  -2.222  1.00  0.00     0.012 A 
ATOM     11  C   UNL     1      -7.443  -4.753  -2.060  1.00  0.00     0.012 A 
ATOM     12  C   UNL     1      -5.998  -6.854  -0.929  1.00  0.00     0.004 A 
ATOM     13  C   UNL     1      -6.933  -4.632  -0.766  1.00  0.00     0.004 A 
ATOM     14  C   UNL     1      -6.210  -5.683  -0.201  1.00  0.00    -0.051 A 
ATOM     15  C   UNL     1      -5.666  -5.556   1.181  1.00  0.00     0.044 C 
ENDBRANCH   7   9
ENDBRANCH   1   7
BRANCH   4  16
ATOM     16  N   UNL     1      -8.207  -9.818  -7.229  1.00  0.00     0.066 N 
ATOM     17  O   UNL     1      -9.022 -10.233  -8.088  1.00  0.00    -0.258 OA
ATOM     18  O   UNL     1      -6.974 -10.022  -7.325  1.00  0.00    -0.258 OA
ENDBRANCH   4  16
BRANCH   5  19
ATOM     19  O   UNL     1     -11.450  -9.163  -3.691  1.00  0.00    -0.504 OA
ATOM     20  H   UNL     1     -11.996  -8.384  -3.494  1.00  0.00     0.293 HD
ENDBRANCH   5  19
BRANCH   6  21
ATOM     21  O   UNL     1     -10.536 -10.609  -5.858  1.00  0.00    -0.500 OA
ATOM     22  H   UNL     1     -11.030 -10.984  -5.112  1.00  0.00     0.294 HD
ENDBRANCH   6  21
TORSDOF 5
ENDMDL
