MODEL 1
REMARK VINA RESULT:    -6.958      0.000      0.000
REMARK INTER + INTRA:          -8.814
REMARK INTER:                  -8.178
REMARK INTRA:                  -0.636
REMARK UNBOUND:                -0.636
REMARK SMILES O=C(O)c1cc(-c2ccc(F)cc2F)ccc1O
REMARK SMILES IDX 6 1 5 2 15 3 4 4 17 5 16 6 7 7 13 8 12 9 8 10 10 11 9 12
REMARK SMILES IDX 14 13 11 14 2 15 1 16 3 17 18 19
REMARK H PARENT 3 18 18 20
ROOT
ATOM      1  C   UNL     1      -6.477  -5.873  -2.558  1.00  0.00    -0.014 A 
ATOM      2  C   UNL     1      -6.478  -5.797  -1.166  1.00  0.00     0.028 A 
ATOM      3  C   UNL     1      -5.614  -5.067  -3.300  1.00  0.00     0.013 A 
ATOM      4  C   UNL     1      -5.616  -4.915  -0.515  1.00  0.00     0.102 A 
ATOM      5  C   UNL     1      -4.752  -4.109  -1.257  1.00  0.00     0.130 A 
ATOM      6  C   UNL     1      -4.752  -4.185  -2.650  1.00  0.00     0.048 A 
ENDROOT
BRANCH   1   7
ATOM      7  C   UNL     1      -7.373  -6.787  -3.235  1.00  0.00     0.018 A 
ATOM      8  C   UNL     1      -7.498  -8.103  -2.789  1.00  0.00     0.133 A 
ATOM      9  C   UNL     1      -8.362  -8.981  -3.444  1.00  0.00     0.079 A 
ATOM     10  C   UNL     1      -8.111  -6.349  -4.334  1.00  0.00     0.015 A 
ATOM     11  C   UNL     1      -9.100  -8.543  -4.543  1.00  0.00     0.126 A 
ATOM     12  C   UNL     1      -8.975  -7.227  -4.987  1.00  0.00     0.040 A 
ATOM     13  F   UNL     1      -6.793  -8.541  -1.736  1.00  0.00    -0.206 F 
ATOM     14  F   UNL     1      -9.930  -9.385  -5.172  1.00  0.00    -0.207 F 
ENDBRANCH   1   7
BRANCH   4  15
ATOM     15  C   UNL     1      -5.632  -4.851   0.940  1.00  0.00     0.339 C 
ATOM     16  O   UNL     1      -5.641  -3.814   1.609  1.00  0.00    -0.246 OA
BRANCH  15  17
ATOM     17  O   UNL     1      -5.638  -6.085   1.513  1.00  0.00    -0.478 OA
ATOM     18  H   UNL     1      -6.512  -6.304   1.897  1.00  0.00     0.297 HD
ENDBRANCH  15  17
ENDBRANCH   4  15
BRANCH   5  19
ATOM     19  O   UNL     1      -3.902  -3.241  -0.640  1.00  0.00    -0.507 OA
ATOM     20  H   UNL     1      -3.918  -3.408   0.319  1.00  0.00     0.293 HD
ENDBRANCH   5  19
TORSDOF 4
ENDMDL
MODEL 2
REMARK VINA RESULT:    -6.953      1.744      3.240
REMARK INTER + INTRA:          -8.808
REMARK INTER:                  -8.172
REMARK INTRA:                  -0.636
REMARK UNBOUND:                -0.636
REMARK SMILES O=C(O)c1cc(-c2ccc(F)cc2F)ccc1O
REMARK SMILES IDX 6 1 5 2 15 3 4 4 17 5 16 6 7 7 13 8 12 9 8 10 10 11 9 12
REMARK SMILES IDX 14 13 11 14 2 15 1 16 3 17 18 19
REMARK H PARENT 3 18 18 20
ROOT
ATOM      1  C   UNL     1      -6.527  -5.739  -2.696  1.00  0.00    -0.014 A 
ATOM      2  C   UNL     1      -5.703  -4.968  -3.515  1.00  0.00     0.028 A 
ATOM      3  C   UNL     1      -6.461  -5.598  -1.310  1.00  0.00     0.013 A 
ATOM      4  C   UNL     1      -4.812  -4.056  -2.949  1.00  0.00     0.102 A 
ATOM      5  C   UNL     1      -4.746  -3.915  -1.563  1.00  0.00     0.130 A 
ATOM      6  C   UNL     1      -5.570  -4.687  -0.743  1.00  0.00     0.048 A 
ENDROOT
BRANCH   1   7
ATOM      7  C   UNL     1      -7.451  -6.686  -3.282  1.00  0.00     0.018 A 
ATOM      8  C   UNL     1      -8.246  -6.310  -4.366  1.00  0.00     0.133 A 
ATOM      9  C   UNL     1      -9.135  -7.226  -4.928  1.00  0.00     0.079 A 
ATOM     10  C   UNL     1      -7.544  -7.977  -2.763  1.00  0.00     0.015 A 
ATOM     11  C   UNL     1      -9.229  -8.517  -4.408  1.00  0.00     0.126 A 
ATOM     12  C   UNL     1      -8.433  -8.892  -3.326  1.00  0.00     0.040 A 
ATOM     13  F   UNL     1      -8.170  -5.072  -4.875  1.00  0.00    -0.206 F 
ATOM     14  F   UNL     1     -10.082  -9.397  -4.948  1.00  0.00    -0.207 F 
ENDBRANCH   1   7
BRANCH   4  15
ATOM     15  C   UNL     1      -3.961  -3.260  -3.822  1.00  0.00     0.339 C 
ATOM     16  O   UNL     1      -2.753  -3.070  -3.660  1.00  0.00    -0.246 OA
BRANCH  15  17
ATOM     17  O   UNL     1      -4.646  -2.728  -4.870  1.00  0.00    -0.478 OA
ATOM     18  H   UNL     1      -4.046  -2.440  -5.590  1.00  0.00     0.297 HD
ENDBRANCH  15  17
ENDBRANCH   4  15
BRANCH   5  19
ATOM     19  O   UNL     1      -3.883  -3.030  -0.989  1.00  0.00    -0.507 OA
ATOM     20  H   UNL     1      -3.841  -3.201  -0.032  1.00  0.00     0.293 HD
ENDBRANCH   5  19
TORSDOF 4
ENDMDL
MODEL 3
REMARK VINA RESULT:    -6.946      1.125      1.608
REMARK INTER + INTRA:          -8.800
REMARK INTER:                  -8.175
REMARK INTRA:                  -0.626
REMARK UNBOUND:                -0.636
REMARK SMILES O=C(O)c1cc(-c2ccc(F)cc2F)ccc1O
REMARK SMILES IDX 6 1 5 2 15 3 4 4 17 5 16 6 7 7 13 8 12 9 8 10 10 11 9 12
REMARK SMILES IDX 14 13 11 14 2 15 1 16 3 17 18 19
REMARK H PARENT 3 18 18 20
ROOT
ATOM      1  C   UNL     1      -6.502  -5.830  -2.568  1.00  0.00    -0.014 A 
ATOM      2  C   UNL     1      -6.495  -5.769  -1.175  1.00  0.00     0.028 A 
ATOM      3  C   UNL     1      -5.640  -5.018  -3.306  1.00  0.00     0.013 A 
ATOM      4  C   UNL     1      -5.627  -4.896  -0.519  1.00  0.00     0.102 A 
ATOM      5  C   UNL     1      -4.765  -4.084  -1.257  1.00  0.00     0.130 A 
ATOM      6  C   UNL     1      -4.772  -4.145  -2.651  1.00  0.00     0.048 A 
ENDROOT
BRANCH   1   7
ATOM      7  C   UNL     1      -7.403  -6.735  -3.249  1.00  0.00     0.018 A 
ATOM      8  C   UNL     1      -8.151  -6.289  -4.339  1.00  0.00     0.133 A 
ATOM      9  C   UNL     1      -9.019  -7.164  -4.993  1.00  0.00     0.079 A 
ATOM     10  C   UNL     1      -7.522  -8.054  -2.815  1.00  0.00     0.015 A 
ATOM     11  C   UNL     1      -9.138  -8.483  -4.558  1.00  0.00     0.126 A 
ATOM     12  C   UNL     1      -8.389  -8.928  -3.469  1.00  0.00     0.040 A 
ATOM     13  F   UNL     1      -8.051  -5.022  -4.768  1.00  0.00    -0.206 F 
ATOM     14  F   UNL     1      -9.971  -9.324  -5.185  1.00  0.00    -0.207 F 
ENDBRANCH   1   7
BRANCH   4  15
ATOM     15  C   UNL     1      -5.634  -4.848   0.937  1.00  0.00     0.339 C 
ATOM     16  O   UNL     1      -5.642  -3.819   1.616  1.00  0.00    -0.246 OA
BRANCH  15  17
ATOM     17  O   UNL     1      -5.634  -6.088   1.496  1.00  0.00    -0.478 OA
ATOM     18  H   UNL     1      -5.484  -6.790   0.828  1.00  0.00     0.297 HD
ENDBRANCH  15  17
ENDBRANCH   4  15
BRANCH   5  19
ATOM     19  O   UNL     1      -3.909  -3.225  -0.635  1.00  0.00    -0.507 OA
ATOM     20  H   UNL     1      -4.329  -2.350  -0.571  1.00  0.00     0.293 HD
ENDBRANCH   5  19
TORSDOF 4
ENDMDL
MODEL 4
REMARK VINA RESULT:    -6.850      1.358      2.801
REMARK INTER + INTRA:          -8.687
REMARK INTER:                  -7.974
REMARK INTRA:                  -0.713
REMARK UNBOUND:                -0.636
REMARK SMILES O=C(O)c1cc(-c2ccc(F)cc2F)ccc1O
REMARK SMILES IDX 6 1 5 2 15 3 4 4 17 5 16 6 7 7 13 8 12 9 8 10 10 11 9 12
REMARK SMILES IDX 14 13 11 14 2 15 1 16 3 17 18 19
REMARK H PARENT 3 18 18 20
ROOT
ATOM      1  C   UNL     1      -6.489  -5.783  -2.666  1.00  0.00    -0.014 A 
ATOM      2  C   UNL     1      -5.633  -5.060  -3.495  1.00  0.00     0.028 A 
ATOM      3  C   UNL     1      -6.454  -5.587  -1.285  1.00  0.00     0.013 A 
ATOM      4  C   UNL     1      -4.740  -4.141  -2.944  1.00  0.00     0.102 A 
ATOM      5  C   UNL     1      -4.704  -3.945  -1.564  1.00  0.00     0.130 A 
ATOM      6  C   UNL     1      -5.562  -4.668  -0.734  1.00  0.00     0.048 A 
ENDROOT
BRANCH   1   7
ATOM      7  C   UNL     1      -7.415  -6.738  -3.237  1.00  0.00     0.018 A 
ATOM      8  C   UNL     1      -7.496  -8.031  -2.718  1.00  0.00     0.133 A 
ATOM      9  C   UNL     1      -8.389  -8.949  -3.272  1.00  0.00     0.079 A 
ATOM     10  C   UNL     1      -8.228  -6.363  -4.306  1.00  0.00     0.015 A 
ATOM     11  C   UNL     1      -9.201  -8.574  -4.341  1.00  0.00     0.126 A 
ATOM     12  C   UNL     1      -9.121  -7.280  -4.858  1.00  0.00     0.040 A 
ATOM     13  F   UNL     1      -6.719  -8.408  -1.693  1.00  0.00    -0.206 F 
ATOM     14  F   UNL     1     -10.059  -9.454  -4.873  1.00  0.00    -0.207 F 
ENDBRANCH   1   7
BRANCH   4  15
ATOM     15  C   UNL     1      -3.853  -3.395  -3.827  1.00  0.00     0.339 C 
ATOM     16  O   UNL     1      -2.694  -3.068  -3.564  1.00  0.00    -0.246 OA
BRANCH  15  17
ATOM     17  O   UNL     1      -4.445  -3.084  -5.013  1.00  0.00    -0.478 OA
ATOM     18  H   UNL     1      -4.481  -3.856  -5.616  1.00  0.00     0.297 HD
ENDBRANCH  15  17
ENDBRANCH   4  15
BRANCH   5  19
ATOM     19  O   UNL     1      -3.840  -3.051  -1.005  1.00  0.00    -0.507 OA
ATOM     20  H   UNL     1      -3.067  -2.951  -1.588  1.00  0.00     0.293 HD
ENDBRANCH   5  19
TORSDOF 4
ENDMDL
MODEL 5
REMARK VINA RESULT:    -5.290      4.369      6.708
REMARK INTER + INTRA:          -6.853
REMARK INTER:                  -5.790
REMARK INTRA:                  -1.063
REMARK UNBOUND:                -0.636
REMARK SMILES O=C(O)c1cc(-c2ccc(F)cc2F)ccc1O
REMARK SMILES IDX 6 1 5 2 15 3 4 4 17 5 16 6 7 7 13 8 12 9 8 10 10 11 9 12
REMARK SMILES IDX 14 13 11 14 2 15 1 16 3 17 18 19
REMARK H PARENT 3 18 18 20
ROOT
ATOM      1  C   UNL     1      -8.189  -7.622  -3.688  1.00  0.00    -0.014 A 
ATOM      2  C   UNL     1      -7.802  -8.168  -4.911  1.00  0.00     0.028 A 
ATOM      3  C   UNL     1      -9.437  -7.935  -3.149  1.00  0.00     0.013 A 
ATOM      4  C   UNL     1      -8.662  -9.027  -5.596  1.00  0.00     0.102 A 
ATOM      5  C   UNL     1      -9.909  -9.340  -5.057  1.00  0.00     0.130 A 
ATOM      6  C   UNL     1     -10.297  -8.793  -3.833  1.00  0.00     0.048 A 
ENDROOT
BRANCH   1   7
ATOM      7  C   UNL     1      -7.298  -6.730  -2.978  1.00  0.00     0.018 A 
ATOM      8  C   UNL     1      -6.498  -7.217  -1.943  1.00  0.00     0.133 A 
ATOM      9  C   UNL     1      -5.641  -6.353  -1.261  1.00  0.00     0.079 A 
ATOM     10  C   UNL     1      -7.240  -5.382  -3.330  1.00  0.00     0.015 A 
ATOM     11  C   UNL     1      -5.583  -5.005  -1.613  1.00  0.00     0.126 A 
ATOM     12  C   UNL     1      -6.382  -4.520  -2.648  1.00  0.00     0.040 A 
ATOM     13  F   UNL     1      -6.545  -8.509  -1.590  1.00  0.00    -0.206 F 
ATOM     14  F   UNL     1      -4.760  -4.176  -0.958  1.00  0.00    -0.207 F 
ENDBRANCH   1   7
BRANCH   4  15
ATOM     15  C   UNL     1      -8.238  -9.587  -6.872  1.00  0.00     0.339 C 
ATOM     16  O   UNL     1      -8.975 -10.153  -7.683  1.00  0.00    -0.246 OA
BRANCH  15  17
ATOM     17  O   UNL     1      -6.906  -9.419  -7.095  1.00  0.00    -0.478 OA
ATOM     18  H   UNL     1      -6.386  -9.490  -6.267  1.00  0.00     0.297 HD
ENDBRANCH  15  17
ENDBRANCH   4  15
BRANCH   5  19
ATOM     19  O   UNL     1     -10.764 -10.177  -5.710  1.00  0.00    -0.507 OA
ATOM     20  H   UNL     1     -10.688 -11.069  -5.328  1.00  0.00     0.293 HD
ENDBRANCH   5  19
TORSDOF 4
ENDMDL
MODEL 6
REMARK VINA RESULT:    -5.280      4.001      6.283
REMARK INTER + INTRA:          -6.842
REMARK INTER:                  -5.787
REMARK INTRA:                  -1.055
REMARK UNBOUND:                -0.636
REMARK SMILES O=C(O)c1cc(-c2ccc(F)cc2F)ccc1O
REMARK SMILES IDX 6 1 5 2 15 3 4 4 17 5 16 6 7 7 13 8 12 9 8 10 10 11 9 12
REMARK SMILES IDX 14 13 11 14 2 15 1 16 3 17 18 19
REMARK H PARENT 3 18 18 20
ROOT
ATOM      1  C   UNL     1      -8.213  -7.574  -3.733  1.00  0.00    -0.014 A 
ATOM      2  C   UNL     1      -9.445  -7.856  -3.144  1.00  0.00     0.028 A 
ATOM      3  C   UNL     1      -7.868  -8.169  -4.946  1.00  0.00     0.013 A 
ATOM      4  C   UNL     1     -10.333  -8.733  -3.768  1.00  0.00     0.102 A 
ATOM      5  C   UNL     1      -9.988  -9.328  -4.981  1.00  0.00     0.130 A 
ATOM      6  C   UNL     1      -8.755  -9.046  -5.571  1.00  0.00     0.048 A 
ENDROOT
BRANCH   1   7
ATOM      7  C   UNL     1      -7.291  -6.666  -3.085  1.00  0.00     0.018 A 
ATOM      8  C   UNL     1      -6.482  -7.116  -2.042  1.00  0.00     0.133 A 
ATOM      9  C   UNL     1      -5.595  -6.237  -1.420  1.00  0.00     0.079 A 
ATOM     10  C   UNL     1      -7.213  -5.339  -3.508  1.00  0.00     0.015 A 
ATOM     11  C   UNL     1      -5.516  -4.910  -1.842  1.00  0.00     0.126 A 
ATOM     12  C   UNL     1      -6.325  -4.462  -2.886  1.00  0.00     0.040 A 
ATOM     13  F   UNL     1      -6.547  -8.387  -1.622  1.00  0.00    -0.206 F 
ATOM     14  F   UNL     1      -4.665  -4.066  -1.246  1.00  0.00    -0.207 F 
ENDBRANCH   1   7
BRANCH   4  15
ATOM     15  C   UNL     1     -11.616  -9.013  -3.137  1.00  0.00     0.339 C 
ATOM     16  O   UNL     1     -12.334  -9.986  -3.381  1.00  0.00    -0.246 OA
BRANCH  15  17
ATOM     17  O   UNL     1     -11.959  -8.069  -2.219  1.00  0.00    -0.478 OA
ATOM     18  H   UNL     1     -11.173  -7.703  -1.761  1.00  0.00     0.297 HD
ENDBRANCH  15  17
ENDBRANCH   4  15
BRANCH   5  19
ATOM     19  O   UNL     1     -10.842 -10.186  -5.608  1.00  0.00    -0.507 OA
ATOM     20  H   UNL     1     -11.090  -9.814  -6.472  1.00  0.00     0.293 HD
ENDBRANCH   5  19
TORSDOF 4
ENDMDL
MODEL 7
REMARK VINA RESULT:    -5.271      1.936      3.143
REMARK INTER + INTRA:          -6.831
REMARK INTER:                  -6.322
REMARK INTRA:                  -0.508
REMARK UNBOUND:                -0.636
REMARK SMILES O=C(O)c1cc(-c2ccc(F)cc2F)ccc1O
REMARK SMILES IDX 6 1 5 2 15 3 4 4 17 5 16 6 7 7 13 8 12 9 8 10 10 11 9 12
REMARK SMILES IDX 14 13 11 14 2 15 1 16 3 17 18 19
REMARK H PARENT 3 18 18 20
ROOT
ATOM      1  C   UNL     1      -6.927  -6.140  -2.966  1.00  0.00    -0.014 A 
ATOM      2  C   UNL     1      -6.277  -5.259  -3.830  1.00  0.00     0.028 A 
ATOM      3  C   UNL     1      -6.643  -6.113  -1.600  1.00  0.00     0.013 A 
ATOM      4  C   UNL     1      -5.344  -4.351  -3.330  1.00  0.00     0.102 A 
ATOM      5  C   UNL     1      -5.061  -4.324  -1.964  1.00  0.00     0.130 A 
ATOM      6  C   UNL     1      -5.711  -5.205  -1.099  1.00  0.00     0.048 A 
ENDROOT
BRANCH   1   7
ATOM      7  C   UNL     1      -7.894  -7.083  -3.485  1.00  0.00     0.018 A 
ATOM      8  C   UNL     1      -7.640  -7.763  -4.677  1.00  0.00     0.133 A 
ATOM      9  C   UNL     1      -8.575  -8.671  -5.174  1.00  0.00     0.079 A 
ATOM     10  C   UNL     1      -9.081  -7.313  -2.790  1.00  0.00     0.015 A 
ATOM     11  C   UNL     1      -9.762  -8.900  -4.479  1.00  0.00     0.126 A 
ATOM     12  C   UNL     1     -10.015  -8.221  -3.287  1.00  0.00     0.040 A 
ATOM     13  F   UNL     1      -6.505  -7.551  -5.358  1.00  0.00    -0.206 F 
ATOM     14  F   UNL     1     -10.660  -9.772  -4.955  1.00  0.00    -0.207 F 
ENDBRANCH   1   7
BRANCH   4  15
ATOM     15  C   UNL     1      -4.677  -3.439  -4.249  1.00  0.00     0.339 C 
ATOM     16  O   UNL     1      -4.668  -2.210  -4.154  1.00  0.00    -0.246 OA
BRANCH  15  17
ATOM     17  O   UNL     1      -4.039  -4.094  -5.257  1.00  0.00    -0.478 OA
ATOM     18  H   UNL     1      -3.068  -3.968  -5.218  1.00  0.00     0.297 HD
ENDBRANCH  15  17
ENDBRANCH   4  15
BRANCH   5  19
ATOM     19  O   UNL     1      -4.153  -3.444  -1.455  1.00  0.00    -0.507 OA
ATOM     20  H   UNL     1      -4.589  -2.586  -1.311  1.00  0.00     0.293 HD
ENDBRANCH   5  19
TORSDOF 4
ENDMDL
MODEL 8
REMARK VINA RESULT:    -4.895      1.585      1.964
REMARK INTER + INTRA:          -6.389
REMARK INTER:                  -5.399
REMARK INTRA:                  -0.990
REMARK UNBOUND:                -0.636
REMARK SMILES O=C(O)c1cc(-c2ccc(F)cc2F)ccc1O
REMARK SMILES IDX 6 1 5 2 15 3 4 4 17 5 16 6 7 7 13 8 12 9 8 10 10 11 9 12
REMARK SMILES IDX 14 13 11 14 2 15 1 16 3 17 18 19
REMARK H PARENT 3 18 18 20
ROOT
ATOM      1  C   UNL     1      -7.542  -6.533  -3.390  1.00  0.00    -0.014 A 
ATOM      2  C   UNL     1      -6.970  -6.874  -2.165  1.00  0.00     0.028 A 
ATOM      3  C   UNL     1      -7.450  -5.224  -3.862  1.00  0.00     0.013 A 
ATOM      4  C   UNL     1      -6.307  -5.906  -1.410  1.00  0.00     0.102 A 
ATOM      5  C   UNL     1      -6.215  -4.596  -1.882  1.00  0.00     0.130 A 
ATOM      6  C   UNL     1      -6.787  -4.255  -3.109  1.00  0.00     0.048 A 
ENDROOT
BRANCH   1   7
ATOM      7  C   UNL     1      -8.231  -7.536  -4.172  1.00  0.00     0.018 A 
ATOM      8  C   UNL     1      -9.462  -8.035  -3.744  1.00  0.00     0.133 A 
ATOM      9  C   UNL     1     -10.123  -9.003  -4.501  1.00  0.00     0.079 A 
ATOM     10  C   UNL     1      -7.663  -8.004  -5.357  1.00  0.00     0.015 A 
ATOM     11  C   UNL     1      -9.554  -9.471  -5.685  1.00  0.00     0.126 A 
ATOM     12  C   UNL     1      -8.324  -8.970  -6.113  1.00  0.00     0.040 A 
ATOM     13  F   UNL     1     -10.020  -7.599  -2.606  1.00  0.00    -0.206 F 
ATOM     14  F   UNL     1     -10.188 -10.399  -6.412  1.00  0.00    -0.207 F 
ENDBRANCH   1   7
BRANCH   4  15
ATOM     15  C   UNL     1      -5.717  -6.282  -0.133  1.00  0.00     0.339 C 
ATOM     16  O   UNL     1      -5.297  -5.495   0.719  1.00  0.00    -0.246 OA
BRANCH  15  17
ATOM     17  O   UNL     1      -5.671  -7.631   0.039  1.00  0.00    -0.478 OA
ATOM     18  H   UNL     1      -4.961  -7.895   0.661  1.00  0.00     0.297 HD
ENDBRANCH  15  17
ENDBRANCH   4  15
BRANCH   5  19
ATOM     19  O   UNL     1      -5.571  -3.636  -1.161  1.00  0.00    -0.507 OA
ATOM     20  H   UNL     1      -5.944  -2.766  -1.387  1.00  0.00     0.293 HD
ENDBRANCH   5  19
TORSDOF 4
ENDMDL
