MODEL 1
REMARK VINA RESULT:    -6.985      0.000      0.000
REMARK INTER + INTRA:          -8.789
REMARK INTER:                  -8.210
REMARK INTRA:                  -0.579
REMARK UNBOUND:                -0.579
REMARK SMILES O=C(O)c1cc(-c2ccc(F)cc2F)ccc1O
REMARK SMILES IDX 6 1 5 2 15 3 4 4 17 5 16 6 7 7 13 8 12 9 8 10 10 11 9 12
REMARK SMILES IDX 14 13 11 14 2 15 1 16 3 17 18 19
REMARK H PARENT 3 18 18 20
ROOT
ATOM      1  C   UNL     1       2.927  -2.025  -6.697  1.00  0.00    -0.014 A 
ATOM      2  C   UNL     1       2.790  -0.741  -6.172  1.00  0.00     0.028 A 
ATOM      3  C   UNL     1       2.475  -3.128  -5.972  1.00  0.00     0.013 A 
ATOM      4  C   UNL     1       2.200  -0.558  -4.921  1.00  0.00     0.102 A 
ATOM      5  C   UNL     1       1.747  -1.660  -4.196  1.00  0.00     0.130 A 
ATOM      6  C   UNL     1       1.885  -2.946  -4.721  1.00  0.00     0.048 A 
ENDROOT
BRANCH   1   7
ATOM      7  C   UNL     1       3.540  -2.216  -7.994  1.00  0.00     0.018 A 
ATOM      8  C   UNL     1       3.175  -1.404  -9.068  1.00  0.00     0.133 A 
ATOM      9  C   UNL     1       3.769  -1.591 -10.316  1.00  0.00     0.079 A 
ATOM     10  C   UNL     1       4.499  -3.214  -8.168  1.00  0.00     0.015 A 
ATOM     11  C   UNL     1       4.726  -2.589 -10.491  1.00  0.00     0.126 A 
ATOM     12  C   UNL     1       5.092  -3.401  -9.416  1.00  0.00     0.040 A 
ATOM     13  F   UNL     1       2.254  -0.442  -8.917  1.00  0.00    -0.206 F 
ATOM     14  F   UNL     1       5.296  -2.770 -11.689  1.00  0.00    -0.207 F 
ENDBRANCH   1   7
BRANCH   4  15
ATOM     15  C   UNL     1       2.065   0.792  -4.390  1.00  0.00     0.339 C 
ATOM     16  O   UNL     1       2.471   1.169  -3.289  1.00  0.00    -0.246 OA
BRANCH  15  17
ATOM     17  O   UNL     1       1.427   1.627  -5.255  1.00  0.00    -0.478 OA
ATOM     18  H   UNL     1       1.894   1.689  -6.114  1.00  0.00     0.297 HD
ENDBRANCH  15  17
ENDBRANCH   4  15
BRANCH   5  19
ATOM     19  O   UNL     1       1.167  -1.503  -2.972  1.00  0.00    -0.507 OA
ATOM     20  H   UNL     1       0.590  -2.266  -2.794  1.00  0.00     0.293 HD
ENDBRANCH   5  19
TORSDOF 4
ENDMDL
MODEL 2
REMARK VINA RESULT:    -6.969      1.128      1.609
REMARK INTER + INTRA:          -8.771
REMARK INTER:                  -8.194
REMARK INTRA:                  -0.576
REMARK UNBOUND:                -0.579
REMARK SMILES O=C(O)c1cc(-c2ccc(F)cc2F)ccc1O
REMARK SMILES IDX 6 1 5 2 15 3 4 4 17 5 16 6 7 7 13 8 12 9 8 10 10 11 9 12
REMARK SMILES IDX 14 13 11 14 2 15 1 16 3 17 18 19
REMARK H PARENT 3 18 18 20
ROOT
ATOM      1  C   UNL     1       2.952  -2.053  -6.659  1.00  0.00    -0.014 A 
ATOM      2  C   UNL     1       2.807  -0.766  -6.144  1.00  0.00     0.028 A 
ATOM      3  C   UNL     1       2.500  -3.152  -5.928  1.00  0.00     0.013 A 
ATOM      4  C   UNL     1       2.210  -0.576  -4.897  1.00  0.00     0.102 A 
ATOM      5  C   UNL     1       1.758  -1.675  -4.167  1.00  0.00     0.130 A 
ATOM      6  C   UNL     1       1.902  -2.963  -4.682  1.00  0.00     0.048 A 
ENDROOT
BRANCH   1   7
ATOM      7  C   UNL     1       3.573  -2.251  -7.951  1.00  0.00     0.018 A 
ATOM      8  C   UNL     1       4.549  -3.234  -8.116  1.00  0.00     0.133 A 
ATOM      9  C   UNL     1       5.145  -3.421  -9.364  1.00  0.00     0.079 A 
ATOM     10  C   UNL     1       3.192  -1.458  -9.033  1.00  0.00     0.015 A 
ATOM     11  C   UNL     1       4.765  -2.627 -10.445  1.00  0.00     0.126 A 
ATOM     12  C   UNL     1       3.787  -1.646 -10.279  1.00  0.00     0.040 A 
ATOM     13  F   UNL     1       4.929  -4.003  -7.086  1.00  0.00    -0.206 F 
ATOM     14  F   UNL     1       5.336  -2.806 -11.643  1.00  0.00    -0.207 F 
ENDBRANCH   1   7
BRANCH   4  15
ATOM     15  C   UNL     1       2.068   0.777  -4.377  1.00  0.00     0.339 C 
ATOM     16  O   UNL     1       2.471   1.164  -3.277  1.00  0.00    -0.246 OA
BRANCH  15  17
ATOM     17  O   UNL     1       1.428   1.603  -5.248  1.00  0.00    -0.478 OA
ATOM     18  H   UNL     1       1.388   1.221  -6.150  1.00  0.00     0.297 HD
ENDBRANCH  15  17
ENDBRANCH   4  15
BRANCH   5  19
ATOM     19  O   UNL     1       1.171  -1.511  -2.947  1.00  0.00    -0.507 OA
ATOM     20  H   UNL     1       1.357  -2.292  -2.398  1.00  0.00     0.293 HD
ENDBRANCH   5  19
TORSDOF 4
ENDMDL
MODEL 3
REMARK VINA RESULT:    -6.946      1.732      3.219
REMARK INTER + INTRA:          -8.743
REMARK INTER:                  -8.016
REMARK INTRA:                  -0.727
REMARK UNBOUND:                -0.579
REMARK SMILES O=C(O)c1cc(-c2ccc(F)cc2F)ccc1O
REMARK SMILES IDX 6 1 5 2 15 3 4 4 17 5 16 6 7 7 13 8 12 9 8 10 10 11 9 12
REMARK SMILES IDX 14 13 11 14 2 15 1 16 3 17 18 19
REMARK H PARENT 3 18 18 20
ROOT
ATOM      1  C   UNL     1       3.075  -2.173  -6.658  1.00  0.00    -0.014 A 
ATOM      2  C   UNL     1       2.544  -3.302  -6.036  1.00  0.00     0.028 A 
ATOM      3  C   UNL     1       3.017  -0.934  -6.021  1.00  0.00     0.013 A 
ATOM      4  C   UNL     1       1.956  -3.193  -4.775  1.00  0.00     0.102 A 
ATOM      5  C   UNL     1       1.898  -1.953  -4.138  1.00  0.00     0.130 A 
ATOM      6  C   UNL     1       2.429  -0.823  -4.762  1.00  0.00     0.048 A 
ENDROOT
BRANCH   1   7
ATOM      7  C   UNL     1       3.684  -2.286  -7.966  1.00  0.00     0.018 A 
ATOM      8  C   UNL     1       4.664  -3.251  -8.201  1.00  0.00     0.133 A 
ATOM      9  C   UNL     1       5.249  -3.356  -9.463  1.00  0.00     0.079 A 
ATOM     10  C   UNL     1       3.289  -1.428  -8.992  1.00  0.00     0.015 A 
ATOM     11  C   UNL     1       4.855  -2.498 -10.489  1.00  0.00     0.126 A 
ATOM     12  C   UNL     1       3.874  -1.534 -10.253  1.00  0.00     0.040 A 
ATOM     13  F   UNL     1       5.057  -4.081  -7.225  1.00  0.00    -0.206 F 
ATOM     14  F   UNL     1       5.416  -2.598 -11.701  1.00  0.00    -0.207 F 
ENDBRANCH   1   7
BRANCH   4  15
ATOM     15  C   UNL     1       1.408  -4.384  -4.142  1.00  0.00     0.339 C 
ATOM     16  O   UNL     1       0.350  -4.434  -3.509  1.00  0.00    -0.246 OA
BRANCH  15  17
ATOM     17  O   UNL     1       2.199  -5.477  -4.321  1.00  0.00    -0.478 OA
ATOM     18  H   UNL     1       3.143  -5.232  -4.412  1.00  0.00     0.297 HD
ENDBRANCH  15  17
ENDBRANCH   4  15
BRANCH   5  19
ATOM     19  O   UNL     1       1.328  -1.825  -2.907  1.00  0.00    -0.507 OA
ATOM     20  H   UNL     1       1.864  -1.215  -2.371  1.00  0.00     0.293 HD
ENDBRANCH   5  19
TORSDOF 4
ENDMDL
MODEL 4
REMARK VINA RESULT:    -6.932      1.295      2.755
REMARK INTER + INTRA:          -8.727
REMARK INTER:                  -8.026
REMARK INTRA:                  -0.701
REMARK UNBOUND:                -0.579
REMARK SMILES O=C(O)c1cc(-c2ccc(F)cc2F)ccc1O
REMARK SMILES IDX 6 1 5 2 15 3 4 4 17 5 16 6 7 7 13 8 12 9 8 10 10 11 9 12
REMARK SMILES IDX 14 13 11 14 2 15 1 16 3 17 18 19
REMARK H PARENT 3 18 18 20
ROOT
ATOM      1  C   UNL     1       2.963  -2.074  -6.648  1.00  0.00    -0.014 A 
ATOM      2  C   UNL     1       2.468  -3.214  -6.017  1.00  0.00     0.028 A 
ATOM      3  C   UNL     1       2.853  -0.830  -6.028  1.00  0.00     0.013 A 
ATOM      4  C   UNL     1       1.863  -3.111  -4.764  1.00  0.00     0.102 A 
ATOM      5  C   UNL     1       1.754  -1.867  -4.143  1.00  0.00     0.130 A 
ATOM      6  C   UNL     1       2.249  -0.725  -4.775  1.00  0.00     0.048 A 
ENDROOT
BRANCH   1   7
ATOM      7  C   UNL     1       3.589  -2.180  -7.949  1.00  0.00     0.018 A 
ATOM      8  C   UNL     1       3.199  -1.331  -8.985  1.00  0.00     0.133 A 
ATOM      9  C   UNL     1       3.805  -1.437 -10.237  1.00  0.00     0.079 A 
ATOM     10  C   UNL     1       4.584  -3.133  -8.164  1.00  0.00     0.015 A 
ATOM     11  C   UNL     1       4.800  -2.390 -10.453  1.00  0.00     0.126 A 
ATOM     12  C   UNL     1       5.189  -3.238  -9.416  1.00  0.00     0.040 A 
ATOM     13  F   UNL     1       2.242  -0.411  -8.795  1.00  0.00    -0.206 F 
ATOM     14  F   UNL     1       5.382  -2.492 -11.655  1.00  0.00    -0.207 F 
ENDBRANCH   1   7
BRANCH   4  15
ATOM     15  C   UNL     1       1.354  -4.314  -4.120  1.00  0.00     0.339 C 
ATOM     16  O   UNL     1       0.304  -4.389  -3.477  1.00  0.00    -0.246 OA
BRANCH  15  17
ATOM     17  O   UNL     1       2.172  -5.386  -4.303  1.00  0.00    -0.478 OA
ATOM     18  H   UNL     1       2.889  -5.415  -3.636  1.00  0.00     0.297 HD
ENDBRANCH  15  17
ENDBRANCH   4  15
BRANCH   5  19
ATOM     19  O   UNL     1       1.168  -1.744  -2.918  1.00  0.00    -0.507 OA
ATOM     20  H   UNL     1       1.616  -1.039  -2.421  1.00  0.00     0.293 HD
ENDBRANCH   5  19
TORSDOF 4
ENDMDL
MODEL 5
REMARK VINA RESULT:    -5.210      4.060      6.293
REMARK INTER + INTRA:          -6.703
REMARK INTER:                  -5.621
REMARK INTRA:                  -1.082
REMARK UNBOUND:                -0.579
REMARK SMILES O=C(O)c1cc(-c2ccc(F)cc2F)ccc1O
REMARK SMILES IDX 6 1 5 2 15 3 4 4 17 5 16 6 7 7 13 8 12 9 8 10 10 11 9 12
REMARK SMILES IDX 14 13 11 14 2 15 1 16 3 17 18 19
REMARK H PARENT 3 18 18 20
ROOT
ATOM      1  C   UNL     1       4.034  -2.100  -9.034  1.00  0.00    -0.014 A 
ATOM      2  C   UNL     1       5.091  -1.324  -9.508  1.00  0.00     0.028 A 
ATOM      3  C   UNL     1       3.560  -3.171  -9.791  1.00  0.00     0.013 A 
ATOM      4  C   UNL     1       5.674  -1.619 -10.741  1.00  0.00     0.102 A 
ATOM      5  C   UNL     1       5.200  -2.690 -11.498  1.00  0.00     0.130 A 
ATOM      6  C   UNL     1       4.142  -3.467 -11.023  1.00  0.00     0.048 A 
ENDROOT
BRANCH   1   7
ATOM      7  C   UNL     1       3.428  -1.794  -7.756  1.00  0.00     0.018 A 
ATOM      8  C   UNL     1       2.390  -0.865  -7.678  1.00  0.00     0.133 A 
ATOM      9  C   UNL     1       1.808  -0.573  -6.444  1.00  0.00     0.079 A 
ATOM     10  C   UNL     1       3.882  -2.431  -6.602  1.00  0.00     0.015 A 
ATOM     11  C   UNL     1       2.263  -1.209  -5.289  1.00  0.00     0.126 A 
ATOM     12  C   UNL     1       3.300  -2.139  -5.369  1.00  0.00     0.040 A 
ATOM     13  F   UNL     1       1.943  -0.241  -8.777  1.00  0.00    -0.206 F 
ATOM     14  F   UNL     1       1.705  -0.929  -4.105  1.00  0.00    -0.207 F 
ENDBRANCH   1   7
BRANCH   4  15
ATOM     15  C   UNL     1       6.777  -0.797 -11.219  1.00  0.00     0.339 C 
ATOM     16  O   UNL     1       7.454  -1.025 -12.225  1.00  0.00    -0.246 OA
BRANCH  15  17
ATOM     17  O   UNL     1       6.999   0.286 -10.425  1.00  0.00    -0.478 OA
ATOM     18  H   UNL     1       7.889   0.669 -10.572  1.00  0.00     0.297 HD
ENDBRANCH  15  17
ENDBRANCH   4  15
BRANCH   5  19
ATOM     19  O   UNL     1       5.757  -2.995 -12.705  1.00  0.00    -0.507 OA
ATOM     20  H   UNL     1       5.394  -2.398 -13.382  1.00  0.00     0.293 HD
ENDBRANCH   5  19
TORSDOF 4
ENDMDL
MODEL 6
REMARK VINA RESULT:    -5.143      4.588      6.874
REMARK INTER + INTRA:          -6.624
REMARK INTER:                  -5.538
REMARK INTRA:                  -1.086
REMARK UNBOUND:                -0.579
REMARK SMILES O=C(O)c1cc(-c2ccc(F)cc2F)ccc1O
REMARK SMILES IDX 6 1 5 2 15 3 4 4 17 5 16 6 7 7 13 8 12 9 8 10 10 11 9 12
REMARK SMILES IDX 14 13 11 14 2 15 1 16 3 17 18 19
REMARK H PARENT 3 18 18 20
ROOT
ATOM      1  C   UNL     1       3.996  -2.621  -8.787  1.00  0.00    -0.014 A 
ATOM      2  C   UNL     1       3.735  -3.540  -9.802  1.00  0.00     0.028 A 
ATOM      3  C   UNL     1       4.935  -1.609  -8.987  1.00  0.00     0.013 A 
ATOM      4  C   UNL     1       4.413  -3.449 -11.018  1.00  0.00     0.102 A 
ATOM      5  C   UNL     1       5.352  -2.437 -11.218  1.00  0.00     0.130 A 
ATOM      6  C   UNL     1       5.613  -1.517 -10.202  1.00  0.00     0.048 A 
ENDROOT
BRANCH   1   7
ATOM      7  C   UNL     1       3.294  -2.716  -7.525  1.00  0.00     0.018 A 
ATOM      8  C   UNL     1       3.817  -3.491  -6.489  1.00  0.00     0.133 A 
ATOM      9  C   UNL     1       3.137  -3.581  -5.274  1.00  0.00     0.079 A 
ATOM     10  C   UNL     1       2.093  -2.031  -7.345  1.00  0.00     0.015 A 
ATOM     11  C   UNL     1       1.936  -2.896  -5.095  1.00  0.00     0.126 A 
ATOM     12  C   UNL     1       1.414  -2.120  -6.131  1.00  0.00     0.040 A 
ATOM     13  F   UNL     1       4.969  -4.159  -6.647  1.00  0.00    -0.206 F 
ATOM     14  F   UNL     1       1.282  -2.981  -3.929  1.00  0.00    -0.207 F 
ENDBRANCH   1   7
BRANCH   4  15
ATOM     15  C   UNL     1       4.126  -4.419 -12.066  1.00  0.00     0.339 C 
ATOM     16  O   UNL     1       4.614  -4.411 -13.199  1.00  0.00    -0.246 OA
BRANCH  15  17
ATOM     17  O   UNL     1       3.238  -5.368 -11.664  1.00  0.00    -0.478 OA
ATOM     18  H   UNL     1       2.760  -5.765 -12.422  1.00  0.00     0.297 HD
ENDBRANCH  15  17
ENDBRANCH   4  15
BRANCH   5  19
ATOM     19  O   UNL     1       6.025  -2.329 -12.399  1.00  0.00    -0.507 OA
ATOM     20  H   UNL     1       5.584  -1.664 -12.956  1.00  0.00     0.293 HD
ENDBRANCH   5  19
TORSDOF 4
ENDMDL
MODEL 7
REMARK VINA RESULT:    -4.327      1.656      2.103
REMARK INTER + INTRA:          -5.665
REMARK INTER:                  -4.688
REMARK INTRA:                  -0.977
REMARK UNBOUND:                -0.579
REMARK SMILES O=C(O)c1cc(-c2ccc(F)cc2F)ccc1O
REMARK SMILES IDX 6 1 5 2 15 3 4 4 17 5 16 6 7 7 13 8 12 9 8 10 10 11 9 12
REMARK SMILES IDX 14 13 11 14 2 15 1 16 3 17 18 19
REMARK H PARENT 3 18 18 20
ROOT
ATOM      1  C   UNL     1       3.813  -2.425  -7.976  1.00  0.00    -0.014 A 
ATOM      2  C   UNL     1       3.085  -1.255  -7.765  1.00  0.00     0.028 A 
ATOM      3  C   UNL     1       4.239  -3.187  -6.888  1.00  0.00     0.013 A 
ATOM      4  C   UNL     1       2.782  -0.845  -6.467  1.00  0.00     0.102 A 
ATOM      5  C   UNL     1       3.208  -1.607  -5.378  1.00  0.00     0.130 A 
ATOM      6  C   UNL     1       3.937  -2.778  -5.589  1.00  0.00     0.048 A 
ENDROOT
BRANCH   1   7
ATOM      7  C   UNL     1       4.129  -2.850  -9.323  1.00  0.00     0.018 A 
ATOM      8  C   UNL     1       5.037  -2.122 -10.092  1.00  0.00     0.133 A 
ATOM      9  C   UNL     1       5.338  -2.535 -11.390  1.00  0.00     0.079 A 
ATOM     10  C   UNL     1       3.523  -3.990  -9.851  1.00  0.00     0.015 A 
ATOM     11  C   UNL     1       4.732  -3.675 -11.918  1.00  0.00     0.126 A 
ATOM     12  C   UNL     1       3.825  -4.402 -11.148  1.00  0.00     0.040 A 
ATOM     13  F   UNL     1       5.626  -1.023  -9.600  1.00  0.00    -0.206 F 
ATOM     14  F   UNL     1       5.021  -4.072 -13.164  1.00  0.00    -0.207 F 
ENDBRANCH   1   7
BRANCH   4  15
ATOM     15  C   UNL     1       2.020   0.380  -6.268  1.00  0.00     0.339 C 
ATOM     16  O   UNL     1       1.938   1.006  -5.209  1.00  0.00    -0.246 OA
BRANCH  15  17
ATOM     17  O   UNL     1       1.384   0.784  -7.402  1.00  0.00    -0.478 OA
ATOM     18  H   UNL     1       0.430   0.561  -7.384  1.00  0.00     0.297 HD
ENDBRANCH  15  17
ENDBRANCH   4  15
BRANCH   5  19
ATOM     19  O   UNL     1       2.922  -1.224  -4.102  1.00  0.00    -0.507 OA
ATOM     20  H   UNL     1       3.189  -1.933  -3.491  1.00  0.00     0.293 HD
ENDBRANCH   5  19
TORSDOF 4
ENDMDL
