MODEL 1
REMARK VINA RESULT:    -5.281      0.000      0.000
REMARK INTER + INTRA:          -7.228
REMARK INTER:                  -6.516
REMARK INTRA:                  -0.712
REMARK UNBOUND:                -0.712
REMARK SMILES Cc1ccc(C(=O)c2cc(O)c(O)c([N+](=O)[O-])c2)cc1
REMARK SMILES IDX 8 1 18 2 9 3 14 4 10 5 12 6 6 7 7 8 5 9 4 10 19 11 3 12
REMARK SMILES IDX 20 13 2 14 1 15 15 16 17 17 16 18 11 19 13 21
REMARK H PARENT 11 20 13 22
ROOT
ATOM      1  C   UNL     1      -0.370  -6.297  -3.478  1.00  0.00     0.033 A 
ATOM      2  C   UNL     1       0.616  -5.458  -3.945  1.00  0.00     0.102 A 
ATOM      3  C   UNL     1      -1.133  -6.007  -2.371  1.00  0.00     0.063 A 
ATOM      4  C   UNL     1       0.850  -4.262  -3.267  1.00  0.00     0.315 A 
ATOM      5  C   UNL     1      -0.898  -4.811  -1.693  1.00  0.00     0.165 A 
ATOM      6  C   UNL     1       0.094  -3.938  -2.141  1.00  0.00     0.237 A 
ENDROOT
BRANCH   1   7
ATOM      7  C   UNL     1      -0.622  -7.578  -4.203  1.00  0.00     0.193 C 
ATOM      8  O   UNL     1      -1.786  -8.005  -4.217  1.00  0.00    -0.289 OA
BRANCH   7   9
ATOM      9  C   UNL     1       0.437  -8.314  -4.875  1.00  0.00     0.023 A 
ATOM     10  C   UNL     1       1.032  -9.410  -4.248  1.00  0.00     0.012 A 
ATOM     11  C   UNL     1       0.858  -7.926  -6.147  1.00  0.00     0.012 A 
ATOM     12  C   UNL     1       2.047 -10.116  -4.892  1.00  0.00     0.004 A 
ATOM     13  C   UNL     1       1.874  -8.633  -6.792  1.00  0.00     0.004 A 
ATOM     14  C   UNL     1       2.469  -9.728  -6.165  1.00  0.00    -0.051 A 
ATOM     15  C   UNL     1       3.555 -10.482  -6.852  1.00  0.00     0.044 C 
ENDBRANCH   7   9
ENDBRANCH   1   7
BRANCH   4  16
ATOM     16  N   UNL     1       1.865  -3.385  -3.738  1.00  0.00     0.066 N 
ATOM     17  O   UNL     1       2.122  -3.360  -4.966  1.00  0.00    -0.258 OA
ATOM     18  O   UNL     1       2.473  -2.663  -2.914  1.00  0.00    -0.258 OA
ENDBRANCH   4  16
BRANCH   5  19
ATOM     19  O   UNL     1      -1.646  -4.507  -0.595  1.00  0.00    -0.504 OA
ATOM     20  H   UNL     1      -2.145  -3.690  -0.757  1.00  0.00     0.293 HD
ENDBRANCH   5  19
BRANCH   6  21
ATOM     21  O   UNL     1       0.314  -2.771  -1.470  1.00  0.00    -0.500 OA
ATOM     22  H   UNL     1       0.157  -2.019  -2.062  1.00  0.00     0.294 HD
ENDBRANCH   6  21
TORSDOF 5
ENDMDL
MODEL 2
REMARK VINA RESULT:    -5.207      2.022      3.548
REMARK INTER + INTRA:          -7.137
REMARK INTER:                  -6.401
REMARK INTRA:                  -0.736
REMARK UNBOUND:                -0.712
REMARK SMILES Cc1ccc(C(=O)c2cc(O)c(O)c([N+](=O)[O-])c2)cc1
REMARK SMILES IDX 8 1 18 2 9 3 14 4 10 5 12 6 6 7 7 8 5 9 4 10 19 11 3 12
REMARK SMILES IDX 20 13 2 14 1 15 15 16 17 17 16 18 11 19 13 21
REMARK H PARENT 11 20 13 22
ROOT
ATOM      1  C   UNL     1       1.381  -6.144  -3.490  1.00  0.00     0.033 A 
ATOM      2  C   UNL     1       0.405  -6.310  -2.535  1.00  0.00     0.102 A 
ATOM      3  C   UNL     1       1.923  -4.919  -3.799  1.00  0.00     0.063 A 
ATOM      4  C   UNL     1      -0.054  -5.186  -1.849  1.00  0.00     0.315 A 
ATOM      5  C   UNL     1       1.463  -3.794  -3.113  1.00  0.00     0.165 A 
ATOM      6  C   UNL     1       0.474  -3.928  -2.137  1.00  0.00     0.237 A 
ENDROOT
BRANCH   1   7
ATOM      7  C   UNL     1       1.874  -7.348  -4.226  1.00  0.00     0.193 C 
ATOM      8  O   UNL     1       3.090  -7.412  -4.461  1.00  0.00    -0.289 OA
BRANCH   7   9
ATOM      9  C   UNL     1       0.985  -8.414  -4.658  1.00  0.00     0.023 A 
ATOM     10  C   UNL     1       0.513  -8.440  -5.971  1.00  0.00     0.012 A 
ATOM     11  C   UNL     1       0.605  -9.413  -3.761  1.00  0.00     0.012 A 
ATOM     12  C   UNL     1      -0.339  -9.463  -6.385  1.00  0.00     0.004 A 
ATOM     13  C   UNL     1      -0.247 -10.437  -4.176  1.00  0.00     0.004 A 
ATOM     14  C   UNL     1      -0.719 -10.462  -5.488  1.00  0.00    -0.051 A 
ATOM     15  C   UNL     1      -1.631 -11.555  -5.931  1.00  0.00     0.044 C 
ENDBRANCH   7   9
ENDBRANCH   1   7
BRANCH   4  16
ATOM     16  N   UNL     1      -1.062  -5.342  -0.858  1.00  0.00     0.066 N 
ATOM     17  O   UNL     1      -1.944  -4.456  -0.746  1.00  0.00    -0.258 OA
ATOM     18  O   UNL     1      -1.041  -6.360  -0.127  1.00  0.00    -0.258 OA
ENDBRANCH   4  16
BRANCH   5  19
ATOM     19  O   UNL     1       1.989  -2.571  -3.405  1.00  0.00    -0.504 OA
ATOM     20  H   UNL     1       2.670  -2.346  -2.751  1.00  0.00     0.293 HD
ENDBRANCH   5  19
BRANCH   6  21
ATOM     21  O   UNL     1       0.033  -2.821  -1.473  1.00  0.00    -0.500 OA
ATOM     22  H   UNL     1      -0.869  -2.606  -1.759  1.00  0.00     0.294 HD
ENDBRANCH   6  21
TORSDOF 5
ENDMDL
MODEL 3
REMARK VINA RESULT:    -4.698      3.492      7.060
REMARK INTER + INTRA:          -6.508
REMARK INTER:                  -5.630
REMARK INTRA:                  -0.878
REMARK UNBOUND:                -0.712
REMARK SMILES Cc1ccc(C(=O)c2cc(O)c(O)c([N+](=O)[O-])c2)cc1
REMARK SMILES IDX 8 1 18 2 9 3 14 4 10 5 12 6 6 7 7 8 5 9 4 10 19 11 3 12
REMARK SMILES IDX 20 13 2 14 1 15 15 16 17 17 16 18 11 19 13 21
REMARK H PARENT 11 20 13 22
ROOT
ATOM      1  C   UNL     1       1.034  -8.361  -5.826  1.00  0.00     0.033 A 
ATOM      2  C   UNL     1       0.067  -9.339  -5.795  1.00  0.00     0.102 A 
ATOM      3  C   UNL     1       2.325  -8.600  -6.232  1.00  0.00     0.063 A 
ATOM      4  C   UNL     1       0.412 -10.630  -6.193  1.00  0.00     0.315 A 
ATOM      5  C   UNL     1       2.671  -9.892  -6.630  1.00  0.00     0.165 A 
ATOM      6  C   UNL     1       1.713 -10.908  -6.611  1.00  0.00     0.237 A 
ENDROOT
BRANCH   1   7
ATOM      7  C   UNL     1       0.665  -6.977  -5.400  1.00  0.00     0.193 C 
ATOM      8  O   UNL     1       0.826  -6.065  -6.225  1.00  0.00    -0.289 OA
BRANCH   7   9
ATOM      9  C   UNL     1       0.136  -6.684  -4.078  1.00  0.00     0.023 A 
ATOM     10  C   UNL     1       0.623  -7.368  -2.964  1.00  0.00     0.012 A 
ATOM     11  C   UNL     1      -0.859  -5.719  -3.923  1.00  0.00     0.012 A 
ATOM     12  C   UNL     1       0.115  -7.086  -1.696  1.00  0.00     0.004 A 
ATOM     13  C   UNL     1      -1.367  -5.437  -2.654  1.00  0.00     0.004 A 
ATOM     14  C   UNL     1      -0.880  -6.121  -1.540  1.00  0.00    -0.051 A 
ATOM     15  C   UNL     1      -1.423  -5.821  -0.185  1.00  0.00     0.044 C 
ENDBRANCH   7   9
ENDBRANCH   1   7
BRANCH   4  16
ATOM     16  N   UNL     1      -0.577 -11.652  -6.167  1.00  0.00     0.066 N 
ATOM     17  O   UNL     1      -1.491 -11.588  -5.310  1.00  0.00    -0.258 OA
ATOM     18  O   UNL     1      -0.506 -12.585  -7.000  1.00  0.00    -0.258 OA
ENDBRANCH   4  16
BRANCH   5  19
ATOM     19  O   UNL     1       3.946 -10.149  -7.035  1.00  0.00    -0.504 OA
ATOM     20  H   UNL     1       4.487 -10.399  -6.269  1.00  0.00     0.293 HD
ENDBRANCH   5  19
BRANCH   6  21
ATOM     21  O   UNL     1       2.063 -12.167  -7.003  1.00  0.00    -0.500 OA
ATOM     22  H   UNL     1       1.318 -12.772  -6.859  1.00  0.00     0.294 HD
ENDBRANCH   6  21
TORSDOF 5
ENDMDL
MODEL 4
REMARK VINA RESULT:    -4.692      3.617      6.494
REMARK INTER + INTRA:          -6.502
REMARK INTER:                  -5.556
REMARK INTRA:                  -0.946
REMARK UNBOUND:                -0.712
REMARK SMILES Cc1ccc(C(=O)c2cc(O)c(O)c([N+](=O)[O-])c2)cc1
REMARK SMILES IDX 8 1 18 2 9 3 14 4 10 5 12 6 6 7 7 8 5 9 4 10 19 11 3 12
REMARK SMILES IDX 20 13 2 14 1 15 15 16 17 17 16 18 11 19 13 21
REMARK H PARENT 11 20 13 22
ROOT
ATOM      1  C   UNL     1       0.650  -9.402  -4.538  1.00  0.00     0.033 A 
ATOM      2  C   UNL     1       1.853  -9.583  -5.182  1.00  0.00     0.102 A 
ATOM      3  C   UNL     1      -0.464 -10.159  -4.810  1.00  0.00     0.063 A 
ATOM      4  C   UNL     1       1.945 -10.581  -6.152  1.00  0.00     0.315 A 
ATOM      5  C   UNL     1      -0.372 -11.156  -5.782  1.00  0.00     0.165 A 
ATOM      6  C   UNL     1       0.833 -11.367  -6.453  1.00  0.00     0.237 A 
ENDROOT
BRANCH   1   7
ATOM      7  C   UNL     1       0.551  -8.333  -3.498  1.00  0.00     0.193 C 
ATOM      8  O   UNL     1       0.109  -8.660  -2.387  1.00  0.00    -0.289 OA
BRANCH   7   9
ATOM      9  C   UNL     1       0.950  -6.958  -3.753  1.00  0.00     0.023 A 
ATOM     10  C   UNL     1       1.798  -6.302  -2.861  1.00  0.00     0.012 A 
ATOM     11  C   UNL     1       0.485  -6.296  -4.889  1.00  0.00     0.012 A 
ATOM     12  C   UNL     1       2.181  -4.983  -3.105  1.00  0.00     0.004 A 
ATOM     13  C   UNL     1       0.868  -4.976  -5.134  1.00  0.00     0.004 A 
ATOM     14  C   UNL     1       1.716  -4.320  -4.242  1.00  0.00    -0.051 A 
ATOM     15  C   UNL     1       2.124  -2.910  -4.501  1.00  0.00     0.044 C 
ENDBRANCH   7   9
ENDBRANCH   1   7
BRANCH   4  16
ATOM     16  N   UNL     1       3.181 -10.781  -6.825  1.00  0.00     0.066 N 
ATOM     17  O   UNL     1       3.889  -9.783  -7.103  1.00  0.00    -0.258 OA
ATOM     18  O   UNL     1       3.528 -11.949  -7.121  1.00  0.00    -0.258 OA
ENDBRANCH   4  16
BRANCH   5  19
ATOM     19  O   UNL     1      -1.466 -11.917  -6.065  1.00  0.00    -0.504 OA
ATOM     20  H   UNL     1      -1.760 -11.739  -6.973  1.00  0.00     0.293 HD
ENDBRANCH   5  19
BRANCH   6  21
ATOM     21  O   UNL     1       0.911 -12.346  -7.400  1.00  0.00    -0.500 OA
ATOM     22  H   UNL     1       1.817 -12.396  -7.744  1.00  0.00     0.294 HD
ENDBRANCH   6  21
TORSDOF 5
ENDMDL
MODEL 5
REMARK VINA RESULT:    -4.681      3.573      4.476
REMARK INTER + INTRA:          -6.488
REMARK INTER:                  -5.479
REMARK INTRA:                  -1.009
REMARK UNBOUND:                -0.712
REMARK SMILES Cc1ccc(C(=O)c2cc(O)c(O)c([N+](=O)[O-])c2)cc1
REMARK SMILES IDX 8 1 18 2 9 3 14 4 10 5 12 6 6 7 7 8 5 9 4 10 19 11 3 12
REMARK SMILES IDX 20 13 2 14 1 15 15 16 17 17 16 18 11 19 13 21
REMARK H PARENT 11 20 13 22
ROOT
ATOM      1  C   UNL     1       0.612  -9.407  -4.238  1.00  0.00     0.033 A 
ATOM      2  C   UNL     1       0.519  -8.035  -4.265  1.00  0.00     0.102 A 
ATOM      3  C   UNL     1       0.680 -10.128  -3.070  1.00  0.00     0.063 A 
ATOM      4  C   UNL     1       0.490  -7.345  -3.053  1.00  0.00     0.315 A 
ATOM      5  C   UNL     1       0.652  -9.438  -1.857  1.00  0.00     0.165 A 
ATOM      6  C   UNL     1       0.556  -8.046  -1.849  1.00  0.00     0.237 A 
ENDROOT
BRANCH   1   7
ATOM      7  C   UNL     1       0.643 -10.146  -5.536  1.00  0.00     0.193 C 
ATOM      8  O   UNL     1       1.687 -10.081  -6.203  1.00  0.00    -0.289 OA
BRANCH   7   9
ATOM      9  C   UNL     1      -0.489 -10.918  -6.021  1.00  0.00     0.023 A 
ATOM     10  C   UNL     1      -0.325 -12.262  -6.357  1.00  0.00     0.012 A 
ATOM     11  C   UNL     1      -1.741 -10.316  -6.149  1.00  0.00     0.012 A 
ATOM     12  C   UNL     1      -1.412 -13.003  -6.822  1.00  0.00     0.004 A 
ATOM     13  C   UNL     1      -2.828 -11.056  -6.614  1.00  0.00     0.004 A 
ATOM     14  C   UNL     1      -2.664 -12.400  -6.950  1.00  0.00    -0.051 A 
ATOM     15  C   UNL     1      -3.825 -13.192  -7.448  1.00  0.00     0.044 C 
ENDBRANCH   7   9
ENDBRANCH   1   7
BRANCH   4  16
ATOM     16  N   UNL     1       0.392  -5.926  -3.064  1.00  0.00     0.066 N 
ATOM     17  O   UNL     1       1.050  -5.267  -2.223  1.00  0.00    -0.258 OA
ATOM     18  O   UNL     1      -0.346  -5.376  -3.914  1.00  0.00    -0.258 OA
ENDBRANCH   4  16
BRANCH   5  19
ATOM     19  O   UNL     1       0.717 -10.136  -0.689  1.00  0.00    -0.504 OA
ATOM     20  H   UNL     1       1.493 -10.721  -0.703  1.00  0.00     0.293 HD
ENDBRANCH   5  19
BRANCH   6  21
ATOM     21  O   UNL     1       0.529  -7.382  -0.657  1.00  0.00    -0.500 OA
ATOM     22  H   UNL     1       1.399  -7.438  -0.233  1.00  0.00     0.294 HD
ENDBRANCH   6  21
TORSDOF 5
ENDMDL
MODEL 6
REMARK VINA RESULT:    -4.678      3.760      6.995
REMARK INTER + INTRA:          -6.484
REMARK INTER:                  -5.513
REMARK INTRA:                  -0.971
REMARK UNBOUND:                -0.712
REMARK SMILES Cc1ccc(C(=O)c2cc(O)c(O)c([N+](=O)[O-])c2)cc1
REMARK SMILES IDX 8 1 18 2 9 3 14 4 10 5 12 6 6 7 7 8 5 9 4 10 19 11 3 12
REMARK SMILES IDX 20 13 2 14 1 15 15 16 17 17 16 18 11 19 13 21
REMARK H PARENT 11 20 13 22
ROOT
ATOM      1  C   UNL     1       0.777  -9.393  -4.675  1.00  0.00     0.033 A 
ATOM      2  C   UNL     1      -0.309 -10.130  -5.087  1.00  0.00     0.102 A 
ATOM      3  C   UNL     1       2.043  -9.586  -5.173  1.00  0.00     0.063 A 
ATOM      4  C   UNL     1      -0.116 -11.116  -6.055  1.00  0.00     0.315 A 
ATOM      5  C   UNL     1       2.236 -10.573  -6.141  1.00  0.00     0.165 A 
ATOM      6  C   UNL     1       1.156 -11.338  -6.582  1.00  0.00     0.237 A 
ENDROOT
BRANCH   1   7
ATOM      7  C   UNL     1       0.571  -8.336  -3.639  1.00  0.00     0.193 C 
ATOM      8  O   UNL     1       0.045  -8.683  -2.570  1.00  0.00    -0.289 OA
BRANCH   7   9
ATOM      9  C   UNL     1       0.963  -6.952  -3.848  1.00  0.00     0.023 A 
ATOM     10  C   UNL     1       1.798  -6.316  -2.929  1.00  0.00     0.012 A 
ATOM     11  C   UNL     1       0.505  -6.259  -4.969  1.00  0.00     0.012 A 
ATOM     12  C   UNL     1       2.173  -4.988  -3.130  1.00  0.00     0.004 A 
ATOM     13  C   UNL     1       0.881  -4.931  -5.171  1.00  0.00     0.004 A 
ATOM     14  C   UNL     1       1.715  -4.295  -4.251  1.00  0.00    -0.051 A 
ATOM     15  C   UNL     1       2.116  -2.875  -4.465  1.00  0.00     0.044 C 
ENDBRANCH   7   9
ENDBRANCH   1   7
BRANCH   4  16
ATOM     16  N   UNL     1      -1.229 -11.886  -6.491  1.00  0.00     0.066 N 
ATOM     17  O   UNL     1      -2.378 -11.386  -6.421  1.00  0.00    -0.258 OA
ATOM     18  O   UNL     1      -1.030 -13.041  -6.934  1.00  0.00    -0.258 OA
ENDBRANCH   4  16
BRANCH   5  19
ATOM     19  O   UNL     1       3.484 -10.779  -6.647  1.00  0.00    -0.504 OA
ATOM     20  H   UNL     1       3.625 -11.729  -6.790  1.00  0.00     0.293 HD
ENDBRANCH   5  19
BRANCH   6  21
ATOM     21  O   UNL     1       1.357 -12.300  -7.529  1.00  0.00    -0.500 OA
ATOM     22  H   UNL     1       1.969 -11.970  -8.204  1.00  0.00     0.294 HD
ENDBRANCH   6  21
TORSDOF 5
ENDMDL
MODEL 7
REMARK VINA RESULT:    -4.675      2.323      4.046
REMARK INTER + INTRA:          -6.480
REMARK INTER:                  -5.470
REMARK INTRA:                  -1.010
REMARK UNBOUND:                -0.712
REMARK SMILES Cc1ccc(C(=O)c2cc(O)c(O)c([N+](=O)[O-])c2)cc1
REMARK SMILES IDX 8 1 18 2 9 3 14 4 10 5 12 6 6 7 7 8 5 9 4 10 19 11 3 12
REMARK SMILES IDX 20 13 2 14 1 15 15 16 17 17 16 18 11 19 13 21
REMARK H PARENT 11 20 13 22
ROOT
ATOM      1  C   UNL     1       0.893  -8.335  -5.908  1.00  0.00     0.033 A 
ATOM      2  C   UNL     1       0.820  -7.704  -4.688  1.00  0.00     0.102 A 
ATOM      3  C   UNL     1       0.817  -7.659  -7.103  1.00  0.00     0.063 A 
ATOM      4  C   UNL     1       0.664  -6.318  -4.662  1.00  0.00     0.315 A 
ATOM      5  C   UNL     1       0.660  -6.273  -7.077  1.00  0.00     0.165 A 
ATOM      6  C   UNL     1       0.584  -5.603  -5.856  1.00  0.00     0.237 A 
ENDROOT
BRANCH   1   7
ATOM      7  C   UNL     1       1.060  -9.819  -5.937  1.00  0.00     0.193 C 
ATOM      8  O   UNL     1       0.074 -10.509  -5.634  1.00  0.00    -0.289 OA
BRANCH   7   9
ATOM      9  C   UNL     1       2.316 -10.456  -6.300  1.00  0.00     0.023 A 
ATOM     10  C   UNL     1       2.352 -11.380  -7.344  1.00  0.00     0.012 A 
ATOM     11  C   UNL     1       3.484 -10.141  -5.606  1.00  0.00     0.012 A 
ATOM     12  C   UNL     1       3.557 -11.990  -7.693  1.00  0.00     0.004 A 
ATOM     13  C   UNL     1       4.689 -10.751  -5.955  1.00  0.00     0.004 A 
ATOM     14  C   UNL     1       4.726 -11.676  -6.999  1.00  0.00    -0.051 A 
ATOM     15  C   UNL     1       6.013 -12.329  -7.372  1.00  0.00     0.044 C 
ENDBRANCH   7   9
ENDBRANCH   1   7
BRANCH   4  16
ATOM     16  N   UNL     1       0.587  -5.652  -3.408  1.00  0.00     0.066 N 
ATOM     17  O   UNL     1       1.346  -6.020  -2.479  1.00  0.00    -0.258 OA
ATOM     18  O   UNL     1      -0.235  -4.717  -3.267  1.00  0.00    -0.258 OA
ENDBRANCH   4  16
BRANCH   5  19
ATOM     19  O   UNL     1       0.584  -5.587  -8.252  1.00  0.00    -0.504 OA
ATOM     20  H   UNL     1       1.274  -5.903  -8.858  1.00  0.00     0.293 HD
ENDBRANCH   5  19
BRANCH   6  21
ATOM     21  O   UNL     1       0.431  -4.247  -5.843  1.00  0.00    -0.500 OA
ATOM     22  H   UNL     1       0.168  -3.956  -4.956  1.00  0.00     0.294 HD
ENDBRANCH   6  21
TORSDOF 5
ENDMDL
MODEL 8
REMARK VINA RESULT:    -4.601      3.684      6.834
REMARK INTER + INTRA:          -6.389
REMARK INTER:                  -5.418
REMARK INTRA:                  -0.971
REMARK UNBOUND:                -0.712
REMARK SMILES Cc1ccc(C(=O)c2cc(O)c(O)c([N+](=O)[O-])c2)cc1
REMARK SMILES IDX 8 1 18 2 9 3 14 4 10 5 12 6 6 7 7 8 5 9 4 10 19 11 3 12
REMARK SMILES IDX 20 13 2 14 1 15 15 16 17 17 16 18 11 19 13 21
REMARK H PARENT 11 20 13 22
ROOT
ATOM      1  C   UNL     1       0.820  -8.676  -5.735  1.00  0.00     0.033 A 
ATOM      2  C   UNL     1       2.037  -9.173  -6.140  1.00  0.00     0.102 A 
ATOM      3  C   UNL     1      -0.332  -9.427  -5.741  1.00  0.00     0.063 A 
ATOM      4  C   UNL     1       2.105 -10.497  -6.574  1.00  0.00     0.315 A 
ATOM      5  C   UNL     1      -0.264 -10.750  -6.176  1.00  0.00     0.165 A 
ATOM      6  C   UNL     1       0.955 -11.286  -6.593  1.00  0.00     0.237 A 
ENDROOT
BRANCH   1   7
ATOM      7  C   UNL     1       0.746  -7.259  -5.270  1.00  0.00     0.193 C 
ATOM      8  O   UNL     1       1.180  -6.385  -6.036  1.00  0.00    -0.289 OA
BRANCH   7   9
ATOM      9  C   UNL     1       0.192  -6.890  -3.977  1.00  0.00     0.023 A 
ATOM     10  C   UNL     1      -0.788  -5.900  -3.894  1.00  0.00     0.012 A 
ATOM     11  C   UNL     1       0.639  -7.527  -2.819  1.00  0.00     0.012 A 
ATOM     12  C   UNL     1      -1.319  -5.547  -2.654  1.00  0.00     0.004 A 
ATOM     13  C   UNL     1       0.108  -7.174  -1.578  1.00  0.00     0.004 A 
ATOM     14  C   UNL     1      -0.872  -6.184  -1.495  1.00  0.00    -0.051 A 
ATOM     15  C   UNL     1      -1.439  -5.805  -0.170  1.00  0.00     0.044 C 
ENDBRANCH   7   9
ENDBRANCH   1   7
BRANCH   4  16
ATOM     16  N   UNL     1       3.356 -11.025  -6.996  1.00  0.00     0.066 N 
ATOM     17  O   UNL     1       3.376 -11.876  -7.918  1.00  0.00    -0.258 OA
ATOM     18  O   UNL     1       4.403 -10.625  -6.434  1.00  0.00    -0.258 OA
ENDBRANCH   4  16
BRANCH   5  19
ATOM     19  O   UNL     1      -1.396 -11.509  -6.188  1.00  0.00    -0.504 OA
ATOM     20  H   UNL     1      -1.331 -12.200  -5.508  1.00  0.00     0.293 HD
ENDBRANCH   5  19
BRANCH   6  21
ATOM     21  O   UNL     1       1.010 -12.582  -7.016  1.00  0.00    -0.500 OA
ATOM     22  H   UNL     1       1.651 -13.074  -6.480  1.00  0.00     0.294 HD
ENDBRANCH   6  21
TORSDOF 5
ENDMDL
MODEL 9
REMARK VINA RESULT:    -4.422      1.934      2.633
REMARK INTER + INTRA:          -6.168
REMARK INTER:                  -5.537
REMARK INTRA:                  -0.631
REMARK UNBOUND:                -0.712
REMARK SMILES Cc1ccc(C(=O)c2cc(O)c(O)c([N+](=O)[O-])c2)cc1
REMARK SMILES IDX 8 1 18 2 9 3 14 4 10 5 12 6 6 7 7 8 5 9 4 10 19 11 3 12
REMARK SMILES IDX 20 13 2 14 1 15 15 16 17 17 16 18 11 19 13 21
REMARK H PARENT 11 20 13 22
ROOT
ATOM      1  C   UNL     1       1.252  -6.620  -3.690  1.00  0.00     0.033 A 
ATOM      2  C   UNL     1       1.769  -5.391  -4.025  1.00  0.00     0.102 A 
ATOM      3  C   UNL     1       0.375  -6.802  -2.647  1.00  0.00     0.063 A 
ATOM      4  C   UNL     1       1.386  -4.279  -3.275  1.00  0.00     0.315 A 
ATOM      5  C   UNL     1      -0.008  -5.690  -1.896  1.00  0.00     0.165 A 
ATOM      6  C   UNL     1       0.498  -4.428  -2.210  1.00  0.00     0.237 A 
ENDROOT
BRANCH   1   7
ATOM      7  C   UNL     1       1.662  -7.811  -4.493  1.00  0.00     0.193 C 
ATOM      8  O   UNL     1       2.859  -7.901  -4.807  1.00  0.00    -0.289 OA
BRANCH   7   9
ATOM      9  C   UNL     1       0.718  -8.838  -4.903  1.00  0.00     0.023 A 
ATOM     10  C   UNL     1       0.195  -8.829  -6.196  1.00  0.00     0.012 A 
ATOM     11  C   UNL     1       0.335  -9.833  -4.003  1.00  0.00     0.012 A 
ATOM     12  C   UNL     1      -0.711  -9.814  -6.589  1.00  0.00     0.004 A 
ATOM     13  C   UNL     1      -0.571 -10.819  -4.396  1.00  0.00     0.004 A 
ATOM     14  C   UNL     1      -1.094 -10.810  -5.689  1.00  0.00    -0.051 A 
ATOM     15  C   UNL     1      -2.063 -11.862  -6.109  1.00  0.00     0.044 C 
ENDBRANCH   7   9
ENDBRANCH   1   7
BRANCH   4  16
ATOM     16  N   UNL     1       1.912  -3.001  -3.610  1.00  0.00     0.066 N 
ATOM     17  O   UNL     1       2.557  -2.365  -2.742  1.00  0.00    -0.258 OA
ATOM     18  O   UNL     1       1.718  -2.549  -4.762  1.00  0.00    -0.258 OA
ENDBRANCH   4  16
BRANCH   5  19
ATOM     19  O   UNL     1      -0.877  -5.851  -0.859  1.00  0.00    -0.504 OA
ATOM     20  H   UNL     1      -0.412  -5.703  -0.019  1.00  0.00     0.293 HD
ENDBRANCH   5  19
BRANCH   6  21
ATOM     21  O   UNL     1       0.115  -3.348  -1.469  1.00  0.00    -0.500 OA
ATOM     22  H   UNL     1       0.885  -2.784  -1.295  1.00  0.00     0.294 HD
ENDBRANCH   6  21
TORSDOF 5
ENDMDL
