MODEL 1
REMARK VINA RESULT:    -6.848      0.000      0.000
REMARK INTER + INTRA:          -8.690
REMARK INTER:                  -8.049
REMARK INTRA:                  -0.641
REMARK UNBOUND:                -0.641
REMARK SMILES O=C(O)c1cc(-c2ccc(F)cc2F)ccc1O
REMARK SMILES IDX 6 1 5 2 15 3 4 4 17 5 16 6 7 7 13 8 12 9 8 10 10 11 9 12
REMARK SMILES IDX 14 13 11 14 2 15 1 16 3 17 18 19
REMARK H PARENT 3 18 18 20
ROOT
ATOM      1  C   UNL     1       0.521  -6.301  -3.702  1.00  0.00    -0.014 A 
ATOM      2  C   UNL     1       1.341  -5.242  -4.088  1.00  0.00     0.028 A 
ATOM      3  C   UNL     1      -0.381  -6.138  -2.650  1.00  0.00     0.013 A 
ATOM      4  C   UNL     1       1.260  -4.018  -3.422  1.00  0.00     0.102 A 
ATOM      5  C   UNL     1       0.359  -3.855  -2.370  1.00  0.00     0.130 A 
ATOM      6  C   UNL     1      -0.462  -4.915  -1.984  1.00  0.00     0.048 A 
ENDROOT
BRANCH   1   7
ATOM      7  C   UNL     1       0.605  -7.571  -4.391  1.00  0.00     0.018 A 
ATOM      8  C   UNL     1       0.633  -7.610  -5.785  1.00  0.00     0.133 A 
ATOM      9  C   UNL     1       0.714  -8.837  -6.446  1.00  0.00     0.079 A 
ATOM     10  C   UNL     1       0.660  -8.756  -3.658  1.00  0.00     0.015 A 
ATOM     11  C   UNL     1       0.768 -10.022  -5.713  1.00  0.00     0.126 A 
ATOM     12  C   UNL     1       0.741  -9.981  -4.319  1.00  0.00     0.040 A 
ATOM     13  F   UNL     1       0.578  -6.481  -6.505  1.00  0.00    -0.206 F 
ATOM     14  F   UNL     1       0.846 -11.199  -6.346  1.00  0.00    -0.207 F 
ENDBRANCH   1   7
BRANCH   4  15
ATOM     15  C   UNL     1       2.125  -2.924  -3.841  1.00  0.00     0.339 C 
ATOM     16  O   UNL     1       2.757  -2.184  -3.083  1.00  0.00    -0.246 OA
BRANCH  15  17
ATOM     17  O   UNL     1       2.174  -2.790  -5.194  1.00  0.00    -0.478 OA
ATOM     18  H   UNL     1       3.085  -2.898  -5.538  1.00  0.00     0.297 HD
ENDBRANCH  15  17
ENDBRANCH   4  15
BRANCH   5  19
ATOM     19  O   UNL     1       0.264  -2.667  -1.708  1.00  0.00    -0.507 OA
ATOM     20  H   UNL     1      -0.637  -2.575  -1.350  1.00  0.00     0.293 HD
ENDBRANCH   5  19
TORSDOF 4
ENDMDL
MODEL 2
REMARK VINA RESULT:    -6.819      1.134      1.625
REMARK INTER + INTRA:          -8.656
REMARK INTER:                  -8.063
REMARK INTRA:                  -0.593
REMARK UNBOUND:                -0.641
REMARK SMILES O=C(O)c1cc(-c2ccc(F)cc2F)ccc1O
REMARK SMILES IDX 6 1 5 2 15 3 4 4 17 5 16 6 7 7 13 8 12 9 8 10 10 11 9 12
REMARK SMILES IDX 14 13 11 14 2 15 1 16 3 17 18 19
REMARK H PARENT 3 18 18 20
ROOT
ATOM      1  C   UNL     1       0.516  -6.350  -3.564  1.00  0.00    -0.014 A 
ATOM      2  C   UNL     1       1.292  -5.263  -3.964  1.00  0.00     0.028 A 
ATOM      3  C   UNL     1      -0.352  -6.226  -2.480  1.00  0.00     0.013 A 
ATOM      4  C   UNL     1       1.201  -4.051  -3.280  1.00  0.00     0.102 A 
ATOM      5  C   UNL     1       0.332  -3.926  -2.196  1.00  0.00     0.130 A 
ATOM      6  C   UNL     1      -0.445  -5.014  -1.796  1.00  0.00     0.048 A 
ENDROOT
BRANCH   1   7
ATOM      7  C   UNL     1       0.612  -7.608  -4.273  1.00  0.00     0.018 A 
ATOM      8  C   UNL     1       0.697  -8.807  -3.563  1.00  0.00     0.133 A 
ATOM      9  C   UNL     1       0.790 -10.018  -4.251  1.00  0.00     0.079 A 
ATOM     10  C   UNL     1       0.617  -7.621  -5.667  1.00  0.00     0.015 A 
ATOM     11  C   UNL     1       0.796 -10.030  -5.645  1.00  0.00     0.126 A 
ATOM     12  C   UNL     1       0.709  -8.832  -6.353  1.00  0.00     0.040 A 
ATOM     13  F   UNL     1       0.696  -8.812  -2.223  1.00  0.00    -0.206 F 
ATOM     14  F   UNL     1       0.884 -11.192  -6.305  1.00  0.00    -0.207 F 
ENDBRANCH   1   7
BRANCH   4  15
ATOM     15  C   UNL     1       2.020  -2.927  -3.714  1.00  0.00     0.339 C 
ATOM     16  O   UNL     1       2.708  -2.219  -2.975  1.00  0.00    -0.246 OA
BRANCH  15  17
ATOM     17  O   UNL     1       1.953  -2.726  -5.058  1.00  0.00    -0.478 OA
ATOM     18  H   UNL     1       2.798  -2.951  -5.502  1.00  0.00     0.297 HD
ENDBRANCH  15  17
ENDBRANCH   4  15
BRANCH   5  19
ATOM     19  O   UNL     1       0.227  -2.750  -1.514  1.00  0.00    -0.507 OA
ATOM     20  H   UNL     1      -0.711  -2.502  -1.453  1.00  0.00     0.293 HD
ENDBRANCH   5  19
TORSDOF 4
ENDMDL
MODEL 3
REMARK VINA RESULT:    -6.760      1.798      3.289
REMARK INTER + INTRA:          -8.586
REMARK INTER:                  -7.899
REMARK INTRA:                  -0.687
REMARK UNBOUND:                -0.641
REMARK SMILES O=C(O)c1cc(-c2ccc(F)cc2F)ccc1O
REMARK SMILES IDX 6 1 5 2 15 3 4 4 17 5 16 6 7 7 13 8 12 9 8 10 10 11 9 12
REMARK SMILES IDX 14 13 11 14 2 15 1 16 3 17 18 19
REMARK H PARENT 3 18 18 20
ROOT
ATOM      1  C   UNL     1       0.511  -6.445  -3.439  1.00  0.00    -0.014 A 
ATOM      2  C   UNL     1      -0.437  -6.393  -2.418  1.00  0.00     0.028 A 
ATOM      3  C   UNL     1       1.317  -5.336  -3.699  1.00  0.00     0.013 A 
ATOM      4  C   UNL     1      -0.579  -5.233  -1.656  1.00  0.00     0.102 A 
ATOM      5  C   UNL     1       0.227  -4.125  -1.916  1.00  0.00     0.130 A 
ATOM      6  C   UNL     1       1.175  -4.177  -2.938  1.00  0.00     0.048 A 
ENDROOT
BRANCH   1   7
ATOM      7  C   UNL     1       0.658  -7.647  -4.231  1.00  0.00     0.018 A 
ATOM      8  C   UNL     1       0.750  -8.891  -3.606  1.00  0.00     0.133 A 
ATOM      9  C   UNL     1       0.892 -10.047  -4.373  1.00  0.00     0.079 A 
ATOM     10  C   UNL     1       0.707  -7.560  -5.622  1.00  0.00     0.015 A 
ATOM     11  C   UNL     1       0.941  -9.960  -5.764  1.00  0.00     0.126 A 
ATOM     12  C   UNL     1       0.848  -8.716  -6.388  1.00  0.00     0.040 A 
ATOM     13  F   UNL     1       0.707  -8.991  -2.270  1.00  0.00    -0.206 F 
ATOM     14  F   UNL     1       1.078 -11.070  -6.501  1.00  0.00    -0.207 F 
ENDBRANCH   1   7
BRANCH   4  15
ATOM     15  C   UNL     1      -1.575  -5.200  -0.593  1.00  0.00     0.339 C 
ATOM     16  O   UNL     1      -2.292  -4.235  -0.317  1.00  0.00    -0.246 OA
BRANCH  15  17
ATOM     17  O   UNL     1      -1.643  -6.375   0.090  1.00  0.00    -0.478 OA
ATOM     18  H   UNL     1      -1.831  -7.131  -0.504  1.00  0.00     0.297 HD
ENDBRANCH  15  17
ENDBRANCH   4  15
BRANCH   5  19
ATOM     19  O   UNL     1       0.104  -2.983  -1.182  1.00  0.00    -0.507 OA
ATOM     20  H   UNL     1       0.064  -3.215  -0.238  1.00  0.00     0.293 HD
ENDBRANCH   5  19
TORSDOF 4
ENDMDL
MODEL 4
REMARK VINA RESULT:    -6.731      1.395      2.833
REMARK INTER + INTRA:          -8.552
REMARK INTER:                  -7.898
REMARK INTRA:                  -0.654
REMARK UNBOUND:                -0.641
REMARK SMILES O=C(O)c1cc(-c2ccc(F)cc2F)ccc1O
REMARK SMILES IDX 6 1 5 2 15 3 4 4 17 5 16 6 7 7 13 8 12 9 8 10 10 11 9 12
REMARK SMILES IDX 14 13 11 14 2 15 1 16 3 17 18 19
REMARK H PARENT 3 18 18 20
ROOT
ATOM      1  C   UNL     1       0.481  -6.387  -3.501  1.00  0.00    -0.014 A 
ATOM      2  C   UNL     1      -0.445  -6.335  -2.460  1.00  0.00     0.028 A 
ATOM      3  C   UNL     1       1.268  -5.272  -3.790  1.00  0.00     0.013 A 
ATOM      4  C   UNL     1      -0.586  -5.168  -1.708  1.00  0.00     0.102 A 
ATOM      5  C   UNL     1       0.201  -4.053  -1.998  1.00  0.00     0.130 A 
ATOM      6  C   UNL     1       1.128  -4.105  -3.039  1.00  0.00     0.048 A 
ENDROOT
BRANCH   1   7
ATOM      7  C   UNL     1       0.626  -7.596  -4.282  1.00  0.00     0.018 A 
ATOM      8  C   UNL     1       0.677  -7.529  -5.674  1.00  0.00     0.133 A 
ATOM      9  C   UNL     1       0.817  -8.697  -6.424  1.00  0.00     0.079 A 
ATOM     10  C   UNL     1       0.717  -8.831  -3.639  1.00  0.00     0.015 A 
ATOM     11  C   UNL     1       0.906  -9.932  -5.781  1.00  0.00     0.126 A 
ATOM     12  C   UNL     1       0.857  -9.998  -4.389  1.00  0.00     0.040 A 
ATOM     13  F   UNL     1       0.588  -6.350  -6.308  1.00  0.00    -0.206 F 
ATOM     14  F   UNL     1       1.041 -11.054  -6.500  1.00  0.00    -0.207 F 
ENDBRANCH   1   7
BRANCH   4  15
ATOM     15  C   UNL     1      -1.559  -5.134  -0.625  1.00  0.00     0.339 C 
ATOM     16  O   UNL     1      -2.280  -4.174  -0.343  1.00  0.00    -0.246 OA
BRANCH  15  17
ATOM     17  O   UNL     1      -1.600  -6.302   0.071  1.00  0.00    -0.478 OA
ATOM     18  H   UNL     1      -2.428  -6.799  -0.099  1.00  0.00     0.297 HD
ENDBRANCH  15  17
ENDBRANCH   4  15
BRANCH   5  19
ATOM     19  O   UNL     1       0.080  -2.904  -1.275  1.00  0.00    -0.507 OA
ATOM     20  H   UNL     1      -0.701  -2.414  -1.586  1.00  0.00     0.293 HD
ENDBRANCH   5  19
TORSDOF 4
ENDMDL
MODEL 5
REMARK VINA RESULT:    -5.370      4.157      6.471
REMARK INTER + INTRA:          -6.952
REMARK INTER:                  -5.887
REMARK INTRA:                  -1.065
REMARK UNBOUND:                -0.641
REMARK SMILES O=C(O)c1cc(-c2ccc(F)cc2F)ccc1O
REMARK SMILES IDX 6 1 5 2 15 3 4 4 17 5 16 6 7 7 13 8 12 9 8 10 10 11 9 12
REMARK SMILES IDX 14 13 11 14 2 15 1 16 3 17 18 19
REMARK H PARENT 3 18 18 20
ROOT
ATOM      1  C   UNL     1       0.684  -8.699  -4.873  1.00  0.00    -0.014 A 
ATOM      2  C   UNL     1       1.910  -9.087  -5.411  1.00  0.00     0.028 A 
ATOM      3  C   UNL     1      -0.446  -9.493  -5.070  1.00  0.00     0.013 A 
ATOM      4  C   UNL     1       2.008 -10.269  -6.147  1.00  0.00     0.102 A 
ATOM      5  C   UNL     1       0.877 -11.062  -6.344  1.00  0.00     0.130 A 
ATOM      6  C   UNL     1      -0.350 -10.674  -5.806  1.00  0.00     0.048 A 
ENDROOT
BRANCH   1   7
ATOM      7  C   UNL     1       0.582  -7.473  -4.111  1.00  0.00     0.018 A 
ATOM      8  C   UNL     1       0.627  -7.510  -2.717  1.00  0.00     0.133 A 
ATOM      9  C   UNL     1       0.528  -6.325  -1.986  1.00  0.00     0.079 A 
ATOM     10  C   UNL     1       0.441  -6.254  -4.773  1.00  0.00     0.015 A 
ATOM     11  C   UNL     1       0.386  -5.107  -2.648  1.00  0.00     0.126 A 
ATOM     12  C   UNL     1       0.342  -5.071  -4.042  1.00  0.00     0.040 A 
ATOM     13  F   UNL     1       0.760  -8.673  -2.065  1.00  0.00    -0.206 F 
ATOM     14  F   UNL     1       0.291  -3.969  -1.947  1.00  0.00    -0.207 F 
ENDBRANCH   1   7
BRANCH   4  15
ATOM     15  C   UNL     1       3.298 -10.657  -6.700  1.00  0.00     0.339 C 
ATOM     16  O   UNL     1       3.583 -11.777  -7.129  1.00  0.00    -0.246 OA
BRANCH  15  17
ATOM     17  O   UNL     1       4.191  -9.630  -6.701  1.00  0.00    -0.478 OA
ATOM     18  H   UNL     1       5.114  -9.949  -6.785  1.00  0.00     0.297 HD
ENDBRANCH  15  17
ENDBRANCH   4  15
BRANCH   5  19
ATOM     19  O   UNL     1       0.951 -12.220  -7.059  1.00  0.00    -0.507 OA
ATOM     20  H   UNL     1       1.238 -12.015  -7.966  1.00  0.00     0.293 HD
ENDBRANCH   5  19
TORSDOF 4
ENDMDL
MODEL 6
REMARK VINA RESULT:    -5.353      4.553      6.914
REMARK INTER + INTRA:          -6.932
REMARK INTER:                  -5.866
REMARK INTRA:                  -1.066
REMARK UNBOUND:                -0.641
REMARK SMILES O=C(O)c1cc(-c2ccc(F)cc2F)ccc1O
REMARK SMILES IDX 6 1 5 2 15 3 4 4 17 5 16 6 7 7 13 8 12 9 8 10 10 11 9 12
REMARK SMILES IDX 14 13 11 14 2 15 1 16 3 17 18 19
REMARK H PARENT 3 18 18 20
ROOT
ATOM      1  C   UNL     1       0.637  -8.677  -4.776  1.00  0.00    -0.014 A 
ATOM      2  C   UNL     1      -0.462  -9.511  -4.978  1.00  0.00     0.028 A 
ATOM      3  C   UNL     1       1.871  -8.999  -5.341  1.00  0.00     0.013 A 
ATOM      4  C   UNL     1      -0.328 -10.668  -5.746  1.00  0.00     0.102 A 
ATOM      5  C   UNL     1       0.906 -10.990  -6.312  1.00  0.00     0.130 A 
ATOM      6  C   UNL     1       2.005 -10.155  -6.109  1.00  0.00     0.048 A 
ENDROOT
BRANCH   1   7
ATOM      7  C   UNL     1       0.499  -7.478  -3.978  1.00  0.00     0.018 A 
ATOM      8  C   UNL     1       0.574  -7.549  -2.586  1.00  0.00     0.133 A 
ATOM      9  C   UNL     1       0.440  -6.391  -1.821  1.00  0.00     0.079 A 
ATOM     10  C   UNL     1       0.292  -6.248  -4.603  1.00  0.00     0.015 A 
ATOM     11  C   UNL     1       0.232  -5.162  -2.446  1.00  0.00     0.126 A 
ATOM     12  C   UNL     1       0.159  -5.091  -3.837  1.00  0.00     0.040 A 
ATOM     13  F   UNL     1       0.770  -8.723  -1.970  1.00  0.00    -0.206 F 
ATOM     14  F   UNL     1       0.104  -4.049  -1.712  1.00  0.00    -0.207 F 
ENDBRANCH   1   7
BRANCH   4  15
ATOM     15  C   UNL     1      -1.488 -11.526  -5.945  1.00  0.00     0.339 C 
ATOM     16  O   UNL     1      -1.455 -12.683  -6.372  1.00  0.00    -0.246 OA
BRANCH  15  17
ATOM     17  O   UNL     1      -2.653 -10.910  -5.604  1.00  0.00    -0.478 OA
ATOM     18  H   UNL     1      -3.335 -11.554  -5.320  1.00  0.00     0.297 HD
ENDBRANCH  15  17
ENDBRANCH   4  15
BRANCH   5  19
ATOM     19  O   UNL     1       1.057 -12.115  -7.066  1.00  0.00    -0.507 OA
ATOM     20  H   UNL     1       0.731 -12.881  -6.562  1.00  0.00     0.293 HD
ENDBRANCH   5  19
TORSDOF 4
ENDMDL
MODEL 7
REMARK VINA RESULT:    -4.129      6.100      8.507
REMARK INTER + INTRA:          -5.494
REMARK INTER:                  -4.423
REMARK INTRA:                  -1.071
REMARK UNBOUND:                -0.641
REMARK SMILES O=C(O)c1cc(-c2ccc(F)cc2F)ccc1O
REMARK SMILES IDX 6 1 5 2 15 3 4 4 17 5 16 6 7 7 13 8 12 9 8 10 10 11 9 12
REMARK SMILES IDX 14 13 11 14 2 15 1 16 3 17 18 19
REMARK H PARENT 3 18 18 20
ROOT
ATOM      1  C   UNL     1      -1.233 -11.337  -6.260  1.00  0.00    -0.014 A 
ATOM      2  C   UNL     1      -0.670 -12.583  -6.528  1.00  0.00     0.028 A 
ATOM      3  C   UNL     1      -2.589 -11.117  -6.503  1.00  0.00     0.013 A 
ATOM      4  C   UNL     1      -1.461 -13.612  -7.039  1.00  0.00     0.102 A 
ATOM      5  C   UNL     1      -2.817 -13.393  -7.283  1.00  0.00     0.130 A 
ATOM      6  C   UNL     1      -3.381 -12.145  -7.015  1.00  0.00     0.048 A 
ENDROOT
BRANCH   1   7
ATOM      7  C   UNL     1      -0.413 -10.269  -5.730  1.00  0.00     0.018 A 
ATOM      8  C   UNL     1      -0.180 -10.179  -4.357  1.00  0.00     0.133 A 
ATOM      9  C   UNL     1       0.612  -9.148  -3.851  1.00  0.00     0.079 A 
ATOM     10  C   UNL     1       0.147  -9.329  -6.596  1.00  0.00     0.015 A 
ATOM     11  C   UNL     1       1.171  -8.208  -4.716  1.00  0.00     0.126 A 
ATOM     12  C   UNL     1       0.939  -8.299  -6.089  1.00  0.00     0.040 A 
ATOM     13  F   UNL     1      -0.713 -11.073  -3.512  1.00  0.00    -0.206 F 
ATOM     14  F   UNL     1       1.931  -7.218  -4.231  1.00  0.00    -0.207 F 
ENDBRANCH   1   7
BRANCH   4  15
ATOM     15  C   UNL     1      -0.853 -14.907  -7.312  1.00  0.00     0.339 C 
ATOM     16  O   UNL     1      -1.318 -15.770  -8.061  1.00  0.00    -0.246 OA
BRANCH  15  17
ATOM     17  O   UNL     1       0.317 -15.082  -6.640  1.00  0.00    -0.478 OA
ATOM     18  H   UNL     1       0.214 -14.917  -5.680  1.00  0.00     0.297 HD
ENDBRANCH  15  17
ENDBRANCH   4  15
BRANCH   5  19
ATOM     19  O   UNL     1      -3.608 -14.384  -7.782  1.00  0.00    -0.507 OA
ATOM     20  H   UNL     1      -3.950 -14.919  -7.045  1.00  0.00     0.293 HD
ENDBRANCH   5  19
TORSDOF 4
ENDMDL
MODEL 8
REMARK VINA RESULT:    -4.126      5.817      8.058
REMARK INTER + INTRA:          -5.490
REMARK INTER:                  -4.420
REMARK INTRA:                  -1.070
REMARK UNBOUND:                -0.641
REMARK SMILES O=C(O)c1cc(-c2ccc(F)cc2F)ccc1O
REMARK SMILES IDX 6 1 5 2 15 3 4 4 17 5 16 6 7 7 13 8 12 9 8 10 10 11 9 12
REMARK SMILES IDX 14 13 11 14 2 15 1 16 3 17 18 19
REMARK H PARENT 3 18 18 20
ROOT
ATOM      1  C   UNL     1       3.154 -10.787  -6.511  1.00  0.00    -0.014 A 
ATOM      2  C   UNL     1       2.794 -11.652  -7.544  1.00  0.00     0.028 A 
ATOM      3  C   UNL     1       4.475 -10.742  -6.067  1.00  0.00     0.013 A 
ATOM      4  C   UNL     1       3.756 -12.473  -8.133  1.00  0.00     0.102 A 
ATOM      5  C   UNL     1       5.077 -12.428  -7.689  1.00  0.00     0.130 A 
ATOM      6  C   UNL     1       5.437 -11.562  -6.656  1.00  0.00     0.048 A 
ENDROOT
BRANCH   1   7
ATOM      7  C   UNL     1       2.156  -9.936  -5.899  1.00  0.00     0.018 A 
ATOM      8  C   UNL     1       1.812  -8.721  -6.493  1.00  0.00     0.133 A 
ATOM      9  C   UNL     1       0.850  -7.904  -5.899  1.00  0.00     0.079 A 
ATOM     10  C   UNL     1       1.539 -10.333  -4.713  1.00  0.00     0.015 A 
ATOM     11  C   UNL     1       0.233  -8.300  -4.712  1.00  0.00     0.126 A 
ATOM     12  C   UNL     1       0.578  -9.515  -4.120  1.00  0.00     0.040 A 
ATOM     13  F   UNL     1       2.397  -8.324  -7.631  1.00  0.00    -0.206 F 
ATOM     14  F   UNL     1      -0.690  -7.516  -4.142  1.00  0.00    -0.207 F 
ENDBRANCH   1   7
BRANCH   4  15
ATOM     15  C   UNL     1       3.360 -13.369  -9.211  1.00  0.00     0.339 C 
ATOM     16  O   UNL     1       4.084 -14.221  -9.733  1.00  0.00    -0.246 OA
BRANCH  15  17
ATOM     17  O   UNL     1       2.071 -13.174  -9.601  1.00  0.00    -0.478 OA
ATOM     18  H   UNL     1       1.610 -14.021  -9.774  1.00  0.00     0.297 HD
ENDBRANCH  15  17
ENDBRANCH   4  15
BRANCH   5  19
ATOM     19  O   UNL     1       6.032 -13.222  -8.252  1.00  0.00    -0.507 OA
ATOM     20  H   UNL     1       6.590 -13.596  -7.548  1.00  0.00     0.293 HD
ENDBRANCH   5  19
TORSDOF 4
ENDMDL
MODEL 9
REMARK VINA RESULT:    -3.878      3.463      4.918
REMARK INTER + INTRA:          -5.199
REMARK INTER:                  -4.131
REMARK INTRA:                  -1.068
REMARK UNBOUND:                -0.641
REMARK SMILES O=C(O)c1cc(-c2ccc(F)cc2F)ccc1O
REMARK SMILES IDX 6 1 5 2 15 3 4 4 17 5 16 6 7 7 13 8 12 9 8 10 10 11 9 12
REMARK SMILES IDX 14 13 11 14 2 15 1 16 3 17 18 19
REMARK H PARENT 3 18 18 20
ROOT
ATOM      1  C   UNL     1       2.076  -9.694  -6.019  1.00  0.00    -0.014 A 
ATOM      2  C   UNL     1       1.779  -8.481  -6.638  1.00  0.00     0.028 A 
ATOM      3  C   UNL     1       1.479 -10.019  -4.800  1.00  0.00     0.013 A 
ATOM      4  C   UNL     1       0.887  -7.591  -6.040  1.00  0.00     0.102 A 
ATOM      5  C   UNL     1       0.291  -7.915  -4.822  1.00  0.00     0.130 A 
ATOM      6  C   UNL     1       0.587  -9.130  -4.201  1.00  0.00     0.048 A 
ENDROOT
BRANCH   1   7
ATOM      7  C   UNL     1       3.002 -10.617  -6.638  1.00  0.00     0.018 A 
ATOM      8  C   UNL     1       4.357 -10.579  -6.304  1.00  0.00     0.133 A 
ATOM      9  C   UNL     1       5.247 -11.471  -6.904  1.00  0.00     0.079 A 
ATOM     10  C   UNL     1       2.539 -11.546  -7.569  1.00  0.00     0.015 A 
ATOM     11  C   UNL     1       4.783 -12.399  -7.836  1.00  0.00     0.126 A 
ATOM     12  C   UNL     1       3.429 -12.437  -8.167  1.00  0.00     0.040 A 
ATOM     13  F   UNL     1       4.819  -9.691  -5.414  1.00  0.00    -0.206 F 
ATOM     14  F   UNL     1       5.637 -13.255  -8.412  1.00  0.00    -0.207 F 
ENDBRANCH   1   7
BRANCH   4  15
ATOM     15  C   UNL     1       0.590  -6.329  -6.704  1.00  0.00     0.339 C 
ATOM     16  O   UNL     1       0.261  -5.285  -6.137  1.00  0.00    -0.246 OA
BRANCH  15  17
ATOM     17  O   UNL     1       0.717  -6.412  -8.056  1.00  0.00    -0.478 OA
ATOM     18  H   UNL     1       0.745  -5.527  -8.475  1.00  0.00     0.297 HD
ENDBRANCH  15  17
ENDBRANCH   4  15
BRANCH   5  19
ATOM     19  O   UNL     1      -0.585  -7.060  -4.221  1.00  0.00    -0.507 OA
ATOM     20  H   UNL     1      -1.299  -6.847  -4.845  1.00  0.00     0.293 HD
ENDBRANCH   5  19
TORSDOF 4
ENDMDL
