MODEL 1
REMARK VINA RESULT:    -6.863      0.000      0.000
REMARK INTER + INTRA:          -8.676
REMARK INTER:                  -8.066
REMARK INTRA:                  -0.610
REMARK UNBOUND:                -0.610
REMARK SMILES O=C(O)c1cc(-c2ccc(F)cc2F)ccc1O
REMARK SMILES IDX 6 1 5 2 15 3 4 4 17 5 16 6 7 7 13 8 12 9 8 10 10 11 9 12
REMARK SMILES IDX 14 13 11 14 2 15 1 16 3 17 18 19
REMARK H PARENT 3 18 18 20
ROOT
ATOM      1  C   UNL     1       6.638  -5.999  -1.688  1.00  0.00    -0.014 A 
ATOM      2  C   UNL     1       6.959  -4.886  -0.912  1.00  0.00     0.028 A 
ATOM      3  C   UNL     1       5.364  -6.117  -2.244  1.00  0.00     0.013 A 
ATOM      4  C   UNL     1       6.006  -3.890  -0.692  1.00  0.00     0.102 A 
ATOM      5  C   UNL     1       4.733  -4.009  -1.249  1.00  0.00     0.130 A 
ATOM      6  C   UNL     1       4.411  -5.123  -2.025  1.00  0.00     0.048 A 
ENDROOT
BRANCH   1   7
ATOM      7  C   UNL     1       7.625  -7.032  -1.915  1.00  0.00     0.018 A 
ATOM      8  C   UNL     1       7.269  -8.377  -1.805  1.00  0.00     0.133 A 
ATOM      9  C   UNL     1       8.223  -9.370  -2.025  1.00  0.00     0.079 A 
ATOM     10  C   UNL     1       8.933  -6.682  -2.246  1.00  0.00     0.015 A 
ATOM     11  C   UNL     1       9.532  -9.020  -2.355  1.00  0.00     0.126 A 
ATOM     12  C   UNL     1       9.887  -7.675  -2.466  1.00  0.00     0.040 A 
ATOM     13  F   UNL     1       6.016  -8.731  -1.486  1.00  0.00    -0.206 F 
ATOM     14  F   UNL     1      10.449  -9.973  -2.566  1.00  0.00    -0.207 F 
ENDBRANCH   1   7
BRANCH   4  15
ATOM     15  C   UNL     1       6.361  -2.735   0.121  1.00  0.00     0.339 C 
ATOM     16  O   UNL     1       5.650  -2.230   0.993  1.00  0.00    -0.246 OA
BRANCH  15  17
ATOM     17  O   UNL     1       7.596  -2.248  -0.182  1.00  0.00    -0.478 OA
ATOM     18  H   UNL     1       8.183  -2.944  -0.545  1.00  0.00     0.297 HD
ENDBRANCH  15  17
ENDBRANCH   4  15
BRANCH   5  19
ATOM     19  O   UNL     1       3.788  -3.047  -1.046  1.00  0.00    -0.507 OA
ATOM     20  H   UNL     1       3.621  -2.962  -0.092  1.00  0.00     0.293 HD
ENDBRANCH   5  19
TORSDOF 4
ENDMDL
MODEL 2
REMARK VINA RESULT:    -6.857      1.131      1.605
REMARK INTER + INTRA:          -8.669
REMARK INTER:                  -8.115
REMARK INTRA:                  -0.555
REMARK UNBOUND:                -0.610
REMARK SMILES O=C(O)c1cc(-c2ccc(F)cc2F)ccc1O
REMARK SMILES IDX 6 1 5 2 15 3 4 4 17 5 16 6 7 7 13 8 12 9 8 10 10 11 9 12
REMARK SMILES IDX 14 13 11 14 2 15 1 16 3 17 18 19
REMARK H PARENT 3 18 18 20
ROOT
ATOM      1  C   UNL     1       6.574  -5.984  -1.736  1.00  0.00    -0.014 A 
ATOM      2  C   UNL     1       6.865  -4.855  -0.972  1.00  0.00     0.028 A 
ATOM      3  C   UNL     1       5.304  -6.142  -2.292  1.00  0.00     0.013 A 
ATOM      4  C   UNL     1       5.888  -3.882  -0.763  1.00  0.00     0.102 A 
ATOM      5  C   UNL     1       4.618  -4.040  -1.318  1.00  0.00     0.130 A 
ATOM      6  C   UNL     1       4.326  -5.170  -2.083  1.00  0.00     0.048 A 
ENDROOT
BRANCH   1   7
ATOM      7  C   UNL     1       7.588  -6.994  -1.953  1.00  0.00     0.018 A 
ATOM      8  C   UNL     1       8.897  -6.619  -2.256  1.00  0.00     0.133 A 
ATOM      9  C   UNL     1       9.871  -7.596  -2.464  1.00  0.00     0.079 A 
ATOM     10  C   UNL     1       7.253  -8.345  -1.856  1.00  0.00     0.015 A 
ATOM     11  C   UNL     1       9.536  -8.946  -2.368  1.00  0.00     0.126 A 
ATOM     12  C   UNL     1       8.227  -9.320  -2.064  1.00  0.00     0.040 A 
ATOM     13  F   UNL     1       9.234  -5.325  -2.355  1.00  0.00    -0.206 F 
ATOM     14  F   UNL     1      10.471  -9.885  -2.568  1.00  0.00    -0.207 F 
ENDBRANCH   1   7
BRANCH   4  15
ATOM     15  C   UNL     1       6.212  -2.710   0.038  1.00  0.00     0.339 C 
ATOM     16  O   UNL     1       5.562  -2.304   1.004  1.00  0.00    -0.246 OA
BRANCH  15  17
ATOM     17  O   UNL     1       7.340  -2.084  -0.393  1.00  0.00    -0.478 OA
ATOM     18  H   UNL     1       7.533  -2.286  -1.333  1.00  0.00     0.297 HD
ENDBRANCH  15  17
ENDBRANCH   4  15
BRANCH   5  19
ATOM     19  O   UNL     1       3.648  -3.101  -1.126  1.00  0.00    -0.507 OA
ATOM     20  H   UNL     1       2.879  -3.520  -0.704  1.00  0.00     0.293 HD
ENDBRANCH   5  19
TORSDOF 4
ENDMDL
MODEL 3
REMARK VINA RESULT:    -6.849      1.279      2.744
REMARK INTER + INTRA:          -8.660
REMARK INTER:                  -8.106
REMARK INTRA:                  -0.555
REMARK UNBOUND:                -0.610
REMARK SMILES O=C(O)c1cc(-c2ccc(F)cc2F)ccc1O
REMARK SMILES IDX 6 1 5 2 15 3 4 4 17 5 16 6 7 7 13 8 12 9 8 10 10 11 9 12
REMARK SMILES IDX 14 13 11 14 2 15 1 16 3 17 18 19
REMARK H PARENT 3 18 18 20
ROOT
ATOM      1  C   UNL     1       6.560  -6.023  -1.657  1.00  0.00    -0.014 A 
ATOM      2  C   UNL     1       5.297  -6.206  -2.219  1.00  0.00     0.028 A 
ATOM      3  C   UNL     1       6.826  -4.885  -0.895  1.00  0.00     0.013 A 
ATOM      4  C   UNL     1       4.299  -5.252  -2.018  1.00  0.00     0.102 A 
ATOM      5  C   UNL     1       4.566  -4.114  -1.256  1.00  0.00     0.130 A 
ATOM      6  C   UNL     1       5.830  -3.931  -0.694  1.00  0.00     0.048 A 
ENDROOT
BRANCH   1   7
ATOM      7  C   UNL     1       7.596  -7.012  -1.866  1.00  0.00     0.018 A 
ATOM      8  C   UNL     1       7.296  -8.371  -1.771  1.00  0.00     0.133 A 
ATOM      9  C   UNL     1       8.298  -9.321  -1.973  1.00  0.00     0.079 A 
ATOM     10  C   UNL     1       8.896  -6.603  -2.163  1.00  0.00     0.015 A 
ATOM     11  C   UNL     1       9.597  -8.913  -2.269  1.00  0.00     0.126 A 
ATOM     12  C   UNL     1       9.896  -7.553  -2.364  1.00  0.00     0.040 A 
ATOM     13  F   UNL     1       6.052  -8.781  -1.484  1.00  0.00    -0.206 F 
ATOM     14  F   UNL     1      10.559  -9.824  -2.462  1.00  0.00    -0.207 F 
ENDBRANCH   1   7
BRANCH   4  15
ATOM     15  C   UNL     1       2.986  -5.462  -2.613  1.00  0.00     0.339 C 
ATOM     16  O   UNL     1       2.385  -4.649  -3.319  1.00  0.00    -0.246 OA
BRANCH  15  17
ATOM     17  O   UNL     1       2.468  -6.682  -2.307  1.00  0.00    -0.478 OA
ATOM     18  H   UNL     1       3.157  -7.300  -1.982  1.00  0.00     0.297 HD
ENDBRANCH  15  17
ENDBRANCH   4  15
BRANCH   5  19
ATOM     19  O   UNL     1       3.604  -3.170  -1.048  1.00  0.00    -0.507 OA
ATOM     20  H   UNL     1       3.299  -2.833  -1.908  1.00  0.00     0.293 HD
ENDBRANCH   5  19
TORSDOF 4
ENDMDL
MODEL 4
REMARK VINA RESULT:    -6.835      1.710      3.178
REMARK INTER + INTRA:          -8.644
REMARK INTER:                  -8.100
REMARK INTRA:                  -0.544
REMARK UNBOUND:                -0.610
REMARK SMILES O=C(O)c1cc(-c2ccc(F)cc2F)ccc1O
REMARK SMILES IDX 6 1 5 2 15 3 4 4 17 5 16 6 7 7 13 8 12 9 8 10 10 11 9 12
REMARK SMILES IDX 14 13 11 14 2 15 1 16 3 17 18 19
REMARK H PARENT 3 18 18 20
ROOT
ATOM      1  C   UNL     1       6.579  -5.985  -1.686  1.00  0.00    -0.014 A 
ATOM      2  C   UNL     1       5.314  -6.180  -2.239  1.00  0.00     0.028 A 
ATOM      3  C   UNL     1       6.839  -4.846  -0.924  1.00  0.00     0.013 A 
ATOM      4  C   UNL     1       4.308  -5.236  -2.030  1.00  0.00     0.102 A 
ATOM      5  C   UNL     1       4.568  -4.097  -1.268  1.00  0.00     0.130 A 
ATOM      6  C   UNL     1       5.834  -3.902  -0.715  1.00  0.00     0.048 A 
ENDROOT
BRANCH   1   7
ATOM      7  C   UNL     1       7.623  -6.963  -1.903  1.00  0.00     0.018 A 
ATOM      8  C   UNL     1       8.916  -6.548  -2.224  1.00  0.00     0.133 A 
ATOM      9  C   UNL     1       9.920  -7.494  -2.433  1.00  0.00     0.079 A 
ATOM     10  C   UNL     1       7.335  -8.323  -1.791  1.00  0.00     0.015 A 
ATOM     11  C   UNL     1       9.631  -8.853  -2.321  1.00  0.00     0.126 A 
ATOM     12  C   UNL     1       8.338  -9.268  -1.999  1.00  0.00     0.040 A 
ATOM     13  F   UNL     1       9.209  -5.245  -2.339  1.00  0.00    -0.206 F 
ATOM     14  F   UNL     1      10.594  -9.762  -2.521  1.00  0.00    -0.207 F 
ENDBRANCH   1   7
BRANCH   4  15
ATOM     15  C   UNL     1       2.993  -5.459  -2.616  1.00  0.00     0.339 C 
ATOM     16  O   UNL     1       2.383  -4.656  -3.326  1.00  0.00    -0.246 OA
BRANCH  15  17
ATOM     17  O   UNL     1       2.483  -6.679  -2.295  1.00  0.00    -0.478 OA
ATOM     18  H   UNL     1       1.990  -6.657  -1.448  1.00  0.00     0.297 HD
ENDBRANCH  15  17
ENDBRANCH   4  15
BRANCH   5  19
ATOM     19  O   UNL     1       3.599  -3.163  -1.052  1.00  0.00    -0.507 OA
ATOM     20  H   UNL     1       3.335  -3.190  -0.116  1.00  0.00     0.293 HD
ENDBRANCH   5  19
TORSDOF 4
ENDMDL
MODEL 5
REMARK VINA RESULT:    -5.505      4.412      6.724
REMARK INTER + INTRA:          -7.081
REMARK INTER:                  -6.005
REMARK INTRA:                  -1.075
REMARK UNBOUND:                -0.610
REMARK SMILES O=C(O)c1cc(-c2ccc(F)cc2F)ccc1O
REMARK SMILES IDX 6 1 5 2 15 3 4 4 17 5 16 6 7 7 13 8 12 9 8 10 10 11 9 12
REMARK SMILES IDX 14 13 11 14 2 15 1 16 3 17 18 19
REMARK H PARENT 3 18 18 20
ROOT
ATOM      1  C   UNL     1       8.359  -7.985  -2.106  1.00  0.00    -0.014 A 
ATOM      2  C   UNL     1       8.525  -8.669  -3.310  1.00  0.00     0.028 A 
ATOM      3  C   UNL     1       9.252  -8.195  -1.056  1.00  0.00     0.013 A 
ATOM      4  C   UNL     1       9.584  -9.565  -3.463  1.00  0.00     0.102 A 
ATOM      5  C   UNL     1      10.477  -9.775  -2.413  1.00  0.00     0.130 A 
ATOM      6  C   UNL     1      10.311  -9.090  -1.208  1.00  0.00     0.048 A 
ENDROOT
BRANCH   1   7
ATOM      7  C   UNL     1       7.260  -7.057  -1.946  1.00  0.00     0.018 A 
ATOM      8  C   UNL     1       6.001  -7.521  -1.564  1.00  0.00     0.133 A 
ATOM      9  C   UNL     1       4.944  -6.623  -1.411  1.00  0.00     0.079 A 
ATOM     10  C   UNL     1       7.462  -5.696  -2.173  1.00  0.00     0.015 A 
ATOM     11  C   UNL     1       5.146  -5.263  -1.639  1.00  0.00     0.126 A 
ATOM     12  C   UNL     1       6.406  -4.799  -2.019  1.00  0.00     0.040 A 
ATOM     13  F   UNL     1       5.789  -8.827  -1.345  1.00  0.00    -0.206 F 
ATOM     14  F   UNL     1       4.133  -4.400  -1.492  1.00  0.00    -0.207 F 
ENDBRANCH   1   7
BRANCH   4  15
ATOM     15  C   UNL     1       9.740 -10.269  -4.728  1.00  0.00     0.339 C 
ATOM     16  O   UNL     1      10.692 -10.993  -5.029  1.00  0.00    -0.246 OA
BRANCH  15  17
ATOM     17  O   UNL     1       8.699 -10.047  -5.577  1.00  0.00    -0.478 OA
ATOM     18  H   UNL     1       7.849 -10.358  -5.200  1.00  0.00     0.297 HD
ENDBRANCH  15  17
ENDBRANCH   4  15
BRANCH   5  19
ATOM     19  O   UNL     1      11.518 -10.645  -2.542  1.00  0.00    -0.507 OA
ATOM     20  H   UNL     1      11.202 -11.456  -2.977  1.00  0.00     0.293 HD
ENDBRANCH   5  19
TORSDOF 4
ENDMDL
MODEL 6
REMARK VINA RESULT:    -5.497      4.164      6.493
REMARK INTER + INTRA:          -7.071
REMARK INTER:                  -6.004
REMARK INTRA:                  -1.066
REMARK UNBOUND:                -0.610
REMARK SMILES O=C(O)c1cc(-c2ccc(F)cc2F)ccc1O
REMARK SMILES IDX 6 1 5 2 15 3 4 4 17 5 16 6 7 7 13 8 12 9 8 10 10 11 9 12
REMARK SMILES IDX 14 13 11 14 2 15 1 16 3 17 18 19
REMARK H PARENT 3 18 18 20
ROOT
ATOM      1  C   UNL     1       8.539  -7.822  -2.112  1.00  0.00    -0.014 A 
ATOM      2  C   UNL     1       9.455  -8.159  -1.116  1.00  0.00     0.028 A 
ATOM      3  C   UNL     1       8.572  -8.481  -3.341  1.00  0.00     0.013 A 
ATOM      4  C   UNL     1      10.404  -9.155  -1.348  1.00  0.00     0.102 A 
ATOM      5  C   UNL     1      10.436  -9.814  -2.577  1.00  0.00     0.130 A 
ATOM      6  C   UNL     1       9.520  -9.477  -3.574  1.00  0.00     0.048 A 
ENDROOT
BRANCH   1   7
ATOM      7  C   UNL     1       7.556  -6.788  -1.873  1.00  0.00     0.018 A 
ATOM      8  C   UNL     1       7.899  -5.445  -2.030  1.00  0.00     0.133 A 
ATOM      9  C   UNL     1       6.948  -4.451  -1.798  1.00  0.00     0.079 A 
ATOM     10  C   UNL     1       6.262  -7.137  -1.486  1.00  0.00     0.015 A 
ATOM     11  C   UNL     1       5.655  -4.800  -1.410  1.00  0.00     0.126 A 
ATOM     12  C   UNL     1       5.312  -6.144  -1.254  1.00  0.00     0.040 A 
ATOM     13  F   UNL     1       9.139  -5.093  -2.399  1.00  0.00    -0.206 F 
ATOM     14  F   UNL     1       4.741  -3.847  -1.187  1.00  0.00    -0.207 F 
ENDBRANCH   1   7
BRANCH   4  15
ATOM     15  C   UNL     1      11.351  -9.493  -0.294  1.00  0.00     0.339 C 
ATOM     16  O   UNL     1      12.121 -10.456  -0.308  1.00  0.00    -0.246 OA
BRANCH  15  17
ATOM     17  O   UNL     1      11.307  -8.613   0.743  1.00  0.00    -0.478 OA
ATOM     18  H   UNL     1      10.706  -8.919   1.455  1.00  0.00     0.297 HD
ENDBRANCH  15  17
ENDBRANCH   4  15
BRANCH   5  19
ATOM     19  O   UNL     1      11.355 -10.791  -2.823  1.00  0.00    -0.507 OA
ATOM     20  H   UNL     1      12.033 -10.443  -3.428  1.00  0.00     0.293 HD
ENDBRANCH   5  19
TORSDOF 4
ENDMDL
MODEL 7
REMARK VINA RESULT:    -4.822      2.090      3.294
REMARK INTER + INTRA:          -6.278
REMARK INTER:                  -5.320
REMARK INTRA:                  -0.958
REMARK UNBOUND:                -0.610
REMARK SMILES O=C(O)c1cc(-c2ccc(F)cc2F)ccc1O
REMARK SMILES IDX 6 1 5 2 15 3 4 4 17 5 16 6 7 7 13 8 12 9 8 10 10 11 9 12
REMARK SMILES IDX 14 13 11 14 2 15 1 16 3 17 18 19
REMARK H PARENT 3 18 18 20
ROOT
ATOM      1  C   UNL     1       7.921  -6.962  -1.979  1.00  0.00    -0.014 A 
ATOM      2  C   UNL     1       6.595  -7.394  -1.955  1.00  0.00     0.028 A 
ATOM      3  C   UNL     1       8.210  -5.602  -2.081  1.00  0.00     0.013 A 
ATOM      4  C   UNL     1       5.557  -6.465  -2.033  1.00  0.00     0.102 A 
ATOM      5  C   UNL     1       5.846  -5.104  -2.135  1.00  0.00     0.130 A 
ATOM      6  C   UNL     1       7.173  -4.672  -2.159  1.00  0.00     0.048 A 
ENDROOT
BRANCH   1   7
ATOM      7  C   UNL     1       8.998  -7.926  -1.899  1.00  0.00     0.018 A 
ATOM      8  C   UNL     1       9.220  -8.816  -2.951  1.00  0.00     0.133 A 
ATOM      9  C   UNL     1      10.260  -9.743  -2.870  1.00  0.00     0.079 A 
ATOM     10  C   UNL     1       9.815  -7.962  -0.770  1.00  0.00     0.015 A 
ATOM     11  C   UNL     1      11.076  -9.780  -1.740  1.00  0.00     0.126 A 
ATOM     12  C   UNL     1      10.853  -8.888  -0.690  1.00  0.00     0.040 A 
ATOM     13  F   UNL     1       8.443  -8.796  -4.042  1.00  0.00    -0.206 F 
ATOM     14  F   UNL     1      12.073 -10.669  -1.661  1.00  0.00    -0.207 F 
ENDBRANCH   1   7
BRANCH   4  15
ATOM     15  C   UNL     1       4.179  -6.935  -2.006  1.00  0.00     0.339 C 
ATOM     16  O   UNL     1       3.205  -6.315  -2.436  1.00  0.00    -0.246 OA
BRANCH  15  17
ATOM     17  O   UNL     1       4.064  -8.169  -1.443  1.00  0.00    -0.478 OA
ATOM     18  H   UNL     1       4.909  -8.666  -1.477  1.00  0.00     0.297 HD
ENDBRANCH  15  17
ENDBRANCH   4  15
BRANCH   5  19
ATOM     19  O   UNL     1       4.847  -4.180  -2.212  1.00  0.00    -0.507 OA
ATOM     20  H   UNL     1       4.935  -3.686  -3.045  1.00  0.00     0.293 HD
ENDBRANCH   5  19
TORSDOF 4
ENDMDL
MODEL 8
REMARK VINA RESULT:    -4.646      8.959     11.417
REMARK INTER + INTRA:          -6.071
REMARK INTER:                  -5.095
REMARK INTRA:                  -0.977
REMARK UNBOUND:                -0.610
REMARK SMILES O=C(O)c1cc(-c2ccc(F)cc2F)ccc1O
REMARK SMILES IDX 6 1 5 2 15 3 4 4 17 5 16 6 7 7 13 8 12 9 8 10 10 11 9 12
REMARK SMILES IDX 14 13 11 14 2 15 1 16 3 17 18 19
REMARK H PARENT 3 18 18 20
ROOT
ATOM      1  C   UNL     1      11.791 -11.063  -8.253  1.00  0.00    -0.014 A 
ATOM      2  C   UNL     1      11.354 -11.970  -9.216  1.00  0.00     0.028 A 
ATOM      3  C   UNL     1      12.984 -10.365  -8.442  1.00  0.00     0.013 A 
ATOM      4  C   UNL     1      12.110 -12.182 -10.370  1.00  0.00     0.102 A 
ATOM      5  C   UNL     1      13.303 -11.485 -10.559  1.00  0.00     0.130 A 
ATOM      6  C   UNL     1      13.740 -10.576  -9.594  1.00  0.00     0.048 A 
ENDROOT
BRANCH   1   7
ATOM      7  C   UNL     1      11.008 -10.844  -7.056  1.00  0.00     0.018 A 
ATOM      8  C   UNL     1      11.010 -11.794  -6.034  1.00  0.00     0.133 A 
ATOM      9  C   UNL     1      10.254 -11.579  -4.881  1.00  0.00     0.079 A 
ATOM     10  C   UNL     1      10.252  -9.680  -6.924  1.00  0.00     0.015 A 
ATOM     11  C   UNL     1       9.497 -10.416  -4.750  1.00  0.00     0.126 A 
ATOM     12  C   UNL     1       9.497  -9.465  -5.772  1.00  0.00     0.040 A 
ATOM     13  F   UNL     1      11.730 -12.920  -6.146  1.00  0.00    -0.206 F 
ATOM     14  F   UNL     1       8.771 -10.209  -3.644  1.00  0.00    -0.207 F 
ENDBRANCH   1   7
BRANCH   4  15
ATOM     15  C   UNL     1      11.636 -13.134 -11.365  1.00  0.00     0.339 C 
ATOM     16  O   UNL     1      12.340 -13.949 -11.965  1.00  0.00    -0.246 OA
BRANCH  15  17
ATOM     17  O   UNL     1      10.295 -13.038 -11.576  1.00  0.00    -0.478 OA
ATOM     18  H   UNL     1       9.963 -13.761 -12.149  1.00  0.00     0.297 HD
ENDBRANCH  15  17
ENDBRANCH   4  15
BRANCH   5  19
ATOM     19  O   UNL     1      14.056 -11.676 -11.679  1.00  0.00    -0.507 OA
ATOM     20  H   UNL     1      13.478 -11.976 -12.402  1.00  0.00     0.293 HD
ENDBRANCH   5  19
TORSDOF 4
ENDMDL
MODEL 9
REMARK VINA RESULT:    -4.089      6.091      8.357
REMARK INTER + INTRA:          -5.416
REMARK INTER:                  -4.346
REMARK INTRA:                  -1.070
REMARK UNBOUND:                -0.610
REMARK SMILES O=C(O)c1cc(-c2ccc(F)cc2F)ccc1O
REMARK SMILES IDX 6 1 5 2 15 3 4 4 17 5 16 6 7 7 13 8 12 9 8 10 10 11 9 12
REMARK SMILES IDX 14 13 11 14 2 15 1 16 3 17 18 19
REMARK H PARENT 3 18 18 20
ROOT
ATOM      1  C   UNL     1       9.861 -10.025  -4.604  1.00  0.00    -0.014 A 
ATOM      2  C   UNL     1      10.581 -11.169  -4.263  1.00  0.00     0.028 A 
ATOM      3  C   UNL     1       9.650  -9.709  -5.946  1.00  0.00     0.013 A 
ATOM      4  C   UNL     1      11.092 -11.997  -5.263  1.00  0.00     0.102 A 
ATOM      5  C   UNL     1      10.881 -11.681  -6.605  1.00  0.00     0.130 A 
ATOM      6  C   UNL     1      10.159 -10.536  -6.947  1.00  0.00     0.048 A 
ENDROOT
BRANCH   1   7
ATOM      7  C   UNL     1       9.332  -9.165  -3.567  1.00  0.00     0.018 A 
ATOM      8  C   UNL     1       8.107  -9.461  -2.968  1.00  0.00     0.133 A 
ATOM      9  C   UNL     1       7.601  -8.629  -1.969  1.00  0.00     0.079 A 
ATOM     10  C   UNL     1      10.051  -8.040  -3.166  1.00  0.00     0.015 A 
ATOM     11  C   UNL     1       8.320  -7.503  -1.569  1.00  0.00     0.126 A 
ATOM     12  C   UNL     1       9.545  -7.209  -2.167  1.00  0.00     0.040 A 
ATOM     13  F   UNL     1       7.403 -10.538  -3.344  1.00  0.00    -0.206 F 
ATOM     14  F   UNL     1       7.835  -6.704  -0.610  1.00  0.00    -0.207 F 
ENDBRANCH   1   7
BRANCH   4  15
ATOM     15  C   UNL     1      11.841 -13.187  -4.885  1.00  0.00     0.339 C 
ATOM     16  O   UNL     1      12.618 -13.804  -5.619  1.00  0.00    -0.246 OA
BRANCH  15  17
ATOM     17  O   UNL     1      11.597 -13.568  -3.602  1.00  0.00    -0.478 OA
ATOM     18  H   UNL     1      12.044 -12.982  -2.956  1.00  0.00     0.297 HD
ENDBRANCH  15  17
ENDBRANCH   4  15
BRANCH   5  19
ATOM     19  O   UNL     1      11.370 -12.477  -7.597  1.00  0.00    -0.507 OA
ATOM     20  H   UNL     1      12.279 -12.200  -7.807  1.00  0.00     0.293 HD
ENDBRANCH   5  19
TORSDOF 4
ENDMDL
