MODEL 1
REMARK VINA RESULT:    -5.193      0.000      0.000
REMARK INTER + INTRA:          -7.119
REMARK INTER:                  -6.407
REMARK INTRA:                  -0.712
REMARK UNBOUND:                -0.712
REMARK SMILES Cc1ccc(C(=O)c2cc(O)c(O)c([N+](=O)[O-])c2)cc1
REMARK SMILES IDX 8 1 18 2 9 3 14 4 10 5 12 6 6 7 7 8 5 9 4 10 19 11 3 12
REMARK SMILES IDX 20 13 2 14 1 15 15 16 17 17 16 18 11 19 13 21
REMARK H PARENT 11 20 13 22
ROOT
ATOM      1  C   UNL     1       6.731  -5.887  -0.806  1.00  0.00     0.033 A 
ATOM      2  C   UNL     1       5.628  -6.249  -1.544  1.00  0.00     0.102 A 
ATOM      3  C   UNL     1       6.846  -4.667  -0.185  1.00  0.00     0.063 A 
ATOM      4  C   UNL     1       4.579  -5.337  -1.667  1.00  0.00     0.315 A 
ATOM      5  C   UNL     1       5.798  -3.754  -0.308  1.00  0.00     0.165 A 
ATOM      6  C   UNL     1       4.664  -4.090  -1.049  1.00  0.00     0.237 A 
ENDROOT
BRANCH   1   7
ATOM      7  C   UNL     1       7.854  -6.864  -0.674  1.00  0.00     0.193 C 
ATOM      8  O   UNL     1       8.448  -6.904   0.414  1.00  0.00    -0.289 OA
BRANCH   7   9
ATOM      9  C   UNL     1       8.253  -7.744  -1.761  1.00  0.00     0.023 A 
ATOM     10  C   UNL     1       9.347  -7.412  -2.561  1.00  0.00     0.012 A 
ATOM     11  C   UNL     1       7.544  -8.920  -2.003  1.00  0.00     0.012 A 
ATOM     12  C   UNL     1       9.730  -8.256  -3.603  1.00  0.00     0.004 A 
ATOM     13  C   UNL     1       7.927  -9.765  -3.045  1.00  0.00     0.004 A 
ATOM     14  C   UNL     1       9.020  -9.433  -3.845  1.00  0.00    -0.051 A 
ATOM     15  C   UNL     1       9.430 -10.334  -4.960  1.00  0.00     0.044 C 
ENDBRANCH   7   9
ENDBRANCH   1   7
BRANCH   4  16
ATOM     16  N   UNL     1       3.432  -5.697  -2.426  1.00  0.00     0.066 N 
ATOM     17  O   UNL     1       3.012  -6.877  -2.367  1.00  0.00    -0.258 OA
ATOM     18  O   UNL     1       2.874  -4.824  -3.131  1.00  0.00    -0.258 OA
ENDBRANCH   4  16
BRANCH   5  19
ATOM     19  O   UNL     1       5.894  -2.539   0.301  1.00  0.00    -0.504 OA
ATOM     20  H   UNL     1       5.030  -2.290   0.668  1.00  0.00     0.293 HD
ENDBRANCH   5  19
BRANCH   6  21
ATOM     21  O   UNL     1       3.645  -3.189  -1.162  1.00  0.00    -0.500 OA
ATOM     22  H   UNL     1       3.523  -2.727  -0.317  1.00  0.00     0.294 HD
ENDBRANCH   6  21
TORSDOF 5
ENDMDL
MODEL 2
REMARK VINA RESULT:    -5.184      2.020      3.557
REMARK INTER + INTRA:          -7.108
REMARK INTER:                  -6.410
REMARK INTRA:                  -0.698
REMARK UNBOUND:                -0.712
REMARK SMILES Cc1ccc(C(=O)c2cc(O)c(O)c([N+](=O)[O-])c2)cc1
REMARK SMILES IDX 8 1 18 2 9 3 14 4 10 5 12 6 6 7 7 8 5 9 4 10 19 11 3 12
REMARK SMILES IDX 20 13 2 14 1 15 15 16 17 17 16 18 11 19 13 21
REMARK H PARENT 11 20 13 22
ROOT
ATOM      1  C   UNL     1       6.261  -5.986  -2.528  1.00  0.00     0.033 A 
ATOM      2  C   UNL     1       6.763  -5.081  -1.622  1.00  0.00     0.102 A 
ATOM      3  C   UNL     1       4.948  -5.985  -2.935  1.00  0.00     0.063 A 
ATOM      4  C   UNL     1       5.902  -4.120  -1.093  1.00  0.00     0.315 A 
ATOM      5  C   UNL     1       4.087  -5.024  -2.406  1.00  0.00     0.165 A 
ATOM      6  C   UNL     1       4.564  -4.090  -1.485  1.00  0.00     0.237 A 
ENDROOT
BRANCH   1   7
ATOM      7  C   UNL     1       7.183  -7.017  -3.094  1.00  0.00     0.193 C 
ATOM      8  O   UNL     1       6.983  -7.379  -4.263  1.00  0.00    -0.289 OA
BRANCH   7   9
ATOM      9  C   UNL     1       8.279  -7.588  -2.327  1.00  0.00     0.023 A 
ATOM     10  C   UNL     1       8.136  -8.841  -1.732  1.00  0.00     0.012 A 
ATOM     11  C   UNL     1       9.474  -6.882  -2.187  1.00  0.00     0.012 A 
ATOM     12  C   UNL     1       9.187  -9.389  -0.997  1.00  0.00     0.004 A 
ATOM     13  C   UNL     1      10.526  -7.429  -1.452  1.00  0.00     0.004 A 
ATOM     14  C   UNL     1      10.383  -8.683  -0.857  1.00  0.00    -0.051 A 
ATOM     15  C   UNL     1      11.506  -9.268  -0.070  1.00  0.00     0.044 C 
ENDBRANCH   7   9
ENDBRANCH   1   7
BRANCH   4  16
ATOM     16  N   UNL     1       6.406  -3.177  -0.156  1.00  0.00     0.066 N 
ATOM     17  O   UNL     1       7.611  -2.835  -0.228  1.00  0.00    -0.258 OA
ATOM     18  O   UNL     1       5.632  -2.714   0.714  1.00  0.00    -0.258 OA
ENDBRANCH   4  16
BRANCH   5  19
ATOM     19  O   UNL     1       2.782  -5.007  -2.799  1.00  0.00    -0.504 OA
ATOM     20  H   UNL     1       2.561  -4.132  -3.157  1.00  0.00     0.293 HD
ENDBRANCH   5  19
BRANCH   6  21
ATOM     21  O   UNL     1       3.712  -3.154  -0.976  1.00  0.00    -0.500 OA
ATOM     22  H   UNL     1       3.971  -2.273  -1.287  1.00  0.00     0.294 HD
ENDBRANCH   6  21
TORSDOF 5
ENDMDL
MODEL 3
REMARK VINA RESULT:    -4.703      3.640      6.582
REMARK INTER + INTRA:          -6.515
REMARK INTER:                  -5.540
REMARK INTRA:                  -0.975
REMARK UNBOUND:                -0.712
REMARK SMILES Cc1ccc(C(=O)c2cc(O)c(O)c([N+](=O)[O-])c2)cc1
REMARK SMILES IDX 8 1 18 2 9 3 14 4 10 5 12 6 6 7 7 8 5 9 4 10 19 11 3 12
REMARK SMILES IDX 20 13 2 14 1 15 15 16 17 17 16 18 11 19 13 21
REMARK H PARENT 11 20 13 22
ROOT
ATOM      1  C   UNL     1       9.293  -7.712  -2.187  1.00  0.00     0.033 A 
ATOM      2  C   UNL     1       9.168  -8.386  -3.380  1.00  0.00     0.102 A 
ATOM      3  C   UNL     1      10.117  -8.137  -1.172  1.00  0.00     0.063 A 
ATOM      4  C   UNL     1       9.911  -9.551  -3.568  1.00  0.00     0.315 A 
ATOM      5  C   UNL     1      10.859  -9.303  -1.360  1.00  0.00     0.165 A 
ATOM      6  C   UNL     1      10.757 -10.010  -2.558  1.00  0.00     0.237 A 
ENDROOT
BRANCH   1   7
ATOM      7  C   UNL     1       8.498  -6.463  -1.985  1.00  0.00     0.193 C 
ATOM      8  O   UNL     1       9.118  -5.439  -1.662  1.00  0.00    -0.289 OA
BRANCH   7   9
ATOM      9  C   UNL     1       7.054  -6.423  -2.155  1.00  0.00     0.023 A 
ATOM     10  C   UNL     1       6.249  -7.356  -1.503  1.00  0.00     0.012 A 
ATOM     11  C   UNL     1       6.475  -5.450  -2.969  1.00  0.00     0.012 A 
ATOM     12  C   UNL     1       4.864  -7.317  -1.666  1.00  0.00     0.004 A 
ATOM     13  C   UNL     1       5.089  -5.410  -3.133  1.00  0.00     0.004 A 
ATOM     14  C   UNL     1       4.284  -6.344  -2.480  1.00  0.00    -0.051 A 
ATOM     15  C   UNL     1       2.804  -6.303  -2.655  1.00  0.00     0.044 C 
ENDBRANCH   7   9
ENDBRANCH   1   7
BRANCH   4  16
ATOM     16  N   UNL     1       9.793 -10.259  -4.796  1.00  0.00     0.066 N 
ATOM     17  O   UNL     1       8.704 -10.217  -5.417  1.00  0.00    -0.258 OA
ATOM     18  O   UNL     1      10.781 -10.902  -5.221  1.00  0.00    -0.258 OA
ENDBRANCH   4  16
BRANCH   5  19
ATOM     19  O   UNL     1      11.681  -9.740  -0.365  1.00  0.00    -0.504 OA
ATOM     20  H   UNL     1      12.173  -8.988   0.005  1.00  0.00     0.293 HD
ENDBRANCH   5  19
BRANCH   6  21
ATOM     21  O   UNL     1      11.488 -11.149  -2.730  1.00  0.00    -0.500 OA
ATOM     22  H   UNL     1      11.440 -11.692  -1.928  1.00  0.00     0.294 HD
ENDBRANCH   6  21
TORSDOF 5
ENDMDL
MODEL 4
REMARK VINA RESULT:    -4.703      3.696      6.813
REMARK INTER + INTRA:          -6.515
REMARK INTER:                  -5.544
REMARK INTRA:                  -0.971
REMARK UNBOUND:                -0.712
REMARK SMILES Cc1ccc(C(=O)c2cc(O)c(O)c([N+](=O)[O-])c2)cc1
REMARK SMILES IDX 8 1 18 2 9 3 14 4 10 5 12 6 6 7 7 8 5 9 4 10 19 11 3 12
REMARK SMILES IDX 20 13 2 14 1 15 15 16 17 17 16 18 11 19 13 21
REMARK H PARENT 11 20 13 22
ROOT
ATOM      1  C   UNL     1       8.441  -8.666  -2.071  1.00  0.00     0.033 A 
ATOM      2  C   UNL     1       8.715  -9.228  -3.296  1.00  0.00     0.102 A 
ATOM      3  C   UNL     1       9.293  -8.764  -0.997  1.00  0.00     0.063 A 
ATOM      4  C   UNL     1       9.911  -9.928  -3.456  1.00  0.00     0.315 A 
ATOM      5  C   UNL     1      10.489  -9.465  -1.156  1.00  0.00     0.165 A 
ATOM      6  C   UNL     1      10.798 -10.047  -2.386  1.00  0.00     0.237 A 
ENDROOT
BRANCH   1   7
ATOM      7  C   UNL     1       7.160  -7.916  -1.900  1.00  0.00     0.193 C 
ATOM      8  O   UNL     1       6.109  -8.515  -2.176  1.00  0.00    -0.289 OA
BRANCH   7   9
ATOM      9  C   UNL     1       7.118  -6.541  -1.430  1.00  0.00     0.023 A 
ATOM     10  C   UNL     1       7.880  -5.562  -2.068  1.00  0.00     0.012 A 
ATOM     11  C   UNL     1       6.316  -6.200  -0.341  1.00  0.00     0.012 A 
ATOM     12  C   UNL     1       7.840  -4.243  -1.618  1.00  0.00     0.004 A 
ATOM     13  C   UNL     1       6.275  -4.880   0.110  1.00  0.00     0.004 A 
ATOM     14  C   UNL     1       7.037  -3.901  -0.528  1.00  0.00    -0.051 A 
ATOM     15  C   UNL     1       6.996  -2.491  -0.046  1.00  0.00     0.044 C 
ENDBRANCH   7   9
ENDBRANCH   1   7
BRANCH   4  16
ATOM     16  N   UNL     1      10.209 -10.514  -4.717  1.00  0.00     0.066 N 
ATOM     17  O   UNL     1      10.946 -11.529  -4.754  1.00  0.00    -0.258 OA
ATOM     18  O   UNL     1       9.726 -10.001  -5.753  1.00  0.00    -0.258 OA
ENDBRANCH   4  16
BRANCH   5  19
ATOM     19  O   UNL     1      11.346  -9.572  -0.103  1.00  0.00    -0.504 OA
ATOM     20  H   UNL     1      12.236  -9.788  -0.428  1.00  0.00     0.293 HD
ENDBRANCH   5  19
BRANCH   6  21
ATOM     21  O   UNL     1      11.971 -10.729  -2.530  1.00  0.00    -0.500 OA
ATOM     22  H   UNL     1      12.370 -10.879  -1.659  1.00  0.00     0.294 HD
ENDBRANCH   6  21
TORSDOF 5
ENDMDL
MODEL 5
REMARK VINA RESULT:    -4.677      3.749      6.985
REMARK INTER + INTRA:          -6.483
REMARK INTER:                  -5.588
REMARK INTRA:                  -0.895
REMARK UNBOUND:                -0.712
REMARK SMILES Cc1ccc(C(=O)c2cc(O)c(O)c([N+](=O)[O-])c2)cc1
REMARK SMILES IDX 8 1 18 2 9 3 14 4 10 5 12 6 6 7 7 8 5 9 4 10 19 11 3 12
REMARK SMILES IDX 20 13 2 14 1 15 15 16 17 17 16 18 11 19 13 21
REMARK H PARENT 11 20 13 22
ROOT
ATOM      1  C   UNL     1       9.264  -7.785  -2.254  1.00  0.00     0.033 A 
ATOM      2  C   UNL     1      10.090  -8.258  -1.260  1.00  0.00     0.102 A 
ATOM      3  C   UNL     1       9.125  -8.412  -3.470  1.00  0.00     0.063 A 
ATOM      4  C   UNL     1      10.817  -9.424  -1.496  1.00  0.00     0.315 A 
ATOM      5  C   UNL     1       9.854  -9.578  -3.706  1.00  0.00     0.165 A 
ATOM      6  C   UNL     1      10.700 -10.085  -2.719  1.00  0.00     0.237 A 
ENDROOT
BRANCH   1   7
ATOM      7  C   UNL     1       8.485  -6.536  -2.002  1.00  0.00     0.193 C 
ATOM      8  O   UNL     1       9.119  -5.533  -1.640  1.00  0.00    -0.289 OA
BRANCH   7   9
ATOM      9  C   UNL     1       7.041  -6.471  -2.167  1.00  0.00     0.023 A 
ATOM     10  C   UNL     1       6.475  -5.484  -2.974  1.00  0.00     0.012 A 
ATOM     11  C   UNL     1       6.223  -7.395  -1.518  1.00  0.00     0.012 A 
ATOM     12  C   UNL     1       5.091  -5.422  -3.132  1.00  0.00     0.004 A 
ATOM     13  C   UNL     1       4.838  -7.333  -1.676  1.00  0.00     0.004 A 
ATOM     14  C   UNL     1       4.272  -6.346  -2.483  1.00  0.00    -0.051 A 
ATOM     15  C   UNL     1       2.792  -6.278  -2.651  1.00  0.00     0.044 C 
ENDBRANCH   7   9
ENDBRANCH   1   7
BRANCH   4  16
ATOM     16  N   UNL     1      11.674  -9.925  -0.478  1.00  0.00     0.066 N 
ATOM     17  O   UNL     1      11.501  -9.541   0.704  1.00  0.00    -0.258 OA
ATOM     18  O   UNL     1      12.577 -10.736  -0.791  1.00  0.00    -0.258 OA
ENDBRANCH   4  16
BRANCH   5  19
ATOM     19  O   UNL     1       9.728 -10.213  -4.905  1.00  0.00    -0.504 OA
ATOM     20  H   UNL     1       9.988  -9.610  -5.621  1.00  0.00     0.293 HD
ENDBRANCH   5  19
BRANCH   6  21
ATOM     21  O   UNL     1      11.406 -11.227  -2.961  1.00  0.00    -0.500 OA
ATOM     22  H   UNL     1      12.318 -11.001  -3.203  1.00  0.00     0.294 HD
ENDBRANCH   6  21
TORSDOF 5
ENDMDL
MODEL 6
REMARK VINA RESULT:    -4.676      3.467      7.065
REMARK INTER + INTRA:          -6.481
REMARK INTER:                  -5.599
REMARK INTRA:                  -0.881
REMARK UNBOUND:                -0.712
REMARK SMILES Cc1ccc(C(=O)c2cc(O)c(O)c([N+](=O)[O-])c2)cc1
REMARK SMILES IDX 8 1 18 2 9 3 14 4 10 5 12 6 6 7 7 8 5 9 4 10 19 11 3 12
REMARK SMILES IDX 20 13 2 14 1 15 15 16 17 17 16 18 11 19 13 21
REMARK H PARENT 11 20 13 22
ROOT
ATOM      1  C   UNL     1       8.040  -8.705  -2.221  1.00  0.00     0.033 A 
ATOM      2  C   UNL     1       9.117  -8.795  -1.370  1.00  0.00     0.102 A 
ATOM      3  C   UNL     1       8.029  -9.271  -3.473  1.00  0.00     0.063 A 
ATOM      4  C   UNL     1      10.248  -9.492  -1.797  1.00  0.00     0.315 A 
ATOM      5  C   UNL     1       9.160  -9.967  -3.901  1.00  0.00     0.165 A 
ATOM      6  C   UNL     1      10.269 -10.078  -3.062  1.00  0.00     0.237 A 
ENDROOT
BRANCH   1   7
ATOM      7  C   UNL     1       6.829  -7.959  -1.764  1.00  0.00     0.193 C 
ATOM      8  O   UNL     1       5.750  -8.571  -1.761  1.00  0.00    -0.289 OA
BRANCH   7   9
ATOM      9  C   UNL     1       6.885  -6.571  -1.334  1.00  0.00     0.023 A 
ATOM     10  C   UNL     1       7.702  -5.664  -2.009  1.00  0.00     0.012 A 
ATOM     11  C   UNL     1       6.121  -6.146  -0.247  1.00  0.00     0.012 A 
ATOM     12  C   UNL     1       7.755  -4.333  -1.596  1.00  0.00     0.004 A 
ATOM     13  C   UNL     1       6.173  -4.814   0.166  1.00  0.00     0.004 A 
ATOM     14  C   UNL     1       6.991  -3.907  -0.509  1.00  0.00    -0.051 A 
ATOM     15  C   UNL     1       7.049  -2.485  -0.068  1.00  0.00     0.044 C 
ENDBRANCH   7   9
ENDBRANCH   1   7
BRANCH   4  16
ATOM     16  N   UNL     1      11.369  -9.594  -0.928  1.00  0.00     0.066 N 
ATOM     17  O   UNL     1      11.596  -8.662  -0.120  1.00  0.00    -0.258 OA
ATOM     18  O   UNL     1      12.097 -10.612  -0.996  1.00  0.00    -0.258 OA
ENDBRANCH   4  16
BRANCH   5  19
ATOM     19  O   UNL     1       9.167 -10.536  -5.139  1.00  0.00    -0.504 OA
ATOM     20  H   UNL     1       8.612 -10.011  -5.741  1.00  0.00     0.293 HD
ENDBRANCH   5  19
BRANCH   6  21
ATOM     21  O   UNL     1      11.369 -10.763  -3.491  1.00  0.00    -0.500 OA
ATOM     22  H   UNL     1      11.092 -11.551  -3.983  1.00  0.00     0.294 HD
ENDBRANCH   6  21
TORSDOF 5
ENDMDL
MODEL 7
REMARK VINA RESULT:    -4.620      2.337      4.013
REMARK INTER + INTRA:          -6.412
REMARK INTER:                  -5.420
REMARK INTRA:                  -0.993
REMARK UNBOUND:                -0.712
REMARK SMILES Cc1ccc(C(=O)c2cc(O)c(O)c([N+](=O)[O-])c2)cc1
REMARK SMILES IDX 8 1 18 2 9 3 14 4 10 5 12 6 6 7 7 8 5 9 4 10 19 11 3 12
REMARK SMILES IDX 20 13 2 14 1 15 15 16 17 17 16 18 11 19 13 21
REMARK H PARENT 11 20 13 22
ROOT
ATOM      1  C   UNL     1       7.984  -8.823  -2.122  1.00  0.00     0.033 A 
ATOM      2  C   UNL     1       7.655  -7.488  -2.089  1.00  0.00     0.102 A 
ATOM      3  C   UNL     1       7.085  -9.821  -1.829  1.00  0.00     0.063 A 
ATOM      4  C   UNL     1       6.351  -7.131  -1.745  1.00  0.00     0.315 A 
ATOM      5  C   UNL     1       5.781  -9.464  -1.484  1.00  0.00     0.165 A 
ATOM      6  C   UNL     1       5.414  -8.118  -1.442  1.00  0.00     0.237 A 
ENDROOT
BRANCH   1   7
ATOM      7  C   UNL     1       9.380  -9.206  -2.490  1.00  0.00     0.193 C 
ATOM      8  O   UNL     1      10.260  -9.045  -1.631  1.00  0.00    -0.289 OA
BRANCH   7   9
ATOM      9  C   UNL     1       9.722  -9.747  -3.796  1.00  0.00     0.023 A 
ATOM     10  C   UNL     1       9.409  -9.031  -4.951  1.00  0.00     0.012 A 
ATOM     11  C   UNL     1      10.362 -10.982  -3.893  1.00  0.00     0.012 A 
ATOM     12  C   UNL     1       9.736  -9.550  -6.204  1.00  0.00     0.004 A 
ATOM     13  C   UNL     1      10.690 -11.502  -5.146  1.00  0.00     0.004 A 
ATOM     14  C   UNL     1      10.377 -10.786  -6.302  1.00  0.00    -0.051 A 
ATOM     15  C   UNL     1      10.726 -11.341  -7.640  1.00  0.00     0.044 C 
ENDBRANCH   7   9
ENDBRANCH   1   7
BRANCH   4  16
ATOM     16  N   UNL     1       5.995  -5.754  -1.707  1.00  0.00     0.066 N 
ATOM     17  O   UNL     1       5.280  -5.339  -0.763  1.00  0.00    -0.258 OA
ATOM     18  O   UNL     1       6.407  -4.997  -2.616  1.00  0.00    -0.258 OA
ENDBRANCH   4  16
BRANCH   5  19
ATOM     19  O   UNL     1       4.876 -10.440  -1.191  1.00  0.00    -0.504 OA
ATOM     20  H   UNL     1       4.186 -10.459  -1.875  1.00  0.00     0.293 HD
ENDBRANCH   5  19
BRANCH   6  21
ATOM     21  O   UNL     1       4.135  -7.782  -1.104  1.00  0.00    -0.500 OA
ATOM     22  H   UNL     1       3.906  -6.928  -1.504  1.00  0.00     0.294 HD
ENDBRANCH   6  21
TORSDOF 5
ENDMDL
MODEL 8
REMARK VINA RESULT:    -4.580      3.540      4.436
REMARK INTER + INTRA:          -6.363
REMARK INTER:                  -5.372
REMARK INTRA:                  -0.991
REMARK UNBOUND:                -0.712
REMARK SMILES Cc1ccc(C(=O)c2cc(O)c(O)c([N+](=O)[O-])c2)cc1
REMARK SMILES IDX 8 1 18 2 9 3 14 4 10 5 12 6 6 7 7 8 5 9 4 10 19 11 3 12
REMARK SMILES IDX 20 13 2 14 1 15 15 16 17 17 16 18 11 19 13 21
REMARK H PARENT 11 20 13 22
ROOT
ATOM      1  C   UNL     1       9.378  -7.373  -2.141  1.00  0.00     0.033 A 
ATOM      2  C   UNL     1       8.058  -7.142  -1.830  1.00  0.00     0.102 A 
ATOM      3  C   UNL     1      10.266  -6.362  -2.426  1.00  0.00     0.063 A 
ATOM      4  C   UNL     1       7.600  -5.825  -1.802  1.00  0.00     0.315 A 
ATOM      5  C   UNL     1       9.808  -5.045  -2.398  1.00  0.00     0.165 A 
ATOM      6  C   UNL     1       8.474  -4.776  -2.085  1.00  0.00     0.237 A 
ENDROOT
BRANCH   1   7
ATOM      7  C   UNL     1       9.869  -8.784  -2.172  1.00  0.00     0.193 C 
ATOM      8  O   UNL     1       9.556  -9.473  -3.155  1.00  0.00    -0.289 OA
BRANCH   7   9
ATOM      9  C   UNL     1      10.681  -9.350  -1.107  1.00  0.00     0.023 A 
ATOM     10  C   UNL     1      10.242  -9.285   0.215  1.00  0.00     0.012 A 
ATOM     11  C   UNL     1      11.899  -9.959  -1.408  1.00  0.00     0.012 A 
ATOM     12  C   UNL     1      11.021  -9.828   1.236  1.00  0.00     0.004 A 
ATOM     13  C   UNL     1      12.680 -10.503  -0.387  1.00  0.00     0.004 A 
ATOM     14  C   UNL     1      12.240 -10.438   0.935  1.00  0.00    -0.051 A 
ATOM     15  C   UNL     1      13.073 -11.017   2.027  1.00  0.00     0.044 C 
ENDBRANCH   7   9
ENDBRANCH   1   7
BRANCH   4  16
ATOM     16  N   UNL     1       6.238  -5.570  -1.481  1.00  0.00     0.066 N 
ATOM     17  O   UNL     1       5.683  -6.269  -0.599  1.00  0.00    -0.258 OA
ATOM     18  O   UNL     1       5.634  -4.656  -2.088  1.00  0.00    -0.258 OA
ENDBRANCH   4  16
BRANCH   5  19
ATOM     19  O   UNL     1      10.673  -4.030  -2.677  1.00  0.00    -0.504 OA
ATOM     20  H   UNL     1      10.314  -3.484  -3.396  1.00  0.00     0.293 HD
ENDBRANCH   5  19
BRANCH   6  21
ATOM     21  O   UNL     1       8.038  -3.483  -2.061  1.00  0.00    -0.500 OA
ATOM     22  H   UNL     1       8.083  -3.107  -2.953  1.00  0.00     0.294 HD
ENDBRANCH   6  21
TORSDOF 5
ENDMDL
MODEL 9
REMARK VINA RESULT:    -4.419      9.101     12.542
REMARK INTER + INTRA:          -6.164
REMARK INTER:                  -5.122
REMARK INTRA:                  -1.042
REMARK UNBOUND:                -0.712
REMARK SMILES Cc1ccc(C(=O)c2cc(O)c(O)c([N+](=O)[O-])c2)cc1
REMARK SMILES IDX 8 1 18 2 9 3 14 4 10 5 12 6 6 7 7 8 5 9 4 10 19 11 3 12
REMARK SMILES IDX 20 13 2 14 1 15 15 16 17 17 16 18 11 19 13 21
REMARK H PARENT 11 20 13 22
ROOT
ATOM      1  C   UNL     1      12.286 -12.859  -9.351  1.00  0.00     0.033 A 
ATOM      2  C   UNL     1      13.070 -13.988  -9.296  1.00  0.00     0.102 A 
ATOM      3  C   UNL     1      11.233 -12.724 -10.225  1.00  0.00     0.063 A 
ATOM      4  C   UNL     1      12.783 -15.042 -10.163  1.00  0.00     0.315 A 
ATOM      5  C   UNL     1      10.946 -13.778 -11.093  1.00  0.00     0.165 A 
ATOM      6  C   UNL     1      11.722 -14.938 -11.062  1.00  0.00     0.237 A 
ENDROOT
BRANCH   1   7
ATOM      7  C   UNL     1      12.593 -11.730  -8.422  1.00  0.00     0.193 C 
ATOM      8  O   UNL     1      13.688 -11.164  -8.557  1.00  0.00    -0.289 OA
BRANCH   7   9
ATOM      9  C   UNL     1      11.663 -11.291  -7.394  1.00  0.00     0.023 A 
ATOM     10  C   UNL     1      11.041 -10.047  -7.500  1.00  0.00     0.012 A 
ATOM     11  C   UNL     1      11.393 -12.115  -6.301  1.00  0.00     0.012 A 
ATOM     12  C   UNL     1      10.149  -9.628  -6.514  1.00  0.00     0.004 A 
ATOM     13  C   UNL     1      10.500 -11.695  -5.314  1.00  0.00     0.004 A 
ATOM     14  C   UNL     1       9.878 -10.451  -5.420  1.00  0.00    -0.051 A 
ATOM     15  C   UNL     1       8.926 -10.001  -4.366  1.00  0.00     0.044 C 
ENDBRANCH   7   9
ENDBRANCH   1   7
BRANCH   4  16
ATOM     16  N   UNL     1      13.585 -16.216 -10.118  1.00  0.00     0.066 N 
ATOM     17  O   UNL     1      13.983 -16.635  -9.004  1.00  0.00    -0.258 OA
ATOM     18  O   UNL     1      13.870 -16.797 -11.190  1.00  0.00    -0.258 OA
ENDBRANCH   4  16
BRANCH   5  19
ATOM     19  O   UNL     1       9.906 -13.662 -11.965  1.00  0.00    -0.504 OA
ATOM     20  H   UNL     1       9.179 -13.176 -11.541  1.00  0.00     0.293 HD
ENDBRANCH   5  19
BRANCH   6  21
ATOM     21  O   UNL     1      11.432 -15.962 -11.915  1.00  0.00    -0.500 OA
ATOM     22  H   UNL     1      12.067 -15.966 -12.648  1.00  0.00     0.294 HD
ENDBRANCH   6  21
TORSDOF 5
ENDMDL
