MODEL 1
REMARK VINA RESULT:    -6.837      0.000      0.000
REMARK INTER + INTRA:          -8.692
REMARK INTER:                  -8.036
REMARK INTRA:                  -0.656
REMARK UNBOUND:                -0.656
REMARK SMILES O=C(O)c1cc(-c2ccc(F)cc2F)ccc1O
REMARK SMILES IDX 6 1 5 2 15 3 4 4 17 5 16 6 7 7 13 8 12 9 8 10 10 11 9 12
REMARK SMILES IDX 14 13 11 14 2 15 1 16 3 17 18 19
REMARK H PARENT 3 18 18 20
ROOT
ATOM      1  C   UNL     1       1.296   1.274  -8.207  1.00  0.00    -0.014 A 
ATOM      2  C   UNL     1       2.326   1.089  -7.285  1.00  0.00     0.028 A 
ATOM      3  C   UNL     1      -0.020   1.406  -7.764  1.00  0.00     0.013 A 
ATOM      4  C   UNL     1       2.040   1.034  -5.921  1.00  0.00     0.102 A 
ATOM      5  C   UNL     1       0.724   1.166  -5.478  1.00  0.00     0.130 A 
ATOM      6  C   UNL     1      -0.307   1.351  -6.401  1.00  0.00     0.048 A 
ENDROOT
BRANCH   1   7
ATOM      7  C   UNL     1       1.591   1.329  -9.622  1.00  0.00     0.018 A 
ATOM      8  C   UNL     1       2.634   2.131 -10.089  1.00  0.00     0.133 A 
ATOM      9  C   UNL     1       2.915   2.181 -11.455  1.00  0.00     0.079 A 
ATOM     10  C   UNL     1       0.832   0.579 -10.519  1.00  0.00     0.015 A 
ATOM     11  C   UNL     1       2.156   1.431 -12.352  1.00  0.00     0.126 A 
ATOM     12  C   UNL     1       1.114   0.630 -11.884  1.00  0.00     0.040 A 
ATOM     13  F   UNL     1       3.371   2.860  -9.240  1.00  0.00    -0.206 F 
ATOM     14  F   UNL     1       2.425   1.479 -13.663  1.00  0.00    -0.207 F 
ENDBRANCH   1   7
BRANCH   4  15
ATOM     15  C   UNL     1       3.130   0.840  -4.974  1.00  0.00     0.339 C 
ATOM     16  O   UNL     1       3.115   0.060  -4.019  1.00  0.00    -0.246 OA
BRANCH  15  17
ATOM     17  O   UNL     1       4.205   1.627  -5.253  1.00  0.00    -0.478 OA
ATOM     18  H   UNL     1       4.151   2.493  -4.796  1.00  0.00     0.297 HD
ENDBRANCH  15  17
ENDBRANCH   4  15
BRANCH   5  19
ATOM     19  O   UNL     1       0.423   1.116  -4.150  1.00  0.00    -0.507 OA
ATOM     20  H   UNL     1       1.183   0.748  -3.666  1.00  0.00     0.293 HD
ENDBRANCH   5  19
TORSDOF 4
ENDMDL
MODEL 2
REMARK VINA RESULT:    -6.826      1.122      1.604
REMARK INTER + INTRA:          -8.679
REMARK INTER:                  -8.021
REMARK INTRA:                  -0.658
REMARK UNBOUND:                -0.656
REMARK SMILES O=C(O)c1cc(-c2ccc(F)cc2F)ccc1O
REMARK SMILES IDX 6 1 5 2 15 3 4 4 17 5 16 6 7 7 13 8 12 9 8 10 10 11 9 12
REMARK SMILES IDX 14 13 11 14 2 15 1 16 3 17 18 19
REMARK H PARENT 3 18 18 20
ROOT
ATOM      1  C   UNL     1       1.279   1.247  -8.197  1.00  0.00    -0.014 A 
ATOM      2  C   UNL     1       2.313   1.070  -7.279  1.00  0.00     0.028 A 
ATOM      3  C   UNL     1      -0.036   1.376  -7.750  1.00  0.00     0.013 A 
ATOM      4  C   UNL     1       2.033   1.022  -5.913  1.00  0.00     0.102 A 
ATOM      5  C   UNL     1       0.718   1.151  -5.466  1.00  0.00     0.130 A 
ATOM      6  C   UNL     1      -0.317   1.328  -6.385  1.00  0.00     0.048 A 
ENDROOT
BRANCH   1   7
ATOM      7  C   UNL     1       1.569   1.296  -9.614  1.00  0.00     0.018 A 
ATOM      8  C   UNL     1       0.825   0.525 -10.508  1.00  0.00     0.133 A 
ATOM      9  C   UNL     1       1.109   0.575 -11.873  1.00  0.00     0.079 A 
ATOM     10  C   UNL     1       2.594   2.117 -10.085  1.00  0.00     0.015 A 
ATOM     11  C   UNL     1       2.134   1.395 -12.344  1.00  0.00     0.126 A 
ATOM     12  C   UNL     1       2.876   2.166 -11.449  1.00  0.00     0.040 A 
ATOM     13  F   UNL     1      -0.161  -0.271 -10.072  1.00  0.00    -0.206 F 
ATOM     14  F   UNL     1       2.406   1.443 -13.654  1.00  0.00    -0.207 F 
ENDBRANCH   1   7
BRANCH   4  15
ATOM     15  C   UNL     1       3.127   0.836  -4.970  1.00  0.00     0.339 C 
ATOM     16  O   UNL     1       3.120   0.059  -4.012  1.00  0.00    -0.246 OA
BRANCH  15  17
ATOM     17  O   UNL     1       4.197   1.628  -5.254  1.00  0.00    -0.478 OA
ATOM     18  H   UNL     1       4.993   1.101  -5.473  1.00  0.00     0.297 HD
ENDBRANCH  15  17
ENDBRANCH   4  15
BRANCH   5  19
ATOM     19  O   UNL     1       0.423   1.107  -4.136  1.00  0.00    -0.507 OA
ATOM     20  H   UNL     1       1.220   0.846  -3.643  1.00  0.00     0.293 HD
ENDBRANCH   5  19
TORSDOF 4
ENDMDL
MODEL 3
REMARK VINA RESULT:    -6.824      1.700      3.194
REMARK INTER + INTRA:          -8.677
REMARK INTER:                  -8.053
REMARK INTRA:                  -0.625
REMARK UNBOUND:                -0.656
REMARK SMILES O=C(O)c1cc(-c2ccc(F)cc2F)ccc1O
REMARK SMILES IDX 6 1 5 2 15 3 4 4 17 5 16 6 7 7 13 8 12 9 8 10 10 11 9 12
REMARK SMILES IDX 14 13 11 14 2 15 1 16 3 17 18 19
REMARK H PARENT 3 18 18 20
ROOT
ATOM      1  C   UNL     1       1.220   1.151  -8.217  1.00  0.00    -0.014 A 
ATOM      2  C   UNL     1      -0.120   1.253  -7.846  1.00  0.00     0.028 A 
ATOM      3  C   UNL     1       2.203   0.984  -7.242  1.00  0.00     0.013 A 
ATOM      4  C   UNL     1      -0.478   1.188  -6.499  1.00  0.00     0.102 A 
ATOM      5  C   UNL     1       0.505   1.021  -5.524  1.00  0.00     0.130 A 
ATOM      6  C   UNL     1       1.846   0.919  -5.896  1.00  0.00     0.048 A 
ENDROOT
BRANCH   1   7
ATOM      7  C   UNL     1       1.592   1.220  -9.614  1.00  0.00     0.018 A 
ATOM      8  C   UNL     1       0.889   0.477 -10.563  1.00  0.00     0.133 A 
ATOM      9  C   UNL     1       1.251   0.546 -11.909  1.00  0.00     0.079 A 
ATOM     10  C   UNL     1       2.654   2.032 -10.010  1.00  0.00     0.015 A 
ATOM     11  C   UNL     1       2.314   1.357 -12.305  1.00  0.00     0.126 A 
ATOM     12  C   UNL     1       3.015   2.100 -11.355  1.00  0.00     0.040 A 
ATOM     13  F   UNL     1      -0.133  -0.310 -10.199  1.00  0.00    -0.206 F 
ATOM     14  F   UNL     1       2.662   1.424 -13.596  1.00  0.00    -0.207 F 
ENDBRANCH   1   7
BRANCH   4  15
ATOM     15  C   UNL     1      -1.884   1.296  -6.132  1.00  0.00     0.339 C 
ATOM     16  O   UNL     1      -2.338   2.040  -5.260  1.00  0.00    -0.246 OA
BRANCH  15  17
ATOM     17  O   UNL     1      -2.677   0.471  -6.868  1.00  0.00    -0.478 OA
ATOM     18  H   UNL     1      -2.155  -0.217  -7.333  1.00  0.00     0.297 HD
ENDBRANCH  15  17
ENDBRANCH   4  15
BRANCH   5  19
ATOM     19  O   UNL     1       0.176   0.954  -4.202  1.00  0.00    -0.507 OA
ATOM     20  H   UNL     1      -0.675   1.404  -4.064  1.00  0.00     0.293 HD
ENDBRANCH   5  19
TORSDOF 4
ENDMDL
MODEL 4
REMARK VINA RESULT:    -5.268      4.528      6.892
REMARK INTER + INTRA:          -6.849
REMARK INTER:                  -5.772
REMARK INTRA:                  -1.077
REMARK UNBOUND:                -0.656
REMARK SMILES O=C(O)c1cc(-c2ccc(F)cc2F)ccc1O
REMARK SMILES IDX 6 1 5 2 15 3 4 4 17 5 16 6 7 7 13 8 12 9 8 10 10 11 9 12
REMARK SMILES IDX 14 13 11 14 2 15 1 16 3 17 18 19
REMARK H PARENT 3 18 18 20
ROOT
ATOM      1  C   UNL     1       1.748   1.269 -10.746  1.00  0.00    -0.014 A 
ATOM      2  C   UNL     1       1.066   2.089 -11.644  1.00  0.00     0.028 A 
ATOM      3  C   UNL     1       2.829   0.504 -11.182  1.00  0.00     0.013 A 
ATOM      4  C   UNL     1       1.466   2.145 -12.980  1.00  0.00     0.102 A 
ATOM      5  C   UNL     1       2.548   1.380 -13.416  1.00  0.00     0.130 A 
ATOM      6  C   UNL     1       3.230   0.559 -12.516  1.00  0.00     0.048 A 
ENDROOT
BRANCH   1   7
ATOM      7  C   UNL     1       1.332   1.210  -9.361  1.00  0.00     0.018 A 
ATOM      8  C   UNL     1       0.311   0.342  -8.972  1.00  0.00     0.133 A 
ATOM      9  C   UNL     1      -0.086   0.288  -7.636  1.00  0.00     0.079 A 
ATOM     10  C   UNL     1       1.956   2.021  -8.414  1.00  0.00     0.015 A 
ATOM     11  C   UNL     1       0.537   1.100  -6.689  1.00  0.00     0.126 A 
ATOM     12  C   UNL     1       1.559   1.967  -7.078  1.00  0.00     0.040 A 
ATOM     13  F   UNL     1      -0.301  -0.443  -9.870  1.00  0.00    -0.206 F 
ATOM     14  F   UNL     1       0.156   1.049  -5.406  1.00  0.00    -0.207 F 
ENDBRANCH   1   7
BRANCH   4  15
ATOM     15  C   UNL     1       0.742   3.008 -13.902  1.00  0.00     0.339 C 
ATOM     16  O   UNL     1       1.081   3.258 -15.062  1.00  0.00    -0.246 OA
BRANCH  15  17
ATOM     17  O   UNL     1      -0.384   3.532 -13.346  1.00  0.00    -0.478 OA
ATOM     18  H   UNL     1      -0.368   3.476 -12.367  1.00  0.00     0.297 HD
ENDBRANCH  15  17
ENDBRANCH   4  15
BRANCH   5  19
ATOM     19  O   UNL     1       2.955   1.421 -14.716  1.00  0.00    -0.507 OA
ATOM     20  H   UNL     1       3.123   0.513 -15.025  1.00  0.00     0.293 HD
ENDBRANCH   5  19
TORSDOF 4
ENDMDL
MODEL 5
REMARK VINA RESULT:    -5.248      4.110      6.423
REMARK INTER + INTRA:          -6.825
REMARK INTER:                  -5.758
REMARK INTRA:                  -1.067
REMARK UNBOUND:                -0.656
REMARK SMILES O=C(O)c1cc(-c2ccc(F)cc2F)ccc1O
REMARK SMILES IDX 6 1 5 2 15 3 4 4 17 5 16 6 7 7 13 8 12 9 8 10 10 11 9 12
REMARK SMILES IDX 14 13 11 14 2 15 1 16 3 17 18 19
REMARK H PARENT 3 18 18 20
ROOT
ATOM      1  C   UNL     1       1.765   1.270 -10.744  1.00  0.00    -0.014 A 
ATOM      2  C   UNL     1       2.868   0.536 -11.178  1.00  0.00     0.028 A 
ATOM      3  C   UNL     1       1.050   2.056 -11.648  1.00  0.00     0.013 A 
ATOM      4  C   UNL     1       3.258   0.588 -12.517  1.00  0.00     0.102 A 
ATOM      5  C   UNL     1       2.543   1.374 -13.421  1.00  0.00     0.130 A 
ATOM      6  C   UNL     1       1.439   2.109 -12.986  1.00  0.00     0.048 A 
ENDROOT
BRANCH   1   7
ATOM      7  C   UNL     1       1.361   1.218  -9.356  1.00  0.00     0.018 A 
ATOM      8  C   UNL     1       0.339   0.355  -8.955  1.00  0.00     0.133 A 
ATOM      9  C   UNL     1      -0.047   0.308  -7.616  1.00  0.00     0.079 A 
ATOM     10  C   UNL     1       1.995   2.031  -8.417  1.00  0.00     0.015 A 
ATOM     11  C   UNL     1       0.587   1.122  -6.677  1.00  0.00     0.126 A 
ATOM     12  C   UNL     1       1.608   1.983  -7.079  1.00  0.00     0.040 A 
ATOM     13  F   UNL     1      -0.282  -0.431  -9.845  1.00  0.00    -0.206 F 
ATOM     14  F   UNL     1       0.216   1.078  -5.391  1.00  0.00    -0.207 F 
ENDBRANCH   1   7
BRANCH   4  15
ATOM     15  C   UNL     1       4.412  -0.186 -12.951  1.00  0.00     0.339 C 
ATOM     16  O   UNL     1       5.014  -0.034 -14.017  1.00  0.00    -0.246 OA
BRANCH  15  17
ATOM     17  O   UNL     1       4.779  -1.125 -12.037  1.00  0.00    -0.478 OA
ATOM     18  H   UNL     1       4.337  -1.985 -12.200  1.00  0.00     0.297 HD
ENDBRANCH  15  17
ENDBRANCH   4  15
BRANCH   5  19
ATOM     19  O   UNL     1       2.907   1.438 -14.733  1.00  0.00    -0.507 OA
ATOM     20  H   UNL     1       2.155   1.161 -15.285  1.00  0.00     0.293 HD
ENDBRANCH   5  19
TORSDOF 4
ENDMDL
MODEL 6
REMARK VINA RESULT:    -4.566      2.115      3.285
REMARK INTER + INTRA:          -6.023
REMARK INTER:                  -5.058
REMARK INTRA:                  -0.965
REMARK UNBOUND:                -0.656
REMARK SMILES O=C(O)c1cc(-c2ccc(F)cc2F)ccc1O
REMARK SMILES IDX 6 1 5 2 15 3 4 4 17 5 16 6 7 7 13 8 12 9 8 10 10 11 9 12
REMARK SMILES IDX 14 13 11 14 2 15 1 16 3 17 18 19
REMARK H PARENT 3 18 18 20
ROOT
ATOM      1  C   UNL     1       1.736   1.468  -9.547  1.00  0.00    -0.014 A 
ATOM      2  C   UNL     1       0.487   0.947  -9.210  1.00  0.00     0.028 A 
ATOM      3  C   UNL     1       2.475   2.176  -8.599  1.00  0.00     0.013 A 
ATOM      4  C   UNL     1      -0.023   1.134  -7.925  1.00  0.00     0.102 A 
ATOM      5  C   UNL     1       0.716   1.842  -6.977  1.00  0.00     0.130 A 
ATOM      6  C   UNL     1       1.966   2.363  -7.315  1.00  0.00     0.048 A 
ENDROOT
BRANCH   1   7
ATOM      7  C   UNL     1       2.266   1.276 -10.880  1.00  0.00     0.018 A 
ATOM      8  C   UNL     1       1.674   1.917 -11.968  1.00  0.00     0.133 A 
ATOM      9  C   UNL     1       2.187   1.729 -13.252  1.00  0.00     0.079 A 
ATOM     10  C   UNL     1       3.371   0.448 -11.075  1.00  0.00     0.015 A 
ATOM     11  C   UNL     1       3.292   0.900 -13.446  1.00  0.00     0.126 A 
ATOM     12  C   UNL     1       3.884   0.260 -12.357  1.00  0.00     0.040 A 
ATOM     13  F   UNL     1       0.609   2.714 -11.798  1.00  0.00    -0.206 F 
ATOM     14  F   UNL     1       3.786   0.719 -14.678  1.00  0.00    -0.207 F 
ENDBRANCH   1   7
BRANCH   4  15
ATOM     15  C   UNL     1      -1.329   0.582  -7.593  1.00  0.00     0.339 C 
ATOM     16  O   UNL     1      -2.068   0.988  -6.693  1.00  0.00    -0.246 OA
BRANCH  15  17
ATOM     17  O   UNL     1      -1.671  -0.460  -8.398  1.00  0.00    -0.478 OA
ATOM     18  H   UNL     1      -2.101  -0.156  -9.225  1.00  0.00     0.297 HD
ENDBRANCH  15  17
ENDBRANCH   4  15
BRANCH   5  19
ATOM     19  O   UNL     1       0.235   2.035  -5.717  1.00  0.00    -0.507 OA
ATOM     20  H   UNL     1       0.970   2.295  -5.133  1.00  0.00     0.293 HD
ENDBRANCH   5  19
TORSDOF 4
ENDMDL
MODEL 7
REMARK VINA RESULT:    -4.497      8.241     10.483
REMARK INTER + INTRA:          -5.942
REMARK INTER:                  -4.885
REMARK INTRA:                  -1.056
REMARK UNBOUND:                -0.656
REMARK SMILES O=C(O)c1cc(-c2ccc(F)cc2F)ccc1O
REMARK SMILES IDX 6 1 5 2 15 3 4 4 17 5 16 6 7 7 13 8 12 9 8 10 10 11 9 12
REMARK SMILES IDX 14 13 11 14 2 15 1 16 3 17 18 19
REMARK H PARENT 3 18 18 20
ROOT
ATOM      1  C   UNL     1       5.445  -3.185 -15.435  1.00  0.00    -0.014 A 
ATOM      2  C   UNL     1       6.728  -3.731 -15.440  1.00  0.00     0.028 A 
ATOM      3  C   UNL     1       4.455  -3.724 -16.256  1.00  0.00     0.013 A 
ATOM      4  C   UNL     1       7.022  -4.816 -16.265  1.00  0.00     0.102 A 
ATOM      5  C   UNL     1       6.031  -5.355 -17.086  1.00  0.00     0.130 A 
ATOM      6  C   UNL     1       4.747  -4.809 -17.082  1.00  0.00     0.048 A 
ENDROOT
BRANCH   1   7
ATOM      7  C   UNL     1       5.140  -2.058 -14.579  1.00  0.00     0.018 A 
ATOM      8  C   UNL     1       5.379  -0.757 -15.023  1.00  0.00     0.133 A 
ATOM      9  C   UNL     1       5.084   0.327 -14.195  1.00  0.00     0.079 A 
ATOM     10  C   UNL     1       4.605  -2.275 -13.310  1.00  0.00     0.015 A 
ATOM     11  C   UNL     1       4.550   0.109 -12.926  1.00  0.00     0.126 A 
ATOM     12  C   UNL     1       4.310  -1.192 -12.483  1.00  0.00     0.040 A 
ATOM     13  F   UNL     1       5.895  -0.531 -16.240  1.00  0.00    -0.206 F 
ATOM     14  F   UNL     1       4.266   1.149 -12.130  1.00  0.00    -0.207 F 
ENDBRANCH   1   7
BRANCH   4  15
ATOM     15  C   UNL     1       8.368  -5.372 -16.255  1.00  0.00     0.339 C 
ATOM     16  O   UNL     1       8.946  -5.858 -17.230  1.00  0.00    -0.246 OA
BRANCH  15  17
ATOM     17  O   UNL     1       8.948  -5.302 -15.027  1.00  0.00    -0.478 OA
ATOM     18  H   UNL     1       9.744  -4.729 -15.032  1.00  0.00     0.297 HD
ENDBRANCH  15  17
ENDBRANCH   4  15
BRANCH   5  19
ATOM     19  O   UNL     1       6.297  -6.416 -17.900  1.00  0.00    -0.507 OA
ATOM     20  H   UNL     1       5.984  -6.213 -18.799  1.00  0.00     0.293 HD
ENDBRANCH   5  19
TORSDOF 4
ENDMDL
MODEL 8
REMARK VINA RESULT:    -3.992      8.266     10.553
REMARK INTER + INTRA:          -5.348
REMARK INTER:                  -4.306
REMARK INTRA:                  -1.042
REMARK UNBOUND:                -0.656
REMARK SMILES O=C(O)c1cc(-c2ccc(F)cc2F)ccc1O
REMARK SMILES IDX 6 1 5 2 15 3 4 4 17 5 16 6 7 7 13 8 12 9 8 10 10 11 9 12
REMARK SMILES IDX 14 13 11 14 2 15 1 16 3 17 18 19
REMARK H PARENT 3 18 18 20
ROOT
ATOM      1  C   UNL     1       5.675  -2.860 -15.784  1.00  0.00    -0.014 A 
ATOM      2  C   UNL     1       5.592  -1.610 -16.396  1.00  0.00     0.028 A 
ATOM      3  C   UNL     1       5.416  -2.987 -14.420  1.00  0.00     0.013 A 
ATOM      4  C   UNL     1       5.248  -0.486 -15.644  1.00  0.00     0.102 A 
ATOM      5  C   UNL     1       4.988  -0.613 -14.280  1.00  0.00     0.130 A 
ATOM      6  C   UNL     1       5.072  -1.864 -13.667  1.00  0.00     0.048 A 
ENDROOT
BRANCH   1   7
ATOM      7  C   UNL     1       6.033  -4.026 -16.563  1.00  0.00     0.018 A 
ATOM      8  C   UNL     1       5.038  -4.864 -17.067  1.00  0.00     0.133 A 
ATOM      9  C   UNL     1       5.388  -5.987 -17.817  1.00  0.00     0.079 A 
ATOM     10  C   UNL     1       7.376  -4.309 -16.811  1.00  0.00     0.015 A 
ATOM     11  C   UNL     1       6.730  -6.271 -18.064  1.00  0.00     0.126 A 
ATOM     12  C   UNL     1       7.724  -5.432 -17.561  1.00  0.00     0.040 A 
ATOM     13  F   UNL     1       3.743  -4.607 -16.836  1.00  0.00    -0.206 F 
ATOM     14  F   UNL     1       7.066  -7.349 -18.785  1.00  0.00    -0.207 F 
ENDBRANCH   1   7
BRANCH   4  15
ATOM     15  C   UNL     1       5.165   0.810 -16.302  1.00  0.00     0.339 C 
ATOM     16  O   UNL     1       6.056   1.322 -16.985  1.00  0.00    -0.246 OA
BRANCH  15  17
ATOM     17  O   UNL     1       3.970   1.425 -16.088  1.00  0.00    -0.478 OA
ATOM     18  H   UNL     1       3.519   1.076 -15.291  1.00  0.00     0.297 HD
ENDBRANCH  15  17
ENDBRANCH   4  15
BRANCH   5  19
ATOM     19  O   UNL     1       4.650   0.472 -13.527  1.00  0.00    -0.507 OA
ATOM     20  H   UNL     1       4.976   0.343 -12.620  1.00  0.00     0.293 HD
ENDBRANCH   5  19
TORSDOF 4
ENDMDL
