MODEL 1
REMARK VINA RESULT:    -5.326      0.000      0.000
REMARK INTER + INTRA:          -7.339
REMARK INTER:                  -6.571
REMARK INTRA:                  -0.768
REMARK UNBOUND:                -0.768
REMARK SMILES Cc1ccc(C(=O)c2cc(O)c(O)c([N+](=O)[O-])c2)cc1
REMARK SMILES IDX 8 1 18 2 9 3 14 4 10 5 12 6 6 7 7 8 5 9 4 10 19 11 3 12
REMARK SMILES IDX 20 13 2 14 1 15 15 16 17 17 16 18 11 19 13 21
REMARK H PARENT 11 20 13 22
ROOT
ATOM      1  C   UNL     1       1.720   0.495  -7.905  1.00  0.00     0.033 A 
ATOM      2  C   UNL     1       0.380   0.790  -7.807  1.00  0.00     0.102 A 
ATOM      3  C   UNL     1       2.546   0.397  -6.811  1.00  0.00     0.063 A 
ATOM      4  C   UNL     1      -0.165   0.998  -6.540  1.00  0.00     0.315 A 
ATOM      5  C   UNL     1       2.000   0.606  -5.543  1.00  0.00     0.165 A 
ATOM      6  C   UNL     1       0.644   0.906  -5.408  1.00  0.00     0.237 A 
ENDROOT
BRANCH   1   7
ATOM      7  C   UNL     1       2.305   0.272  -9.262  1.00  0.00     0.193 C 
ATOM      8  O   UNL     1       3.215  -0.564  -9.359  1.00  0.00    -0.289 OA
BRANCH   7   9
ATOM      9  C   UNL     1       1.843   0.992 -10.438  1.00  0.00     0.023 A 
ATOM     10  C   UNL     1       2.510   2.144 -10.857  1.00  0.00     0.012 A 
ATOM     11  C   UNL     1       0.734   0.532 -11.147  1.00  0.00     0.012 A 
ATOM     12  C   UNL     1       2.067   2.834 -11.985  1.00  0.00     0.004 A 
ATOM     13  C   UNL     1       0.291   1.223 -12.276  1.00  0.00     0.004 A 
ATOM     14  C   UNL     1       0.958   2.374 -12.695  1.00  0.00    -0.051 A 
ATOM     15  C   UNL     1       0.484   3.114 -13.900  1.00  0.00     0.044 C 
ENDBRANCH   7   9
ENDBRANCH   1   7
BRANCH   4  16
ATOM     16  N   UNL     1      -1.549   1.303  -6.422  1.00  0.00     0.066 N 
ATOM     17  O   UNL     1      -1.931   2.024  -5.469  1.00  0.00    -0.258 OA
ATOM     18  O   UNL     1      -2.345   0.845  -7.274  1.00  0.00    -0.258 OA
ENDBRANCH   4  16
BRANCH   5  19
ATOM     19  O   UNL     1       2.803   0.513  -4.446  1.00  0.00    -0.504 OA
ATOM     20  H   UNL     1       2.883   1.385  -4.027  1.00  0.00     0.293 HD
ENDBRANCH   5  19
BRANCH   6  21
ATOM     21  O   UNL     1       0.122   1.108  -4.163  1.00  0.00    -0.500 OA
ATOM     22  H   UNL     1       0.774   1.560  -3.606  1.00  0.00     0.294 HD
ENDBRANCH   6  21
TORSDOF 5
ENDMDL
MODEL 2
REMARK VINA RESULT:    -5.305      2.009      3.555
REMARK INTER + INTRA:          -7.313
REMARK INTER:                  -6.545
REMARK INTRA:                  -0.768
REMARK UNBOUND:                -0.768
REMARK SMILES Cc1ccc(C(=O)c2cc(O)c(O)c([N+](=O)[O-])c2)cc1
REMARK SMILES IDX 8 1 18 2 9 3 14 4 10 5 12 6 6 7 7 8 5 9 4 10 19 11 3 12
REMARK SMILES IDX 20 13 2 14 1 15 15 16 17 17 16 18 11 19 13 21
REMARK H PARENT 11 20 13 22
ROOT
ATOM      1  C   UNL     1       0.639   1.884  -8.110  1.00  0.00     0.033 A 
ATOM      2  C   UNL     1       1.792   1.555  -7.436  1.00  0.00     0.102 A 
ATOM      3  C   UNL     1      -0.596   1.912  -7.508  1.00  0.00     0.063 A 
ATOM      4  C   UNL     1       1.703   1.237  -6.080  1.00  0.00     0.315 A 
ATOM      5  C   UNL     1      -0.685   1.594  -6.152  1.00  0.00     0.165 A 
ATOM      6  C   UNL     1       0.466   1.256  -5.438  1.00  0.00     0.237 A 
ENDROOT
BRANCH   1   7
ATOM      7  C   UNL     1       0.733   2.225  -9.562  1.00  0.00     0.193 C 
ATOM      8  O   UNL     1      -0.054   3.079  -9.998  1.00  0.00    -0.289 OA
BRANCH   7   9
ATOM      9  C   UNL     1       1.698   1.596 -10.449  1.00  0.00     0.023 A 
ATOM     10  C   UNL     1       1.325   0.491 -11.215  1.00  0.00     0.012 A 
ATOM     11  C   UNL     1       2.996   2.098 -10.535  1.00  0.00     0.012 A 
ATOM     12  C   UNL     1       2.251  -0.112 -12.066  1.00  0.00     0.004 A 
ATOM     13  C   UNL     1       3.923   1.495 -11.387  1.00  0.00     0.004 A 
ATOM     14  C   UNL     1       3.550   0.390 -12.153  1.00  0.00    -0.051 A 
ATOM     15  C   UNL     1       4.540  -0.255 -13.062  1.00  0.00     0.044 C 
ENDBRANCH   7   9
ENDBRANCH   1   7
BRANCH   4  16
ATOM     16  N   UNL     1       2.887   0.895  -5.370  1.00  0.00     0.066 N 
ATOM     17  O   UNL     1       3.976   1.407  -5.724  1.00  0.00    -0.258 OA
ATOM     18  O   UNL     1       2.807   0.094  -4.410  1.00  0.00    -0.258 OA
ENDBRANCH   4  16
BRANCH   5  19
ATOM     19  O   UNL     1      -1.901   1.617  -5.538  1.00  0.00    -0.504 OA
ATOM     20  H   UNL     1      -2.545   1.124  -6.072  1.00  0.00     0.293 HD
ENDBRANCH   5  19
BRANCH   6  21
ATOM     21  O   UNL     1       0.367   0.947  -4.113  1.00  0.00    -0.500 OA
ATOM     22  H   UNL     1      -0.566   0.942  -3.848  1.00  0.00     0.294 HD
ENDBRANCH   6  21
TORSDOF 5
ENDMDL
MODEL 3
REMARK VINA RESULT:    -4.355      3.596      4.442
REMARK INTER + INTRA:          -6.141
REMARK INTER:                  -5.144
REMARK INTRA:                  -0.997
REMARK UNBOUND:                -0.768
REMARK SMILES Cc1ccc(C(=O)c2cc(O)c(O)c([N+](=O)[O-])c2)cc1
REMARK SMILES IDX 8 1 18 2 9 3 14 4 10 5 12 6 6 7 7 8 5 9 4 10 19 11 3 12
REMARK SMILES IDX 20 13 2 14 1 15 15 16 17 17 16 18 11 19 13 21
REMARK H PARENT 11 20 13 22
ROOT
ATOM      1  C   UNL     1       2.767   1.865 -10.851  1.00  0.00     0.033 A 
ATOM      2  C   UNL     1       1.921   1.372  -9.884  1.00  0.00     0.102 A 
ATOM      3  C   UNL     1       3.778   2.754 -10.576  1.00  0.00     0.063 A 
ATOM      4  C   UNL     1       2.099   1.793  -8.566  1.00  0.00     0.315 A 
ATOM      5  C   UNL     1       3.955   3.176  -9.258  1.00  0.00     0.165 A 
ATOM      6  C   UNL     1       3.116   2.695  -8.252  1.00  0.00     0.237 A 
ENDROOT
BRANCH   1   7
ATOM      7  C   UNL     1       2.577   1.415 -12.263  1.00  0.00     0.193 C 
ATOM      8  O   UNL     1       1.630   1.907 -12.895  1.00  0.00    -0.289 OA
BRANCH   7   9
ATOM      9  C   UNL     1       3.452   0.440 -12.895  1.00  0.00     0.023 A 
ATOM     10  C   UNL     1       4.086   0.749 -14.099  1.00  0.00     0.012 A 
ATOM     11  C   UNL     1       3.657  -0.803 -12.298  1.00  0.00     0.012 A 
ATOM     12  C   UNL     1       4.925  -0.185 -14.704  1.00  0.00     0.004 A 
ATOM     13  C   UNL     1       4.497  -1.739 -12.904  1.00  0.00     0.004 A 
ATOM     14  C   UNL     1       5.131  -1.430 -14.107  1.00  0.00    -0.051 A 
ATOM     15  C   UNL     1       6.027  -2.429 -14.756  1.00  0.00     0.044 C 
ENDBRANCH   7   9
ENDBRANCH   1   7
BRANCH   4  16
ATOM     16  N   UNL     1       1.233   1.292  -7.555  1.00  0.00     0.066 N 
ATOM     17  O   UNL     1       0.952   2.028  -6.579  1.00  0.00    -0.258 OA
ATOM     18  O   UNL     1       0.776   0.131  -7.670  1.00  0.00    -0.258 OA
ENDBRANCH   4  16
BRANCH   5  19
ATOM     19  O   UNL     1       4.953   4.057  -8.966  1.00  0.00    -0.504 OA
ATOM     20  H   UNL     1       5.733   3.572  -8.650  1.00  0.00     0.293 HD
ENDBRANCH   5  19
BRANCH   6  21
ATOM     21  O   UNL     1       3.299   3.114  -6.967  1.00  0.00    -0.500 OA
ATOM     22  H   UNL     1       2.502   3.570  -6.655  1.00  0.00     0.294 HD
ENDBRANCH   6  21
TORSDOF 5
ENDMDL
MODEL 4
REMARK VINA RESULT:    -4.303      3.719      6.869
REMARK INTER + INTRA:          -6.077
REMARK INTER:                  -5.149
REMARK INTRA:                  -0.928
REMARK UNBOUND:                -0.768
REMARK SMILES Cc1ccc(C(=O)c2cc(O)c(O)c([N+](=O)[O-])c2)cc1
REMARK SMILES IDX 8 1 18 2 9 3 14 4 10 5 12 6 6 7 7 8 5 9 4 10 19 11 3 12
REMARK SMILES IDX 20 13 2 14 1 15 15 16 17 17 16 18 11 19 13 21
REMARK H PARENT 11 20 13 22
ROOT
ATOM      1  C   UNL     1       1.482   0.925 -11.419  1.00  0.00     0.033 A 
ATOM      2  C   UNL     1       0.929   1.841 -12.283  1.00  0.00     0.102 A 
ATOM      3  C   UNL     1       2.611   0.201 -11.721  1.00  0.00     0.063 A 
ATOM      4  C   UNL     1       1.542   2.046 -13.519  1.00  0.00     0.315 A 
ATOM      5  C   UNL     1       3.223   0.405 -12.958  1.00  0.00     0.165 A 
ATOM      6  C   UNL     1       2.688   1.328 -13.857  1.00  0.00     0.237 A 
ENDROOT
BRANCH   1   7
ATOM      7  C   UNL     1       0.827   0.705 -10.094  1.00  0.00     0.193 C 
ATOM      8  O   UNL     1      -0.372   0.387 -10.099  1.00  0.00    -0.289 OA
BRANCH   7   9
ATOM      9  C   UNL     1       1.542   0.852  -8.837  1.00  0.00     0.023 A 
ATOM     10  C   UNL     1       1.533  -0.186  -7.904  1.00  0.00     0.012 A 
ATOM     11  C   UNL     1       2.237   2.029  -8.562  1.00  0.00     0.012 A 
ATOM     12  C   UNL     1       2.219  -0.045  -6.698  1.00  0.00     0.004 A 
ATOM     13  C   UNL     1       2.924   2.170  -7.356  1.00  0.00     0.004 A 
ATOM     14  C   UNL     1       2.915   1.133  -6.424  1.00  0.00    -0.051 A 
ATOM     15  C   UNL     1       3.647   1.283  -5.134  1.00  0.00     0.044 C 
ENDBRANCH   7   9
ENDBRANCH   1   7
BRANCH   4  16
ATOM     16  N   UNL     1       0.982   2.990 -14.423  1.00  0.00     0.066 N 
ATOM     17  O   UNL     1       0.247   3.900 -13.970  1.00  0.00    -0.258 OA
ATOM     18  O   UNL     1       1.240   2.886 -15.645  1.00  0.00    -0.258 OA
ENDBRANCH   4  16
BRANCH   5  19
ATOM     19  O   UNL     1       4.343  -0.304 -13.274  1.00  0.00    -0.504 OA
ATOM     20  H   UNL     1       4.182  -0.825 -14.078  1.00  0.00     0.293 HD
ENDBRANCH   5  19
BRANCH   6  21
ATOM     21  O   UNL     1       3.296   1.519 -15.064  1.00  0.00    -0.500 OA
ATOM     22  H   UNL     1       2.629   1.523 -15.768  1.00  0.00     0.294 HD
ENDBRANCH   6  21
TORSDOF 5
ENDMDL
MODEL 5
REMARK VINA RESULT:    -4.300      1.270      2.693
REMARK INTER + INTRA:          -6.073
REMARK INTER:                  -5.383
REMARK INTRA:                  -0.690
REMARK UNBOUND:                -0.768
REMARK SMILES Cc1ccc(C(=O)c2cc(O)c(O)c([N+](=O)[O-])c2)cc1
REMARK SMILES IDX 8 1 18 2 9 3 14 4 10 5 12 6 6 7 7 8 5 9 4 10 19 11 3 12
REMARK SMILES IDX 20 13 2 14 1 15 15 16 17 17 16 18 11 19 13 21
REMARK H PARENT 11 20 13 22
ROOT
ATOM      1  C   UNL     1       1.659   0.609  -8.474  1.00  0.00     0.033 A 
ATOM      2  C   UNL     1       2.525   0.686  -7.408  1.00  0.00     0.102 A 
ATOM      3  C   UNL     1       0.292   0.646  -8.329  1.00  0.00     0.063 A 
ATOM      4  C   UNL     1       1.993   0.807  -6.124  1.00  0.00     0.315 A 
ATOM      5  C   UNL     1      -0.240   0.766  -7.045  1.00  0.00     0.165 A 
ATOM      6  C   UNL     1       0.611   0.847  -5.942  1.00  0.00     0.237 A 
ENDROOT
BRANCH   1   7
ATOM      7  C   UNL     1       2.228   0.480  -9.849  1.00  0.00     0.193 C 
ATOM      8  O   UNL     1       3.147  -0.338 -10.010  1.00  0.00    -0.289 OA
BRANCH   7   9
ATOM      9  C   UNL     1       1.744   1.268 -10.971  1.00  0.00     0.023 A 
ATOM     10  C   UNL     1       2.392   2.452 -11.324  1.00  0.00     0.012 A 
ATOM     11  C   UNL     1       0.631   0.840 -11.695  1.00  0.00     0.012 A 
ATOM     12  C   UNL     1       1.928   3.207 -12.400  1.00  0.00     0.004 A 
ATOM     13  C   UNL     1       0.166   1.596 -12.772  1.00  0.00     0.004 A 
ATOM     14  C   UNL     1       0.814   2.779 -13.125  1.00  0.00    -0.051 A 
ATOM     15  C   UNL     1       0.317   3.588 -14.274  1.00  0.00     0.044 C 
ENDBRANCH   7   9
ENDBRANCH   1   7
BRANCH   4  16
ATOM     16  N   UNL     1       2.875   0.887  -5.012  1.00  0.00     0.066 N 
ATOM     17  O   UNL     1       3.700   1.832  -4.960  1.00  0.00    -0.258 OA
ATOM     18  O   UNL     1       2.804   0.014  -4.117  1.00  0.00    -0.258 OA
ENDBRANCH   4  16
BRANCH   5  19
ATOM     19  O   UNL     1      -1.592   0.804  -6.883  1.00  0.00    -0.504 OA
ATOM     20  H   UNL     1      -1.814   1.383  -6.135  1.00  0.00     0.293 HD
ENDBRANCH   5  19
BRANCH   6  21
ATOM     21  O   UNL     1       0.078   0.965  -4.691  1.00  0.00    -0.500 OA
ATOM     22  H   UNL     1      -0.823   0.608  -4.686  1.00  0.00     0.294 HD
ENDBRANCH   6  21
TORSDOF 5
ENDMDL
MODEL 6
REMARK VINA RESULT:    -4.296      3.787      7.085
REMARK INTER + INTRA:          -6.068
REMARK INTER:                  -5.078
REMARK INTRA:                  -0.990
REMARK UNBOUND:                -0.768
REMARK SMILES Cc1ccc(C(=O)c2cc(O)c(O)c([N+](=O)[O-])c2)cc1
REMARK SMILES IDX 8 1 18 2 9 3 14 4 10 5 12 6 6 7 7 8 5 9 4 10 19 11 3 12
REMARK SMILES IDX 20 13 2 14 1 15 15 16 17 17 16 18 11 19 13 21
REMARK H PARENT 11 20 13 22
ROOT
ATOM      1  C   UNL     1       2.421   1.749 -11.177  1.00  0.00     0.033 A 
ATOM      2  C   UNL     1       3.319   0.903 -11.784  1.00  0.00     0.102 A 
ATOM      3  C   UNL     1       1.533   2.527 -11.882  1.00  0.00     0.063 A 
ATOM      4  C   UNL     1       3.328   0.828 -13.177  1.00  0.00     0.315 A 
ATOM      5  C   UNL     1       1.543   2.454 -13.275  1.00  0.00     0.165 A 
ATOM      6  C   UNL     1       2.440   1.603 -13.923  1.00  0.00     0.237 A 
ENDROOT
BRANCH   1   7
ATOM      7  C   UNL     1       2.411   1.829  -9.685  1.00  0.00     0.193 C 
ATOM      8  O   UNL     1       3.482   2.106  -9.123  1.00  0.00    -0.289 OA
BRANCH   7   9
ATOM      9  C   UNL     1       1.210   1.597  -8.899  1.00  0.00     0.023 A 
ATOM     10  C   UNL     1       0.486   0.416  -9.065  1.00  0.00     0.012 A 
ATOM     11  C   UNL     1       0.781   2.554  -7.980  1.00  0.00     0.012 A 
ATOM     12  C   UNL     1      -0.667   0.194  -8.311  1.00  0.00     0.004 A 
ATOM     13  C   UNL     1      -0.371   2.332  -7.226  1.00  0.00     0.004 A 
ATOM     14  C   UNL     1      -1.096   1.151  -7.391  1.00  0.00    -0.051 A 
ATOM     15  C   UNL     1      -2.328   0.914  -6.587  1.00  0.00     0.044 C 
ENDBRANCH   7   9
ENDBRANCH   1   7
BRANCH   4  16
ATOM     16  N   UNL     1       4.249  -0.043 -13.820  1.00  0.00     0.066 N 
ATOM     17  O   UNL     1       4.658   0.248 -14.970  1.00  0.00    -0.258 OA
ATOM     18  O   UNL     1       4.627  -1.076 -13.218  1.00  0.00    -0.258 OA
ENDBRANCH   4  16
BRANCH   5  19
ATOM     19  O   UNL     1       0.669   3.216 -13.990  1.00  0.00    -0.504 OA
ATOM     20  H   UNL     1       0.050   3.656 -13.385  1.00  0.00     0.293 HD
ENDBRANCH   5  19
BRANCH   6  21
ATOM     21  O   UNL     1       2.439   1.540 -15.286  1.00  0.00    -0.500 OA
ATOM     22  H   UNL     1       1.771   0.902 -15.582  1.00  0.00     0.294 HD
ENDBRANCH   6  21
TORSDOF 5
ENDMDL
MODEL 7
REMARK VINA RESULT:    -4.282      1.952      2.302
REMARK INTER + INTRA:          -6.051
REMARK INTER:                  -5.353
REMARK INTRA:                  -0.698
REMARK UNBOUND:                -0.768
REMARK SMILES Cc1ccc(C(=O)c2cc(O)c(O)c([N+](=O)[O-])c2)cc1
REMARK SMILES IDX 8 1 18 2 9 3 14 4 10 5 12 6 6 7 7 8 5 9 4 10 19 11 3 12
REMARK SMILES IDX 20 13 2 14 1 15 15 16 17 17 16 18 11 19 13 21
REMARK H PARENT 11 20 13 22
ROOT
ATOM      1  C   UNL     1       0.933   1.835  -8.562  1.00  0.00     0.033 A 
ATOM      2  C   UNL     1      -0.325   1.687  -8.024  1.00  0.00     0.102 A 
ATOM      3  C   UNL     1       2.080   1.755  -7.809  1.00  0.00     0.063 A 
ATOM      4  C   UNL     1      -0.441   1.444  -6.655  1.00  0.00     0.315 A 
ATOM      5  C   UNL     1       1.965   1.512  -6.440  1.00  0.00     0.165 A 
ATOM      6  C   UNL     1       0.704   1.356  -5.863  1.00  0.00     0.237 A 
ENDROOT
BRANCH   1   7
ATOM      7  C   UNL     1       1.057   2.096 -10.027  1.00  0.00     0.193 C 
ATOM      8  O   UNL     1       0.304   2.951 -10.519  1.00  0.00    -0.289 OA
BRANCH   7   9
ATOM      9  C   UNL     1       2.013   1.392 -10.867  1.00  0.00     0.023 A 
ATOM     10  C   UNL     1       3.323   1.860 -10.975  1.00  0.00     0.012 A 
ATOM     11  C   UNL     1       1.621   0.249 -11.563  1.00  0.00     0.012 A 
ATOM     12  C   UNL     1       4.240   1.184 -11.779  1.00  0.00     0.004 A 
ATOM     13  C   UNL     1       2.538  -0.427 -12.368  1.00  0.00     0.004 A 
ATOM     14  C   UNL     1       3.848   0.040 -12.476  1.00  0.00    -0.051 A 
ATOM     15  C   UNL     1       4.828  -0.681 -13.338  1.00  0.00     0.044 C 
ENDBRANCH   7   9
ENDBRANCH   1   7
BRANCH   4  16
ATOM     16  N   UNL     1      -1.734   1.288  -6.085  1.00  0.00     0.066 N 
ATOM     17  O   UNL     1      -2.104   2.089  -5.193  1.00  0.00    -0.258 OA
ATOM     18  O   UNL     1      -2.466   0.356  -6.491  1.00  0.00    -0.258 OA
ENDBRANCH   4  16
BRANCH   5  19
ATOM     19  O   UNL     1       3.092   1.429  -5.679  1.00  0.00    -0.504 OA
ATOM     20  H   UNL     1       3.753   0.882  -6.135  1.00  0.00     0.293 HD
ENDBRANCH   5  19
BRANCH   6  21
ATOM     21  O   UNL     1       0.604   1.118  -4.523  1.00  0.00    -0.500 OA
ATOM     22  H   UNL     1       1.312   0.516  -4.245  1.00  0.00     0.294 HD
ENDBRANCH   6  21
TORSDOF 5
ENDMDL
MODEL 8
REMARK VINA RESULT:    -4.270      3.497      7.100
REMARK INTER + INTRA:          -6.036
REMARK INTER:                  -5.118
REMARK INTRA:                  -0.918
REMARK UNBOUND:                -0.768
REMARK SMILES Cc1ccc(C(=O)c2cc(O)c(O)c([N+](=O)[O-])c2)cc1
REMARK SMILES IDX 8 1 18 2 9 3 14 4 10 5 12 6 6 7 7 8 5 9 4 10 19 11 3 12
REMARK SMILES IDX 20 13 2 14 1 15 15 16 17 17 16 18 11 19 13 21
REMARK H PARENT 11 20 13 22
ROOT
ATOM      1  C   UNL     1       1.181   0.935 -11.283  1.00  0.00     0.033 A 
ATOM      2  C   UNL     1       2.386   0.416 -11.697  1.00  0.00     0.102 A 
ATOM      3  C   UNL     1       0.435   1.795 -12.054  1.00  0.00     0.063 A 
ATOM      4  C   UNL     1       2.872   0.776 -12.954  1.00  0.00     0.315 A 
ATOM      5  C   UNL     1       0.921   2.156 -13.311  1.00  0.00     0.165 A 
ATOM      6  C   UNL     1       2.139   1.646 -13.761  1.00  0.00     0.237 A 
ENDROOT
BRANCH   1   7
ATOM      7  C   UNL     1       0.661   0.550  -9.937  1.00  0.00     0.193 C 
ATOM      8  O   UNL     1      -0.472   0.048  -9.887  1.00  0.00    -0.289 OA
BRANCH   7   9
ATOM      9  C   UNL     1       1.432   0.743  -8.719  1.00  0.00     0.023 A 
ATOM     10  C   UNL     1       2.122   1.937  -8.512  1.00  0.00     0.012 A 
ATOM     11  C   UNL     1       1.481  -0.267  -7.757  1.00  0.00     0.012 A 
ATOM     12  C   UNL     1       2.860   2.122  -7.343  1.00  0.00     0.004 A 
ATOM     13  C   UNL     1       2.220  -0.082  -6.588  1.00  0.00     0.004 A 
ATOM     14  C   UNL     1       2.910   1.113  -6.381  1.00  0.00    -0.051 A 
ATOM     15  C   UNL     1       3.701   1.310  -5.133  1.00  0.00     0.044 C 
ENDBRANCH   7   9
ENDBRANCH   1   7
BRANCH   4  16
ATOM     16  N   UNL     1       4.115   0.247 -13.395  1.00  0.00     0.066 N 
ATOM     17  O   UNL     1       4.293   0.060 -14.623  1.00  0.00    -0.258 OA
ATOM     18  O   UNL     1       4.998  -0.015 -12.545  1.00  0.00    -0.258 OA
ENDBRANCH   4  16
BRANCH   5  19
ATOM     19  O   UNL     1       0.194   3.006 -14.090  1.00  0.00    -0.504 OA
ATOM     20  H   UNL     1      -0.148   2.527 -14.863  1.00  0.00     0.293 HD
ENDBRANCH   5  19
BRANCH   6  21
ATOM     21  O   UNL     1       2.603   2.006 -14.993  1.00  0.00    -0.500 OA
ATOM     22  H   UNL     1       2.281   1.379 -15.659  1.00  0.00     0.294 HD
ENDBRANCH   6  21
TORSDOF 5
ENDMDL
MODEL 9
REMARK VINA RESULT:    -4.256      3.613      6.480
REMARK INTER + INTRA:          -6.018
REMARK INTER:                  -5.092
REMARK INTRA:                  -0.926
REMARK UNBOUND:                -0.768
REMARK SMILES Cc1ccc(C(=O)c2cc(O)c(O)c([N+](=O)[O-])c2)cc1
REMARK SMILES IDX 8 1 18 2 9 3 14 4 10 5 12 6 6 7 7 8 5 9 4 10 19 11 3 12
REMARK SMILES IDX 20 13 2 14 1 15 15 16 17 17 16 18 11 19 13 21
REMARK H PARENT 11 20 13 22
ROOT
ATOM      1  C   UNL     1       2.643   1.720 -10.930  1.00  0.00     0.033 A 
ATOM      2  C   UNL     1       1.741   2.318 -11.780  1.00  0.00     0.102 A 
ATOM      3  C   UNL     1       3.666   0.916 -11.373  1.00  0.00     0.063 A 
ATOM      4  C   UNL     1       1.871   2.098 -13.151  1.00  0.00     0.315 A 
ATOM      5  C   UNL     1       3.795   0.695 -12.744  1.00  0.00     0.165 A 
ATOM      6  C   UNL     1       2.898   1.287 -13.634  1.00  0.00     0.237 A 
ENDROOT
BRANCH   1   7
ATOM      7  C   UNL     1       2.504   1.955  -9.461  1.00  0.00     0.193 C 
ATOM      8  O   UNL     1       3.495   2.396  -8.859  1.00  0.00    -0.289 OA
BRANCH   7   9
ATOM      9  C   UNL     1       1.269   1.686  -8.742  1.00  0.00     0.023 A 
ATOM     10  C   UNL     1       0.780   2.616  -7.824  1.00  0.00     0.012 A 
ATOM     11  C   UNL     1       0.574   0.499  -8.970  1.00  0.00     0.012 A 
ATOM     12  C   UNL     1      -0.405   2.358  -7.134  1.00  0.00     0.004 A 
ATOM     13  C   UNL     1      -0.612   0.240  -8.280  1.00  0.00     0.004 A 
ATOM     14  C   UNL     1      -1.101   1.170  -7.362  1.00  0.00    -0.051 A 
ATOM     15  C   UNL     1      -2.366   0.894  -6.624  1.00  0.00     0.044 C 
ENDBRANCH   7   9
ENDBRANCH   1   7
BRANCH   4  16
ATOM     16  N   UNL     1       0.947   2.710 -14.042  1.00  0.00     0.066 N 
ATOM     17  O   UNL     1       1.333   3.024 -15.194  1.00  0.00    -0.258 OA
ATOM     18  O   UNL     1      -0.226   2.916 -13.651  1.00  0.00    -0.258 OA
ENDBRANCH   4  16
BRANCH   5  19
ATOM     19  O   UNL     1       4.804  -0.099 -13.202  1.00  0.00    -0.504 OA
ATOM     20  H   UNL     1       5.527  -0.111 -12.554  1.00  0.00     0.293 HD
ENDBRANCH   5  19
BRANCH   6  21
ATOM     21  O   UNL     1       3.035   1.065 -14.973  1.00  0.00    -0.500 OA
ATOM     22  H   UNL     1       2.177   0.819 -15.353  1.00  0.00     0.294 HD
ENDBRANCH   6  21
TORSDOF 5
ENDMDL
