MODEL 1
REMARK VINA RESULT:    -5.321      0.000      0.000
REMARK INTER + INTRA:          -7.293
REMARK INTER:                  -6.566
REMARK INTRA:                  -0.727
REMARK UNBOUND:                -0.727
REMARK SMILES Cc1ccc(C(=O)c2cc(O)c(O)c([N+](=O)[O-])c2)cc1
REMARK SMILES IDX 8 1 18 2 9 3 14 4 10 5 12 6 6 7 7 8 5 9 4 10 19 11 3 12
REMARK SMILES IDX 20 13 2 14 1 15 15 16 17 17 16 18 11 19 13 21
REMARK H PARENT 11 20 13 22
ROOT
ATOM      1  C   UNL     1       5.513   4.300   3.691  1.00  0.00     0.033 A 
ATOM      2  C   UNL     1       5.289   3.047   4.211  1.00  0.00     0.102 A 
ATOM      3  C   UNL     1       5.123   4.663   2.424  1.00  0.00     0.063 A 
ATOM      4  C   UNL     1       4.636   2.103   3.418  1.00  0.00     0.315 A 
ATOM      5  C   UNL     1       4.471   3.719   1.630  1.00  0.00     0.165 A 
ATOM      6  C   UNL     1       4.227   2.438   2.128  1.00  0.00     0.237 A 
ENDROOT
BRANCH   1   7
ATOM      7  C   UNL     1       6.212   5.312   4.540  1.00  0.00     0.193 C 
ATOM      8  O   UNL     1       5.895   6.501   4.385  1.00  0.00    -0.289 OA
BRANCH   7   9
ATOM      9  C   UNL     1       7.226   4.944   5.515  1.00  0.00     0.023 A 
ATOM     10  C   UNL     1       8.578   5.052   5.191  1.00  0.00     0.012 A 
ATOM     11  C   UNL     1       6.846   4.483   6.776  1.00  0.00     0.012 A 
ATOM     12  C   UNL     1       9.550   4.699   6.126  1.00  0.00     0.004 A 
ATOM     13  C   UNL     1       7.818   4.131   7.713  1.00  0.00     0.004 A 
ATOM     14  C   UNL     1       9.171   4.239   7.388  1.00  0.00    -0.051 A 
ATOM     15  C   UNL     1      10.210   3.861   8.387  1.00  0.00     0.044 C 
ENDBRANCH   7   9
ENDBRANCH   1   7
BRANCH   4  16
ATOM     16  N   UNL     1       4.397   0.803   3.942  1.00  0.00     0.066 N 
ATOM     17  O   UNL     1       4.224   0.670   5.177  1.00  0.00    -0.258 OA
ATOM     18  O   UNL     1       4.366  -0.172   3.155  1.00  0.00    -0.258 OA
ENDBRANCH   4  16
BRANCH   5  19
ATOM     19  O   UNL     1       4.076   4.061   0.372  1.00  0.00    -0.504 OA
ATOM     20  H   UNL     1       3.122   4.242   0.368  1.00  0.00     0.293 HD
ENDBRANCH   5  19
BRANCH   6  21
ATOM     21  O   UNL     1       3.588   1.523   1.342  1.00  0.00    -0.500 OA
ATOM     22  H   UNL     1       4.199   0.806   1.113  1.00  0.00     0.294 HD
ENDBRANCH   6  21
TORSDOF 5
ENDMDL
MODEL 2
REMARK VINA RESULT:    -5.318      1.996      3.551
REMARK INTER + INTRA:          -7.289
REMARK INTER:                  -6.562
REMARK INTRA:                  -0.727
REMARK UNBOUND:                -0.727
REMARK SMILES Cc1ccc(C(=O)c2cc(O)c(O)c([N+](=O)[O-])c2)cc1
REMARK SMILES IDX 8 1 18 2 9 3 14 4 10 5 12 6 6 7 7 8 5 9 4 10 19 11 3 12
REMARK SMILES IDX 20 13 2 14 1 15 15 16 17 17 16 18 11 19 13 21
REMARK H PARENT 11 20 13 22
ROOT
ATOM      1  C   UNL     1       6.374   2.783   4.027  1.00  0.00     0.033 A 
ATOM      2  C   UNL     1       6.128   3.662   2.997  1.00  0.00     0.102 A 
ATOM      3  C   UNL     1       5.711   1.587   4.160  1.00  0.00     0.063 A 
ATOM      4  C   UNL     1       5.165   3.324   2.047  1.00  0.00     0.315 A 
ATOM      5  C   UNL     1       4.747   1.248   3.210  1.00  0.00     0.165 A 
ATOM      6  C   UNL     1       4.474   2.117   2.153  1.00  0.00     0.237 A 
ENDROOT
BRANCH   1   7
ATOM      7  C   UNL     1       7.405   3.146   5.045  1.00  0.00     0.193 C 
ATOM      8  O   UNL     1       8.058   2.219   5.548  1.00  0.00    -0.289 OA
BRANCH   7   9
ATOM      9  C   UNL     1       7.654   4.521   5.448  1.00  0.00     0.023 A 
ATOM     10  C   UNL     1       7.078   5.021   6.615  1.00  0.00     0.012 A 
ATOM     11  C   UNL     1       8.470   5.339   4.667  1.00  0.00     0.012 A 
ATOM     12  C   UNL     1       7.317   6.340   7.001  1.00  0.00     0.004 A 
ATOM     13  C   UNL     1       8.710   6.659   5.053  1.00  0.00     0.004 A 
ATOM     14  C   UNL     1       8.133   7.159   6.220  1.00  0.00    -0.051 A 
ATOM     15  C   UNL     1       8.387   8.569   6.633  1.00  0.00     0.044 C 
ENDBRANCH   7   9
ENDBRANCH   1   7
BRANCH   4  16
ATOM     16  N   UNL     1       4.901   4.222   0.977  1.00  0.00     0.066 N 
ATOM     17  O   UNL     1       3.746   4.258   0.487  1.00  0.00    -0.258 OA
ATOM     18  O   UNL     1       5.829   4.951   0.554  1.00  0.00    -0.258 OA
ENDBRANCH   4  16
BRANCH   5  19
ATOM     19  O   UNL     1       4.080   0.066   3.326  1.00  0.00    -0.504 OA
ATOM     20  H   UNL     1       4.031  -0.367   2.458  1.00  0.00     0.293 HD
ENDBRANCH   5  19
BRANCH   6  21
ATOM     21  O   UNL     1       3.530   1.775   1.229  1.00  0.00    -0.500 OA
ATOM     22  H   UNL     1       3.090   0.954   1.501  1.00  0.00     0.294 HD
ENDBRANCH   6  21
TORSDOF 5
ENDMDL
MODEL 3
REMARK VINA RESULT:    -5.031      9.093     11.892
REMARK INTER + INTRA:          -6.934
REMARK INTER:                  -6.063
REMARK INTRA:                  -0.871
REMARK UNBOUND:                -0.727
REMARK SMILES Cc1ccc(C(=O)c2cc(O)c(O)c([N+](=O)[O-])c2)cc1
REMARK SMILES IDX 8 1 18 2 9 3 14 4 10 5 12 6 6 7 7 8 5 9 4 10 19 11 3 12
REMARK SMILES IDX 20 13 2 14 1 15 15 16 17 17 16 18 11 19 13 21
REMARK H PARENT 11 20 13 22
ROOT
ATOM      1  C   UNL     1       8.988  12.442  10.420  1.00  0.00     0.033 A 
ATOM      2  C   UNL     1      10.072  11.847  11.023  1.00  0.00     0.102 A 
ATOM      3  C   UNL     1       8.021  13.120  11.123  1.00  0.00     0.063 A 
ATOM      4  C   UNL     1      10.197  11.938  12.409  1.00  0.00     0.315 A 
ATOM      5  C   UNL     1       8.146  13.211  12.510  1.00  0.00     0.165 A 
ATOM      6  C   UNL     1       9.234  12.620  13.153  1.00  0.00     0.237 A 
ENDROOT
BRANCH   1   7
ATOM      7  C   UNL     1       8.854  12.344   8.935  1.00  0.00     0.193 C 
ATOM      8  O   UNL     1       8.943  13.397   8.285  1.00  0.00    -0.289 OA
BRANCH   7   9
ATOM      9  C   UNL     1       8.628  11.079   8.254  1.00  0.00     0.023 A 
ATOM     10  C   UNL     1       9.709  10.263   7.921  1.00  0.00     0.012 A 
ATOM     11  C   UNL     1       7.330  10.681   7.933  1.00  0.00     0.012 A 
ATOM     12  C   UNL     1       9.492   9.050   7.268  1.00  0.00     0.004 A 
ATOM     13  C   UNL     1       7.112   9.468   7.280  1.00  0.00     0.004 A 
ATOM     14  C   UNL     1       8.194   8.652   6.947  1.00  0.00    -0.051 A 
ATOM     15  C   UNL     1       7.963   7.356   6.248  1.00  0.00     0.044 C 
ENDBRANCH   7   9
ENDBRANCH   1   7
BRANCH   4  16
ATOM     16  N   UNL     1      11.312  11.329  13.046  1.00  0.00     0.066 N 
ATOM     17  O   UNL     1      11.805  11.879  14.061  1.00  0.00    -0.258 OA
ATOM     18  O   UNL     1      11.770  10.262  12.577  1.00  0.00    -0.258 OA
ENDBRANCH   4  16
BRANCH   5  19
ATOM     19  O   UNL     1       7.198  13.880  13.224  1.00  0.00    -0.504 OA
ATOM     20  H   UNL     1       6.856  14.621  12.696  1.00  0.00     0.293 HD
ENDBRANCH   5  19
BRANCH   6  21
ATOM     21  O   UNL     1       9.345  12.716  14.510  1.00  0.00    -0.500 OA
ATOM     22  H   UNL     1      10.166  13.180  14.738  1.00  0.00     0.294 HD
ENDBRANCH   6  21
TORSDOF 5
ENDMDL
MODEL 4
REMARK VINA RESULT:    -4.828      2.344      4.054
REMARK INTER + INTRA:          -6.684
REMARK INTER:                  -5.663
REMARK INTRA:                  -1.021
REMARK UNBOUND:                -0.727
REMARK SMILES Cc1ccc(C(=O)c2cc(O)c(O)c([N+](=O)[O-])c2)cc1
REMARK SMILES IDX 8 1 18 2 9 3 14 4 10 5 12 6 6 7 7 8 5 9 4 10 19 11 3 12
REMARK SMILES IDX 20 13 2 14 1 15 15 16 17 17 16 18 11 19 13 21
REMARK H PARENT 11 20 13 22
ROOT
ATOM      1  C   UNL     1       7.268   4.691   6.606  1.00  0.00     0.033 A 
ATOM      2  C   UNL     1       7.004   4.315   5.310  1.00  0.00     0.102 A 
ATOM      3  C   UNL     1       6.411   4.430   7.648  1.00  0.00     0.063 A 
ATOM      4  C   UNL     1       5.814   3.638   5.041  1.00  0.00     0.315 A 
ATOM      5  C   UNL     1       5.220   3.754   7.380  1.00  0.00     0.165 A 
ATOM      6  C   UNL     1       4.922   3.357   6.075  1.00  0.00     0.237 A 
ENDROOT
BRANCH   1   7
ATOM      7  C   UNL     1       8.543   5.416   6.894  1.00  0.00     0.193 C 
ATOM      8  O   UNL     1       8.627   6.592   6.510  1.00  0.00    -0.289 OA
BRANCH   7   9
ATOM      9  C   UNL     1       9.653   4.791   7.595  1.00  0.00     0.023 A 
ATOM     10  C   UNL     1      10.130   5.347   8.783  1.00  0.00     0.012 A 
ATOM     11  C   UNL     1      10.243   3.637   7.080  1.00  0.00     0.012 A 
ATOM     12  C   UNL     1      11.195   4.748   9.454  1.00  0.00     0.004 A 
ATOM     13  C   UNL     1      11.308   3.037   7.752  1.00  0.00     0.004 A 
ATOM     14  C   UNL     1      11.785   3.593   8.940  1.00  0.00    -0.051 A 
ATOM     15  C   UNL     1      12.924   2.954   9.658  1.00  0.00     0.044 C 
ENDBRANCH   7   9
ENDBRANCH   1   7
BRANCH   4  16
ATOM     16  N   UNL     1       5.527   3.242   3.706  1.00  0.00     0.066 N 
ATOM     17  O   UNL     1       4.356   3.371   3.274  1.00  0.00    -0.258 OA
ATOM     18  O   UNL     1       6.453   2.779   2.999  1.00  0.00    -0.258 OA
ENDBRANCH   4  16
BRANCH   5  19
ATOM     19  O   UNL     1       4.359   3.486   8.401  1.00  0.00    -0.504 OA
ATOM     20  H   UNL     1       3.703   4.200   8.469  1.00  0.00     0.293 HD
ENDBRANCH   5  19
BRANCH   6  21
ATOM     21  O   UNL     1       3.755   2.696   5.825  1.00  0.00    -0.500 OA
ATOM     22  H   UNL     1       3.213   2.677   6.629  1.00  0.00     0.294 HD
ENDBRANCH   6  21
TORSDOF 5
ENDMDL
MODEL 5
REMARK VINA RESULT:    -4.822      3.508      7.073
REMARK INTER + INTRA:          -6.676
REMARK INTER:                  -5.762
REMARK INTRA:                  -0.914
REMARK UNBOUND:                -0.727
REMARK SMILES Cc1ccc(C(=O)c2cc(O)c(O)c([N+](=O)[O-])c2)cc1
REMARK SMILES IDX 8 1 18 2 9 3 14 4 10 5 12 6 6 7 7 8 5 9 4 10 19 11 3 12
REMARK SMILES IDX 20 13 2 14 1 15 15 16 17 17 16 18 11 19 13 21
REMARK H PARENT 11 20 13 22
ROOT
ATOM      1  C   UNL     1       7.409   4.671   6.593  1.00  0.00     0.033 A 
ATOM      2  C   UNL     1       7.594   6.030   6.490  1.00  0.00     0.102 A 
ATOM      3  C   UNL     1       8.257   3.854   7.303  1.00  0.00     0.063 A 
ATOM      4  C   UNL     1       8.689   6.605   7.134  1.00  0.00     0.315 A 
ATOM      5  C   UNL     1       9.353   4.429   7.947  1.00  0.00     0.165 A 
ATOM      6  C   UNL     1       9.569   5.806   7.863  1.00  0.00     0.237 A 
ENDROOT
BRANCH   1   7
ATOM      7  C   UNL     1       6.236   4.055   5.903  1.00  0.00     0.193 C 
ATOM      8  O   UNL     1       5.441   3.408   6.601  1.00  0.00    -0.289 OA
BRANCH   7   9
ATOM      9  C   UNL     1       6.012   4.192   4.473  1.00  0.00     0.023 A 
ATOM     10  C   UNL     1       7.082   4.074   3.585  1.00  0.00     0.012 A 
ATOM     11  C   UNL     1       4.728   4.442   3.989  1.00  0.00     0.012 A 
ATOM     12  C   UNL     1       6.866   4.206   2.213  1.00  0.00     0.004 A 
ATOM     13  C   UNL     1       4.512   4.574   2.616  1.00  0.00     0.004 A 
ATOM     14  C   UNL     1       5.582   4.456   1.728  1.00  0.00    -0.051 A 
ATOM     15  C   UNL     1       5.353   4.598   0.262  1.00  0.00     0.044 C 
ENDBRANCH   7   9
ENDBRANCH   1   7
BRANCH   4  16
ATOM     16  N   UNL     1       8.893   8.009   7.036  1.00  0.00     0.066 N 
ATOM     17  O   UNL     1       9.442   8.610   7.992  1.00  0.00    -0.258 OA
ATOM     18  O   UNL     1       8.519   8.605   5.999  1.00  0.00    -0.258 OA
ENDBRANCH   4  16
BRANCH   5  19
ATOM     19  O   UNL     1      10.204   3.636   8.655  1.00  0.00    -0.504 OA
ATOM     20  H   UNL     1      10.258   3.953   9.572  1.00  0.00     0.293 HD
ENDBRANCH   5  19
BRANCH   6  21
ATOM     21  O   UNL     1      10.644   6.356   8.497  1.00  0.00    -0.500 OA
ATOM     22  H   UNL     1      10.466   6.415   9.449  1.00  0.00     0.294 HD
ENDBRANCH   6  21
TORSDOF 5
ENDMDL
MODEL 6
REMARK VINA RESULT:    -4.766      3.782      7.016
REMARK INTER + INTRA:          -6.608
REMARK INTER:                  -5.621
REMARK INTRA:                  -0.987
REMARK UNBOUND:                -0.727
REMARK SMILES Cc1ccc(C(=O)c2cc(O)c(O)c([N+](=O)[O-])c2)cc1
REMARK SMILES IDX 8 1 18 2 9 3 14 4 10 5 12 6 6 7 7 8 5 9 4 10 19 11 3 12
REMARK SMILES IDX 20 13 2 14 1 15 15 16 17 17 16 18 11 19 13 21
REMARK H PARENT 11 20 13 22
ROOT
ATOM      1  C   UNL     1       8.361   5.280   5.603  1.00  0.00     0.033 A 
ATOM      2  C   UNL     1       8.246   6.616   5.910  1.00  0.00     0.102 A 
ATOM      3  C   UNL     1       9.092   4.399   6.363  1.00  0.00     0.063 A 
ATOM      4  C   UNL     1       8.901   7.097   7.044  1.00  0.00     0.315 A 
ATOM      5  C   UNL     1       9.747   4.881   7.497  1.00  0.00     0.165 A 
ATOM      6  C   UNL     1       9.651   6.230   7.838  1.00  0.00     0.237 A 
ENDROOT
BRANCH   1   7
ATOM      7  C   UNL     1       7.660   4.764   4.388  1.00  0.00     0.193 C 
ATOM      8  O   UNL     1       7.911   5.319   3.308  1.00  0.00    -0.289 OA
BRANCH   7   9
ATOM      9  C   UNL     1       6.718   3.657   4.442  1.00  0.00     0.023 A 
ATOM     10  C   UNL     1       6.902   2.544   3.622  1.00  0.00     0.012 A 
ATOM     11  C   UNL     1       5.631   3.709   5.315  1.00  0.00     0.012 A 
ATOM     12  C   UNL     1       5.998   1.483   3.675  1.00  0.00     0.004 A 
ATOM     13  C   UNL     1       4.727   2.647   5.368  1.00  0.00     0.004 A 
ATOM     14  C   UNL     1       4.911   1.534   4.548  1.00  0.00    -0.051 A 
ATOM     15  C   UNL     1       3.945   0.400   4.602  1.00  0.00     0.044 C 
ENDBRANCH   7   9
ENDBRANCH   1   7
BRANCH   4  16
ATOM     16  N   UNL     1       8.791   8.476   7.375  1.00  0.00     0.066 N 
ATOM     17  O   UNL     1       7.757   9.100   7.036  1.00  0.00    -0.258 OA
ATOM     18  O   UNL     1       9.730   9.026   7.997  1.00  0.00    -0.258 OA
ENDBRANCH   4  16
BRANCH   5  19
ATOM     19  O   UNL     1      10.477   4.022   8.263  1.00  0.00    -0.504 OA
ATOM     20  H   UNL     1      10.020   3.871   9.107  1.00  0.00     0.293 HD
ENDBRANCH   5  19
BRANCH   6  21
ATOM     21  O   UNL     1      10.296   6.689   8.950  1.00  0.00    -0.500 OA
ATOM     22  H   UNL     1      10.654   7.574   8.777  1.00  0.00     0.294 HD
ENDBRANCH   6  21
TORSDOF 5
ENDMDL
MODEL 7
REMARK VINA RESULT:    -4.752      3.628      6.503
REMARK INTER + INTRA:          -6.590
REMARK INTER:                  -5.654
REMARK INTRA:                  -0.936
REMARK UNBOUND:                -0.727
REMARK SMILES Cc1ccc(C(=O)c2cc(O)c(O)c([N+](=O)[O-])c2)cc1
REMARK SMILES IDX 8 1 18 2 9 3 14 4 10 5 12 6 6 7 7 8 5 9 4 10 19 11 3 12
REMARK SMILES IDX 20 13 2 14 1 15 15 16 17 17 16 18 11 19 13 21
REMARK H PARENT 11 20 13 22
ROOT
ATOM      1  C   UNL     1       8.315   5.392   5.365  1.00  0.00     0.033 A 
ATOM      2  C   UNL     1       8.974   4.619   6.293  1.00  0.00     0.102 A 
ATOM      3  C   UNL     1       8.187   6.755   5.486  1.00  0.00     0.063 A 
ATOM      4  C   UNL     1       9.537   5.246   7.404  1.00  0.00     0.315 A 
ATOM      5  C   UNL     1       8.749   7.382   6.598  1.00  0.00     0.165 A 
ATOM      6  C   UNL     1       9.425   6.627   7.557  1.00  0.00     0.237 A 
ENDROOT
BRANCH   1   7
ATOM      7  C   UNL     1       7.712   4.720   4.175  1.00  0.00     0.193 C 
ATOM      8  O   UNL     1       8.059   5.127   3.055  1.00  0.00    -0.289 OA
BRANCH   7   9
ATOM      9  C   UNL     1       6.755   3.632   4.295  1.00  0.00     0.023 A 
ATOM     10  C   UNL     1       6.893   2.492   3.503  1.00  0.00     0.012 A 
ATOM     11  C   UNL     1       5.700   3.728   5.202  1.00  0.00     0.012 A 
ATOM     12  C   UNL     1       5.975   1.448   3.619  1.00  0.00     0.004 A 
ATOM     13  C   UNL     1       4.782   2.684   5.318  1.00  0.00     0.004 A 
ATOM     14  C   UNL     1       4.919   1.543   4.526  1.00  0.00    -0.051 A 
ATOM     15  C   UNL     1       3.938   0.428   4.649  1.00  0.00     0.044 C 
ENDBRANCH   7   9
ENDBRANCH   1   7
BRANCH   4  16
ATOM     16  N   UNL     1      10.222   4.460   8.372  1.00  0.00     0.066 N 
ATOM     17  O   UNL     1       9.835   3.285   8.582  1.00  0.00    -0.258 OA
ATOM     18  O   UNL     1      11.191   4.964   8.985  1.00  0.00    -0.258 OA
ENDBRANCH   4  16
BRANCH   5  19
ATOM     19  O   UNL     1       8.632   8.733   6.734  1.00  0.00    -0.504 OA
ATOM     20  H   UNL     1       7.760   8.949   7.104  1.00  0.00     0.293 HD
ENDBRANCH   5  19
BRANCH   6  21
ATOM     21  O   UNL     1       9.971   7.253   8.640  1.00  0.00    -0.500 OA
ATOM     22  H   UNL     1       9.601   8.145   8.723  1.00  0.00     0.294 HD
ENDBRANCH   6  21
TORSDOF 5
ENDMDL
MODEL 8
REMARK VINA RESULT:    -4.686      3.615      4.456
REMARK INTER + INTRA:          -6.508
REMARK INTER:                  -5.552
REMARK INTRA:                  -0.957
REMARK UNBOUND:                -0.727
REMARK SMILES Cc1ccc(C(=O)c2cc(O)c(O)c([N+](=O)[O-])c2)cc1
REMARK SMILES IDX 8 1 18 2 9 3 14 4 10 5 12 6 6 7 7 8 5 9 4 10 19 11 3 12
REMARK SMILES IDX 20 13 2 14 1 15 15 16 17 17 16 18 11 19 13 21
REMARK H PARENT 11 20 13 22
ROOT
ATOM      1  C   UNL     1       8.442   5.443   5.253  1.00  0.00     0.033 A 
ATOM      2  C   UNL     1       7.286   4.700   5.178  1.00  0.00     0.102 A 
ATOM      3  C   UNL     1       9.246   5.683   4.164  1.00  0.00     0.063 A 
ATOM      4  C   UNL     1       6.913   4.169   3.943  1.00  0.00     0.315 A 
ATOM      5  C   UNL     1       8.874   5.151   2.929  1.00  0.00     0.165 A 
ATOM      6  C   UNL     1       7.707   4.394   2.819  1.00  0.00     0.237 A 
ENDROOT
BRANCH   1   7
ATOM      7  C   UNL     1       8.841   6.012   6.575  1.00  0.00     0.193 C 
ATOM      8  O   UNL     1       9.394   5.247   7.380  1.00  0.00    -0.289 OA
BRANCH   7   9
ATOM      9  C   UNL     1       8.604   7.402   6.930  1.00  0.00     0.023 A 
ATOM     10  C   UNL     1       9.645   8.180   7.436  1.00  0.00     0.012 A 
ATOM     11  C   UNL     1       7.336   7.958   6.763  1.00  0.00     0.012 A 
ATOM     12  C   UNL     1       9.418   9.513   7.776  1.00  0.00     0.004 A 
ATOM     13  C   UNL     1       7.108   9.292   7.102  1.00  0.00     0.004 A 
ATOM     14  C   UNL     1       8.149  10.070   7.609  1.00  0.00    -0.051 A 
ATOM     15  C   UNL     1       7.906  11.495   7.973  1.00  0.00     0.044 C 
ENDBRANCH   7   9
ENDBRANCH   1   7
BRANCH   4  16
ATOM     16  N   UNL     1       5.721   3.400   3.850  1.00  0.00     0.066 N 
ATOM     17  O   UNL     1       4.716   3.759   4.510  1.00  0.00    -0.258 OA
ATOM     18  O   UNL     1       5.709   2.388   3.112  1.00  0.00    -0.258 OA
ENDBRANCH   4  16
BRANCH   5  19
ATOM     19  O   UNL     1       9.659   5.379   1.839  1.00  0.00    -0.504 OA
ATOM     20  H   UNL     1      10.591   5.240   2.074  1.00  0.00     0.293 HD
ENDBRANCH   5  19
BRANCH   6  21
ATOM     21  O   UNL     1       7.353   3.880   1.605  1.00  0.00    -0.500 OA
ATOM     22  H   UNL     1       8.095   3.377   1.235  1.00  0.00     0.294 HD
ENDBRANCH   6  21
TORSDOF 5
ENDMDL
MODEL 9
REMARK VINA RESULT:    -4.677      3.685      6.753
REMARK INTER + INTRA:          -6.498
REMARK INTER:                  -5.527
REMARK INTRA:                  -0.971
REMARK UNBOUND:                -0.727
REMARK SMILES Cc1ccc(C(=O)c2cc(O)c(O)c([N+](=O)[O-])c2)cc1
REMARK SMILES IDX 8 1 18 2 9 3 14 4 10 5 12 6 6 7 7 8 5 9 4 10 19 11 3 12
REMARK SMILES IDX 20 13 2 14 1 15 15 16 17 17 16 18 11 19 13 21
REMARK H PARENT 11 20 13 22
ROOT
ATOM      1  C   UNL     1       7.492   4.809   6.554  1.00  0.00     0.033 A 
ATOM      2  C   UNL     1       8.439   4.066   7.220  1.00  0.00     0.102 A 
ATOM      3  C   UNL     1       7.535   6.181   6.481  1.00  0.00     0.063 A 
ATOM      4  C   UNL     1       9.490   4.733   7.848  1.00  0.00     0.315 A 
ATOM      5  C   UNL     1       8.586   6.849   7.111  1.00  0.00     0.165 A 
ATOM      6  C   UNL     1       9.564   6.125   7.794  1.00  0.00     0.237 A 
ENDROOT
BRANCH   1   7
ATOM      7  C   UNL     1       6.366   4.094   5.880  1.00  0.00     0.193 C 
ATOM      8  O   UNL     1       5.646   3.372   6.588  1.00  0.00    -0.289 OA
BRANCH   7   9
ATOM      9  C   UNL     1       6.102   4.221   4.456  1.00  0.00     0.023 A 
ATOM     10  C   UNL     1       7.145   4.094   3.539  1.00  0.00     0.012 A 
ATOM     11  C   UNL     1       4.805   4.470   4.007  1.00  0.00     0.012 A 
ATOM     12  C   UNL     1       6.892   4.216   2.173  1.00  0.00     0.004 A 
ATOM     13  C   UNL     1       4.551   4.592   2.640  1.00  0.00     0.004 A 
ATOM     14  C   UNL     1       5.594   4.465   1.723  1.00  0.00    -0.051 A 
ATOM     15  C   UNL     1       5.324   4.597   0.263  1.00  0.00     0.044 C 
ENDBRANCH   7   9
ENDBRANCH   1   7
BRANCH   4  16
ATOM     16  N   UNL     1      10.476   3.979   8.540  1.00  0.00     0.066 N 
ATOM     17  O   UNL     1      10.811   2.858   8.086  1.00  0.00    -0.258 OA
ATOM     18  O   UNL     1      10.983   4.455   9.582  1.00  0.00    -0.258 OA
ENDBRANCH   4  16
BRANCH   5  19
ATOM     19  O   UNL     1       8.645   8.209   7.049  1.00  0.00    -0.504 OA
ATOM     20  H   UNL     1       9.243   8.476   6.331  1.00  0.00     0.293 HD
ENDBRANCH   5  19
BRANCH   6  21
ATOM     21  O   UNL     1      10.587   6.790   8.405  1.00  0.00    -0.500 OA
ATOM     22  H   UNL     1      10.227   7.475   8.990  1.00  0.00     0.294 HD
ENDBRANCH   6  21
TORSDOF 5
ENDMDL
