MODEL 1
REMARK VINA RESULT:    -7.010      0.000      0.000
REMARK INTER + INTRA:          -8.800
REMARK INTER:                  -8.240
REMARK INTRA:                  -0.560
REMARK UNBOUND:                -0.560
REMARK SMILES O=C(O)c1cc(-c2ccc(F)cc2F)ccc1O
REMARK SMILES IDX 6 1 5 2 15 3 4 4 17 5 16 6 7 7 13 8 12 9 8 10 10 11 9 12
REMARK SMILES IDX 14 13 11 14 2 15 1 16 3 17 18 19
REMARK H PARENT 3 18 18 20
ROOT
ATOM      1  C   UNL     1       6.003   3.580   3.963  1.00  0.00    -0.014 A 
ATOM      2  C   UNL     1       5.737   4.172   2.729  1.00  0.00     0.028 A 
ATOM      3  C   UNL     1       5.453   2.337   4.273  1.00  0.00     0.013 A 
ATOM      4  C   UNL     1       4.921   3.520   1.804  1.00  0.00     0.102 A 
ATOM      5  C   UNL     1       4.371   2.277   2.114  1.00  0.00     0.130 A 
ATOM      6  C   UNL     1       4.637   1.684   3.350  1.00  0.00     0.048 A 
ENDROOT
BRANCH   1   7
ATOM      7  C   UNL     1       6.849   4.256   4.923  1.00  0.00     0.018 A 
ATOM      8  C   UNL     1       6.468   4.327   6.264  1.00  0.00     0.133 A 
ATOM      9  C   UNL     1       7.286   4.980   7.187  1.00  0.00     0.079 A 
ATOM     10  C   UNL     1       8.046   4.837   4.506  1.00  0.00     0.015 A 
ATOM     11  C   UNL     1       8.483   5.561   6.769  1.00  0.00     0.126 A 
ATOM     12  C   UNL     1       8.863   5.488   5.429  1.00  0.00     0.040 A 
ATOM     13  F   UNL     1       5.319   3.776   6.681  1.00  0.00    -0.206 F 
ATOM     14  F   UNL     1       9.269   6.187   7.654  1.00  0.00    -0.207 F 
ENDBRANCH   1   7
BRANCH   4  15
ATOM     15  C   UNL     1       4.656   4.155   0.520  1.00  0.00     0.339 C 
ATOM     16  O   UNL     1       3.537   4.380   0.053  1.00  0.00    -0.246 OA
BRANCH  15  17
ATOM     17  O   UNL     1       5.799   4.489  -0.139  1.00  0.00    -0.478 OA
ATOM     18  H   UNL     1       5.617   4.795  -1.052  1.00  0.00     0.297 HD
ENDBRANCH  15  17
ENDBRANCH   4  15
BRANCH   5  19
ATOM     19  O   UNL     1       3.571   1.623   1.224  1.00  0.00    -0.507 OA
ATOM     20  H   UNL     1       3.464   0.700   1.512  1.00  0.00     0.293 HD
ENDBRANCH   5  19
TORSDOF 4
ENDMDL
MODEL 2
REMARK VINA RESULT:    -7.008      1.129      1.610
REMARK INTER + INTRA:          -8.797
REMARK INTER:                  -8.237
REMARK INTRA:                  -0.560
REMARK UNBOUND:                -0.560
REMARK SMILES O=C(O)c1cc(-c2ccc(F)cc2F)ccc1O
REMARK SMILES IDX 6 1 5 2 15 3 4 4 17 5 16 6 7 7 13 8 12 9 8 10 10 11 9 12
REMARK SMILES IDX 14 13 11 14 2 15 1 16 3 17 18 19
REMARK H PARENT 3 18 18 20
ROOT
ATOM      1  C   UNL     1       6.053   3.584   3.938  1.00  0.00    -0.014 A 
ATOM      2  C   UNL     1       5.772   4.177   2.708  1.00  0.00     0.028 A 
ATOM      3  C   UNL     1       5.508   2.340   4.255  1.00  0.00     0.013 A 
ATOM      4  C   UNL     1       4.944   3.525   1.793  1.00  0.00     0.102 A 
ATOM      5  C   UNL     1       4.399   2.281   2.109  1.00  0.00     0.130 A 
ATOM      6  C   UNL     1       4.681   1.688   3.341  1.00  0.00     0.048 A 
ENDROOT
BRANCH   1   7
ATOM      7  C   UNL     1       6.910   4.260   4.888  1.00  0.00     0.018 A 
ATOM      8  C   UNL     1       8.095   4.860   4.460  1.00  0.00     0.133 A 
ATOM      9  C   UNL     1       8.919   5.510   5.379  1.00  0.00     0.079 A 
ATOM     10  C   UNL     1       6.549   4.312   6.234  1.00  0.00     0.015 A 
ATOM     11  C   UNL     1       8.558   5.561   6.725  1.00  0.00     0.126 A 
ATOM     12  C   UNL     1       7.372   4.963   7.152  1.00  0.00     0.040 A 
ATOM     13  F   UNL     1       8.458   4.816   3.170  1.00  0.00    -0.206 F 
ATOM     14  F   UNL     1       9.348   6.185   7.608  1.00  0.00    -0.207 F 
ENDBRANCH   1   7
BRANCH   4  15
ATOM     15  C   UNL     1       4.663   4.160   0.513  1.00  0.00     0.339 C 
ATOM     16  O   UNL     1       3.538   4.379   0.056  1.00  0.00    -0.246 OA
BRANCH  15  17
ATOM     17  O   UNL     1       5.797   4.504  -0.156  1.00  0.00    -0.478 OA
ATOM     18  H   UNL     1       6.536   4.700   0.457  1.00  0.00     0.297 HD
ENDBRANCH  15  17
ENDBRANCH   4  15
BRANCH   5  19
ATOM     19  O   UNL     1       3.588   1.628   1.229  1.00  0.00    -0.507 OA
ATOM     20  H   UNL     1       3.038   0.991   1.717  1.00  0.00     0.293 HD
ENDBRANCH   5  19
TORSDOF 4
ENDMDL
MODEL 3
REMARK VINA RESULT:    -6.870      1.316      2.747
REMARK INTER + INTRA:          -8.634
REMARK INTER:                  -7.847
REMARK INTRA:                  -0.787
REMARK UNBOUND:                -0.560
REMARK SMILES O=C(O)c1cc(-c2ccc(F)cc2F)ccc1O
REMARK SMILES IDX 6 1 5 2 15 3 4 4 17 5 16 6 7 7 13 8 12 9 8 10 10 11 9 12
REMARK SMILES IDX 14 13 11 14 2 15 1 16 3 17 18 19
REMARK H PARENT 3 18 18 20
ROOT
ATOM      1  C   UNL     1       6.006   3.588   4.068  1.00  0.00    -0.014 A 
ATOM      2  C   UNL     1       5.630   2.281   4.376  1.00  0.00     0.028 A 
ATOM      3  C   UNL     1       5.550   4.186   2.893  1.00  0.00     0.013 A 
ATOM      4  C   UNL     1       4.798   1.572   3.511  1.00  0.00     0.102 A 
ATOM      5  C   UNL     1       4.341   2.170   2.336  1.00  0.00     0.130 A 
ATOM      6  C   UNL     1       4.718   3.478   2.027  1.00  0.00     0.048 A 
ENDROOT
BRANCH   1   7
ATOM      7  C   UNL     1       6.871   4.324   4.965  1.00  0.00     0.018 A 
ATOM      8  C   UNL     1       6.542   4.441   6.316  1.00  0.00     0.133 A 
ATOM      9  C   UNL     1       7.379   5.152   7.177  1.00  0.00     0.079 A 
ATOM     10  C   UNL     1       8.036   4.915   4.476  1.00  0.00     0.015 A 
ATOM     11  C   UNL     1       8.543   5.744   6.688  1.00  0.00     0.126 A 
ATOM     12  C   UNL     1       8.871   5.625   5.338  1.00  0.00     0.040 A 
ATOM     13  F   UNL     1       5.425   3.881   6.801  1.00  0.00    -0.206 F 
ATOM     14  F   UNL     1       9.346   6.426   7.514  1.00  0.00    -0.207 F 
ENDBRANCH   1   7
BRANCH   4  15
ATOM     15  C   UNL     1       4.416   0.208   3.851  1.00  0.00     0.339 C 
ATOM     16  O   UNL     1       4.111  -0.671   3.042  1.00  0.00    -0.246 OA
BRANCH  15  17
ATOM     17  O   UNL     1       4.429  -0.014   5.194  1.00  0.00    -0.478 OA
ATOM     18  H   UNL     1       5.341  -0.008   5.555  1.00  0.00     0.297 HD
ENDBRANCH  15  17
ENDBRANCH   4  15
BRANCH   5  19
ATOM     19  O   UNL     1       3.527   1.494   1.477  1.00  0.00    -0.507 OA
ATOM     20  H   UNL     1       3.603   0.540   1.652  1.00  0.00     0.293 HD
ENDBRANCH   5  19
TORSDOF 4
ENDMDL
MODEL 4
REMARK VINA RESULT:    -6.851      1.736      3.181
REMARK INTER + INTRA:          -8.613
REMARK INTER:                  -7.838
REMARK INTRA:                  -0.774
REMARK UNBOUND:                -0.560
REMARK SMILES O=C(O)c1cc(-c2ccc(F)cc2F)ccc1O
REMARK SMILES IDX 6 1 5 2 15 3 4 4 17 5 16 6 7 7 13 8 12 9 8 10 10 11 9 12
REMARK SMILES IDX 14 13 11 14 2 15 1 16 3 17 18 19
REMARK H PARENT 3 18 18 20
ROOT
ATOM      1  C   UNL     1       6.040   3.574   4.033  1.00  0.00    -0.014 A 
ATOM      2  C   UNL     1       5.654   2.272   4.350  1.00  0.00     0.028 A 
ATOM      3  C   UNL     1       5.580   4.171   2.860  1.00  0.00     0.013 A 
ATOM      4  C   UNL     1       4.809   1.566   3.494  1.00  0.00     0.102 A 
ATOM      5  C   UNL     1       4.349   2.163   2.320  1.00  0.00     0.130 A 
ATOM      6  C   UNL     1       4.735   3.467   2.003  1.00  0.00     0.048 A 
ENDROOT
BRANCH   1   7
ATOM      7  C   UNL     1       6.918   4.306   4.920  1.00  0.00     0.018 A 
ATOM      8  C   UNL     1       8.085   4.889   4.426  1.00  0.00     0.133 A 
ATOM      9  C   UNL     1       8.929   5.594   5.285  1.00  0.00     0.079 A 
ATOM     10  C   UNL     1       6.594   4.429   6.271  1.00  0.00     0.015 A 
ATOM     11  C   UNL     1       8.606   5.716   6.636  1.00  0.00     0.126 A 
ATOM     12  C   UNL     1       7.438   5.134   7.129  1.00  0.00     0.040 A 
ATOM     13  F   UNL     1       8.413   4.777   3.131  1.00  0.00    -0.206 F 
ATOM     14  F   UNL     1       9.415   6.393   7.461  1.00  0.00    -0.207 F 
ENDBRANCH   1   7
BRANCH   4  15
ATOM     15  C   UNL     1       4.417   0.208   3.844  1.00  0.00     0.339 C 
ATOM     16  O   UNL     1       4.108  -0.675   3.040  1.00  0.00    -0.246 OA
BRANCH  15  17
ATOM     17  O   UNL     1       4.426  -0.005   5.188  1.00  0.00    -0.478 OA
ATOM     18  H   UNL     1       4.265  -0.946   5.409  1.00  0.00     0.297 HD
ENDBRANCH  15  17
ENDBRANCH   4  15
BRANCH   5  19
ATOM     19  O   UNL     1       3.522   1.491   1.471  1.00  0.00    -0.507 OA
ATOM     20  H   UNL     1       3.294   0.631   1.864  1.00  0.00     0.293 HD
ENDBRANCH   5  19
TORSDOF 4
ENDMDL
MODEL 5
REMARK VINA RESULT:    -5.510      4.036      6.293
REMARK INTER + INTRA:          -7.036
REMARK INTER:                  -5.972
REMARK INTRA:                  -1.064
REMARK UNBOUND:                -0.560
REMARK SMILES O=C(O)c1cc(-c2ccc(F)cc2F)ccc1O
REMARK SMILES IDX 6 1 5 2 15 3 4 4 17 5 16 6 7 7 13 8 12 9 8 10 10 11 9 12
REMARK SMILES IDX 14 13 11 14 2 15 1 16 3 17 18 19
REMARK H PARENT 3 18 18 20
ROOT
ATOM      1  C   UNL     1       7.598   4.862   5.797  1.00  0.00    -0.014 A 
ATOM      2  C   UNL     1       7.574   6.256   5.817  1.00  0.00     0.028 A 
ATOM      3  C   UNL     1       8.473   4.167   6.633  1.00  0.00     0.013 A 
ATOM      4  C   UNL     1       8.425   6.956   6.672  1.00  0.00     0.102 A 
ATOM      5  C   UNL     1       9.299   6.262   7.508  1.00  0.00     0.130 A 
ATOM      6  C   UNL     1       9.323   4.867   7.489  1.00  0.00     0.048 A 
ENDROOT
BRANCH   1   7
ATOM      7  C   UNL     1       6.717   4.134   4.909  1.00  0.00     0.018 A 
ATOM      8  C   UNL     1       5.514   3.614   5.388  1.00  0.00     0.133 A 
ATOM      9  C   UNL     1       4.668   2.913   4.528  1.00  0.00     0.079 A 
ATOM     10  C   UNL     1       7.072   3.956   3.572  1.00  0.00     0.015 A 
ATOM     11  C   UNL     1       5.023   2.733   3.192  1.00  0.00     0.126 A 
ATOM     12  C   UNL     1       6.225   3.255   2.714  1.00  0.00     0.040 A 
ATOM     13  F   UNL     1       5.160   3.774   6.670  1.00  0.00    -0.206 F 
ATOM     14  F   UNL     1       4.211   2.061   2.366  1.00  0.00    -0.207 F 
ENDBRANCH   1   7
BRANCH   4  15
ATOM     15  C   UNL     1       8.385   8.412   6.678  1.00  0.00     0.339 C 
ATOM     16  O   UNL     1       9.231   9.148   7.192  1.00  0.00    -0.246 OA
BRANCH  15  17
ATOM     17  O   UNL     1       7.288   8.903   6.039  1.00  0.00    -0.478 OA
ATOM     18  H   UNL     1       6.529   8.285   6.091  1.00  0.00     0.297 HD
ENDBRANCH  15  17
ENDBRANCH   4  15
BRANCH   5  19
ATOM     19  O   UNL     1      10.138   6.928   8.352  1.00  0.00    -0.507 OA
ATOM     20  H   UNL     1      10.462   7.731   7.909  1.00  0.00     0.293 HD
ENDBRANCH   5  19
TORSDOF 4
ENDMDL
MODEL 6
REMARK VINA RESULT:    -5.490      4.564      6.918
REMARK INTER + INTRA:          -7.012
REMARK INTER:                  -5.946
REMARK INTRA:                  -1.066
REMARK UNBOUND:                -0.560
REMARK SMILES O=C(O)c1cc(-c2ccc(F)cc2F)ccc1O
REMARK SMILES IDX 6 1 5 2 15 3 4 4 17 5 16 6 7 7 13 8 12 9 8 10 10 11 9 12
REMARK SMILES IDX 14 13 11 14 2 15 1 16 3 17 18 19
REMARK H PARENT 3 18 18 20
ROOT
ATOM      1  C   UNL     1       7.724   4.952   5.645  1.00  0.00    -0.014 A 
ATOM      2  C   UNL     1       8.542   4.180   6.469  1.00  0.00     0.028 A 
ATOM      3  C   UNL     1       7.724   6.342   5.767  1.00  0.00     0.013 A 
ATOM      4  C   UNL     1       9.360   4.796   7.416  1.00  0.00     0.102 A 
ATOM      5  C   UNL     1       9.360   6.186   7.538  1.00  0.00     0.130 A 
ATOM      6  C   UNL     1       8.542   6.959   6.713  1.00  0.00     0.048 A 
ENDROOT
BRANCH   1   7
ATOM      7  C   UNL     1       6.874   4.313   4.663  1.00  0.00     0.018 A 
ATOM      8  C   UNL     1       7.287   4.221   3.333  1.00  0.00     0.133 A 
ATOM      9  C   UNL     1       6.465   3.605   2.390  1.00  0.00     0.079 A 
ATOM     10  C   UNL     1       5.641   3.788   5.049  1.00  0.00     0.015 A 
ATOM     11  C   UNL     1       5.232   3.081   2.776  1.00  0.00     0.126 A 
ATOM     12  C   UNL     1       4.820   3.172   4.105  1.00  0.00     0.040 A 
ATOM     13  F   UNL     1       8.468   4.723   2.945  1.00  0.00    -0.206 F 
ATOM     14  F   UNL     1       4.442   2.489   1.871  1.00  0.00    -0.207 F 
ENDBRANCH   1   7
BRANCH   4  15
ATOM     15  C   UNL     1      10.207   3.972   8.267  1.00  0.00     0.339 C 
ATOM     16  O   UNL     1      10.854   4.376   9.236  1.00  0.00    -0.246 OA
BRANCH  15  17
ATOM     17  O   UNL     1      10.217   2.667   7.880  1.00  0.00    -0.478 OA
ATOM     18  H   UNL     1       9.683   2.523   7.070  1.00  0.00     0.297 HD
ENDBRANCH  15  17
ENDBRANCH   4  15
BRANCH   5  19
ATOM     19  O   UNL     1      10.152   6.808   8.457  1.00  0.00    -0.507 OA
ATOM     20  H   UNL     1      10.576   6.135   9.018  1.00  0.00     0.293 HD
ENDBRANCH   5  19
TORSDOF 4
ENDMDL
MODEL 7
REMARK VINA RESULT:    -5.465      1.634      2.842
REMARK INTER + INTRA:          -6.983
REMARK INTER:                  -6.327
REMARK INTRA:                  -0.656
REMARK UNBOUND:                -0.560
REMARK SMILES O=C(O)c1cc(-c2ccc(F)cc2F)ccc1O
REMARK SMILES IDX 6 1 5 2 15 3 4 4 17 5 16 6 7 7 13 8 12 9 8 10 10 11 9 12
REMARK SMILES IDX 14 13 11 14 2 15 1 16 3 17 18 19
REMARK H PARENT 3 18 18 20
ROOT
ATOM      1  C   UNL     1       6.479   3.944   4.214  1.00  0.00    -0.014 A 
ATOM      2  C   UNL     1       5.787   2.800   4.608  1.00  0.00     0.028 A 
ATOM      3  C   UNL     1       6.391   4.393   2.896  1.00  0.00     0.013 A 
ATOM      4  C   UNL     1       5.006   2.103   3.684  1.00  0.00     0.102 A 
ATOM      5  C   UNL     1       4.919   2.552   2.367  1.00  0.00     0.130 A 
ATOM      6  C   UNL     1       5.611   3.698   1.972  1.00  0.00     0.048 A 
ENDROOT
BRANCH   1   7
ATOM      7  C   UNL     1       7.290   4.666   5.170  1.00  0.00     0.018 A 
ATOM      8  C   UNL     1       8.113   3.971   6.057  1.00  0.00     0.133 A 
ATOM      9  C   UNL     1       8.893   4.671   6.978  1.00  0.00     0.079 A 
ATOM     10  C   UNL     1       7.248   6.059   5.204  1.00  0.00     0.015 A 
ATOM     11  C   UNL     1       8.850   6.064   7.012  1.00  0.00     0.126 A 
ATOM     12  C   UNL     1       8.028   6.758   6.125  1.00  0.00     0.040 A 
ATOM     13  F   UNL     1       8.163   2.631   6.040  1.00  0.00    -0.206 F 
ATOM     14  F   UNL     1       9.598   6.736   7.896  1.00  0.00    -0.207 F 
ENDBRANCH   1   7
BRANCH   4  15
ATOM     15  C   UNL     1       4.291   0.910   4.116  1.00  0.00     0.339 C 
ATOM     16  O   UNL     1       3.694   0.785   5.188  1.00  0.00    -0.246 OA
BRANCH  15  17
ATOM     17  O   UNL     1       4.342  -0.088   3.192  1.00  0.00    -0.478 OA
ATOM     18  H   UNL     1       4.342  -0.973   3.612  1.00  0.00     0.297 HD
ENDBRANCH  15  17
ENDBRANCH   4  15
BRANCH   5  19
ATOM     19  O   UNL     1       4.161   1.887   1.449  1.00  0.00    -0.507 OA
ATOM     20  H   UNL     1       4.748   1.477   0.791  1.00  0.00     0.293 HD
ENDBRANCH   5  19
TORSDOF 4
ENDMDL
MODEL 8
REMARK VINA RESULT:    -5.050      1.629      2.075
REMARK INTER + INTRA:          -6.495
REMARK INTER:                  -5.528
REMARK INTRA:                  -0.968
REMARK UNBOUND:                -0.560
REMARK SMILES O=C(O)c1cc(-c2ccc(F)cc2F)ccc1O
REMARK SMILES IDX 6 1 5 2 15 3 4 4 17 5 16 6 7 7 13 8 12 9 8 10 10 11 9 12
REMARK SMILES IDX 14 13 11 14 2 15 1 16 3 17 18 19
REMARK H PARENT 3 18 18 20
ROOT
ATOM      1  C   UNL     1       6.705   4.280   5.080  1.00  0.00    -0.014 A 
ATOM      2  C   UNL     1       6.913   4.462   3.713  1.00  0.00     0.028 A 
ATOM      3  C   UNL     1       5.541   3.658   5.531  1.00  0.00     0.013 A 
ATOM      4  C   UNL     1       5.958   4.023   2.797  1.00  0.00     0.102 A 
ATOM      5  C   UNL     1       4.794   3.400   3.248  1.00  0.00     0.130 A 
ATOM      6  C   UNL     1       4.586   3.218   4.616  1.00  0.00     0.048 A 
ENDROOT
BRANCH   1   7
ATOM      7  C   UNL     1       7.695   4.737   6.031  1.00  0.00     0.018 A 
ATOM      8  C   UNL     1       7.915   6.103   6.212  1.00  0.00     0.133 A 
ATOM      9  C   UNL     1       8.871   6.539   7.130  1.00  0.00     0.079 A 
ATOM     10  C   UNL     1       8.429   3.809   6.769  1.00  0.00     0.015 A 
ATOM     11  C   UNL     1       9.605   5.611   7.867  1.00  0.00     0.126 A 
ATOM     12  C   UNL     1       9.384   4.245   7.686  1.00  0.00     0.040 A 
ATOM     13  F   UNL     1       7.220   7.008   5.509  1.00  0.00    -0.206 F 
ATOM     14  F   UNL     1      10.523   6.029   8.748  1.00  0.00    -0.207 F 
ENDBRANCH   1   7
BRANCH   4  15
ATOM     15  C   UNL     1       6.195   4.223   1.374  1.00  0.00     0.339 C 
ATOM     16  O   UNL     1       5.340   4.133   0.489  1.00  0.00    -0.246 OA
BRANCH  15  17
ATOM     17  O   UNL     1       7.492   4.530   1.102  1.00  0.00    -0.478 OA
ATOM     18  H   UNL     1       7.712   4.382   0.159  1.00  0.00     0.297 HD
ENDBRANCH  15  17
ENDBRANCH   4  15
BRANCH   5  19
ATOM     19  O   UNL     1       3.848   2.963   2.369  1.00  0.00    -0.507 OA
ATOM     20  H   UNL     1       3.260   2.335   2.822  1.00  0.00     0.293 HD
ENDBRANCH   5  19
TORSDOF 4
ENDMDL
MODEL 9
REMARK VINA RESULT:    -4.183     11.563     12.858
REMARK INTER + INTRA:          -5.477
REMARK INTER:                  -4.428
REMARK INTRA:                  -1.049
REMARK UNBOUND:                -0.560
REMARK SMILES O=C(O)c1cc(-c2ccc(F)cc2F)ccc1O
REMARK SMILES IDX 6 1 5 2 15 3 4 4 17 5 16 6 7 7 13 8 12 9 8 10 10 11 9 12
REMARK SMILES IDX 14 13 11 14 2 15 1 16 3 17 18 19
REMARK H PARENT 3 18 18 20
ROOT
ATOM      1  C   UNL     1      10.940  11.004  12.479  1.00  0.00    -0.014 A 
ATOM      2  C   UNL     1      11.583  10.131  11.603  1.00  0.00     0.028 A 
ATOM      3  C   UNL     1      11.358  11.093  13.807  1.00  0.00     0.013 A 
ATOM      4  C   UNL     1      12.645   9.346  12.054  1.00  0.00     0.102 A 
ATOM      5  C   UNL     1      13.063   9.435  13.382  1.00  0.00     0.130 A 
ATOM      6  C   UNL     1      12.419  10.310  14.259  1.00  0.00     0.048 A 
ENDROOT
BRANCH   1   7
ATOM      7  C   UNL     1       9.838  11.817  12.012  1.00  0.00     0.018 A 
ATOM      8  C   UNL     1      10.085  12.978  11.278  1.00  0.00     0.133 A 
ATOM      9  C   UNL     1       9.020  13.759  10.830  1.00  0.00     0.079 A 
ATOM     10  C   UNL     1       8.526  11.438  12.297  1.00  0.00     0.015 A 
ATOM     11  C   UNL     1       7.709  13.380  11.116  1.00  0.00     0.126 A 
ATOM     12  C   UNL     1       7.462  12.219  11.849  1.00  0.00     0.040 A 
ATOM     13  F   UNL     1      11.340  13.358  10.998  1.00  0.00    -0.206 F 
ATOM     14  F   UNL     1       6.685  14.130  10.686  1.00  0.00    -0.207 F 
ENDBRANCH   1   7
BRANCH   4  15
ATOM     15  C   UNL     1      13.304   8.440  11.123  1.00  0.00     0.339 C 
ATOM     16  O   UNL     1      14.041   7.503  11.440  1.00  0.00    -0.246 OA
BRANCH  15  17
ATOM     17  O   UNL     1      13.019   8.733   9.825  1.00  0.00    -0.478 OA
ATOM     18  H   UNL     1      12.996   9.701   9.667  1.00  0.00     0.297 HD
ENDBRANCH  15  17
ENDBRANCH   4  15
BRANCH   5  19
ATOM     19  O   UNL     1      14.099   8.678  13.842  1.00  0.00    -0.507 OA
ATOM     20  H   UNL     1      14.825   9.265  14.114  1.00  0.00     0.293 HD
ENDBRANCH   5  19
TORSDOF 4
ENDMDL
