MODEL 1
REMARK VINA RESULT:    -5.186      0.000      0.000
REMARK INTER + INTRA:          -7.129
REMARK INTER:                  -6.399
REMARK INTRA:                  -0.730
REMARK UNBOUND:                -0.730
REMARK SMILES Cc1ccc(C(=O)c2cc(O)c(O)c([N+](=O)[O-])c2)cc1
REMARK SMILES IDX 8 1 18 2 9 3 14 4 10 5 12 6 6 7 7 8 5 9 4 10 19 11 3 12
REMARK SMILES IDX 20 13 2 14 1 15 15 16 17 17 16 18 11 19 13 21
REMARK H PARENT 11 20 13 22
ROOT
ATOM      1  C   UNL     1       7.633  -7.332  -0.557  1.00  0.00     0.033 A 
ATOM      2  C   UNL     1       6.374  -7.856  -0.739  1.00  0.00     0.102 A 
ATOM      3  C   UNL     1       7.868  -5.985  -0.414  1.00  0.00     0.063 A 
ATOM      4  C   UNL     1       5.288  -6.982  -0.779  1.00  0.00     0.315 A 
ATOM      5  C   UNL     1       6.781  -5.111  -0.455  1.00  0.00     0.165 A 
ATOM      6  C   UNL     1       5.491  -5.610  -0.637  1.00  0.00     0.237 A 
ENDROOT
BRANCH   1   7
ATOM      7  C   UNL     1       8.797  -8.268  -0.514  1.00  0.00     0.193 C 
ATOM      8  O   UNL     1       9.719  -7.994   0.269  1.00  0.00    -0.289 OA
BRANCH   7   9
ATOM      9  C   UNL     1       8.871  -9.459  -1.345  1.00  0.00     0.023 A 
ATOM     10  C   UNL     1       9.592  -9.433  -2.539  1.00  0.00     0.012 A 
ATOM     11  C   UNL     1       8.220 -10.628  -0.949  1.00  0.00     0.012 A 
ATOM     12  C   UNL     1       9.663 -10.576  -3.335  1.00  0.00     0.004 A 
ATOM     13  C   UNL     1       8.291 -11.771  -1.745  1.00  0.00     0.004 A 
ATOM     14  C   UNL     1       9.012 -11.745  -2.939  1.00  0.00    -0.051 A 
ATOM     15  C   UNL     1       9.087 -12.966  -3.792  1.00  0.00     0.044 C 
ENDBRANCH   7   9
ENDBRANCH   1   7
BRANCH   4  16
ATOM     16  N   UNL     1       3.980  -7.509  -0.965  1.00  0.00     0.066 N 
ATOM     17  O   UNL     1       3.175  -6.886  -1.700  1.00  0.00    -0.258 OA
ATOM     18  O   UNL     1       3.670  -8.579  -0.392  1.00  0.00    -0.258 OA
ENDBRANCH   4  16
BRANCH   5  19
ATOM     19  O   UNL     1       6.995  -3.773  -0.314  1.00  0.00    -0.504 OA
ATOM     20  H   UNL     1       7.024  -3.354  -1.190  1.00  0.00     0.293 HD
ENDBRANCH   5  19
BRANCH   6  21
ATOM     21  O   UNL     1       4.436  -4.744  -0.674  1.00  0.00    -0.500 OA
ATOM     22  H   UNL     1       3.639  -5.215  -0.964  1.00  0.00     0.294 HD
ENDBRANCH   6  21
TORSDOF 5
ENDMDL
MODEL 2
REMARK VINA RESULT:    -5.181      2.042      3.565
REMARK INTER + INTRA:          -7.122
REMARK INTER:                  -6.382
REMARK INTRA:                  -0.740
REMARK UNBOUND:                -0.730
REMARK SMILES Cc1ccc(C(=O)c2cc(O)c(O)c([N+](=O)[O-])c2)cc1
REMARK SMILES IDX 8 1 18 2 9 3 14 4 10 5 12 6 6 7 7 8 5 9 4 10 19 11 3 12
REMARK SMILES IDX 20 13 2 14 1 15 15 16 17 17 16 18 11 19 13 21
REMARK H PARENT 11 20 13 22
ROOT
ATOM      1  C   UNL     1       6.652  -7.929  -1.935  1.00  0.00     0.033 A 
ATOM      2  C   UNL     1       7.360  -6.806  -1.572  1.00  0.00     0.102 A 
ATOM      3  C   UNL     1       5.281  -7.999  -1.874  1.00  0.00     0.063 A 
ATOM      4  C   UNL     1       6.654  -5.690  -1.123  1.00  0.00     0.315 A 
ATOM      5  C   UNL     1       4.575  -6.883  -1.424  1.00  0.00     0.165 A 
ATOM      6  C   UNL     1       5.262  -5.728  -1.049  1.00  0.00     0.237 A 
ENDROOT
BRANCH   1   7
ATOM      7  C   UNL     1       7.408  -9.125  -2.416  1.00  0.00     0.193 C 
ATOM      8  O   UNL     1       6.871  -9.824  -3.289  1.00  0.00    -0.289 OA
BRANCH   7   9
ATOM      9  C   UNL     1       8.721  -9.478  -1.899  1.00  0.00     0.023 A 
ATOM     10  C   UNL     1       8.839 -10.433  -0.890  1.00  0.00     0.012 A 
ATOM     11  C   UNL     1       9.861  -8.861  -2.413  1.00  0.00     0.012 A 
ATOM     12  C   UNL     1      10.098 -10.771  -0.395  1.00  0.00     0.004 A 
ATOM     13  C   UNL     1      11.121  -9.199  -1.918  1.00  0.00     0.004 A 
ATOM     14  C   UNL     1      11.240 -10.154  -0.909  1.00  0.00    -0.051 A 
ATOM     15  C   UNL     1      12.585 -10.515  -0.378  1.00  0.00     0.044 C 
ENDBRANCH   7   9
ENDBRANCH   1   7
BRANCH   4  16
ATOM     16  N   UNL     1       7.372  -4.522  -0.745  1.00  0.00     0.066 N 
ATOM     17  O   UNL     1       8.459  -4.266  -1.317  1.00  0.00    -0.258 OA
ATOM     18  O   UNL     1       6.897  -3.782   0.148  1.00  0.00    -0.258 OA
ENDBRANCH   4  16
BRANCH   5  19
ATOM     19  O   UNL     1       3.215  -6.934  -1.358  1.00  0.00    -0.504 OA
ATOM     20  H   UNL     1       2.844  -6.884  -2.254  1.00  0.00     0.293 HD
ENDBRANCH   5  19
BRANCH   6  21
ATOM     21  O   UNL     1       4.561  -4.642  -0.612  1.00  0.00    -0.500 OA
ATOM     22  H   UNL     1       3.944  -4.352  -1.302  1.00  0.00     0.294 HD
ENDBRANCH   6  21
TORSDOF 5
ENDMDL
MODEL 3
REMARK VINA RESULT:    -4.236      1.881      2.606
REMARK INTER + INTRA:          -5.957
REMARK INTER:                  -5.229
REMARK INTRA:                  -0.727
REMARK UNBOUND:                -0.730
REMARK SMILES Cc1ccc(C(=O)c2cc(O)c(O)c([N+](=O)[O-])c2)cc1
REMARK SMILES IDX 8 1 18 2 9 3 14 4 10 5 12 6 6 7 7 8 5 9 4 10 19 11 3 12
REMARK SMILES IDX 20 13 2 14 1 15 15 16 17 17 16 18 11 19 13 21
REMARK H PARENT 11 20 13 22
ROOT
ATOM      1  C   UNL     1       6.894  -8.065  -1.963  1.00  0.00     0.033 A 
ATOM      2  C   UNL     1       5.549  -8.260  -1.749  1.00  0.00     0.102 A 
ATOM      3  C   UNL     1       7.516  -6.857  -1.751  1.00  0.00     0.063 A 
ATOM      4  C   UNL     1       4.783  -7.186  -1.297  1.00  0.00     0.315 A 
ATOM      5  C   UNL     1       6.750  -5.783  -1.299  1.00  0.00     0.165 A 
ATOM      6  C   UNL     1       5.383  -5.947  -1.071  1.00  0.00     0.237 A 
ENDROOT
BRANCH   1   7
ATOM      7  C   UNL     1       7.714  -9.215  -2.448  1.00  0.00     0.193 C 
ATOM      8  O   UNL     1       7.255  -9.888  -3.383  1.00  0.00    -0.289 OA
BRANCH   7   9
ATOM      9  C   UNL     1       9.003  -9.555  -1.865  1.00  0.00     0.023 A 
ATOM     10  C   UNL     1       9.073 -10.469  -0.813  1.00  0.00     0.012 A 
ATOM     11  C   UNL     1      10.168  -8.967  -2.357  1.00  0.00     0.012 A 
ATOM     12  C   UNL     1      10.309 -10.794  -0.254  1.00  0.00     0.004 A 
ATOM     13  C   UNL     1      11.404  -9.292  -1.799  1.00  0.00     0.004 A 
ATOM     14  C   UNL     1      11.475 -10.206  -0.747  1.00  0.00    -0.051 A 
ATOM     15  C   UNL     1      12.795 -10.553  -0.148  1.00  0.00     0.044 C 
ENDBRANCH   7   9
ENDBRANCH   1   7
BRANCH   4  16
ATOM     16  N   UNL     1       3.391  -7.372  -1.071  1.00  0.00     0.066 N 
ATOM     17  O   UNL     1       3.024  -8.199  -0.202  1.00  0.00    -0.258 OA
ATOM     18  O   UNL     1       2.573  -6.705  -1.746  1.00  0.00    -0.258 OA
ENDBRANCH   4  16
BRANCH   5  19
ATOM     19  O   UNL     1       7.349  -4.578  -1.083  1.00  0.00    -0.504 OA
ATOM     20  H   UNL     1       7.655  -4.211  -1.928  1.00  0.00     0.293 HD
ENDBRANCH   5  19
BRANCH   6  21
ATOM     21  O   UNL     1       4.644  -4.888  -0.629  1.00  0.00    -0.500 OA
ATOM     22  H   UNL     1       3.700  -5.075  -0.751  1.00  0.00     0.294 HD
ENDBRANCH   6  21
TORSDOF 5
ENDMDL
MODEL 4
REMARK VINA RESULT:    -4.217      1.249      2.711
REMARK INTER + INTRA:          -5.933
REMARK INTER:                  -5.249
REMARK INTRA:                  -0.685
REMARK UNBOUND:                -0.730
REMARK SMILES Cc1ccc(C(=O)c2cc(O)c(O)c([N+](=O)[O-])c2)cc1
REMARK SMILES IDX 8 1 18 2 9 3 14 4 10 5 12 6 6 7 7 8 5 9 4 10 19 11 3 12
REMARK SMILES IDX 20 13 2 14 1 15 15 16 17 17 16 18 11 19 13 21
REMARK H PARENT 11 20 13 22
ROOT
ATOM      1  C   UNL     1       7.803  -7.826  -0.761  1.00  0.00     0.033 A 
ATOM      2  C   UNL     1       8.055  -6.474  -0.742  1.00  0.00     0.102 A 
ATOM      3  C   UNL     1       6.532  -8.348  -0.747  1.00  0.00     0.063 A 
ATOM      4  C   UNL     1       6.973  -5.594  -0.707  1.00  0.00     0.315 A 
ATOM      5  C   UNL     1       5.449  -7.469  -0.711  1.00  0.00     0.165 A 
ATOM      6  C   UNL     1       5.670  -6.091  -0.692  1.00  0.00     0.237 A 
ENDROOT
BRANCH   1   7
ATOM      7  C   UNL     1       8.962  -8.768  -0.798  1.00  0.00     0.193 C 
ATOM      8  O   UNL     1       9.915  -8.527  -0.042  1.00  0.00    -0.289 OA
BRANCH   7   9
ATOM      9  C   UNL     1       8.996  -9.929  -1.674  1.00  0.00     0.023 A 
ATOM     10  C   UNL     1       9.649  -9.855  -2.904  1.00  0.00     0.012 A 
ATOM     11  C   UNL     1       8.375 -11.115  -1.284  1.00  0.00     0.012 A 
ATOM     12  C   UNL     1       9.682 -10.968  -3.744  1.00  0.00     0.004 A 
ATOM     13  C   UNL     1       8.408 -12.229  -2.124  1.00  0.00     0.004 A 
ATOM     14  C   UNL     1       9.061 -12.156  -3.354  1.00  0.00    -0.051 A 
ATOM     15  C   UNL     1       9.095 -13.344  -4.253  1.00  0.00     0.044 C 
ENDBRANCH   7   9
ENDBRANCH   1   7
BRANCH   4  16
ATOM     16  N   UNL     1       7.218  -4.194  -0.688  1.00  0.00     0.066 N 
ATOM     17  O   UNL     1       6.759  -3.511   0.260  1.00  0.00    -0.258 OA
ATOM     18  O   UNL     1       7.885  -3.682  -1.617  1.00  0.00    -0.258 OA
ENDBRANCH   4  16
BRANCH   5  19
ATOM     19  O   UNL     1       4.182  -7.968  -0.698  1.00  0.00    -0.504 OA
ATOM     20  H   UNL     1       3.705  -7.624   0.076  1.00  0.00     0.293 HD
ENDBRANCH   5  19
BRANCH   6  21
ATOM     21  O   UNL     1       4.603  -5.240  -0.659  1.00  0.00    -0.500 OA
ATOM     22  H   UNL     1       4.918  -4.325  -0.602  1.00  0.00     0.294 HD
ENDBRANCH   6  21
TORSDOF 5
ENDMDL
MODEL 5
REMARK VINA RESULT:    -4.142      3.597      6.529
REMARK INTER + INTRA:          -5.841
REMARK INTER:                  -4.889
REMARK INTRA:                  -0.951
REMARK UNBOUND:                -0.730
REMARK SMILES Cc1ccc(C(=O)c2cc(O)c(O)c([N+](=O)[O-])c2)cc1
REMARK SMILES IDX 8 1 18 2 9 3 14 4 10 5 12 6 6 7 7 8 5 9 4 10 19 11 3 12
REMARK SMILES IDX 20 13 2 14 1 15 15 16 17 17 16 18 11 19 13 21
REMARK H PARENT 11 20 13 22
ROOT
ATOM      1  C   UNL     1       9.677  -9.520  -2.082  1.00  0.00     0.033 A 
ATOM      2  C   UNL     1       9.205 -10.578  -2.824  1.00  0.00     0.102 A 
ATOM      3  C   UNL     1      10.841  -9.581  -1.353  1.00  0.00     0.063 A 
ATOM      4  C   UNL     1       9.940 -11.763  -2.839  1.00  0.00     0.315 A 
ATOM      5  C   UNL     1      11.576 -10.766  -1.367  1.00  0.00     0.165 A 
ATOM      6  C   UNL     1      11.125 -11.858  -2.111  1.00  0.00     0.237 A 
ENDROOT
BRANCH   1   7
ATOM      7  C   UNL     1       8.890  -8.251  -2.066  1.00  0.00     0.193 C 
ATOM      8  O   UNL     1       9.491  -7.205  -2.353  1.00  0.00    -0.289 OA
BRANCH   7   9
ATOM      9  C   UNL     1       7.475  -8.215  -1.732  1.00  0.00     0.023 A 
ATOM     10  C   UNL     1       7.014  -8.848  -0.577  1.00  0.00     0.012 A 
ATOM     11  C   UNL     1       6.578  -7.546  -2.565  1.00  0.00     0.012 A 
ATOM     12  C   UNL     1       5.658  -8.814  -0.257  1.00  0.00     0.004 A 
ATOM     13  C   UNL     1       5.220  -7.511  -2.245  1.00  0.00     0.004 A 
ATOM     14  C   UNL     1       4.760  -8.145  -1.090  1.00  0.00    -0.051 A 
ATOM     15  C   UNL     1       3.310  -8.109  -0.748  1.00  0.00     0.044 C 
ENDBRANCH   7   9
ENDBRANCH   1   7
BRANCH   4  16
ATOM     16  N   UNL     1       9.465 -12.865  -3.602  1.00  0.00     0.066 N 
ATOM     17  O   UNL     1       8.228 -13.005  -3.758  1.00  0.00    -0.258 OA
ATOM     18  O   UNL     1      10.295 -13.662  -4.097  1.00  0.00    -0.258 OA
ENDBRANCH   4  16
BRANCH   5  19
ATOM     19  O   UNL     1      12.733 -10.844  -0.651  1.00  0.00    -0.504 OA
ATOM     20  H   UNL     1      13.186 -11.679  -0.855  1.00  0.00     0.293 HD
ENDBRANCH   5  19
BRANCH   6  21
ATOM     21  O   UNL     1      11.854 -13.012  -2.117  1.00  0.00    -0.500 OA
ATOM     22  H   UNL     1      12.782 -12.813  -1.919  1.00  0.00     0.294 HD
ENDBRANCH   6  21
TORSDOF 5
ENDMDL
MODEL 6
REMARK VINA RESULT:    -4.127      3.458      7.115
REMARK INTER + INTRA:          -5.822
REMARK INTER:                  -4.867
REMARK INTRA:                  -0.955
REMARK UNBOUND:                -0.730
REMARK SMILES Cc1ccc(C(=O)c2cc(O)c(O)c([N+](=O)[O-])c2)cc1
REMARK SMILES IDX 8 1 18 2 9 3 14 4 10 5 12 6 6 7 7 8 5 9 4 10 19 11 3 12
REMARK SMILES IDX 20 13 2 14 1 15 15 16 17 17 16 18 11 19 13 21
REMARK H PARENT 11 20 13 22
ROOT
ATOM      1  C   UNL     1       8.825 -10.430  -1.367  1.00  0.00     0.033 A 
ATOM      2  C   UNL     1      10.055 -10.209  -0.792  1.00  0.00     0.102 A 
ATOM      3  C   UNL     1       8.605 -11.414  -2.301  1.00  0.00     0.063 A 
ATOM      4  C   UNL     1      11.125 -11.018  -1.172  1.00  0.00     0.315 A 
ATOM      5  C   UNL     1       9.675 -12.224  -2.682  1.00  0.00     0.165 A 
ATOM      6  C   UNL     1      10.935 -12.026  -2.117  1.00  0.00     0.237 A 
ENDROOT
BRANCH   1   7
ATOM      7  C   UNL     1       7.679  -9.563  -0.959  1.00  0.00     0.193 C 
ATOM      8  O   UNL     1       6.643 -10.130  -0.580  1.00  0.00    -0.289 OA
BRANCH   7   9
ATOM      9  C   UNL     1       7.748  -8.111  -0.996  1.00  0.00     0.023 A 
ATOM     10  C   UNL     1       8.191  -7.463  -2.150  1.00  0.00     0.012 A 
ATOM     11  C   UNL     1       7.372  -7.366   0.121  1.00  0.00     0.012 A 
ATOM     12  C   UNL     1       8.257  -6.070  -2.185  1.00  0.00     0.004 A 
ATOM     13  C   UNL     1       7.438  -5.973   0.086  1.00  0.00     0.004 A 
ATOM     14  C   UNL     1       7.880  -5.325  -1.067  1.00  0.00    -0.051 A 
ATOM     15  C   UNL     1       7.953  -3.836  -1.105  1.00  0.00     0.044 C 
ENDBRANCH   7   9
ENDBRANCH   1   7
BRANCH   4  16
ATOM     16  N   UNL     1      12.402 -10.802  -0.586  1.00  0.00     0.066 N 
ATOM     17  O   UNL     1      13.175 -11.779  -0.438  1.00  0.00    -0.258 OA
ATOM     18  O   UNL     1      12.718  -9.641  -0.235  1.00  0.00    -0.258 OA
ENDBRANCH   4  16
BRANCH   5  19
ATOM     19  O   UNL     1       9.475 -13.205  -3.607  1.00  0.00    -0.504 OA
ATOM     20  H   UNL     1      10.328 -13.471  -3.988  1.00  0.00     0.293 HD
ENDBRANCH   5  19
BRANCH   6  21
ATOM     21  O   UNL     1      11.974 -12.825  -2.498  1.00  0.00    -0.500 OA
ATOM     22  H   UNL     1      11.632 -13.613  -2.948  1.00  0.00     0.294 HD
ENDBRANCH   6  21
TORSDOF 5
ENDMDL
MODEL 7
REMARK VINA RESULT:    -4.081      8.989     12.523
REMARK INTER + INTRA:          -5.765
REMARK INTER:                  -4.940
REMARK INTRA:                  -0.825
REMARK UNBOUND:                -0.730
REMARK SMILES Cc1ccc(C(=O)c2cc(O)c(O)c([N+](=O)[O-])c2)cc1
REMARK SMILES IDX 8 1 18 2 9 3 14 4 10 5 12 6 6 7 7 8 5 9 4 10 19 11 3 12
REMARK SMILES IDX 20 13 2 14 1 15 15 16 17 17 16 18 11 19 13 21
REMARK H PARENT 11 20 13 22
ROOT
ATOM      1  C   UNL     1      11.784 -16.602  -7.426  1.00  0.00     0.033 A 
ATOM      2  C   UNL     1      11.843 -17.287  -8.618  1.00  0.00     0.102 A 
ATOM      3  C   UNL     1      12.866 -15.945  -6.889  1.00  0.00     0.063 A 
ATOM      4  C   UNL     1      13.053 -17.315  -9.312  1.00  0.00     0.315 A 
ATOM      5  C   UNL     1      14.076 -15.975  -7.582  1.00  0.00     0.165 A 
ATOM      6  C   UNL     1      14.169 -16.660  -8.795  1.00  0.00     0.237 A 
ENDROOT
BRANCH   1   7
ATOM      7  C   UNL     1      10.489 -16.571  -6.683  1.00  0.00     0.193 C 
ATOM      8  O   UNL     1       9.731 -17.543  -6.819  1.00  0.00    -0.289 OA
BRANCH   7   9
ATOM      9  C   UNL     1      10.107 -15.459  -5.828  1.00  0.00     0.023 A 
ATOM     10  C   UNL     1       9.411 -14.374  -6.363  1.00  0.00     0.012 A 
ATOM     11  C   UNL     1      10.436 -15.476  -4.472  1.00  0.00     0.012 A 
ATOM     12  C   UNL     1       9.045 -13.308  -5.542  1.00  0.00     0.004 A 
ATOM     13  C   UNL     1      10.069 -14.409  -3.651  1.00  0.00     0.004 A 
ATOM     14  C   UNL     1       9.374 -13.325  -4.186  1.00  0.00    -0.051 A 
ATOM     15  C   UNL     1       8.983 -12.184  -3.309  1.00  0.00     0.044 C 
ENDBRANCH   7   9
ENDBRANCH   1   7
BRANCH   4  16
ATOM     16  N   UNL     1      13.129 -18.019 -10.545  1.00  0.00     0.066 N 
ATOM     17  O   UNL     1      14.219 -18.543 -10.878  1.00  0.00    -0.258 OA
ATOM     18  O   UNL     1      12.104 -18.096 -11.263  1.00  0.00    -0.258 OA
ENDBRANCH   4  16
BRANCH   5  19
ATOM     19  O   UNL     1      15.159 -15.329  -7.065  1.00  0.00    -0.504 OA
ATOM     20  H   UNL     1      15.443 -14.629  -7.676  1.00  0.00     0.293 HD
ENDBRANCH   5  19
BRANCH   6  21
ATOM     21  O   UNL     1      15.358 -16.681  -9.464  1.00  0.00    -0.500 OA
ATOM     22  H   UNL     1      15.197 -16.808 -10.412  1.00  0.00     0.294 HD
ENDBRANCH   6  21
TORSDOF 5
ENDMDL
MODEL 8
REMARK VINA RESULT:    -4.027      3.720      6.927
REMARK INTER + INTRA:          -5.699
REMARK INTER:                  -4.728
REMARK INTRA:                  -0.971
REMARK UNBOUND:                -0.730
REMARK SMILES Cc1ccc(C(=O)c2cc(O)c(O)c([N+](=O)[O-])c2)cc1
REMARK SMILES IDX 8 1 18 2 9 3 14 4 10 5 12 6 6 7 7 8 5 9 4 10 19 11 3 12
REMARK SMILES IDX 20 13 2 14 1 15 15 16 17 17 16 18 11 19 13 21
REMARK H PARENT 11 20 13 22
ROOT
ATOM      1  C   UNL     1       9.670  -9.515  -2.076  1.00  0.00     0.033 A 
ATOM      2  C   UNL     1      10.808  -9.597  -1.307  1.00  0.00     0.102 A 
ATOM      3  C   UNL     1       9.226 -10.550  -2.864  1.00  0.00     0.063 A 
ATOM      4  C   UNL     1      11.541 -10.783  -1.326  1.00  0.00     0.315 A 
ATOM      5  C   UNL     1       9.960 -11.736  -2.884  1.00  0.00     0.165 A 
ATOM      6  C   UNL     1      11.118 -11.853  -2.114  1.00  0.00     0.237 A 
ENDROOT
BRANCH   1   7
ATOM      7  C   UNL     1       8.884  -8.245  -2.056  1.00  0.00     0.193 C 
ATOM      8  O   UNL     1       9.488  -7.198  -2.336  1.00  0.00    -0.289 OA
BRANCH   7   9
ATOM      9  C   UNL     1       7.469  -8.209  -1.726  1.00  0.00     0.023 A 
ATOM     10  C   UNL     1       6.574  -7.539  -2.561  1.00  0.00     0.012 A 
ATOM     11  C   UNL     1       7.005  -8.844  -0.574  1.00  0.00     0.012 A 
ATOM     12  C   UNL     1       5.216  -7.505  -2.244  1.00  0.00     0.004 A 
ATOM     13  C   UNL     1       5.646  -8.811  -0.257  1.00  0.00     0.004 A 
ATOM     14  C   UNL     1       4.752  -8.141  -1.092  1.00  0.00    -0.051 A 
ATOM     15  C   UNL     1       3.301  -8.104  -0.753  1.00  0.00     0.044 C 
ENDBRANCH   7   9
ENDBRANCH   1   7
BRANCH   4  16
ATOM     16  N   UNL     1      12.719 -10.884  -0.535  1.00  0.00     0.066 N 
ATOM     17  O   UNL     1      12.775 -10.258   0.551  1.00  0.00    -0.258 OA
ATOM     18  O   UNL     1      13.666 -11.594  -0.946  1.00  0.00    -0.258 OA
ENDBRANCH   4  16
BRANCH   5  19
ATOM     19  O   UNL     1       9.534 -12.773  -3.659  1.00  0.00    -0.504 OA
ATOM     20  H   UNL     1       8.644 -13.043  -3.380  1.00  0.00     0.293 HD
ENDBRANCH   5  19
BRANCH   6  21
ATOM     21  O   UNL     1      11.827 -13.019  -2.141  1.00  0.00    -0.500 OA
ATOM     22  H   UNL     1      11.256 -13.741  -2.445  1.00  0.00     0.294 HD
ENDBRANCH   6  21
TORSDOF 5
ENDMDL
MODEL 9
REMARK VINA RESULT:    -3.965      9.378     12.882
REMARK INTER + INTRA:          -5.622
REMARK INTER:                  -4.995
REMARK INTRA:                  -0.627
REMARK UNBOUND:                -0.730
REMARK SMILES Cc1ccc(C(=O)c2cc(O)c(O)c([N+](=O)[O-])c2)cc1
REMARK SMILES IDX 8 1 18 2 9 3 14 4 10 5 12 6 6 7 7 8 5 9 4 10 19 11 3 12
REMARK SMILES IDX 20 13 2 14 1 15 15 16 17 17 16 18 11 19 13 21
REMARK H PARENT 11 20 13 22
ROOT
ATOM      1  C   UNL     1      10.943 -17.519  -7.577  1.00  0.00     0.033 A 
ATOM      2  C   UNL     1      12.082 -17.511  -8.349  1.00  0.00     0.102 A 
ATOM      3  C   UNL     1       9.708 -17.860  -8.074  1.00  0.00     0.063 A 
ATOM      4  C   UNL     1      11.978 -17.864  -9.694  1.00  0.00     0.315 A 
ATOM      5  C   UNL     1       9.603 -18.212  -9.420  1.00  0.00     0.165 A 
ATOM      6  C   UNL     1      10.740 -18.215 -10.230  1.00  0.00     0.237 A 
ENDROOT
BRANCH   1   7
ATOM      7  C   UNL     1      11.054 -17.141  -6.136  1.00  0.00     0.193 C 
ATOM      8  O   UNL     1      11.662 -17.921  -5.388  1.00  0.00    -0.289 OA
BRANCH   7   9
ATOM      9  C   UNL     1      10.482 -15.913  -5.606  1.00  0.00     0.023 A 
ATOM     10  C   UNL     1       9.934 -14.968  -6.474  1.00  0.00     0.012 A 
ATOM     11  C   UNL     1      10.481 -15.681  -4.231  1.00  0.00     0.012 A 
ATOM     12  C   UNL     1       9.386 -13.791  -5.965  1.00  0.00     0.004 A 
ATOM     13  C   UNL     1       9.932 -14.503  -3.722  1.00  0.00     0.004 A 
ATOM     14  C   UNL     1       9.384 -13.558  -4.589  1.00  0.00    -0.051 A 
ATOM     15  C   UNL     1       8.799 -12.299  -4.046  1.00  0.00     0.044 C 
ENDBRANCH   7   9
ENDBRANCH   1   7
BRANCH   4  16
ATOM     16  N   UNL     1      13.147 -17.860 -10.505  1.00  0.00     0.066 N 
ATOM     17  O   UNL     1      13.161 -17.159 -11.545  1.00  0.00    -0.258 OA
ATOM     18  O   UNL     1      14.128 -18.557 -10.156  1.00  0.00    -0.258 OA
ENDBRANCH   4  16
BRANCH   5  19
ATOM     19  O   UNL     1       8.387 -18.554  -9.929  1.00  0.00    -0.504 OA
ATOM     20  H   UNL     1       7.701 -17.982  -9.545  1.00  0.00     0.293 HD
ENDBRANCH   5  19
BRANCH   6  21
ATOM     21  O   UNL     1      10.625 -18.563 -11.545  1.00  0.00    -0.500 OA
ATOM     22  H   UNL     1       9.713 -18.421 -11.841  1.00  0.00     0.294 HD
ENDBRANCH   6  21
TORSDOF 5
ENDMDL
