MODEL 1
REMARK VINA RESULT:    -5.154      0.000      0.000
REMARK INTER + INTRA:          -7.114
REMARK INTER:                  -6.359
REMARK INTRA:                  -0.755
REMARK UNBOUND:                -0.755
REMARK SMILES Cc1ccc(C(=O)c2cc(O)c(O)c([N+](=O)[O-])c2)cc1
REMARK SMILES IDX 8 1 18 2 9 3 14 4 10 5 12 6 6 7 7 8 5 9 4 10 19 11 3 12
REMARK SMILES IDX 20 13 2 14 1 15 15 16 17 17 16 18 11 19 13 21
REMARK H PARENT 11 20 13 22
ROOT
ATOM      1  C   UNL     1       8.572   0.518   4.700  1.00  0.00     0.033 A 
ATOM      2  C   UNL     1       8.333   1.062   3.459  1.00  0.00     0.102 A 
ATOM      3  C   UNL     1       7.605  -0.132   5.429  1.00  0.00     0.063 A 
ATOM      4  C   UNL     1       7.054   0.947   2.916  1.00  0.00     0.315 A 
ATOM      5  C   UNL     1       6.324  -0.247   4.886  1.00  0.00     0.165 A 
ATOM      6  C   UNL     1       6.049   0.293   3.628  1.00  0.00     0.237 A 
ENDROOT
BRANCH   1   7
ATOM      7  C   UNL     1       9.942   0.641   5.282  1.00  0.00     0.193 C 
ATOM      8  O   UNL     1      10.390  -0.340   5.895  1.00  0.00    -0.289 OA
BRANCH   7   9
ATOM      9  C   UNL     1      10.740   1.850   5.151  1.00  0.00     0.023 A 
ATOM     10  C   UNL     1      10.747   2.796   6.176  1.00  0.00     0.012 A 
ATOM     11  C   UNL     1      11.498   2.064   4.000  1.00  0.00     0.012 A 
ATOM     12  C   UNL     1      11.512   3.955   6.049  1.00  0.00     0.004 A 
ATOM     13  C   UNL     1      12.264   3.223   3.873  1.00  0.00     0.004 A 
ATOM     14  C   UNL     1      12.271   4.169   4.898  1.00  0.00    -0.051 A 
ATOM     15  C   UNL     1      13.087   5.409   4.763  1.00  0.00     0.044 C 
ENDBRANCH   7   9
ENDBRANCH   1   7
BRANCH   4  16
ATOM     16  N   UNL     1       6.792   1.504   1.634  1.00  0.00     0.066 N 
ATOM     17  O   UNL     1       5.680   2.045   1.424  1.00  0.00    -0.258 OA
ATOM     18  O   UNL     1       7.680   1.438   0.752  1.00  0.00    -0.258 OA
ENDBRANCH   4  16
BRANCH   5  19
ATOM     19  O   UNL     1       5.353  -0.889   5.593  1.00  0.00    -0.504 OA
ATOM     20  H   UNL     1       4.969  -1.596   5.050  1.00  0.00     0.293 HD
ENDBRANCH   5  19
BRANCH   6  21
ATOM     21  O   UNL     1       4.793   0.174   3.107  1.00  0.00    -0.500 OA
ATOM     22  H   UNL     1       4.245  -0.364   3.699  1.00  0.00     0.294 HD
ENDBRANCH   6  21
TORSDOF 5
ENDMDL
MODEL 2
REMARK VINA RESULT:    -5.142      2.026      3.531
REMARK INTER + INTRA:          -7.099
REMARK INTER:                  -6.359
REMARK INTRA:                  -0.740
REMARK UNBOUND:                -0.755
REMARK SMILES Cc1ccc(C(=O)c2cc(O)c(O)c([N+](=O)[O-])c2)cc1
REMARK SMILES IDX 8 1 18 2 9 3 14 4 10 5 12 6 6 7 7 8 5 9 4 10 19 11 3 12
REMARK SMILES IDX 20 13 2 14 1 15 15 16 17 17 16 18 11 19 13 21
REMARK H PARENT 11 20 13 22
ROOT
ATOM      1  C   UNL     1       8.222   2.137   4.035  1.00  0.00     0.033 A 
ATOM      2  C   UNL     1       7.709   1.318   5.014  1.00  0.00     0.102 A 
ATOM      3  C   UNL     1       7.675   2.228   2.777  1.00  0.00     0.063 A 
ATOM      4  C   UNL     1       6.584   0.548   4.718  1.00  0.00     0.315 A 
ATOM      5  C   UNL     1       6.551   1.457   2.480  1.00  0.00     0.165 A 
ATOM      6  C   UNL     1       6.005   0.617   3.452  1.00  0.00     0.237 A 
ENDROOT
BRANCH   1   7
ATOM      7  C   UNL     1       9.426   2.962   4.352  1.00  0.00     0.193 C 
ATOM      8  O   UNL     1       9.458   4.118   3.904  1.00  0.00    -0.289 OA
BRANCH   7   9
ATOM      9  C   UNL     1      10.530   2.455   5.151  1.00  0.00     0.023 A 
ATOM     10  C   UNL     1      11.669   1.947   4.525  1.00  0.00     0.012 A 
ATOM     11  C   UNL     1      10.452   2.477   6.543  1.00  0.00     0.012 A 
ATOM     12  C   UNL     1      12.728   1.461   5.291  1.00  0.00     0.004 A 
ATOM     13  C   UNL     1      11.511   1.991   7.311  1.00  0.00     0.004 A 
ATOM     14  C   UNL     1      12.649   1.483   6.685  1.00  0.00    -0.051 A 
ATOM     15  C   UNL     1      13.781   0.963   7.503  1.00  0.00     0.044 C 
ENDBRANCH   7   9
ENDBRANCH   1   7
BRANCH   4  16
ATOM     16  N   UNL     1       6.043  -0.303   5.721  1.00  0.00     0.066 N 
ATOM     17  O   UNL     1       6.043   0.089   6.913  1.00  0.00    -0.258 OA
ATOM     18  O   UNL     1       5.580  -1.417   5.384  1.00  0.00    -0.258 OA
ENDBRANCH   4  16
BRANCH   5  19
ATOM     19  O   UNL     1       5.995   1.535   1.239  1.00  0.00    -0.504 OA
ATOM     20  H   UNL     1       6.357   2.304   0.768  1.00  0.00     0.293 HD
ENDBRANCH   5  19
BRANCH   6  21
ATOM     21  O   UNL     1       4.905  -0.132   3.150  1.00  0.00    -0.500 OA
ATOM     22  H   UNL     1       5.159  -0.867   2.571  1.00  0.00     0.294 HD
ENDBRANCH   6  21
TORSDOF 5
ENDMDL
MODEL 3
REMARK VINA RESULT:    -4.704      2.381      4.114
REMARK INTER + INTRA:          -6.559
REMARK INTER:                  -5.562
REMARK INTRA:                  -0.997
REMARK UNBOUND:                -0.755
REMARK SMILES Cc1ccc(C(=O)c2cc(O)c(O)c([N+](=O)[O-])c2)cc1
REMARK SMILES IDX 8 1 18 2 9 3 14 4 10 5 12 6 6 7 7 8 5 9 4 10 19 11 3 12
REMARK SMILES IDX 20 13 2 14 1 15 15 16 17 17 16 18 11 19 13 21
REMARK H PARENT 11 20 13 22
ROOT
ATOM      1  C   UNL     1      11.595   2.307   4.430  1.00  0.00     0.033 A 
ATOM      2  C   UNL     1      10.273   2.079   4.735  1.00  0.00     0.102 A 
ATOM      3  C   UNL     1      12.158   1.944   3.230  1.00  0.00     0.063 A 
ATOM      4  C   UNL     1       9.467   1.454   3.782  1.00  0.00     0.315 A 
ATOM      5  C   UNL     1      11.352   1.318   2.278  1.00  0.00     0.165 A 
ATOM      6  C   UNL     1      10.007   1.074   2.554  1.00  0.00     0.237 A 
ENDROOT
BRANCH   1   7
ATOM      7  C   UNL     1      12.458   2.976   5.450  1.00  0.00     0.193 C 
ATOM      8  O   UNL     1      12.820   2.297   6.422  1.00  0.00    -0.289 OA
BRANCH   7   9
ATOM      9  C   UNL     1      12.870   4.365   5.331  1.00  0.00     0.023 A 
ATOM     10  C   UNL     1      11.912   5.367   5.174  1.00  0.00     0.012 A 
ATOM     11  C   UNL     1      14.224   4.697   5.376  1.00  0.00     0.012 A 
ATOM     12  C   UNL     1      12.308   6.699   5.060  1.00  0.00     0.004 A 
ATOM     13  C   UNL     1      14.621   6.030   5.263  1.00  0.00     0.004 A 
ATOM     14  C   UNL     1      13.662   7.032   5.105  1.00  0.00    -0.051 A 
ATOM     15  C   UNL     1      14.085   8.456   4.982  1.00  0.00     0.044 C 
ENDBRANCH   7   9
ENDBRANCH   1   7
BRANCH   4  16
ATOM     16  N   UNL     1       8.098   1.213   4.082  1.00  0.00     0.066 N 
ATOM     17  O   UNL     1       7.582   0.128   3.724  1.00  0.00    -0.258 OA
ATOM     18  O   UNL     1       7.449   2.092   4.696  1.00  0.00    -0.258 OA
ENDBRANCH   4  16
BRANCH   5  19
ATOM     19  O   UNL     1      11.893   0.952   1.082  1.00  0.00    -0.504 OA
ATOM     20  H   UNL     1      11.664   0.028   0.890  1.00  0.00     0.293 HD
ENDBRANCH   5  19
BRANCH   6  21
ATOM     21  O   UNL     1       9.229   0.461   1.614  1.00  0.00    -0.500 OA
ATOM     22  H   UNL     1       9.439   0.816   0.736  1.00  0.00     0.294 HD
ENDBRANCH   6  21
TORSDOF 5
ENDMDL
MODEL 4
REMARK VINA RESULT:    -4.657      3.590      4.493
REMARK INTER + INTRA:          -6.501
REMARK INTER:                  -5.500
REMARK INTRA:                  -1.001
REMARK UNBOUND:                -0.755
REMARK SMILES Cc1ccc(C(=O)c2cc(O)c(O)c([N+](=O)[O-])c2)cc1
REMARK SMILES IDX 8 1 18 2 9 3 14 4 10 5 12 6 6 7 7 8 5 9 4 10 19 11 3 12
REMARK SMILES IDX 20 13 2 14 1 15 15 16 17 17 16 18 11 19 13 21
REMARK H PARENT 11 20 13 22
ROOT
ATOM      1  C   UNL     1      10.880   2.463   6.309  1.00  0.00     0.033 A 
ATOM      2  C   UNL     1      10.144   1.928   5.278  1.00  0.00     0.102 A 
ATOM      3  C   UNL     1      10.324   2.827   7.513  1.00  0.00     0.063 A 
ATOM      4  C   UNL     1       8.774   1.746   5.461  1.00  0.00     0.315 A 
ATOM      5  C   UNL     1       8.953   2.646   7.696  1.00  0.00     0.165 A 
ATOM      6  C   UNL     1       8.177   2.104   6.670  1.00  0.00     0.237 A 
ENDROOT
BRANCH   1   7
ATOM      7  C   UNL     1      12.348   2.659   6.113  1.00  0.00     0.193 C 
ATOM      8  O   UNL     1      12.706   3.612   5.404  1.00  0.00    -0.289 OA
BRANCH   7   9
ATOM      9  C   UNL     1      13.339   1.784   6.718  1.00  0.00     0.023 A 
ATOM     10  C   UNL     1      13.283   0.408   6.495  1.00  0.00     0.012 A 
ATOM     11  C   UNL     1      14.346   2.319   7.521  1.00  0.00     0.012 A 
ATOM     12  C   UNL     1      14.234  -0.432   7.075  1.00  0.00     0.004 A 
ATOM     13  C   UNL     1      15.298   1.480   8.102  1.00  0.00     0.004 A 
ATOM     14  C   UNL     1      15.242   0.104   7.879  1.00  0.00    -0.051 A 
ATOM     15  C   UNL     1      16.257  -0.794   8.500  1.00  0.00     0.044 C 
ENDBRANCH   7   9
ENDBRANCH   1   7
BRANCH   4  16
ATOM     16  N   UNL     1       8.000   1.193   4.404  1.00  0.00     0.066 N 
ATOM     17  O   UNL     1       6.815   1.578   4.254  1.00  0.00    -0.258 OA
ATOM     18  O   UNL     1       8.524   0.339   3.652  1.00  0.00    -0.258 OA
ENDBRANCH   4  16
BRANCH   5  19
ATOM     19  O   UNL     1       8.384   3.000   8.882  1.00  0.00    -0.504 OA
ATOM     20  H   UNL     1       8.416   2.247   9.496  1.00  0.00     0.293 HD
ENDBRANCH   5  19
BRANCH   6  21
ATOM     21  O   UNL     1       6.838   1.931   6.861  1.00  0.00    -0.500 OA
ATOM     22  H   UNL     1       6.349   2.320   6.119  1.00  0.00     0.294 HD
ENDBRANCH   6  21
TORSDOF 5
ENDMDL
MODEL 5
REMARK VINA RESULT:    -4.652      3.496      7.128
REMARK INTER + INTRA:          -6.494
REMARK INTER:                  -5.578
REMARK INTRA:                  -0.916
REMARK UNBOUND:                -0.755
REMARK SMILES Cc1ccc(C(=O)c2cc(O)c(O)c([N+](=O)[O-])c2)cc1
REMARK SMILES IDX 8 1 18 2 9 3 14 4 10 5 12 6 6 7 7 8 5 9 4 10 19 11 3 12
REMARK SMILES IDX 20 13 2 14 1 15 15 16 17 17 16 18 11 19 13 21
REMARK H PARENT 11 20 13 22
ROOT
ATOM      1  C   UNL     1      11.493   2.380   4.526  1.00  0.00     0.033 A 
ATOM      2  C   UNL     1      12.135   1.721   5.549  1.00  0.00     0.102 A 
ATOM      3  C   UNL     1      11.833   3.651   4.129  1.00  0.00     0.063 A 
ATOM      4  C   UNL     1      13.175   2.371   6.212  1.00  0.00     0.315 A 
ATOM      5  C   UNL     1      12.873   4.302   4.792  1.00  0.00     0.165 A 
ATOM      6  C   UNL     1      13.545   3.662   5.834  1.00  0.00     0.237 A 
ENDROOT
BRANCH   1   7
ATOM      7  C   UNL     1      10.378   1.684   3.816  1.00  0.00     0.193 C 
ATOM      8  O   UNL     1      10.463   1.585   2.582  1.00  0.00    -0.289 OA
BRANCH   7   9
ATOM      9  C   UNL     1       9.229   1.134   4.518  1.00  0.00     0.023 A 
ATOM     10  C   UNL     1       8.753  -0.135   4.190  1.00  0.00     0.012 A 
ATOM     11  C   UNL     1       8.604   1.877   5.519  1.00  0.00     0.012 A 
ATOM     12  C   UNL     1       7.651  -0.662   4.863  1.00  0.00     0.004 A 
ATOM     13  C   UNL     1       7.501   1.350   6.194  1.00  0.00     0.004 A 
ATOM     14  C   UNL     1       7.025   0.081   5.866  1.00  0.00    -0.051 A 
ATOM     15  C   UNL     1       5.846  -0.482   6.584  1.00  0.00     0.044 C 
ENDBRANCH   7   9
ENDBRANCH   1   7
BRANCH   4  16
ATOM     16  N   UNL     1      13.848   1.703   7.272  1.00  0.00     0.066 N 
ATOM     17  O   UNL     1      13.211   0.875   7.967  1.00  0.00    -0.258 OA
ATOM     18  O   UNL     1      15.057   1.959   7.479  1.00  0.00    -0.258 OA
ENDBRANCH   4  16
BRANCH   5  19
ATOM     19  O   UNL     1      13.224   5.563   4.412  1.00  0.00    -0.504 OA
ATOM     20  H   UNL     1      14.097   5.782   4.777  1.00  0.00     0.293 HD
ENDBRANCH   5  19
BRANCH   6  21
ATOM     21  O   UNL     1      14.562   4.308   6.475  1.00  0.00    -0.500 OA
ATOM     22  H   UNL     1      15.264   3.676   6.694  1.00  0.00     0.294 HD
ENDBRANCH   6  21
TORSDOF 5
ENDMDL
MODEL 6
REMARK VINA RESULT:    -4.650      1.644      2.926
REMARK INTER + INTRA:          -6.492
REMARK INTER:                  -5.742
REMARK INTRA:                  -0.750
REMARK UNBOUND:                -0.755
REMARK SMILES Cc1ccc(C(=O)c2cc(O)c(O)c([N+](=O)[O-])c2)cc1
REMARK SMILES IDX 8 1 18 2 9 3 14 4 10 5 12 6 6 7 7 8 5 9 4 10 19 11 3 12
REMARK SMILES IDX 20 13 2 14 1 15 15 16 17 17 16 18 11 19 13 21
REMARK H PARENT 11 20 13 22
ROOT
ATOM      1  C   UNL     1       8.470   0.669   3.097  1.00  0.00     0.033 A 
ATOM      2  C   UNL     1       7.975  -0.090   4.132  1.00  0.00     0.102 A 
ATOM      3  C   UNL     1       7.661   1.340   2.211  1.00  0.00     0.063 A 
ATOM      4  C   UNL     1       6.593  -0.183   4.290  1.00  0.00     0.315 A 
ATOM      5  C   UNL     1       6.278   1.246   2.367  1.00  0.00     0.165 A 
ATOM      6  C   UNL     1       5.743   0.485   3.408  1.00  0.00     0.237 A 
ENDROOT
BRANCH   1   7
ATOM      7  C   UNL     1       9.951   0.769   2.928  1.00  0.00     0.193 C 
ATOM      8  O   UNL     1      10.486  -0.012   2.126  1.00  0.00    -0.289 OA
BRANCH   7   9
ATOM      9  C   UNL     1      10.756   1.733   3.661  1.00  0.00     0.023 A 
ATOM     10  C   UNL     1      10.420   2.070   4.972  1.00  0.00     0.012 A 
ATOM     11  C   UNL     1      11.865   2.321   3.053  1.00  0.00     0.012 A 
ATOM     12  C   UNL     1      11.192   2.994   5.674  1.00  0.00     0.004 A 
ATOM     13  C   UNL     1      12.639   3.245   3.755  1.00  0.00     0.004 A 
ATOM     14  C   UNL     1      12.302   3.582   5.066  1.00  0.00    -0.051 A 
ATOM     15  C   UNL     1      13.127   4.571   5.817  1.00  0.00     0.044 C 
ENDBRANCH   7   9
ENDBRANCH   1   7
BRANCH   4  16
ATOM     16  N   UNL     1       6.067  -0.964   5.355  1.00  0.00     0.066 N 
ATOM     17  O   UNL     1       5.109  -1.741   5.122  1.00  0.00    -0.258 OA
ATOM     18  O   UNL     1       6.575  -0.854   6.495  1.00  0.00    -0.258 OA
ENDBRANCH   4  16
BRANCH   5  19
ATOM     19  O   UNL     1       5.460   1.905   1.499  1.00  0.00    -0.504 OA
ATOM     20  H   UNL     1       5.073   2.679   1.940  1.00  0.00     0.293 HD
ENDBRANCH   5  19
BRANCH   6  21
ATOM     21  O   UNL     1       4.389   0.402   3.551  1.00  0.00    -0.500 OA
ATOM     22  H   UNL     1       3.969   1.172   3.137  1.00  0.00     0.294 HD
ENDBRANCH   6  21
TORSDOF 5
ENDMDL
MODEL 7
REMARK VINA RESULT:    -4.601      3.724      6.832
REMARK INTER + INTRA:          -6.431
REMARK INTER:                  -5.459
REMARK INTRA:                  -0.972
REMARK UNBOUND:                -0.755
REMARK SMILES Cc1ccc(C(=O)c2cc(O)c(O)c([N+](=O)[O-])c2)cc1
REMARK SMILES IDX 8 1 18 2 9 3 14 4 10 5 12 6 6 7 7 8 5 9 4 10 19 11 3 12
REMARK SMILES IDX 20 13 2 14 1 15 15 16 17 17 16 18 11 19 13 21
REMARK H PARENT 11 20 13 22
ROOT
ATOM      1  C   UNL     1      11.628   2.293   4.888  1.00  0.00     0.033 A 
ATOM      2  C   UNL     1      12.070   3.586   4.732  1.00  0.00     0.102 A 
ATOM      3  C   UNL     1      12.227   1.397   5.742  1.00  0.00     0.063 A 
ATOM      4  C   UNL     1      13.175   4.007   5.472  1.00  0.00     0.315 A 
ATOM      5  C   UNL     1      13.332   1.818   6.482  1.00  0.00     0.165 A 
ATOM      6  C   UNL     1      13.806   3.124   6.347  1.00  0.00     0.237 A 
ENDROOT
BRANCH   1   7
ATOM      7  C   UNL     1      10.445   1.841   4.095  1.00  0.00     0.193 C 
ATOM      8  O   UNL     1      10.493   1.993   2.865  1.00  0.00    -0.289 OA
BRANCH   7   9
ATOM      9  C   UNL     1       9.272   1.245   4.715  1.00  0.00     0.023 A 
ATOM     10  C   UNL     1       8.588   1.932   5.718  1.00  0.00     0.012 A 
ATOM     11  C   UNL     1       8.831  -0.013   4.306  1.00  0.00     0.012 A 
ATOM     12  C   UNL     1       7.463   1.360   6.312  1.00  0.00     0.004 A 
ATOM     13  C   UNL     1       7.706  -0.586   4.900  1.00  0.00     0.004 A 
ATOM     14  C   UNL     1       7.021   0.101   5.903  1.00  0.00    -0.051 A 
ATOM     15  C   UNL     1       5.820  -0.510   6.539  1.00  0.00     0.044 C 
ENDBRANCH   7   9
ENDBRANCH   1   7
BRANCH   4  16
ATOM     16  N   UNL     1      13.643   5.341   5.321  1.00  0.00     0.066 N 
ATOM     17  O   UNL     1      12.832   6.233   4.973  1.00  0.00    -0.258 OA
ATOM     18  O   UNL     1      14.852   5.587   5.541  1.00  0.00    -0.258 OA
ENDBRANCH   4  16
BRANCH   5  19
ATOM     19  O   UNL     1      13.939   0.944   7.334  1.00  0.00    -0.504 OA
ATOM     20  H   UNL     1      13.867   1.274   8.244  1.00  0.00     0.293 HD
ENDBRANCH   5  19
BRANCH   6  21
ATOM     21  O   UNL     1      14.887   3.524   7.077  1.00  0.00    -0.500 OA
ATOM     22  H   UNL     1      14.595   4.079   7.817  1.00  0.00     0.294 HD
ENDBRANCH   6  21
TORSDOF 5
ENDMDL
MODEL 8
REMARK VINA RESULT:    -4.585      3.623      6.507
REMARK INTER + INTRA:          -6.412
REMARK INTER:                  -5.526
REMARK INTRA:                  -0.886
REMARK UNBOUND:                -0.755
REMARK SMILES Cc1ccc(C(=O)c2cc(O)c(O)c([N+](=O)[O-])c2)cc1
REMARK SMILES IDX 8 1 18 2 9 3 14 4 10 5 12 6 6 7 7 8 5 9 4 10 19 11 3 12
REMARK SMILES IDX 20 13 2 14 1 15 15 16 17 17 16 18 11 19 13 21
REMARK H PARENT 11 20 13 22
ROOT
ATOM      1  C   UNL     1      10.863   2.329   6.228  1.00  0.00     0.033 A 
ATOM      2  C   UNL     1      11.472   3.408   5.629  1.00  0.00     0.102 A 
ATOM      3  C   UNL     1      11.544   1.426   7.010  1.00  0.00     0.063 A 
ATOM      4  C   UNL     1      12.840   3.594   5.825  1.00  0.00     0.315 A 
ATOM      5  C   UNL     1      12.913   1.612   7.205  1.00  0.00     0.165 A 
ATOM      6  C   UNL     1      13.561   2.697   6.613  1.00  0.00     0.237 A 
ENDROOT
BRANCH   1   7
ATOM      7  C   UNL     1       9.397   2.129   6.018  1.00  0.00     0.193 C 
ATOM      8  O   UNL     1       8.682   2.058   7.030  1.00  0.00    -0.289 OA
BRANCH   7   9
ATOM      9  C   UNL     1       8.806   2.020   4.694  1.00  0.00     0.023 A 
ATOM     10  C   UNL     1       9.462   1.299   3.696  1.00  0.00     0.012 A 
ATOM     11  C   UNL     1       7.585   2.634   4.422  1.00  0.00     0.012 A 
ATOM     12  C   UNL     1       8.895   1.194   2.426  1.00  0.00     0.004 A 
ATOM     13  C   UNL     1       7.017   2.529   3.152  1.00  0.00     0.004 A 
ATOM     14  C   UNL     1       7.672   1.809   2.153  1.00  0.00    -0.051 A 
ATOM     15  C   UNL     1       7.068   1.697   0.795  1.00  0.00     0.044 C 
ENDBRANCH   7   9
ENDBRANCH   1   7
BRANCH   4  16
ATOM     16  N   UNL     1      13.484   4.704   5.213  1.00  0.00     0.066 N 
ATOM     17  O   UNL     1      13.040   5.136   4.121  1.00  0.00    -0.258 OA
ATOM     18  O   UNL     1      14.474   5.220   5.782  1.00  0.00    -0.258 OA
ENDBRANCH   4  16
BRANCH   5  19
ATOM     19  O   UNL     1      13.604   0.728   7.977  1.00  0.00    -0.504 OA
ATOM     20  H   UNL     1      14.300   1.198   8.466  1.00  0.00     0.293 HD
ENDBRANCH   5  19
BRANCH   6  21
ATOM     21  O   UNL     1      14.900   2.868   6.811  1.00  0.00    -0.500 OA
ATOM     22  H   UNL     1      15.396   2.354   6.155  1.00  0.00     0.294 HD
ENDBRANCH   6  21
TORSDOF 5
ENDMDL
MODEL 9
REMARK VINA RESULT:    -4.404      2.196      3.523
REMARK INTER + INTRA:          -6.188
REMARK INTER:                  -5.240
REMARK INTRA:                  -0.949
REMARK UNBOUND:                -0.755
REMARK SMILES Cc1ccc(C(=O)c2cc(O)c(O)c([N+](=O)[O-])c2)cc1
REMARK SMILES IDX 8 1 18 2 9 3 14 4 10 5 12 6 6 7 7 8 5 9 4 10 19 11 3 12
REMARK SMILES IDX 20 13 2 14 1 15 15 16 17 17 16 18 11 19 13 21
REMARK H PARENT 11 20 13 22
ROOT
ATOM      1  C   UNL     1      10.582   2.555   5.651  1.00  0.00     0.033 A 
ATOM      2  C   UNL     1       9.651   2.088   4.752  1.00  0.00     0.102 A 
ATOM      3  C   UNL     1      10.286   2.802   6.970  1.00  0.00     0.063 A 
ATOM      4  C   UNL     1       8.351   1.855   5.199  1.00  0.00     0.315 A 
ATOM      5  C   UNL     1       8.985   2.569   7.417  1.00  0.00     0.165 A 
ATOM      6  C   UNL     1       8.017   2.095   6.531  1.00  0.00     0.237 A 
ENDROOT
BRANCH   1   7
ATOM      7  C   UNL     1      11.975   2.805   5.173  1.00  0.00     0.193 C 
ATOM      8  O   UNL     1      12.635   1.822   4.803  1.00  0.00    -0.289 OA
BRANCH   7   9
ATOM      9  C   UNL     1      12.558   4.136   5.131  1.00  0.00     0.023 A 
ATOM     10  C   UNL     1      11.789   5.221   4.711  1.00  0.00     0.012 A 
ATOM     11  C   UNL     1      13.886   4.329   5.512  1.00  0.00     0.012 A 
ATOM     12  C   UNL     1      12.348   6.498   4.671  1.00  0.00     0.004 A 
ATOM     13  C   UNL     1      14.446   5.606   5.473  1.00  0.00     0.004 A 
ATOM     14  C   UNL     1      13.676   6.692   5.052  1.00  0.00    -0.051 A 
ATOM     15  C   UNL     1      14.274   8.057   5.009  1.00  0.00     0.044 C 
ENDBRANCH   7   9
ENDBRANCH   1   7
BRANCH   4  16
ATOM     16  N   UNL     1       7.378   1.372   4.281  1.00  0.00     0.066 N 
ATOM     17  O   UNL     1       6.468   0.617   4.702  1.00  0.00    -0.258 OA
ATOM     18  O   UNL     1       7.457   1.715   3.078  1.00  0.00    -0.258 OA
ENDBRANCH   4  16
BRANCH   5  19
ATOM     19  O   UNL     1       8.673   2.808   8.722  1.00  0.00    -0.504 OA
ATOM     20  H   UNL     1       7.730   3.028   8.797  1.00  0.00     0.293 HD
ENDBRANCH   5  19
BRANCH   6  21
ATOM     21  O   UNL     1       6.748   1.871   6.980  1.00  0.00    -0.500 OA
ATOM     22  H   UNL     1       6.666   2.183   7.895  1.00  0.00     0.294 HD
ENDBRANCH   6  21
TORSDOF 5
ENDMDL
