MODEL 1
REMARK VINA RESULT:    -6.986      0.000      0.000
REMARK INTER + INTRA:          -8.821
REMARK INTER:                  -8.211
REMARK INTRA:                  -0.609
REMARK UNBOUND:                -0.609
REMARK SMILES O=C(O)c1cc(-c2ccc(F)cc2F)ccc1O
REMARK SMILES IDX 6 1 5 2 15 3 4 4 17 5 16 6 7 7 13 8 12 9 8 10 10 11 9 12
REMARK SMILES IDX 14 13 11 14 2 15 1 16 3 17 18 19
REMARK H PARENT 3 18 18 20
ROOT
ATOM      1  C   UNL     1       8.548   1.377   4.423  1.00  0.00    -0.014 A 
ATOM      2  C   UNL     1       7.800   0.577   5.287  1.00  0.00     0.028 A 
ATOM      3  C   UNL     1       8.042   1.707   3.166  1.00  0.00     0.013 A 
ATOM      4  C   UNL     1       6.546   0.108   4.894  1.00  0.00     0.102 A 
ATOM      5  C   UNL     1       6.041   0.438   3.637  1.00  0.00     0.130 A 
ATOM      6  C   UNL     1       6.789   1.238   2.772  1.00  0.00     0.048 A 
ENDROOT
BRANCH   1   7
ATOM      7  C   UNL     1       9.849   1.863   4.829  1.00  0.00     0.018 A 
ATOM      8  C   UNL     1      10.933   1.775   3.956  1.00  0.00     0.133 A 
ATOM      9  C   UNL     1      12.186   2.245   4.352  1.00  0.00     0.079 A 
ATOM     10  C   UNL     1      10.016   2.422   6.096  1.00  0.00     0.015 A 
ATOM     11  C   UNL     1      12.354   2.802   5.619  1.00  0.00     0.126 A 
ATOM     12  C   UNL     1      11.268   2.891   6.490  1.00  0.00     0.040 A 
ATOM     13  F   UNL     1      10.790   1.238   2.736  1.00  0.00    -0.206 F 
ATOM     14  F   UNL     1      13.556   3.254   5.999  1.00  0.00    -0.207 F 
ENDBRANCH   1   7
BRANCH   4  15
ATOM     15  C   UNL     1       5.781  -0.726   5.812  1.00  0.00     0.339 C 
ATOM     16  O   UNL     1       5.245  -1.798   5.523  1.00  0.00    -0.246 OA
BRANCH  15  17
ATOM     17  O   UNL     1       5.712  -0.192   7.062  1.00  0.00    -0.478 OA
ATOM     18  H   UNL     1       6.602   0.007   7.423  1.00  0.00     0.297 HD
ENDBRANCH  15  17
ENDBRANCH   4  15
BRANCH   5  19
ATOM     19  O   UNL     1       4.818  -0.010   3.235  1.00  0.00    -0.507 OA
ATOM     20  H   UNL     1       4.127   0.511   3.679  1.00  0.00     0.293 HD
ENDBRANCH   5  19
TORSDOF 4
ENDMDL
MODEL 2
REMARK VINA RESULT:    -6.983      1.128      1.610
REMARK INTER + INTRA:          -8.817
REMARK INTER:                  -8.212
REMARK INTRA:                  -0.604
REMARK UNBOUND:                -0.609
REMARK SMILES O=C(O)c1cc(-c2ccc(F)cc2F)ccc1O
REMARK SMILES IDX 6 1 5 2 15 3 4 4 17 5 16 6 7 7 13 8 12 9 8 10 10 11 9 12
REMARK SMILES IDX 14 13 11 14 2 15 1 16 3 17 18 19
REMARK H PARENT 3 18 18 20
ROOT
ATOM      1  C   UNL     1       8.539   1.416   4.470  1.00  0.00    -0.014 A 
ATOM      2  C   UNL     1       7.791   0.605   5.321  1.00  0.00     0.028 A 
ATOM      3  C   UNL     1       8.038   1.760   3.214  1.00  0.00     0.013 A 
ATOM      4  C   UNL     1       6.539   0.137   4.918  1.00  0.00     0.102 A 
ATOM      5  C   UNL     1       6.038   0.481   3.663  1.00  0.00     0.130 A 
ATOM      6  C   UNL     1       6.788   1.293   2.811  1.00  0.00     0.048 A 
ENDROOT
BRANCH   1   7
ATOM      7  C   UNL     1       9.838   1.901   4.887  1.00  0.00     0.018 A 
ATOM      8  C   UNL     1      10.009   2.435   6.164  1.00  0.00     0.133 A 
ATOM      9  C   UNL     1      11.262   2.901   6.562  1.00  0.00     0.079 A 
ATOM     10  C   UNL     1      10.919   1.831   4.009  1.00  0.00     0.015 A 
ATOM     11  C   UNL     1      12.343   2.833   5.684  1.00  0.00     0.126 A 
ATOM     12  C   UNL     1      12.171   2.297   4.408  1.00  0.00     0.040 A 
ATOM     13  F   UNL     1       8.979   2.512   7.019  1.00  0.00    -0.206 F 
ATOM     14  F   UNL     1      13.546   3.280   6.065  1.00  0.00    -0.207 F 
ENDBRANCH   1   7
BRANCH   4  15
ATOM     15  C   UNL     1       5.773  -0.709   5.822  1.00  0.00     0.339 C 
ATOM     16  O   UNL     1       5.257  -1.788   5.524  1.00  0.00    -0.246 OA
BRANCH  15  17
ATOM     17  O   UNL     1       5.676  -0.178   7.072  1.00  0.00    -0.478 OA
ATOM     18  H   UNL     1       5.876  -0.841   7.766  1.00  0.00     0.297 HD
ENDBRANCH  15  17
ENDBRANCH   4  15
BRANCH   5  19
ATOM     19  O   UNL     1       4.818   0.035   3.250  1.00  0.00    -0.507 OA
ATOM     20  H   UNL     1       4.543   0.542   2.466  1.00  0.00     0.293 HD
ENDBRANCH   5  19
TORSDOF 4
ENDMDL
MODEL 3
REMARK VINA RESULT:    -6.930      1.379      2.791
REMARK INTER + INTRA:          -8.754
REMARK INTER:                  -7.927
REMARK INTRA:                  -0.828
REMARK UNBOUND:                -0.609
REMARK SMILES O=C(O)c1cc(-c2ccc(F)cc2F)ccc1O
REMARK SMILES IDX 6 1 5 2 15 3 4 4 17 5 16 6 7 7 13 8 12 9 8 10 10 11 9 12
REMARK SMILES IDX 14 13 11 14 2 15 1 16 3 17 18 19
REMARK H PARENT 3 18 18 20
ROOT
ATOM      1  C   UNL     1       8.649   1.384   4.278  1.00  0.00    -0.014 A 
ATOM      2  C   UNL     1       8.142   1.939   3.104  1.00  0.00     0.028 A 
ATOM      3  C   UNL     1       7.930   0.397   4.951  1.00  0.00     0.013 A 
ATOM      4  C   UNL     1       6.913   1.507   2.602  1.00  0.00     0.102 A 
ATOM      5  C   UNL     1       6.194   0.520   3.275  1.00  0.00     0.130 A 
ATOM      6  C   UNL     1       6.702  -0.035   4.451  1.00  0.00     0.048 A 
ENDROOT
BRANCH   1   7
ATOM      7  C   UNL     1       9.923   1.833   4.799  1.00  0.00     0.018 A 
ATOM      8  C   UNL     1      11.065   1.779   4.000  1.00  0.00     0.133 A 
ATOM      9  C   UNL     1      12.291   2.212   4.507  1.00  0.00     0.079 A 
ATOM     10  C   UNL     1      10.006   2.320   6.103  1.00  0.00     0.015 A 
ATOM     11  C   UNL     1      12.374   2.698   5.811  1.00  0.00     0.126 A 
ATOM     12  C   UNL     1      11.231   2.753   6.609  1.00  0.00     0.040 A 
ATOM     13  F   UNL     1      11.003   1.311   2.745  1.00  0.00    -0.206 F 
ATOM     14  F   UNL     1      13.550   3.114   6.298  1.00  0.00    -0.207 F 
ENDBRANCH   1   7
BRANCH   4  15
ATOM     15  C   UNL     1       6.401   2.099   1.374  1.00  0.00     0.339 C 
ATOM     16  O   UNL     1       5.216   2.113   1.029  1.00  0.00    -0.246 OA
BRANCH  15  17
ATOM     17  O   UNL     1       7.385   2.654   0.616  1.00  0.00    -0.478 OA
ATOM     18  H   UNL     1       8.276   2.383   0.920  1.00  0.00     0.297 HD
ENDBRANCH  15  17
ENDBRANCH   4  15
BRANCH   5  19
ATOM     19  O   UNL     1       4.992   0.084   2.802  1.00  0.00    -0.507 OA
ATOM     20  H   UNL     1       4.278   0.509   3.308  1.00  0.00     0.293 HD
ENDBRANCH   5  19
TORSDOF 4
ENDMDL
MODEL 4
REMARK VINA RESULT:    -6.905      1.774      3.213
REMARK INTER + INTRA:          -8.726
REMARK INTER:                  -7.904
REMARK INTRA:                  -0.822
REMARK UNBOUND:                -0.609
REMARK SMILES O=C(O)c1cc(-c2ccc(F)cc2F)ccc1O
REMARK SMILES IDX 6 1 5 2 15 3 4 4 17 5 16 6 7 7 13 8 12 9 8 10 10 11 9 12
REMARK SMILES IDX 14 13 11 14 2 15 1 16 3 17 18 19
REMARK H PARENT 3 18 18 20
ROOT
ATOM      1  C   UNL     1       8.620   1.408   4.308  1.00  0.00    -0.014 A 
ATOM      2  C   UNL     1       8.121   1.956   3.127  1.00  0.00     0.028 A 
ATOM      3  C   UNL     1       7.897   0.422   4.979  1.00  0.00     0.013 A 
ATOM      4  C   UNL     1       6.899   1.518   2.616  1.00  0.00     0.102 A 
ATOM      5  C   UNL     1       6.176   0.532   3.287  1.00  0.00     0.130 A 
ATOM      6  C   UNL     1       6.675  -0.016   4.470  1.00  0.00     0.048 A 
ENDROOT
BRANCH   1   7
ATOM      7  C   UNL     1       9.887   1.863   4.839  1.00  0.00     0.018 A 
ATOM      8  C   UNL     1       9.964   2.356   6.142  1.00  0.00     0.133 A 
ATOM      9  C   UNL     1      11.187   2.794   6.650  1.00  0.00     0.079 A 
ATOM     10  C   UNL     1      11.033   1.806   4.046  1.00  0.00     0.015 A 
ATOM     11  C   UNL     1      12.333   2.737   5.857  1.00  0.00     0.126 A 
ATOM     12  C   UNL     1      12.255   2.243   4.555  1.00  0.00     0.040 A 
ATOM     13  F   UNL     1       8.871   2.421   6.917  1.00  0.00    -0.206 F 
ATOM     14  F   UNL     1      13.507   3.157   6.344  1.00  0.00    -0.207 F 
ENDBRANCH   1   7
BRANCH   4  15
ATOM     15  C   UNL     1       6.396   2.103   1.381  1.00  0.00     0.339 C 
ATOM     16  O   UNL     1       5.214   2.118   1.029  1.00  0.00    -0.246 OA
BRANCH  15  17
ATOM     17  O   UNL     1       7.386   2.651   0.626  1.00  0.00    -0.478 OA
ATOM     18  H   UNL     1       7.040   3.033  -0.208  1.00  0.00     0.297 HD
ENDBRANCH  15  17
ENDBRANCH   4  15
BRANCH   5  19
ATOM     19  O   UNL     1       4.980   0.090   2.805  1.00  0.00    -0.507 OA
ATOM     20  H   UNL     1       4.264   0.438   3.364  1.00  0.00     0.293 HD
ENDBRANCH   5  19
TORSDOF 4
ENDMDL
MODEL 5
REMARK VINA RESULT:    -5.534      1.837      3.115
REMARK INTER + INTRA:          -7.114
REMARK INTER:                  -6.593
REMARK INTRA:                  -0.521
REMARK UNBOUND:                -0.609
REMARK SMILES O=C(O)c1cc(-c2ccc(F)cc2F)ccc1O
REMARK SMILES IDX 6 1 5 2 15 3 4 4 17 5 16 6 7 7 13 8 12 9 8 10 10 11 9 12
REMARK SMILES IDX 14 13 11 14 2 15 1 16 3 17 18 19
REMARK H PARENT 3 18 18 20
ROOT
ATOM      1  C   UNL     1       9.205   1.491   4.497  1.00  0.00    -0.014 A 
ATOM      2  C   UNL     1       8.874   1.853   3.192  1.00  0.00     0.028 A 
ATOM      3  C   UNL     1       8.313   0.735   5.258  1.00  0.00     0.013 A 
ATOM      4  C   UNL     1       7.651   1.461   2.647  1.00  0.00     0.102 A 
ATOM      5  C   UNL     1       6.759   0.705   3.408  1.00  0.00     0.130 A 
ATOM      6  C   UNL     1       7.091   0.341   4.715  1.00  0.00     0.048 A 
ENDROOT
BRANCH   1   7
ATOM      7  C   UNL     1      10.472   1.899   5.063  1.00  0.00     0.018 A 
ATOM      8  C   UNL     1      11.000   3.155   4.765  1.00  0.00     0.133 A 
ATOM      9  C   UNL     1      12.223   3.545   5.313  1.00  0.00     0.079 A 
ATOM     10  C   UNL     1      11.165   1.034   5.910  1.00  0.00     0.015 A 
ATOM     11  C   UNL     1      12.916   2.679   6.158  1.00  0.00     0.126 A 
ATOM     12  C   UNL     1      12.387   1.424   6.457  1.00  0.00     0.040 A 
ATOM     13  F   UNL     1      10.348   3.998   3.951  1.00  0.00    -0.206 F 
ATOM     14  F   UNL     1      14.090   3.053   6.685  1.00  0.00    -0.207 F 
ENDBRANCH   1   7
BRANCH   4  15
ATOM     15  C   UNL     1       7.324   1.849   1.282  1.00  0.00     0.339 C 
ATOM     16  O   UNL     1       7.283   3.008   0.861  1.00  0.00    -0.246 OA
BRANCH  15  17
ATOM     17  O   UNL     1       7.060   0.777   0.487  1.00  0.00    -0.478 OA
ATOM     18  H   UNL     1       6.974   1.034  -0.455  1.00  0.00     0.297 HD
ENDBRANCH  15  17
ENDBRANCH   4  15
BRANCH   5  19
ATOM     19  O   UNL     1       5.560   0.310   2.895  1.00  0.00    -0.507 OA
ATOM     20  H   UNL     1       5.228  -0.446   3.409  1.00  0.00     0.293 HD
ENDBRANCH   5  19
TORSDOF 4
ENDMDL
MODEL 6
REMARK VINA RESULT:    -5.395      4.445      6.738
REMARK INTER + INTRA:          -6.950
REMARK INTER:                  -5.871
REMARK INTRA:                  -1.079
REMARK UNBOUND:                -0.609
REMARK SMILES O=C(O)c1cc(-c2ccc(F)cc2F)ccc1O
REMARK SMILES IDX 6 1 5 2 15 3 4 4 17 5 16 6 7 7 13 8 12 9 8 10 10 11 9 12
REMARK SMILES IDX 14 13 11 14 2 15 1 16 3 17 18 19
REMARK H PARENT 3 18 18 20
ROOT
ATOM      1  C   UNL     1      10.986   2.297   5.015  1.00  0.00    -0.014 A 
ATOM      2  C   UNL     1      11.507   3.555   4.714  1.00  0.00     0.028 A 
ATOM      3  C   UNL     1      11.673   1.447   5.881  1.00  0.00     0.013 A 
ATOM      4  C   UNL     1      12.716   3.963   5.278  1.00  0.00     0.102 A 
ATOM      5  C   UNL     1      13.403   3.113   6.144  1.00  0.00     0.130 A 
ATOM      6  C   UNL     1      12.882   1.854   6.446  1.00  0.00     0.048 A 
ENDROOT
BRANCH   1   7
ATOM      7  C   UNL     1       9.733   1.873   4.429  1.00  0.00     0.018 A 
ATOM      8  C   UNL     1       9.716   1.275   3.168  1.00  0.00     0.133 A 
ATOM      9  C   UNL     1       8.505   0.868   2.607  1.00  0.00     0.079 A 
ATOM     10  C   UNL     1       8.541   2.061   5.128  1.00  0.00     0.015 A 
ATOM     11  C   UNL     1       7.314   1.057   3.305  1.00  0.00     0.126 A 
ATOM     12  C   UNL     1       7.332   1.653   4.566  1.00  0.00     0.040 A 
ATOM     13  F   UNL     1      10.853   1.090   2.482  1.00  0.00    -0.206 F 
ATOM     14  F   UNL     1       6.151   0.666   2.767  1.00  0.00    -0.207 F 
ENDBRANCH   1   7
BRANCH   4  15
ATOM     15  C   UNL     1      13.243   5.281   4.951  1.00  0.00     0.339 C 
ATOM     16  O   UNL     1      14.208   5.820   5.499  1.00  0.00    -0.246 OA
BRANCH  15  17
ATOM     17  O   UNL     1      12.548   5.883   3.948  1.00  0.00    -0.478 OA
ATOM     18  H   UNL     1      12.768   5.501   3.072  1.00  0.00     0.297 HD
ENDBRANCH  15  17
ENDBRANCH   4  15
BRANCH   5  19
ATOM     19  O   UNL     1      14.585   3.493   6.706  1.00  0.00    -0.507 OA
ATOM     20  H   UNL     1      14.407   3.921   7.562  1.00  0.00     0.293 HD
ENDBRANCH   5  19
TORSDOF 4
ENDMDL
MODEL 7
REMARK VINA RESULT:    -5.394      4.243      6.526
REMARK INTER + INTRA:          -6.950
REMARK INTER:                  -5.869
REMARK INTRA:                  -1.080
REMARK UNBOUND:                -0.609
REMARK SMILES O=C(O)c1cc(-c2ccc(F)cc2F)ccc1O
REMARK SMILES IDX 6 1 5 2 15 3 4 4 17 5 16 6 7 7 13 8 12 9 8 10 10 11 9 12
REMARK SMILES IDX 14 13 11 14 2 15 1 16 3 17 18 19
REMARK H PARENT 3 18 18 20
ROOT
ATOM      1  C   UNL     1      10.841   2.226   5.489  1.00  0.00    -0.014 A 
ATOM      2  C   UNL     1      11.721   1.484   6.277  1.00  0.00     0.028 A 
ATOM      3  C   UNL     1      11.223   3.477   5.005  1.00  0.00     0.013 A 
ATOM      4  C   UNL     1      12.983   1.994   6.582  1.00  0.00     0.102 A 
ATOM      5  C   UNL     1      13.365   3.245   6.098  1.00  0.00     0.130 A 
ATOM      6  C   UNL     1      12.485   3.987   5.310  1.00  0.00     0.048 A 
ENDROOT
BRANCH   1   7
ATOM      7  C   UNL     1       9.531   1.698   5.173  1.00  0.00     0.018 A 
ATOM      8  C   UNL     1       8.466   1.896   6.053  1.00  0.00     0.133 A 
ATOM      9  C   UNL     1       7.204   1.385   5.745  1.00  0.00     0.079 A 
ATOM     10  C   UNL     1       9.334   0.993   3.986  1.00  0.00     0.015 A 
ATOM     11  C   UNL     1       7.008   0.679   4.558  1.00  0.00     0.126 A 
ATOM     12  C   UNL     1       8.073   0.483   3.679  1.00  0.00     0.040 A 
ATOM     13  F   UNL     1       8.639   2.569   7.199  1.00  0.00    -0.206 F 
ATOM     14  F   UNL     1       5.798   0.189   4.262  1.00  0.00    -0.207 F 
ENDBRANCH   1   7
BRANCH   4  15
ATOM     15  C   UNL     1      13.887   1.204   7.406  1.00  0.00     0.339 C 
ATOM     16  O   UNL     1      15.064   1.485   7.646  1.00  0.00    -0.246 OA
BRANCH  15  17
ATOM     17  O   UNL     1      13.291   0.087   7.905  1.00  0.00    -0.478 OA
ATOM     18  H   UNL     1      13.850  -0.709   7.785  1.00  0.00     0.297 HD
ENDBRANCH  15  17
ENDBRANCH   4  15
BRANCH   5  19
ATOM     19  O   UNL     1      14.594   3.761   6.384  1.00  0.00    -0.507 OA
ATOM     20  H   UNL     1      15.277   3.199   5.978  1.00  0.00     0.293 HD
ENDBRANCH   5  19
TORSDOF 4
ENDMDL
MODEL 8
REMARK VINA RESULT:    -5.353      4.543      6.926
REMARK INTER + INTRA:          -6.901
REMARK INTER:                  -5.845
REMARK INTRA:                  -1.056
REMARK UNBOUND:                -0.609
REMARK SMILES O=C(O)c1cc(-c2ccc(F)cc2F)ccc1O
REMARK SMILES IDX 6 1 5 2 15 3 4 4 17 5 16 6 7 7 13 8 12 9 8 10 10 11 9 12
REMARK SMILES IDX 14 13 11 14 2 15 1 16 3 17 18 19
REMARK H PARENT 3 18 18 20
ROOT
ATOM      1  C   UNL     1      10.964   2.288   5.317  1.00  0.00    -0.014 A 
ATOM      2  C   UNL     1      11.433   3.541   4.923  1.00  0.00     0.028 A 
ATOM      3  C   UNL     1      11.745   1.480   6.144  1.00  0.00     0.013 A 
ATOM      4  C   UNL     1      12.682   3.986   5.355  1.00  0.00     0.102 A 
ATOM      5  C   UNL     1      13.463   3.178   6.181  1.00  0.00     0.130 A 
ATOM      6  C   UNL     1      12.994   1.924   6.576  1.00  0.00     0.048 A 
ENDROOT
BRANCH   1   7
ATOM      7  C   UNL     1       9.669   1.825   4.868  1.00  0.00     0.018 A 
ATOM      8  C   UNL     1       8.559   1.928   5.708  1.00  0.00     0.133 A 
ATOM      9  C   UNL     1       7.312   1.480   5.271  1.00  0.00     0.079 A 
ATOM     10  C   UNL     1       9.531   1.275   3.594  1.00  0.00     0.015 A 
ATOM     11  C   UNL     1       7.175   0.930   3.997  1.00  0.00     0.126 A 
ATOM     12  C   UNL     1       8.285   0.828   3.158  1.00  0.00     0.040 A 
ATOM     13  F   UNL     1       8.674   2.451   6.936  1.00  0.00    -0.206 F 
ATOM     14  F   UNL     1       5.978   0.500   3.577  1.00  0.00    -0.207 F 
ENDBRANCH   1   7
BRANCH   4  15
ATOM     15  C   UNL     1      13.153   5.298   4.932  1.00  0.00     0.339 C 
ATOM     16  O   UNL     1      14.047   5.946   5.482  1.00  0.00    -0.246 OA
BRANCH  15  17
ATOM     17  O   UNL     1      12.493   5.757   3.834  1.00  0.00    -0.478 OA
ATOM     18  H   UNL     1      11.814   6.423   4.069  1.00  0.00     0.297 HD
ENDBRANCH  15  17
ENDBRANCH   4  15
BRANCH   5  19
ATOM     19  O   UNL     1      14.686   3.595   6.615  1.00  0.00    -0.507 OA
ATOM     20  H   UNL     1      14.994   2.998   7.319  1.00  0.00     0.293 HD
ENDBRANCH   5  19
TORSDOF 4
ENDMDL
MODEL 9
REMARK VINA RESULT:    -4.553      2.081      3.290
REMARK INTER + INTRA:          -5.961
REMARK INTER:                  -5.069
REMARK INTRA:                  -0.892
REMARK UNBOUND:                -0.609
REMARK SMILES O=C(O)c1cc(-c2ccc(F)cc2F)ccc1O
REMARK SMILES IDX 6 1 5 2 15 3 4 4 17 5 16 6 7 7 13 8 12 9 8 10 10 11 9 12
REMARK SMILES IDX 14 13 11 14 2 15 1 16 3 17 18 19
REMARK H PARENT 3 18 18 20
ROOT
ATOM      1  C   UNL     1       9.894   1.930   5.235  1.00  0.00    -0.014 A 
ATOM      2  C   UNL     1       9.742   1.719   3.865  1.00  0.00     0.028 A 
ATOM      3  C   UNL     1       8.771   1.993   6.060  1.00  0.00     0.013 A 
ATOM      4  C   UNL     1       8.466   1.569   3.320  1.00  0.00     0.102 A 
ATOM      5  C   UNL     1       7.343   1.631   4.145  1.00  0.00     0.130 A 
ATOM      6  C   UNL     1       7.496   1.843   5.516  1.00  0.00     0.048 A 
ENDROOT
BRANCH   1   7
ATOM      7  C   UNL     1      11.216   2.087   5.802  1.00  0.00     0.018 A 
ATOM      8  C   UNL     1      12.031   3.145   5.397  1.00  0.00     0.133 A 
ATOM      9  C   UNL     1      13.305   3.292   5.945  1.00  0.00     0.079 A 
ATOM     10  C   UNL     1      11.675   1.179   6.755  1.00  0.00     0.015 A 
ATOM     11  C   UNL     1      13.764   2.383   6.898  1.00  0.00     0.126 A 
ATOM     12  C   UNL     1      12.948   1.327   7.303  1.00  0.00     0.040 A 
ATOM     13  F   UNL     1      11.606   4.025   4.479  1.00  0.00    -0.206 F 
ATOM     14  F   UNL     1      14.987   2.524   7.425  1.00  0.00    -0.207 F 
ENDBRANCH   1   7
BRANCH   4  15
ATOM     15  C   UNL     1       8.329   1.349   1.887  1.00  0.00     0.339 C 
ATOM     16  O   UNL     1       7.307   1.554   1.228  1.00  0.00    -0.246 OA
BRANCH  15  17
ATOM     17  O   UNL     1       9.475   0.880   1.322  1.00  0.00    -0.478 OA
ATOM     18  H   UNL     1      10.074   0.483   1.989  1.00  0.00     0.297 HD
ENDBRANCH  15  17
ENDBRANCH   4  15
BRANCH   5  19
ATOM     19  O   UNL     1       6.089   1.487   3.632  1.00  0.00    -0.507 OA
ATOM     20  H   UNL     1       6.125   1.608   2.667  1.00  0.00     0.293 HD
ENDBRANCH   5  19
TORSDOF 4
ENDMDL
