MODEL 1
REMARK VINA RESULT:    -6.806      0.000      0.000
REMARK INTER + INTRA:          -8.551
REMARK INTER:                  -8.000
REMARK INTRA:                  -0.551
REMARK UNBOUND:                -0.551
REMARK SMILES O=C(O)c1cc(-c2ccc(F)cc2F)ccc1O
REMARK SMILES IDX 6 1 5 2 15 3 4 4 17 5 16 6 7 7 13 8 12 9 8 10 10 11 9 12
REMARK SMILES IDX 14 13 11 14 2 15 1 16 3 17 18 19
REMARK H PARENT 3 18 18 20
ROOT
ATOM      1  C   UNL     1      -2.519  -7.634   0.557  1.00  0.00    -0.014 A 
ATOM      2  C   UNL     1      -1.559  -6.924  -0.163  1.00  0.00     0.028 A 
ATOM      3  C   UNL     1      -3.290  -6.984   1.520  1.00  0.00     0.013 A 
ATOM      4  C   UNL     1      -1.369  -5.563   0.080  1.00  0.00     0.102 A 
ATOM      5  C   UNL     1      -2.140  -4.913   1.043  1.00  0.00     0.130 A 
ATOM      6  C   UNL     1      -3.101  -5.624   1.764  1.00  0.00     0.048 A 
ENDROOT
BRANCH   1   7
ATOM      7  C   UNL     1      -2.715  -9.046   0.307  1.00  0.00     0.018 A 
ATOM      8  C   UNL     1      -2.741  -9.528  -1.003  1.00  0.00     0.133 A 
ATOM      9  C   UNL     1      -2.930 -10.890  -1.240  1.00  0.00     0.079 A 
ATOM     10  C   UNL     1      -2.877  -9.925   1.377  1.00  0.00     0.015 A 
ATOM     11  C   UNL     1      -3.093 -11.768  -0.169  1.00  0.00     0.126 A 
ATOM     12  C   UNL     1      -3.066 -11.286   1.139  1.00  0.00     0.040 A 
ATOM     13  F   UNL     1      -2.589  -8.696  -2.043  1.00  0.00    -0.206 F 
ATOM     14  F   UNL     1      -3.275 -13.076  -0.396  1.00  0.00    -0.207 F 
ENDBRANCH   1   7
BRANCH   4  15
ATOM     15  C   UNL     1      -0.361  -4.840  -0.683  1.00  0.00     0.339 C 
ATOM     16  O   UNL     1       0.538  -4.148  -0.201  1.00  0.00    -0.246 OA
BRANCH  15  17
ATOM     17  O   UNL     1      -0.510  -5.006  -2.026  1.00  0.00    -0.478 OA
ATOM     18  H   UNL     1      -0.625  -5.949  -2.266  1.00  0.00     0.297 HD
ENDBRANCH  15  17
ENDBRANCH   4  15
BRANCH   5  19
ATOM     19  O   UNL     1      -1.971  -3.584   1.295  1.00  0.00    -0.507 OA
ATOM     20  H   UNL     1      -1.233  -3.251   0.757  1.00  0.00     0.293 HD
ENDBRANCH   5  19
TORSDOF 4
ENDMDL
MODEL 2
REMARK VINA RESULT:    -6.789      1.140      1.616
REMARK INTER + INTRA:          -8.532
REMARK INTER:                  -7.994
REMARK INTRA:                  -0.537
REMARK UNBOUND:                -0.551
REMARK SMILES O=C(O)c1cc(-c2ccc(F)cc2F)ccc1O
REMARK SMILES IDX 6 1 5 2 15 3 4 4 17 5 16 6 7 7 13 8 12 9 8 10 10 11 9 12
REMARK SMILES IDX 14 13 11 14 2 15 1 16 3 17 18 19
REMARK H PARENT 3 18 18 20
ROOT
ATOM      1  C   UNL     1      -2.490  -7.623   0.630  1.00  0.00    -0.014 A 
ATOM      2  C   UNL     1      -1.541  -6.921  -0.112  1.00  0.00     0.028 A 
ATOM      3  C   UNL     1      -3.253  -6.960   1.591  1.00  0.00     0.013 A 
ATOM      4  C   UNL     1      -1.354  -5.556   0.107  1.00  0.00     0.102 A 
ATOM      5  C   UNL     1      -2.117  -4.893   1.068  1.00  0.00     0.130 A 
ATOM      6  C   UNL     1      -3.067  -5.596   1.810  1.00  0.00     0.048 A 
ENDROOT
BRANCH   1   7
ATOM      7  C   UNL     1      -2.684  -9.039   0.404  1.00  0.00     0.018 A 
ATOM      8  C   UNL     1      -2.821  -9.909   1.487  1.00  0.00     0.133 A 
ATOM      9  C   UNL     1      -3.007 -11.273   1.265  1.00  0.00     0.079 A 
ATOM     10  C   UNL     1      -2.735  -9.534  -0.899  1.00  0.00     0.015 A 
ATOM     11  C   UNL     1      -3.057 -11.768  -0.038  1.00  0.00     0.126 A 
ATOM     12  C   UNL     1      -2.922 -10.898  -1.120  1.00  0.00     0.040 A 
ATOM     13  F   UNL     1      -2.771  -9.450   2.745  1.00  0.00    -0.206 F 
ATOM     14  F   UNL     1      -3.236 -13.078  -0.252  1.00  0.00    -0.207 F 
ENDBRANCH   1   7
BRANCH   4  15
ATOM     15  C   UNL     1      -0.357  -4.841  -0.679  1.00  0.00     0.339 C 
ATOM     16  O   UNL     1       0.560  -4.158  -0.217  1.00  0.00    -0.246 OA
BRANCH  15  17
ATOM     17  O   UNL     1      -0.538  -5.005  -2.018  1.00  0.00    -0.478 OA
ATOM     18  H   UNL     1      -1.313  -5.572  -2.214  1.00  0.00     0.297 HD
ENDBRANCH  15  17
ENDBRANCH   4  15
BRANCH   5  19
ATOM     19  O   UNL     1      -1.950  -3.560   1.297  1.00  0.00    -0.507 OA
ATOM     20  H   UNL     1      -1.005  -3.378   1.441  1.00  0.00     0.293 HD
ENDBRANCH   5  19
TORSDOF 4
ENDMDL
MODEL 3
REMARK VINA RESULT:    -6.757      1.741      3.221
REMARK INTER + INTRA:          -8.493
REMARK INTER:                  -7.781
REMARK INTRA:                  -0.712
REMARK UNBOUND:                -0.551
REMARK SMILES O=C(O)c1cc(-c2ccc(F)cc2F)ccc1O
REMARK SMILES IDX 6 1 5 2 15 3 4 4 17 5 16 6 7 7 13 8 12 9 8 10 10 11 9 12
REMARK SMILES IDX 14 13 11 14 2 15 1 16 3 17 18 19
REMARK H PARENT 3 18 18 20
ROOT
ATOM      1  C   UNL     1      -2.509  -7.770   0.723  1.00  0.00    -0.014 A 
ATOM      2  C   UNL     1      -3.387  -7.177   1.628  1.00  0.00     0.028 A 
ATOM      3  C   UNL     1      -1.488  -7.015   0.144  1.00  0.00     0.013 A 
ATOM      4  C   UNL     1      -3.246  -5.828   1.957  1.00  0.00     0.102 A 
ATOM      5  C   UNL     1      -2.226  -5.073   1.378  1.00  0.00     0.130 A 
ATOM      6  C   UNL     1      -1.347  -5.667   0.472  1.00  0.00     0.048 A 
ENDROOT
BRANCH   1   7
ATOM      7  C   UNL     1      -2.655  -9.168   0.381  1.00  0.00     0.018 A 
ATOM      8  C   UNL     1      -2.802 -10.124   1.387  1.00  0.00     0.133 A 
ATOM      9  C   UNL     1      -2.942 -11.471   1.053  1.00  0.00     0.079 A 
ATOM     10  C   UNL     1      -2.650  -9.560  -0.958  1.00  0.00     0.015 A 
ATOM     11  C   UNL     1      -2.937 -11.863  -0.285  1.00  0.00     0.126 A 
ATOM     12  C   UNL     1      -2.791 -10.906  -1.290  1.00  0.00     0.040 A 
ATOM     13  F   UNL     1      -2.805  -9.765   2.679  1.00  0.00    -0.206 F 
ATOM     14  F   UNL     1      -3.072 -13.155  -0.606  1.00  0.00    -0.207 F 
ENDBRANCH   1   7
BRANCH   4  15
ATOM     15  C   UNL     1      -4.174  -5.228   2.905  1.00  0.00     0.339 C 
ATOM     16  O   UNL     1      -4.594  -4.069   2.857  1.00  0.00    -0.246 OA
BRANCH  15  17
ATOM     17  O   UNL     1      -4.550  -6.096   3.883  1.00  0.00    -0.478 OA
ATOM     18  H   UNL     1      -4.856  -6.951   3.515  1.00  0.00     0.297 HD
ENDBRANCH  15  17
ENDBRANCH   4  15
BRANCH   5  19
ATOM     19  O   UNL     1      -2.071  -3.754   1.686  1.00  0.00    -0.507 OA
ATOM     20  H   UNL     1      -2.046  -3.655   2.654  1.00  0.00     0.293 HD
ENDBRANCH   5  19
TORSDOF 4
ENDMDL
MODEL 4
REMARK VINA RESULT:    -5.472      4.264      6.538
REMARK INTER + INTRA:          -6.983
REMARK INTER:                  -5.932
REMARK INTRA:                  -1.051
REMARK UNBOUND:                -0.551
REMARK SMILES O=C(O)c1cc(-c2ccc(F)cc2F)ccc1O
REMARK SMILES IDX 6 1 5 2 15 3 4 4 17 5 16 6 7 7 13 8 12 9 8 10 10 11 9 12
REMARK SMILES IDX 14 13 11 14 2 15 1 16 3 17 18 19
REMARK H PARENT 3 18 18 20
ROOT
ATOM      1  C   UNL     1      -2.892 -10.381   0.149  1.00  0.00    -0.014 A 
ATOM      2  C   UNL     1      -1.809 -11.188  -0.196  1.00  0.00     0.028 A 
ATOM      3  C   UNL     1      -4.173 -10.929   0.226  1.00  0.00     0.013 A 
ATOM      4  C   UNL     1      -2.005 -12.543  -0.465  1.00  0.00     0.102 A 
ATOM      5  C   UNL     1      -3.286 -13.091  -0.388  1.00  0.00     0.130 A 
ATOM      6  C   UNL     1      -4.370 -12.283  -0.042  1.00  0.00     0.048 A 
ENDROOT
BRANCH   1   7
ATOM      7  C   UNL     1      -2.690  -8.976   0.427  1.00  0.00     0.018 A 
ATOM      8  C   UNL     1      -2.596  -8.528   1.745  1.00  0.00     0.133 A 
ATOM      9  C   UNL     1      -2.401  -7.172   2.008  1.00  0.00     0.079 A 
ATOM     10  C   UNL     1      -2.588  -8.068  -0.627  1.00  0.00     0.015 A 
ATOM     11  C   UNL     1      -2.300  -6.265   0.954  1.00  0.00     0.126 A 
ATOM     12  C   UNL     1      -2.393  -6.713  -0.363  1.00  0.00     0.040 A 
ATOM     13  F   UNL     1      -2.694  -9.387   2.769  1.00  0.00    -0.206 F 
ATOM     14  F   UNL     1      -2.112  -4.963   1.206  1.00  0.00    -0.207 F 
ENDBRANCH   1   7
BRANCH   4  15
ATOM     15  C   UNL     1      -0.860 -13.369  -0.824  1.00  0.00     0.339 C 
ATOM     16  O   UNL     1      -0.788 -14.591  -0.678  1.00  0.00    -0.246 OA
BRANCH  15  17
ATOM     17  O   UNL     1       0.159 -12.639  -1.355  1.00  0.00    -0.478 OA
ATOM     18  H   UNL     1       0.856 -12.450  -0.693  1.00  0.00     0.297 HD
ENDBRANCH  15  17
ENDBRANCH   4  15
BRANCH   5  19
ATOM     19  O   UNL     1      -3.498 -14.412  -0.646  1.00  0.00    -0.507 OA
ATOM     20  H   UNL     1      -2.678 -14.906  -0.471  1.00  0.00     0.293 HD
ENDBRANCH   5  19
TORSDOF 4
ENDMDL
MODEL 5
REMARK VINA RESULT:    -5.447      4.086      6.322
REMARK INTER + INTRA:          -6.954
REMARK INTER:                  -5.878
REMARK INTRA:                  -1.076
REMARK UNBOUND:                -0.551
REMARK SMILES O=C(O)c1cc(-c2ccc(F)cc2F)ccc1O
REMARK SMILES IDX 6 1 5 2 15 3 4 4 17 5 16 6 7 7 13 8 12 9 8 10 10 11 9 12
REMARK SMILES IDX 14 13 11 14 2 15 1 16 3 17 18 19
REMARK H PARENT 3 18 18 20
ROOT
ATOM      1  C   UNL     1      -2.787 -10.152  -0.061  1.00  0.00    -0.014 A 
ATOM      2  C   UNL     1      -1.798 -11.081  -0.381  1.00  0.00     0.028 A 
ATOM      3  C   UNL     1      -4.108 -10.570   0.106  1.00  0.00     0.013 A 
ATOM      4  C   UNL     1      -2.128 -12.427  -0.536  1.00  0.00     0.102 A 
ATOM      5  C   UNL     1      -3.448 -12.845  -0.370  1.00  0.00     0.130 A 
ATOM      6  C   UNL     1      -4.439 -11.916  -0.048  1.00  0.00     0.048 A 
ENDROOT
BRANCH   1   7
ATOM      7  C   UNL     1      -2.446  -8.755   0.099  1.00  0.00     0.018 A 
ATOM      8  C   UNL     1      -2.386  -7.917  -1.015  1.00  0.00     0.133 A 
ATOM      9  C   UNL     1      -2.056  -6.571  -0.857  1.00  0.00     0.079 A 
ATOM     10  C   UNL     1      -2.177  -8.247   1.369  1.00  0.00     0.015 A 
ATOM     11  C   UNL     1      -1.787  -6.063   0.413  1.00  0.00     0.126 A 
ATOM     12  C   UNL     1      -1.848  -6.901   1.526  1.00  0.00     0.040 A 
ATOM     13  F   UNL     1      -2.638  -8.391  -2.244  1.00  0.00    -0.206 F 
ATOM     14  F   UNL     1      -1.470  -4.771   0.565  1.00  0.00    -0.207 F 
ENDBRANCH   1   7
BRANCH   4  15
ATOM     15  C   UNL     1      -1.080 -13.382  -0.870  1.00  0.00     0.339 C 
ATOM     16  O   UNL     1      -1.191 -14.609  -0.824  1.00  0.00    -0.246 OA
BRANCH  15  17
ATOM     17  O   UNL     1       0.074 -12.770  -1.254  1.00  0.00    -0.478 OA
ATOM     18  H   UNL     1      -0.099 -11.938  -1.742  1.00  0.00     0.297 HD
ENDBRANCH  15  17
ENDBRANCH   4  15
BRANCH   5  19
ATOM     19  O   UNL     1      -3.792 -14.156  -0.516  1.00  0.00    -0.507 OA
ATOM     20  H   UNL     1      -4.468 -14.231  -1.211  1.00  0.00     0.293 HD
ENDBRANCH   5  19
TORSDOF 4
ENDMDL
MODEL 6
REMARK VINA RESULT:    -5.434      4.569      6.922
REMARK INTER + INTRA:          -6.939
REMARK INTER:                  -5.888
REMARK INTRA:                  -1.051
REMARK UNBOUND:                -0.551
REMARK SMILES O=C(O)c1cc(-c2ccc(F)cc2F)ccc1O
REMARK SMILES IDX 6 1 5 2 15 3 4 4 17 5 16 6 7 7 13 8 12 9 8 10 10 11 9 12
REMARK SMILES IDX 14 13 11 14 2 15 1 16 3 17 18 19
REMARK H PARENT 3 18 18 20
ROOT
ATOM      1  C   UNL     1      -2.857 -10.326   0.133  1.00  0.00    -0.014 A 
ATOM      2  C   UNL     1      -4.135 -10.873   0.229  1.00  0.00     0.028 A 
ATOM      3  C   UNL     1      -1.777 -11.133  -0.224  1.00  0.00     0.013 A 
ATOM      4  C   UNL     1      -4.335 -12.229  -0.033  1.00  0.00     0.102 A 
ATOM      5  C   UNL     1      -3.255 -13.037  -0.390  1.00  0.00     0.130 A 
ATOM      6  C   UNL     1      -1.976 -12.488  -0.486  1.00  0.00     0.048 A 
ENDROOT
BRANCH   1   7
ATOM      7  C   UNL     1      -2.648  -8.920   0.406  1.00  0.00     0.018 A 
ATOM      8  C   UNL     1      -2.571  -8.465   1.723  1.00  0.00     0.133 A 
ATOM      9  C   UNL     1      -2.370  -7.109   1.981  1.00  0.00     0.079 A 
ATOM     10  C   UNL     1      -2.524  -8.019  -0.652  1.00  0.00     0.015 A 
ATOM     11  C   UNL     1      -2.247  -6.208   0.924  1.00  0.00     0.126 A 
ATOM     12  C   UNL     1      -2.323  -6.664  -0.393  1.00  0.00     0.040 A 
ATOM     13  F   UNL     1      -2.692  -9.318   2.750  1.00  0.00    -0.206 F 
ATOM     14  F   UNL     1      -2.054  -4.906   1.171  1.00  0.00    -0.207 F 
ENDBRANCH   1   7
BRANCH   4  15
ATOM     15  C   UNL     1      -5.678 -12.782   0.072  1.00  0.00     0.339 C 
ATOM     16  O   UNL     1      -5.955 -13.983   0.110  1.00  0.00    -0.246 OA
BRANCH  15  17
ATOM     17  O   UNL     1      -6.634 -11.814   0.128  1.00  0.00    -0.478 OA
ATOM     18  H   UNL     1      -7.533 -12.195   0.218  1.00  0.00     0.297 HD
ENDBRANCH  15  17
ENDBRANCH   4  15
BRANCH   5  19
ATOM     19  O   UNL     1      -3.429 -14.363  -0.650  1.00  0.00    -0.507 OA
ATOM     20  H   UNL     1      -3.311 -14.518  -1.604  1.00  0.00     0.293 HD
ENDBRANCH   5  19
TORSDOF 4
ENDMDL
MODEL 7
REMARK VINA RESULT:    -4.452      6.130      8.518
REMARK INTER + INTRA:          -5.785
REMARK INTER:                  -4.756
REMARK INTRA:                  -1.029
REMARK UNBOUND:                -0.551
REMARK SMILES O=C(O)c1cc(-c2ccc(F)cc2F)ccc1O
REMARK SMILES IDX 6 1 5 2 15 3 4 4 17 5 16 6 7 7 13 8 12 9 8 10 10 11 9 12
REMARK SMILES IDX 14 13 11 14 2 15 1 16 3 17 18 19
REMARK H PARENT 3 18 18 20
ROOT
ATOM      1  C   UNL     1      -5.308 -12.793  -0.233  1.00  0.00    -0.014 A 
ATOM      2  C   UNL     1      -4.997 -14.141  -0.055  1.00  0.00     0.028 A 
ATOM      3  C   UNL     1      -6.615 -12.413  -0.537  1.00  0.00     0.013 A 
ATOM      4  C   UNL     1      -5.994 -15.109  -0.180  1.00  0.00     0.102 A 
ATOM      5  C   UNL     1      -7.301 -14.729  -0.483  1.00  0.00     0.130 A 
ATOM      6  C   UNL     1      -7.612 -13.380  -0.662  1.00  0.00     0.048 A 
ENDROOT
BRANCH   1   7
ATOM      7  C   UNL     1      -4.274 -11.788  -0.105  1.00  0.00     0.018 A 
ATOM      8  C   UNL     1      -3.946 -11.277   1.151  1.00  0.00     0.133 A 
ATOM      9  C   UNL     1      -2.949 -10.309   1.270  1.00  0.00     0.079 A 
ATOM     10  C   UNL     1      -3.605 -11.332  -1.241  1.00  0.00     0.015 A 
ATOM     11  C   UNL     1      -2.281  -9.852   0.135  1.00  0.00     0.126 A 
ATOM     12  C   UNL     1      -2.609 -10.364  -1.121  1.00  0.00     0.040 A 
ATOM     13  F   UNL     1      -4.581 -11.703   2.252  1.00  0.00    -0.206 F 
ATOM     14  F   UNL     1      -1.324  -8.922   0.248  1.00  0.00    -0.207 F 
ENDBRANCH   1   7
BRANCH   4  15
ATOM     15  C   UNL     1      -5.649 -16.511   0.010  1.00  0.00     0.339 C 
ATOM     16  O   UNL     1      -6.066 -17.448  -0.676  1.00  0.00    -0.246 OA
BRANCH  15  17
ATOM     17  O   UNL     1      -4.793 -16.698   1.051  1.00  0.00    -0.478 OA
ATOM     18  H   UNL     1      -4.224 -15.913   1.201  1.00  0.00     0.297 HD
ENDBRANCH  15  17
ENDBRANCH   4  15
BRANCH   5  19
ATOM     19  O   UNL     1      -8.290 -15.659  -0.609  1.00  0.00    -0.507 OA
ATOM     20  H   UNL     1      -9.058 -15.248  -1.042  1.00  0.00     0.293 HD
ENDBRANCH   5  19
TORSDOF 4
ENDMDL
MODEL 8
REMARK VINA RESULT:    -4.440      6.028      8.452
REMARK INTER + INTRA:          -5.770
REMARK INTER:                  -5.107
REMARK INTRA:                  -0.663
REMARK UNBOUND:                -0.551
REMARK SMILES O=C(O)c1cc(-c2ccc(F)cc2F)ccc1O
REMARK SMILES IDX 6 1 5 2 15 3 4 4 17 5 16 6 7 7 13 8 12 9 8 10 10 11 9 12
REMARK SMILES IDX 14 13 11 14 2 15 1 16 3 17 18 19
REMARK H PARENT 3 18 18 20
ROOT
ATOM      1  C   UNL     1      -1.025 -13.678  -0.791  1.00  0.00    -0.014 A 
ATOM      2  C   UNL     1      -1.494 -14.642  -1.682  1.00  0.00     0.028 A 
ATOM      3  C   UNL     1       0.228 -13.828  -0.197  1.00  0.00     0.013 A 
ATOM      4  C   UNL     1      -0.711 -15.758  -1.979  1.00  0.00     0.102 A 
ATOM      5  C   UNL     1       0.542 -15.908  -1.385  1.00  0.00     0.130 A 
ATOM      6  C   UNL     1       1.011 -14.943  -0.493  1.00  0.00     0.048 A 
ENDROOT
BRANCH   1   7
ATOM      7  C   UNL     1      -1.838 -12.521  -0.482  1.00  0.00     0.018 A 
ATOM      8  C   UNL     1      -3.205 -12.669  -0.242  1.00  0.00     0.133 A 
ATOM      9  C   UNL     1      -3.984 -11.551   0.056  1.00  0.00     0.079 A 
ATOM     10  C   UNL     1      -1.252 -11.257  -0.422  1.00  0.00     0.015 A 
ATOM     11  C   UNL     1      -3.399 -10.288   0.115  1.00  0.00     0.126 A 
ATOM     12  C   UNL     1      -2.032 -10.141  -0.124  1.00  0.00     0.040 A 
ATOM     13  F   UNL     1      -3.784 -13.877  -0.298  1.00  0.00    -0.206 F 
ATOM     14  F   UNL     1      -4.146  -9.214   0.401  1.00  0.00    -0.207 F 
ENDBRANCH   1   7
BRANCH   4  15
ATOM     15  C   UNL     1      -1.219 -16.754  -2.913  1.00  0.00     0.339 C 
ATOM     16  O   UNL     1      -0.550 -17.648  -3.436  1.00  0.00    -0.246 OA
BRANCH  15  17
ATOM     17  O   UNL     1      -2.548 -16.601  -3.162  1.00  0.00    -0.478 OA
ATOM     18  H   UNL     1      -2.869 -15.715  -2.893  1.00  0.00     0.297 HD
ENDBRANCH  15  17
ENDBRANCH   4  15
BRANCH   5  19
ATOM     19  O   UNL     1       1.323 -16.990  -1.662  1.00  0.00    -0.507 OA
ATOM     20  H   UNL     1       2.228 -16.818  -1.348  1.00  0.00     0.293 HD
ENDBRANCH   5  19
TORSDOF 4
ENDMDL
MODEL 9
REMARK VINA RESULT:    -4.218      5.154      7.092
REMARK INTER + INTRA:          -5.509
REMARK INTER:                  -4.660
REMARK INTRA:                  -0.848
REMARK UNBOUND:                -0.551
REMARK SMILES O=C(O)c1cc(-c2ccc(F)cc2F)ccc1O
REMARK SMILES IDX 6 1 5 2 15 3 4 4 17 5 16 6 7 7 13 8 12 9 8 10 10 11 9 12
REMARK SMILES IDX 14 13 11 14 2 15 1 16 3 17 18 19
REMARK H PARENT 3 18 18 20
ROOT
ATOM      1  C   UNL     1      -1.378 -13.222  -0.762  1.00  0.00    -0.014 A 
ATOM      2  C   UNL     1      -2.734 -13.393  -0.487  1.00  0.00     0.028 A 
ATOM      3  C   UNL     1      -0.829 -11.940  -0.794  1.00  0.00     0.013 A 
ATOM      4  C   UNL     1      -3.543 -12.283  -0.244  1.00  0.00     0.102 A 
ATOM      5  C   UNL     1      -2.994 -11.001  -0.275  1.00  0.00     0.130 A 
ATOM      6  C   UNL     1      -1.636 -10.829  -0.550  1.00  0.00     0.048 A 
ENDROOT
BRANCH   1   7
ATOM      7  C   UNL     1      -0.539 -14.374  -1.016  1.00  0.00     0.018 A 
ATOM      8  C   UNL     1       0.587 -14.608  -0.225  1.00  0.00     0.133 A 
ATOM      9  C   UNL     1       1.393 -15.719  -0.474  1.00  0.00     0.079 A 
ATOM     10  C   UNL     1      -0.859 -15.250  -2.052  1.00  0.00     0.015 A 
ATOM     11  C   UNL     1       1.074 -16.595  -1.510  1.00  0.00     0.126 A 
ATOM     12  C   UNL     1      -0.053 -16.361  -2.299  1.00  0.00     0.040 A 
ATOM     13  F   UNL     1       0.910 -13.774   0.773  1.00  0.00    -0.206 F 
ATOM     14  F   UNL     1       1.847 -17.662  -1.749  1.00  0.00    -0.207 F 
ENDBRANCH   1   7
BRANCH   4  15
ATOM     15  C   UNL     1      -4.957 -12.483   0.042  1.00  0.00     0.339 C 
ATOM     16  O   UNL     1      -5.746 -11.602   0.392  1.00  0.00    -0.246 OA
BRANCH  15  17
ATOM     17  O   UNL     1      -5.340 -13.778  -0.120  1.00  0.00    -0.478 OA
ATOM     18  H   UNL     1      -5.958 -14.067   0.584  1.00  0.00     0.297 HD
ENDBRANCH  15  17
ENDBRANCH   4  15
BRANCH   5  19
ATOM     19  O   UNL     1      -3.766  -9.903  -0.040  1.00  0.00    -0.507 OA
ATOM     20  H   UNL     1      -3.723  -9.681   0.907  1.00  0.00     0.293 HD
ENDBRANCH   5  19
TORSDOF 4
ENDMDL
