MODEL 1
REMARK VINA RESULT:    -5.376      0.000      0.000
REMARK INTER + INTRA:          -7.409
REMARK INTER:                  -6.633
REMARK INTRA:                  -0.776
REMARK UNBOUND:                -0.776
REMARK SMILES Cc1ccc(C(=O)c2cc(O)c(O)c([N+](=O)[O-])c2)cc1
REMARK SMILES IDX 8 1 18 2 9 3 14 4 10 5 12 6 6 7 7 8 5 9 4 10 19 11 3 12
REMARK SMILES IDX 20 13 2 14 1 15 15 16 17 17 16 18 11 19 13 21
REMARK H PARENT 11 20 13 22
ROOT
ATOM      1  C   UNL     1      -0.716   6.191  -3.083  1.00  0.00     0.033 A 
ATOM      2  C   UNL     1       0.287   5.533  -3.757  1.00  0.00     0.102 A 
ATOM      3  C   UNL     1      -1.223   5.750  -1.883  1.00  0.00     0.063 A 
ATOM      4  C   UNL     1       0.813   4.369  -3.198  1.00  0.00     0.315 A 
ATOM      5  C   UNL     1      -0.697   4.585  -1.324  1.00  0.00     0.165 A 
ATOM      6  C   UNL     1       0.322   3.894  -1.982  1.00  0.00     0.237 A 
ENDROOT
BRANCH   1   7
ATOM      7  C   UNL     1      -1.281   7.438  -3.681  1.00  0.00     0.193 C 
ATOM      8  O   UNL     1      -1.643   8.330  -2.900  1.00  0.00    -0.289 OA
BRANCH   7   9
ATOM      9  C   UNL     1      -1.411   7.624  -5.118  1.00  0.00     0.023 A 
ATOM     10  C   UNL     1      -2.615   7.320  -5.754  1.00  0.00     0.012 A 
ATOM     11  C   UNL     1      -0.332   8.105  -5.859  1.00  0.00     0.012 A 
ATOM     12  C   UNL     1      -2.739   7.499  -7.132  1.00  0.00     0.004 A 
ATOM     13  C   UNL     1      -0.456   8.284  -7.237  1.00  0.00     0.004 A 
ATOM     14  C   UNL     1      -1.660   7.981  -7.874  1.00  0.00    -0.051 A 
ATOM     15  C   UNL     1      -1.794   8.170  -9.347  1.00  0.00     0.044 C 
ENDBRANCH   7   9
ENDBRANCH   1   7
BRANCH   4  16
ATOM     16  N   UNL     1       1.851   3.678  -3.882  1.00  0.00     0.066 N 
ATOM     17  O   UNL     1       1.937   2.433  -3.755  1.00  0.00    -0.258 OA
ATOM     18  O   UNL     1       2.648   4.333  -4.594  1.00  0.00    -0.258 OA
ENDBRANCH   4  16
BRANCH   5  19
ATOM     19  O   UNL     1      -1.186   4.134  -0.135  1.00  0.00    -0.504 OA
ATOM     20  H   UNL     1      -1.847   4.760   0.203  1.00  0.00     0.293 HD
ENDBRANCH   5  19
BRANCH   6  21
ATOM     21  O   UNL     1       0.830   2.757  -1.425  1.00  0.00    -0.500 OA
ATOM     22  H   UNL     1       1.591   2.451  -1.942  1.00  0.00     0.294 HD
ENDBRANCH   6  21
TORSDOF 5
ENDMDL
MODEL 2
REMARK VINA RESULT:    -5.298      2.028      3.534
REMARK INTER + INTRA:          -7.313
REMARK INTER:                  -6.514
REMARK INTRA:                  -0.798
REMARK UNBOUND:                -0.776
REMARK SMILES Cc1ccc(C(=O)c2cc(O)c(O)c([N+](=O)[O-])c2)cc1
REMARK SMILES IDX 8 1 18 2 9 3 14 4 10 5 12 6 6 7 7 8 5 9 4 10 19 11 3 12
REMARK SMILES IDX 20 13 2 14 1 15 15 16 17 17 16 18 11 19 13 21
REMARK H PARENT 11 20 13 22
ROOT
ATOM      1  C   UNL     1      -0.523   5.067  -4.489  1.00  0.00     0.033 A 
ATOM      2  C   UNL     1      -1.306   5.083  -3.359  1.00  0.00     0.102 A 
ATOM      3  C   UNL     1       0.668   4.384  -4.563  1.00  0.00     0.063 A 
ATOM      4  C   UNL     1      -0.874   4.374  -2.238  1.00  0.00     0.315 A 
ATOM      5  C   UNL     1       1.101   3.675  -3.441  1.00  0.00     0.165 A 
ATOM      6  C   UNL     1       0.329   3.670  -2.279  1.00  0.00     0.237 A 
ENDROOT
BRANCH   1   7
ATOM      7  C   UNL     1      -0.985   5.827  -5.690  1.00  0.00     0.193 C 
ATOM      8  O   UNL     1      -0.835   5.288  -6.797  1.00  0.00    -0.289 OA
BRANCH   7   9
ATOM      9  C   UNL     1      -1.590   7.145  -5.593  1.00  0.00     0.023 A 
ATOM     10  C   UNL     1      -0.798   8.287  -5.712  1.00  0.00     0.012 A 
ATOM     11  C   UNL     1      -2.963   7.269  -5.381  1.00  0.00     0.012 A 
ATOM     12  C   UNL     1      -1.379   9.552  -5.619  1.00  0.00     0.004 A 
ATOM     13  C   UNL     1      -3.545   8.534  -5.288  1.00  0.00     0.004 A 
ATOM     14  C   UNL     1      -2.752   9.675  -5.407  1.00  0.00    -0.051 A 
ATOM     15  C   UNL     1      -3.372  11.027  -5.307  1.00  0.00     0.044 C 
ENDBRANCH   7   9
ENDBRANCH   1   7
BRANCH   4  16
ATOM     16  N   UNL     1      -1.674   4.380  -1.062  1.00  0.00     0.066 N 
ATOM     17  O   UNL     1      -2.923   4.345  -1.178  1.00  0.00    -0.258 OA
ATOM     18  O   UNL     1      -1.108   4.421   0.055  1.00  0.00    -0.258 OA
ENDBRANCH   4  16
BRANCH   5  19
ATOM     19  O   UNL     1       2.278   2.991  -3.496  1.00  0.00    -0.504 OA
ATOM     20  H   UNL     1       2.264   2.379  -4.250  1.00  0.00     0.293 HD
ENDBRANCH   5  19
BRANCH   6  21
ATOM     21  O   UNL     1       0.762   2.972  -1.189  1.00  0.00    -0.500 OA
ATOM     22  H   UNL     1       0.688   2.020  -1.360  1.00  0.00     0.294 HD
ENDBRANCH   6  21
TORSDOF 5
ENDMDL
MODEL 3
REMARK VINA RESULT:    -4.740      1.639      3.114
REMARK INTER + INTRA:          -6.624
REMARK INTER:                  -5.987
REMARK INTRA:                  -0.638
REMARK UNBOUND:                -0.776
REMARK SMILES Cc1ccc(C(=O)c2cc(O)c(O)c([N+](=O)[O-])c2)cc1
REMARK SMILES IDX 8 1 18 2 9 3 14 4 10 5 12 6 6 7 7 8 5 9 4 10 19 11 3 12
REMARK SMILES IDX 20 13 2 14 1 15 15 16 17 17 16 18 11 19 13 21
REMARK H PARENT 11 20 13 22
ROOT
ATOM      1  C   UNL     1       0.766   5.749  -3.440  1.00  0.00     0.033 A 
ATOM      2  C   UNL     1      -0.127   5.713  -2.394  1.00  0.00     0.102 A 
ATOM      3  C   UNL     1       1.489   4.651  -3.842  1.00  0.00     0.063 A 
ATOM      4  C   UNL     1      -0.308   4.510  -1.713  1.00  0.00     0.315 A 
ATOM      5  C   UNL     1       1.309   3.447  -3.160  1.00  0.00     0.165 A 
ATOM      6  C   UNL     1       0.409   3.377  -2.095  1.00  0.00     0.237 A 
ENDROOT
BRANCH   1   7
ATOM      7  C   UNL     1       0.960   7.038  -4.170  1.00  0.00     0.193 C 
ATOM      8  O   UNL     1       1.926   7.741  -3.836  1.00  0.00    -0.289 OA
BRANCH   7   9
ATOM      9  C   UNL     1       0.069   7.474  -5.232  1.00  0.00     0.023 A 
ATOM     10  C   UNL     1       0.558   8.262  -6.275  1.00  0.00     0.012 A 
ATOM     11  C   UNL     1      -1.276   7.105  -5.210  1.00  0.00     0.012 A 
ATOM     12  C   UNL     1      -0.297   8.680  -7.294  1.00  0.00     0.004 A 
ATOM     13  C   UNL     1      -2.132   7.523  -6.230  1.00  0.00     0.004 A 
ATOM     14  C   UNL     1      -1.643   8.310  -7.272  1.00  0.00    -0.051 A 
ATOM     15  C   UNL     1      -2.557   8.758  -8.361  1.00  0.00     0.044 C 
ENDBRANCH   7   9
ENDBRANCH   1   7
BRANCH   4  16
ATOM     16  N   UNL     1      -1.228   4.457  -0.630  1.00  0.00     0.066 N 
ATOM     17  O   UNL     1      -0.800   4.180   0.516  1.00  0.00    -0.258 OA
ATOM     18  O   UNL     1      -2.439   4.690  -0.852  1.00  0.00    -0.258 OA
ENDBRANCH   4  16
BRANCH   5  19
ATOM     19  O   UNL     1       2.016   2.348  -3.545  1.00  0.00    -0.504 OA
ATOM     20  H   UNL     1       1.747   2.086  -4.440  1.00  0.00     0.293 HD
ENDBRANCH   5  19
BRANCH   6  21
ATOM     21  O   UNL     1       0.241   2.194  -1.436  1.00  0.00    -0.500 OA
ATOM     22  H   UNL     1      -0.695   2.077  -1.209  1.00  0.00     0.294 HD
ENDBRANCH   6  21
TORSDOF 5
ENDMDL
MODEL 4
REMARK VINA RESULT:    -4.603      3.552      7.179
REMARK INTER + INTRA:          -6.455
REMARK INTER:                  -5.514
REMARK INTRA:                  -0.942
REMARK UNBOUND:                -0.776
REMARK SMILES Cc1ccc(C(=O)c2cc(O)c(O)c([N+](=O)[O-])c2)cc1
REMARK SMILES IDX 8 1 18 2 9 3 14 4 10 5 12 6 6 7 7 8 5 9 4 10 19 11 3 12
REMARK SMILES IDX 20 13 2 14 1 15 15 16 17 17 16 18 11 19 13 21
REMARK H PARENT 11 20 13 22
ROOT
ATOM      1  C   UNL     1      -1.009   8.117  -6.054  1.00  0.00     0.033 A 
ATOM      2  C   UNL     1      -1.797   9.113  -5.524  1.00  0.00     0.102 A 
ATOM      3  C   UNL     1      -0.948   7.851  -7.401  1.00  0.00     0.063 A 
ATOM      4  C   UNL     1      -2.565   9.888  -6.393  1.00  0.00     0.315 A 
ATOM      5  C   UNL     1      -1.718   8.625  -8.270  1.00  0.00     0.165 A 
ATOM      6  C   UNL     1      -2.526   9.645  -7.765  1.00  0.00     0.237 A 
ENDROOT
BRANCH   1   7
ATOM      7  C   UNL     1      -0.186   7.287  -5.124  1.00  0.00     0.193 C 
ATOM      8  O   UNL     1       1.036   7.243  -5.332  1.00  0.00    -0.289 OA
BRANCH   7   9
ATOM      9  C   UNL     1      -0.767   6.551  -4.013  1.00  0.00     0.023 A 
ATOM     10  C   UNL     1      -0.171   6.605  -2.752  1.00  0.00     0.012 A 
ATOM     11  C   UNL     1      -1.921   5.793  -4.206  1.00  0.00     0.012 A 
ATOM     12  C   UNL     1      -0.730   5.900  -1.687  1.00  0.00     0.004 A 
ATOM     13  C   UNL     1      -2.481   5.087  -3.140  1.00  0.00     0.004 A 
ATOM     14  C   UNL     1      -1.884   5.140  -1.880  1.00  0.00    -0.051 A 
ATOM     15  C   UNL     1      -2.480   4.386  -0.741  1.00  0.00     0.044 C 
ENDBRANCH   7   9
ENDBRANCH   1   7
BRANCH   4  16
ATOM     16  N   UNL     1      -3.384  10.922  -5.860  1.00  0.00     0.066 N 
ATOM     17  O   UNL     1      -3.871  10.779  -4.713  1.00  0.00    -0.258 OA
ATOM     18  O   UNL     1      -3.594  11.945  -6.552  1.00  0.00    -0.258 OA
ENDBRANCH   4  16
BRANCH   5  19
ATOM     19  O   UNL     1      -1.669   8.376  -9.608  1.00  0.00    -0.504 OA
ATOM     20  H   UNL     1      -0.800   8.637  -9.957  1.00  0.00     0.293 HD
ENDBRANCH   5  19
BRANCH   6  21
ATOM     21  O   UNL     1      -3.274  10.396  -8.625  1.00  0.00    -0.500 OA
ATOM     22  H   UNL     1      -2.695  10.814  -9.281  1.00  0.00     0.294 HD
ENDBRANCH   6  21
TORSDOF 5
ENDMDL
MODEL 5
REMARK VINA RESULT:    -4.590      3.648      6.495
REMARK INTER + INTRA:          -6.440
REMARK INTER:                  -5.499
REMARK INTRA:                  -0.940
REMARK UNBOUND:                -0.776
REMARK SMILES Cc1ccc(C(=O)c2cc(O)c(O)c([N+](=O)[O-])c2)cc1
REMARK SMILES IDX 8 1 18 2 9 3 14 4 10 5 12 6 6 7 7 8 5 9 4 10 19 11 3 12
REMARK SMILES IDX 20 13 2 14 1 15 15 16 17 17 16 18 11 19 13 21
REMARK H PARENT 11 20 13 22
ROOT
ATOM      1  C   UNL     1      -2.530   7.746  -5.591  1.00  0.00     0.033 A 
ATOM      2  C   UNL     1      -2.177   7.662  -6.918  1.00  0.00     0.102 A 
ATOM      3  C   UNL     1      -3.046   8.888  -5.026  1.00  0.00     0.063 A 
ATOM      4  C   UNL     1      -2.353   8.785  -7.726  1.00  0.00     0.315 A 
ATOM      5  C   UNL     1      -3.221  10.011  -5.835  1.00  0.00     0.165 A 
ATOM      6  C   UNL     1      -2.875   9.960  -7.186  1.00  0.00     0.237 A 
ENDROOT
BRANCH   1   7
ATOM      7  C   UNL     1      -2.342   6.543  -4.724  1.00  0.00     0.193 C 
ATOM      8  O   UNL     1      -3.334   6.125  -4.109  1.00  0.00    -0.289 OA
BRANCH   7   9
ATOM      9  C   UNL     1      -1.059   5.872  -4.590  1.00  0.00     0.023 A 
ATOM     10  C   UNL     1      -0.987   4.481  -4.676  1.00  0.00     0.012 A 
ATOM     11  C   UNL     1       0.100   6.618  -4.376  1.00  0.00     0.012 A 
ATOM     12  C   UNL     1       0.243   3.837  -4.548  1.00  0.00     0.004 A 
ATOM     13  C   UNL     1       1.331   5.974  -4.247  1.00  0.00     0.004 A 
ATOM     14  C   UNL     1       1.403   4.583  -4.334  1.00  0.00    -0.051 A 
ATOM     15  C   UNL     1       2.718   3.895  -4.195  1.00  0.00     0.044 C 
ENDBRANCH   7   9
ENDBRANCH   1   7
BRANCH   4  16
ATOM     16  N   UNL     1      -1.993   8.713  -9.100  1.00  0.00     0.066 N 
ATOM     17  O   UNL     1      -1.042   7.968  -9.440  1.00  0.00    -0.258 OA
ATOM     18  O   UNL     1      -2.637   9.396  -9.931  1.00  0.00    -0.258 OA
ENDBRANCH   4  16
BRANCH   5  19
ATOM     19  O   UNL     1      -3.733  11.152  -5.293  1.00  0.00    -0.504 OA
ATOM     20  H   UNL     1      -3.952  11.779  -6.002  1.00  0.00     0.293 HD
ENDBRANCH   5  19
BRANCH   6  21
ATOM     21  O   UNL     1      -3.051  11.065  -7.966  1.00  0.00    -0.500 OA
ATOM     22  H   UNL     1      -3.644  11.688  -7.520  1.00  0.00     0.294 HD
ENDBRANCH   6  21
TORSDOF 5
ENDMDL
MODEL 6
REMARK VINA RESULT:    -4.571      3.812      7.094
REMARK INTER + INTRA:          -6.415
REMARK INTER:                  -5.421
REMARK INTRA:                  -0.995
REMARK UNBOUND:                -0.776
REMARK SMILES Cc1ccc(C(=O)c2cc(O)c(O)c([N+](=O)[O-])c2)cc1
REMARK SMILES IDX 8 1 18 2 9 3 14 4 10 5 12 6 6 7 7 8 5 9 4 10 19 11 3 12
REMARK SMILES IDX 20 13 2 14 1 15 15 16 17 17 16 18 11 19 13 21
REMARK H PARENT 11 20 13 22
ROOT
ATOM      1  C   UNL     1      -2.392   7.800  -5.883  1.00  0.00     0.033 A 
ATOM      2  C   UNL     1      -2.796   9.049  -5.470  1.00  0.00     0.102 A 
ATOM      3  C   UNL     1      -2.132   7.497  -7.199  1.00  0.00     0.063 A 
ATOM      4  C   UNL     1      -2.948  10.051  -6.428  1.00  0.00     0.315 A 
ATOM      5  C   UNL     1      -2.285   8.499  -8.157  1.00  0.00     0.165 A 
ATOM      6  C   UNL     1      -2.692   9.777  -7.772  1.00  0.00     0.237 A 
ENDROOT
BRANCH   1   7
ATOM      7  C   UNL     1      -2.229   6.726  -4.857  1.00  0.00     0.193 C 
ATOM      8  O   UNL     1      -3.211   6.467  -4.145  1.00  0.00    -0.289 OA
BRANCH   7   9
ATOM      9  C   UNL     1      -0.983   5.999  -4.680  1.00  0.00     0.023 A 
ATOM     10  C   UNL     1       0.207   6.696  -4.469  1.00  0.00     0.012 A 
ATOM     11  C   UNL     1      -0.976   4.605  -4.721  1.00  0.00     0.012 A 
ATOM     12  C   UNL     1       1.403   5.998  -4.300  1.00  0.00     0.004 A 
ATOM     13  C   UNL     1       0.220   3.907  -4.552  1.00  0.00     0.004 A 
ATOM     14  C   UNL     1       1.410   4.603  -4.341  1.00  0.00    -0.051 A 
ATOM     15  C   UNL     1       2.688   3.858  -4.160  1.00  0.00     0.044 C 
ENDBRANCH   7   9
ENDBRANCH   1   7
BRANCH   4  16
ATOM     16  N   UNL     1      -3.364  11.347  -6.017  1.00  0.00     0.066 N 
ATOM     17  O   UNL     1      -3.075  11.738  -4.860  1.00  0.00    -0.258 OA
ATOM     18  O   UNL     1      -4.008  12.060  -6.821  1.00  0.00    -0.258 OA
ENDBRANCH   4  16
BRANCH   5  19
ATOM     19  O   UNL     1      -2.031   8.217  -9.466  1.00  0.00    -0.504 OA
ATOM     20  H   UNL     1      -1.829   7.272  -9.561  1.00  0.00     0.293 HD
ENDBRANCH   5  19
BRANCH   6  21
ATOM     21  O   UNL     1      -2.837  10.749  -8.718  1.00  0.00    -0.500 OA
ATOM     22  H   UNL     1      -3.413  10.428  -9.430  1.00  0.00     0.294 HD
ENDBRANCH   6  21
TORSDOF 5
ENDMDL
MODEL 7
REMARK VINA RESULT:    -4.569      2.397      4.125
REMARK INTER + INTRA:          -6.414
REMARK INTER:                  -5.412
REMARK INTRA:                  -1.002
REMARK UNBOUND:                -0.776
REMARK SMILES Cc1ccc(C(=O)c2cc(O)c(O)c([N+](=O)[O-])c2)cc1
REMARK SMILES IDX 8 1 18 2 9 3 14 4 10 5 12 6 6 7 7 8 5 9 4 10 19 11 3 12
REMARK SMILES IDX 20 13 2 14 1 15 15 16 17 17 16 18 11 19 13 21
REMARK H PARENT 11 20 13 22
ROOT
ATOM      1  C   UNL     1      -0.767   8.161  -6.004  1.00  0.00     0.033 A 
ATOM      2  C   UNL     1      -1.057   7.128  -5.143  1.00  0.00     0.102 A 
ATOM      3  C   UNL     1       0.506   8.646  -6.186  1.00  0.00     0.063 A 
ATOM      4  C   UNL     1      -0.013   6.546  -4.425  1.00  0.00     0.315 A 
ATOM      5  C   UNL     1       1.551   8.065  -5.467  1.00  0.00     0.165 A 
ATOM      6  C   UNL     1       1.291   7.014  -4.586  1.00  0.00     0.237 A 
ENDROOT
BRANCH   1   7
ATOM      7  C   UNL     1      -1.886   8.785  -6.774  1.00  0.00     0.193 C 
ATOM      8  O   UNL     1      -2.654   9.535  -6.154  1.00  0.00    -0.289 OA
BRANCH   7   9
ATOM      9  C   UNL     1      -2.087   8.540  -8.193  1.00  0.00     0.023 A 
ATOM     10  C   UNL     1      -2.178   9.612  -9.080  1.00  0.00     0.012 A 
ATOM     11  C   UNL     1      -2.189   7.232  -8.668  1.00  0.00     0.012 A 
ATOM     12  C   UNL     1      -2.371   9.377 -10.441  1.00  0.00     0.004 A 
ATOM     13  C   UNL     1      -2.382   6.996 -10.029  1.00  0.00     0.004 A 
ATOM     14  C   UNL     1      -2.473   8.069 -10.917  1.00  0.00    -0.051 A 
ATOM     15  C   UNL     1      -2.680   7.818 -12.371  1.00  0.00     0.044 C 
ENDBRANCH   7   9
ENDBRANCH   1   7
BRANCH   4  16
ATOM     16  N   UNL     1      -0.297   5.477  -3.532  1.00  0.00     0.066 N 
ATOM     17  O   UNL     1      -1.191   4.652  -3.839  1.00  0.00    -0.258 OA
ATOM     18  O   UNL     1       0.354   5.389  -2.465  1.00  0.00    -0.258 OA
ENDBRANCH   4  16
BRANCH   5  19
ATOM     19  O   UNL     1       2.819   8.532  -5.635  1.00  0.00    -0.504 OA
ATOM     20  H   UNL     1       3.130   8.315  -6.530  1.00  0.00     0.293 HD
ENDBRANCH   5  19
BRANCH   6  21
ATOM     21  O   UNL     1       2.321   6.453  -3.889  1.00  0.00    -0.500 OA
ATOM     22  H   UNL     1       2.778   7.137  -3.375  1.00  0.00     0.294 HD
ENDBRANCH   6  21
TORSDOF 5
ENDMDL
MODEL 8
REMARK VINA RESULT:    -4.489      3.716      6.825
REMARK INTER + INTRA:          -6.314
REMARK INTER:                  -5.350
REMARK INTRA:                  -0.964
REMARK UNBOUND:                -0.776
REMARK SMILES Cc1ccc(C(=O)c2cc(O)c(O)c([N+](=O)[O-])c2)cc1
REMARK SMILES IDX 8 1 18 2 9 3 14 4 10 5 12 6 6 7 7 8 5 9 4 10 19 11 3 12
REMARK SMILES IDX 20 13 2 14 1 15 15 16 17 17 16 18 11 19 13 21
REMARK H PARENT 11 20 13 22
ROOT
ATOM      1  C   UNL     1      -1.059   8.115  -6.048  1.00  0.00     0.033 A 
ATOM      2  C   UNL     1      -1.069   7.828  -7.393  1.00  0.00     0.102 A 
ATOM      3  C   UNL     1      -1.779   9.151  -5.501  1.00  0.00     0.063 A 
ATOM      4  C   UNL     1      -1.843   8.622  -8.239  1.00  0.00     0.315 A 
ATOM      5  C   UNL     1      -2.553   9.945  -6.347  1.00  0.00     0.165 A 
ATOM      6  C   UNL     1      -2.585   9.680  -7.716  1.00  0.00     0.237 A 
ENDROOT
BRANCH   1   7
ATOM      7  C   UNL     1      -0.230   7.265  -5.141  1.00  0.00     0.193 C 
ATOM      8  O   UNL     1       0.986   7.198  -5.379  1.00  0.00    -0.289 OA
BRANCH   7   9
ATOM      9  C   UNL     1      -0.799   6.536  -4.019  1.00  0.00     0.023 A 
ATOM     10  C   UNL     1      -0.183   6.589  -2.768  1.00  0.00     0.012 A 
ATOM     11  C   UNL     1      -1.960   5.783  -4.193  1.00  0.00     0.012 A 
ATOM     12  C   UNL     1      -0.729   5.890  -1.693  1.00  0.00     0.004 A 
ATOM     13  C   UNL     1      -2.507   5.083  -3.117  1.00  0.00     0.004 A 
ATOM     14  C   UNL     1      -1.891   5.137  -1.866  1.00  0.00    -0.051 A 
ATOM     15  C   UNL     1      -2.474   4.388  -0.716  1.00  0.00     0.044 C 
ENDBRANCH   7   9
ENDBRANCH   1   7
BRANCH   4  16
ATOM     16  N   UNL     1      -1.863   8.337  -9.632  1.00  0.00     0.066 N 
ATOM     17  O   UNL     1      -2.004   9.284 -10.442  1.00  0.00    -0.258 OA
ATOM     18  O   UNL     1      -1.739   7.148 -10.009  1.00  0.00    -0.258 OA
ENDBRANCH   4  16
BRANCH   5  19
ATOM     19  O   UNL     1      -3.273  10.976  -5.822  1.00  0.00    -0.504 OA
ATOM     20  H   UNL     1      -4.221  10.817  -5.965  1.00  0.00     0.293 HD
ENDBRANCH   5  19
BRANCH   6  21
ATOM     21  O   UNL     1      -3.347  10.464  -8.534  1.00  0.00    -0.500 OA
ATOM     22  H   UNL     1      -3.485  10.013  -9.381  1.00  0.00     0.294 HD
ENDBRANCH   6  21
TORSDOF 5
ENDMDL
MODEL 9
REMARK VINA RESULT:    -4.463      1.971      2.631
REMARK INTER + INTRA:          -6.282
REMARK INTER:                  -5.595
REMARK INTRA:                  -0.688
REMARK UNBOUND:                -0.776
REMARK SMILES Cc1ccc(C(=O)c2cc(O)c(O)c([N+](=O)[O-])c2)cc1
REMARK SMILES IDX 8 1 18 2 9 3 14 4 10 5 12 6 6 7 7 8 5 9 4 10 19 11 3 12
REMARK SMILES IDX 20 13 2 14 1 15 15 16 17 17 16 18 11 19 13 21
REMARK H PARENT 11 20 13 22
ROOT
ATOM      1  C   UNL     1      -0.829   5.552  -4.676  1.00  0.00     0.033 A 
ATOM      2  C   UNL     1       0.388   4.911  -4.728  1.00  0.00     0.102 A 
ATOM      3  C   UNL     1      -1.690   5.433  -3.612  1.00  0.00     0.063 A 
ATOM      4  C   UNL     1       0.763   4.106  -3.653  1.00  0.00     0.315 A 
ATOM      5  C   UNL     1      -1.315   4.627  -2.537  1.00  0.00     0.165 A 
ATOM      6  C   UNL     1      -0.087   3.963  -2.557  1.00  0.00     0.237 A 
ENDROOT
BRANCH   1   7
ATOM      7  C   UNL     1      -1.231   6.415  -5.828  1.00  0.00     0.193 C 
ATOM      8  O   UNL     1      -1.054   5.961  -6.968  1.00  0.00    -0.289 OA
BRANCH   7   9
ATOM      9  C   UNL     1      -1.810   7.736  -5.646  1.00  0.00     0.023 A 
ATOM     10  C   UNL     1      -0.997   8.868  -5.704  1.00  0.00     0.012 A 
ATOM     11  C   UNL     1      -3.179   7.873  -5.416  1.00  0.00     0.012 A 
ATOM     12  C   UNL     1      -1.552  10.136  -5.530  1.00  0.00     0.004 A 
ATOM     13  C   UNL     1      -3.735   9.141  -5.242  1.00  0.00     0.004 A 
ATOM     14  C   UNL     1      -2.922  10.272  -5.300  1.00  0.00    -0.051 A 
ATOM     15  C   UNL     1      -3.515  11.627  -5.113  1.00  0.00     0.044 C 
ENDBRANCH   7   9
ENDBRANCH   1   7
BRANCH   4  16
ATOM     16  N   UNL     1       2.018   3.437  -3.693  1.00  0.00     0.066 N 
ATOM     17  O   UNL     1       3.065   4.119  -3.802  1.00  0.00    -0.258 OA
ATOM     18  O   UNL     1       2.040   2.187  -3.616  1.00  0.00    -0.258 OA
ENDBRANCH   4  16
BRANCH   5  19
ATOM     19  O   UNL     1      -2.156   4.497  -1.473  1.00  0.00    -0.504 OA
ATOM     20  H   UNL     1      -1.778   4.952  -0.702  1.00  0.00     0.293 HD
ENDBRANCH   5  19
BRANCH   6  21
ATOM     21  O   UNL     1       0.269   3.178  -1.500  1.00  0.00    -0.500 OA
ATOM     22  H   UNL     1       1.186   2.882  -1.608  1.00  0.00     0.294 HD
ENDBRANCH   6  21
TORSDOF 5
ENDMDL
