MODEL 1
REMARK VINA RESULT:    -6.942      0.000      0.000
REMARK INTER + INTRA:          -8.742
REMARK INTER:                  -8.160
REMARK INTRA:                  -0.582
REMARK UNBOUND:                -0.582
REMARK SMILES O=C(O)c1cc(-c2ccc(F)cc2F)ccc1O
REMARK SMILES IDX 6 1 5 2 15 3 4 4 17 5 16 6 7 7 13 8 12 9 8 10 10 11 9 12
REMARK SMILES IDX 14 13 11 14 2 15 1 16 3 17 18 19
REMARK H PARENT 3 18 18 20
ROOT
ATOM      1  C   UNL     1      -0.655   5.782  -3.891  1.00  0.00    -0.014 A 
ATOM      2  C   UNL     1       0.493   5.068  -4.230  1.00  0.00     0.028 A 
ATOM      3  C   UNL     1      -1.309   5.521  -2.687  1.00  0.00     0.013 A 
ATOM      4  C   UNL     1       0.989   4.092  -3.364  1.00  0.00     0.102 A 
ATOM      5  C   UNL     1       0.335   3.831  -2.160  1.00  0.00     0.130 A 
ATOM      6  C   UNL     1      -0.815   4.546  -1.821  1.00  0.00     0.048 A 
ENDROOT
BRANCH   1   7
ATOM      7  C   UNL     1      -1.171   6.794  -4.788  1.00  0.00     0.018 A 
ATOM      8  C   UNL     1      -0.306   7.725  -5.364  1.00  0.00     0.133 A 
ATOM      9  C   UNL     1      -0.807   8.699  -6.229  1.00  0.00     0.079 A 
ATOM     10  C   UNL     1      -2.534   6.835  -5.078  1.00  0.00     0.015 A 
ATOM     11  C   UNL     1      -2.171   8.741  -6.517  1.00  0.00     0.126 A 
ATOM     12  C   UNL     1      -3.034   7.808  -5.942  1.00  0.00     0.040 A 
ATOM     13  F   UNL     1       1.007   7.701  -5.094  1.00  0.00    -0.206 F 
ATOM     14  F   UNL     1      -2.652   9.675  -7.347  1.00  0.00    -0.207 F 
ENDBRANCH   1   7
BRANCH   4  15
ATOM     15  C   UNL     1       2.190   3.357  -3.737  1.00  0.00     0.339 C 
ATOM     16  O   UNL     1       2.287   2.129  -3.791  1.00  0.00    -0.246 OA
BRANCH  15  17
ATOM     17  O   UNL     1       3.232   4.182  -4.030  1.00  0.00    -0.478 OA
ATOM     18  H   UNL     1       3.772   4.384  -3.238  1.00  0.00     0.297 HD
ENDBRANCH  15  17
ENDBRANCH   4  15
BRANCH   5  19
ATOM     19  O   UNL     1       0.803   2.882  -1.301  1.00  0.00    -0.507 OA
ATOM     20  H   UNL     1       0.200   2.118  -1.312  1.00  0.00     0.293 HD
ENDBRANCH   5  19
TORSDOF 4
ENDMDL
MODEL 2
REMARK VINA RESULT:    -6.811      1.717      3.194
REMARK INTER + INTRA:          -8.588
REMARK INTER:                  -7.787
REMARK INTRA:                  -0.801
REMARK UNBOUND:                -0.582
REMARK SMILES O=C(O)c1cc(-c2ccc(F)cc2F)ccc1O
REMARK SMILES IDX 6 1 5 2 15 3 4 4 17 5 16 6 7 7 13 8 12 9 8 10 10 11 9 12
REMARK SMILES IDX 14 13 11 14 2 15 1 16 3 17 18 19
REMARK H PARENT 3 18 18 20
ROOT
ATOM      1  C   UNL     1      -0.796   5.754  -3.877  1.00  0.00    -0.014 A 
ATOM      2  C   UNL     1      -1.393   5.660  -2.620  1.00  0.00     0.028 A 
ATOM      3  C   UNL     1       0.241   4.888  -4.223  1.00  0.00     0.013 A 
ATOM      4  C   UNL     1      -0.952   4.700  -1.708  1.00  0.00     0.102 A 
ATOM      5  C   UNL     1       0.085   3.835  -2.054  1.00  0.00     0.130 A 
ATOM      6  C   UNL     1       0.682   3.928  -3.312  1.00  0.00     0.048 A 
ENDROOT
BRANCH   1   7
ATOM      7  C   UNL     1      -1.252   6.749  -4.823  1.00  0.00     0.018 A 
ATOM      8  C   UNL     1      -2.601   6.820  -5.170  1.00  0.00     0.133 A 
ATOM      9  C   UNL     1      -3.036   7.782  -6.083  1.00  0.00     0.079 A 
ATOM     10  C   UNL     1      -0.339   7.640  -5.387  1.00  0.00     0.015 A 
ATOM     11  C   UNL     1      -2.123   8.672  -6.647  1.00  0.00     0.126 A 
ATOM     12  C   UNL     1      -0.774   8.601  -6.299  1.00  0.00     0.040 A 
ATOM     13  F   UNL     1      -3.491   5.970  -4.639  1.00  0.00    -0.206 F 
ATOM     14  F   UNL     1      -2.540   9.595  -7.523  1.00  0.00    -0.207 F 
ENDBRANCH   1   7
BRANCH   4  15
ATOM     15  C   UNL     1      -1.589   4.619  -0.401  1.00  0.00     0.339 C 
ATOM     16  O   UNL     1      -1.049   4.214   0.632  1.00  0.00    -0.246 OA
BRANCH  15  17
ATOM     17  O   UNL     1      -2.880   5.046  -0.426  1.00  0.00    -0.478 OA
ATOM     18  H   UNL     1      -3.107   5.569   0.372  1.00  0.00     0.297 HD
ENDBRANCH  15  17
ENDBRANCH   4  15
BRANCH   5  19
ATOM     19  O   UNL     1       0.530   2.890  -1.178  1.00  0.00    -0.507 OA
ATOM     20  H   UNL     1       1.296   2.433  -1.566  1.00  0.00     0.293 HD
ENDBRANCH   5  19
TORSDOF 4
ENDMDL
MODEL 3
REMARK VINA RESULT:    -6.807      1.315      2.755
REMARK INTER + INTRA:          -8.583
REMARK INTER:                  -7.783
REMARK INTRA:                  -0.800
REMARK UNBOUND:                -0.582
REMARK SMILES O=C(O)c1cc(-c2ccc(F)cc2F)ccc1O
REMARK SMILES IDX 6 1 5 2 15 3 4 4 17 5 16 6 7 7 13 8 12 9 8 10 10 11 9 12
REMARK SMILES IDX 14 13 11 14 2 15 1 16 3 17 18 19
REMARK H PARENT 3 18 18 20
ROOT
ATOM      1  C   UNL     1      -0.756   5.767  -3.871  1.00  0.00    -0.014 A 
ATOM      2  C   UNL     1      -1.363   5.672  -2.620  1.00  0.00     0.028 A 
ATOM      3  C   UNL     1       0.281   4.898  -4.211  1.00  0.00     0.013 A 
ATOM      4  C   UNL     1      -0.934   4.708  -1.707  1.00  0.00     0.102 A 
ATOM      5  C   UNL     1       0.102   3.838  -2.047  1.00  0.00     0.130 A 
ATOM      6  C   UNL     1       0.710   3.934  -3.300  1.00  0.00     0.048 A 
ENDROOT
BRANCH   1   7
ATOM      7  C   UNL     1      -1.200   6.768  -4.818  1.00  0.00     0.018 A 
ATOM      8  C   UNL     1      -0.284   7.664  -5.370  1.00  0.00     0.133 A 
ATOM      9  C   UNL     1      -0.716   8.627  -6.282  1.00  0.00     0.079 A 
ATOM     10  C   UNL     1      -2.545   6.834  -5.178  1.00  0.00     0.015 A 
ATOM     11  C   UNL     1      -2.062   8.694  -6.642  1.00  0.00     0.126 A 
ATOM     12  C   UNL     1      -2.976   7.797  -6.090  1.00  0.00     0.040 A 
ATOM     13  F   UNL     1       1.012   7.615  -5.033  1.00  0.00    -0.206 F 
ATOM     14  F   UNL     1      -2.477   9.618  -7.517  1.00  0.00    -0.207 F 
ENDBRANCH   1   7
BRANCH   4  15
ATOM     15  C   UNL     1      -1.582   4.624  -0.405  1.00  0.00     0.339 C 
ATOM     16  O   UNL     1      -1.052   4.215   0.630  1.00  0.00    -0.246 OA
BRANCH  15  17
ATOM     17  O   UNL     1      -2.872   5.057  -0.439  1.00  0.00    -0.478 OA
ATOM     18  H   UNL     1      -2.969   5.871  -0.977  1.00  0.00     0.297 HD
ENDBRANCH  15  17
ENDBRANCH   4  15
BRANCH   5  19
ATOM     19  O   UNL     1       0.536   2.889  -1.171  1.00  0.00    -0.507 OA
ATOM     20  H   UNL     1       0.216   2.018  -1.462  1.00  0.00     0.293 HD
ENDBRANCH   5  19
TORSDOF 4
ENDMDL
MODEL 4
REMARK VINA RESULT:    -5.358      4.218      6.485
REMARK INTER + INTRA:          -6.879
REMARK INTER:                  -5.808
REMARK INTRA:                  -1.071
REMARK UNBOUND:                -0.582
REMARK SMILES O=C(O)c1cc(-c2ccc(F)cc2F)ccc1O
REMARK SMILES IDX 6 1 5 2 15 3 4 4 17 5 16 6 7 7 13 8 12 9 8 10 10 11 9 12
REMARK SMILES IDX 14 13 11 14 2 15 1 16 3 17 18 19
REMARK H PARENT 3 18 18 20
ROOT
ATOM      1  C   UNL     1      -1.754   7.633  -5.537  1.00  0.00    -0.014 A 
ATOM      2  C   UNL     1      -1.567   7.427  -6.903  1.00  0.00     0.028 A 
ATOM      3  C   UNL     1      -2.360   8.805  -5.084  1.00  0.00     0.013 A 
ATOM      4  C   UNL     1      -1.986   8.394  -7.818  1.00  0.00     0.102 A 
ATOM      5  C   UNL     1      -2.592   9.566  -7.365  1.00  0.00     0.130 A 
ATOM      6  C   UNL     1      -2.779   9.771  -5.997  1.00  0.00     0.048 A 
ENDROOT
BRANCH   1   7
ATOM      7  C   UNL     1      -1.318   6.631  -4.587  1.00  0.00     0.018 A 
ATOM      8  C   UNL     1      -2.224   5.689  -4.098  1.00  0.00     0.133 A 
ATOM      9  C   UNL     1      -1.800   4.725  -3.183  1.00  0.00     0.079 A 
ATOM     10  C   UNL     1       0.010   6.608  -4.163  1.00  0.00     0.015 A 
ATOM     11  C   UNL     1      -0.472   4.703  -2.758  1.00  0.00     0.126 A 
ATOM     12  C   UNL     1       0.433   5.644  -3.249  1.00  0.00     0.040 A 
ATOM     13  F   UNL     1      -3.505   5.699  -4.493  1.00  0.00    -0.206 F 
ATOM     14  F   UNL     1      -0.064   3.778  -1.879  1.00  0.00    -0.207 F 
ENDBRANCH   1   7
BRANCH   4  15
ATOM     15  C   UNL     1      -1.783   8.160  -9.241  1.00  0.00     0.339 C 
ATOM     16  O   UNL     1      -1.892   9.012 -10.126  1.00  0.00    -0.246 OA
BRANCH  15  17
ATOM     17  O   UNL     1      -1.447   6.870  -9.511  1.00  0.00    -0.478 OA
ATOM     18  H   UNL     1      -0.733   6.548  -8.923  1.00  0.00     0.297 HD
ENDBRANCH  15  17
ENDBRANCH   4  15
BRANCH   5  19
ATOM     19  O   UNL     1      -3.009  10.523  -8.242  1.00  0.00    -0.507 OA
ATOM     20  H   UNL     1      -3.173  10.110  -9.107  1.00  0.00     0.293 HD
ENDBRANCH   5  19
TORSDOF 4
ENDMDL
MODEL 5
REMARK VINA RESULT:    -5.326      4.598      6.933
REMARK INTER + INTRA:          -6.842
REMARK INTER:                  -5.765
REMARK INTRA:                  -1.078
REMARK UNBOUND:                -0.582
REMARK SMILES O=C(O)c1cc(-c2ccc(F)cc2F)ccc1O
REMARK SMILES IDX 6 1 5 2 15 3 4 4 17 5 16 6 7 7 13 8 12 9 8 10 10 11 9 12
REMARK SMILES IDX 14 13 11 14 2 15 1 16 3 17 18 19
REMARK H PARENT 3 18 18 20
ROOT
ATOM      1  C   UNL     1      -1.770   7.644  -5.494  1.00  0.00    -0.014 A 
ATOM      2  C   UNL     1      -2.361   8.809  -5.006  1.00  0.00     0.028 A 
ATOM      3  C   UNL     1      -1.612   7.465  -6.868  1.00  0.00     0.013 A 
ATOM      4  C   UNL     1      -2.796   9.795  -5.893  1.00  0.00     0.102 A 
ATOM      5  C   UNL     1      -2.638   9.615  -7.267  1.00  0.00     0.130 A 
ATOM      6  C   UNL     1      -2.046   8.450  -7.755  1.00  0.00     0.048 A 
ENDROOT
BRANCH   1   7
ATOM      7  C   UNL     1      -1.320   6.621  -4.575  1.00  0.00     0.018 A 
ATOM      8  C   UNL     1      -2.214   5.657  -4.107  1.00  0.00     0.133 A 
ATOM      9  C   UNL     1      -1.776   4.673  -3.221  1.00  0.00     0.079 A 
ATOM     10  C   UNL     1       0.011   6.598  -4.159  1.00  0.00     0.015 A 
ATOM     11  C   UNL     1      -0.446   4.651  -2.804  1.00  0.00     0.126 A 
ATOM     12  C   UNL     1       0.448   5.614  -3.274  1.00  0.00     0.040 A 
ATOM     13  F   UNL     1      -3.497   5.666  -4.496  1.00  0.00    -0.206 F 
ATOM     14  F   UNL     1      -0.024   3.706  -1.954  1.00  0.00    -0.207 F 
ENDBRANCH   1   7
BRANCH   4  15
ATOM     15  C   UNL     1      -3.411  11.004  -5.363  1.00  0.00     0.339 C 
ATOM     16  O   UNL     1      -3.954  11.883  -6.038  1.00  0.00    -0.246 OA
BRANCH  15  17
ATOM     17  O   UNL     1      -3.329  11.076  -4.007  1.00  0.00    -0.478 OA
ATOM     18  H   UNL     1      -2.885  11.899  -3.712  1.00  0.00     0.297 HD
ENDBRANCH  15  17
ENDBRANCH   4  15
BRANCH   5  19
ATOM     19  O   UNL     1      -3.056  10.566  -8.150  1.00  0.00    -0.507 OA
ATOM     20  H   UNL     1      -2.419  10.620  -8.883  1.00  0.00     0.293 HD
ENDBRANCH   5  19
TORSDOF 4
ENDMDL
MODEL 6
REMARK VINA RESULT:    -5.127      1.782      2.986
REMARK INTER + INTRA:          -6.609
REMARK INTER:                  -5.816
REMARK INTRA:                  -0.793
REMARK UNBOUND:                -0.582
REMARK SMILES O=C(O)c1cc(-c2ccc(F)cc2F)ccc1O
REMARK SMILES IDX 6 1 5 2 15 3 4 4 17 5 16 6 7 7 13 8 12 9 8 10 10 11 9 12
REMARK SMILES IDX 14 13 11 14 2 15 1 16 3 17 18 19
REMARK H PARENT 3 18 18 20
ROOT
ATOM      1  C   UNL     1      -0.823   6.650  -4.297  1.00  0.00    -0.014 A 
ATOM      2  C   UNL     1      -1.583   6.119  -3.256  1.00  0.00     0.028 A 
ATOM      3  C   UNL     1       0.505   6.257  -4.463  1.00  0.00     0.013 A 
ATOM      4  C   UNL     1      -1.016   5.193  -2.380  1.00  0.00     0.102 A 
ATOM      5  C   UNL     1       0.312   4.800  -2.546  1.00  0.00     0.130 A 
ATOM      6  C   UNL     1       1.073   5.332  -3.588  1.00  0.00     0.048 A 
ENDROOT
BRANCH   1   7
ATOM      7  C   UNL     1      -1.411   7.611  -5.206  1.00  0.00     0.018 A 
ATOM      8  C   UNL     1      -2.037   8.754  -4.708  1.00  0.00     0.133 A 
ATOM      9  C   UNL     1      -2.603   9.678  -5.587  1.00  0.00     0.079 A 
ATOM     10  C   UNL     1      -1.350   7.393  -6.582  1.00  0.00     0.015 A 
ATOM     11  C   UNL     1      -2.542   9.459  -6.963  1.00  0.00     0.126 A 
ATOM     12  C   UNL     1      -1.915   8.317  -7.460  1.00  0.00     0.040 A 
ATOM     13  F   UNL     1      -2.107   8.977  -3.388  1.00  0.00    -0.206 F 
ATOM     14  F   UNL     1      -3.085  10.345  -7.808  1.00  0.00    -0.207 F 
ENDBRANCH   1   7
BRANCH   4  15
ATOM     15  C   UNL     1      -1.826   4.649  -1.299  1.00  0.00     0.339 C 
ATOM     16  O   UNL     1      -3.018   4.345  -1.384  1.00  0.00    -0.246 OA
BRANCH  15  17
ATOM     17  O   UNL     1      -1.120   4.502  -0.145  1.00  0.00    -0.478 OA
ATOM     18  H   UNL     1      -0.377   5.139  -0.088  1.00  0.00     0.297 HD
ENDBRANCH  15  17
ENDBRANCH   4  15
BRANCH   5  19
ATOM     19  O   UNL     1       0.886   3.897  -1.701  1.00  0.00    -0.507 OA
ATOM     20  H   UNL     1       0.390   3.060  -1.747  1.00  0.00     0.293 HD
ENDBRANCH   5  19
TORSDOF 4
ENDMDL
MODEL 7
REMARK VINA RESULT:    -4.389      1.855      2.581
REMARK INTER + INTRA:          -5.741
REMARK INTER:                  -4.715
REMARK INTRA:                  -1.026
REMARK UNBOUND:                -0.582
REMARK SMILES O=C(O)c1cc(-c2ccc(F)cc2F)ccc1O
REMARK SMILES IDX 6 1 5 2 15 3 4 4 17 5 16 6 7 7 13 8 12 9 8 10 10 11 9 12
REMARK SMILES IDX 14 13 11 14 2 15 1 16 3 17 18 19
REMARK H PARENT 3 18 18 20
ROOT
ATOM      1  C   UNL     1      -1.777   7.208  -4.916  1.00  0.00    -0.014 A 
ATOM      2  C   UNL     1      -0.395   7.064  -4.802  1.00  0.00     0.028 A 
ATOM      3  C   UNL     1      -2.620   6.162  -4.540  1.00  0.00     0.013 A 
ATOM      4  C   UNL     1       0.145   5.875  -4.313  1.00  0.00     0.102 A 
ATOM      5  C   UNL     1      -0.698   4.829  -3.937  1.00  0.00     0.130 A 
ATOM      6  C   UNL     1      -2.081   4.973  -4.051  1.00  0.00     0.048 A 
ENDROOT
BRANCH   1   7
ATOM      7  C   UNL     1      -2.338   8.441  -5.424  1.00  0.00     0.018 A 
ATOM      8  C   UNL     1      -2.288   8.723  -6.790  1.00  0.00     0.133 A 
ATOM      9  C   UNL     1      -2.829   9.913  -7.276  1.00  0.00     0.079 A 
ATOM     10  C   UNL     1      -2.931   9.348  -4.546  1.00  0.00     0.015 A 
ATOM     11  C   UNL     1      -3.421  10.820  -6.398  1.00  0.00     0.126 A 
ATOM     12  C   UNL     1      -3.472  10.537  -5.033  1.00  0.00     0.040 A 
ATOM     13  F   UNL     1      -1.719   7.863  -7.647  1.00  0.00    -0.206 F 
ATOM     14  F   UNL     1      -3.941  11.963  -6.864  1.00  0.00    -0.207 F 
ENDBRANCH   1   7
BRANCH   4  15
ATOM     15  C   UNL     1       1.592   5.744  -4.201  1.00  0.00     0.339 C 
ATOM     16  O   UNL     1       2.205   4.682  -4.080  1.00  0.00    -0.246 OA
BRANCH  15  17
ATOM     17  O   UNL     1       2.225   6.948  -4.247  1.00  0.00    -0.478 OA
ATOM     18  H   UNL     1       2.082   7.403  -5.103  1.00  0.00     0.297 HD
ENDBRANCH  15  17
ENDBRANCH   4  15
BRANCH   5  19
ATOM     19  O   UNL     1      -0.190   3.659  -3.456  1.00  0.00    -0.507 OA
ATOM     20  H   UNL     1      -0.542   3.504  -2.562  1.00  0.00     0.293 HD
ENDBRANCH   5  19
TORSDOF 4
ENDMDL
MODEL 8
REMARK VINA RESULT:    -4.076      6.152      8.511
REMARK INTER + INTRA:          -5.373
REMARK INTER:                  -4.312
REMARK INTRA:                  -1.061
REMARK UNBOUND:                -0.582
REMARK SMILES O=C(O)c1cc(-c2ccc(F)cc2F)ccc1O
REMARK SMILES IDX 6 1 5 2 15 3 4 4 17 5 16 6 7 7 13 8 12 9 8 10 10 11 9 12
REMARK SMILES IDX 14 13 11 14 2 15 1 16 3 17 18 19
REMARK H PARENT 3 18 18 20
ROOT
ATOM      1  C   UNL     1      -3.019  10.919  -5.625  1.00  0.00    -0.014 A 
ATOM      2  C   UNL     1      -3.804  11.359  -6.689  1.00  0.00     0.028 A 
ATOM      3  C   UNL     1      -2.770  11.766  -4.545  1.00  0.00     0.013 A 
ATOM      4  C   UNL     1      -4.342  12.647  -6.675  1.00  0.00     0.102 A 
ATOM      5  C   UNL     1      -4.093  13.494  -5.595  1.00  0.00     0.130 A 
ATOM      6  C   UNL     1      -3.307  13.053  -4.529  1.00  0.00     0.048 A 
ENDROOT
BRANCH   1   7
ATOM      7  C   UNL     1      -2.459   9.585  -5.640  1.00  0.00     0.018 A 
ATOM      8  C   UNL     1      -3.243   8.493  -5.266  1.00  0.00     0.133 A 
ATOM      9  C   UNL     1      -2.700   7.208  -5.282  1.00  0.00     0.079 A 
ATOM     10  C   UNL     1      -1.135   9.392  -6.031  1.00  0.00     0.015 A 
ATOM     11  C   UNL     1      -1.375   7.015  -5.672  1.00  0.00     0.126 A 
ATOM     12  C   UNL     1      -0.593   8.107  -6.047  1.00  0.00     0.040 A 
ATOM     13  F   UNL     1      -4.518   8.661  -4.886  1.00  0.00    -0.206 F 
ATOM     14  F   UNL     1      -0.853   5.782  -5.687  1.00  0.00    -0.207 F 
ENDBRANCH   1   7
BRANCH   4  15
ATOM     15  C   UNL     1      -5.161  13.087  -7.796  1.00  0.00     0.339 C 
ATOM     16  O   UNL     1      -5.535  14.245  -7.995  1.00  0.00    -0.246 OA
BRANCH  15  17
ATOM     17  O   UNL     1      -5.485  12.065  -8.634  1.00  0.00    -0.478 OA
ATOM     18  H   UNL     1      -4.688  11.608  -8.976  1.00  0.00     0.297 HD
ENDBRANCH  15  17
ENDBRANCH   4  15
BRANCH   5  19
ATOM     19  O   UNL     1      -4.610  14.755  -5.561  1.00  0.00    -0.507 OA
ATOM     20  H   UNL     1      -4.405  15.204  -6.398  1.00  0.00     0.293 HD
ENDBRANCH   5  19
TORSDOF 4
ENDMDL
MODEL 9
REMARK VINA RESULT:    -4.055      5.850      8.100
REMARK INTER + INTRA:          -5.349
REMARK INTER:                  -4.287
REMARK INTRA:                  -1.062
REMARK UNBOUND:                -0.582
REMARK SMILES O=C(O)c1cc(-c2ccc(F)cc2F)ccc1O
REMARK SMILES IDX 6 1 5 2 15 3 4 4 17 5 16 6 7 7 13 8 12 9 8 10 10 11 9 12
REMARK SMILES IDX 14 13 11 14 2 15 1 16 3 17 18 19
REMARK H PARENT 3 18 18 20
ROOT
ATOM      1  C   UNL     1      -2.175   8.288  -9.034  1.00  0.00    -0.014 A 
ATOM      2  C   UNL     1      -2.261   9.590  -9.525  1.00  0.00     0.028 A 
ATOM      3  C   UNL     1      -2.302   7.205  -9.903  1.00  0.00     0.013 A 
ATOM      4  C   UNL     1      -2.475   9.810 -10.886  1.00  0.00     0.102 A 
ATOM      5  C   UNL     1      -2.602   8.727 -11.755  1.00  0.00     0.130 A 
ATOM      6  C   UNL     1      -2.516   7.423 -11.263  1.00  0.00     0.048 A 
ENDROOT
BRANCH   1   7
ATOM      7  C   UNL     1      -1.954   8.060  -7.622  1.00  0.00     0.018 A 
ATOM      8  C   UNL     1      -0.666   8.142  -7.092  1.00  0.00     0.133 A 
ATOM      9  C   UNL     1      -0.458   7.921  -5.730  1.00  0.00     0.079 A 
ATOM     10  C   UNL     1      -3.033   7.758  -6.791  1.00  0.00     0.015 A 
ATOM     11  C   UNL     1      -1.536   7.618  -4.899  1.00  0.00     0.126 A 
ATOM     12  C   UNL     1      -2.824   7.538  -5.430  1.00  0.00     0.040 A 
ATOM     13  F   UNL     1       0.382   8.428  -7.877  1.00  0.00    -0.206 F 
ATOM     14  F   UNL     1      -1.337   7.406  -3.592  1.00  0.00    -0.207 F 
ENDBRANCH   1   7
BRANCH   4  15
ATOM     15  C   UNL     1      -2.561  11.178 -11.380  1.00  0.00     0.339 C 
ATOM     16  O   UNL     1      -2.920  11.506 -12.513  1.00  0.00    -0.246 OA
BRANCH  15  17
ATOM     17  O   UNL     1      -2.197  12.092 -10.440  1.00  0.00    -0.478 OA
ATOM     18  H   UNL     1      -1.929  12.943 -10.844  1.00  0.00     0.297 HD
ENDBRANCH  15  17
ENDBRANCH   4  15
BRANCH   5  19
ATOM     19  O   UNL     1      -2.811   8.920 -13.089  1.00  0.00    -0.507 OA
ATOM     20  H   UNL     1      -2.011   9.309 -13.482  1.00  0.00     0.293 HD
ENDBRANCH   5  19
TORSDOF 4
ENDMDL
