MODEL 1
REMARK VINA RESULT:    -6.821      0.000      0.000
REMARK INTER + INTRA:          -8.584
REMARK INTER:                  -8.017
REMARK INTRA:                  -0.567
REMARK UNBOUND:                -0.567
REMARK SMILES O=C(O)c1cc(-c2ccc(F)cc2F)ccc1O
REMARK SMILES IDX 6 1 5 2 15 3 4 4 17 5 16 6 7 7 13 8 12 9 8 10 10 11 9 12
REMARK SMILES IDX 14 13 11 14 2 15 1 16 3 17 18 19
REMARK H PARENT 3 18 18 20
ROOT
ATOM      1  C   UNL     1      -8.317   2.920   1.047  1.00  0.00    -0.014 A 
ATOM      2  C   UNL     1      -7.441   2.486   2.040  1.00  0.00     0.028 A 
ATOM      3  C   UNL     1      -7.829   3.256  -0.216  1.00  0.00     0.013 A 
ATOM      4  C   UNL     1      -6.075   2.388   1.771  1.00  0.00     0.102 A 
ATOM      5  C   UNL     1      -5.587   2.723   0.508  1.00  0.00     0.130 A 
ATOM      6  C   UNL     1      -6.465   3.158  -0.486  1.00  0.00     0.048 A 
ENDROOT
BRANCH   1   7
ATOM      7  C   UNL     1      -9.734   3.024   1.325  1.00  0.00     0.018 A 
ATOM      8  C   UNL     1     -10.390   2.001   2.011  1.00  0.00     0.133 A 
ATOM      9  C   UNL     1     -11.755   2.105   2.277  1.00  0.00     0.079 A 
ATOM     10  C   UNL     1     -10.442   4.150   0.907  1.00  0.00     0.015 A 
ATOM     11  C   UNL     1     -12.464   3.231   1.858  1.00  0.00     0.126 A 
ATOM     12  C   UNL     1     -11.807   4.254   1.174  1.00  0.00     0.040 A 
ATOM     13  F   UNL     1      -9.724   0.911   2.416  1.00  0.00    -0.206 F 
ATOM     14  F   UNL     1     -13.775   3.332   2.114  1.00  0.00    -0.207 F 
ENDBRANCH   1   7
BRANCH   4  15
ATOM     15  C   UNL     1      -5.176   1.932   2.822  1.00  0.00     0.339 C 
ATOM     16  O   UNL     1      -4.163   2.525   3.202  1.00  0.00    -0.246 OA
BRANCH  15  17
ATOM     17  O   UNL     1      -5.572   0.750   3.367  1.00  0.00    -0.478 OA
ATOM     18  H   UNL     1      -6.548   0.652   3.356  1.00  0.00     0.297 HD
ENDBRANCH  15  17
ENDBRANCH   4  15
BRANCH   5  19
ATOM     19  O   UNL     1      -4.257   2.633   0.225  1.00  0.00    -0.507 OA
ATOM     20  H   UNL     1      -4.063   3.168  -0.564  1.00  0.00     0.293 HD
ENDBRANCH   5  19
TORSDOF 4
ENDMDL
MODEL 2
REMARK VINA RESULT:    -6.816      1.124      1.607
REMARK INTER + INTRA:          -8.578
REMARK INTER:                  -8.015
REMARK INTRA:                  -0.563
REMARK UNBOUND:                -0.567
REMARK SMILES O=C(O)c1cc(-c2ccc(F)cc2F)ccc1O
REMARK SMILES IDX 6 1 5 2 15 3 4 4 17 5 16 6 7 7 13 8 12 9 8 10 10 11 9 12
REMARK SMILES IDX 14 13 11 14 2 15 1 16 3 17 18 19
REMARK H PARENT 3 18 18 20
ROOT
ATOM      1  C   UNL     1      -8.302   2.969   1.047  1.00  0.00    -0.014 A 
ATOM      2  C   UNL     1      -7.433   2.518   2.039  1.00  0.00     0.028 A 
ATOM      3  C   UNL     1      -7.805   3.316  -0.210  1.00  0.00     0.013 A 
ATOM      4  C   UNL     1      -6.067   2.412   1.776  1.00  0.00     0.102 A 
ATOM      5  C   UNL     1      -5.570   2.759   0.519  1.00  0.00     0.130 A 
ATOM      6  C   UNL     1      -6.440   3.211  -0.474  1.00  0.00     0.048 A 
ENDROOT
BRANCH   1   7
ATOM      7  C   UNL     1      -9.718   3.080   1.320  1.00  0.00     0.018 A 
ATOM      8  C   UNL     1     -10.422   4.218   0.922  1.00  0.00     0.133 A 
ATOM      9  C   UNL     1     -11.787   4.321   1.187  1.00  0.00     0.079 A 
ATOM     10  C   UNL     1     -10.381   2.046   1.981  1.00  0.00     0.015 A 
ATOM     11  C   UNL     1     -12.449   3.287   1.849  1.00  0.00     0.126 A 
ATOM     12  C   UNL     1     -11.746   2.150   2.246  1.00  0.00     0.040 A 
ATOM     13  F   UNL     1      -9.799   5.221   0.287  1.00  0.00    -0.206 F 
ATOM     14  F   UNL     1     -13.760   3.385   2.104  1.00  0.00    -0.207 F 
ENDBRANCH   1   7
BRANCH   4  15
ATOM     15  C   UNL     1      -5.176   1.938   2.826  1.00  0.00     0.339 C 
ATOM     16  O   UNL     1      -4.162   2.520   3.219  1.00  0.00    -0.246 OA
BRANCH  15  17
ATOM     17  O   UNL     1      -5.581   0.750   3.352  1.00  0.00    -0.478 OA
ATOM     18  H   UNL     1      -4.884   0.065   3.286  1.00  0.00     0.297 HD
ENDBRANCH  15  17
ENDBRANCH   4  15
BRANCH   5  19
ATOM     19  O   UNL     1      -4.239   2.663   0.241  1.00  0.00    -0.507 OA
ATOM     20  H   UNL     1      -3.838   2.006   0.836  1.00  0.00     0.293 HD
ENDBRANCH   5  19
TORSDOF 4
ENDMDL
MODEL 3
REMARK VINA RESULT:    -6.767      1.725      3.216
REMARK INTER + INTRA:          -8.521
REMARK INTER:                  -7.871
REMARK INTRA:                  -0.650
REMARK UNBOUND:                -0.567
REMARK SMILES O=C(O)c1cc(-c2ccc(F)cc2F)ccc1O
REMARK SMILES IDX 6 1 5 2 15 3 4 4 17 5 16 6 7 7 13 8 12 9 8 10 10 11 9 12
REMARK SMILES IDX 14 13 11 14 2 15 1 16 3 17 18 19
REMARK H PARENT 3 18 18 20
ROOT
ATOM      1  C   UNL     1      -8.389   3.132   1.022  1.00  0.00    -0.014 A 
ATOM      2  C   UNL     1      -7.974   3.441  -0.273  1.00  0.00     0.028 A 
ATOM      3  C   UNL     1      -7.449   2.779   1.990  1.00  0.00     0.013 A 
ATOM      4  C   UNL     1      -6.618   3.398  -0.600  1.00  0.00     0.102 A 
ATOM      5  C   UNL     1      -5.679   3.045   0.368  1.00  0.00     0.130 A 
ATOM      6  C   UNL     1      -6.094   2.736   1.664  1.00  0.00     0.048 A 
ENDROOT
BRANCH   1   7
ATOM      7  C   UNL     1      -9.795   3.176   1.361  1.00  0.00     0.018 A 
ATOM      8  C   UNL     1     -10.573   4.272   0.987  1.00  0.00     0.133 A 
ATOM      9  C   UNL     1     -11.928   4.310   1.317  1.00  0.00     0.079 A 
ATOM     10  C   UNL     1     -10.373   2.118   2.064  1.00  0.00     0.015 A 
ATOM     11  C   UNL     1     -12.505   3.253   2.020  1.00  0.00     0.126 A 
ATOM     12  C   UNL     1     -11.727   2.157   2.393  1.00  0.00     0.040 A 
ATOM     13  F   UNL     1     -10.033   5.298   0.314  1.00  0.00    -0.206 F 
ATOM     14  F   UNL     1     -13.805   3.289   2.337  1.00  0.00    -0.207 F 
ENDBRANCH   1   7
BRANCH   4  15
ATOM     15  C   UNL     1      -6.205   3.724  -1.958  1.00  0.00     0.339 C 
ATOM     16  O   UNL     1      -5.392   3.085  -2.630  1.00  0.00    -0.246 OA
BRANCH  15  17
ATOM     17  O   UNL     1      -6.823   4.839  -2.434  1.00  0.00    -0.478 OA
ATOM     18  H   UNL     1      -7.758   4.665  -2.671  1.00  0.00     0.297 HD
ENDBRANCH  15  17
ENDBRANCH   4  15
BRANCH   5  19
ATOM     19  O   UNL     1      -4.349   2.997   0.069  1.00  0.00    -0.507 OA
ATOM     20  H   UNL     1      -4.052   2.071   0.091  1.00  0.00     0.293 HD
ENDBRANCH   5  19
TORSDOF 4
ENDMDL
MODEL 4
REMARK VINA RESULT:    -5.170      4.179      6.451
REMARK INTER + INTRA:          -6.644
REMARK INTER:                  -5.579
REMARK INTRA:                  -1.065
REMARK UNBOUND:                -0.567
REMARK SMILES O=C(O)c1cc(-c2ccc(F)cc2F)ccc1O
REMARK SMILES IDX 6 1 5 2 15 3 4 4 17 5 16 6 7 7 13 8 12 9 8 10 10 11 9 12
REMARK SMILES IDX 14 13 11 14 2 15 1 16 3 17 18 19
REMARK H PARENT 3 18 18 20
ROOT
ATOM      1  C   UNL     1     -10.882   3.221   1.529  1.00  0.00    -0.014 A 
ATOM      2  C   UNL     1     -11.248   3.552   2.833  1.00  0.00     0.028 A 
ATOM      3  C   UNL     1     -11.863   2.946   0.577  1.00  0.00     0.013 A 
ATOM      4  C   UNL     1     -12.597   3.608   3.186  1.00  0.00     0.102 A 
ATOM      5  C   UNL     1     -13.579   3.334   2.234  1.00  0.00     0.130 A 
ATOM      6  C   UNL     1     -13.212   3.003   0.928  1.00  0.00     0.048 A 
ENDROOT
BRANCH   1   7
ATOM      7  C   UNL     1      -9.483   3.160   1.163  1.00  0.00     0.018 A 
ATOM      8  C   UNL     1      -8.876   4.248   0.535  1.00  0.00     0.133 A 
ATOM      9  C   UNL     1      -7.527   4.186   0.183  1.00  0.00     0.079 A 
ATOM     10  C   UNL     1      -8.742   2.012   1.441  1.00  0.00     0.015 A 
ATOM     11  C   UNL     1      -6.786   3.037   0.460  1.00  0.00     0.126 A 
ATOM     12  C   UNL     1      -7.394   1.951   1.090  1.00  0.00     0.040 A 
ATOM     13  F   UNL     1      -9.575   5.358   0.258  1.00  0.00    -0.206 F 
ATOM     14  F   UNL     1      -5.492   2.976   0.123  1.00  0.00    -0.207 F 
ENDBRANCH   1   7
BRANCH   4  15
ATOM     15  C   UNL     1     -12.959   3.956   4.553  1.00  0.00     0.339 C 
ATOM     16  O   UNL     1     -14.079   3.820   5.051  1.00  0.00    -0.246 OA
BRANCH  15  17
ATOM     17  O   UNL     1     -11.909   4.462   5.255  1.00  0.00    -0.478 OA
ATOM     18  H   UNL     1     -11.133   4.630   4.679  1.00  0.00     0.297 HD
ENDBRANCH  15  17
ENDBRANCH   4  15
BRANCH   5  19
ATOM     19  O   UNL     1     -14.902   3.385   2.558  1.00  0.00    -0.507 OA
ATOM     20  H   UNL     1     -15.339   2.579   2.232  1.00  0.00     0.293 HD
ENDBRANCH   5  19
TORSDOF 4
ENDMDL
MODEL 5
REMARK VINA RESULT:    -5.156      4.545      6.887
REMARK INTER + INTRA:          -6.628
REMARK INTER:                  -5.564
REMARK INTRA:                  -1.063
REMARK UNBOUND:                -0.567
REMARK SMILES O=C(O)c1cc(-c2ccc(F)cc2F)ccc1O
REMARK SMILES IDX 6 1 5 2 15 3 4 4 17 5 16 6 7 7 13 8 12 9 8 10 10 11 9 12
REMARK SMILES IDX 14 13 11 14 2 15 1 16 3 17 18 19
REMARK H PARENT 3 18 18 20
ROOT
ATOM      1  C   UNL     1     -10.877   3.175   1.501  1.00  0.00    -0.014 A 
ATOM      2  C   UNL     1     -11.821   2.890   0.515  1.00  0.00     0.028 A 
ATOM      3  C   UNL     1     -11.294   3.521   2.786  1.00  0.00     0.013 A 
ATOM      4  C   UNL     1     -13.183   2.951   0.813  1.00  0.00     0.102 A 
ATOM      5  C   UNL     1     -13.599   3.297   2.099  1.00  0.00     0.130 A 
ATOM      6  C   UNL     1     -12.655   3.582   3.085  1.00  0.00     0.048 A 
ENDROOT
BRANCH   1   7
ATOM      7  C   UNL     1      -9.465   3.113   1.191  1.00  0.00     0.018 A 
ATOM      8  C   UNL     1      -8.834   4.197   0.581  1.00  0.00     0.133 A 
ATOM      9  C   UNL     1      -7.472   4.133   0.284  1.00  0.00     0.079 A 
ATOM     10  C   UNL     1      -8.735   1.967   1.506  1.00  0.00     0.015 A 
ATOM     11  C   UNL     1      -6.742   2.987   0.598  1.00  0.00     0.126 A 
ATOM     12  C   UNL     1      -7.374   1.904   1.209  1.00  0.00     0.040 A 
ATOM     13  F   UNL     1      -9.521   5.305   0.270  1.00  0.00    -0.206 F 
ATOM     14  F   UNL     1      -5.435   2.925   0.313  1.00  0.00    -0.207 F 
ENDBRANCH   1   7
BRANCH   4  15
ATOM     15  C   UNL     1     -14.153   2.650  -0.231  1.00  0.00     0.339 C 
ATOM     16  O   UNL     1     -15.339   2.985  -0.221  1.00  0.00    -0.246 OA
BRANCH  15  17
ATOM     17  O   UNL     1     -13.607   1.939  -1.255  1.00  0.00    -0.478 OA
ATOM     18  H   UNL     1     -13.075   1.182  -0.931  1.00  0.00     0.297 HD
ENDBRANCH  15  17
ENDBRANCH   4  15
BRANCH   5  19
ATOM     19  O   UNL     1     -14.925   3.362   2.411  1.00  0.00    -0.507 OA
ATOM     20  H   UNL     1     -15.126   4.248   2.759  1.00  0.00     0.293 HD
ENDBRANCH   5  19
TORSDOF 4
ENDMDL
MODEL 6
REMARK VINA RESULT:    -4.940      8.515     10.735
REMARK INTER + INTRA:          -6.374
REMARK INTER:                  -5.331
REMARK INTRA:                  -1.042
REMARK UNBOUND:                -0.567
REMARK SMILES O=C(O)c1cc(-c2ccc(F)cc2F)ccc1O
REMARK SMILES IDX 6 1 5 2 15 3 4 4 17 5 16 6 7 7 13 8 12 9 8 10 10 11 9 12
REMARK SMILES IDX 14 13 11 14 2 15 1 16 3 17 18 19
REMARK H PARENT 3 18 18 20
ROOT
ATOM      1  C   UNL     1     -15.012   6.857   6.901  1.00  0.00    -0.014 A 
ATOM      2  C   UNL     1     -15.123   6.702   8.282  1.00  0.00     0.028 A 
ATOM      3  C   UNL     1     -15.494   8.014   6.288  1.00  0.00     0.013 A 
ATOM      4  C   UNL     1     -15.715   7.704   9.052  1.00  0.00     0.102 A 
ATOM      5  C   UNL     1     -16.197   8.860   8.439  1.00  0.00     0.130 A 
ATOM      6  C   UNL     1     -16.087   9.015   7.057  1.00  0.00     0.048 A 
ENDROOT
BRANCH   1   7
ATOM      7  C   UNL     1     -14.399   5.818   6.102  1.00  0.00     0.018 A 
ATOM      8  C   UNL     1     -15.131   4.686   5.744  1.00  0.00     0.133 A 
ATOM      9  C   UNL     1     -14.535   3.686   4.974  1.00  0.00     0.079 A 
ATOM     10  C   UNL     1     -13.073   5.951   5.689  1.00  0.00     0.015 A 
ATOM     11  C   UNL     1     -13.210   3.819   4.562  1.00  0.00     0.126 A 
ATOM     12  C   UNL     1     -12.479   4.952   4.919  1.00  0.00     0.040 A 
ATOM     13  F   UNL     1     -16.405   4.541   6.135  1.00  0.00    -0.206 F 
ATOM     14  F   UNL     1     -12.638   2.860   3.823  1.00  0.00    -0.207 F 
ENDBRANCH   1   7
BRANCH   4  15
ATOM     15  C   UNL     1     -15.821   7.523  10.493  1.00  0.00     0.339 C 
ATOM     16  O   UNL     1     -16.690   8.020  11.213  1.00  0.00    -0.246 OA
BRANCH  15  17
ATOM     17  O   UNL     1     -14.837   6.724  10.989  1.00  0.00    -0.478 OA
ATOM     18  H   UNL     1     -14.634   6.933  11.925  1.00  0.00     0.297 HD
ENDBRANCH  15  17
ENDBRANCH   4  15
BRANCH   5  19
ATOM     19  O   UNL     1     -16.779   9.851   9.173  1.00  0.00    -0.507 OA
ATOM     20  H   UNL     1     -16.478   9.781  10.096  1.00  0.00     0.293 HD
ENDBRANCH   5  19
TORSDOF 4
ENDMDL
MODEL 7
REMARK VINA RESULT:    -4.804      1.560      1.906
REMARK INTER + INTRA:          -6.213
REMARK INTER:                  -5.241
REMARK INTRA:                  -0.972
REMARK UNBOUND:                -0.567
REMARK SMILES O=C(O)c1cc(-c2ccc(F)cc2F)ccc1O
REMARK SMILES IDX 6 1 5 2 15 3 4 4 17 5 16 6 7 7 13 8 12 9 8 10 10 11 9 12
REMARK SMILES IDX 14 13 11 14 2 15 1 16 3 17 18 19
REMARK H PARENT 3 18 18 20
ROOT
ATOM      1  C   UNL     1      -9.661   3.292   1.273  1.00  0.00    -0.014 A 
ATOM      2  C   UNL     1      -8.919   2.315   1.936  1.00  0.00     0.028 A 
ATOM      3  C   UNL     1      -9.009   4.318   0.588  1.00  0.00     0.013 A 
ATOM      4  C   UNL     1      -7.524   2.364   1.915  1.00  0.00     0.102 A 
ATOM      5  C   UNL     1      -6.873   3.390   1.231  1.00  0.00     0.130 A 
ATOM      6  C   UNL     1      -7.616   4.367   0.567  1.00  0.00     0.048 A 
ENDROOT
BRANCH   1   7
ATOM      7  C   UNL     1     -11.107   3.242   1.295  1.00  0.00     0.018 A 
ATOM      8  C   UNL     1     -11.798   3.484   2.483  1.00  0.00     0.133 A 
ATOM      9  C   UNL     1     -13.192   3.435   2.500  1.00  0.00     0.079 A 
ATOM     10  C   UNL     1     -11.809   2.954   0.125  1.00  0.00     0.015 A 
ATOM     11  C   UNL     1     -13.894   3.146   1.330  1.00  0.00     0.126 A 
ATOM     12  C   UNL     1     -13.203   2.906   0.143  1.00  0.00     0.040 A 
ATOM     13  F   UNL     1     -11.137   3.759   3.616  1.00  0.00    -0.206 F 
ATOM     14  F   UNL     1     -15.232   3.099   1.345  1.00  0.00    -0.207 F 
ENDBRANCH   1   7
BRANCH   4  15
ATOM     15  C   UNL     1      -6.768   1.334   2.614  1.00  0.00     0.339 C 
ATOM     16  O   UNL     1      -5.559   1.377   2.857  1.00  0.00    -0.246 OA
BRANCH  15  17
ATOM     17  O   UNL     1      -7.547   0.283   2.988  1.00  0.00    -0.478 OA
ATOM     18  H   UNL     1      -7.202  -0.158   3.794  1.00  0.00     0.297 HD
ENDBRANCH  15  17
ENDBRANCH   4  15
BRANCH   5  19
ATOM     19  O   UNL     1      -5.512   3.455   1.198  1.00  0.00    -0.507 OA
ATOM     20  H   UNL     1      -5.146   2.663   1.629  1.00  0.00     0.293 HD
ENDBRANCH   5  19
TORSDOF 4
ENDMDL
MODEL 8
REMARK VINA RESULT:    -4.576      1.933      3.135
REMARK INTER + INTRA:          -5.945
REMARK INTER:                  -5.103
REMARK INTRA:                  -0.842
REMARK UNBOUND:                -0.567
REMARK SMILES O=C(O)c1cc(-c2ccc(F)cc2F)ccc1O
REMARK SMILES IDX 6 1 5 2 15 3 4 4 17 5 16 6 7 7 13 8 12 9 8 10 10 11 9 12
REMARK SMILES IDX 14 13 11 14 2 15 1 16 3 17 18 19
REMARK H PARENT 3 18 18 20
ROOT
ATOM      1  C   UNL     1      -9.671   2.671   1.277  1.00  0.00    -0.014 A 
ATOM      2  C   UNL     1      -9.088   3.400   0.242  1.00  0.00     0.028 A 
ATOM      3  C   UNL     1      -8.916   1.734   1.982  1.00  0.00     0.013 A 
ATOM      4  C   UNL     1      -7.748   3.194  -0.089  1.00  0.00     0.102 A 
ATOM      5  C   UNL     1      -6.993   2.258   0.617  1.00  0.00     0.130 A 
ATOM      6  C   UNL     1      -7.577   1.528   1.653  1.00  0.00     0.048 A 
ENDROOT
BRANCH   1   7
ATOM      7  C   UNL     1     -11.061   2.883   1.619  1.00  0.00     0.018 A 
ATOM      8  C   UNL     1     -12.053   2.725   0.650  1.00  0.00     0.133 A 
ATOM      9  C   UNL     1     -13.392   2.931   0.984  1.00  0.00     0.079 A 
ATOM     10  C   UNL     1     -11.408   3.245   2.920  1.00  0.00     0.015 A 
ATOM     11  C   UNL     1     -13.739   3.294   2.285  1.00  0.00     0.126 A 
ATOM     12  C   UNL     1     -12.746   3.451   3.253  1.00  0.00     0.040 A 
ATOM     13  F   UNL     1     -11.737   2.380  -0.606  1.00  0.00    -0.206 F 
ATOM     14  F   UNL     1     -15.024   3.492   2.607  1.00  0.00    -0.207 F 
ENDBRANCH   1   7
BRANCH   4  15
ATOM     15  C   UNL     1      -7.157   3.967  -1.173  1.00  0.00     0.339 C 
ATOM     16  O   UNL     1      -7.345   5.168  -1.377  1.00  0.00    -0.246 OA
BRANCH  15  17
ATOM     17  O   UNL     1      -6.349   3.212  -1.966  1.00  0.00    -0.478 OA
ATOM     18  H   UNL     1      -6.609   3.268  -2.910  1.00  0.00     0.297 HD
ENDBRANCH  15  17
ENDBRANCH   4  15
BRANCH   5  19
ATOM     19  O   UNL     1      -5.682   2.042   0.311  1.00  0.00    -0.507 OA
ATOM     20  H   UNL     1      -5.217   2.896   0.284  1.00  0.00     0.293 HD
ENDBRANCH   5  19
TORSDOF 4
ENDMDL
