MODEL 1
REMARK VINA RESULT:    -5.200      0.000      0.000
REMARK INTER + INTRA:          -7.133
REMARK INTER:                  -6.416
REMARK INTRA:                  -0.717
REMARK UNBOUND:                -0.717
REMARK SMILES Cc1ccc(C(=O)c2cc(O)c(O)c([N+](=O)[O-])c2)cc1
REMARK SMILES IDX 8 1 18 2 9 3 14 4 10 5 12 6 6 7 7 8 5 9 4 10 19 11 3 12
REMARK SMILES IDX 20 13 2 14 1 15 15 16 17 17 16 18 11 19 13 21
REMARK H PARENT 11 20 13 22
ROOT
ATOM      1  C   UNL     1      -8.350   2.571   0.268  1.00  0.00     0.033 A 
ATOM      2  C   UNL     1      -7.714   2.307   1.458  1.00  0.00     0.102 A 
ATOM      3  C   UNL     1      -7.672   2.882  -0.887  1.00  0.00     0.063 A 
ATOM      4  C   UNL     1      -6.320   2.354   1.495  1.00  0.00     0.315 A 
ATOM      5  C   UNL     1      -6.278   2.931  -0.851  1.00  0.00     0.165 A 
ATOM      6  C   UNL     1      -5.602   2.666   0.341  1.00  0.00     0.237 A 
ENDROOT
BRANCH   1   7
ATOM      7  C   UNL     1      -9.842   2.520   0.228  1.00  0.00     0.193 C 
ATOM      8  O   UNL     1     -10.371   2.146  -0.830  1.00  0.00    -0.289 OA
BRANCH   7   9
ATOM      9  C   UNL     1     -10.666   2.888   1.369  1.00  0.00     0.023 A 
ATOM     10  C   UNL     1     -11.245   4.156   1.431  1.00  0.00     0.012 A 
ATOM     11  C   UNL     1     -10.876   1.974   2.401  1.00  0.00     0.012 A 
ATOM     12  C   UNL     1     -12.035   4.508   2.525  1.00  0.00     0.004 A 
ATOM     13  C   UNL     1     -11.667   2.326   3.496  1.00  0.00     0.004 A 
ATOM     14  C   UNL     1     -12.246   3.594   3.558  1.00  0.00    -0.051 A 
ATOM     15  C   UNL     1     -13.089   3.971   4.728  1.00  0.00     0.044 C 
ENDBRANCH   7   9
ENDBRANCH   1   7
BRANCH   4  16
ATOM     16  N   UNL     1      -5.649   2.082   2.718  1.00  0.00     0.066 N 
ATOM     17  O   UNL     1      -6.175   1.289   3.535  1.00  0.00    -0.258 OA
ATOM     18  O   UNL     1      -4.550   2.642   2.944  1.00  0.00    -0.258 OA
ENDBRANCH   4  16
BRANCH   5  19
ATOM     19  O   UNL     1      -5.590   3.237  -1.986  1.00  0.00    -0.504 OA
ATOM     20  H   UNL     1      -5.565   2.461  -2.570  1.00  0.00     0.293 HD
ENDBRANCH   5  19
BRANCH   6  21
ATOM     21  O   UNL     1      -4.239   2.716   0.364  1.00  0.00    -0.500 OA
ATOM     22  H   UNL     1      -3.893   2.617  -0.537  1.00  0.00     0.294 HD
ENDBRANCH   6  21
TORSDOF 5
ENDMDL
MODEL 2
REMARK VINA RESULT:    -5.184      2.001      3.551
REMARK INTER + INTRA:          -7.114
REMARK INTER:                  -6.372
REMARK INTRA:                  -0.741
REMARK UNBOUND:                -0.717
REMARK SMILES Cc1ccc(C(=O)c2cc(O)c(O)c([N+](=O)[O-])c2)cc1
REMARK SMILES IDX 8 1 18 2 9 3 14 4 10 5 12 6 6 7 7 8 5 9 4 10 19 11 3 12
REMARK SMILES IDX 20 13 2 14 1 15 15 16 17 17 16 18 11 19 13 21
REMARK H PARENT 11 20 13 22
ROOT
ATOM      1  C   UNL     1      -7.989   3.351   1.812  1.00  0.00     0.033 A 
ATOM      2  C   UNL     1      -7.847   3.566   0.461  1.00  0.00     0.102 A 
ATOM      3  C   UNL     1      -6.955   2.927   2.613  1.00  0.00     0.063 A 
ATOM      4  C   UNL     1      -6.599   3.346  -0.122  1.00  0.00     0.315 A 
ATOM      5  C   UNL     1      -5.707   2.706   2.030  1.00  0.00     0.165 A 
ATOM      6  C   UNL     1      -5.528   2.916   0.662  1.00  0.00     0.237 A 
ENDROOT
BRANCH   1   7
ATOM      7  C   UNL     1      -9.325   3.586   2.437  1.00  0.00     0.193 C 
ATOM      8  O   UNL     1      -9.342   4.010   3.602  1.00  0.00    -0.289 OA
BRANCH   7   9
ATOM      9  C   UNL     1     -10.571   3.338   1.729  1.00  0.00     0.023 A 
ATOM     10  C   UNL     1     -11.251   2.134   1.915  1.00  0.00     0.012 A 
ATOM     11  C   UNL     1     -11.087   4.303   0.864  1.00  0.00     0.012 A 
ATOM     12  C   UNL     1     -12.446   1.896   1.237  1.00  0.00     0.004 A 
ATOM     13  C   UNL     1     -12.282   4.065   0.185  1.00  0.00     0.004 A 
ATOM     14  C   UNL     1     -12.962   2.861   0.371  1.00  0.00    -0.051 A 
ATOM     15  C   UNL     1     -14.239   2.606  -0.355  1.00  0.00     0.044 C 
ENDBRANCH   7   9
ENDBRANCH   1   7
BRANCH   4  16
ATOM     16  N   UNL     1      -6.436   3.564  -1.517  1.00  0.00     0.066 N 
ATOM     17  O   UNL     1      -7.142   4.435  -2.081  1.00  0.00    -0.258 OA
ATOM     18  O   UNL     1      -5.592   2.882  -2.143  1.00  0.00    -0.258 OA
ENDBRANCH   4  16
BRANCH   5  19
ATOM     19  O   UNL     1      -4.670   2.287   2.809  1.00  0.00    -0.504 OA
ATOM     20  H   UNL     1      -4.978   1.593   3.415  1.00  0.00     0.293 HD
ENDBRANCH   5  19
BRANCH   6  21
ATOM     21  O   UNL     1      -4.303   2.698   0.104  1.00  0.00    -0.500 OA
ATOM     22  H   UNL     1      -3.715   2.289   0.758  1.00  0.00     0.294 HD
ENDBRANCH   6  21
TORSDOF 5
ENDMDL
MODEL 3
REMARK VINA RESULT:    -4.406      1.655      2.945
REMARK INTER + INTRA:          -6.154
REMARK INTER:                  -5.424
REMARK INTRA:                  -0.730
REMARK UNBOUND:                -0.717
REMARK SMILES Cc1ccc(C(=O)c2cc(O)c(O)c([N+](=O)[O-])c2)cc1
REMARK SMILES IDX 8 1 18 2 9 3 14 4 10 5 12 6 6 7 7 8 5 9 4 10 19 11 3 12
REMARK SMILES IDX 20 13 2 14 1 15 15 16 17 17 16 18 11 19 13 21
REMARK H PARENT 11 20 13 22
ROOT
ATOM      1  C   UNL     1      -7.569   1.674   1.377  1.00  0.00     0.033 A 
ATOM      2  C   UNL     1      -7.437   2.054   0.061  1.00  0.00     0.102 A 
ATOM      3  C   UNL     1      -6.575   1.852   2.309  1.00  0.00     0.063 A 
ATOM      4  C   UNL     1      -6.242   2.649  -0.344  1.00  0.00     0.315 A 
ATOM      5  C   UNL     1      -5.379   2.446   1.904  1.00  0.00     0.165 A 
ATOM      6  C   UNL     1      -5.213   2.845   0.577  1.00  0.00     0.237 A 
ENDROOT
BRANCH   1   7
ATOM      7  C   UNL     1      -8.849   1.036   1.811  1.00  0.00     0.193 C 
ATOM      8  O   UNL     1      -8.890  -0.203   1.829  1.00  0.00    -0.289 OA
BRANCH   7   9
ATOM      9  C   UNL     1     -10.014   1.814   2.202  1.00  0.00     0.023 A 
ATOM     10  C   UNL     1     -10.263   3.048   1.601  1.00  0.00     0.012 A 
ATOM     11  C   UNL     1     -10.882   1.327   3.179  1.00  0.00     0.012 A 
ATOM     12  C   UNL     1     -11.380   3.793   1.976  1.00  0.00     0.004 A 
ATOM     13  C   UNL     1     -12.000   2.072   3.555  1.00  0.00     0.004 A 
ATOM     14  C   UNL     1     -12.249   3.306   2.953  1.00  0.00    -0.051 A 
ATOM     15  C   UNL     1     -13.442   4.104   3.355  1.00  0.00     0.044 C 
ENDBRANCH   7   9
ENDBRANCH   1   7
BRANCH   4  16
ATOM     16  N   UNL     1      -6.091   3.049  -1.700  1.00  0.00     0.066 N 
ATOM     17  O   UNL     1      -6.999   3.727  -2.237  1.00  0.00    -0.258 OA
ATOM     18  O   UNL     1      -5.054   2.712  -2.319  1.00  0.00    -0.258 OA
ENDBRANCH   4  16
BRANCH   5  19
ATOM     19  O   UNL     1      -4.383   2.632   2.814  1.00  0.00    -0.504 OA
ATOM     20  H   UNL     1      -3.622   3.055   2.383  1.00  0.00     0.293 HD
ENDBRANCH   5  19
BRANCH   6  21
ATOM     21  O   UNL     1      -4.039   3.426   0.193  1.00  0.00    -0.500 OA
ATOM     22  H   UNL     1      -4.082   3.655  -0.749  1.00  0.00     0.294 HD
ENDBRANCH   6  21
TORSDOF 5
ENDMDL
MODEL 4
REMARK VINA RESULT:    -4.361      2.322      4.005
REMARK INTER + INTRA:          -6.098
REMARK INTER:                  -5.121
REMARK INTRA:                  -0.977
REMARK UNBOUND:                -0.717
REMARK SMILES Cc1ccc(C(=O)c2cc(O)c(O)c([N+](=O)[O-])c2)cc1
REMARK SMILES IDX 8 1 18 2 9 3 14 4 10 5 12 6 6 7 7 8 5 9 4 10 19 11 3 12
REMARK SMILES IDX 20 13 2 14 1 15 15 16 17 17 16 18 11 19 13 21
REMARK H PARENT 11 20 13 22
ROOT
ATOM      1  C   UNL     1     -11.154   2.370   2.260  1.00  0.00     0.033 A 
ATOM      2  C   UNL     1     -10.064   2.997   1.701  1.00  0.00     0.102 A 
ATOM      3  C   UNL     1     -11.086   1.119   2.826  1.00  0.00     0.063 A 
ATOM      4  C   UNL     1      -8.837   2.335   1.710  1.00  0.00     0.315 A 
ATOM      5  C   UNL     1      -9.858   0.456   2.834  1.00  0.00     0.165 A 
ATOM      6  C   UNL     1      -8.733   1.065   2.277  1.00  0.00     0.237 A 
ENDROOT
BRANCH   1   7
ATOM      7  C   UNL     1     -12.469   3.078   2.250  1.00  0.00     0.193 C 
ATOM      8  O   UNL     1     -13.104   3.085   1.185  1.00  0.00    -0.289 OA
BRANCH   7   9
ATOM      9  C   UNL     1     -13.006   3.741   3.428  1.00  0.00     0.023 A 
ATOM     10  C   UNL     1     -12.221   4.652   4.134  1.00  0.00     0.012 A 
ATOM     11  C   UNL     1     -14.307   3.467   3.850  1.00  0.00     0.012 A 
ATOM     12  C   UNL     1     -12.737   5.288   5.263  1.00  0.00     0.004 A 
ATOM     13  C   UNL     1     -14.823   4.103   4.980  1.00  0.00     0.004 A 
ATOM     14  C   UNL     1     -14.038   5.014   5.687  1.00  0.00    -0.051 A 
ATOM     15  C   UNL     1     -14.588   5.693   6.894  1.00  0.00     0.044 C 
ENDBRANCH   7   9
ENDBRANCH   1   7
BRANCH   4  16
ATOM     16  N   UNL     1      -7.701   2.971   1.137  1.00  0.00     0.066 N 
ATOM     17  O   UNL     1      -7.595   4.218   1.228  1.00  0.00    -0.258 OA
ATOM     18  O   UNL     1      -6.841   2.267   0.559  1.00  0.00    -0.258 OA
ENDBRANCH   4  16
BRANCH   5  19
ATOM     19  O   UNL     1      -9.772  -0.784   3.392  1.00  0.00    -0.504 OA
ATOM     20  H   UNL     1     -10.661  -1.168   3.471  1.00  0.00     0.293 HD
ENDBRANCH   5  19
BRANCH   6  21
ATOM     21  O   UNL     1      -7.537   0.407   2.292  1.00  0.00    -0.500 OA
ATOM     22  H   UNL     1      -7.560  -0.325   1.656  1.00  0.00     0.294 HD
ENDBRANCH   6  21
TORSDOF 5
ENDMDL
MODEL 5
REMARK VINA RESULT:    -4.310      3.502      7.174
REMARK INTER + INTRA:          -6.035
REMARK INTER:                  -5.107
REMARK INTRA:                  -0.929
REMARK UNBOUND:                -0.717
REMARK SMILES Cc1ccc(C(=O)c2cc(O)c(O)c([N+](=O)[O-])c2)cc1
REMARK SMILES IDX 8 1 18 2 9 3 14 4 10 5 12 6 6 7 7 8 5 9 4 10 19 11 3 12
REMARK SMILES IDX 20 13 2 14 1 15 15 16 17 17 16 18 11 19 13 21
REMARK H PARENT 11 20 13 22
ROOT
ATOM      1  C   UNL     1     -11.209   2.542   2.227  1.00  0.00     0.033 A 
ATOM      2  C   UNL     1     -12.109   2.491   1.188  1.00  0.00     0.102 A 
ATOM      3  C   UNL     1     -11.541   2.998   3.480  1.00  0.00     0.063 A 
ATOM      4  C   UNL     1     -13.416   2.920   1.416  1.00  0.00     0.315 A 
ATOM      5  C   UNL     1     -12.848   3.429   3.708  1.00  0.00     0.165 A 
ATOM      6  C   UNL     1     -13.786   3.389   2.676  1.00  0.00     0.237 A 
ENDROOT
BRANCH   1   7
ATOM      7  C   UNL     1      -9.809   2.081   1.983  1.00  0.00     0.193 C 
ATOM      8  O   UNL     1      -9.367   1.187   2.719  1.00  0.00    -0.289 OA
BRANCH   7   9
ATOM      9  C   UNL     1      -8.976   2.642   0.931  1.00  0.00     0.023 A 
ATOM     10  C   UNL     1      -8.223   1.800   0.113  1.00  0.00     0.012 A 
ATOM     11  C   UNL     1      -8.930   4.023   0.739  1.00  0.00     0.012 A 
ATOM     12  C   UNL     1      -7.424   2.338  -0.896  1.00  0.00     0.004 A 
ATOM     13  C   UNL     1      -8.132   4.562  -0.271  1.00  0.00     0.004 A 
ATOM     14  C   UNL     1      -7.379   3.719  -1.088  1.00  0.00    -0.051 A 
ATOM     15  C   UNL     1      -6.524   4.294  -2.166  1.00  0.00     0.044 C 
ENDBRANCH   7   9
ENDBRANCH   1   7
BRANCH   4  16
ATOM     16  N   UNL     1     -14.358   2.873   0.352  1.00  0.00     0.066 N 
ATOM     17  O   UNL     1     -13.949   3.016  -0.826  1.00  0.00    -0.258 OA
ATOM     18  O   UNL     1     -15.568   2.689   0.621  1.00  0.00    -0.258 OA
ENDBRANCH   4  16
BRANCH   5  19
ATOM     19  O   UNL     1     -13.196   3.884   4.945  1.00  0.00    -0.504 OA
ATOM     20  H   UNL     1     -14.135   3.695   5.109  1.00  0.00     0.293 HD
ENDBRANCH   5  19
BRANCH   6  21
ATOM     21  O   UNL     1     -15.062   3.812   2.912  1.00  0.00    -0.500 OA
ATOM     22  H   UNL     1     -15.529   3.155   3.451  1.00  0.00     0.294 HD
ENDBRANCH   6  21
TORSDOF 5
ENDMDL
MODEL 6
REMARK VINA RESULT:    -4.302      3.613      6.505
REMARK INTER + INTRA:          -6.025
REMARK INTER:                  -5.099
REMARK INTRA:                  -0.926
REMARK UNBOUND:                -0.717
REMARK SMILES Cc1ccc(C(=O)c2cc(O)c(O)c([N+](=O)[O-])c2)cc1
REMARK SMILES IDX 8 1 18 2 9 3 14 4 10 5 12 6 6 7 7 8 5 9 4 10 19 11 3 12
REMARK SMILES IDX 20 13 2 14 1 15 15 16 17 17 16 18 11 19 13 21
REMARK H PARENT 11 20 13 22
ROOT
ATOM      1  C   UNL     1     -11.338   3.777   1.108  1.00  0.00     0.033 A 
ATOM      2  C   UNL     1     -11.760   3.889   2.412  1.00  0.00     0.102 A 
ATOM      3  C   UNL     1     -12.175   3.407   0.082  1.00  0.00     0.063 A 
ATOM      4  C   UNL     1     -13.096   3.617   2.707  1.00  0.00     0.315 A 
ATOM      5  C   UNL     1     -13.511   3.133   0.376  1.00  0.00     0.165 A 
ATOM      6  C   UNL     1     -13.972   3.239   1.689  1.00  0.00     0.237 A 
ENDROOT
BRANCH   1   7
ATOM      7  C   UNL     1      -9.907   4.068   0.792  1.00  0.00     0.193 C 
ATOM      8  O   UNL     1      -9.678   4.938  -0.062  1.00  0.00    -0.289 OA
BRANCH   7   9
ATOM      9  C   UNL     1      -8.808   3.376   1.445  1.00  0.00     0.023 A 
ATOM     10  C   UNL     1      -8.861   1.993   1.623  1.00  0.00     0.012 A 
ATOM     11  C   UNL     1      -7.699   4.094   1.894  1.00  0.00     0.012 A 
ATOM     12  C   UNL     1      -7.807   1.329   2.249  1.00  0.00     0.004 A 
ATOM     13  C   UNL     1      -6.644   3.430   2.521  1.00  0.00     0.004 A 
ATOM     14  C   UNL     1      -6.698   2.047   2.698  1.00  0.00    -0.051 A 
ATOM     15  C   UNL     1      -5.571   1.337   3.369  1.00  0.00     0.044 C 
ENDBRANCH   7   9
ENDBRANCH   1   7
BRANCH   4  16
ATOM     16  N   UNL     1     -13.547   3.730   4.051  1.00  0.00     0.066 N 
ATOM     17  O   UNL     1     -14.739   4.057   4.264  1.00  0.00    -0.258 OA
ATOM     18  O   UNL     1     -12.741   3.498   4.982  1.00  0.00    -0.258 OA
ENDBRANCH   4  16
BRANCH   5  19
ATOM     19  O   UNL     1     -14.355   2.766  -0.628  1.00  0.00    -0.504 OA
ATOM     20  H   UNL     1     -14.762   3.557  -1.017  1.00  0.00     0.293 HD
ENDBRANCH   5  19
BRANCH   6  21
ATOM     21  O   UNL     1     -15.281   2.970   1.965  1.00  0.00    -0.500 OA
ATOM     22  H   UNL     1     -15.337   2.348   2.707  1.00  0.00     0.294 HD
ENDBRANCH   6  21
TORSDOF 5
ENDMDL
MODEL 7
REMARK VINA RESULT:    -4.260      1.959      2.646
REMARK INTER + INTRA:          -5.973
REMARK INTER:                  -5.299
REMARK INTRA:                  -0.674
REMARK UNBOUND:                -0.717
REMARK SMILES Cc1ccc(C(=O)c2cc(O)c(O)c([N+](=O)[O-])c2)cc1
REMARK SMILES IDX 8 1 18 2 9 3 14 4 10 5 12 6 6 7 7 8 5 9 4 10 19 11 3 12
REMARK SMILES IDX 20 13 2 14 1 15 15 16 17 17 16 18 11 19 13 21
REMARK H PARENT 11 20 13 22
ROOT
ATOM      1  C   UNL     1      -8.557   3.373   1.736  1.00  0.00     0.033 A 
ATOM      2  C   UNL     1      -7.585   2.769   2.499  1.00  0.00     0.102 A 
ATOM      3  C   UNL     1      -8.324   3.841   0.465  1.00  0.00     0.063 A 
ATOM      4  C   UNL     1      -6.308   2.623   1.959  1.00  0.00     0.315 A 
ATOM      5  C   UNL     1      -7.046   3.696  -0.076  1.00  0.00     0.165 A 
ATOM      6  C   UNL     1      -6.038   3.086   0.671  1.00  0.00     0.237 A 
ENDROOT
BRANCH   1   7
ATOM      7  C   UNL     1      -9.925   3.530   2.315  1.00  0.00     0.193 C 
ATOM      8  O   UNL     1     -10.005   3.934   3.485  1.00  0.00    -0.289 OA
BRANCH   7   9
ATOM      9  C   UNL     1     -11.131   3.228   1.560  1.00  0.00     0.023 A 
ATOM     10  C   UNL     1     -11.756   1.990   1.710  1.00  0.00     0.012 A 
ATOM     11  C   UNL     1     -11.662   4.176   0.686  1.00  0.00     0.012 A 
ATOM     12  C   UNL     1     -12.912   1.701   0.985  1.00  0.00     0.004 A 
ATOM     13  C   UNL     1     -12.819   3.888  -0.039  1.00  0.00     0.004 A 
ATOM     14  C   UNL     1     -13.444   2.650   0.111  1.00  0.00    -0.051 A 
ATOM     15  C   UNL     1     -14.679   2.340  -0.664  1.00  0.00     0.044 C 
ENDBRANCH   7   9
ENDBRANCH   1   7
BRANCH   4  16
ATOM     16  N   UNL     1      -5.293   1.999   2.735  1.00  0.00     0.066 N 
ATOM     17  O   UNL     1      -4.243   2.639   2.987  1.00  0.00    -0.258 OA
ATOM     18  O   UNL     1      -5.476   0.829   3.146  1.00  0.00    -0.258 OA
ENDBRANCH   4  16
BRANCH   5  19
ATOM     19  O   UNL     1      -6.797   4.153  -1.335  1.00  0.00    -0.504 OA
ATOM     20  H   UNL     1      -7.066   5.084  -1.402  1.00  0.00     0.293 HD
ENDBRANCH   5  19
BRANCH   6  21
ATOM     21  O   UNL     1      -4.792   2.949   0.131  1.00  0.00    -0.500 OA
ATOM     22  H   UNL     1      -4.536   2.013   0.134  1.00  0.00     0.294 HD
ENDBRANCH   6  21
TORSDOF 5
ENDMDL
MODEL 8
REMARK VINA RESULT:    -4.220      3.669      6.728
REMARK INTER + INTRA:          -5.924
REMARK INTER:                  -4.970
REMARK INTRA:                  -0.953
REMARK UNBOUND:                -0.717
REMARK SMILES Cc1ccc(C(=O)c2cc(O)c(O)c([N+](=O)[O-])c2)cc1
REMARK SMILES IDX 8 1 18 2 9 3 14 4 10 5 12 6 6 7 7 8 5 9 4 10 19 11 3 12
REMARK SMILES IDX 20 13 2 14 1 15 15 16 17 17 16 18 11 19 13 21
REMARK H PARENT 11 20 13 22
ROOT
ATOM      1  C   UNL     1     -11.251   2.561   2.180  1.00  0.00     0.033 A 
ATOM      2  C   UNL     1     -11.605   3.077   3.405  1.00  0.00     0.102 A 
ATOM      3  C   UNL     1     -12.139   2.433   1.139  1.00  0.00     0.063 A 
ATOM      4  C   UNL     1     -12.923   3.491   3.598  1.00  0.00     0.315 A 
ATOM      5  C   UNL     1     -13.458   2.846   1.332  1.00  0.00     0.165 A 
ATOM      6  C   UNL     1     -13.850   3.376   2.563  1.00  0.00     0.237 A 
ENDROOT
BRANCH   1   7
ATOM      7  C   UNL     1      -9.839   2.118   1.973  1.00  0.00     0.193 C 
ATOM      8  O   UNL     1      -9.398   1.246   2.737  1.00  0.00    -0.289 OA
BRANCH   7   9
ATOM      9  C   UNL     1      -8.995   2.668   0.925  1.00  0.00     0.023 A 
ATOM     10  C   UNL     1      -8.943   4.048   0.724  1.00  0.00     0.012 A 
ATOM     11  C   UNL     1      -8.237   1.818   0.120  1.00  0.00     0.012 A 
ATOM     12  C   UNL     1      -8.134   4.576  -0.281  1.00  0.00     0.004 A 
ATOM     13  C   UNL     1      -7.426   2.346  -0.885  1.00  0.00     0.004 A 
ATOM     14  C   UNL     1      -7.374   3.725  -1.086  1.00  0.00    -0.051 A 
ATOM     15  C   UNL     1      -6.510   4.291  -2.161  1.00  0.00     0.044 C 
ENDBRANCH   7   9
ENDBRANCH   1   7
BRANCH   4  16
ATOM     16  N   UNL     1     -13.304   4.027   4.859  1.00  0.00     0.066 N 
ATOM     17  O   UNL     1     -12.489   4.750   5.481  1.00  0.00    -0.258 OA
ATOM     18  O   UNL     1     -14.442   3.763   5.311  1.00  0.00    -0.258 OA
ENDBRANCH   4  16
BRANCH   5  19
ATOM     19  O   UNL     1     -14.352   2.728   0.311  1.00  0.00    -0.504 OA
ATOM     20  H   UNL     1     -14.423   1.796   0.047  1.00  0.00     0.293 HD
ENDBRANCH   5  19
BRANCH   6  21
ATOM     21  O   UNL     1     -15.142   3.777   2.740  1.00  0.00    -0.500 OA
ATOM     22  H   UNL     1     -15.282   4.025   3.667  1.00  0.00     0.294 HD
ENDBRANCH   6  21
TORSDOF 5
ENDMDL
MODEL 9
REMARK VINA RESULT:    -4.110      3.696      7.051
REMARK INTER + INTRA:          -5.788
REMARK INTER:                  -4.910
REMARK INTRA:                  -0.878
REMARK UNBOUND:                -0.717
REMARK SMILES Cc1ccc(C(=O)c2cc(O)c(O)c([N+](=O)[O-])c2)cc1
REMARK SMILES IDX 8 1 18 2 9 3 14 4 10 5 12 6 6 7 7 8 5 9 4 10 19 11 3 12
REMARK SMILES IDX 20 13 2 14 1 15 15 16 17 17 16 18 11 19 13 21
REMARK H PARENT 11 20 13 22
ROOT
ATOM      1  C   UNL     1     -11.413   3.533   1.448  1.00  0.00     0.033 A 
ATOM      2  C   UNL     1     -12.466   3.172   0.641  1.00  0.00     0.102 A 
ATOM      3  C   UNL     1     -11.562   3.830   2.782  1.00  0.00     0.063 A 
ATOM      4  C   UNL     1     -13.742   3.102   1.200  1.00  0.00     0.315 A 
ATOM      5  C   UNL     1     -12.838   3.761   3.342  1.00  0.00     0.165 A 
ATOM      6  C   UNL     1     -13.929   3.397   2.551  1.00  0.00     0.237 A 
ENDROOT
BRANCH   1   7
ATOM      7  C   UNL     1     -10.046   3.607   0.849  1.00  0.00     0.193 C 
ATOM      8  O   UNL     1      -9.936   4.177  -0.247  1.00  0.00    -0.289 OA
BRANCH   7   9
ATOM      9  C   UNL     1      -8.876   3.043   1.502  1.00  0.00     0.023 A 
ATOM     10  C   UNL     1      -8.827   1.678   1.788  1.00  0.00     0.012 A 
ATOM     11  C   UNL     1      -7.803   3.866   1.844  1.00  0.00     0.012 A 
ATOM     12  C   UNL     1      -7.705   1.138   2.414  1.00  0.00     0.004 A 
ATOM     13  C   UNL     1      -6.680   3.325   2.471  1.00  0.00     0.004 A 
ATOM     14  C   UNL     1      -6.631   1.961   2.756  1.00  0.00    -0.051 A 
ATOM     15  C   UNL     1      -5.432   1.382   3.428  1.00  0.00     0.044 C 
ENDBRANCH   7   9
ENDBRANCH   1   7
BRANCH   4  16
ATOM     16  N   UNL     1     -14.841   2.730   0.378  1.00  0.00     0.066 N 
ATOM     17  O   UNL     1     -14.616   2.122  -0.696  1.00  0.00    -0.258 OA
ATOM     18  O   UNL     1     -16.002   3.019   0.752  1.00  0.00    -0.258 OA
ENDBRANCH   4  16
BRANCH   5  19
ATOM     19  O   UNL     1     -13.005   4.051   4.662  1.00  0.00    -0.504 OA
ATOM     20  H   UNL     1     -13.751   3.540   5.016  1.00  0.00     0.293 HD
ENDBRANCH   5  19
BRANCH   6  21
ATOM     21  O   UNL     1     -15.172   3.333   3.110  1.00  0.00    -0.500 OA
ATOM     22  H   UNL     1     -15.392   4.187   3.514  1.00  0.00     0.294 HD
ENDBRANCH   6  21
TORSDOF 5
ENDMDL
