MODEL 1
REMARK VINA RESULT:    -6.947      0.000      0.000
REMARK INTER + INTRA:          -8.768
REMARK INTER:                  -8.165
REMARK INTRA:                  -0.603
REMARK UNBOUND:                -0.603
REMARK SMILES O=C(O)c1cc(-c2ccc(F)cc2F)ccc1O
REMARK SMILES IDX 6 1 5 2 15 3 4 4 17 5 16 6 7 7 13 8 12 9 8 10 10 11 9 12
REMARK SMILES IDX 14 13 11 14 2 15 1 16 3 17 18 19
REMARK H PARENT 3 18 18 20
ROOT
ATOM      1  C   UNL     1       4.668  -4.055   3.694  1.00  0.00    -0.014 A 
ATOM      2  C   UNL     1       4.304  -2.721   3.873  1.00  0.00     0.028 A 
ATOM      3  C   UNL     1       4.204  -4.763   2.586  1.00  0.00     0.013 A 
ATOM      4  C   UNL     1       3.474  -2.094   2.943  1.00  0.00     0.102 A 
ATOM      5  C   UNL     1       3.009  -2.802   1.834  1.00  0.00     0.130 A 
ATOM      6  C   UNL     1       3.374  -4.137   1.656  1.00  0.00     0.048 A 
ENDROOT
BRANCH   1   7
ATOM      7  C   UNL     1       5.528  -4.707   4.659  1.00  0.00     0.018 A 
ATOM      8  C   UNL     1       5.183  -5.957   5.172  1.00  0.00     0.133 A 
ATOM      9  C   UNL     1       6.015  -6.582   6.102  1.00  0.00     0.079 A 
ATOM     10  C   UNL     1       6.703  -4.082   5.074  1.00  0.00     0.015 A 
ATOM     11  C   UNL     1       7.190  -5.957   6.518  1.00  0.00     0.126 A 
ATOM     12  C   UNL     1       7.534  -4.706   6.004  1.00  0.00     0.040 A 
ATOM     13  F   UNL     1       4.056  -6.570   4.785  1.00  0.00    -0.206 F 
ATOM     14  F   UNL     1       7.988  -6.555   7.411  1.00  0.00    -0.207 F 
ENDBRANCH   1   7
BRANCH   4  15
ATOM     15  C   UNL     1       3.104  -0.700   3.147  1.00  0.00     0.339 C 
ATOM     16  O   UNL     1       1.950  -0.268   3.202  1.00  0.00    -0.246 OA
BRANCH  15  17
ATOM     17  O   UNL     1       4.190   0.110   3.278  1.00  0.00    -0.478 OA
ATOM     18  H   UNL     1       4.864  -0.278   3.875  1.00  0.00     0.297 HD
ENDBRANCH  15  17
ENDBRANCH   4  15
BRANCH   5  19
ATOM     19  O   UNL     1       2.198  -2.208   0.914  1.00  0.00    -0.507 OA
ATOM     20  H   UNL     1       1.283  -2.505   1.058  1.00  0.00     0.293 HD
ENDBRANCH   5  19
TORSDOF 4
ENDMDL
MODEL 2
REMARK VINA RESULT:    -6.942      1.129      1.608
REMARK INTER + INTRA:          -8.763
REMARK INTER:                  -8.176
REMARK INTRA:                  -0.587
REMARK UNBOUND:                -0.603
REMARK SMILES O=C(O)c1cc(-c2ccc(F)cc2F)ccc1O
REMARK SMILES IDX 6 1 5 2 15 3 4 4 17 5 16 6 7 7 13 8 12 9 8 10 10 11 9 12
REMARK SMILES IDX 14 13 11 14 2 15 1 16 3 17 18 19
REMARK H PARENT 3 18 18 20
ROOT
ATOM      1  C   UNL     1       4.702  -4.030   3.709  1.00  0.00    -0.014 A 
ATOM      2  C   UNL     1       4.327  -2.698   3.882  1.00  0.00     0.028 A 
ATOM      3  C   UNL     1       4.236  -4.749   2.608  1.00  0.00     0.013 A 
ATOM      4  C   UNL     1       3.486  -2.083   2.953  1.00  0.00     0.102 A 
ATOM      5  C   UNL     1       3.021  -2.802   1.852  1.00  0.00     0.130 A 
ATOM      6  C   UNL     1       3.395  -4.135   1.680  1.00  0.00     0.048 A 
ENDROOT
BRANCH   1   7
ATOM      7  C   UNL     1       5.573  -4.668   4.673  1.00  0.00     0.018 A 
ATOM      8  C   UNL     1       6.729  -4.021   5.109  1.00  0.00     0.133 A 
ATOM      9  C   UNL     1       7.566  -4.640   6.038  1.00  0.00     0.079 A 
ATOM     10  C   UNL     1       5.253  -5.933   5.166  1.00  0.00     0.015 A 
ATOM     11  C   UNL     1       7.247  -5.905   6.530  1.00  0.00     0.126 A 
ATOM     12  C   UNL     1       6.090  -6.551   6.094  1.00  0.00     0.040 A 
ATOM     13  F   UNL     1       7.052  -2.806   4.643  1.00  0.00    -0.206 F 
ATOM     14  F   UNL     1       8.050  -6.500   7.421  1.00  0.00    -0.207 F 
ENDBRANCH   1   7
BRANCH   4  15
ATOM     15  C   UNL     1       3.107  -0.691   3.151  1.00  0.00     0.339 C 
ATOM     16  O   UNL     1       1.951  -0.267   3.205  1.00  0.00    -0.246 OA
BRANCH  15  17
ATOM     17  O   UNL     1       4.187   0.127   3.278  1.00  0.00    -0.478 OA
ATOM     18  H   UNL     1       4.796   0.049   2.513  1.00  0.00     0.297 HD
ENDBRANCH  15  17
ENDBRANCH   4  15
BRANCH   5  19
ATOM     19  O   UNL     1       2.199  -2.220   0.933  1.00  0.00    -0.507 OA
ATOM     20  H   UNL     1       1.852  -1.388   1.300  1.00  0.00     0.293 HD
ENDBRANCH   5  19
TORSDOF 4
ENDMDL
MODEL 3
REMARK VINA RESULT:    -6.920      1.661      3.133
REMARK INTER + INTRA:          -8.737
REMARK INTER:                  -8.138
REMARK INTRA:                  -0.599
REMARK UNBOUND:                -0.603
REMARK SMILES O=C(O)c1cc(-c2ccc(F)cc2F)ccc1O
REMARK SMILES IDX 6 1 5 2 15 3 4 4 17 5 16 6 7 7 13 8 12 9 8 10 10 11 9 12
REMARK SMILES IDX 14 13 11 14 2 15 1 16 3 17 18 19
REMARK H PARENT 3 18 18 20
ROOT
ATOM      1  C   UNL     1       4.644  -3.988   3.772  1.00  0.00    -0.014 A 
ATOM      2  C   UNL     1       4.179  -4.732   2.689  1.00  0.00     0.028 A 
ATOM      3  C   UNL     1       4.244  -2.661   3.929  1.00  0.00     0.013 A 
ATOM      4  C   UNL     1       3.315  -4.151   1.762  1.00  0.00     0.102 A 
ATOM      5  C   UNL     1       2.915  -2.824   1.918  1.00  0.00     0.130 A 
ATOM      6  C   UNL     1       3.380  -2.078   3.003  1.00  0.00     0.048 A 
ENDROOT
BRANCH   1   7
ATOM      7  C   UNL     1       5.542  -4.590   4.734  1.00  0.00     0.018 A 
ATOM      8  C   UNL     1       6.708  -3.926   5.115  1.00  0.00     0.133 A 
ATOM      9  C   UNL     1       7.571  -4.510   6.043  1.00  0.00     0.079 A 
ATOM     10  C   UNL     1       5.239  -5.837   5.281  1.00  0.00     0.015 A 
ATOM     11  C   UNL     1       7.268  -5.757   6.588  1.00  0.00     0.126 A 
ATOM     12  C   UNL     1       6.102  -6.420   6.208  1.00  0.00     0.040 A 
ATOM     13  F   UNL     1       7.016  -2.728   4.598  1.00  0.00    -0.206 F 
ATOM     14  F   UNL     1       8.096  -6.319   7.479  1.00  0.00    -0.207 F 
ENDBRANCH   1   7
BRANCH   4  15
ATOM     15  C   UNL     1       2.841  -4.946   0.637  1.00  0.00     0.339 C 
ATOM     16  O   UNL     1       2.962  -4.643  -0.552  1.00  0.00    -0.246 OA
BRANCH  15  17
ATOM     17  O   UNL     1       2.231  -6.095   1.036  1.00  0.00    -0.478 OA
ATOM     18  H   UNL     1       1.329  -6.178   0.661  1.00  0.00     0.297 HD
ENDBRANCH  15  17
ENDBRANCH   4  15
BRANCH   5  19
ATOM     19  O   UNL     1       2.070  -2.237   1.024  1.00  0.00    -0.507 OA
ATOM     20  H   UNL     1       2.387  -1.337   0.832  1.00  0.00     0.293 HD
ENDBRANCH   5  19
TORSDOF 4
ENDMDL
MODEL 4
REMARK VINA RESULT:    -5.259      4.414      6.727
REMARK INTER + INTRA:          -6.785
REMARK INTER:                  -5.699
REMARK INTRA:                  -1.086
REMARK UNBOUND:                -0.603
REMARK SMILES O=C(O)c1cc(-c2ccc(F)cc2F)ccc1O
REMARK SMILES IDX 6 1 5 2 15 3 4 4 17 5 16 6 7 7 13 8 12 9 8 10 10 11 9 12
REMARK SMILES IDX 14 13 11 14 2 15 1 16 3 17 18 19
REMARK H PARENT 3 18 18 20
ROOT
ATOM      1  C   UNL     1       6.207  -5.373   5.453  1.00  0.00    -0.014 A 
ATOM      2  C   UNL     1       7.213  -6.279   5.120  1.00  0.00     0.028 A 
ATOM      3  C   UNL     1       6.058  -4.950   6.773  1.00  0.00     0.013 A 
ATOM      4  C   UNL     1       8.071  -6.763   6.108  1.00  0.00     0.102 A 
ATOM      5  C   UNL     1       7.923  -6.339   7.429  1.00  0.00     0.130 A 
ATOM      6  C   UNL     1       6.916  -5.432   7.762  1.00  0.00     0.048 A 
ENDROOT
BRANCH   1   7
ATOM      7  C   UNL     1       5.315  -4.872   4.429  1.00  0.00     0.018 A 
ATOM      8  C   UNL     1       4.138  -5.559   4.128  1.00  0.00     0.133 A 
ATOM      9  C   UNL     1       3.282  -5.072   3.140  1.00  0.00     0.079 A 
ATOM     10  C   UNL     1       5.634  -3.700   3.743  1.00  0.00     0.015 A 
ATOM     11  C   UNL     1       3.601  -3.901   2.454  1.00  0.00     0.126 A 
ATOM     12  C   UNL     1       4.778  -3.215   2.756  1.00  0.00     0.040 A 
ATOM     13  F   UNL     1       3.818  -6.688   4.776  1.00  0.00    -0.206 F 
ATOM     14  F   UNL     1       2.780  -3.434   1.505  1.00  0.00    -0.207 F 
ENDBRANCH   1   7
BRANCH   4  15
ATOM     15  C   UNL     1       9.116  -7.708   5.740  1.00  0.00     0.339 C 
ATOM     16  O   UNL     1       9.963  -8.170   6.508  1.00  0.00    -0.246 OA
BRANCH  15  17
ATOM     17  O   UNL     1       9.068  -8.047   4.423  1.00  0.00    -0.478 OA
ATOM     18  H   UNL     1       9.908  -7.840   3.962  1.00  0.00     0.297 HD
ENDBRANCH  15  17
ENDBRANCH   4  15
BRANCH   5  19
ATOM     19  O   UNL     1       8.751  -6.799   8.409  1.00  0.00    -0.507 OA
ATOM     20  H   UNL     1       9.674  -6.652   8.138  1.00  0.00     0.293 HD
ENDBRANCH   5  19
TORSDOF 4
ENDMDL
MODEL 5
REMARK VINA RESULT:    -5.253      4.552      6.889
REMARK INTER + INTRA:          -6.777
REMARK INTER:                  -5.702
REMARK INTRA:                  -1.075
REMARK UNBOUND:                -0.603
REMARK SMILES O=C(O)c1cc(-c2ccc(F)cc2F)ccc1O
REMARK SMILES IDX 6 1 5 2 15 3 4 4 17 5 16 6 7 7 13 8 12 9 8 10 10 11 9 12
REMARK SMILES IDX 14 13 11 14 2 15 1 16 3 17 18 19
REMARK H PARENT 3 18 18 20
ROOT
ATOM      1  C   UNL     1       6.360  -5.048   5.575  1.00  0.00    -0.014 A 
ATOM      2  C   UNL     1       7.224  -6.030   5.096  1.00  0.00     0.028 A 
ATOM      3  C   UNL     1       6.328  -4.750   6.938  1.00  0.00     0.013 A 
ATOM      4  C   UNL     1       8.059  -6.717   5.978  1.00  0.00     0.102 A 
ATOM      5  C   UNL     1       8.028  -6.420   7.341  1.00  0.00     0.130 A 
ATOM      6  C   UNL     1       7.162  -5.436   7.821  1.00  0.00     0.048 A 
ENDROOT
BRANCH   1   7
ATOM      7  C   UNL     1       5.493  -4.336   4.660  1.00  0.00     0.018 A 
ATOM      8  C   UNL     1       5.890  -3.106   4.133  1.00  0.00     0.133 A 
ATOM      9  C   UNL     1       5.051  -2.424   3.252  1.00  0.00     0.079 A 
ATOM     10  C   UNL     1       4.260  -4.882   4.306  1.00  0.00     0.015 A 
ATOM     11  C   UNL     1       3.818  -2.970   2.898  1.00  0.00     0.126 A 
ATOM     12  C   UNL     1       3.423  -4.199   3.424  1.00  0.00     0.040 A 
ATOM     13  F   UNL     1       7.070  -2.566   4.466  1.00  0.00    -0.206 F 
ATOM     14  F   UNL     1       3.012  -2.315   2.052  1.00  0.00    -0.207 F 
ENDBRANCH   1   7
BRANCH   4  15
ATOM     15  C   UNL     1       8.955  -7.740   5.457  1.00  0.00     0.339 C 
ATOM     16  O   UNL     1       9.550  -8.580   6.136  1.00  0.00    -0.246 OA
BRANCH  15  17
ATOM     17  O   UNL     1       9.077  -7.681   4.103  1.00  0.00    -0.478 OA
ATOM     18  H   UNL     1       9.891  -7.208   3.831  1.00  0.00     0.297 HD
ENDBRANCH  15  17
ENDBRANCH   4  15
BRANCH   5  19
ATOM     19  O   UNL     1       8.835  -7.078   8.220  1.00  0.00    -0.507 OA
ATOM     20  H   UNL     1       8.555  -8.009   8.271  1.00  0.00     0.293 HD
ENDBRANCH   5  19
TORSDOF 4
ENDMDL
MODEL 6
REMARK VINA RESULT:    -5.253      4.014      6.267
REMARK INTER + INTRA:          -6.777
REMARK INTER:                  -5.699
REMARK INTRA:                  -1.078
REMARK UNBOUND:                -0.603
REMARK SMILES O=C(O)c1cc(-c2ccc(F)cc2F)ccc1O
REMARK SMILES IDX 6 1 5 2 15 3 4 4 17 5 16 6 7 7 13 8 12 9 8 10 10 11 9 12
REMARK SMILES IDX 14 13 11 14 2 15 1 16 3 17 18 19
REMARK H PARENT 3 18 18 20
ROOT
ATOM      1  C   UNL     1       6.241  -5.338   5.495  1.00  0.00    -0.014 A 
ATOM      2  C   UNL     1       6.140  -4.910   6.818  1.00  0.00     0.028 A 
ATOM      3  C   UNL     1       7.201  -6.285   5.140  1.00  0.00     0.013 A 
ATOM      4  C   UNL     1       6.999  -5.429   7.787  1.00  0.00     0.102 A 
ATOM      5  C   UNL     1       7.960  -6.376   7.432  1.00  0.00     0.130 A 
ATOM      6  C   UNL     1       8.061  -6.804   6.108  1.00  0.00     0.048 A 
ENDROOT
BRANCH   1   7
ATOM      7  C   UNL     1       5.351  -4.799   4.490  1.00  0.00     0.018 A 
ATOM      8  C   UNL     1       4.172  -5.471   4.165  1.00  0.00     0.133 A 
ATOM      9  C   UNL     1       3.317  -4.948   3.194  1.00  0.00     0.079 A 
ATOM     10  C   UNL     1       5.673  -3.604   3.846  1.00  0.00     0.015 A 
ATOM     11  C   UNL     1       3.639  -3.755   2.550  1.00  0.00     0.126 A 
ATOM     12  C   UNL     1       4.817  -3.082   2.877  1.00  0.00     0.040 A 
ATOM     13  F   UNL     1       3.849  -6.622   4.772  1.00  0.00    -0.206 F 
ATOM     14  F   UNL     1       2.819  -3.252   1.619  1.00  0.00    -0.207 F 
ENDBRANCH   1   7
BRANCH   4  15
ATOM     15  C   UNL     1       6.877  -4.969   9.164  1.00  0.00     0.339 C 
ATOM     16  O   UNL     1       7.681  -5.205  10.069  1.00  0.00    -0.246 OA
BRANCH  15  17
ATOM     17  O   UNL     1       5.754  -4.228   9.365  1.00  0.00    -0.478 OA
ATOM     18  H   UNL     1       5.791  -3.373   8.887  1.00  0.00     0.297 HD
ENDBRANCH  15  17
ENDBRANCH   4  15
BRANCH   5  19
ATOM     19  O   UNL     1       8.809  -6.896   8.363  1.00  0.00    -0.507 OA
ATOM     20  H   UNL     1       9.719  -6.853   8.022  1.00  0.00     0.293 HD
ENDBRANCH   5  19
TORSDOF 4
ENDMDL
MODEL 7
REMARK VINA RESULT:    -4.792      2.032      3.155
REMARK INTER + INTRA:          -6.235
REMARK INTER:                  -5.254
REMARK INTRA:                  -0.981
REMARK UNBOUND:                -0.603
REMARK SMILES O=C(O)c1cc(-c2ccc(F)cc2F)ccc1O
REMARK SMILES IDX 6 1 5 2 15 3 4 4 17 5 16 6 7 7 13 8 12 9 8 10 10 11 9 12
REMARK SMILES IDX 14 13 11 14 2 15 1 16 3 17 18 19
REMARK H PARENT 3 18 18 20
ROOT
ATOM      1  C   UNL     1       5.710  -4.436   4.607  1.00  0.00    -0.014 A 
ATOM      2  C   UNL     1       4.749  -5.220   3.970  1.00  0.00     0.028 A 
ATOM      3  C   UNL     1       6.005  -3.162   4.121  1.00  0.00     0.013 A 
ATOM      4  C   UNL     1       4.082  -4.731   2.847  1.00  0.00     0.102 A 
ATOM      5  C   UNL     1       4.376  -3.457   2.361  1.00  0.00     0.130 A 
ATOM      6  C   UNL     1       5.338  -2.672   2.998  1.00  0.00     0.048 A 
ENDROOT
BRANCH   1   7
ATOM      7  C   UNL     1       6.404  -4.943   5.771  1.00  0.00     0.018 A 
ATOM      8  C   UNL     1       7.322  -5.985   5.641  1.00  0.00     0.133 A 
ATOM      9  C   UNL     1       7.989  -6.471   6.766  1.00  0.00     0.079 A 
ATOM     10  C   UNL     1       6.153  -4.387   7.026  1.00  0.00     0.015 A 
ATOM     11  C   UNL     1       7.737  -5.916   8.020  1.00  0.00     0.126 A 
ATOM     12  C   UNL     1       6.820  -4.873   8.149  1.00  0.00     0.040 A 
ATOM     13  F   UNL     1       7.573  -6.533   4.443  1.00  0.00    -0.206 F 
ATOM     14  F   UNL     1       8.376  -6.382   9.101  1.00  0.00    -0.207 F 
ENDBRANCH   1   7
BRANCH   4  15
ATOM     15  C   UNL     1       3.081  -5.566   2.196  1.00  0.00     0.339 C 
ATOM     16  O   UNL     1       2.599  -5.362   1.079  1.00  0.00    -0.246 OA
BRANCH  15  17
ATOM     17  O   UNL     1       2.716  -6.630   2.962  1.00  0.00    -0.478 OA
ATOM     18  H   UNL     1       3.322  -7.391   2.842  1.00  0.00     0.297 HD
ENDBRANCH  15  17
ENDBRANCH   4  15
BRANCH   5  19
ATOM     19  O   UNL     1       3.735  -2.961   1.265  1.00  0.00    -0.507 OA
ATOM     20  H   UNL     1       4.396  -2.713   0.596  1.00  0.00     0.293 HD
ENDBRANCH   5  19
TORSDOF 4
ENDMDL
MODEL 8
REMARK VINA RESULT:    -4.773      1.635      2.034
REMARK INTER + INTRA:          -6.214
REMARK INTER:                  -5.243
REMARK INTRA:                  -0.971
REMARK UNBOUND:                -0.603
REMARK SMILES O=C(O)c1cc(-c2ccc(F)cc2F)ccc1O
REMARK SMILES IDX 6 1 5 2 15 3 4 4 17 5 16 6 7 7 13 8 12 9 8 10 10 11 9 12
REMARK SMILES IDX 14 13 11 14 2 15 1 16 3 17 18 19
REMARK H PARENT 3 18 18 20
ROOT
ATOM      1  C   UNL     1       5.303  -4.804   4.743  1.00  0.00    -0.014 A 
ATOM      2  C   UNL     1       5.444  -3.439   4.498  1.00  0.00     0.028 A 
ATOM      3  C   UNL     1       4.174  -5.482   4.285  1.00  0.00     0.013 A 
ATOM      4  C   UNL     1       4.455  -2.750   3.794  1.00  0.00     0.102 A 
ATOM      5  C   UNL     1       3.326  -3.428   3.336  1.00  0.00     0.130 A 
ATOM      6  C   UNL     1       3.185  -4.795   3.581  1.00  0.00     0.048 A 
ENDROOT
BRANCH   1   7
ATOM      7  C   UNL     1       6.327  -5.519   5.474  1.00  0.00     0.018 A 
ATOM      8  C   UNL     1       6.525  -5.265   6.832  1.00  0.00     0.133 A 
ATOM      9  C   UNL     1       7.514  -5.956   7.533  1.00  0.00     0.079 A 
ATOM     10  C   UNL     1       7.117  -6.463   4.819  1.00  0.00     0.015 A 
ATOM     11  C   UNL     1       8.304  -6.899   6.877  1.00  0.00     0.126 A 
ATOM     12  C   UNL     1       8.105  -7.153   5.520  1.00  0.00     0.040 A 
ATOM     13  F   UNL     1       5.777  -4.358   7.476  1.00  0.00    -0.206 F 
ATOM     14  F   UNL     1       9.253  -7.563   7.549  1.00  0.00    -0.207 F 
ENDBRANCH   1   7
BRANCH   4  15
ATOM     15  C   UNL     1       4.622  -1.324   3.548  1.00  0.00     0.339 C 
ATOM     16  O   UNL     1       3.727  -0.552   3.195  1.00  0.00    -0.246 OA
BRANCH  15  17
ATOM     17  O   UNL     1       5.901  -0.909   3.753  1.00  0.00    -0.478 OA
ATOM     18  H   UNL     1       5.940  -0.122   4.336  1.00  0.00     0.297 HD
ENDBRANCH  15  17
ENDBRANCH   4  15
BRANCH   5  19
ATOM     19  O   UNL     1       2.349  -2.774   2.646  1.00  0.00    -0.507 OA
ATOM     20  H   UNL     1       1.503  -3.237   2.777  1.00  0.00     0.293 HD
ENDBRANCH   5  19
TORSDOF 4
ENDMDL
