MODEL 1
REMARK VINA RESULT:    -5.251      0.000      0.000
REMARK INTER + INTRA:          -7.255
REMARK INTER:                  -6.479
REMARK INTRA:                  -0.776
REMARK UNBOUND:                -0.776
REMARK SMILES Cc1ccc(C(=O)c2cc(O)c(O)c([N+](=O)[O-])c2)cc1
REMARK SMILES IDX 8 1 18 2 9 3 14 4 10 5 12 6 6 7 7 8 5 9 4 10 19 11 3 12
REMARK SMILES IDX 20 13 2 14 1 15 15 16 17 17 16 18 11 19 13 21
REMARK H PARENT 11 20 13 22
ROOT
ATOM      1  C   UNL     1       5.091  -4.301   2.898  1.00  0.00     0.033 A 
ATOM      2  C   UNL     1       4.785  -3.047   3.374  1.00  0.00     0.102 A 
ATOM      3  C   UNL     1       4.452  -4.868   1.821  1.00  0.00     0.063 A 
ATOM      4  C   UNL     1       3.783  -2.318   2.734  1.00  0.00     0.315 A 
ATOM      5  C   UNL     1       3.449  -4.139   1.182  1.00  0.00     0.165 A 
ATOM      6  C   UNL     1       3.115  -2.863   1.638  1.00  0.00     0.237 A 
ENDROOT
BRANCH   1   7
ATOM      7  C   UNL     1       6.165  -5.083   3.584  1.00  0.00     0.193 C 
ATOM      8  O   UNL     1       6.914  -5.767   2.870  1.00  0.00    -0.289 OA
BRANCH   7   9
ATOM      9  C   UNL     1       6.346  -5.060   5.026  1.00  0.00     0.023 A 
ATOM     10  C   UNL     1       5.755  -6.044   5.819  1.00  0.00     0.012 A 
ATOM     11  C   UNL     1       7.111  -4.055   5.617  1.00  0.00     0.012 A 
ATOM     12  C   UNL     1       5.929  -6.022   7.203  1.00  0.00     0.004 A 
ATOM     13  C   UNL     1       7.286  -4.032   7.002  1.00  0.00     0.004 A 
ATOM     14  C   UNL     1       6.695  -5.016   7.794  1.00  0.00    -0.051 A 
ATOM     15  C   UNL     1       6.879  -4.992   9.273  1.00  0.00     0.044 C 
ENDBRANCH   7   9
ENDBRANCH   1   7
BRANCH   4  16
ATOM     16  N   UNL     1       3.456  -1.020   3.214  1.00  0.00     0.066 N 
ATOM     17  O   UNL     1       2.251  -0.670   3.241  1.00  0.00    -0.258 OA
ATOM     18  O   UNL     1       4.379  -0.265   3.597  1.00  0.00    -0.258 OA
ENDBRANCH   4  16
BRANCH   5  19
ATOM     19  O   UNL     1       2.805  -4.684   0.112  1.00  0.00    -0.504 OA
ATOM     20  H   UNL     1       2.083  -4.097  -0.167  1.00  0.00     0.293 HD
ENDBRANCH   5  19
BRANCH   6  21
ATOM     21  O   UNL     1       2.132  -2.160   1.004  1.00  0.00    -0.500 OA
ATOM     22  H   UNL     1       2.396  -1.986   0.087  1.00  0.00     0.294 HD
ENDBRANCH   6  21
TORSDOF 5
ENDMDL
MODEL 2
REMARK VINA RESULT:    -5.228      2.049      3.533
REMARK INTER + INTRA:          -7.227
REMARK INTER:                  -6.413
REMARK INTRA:                  -0.814
REMARK UNBOUND:                -0.776
REMARK SMILES Cc1ccc(C(=O)c2cc(O)c(O)c([N+](=O)[O-])c2)cc1
REMARK SMILES IDX 8 1 18 2 9 3 14 4 10 5 12 6 6 7 7 8 5 9 4 10 19 11 3 12
REMARK SMILES IDX 20 13 2 14 1 15 15 16 17 17 16 18 11 19 13 21
REMARK H PARENT 11 20 13 22
ROOT
ATOM      1  C   UNL     1       4.033  -3.598   4.290  1.00  0.00     0.033 A 
ATOM      2  C   UNL     1       3.806  -4.504   3.280  1.00  0.00     0.102 A 
ATOM      3  C   UNL     1       3.687  -2.271   4.194  1.00  0.00     0.063 A 
ATOM      4  C   UNL     1       3.196  -4.058   2.108  1.00  0.00     0.315 A 
ATOM      5  C   UNL     1       3.077  -1.824   3.021  1.00  0.00     0.165 A 
ATOM      6  C   UNL     1       2.832  -2.718   1.978  1.00  0.00     0.237 A 
ENDROOT
BRANCH   1   7
ATOM      7  C   UNL     1       4.686  -4.076   5.546  1.00  0.00     0.193 C 
ATOM      8  O   UNL     1       4.242  -3.642   6.619  1.00  0.00    -0.289 OA
BRANCH   7   9
ATOM      9  C   UNL     1       5.798  -5.013   5.538  1.00  0.00     0.023 A 
ATOM     10  C   UNL     1       7.110  -4.538   5.520  1.00  0.00     0.012 A 
ATOM     11  C   UNL     1       5.554  -6.386   5.550  1.00  0.00     0.012 A 
ATOM     12  C   UNL     1       8.177  -5.436   5.513  1.00  0.00     0.004 A 
ATOM     13  C   UNL     1       6.621  -7.285   5.543  1.00  0.00     0.004 A 
ATOM     14  C   UNL     1       7.933  -6.810   5.525  1.00  0.00    -0.051 A 
ATOM     15  C   UNL     1       9.074  -7.770   5.516  1.00  0.00     0.044 C 
ENDBRANCH   7   9
ENDBRANCH   1   7
BRANCH   4  16
ATOM     16  N   UNL     1       2.955  -4.983   1.056  1.00  0.00     0.066 N 
ATOM     17  O   UNL     1       2.579  -6.144   1.344  1.00  0.00    -0.258 OA
ATOM     18  O   UNL     1       3.123  -4.610  -0.129  1.00  0.00    -0.258 OA
ENDBRANCH   4  16
BRANCH   5  19
ATOM     19  O   UNL     1       2.726  -0.512   2.908  1.00  0.00    -0.504 OA
ATOM     20  H   UNL     1       3.273   0.023   3.507  1.00  0.00     0.293 HD
ENDBRANCH   5  19
BRANCH   6  21
ATOM     21  O   UNL     1       2.235  -2.269   0.836  1.00  0.00    -0.500 OA
ATOM     22  H   UNL     1       2.748  -2.557   0.065  1.00  0.00     0.294 HD
ENDBRANCH   6  21
TORSDOF 5
ENDMDL
MODEL 3
REMARK VINA RESULT:    -4.757      1.858      2.123
REMARK INTER + INTRA:          -6.644
REMARK INTER:                  -5.897
REMARK INTRA:                  -0.748
REMARK UNBOUND:                -0.776
REMARK SMILES Cc1ccc(C(=O)c2cc(O)c(O)c([N+](=O)[O-])c2)cc1
REMARK SMILES IDX 8 1 18 2 9 3 14 4 10 5 12 6 6 7 7 8 5 9 4 10 19 11 3 12
REMARK SMILES IDX 20 13 2 14 1 15 15 16 17 17 16 18 11 19 13 21
REMARK H PARENT 11 20 13 22
ROOT
ATOM      1  C   UNL     1       3.297  -4.652   3.379  1.00  0.00     0.033 A 
ATOM      2  C   UNL     1       3.086  -3.362   3.809  1.00  0.00     0.102 A 
ATOM      3  C   UNL     1       3.274  -5.009   2.051  1.00  0.00     0.063 A 
ATOM      4  C   UNL     1       2.841  -2.373   2.857  1.00  0.00     0.315 A 
ATOM      5  C   UNL     1       3.028  -4.020   1.099  1.00  0.00     0.165 A 
ATOM      6  C   UNL     1       2.811  -2.701   1.502  1.00  0.00     0.237 A 
ENDROOT
BRANCH   1   7
ATOM      7  C   UNL     1       3.560  -5.712   4.399  1.00  0.00     0.193 C 
ATOM      8  O   UNL     1       2.586  -6.362   4.808  1.00  0.00    -0.289 OA
BRANCH   7   9
ATOM      9  C   UNL     1       4.894  -5.991   4.907  1.00  0.00     0.023 A 
ATOM     10  C   UNL     1       5.219  -7.275   5.344  1.00  0.00     0.012 A 
ATOM     11  C   UNL     1       5.848  -4.975   4.956  1.00  0.00     0.012 A 
ATOM     12  C   UNL     1       6.498  -7.542   5.831  1.00  0.00     0.004 A 
ATOM     13  C   UNL     1       7.128  -5.242   5.443  1.00  0.00     0.004 A 
ATOM     14  C   UNL     1       7.453  -6.526   5.881  1.00  0.00    -0.051 A 
ATOM     15  C   UNL     1       8.820  -6.812   6.403  1.00  0.00     0.044 C 
ENDBRANCH   7   9
ENDBRANCH   1   7
BRANCH   4  16
ATOM     16  N   UNL     1       2.622  -1.036   3.287  1.00  0.00     0.066 N 
ATOM     17  O   UNL     1       3.442  -0.512   4.078  1.00  0.00    -0.258 OA
ATOM     18  O   UNL     1       1.617  -0.419   2.862  1.00  0.00    -0.258 OA
ENDBRANCH   4  16
BRANCH   5  19
ATOM     19  O   UNL     1       3.002  -4.355  -0.222  1.00  0.00    -0.504 OA
ATOM     20  H   UNL     1       2.206  -3.984  -0.636  1.00  0.00     0.293 HD
ENDBRANCH   5  19
BRANCH   6  21
ATOM     21  O   UNL     1       2.572  -1.742   0.561  1.00  0.00    -0.500 OA
ATOM     22  H   UNL     1       1.991  -2.100  -0.129  1.00  0.00     0.294 HD
ENDBRANCH   6  21
TORSDOF 5
ENDMDL
MODEL 4
REMARK VINA RESULT:    -4.742      1.640      3.113
REMARK INTER + INTRA:          -6.627
REMARK INTER:                  -5.983
REMARK INTRA:                  -0.644
REMARK UNBOUND:                -0.776
REMARK SMILES Cc1ccc(C(=O)c2cc(O)c(O)c([N+](=O)[O-])c2)cc1
REMARK SMILES IDX 8 1 18 2 9 3 14 4 10 5 12 6 6 7 7 8 5 9 4 10 19 11 3 12
REMARK SMILES IDX 20 13 2 14 1 15 15 16 17 17 16 18 11 19 13 21
REMARK H PARENT 11 20 13 22
ROOT
ATOM      1  C   UNL     1       5.044  -2.696   3.070  1.00  0.00     0.033 A 
ATOM      2  C   UNL     1       4.724  -3.676   2.159  1.00  0.00     0.102 A 
ATOM      3  C   UNL     1       4.199  -1.655   3.374  1.00  0.00     0.063 A 
ATOM      4  C   UNL     1       3.488  -3.610   1.516  1.00  0.00     0.315 A 
ATOM      5  C   UNL     1       2.963  -1.589   2.731  1.00  0.00     0.165 A 
ATOM      6  C   UNL     1       2.607  -2.568   1.802  1.00  0.00     0.237 A 
ENDROOT
BRANCH   1   7
ATOM      7  C   UNL     1       6.368  -2.766   3.759  1.00  0.00     0.193 C 
ATOM      8  O   UNL     1       7.290  -2.082   3.290  1.00  0.00    -0.289 OA
BRANCH   7   9
ATOM      9  C   UNL     1       6.593  -3.593   4.933  1.00  0.00     0.023 A 
ATOM     10  C   UNL     1       7.515  -3.194   5.902  1.00  0.00     0.012 A 
ATOM     11  C   UNL     1       5.888  -4.786   5.092  1.00  0.00     0.012 A 
ATOM     12  C   UNL     1       7.730  -3.987   7.028  1.00  0.00     0.004 A 
ATOM     13  C   UNL     1       6.103  -5.580   6.219  1.00  0.00     0.004 A 
ATOM     14  C   UNL     1       7.025  -5.181   7.187  1.00  0.00    -0.051 A 
ATOM     15  C   UNL     1       7.257  -6.029   8.391  1.00  0.00     0.044 C 
ENDBRANCH   7   9
ENDBRANCH   1   7
BRANCH   4  16
ATOM     16  N   UNL     1       3.143  -4.616   0.572  1.00  0.00     0.066 N 
ATOM     17  O   UNL     1       2.922  -4.281  -0.617  1.00  0.00    -0.258 OA
ATOM     18  O   UNL     1       3.070  -5.807   0.954  1.00  0.00    -0.258 OA
ENDBRANCH   4  16
BRANCH   5  19
ATOM     19  O   UNL     1       2.112  -0.565   3.020  1.00  0.00    -0.504 OA
ATOM     20  H   UNL     1       2.386  -0.139   3.849  1.00  0.00     0.293 HD
ENDBRANCH   5  19
BRANCH   6  21
ATOM     21  O   UNL     1       1.395  -2.493   1.179  1.00  0.00    -0.500 OA
ATOM     22  H   UNL     1       1.138  -3.371   0.859  1.00  0.00     0.294 HD
ENDBRANCH   6  21
TORSDOF 5
ENDMDL
MODEL 5
REMARK VINA RESULT:    -4.425     10.995     12.674
REMARK INTER + INTRA:          -6.235
REMARK INTER:                  -5.401
REMARK INTRA:                  -0.834
REMARK UNBOUND:                -0.776
REMARK SMILES Cc1ccc(C(=O)c2cc(O)c(O)c([N+](=O)[O-])c2)cc1
REMARK SMILES IDX 8 1 18 2 9 3 14 4 10 5 12 6 6 7 7 8 5 9 4 10 19 11 3 12
REMARK SMILES IDX 20 13 2 14 1 15 15 16 17 17 16 18 11 19 13 21
REMARK H PARENT 11 20 13 22
ROOT
ATOM      1  C   UNL     1      11.107  -8.847  12.317  1.00  0.00     0.033 A 
ATOM      2  C   UNL     1      11.430 -10.071  12.855  1.00  0.00     0.102 A 
ATOM      3  C   UNL     1      11.317  -8.533  10.996  1.00  0.00     0.063 A 
ATOM      4  C   UNL     1      11.995 -11.037  12.022  1.00  0.00     0.315 A 
ATOM      5  C   UNL     1      11.883  -9.498  10.162  1.00  0.00     0.165 A 
ATOM      6  C   UNL     1      12.222 -10.751  10.676  1.00  0.00     0.237 A 
ENDROOT
BRANCH   1   7
ATOM      7  C   UNL     1      10.501  -7.813  13.209  1.00  0.00     0.193 C 
ATOM      8  O   UNL     1      11.262  -6.959  13.689  1.00  0.00    -0.289 OA
BRANCH   7   9
ATOM      9  C   UNL     1       9.080  -7.784  13.518  1.00  0.00     0.023 A 
ATOM     10  C   UNL     1       8.499  -8.838  14.224  1.00  0.00     0.012 A 
ATOM     11  C   UNL     1       8.299  -6.704  13.109  1.00  0.00     0.012 A 
ATOM     12  C   UNL     1       7.136  -8.811  14.520  1.00  0.00     0.004 A 
ATOM     13  C   UNL     1       6.936  -6.676  13.405  1.00  0.00     0.004 A 
ATOM     14  C   UNL     1       6.354  -7.730  14.111  1.00  0.00    -0.051 A 
ATOM     15  C   UNL     1       4.897  -7.702  14.427  1.00  0.00     0.044 C 
ENDBRANCH   7   9
ENDBRANCH   1   7
BRANCH   4  16
ATOM     16  N   UNL     1      12.335 -12.307  12.563  1.00  0.00     0.066 N 
ATOM     17  O   UNL     1      12.179 -13.330  11.852  1.00  0.00    -0.258 OA
ATOM     18  O   UNL     1      12.780 -12.368  13.733  1.00  0.00    -0.258 OA
ENDBRANCH   4  16
BRANCH   5  19
ATOM     19  O   UNL     1      12.099  -9.205   8.849  1.00  0.00    -0.504 OA
ATOM     20  H   UNL     1      12.544  -9.952   8.418  1.00  0.00     0.293 HD
ENDBRANCH   5  19
BRANCH   6  21
ATOM     21  O   UNL     1      12.775 -11.687   9.851  1.00  0.00    -0.500 OA
ATOM     22  H   UNL     1      12.153 -11.901   9.138  1.00  0.00     0.294 HD
ENDBRANCH   6  21
TORSDOF 5
ENDMDL
MODEL 6
REMARK VINA RESULT:    -4.373      3.820      7.031
REMARK INTER + INTRA:          -6.171
REMARK INTER:                  -5.175
REMARK INTRA:                  -0.996
REMARK UNBOUND:                -0.776
REMARK SMILES Cc1ccc(C(=O)c2cc(O)c(O)c([N+](=O)[O-])c2)cc1
REMARK SMILES IDX 8 1 18 2 9 3 14 4 10 5 12 6 6 7 7 8 5 9 4 10 19 11 3 12
REMARK SMILES IDX 20 13 2 14 1 15 15 16 17 17 16 18 11 19 13 21
REMARK H PARENT 11 20 13 22
ROOT
ATOM      1  C   UNL     1       6.235  -5.916   5.954  1.00  0.00     0.033 A 
ATOM      2  C   UNL     1       7.311  -6.702   5.610  1.00  0.00     0.102 A 
ATOM      3  C   UNL     1       6.068  -5.391   7.213  1.00  0.00     0.063 A 
ATOM      4  C   UNL     1       8.274  -6.976   6.581  1.00  0.00     0.315 A 
ATOM      5  C   UNL     1       7.031  -5.665   8.185  1.00  0.00     0.165 A 
ATOM      6  C   UNL     1       8.135  -6.458   7.868  1.00  0.00     0.237 A 
ENDROOT
BRANCH   1   7
ATOM      7  C   UNL     1       5.203  -5.623   4.915  1.00  0.00     0.193 C 
ATOM      8  O   UNL     1       4.663  -6.592   4.360  1.00  0.00    -0.289 OA
BRANCH   7   9
ATOM      9  C   UNL     1       4.827  -4.266   4.550  1.00  0.00     0.023 A 
ATOM     10  C   UNL     1       3.492  -3.869   4.621  1.00  0.00     0.012 A 
ATOM     11  C   UNL     1       5.802  -3.362   4.130  1.00  0.00     0.012 A 
ATOM     12  C   UNL     1       3.132  -2.568   4.272  1.00  0.00     0.004 A 
ATOM     13  C   UNL     1       5.443  -2.060   3.780  1.00  0.00     0.004 A 
ATOM     14  C   UNL     1       4.107  -1.662   3.851  1.00  0.00    -0.051 A 
ATOM     15  C   UNL     1       3.722  -0.272   3.477  1.00  0.00     0.044 C 
ENDBRANCH   7   9
ENDBRANCH   1   7
BRANCH   4  16
ATOM     16  N   UNL     1       9.392  -7.786   6.239  1.00  0.00     0.066 N 
ATOM     17  O   UNL     1       9.796  -7.792   5.051  1.00  0.00    -0.258 OA
ATOM     18  O   UNL     1       9.941  -8.469   7.135  1.00  0.00    -0.258 OA
ENDBRANCH   4  16
BRANCH   5  19
ATOM     19  O   UNL     1       6.882  -5.152   9.438  1.00  0.00    -0.504 OA
ATOM     20  H   UNL     1       6.906  -5.872  10.090  1.00  0.00     0.293 HD
ENDBRANCH   5  19
BRANCH   6  21
ATOM     21  O   UNL     1       9.071  -6.719   8.826  1.00  0.00    -0.500 OA
ATOM     22  H   UNL     1       8.631  -6.891   9.673  1.00  0.00     0.294 HD
ENDBRANCH   6  21
TORSDOF 5
ENDMDL
MODEL 7
REMARK VINA RESULT:    -4.355      3.672      6.570
REMARK INTER + INTRA:          -6.149
REMARK INTER:                  -5.226
REMARK INTRA:                  -0.922
REMARK UNBOUND:                -0.776
REMARK SMILES Cc1ccc(C(=O)c2cc(O)c(O)c([N+](=O)[O-])c2)cc1
REMARK SMILES IDX 8 1 18 2 9 3 14 4 10 5 12 6 6 7 7 8 5 9 4 10 19 11 3 12
REMARK SMILES IDX 20 13 2 14 1 15 15 16 17 17 16 18 11 19 13 21
REMARK H PARENT 11 20 13 22
ROOT
ATOM      1  C   UNL     1       6.086  -6.110   5.651  1.00  0.00     0.033 A 
ATOM      2  C   UNL     1       6.205  -5.574   6.912  1.00  0.00     0.102 A 
ATOM      3  C   UNL     1       7.001  -6.992   5.126  1.00  0.00     0.063 A 
ATOM      4  C   UNL     1       7.301  -5.941   7.693  1.00  0.00     0.315 A 
ATOM      5  C   UNL     1       8.098  -7.359   5.906  1.00  0.00     0.165 A 
ATOM      6  C   UNL     1       8.247  -6.833   7.191  1.00  0.00     0.237 A 
ENDROOT
BRANCH   1   7
ATOM      7  C   UNL     1       4.913  -5.717   4.815  1.00  0.00     0.193 C 
ATOM      8  O   UNL     1       4.174  -6.626   4.406  1.00  0.00    -0.289 OA
BRANCH   7   9
ATOM      9  C   UNL     1       4.624  -4.332   4.478  1.00  0.00     0.023 A 
ATOM     10  C   UNL     1       5.658  -3.476   4.099  1.00  0.00     0.012 A 
ATOM     11  C   UNL     1       3.313  -3.859   4.534  1.00  0.00     0.012 A 
ATOM     12  C   UNL     1       5.381  -2.148   3.776  1.00  0.00     0.004 A 
ATOM     13  C   UNL     1       3.035  -2.530   4.211  1.00  0.00     0.004 A 
ATOM     14  C   UNL     1       4.070  -1.674   3.832  1.00  0.00    -0.051 A 
ATOM     15  C   UNL     1       3.775  -0.254   3.488  1.00  0.00     0.044 C 
ENDBRANCH   7   9
ENDBRANCH   1   7
BRANCH   4  16
ATOM     16  N   UNL     1       7.437  -5.395   8.999  1.00  0.00     0.066 N 
ATOM     17  O   UNL     1       8.000  -6.080   9.886  1.00  0.00    -0.258 OA
ATOM     18  O   UNL     1       6.991  -4.246   9.224  1.00  0.00    -0.258 OA
ENDBRANCH   4  16
BRANCH   5  19
ATOM     19  O   UNL     1       9.015  -8.232   5.403  1.00  0.00    -0.504 OA
ATOM     20  H   UNL     1       9.602  -7.766   4.785  1.00  0.00     0.293 HD
ENDBRANCH   5  19
BRANCH   6  21
ATOM     21  O   UNL     1       9.324  -7.201   7.945  1.00  0.00    -0.500 OA
ATOM     22  H   UNL     1       9.963  -7.677   7.391  1.00  0.00     0.294 HD
ENDBRANCH   6  21
TORSDOF 5
ENDMDL
MODEL 8
REMARK VINA RESULT:    -4.342      3.755      6.926
REMARK INTER + INTRA:          -6.133
REMARK INTER:                  -5.144
REMARK INTRA:                  -0.989
REMARK UNBOUND:                -0.776
REMARK SMILES Cc1ccc(C(=O)c2cc(O)c(O)c([N+](=O)[O-])c2)cc1
REMARK SMILES IDX 8 1 18 2 9 3 14 4 10 5 12 6 6 7 7 8 5 9 4 10 19 11 3 12
REMARK SMILES IDX 20 13 2 14 1 15 15 16 17 17 16 18 11 19 13 21
REMARK H PARENT 11 20 13 22
ROOT
ATOM      1  C   UNL     1       7.050  -4.944   5.839  1.00  0.00     0.033 A 
ATOM      2  C   UNL     1       6.891  -4.819   7.200  1.00  0.00     0.102 A 
ATOM      3  C   UNL     1       7.841  -5.912   5.266  1.00  0.00     0.063 A 
ATOM      4  C   UNL     1       7.560  -5.714   8.035  1.00  0.00     0.315 A 
ATOM      5  C   UNL     1       8.510  -6.807   6.101  1.00  0.00     0.165 A 
ATOM      6  C   UNL     1       8.369  -6.708   7.486  1.00  0.00     0.237 A 
ENDROOT
BRANCH   1   7
ATOM      7  C   UNL     1       6.334  -3.985   4.944  1.00  0.00     0.193 C 
ATOM      8  O   UNL     1       6.553  -2.777   5.114  1.00  0.00    -0.289 OA
BRANCH   7   9
ATOM      9  C   UNL     1       5.413  -4.425   3.909  1.00  0.00     0.023 A 
ATOM     10  C   UNL     1       5.586  -3.995   2.593  1.00  0.00     0.012 A 
ATOM     11  C   UNL     1       4.356  -5.277   4.231  1.00  0.00     0.012 A 
ATOM     12  C   UNL     1       4.702  -4.417   1.600  1.00  0.00     0.004 A 
ATOM     13  C   UNL     1       3.472  -5.699   3.237  1.00  0.00     0.004 A 
ATOM     14  C   UNL     1       3.645  -5.269   1.922  1.00  0.00    -0.051 A 
ATOM     15  C   UNL     1       2.700  -5.719   0.860  1.00  0.00     0.044 C 
ENDBRANCH   7   9
ENDBRANCH   1   7
BRANCH   4  16
ATOM     16  N   UNL     1       7.404  -5.597   9.443  1.00  0.00     0.066 N 
ATOM     17  O   UNL     1       8.340  -5.974  10.189  1.00  0.00    -0.258 OA
ATOM     18  O   UNL     1       6.338  -5.121   9.898  1.00  0.00    -0.258 OA
ENDBRANCH   4  16
BRANCH   5  19
ATOM     19  O   UNL     1       9.298  -7.773   5.551  1.00  0.00    -0.504 OA
ATOM     20  H   UNL     1       9.281  -8.566   6.113  1.00  0.00     0.293 HD
ENDBRANCH   5  19
BRANCH   6  21
ATOM     21  O   UNL     1       9.029  -7.590   8.292  1.00  0.00    -0.500 OA
ATOM     22  H   UNL     1       8.479  -8.376   8.435  1.00  0.00     0.294 HD
ENDBRANCH   6  21
TORSDOF 5
ENDMDL
MODEL 9
REMARK VINA RESULT:    -4.327      1.982      2.548
REMARK INTER + INTRA:          -6.114
REMARK INTER:                  -5.407
REMARK INTRA:                  -0.707
REMARK UNBOUND:                -0.776
REMARK SMILES Cc1ccc(C(=O)c2cc(O)c(O)c([N+](=O)[O-])c2)cc1
REMARK SMILES IDX 8 1 18 2 9 3 14 4 10 5 12 6 6 7 7 8 5 9 4 10 19 11 3 12
REMARK SMILES IDX 20 13 2 14 1 15 15 16 17 17 16 18 11 19 13 21
REMARK H PARENT 11 20 13 22
ROOT
ATOM      1  C   UNL     1       4.431  -4.003   4.545  1.00  0.00     0.033 A 
ATOM      2  C   UNL     1       4.156  -2.662   4.416  1.00  0.00     0.102 A 
ATOM      3  C   UNL     1       4.027  -4.940   3.623  1.00  0.00     0.063 A 
ATOM      4  C   UNL     1       3.436  -2.233   3.301  1.00  0.00     0.315 A 
ATOM      5  C   UNL     1       3.306  -4.511   2.508  1.00  0.00     0.165 A 
ATOM      6  C   UNL     1       3.011  -3.157   2.347  1.00  0.00     0.237 A 
ENDROOT
BRANCH   1   7
ATOM      7  C   UNL     1       5.202  -4.463   5.739  1.00  0.00     0.193 C 
ATOM      8  O   UNL     1       4.853  -4.024   6.845  1.00  0.00    -0.289 OA
BRANCH   7   9
ATOM      9  C   UNL     1       6.320  -5.387   5.637  1.00  0.00     0.023 A 
ATOM     10  C   UNL     1       7.625  -4.899   5.561  1.00  0.00     0.012 A 
ATOM     11  C   UNL     1       6.088  -6.762   5.615  1.00  0.00     0.012 A 
ATOM     12  C   UNL     1       8.696  -5.786   5.463  1.00  0.00     0.004 A 
ATOM     13  C   UNL     1       7.160  -7.650   5.517  1.00  0.00     0.004 A 
ATOM     14  C   UNL     1       8.465  -7.162   5.442  1.00  0.00    -0.051 A 
ATOM     15  C   UNL     1       9.611  -8.109   5.336  1.00  0.00     0.044 C 
ENDBRANCH   7   9
ENDBRANCH   1   7
BRANCH   4  16
ATOM     16  N   UNL     1       3.144  -0.849   3.153  1.00  0.00     0.066 N 
ATOM     17  O   UNL     1       1.945  -0.487   3.079  1.00  0.00    -0.258 OA
ATOM     18  O   UNL     1       4.093  -0.032   3.103  1.00  0.00    -0.258 OA
ENDBRANCH   4  16
BRANCH   5  19
ATOM     19  O   UNL     1       2.898  -5.426   1.584  1.00  0.00    -0.504 OA
ATOM     20  H   UNL     1       3.464  -6.213   1.633  1.00  0.00     0.293 HD
ENDBRANCH   5  19
BRANCH   6  21
ATOM     21  O   UNL     1       2.306  -2.750   1.252  1.00  0.00    -0.500 OA
ATOM     22  H   UNL     1       2.008  -1.835   1.377  1.00  0.00     0.294 HD
ENDBRANCH   6  21
TORSDOF 5
ENDMDL
