MODEL 1
REMARK VINA RESULT:    -5.216      0.000      0.000
REMARK INTER + INTRA:          -7.198
REMARK INTER:                  -6.435
REMARK INTRA:                  -0.763
REMARK UNBOUND:                -0.763
REMARK SMILES Cc1ccc(C(=O)c2cc(O)c(O)c([N+](=O)[O-])c2)cc1
REMARK SMILES IDX 8 1 18 2 9 3 14 4 10 5 12 6 6 7 7 8 5 9 4 10 19 11 3 12
REMARK SMILES IDX 20 13 2 14 1 15 15 16 17 17 16 18 11 19 13 21
REMARK H PARENT 11 20 13 22
ROOT
ATOM      1  C   UNL     1      -8.804   2.412  -1.666  1.00  0.00     0.033 A 
ATOM      2  C   UNL     1      -8.545   2.280  -0.321  1.00  0.00     0.102 A 
ATOM      3  C   UNL     1      -7.849   2.207  -2.633  1.00  0.00     0.063 A 
ATOM      4  C   UNL     1      -7.259   1.921   0.078  1.00  0.00     0.315 A 
ATOM      5  C   UNL     1      -6.561   1.847  -2.234  1.00  0.00     0.165 A 
ATOM      6  C   UNL     1      -6.266   1.704  -0.877  1.00  0.00     0.237 A 
ENDROOT
BRANCH   1   7
ATOM      7  C   UNL     1     -10.182   2.798  -2.095  1.00  0.00     0.193 C 
ATOM      8  O   UNL     1     -10.597   2.328  -3.165  1.00  0.00    -0.289 OA
BRANCH   7   9
ATOM      9  C   UNL     1     -11.024   3.685  -1.308  1.00  0.00     0.023 A 
ATOM     10  C   UNL     1     -11.063   5.049  -1.598  1.00  0.00     0.012 A 
ATOM     11  C   UNL     1     -11.792   3.172  -0.263  1.00  0.00     0.012 A 
ATOM     12  C   UNL     1     -11.871   5.899  -0.843  1.00  0.00     0.004 A 
ATOM     13  C   UNL     1     -12.600   4.023   0.493  1.00  0.00     0.004 A 
ATOM     14  C   UNL     1     -12.640   5.387   0.202  1.00  0.00    -0.051 A 
ATOM     15  C   UNL     1     -13.501   6.297   1.010  1.00  0.00     0.044 C 
ENDBRANCH   7   9
ENDBRANCH   1   7
BRANCH   4  16
ATOM     16  N   UNL     1      -6.977   1.780   1.465  1.00  0.00     0.066 N 
ATOM     17  O   UNL     1      -7.895   1.409   2.235  1.00  0.00    -0.258 OA
ATOM     18  O   UNL     1      -5.820   2.029   1.876  1.00  0.00    -0.258 OA
ENDBRANCH   4  16
BRANCH   5  19
ATOM     19  O   UNL     1      -5.602   1.639  -3.178  1.00  0.00    -0.504 OA
ATOM     20  H   UNL     1      -4.727   1.825  -2.800  1.00  0.00     0.293 HD
ENDBRANCH   5  19
BRANCH   6  21
ATOM     21  O   UNL     1      -5.003   1.351  -0.499  1.00  0.00    -0.500 OA
ATOM     22  H   UNL     1      -4.936   0.385  -0.448  1.00  0.00     0.294 HD
ENDBRANCH   6  21
TORSDOF 5
ENDMDL
MODEL 2
REMARK VINA RESULT:    -5.192      2.002      3.552
REMARK INTER + INTRA:          -7.169
REMARK INTER:                  -6.410
REMARK INTRA:                  -0.759
REMARK UNBOUND:                -0.763
REMARK SMILES Cc1ccc(C(=O)c2cc(O)c(O)c([N+](=O)[O-])c2)cc1
REMARK SMILES IDX 8 1 18 2 9 3 14 4 10 5 12 6 6 7 7 8 5 9 4 10 19 11 3 12
REMARK SMILES IDX 20 13 2 14 1 15 15 16 17 17 16 18 11 19 13 21
REMARK H PARENT 11 20 13 22
ROOT
ATOM      1  C   UNL     1      -8.468   3.439  -0.238  1.00  0.00     0.033 A 
ATOM      2  C   UNL     1      -8.010   3.249  -1.521  1.00  0.00     0.102 A 
ATOM      3  C   UNL     1      -7.822   2.938   0.867  1.00  0.00     0.063 A 
ATOM      4  C   UNL     1      -6.838   2.516  -1.709  1.00  0.00     0.315 A 
ATOM      5  C   UNL     1      -6.651   2.204   0.679  1.00  0.00     0.165 A 
ATOM      6  C   UNL     1      -6.158   1.993  -0.610  1.00  0.00     0.237 A 
ENDROOT
BRANCH   1   7
ATOM      7  C   UNL     1      -9.723   4.225  -0.036  1.00  0.00     0.193 C 
ATOM      8  O   UNL     1      -9.805   4.911   0.993  1.00  0.00    -0.289 OA
BRANCH   7   9
ATOM      9  C   UNL     1     -10.818   4.204  -0.993  1.00  0.00     0.023 A 
ATOM     10  C   UNL     1     -11.896   3.340  -0.799  1.00  0.00     0.012 A 
ATOM     11  C   UNL     1     -10.790   5.047  -2.103  1.00  0.00     0.012 A 
ATOM     12  C   UNL     1     -12.947   3.321  -1.717  1.00  0.00     0.004 A 
ATOM     13  C   UNL     1     -11.841   5.028  -3.022  1.00  0.00     0.004 A 
ATOM     14  C   UNL     1     -12.920   4.165  -2.828  1.00  0.00    -0.051 A 
ATOM     15  C   UNL     1     -14.042   4.142  -3.809  1.00  0.00     0.044 C 
ENDBRANCH   7   9
ENDBRANCH   1   7
BRANCH   4  16
ATOM     16  N   UNL     1      -6.353   2.311  -3.030  1.00  0.00     0.066 N 
ATOM     17  O   UNL     1      -5.715   1.261  -3.285  1.00  0.00    -0.258 OA
ATOM     18  O   UNL     1      -6.576   3.184  -3.900  1.00  0.00    -0.258 OA
ENDBRANCH   4  16
BRANCH   5  19
ATOM     19  O   UNL     1      -5.997   1.699   1.763  1.00  0.00    -0.504 OA
ATOM     20  H   UNL     1      -6.066   0.730   1.763  1.00  0.00     0.293 HD
ENDBRANCH   5  19
BRANCH   6  21
ATOM     21  O   UNL     1      -5.011   1.274  -0.781  1.00  0.00    -0.500 OA
ATOM     22  H   UNL     1      -5.194   0.492  -1.325  1.00  0.00     0.294 HD
ENDBRANCH   6  21
TORSDOF 5
ENDMDL
MODEL 3
REMARK VINA RESULT:    -4.477      1.648      2.941
REMARK INTER + INTRA:          -6.287
REMARK INTER:                  -5.544
REMARK INTRA:                  -0.743
REMARK UNBOUND:                -0.763
REMARK SMILES Cc1ccc(C(=O)c2cc(O)c(O)c([N+](=O)[O-])c2)cc1
REMARK SMILES IDX 8 1 18 2 9 3 14 4 10 5 12 6 6 7 7 8 5 9 4 10 19 11 3 12
REMARK SMILES IDX 20 13 2 14 1 15 15 16 17 17 16 18 11 19 13 21
REMARK H PARENT 11 20 13 22
ROOT
ATOM      1  C   UNL     1      -8.608   1.635  -0.290  1.00  0.00     0.033 A 
ATOM      2  C   UNL     1      -8.088   1.610  -1.563  1.00  0.00     0.102 A 
ATOM      3  C   UNL     1      -7.824   1.743   0.834  1.00  0.00     0.063 A 
ATOM      4  C   UNL     1      -6.705   1.699  -1.721  1.00  0.00     0.315 A 
ATOM      5  C   UNL     1      -6.441   1.832   0.677  1.00  0.00     0.165 A 
ATOM      6  C   UNL     1      -5.881   1.810  -0.601  1.00  0.00     0.237 A 
ENDROOT
BRANCH   1   7
ATOM      7  C   UNL     1     -10.089   1.539  -0.121  1.00  0.00     0.193 C 
ATOM      8  O   UNL     1     -10.567   0.413   0.081  1.00  0.00    -0.289 OA
BRANCH   7   9
ATOM      9  C   UNL     1     -10.958   2.703  -0.186  1.00  0.00     0.023 A 
ATOM     10  C   UNL     1     -10.634   3.770  -1.024  1.00  0.00     0.012 A 
ATOM     11  C   UNL     1     -12.117   2.753   0.589  1.00  0.00     0.012 A 
ATOM     12  C   UNL     1     -11.468   4.886  -1.086  1.00  0.00     0.004 A 
ATOM     13  C   UNL     1     -12.952   3.870   0.527  1.00  0.00     0.004 A 
ATOM     14  C   UNL     1     -12.627   4.937  -0.310  1.00  0.00    -0.051 A 
ATOM     15  C   UNL     1     -13.517   6.130  -0.376  1.00  0.00     0.044 C 
ENDBRANCH   7   9
ENDBRANCH   1   7
BRANCH   4  16
ATOM     16  N   UNL     1      -6.153   1.675  -3.031  1.00  0.00     0.066 N 
ATOM     17  O   UNL     1      -6.624   2.446  -3.901  1.00  0.00    -0.258 OA
ATOM     18  O   UNL     1      -5.212   0.885  -3.277  1.00  0.00    -0.258 OA
ENDBRANCH   4  16
BRANCH   5  19
ATOM     19  O   UNL     1      -5.648   1.941   1.780  1.00  0.00    -0.504 OA
ATOM     20  H   UNL     1      -4.719   1.810   1.527  1.00  0.00     0.293 HD
ENDBRANCH   5  19
BRANCH   6  21
ATOM     21  O   UNL     1      -4.527   1.899  -0.742  1.00  0.00    -0.500 OA
ATOM     22  H   UNL     1      -4.132   2.215   0.085  1.00  0.00     0.294 HD
ENDBRANCH   6  21
TORSDOF 5
ENDMDL
MODEL 4
REMARK VINA RESULT:    -4.445      1.809      2.244
REMARK INTER + INTRA:          -6.248
REMARK INTER:                  -5.601
REMARK INTRA:                  -0.647
REMARK UNBOUND:                -0.763
REMARK SMILES Cc1ccc(C(=O)c2cc(O)c(O)c([N+](=O)[O-])c2)cc1
REMARK SMILES IDX 8 1 18 2 9 3 14 4 10 5 12 6 6 7 7 8 5 9 4 10 19 11 3 12
REMARK SMILES IDX 20 13 2 14 1 15 15 16 17 17 16 18 11 19 13 21
REMARK H PARENT 11 20 13 22
ROOT
ATOM      1  C   UNL     1      -7.574   3.687  -1.510  1.00  0.00     0.033 A 
ATOM      2  C   UNL     1      -7.446   3.346  -0.184  1.00  0.00     0.102 A 
ATOM      3  C   UNL     1      -6.937   3.008  -2.521  1.00  0.00     0.063 A 
ATOM      4  C   UNL     1      -6.634   2.262   0.150  1.00  0.00     0.315 A 
ATOM      5  C   UNL     1      -6.124   1.924  -2.187  1.00  0.00     0.165 A 
ATOM      6  C   UNL     1      -5.973   1.550  -0.851  1.00  0.00     0.237 A 
ENDROOT
BRANCH   1   7
ATOM      7  C   UNL     1      -8.444   4.848  -1.868  1.00  0.00     0.193 C 
ATOM      8  O   UNL     1      -7.888   5.943  -2.041  1.00  0.00    -0.289 OA
BRANCH   7   9
ATOM      9  C   UNL     1      -9.885   4.727  -2.015  1.00  0.00     0.023 A 
ATOM     10  C   UNL     1     -10.594   3.825  -1.220  1.00  0.00     0.012 A 
ATOM     11  C   UNL     1     -10.560   5.512  -2.950  1.00  0.00     0.012 A 
ATOM     12  C   UNL     1     -11.977   3.709  -1.361  1.00  0.00     0.004 A 
ATOM     13  C   UNL     1     -11.943   5.396  -3.091  1.00  0.00     0.004 A 
ATOM     14  C   UNL     1     -12.652   4.495  -2.296  1.00  0.00    -0.051 A 
ATOM     15  C   UNL     1     -14.130   4.369  -2.448  1.00  0.00     0.044 C 
ENDBRANCH   7   9
ENDBRANCH   1   7
BRANCH   4  16
ATOM     16  N   UNL     1      -6.492   1.896   1.517  1.00  0.00     0.066 N 
ATOM     17  O   UNL     1      -7.512   1.551   2.161  1.00  0.00    -0.258 OA
ATOM     18  O   UNL     1      -5.353   1.929   2.038  1.00  0.00    -0.258 OA
ENDBRANCH   4  16
BRANCH   5  19
ATOM     19  O   UNL     1      -5.485   1.238  -3.176  1.00  0.00    -0.504 OA
ATOM     20  H   UNL     1      -4.752   0.727  -2.796  1.00  0.00     0.293 HD
ENDBRANCH   5  19
BRANCH   6  21
ATOM     21  O   UNL     1      -5.176   0.488  -0.537  1.00  0.00    -0.500 OA
ATOM     22  H   UNL     1      -5.722  -0.243  -0.209  1.00  0.00     0.294 HD
ENDBRANCH   6  21
TORSDOF 5
ENDMDL
MODEL 5
REMARK VINA RESULT:    -4.326      2.388      4.055
REMARK INTER + INTRA:          -6.100
REMARK INTER:                  -5.117
REMARK INTRA:                  -0.983
REMARK UNBOUND:                -0.763
REMARK SMILES Cc1ccc(C(=O)c2cc(O)c(O)c([N+](=O)[O-])c2)cc1
REMARK SMILES IDX 8 1 18 2 9 3 14 4 10 5 12 6 6 7 7 8 5 9 4 10 19 11 3 12
REMARK SMILES IDX 20 13 2 14 1 15 15 16 17 17 16 18 11 19 13 21
REMARK H PARENT 11 20 13 22
ROOT
ATOM      1  C   UNL     1     -11.897   3.564  -0.476  1.00  0.00     0.033 A 
ATOM      2  C   UNL     1     -10.571   3.608  -0.837  1.00  0.00     0.102 A 
ATOM      3  C   UNL     1     -12.426   2.562   0.302  1.00  0.00     0.063 A 
ATOM      4  C   UNL     1      -9.724   2.592  -0.392  1.00  0.00     0.315 A 
ATOM      5  C   UNL     1     -11.580   1.545   0.746  1.00  0.00     0.165 A 
ATOM      6  C   UNL     1     -10.228   1.561   0.399  1.00  0.00     0.237 A 
ENDROOT
BRANCH   1   7
ATOM      7  C   UNL     1     -12.804   4.652  -0.952  1.00  0.00     0.193 C 
ATOM      8  O   UNL     1     -13.170   4.610  -2.137  1.00  0.00    -0.289 OA
BRANCH   7   9
ATOM      9  C   UNL     1     -13.255   5.727  -0.084  1.00  0.00     0.023 A 
ATOM     10  C   UNL     1     -12.323   6.511   0.597  1.00  0.00     0.012 A 
ATOM     11  C   UNL     1     -14.618   5.976   0.069  1.00  0.00     0.012 A 
ATOM     12  C   UNL     1     -12.755   7.542   1.430  1.00  0.00     0.004 A 
ATOM     13  C   UNL     1     -15.052   7.008   0.902  1.00  0.00     0.004 A 
ATOM     14  C   UNL     1     -14.120   7.792   1.583  1.00  0.00    -0.051 A 
ATOM     15  C   UNL     1     -14.581   8.893   2.474  1.00  0.00     0.044 C 
ENDBRANCH   7   9
ENDBRANCH   1   7
BRANCH   4  16
ATOM     16  N   UNL     1      -8.350   2.625  -0.756  1.00  0.00     0.066 N 
ATOM     17  O   UNL     1      -7.796   1.562  -1.126  1.00  0.00    -0.258 OA
ATOM     18  O   UNL     1      -7.734   3.715  -0.699  1.00  0.00    -0.258 OA
ENDBRANCH   4  16
BRANCH   5  19
ATOM     19  O   UNL     1     -12.086   0.544   1.519  1.00  0.00    -0.504 OA
ATOM     20  H   UNL     1     -11.802  -0.316   1.166  1.00  0.00     0.293 HD
ENDBRANCH   5  19
BRANCH   6  21
ATOM     21  O   UNL     1      -9.410   0.561   0.840  1.00  0.00    -0.500 OA
ATOM     22  H   UNL     1      -9.540   0.431   1.793  1.00  0.00     0.294 HD
ENDBRANCH   6  21
TORSDOF 5
ENDMDL
MODEL 6
REMARK VINA RESULT:    -4.316      3.536      7.198
REMARK INTER + INTRA:          -6.088
REMARK INTER:                  -5.125
REMARK INTRA:                  -0.963
REMARK UNBOUND:                -0.763
REMARK SMILES Cc1ccc(C(=O)c2cc(O)c(O)c([N+](=O)[O-])c2)cc1
REMARK SMILES IDX 8 1 18 2 9 3 14 4 10 5 12 6 6 7 7 8 5 9 4 10 19 11 3 12
REMARK SMILES IDX 20 13 2 14 1 15 15 16 17 17 16 18 11 19 13 21
REMARK H PARENT 11 20 13 22
ROOT
ATOM      1  C   UNL     1     -11.918   3.804  -0.724  1.00  0.00     0.033 A 
ATOM      2  C   UNL     1     -12.512   3.658  -1.956  1.00  0.00     0.102 A 
ATOM      3  C   UNL     1     -12.376   4.686   0.226  1.00  0.00     0.063 A 
ATOM      4  C   UNL     1     -13.628   4.439  -2.255  1.00  0.00     0.315 A 
ATOM      5  C   UNL     1     -13.492   5.468  -0.073  1.00  0.00     0.165 A 
ATOM      6  C   UNL     1     -14.119   5.344  -1.314  1.00  0.00     0.237 A 
ENDROOT
BRANCH   1   7
ATOM      7  C   UNL     1     -10.723   2.967  -0.404  1.00  0.00     0.193 C 
ATOM      8  O   UNL     1     -10.770   2.278   0.627  1.00  0.00    -0.289 OA
BRANCH   7   9
ATOM      9  C   UNL     1      -9.539   2.943  -1.248  1.00  0.00     0.023 A 
ATOM     10  C   UNL     1      -8.990   1.723  -1.644  1.00  0.00     0.012 A 
ATOM     11  C   UNL     1      -8.954   4.138  -1.663  1.00  0.00     0.012 A 
ATOM     12  C   UNL     1      -7.855   1.700  -2.454  1.00  0.00     0.004 A 
ATOM     13  C   UNL     1      -7.818   4.116  -2.474  1.00  0.00     0.004 A 
ATOM     14  C   UNL     1      -7.269   2.896  -2.870  1.00  0.00    -0.051 A 
ATOM     15  C   UNL     1      -6.055   2.871  -3.735  1.00  0.00     0.044 C 
ENDBRANCH   7   9
ENDBRANCH   1   7
BRANCH   4  16
ATOM     16  N   UNL     1     -14.253   4.300  -3.525  1.00  0.00     0.066 N 
ATOM     17  O   UNL     1     -15.488   4.503  -3.618  1.00  0.00    -0.258 OA
ATOM     18  O   UNL     1     -13.552   3.979  -4.513  1.00  0.00    -0.258 OA
ENDBRANCH   4  16
BRANCH   5  19
ATOM     19  O   UNL     1     -13.960   6.348   0.856  1.00  0.00    -0.504 OA
ATOM     20  H   UNL     1     -13.896   5.952   1.740  1.00  0.00     0.293 HD
ENDBRANCH   5  19
BRANCH   6  21
ATOM     21  O   UNL     1     -15.210   6.114  -1.595  1.00  0.00    -0.500 OA
ATOM     22  H   UNL     1     -15.138   6.467  -2.495  1.00  0.00     0.294 HD
ENDBRANCH   6  21
TORSDOF 5
ENDMDL
MODEL 7
REMARK VINA RESULT:    -4.305      3.732      6.812
REMARK INTER + INTRA:          -6.075
REMARK INTER:                  -5.095
REMARK INTRA:                  -0.980
REMARK UNBOUND:                -0.763
REMARK SMILES Cc1ccc(C(=O)c2cc(O)c(O)c([N+](=O)[O-])c2)cc1
REMARK SMILES IDX 8 1 18 2 9 3 14 4 10 5 12 6 6 7 7 8 5 9 4 10 19 11 3 12
REMARK SMILES IDX 20 13 2 14 1 15 15 16 17 17 16 18 11 19 13 21
REMARK H PARENT 11 20 13 22
ROOT
ATOM      1  C   UNL     1     -11.966   3.847  -0.868  1.00  0.00     0.033 A 
ATOM      2  C   UNL     1     -12.438   4.805  -0.001  1.00  0.00     0.102 A 
ATOM      3  C   UNL     1     -12.556   3.583  -2.081  1.00  0.00     0.063 A 
ATOM      4  C   UNL     1     -13.565   5.540  -0.369  1.00  0.00     0.315 A 
ATOM      5  C   UNL     1     -13.683   4.318  -2.449  1.00  0.00     0.165 A 
ATOM      6  C   UNL     1     -14.187   5.298  -1.593  1.00  0.00     0.237 A 
ENDROOT
BRANCH   1   7
ATOM      7  C   UNL     1     -10.759   3.059  -0.474  1.00  0.00     0.193 C 
ATOM      8  O   UNL     1     -10.811   2.438   0.598  1.00  0.00    -0.289 OA
BRANCH   7   9
ATOM      9  C   UNL     1      -9.561   3.005  -1.296  1.00  0.00     0.023 A 
ATOM     10  C   UNL     1      -8.946   4.186  -1.711  1.00  0.00     0.012 A 
ATOM     11  C   UNL     1      -9.026   1.772  -1.668  1.00  0.00     0.012 A 
ATOM     12  C   UNL     1      -7.796   4.134  -2.499  1.00  0.00     0.004 A 
ATOM     13  C   UNL     1      -7.875   1.719  -2.457  1.00  0.00     0.004 A 
ATOM     14  C   UNL     1      -7.260   2.901  -2.872  1.00  0.00    -0.051 A 
ATOM     15  C   UNL     1      -6.032   2.845  -3.716  1.00  0.00     0.044 C 
ENDBRANCH   7   9
ENDBRANCH   1   7
BRANCH   4  16
ATOM     16  N   UNL     1     -14.064   6.534   0.517  1.00  0.00     0.066 N 
ATOM     17  O   UNL     1     -15.286   6.817   0.483  1.00  0.00    -0.258 OA
ATOM     18  O   UNL     1     -13.270   7.097   1.307  1.00  0.00    -0.258 OA
ENDBRANCH   4  16
BRANCH   5  19
ATOM     19  O   UNL     1     -14.281   4.070  -3.648  1.00  0.00    -0.504 OA
ATOM     20  H   UNL     1     -13.933   4.683  -4.318  1.00  0.00     0.293 HD
ENDBRANCH   5  19
BRANCH   6  21
ATOM     21  O   UNL     1     -15.290   6.011  -1.964  1.00  0.00    -0.500 OA
ATOM     22  H   UNL     1     -15.033   6.708  -2.587  1.00  0.00     0.294 HD
ENDBRANCH   6  21
TORSDOF 5
ENDMDL
MODEL 8
REMARK VINA RESULT:    -4.271      1.962      2.550
REMARK INTER + INTRA:          -6.032
REMARK INTER:                  -5.337
REMARK INTRA:                  -0.695
REMARK UNBOUND:                -0.763
REMARK SMILES Cc1ccc(C(=O)c2cc(O)c(O)c([N+](=O)[O-])c2)cc1
REMARK SMILES IDX 8 1 18 2 9 3 14 4 10 5 12 6 6 7 7 8 5 9 4 10 19 11 3 12
REMARK SMILES IDX 20 13 2 14 1 15 15 16 17 17 16 18 11 19 13 21
REMARK H PARENT 11 20 13 22
ROOT
ATOM      1  C   UNL     1      -8.973   3.624  -0.462  1.00  0.00     0.033 A 
ATOM      2  C   UNL     1      -8.449   2.961   0.624  1.00  0.00     0.102 A 
ATOM      3  C   UNL     1      -8.349   3.661  -1.686  1.00  0.00     0.063 A 
ATOM      4  C   UNL     1      -7.232   2.297   0.476  1.00  0.00     0.315 A 
ATOM      5  C   UNL     1      -7.130   2.998  -1.834  1.00  0.00     0.165 A 
ATOM      6  C   UNL     1      -6.572   2.315  -0.753  1.00  0.00     0.237 A 
ENDROOT
BRANCH   1   7
ATOM      7  C   UNL     1     -10.278   4.335  -0.304  1.00  0.00     0.193 C 
ATOM      8  O   UNL     1     -10.429   5.027   0.715  1.00  0.00    -0.289 OA
BRANCH   7   9
ATOM      9  C   UNL     1     -11.343   4.238  -1.289  1.00  0.00     0.023 A 
ATOM     10  C   UNL     1     -12.371   3.311  -1.115  1.00  0.00     0.012 A 
ATOM     11  C   UNL     1     -11.338   5.072  -2.406  1.00  0.00     0.012 A 
ATOM     12  C   UNL     1     -13.393   3.218  -2.060  1.00  0.00     0.004 A 
ATOM     13  C   UNL     1     -12.360   4.980  -3.352  1.00  0.00     0.004 A 
ATOM     14  C   UNL     1     -13.388   4.053  -3.178  1.00  0.00    -0.051 A 
ATOM     15  C   UNL     1     -14.480   3.952  -4.188  1.00  0.00     0.044 C 
ENDBRANCH   7   9
ENDBRANCH   1   7
BRANCH   4  16
ATOM     16  N   UNL     1      -6.678   1.608   1.589  1.00  0.00     0.066 N 
ATOM     17  O   UNL     1      -7.341   0.686   2.122  1.00  0.00    -0.258 OA
ATOM     18  O   UNL     1      -5.543   1.940   2.005  1.00  0.00    -0.258 OA
ENDBRANCH   4  16
BRANCH   5  19
ATOM     19  O   UNL     1      -6.497   3.024  -3.040  1.00  0.00    -0.504 OA
ATOM     20  H   UNL     1      -6.975   2.459  -3.670  1.00  0.00     0.293 HD
ENDBRANCH   5  19
BRANCH   6  21
ATOM     21  O   UNL     1      -5.380   1.670  -0.910  1.00  0.00    -0.500 OA
ATOM     22  H   UNL     1      -5.025   1.424  -0.041  1.00  0.00     0.294 HD
ENDBRANCH   6  21
TORSDOF 5
ENDMDL
MODEL 9
REMARK VINA RESULT:    -4.250      1.276      2.905
REMARK INTER + INTRA:          -6.006
REMARK INTER:                  -5.316
REMARK INTRA:                  -0.690
REMARK UNBOUND:                -0.763
REMARK SMILES Cc1ccc(C(=O)c2cc(O)c(O)c([N+](=O)[O-])c2)cc1
REMARK SMILES IDX 8 1 18 2 9 3 14 4 10 5 12 6 6 7 7 8 5 9 4 10 19 11 3 12
REMARK SMILES IDX 20 13 2 14 1 15 15 16 17 17 16 18 11 19 13 21
REMARK H PARENT 11 20 13 22
ROOT
ATOM      1  C   UNL     1      -9.305   2.669  -1.536  1.00  0.00     0.033 A 
ATOM      2  C   UNL     1      -8.315   2.660  -2.491  1.00  0.00     0.102 A 
ATOM      3  C   UNL     1      -9.097   2.260  -0.240  1.00  0.00     0.063 A 
ATOM      4  C   UNL     1      -7.044   2.216  -2.128  1.00  0.00     0.315 A 
ATOM      5  C   UNL     1      -7.825   1.816   0.123  1.00  0.00     0.165 A 
ATOM      6  C   UNL     1      -6.798   1.795  -0.822  1.00  0.00     0.237 A 
ENDROOT
BRANCH   1   7
ATOM      7  C   UNL     1     -10.668   3.144  -1.924  1.00  0.00     0.193 C 
ATOM      8  O   UNL     1     -11.133   2.724  -2.994  1.00  0.00    -0.289 OA
BRANCH   7   9
ATOM      9  C   UNL     1     -11.439   4.059  -1.099  1.00  0.00     0.023 A 
ATOM     10  C   UNL     1     -12.208   3.569  -0.043  1.00  0.00     0.012 A 
ATOM     11  C   UNL     1     -11.410   5.429  -1.362  1.00  0.00     0.012 A 
ATOM     12  C   UNL     1     -12.947   4.448   0.748  1.00  0.00     0.004 A 
ATOM     13  C   UNL     1     -12.149   6.308  -0.571  1.00  0.00     0.004 A 
ATOM     14  C   UNL     1     -12.918   5.818   0.485  1.00  0.00    -0.051 A 
ATOM     15  C   UNL     1     -13.710   6.756   1.331  1.00  0.00     0.044 C 
ENDBRANCH   7   9
ENDBRANCH   1   7
BRANCH   4  16
ATOM     16  N   UNL     1      -6.010   2.201  -3.104  1.00  0.00     0.066 N 
ATOM     17  O   UNL     1      -5.442   1.114  -3.369  1.00  0.00    -0.258 OA
ATOM     18  O   UNL     1      -5.696   3.274  -3.672  1.00  0.00    -0.258 OA
ENDBRANCH   4  16
BRANCH   5  19
ATOM     19  O   UNL     1      -7.599   1.407   1.403  1.00  0.00    -0.504 OA
ATOM     20  H   UNL     1      -7.659   0.439   1.450  1.00  0.00     0.293 HD
ENDBRANCH   5  19
BRANCH   6  21
ATOM     21  O   UNL     1      -5.558   1.359  -0.455  1.00  0.00    -0.500 OA
ATOM     22  H   UNL     1      -5.446   0.432  -0.719  1.00  0.00     0.294 HD
ENDBRANCH   6  21
TORSDOF 5
ENDMDL
