MODEL 1
REMARK VINA RESULT:    -6.885      0.000      0.000
REMARK INTER + INTRA:          -8.669
REMARK INTER:                  -8.093
REMARK INTRA:                  -0.576
REMARK UNBOUND:                -0.576
REMARK SMILES O=C(O)c1cc(-c2ccc(F)cc2F)ccc1O
REMARK SMILES IDX 6 1 5 2 15 3 4 4 17 5 16 6 7 7 13 8 12 9 8 10 10 11 9 12
REMARK SMILES IDX 14 13 11 14 2 15 1 16 3 17 18 19
REMARK H PARENT 3 18 18 20
ROOT
ATOM      1  C   UNL     1      -8.790   2.958  -0.986  1.00  0.00    -0.014 A 
ATOM      2  C   UNL     1      -8.338   2.540   0.266  1.00  0.00     0.028 A 
ATOM      3  C   UNL     1      -7.976   2.803  -2.108  1.00  0.00     0.013 A 
ATOM      4  C   UNL     1      -7.073   1.967   0.396  1.00  0.00     0.102 A 
ATOM      5  C   UNL     1      -6.260   1.811  -0.727  1.00  0.00     0.130 A 
ATOM      6  C   UNL     1      -6.712   2.230  -1.979  1.00  0.00     0.048 A 
ENDROOT
BRANCH   1   7
ATOM      7  C   UNL     1     -10.101   3.555  -1.121  1.00  0.00     0.018 A 
ATOM      8  C   UNL     1     -11.202   2.977  -0.487  1.00  0.00     0.133 A 
ATOM      9  C   UNL     1     -12.465   3.555  -0.620  1.00  0.00     0.079 A 
ATOM     10  C   UNL     1     -10.263   4.709  -1.886  1.00  0.00     0.015 A 
ATOM     11  C   UNL     1     -12.627   4.709  -1.385  1.00  0.00     0.126 A 
ATOM     12  C   UNL     1     -11.526   5.286  -2.018  1.00  0.00     0.040 A 
ATOM     13  F   UNL     1     -11.064   1.866   0.250  1.00  0.00    -0.206 F 
ATOM     14  F   UNL     1     -13.839   5.265  -1.514  1.00  0.00    -0.207 F 
ENDBRANCH   1   7
BRANCH   4  15
ATOM     15  C   UNL     1      -6.620   1.536   1.711  1.00  0.00     0.339 C 
ATOM     16  O   UNL     1      -5.564   1.877   2.249  1.00  0.00    -0.246 OA
BRANCH  15  17
ATOM     17  O   UNL     1      -7.504   0.694   2.313  1.00  0.00    -0.478 OA
ATOM     18  H   UNL     1      -7.288  -0.246   2.139  1.00  0.00     0.297 HD
ENDBRANCH  15  17
ENDBRANCH   4  15
BRANCH   5  19
ATOM     19  O   UNL     1      -5.021   1.253  -0.622  1.00  0.00    -0.507 OA
ATOM     20  H   UNL     1      -4.868   0.673  -1.388  1.00  0.00     0.293 HD
ENDBRANCH   5  19
TORSDOF 4
ENDMDL
MODEL 2
REMARK VINA RESULT:    -6.878      1.121      1.606
REMARK INTER + INTRA:          -8.660
REMARK INTER:                  -8.087
REMARK INTRA:                  -0.573
REMARK UNBOUND:                -0.576
REMARK SMILES O=C(O)c1cc(-c2ccc(F)cc2F)ccc1O
REMARK SMILES IDX 6 1 5 2 15 3 4 4 17 5 16 6 7 7 13 8 12 9 8 10 10 11 9 12
REMARK SMILES IDX 14 13 11 14 2 15 1 16 3 17 18 19
REMARK H PARENT 3 18 18 20
ROOT
ATOM      1  C   UNL     1      -8.767   2.995  -0.989  1.00  0.00    -0.014 A 
ATOM      2  C   UNL     1      -8.326   2.565   0.261  1.00  0.00     0.028 A 
ATOM      3  C   UNL     1      -7.946   2.847  -2.107  1.00  0.00     0.013 A 
ATOM      4  C   UNL     1      -7.063   1.986   0.395  1.00  0.00     0.102 A 
ATOM      5  C   UNL     1      -6.242   1.838  -0.723  1.00  0.00     0.130 A 
ATOM      6  C   UNL     1      -6.684   2.269  -1.975  1.00  0.00     0.048 A 
ENDROOT
BRANCH   1   7
ATOM      7  C   UNL     1     -10.076   3.596  -1.128  1.00  0.00     0.018 A 
ATOM      8  C   UNL     1     -10.233   4.767  -1.871  1.00  0.00     0.133 A 
ATOM      9  C   UNL     1     -11.497   5.344  -2.002  1.00  0.00     0.079 A 
ATOM     10  C   UNL     1     -11.181   3.002  -0.520  1.00  0.00     0.015 A 
ATOM     11  C   UNL     1     -12.602   4.750  -1.393  1.00  0.00     0.126 A 
ATOM     12  C   UNL     1     -12.443   3.579  -0.652  1.00  0.00     0.040 A 
ATOM     13  F   UNL     1      -9.181   5.353  -2.460  1.00  0.00    -0.206 F 
ATOM     14  F   UNL     1     -13.815   5.303  -1.519  1.00  0.00    -0.207 F 
ENDBRANCH   1   7
BRANCH   4  15
ATOM     15  C   UNL     1      -6.621   1.543   1.710  1.00  0.00     0.339 C 
ATOM     16  O   UNL     1      -5.566   1.874   2.258  1.00  0.00    -0.246 OA
BRANCH  15  17
ATOM     17  O   UNL     1      -7.513   0.702   2.301  1.00  0.00    -0.478 OA
ATOM     18  H   UNL     1      -7.718   0.974   3.220  1.00  0.00     0.297 HD
ENDBRANCH  15  17
ENDBRANCH   4  15
BRANCH   5  19
ATOM     19  O   UNL     1      -5.006   1.275  -0.613  1.00  0.00    -0.507 OA
ATOM     20  H   UNL     1      -4.874   0.975   0.303  1.00  0.00     0.293 HD
ENDBRANCH   5  19
TORSDOF 4
ENDMDL
MODEL 3
REMARK VINA RESULT:    -6.875      1.645      3.143
REMARK INTER + INTRA:          -8.657
REMARK INTER:                  -8.081
REMARK INTRA:                  -0.576
REMARK UNBOUND:                -0.576
REMARK SMILES O=C(O)c1cc(-c2ccc(F)cc2F)ccc1O
REMARK SMILES IDX 6 1 5 2 15 3 4 4 17 5 16 6 7 7 13 8 12 9 8 10 10 11 9 12
REMARK SMILES IDX 14 13 11 14 2 15 1 16 3 17 18 19
REMARK H PARENT 3 18 18 20
ROOT
ATOM      1  C   UNL     1      -8.768   3.022  -0.945  1.00  0.00    -0.014 A 
ATOM      2  C   UNL     1      -7.981   2.890  -2.088  1.00  0.00     0.028 A 
ATOM      3  C   UNL     1      -8.281   2.596   0.290  1.00  0.00     0.013 A 
ATOM      4  C   UNL     1      -6.706   2.332  -1.998  1.00  0.00     0.102 A 
ATOM      5  C   UNL     1      -6.218   1.906  -0.762  1.00  0.00     0.130 A 
ATOM      6  C   UNL     1      -7.006   2.038   0.382  1.00  0.00     0.048 A 
ENDROOT
BRANCH   1   7
ATOM      7  C   UNL     1     -10.092   3.600  -1.039  1.00  0.00     0.018 A 
ATOM      8  C   UNL     1     -10.298   4.760  -1.786  1.00  0.00     0.133 A 
ATOM      9  C   UNL     1     -11.576   5.314  -1.874  1.00  0.00     0.079 A 
ATOM     10  C   UNL     1     -11.162   2.993  -0.382  1.00  0.00     0.015 A 
ATOM     11  C   UNL     1     -12.646   4.708  -1.216  1.00  0.00     0.126 A 
ATOM     12  C   UNL     1     -12.439   3.547  -0.471  1.00  0.00     0.040 A 
ATOM     13  F   UNL     1      -9.280   5.357  -2.421  1.00  0.00    -0.206 F 
ATOM     14  F   UNL     1     -13.872   5.239  -1.300  1.00  0.00    -0.207 F 
ENDBRANCH   1   7
BRANCH   4  15
ATOM     15  C   UNL     1      -5.900   2.203  -3.203  1.00  0.00     0.339 C 
ATOM     16  O   UNL     1      -5.377   1.161  -3.605  1.00  0.00    -0.246 OA
BRANCH  15  17
ATOM     17  O   UNL     1      -5.773   3.383  -3.871  1.00  0.00    -0.478 OA
ATOM     18  H   UNL     1      -5.922   4.152  -3.282  1.00  0.00     0.297 HD
ENDBRANCH  15  17
ENDBRANCH   4  15
BRANCH   5  19
ATOM     19  O   UNL     1      -4.975   1.358  -0.651  1.00  0.00    -0.507 OA
ATOM     20  H   UNL     1      -4.309   2.063  -0.736  1.00  0.00     0.293 HD
ENDBRANCH   5  19
TORSDOF 4
ENDMDL
MODEL 4
REMARK VINA RESULT:    -5.292      4.073      6.309
REMARK INTER + INTRA:          -6.796
REMARK INTER:                  -5.713
REMARK INTRA:                  -1.083
REMARK UNBOUND:                -0.576
REMARK SMILES O=C(O)c1cc(-c2ccc(F)cc2F)ccc1O
REMARK SMILES IDX 6 1 5 2 15 3 4 4 17 5 16 6 7 7 13 8 12 9 8 10 10 11 9 12
REMARK SMILES IDX 14 13 11 14 2 15 1 16 3 17 18 19
REMARK H PARENT 3 18 18 20
ROOT
ATOM      1  C   UNL     1     -11.216   3.965  -0.998  1.00  0.00    -0.014 A 
ATOM      2  C   UNL     1     -11.778   4.812  -0.043  1.00  0.00     0.028 A 
ATOM      3  C   UNL     1     -11.897   3.704  -2.187  1.00  0.00     0.013 A 
ATOM      4  C   UNL     1     -13.022   5.399  -0.277  1.00  0.00     0.102 A 
ATOM      5  C   UNL     1     -13.703   5.138  -1.466  1.00  0.00     0.130 A 
ATOM      6  C   UNL     1     -13.140   4.290  -2.421  1.00  0.00     0.048 A 
ENDROOT
BRANCH   1   7
ATOM      7  C   UNL     1      -9.926   3.355  -0.755  1.00  0.00     0.018 A 
ATOM      8  C   UNL     1      -9.842   2.144  -0.066  1.00  0.00     0.133 A 
ATOM      9  C   UNL     1      -8.597   1.560   0.165  1.00  0.00     0.079 A 
ATOM     10  C   UNL     1      -8.766   3.979  -1.213  1.00  0.00     0.015 A 
ATOM     11  C   UNL     1      -7.437   2.185  -0.291  1.00  0.00     0.126 A 
ATOM     12  C   UNL     1      -7.522   3.394  -0.981  1.00  0.00     0.040 A 
ATOM     13  F   UNL     1     -10.948   1.533   0.382  1.00  0.00    -0.206 F 
ATOM     14  F   UNL     1      -6.241   1.624  -0.069  1.00  0.00    -0.207 F 
ENDBRANCH   1   7
BRANCH   4  15
ATOM     15  C   UNL     1     -13.592   6.280   0.732  1.00  0.00     0.339 C 
ATOM     16  O   UNL     1     -14.636   6.926   0.609  1.00  0.00    -0.246 OA
BRANCH  15  17
ATOM     17  O   UNL     1     -12.840   6.326   1.865  1.00  0.00    -0.478 OA
ATOM     18  H   UNL     1     -11.883   6.402   1.665  1.00  0.00     0.297 HD
ENDBRANCH  15  17
ENDBRANCH   4  15
BRANCH   5  19
ATOM     19  O   UNL     1     -14.919   5.702  -1.714  1.00  0.00    -0.507 OA
ATOM     20  H   UNL     1     -15.534   5.459  -1.000  1.00  0.00     0.293 HD
ENDBRANCH   5  19
TORSDOF 4
ENDMDL
MODEL 5
REMARK VINA RESULT:    -5.270      4.351      6.672
REMARK INTER + INTRA:          -6.770
REMARK INTER:                  -5.698
REMARK INTRA:                  -1.072
REMARK UNBOUND:                -0.576
REMARK SMILES O=C(O)c1cc(-c2ccc(F)cc2F)ccc1O
REMARK SMILES IDX 6 1 5 2 15 3 4 4 17 5 16 6 7 7 13 8 12 9 8 10 10 11 9 12
REMARK SMILES IDX 14 13 11 14 2 15 1 16 3 17 18 19
REMARK H PARENT 3 18 18 20
ROOT
ATOM      1  C   UNL     1     -11.239   3.985  -1.014  1.00  0.00    -0.014 A 
ATOM      2  C   UNL     1     -11.917   3.776  -2.214  1.00  0.00     0.028 A 
ATOM      3  C   UNL     1     -11.809   4.783  -0.022  1.00  0.00     0.013 A 
ATOM      4  C   UNL     1     -13.165   4.364  -2.423  1.00  0.00     0.102 A 
ATOM      5  C   UNL     1     -13.735   5.161  -1.431  1.00  0.00     0.130 A 
ATOM      6  C   UNL     1     -13.056   5.371  -0.229  1.00  0.00     0.048 A 
ENDROOT
BRANCH   1   7
ATOM      7  C   UNL     1      -9.944   3.377  -0.798  1.00  0.00     0.018 A 
ATOM      8  C   UNL     1      -9.845   2.165  -0.112  1.00  0.00     0.133 A 
ATOM      9  C   UNL     1      -8.595   1.582   0.094  1.00  0.00     0.079 A 
ATOM     10  C   UNL     1      -8.794   4.004  -1.276  1.00  0.00     0.015 A 
ATOM     11  C   UNL     1      -7.445   2.210  -0.383  1.00  0.00     0.126 A 
ATOM     12  C   UNL     1      -7.545   3.420  -1.069  1.00  0.00     0.040 A 
ATOM     13  F   UNL     1     -10.941   1.551   0.357  1.00  0.00    -0.206 F 
ATOM     14  F   UNL     1      -6.244   1.651  -0.185  1.00  0.00    -0.207 F 
ENDBRANCH   1   7
BRANCH   4  15
ATOM     15  C   UNL     1     -13.857   4.132  -3.684  1.00  0.00     0.339 C 
ATOM     16  O   UNL     1     -14.824   4.777  -4.096  1.00  0.00    -0.246 OA
BRANCH  15  17
ATOM     17  O   UNL     1     -13.316   3.103  -4.390  1.00  0.00    -0.478 OA
ATOM     18  H   UNL     1     -13.937   2.758  -5.066  1.00  0.00     0.297 HD
ENDBRANCH  15  17
ENDBRANCH   4  15
BRANCH   5  19
ATOM     19  O   UNL     1     -14.953   5.744  -1.614  1.00  0.00    -0.507 OA
ATOM     20  H   UNL     1     -15.585   5.367  -0.977  1.00  0.00     0.293 HD
ENDBRANCH   5  19
TORSDOF 4
ENDMDL
MODEL 6
REMARK VINA RESULT:    -5.266      4.180      6.446
REMARK INTER + INTRA:          -6.766
REMARK INTER:                  -5.691
REMARK INTRA:                  -1.075
REMARK UNBOUND:                -0.576
REMARK SMILES O=C(O)c1cc(-c2ccc(F)cc2F)ccc1O
REMARK SMILES IDX 6 1 5 2 15 3 4 4 17 5 16 6 7 7 13 8 12 9 8 10 10 11 9 12
REMARK SMILES IDX 14 13 11 14 2 15 1 16 3 17 18 19
REMARK H PARENT 3 18 18 20
ROOT
ATOM      1  C   UNL     1     -11.138   4.145  -1.336  1.00  0.00    -0.014 A 
ATOM      2  C   UNL     1     -11.592   4.868  -0.234  1.00  0.00     0.028 A 
ATOM      3  C   UNL     1     -11.968   3.966  -2.443  1.00  0.00     0.013 A 
ATOM      4  C   UNL     1     -12.876   5.412  -0.237  1.00  0.00     0.102 A 
ATOM      5  C   UNL     1     -13.706   5.233  -1.344  1.00  0.00     0.130 A 
ATOM      6  C   UNL     1     -13.252   4.510  -2.447  1.00  0.00     0.048 A 
ENDROOT
BRANCH   1   7
ATOM      7  C   UNL     1      -9.806   3.578  -1.333  1.00  0.00     0.018 A 
ATOM      8  C   UNL     1      -8.747   4.274  -1.917  1.00  0.00     0.133 A 
ATOM      9  C   UNL     1      -7.465   3.725  -1.912  1.00  0.00     0.079 A 
ATOM     10  C   UNL     1      -9.582   2.335  -0.743  1.00  0.00     0.015 A 
ATOM     11  C   UNL     1      -7.242   2.481  -1.323  1.00  0.00     0.126 A 
ATOM     12  C   UNL     1      -8.300   1.786  -0.737  1.00  0.00     0.040 A 
ATOM     13  F   UNL     1      -8.946   5.469  -2.491  1.00  0.00    -0.206 F 
ATOM     14  F   UNL     1      -6.011   1.953  -1.317  1.00  0.00    -0.207 F 
ENDBRANCH   1   7
BRANCH   4  15
ATOM     15  C   UNL     1     -13.332   6.164   0.924  1.00  0.00     0.339 C 
ATOM     16  O   UNL     1     -14.497   6.501   1.143  1.00  0.00    -0.246 OA
BRANCH  15  17
ATOM     17  O   UNL     1     -12.314   6.470   1.774  1.00  0.00    -0.478 OA
ATOM     18  H   UNL     1     -11.562   6.891   1.307  1.00  0.00     0.297 HD
ENDBRANCH  15  17
ENDBRANCH   4  15
BRANCH   5  19
ATOM     19  O   UNL     1     -14.964   5.758  -1.368  1.00  0.00    -0.507 OA
ATOM     20  H   UNL     1     -15.489   5.294  -2.043  1.00  0.00     0.293 HD
ENDBRANCH   5  19
TORSDOF 4
ENDMDL
MODEL 7
REMARK VINA RESULT:    -5.245      4.592      6.877
REMARK INTER + INTRA:          -6.741
REMARK INTER:                  -5.655
REMARK INTRA:                  -1.086
REMARK UNBOUND:                -0.576
REMARK SMILES O=C(O)c1cc(-c2ccc(F)cc2F)ccc1O
REMARK SMILES IDX 6 1 5 2 15 3 4 4 17 5 16 6 7 7 13 8 12 9 8 10 10 11 9 12
REMARK SMILES IDX 14 13 11 14 2 15 1 16 3 17 18 19
REMARK H PARENT 3 18 18 20
ROOT
ATOM      1  C   UNL     1     -10.953   4.073  -1.419  1.00  0.00    -0.014 A 
ATOM      2  C   UNL     1     -11.900   3.970  -2.436  1.00  0.00     0.028 A 
ATOM      3  C   UNL     1     -11.257   4.771  -0.250  1.00  0.00     0.013 A 
ATOM      4  C   UNL     1     -13.153   4.564  -2.286  1.00  0.00     0.102 A 
ATOM      5  C   UNL     1     -13.458   5.262  -1.118  1.00  0.00     0.130 A 
ATOM      6  C   UNL     1     -12.510   5.366  -0.099  1.00  0.00     0.048 A 
ENDROOT
BRANCH   1   7
ATOM      7  C   UNL     1      -9.652   3.458  -1.574  1.00  0.00     0.018 A 
ATOM      8  C   UNL     1      -8.596   4.182  -2.128  1.00  0.00     0.133 A 
ATOM      9  C   UNL     1      -7.344   3.585  -2.276  1.00  0.00     0.079 A 
ATOM     10  C   UNL     1      -9.456   2.138  -1.168  1.00  0.00     0.015 A 
ATOM     11  C   UNL     1      -7.148   2.265  -1.871  1.00  0.00     0.126 A 
ATOM     12  C   UNL     1      -8.204   1.542  -1.317  1.00  0.00     0.040 A 
ATOM     13  F   UNL     1      -8.769   5.451  -2.526  1.00  0.00    -0.206 F 
ATOM     14  F   UNL     1      -5.946   1.692  -2.013  1.00  0.00    -0.207 F 
ENDBRANCH   1   7
BRANCH   4  15
ATOM     15  C   UNL     1     -14.129   4.444  -3.360  1.00  0.00     0.339 C 
ATOM     16  O   UNL     1     -15.283   4.879  -3.328  1.00  0.00    -0.246 OA
BRANCH  15  17
ATOM     17  O   UNL     1     -13.631   3.786  -4.442  1.00  0.00    -0.478 OA
ATOM     18  H   UNL     1     -13.738   2.815  -4.359  1.00  0.00     0.297 HD
ENDBRANCH  15  17
ENDBRANCH   4  15
BRANCH   5  19
ATOM     19  O   UNL     1     -14.677   5.850  -0.951  1.00  0.00    -0.507 OA
ATOM     20  H   UNL     1     -15.285   5.209  -0.544  1.00  0.00     0.293 HD
ENDBRANCH   5  19
TORSDOF 4
ENDMDL
MODEL 8
REMARK VINA RESULT:    -4.798      2.046      3.224
REMARK INTER + INTRA:          -6.216
REMARK INTER:                  -5.250
REMARK INTRA:                  -0.966
REMARK UNBOUND:                -0.576
REMARK SMILES O=C(O)c1cc(-c2ccc(F)cc2F)ccc1O
REMARK SMILES IDX 6 1 5 2 15 3 4 4 17 5 16 6 7 7 13 8 12 9 8 10 10 11 9 12
REMARK SMILES IDX 14 13 11 14 2 15 1 16 3 17 18 19
REMARK H PARENT 3 18 18 20
ROOT
ATOM      1  C   UNL     1     -10.111   3.331  -0.983  1.00  0.00    -0.014 A 
ATOM      2  C   UNL     1      -9.127   3.753  -1.877  1.00  0.00     0.028 A 
ATOM      3  C   UNL     1      -9.903   2.193  -0.204  1.00  0.00     0.013 A 
ATOM      4  C   UNL     1      -7.936   3.036  -1.993  1.00  0.00     0.102 A 
ATOM      5  C   UNL     1      -7.728   1.898  -1.213  1.00  0.00     0.130 A 
ATOM      6  C   UNL     1      -8.713   1.476  -0.318  1.00  0.00     0.048 A 
ENDROOT
BRANCH   1   7
ATOM      7  C   UNL     1     -11.347   4.073  -0.863  1.00  0.00     0.018 A 
ATOM      8  C   UNL     1     -12.259   4.090  -1.919  1.00  0.00     0.133 A 
ATOM      9  C   UNL     1     -13.450   4.807  -1.800  1.00  0.00     0.079 A 
ATOM     10  C   UNL     1     -11.627   4.771   0.311  1.00  0.00     0.015 A 
ATOM     11  C   UNL     1     -13.729   5.505  -0.626  1.00  0.00     0.126 A 
ATOM     12  C   UNL     1     -12.818   5.487   0.430  1.00  0.00     0.040 A 
ATOM     13  F   UNL     1     -12.004   3.426  -3.056  1.00  0.00    -0.206 F 
ATOM     14  F   UNL     1     -14.872   6.194  -0.510  1.00  0.00    -0.207 F 
ENDBRANCH   1   7
BRANCH   4  15
ATOM     15  C   UNL     1      -6.921   3.493  -2.932  1.00  0.00     0.339 C 
ATOM     16  O   UNL     1      -5.956   2.830  -3.319  1.00  0.00    -0.246 OA
BRANCH  15  17
ATOM     17  O   UNL     1      -7.146   4.765  -3.360  1.00  0.00    -0.478 OA
ATOM     18  H   UNL     1      -7.357   5.368  -2.616  1.00  0.00     0.297 HD
ENDBRANCH  15  17
ENDBRANCH   4  15
BRANCH   5  19
ATOM     19  O   UNL     1      -6.571   1.184  -1.311  1.00  0.00    -0.507 OA
ATOM     20  H   UNL     1      -6.090   1.467  -2.108  1.00  0.00     0.293 HD
ENDBRANCH   5  19
TORSDOF 4
ENDMDL
MODEL 9
REMARK VINA RESULT:    -4.589      8.486     10.767
REMARK INTER + INTRA:          -5.971
REMARK INTER:                  -4.937
REMARK INTRA:                  -1.033
REMARK UNBOUND:                -0.576
REMARK SMILES O=C(O)c1cc(-c2ccc(F)cc2F)ccc1O
REMARK SMILES IDX 6 1 5 2 15 3 4 4 17 5 16 6 7 7 13 8 12 9 8 10 10 11 9 12
REMARK SMILES IDX 14 13 11 14 2 15 1 16 3 17 18 19
REMARK H PARENT 3 18 18 20
ROOT
ATOM      1  C   UNL     1     -15.032   9.894   2.241  1.00  0.00    -0.014 A 
ATOM      2  C   UNL     1     -15.028  10.168   3.608  1.00  0.00     0.028 A 
ATOM      3  C   UNL     1     -15.522  10.841   1.341  1.00  0.00     0.013 A 
ATOM      4  C   UNL     1     -15.515  11.389   4.077  1.00  0.00     0.102 A 
ATOM      5  C   UNL     1     -16.005  12.336   3.177  1.00  0.00     0.130 A 
ATOM      6  C   UNL     1     -16.008  12.062   1.809  1.00  0.00     0.048 A 
ENDROOT
BRANCH   1   7
ATOM      7  C   UNL     1     -14.529   8.628   1.755  1.00  0.00     0.018 A 
ATOM      8  C   UNL     1     -15.417   7.623   1.370  1.00  0.00     0.133 A 
ATOM      9  C   UNL     1     -14.928   6.403   0.902  1.00  0.00     0.079 A 
ATOM     10  C   UNL     1     -13.154   8.413   1.670  1.00  0.00     0.015 A 
ATOM     11  C   UNL     1     -13.553   6.188   0.818  1.00  0.00     0.126 A 
ATOM     12  C   UNL     1     -12.666   7.194   1.202  1.00  0.00     0.040 A 
ATOM     13  F   UNL     1     -16.742   7.812   1.447  1.00  0.00    -0.206 F 
ATOM     14  F   UNL     1     -13.082   5.018   0.369  1.00  0.00    -0.207 F 
ENDBRANCH   1   7
BRANCH   4  15
ATOM     15  C   UNL     1     -15.502  11.656   5.508  1.00  0.00     0.339 C 
ATOM     16  O   UNL     1     -16.235  12.459   6.091  1.00  0.00    -0.246 OA
BRANCH  15  17
ATOM     17  O   UNL     1     -14.574  10.910   6.166  1.00  0.00    -0.478 OA
ATOM     18  H   UNL     1     -14.598   9.970   5.889  1.00  0.00     0.297 HD
ENDBRANCH  15  17
ENDBRANCH   4  15
BRANCH   5  19
ATOM     19  O   UNL     1     -16.484  13.535   3.614  1.00  0.00    -0.507 OA
ATOM     20  H   UNL     1     -15.972  14.251   3.199  1.00  0.00     0.293 HD
ENDBRANCH   5  19
TORSDOF 4
ENDMDL
