MODEL 1
REMARK VINA RESULT:    -5.213      0.000      0.000
REMARK INTER + INTRA:          -7.172
REMARK INTER:                  -6.431
REMARK INTRA:                  -0.741
REMARK UNBOUND:                -0.741
REMARK SMILES Cc1ccc(C(=O)c2cc(O)c(O)c([N+](=O)[O-])c2)cc1
REMARK SMILES IDX 8 1 18 2 9 3 14 4 10 5 12 6 6 7 7 8 5 9 4 10 19 11 3 12
REMARK SMILES IDX 20 13 2 14 1 15 15 16 17 17 16 18 11 19 13 21
REMARK H PARENT 11 20 13 22
ROOT
ATOM      1  C   UNL     1      -4.935   1.482  -6.002  1.00  0.00     0.033 A 
ATOM      2  C   UNL     1      -4.812   2.419  -5.002  1.00  0.00     0.102 A 
ATOM      3  C   UNL     1      -4.193   0.326  -6.038  1.00  0.00     0.063 A 
ATOM      4  C   UNL     1      -3.894   2.184  -3.979  1.00  0.00     0.315 A 
ATOM      5  C   UNL     1      -3.274   0.091  -5.015  1.00  0.00     0.165 A 
ATOM      6  C   UNL     1      -3.125   1.020  -3.984  1.00  0.00     0.237 A 
ENDROOT
BRANCH   1   7
ATOM      7  C   UNL     1      -5.918   1.734  -7.099  1.00  0.00     0.193 C 
ATOM      8  O   UNL     1      -6.485   0.747  -7.593  1.00  0.00    -0.289 OA
BRANCH   7   9
ATOM      9  C   UNL     1      -6.218   3.071  -7.586  1.00  0.00     0.023 A 
ATOM     10  C   UNL     1      -5.583   3.555  -8.730  1.00  0.00     0.012 A 
ATOM     11  C   UNL     1      -7.140   3.870  -6.910  1.00  0.00     0.012 A 
ATOM     12  C   UNL     1      -5.870   4.837  -9.198  1.00  0.00     0.004 A 
ATOM     13  C   UNL     1      -7.428   5.153  -7.378  1.00  0.00     0.004 A 
ATOM     14  C   UNL     1      -6.793   5.636  -8.522  1.00  0.00    -0.051 A 
ATOM     15  C   UNL     1      -7.099   7.007  -9.021  1.00  0.00     0.044 C 
ENDBRANCH   7   9
ENDBRANCH   1   7
BRANCH   4  16
ATOM     16  N   UNL     1      -3.755   3.142  -2.937  1.00  0.00     0.066 N 
ATOM     17  O   UNL     1      -2.640   3.272  -2.378  1.00  0.00    -0.258 OA
ATOM     18  O   UNL     1      -4.750   3.830  -2.610  1.00  0.00    -0.258 OA
ENDBRANCH   4  16
BRANCH   5  19
ATOM     19  O   UNL     1      -2.531  -1.050  -5.033  1.00  0.00    -0.504 OA
ATOM     20  H   UNL     1      -2.812  -1.611  -5.775  1.00  0.00     0.293 HD
ENDBRANCH   5  19
BRANCH   6  21
ATOM     21  O   UNL     1      -2.224   0.779  -2.988  1.00  0.00    -0.500 OA
ATOM     22  H   UNL     1      -1.428   0.368  -3.361  1.00  0.00     0.294 HD
ENDBRANCH   6  21
TORSDOF 5
ENDMDL
MODEL 2
REMARK VINA RESULT:    -5.100      2.023      3.533
REMARK INTER + INTRA:          -7.033
REMARK INTER:                  -6.257
REMARK INTRA:                  -0.776
REMARK UNBOUND:                -0.741
REMARK SMILES Cc1ccc(C(=O)c2cc(O)c(O)c([N+](=O)[O-])c2)cc1
REMARK SMILES IDX 8 1 18 2 9 3 14 4 10 5 12 6 6 7 7 8 5 9 4 10 19 11 3 12
REMARK SMILES IDX 20 13 2 14 1 15 15 16 17 17 16 18 11 19 13 21
REMARK H PARENT 11 20 13 22
ROOT
ATOM      1  C   UNL     1      -4.171   3.116  -5.707  1.00  0.00     0.033 A 
ATOM      2  C   UNL     1      -3.734   1.901  -6.184  1.00  0.00     0.102 A 
ATOM      3  C   UNL     1      -4.021   3.500  -4.396  1.00  0.00     0.063 A 
ATOM      4  C   UNL     1      -3.112   1.022  -5.299  1.00  0.00     0.315 A 
ATOM      5  C   UNL     1      -3.399   2.620  -3.510  1.00  0.00     0.165 A 
ATOM      6  C   UNL     1      -2.944   1.380  -3.962  1.00  0.00     0.237 A 
ENDROOT
BRANCH   1   7
ATOM      7  C   UNL     1      -4.838   4.058  -6.655  1.00  0.00     0.193 C 
ATOM      8  O   UNL     1      -4.555   5.261  -6.555  1.00  0.00    -0.289 OA
BRANCH   7   9
ATOM      9  C   UNL     1      -5.783   3.609  -7.665  1.00  0.00     0.023 A 
ATOM     10  C   UNL     1      -7.152   3.636  -7.399  1.00  0.00     0.012 A 
ATOM     11  C   UNL     1      -5.321   3.152  -8.899  1.00  0.00     0.012 A 
ATOM     12  C   UNL     1      -8.059   3.206  -8.368  1.00  0.00     0.004 A 
ATOM     13  C   UNL     1      -6.228   2.721  -9.868  1.00  0.00     0.004 A 
ATOM     14  C   UNL     1      -7.597   2.748  -9.603  1.00  0.00    -0.051 A 
ATOM     15  C   UNL     1      -8.567   2.287 -10.637  1.00  0.00     0.044 C 
ENDBRANCH   7   9
ENDBRANCH   1   7
BRANCH   4  16
ATOM     16  N   UNL     1      -2.655  -0.237  -5.777  1.00  0.00     0.066 N 
ATOM     17  O   UNL     1      -2.139  -0.300  -6.919  1.00  0.00    -0.258 OA
ATOM     18  O   UNL     1      -2.780  -1.246  -5.045  1.00  0.00    -0.258 OA
ENDBRANCH   4  16
BRANCH   5  19
ATOM     19  O   UNL     1      -3.241   2.984  -2.206  1.00  0.00    -0.504 OA
ATOM     20  H   UNL     1      -3.321   3.949  -2.126  1.00  0.00     0.293 HD
ENDBRANCH   5  19
BRANCH   6  21
ATOM     21  O   UNL     1      -2.336   0.528  -3.086  1.00  0.00    -0.500 OA
ATOM     22  H   UNL     1      -2.818  -0.313  -3.061  1.00  0.00     0.294 HD
ENDBRANCH   6  21
TORSDOF 5
ENDMDL
MODEL 3
REMARK VINA RESULT:    -4.703      1.788      2.322
REMARK INTER + INTRA:          -6.543
REMARK INTER:                  -5.899
REMARK INTRA:                  -0.644
REMARK UNBOUND:                -0.741
REMARK SMILES Cc1ccc(C(=O)c2cc(O)c(O)c([N+](=O)[O-])c2)cc1
REMARK SMILES IDX 8 1 18 2 9 3 14 4 10 5 12 6 6 7 7 8 5 9 4 10 19 11 3 12
REMARK SMILES IDX 20 13 2 14 1 15 15 16 17 17 16 18 11 19 13 21
REMARK H PARENT 11 20 13 22
ROOT
ATOM      1  C   UNL     1      -3.238   1.964  -6.279  1.00  0.00     0.033 A 
ATOM      2  C   UNL     1      -3.330   2.807  -5.196  1.00  0.00     0.102 A 
ATOM      3  C   UNL     1      -3.009   0.614  -6.157  1.00  0.00     0.063 A 
ATOM      4  C   UNL     1      -3.185   2.269  -3.918  1.00  0.00     0.315 A 
ATOM      5  C   UNL     1      -2.863   0.076  -4.878  1.00  0.00     0.165 A 
ATOM      6  C   UNL     1      -2.951   0.903  -3.758  1.00  0.00     0.237 A 
ENDROOT
BRANCH   1   7
ATOM      7  C   UNL     1      -3.393   2.540  -7.649  1.00  0.00     0.193 C 
ATOM      8  O   UNL     1      -2.356   2.804  -8.276  1.00  0.00    -0.289 OA
BRANCH   7   9
ATOM      9  C   UNL     1      -4.695   2.790  -8.246  1.00  0.00     0.023 A 
ATOM     10  C   UNL     1      -5.775   3.151  -7.440  1.00  0.00     0.012 A 
ATOM     11  C   UNL     1      -4.864   2.671  -9.625  1.00  0.00     0.012 A 
ATOM     12  C   UNL     1      -7.024   3.391  -8.013  1.00  0.00     0.004 A 
ATOM     13  C   UNL     1      -6.113   2.912 -10.200  1.00  0.00     0.004 A 
ATOM     14  C   UNL     1      -7.193   3.272  -9.393  1.00  0.00    -0.051 A 
ATOM     15  C   UNL     1      -8.528   3.528 -10.005  1.00  0.00     0.044 C 
ENDBRANCH   7   9
ENDBRANCH   1   7
BRANCH   4  16
ATOM     16  N   UNL     1      -3.277   3.128  -2.789  1.00  0.00     0.066 N 
ATOM     17  O   UNL     1      -4.341   3.765  -2.597  1.00  0.00    -0.258 OA
ATOM     18  O   UNL     1      -2.294   3.224  -2.018  1.00  0.00    -0.258 OA
ENDBRANCH   4  16
BRANCH   5  19
ATOM     19  O   UNL     1      -2.635  -1.261  -4.737  1.00  0.00    -0.504 OA
ATOM     20  H   UNL     1      -1.834  -1.508  -5.227  1.00  0.00     0.293 HD
ENDBRANCH   5  19
BRANCH   6  21
ATOM     21  O   UNL     1      -2.807   0.365  -2.512  1.00  0.00    -0.500 OA
ATOM     22  H   UNL     1      -3.513  -0.280  -2.352  1.00  0.00     0.294 HD
ENDBRANCH   6  21
TORSDOF 5
ENDMDL
MODEL 4
REMARK VINA RESULT:    -4.636      2.345      4.027
REMARK INTER + INTRA:          -6.461
REMARK INTER:                  -5.454
REMARK INTRA:                  -1.007
REMARK UNBOUND:                -0.741
REMARK SMILES Cc1ccc(C(=O)c2cc(O)c(O)c([N+](=O)[O-])c2)cc1
REMARK SMILES IDX 8 1 18 2 9 3 14 4 10 5 12 6 6 7 7 8 5 9 4 10 19 11 3 12
REMARK SMILES IDX 20 13 2 14 1 15 15 16 17 17 16 18 11 19 13 21
REMARK H PARENT 11 20 13 22
ROOT
ATOM      1  C   UNL     1      -6.985   3.939  -7.342  1.00  0.00     0.033 A 
ATOM      2  C   UNL     1      -5.799   3.327  -7.012  1.00  0.00     0.102 A 
ATOM      3  C   UNL     1      -7.986   4.169  -6.429  1.00  0.00     0.063 A 
ATOM      4  C   UNL     1      -5.602   2.922  -5.692  1.00  0.00     0.315 A 
ATOM      5  C   UNL     1      -7.790   3.763  -5.108  1.00  0.00     0.165 A 
ATOM      6  C   UNL     1      -6.597   3.140  -4.740  1.00  0.00     0.237 A 
ENDROOT
BRANCH   1   7
ATOM      7  C   UNL     1      -7.196   4.373  -8.757  1.00  0.00     0.193 C 
ATOM      8  O   UNL     1      -7.431   3.488  -9.594  1.00  0.00    -0.289 OA
BRANCH   7   9
ATOM      9  C   UNL     1      -7.135   5.768  -9.162  1.00  0.00     0.023 A 
ATOM     10  C   UNL     1      -6.003   6.529  -8.872  1.00  0.00     0.012 A 
ATOM     11  C   UNL     1      -8.208   6.345  -9.841  1.00  0.00     0.012 A 
ATOM     12  C   UNL     1      -5.944   7.867  -9.261  1.00  0.00     0.004 A 
ATOM     13  C   UNL     1      -8.150   7.684 -10.230  1.00  0.00     0.004 A 
ATOM     14  C   UNL     1      -7.017   8.445  -9.940  1.00  0.00    -0.051 A 
ATOM     15  C   UNL     1      -6.955   9.876 -10.355  1.00  0.00     0.044 C 
ENDBRANCH   7   9
ENDBRANCH   1   7
BRANCH   4  16
ATOM     16  N   UNL     1      -4.380   2.288  -5.336  1.00  0.00     0.066 N 
ATOM     17  O   UNL     1      -3.318   2.664  -5.889  1.00  0.00    -0.258 OA
ATOM     18  O   UNL     1      -4.399   1.373  -4.479  1.00  0.00    -0.258 OA
ENDBRANCH   4  16
BRANCH   5  19
ATOM     19  O   UNL     1      -8.771   3.983  -4.188  1.00  0.00    -0.504 OA
ATOM     20  H   UNL     1      -8.370   4.194  -3.329  1.00  0.00     0.293 HD
ENDBRANCH   5  19
BRANCH   6  21
ATOM     21  O   UNL     1      -6.416   2.749  -3.445  1.00  0.00    -0.500 OA
ATOM     22  H   UNL     1      -5.485   2.861  -3.197  1.00  0.00     0.294 HD
ENDBRANCH   6  21
TORSDOF 5
ENDMDL
MODEL 5
REMARK VINA RESULT:    -4.629      1.641      3.133
REMARK INTER + INTRA:          -6.452
REMARK INTER:                  -5.805
REMARK INTRA:                  -0.648
REMARK UNBOUND:                -0.741
REMARK SMILES Cc1ccc(C(=O)c2cc(O)c(O)c([N+](=O)[O-])c2)cc1
REMARK SMILES IDX 8 1 18 2 9 3 14 4 10 5 12 6 6 7 7 8 5 9 4 10 19 11 3 12
REMARK SMILES IDX 20 13 2 14 1 15 15 16 17 17 16 18 11 19 13 21
REMARK H PARENT 11 20 13 22
ROOT
ATOM      1  C   UNL     1      -5.169   2.168  -4.575  1.00  0.00     0.033 A 
ATOM      2  C   UNL     1      -4.666   1.024  -5.151  1.00  0.00     0.102 A 
ATOM      3  C   UNL     1      -4.494   2.875  -3.609  1.00  0.00     0.063 A 
ATOM      4  C   UNL     1      -3.417   0.562  -4.736  1.00  0.00     0.315 A 
ATOM      5  C   UNL     1      -3.245   2.413  -3.193  1.00  0.00     0.165 A 
ATOM      6  C   UNL     1      -2.706   1.256  -3.757  1.00  0.00     0.237 A 
ENDROOT
BRANCH   1   7
ATOM      7  C   UNL     1      -6.507   2.663  -5.019  1.00  0.00     0.193 C 
ATOM      8  O   UNL     1      -7.484   2.369  -4.315  1.00  0.00    -0.289 OA
BRANCH   7   9
ATOM      9  C   UNL     1      -6.683   3.459  -6.223  1.00  0.00     0.023 A 
ATOM     10  C   UNL     1      -7.664   4.450  -6.266  1.00  0.00     0.012 A 
ATOM     11  C   UNL     1      -5.872   3.231  -7.335  1.00  0.00     0.012 A 
ATOM     12  C   UNL     1      -7.832   5.213  -7.421  1.00  0.00     0.004 A 
ATOM     13  C   UNL     1      -6.041   3.995  -8.491  1.00  0.00     0.004 A 
ATOM     14  C   UNL     1      -7.021   4.986  -8.534  1.00  0.00    -0.051 A 
ATOM     15  C   UNL     1      -7.203   5.802  -9.768  1.00  0.00     0.044 C 
ENDBRANCH   7   9
ENDBRANCH   1   7
BRANCH   4  16
ATOM     16  N   UNL     1      -2.884  -0.619  -5.322  1.00  0.00     0.066 N 
ATOM     17  O   UNL     1      -2.709  -0.654  -6.564  1.00  0.00    -0.258 OA
ATOM     18  O   UNL     1      -2.605  -1.590  -4.581  1.00  0.00    -0.258 OA
ENDBRANCH   4  16
BRANCH   5  19
ATOM     19  O   UNL     1      -2.562   3.101  -2.236  1.00  0.00    -0.504 OA
ATOM     20  H   UNL     1      -1.608   2.957  -2.350  1.00  0.00     0.293 HD
ENDBRANCH   5  19
BRANCH   6  21
ATOM     21  O   UNL     1      -1.483   0.814  -3.343  1.00  0.00    -0.500 OA
ATOM     22  H   UNL     1      -1.590   0.232  -2.575  1.00  0.00     0.294 HD
ENDBRANCH   6  21
TORSDOF 5
ENDMDL
MODEL 6
REMARK VINA RESULT:    -4.629      3.546      7.132
REMARK INTER + INTRA:          -6.452
REMARK INTER:                  -5.541
REMARK INTRA:                  -0.911
REMARK UNBOUND:                -0.741
REMARK SMILES Cc1ccc(C(=O)c2cc(O)c(O)c([N+](=O)[O-])c2)cc1
REMARK SMILES IDX 8 1 18 2 9 3 14 4 10 5 12 6 6 7 7 8 5 9 4 10 19 11 3 12
REMARK SMILES IDX 20 13 2 14 1 15 15 16 17 17 16 18 11 19 13 21
REMARK H PARENT 11 20 13 22
ROOT
ATOM      1  C   UNL     1      -6.896   4.019  -7.455  1.00  0.00     0.033 A 
ATOM      2  C   UNL     1      -7.420   3.277  -8.488  1.00  0.00     0.102 A 
ATOM      3  C   UNL     1      -6.798   5.390  -7.496  1.00  0.00     0.063 A 
ATOM      4  C   UNL     1      -7.875   3.945  -9.625  1.00  0.00     0.315 A 
ATOM      5  C   UNL     1      -7.251   6.058  -8.634  1.00  0.00     0.165 A 
ATOM      6  C   UNL     1      -7.790   5.335  -9.699  1.00  0.00     0.237 A 
ENDROOT
BRANCH   1   7
ATOM      7  C   UNL     1      -6.409   3.305  -6.237  1.00  0.00     0.193 C 
ATOM      8  O   UNL     1      -6.932   3.606  -5.153  1.00  0.00    -0.289 OA
BRANCH   7   9
ATOM      9  C   UNL     1      -5.367   2.292  -6.291  1.00  0.00     0.023 A 
ATOM     10  C   UNL     1      -5.476   1.136  -5.518  1.00  0.00     0.012 A 
ATOM     11  C   UNL     1      -4.258   2.477  -7.116  1.00  0.00     0.012 A 
ATOM     12  C   UNL     1      -4.476   0.165  -5.570  1.00  0.00     0.004 A 
ATOM     13  C   UNL     1      -3.257   1.505  -7.169  1.00  0.00     0.004 A 
ATOM     14  C   UNL     1      -3.366   0.349  -6.396  1.00  0.00    -0.051 A 
ATOM     15  C   UNL     1      -2.297  -0.688  -6.450  1.00  0.00     0.044 C 
ENDBRANCH   7   9
ENDBRANCH   1   7
BRANCH   4  16
ATOM     16  N   UNL     1      -8.420   3.191 -10.700  1.00  0.00     0.066 N 
ATOM     17  O   UNL     1      -7.993   2.029 -10.905  1.00  0.00    -0.258 OA
ATOM     18  O   UNL     1      -9.312   3.709 -11.412  1.00  0.00    -0.258 OA
ENDBRANCH   4  16
BRANCH   5  19
ATOM     19  O   UNL     1      -7.163   7.416  -8.691  1.00  0.00    -0.504 OA
ATOM     20  H   UNL     1      -8.000   7.810  -8.393  1.00  0.00     0.293 HD
ENDBRANCH   5  19
BRANCH   6  21
ATOM     21  O   UNL     1      -8.231   5.999 -10.806  1.00  0.00    -0.500 OA
ATOM     22  H   UNL     1      -8.365   6.936 -10.592  1.00  0.00     0.294 HD
ENDBRANCH   6  21
TORSDOF 5
ENDMDL
MODEL 7
REMARK VINA RESULT:    -4.625      3.589      4.494
REMARK INTER + INTRA:          -6.447
REMARK INTER:                  -5.475
REMARK INTRA:                  -0.972
REMARK UNBOUND:                -0.741
REMARK SMILES Cc1ccc(C(=O)c2cc(O)c(O)c([N+](=O)[O-])c2)cc1
REMARK SMILES IDX 8 1 18 2 9 3 14 4 10 5 12 6 6 7 7 8 5 9 4 10 19 11 3 12
REMARK SMILES IDX 20 13 2 14 1 15 15 16 17 17 16 18 11 19 13 21
REMARK H PARENT 11 20 13 22
ROOT
ATOM      1  C   UNL     1      -5.797   3.299  -8.817  1.00  0.00     0.033 A 
ATOM      2  C   UNL     1      -5.679   2.981  -7.484  1.00  0.00     0.102 A 
ATOM      3  C   UNL     1      -4.800   3.059  -9.733  1.00  0.00     0.063 A 
ATOM      4  C   UNL     1      -4.496   2.387  -7.042  1.00  0.00     0.315 A 
ATOM      5  C   UNL     1      -3.617   2.466  -9.291  1.00  0.00     0.165 A 
ATOM      6  C   UNL     1      -3.465   2.129  -7.945  1.00  0.00     0.237 A 
ENDROOT
BRANCH   1   7
ATOM      7  C   UNL     1      -7.063   3.935  -9.290  1.00  0.00     0.193 C 
ATOM      8  O   UNL     1      -7.210   5.146  -9.065  1.00  0.00    -0.289 OA
BRANCH   7   9
ATOM      9  C   UNL     1      -8.096   3.189  -9.989  1.00  0.00     0.023 A 
ATOM     10  C   UNL     1      -8.584   3.650 -11.212  1.00  0.00     0.012 A 
ATOM     11  C   UNL     1      -8.600   2.011  -9.438  1.00  0.00     0.012 A 
ATOM     12  C   UNL     1      -9.575   2.934 -11.883  1.00  0.00     0.004 A 
ATOM     13  C   UNL     1      -9.592   1.293 -10.109  1.00  0.00     0.004 A 
ATOM     14  C   UNL     1     -10.079   1.755 -11.331  1.00  0.00    -0.051 A 
ATOM     15  C   UNL     1     -11.140   0.990 -12.048  1.00  0.00     0.044 C 
ENDBRANCH   7   9
ENDBRANCH   1   7
BRANCH   4  16
ATOM     16  N   UNL     1      -4.360   2.052  -5.667  1.00  0.00     0.066 N 
ATOM     17  O   UNL     1      -5.351   1.585  -5.056  1.00  0.00    -0.258 OA
ATOM     18  O   UNL     1      -3.253   2.232  -5.107  1.00  0.00    -0.258 OA
ENDBRANCH   4  16
BRANCH   5  19
ATOM     19  O   UNL     1      -2.618   2.219 -10.185  1.00  0.00    -0.504 OA
ATOM     20  H   UNL     1      -2.920   1.567 -10.838  1.00  0.00     0.293 HD
ENDBRANCH   5  19
BRANCH   6  21
ATOM     21  O   UNL     1      -2.304   1.549  -7.525  1.00  0.00    -0.500 OA
ATOM     22  H   UNL     1      -2.498   0.698  -7.103  1.00  0.00     0.294 HD
ENDBRANCH   6  21
TORSDOF 5
ENDMDL
MODEL 8
REMARK VINA RESULT:    -4.594      3.651      6.520
REMARK INTER + INTRA:          -6.409
REMARK INTER:                  -5.448
REMARK INTRA:                  -0.962
REMARK UNBOUND:                -0.741
REMARK SMILES Cc1ccc(C(=O)c2cc(O)c(O)c([N+](=O)[O-])c2)cc1
REMARK SMILES IDX 8 1 18 2 9 3 14 4 10 5 12 6 6 7 7 8 5 9 4 10 19 11 3 12
REMARK SMILES IDX 20 13 2 14 1 15 15 16 17 17 16 18 11 19 13 21
REMARK H PARENT 11 20 13 22
ROOT
ATOM      1  C   UNL     1      -5.978   3.382  -8.727  1.00  0.00     0.033 A 
ATOM      2  C   UNL     1      -6.182   4.741  -8.666  1.00  0.00     0.102 A 
ATOM      3  C   UNL     1      -6.766   2.542  -9.478  1.00  0.00     0.063 A 
ATOM      4  C   UNL     1      -7.233   5.291  -9.399  1.00  0.00     0.315 A 
ATOM      5  C   UNL     1      -7.818   3.092 -10.210  1.00  0.00     0.165 A 
ATOM      6  C   UNL     1      -8.052   4.468 -10.172  1.00  0.00     0.237 A 
ENDROOT
BRANCH   1   7
ATOM      7  C   UNL     1      -4.852   2.792  -7.942  1.00  0.00     0.193 C 
ATOM      8  O   UNL     1      -4.016   2.120  -8.564  1.00  0.00    -0.289 OA
BRANCH   7   9
ATOM      9  C   UNL     1      -4.718   2.983  -6.507  1.00  0.00     0.023 A 
ATOM     10  C   UNL     1      -3.493   3.375  -5.967  1.00  0.00     0.012 A 
ATOM     11  C   UNL     1      -5.815   2.775  -5.670  1.00  0.00     0.012 A 
ATOM     12  C   UNL     1      -3.365   3.559  -4.590  1.00  0.00     0.004 A 
ATOM     13  C   UNL     1      -5.687   2.959  -4.293  1.00  0.00     0.004 A 
ATOM     14  C   UNL     1      -4.462   3.351  -3.752  1.00  0.00    -0.051 A 
ATOM     15  C   UNL     1      -4.324   3.546  -2.281  1.00  0.00     0.044 C 
ENDBRANCH   7   9
ENDBRANCH   1   7
BRANCH   4  16
ATOM     16  N   UNL     1      -7.455   6.695  -9.347  1.00  0.00     0.066 N 
ATOM     17  O   UNL     1      -7.940   7.270 -10.352  1.00  0.00    -0.258 OA
ATOM     18  O   UNL     1      -7.162   7.316  -8.299  1.00  0.00    -0.258 OA
ENDBRANCH   4  16
BRANCH   5  19
ATOM     19  O   UNL     1      -8.610   2.275 -10.961  1.00  0.00    -0.504 OA
ATOM     20  H   UNL     1      -9.211   1.781 -10.380  1.00  0.00     0.293 HD
ENDBRANCH   5  19
BRANCH   6  21
ATOM     21  O   UNL     1      -9.083   4.994 -10.893  1.00  0.00    -0.500 OA
ATOM     22  H   UNL     1      -8.862   5.898 -11.167  1.00  0.00     0.294 HD
ENDBRANCH   6  21
TORSDOF 5
ENDMDL
MODEL 9
REMARK VINA RESULT:    -4.498      3.783      6.959
REMARK INTER + INTRA:          -6.290
REMARK INTER:                  -5.323
REMARK INTRA:                  -0.967
REMARK UNBOUND:                -0.741
REMARK SMILES Cc1ccc(C(=O)c2cc(O)c(O)c([N+](=O)[O-])c2)cc1
REMARK SMILES IDX 8 1 18 2 9 3 14 4 10 5 12 6 6 7 7 8 5 9 4 10 19 11 3 12
REMARK SMILES IDX 20 13 2 14 1 15 15 16 17 17 16 18 11 19 13 21
REMARK H PARENT 11 20 13 22
ROOT
ATOM      1  C   UNL     1      -5.960   3.368  -8.704  1.00  0.00     0.033 A 
ATOM      2  C   UNL     1      -6.776   2.518  -9.415  1.00  0.00     0.102 A 
ATOM      3  C   UNL     1      -6.139   4.731  -8.684  1.00  0.00     0.063 A 
ATOM      4  C   UNL     1      -7.830   3.063 -10.147  1.00  0.00     0.315 A 
ATOM      5  C   UNL     1      -7.193   5.276  -9.417  1.00  0.00     0.165 A 
ATOM      6  C   UNL     1      -8.040   4.442 -10.149  1.00  0.00     0.237 A 
ENDROOT
BRANCH   1   7
ATOM      7  C   UNL     1      -4.831   2.784  -7.920  1.00  0.00     0.193 C 
ATOM      8  O   UNL     1      -3.991   2.116  -8.542  1.00  0.00    -0.289 OA
BRANCH   7   9
ATOM      9  C   UNL     1      -4.697   2.976  -6.484  1.00  0.00     0.023 A 
ATOM     10  C   UNL     1      -3.469   3.358  -5.943  1.00  0.00     0.012 A 
ATOM     11  C   UNL     1      -5.796   2.779  -5.649  1.00  0.00     0.012 A 
ATOM     12  C   UNL     1      -3.341   3.542  -4.567  1.00  0.00     0.004 A 
ATOM     13  C   UNL     1      -5.668   2.963  -4.271  1.00  0.00     0.004 A 
ATOM     14  C   UNL     1      -4.440   3.345  -3.730  1.00  0.00    -0.051 A 
ATOM     15  C   UNL     1      -4.302   3.541  -2.259  1.00  0.00     0.044 C 
ENDBRANCH   7   9
ENDBRANCH   1   7
BRANCH   4  16
ATOM     16  N   UNL     1      -8.682   2.198 -10.887  1.00  0.00     0.066 N 
ATOM     17  O   UNL     1      -8.965   1.073 -10.409  1.00  0.00    -0.258 OA
ATOM     18  O   UNL     1      -9.125   2.584 -11.994  1.00  0.00    -0.258 OA
ENDBRANCH   4  16
BRANCH   5  19
ATOM     19  O   UNL     1      -7.386   6.625  -9.409  1.00  0.00    -0.504 OA
ATOM     20  H   UNL     1      -8.321   6.819  -9.233  1.00  0.00     0.293 HD
ENDBRANCH   5  19
BRANCH   6  21
ATOM     21  O   UNL     1      -9.068   4.987 -10.861  1.00  0.00    -0.500 OA
ATOM     22  H   UNL     1      -8.894   4.890 -11.810  1.00  0.00     0.294 HD
ENDBRANCH   6  21
TORSDOF 5
ENDMDL
