MODEL 1
REMARK VINA RESULT:    -6.888      0.000      0.000
REMARK INTER + INTRA:          -8.662
REMARK INTER:                  -8.096
REMARK INTRA:                  -0.567
REMARK UNBOUND:                -0.567
REMARK SMILES O=C(O)c1cc(-c2ccc(F)cc2F)ccc1O
REMARK SMILES IDX 6 1 5 2 15 3 4 4 17 5 16 6 7 7 13 8 12 9 8 10 10 11 9 12
REMARK SMILES IDX 14 13 11 14 2 15 1 16 3 17 18 19
REMARK H PARENT 3 18 18 20
ROOT
ATOM      1  C   UNL     1      -4.662   2.349  -5.948  1.00  0.00    -0.014 A 
ATOM      2  C   UNL     1      -4.517   2.995  -4.721  1.00  0.00     0.028 A 
ATOM      3  C   UNL     1      -4.006   1.140  -6.181  1.00  0.00     0.013 A 
ATOM      4  C   UNL     1      -3.717   2.433  -3.726  1.00  0.00     0.102 A 
ATOM      5  C   UNL     1      -3.062   1.224  -3.959  1.00  0.00     0.130 A 
ATOM      6  C   UNL     1      -3.206   0.577  -5.187  1.00  0.00     0.048 A 
ENDROOT
BRANCH   1   7
ATOM      7  C   UNL     1      -5.490   2.932  -6.981  1.00  0.00     0.018 A 
ATOM      8  C   UNL     1      -6.745   3.453  -6.662  1.00  0.00     0.133 A 
ATOM      9  C   UNL     1      -7.540   4.014  -7.661  1.00  0.00     0.079 A 
ATOM     10  C   UNL     1      -5.032   2.973  -8.297  1.00  0.00     0.015 A 
ATOM     11  C   UNL     1      -7.083   4.055  -8.977  1.00  0.00     0.126 A 
ATOM     12  C   UNL     1      -5.828   3.535  -9.295  1.00  0.00     0.040 A 
ATOM     13  F   UNL     1      -7.201   3.419  -5.402  1.00  0.00    -0.206 F 
ATOM     14  F   UNL     1      -7.846   4.593  -9.937  1.00  0.00    -0.207 F 
ENDBRANCH   1   7
BRANCH   4  15
ATOM     15  C   UNL     1      -3.579   3.123  -2.451  1.00  0.00     0.339 C 
ATOM     16  O   UNL     1      -2.511   3.437  -1.921  1.00  0.00    -0.246 OA
BRANCH  15  17
ATOM     17  O   UNL     1      -4.783   3.402  -1.880  1.00  0.00    -0.478 OA
ATOM     18  H   UNL     1      -4.753   3.309  -0.904  1.00  0.00     0.297 HD
ENDBRANCH  15  17
ENDBRANCH   4  15
BRANCH   5  19
ATOM     19  O   UNL     1      -2.276   0.657  -2.999  1.00  0.00    -0.507 OA
ATOM     20  H   UNL     1      -2.278   1.227  -2.211  1.00  0.00     0.293 HD
ENDBRANCH   5  19
TORSDOF 4
ENDMDL
MODEL 2
REMARK VINA RESULT:    -6.886      1.127      1.609
REMARK INTER + INTRA:          -8.660
REMARK INTER:                  -8.097
REMARK INTRA:                  -0.564
REMARK UNBOUND:                -0.567
REMARK SMILES O=C(O)c1cc(-c2ccc(F)cc2F)ccc1O
REMARK SMILES IDX 6 1 5 2 15 3 4 4 17 5 16 6 7 7 13 8 12 9 8 10 10 11 9 12
REMARK SMILES IDX 14 13 11 14 2 15 1 16 3 17 18 19
REMARK H PARENT 3 18 18 20
ROOT
ATOM      1  C   UNL     1      -4.615   2.351  -5.967  1.00  0.00    -0.014 A 
ATOM      2  C   UNL     1      -4.485   2.995  -4.737  1.00  0.00     0.028 A 
ATOM      3  C   UNL     1      -3.956   1.143  -6.195  1.00  0.00     0.013 A 
ATOM      4  C   UNL     1      -3.696   2.432  -3.734  1.00  0.00     0.102 A 
ATOM      5  C   UNL     1      -3.036   1.224  -3.962  1.00  0.00     0.130 A 
ATOM      6  C   UNL     1      -3.166   0.580  -5.193  1.00  0.00     0.048 A 
ENDROOT
BRANCH   1   7
ATOM      7  C   UNL     1      -5.433   2.935  -7.008  1.00  0.00     0.018 A 
ATOM      8  C   UNL     1      -4.961   2.995  -8.319  1.00  0.00     0.133 A 
ATOM      9  C   UNL     1      -5.753   3.559  -9.320  1.00  0.00     0.079 A 
ATOM     10  C   UNL     1      -6.697   3.438  -6.698  1.00  0.00     0.015 A 
ATOM     11  C   UNL     1      -7.015   4.063  -9.010  1.00  0.00     0.126 A 
ATOM     12  C   UNL     1      -7.487   4.001  -7.698  1.00  0.00     0.040 A 
ATOM     13  F   UNL     1      -3.748   2.518  -8.634  1.00  0.00    -0.206 F 
ATOM     14  F   UNL     1      -7.776   4.604  -9.970  1.00  0.00    -0.207 F 
ENDBRANCH   1   7
BRANCH   4  15
ATOM     15  C   UNL     1      -3.573   3.120  -2.457  1.00  0.00     0.339 C 
ATOM     16  O   UNL     1      -2.511   3.439  -1.917  1.00  0.00    -0.246 OA
BRANCH  15  17
ATOM     17  O   UNL     1      -4.783   3.389  -1.895  1.00  0.00    -0.478 OA
ATOM     18  H   UNL     1      -5.520   3.005  -2.415  1.00  0.00     0.297 HD
ENDBRANCH  15  17
ENDBRANCH   4  15
BRANCH   5  19
ATOM     19  O   UNL     1      -2.260   0.657  -2.995  1.00  0.00    -0.507 OA
ATOM     20  H   UNL     1      -1.458   0.290  -3.407  1.00  0.00     0.293 HD
ENDBRANCH   5  19
TORSDOF 4
ENDMDL
MODEL 3
REMARK VINA RESULT:    -6.878      1.658      3.156
REMARK INTER + INTRA:          -8.650
REMARK INTER:                  -8.081
REMARK INTRA:                  -0.570
REMARK UNBOUND:                -0.567
REMARK SMILES O=C(O)c1cc(-c2ccc(F)cc2F)ccc1O
REMARK SMILES IDX 6 1 5 2 15 3 4 4 17 5 16 6 7 7 13 8 12 9 8 10 10 11 9 12
REMARK SMILES IDX 14 13 11 14 2 15 1 16 3 17 18 19
REMARK H PARENT 3 18 18 20
ROOT
ATOM      1  C   UNL     1      -4.608   2.391  -5.994  1.00  0.00    -0.014 A 
ATOM      2  C   UNL     1      -3.965   1.184  -6.263  1.00  0.00     0.028 A 
ATOM      3  C   UNL     1      -4.437   3.011  -4.756  1.00  0.00     0.013 A 
ATOM      4  C   UNL     1      -3.151   0.595  -5.295  1.00  0.00     0.102 A 
ATOM      5  C   UNL     1      -2.980   1.215  -4.057  1.00  0.00     0.130 A 
ATOM      6  C   UNL     1      -3.623   2.424  -3.788  1.00  0.00     0.048 A 
ENDROOT
BRANCH   1   7
ATOM      7  C   UNL     1      -5.453   3.002  -6.997  1.00  0.00     0.018 A 
ATOM      8  C   UNL     1      -5.025   3.075  -8.324  1.00  0.00     0.133 A 
ATOM      9  C   UNL     1      -5.843   3.665  -9.288  1.00  0.00     0.079 A 
ATOM     10  C   UNL     1      -6.698   3.517  -6.636  1.00  0.00     0.015 A 
ATOM     11  C   UNL     1      -7.087   4.180  -8.926  1.00  0.00     0.126 A 
ATOM     12  C   UNL     1      -7.515   4.106  -7.600  1.00  0.00     0.040 A 
ATOM     13  F   UNL     1      -3.830   2.587  -8.687  1.00  0.00    -0.206 F 
ATOM     14  F   UNL     1      -7.873   4.747  -9.851  1.00  0.00    -0.207 F 
ENDBRANCH   1   7
BRANCH   4  15
ATOM     15  C   UNL     1      -2.489  -0.667  -5.596  1.00  0.00     0.339 C 
ATOM     16  O   UNL     1      -2.556  -1.690  -4.910  1.00  0.00    -0.246 OA
BRANCH  15  17
ATOM     17  O   UNL     1      -1.764  -0.610  -6.747  1.00  0.00    -0.478 OA
ATOM     18  H   UNL     1      -1.373  -1.480  -6.975  1.00  0.00     0.297 HD
ENDBRANCH  15  17
ENDBRANCH   4  15
BRANCH   5  19
ATOM     19  O   UNL     1      -2.189   0.656  -3.098  1.00  0.00    -0.507 OA
ATOM     20  H   UNL     1      -1.386   0.301  -3.517  1.00  0.00     0.293 HD
ENDBRANCH   5  19
TORSDOF 4
ENDMDL
MODEL 4
REMARK VINA RESULT:    -5.417      1.254      1.583
REMARK INTER + INTRA:          -6.933
REMARK INTER:                  -6.202
REMARK INTRA:                  -0.732
REMARK UNBOUND:                -0.567
REMARK SMILES O=C(O)c1cc(-c2ccc(F)cc2F)ccc1O
REMARK SMILES IDX 6 1 5 2 15 3 4 4 17 5 16 6 7 7 13 8 12 9 8 10 10 11 9 12
REMARK SMILES IDX 14 13 11 14 2 15 1 16 3 17 18 19
REMARK H PARENT 3 18 18 20
ROOT
ATOM      1  C   UNL     1      -4.850   2.818  -6.481  1.00  0.00    -0.014 A 
ATOM      2  C   UNL     1      -4.832   3.281  -5.166  1.00  0.00     0.028 A 
ATOM      3  C   UNL     1      -4.019   1.765  -6.862  1.00  0.00     0.013 A 
ATOM      4  C   UNL     1      -3.982   2.690  -4.230  1.00  0.00     0.102 A 
ATOM      5  C   UNL     1      -3.151   1.636  -4.611  1.00  0.00     0.130 A 
ATOM      6  C   UNL     1      -3.169   1.174  -5.928  1.00  0.00     0.048 A 
ENDROOT
BRANCH   1   7
ATOM      7  C   UNL     1      -5.730   3.432  -7.453  1.00  0.00     0.018 A 
ATOM      8  C   UNL     1      -6.541   2.637  -8.264  1.00  0.00     0.133 A 
ATOM      9  C   UNL     1      -7.388   3.232  -9.199  1.00  0.00     0.079 A 
ATOM     10  C   UNL     1      -5.768   4.820  -7.576  1.00  0.00     0.015 A 
ATOM     11  C   UNL     1      -7.424   4.620  -9.323  1.00  0.00     0.126 A 
ATOM     12  C   UNL     1      -6.615   5.414  -8.511  1.00  0.00     0.040 A 
ATOM     13  F   UNL     1      -6.515   1.300  -8.160  1.00  0.00    -0.206 F 
ATOM     14  F   UNL     1      -8.237   5.193 -10.220  1.00  0.00    -0.207 F 
ENDBRANCH   1   7
BRANCH   4  15
ATOM     15  C   UNL     1      -3.978   3.187  -2.862  1.00  0.00     0.339 C 
ATOM     16  O   UNL     1      -4.980   3.485  -2.207  1.00  0.00    -0.246 OA
BRANCH  15  17
ATOM     17  O   UNL     1      -2.720   3.296  -2.353  1.00  0.00    -0.478 OA
ATOM     18  H   UNL     1      -2.541   2.611  -1.675  1.00  0.00     0.297 HD
ENDBRANCH  15  17
ENDBRANCH   4  15
BRANCH   5  19
ATOM     19  O   UNL     1      -2.314   1.045  -3.712  1.00  0.00    -0.507 OA
ATOM     20  H   UNL     1      -1.463   0.859  -4.146  1.00  0.00     0.293 HD
ENDBRANCH   5  19
TORSDOF 4
ENDMDL
MODEL 5
REMARK VINA RESULT:    -5.278      4.394      6.710
REMARK INTER + INTRA:          -6.770
REMARK INTER:                  -5.706
REMARK INTRA:                  -1.064
REMARK UNBOUND:                -0.567
REMARK SMILES O=C(O)c1cc(-c2ccc(F)cc2F)ccc1O
REMARK SMILES IDX 6 1 5 2 15 3 4 4 17 5 16 6 7 7 13 8 12 9 8 10 10 11 9 12
REMARK SMILES IDX 14 13 11 14 2 15 1 16 3 17 18 19
REMARK H PARENT 3 18 18 20
ROOT
ATOM      1  C   UNL     1      -6.275   3.535  -7.798  1.00  0.00    -0.014 A 
ATOM      2  C   UNL     1      -6.971   2.687  -8.659  1.00  0.00     0.028 A 
ATOM      3  C   UNL     1      -6.367   4.918  -7.957  1.00  0.00     0.013 A 
ATOM      4  C   UNL     1      -7.759   3.221  -9.679  1.00  0.00     0.102 A 
ATOM      5  C   UNL     1      -7.851   4.603  -9.837  1.00  0.00     0.130 A 
ATOM      6  C   UNL     1      -7.154   5.452  -8.976  1.00  0.00     0.048 A 
ENDROOT
BRANCH   1   7
ATOM      7  C   UNL     1      -5.456   2.982  -6.741  1.00  0.00     0.018 A 
ATOM      8  C   UNL     1      -5.959   2.885  -5.443  1.00  0.00     0.133 A 
ATOM      9  C   UNL     1      -5.166   2.351  -4.427  1.00  0.00     0.079 A 
ATOM     10  C   UNL     1      -4.162   2.544  -7.022  1.00  0.00     0.015 A 
ATOM     11  C   UNL     1      -3.872   1.914  -4.708  1.00  0.00     0.126 A 
ATOM     12  C   UNL     1      -3.371   2.010  -6.006  1.00  0.00     0.040 A 
ATOM     13  F   UNL     1      -7.200   3.304  -5.156  1.00  0.00    -0.206 F 
ATOM     14  F   UNL     1      -3.111   1.402  -3.733  1.00  0.00    -0.207 F 
ENDBRANCH   1   7
BRANCH   4  15
ATOM     15  C   UNL     1      -8.479   2.318 -10.566  1.00  0.00     0.339 C 
ATOM     16  O   UNL     1      -8.969   2.628 -11.655  1.00  0.00    -0.246 OA
BRANCH  15  17
ATOM     17  O   UNL     1      -8.561   1.055 -10.066  1.00  0.00    -0.478 OA
ATOM     18  H   UNL     1      -8.540   1.049  -9.086  1.00  0.00     0.297 HD
ENDBRANCH  15  17
ENDBRANCH   4  15
BRANCH   5  19
ATOM     19  O   UNL     1      -8.616   5.145 -10.827  1.00  0.00    -0.507 OA
ATOM     20  H   UNL     1      -8.880   4.442 -11.445  1.00  0.00     0.293 HD
ENDBRANCH   5  19
TORSDOF 4
ENDMDL
MODEL 6
REMARK VINA RESULT:    -5.277      4.071      6.309
REMARK INTER + INTRA:          -6.769
REMARK INTER:                  -5.703
REMARK INTRA:                  -1.066
REMARK UNBOUND:                -0.567
REMARK SMILES O=C(O)c1cc(-c2ccc(F)cc2F)ccc1O
REMARK SMILES IDX 6 1 5 2 15 3 4 4 17 5 16 6 7 7 13 8 12 9 8 10 10 11 9 12
REMARK SMILES IDX 14 13 11 14 2 15 1 16 3 17 18 19
REMARK H PARENT 3 18 18 20
ROOT
ATOM      1  C   UNL     1      -6.245   3.561  -7.807  1.00  0.00    -0.014 A 
ATOM      2  C   UNL     1      -6.310   4.948  -7.931  1.00  0.00     0.028 A 
ATOM      3  C   UNL     1      -6.967   2.748  -8.680  1.00  0.00     0.013 A 
ATOM      4  C   UNL     1      -7.098   5.523  -8.928  1.00  0.00     0.102 A 
ATOM      5  C   UNL     1      -7.820   4.710  -9.801  1.00  0.00     0.130 A 
ATOM      6  C   UNL     1      -7.755   3.322  -9.677  1.00  0.00     0.048 A 
ENDROOT
BRANCH   1   7
ATOM      7  C   UNL     1      -5.429   2.963  -6.771  1.00  0.00     0.018 A 
ATOM      8  C   UNL     1      -5.924   2.841  -5.473  1.00  0.00     0.133 A 
ATOM      9  C   UNL     1      -5.134   2.265  -4.478  1.00  0.00     0.079 A 
ATOM     10  C   UNL     1      -4.146   2.509  -7.075  1.00  0.00     0.015 A 
ATOM     11  C   UNL     1      -3.851   1.811  -4.781  1.00  0.00     0.126 A 
ATOM     12  C   UNL     1      -3.357   1.933  -6.080  1.00  0.00     0.040 A 
ATOM     13  F   UNL     1      -7.154   3.276  -5.164  1.00  0.00    -0.206 F 
ATOM     14  F   UNL     1      -3.092   1.258  -3.826  1.00  0.00    -0.207 F 
ENDBRANCH   1   7
BRANCH   4  15
ATOM     15  C   UNL     1      -7.152   6.974  -9.041  1.00  0.00     0.339 C 
ATOM     16  O   UNL     1      -7.984   7.609  -9.695  1.00  0.00    -0.246 OA
BRANCH  15  17
ATOM     17  O   UNL     1      -6.165   7.587  -8.333  1.00  0.00    -0.478 OA
ATOM     18  H   UNL     1      -6.526   8.161  -7.625  1.00  0.00     0.297 HD
ENDBRANCH  15  17
ENDBRANCH   4  15
BRANCH   5  19
ATOM     19  O   UNL     1      -8.595   5.252 -10.783  1.00  0.00    -0.507 OA
ATOM     20  H   UNL     1      -9.449   4.787 -10.806  1.00  0.00     0.293 HD
ENDBRANCH   5  19
TORSDOF 4
ENDMDL
MODEL 7
REMARK VINA RESULT:    -4.855      1.594      1.992
REMARK INTER + INTRA:          -6.273
REMARK INTER:                  -5.287
REMARK INTRA:                  -0.986
REMARK UNBOUND:                -0.567
REMARK SMILES O=C(O)c1cc(-c2ccc(F)cc2F)ccc1O
REMARK SMILES IDX 6 1 5 2 15 3 4 4 17 5 16 6 7 7 13 8 12 9 8 10 10 11 9 12
REMARK SMILES IDX 14 13 11 14 2 15 1 16 3 17 18 19
REMARK H PARENT 3 18 18 20
ROOT
ATOM      1  C   UNL     1      -5.307   3.025  -7.179  1.00  0.00    -0.014 A 
ATOM      2  C   UNL     1      -5.636   3.199  -5.836  1.00  0.00     0.028 A 
ATOM      3  C   UNL     1      -4.061   2.506  -7.531  1.00  0.00     0.013 A 
ATOM      4  C   UNL     1      -4.719   2.855  -4.842  1.00  0.00     0.102 A 
ATOM      5  C   UNL     1      -3.472   2.337  -5.193  1.00  0.00     0.130 A 
ATOM      6  C   UNL     1      -3.143   2.162  -6.538  1.00  0.00     0.048 A 
ENDROOT
BRANCH   1   7
ATOM      7  C   UNL     1      -6.257   3.383  -8.210  1.00  0.00     0.018 A 
ATOM      8  C   UNL     1      -6.553   4.725  -8.455  1.00  0.00     0.133 A 
ATOM      9  C   UNL     1      -7.470   5.065  -9.450  1.00  0.00     0.079 A 
ATOM     10  C   UNL     1      -6.877   2.384  -8.960  1.00  0.00     0.015 A 
ATOM     11  C   UNL     1      -8.090   4.066 -10.199  1.00  0.00     0.126 A 
ATOM     12  C   UNL     1      -7.793   2.725  -9.954  1.00  0.00     0.040 A 
ATOM     13  F   UNL     1      -5.968   5.697  -7.741  1.00  0.00    -0.206 F 
ATOM     14  F   UNL     1      -8.970   4.392 -11.154  1.00  0.00    -0.207 F 
ENDBRANCH   1   7
BRANCH   4  15
ATOM     15  C   UNL     1      -5.082   3.045  -3.444  1.00  0.00     0.339 C 
ATOM     16  O   UNL     1      -4.294   3.039  -2.495  1.00  0.00    -0.246 OA
BRANCH  15  17
ATOM     17  O   UNL     1      -6.419   3.236  -3.278  1.00  0.00    -0.478 OA
ATOM     18  H   UNL     1      -6.914   3.099  -4.112  1.00  0.00     0.297 HD
ENDBRANCH  15  17
ENDBRANCH   4  15
BRANCH   5  19
ATOM     19  O   UNL     1      -2.562   1.994  -4.238  1.00  0.00    -0.507 OA
ATOM     20  H   UNL     1      -2.540   1.024  -4.154  1.00  0.00     0.293 HD
ENDBRANCH   5  19
TORSDOF 4
ENDMDL
MODEL 8
REMARK VINA RESULT:    -4.100      5.837      8.089
REMARK INTER + INTRA:          -5.386
REMARK INTER:                  -4.363
REMARK INTRA:                  -1.024
REMARK UNBOUND:                -0.567
REMARK SMILES O=C(O)c1cc(-c2ccc(F)cc2F)ccc1O
REMARK SMILES IDX 6 1 5 2 15 3 4 4 17 5 16 6 7 7 13 8 12 9 8 10 10 11 9 12
REMARK SMILES IDX 14 13 11 14 2 15 1 16 3 17 18 19
REMARK H PARENT 3 18 18 20
ROOT
ATOM      1  C   UNL     1      -7.024   6.574  -9.324  1.00  0.00    -0.014 A 
ATOM      2  C   UNL     1      -8.227   6.751 -10.007  1.00  0.00     0.028 A 
ATOM      3  C   UNL     1      -6.125   7.634  -9.209  1.00  0.00     0.013 A 
ATOM      4  C   UNL     1      -8.531   7.988 -10.576  1.00  0.00     0.102 A 
ATOM      5  C   UNL     1      -7.631   9.048 -10.461  1.00  0.00     0.130 A 
ATOM      6  C   UNL     1      -6.427   8.870  -9.777  1.00  0.00     0.048 A 
ENDROOT
BRANCH   1   7
ATOM      7  C   UNL     1      -6.708   5.290  -8.734  1.00  0.00     0.018 A 
ATOM      8  C   UNL     1      -7.209   4.955  -7.476  1.00  0.00     0.133 A 
ATOM      9  C   UNL     1      -6.902   3.717  -6.911  1.00  0.00     0.079 A 
ATOM     10  C   UNL     1      -5.901   4.388  -9.427  1.00  0.00     0.015 A 
ATOM     11  C   UNL     1      -6.094   2.815  -7.604  1.00  0.00     0.126 A 
ATOM     12  C   UNL     1      -5.594   3.151  -8.862  1.00  0.00     0.040 A 
ATOM     13  F   UNL     1      -7.984   5.812  -6.796  1.00  0.00    -0.206 F 
ATOM     14  F   UNL     1      -5.798   1.627  -7.062  1.00  0.00    -0.207 F 
ENDBRANCH   1   7
BRANCH   4  15
ATOM     15  C   UNL     1      -9.792   8.152 -11.285  1.00  0.00     0.339 C 
ATOM     16  O   UNL     1      -9.941   8.770 -12.342  1.00  0.00    -0.246 OA
BRANCH  15  17
ATOM     17  O   UNL     1     -10.827   7.539 -10.650  1.00  0.00    -0.478 OA
ATOM     18  H   UNL     1     -10.699   7.518  -9.678  1.00  0.00     0.297 HD
ENDBRANCH  15  17
ENDBRANCH   4  15
BRANCH   5  19
ATOM     19  O   UNL     1      -7.909  10.264 -11.010  1.00  0.00    -0.507 OA
ATOM     20  H   UNL     1      -8.874  10.380 -11.051  1.00  0.00     0.293 HD
ENDBRANCH   5  19
TORSDOF 4
ENDMDL
MODEL 9
REMARK VINA RESULT:    -3.941      9.063     11.786
REMARK INTER + INTRA:          -5.199
REMARK INTER:                  -4.128
REMARK INTRA:                  -1.072
REMARK UNBOUND:                -0.567
REMARK SMILES O=C(O)c1cc(-c2ccc(F)cc2F)ccc1O
REMARK SMILES IDX 6 1 5 2 15 3 4 4 17 5 16 6 7 7 13 8 12 9 8 10 10 11 9 12
REMARK SMILES IDX 14 13 11 14 2 15 1 16 3 17 18 19
REMARK H PARENT 3 18 18 20
ROOT
ATOM      1  C   UNL     1      -7.849  10.192 -11.993  1.00  0.00    -0.014 A 
ATOM      2  C   UNL     1      -7.917   9.783 -13.324  1.00  0.00     0.028 A 
ATOM      3  C   UNL     1      -8.151  11.511 -11.652  1.00  0.00     0.013 A 
ATOM      4  C   UNL     1      -8.286  10.692 -14.316  1.00  0.00     0.102 A 
ATOM      5  C   UNL     1      -8.587  12.011 -13.975  1.00  0.00     0.130 A 
ATOM      6  C   UNL     1      -8.520  12.420 -12.643  1.00  0.00     0.048 A 
ENDROOT
BRANCH   1   7
ATOM      7  C   UNL     1      -7.466   9.250 -10.963  1.00  0.00     0.018 A 
ATOM      8  C   UNL     1      -6.143   9.196 -10.521  1.00  0.00     0.133 A 
ATOM      9  C   UNL     1      -5.777   8.286  -9.529  1.00  0.00     0.079 A 
ATOM     10  C   UNL     1      -8.421   8.396 -10.413  1.00  0.00     0.015 A 
ATOM     11  C   UNL     1      -6.732   7.432  -8.979  1.00  0.00     0.126 A 
ATOM     12  C   UNL     1      -8.054   7.487  -9.421  1.00  0.00     0.040 A 
ATOM     13  F   UNL     1      -5.212  10.008 -11.042  1.00  0.00    -0.206 F 
ATOM     14  F   UNL     1      -6.382   6.558  -8.027  1.00  0.00    -0.207 F 
ENDBRANCH   1   7
BRANCH   4  15
ATOM     15  C   UNL     1      -8.350  10.245 -15.700  1.00  0.00     0.339 C 
ATOM     16  O   UNL     1      -8.756  10.919 -16.650  1.00  0.00    -0.246 OA
BRANCH  15  17
ATOM     17  O   UNL     1      -7.904   8.968 -15.854  1.00  0.00    -0.478 OA
ATOM     18  H   UNL     1      -7.027   8.939 -16.290  1.00  0.00     0.297 HD
ENDBRANCH  15  17
ENDBRANCH   4  15
BRANCH   5  19
ATOM     19  O   UNL     1      -8.951  12.914 -14.929  1.00  0.00    -0.507 OA
ATOM     20  H   UNL     1      -8.150  13.253 -15.366  1.00  0.00     0.293 HD
ENDBRANCH   5  19
TORSDOF 4
ENDMDL
