MODEL 1
REMARK VINA RESULT:    -5.325      0.000      0.000
REMARK INTER + INTRA:          -7.282
REMARK INTER:                  -6.570
REMARK INTRA:                  -0.712
REMARK UNBOUND:                -0.712
REMARK SMILES Cc1ccc(C(=O)c2cc(O)c(O)c([N+](=O)[O-])c2)cc1
REMARK SMILES IDX 8 1 18 2 9 3 14 4 10 5 12 6 6 7 7 8 5 9 4 10 19 11 3 12
REMARK SMILES IDX 20 13 2 14 1 15 15 16 17 17 16 18 11 19 13 21
REMARK H PARENT 11 20 13 22
ROOT
ATOM      1  C   UNL     1      -4.617  -3.783   2.907  1.00  0.00     0.033 A 
ATOM      2  C   UNL     1      -4.523  -2.450   2.582  1.00  0.00     0.102 A 
ATOM      3  C   UNL     1      -3.652  -4.703   2.573  1.00  0.00     0.063 A 
ATOM      4  C   UNL     1      -3.398  -2.012   1.883  1.00  0.00     0.315 A 
ATOM      5  C   UNL     1      -2.527  -4.265   1.873  1.00  0.00     0.165 A 
ATOM      6  C   UNL     1      -2.399  -2.919   1.529  1.00  0.00     0.237 A 
ENDROOT
BRANCH   1   7
ATOM      7  C   UNL     1      -5.822  -4.253   3.655  1.00  0.00     0.193 C 
ATOM      8  O   UNL     1      -5.671  -5.200   4.441  1.00  0.00    -0.289 OA
BRANCH   7   9
ATOM      9  C   UNL     1      -7.131  -3.641   3.488  1.00  0.00     0.023 A 
ATOM     10  C   UNL     1      -8.080  -4.239   2.660  1.00  0.00     0.012 A 
ATOM     11  C   UNL     1      -7.437  -2.456   4.157  1.00  0.00     0.012 A 
ATOM     12  C   UNL     1      -9.335  -3.652   2.500  1.00  0.00     0.004 A 
ATOM     13  C   UNL     1      -8.693  -1.868   3.998  1.00  0.00     0.004 A 
ATOM     14  C   UNL     1      -9.642  -2.467   3.169  1.00  0.00    -0.051 A 
ATOM     15  C   UNL     1     -10.983  -1.839   2.997  1.00  0.00     0.044 C 
ENDBRANCH   7   9
ENDBRANCH   1   7
BRANCH   4  16
ATOM     16  N   UNL     1      -3.286  -0.637   1.540  1.00  0.00     0.066 N 
ATOM     17  O   UNL     1      -3.810   0.220   2.292  1.00  0.00    -0.258 OA
ATOM     18  O   UNL     1      -2.666  -0.320   0.498  1.00  0.00    -0.258 OA
ENDBRANCH   4  16
BRANCH   5  19
ATOM     19  O   UNL     1      -1.559  -5.163   1.534  1.00  0.00    -0.504 OA
ATOM     20  H   UNL     1      -0.810  -5.080   2.147  1.00  0.00     0.293 HD
ENDBRANCH   5  19
BRANCH   6  21
ATOM     21  O   UNL     1      -1.294  -2.503   0.845  1.00  0.00    -0.500 OA
ATOM     22  H   UNL     1      -0.592  -3.167   0.925  1.00  0.00     0.294 HD
ENDBRANCH   6  21
TORSDOF 5
ENDMDL
MODEL 2
REMARK VINA RESULT:    -5.302      2.009      3.546
REMARK INTER + INTRA:          -7.255
REMARK INTER:                  -6.524
REMARK INTRA:                  -0.730
REMARK UNBOUND:                -0.712
REMARK SMILES Cc1ccc(C(=O)c2cc(O)c(O)c([N+](=O)[O-])c2)cc1
REMARK SMILES IDX 8 1 18 2 9 3 14 4 10 5 12 6 6 7 7 8 5 9 4 10 19 11 3 12
REMARK SMILES IDX 20 13 2 14 1 15 15 16 17 17 16 18 11 19 13 21
REMARK H PARENT 11 20 13 22
ROOT
ATOM      1  C   UNL     1      -5.291  -2.556   1.704  1.00  0.00     0.033 A 
ATOM      2  C   UNL     1      -4.667  -3.783   1.681  1.00  0.00     0.102 A 
ATOM      3  C   UNL     1      -4.624  -1.376   1.478  1.00  0.00     0.063 A 
ATOM      4  C   UNL     1      -3.299  -3.830   1.415  1.00  0.00     0.315 A 
ATOM      5  C   UNL     1      -3.255  -1.423   1.213  1.00  0.00     0.165 A 
ATOM      6  C   UNL     1      -2.592  -2.651   1.181  1.00  0.00     0.237 A 
ENDROOT
BRANCH   1   7
ATOM      7  C   UNL     1      -6.756  -2.505   1.989  1.00  0.00     0.193 C 
ATOM      8  O   UNL     1      -7.425  -1.655   1.381  1.00  0.00    -0.289 OA
BRANCH   7   9
ATOM      9  C   UNL     1      -7.399  -3.404   2.934  1.00  0.00     0.023 A 
ATOM     10  C   UNL     1      -7.652  -2.979   4.239  1.00  0.00     0.012 A 
ATOM     11  C   UNL     1      -7.763  -4.690   2.537  1.00  0.00     0.012 A 
ATOM     12  C   UNL     1      -8.268  -3.841   5.145  1.00  0.00     0.004 A 
ATOM     13  C   UNL     1      -8.380  -5.553   3.444  1.00  0.00     0.004 A 
ATOM     14  C   UNL     1      -8.633  -5.129   4.748  1.00  0.00    -0.051 A 
ATOM     15  C   UNL     1      -9.290  -6.050   5.718  1.00  0.00     0.044 C 
ENDBRANCH   7   9
ENDBRANCH   1   7
BRANCH   4  16
ATOM     16  N   UNL     1      -2.641  -5.090   1.387  1.00  0.00     0.066 N 
ATOM     17  O   UNL     1      -3.234  -6.073   0.879  1.00  0.00    -0.258 OA
ATOM     18  O   UNL     1      -1.488  -5.183   1.869  1.00  0.00    -0.258 OA
ENDBRANCH   4  16
BRANCH   5  19
ATOM     19  O   UNL     1      -2.577  -0.263   0.986  1.00  0.00    -0.504 OA
ATOM     20  H   UNL     1      -1.668  -0.466   0.711  1.00  0.00     0.293 HD
ENDBRANCH   5  19
BRANCH   6  21
ATOM     21  O   UNL     1      -1.253  -2.684   0.920  1.00  0.00    -0.500 OA
ATOM     22  H   UNL     1      -0.757  -2.573   1.746  1.00  0.00     0.294 HD
ENDBRANCH   6  21
TORSDOF 5
ENDMDL
MODEL 3
REMARK VINA RESULT:    -4.793      1.642      3.132
REMARK INTER + INTRA:          -6.626
REMARK INTER:                  -5.983
REMARK INTRA:                  -0.643
REMARK UNBOUND:                -0.712
REMARK SMILES Cc1ccc(C(=O)c2cc(O)c(O)c([N+](=O)[O-])c2)cc1
REMARK SMILES IDX 8 1 18 2 9 3 14 4 10 5 12 6 6 7 7 8 5 9 4 10 19 11 3 12
REMARK SMILES IDX 20 13 2 14 1 15 15 16 17 17 16 18 11 19 13 21
REMARK H PARENT 11 20 13 22
ROOT
ATOM      1  C   UNL     1      -4.178  -2.233   3.068  1.00  0.00     0.033 A 
ATOM      2  C   UNL     1      -3.662  -3.497   2.906  1.00  0.00     0.102 A 
ATOM      3  C   UNL     1      -3.793  -1.164   2.294  1.00  0.00     0.063 A 
ATOM      4  C   UNL     1      -2.706  -3.705   1.912  1.00  0.00     0.315 A 
ATOM      5  C   UNL     1      -2.836  -1.371   1.300  1.00  0.00     0.165 A 
ATOM      6  C   UNL     1      -2.293  -2.642   1.109  1.00  0.00     0.237 A 
ENDROOT
BRANCH   1   7
ATOM      7  C   UNL     1      -5.202  -2.010   4.133  1.00  0.00     0.193 C 
ATOM      8  O   UNL     1      -4.810  -1.536   5.210  1.00  0.00    -0.289 OA
BRANCH   7   9
ATOM      9  C   UNL     1      -6.608  -2.327   3.941  1.00  0.00     0.023 A 
ATOM     10  C   UNL     1      -7.590  -1.521   4.518  1.00  0.00     0.012 A 
ATOM     11  C   UNL     1      -6.976  -3.437   3.181  1.00  0.00     0.012 A 
ATOM     12  C   UNL     1      -8.939  -1.825   4.333  1.00  0.00     0.004 A 
ATOM     13  C   UNL     1      -8.325  -3.742   2.996  1.00  0.00     0.004 A 
ATOM     14  C   UNL     1      -9.307  -2.936   3.572  1.00  0.00    -0.051 A 
ATOM     15  C   UNL     1     -10.748  -3.261   3.376  1.00  0.00     0.044 C 
ENDBRANCH   7   9
ENDBRANCH   1   7
BRANCH   4  16
ATOM     16  N   UNL     1      -2.163  -5.007   1.732  1.00  0.00     0.066 N 
ATOM     17  O   UNL     1      -0.923  -5.166   1.832  1.00  0.00    -0.258 OA
ATOM     18  O   UNL     1      -2.940  -5.957   1.479  1.00  0.00    -0.258 OA
ENDBRANCH   4  16
BRANCH   5  19
ATOM     19  O   UNL     1      -2.442  -0.324   0.523  1.00  0.00    -0.504 OA
ATOM     20  H   UNL     1      -2.380   0.479   1.066  1.00  0.00     0.293 HD
ENDBRANCH   5  19
BRANCH   6  21
ATOM     21  O   UNL     1      -1.358  -2.833   0.133  1.00  0.00    -0.500 OA
ATOM     22  H   UNL     1      -1.120  -3.772   0.088  1.00  0.00     0.294 HD
ENDBRANCH   6  21
TORSDOF 5
ENDMDL
MODEL 4
REMARK VINA RESULT:    -4.768      3.588      4.502
REMARK INTER + INTRA:          -6.595
REMARK INTER:                  -5.664
REMARK INTRA:                  -0.932
REMARK UNBOUND:                -0.712
REMARK SMILES Cc1ccc(C(=O)c2cc(O)c(O)c([N+](=O)[O-])c2)cc1
REMARK SMILES IDX 8 1 18 2 9 3 14 4 10 5 12 6 6 7 7 8 5 9 4 10 19 11 3 12
REMARK SMILES IDX 20 13 2 14 1 15 15 16 17 17 16 18 11 19 13 21
REMARK H PARENT 11 20 13 22
ROOT
ATOM      1  C   UNL     1      -7.976  -4.486   2.904  1.00  0.00     0.033 A 
ATOM      2  C   UNL     1      -6.806  -3.767   2.969  1.00  0.00     0.102 A 
ATOM      3  C   UNL     1      -8.187  -5.488   1.986  1.00  0.00     0.063 A 
ATOM      4  C   UNL     1      -5.787  -4.068   2.065  1.00  0.00     0.315 A 
ATOM      5  C   UNL     1      -7.168  -5.788   1.081  1.00  0.00     0.165 A 
ATOM      6  C   UNL     1      -5.967  -5.078   1.121  1.00  0.00     0.237 A 
ENDROOT
BRANCH   1   7
ATOM      7  C   UNL     1      -9.068  -4.164   3.872  1.00  0.00     0.193 C 
ATOM      8  O   UNL     1      -9.731  -3.138   3.661  1.00  0.00    -0.289 OA
BRANCH   7   9
ATOM      9  C   UNL     1      -9.362  -5.004   5.022  1.00  0.00     0.023 A 
ATOM     10  C   UNL     1     -10.662  -5.464   5.236  1.00  0.00     0.012 A 
ATOM     11  C   UNL     1      -8.345  -5.349   5.912  1.00  0.00     0.012 A 
ATOM     12  C   UNL     1     -10.943  -6.269   6.339  1.00  0.00     0.004 A 
ATOM     13  C   UNL     1      -8.627  -6.154   7.016  1.00  0.00     0.004 A 
ATOM     14  C   UNL     1      -9.926  -6.615   7.230  1.00  0.00    -0.051 A 
ATOM     15  C   UNL     1     -10.229  -7.474   8.410  1.00  0.00     0.044 C 
ENDBRANCH   7   9
ENDBRANCH   1   7
BRANCH   4  16
ATOM     16  N   UNL     1      -4.571  -3.333   2.121  1.00  0.00     0.066 N 
ATOM     17  O   UNL     1      -4.172  -2.742   1.088  1.00  0.00    -0.258 OA
ATOM     18  O   UNL     1      -3.934  -3.297   3.199  1.00  0.00    -0.258 OA
ENDBRANCH   4  16
BRANCH   5  19
ATOM     19  O   UNL     1      -7.358  -6.778   0.164  1.00  0.00    -0.504 OA
ATOM     20  H   UNL     1      -6.857  -6.575  -0.642  1.00  0.00     0.293 HD
ENDBRANCH   5  19
BRANCH   6  21
ATOM     21  O   UNL     1      -4.978  -5.381   0.231  1.00  0.00    -0.500 OA
ATOM     22  H   UNL     1      -4.205  -5.724   0.707  1.00  0.00     0.294 HD
ENDBRANCH   6  21
TORSDOF 5
ENDMDL
MODEL 5
REMARK VINA RESULT:    -4.765      3.631      6.516
REMARK INTER + INTRA:          -6.592
REMARK INTER:                  -5.675
REMARK INTRA:                  -0.917
REMARK UNBOUND:                -0.712
REMARK SMILES Cc1ccc(C(=O)c2cc(O)c(O)c([N+](=O)[O-])c2)cc1
REMARK SMILES IDX 8 1 18 2 9 3 14 4 10 5 12 6 6 7 7 8 5 9 4 10 19 11 3 12
REMARK SMILES IDX 20 13 2 14 1 15 15 16 17 17 16 18 11 19 13 21
REMARK H PARENT 11 20 13 22
ROOT
ATOM      1  C   UNL     1      -7.928  -4.408   3.048  1.00  0.00     0.033 A 
ATOM      2  C   UNL     1      -8.879  -3.429   2.875  1.00  0.00     0.102 A 
ATOM      3  C   UNL     1      -8.056  -5.417   3.972  1.00  0.00     0.063 A 
ATOM      4  C   UNL     1     -10.023  -3.463   3.671  1.00  0.00     0.315 A 
ATOM      5  C   UNL     1      -9.200  -5.451   4.769  1.00  0.00     0.165 A 
ATOM      6  C   UNL     1     -10.185  -4.474   4.618  1.00  0.00     0.237 A 
ENDROOT
BRANCH   1   7
ATOM      7  C   UNL     1      -6.701  -4.371   2.195  1.00  0.00     0.193 C 
ATOM      8  O   UNL     1      -6.447  -5.380   1.521  1.00  0.00    -0.289 OA
BRANCH   7   9
ATOM      9  C   UNL     1      -5.824  -3.213   2.140  1.00  0.00     0.023 A 
ATOM     10  C   UNL     1      -5.485  -2.538   3.313  1.00  0.00     0.012 A 
ATOM     11  C   UNL     1      -5.322  -2.776   0.914  1.00  0.00     0.012 A 
ATOM     12  C   UNL     1      -4.644  -1.427   3.259  1.00  0.00     0.004 A 
ATOM     13  C   UNL     1      -4.480  -1.665   0.860  1.00  0.00     0.004 A 
ATOM     14  C   UNL     1      -4.141  -0.990   2.033  1.00  0.00    -0.051 A 
ATOM     15  C   UNL     1      -3.243   0.199   1.976  1.00  0.00     0.044 C 
ENDBRANCH   7   9
ENDBRANCH   1   7
BRANCH   4  16
ATOM     16  N   UNL     1     -11.015  -2.458   3.503  1.00  0.00     0.066 N 
ATOM     17  O   UNL     1     -12.216  -2.748   3.726  1.00  0.00    -0.258 OA
ATOM     18  O   UNL     1     -10.662  -1.313   3.138  1.00  0.00    -0.258 OA
ENDBRANCH   4  16
BRANCH   5  19
ATOM     19  O   UNL     1      -9.345  -6.445   5.690  1.00  0.00    -0.504 OA
ATOM     20  H   UNL     1     -10.119  -6.986   5.465  1.00  0.00     0.293 HD
ENDBRANCH   5  19
BRANCH   6  21
ATOM     21  O   UNL     1     -11.300  -4.518   5.403  1.00  0.00    -0.500 OA
ATOM     22  H   UNL     1     -11.181  -5.179   6.102  1.00  0.00     0.294 HD
ENDBRANCH   6  21
TORSDOF 5
ENDMDL
MODEL 6
REMARK VINA RESULT:    -4.760      3.529      7.173
REMARK INTER + INTRA:          -6.585
REMARK INTER:                  -5.597
REMARK INTRA:                  -0.988
REMARK UNBOUND:                -0.712
REMARK SMILES Cc1ccc(C(=O)c2cc(O)c(O)c([N+](=O)[O-])c2)cc1
REMARK SMILES IDX 8 1 18 2 9 3 14 4 10 5 12 6 6 7 7 8 5 9 4 10 19 11 3 12
REMARK SMILES IDX 20 13 2 14 1 15 15 16 17 17 16 18 11 19 13 21
REMARK H PARENT 11 20 13 22
ROOT
ATOM      1  C   UNL     1      -7.965  -3.082   3.921  1.00  0.00     0.033 A 
ATOM      2  C   UNL     1      -8.095  -4.198   4.714  1.00  0.00     0.102 A 
ATOM      3  C   UNL     1      -9.044  -2.397   3.414  1.00  0.00     0.063 A 
ATOM      4  C   UNL     1      -9.377  -4.655   5.019  1.00  0.00     0.315 A 
ATOM      5  C   UNL     1     -10.327  -2.854   3.718  1.00  0.00     0.165 A 
ATOM      6  C   UNL     1     -10.493  -3.984   4.521  1.00  0.00     0.237 A 
ENDROOT
BRANCH   1   7
ATOM      7  C   UNL     1      -6.592  -2.593   3.595  1.00  0.00     0.193 C 
ATOM      8  O   UNL     1      -6.328  -1.412   3.870  1.00  0.00    -0.289 OA
BRANCH   7   9
ATOM      9  C   UNL     1      -5.586  -3.444   2.981  1.00  0.00     0.023 A 
ATOM     10  C   UNL     1      -5.886  -4.148   1.814  1.00  0.00     0.012 A 
ATOM     11  C   UNL     1      -4.321  -3.558   3.558  1.00  0.00     0.012 A 
ATOM     12  C   UNL     1      -4.921  -4.964   1.225  1.00  0.00     0.004 A 
ATOM     13  C   UNL     1      -3.356  -4.375   2.968  1.00  0.00     0.004 A 
ATOM     14  C   UNL     1      -3.655  -5.078   1.802  1.00  0.00    -0.051 A 
ATOM     15  C   UNL     1      -2.625  -5.953   1.172  1.00  0.00     0.044 C 
ENDBRANCH   7   9
ENDBRANCH   1   7
BRANCH   4  16
ATOM     16  N   UNL     1      -9.527  -5.808   5.838  1.00  0.00     0.066 N 
ATOM     17  O   UNL     1      -8.642  -6.697   5.801  1.00  0.00    -0.258 OA
ATOM     18  O   UNL     1     -10.537  -5.901   6.574  1.00  0.00    -0.258 OA
ENDBRANCH   4  16
BRANCH   5  19
ATOM     19  O   UNL     1     -11.408  -2.188   3.225  1.00  0.00    -0.504 OA
ATOM     20  H   UNL     1     -11.917  -1.806   3.959  1.00  0.00     0.293 HD
ENDBRANCH   5  19
BRANCH   6  21
ATOM     21  O   UNL     1     -11.753  -4.421   4.812  1.00  0.00    -0.500 OA
ATOM     22  H   UNL     1     -12.266  -4.505   3.993  1.00  0.00     0.294 HD
ENDBRANCH   6  21
TORSDOF 5
ENDMDL
MODEL 7
REMARK VINA RESULT:    -4.735      3.716      6.886
REMARK INTER + INTRA:          -6.555
REMARK INTER:                  -5.666
REMARK INTRA:                  -0.889
REMARK UNBOUND:                -0.712
REMARK SMILES Cc1ccc(C(=O)c2cc(O)c(O)c([N+](=O)[O-])c2)cc1
REMARK SMILES IDX 8 1 18 2 9 3 14 4 10 5 12 6 6 7 7 8 5 9 4 10 19 11 3 12
REMARK SMILES IDX 20 13 2 14 1 15 15 16 17 17 16 18 11 19 13 21
REMARK H PARENT 11 20 13 22
ROOT
ATOM      1  C   UNL     1      -7.970  -3.203   3.933  1.00  0.00     0.033 A 
ATOM      2  C   UNL     1      -9.087  -2.549   3.469  1.00  0.00     0.102 A 
ATOM      3  C   UNL     1      -8.036  -4.325   4.725  1.00  0.00     0.063 A 
ATOM      4  C   UNL     1     -10.343  -3.046   3.817  1.00  0.00     0.315 A 
ATOM      5  C   UNL     1      -9.292  -4.822   5.073  1.00  0.00     0.165 A 
ATOM      6  C   UNL     1     -10.446  -4.183   4.618  1.00  0.00     0.237 A 
ENDROOT
BRANCH   1   7
ATOM      7  C   UNL     1      -6.624  -2.670   3.561  1.00  0.00     0.193 C 
ATOM      8  O   UNL     1      -6.403  -1.472   3.793  1.00  0.00    -0.289 OA
BRANCH   7   9
ATOM      9  C   UNL     1      -5.598  -3.500   2.951  1.00  0.00     0.023 A 
ATOM     10  C   UNL     1      -4.338  -3.600   3.542  1.00  0.00     0.012 A 
ATOM     11  C   UNL     1      -5.873  -4.198   1.775  1.00  0.00     0.012 A 
ATOM     12  C   UNL     1      -3.355  -4.396   2.956  1.00  0.00     0.004 A 
ATOM     13  C   UNL     1      -4.890  -4.995   1.189  1.00  0.00     0.004 A 
ATOM     14  C   UNL     1      -3.630  -5.095   1.780  1.00  0.00    -0.051 A 
ATOM     15  C   UNL     1      -2.578  -5.945   1.154  1.00  0.00     0.044 C 
ENDBRANCH   7   9
ENDBRANCH   1   7
BRANCH   4  16
ATOM     16  N   UNL     1     -11.508  -2.381   3.345  1.00  0.00     0.066 N 
ATOM     17  O   UNL     1     -12.609  -2.622   3.896  1.00  0.00    -0.258 OA
ATOM     18  O   UNL     1     -11.400  -1.573   2.393  1.00  0.00    -0.258 OA
ENDBRANCH   4  16
BRANCH   5  19
ATOM     19  O   UNL     1      -9.377  -5.933   5.856  1.00  0.00    -0.504 OA
ATOM     20  H   UNL     1     -10.280  -6.018   6.205  1.00  0.00     0.293 HD
ENDBRANCH   5  19
BRANCH   6  21
ATOM     21  O   UNL     1     -11.669  -4.679   4.965  1.00  0.00    -0.500 OA
ATOM     22  H   UNL     1     -11.653  -5.648   4.920  1.00  0.00     0.294 HD
ENDBRANCH   6  21
TORSDOF 5
ENDMDL
MODEL 8
REMARK VINA RESULT:    -4.657      3.910      7.199
REMARK INTER + INTRA:          -6.459
REMARK INTER:                  -5.766
REMARK INTRA:                  -0.693
REMARK UNBOUND:                -0.712
REMARK SMILES Cc1ccc(C(=O)c2cc(O)c(O)c([N+](=O)[O-])c2)cc1
REMARK SMILES IDX 8 1 18 2 9 3 14 4 10 5 12 6 6 7 7 8 5 9 4 10 19 11 3 12
REMARK SMILES IDX 20 13 2 14 1 15 15 16 17 17 16 18 11 19 13 21
REMARK H PARENT 11 20 13 22
ROOT
ATOM      1  C   UNL     1      -8.380  -3.559   3.566  1.00  0.00     0.033 A 
ATOM      2  C   UNL     1      -9.137  -4.376   4.373  1.00  0.00     0.102 A 
ATOM      3  C   UNL     1      -8.904  -2.479   2.897  1.00  0.00     0.063 A 
ATOM      4  C   UNL     1     -10.495  -4.096   4.520  1.00  0.00     0.315 A 
ATOM      5  C   UNL     1     -10.263  -2.198   3.043  1.00  0.00     0.165 A 
ATOM      6  C   UNL     1     -11.058  -3.007   3.856  1.00  0.00     0.237 A 
ENDROOT
BRANCH   1   7
ATOM      7  C   UNL     1      -6.925  -3.860   3.408  1.00  0.00     0.193 C 
ATOM      8  O   UNL     1      -6.547  -5.006   3.693  1.00  0.00    -0.289 OA
BRANCH   7   9
ATOM      9  C   UNL     1      -5.970  -2.868   2.940  1.00  0.00     0.023 A 
ATOM     10  C   UNL     1      -5.376  -1.990   3.847  1.00  0.00     0.012 A 
ATOM     11  C   UNL     1      -5.648  -2.794   1.585  1.00  0.00     0.012 A 
ATOM     12  C   UNL     1      -4.460  -1.039   3.398  1.00  0.00     0.004 A 
ATOM     13  C   UNL     1      -4.732  -1.843   1.136  1.00  0.00     0.004 A 
ATOM     14  C   UNL     1      -4.137  -0.965   2.042  1.00  0.00    -0.051 A 
ATOM     15  C   UNL     1      -3.159   0.053   1.563  1.00  0.00     0.044 C 
ENDBRANCH   7   9
ENDBRANCH   1   7
BRANCH   4  16
ATOM     16  N   UNL     1     -11.290  -4.931   5.352  1.00  0.00     0.066 N 
ATOM     17  O   UNL     1     -12.538  -4.803   5.324  1.00  0.00    -0.258 OA
ATOM     18  O   UNL     1     -10.721  -5.771   6.088  1.00  0.00    -0.258 OA
ENDBRANCH   4  16
BRANCH   5  19
ATOM     19  O   UNL     1     -10.799  -1.130   2.388  1.00  0.00    -0.504 OA
ATOM     20  H   UNL     1     -11.114  -1.410   1.513  1.00  0.00     0.293 HD
ENDBRANCH   5  19
BRANCH   6  21
ATOM     21  O   UNL     1     -12.386  -2.722   3.992  1.00  0.00    -0.500 OA
ATOM     22  H   UNL     1     -12.714  -2.302   3.181  1.00  0.00     0.294 HD
ENDBRANCH   6  21
TORSDOF 5
ENDMDL
MODEL 9
REMARK VINA RESULT:    -4.514      1.289      2.699
REMARK INTER + INTRA:          -6.282
REMARK INTER:                  -5.635
REMARK INTRA:                  -0.647
REMARK UNBOUND:                -0.712
REMARK SMILES Cc1ccc(C(=O)c2cc(O)c(O)c([N+](=O)[O-])c2)cc1
REMARK SMILES IDX 8 1 18 2 9 3 14 4 10 5 12 6 6 7 7 8 5 9 4 10 19 11 3 12
REMARK SMILES IDX 20 13 2 14 1 15 15 16 17 17 16 18 11 19 13 21
REMARK H PARENT 11 20 13 22
ROOT
ATOM      1  C   UNL     1      -5.238  -3.668   3.028  1.00  0.00     0.033 A 
ATOM      2  C   UNL     1      -4.367  -4.615   2.543  1.00  0.00     0.102 A 
ATOM      3  C   UNL     1      -5.002  -2.317   2.930  1.00  0.00     0.063 A 
ATOM      4  C   UNL     1      -3.193  -4.187   1.924  1.00  0.00     0.315 A 
ATOM      5  C   UNL     1      -3.827  -1.889   2.312  1.00  0.00     0.165 A 
ATOM      6  C   UNL     1      -2.922  -2.824   1.808  1.00  0.00     0.237 A 
ENDROOT
BRANCH   1   7
ATOM      7  C   UNL     1      -6.496  -4.126   3.691  1.00  0.00     0.193 C 
ATOM      8  O   UNL     1      -6.412  -5.088   4.468  1.00  0.00    -0.289 OA
BRANCH   7   9
ATOM      9  C   UNL     1      -7.781  -3.487   3.453  1.00  0.00     0.023 A 
ATOM     10  C   UNL     1      -8.685  -4.052   2.554  1.00  0.00     0.012 A 
ATOM     11  C   UNL     1      -8.109  -2.309   4.124  1.00  0.00     0.012 A 
ATOM     12  C   UNL     1      -9.917  -3.439   2.326  1.00  0.00     0.004 A 
ATOM     13  C   UNL     1      -9.341  -1.695   3.896  1.00  0.00     0.004 A 
ATOM     14  C   UNL     1     -10.246  -2.260   2.997  1.00  0.00    -0.051 A 
ATOM     15  C   UNL     1     -11.562  -1.605   2.752  1.00  0.00     0.044 C 
ENDBRANCH   7   9
ENDBRANCH   1   7
BRANCH   4  16
ATOM     16  N   UNL     1      -2.283  -5.156   1.418  1.00  0.00     0.066 N 
ATOM     17  O   UNL     1      -1.101  -5.155   1.838  1.00  0.00    -0.258 OA
ATOM     18  O   UNL     1      -2.688  -5.982   0.568  1.00  0.00    -0.258 OA
ENDBRANCH   4  16
BRANCH   5  19
ATOM     19  O   UNL     1      -3.576  -0.554   2.205  1.00  0.00    -0.504 OA
ATOM     20  H   UNL     1      -4.245  -0.141   1.635  1.00  0.00     0.293 HD
ENDBRANCH   5  19
BRANCH   6  21
ATOM     21  O   UNL     1      -1.777  -2.393   1.205  1.00  0.00    -0.500 OA
ATOM     22  H   UNL     1      -1.742  -2.727   0.295  1.00  0.00     0.294 HD
ENDBRANCH   6  21
TORSDOF 5
ENDMDL
