MODEL 1
REMARK VINA RESULT:    -7.040      0.000      0.000
REMARK INTER + INTRA:          -8.842
REMARK INTER:                  -8.275
REMARK INTRA:                  -0.567
REMARK UNBOUND:                -0.567
REMARK SMILES O=C(O)c1cc(-c2ccc(F)cc2F)ccc1O
REMARK SMILES IDX 6 1 5 2 15 3 4 4 17 5 16 6 7 7 13 8 12 9 8 10 10 11 9 12
REMARK SMILES IDX 14 13 11 14 2 15 1 16 3 17 18 19
REMARK H PARENT 3 18 18 20
ROOT
ATOM      1  C   UNL     1      -5.074  -3.204   2.423  1.00  0.00    -0.014 A 
ATOM      2  C   UNL     1      -4.626  -1.909   2.164  1.00  0.00     0.028 A 
ATOM      3  C   UNL     1      -4.234  -4.292   2.188  1.00  0.00     0.013 A 
ATOM      4  C   UNL     1      -3.338  -1.701   1.669  1.00  0.00     0.102 A 
ATOM      5  C   UNL     1      -2.498  -2.790   1.433  1.00  0.00     0.130 A 
ATOM      6  C   UNL     1      -2.946  -4.086   1.693  1.00  0.00     0.048 A 
ENDROOT
BRANCH   1   7
ATOM      7  C   UNL     1      -6.410  -3.419   2.935  1.00  0.00     0.018 A 
ATOM      8  C   UNL     1      -6.900  -2.624   3.971  1.00  0.00     0.133 A 
ATOM      9  C   UNL     1      -8.189  -2.835   4.462  1.00  0.00     0.079 A 
ATOM     10  C   UNL     1      -7.208  -4.425   2.390  1.00  0.00     0.015 A 
ATOM     11  C   UNL     1      -8.986  -3.841   3.918  1.00  0.00     0.126 A 
ATOM     12  C   UNL     1      -8.496  -4.635   2.881  1.00  0.00     0.040 A 
ATOM     13  F   UNL     1      -6.145  -1.655   4.508  1.00  0.00    -0.206 F 
ATOM     14  F   UNL     1     -10.223  -4.045   4.388  1.00  0.00    -0.207 F 
ENDBRANCH   1   7
BRANCH   4  15
ATOM     15  C   UNL     1      -2.890  -0.341   1.405  1.00  0.00     0.339 C 
ATOM     16  O   UNL     1      -2.429   0.063   0.334  1.00  0.00    -0.246 OA
BRANCH  15  17
ATOM     17  O   UNL     1      -3.033   0.471   2.487  1.00  0.00    -0.478 OA
ATOM     18  H   UNL     1      -3.975   0.663   2.677  1.00  0.00     0.297 HD
ENDBRANCH  15  17
ENDBRANCH   4  15
BRANCH   5  19
ATOM     19  O   UNL     1      -1.237  -2.609   0.951  1.00  0.00    -0.507 OA
ATOM     20  H   UNL     1      -0.719  -2.100   1.599  1.00  0.00     0.293 HD
ENDBRANCH   5  19
TORSDOF 4
ENDMDL
MODEL 2
REMARK VINA RESULT:    -7.032      1.132      1.612
REMARK INTER + INTRA:          -8.833
REMARK INTER:                  -8.275
REMARK INTRA:                  -0.557
REMARK UNBOUND:                -0.567
REMARK SMILES O=C(O)c1cc(-c2ccc(F)cc2F)ccc1O
REMARK SMILES IDX 6 1 5 2 15 3 4 4 17 5 16 6 7 7 13 8 12 9 8 10 10 11 9 12
REMARK SMILES IDX 14 13 11 14 2 15 1 16 3 17 18 19
REMARK H PARENT 3 18 18 20
ROOT
ATOM      1  C   UNL     1      -5.069  -3.233   2.365  1.00  0.00    -0.014 A 
ATOM      2  C   UNL     1      -4.624  -1.934   2.126  1.00  0.00     0.028 A 
ATOM      3  C   UNL     1      -4.224  -4.316   2.120  1.00  0.00     0.013 A 
ATOM      4  C   UNL     1      -3.333  -1.716   1.642  1.00  0.00     0.102 A 
ATOM      5  C   UNL     1      -2.489  -2.799   1.397  1.00  0.00     0.130 A 
ATOM      6  C   UNL     1      -2.935  -4.100   1.636  1.00  0.00     0.048 A 
ENDROOT
BRANCH   1   7
ATOM      7  C   UNL     1      -6.407  -3.460   2.867  1.00  0.00     0.018 A 
ATOM      8  C   UNL     1      -7.207  -4.456   2.304  1.00  0.00     0.133 A 
ATOM      9  C   UNL     1      -8.497  -4.671   2.791  1.00  0.00     0.079 A 
ATOM     10  C   UNL     1      -6.897  -2.681   3.914  1.00  0.00     0.015 A 
ATOM     11  C   UNL     1      -8.987  -3.891   3.838  1.00  0.00     0.126 A 
ATOM     12  C   UNL     1      -8.186  -2.897   4.400  1.00  0.00     0.040 A 
ATOM     13  F   UNL     1      -6.752  -5.212   1.295  1.00  0.00    -0.206 F 
ATOM     14  F   UNL     1     -10.224  -4.097   4.305  1.00  0.00    -0.207 F 
ENDBRANCH   1   7
BRANCH   4  15
ATOM     15  C   UNL     1      -2.887  -0.351   1.399  1.00  0.00     0.339 C 
ATOM     16  O   UNL     1      -2.427   0.070   0.335  1.00  0.00    -0.246 OA
BRANCH  15  17
ATOM     17  O   UNL     1      -3.033   0.444   2.493  1.00  0.00    -0.478 OA
ATOM     18  H   UNL     1      -2.533   0.099   3.263  1.00  0.00     0.297 HD
ENDBRANCH  15  17
ENDBRANCH   4  15
BRANCH   5  19
ATOM     19  O   UNL     1      -1.225  -2.608   0.924  1.00  0.00    -0.507 OA
ATOM     20  H   UNL     1      -1.210  -2.802  -0.029  1.00  0.00     0.293 HD
ENDBRANCH   5  19
TORSDOF 4
ENDMDL
MODEL 3
REMARK VINA RESULT:    -7.025      1.647      3.145
REMARK INTER + INTRA:          -8.824
REMARK INTER:                  -8.254
REMARK INTRA:                  -0.570
REMARK UNBOUND:                -0.567
REMARK SMILES O=C(O)c1cc(-c2ccc(F)cc2F)ccc1O
REMARK SMILES IDX 6 1 5 2 15 3 4 4 17 5 16 6 7 7 13 8 12 9 8 10 10 11 9 12
REMARK SMILES IDX 14 13 11 14 2 15 1 16 3 17 18 19
REMARK H PARENT 3 18 18 20
ROOT
ATOM      1  C   UNL     1      -5.108  -3.205   2.330  1.00  0.00    -0.014 A 
ATOM      2  C   UNL     1      -4.288  -4.308   2.100  1.00  0.00     0.028 A 
ATOM      3  C   UNL     1      -4.641  -1.919   2.058  1.00  0.00     0.013 A 
ATOM      4  C   UNL     1      -2.999  -4.127   1.597  1.00  0.00     0.102 A 
ATOM      5  C   UNL     1      -2.532  -2.841   1.324  1.00  0.00     0.130 A 
ATOM      6  C   UNL     1      -3.354  -1.737   1.555  1.00  0.00     0.048 A 
ENDROOT
BRANCH   1   7
ATOM      7  C   UNL     1      -6.445  -3.393   2.854  1.00  0.00     0.018 A 
ATOM      8  C   UNL     1      -7.268  -4.390   2.330  1.00  0.00     0.133 A 
ATOM      9  C   UNL     1      -8.556  -4.567   2.838  1.00  0.00     0.079 A 
ATOM     10  C   UNL     1      -6.908  -2.574   3.883  1.00  0.00     0.015 A 
ATOM     11  C   UNL     1      -9.019  -3.748   3.867  1.00  0.00     0.126 A 
ATOM     12  C   UNL     1      -8.195  -2.752   4.390  1.00  0.00     0.040 A 
ATOM     13  F   UNL     1      -6.839  -5.183   1.339  1.00  0.00    -0.206 F 
ATOM     14  F   UNL     1     -10.255  -3.918   4.354  1.00  0.00    -0.207 F 
ENDBRANCH   1   7
BRANCH   4  15
ATOM     15  C   UNL     1      -2.158  -5.292   1.363  1.00  0.00     0.339 C 
ATOM     16  O   UNL     1      -1.020  -5.452   1.811  1.00  0.00    -0.246 OA
BRANCH  15  17
ATOM     17  O   UNL     1      -2.766  -6.222   0.577  1.00  0.00    -0.478 OA
ATOM     18  H   UNL     1      -3.028  -5.850  -0.291  1.00  0.00     0.297 HD
ENDBRANCH  15  17
ENDBRANCH   4  15
BRANCH   5  19
ATOM     19  O   UNL     1      -1.277  -2.642   0.832  1.00  0.00    -0.507 OA
ATOM     20  H   UNL     1      -1.023  -3.409   0.289  1.00  0.00     0.293 HD
ENDBRANCH   5  19
TORSDOF 4
ENDMDL
MODEL 4
REMARK VINA RESULT:    -7.023      1.220      2.702
REMARK INTER + INTRA:          -8.821
REMARK INTER:                  -8.252
REMARK INTRA:                  -0.569
REMARK UNBOUND:                -0.567
REMARK SMILES O=C(O)c1cc(-c2ccc(F)cc2F)ccc1O
REMARK SMILES IDX 6 1 5 2 15 3 4 4 17 5 16 6 7 7 13 8 12 9 8 10 10 11 9 12
REMARK SMILES IDX 14 13 11 14 2 15 1 16 3 17 18 19
REMARK H PARENT 3 18 18 20
ROOT
ATOM      1  C   UNL     1      -5.074  -3.174   2.381  1.00  0.00    -0.014 A 
ATOM      2  C   UNL     1      -4.265  -4.284   2.138  1.00  0.00     0.028 A 
ATOM      3  C   UNL     1      -4.599  -1.892   2.105  1.00  0.00     0.013 A 
ATOM      4  C   UNL     1      -2.981  -4.112   1.619  1.00  0.00     0.102 A 
ATOM      5  C   UNL     1      -2.507  -2.830   1.344  1.00  0.00     0.130 A 
ATOM      6  C   UNL     1      -3.316  -1.719   1.587  1.00  0.00     0.048 A 
ENDROOT
BRANCH   1   7
ATOM      7  C   UNL     1      -6.405  -3.352   2.919  1.00  0.00     0.018 A 
ATOM      8  C   UNL     1      -6.847  -2.549   3.972  1.00  0.00     0.133 A 
ATOM      9  C   UNL     1      -8.131  -2.724   4.488  1.00  0.00     0.079 A 
ATOM     10  C   UNL     1      -7.246  -4.327   2.384  1.00  0.00     0.015 A 
ATOM     11  C   UNL     1      -8.972  -3.699   3.954  1.00  0.00     0.126 A 
ATOM     12  C   UNL     1      -8.529  -4.500   2.901  1.00  0.00     0.040 A 
ATOM     13  F   UNL     1      -6.050  -1.610   4.499  1.00  0.00    -0.206 F 
ATOM     14  F   UNL     1     -10.205  -3.867   4.449  1.00  0.00    -0.207 F 
ENDBRANCH   1   7
BRANCH   4  15
ATOM     15  C   UNL     1      -2.153  -5.284   1.373  1.00  0.00     0.339 C 
ATOM     16  O   UNL     1      -1.013  -5.457   1.811  1.00  0.00    -0.246 OA
BRANCH  15  17
ATOM     17  O   UNL     1      -2.776  -6.204   0.587  1.00  0.00    -0.478 OA
ATOM     18  H   UNL     1      -2.523  -7.120   0.827  1.00  0.00     0.297 HD
ENDBRANCH  15  17
ENDBRANCH   4  15
BRANCH   5  19
ATOM     19  O   UNL     1      -1.256  -2.640   0.836  1.00  0.00    -0.507 OA
ATOM     20  H   UNL     1      -0.735  -3.452   0.965  1.00  0.00     0.293 HD
ENDBRANCH   5  19
TORSDOF 4
ENDMDL
MODEL 5
REMARK VINA RESULT:    -5.516      1.238      1.300
REMARK INTER + INTRA:          -7.050
REMARK INTER:                  -6.535
REMARK INTRA:                  -0.515
REMARK UNBOUND:                -0.567
REMARK SMILES O=C(O)c1cc(-c2ccc(F)cc2F)ccc1O
REMARK SMILES IDX 6 1 5 2 15 3 4 4 17 5 16 6 7 7 13 8 12 9 8 10 10 11 9 12
REMARK SMILES IDX 14 13 11 14 2 15 1 16 3 17 18 19
REMARK H PARENT 3 18 18 20
ROOT
ATOM      1  C   UNL     1      -5.620  -3.242   2.717  1.00  0.00    -0.014 A 
ATOM      2  C   UNL     1      -5.249  -1.906   2.575  1.00  0.00     0.028 A 
ATOM      3  C   UNL     1      -4.738  -4.255   2.339  1.00  0.00     0.013 A 
ATOM      4  C   UNL     1      -3.996  -1.581   2.053  1.00  0.00     0.102 A 
ATOM      5  C   UNL     1      -3.115  -2.593   1.675  1.00  0.00     0.130 A 
ATOM      6  C   UNL     1      -3.486  -3.931   1.818  1.00  0.00     0.048 A 
ENDROOT
BRANCH   1   7
ATOM      7  C   UNL     1      -6.919  -3.580   3.256  1.00  0.00     0.018 A 
ATOM      8  C   UNL     1      -8.038  -2.820   2.915  1.00  0.00     0.133 A 
ATOM      9  C   UNL     1      -9.290  -3.149   3.437  1.00  0.00     0.079 A 
ATOM     10  C   UNL     1      -7.052  -4.669   4.117  1.00  0.00     0.015 A 
ATOM     11  C   UNL     1      -9.422  -4.238   4.299  1.00  0.00     0.126 A 
ATOM     12  C   UNL     1      -8.302  -4.998   4.639  1.00  0.00     0.040 A 
ATOM     13  F   UNL     1      -7.928  -1.769   2.091  1.00  0.00    -0.206 F 
ATOM     14  F   UNL     1     -10.622  -4.554   4.801  1.00  0.00    -0.207 F 
ENDBRANCH   1   7
BRANCH   4  15
ATOM     15  C   UNL     1      -3.628  -0.179   1.913  1.00  0.00     0.339 C 
ATOM     16  O   UNL     1      -4.227   0.651   1.225  1.00  0.00    -0.246 OA
BRANCH  15  17
ATOM     17  O   UNL     1      -2.522   0.142   2.639  1.00  0.00    -0.478 OA
ATOM     18  H   UNL     1      -1.704   0.084   2.102  1.00  0.00     0.297 HD
ENDBRANCH  15  17
ENDBRANCH   4  15
BRANCH   5  19
ATOM     19  O   UNL     1      -1.886  -2.297   1.165  1.00  0.00    -0.507 OA
ATOM     20  H   UNL     1      -1.310  -1.984   1.884  1.00  0.00     0.293 HD
ENDBRANCH   5  19
TORSDOF 4
ENDMDL
MODEL 6
REMARK VINA RESULT:    -5.477      4.104      6.345
REMARK INTER + INTRA:          -7.004
REMARK INTER:                  -5.922
REMARK INTRA:                  -1.082
REMARK UNBOUND:                -0.567
REMARK SMILES O=C(O)c1cc(-c2ccc(F)cc2F)ccc1O
REMARK SMILES IDX 6 1 5 2 15 3 4 4 17 5 16 6 7 7 13 8 12 9 8 10 10 11 9 12
REMARK SMILES IDX 14 13 11 14 2 15 1 16 3 17 18 19
REMARK H PARENT 3 18 18 20
ROOT
ATOM      1  C   UNL     1      -7.587  -3.378   3.437  1.00  0.00    -0.014 A 
ATOM      2  C   UNL     1      -8.695  -2.630   3.042  1.00  0.00     0.028 A 
ATOM      3  C   UNL     1      -7.746  -4.453   4.311  1.00  0.00     0.013 A 
ATOM      4  C   UNL     1      -9.964  -2.956   3.522  1.00  0.00     0.102 A 
ATOM      5  C   UNL     1     -10.124  -4.031   4.396  1.00  0.00     0.130 A 
ATOM      6  C   UNL     1      -9.014  -4.780   4.791  1.00  0.00     0.048 A 
ENDROOT
BRANCH   1   7
ATOM      7  C   UNL     1      -6.270  -3.039   2.940  1.00  0.00     0.018 A 
ATOM      8  C   UNL     1      -5.497  -2.085   3.602  1.00  0.00     0.133 A 
ATOM      9  C   UNL     1      -4.228  -1.761   3.120  1.00  0.00     0.079 A 
ATOM     10  C   UNL     1      -5.775  -3.670   1.799  1.00  0.00     0.015 A 
ATOM     11  C   UNL     1      -3.734  -2.391   1.978  1.00  0.00     0.126 A 
ATOM     12  C   UNL     1      -4.507  -3.346   1.318  1.00  0.00     0.040 A 
ATOM     13  F   UNL     1      -5.959  -1.467   4.698  1.00  0.00    -0.206 F 
ATOM     14  F   UNL     1      -2.516  -2.081   1.515  1.00  0.00    -0.207 F 
ENDBRANCH   1   7
BRANCH   4  15
ATOM     15  C   UNL     1     -11.109  -2.162   3.098  1.00  0.00     0.339 C 
ATOM     16  O   UNL     1     -12.289  -2.420   3.350  1.00  0.00    -0.246 OA
BRANCH  15  17
ATOM     17  O   UNL     1     -10.743  -1.071   2.372  1.00  0.00    -0.478 OA
ATOM     18  H   UNL     1      -9.845  -0.759   2.611  1.00  0.00     0.297 HD
ENDBRANCH  15  17
ENDBRANCH   4  15
BRANCH   5  19
ATOM     19  O   UNL     1     -11.355  -4.367   4.876  1.00  0.00    -0.507 OA
ATOM     20  H   UNL     1     -11.334  -4.342   5.848  1.00  0.00     0.293 HD
ENDBRANCH   5  19
TORSDOF 4
ENDMDL
MODEL 7
REMARK VINA RESULT:    -5.435      4.396      6.711
REMARK INTER + INTRA:          -6.955
REMARK INTER:                  -5.890
REMARK INTRA:                  -1.065
REMARK UNBOUND:                -0.567
REMARK SMILES O=C(O)c1cc(-c2ccc(F)cc2F)ccc1O
REMARK SMILES IDX 6 1 5 2 15 3 4 4 17 5 16 6 7 7 13 8 12 9 8 10 10 11 9 12
REMARK SMILES IDX 14 13 11 14 2 15 1 16 3 17 18 19
REMARK H PARENT 3 18 18 20
ROOT
ATOM      1  C   UNL     1      -7.599  -3.473   3.409  1.00  0.00    -0.014 A 
ATOM      2  C   UNL     1      -7.811  -4.554   4.263  1.00  0.00     0.028 A 
ATOM      3  C   UNL     1      -8.668  -2.655   3.041  1.00  0.00     0.013 A 
ATOM      4  C   UNL     1      -9.091  -4.819   4.749  1.00  0.00     0.102 A 
ATOM      5  C   UNL     1     -10.160  -4.002   4.381  1.00  0.00     0.130 A 
ATOM      6  C   UNL     1      -9.948  -2.919   3.527  1.00  0.00     0.048 A 
ENDROOT
BRANCH   1   7
ATOM      7  C   UNL     1      -6.271  -3.198   2.903  1.00  0.00     0.018 A 
ATOM      8  C   UNL     1      -5.473  -2.233   3.518  1.00  0.00     0.133 A 
ATOM      9  C   UNL     1      -4.194  -1.971   3.027  1.00  0.00     0.079 A 
ATOM     10  C   UNL     1      -5.791  -3.901   1.798  1.00  0.00     0.015 A 
ATOM     11  C   UNL     1      -3.713  -2.673   1.922  1.00  0.00     0.126 A 
ATOM     12  C   UNL     1      -4.512  -3.639   1.308  1.00  0.00     0.040 A 
ATOM     13  F   UNL     1      -5.921  -1.547   4.579  1.00  0.00    -0.206 F 
ATOM     14  F   UNL     1      -2.485  -2.423   1.450  1.00  0.00    -0.207 F 
ENDBRANCH   1   7
BRANCH   4  15
ATOM     15  C   UNL     1      -9.291  -5.954   5.640  1.00  0.00     0.339 C 
ATOM     16  O   UNL     1     -10.386  -6.407   5.984  1.00  0.00    -0.246 OA
BRANCH  15  17
ATOM     17  O   UNL     1      -8.116  -6.486   6.073  1.00  0.00    -0.478 OA
ATOM     18  H   UNL     1      -7.384  -5.836   6.033  1.00  0.00     0.297 HD
ENDBRANCH  15  17
ENDBRANCH   4  15
BRANCH   5  19
ATOM     19  O   UNL     1     -11.418  -4.243   4.846  1.00  0.00    -0.507 OA
ATOM     20  H   UNL     1     -11.950  -4.636   4.133  1.00  0.00     0.293 HD
ENDBRANCH   5  19
TORSDOF 4
ENDMDL
MODEL 8
REMARK VINA RESULT:    -5.398      4.243      6.466
REMARK INTER + INTRA:          -6.911
REMARK INTER:                  -5.828
REMARK INTRA:                  -1.083
REMARK UNBOUND:                -0.567
REMARK SMILES O=C(O)c1cc(-c2ccc(F)cc2F)ccc1O
REMARK SMILES IDX 6 1 5 2 15 3 4 4 17 5 16 6 7 7 13 8 12 9 8 10 10 11 9 12
REMARK SMILES IDX 14 13 11 14 2 15 1 16 3 17 18 19
REMARK H PARENT 3 18 18 20
ROOT
ATOM      1  C   UNL     1      -7.627  -3.712   3.255  1.00  0.00    -0.014 A 
ATOM      2  C   UNL     1      -8.595  -2.825   2.785  1.00  0.00     0.028 A 
ATOM      3  C   UNL     1      -7.963  -4.667   4.214  1.00  0.00     0.013 A 
ATOM      4  C   UNL     1      -9.899  -2.892   3.275  1.00  0.00     0.102 A 
ATOM      5  C   UNL     1     -10.235  -3.847   4.234  1.00  0.00     0.130 A 
ATOM      6  C   UNL     1      -9.266  -4.735   4.704  1.00  0.00     0.048 A 
ENDROOT
BRANCH   1   7
ATOM      7  C   UNL     1      -6.273  -3.641   2.748  1.00  0.00     0.018 A 
ATOM      8  C   UNL     1      -5.885  -4.442   1.673  1.00  0.00     0.133 A 
ATOM      9  C   UNL     1      -4.579  -4.371   1.188  1.00  0.00     0.079 A 
ATOM     10  C   UNL     1      -5.356  -2.770   3.336  1.00  0.00     0.015 A 
ATOM     11  C   UNL     1      -3.662  -3.501   1.777  1.00  0.00     0.126 A 
ATOM     12  C   UNL     1      -4.051  -2.700   2.851  1.00  0.00     0.040 A 
ATOM     13  F   UNL     1      -6.753  -5.286   1.099  1.00  0.00    -0.206 F 
ATOM     14  F   UNL     1      -2.408  -3.432   1.312  1.00  0.00    -0.207 F 
ENDBRANCH   1   7
BRANCH   4  15
ATOM     15  C   UNL     1     -10.896  -1.957   2.771  1.00  0.00     0.339 C 
ATOM     16  O   UNL     1     -10.990  -1.575   1.602  1.00  0.00    -0.246 OA
BRANCH  15  17
ATOM     17  O   UNL     1     -11.745  -1.530   3.745  1.00  0.00    -0.478 OA
ATOM     18  H   UNL     1     -11.603  -2.009   4.588  1.00  0.00     0.297 HD
ENDBRANCH  15  17
ENDBRANCH   4  15
BRANCH   5  19
ATOM     19  O   UNL     1     -11.504  -3.930   4.725  1.00  0.00    -0.507 OA
ATOM     20  H   UNL     1     -12.131  -3.653   4.034  1.00  0.00     0.293 HD
ENDBRANCH   5  19
TORSDOF 4
ENDMDL
MODEL 9
REMARK VINA RESULT:    -4.455      8.981     11.520
REMARK INTER + INTRA:          -5.803
REMARK INTER:                  -4.899
REMARK INTRA:                  -0.904
REMARK UNBOUND:                -0.567
REMARK SMILES O=C(O)c1cc(-c2ccc(F)cc2F)ccc1O
REMARK SMILES IDX 6 1 5 2 15 3 4 4 17 5 16 6 7 7 13 8 12 9 8 10 10 11 9 12
REMARK SMILES IDX 14 13 11 14 2 15 1 16 3 17 18 19
REMARK H PARENT 3 18 18 20
ROOT
ATOM      1  C   UNL     1     -10.964  -7.435   9.302  1.00  0.00    -0.014 A 
ATOM      2  C   UNL     1     -10.410  -8.593   9.844  1.00  0.00     0.028 A 
ATOM      3  C   UNL     1     -12.023  -6.799   9.951  1.00  0.00     0.013 A 
ATOM      4  C   UNL     1     -10.913  -9.117  11.036  1.00  0.00     0.102 A 
ATOM      5  C   UNL     1     -11.972  -8.481  11.684  1.00  0.00     0.130 A 
ATOM      6  C   UNL     1     -12.527  -7.322  11.141  1.00  0.00     0.048 A 
ENDROOT
BRANCH   1   7
ATOM      7  C   UNL     1     -10.443  -6.892   8.066  1.00  0.00     0.018 A 
ATOM      8  C   UNL     1     -11.264  -6.799   6.941  1.00  0.00     0.133 A 
ATOM      9  C   UNL     1     -10.757  -6.275   5.752  1.00  0.00     0.079 A 
ATOM     10  C   UNL     1      -9.119  -6.460   8.002  1.00  0.00     0.015 A 
ATOM     11  C   UNL     1      -9.433  -5.844   5.687  1.00  0.00     0.126 A 
ATOM     12  C   UNL     1      -8.614  -5.936   6.812  1.00  0.00     0.040 A 
ATOM     13  F   UNL     1     -12.538  -7.212   6.986  1.00  0.00    -0.206 F 
ATOM     14  F   UNL     1      -8.946  -5.341   4.545  1.00  0.00    -0.207 F 
ENDBRANCH   1   7
BRANCH   4  15
ATOM     15  C   UNL     1     -10.320 -10.328  11.586  1.00  0.00     0.339 C 
ATOM     16  O   UNL     1     -10.807 -11.017  12.485  1.00  0.00    -0.246 OA
BRANCH  15  17
ATOM     17  O   UNL     1      -9.135 -10.640  10.992  1.00  0.00    -0.478 OA
ATOM     18  H   UNL     1      -8.836  -9.935  10.381  1.00  0.00     0.297 HD
ENDBRANCH  15  17
ENDBRANCH   4  15
BRANCH   5  19
ATOM     19  O   UNL     1     -12.478  -8.977  12.849  1.00  0.00    -0.507 OA
ATOM     20  H   UNL     1     -11.811  -9.548  13.267  1.00  0.00     0.293 HD
ENDBRANCH   5  19
TORSDOF 4
ENDMDL
