MODEL 1
REMARK VINA RESULT:    -5.103      0.000      0.000
REMARK INTER + INTRA:          -7.012
REMARK INTER:                  -6.297
REMARK INTRA:                  -0.715
REMARK UNBOUND:                -0.715
REMARK SMILES Cc1ccc(C(=O)c2cc(O)c(O)c([N+](=O)[O-])c2)cc1
REMARK SMILES IDX 8 1 18 2 9 3 14 4 10 5 12 6 6 7 7 8 5 9 4 10 19 11 3 12
REMARK SMILES IDX 20 13 2 14 1 15 15 16 17 17 16 18 11 19 13 21
REMARK H PARENT 11 20 13 22
ROOT
ATOM      1  C   UNL     1      -0.835  -0.371   7.268  1.00  0.00     0.033 A 
ATOM      2  C   UNL     1      -0.980  -1.615   6.700  1.00  0.00     0.102 A 
ATOM      3  C   UNL     1      -0.397   0.725   6.563  1.00  0.00     0.063 A 
ATOM      4  C   UNL     1      -0.671  -1.771   5.348  1.00  0.00     0.315 A 
ATOM      5  C   UNL     1      -0.087   0.569   5.212  1.00  0.00     0.165 A 
ATOM      6  C   UNL     1      -0.224  -0.680   4.604  1.00  0.00     0.237 A 
ENDROOT
BRANCH   1   7
ATOM      7  C   UNL     1      -1.166  -0.204   8.715  1.00  0.00     0.193 C 
ATOM      8  O   UNL     1      -1.750   0.838   9.049  1.00  0.00    -0.289 OA
BRANCH   7   9
ATOM      9  C   UNL     1      -0.828  -1.206   9.713  1.00  0.00     0.023 A 
ATOM     10  C   UNL     1       0.307  -1.044  10.508  1.00  0.00     0.012 A 
ATOM     11  C   UNL     1      -1.639  -2.329   9.876  1.00  0.00     0.012 A 
ATOM     12  C   UNL     1       0.630  -2.006  11.466  1.00  0.00     0.004 A 
ATOM     13  C   UNL     1      -1.316  -3.291  10.834  1.00  0.00     0.004 A 
ATOM     14  C   UNL     1      -0.181  -3.129  11.629  1.00  0.00    -0.051 A 
ATOM     15  C   UNL     1       0.165  -4.157  12.651  1.00  0.00     0.044 C 
ENDBRANCH   7   9
ENDBRANCH   1   7
BRANCH   4  16
ATOM     16  N   UNL     1      -0.817  -3.051   4.747  1.00  0.00     0.066 N 
ATOM     17  O   UNL     1      -1.785  -3.774   5.086  1.00  0.00    -0.258 OA
ATOM     18  O   UNL     1       0.025  -3.420   3.894  1.00  0.00    -0.258 OA
ENDBRANCH   4  16
BRANCH   5  19
ATOM     19  O   UNL     1       0.348   1.645   4.497  1.00  0.00    -0.504 OA
ATOM     20  H   UNL     1      -0.389   2.261   4.356  1.00  0.00     0.293 HD
ENDBRANCH   5  19
BRANCH   6  21
ATOM     21  O   UNL     1       0.081  -0.820   3.282  1.00  0.00    -0.500 OA
ATOM     22  H   UNL     1       0.893  -0.328   3.081  1.00  0.00     0.294 HD
ENDBRANCH   6  21
TORSDOF 5
ENDMDL
MODEL 2
REMARK VINA RESULT:    -5.088      1.995      3.526
REMARK INTER + INTRA:          -6.994
REMARK INTER:                  -6.312
REMARK INTRA:                  -0.681
REMARK UNBOUND:                -0.715
REMARK SMILES Cc1ccc(C(=O)c2cc(O)c(O)c([N+](=O)[O-])c2)cc1
REMARK SMILES IDX 8 1 18 2 9 3 14 4 10 5 12 6 6 7 7 8 5 9 4 10 19 11 3 12
REMARK SMILES IDX 20 13 2 14 1 15 15 16 17 17 16 18 11 19 13 21
REMARK H PARENT 11 20 13 22
ROOT
ATOM      1  C   UNL     1       0.146  -1.906   7.140  1.00  0.00     0.033 A 
ATOM      2  C   UNL     1       0.244  -0.553   6.910  1.00  0.00     0.102 A 
ATOM      3  C   UNL     1      -0.019  -2.824   6.130  1.00  0.00     0.063 A 
ATOM      4  C   UNL     1       0.173  -0.093   5.595  1.00  0.00     0.315 A 
ATOM      5  C   UNL     1      -0.091  -2.364   4.815  1.00  0.00     0.165 A 
ATOM      6  C   UNL     1       0.006  -0.998   4.548  1.00  0.00     0.237 A 
ENDROOT
BRANCH   1   7
ATOM      7  C   UNL     1       0.221  -2.399   8.548  1.00  0.00     0.193 C 
ATOM      8  O   UNL     1       0.728  -3.516   8.734  1.00  0.00    -0.289 OA
BRANCH   7   9
ATOM      9  C   UNL     1      -0.271  -1.621   9.674  1.00  0.00     0.023 A 
ATOM     10  C   UNL     1      -1.510  -1.922  10.241  1.00  0.00     0.012 A 
ATOM     11  C   UNL     1       0.495  -0.575  10.188  1.00  0.00     0.012 A 
ATOM     12  C   UNL     1      -1.982  -1.176  11.320  1.00  0.00     0.004 A 
ATOM     13  C   UNL     1       0.023   0.171  11.268  1.00  0.00     0.004 A 
ATOM     14  C   UNL     1      -1.216  -0.129  11.835  1.00  0.00    -0.051 A 
ATOM     15  C   UNL     1      -1.722   0.668  12.988  1.00  0.00     0.044 C 
ENDBRANCH   7   9
ENDBRANCH   1   7
BRANCH   4  16
ATOM     16  N   UNL     1       0.273   1.303   5.343  1.00  0.00     0.066 N 
ATOM     17  O   UNL     1      -0.327   1.784   4.351  1.00  0.00    -0.258 OA
ATOM     18  O   UNL     1       0.957   2.011   6.117  1.00  0.00    -0.258 OA
ENDBRANCH   4  16
BRANCH   5  19
ATOM     19  O   UNL     1      -0.253  -3.260   3.801  1.00  0.00    -0.504 OA
ATOM     20  H   UNL     1      -0.498  -4.125   4.168  1.00  0.00     0.293 HD
ENDBRANCH   5  19
BRANCH   6  21
ATOM     21  O   UNL     1      -0.064  -0.560   3.257  1.00  0.00    -0.500 OA
ATOM     22  H   UNL     1       0.779  -0.731   2.808  1.00  0.00     0.294 HD
ENDBRANCH   6  21
TORSDOF 5
ENDMDL
MODEL 3
REMARK VINA RESULT:    -4.917      3.661      6.550
REMARK INTER + INTRA:          -6.782
REMARK INTER:                  -5.815
REMARK INTRA:                  -0.967
REMARK UNBOUND:                -0.715
REMARK SMILES Cc1ccc(C(=O)c2cc(O)c(O)c([N+](=O)[O-])c2)cc1
REMARK SMILES IDX 8 1 18 2 9 3 14 4 10 5 12 6 6 7 7 8 5 9 4 10 19 11 3 12
REMARK SMILES IDX 20 13 2 14 1 15 15 16 17 17 16 18 11 19 13 21
REMARK H PARENT 11 20 13 22
ROOT
ATOM      1  C   UNL     1      -0.130  -0.962  10.620  1.00  0.00     0.033 A 
ATOM      2  C   UNL     1       0.170  -2.205  11.127  1.00  0.00     0.102 A 
ATOM      3  C   UNL     1      -0.806  -0.006  11.339  1.00  0.00     0.063 A 
ATOM      4  C   UNL     1      -0.229  -2.508  12.429  1.00  0.00     0.315 A 
ATOM      5  C   UNL     1      -1.206  -0.309  12.641  1.00  0.00     0.165 A 
ATOM      6  C   UNL     1      -0.917  -1.561  13.186  1.00  0.00     0.237 A 
ENDROOT
BRANCH   1   7
ATOM      7  C   UNL     1       0.297  -0.637   9.226  1.00  0.00     0.193 C 
ATOM      8  O   UNL     1       1.012   0.364   9.068  1.00  0.00    -0.289 OA
BRANCH   7   9
ATOM      9  C   UNL     1      -0.094  -1.445   8.082  1.00  0.00     0.023 A 
ATOM     10  C   UNL     1       0.866  -1.854   7.156  1.00  0.00     0.012 A 
ATOM     11  C   UNL     1      -1.429  -1.812   7.911  1.00  0.00     0.012 A 
ATOM     12  C   UNL     1       0.490  -2.630   6.059  1.00  0.00     0.004 A 
ATOM     13  C   UNL     1      -1.805  -2.588   6.814  1.00  0.00     0.004 A 
ATOM     14  C   UNL     1      -0.845  -2.997   5.888  1.00  0.00    -0.051 A 
ATOM     15  C   UNL     1      -1.246  -3.825   4.714  1.00  0.00     0.044 C 
ENDBRANCH   7   9
ENDBRANCH   1   7
BRANCH   4  16
ATOM     16  N   UNL     1       0.074  -3.789  12.967  1.00  0.00     0.066 N 
ATOM     17  O   UNL     1       0.127  -4.775  12.192  1.00  0.00    -0.258 OA
ATOM     18  O   UNL     1       0.280  -3.896  14.198  1.00  0.00    -0.258 OA
ENDBRANCH   4  16
BRANCH   5  19
ATOM     19  O   UNL     1      -1.877   0.627  13.370  1.00  0.00    -0.504 OA
ATOM     20  H   UNL     1      -1.650   1.514  13.047  1.00  0.00     0.293 HD
ENDBRANCH   5  19
BRANCH   6  21
ATOM     21  O   UNL     1      -1.313  -1.845  14.461  1.00  0.00    -0.500 OA
ATOM     22  H   UNL     1      -0.535  -1.919  15.035  1.00  0.00     0.294 HD
ENDBRANCH   6  21
TORSDOF 5
ENDMDL
MODEL 4
REMARK VINA RESULT:    -4.914      3.533      7.136
REMARK INTER + INTRA:          -6.778
REMARK INTER:                  -5.791
REMARK INTRA:                  -0.987
REMARK UNBOUND:                -0.715
REMARK SMILES Cc1ccc(C(=O)c2cc(O)c(O)c([N+](=O)[O-])c2)cc1
REMARK SMILES IDX 8 1 18 2 9 3 14 4 10 5 12 6 6 7 7 8 5 9 4 10 19 11 3 12
REMARK SMILES IDX 20 13 2 14 1 15 15 16 17 17 16 18 11 19 13 21
REMARK H PARENT 11 20 13 22
ROOT
ATOM      1  C   UNL     1      -1.116  -1.949  10.454  1.00  0.00     0.033 A 
ATOM      2  C   UNL     1      -1.560  -0.822  11.107  1.00  0.00     0.102 A 
ATOM      3  C   UNL     1      -0.553  -3.018  11.108  1.00  0.00     0.063 A 
ATOM      4  C   UNL     1      -1.433  -0.763  12.495  1.00  0.00     0.315 A 
ATOM      5  C   UNL     1      -0.426  -2.959  12.496  1.00  0.00     0.165 A 
ATOM      6  C   UNL     1      -0.867  -1.831  13.190  1.00  0.00     0.237 A 
ENDROOT
BRANCH   1   7
ATOM      7  C   UNL     1      -1.252  -2.012   8.967  1.00  0.00     0.193 C 
ATOM      8  O   UNL     1      -1.849  -2.990   8.491  1.00  0.00    -0.289 OA
BRANCH   7   9
ATOM      9  C   UNL     1      -0.715  -0.983   8.091  1.00  0.00     0.023 A 
ATOM     10  C   UNL     1       0.623  -0.603   8.199  1.00  0.00     0.012 A 
ATOM     11  C   UNL     1      -1.537  -0.377   7.141  1.00  0.00     0.012 A 
ATOM     12  C   UNL     1       1.137   0.383   7.358  1.00  0.00     0.004 A 
ATOM     13  C   UNL     1      -1.023   0.610   6.300  1.00  0.00     0.004 A 
ATOM     14  C   UNL     1       0.315   0.990   6.408  1.00  0.00    -0.051 A 
ATOM     15  C   UNL     1       0.865   2.046   5.511  1.00  0.00     0.044 C 
ENDBRANCH   7   9
ENDBRANCH   1   7
BRANCH   4  16
ATOM     16  N   UNL     1      -1.888   0.394  13.184  1.00  0.00     0.066 N 
ATOM     17  O   UNL     1      -2.325   0.270  14.354  1.00  0.00    -0.258 OA
ATOM     18  O   UNL     1      -1.838   1.504  12.604  1.00  0.00    -0.258 OA
ENDBRANCH   4  16
BRANCH   5  19
ATOM     19  O   UNL     1       0.130  -4.010  13.162  1.00  0.00    -0.504 OA
ATOM     20  H   UNL     1       0.307  -4.733  12.538  1.00  0.00     0.293 HD
ENDBRANCH   5  19
BRANCH   6  21
ATOM     21  O   UNL     1      -0.737  -1.786  14.548  1.00  0.00    -0.500 OA
ATOM     22  H   UNL     1      -0.995  -2.639  14.929  1.00  0.00     0.294 HD
ENDBRANCH   6  21
TORSDOF 5
ENDMDL
MODEL 5
REMARK VINA RESULT:    -4.900      3.742      6.873
REMARK INTER + INTRA:          -6.761
REMARK INTER:                  -5.776
REMARK INTRA:                  -0.986
REMARK UNBOUND:                -0.715
REMARK SMILES Cc1ccc(C(=O)c2cc(O)c(O)c([N+](=O)[O-])c2)cc1
REMARK SMILES IDX 8 1 18 2 9 3 14 4 10 5 12 6 6 7 7 8 5 9 4 10 19 11 3 12
REMARK SMILES IDX 20 13 2 14 1 15 15 16 17 17 16 18 11 19 13 21
REMARK H PARENT 11 20 13 22
ROOT
ATOM      1  C   UNL     1      -1.082  -1.857  10.508  1.00  0.00     0.033 A 
ATOM      2  C   UNL     1      -0.478  -2.873  11.211  1.00  0.00     0.102 A 
ATOM      3  C   UNL     1      -1.604  -0.738  11.112  1.00  0.00     0.063 A 
ATOM      4  C   UNL     1      -0.389  -2.762  12.599  1.00  0.00     0.315 A 
ATOM      5  C   UNL     1      -1.516  -0.627  12.500  1.00  0.00     0.165 A 
ATOM      6  C   UNL     1      -0.908  -1.640  13.244  1.00  0.00     0.237 A 
ENDROOT
BRANCH   1   7
ATOM      7  C   UNL     1      -1.177  -1.975   9.021  1.00  0.00     0.193 C 
ATOM      8  O   UNL     1      -1.722  -2.992   8.565  1.00  0.00    -0.289 OA
BRANCH   7   9
ATOM      9  C   UNL     1      -0.661  -0.955   8.123  1.00  0.00     0.023 A 
ATOM     10  C   UNL     1       0.674  -0.561   8.209  1.00  0.00     0.012 A 
ATOM     11  C   UNL     1      -1.502  -0.370   7.176  1.00  0.00     0.012 A 
ATOM     12  C   UNL     1       1.169   0.418   7.347  1.00  0.00     0.004 A 
ATOM     13  C   UNL     1      -1.007   0.609   6.314  1.00  0.00     0.004 A 
ATOM     14  C   UNL     1       0.328   1.003   6.399  1.00  0.00    -0.051 A 
ATOM     15  C   UNL     1       0.857   2.050   5.479  1.00  0.00     0.044 C 
ENDBRANCH   7   9
ENDBRANCH   1   7
BRANCH   4  16
ATOM     16  N   UNL     1       0.233  -3.804  13.340  1.00  0.00     0.066 N 
ATOM     17  O   UNL     1       1.113  -4.502  12.781  1.00  0.00    -0.258 OA
ATOM     18  O   UNL     1      -0.115  -3.994  14.528  1.00  0.00    -0.258 OA
ENDBRANCH   4  16
BRANCH   5  19
ATOM     19  O   UNL     1      -2.026   0.475  13.117  1.00  0.00    -0.504 OA
ATOM     20  H   UNL     1      -2.608   0.952  12.502  1.00  0.00     0.293 HD
ENDBRANCH   5  19
BRANCH   6  21
ATOM     21  O   UNL     1      -0.827  -1.520  14.601  1.00  0.00    -0.500 OA
ATOM     22  H   UNL     1      -0.818  -2.401  15.006  1.00  0.00     0.294 HD
ENDBRANCH   6  21
TORSDOF 5
ENDMDL
MODEL 6
REMARK VINA RESULT:    -4.853      3.776      7.008
REMARK INTER + INTRA:          -6.703
REMARK INTER:                  -5.718
REMARK INTRA:                  -0.985
REMARK UNBOUND:                -0.715
REMARK SMILES Cc1ccc(C(=O)c2cc(O)c(O)c([N+](=O)[O-])c2)cc1
REMARK SMILES IDX 8 1 18 2 9 3 14 4 10 5 12 6 6 7 7 8 5 9 4 10 19 11 3 12
REMARK SMILES IDX 20 13 2 14 1 15 15 16 17 17 16 18 11 19 13 21
REMARK H PARENT 11 20 13 22
ROOT
ATOM      1  C   UNL     1      -0.145  -1.159  10.677  1.00  0.00     0.033 A 
ATOM      2  C   UNL     1      -0.867  -0.304  11.477  1.00  0.00     0.102 A 
ATOM      3  C   UNL     1       0.283  -2.395  11.099  1.00  0.00     0.063 A 
ATOM      4  C   UNL     1      -1.180  -0.711  12.774  1.00  0.00     0.315 A 
ATOM      5  C   UNL     1      -0.030  -2.801  12.397  1.00  0.00     0.165 A 
ATOM      6  C   UNL     1      -0.762  -1.959  13.234  1.00  0.00     0.237 A 
ENDROOT
BRANCH   1   7
ATOM      7  C   UNL     1       0.191  -0.723   9.287  1.00  0.00     0.193 C 
ATOM      8  O   UNL     1       0.794   0.353   9.158  1.00  0.00    -0.289 OA
BRANCH   7   9
ATOM      9  C   UNL     1      -0.163  -1.510   8.117  1.00  0.00     0.023 A 
ATOM     10  C   UNL     1       0.820  -1.872   7.196  1.00  0.00     0.012 A 
ATOM     11  C   UNL     1      -1.486  -1.904   7.915  1.00  0.00     0.012 A 
ATOM     12  C   UNL     1       0.481  -2.627   6.074  1.00  0.00     0.004 A 
ATOM     13  C   UNL     1      -1.826  -2.660   6.792  1.00  0.00     0.004 A 
ATOM     14  C   UNL     1      -0.843  -3.021   5.871  1.00  0.00    -0.051 A 
ATOM     15  C   UNL     1      -1.205  -3.827   4.671  1.00  0.00     0.044 C 
ENDBRANCH   7   9
ENDBRANCH   1   7
BRANCH   4  16
ATOM     16  N   UNL     1      -1.926   0.161  13.613  1.00  0.00     0.066 N 
ATOM     17  O   UNL     1      -2.723   0.975  13.086  1.00  0.00    -0.258 OA
ATOM     18  O   UNL     1      -1.767   0.091  14.854  1.00  0.00    -0.258 OA
ENDBRANCH   4  16
BRANCH   5  19
ATOM     19  O   UNL     1       0.385  -4.024  12.832  1.00  0.00    -0.504 OA
ATOM     20  H   UNL     1       0.760  -4.525  12.089  1.00  0.00     0.293 HD
ENDBRANCH   5  19
BRANCH   6  21
ATOM     21  O   UNL     1      -1.062  -2.368  14.501  1.00  0.00    -0.500 OA
ATOM     22  H   UNL     1      -0.455  -3.076  14.768  1.00  0.00     0.294 HD
ENDBRANCH   6  21
TORSDOF 5
ENDMDL
MODEL 7
REMARK VINA RESULT:    -4.754      1.782      2.058
REMARK INTER + INTRA:          -6.580
REMARK INTER:                  -5.981
REMARK INTRA:                  -0.600
REMARK UNBOUND:                -0.715
REMARK SMILES Cc1ccc(C(=O)c2cc(O)c(O)c([N+](=O)[O-])c2)cc1
REMARK SMILES IDX 8 1 18 2 9 3 14 4 10 5 12 6 6 7 7 8 5 9 4 10 19 11 3 12
REMARK SMILES IDX 20 13 2 14 1 15 15 16 17 17 16 18 11 19 13 21
REMARK H PARENT 11 20 13 22
ROOT
ATOM      1  C   UNL     1       0.849  -0.430   6.763  1.00  0.00     0.033 A 
ATOM      2  C   UNL     1       0.581  -1.682   6.259  1.00  0.00     0.102 A 
ATOM      3  C   UNL     1       0.580   0.727   6.071  1.00  0.00     0.063 A 
ATOM      4  C   UNL     1       0.011  -1.782   4.991  1.00  0.00     0.315 A 
ATOM      5  C   UNL     1       0.010   0.627   4.801  1.00  0.00     0.165 A 
ATOM      6  C   UNL     1      -0.275  -0.628   4.261  1.00  0.00     0.237 A 
ENDROOT
BRANCH   1   7
ATOM      7  C   UNL     1       1.460  -0.323   8.123  1.00  0.00     0.193 C 
ATOM      8  O   UNL     1       2.680  -0.108   8.182  1.00  0.00    -0.289 OA
BRANCH   7   9
ATOM      9  C   UNL     1       0.679  -0.459   9.342  1.00  0.00     0.023 A 
ATOM     10  C   UNL     1       1.034   0.261  10.482  1.00  0.00     0.012 A 
ATOM     11  C   UNL     1      -0.425  -1.311   9.371  1.00  0.00     0.012 A 
ATOM     12  C   UNL     1       0.285   0.130  11.651  1.00  0.00     0.004 A 
ATOM     13  C   UNL     1      -1.176  -1.442  10.540  1.00  0.00     0.004 A 
ATOM     14  C   UNL     1      -0.821  -0.722  11.680  1.00  0.00    -0.051 A 
ATOM     15  C   UNL     1      -1.620  -0.863  12.930  1.00  0.00     0.044 C 
ENDBRANCH   7   9
ENDBRANCH   1   7
BRANCH   4  16
ATOM     16  N   UNL     1      -0.272  -3.069   4.456  1.00  0.00     0.066 N 
ATOM     17  O   UNL     1       0.271  -3.410   3.378  1.00  0.00    -0.258 OA
ATOM     18  O   UNL     1      -1.054  -3.825   5.079  1.00  0.00    -0.258 OA
ENDBRANCH   4  16
BRANCH   5  19
ATOM     19  O   UNL     1      -0.264   1.763   4.100  1.00  0.00    -0.504 OA
ATOM     20  H   UNL     1      -1.214   1.800   3.900  1.00  0.00     0.293 HD
ENDBRANCH   5  19
BRANCH   6  21
ATOM     21  O   UNL     1      -0.833  -0.713   3.019  1.00  0.00    -0.500 OA
ATOM     22  H   UNL     1      -0.811  -1.633   2.714  1.00  0.00     0.294 HD
ENDBRANCH   6  21
TORSDOF 5
ENDMDL
MODEL 8
REMARK VINA RESULT:    -4.729      3.572      4.485
REMARK INTER + INTRA:          -6.550
REMARK INTER:                  -5.582
REMARK INTRA:                  -0.968
REMARK UNBOUND:                -0.715
REMARK SMILES Cc1ccc(C(=O)c2cc(O)c(O)c([N+](=O)[O-])c2)cc1
REMARK SMILES IDX 8 1 18 2 9 3 14 4 10 5 12 6 6 7 7 8 5 9 4 10 19 11 3 12
REMARK SMILES IDX 20 13 2 14 1 15 15 16 17 17 16 18 11 19 13 21
REMARK H PARENT 11 20 13 22
ROOT
ATOM      1  C   UNL     1       0.050  -0.808  10.608  1.00  0.00     0.033 A 
ATOM      2  C   UNL     1      -0.530  -1.146   9.408  1.00  0.00     0.102 A 
ATOM      3  C   UNL     1       1.200  -0.061  10.698  1.00  0.00     0.063 A 
ATOM      4  C   UNL     1       0.075  -0.710   8.229  1.00  0.00     0.315 A 
ATOM      5  C   UNL     1       1.806   0.375   9.519  1.00  0.00     0.165 A 
ATOM      6  C   UNL     1       1.243   0.050   8.284  1.00  0.00     0.237 A 
ENDROOT
BRANCH   1   7
ATOM      7  C   UNL     1      -0.598  -1.275  11.871  1.00  0.00     0.193 C 
ATOM      8  O   UNL     1      -0.409  -2.454  12.205  1.00  0.00    -0.289 OA
BRANCH   7   9
ATOM      9  C   UNL     1      -1.421  -0.403  12.694  1.00  0.00     0.023 A 
ATOM     10  C   UNL     1      -2.458   0.329  12.114  1.00  0.00     0.012 A 
ATOM     11  C   UNL     1      -1.175  -0.299  14.062  1.00  0.00     0.012 A 
ATOM     12  C   UNL     1      -3.247   1.165  12.903  1.00  0.00     0.004 A 
ATOM     13  C   UNL     1      -1.965   0.538  14.853  1.00  0.00     0.004 A 
ATOM     14  C   UNL     1      -3.002   1.269  14.273  1.00  0.00    -0.051 A 
ATOM     15  C   UNL     1      -3.845   2.164  15.115  1.00  0.00     0.044 C 
ENDBRANCH   7   9
ENDBRANCH   1   7
BRANCH   4  16
ATOM     16  N   UNL     1      -0.513  -1.051   6.980  1.00  0.00     0.066 N 
ATOM     17  O   UNL     1      -1.760  -1.164   6.908  1.00  0.00    -0.258 OA
ATOM     18  O   UNL     1       0.232  -1.229   5.988  1.00  0.00    -0.258 OA
ENDBRANCH   4  16
BRANCH   5  19
ATOM     19  O   UNL     1       2.946   1.117   9.588  1.00  0.00    -0.504 OA
ATOM     20  H   UNL     1       3.719   0.528   9.586  1.00  0.00     0.293 HD
ENDBRANCH   5  19
BRANCH   6  21
ATOM     21  O   UNL     1       1.844   0.482   7.138  1.00  0.00    -0.500 OA
ATOM     22  H   UNL     1       1.661   1.426   7.009  1.00  0.00     0.294 HD
ENDBRANCH   6  21
TORSDOF 5
ENDMDL
MODEL 9
REMARK VINA RESULT:    -4.646      1.845      2.612
REMARK INTER + INTRA:          -6.447
REMARK INTER:                  -6.027
REMARK INTRA:                  -0.420
REMARK UNBOUND:                -0.715
REMARK SMILES Cc1ccc(C(=O)c2cc(O)c(O)c([N+](=O)[O-])c2)cc1
REMARK SMILES IDX 8 1 18 2 9 3 14 4 10 5 12 6 6 7 7 8 5 9 4 10 19 11 3 12
REMARK SMILES IDX 20 13 2 14 1 15 15 16 17 17 16 18 11 19 13 21
REMARK H PARENT 11 20 13 22
ROOT
ATOM      1  C   UNL     1       0.068  -0.855   6.897  1.00  0.00     0.033 A 
ATOM      2  C   UNL     1       0.063  -1.315   5.601  1.00  0.00     0.102 A 
ATOM      3  C   UNL     1       0.003   0.481   7.215  1.00  0.00     0.063 A 
ATOM      4  C   UNL     1      -0.012  -0.386   4.564  1.00  0.00     0.315 A 
ATOM      5  C   UNL     1      -0.071   1.411   6.178  1.00  0.00     0.165 A 
ATOM      6  C   UNL     1      -0.079   0.977   4.852  1.00  0.00     0.237 A 
ENDROOT
BRANCH   1   7
ATOM      7  C   UNL     1       0.148  -1.851   8.008  1.00  0.00     0.193 C 
ATOM      8  O   UNL     1       0.569  -2.983   7.728  1.00  0.00    -0.289 OA
BRANCH   7   9
ATOM      9  C   UNL     1      -0.244  -1.531   9.372  1.00  0.00     0.023 A 
ATOM     10  C   UNL     1      -1.358  -2.149   9.940  1.00  0.00     0.012 A 
ATOM     11  C   UNL     1       0.493  -0.607  10.111  1.00  0.00     0.012 A 
ATOM     12  C   UNL     1      -1.734  -1.842  11.247  1.00  0.00     0.004 A 
ATOM     13  C   UNL     1       0.118  -0.300  11.420  1.00  0.00     0.004 A 
ATOM     14  C   UNL     1      -0.997  -0.918  11.988  1.00  0.00    -0.051 A 
ATOM     15  C   UNL     1      -1.400  -0.590  13.385  1.00  0.00     0.044 C 
ENDBRANCH   7   9
ENDBRANCH   1   7
BRANCH   4  16
ATOM     16  N   UNL     1      -0.018  -0.846   3.218  1.00  0.00     0.066 N 
ATOM     17  O   UNL     1       0.444  -1.985   2.965  1.00  0.00    -0.258 OA
ATOM     18  O   UNL     1      -0.485  -0.101   2.325  1.00  0.00    -0.258 OA
ENDBRANCH   4  16
BRANCH   5  19
ATOM     19  O   UNL     1      -0.136   2.739   6.475  1.00  0.00    -0.504 OA
ATOM     20  H   UNL     1      -0.076   3.258   5.656  1.00  0.00     0.293 HD
ENDBRANCH   5  19
BRANCH   6  21
ATOM     21  O   UNL     1      -0.152   1.896   3.846  1.00  0.00    -0.500 OA
ATOM     22  H   UNL     1       0.485   2.609   4.008  1.00  0.00     0.294 HD
ENDBRANCH   6  21
TORSDOF 5
ENDMDL
