MODEL 1
REMARK VINA RESULT:    -6.814      0.000      0.000
REMARK INTER + INTRA:          -8.636
REMARK INTER:                  -8.009
REMARK INTRA:                  -0.628
REMARK UNBOUND:                -0.628
REMARK SMILES O=C(O)c1cc(-c2ccc(F)cc2F)ccc1O
REMARK SMILES IDX 6 1 5 2 15 3 4 4 17 5 16 6 7 7 13 8 12 9 8 10 10 11 9 12
REMARK SMILES IDX 14 13 11 14 2 15 1 16 3 17 18 19
REMARK H PARENT 3 18 18 20
ROOT
ATOM      1  C   UNL     1      -0.524  -1.254   7.435  1.00  0.00    -0.014 A 
ATOM      2  C   UNL     1      -0.649  -2.397   6.647  1.00  0.00     0.028 A 
ATOM      3  C   UNL     1      -0.329  -0.010   6.834  1.00  0.00     0.013 A 
ATOM      4  C   UNL     1      -0.578  -2.298   5.257  1.00  0.00     0.102 A 
ATOM      5  C   UNL     1      -0.382  -1.055   4.656  1.00  0.00     0.130 A 
ATOM      6  C   UNL     1      -0.257   0.089   5.445  1.00  0.00     0.048 A 
ENDROOT
BRANCH   1   7
ATOM      7  C   UNL     1      -0.597  -1.356   8.877  1.00  0.00     0.018 A 
ATOM      8  C   UNL     1      -1.604  -2.114   9.476  1.00  0.00     0.133 A 
ATOM      9  C   UNL     1      -1.670  -2.209  10.866  1.00  0.00     0.079 A 
ATOM     10  C   UNL     1       0.343  -0.695   9.667  1.00  0.00     0.015 A 
ATOM     11  C   UNL     1      -0.731  -1.548  11.656  1.00  0.00     0.126 A 
ATOM     12  C   UNL     1       0.276  -0.791  11.057  1.00  0.00     0.040 A 
ATOM     13  F   UNL     1      -2.516  -2.753   8.730  1.00  0.00    -0.206 F 
ATOM     14  F   UNL     1      -0.794  -1.639  12.991  1.00  0.00    -0.207 F 
ENDBRANCH   1   7
BRANCH   4  15
ATOM     15  C   UNL     1      -0.710  -3.505   4.452  1.00  0.00     0.339 C 
ATOM     16  O   UNL     1       0.032  -3.827   3.522  1.00  0.00    -0.246 OA
BRANCH  15  17
ATOM     17  O   UNL     1      -1.767  -4.271   4.837  1.00  0.00    -0.478 OA
ATOM     18  H   UNL     1      -2.557  -3.727   5.041  1.00  0.00     0.297 HD
ENDBRANCH  15  17
ENDBRANCH   4  15
BRANCH   5  19
ATOM     19  O   UNL     1      -0.310  -0.937   3.300  1.00  0.00    -0.507 OA
ATOM     20  H   UNL     1       0.596  -0.683   3.051  1.00  0.00     0.293 HD
ENDBRANCH   5  19
TORSDOF 4
ENDMDL
MODEL 2
REMARK VINA RESULT:    -6.785      1.355      2.800
REMARK INTER + INTRA:          -8.602
REMARK INTER:                  -8.085
REMARK INTRA:                  -0.518
REMARK UNBOUND:                -0.628
REMARK SMILES O=C(O)c1cc(-c2ccc(F)cc2F)ccc1O
REMARK SMILES IDX 6 1 5 2 15 3 4 4 17 5 16 6 7 7 13 8 12 9 8 10 10 11 9 12
REMARK SMILES IDX 14 13 11 14 2 15 1 16 3 17 18 19
REMARK H PARENT 3 18 18 20
ROOT
ATOM      1  C   UNL     1      -0.380  -1.156   7.317  1.00  0.00    -0.014 A 
ATOM      2  C   UNL     1      -0.077   0.105   6.806  1.00  0.00     0.028 A 
ATOM      3  C   UNL     1      -0.550  -2.237   6.452  1.00  0.00     0.013 A 
ATOM      4  C   UNL     1       0.056   0.287   5.429  1.00  0.00     0.102 A 
ATOM      5  C   UNL     1      -0.114  -0.794   4.564  1.00  0.00     0.130 A 
ATOM      6  C   UNL     1      -0.417  -2.057   5.076  1.00  0.00     0.048 A 
ENDROOT
BRANCH   1   7
ATOM      7  C   UNL     1      -0.520  -1.345   8.745  1.00  0.00     0.018 A 
ATOM      8  C   UNL     1      -1.561  -2.125   9.250  1.00  0.00     0.133 A 
ATOM      9  C   UNL     1      -1.692  -2.304  10.628  1.00  0.00     0.079 A 
ATOM     10  C   UNL     1       0.390  -0.747   9.617  1.00  0.00     0.015 A 
ATOM     11  C   UNL     1      -0.783  -1.705  11.499  1.00  0.00     0.126 A 
ATOM     12  C   UNL     1       0.258  -0.926  10.993  1.00  0.00     0.040 A 
ATOM     13  F   UNL     1      -2.445  -2.704   8.427  1.00  0.00    -0.206 F 
ATOM     14  F   UNL     1      -0.908  -1.876  12.821  1.00  0.00    -0.207 F 
ENDBRANCH   1   7
BRANCH   4  15
ATOM     15  C   UNL     1       0.373   1.612   4.915  1.00  0.00     0.339 C 
ATOM     16  O   UNL     1      -0.285   2.227   4.072  1.00  0.00    -0.246 OA
BRANCH  15  17
ATOM     17  O   UNL     1       1.502   2.128   5.473  1.00  0.00    -0.478 OA
ATOM     18  H   UNL     1       1.560   3.098   5.349  1.00  0.00     0.297 HD
ENDBRANCH  15  17
ENDBRANCH   4  15
BRANCH   5  19
ATOM     19  O   UNL     1       0.012  -0.638   3.216  1.00  0.00    -0.507 OA
ATOM     20  H   UNL     1      -0.492   0.146   2.938  1.00  0.00     0.293 HD
ENDBRANCH   5  19
TORSDOF 4
ENDMDL
MODEL 3
REMARK VINA RESULT:    -6.780      1.745      3.235
REMARK INTER + INTRA:          -8.597
REMARK INTER:                  -8.075
REMARK INTRA:                  -0.522
REMARK UNBOUND:                -0.628
REMARK SMILES O=C(O)c1cc(-c2ccc(F)cc2F)ccc1O
REMARK SMILES IDX 6 1 5 2 15 3 4 4 17 5 16 6 7 7 13 8 12 9 8 10 10 11 9 12
REMARK SMILES IDX 14 13 11 14 2 15 1 16 3 17 18 19
REMARK H PARENT 3 18 18 20
ROOT
ATOM      1  C   UNL     1      -0.325  -1.147   7.343  1.00  0.00    -0.014 A 
ATOM      2  C   UNL     1      -0.036   0.114   6.823  1.00  0.00     0.028 A 
ATOM      3  C   UNL     1      -0.498  -2.233   6.484  1.00  0.00     0.013 A 
ATOM      4  C   UNL     1       0.079   0.291   5.443  1.00  0.00     0.102 A 
ATOM      5  C   UNL     1      -0.094  -0.795   4.585  1.00  0.00     0.130 A 
ATOM      6  C   UNL     1      -0.383  -2.057   5.105  1.00  0.00     0.048 A 
ENDROOT
BRANCH   1   7
ATOM      7  C   UNL     1      -0.446  -1.331   8.773  1.00  0.00     0.018 A 
ATOM      8  C   UNL     1       0.459  -0.714   9.637  1.00  0.00     0.133 A 
ATOM      9  C   UNL     1       0.339  -0.894  11.016  1.00  0.00     0.079 A 
ATOM     10  C   UNL     1      -1.471  -2.125   9.286  1.00  0.00     0.015 A 
ATOM     11  C   UNL     1      -0.685  -1.689  11.529  1.00  0.00     0.126 A 
ATOM     12  C   UNL     1      -1.591  -2.304  10.664  1.00  0.00     0.040 A 
ATOM     13  F   UNL     1       1.451   0.051   9.160  1.00  0.00    -0.206 F 
ATOM     14  F   UNL     1      -0.802  -1.862  12.852  1.00  0.00    -0.207 F 
ENDBRANCH   1   7
BRANCH   4  15
ATOM     15  C   UNL     1       0.381   1.616   4.920  1.00  0.00     0.339 C 
ATOM     16  O   UNL     1      -0.287   2.220   4.077  1.00  0.00    -0.246 OA
BRANCH  15  17
ATOM     17  O   UNL     1       1.508   2.145   5.469  1.00  0.00    -0.478 OA
ATOM     18  H   UNL     1       1.392   2.342   6.422  1.00  0.00     0.297 HD
ENDBRANCH  15  17
ENDBRANCH   4  15
BRANCH   5  19
ATOM     19  O   UNL     1       0.015  -0.644   3.234  1.00  0.00    -0.507 OA
ATOM     20  H   UNL     1      -0.643   0.007   2.934  1.00  0.00     0.293 HD
ENDBRANCH   5  19
TORSDOF 4
ENDMDL
MODEL 4
REMARK VINA RESULT:    -5.389      4.374      6.704
REMARK INTER + INTRA:          -6.962
REMARK INTER:                  -5.904
REMARK INTRA:                  -1.058
REMARK UNBOUND:                -0.628
REMARK SMILES O=C(O)c1cc(-c2ccc(F)cc2F)ccc1O
REMARK SMILES IDX 6 1 5 2 15 3 4 4 17 5 16 6 7 7 13 8 12 9 8 10 10 11 9 12
REMARK SMILES IDX 14 13 11 14 2 15 1 16 3 17 18 19
REMARK H PARENT 3 18 18 20
ROOT
ATOM      1  C   UNL     1      -0.659  -1.554  10.083  1.00  0.00    -0.014 A 
ATOM      2  C   UNL     1      -1.155  -0.484  10.826  1.00  0.00     0.028 A 
ATOM      3  C   UNL     1      -0.246  -2.719  10.729  1.00  0.00     0.013 A 
ATOM      4  C   UNL     1      -1.236  -0.577  12.216  1.00  0.00     0.102 A 
ATOM      5  C   UNL     1      -0.822  -1.742  12.861  1.00  0.00     0.130 A 
ATOM      6  C   UNL     1      -0.327  -2.814  12.118  1.00  0.00     0.048 A 
ENDROOT
BRANCH   1   7
ATOM      7  C   UNL     1      -0.573  -1.458   8.641  1.00  0.00     0.018 A 
ATOM      8  C   UNL     1      -1.560  -2.034   7.841  1.00  0.00     0.133 A 
ATOM      9  C   UNL     1      -1.473  -1.938   6.451  1.00  0.00     0.079 A 
ATOM     10  C   UNL     1       0.498  -0.786   8.054  1.00  0.00     0.015 A 
ATOM     11  C   UNL     1      -0.401  -1.268   5.864  1.00  0.00     0.126 A 
ATOM     12  C   UNL     1       0.585  -0.691   6.665  1.00  0.00     0.040 A 
ATOM     13  F   UNL     1      -2.595  -2.685   8.390  1.00  0.00    -0.206 F 
ATOM     14  F   UNL     1      -0.317  -1.176   4.531  1.00  0.00    -0.207 F 
ENDBRANCH   1   7
BRANCH   4  15
ATOM     15  C   UNL     1      -1.757   0.552  12.974  1.00  0.00     0.339 C 
ATOM     16  O   UNL     1      -1.662   0.697  14.195  1.00  0.00    -0.246 OA
BRANCH  15  17
ATOM     17  O   UNL     1      -2.378   1.467  12.180  1.00  0.00    -0.478 OA
ATOM     18  H   UNL     1      -3.307   1.616  12.454  1.00  0.00     0.297 HD
ENDBRANCH  15  17
ENDBRANCH   4  15
BRANCH   5  19
ATOM     19  O   UNL     1      -0.894  -1.854  14.218  1.00  0.00    -0.507 OA
ATOM     20  H   UNL     1      -0.832  -2.793  14.463  1.00  0.00     0.293 HD
ENDBRANCH   5  19
TORSDOF 4
ENDMDL
MODEL 5
REMARK VINA RESULT:    -5.385      3.999      6.271
REMARK INTER + INTRA:          -6.957
REMARK INTER:                  -5.901
REMARK INTRA:                  -1.056
REMARK UNBOUND:                -0.628
REMARK SMILES O=C(O)c1cc(-c2ccc(F)cc2F)ccc1O
REMARK SMILES IDX 6 1 5 2 15 3 4 4 17 5 16 6 7 7 13 8 12 9 8 10 10 11 9 12
REMARK SMILES IDX 14 13 11 14 2 15 1 16 3 17 18 19
REMARK H PARENT 3 18 18 20
ROOT
ATOM      1  C   UNL     1      -0.614  -1.536  10.087  1.00  0.00    -0.014 A 
ATOM      2  C   UNL     1      -0.194  -2.715  10.702  1.00  0.00     0.028 A 
ATOM      3  C   UNL     1      -1.123  -0.490  10.856  1.00  0.00     0.013 A 
ATOM      4  C   UNL     1      -0.285  -2.849  12.088  1.00  0.00     0.102 A 
ATOM      5  C   UNL     1      -0.795  -1.803  12.858  1.00  0.00     0.130 A 
ATOM      6  C   UNL     1      -1.214  -0.623  12.241  1.00  0.00     0.048 A 
ENDROOT
BRANCH   1   7
ATOM      7  C   UNL     1      -0.521  -1.398   8.649  1.00  0.00     0.018 A 
ATOM      8  C   UNL     1      -1.494  -1.967   7.827  1.00  0.00     0.133 A 
ATOM      9  C   UNL     1      -1.401  -1.831   6.441  1.00  0.00     0.079 A 
ATOM     10  C   UNL     1       0.542  -0.692   8.087  1.00  0.00     0.015 A 
ATOM     11  C   UNL     1      -0.337  -1.126   5.879  1.00  0.00     0.126 A 
ATOM     12  C   UNL     1       0.634  -0.556   6.702  1.00  0.00     0.040 A 
ATOM     13  F   UNL     1      -2.521  -2.650   8.351  1.00  0.00    -0.206 F 
ATOM     14  F   UNL     1      -0.247  -0.995   4.549  1.00  0.00    -0.207 F 
ENDBRANCH   1   7
BRANCH   4  15
ATOM     15  C   UNL     1       0.159  -4.087  12.712  1.00  0.00     0.339 C 
ATOM     16  O   UNL     1      -0.088  -4.431  13.871  1.00  0.00    -0.246 OA
BRANCH  15  17
ATOM     17  O   UNL     1       0.896  -4.859  11.867  1.00  0.00    -0.478 OA
ATOM     18  H   UNL     1       1.218  -5.674  12.305  1.00  0.00     0.297 HD
ENDBRANCH  15  17
ENDBRANCH   4  15
BRANCH   5  19
ATOM     19  O   UNL     1      -0.891  -1.913  14.213  1.00  0.00    -0.507 OA
ATOM     20  H   UNL     1      -1.135  -1.048  14.585  1.00  0.00     0.293 HD
ENDBRANCH   5  19
TORSDOF 4
ENDMDL
MODEL 6
REMARK VINA RESULT:    -5.371      4.572      6.930
REMARK INTER + INTRA:          -6.941
REMARK INTER:                  -5.876
REMARK INTRA:                  -1.064
REMARK UNBOUND:                -0.628
REMARK SMILES O=C(O)c1cc(-c2ccc(F)cc2F)ccc1O
REMARK SMILES IDX 6 1 5 2 15 3 4 4 17 5 16 6 7 7 13 8 12 9 8 10 10 11 9 12
REMARK SMILES IDX 14 13 11 14 2 15 1 16 3 17 18 19
REMARK H PARENT 3 18 18 20
ROOT
ATOM      1  C   UNL     1      -0.514  -1.312  10.119  1.00  0.00    -0.014 A 
ATOM      2  C   UNL     1      -1.077  -0.310  10.907  1.00  0.00     0.028 A 
ATOM      3  C   UNL     1      -0.095  -2.507  10.704  1.00  0.00     0.013 A 
ATOM      4  C   UNL     1      -1.220  -0.500  12.282  1.00  0.00     0.102 A 
ATOM      5  C   UNL     1      -0.800  -1.695  12.867  1.00  0.00     0.130 A 
ATOM      6  C   UNL     1      -0.237  -2.698  12.078  1.00  0.00     0.048 A 
ENDROOT
BRANCH   1   7
ATOM      7  C   UNL     1      -0.364  -1.115   8.693  1.00  0.00     0.018 A 
ATOM      8  C   UNL     1       0.740  -0.422   8.194  1.00  0.00     0.133 A 
ATOM      9  C   UNL     1       0.880  -0.234   6.819  1.00  0.00     0.079 A 
ATOM     10  C   UNL     1      -1.326  -1.619   7.817  1.00  0.00     0.015 A 
ATOM     11  C   UNL     1      -0.082  -0.737   5.944  1.00  0.00     0.126 A 
ATOM     12  C   UNL     1      -1.184  -1.430   6.443  1.00  0.00     0.040 A 
ATOM     13  F   UNL     1       1.671   0.071   9.022  1.00  0.00    -0.206 F 
ATOM     14  F   UNL     1       0.053  -0.557   4.624  1.00  0.00    -0.207 F 
ENDBRANCH   1   7
BRANCH   4  15
ATOM     15  C   UNL     1      -1.811   0.559  13.088  1.00  0.00     0.339 C 
ATOM     16  O   UNL     1      -1.642   0.712  14.300  1.00  0.00    -0.246 OA
BRANCH  15  17
ATOM     17  O   UNL     1      -2.593   1.396  12.352  1.00  0.00    -0.478 OA
ATOM     18  H   UNL     1      -2.994   2.099  12.904  1.00  0.00     0.297 HD
ENDBRANCH  15  17
ENDBRANCH   4  15
BRANCH   5  19
ATOM     19  O   UNL     1      -0.932  -1.901  14.208  1.00  0.00    -0.507 OA
ATOM     20  H   UNL     1      -0.852  -1.048  14.670  1.00  0.00     0.293 HD
ENDBRANCH   5  19
TORSDOF 4
ENDMDL
MODEL 7
REMARK VINA RESULT:    -5.018      1.851      3.075
REMARK INTER + INTRA:          -6.525
REMARK INTER:                  -5.797
REMARK INTRA:                  -0.728
REMARK UNBOUND:                -0.628
REMARK SMILES O=C(O)c1cc(-c2ccc(F)cc2F)ccc1O
REMARK SMILES IDX 6 1 5 2 15 3 4 4 17 5 16 6 7 7 13 8 12 9 8 10 10 11 9 12
REMARK SMILES IDX 14 13 11 14 2 15 1 16 3 17 18 19
REMARK H PARENT 3 18 18 20
ROOT
ATOM      1  C   UNL     1      -0.675  -1.338   8.316  1.00  0.00    -0.014 A 
ATOM      2  C   UNL     1      -0.102  -0.181   7.789  1.00  0.00     0.028 A 
ATOM      3  C   UNL     1      -1.247  -2.282   7.464  1.00  0.00     0.013 A 
ATOM      4  C   UNL     1      -0.102   0.033   6.410  1.00  0.00     0.102 A 
ATOM      5  C   UNL     1      -0.675  -0.912   5.559  1.00  0.00     0.130 A 
ATOM      6  C   UNL     1      -1.248  -2.070   6.086  1.00  0.00     0.048 A 
ENDROOT
BRANCH   1   7
ATOM      7  C   UNL     1      -0.676  -1.559   9.746  1.00  0.00     0.018 A 
ATOM      8  C   UNL     1      -1.099  -0.549  10.611  1.00  0.00     0.133 A 
ATOM      9  C   UNL     1      -1.099  -0.766  11.989  1.00  0.00     0.079 A 
ATOM     10  C   UNL     1      -0.256  -2.786  10.259  1.00  0.00     0.015 A 
ATOM     11  C   UNL     1      -0.677  -1.993  12.502  1.00  0.00     0.126 A 
ATOM     12  C   UNL     1      -0.256  -3.002  11.636  1.00  0.00     0.040 A 
ATOM     13  F   UNL     1      -1.504   0.637  10.134  1.00  0.00    -0.206 F 
ATOM     14  F   UNL     1      -0.677  -2.202  13.824  1.00  0.00    -0.207 F 
ENDBRANCH   1   7
BRANCH   4  15
ATOM     15  C   UNL     1       0.501   1.248   5.880  1.00  0.00     0.339 C 
ATOM     16  O   UNL     1       1.603   1.697   6.204  1.00  0.00    -0.246 OA
BRANCH  15  17
ATOM     17  O   UNL     1      -0.292   1.862   4.961  1.00  0.00    -0.478 OA
ATOM     18  H   UNL     1      -1.138   2.164   5.353  1.00  0.00     0.297 HD
ENDBRANCH  15  17
ENDBRANCH   4  15
BRANCH   5  19
ATOM     19  O   UNL     1      -0.684  -0.722   4.209  1.00  0.00    -0.507 OA
ATOM     20  H   UNL     1      -1.594  -0.830   3.880  1.00  0.00     0.293 HD
ENDBRANCH   5  19
TORSDOF 4
ENDMDL
MODEL 8
REMARK VINA RESULT:    -4.890      8.232     10.510
REMARK INTER + INTRA:          -6.376
REMARK INTER:                  -5.370
REMARK INTRA:                  -1.006
REMARK UNBOUND:                -0.628
REMARK SMILES O=C(O)c1cc(-c2ccc(F)cc2F)ccc1O
REMARK SMILES IDX 6 1 5 2 15 3 4 4 17 5 16 6 7 7 13 8 12 9 8 10 10 11 9 12
REMARK SMILES IDX 14 13 11 14 2 15 1 16 3 17 18 19
REMARK H PARENT 3 18 18 20
ROOT
ATOM      1  C   UNL     1       2.731  -5.561  15.085  1.00  0.00    -0.014 A 
ATOM      2  C   UNL     1       2.713  -6.880  15.536  1.00  0.00     0.028 A 
ATOM      3  C   UNL     1       3.712  -4.681  15.542  1.00  0.00     0.013 A 
ATOM      4  C   UNL     1       3.676  -7.321  16.444  1.00  0.00     0.102 A 
ATOM      5  C   UNL     1       4.658  -6.441  16.900  1.00  0.00     0.130 A 
ATOM      6  C   UNL     1       4.676  -5.121  16.449  1.00  0.00     0.048 A 
ENDROOT
BRANCH   1   7
ATOM      7  C   UNL     1       1.731  -5.103  14.144  1.00  0.00     0.018 A 
ATOM      8  C   UNL     1       0.417  -4.896  14.564  1.00  0.00     0.133 A 
ATOM      9  C   UNL     1      -0.544  -4.454  13.654  1.00  0.00     0.079 A 
ATOM     10  C   UNL     1       2.085  -4.868  12.816  1.00  0.00     0.015 A 
ATOM     11  C   UNL     1      -0.191  -4.220  12.326  1.00  0.00     0.126 A 
ATOM     12  C   UNL     1       1.124  -4.426  11.907  1.00  0.00     0.040 A 
ATOM     13  F   UNL     1       0.060  -5.120  15.837  1.00  0.00    -0.206 F 
ATOM     14  F   UNL     1      -1.112  -3.796  11.451  1.00  0.00    -0.207 F 
ENDBRANCH   1   7
BRANCH   4  15
ATOM     15  C   UNL     1       3.640  -8.703  16.902  1.00  0.00     0.339 C 
ATOM     16  O   UNL     1       4.193  -9.133  17.917  1.00  0.00    -0.246 OA
BRANCH  15  17
ATOM     17  O   UNL     1       2.912  -9.504  16.077  1.00  0.00    -0.478 OA
ATOM     18  H   UNL     1       2.570  -9.013  15.301  1.00  0.00     0.297 HD
ENDBRANCH  15  17
ENDBRANCH   4  15
BRANCH   5  19
ATOM     19  O   UNL     1       5.608  -6.852  17.787  1.00  0.00    -0.507 OA
ATOM     20  H   UNL     1       6.383  -6.269  17.714  1.00  0.00     0.293 HD
ENDBRANCH   5  19
TORSDOF 4
ENDMDL
MODEL 9
REMARK VINA RESULT:    -4.373      5.830      8.076
REMARK INTER + INTRA:          -5.768
REMARK INTER:                  -4.696
REMARK INTRA:                  -1.072
REMARK UNBOUND:                -0.628
REMARK SMILES O=C(O)c1cc(-c2ccc(F)cc2F)ccc1O
REMARK SMILES IDX 6 1 5 2 15 3 4 4 17 5 16 6 7 7 13 8 12 9 8 10 10 11 9 12
REMARK SMILES IDX 14 13 11 14 2 15 1 16 3 17 18 19
REMARK H PARENT 3 18 18 20
ROOT
ATOM      1  C   UNL     1       0.292  -3.667  12.792  1.00  0.00    -0.014 A 
ATOM      2  C   UNL     1      -0.428  -3.681  13.986  1.00  0.00     0.028 A 
ATOM      3  C   UNL     1       1.369  -4.536  12.617  1.00  0.00     0.013 A 
ATOM      4  C   UNL     1      -0.072  -4.564  15.006  1.00  0.00     0.102 A 
ATOM      5  C   UNL     1       1.005  -5.433  14.830  1.00  0.00     0.130 A 
ATOM      6  C   UNL     1       1.726  -5.419  13.635  1.00  0.00     0.048 A 
ENDROOT
BRANCH   1   7
ATOM      7  C   UNL     1      -0.076  -2.750  11.735  1.00  0.00     0.018 A 
ATOM      8  C   UNL     1      -1.099  -3.080  10.846  1.00  0.00     0.133 A 
ATOM      9  C   UNL     1      -1.451  -2.193   9.828  1.00  0.00     0.079 A 
ATOM     10  C   UNL     1       0.595  -1.533  11.607  1.00  0.00     0.015 A 
ATOM     11  C   UNL     1      -0.780  -0.977   9.699  1.00  0.00     0.126 A 
ATOM     12  C   UNL     1       0.242  -0.648  10.589  1.00  0.00     0.040 A 
ATOM     13  F   UNL     1      -1.752  -4.246  10.954  1.00  0.00    -0.206 F 
ATOM     14  F   UNL     1      -1.117  -0.126   8.722  1.00  0.00    -0.207 F 
ENDBRANCH   1   7
BRANCH   4  15
ATOM     15  C   UNL     1      -0.837  -4.564  16.245  1.00  0.00     0.339 C 
ATOM     16  O   UNL     1      -0.541  -5.188  17.267  1.00  0.00    -0.246 OA
BRANCH  15  17
ATOM     17  O   UNL     1      -1.948  -3.782  16.168  1.00  0.00    -0.478 OA
ATOM     18  H   UNL     1      -2.558  -4.084  15.463  1.00  0.00     0.297 HD
ENDBRANCH  15  17
ENDBRANCH   4  15
BRANCH   5  19
ATOM     19  O   UNL     1       1.369  -6.305  15.814  1.00  0.00    -0.507 OA
ATOM     20  H   UNL     1       1.009  -5.993  16.662  1.00  0.00     0.293 HD
ENDBRANCH   5  19
TORSDOF 4
ENDMDL
