MODEL 1
REMARK VINA RESULT:    -5.390      0.000      0.000
REMARK INTER + INTRA:          -7.551
REMARK INTER:                  -6.650
REMARK INTRA:                  -0.901
REMARK UNBOUND:                -0.901
REMARK SMILES Cc1ccc(C(=O)c2cc(O)c(O)c([N+](=O)[O-])c2)cc1
REMARK SMILES IDX 8 1 18 2 9 3 14 4 10 5 12 6 6 7 7 8 5 9 4 10 19 11 3 12
REMARK SMILES IDX 20 13 2 14 1 15 15 16 17 17 16 18 11 19 13 21
REMARK H PARENT 11 20 13 22
ROOT
ATOM      1  C   UNL     1      -4.157   1.850   6.363  1.00  0.00     0.033 A 
ATOM      2  C   UNL     1      -2.949   2.508   6.330  1.00  0.00     0.102 A 
ATOM      3  C   UNL     1      -4.685   1.203   5.271  1.00  0.00     0.063 A 
ATOM      4  C   UNL     1      -2.227   2.517   5.136  1.00  0.00     0.315 A 
ATOM      5  C   UNL     1      -3.964   1.213   4.077  1.00  0.00     0.165 A 
ATOM      6  C   UNL     1      -2.734   1.870   4.010  1.00  0.00     0.237 A 
ENDROOT
BRANCH   1   7
ATOM      7  C   UNL     1      -4.930   1.840   7.642  1.00  0.00     0.193 C 
ATOM      8  O   UNL     1      -5.378   0.750   8.027  1.00  0.00    -0.289 OA
BRANCH   7   9
ATOM      9  C   UNL     1      -5.161   3.045   8.422  1.00  0.00     0.023 A 
ATOM     10  C   UNL     1      -6.243   3.873   8.122  1.00  0.00     0.012 A 
ATOM     11  C   UNL     1      -4.302   3.372   9.471  1.00  0.00     0.012 A 
ATOM     12  C   UNL     1      -6.465   5.029   8.871  1.00  0.00     0.004 A 
ATOM     13  C   UNL     1      -4.524   4.528  10.221  1.00  0.00     0.004 A 
ATOM     14  C   UNL     1      -5.606   5.357   9.921  1.00  0.00    -0.051 A 
ATOM     15  C   UNL     1      -5.843   6.592  10.720  1.00  0.00     0.044 C 
ENDBRANCH   7   9
ENDBRANCH   1   7
BRANCH   4  16
ATOM     16  N   UNL     1      -0.977   3.192   5.086  1.00  0.00     0.066 N 
ATOM     17  O   UNL     1      -0.232   3.162   6.095  1.00  0.00    -0.258 OA
ATOM     18  O   UNL     1      -0.655   3.795   4.036  1.00  0.00    -0.258 OA
ENDBRANCH   4  16
BRANCH   5  19
ATOM     19  O   UNL     1      -4.471   0.577   2.984  1.00  0.00    -0.504 OA
ATOM     20  H   UNL     1      -3.747   0.332   2.385  1.00  0.00     0.293 HD
ENDBRANCH   5  19
BRANCH   6  21
ATOM     21  O   UNL     1      -2.038   1.872   2.836  1.00  0.00    -0.500 OA
ATOM     22  H   UNL     1      -2.169   2.718   2.380  1.00  0.00     0.294 HD
ENDBRANCH   6  21
TORSDOF 5
ENDMDL
MODEL 2
REMARK VINA RESULT:    -5.383      2.075      3.531
REMARK INTER + INTRA:          -7.542
REMARK INTER:                  -6.642
REMARK INTRA:                  -0.900
REMARK UNBOUND:                -0.901
REMARK SMILES Cc1ccc(C(=O)c2cc(O)c(O)c([N+](=O)[O-])c2)cc1
REMARK SMILES IDX 8 1 18 2 9 3 14 4 10 5 12 6 6 7 7 8 5 9 4 10 19 11 3 12
REMARK SMILES IDX 20 13 2 14 1 15 15 16 17 17 16 18 11 19 13 21
REMARK H PARENT 11 20 13 22
ROOT
ATOM      1  C   UNL     1      -3.777   3.584   6.011  1.00  0.00     0.033 A 
ATOM      2  C   UNL     1      -4.558   2.685   5.322  1.00  0.00     0.102 A 
ATOM      3  C   UNL     1      -2.443   3.777   5.737  1.00  0.00     0.063 A 
ATOM      4  C   UNL     1      -3.972   1.938   4.300  1.00  0.00     0.315 A 
ATOM      5  C   UNL     1      -1.857   3.029   4.716  1.00  0.00     0.165 A 
ATOM      6  C   UNL     1      -2.622   2.110   3.997  1.00  0.00     0.237 A 
ENDROOT
BRANCH   1   7
ATOM      7  C   UNL     1      -4.404   4.385   7.105  1.00  0.00     0.193 C 
ATOM      8  O   UNL     1      -4.192   5.607   7.110  1.00  0.00    -0.289 OA
BRANCH   7   9
ATOM      9  C   UNL     1      -5.235   3.781   8.135  1.00  0.00     0.023 A 
ATOM     10  C   UNL     1      -4.645   3.238   9.277  1.00  0.00     0.012 A 
ATOM     11  C   UNL     1      -6.620   3.746   7.981  1.00  0.00     0.012 A 
ATOM     12  C   UNL     1      -5.442   2.659  10.264  1.00  0.00     0.004 A 
ATOM     13  C   UNL     1      -7.418   3.167   8.969  1.00  0.00     0.004 A 
ATOM     14  C   UNL     1      -6.829   2.624  10.111  1.00  0.00    -0.051 A 
ATOM     15  C   UNL     1      -7.680   2.004  11.166  1.00  0.00     0.044 C 
ENDBRANCH   7   9
ENDBRANCH   1   7
BRANCH   4  16
ATOM     16  N   UNL     1      -4.767   1.005   3.579  1.00  0.00     0.066 N 
ATOM     17  O   UNL     1      -5.964   1.290   3.337  1.00  0.00    -0.258 OA
ATOM     18  O   UNL     1      -4.248  -0.073   3.207  1.00  0.00    -0.258 OA
ENDBRANCH   4  16
BRANCH   5  19
ATOM     19  O   UNL     1      -0.537   3.208   4.430  1.00  0.00    -0.504 OA
ATOM     20  H   UNL     1      -0.287   4.130   4.608  1.00  0.00     0.293 HD
ENDBRANCH   5  19
BRANCH   6  21
ATOM     21  O   UNL     1      -2.037   1.384   3.000  1.00  0.00    -0.500 OA
ATOM     22  H   UNL     1      -2.213   1.806   2.144  1.00  0.00     0.294 HD
ENDBRANCH   6  21
TORSDOF 5
ENDMDL
MODEL 3
REMARK VINA RESULT:    -5.117      1.675      3.147
REMARK INTER + INTRA:          -7.214
REMARK INTER:                  -6.813
REMARK INTRA:                  -0.401
REMARK UNBOUND:                -0.901
REMARK SMILES Cc1ccc(C(=O)c2cc(O)c(O)c([N+](=O)[O-])c2)cc1
REMARK SMILES IDX 8 1 18 2 9 3 14 4 10 5 12 6 6 7 7 8 5 9 4 10 19 11 3 12
REMARK SMILES IDX 20 13 2 14 1 15 15 16 17 17 16 18 11 19 13 21
REMARK H PARENT 11 20 13 22
ROOT
ATOM      1  C   UNL     1      -2.485   2.208   6.284  1.00  0.00     0.033 A 
ATOM      2  C   UNL     1      -3.347   1.439   5.538  1.00  0.00     0.102 A 
ATOM      3  C   UNL     1      -1.517   3.005   5.720  1.00  0.00     0.063 A 
ATOM      4  C   UNL     1      -3.236   1.470   4.148  1.00  0.00     0.315 A 
ATOM      5  C   UNL     1      -1.405   3.036   4.330  1.00  0.00     0.165 A 
ATOM      6  C   UNL     1      -2.265   2.268   3.543  1.00  0.00     0.237 A 
ENDROOT
BRANCH   1   7
ATOM      7  C   UNL     1      -2.604   2.175   7.773  1.00  0.00     0.193 C 
ATOM      8  O   UNL     1      -1.784   1.483   8.394  1.00  0.00    -0.289 OA
BRANCH   7   9
ATOM      9  C   UNL     1      -3.630   2.916   8.490  1.00  0.00     0.023 A 
ATOM     10  C   UNL     1      -3.427   3.278   9.822  1.00  0.00     0.012 A 
ATOM     11  C   UNL     1      -4.817   3.264   7.846  1.00  0.00     0.012 A 
ATOM     12  C   UNL     1      -4.411   3.989  10.509  1.00  0.00     0.004 A 
ATOM     13  C   UNL     1      -5.802   3.975   8.533  1.00  0.00     0.004 A 
ATOM     14  C   UNL     1      -5.599   4.337   9.865  1.00  0.00    -0.051 A 
ATOM     15  C   UNL     1      -6.651   5.095  10.600  1.00  0.00     0.044 C 
ENDBRANCH   7   9
ENDBRANCH   1   7
BRANCH   4  16
ATOM     16  N   UNL     1      -4.120   0.681   3.363  1.00  0.00     0.066 N 
ATOM     17  O   UNL     1      -5.287   1.096   3.162  1.00  0.00    -0.258 OA
ATOM     18  O   UNL     1      -3.709  -0.407   2.895  1.00  0.00    -0.258 OA
ENDBRANCH   4  16
BRANCH   5  19
ATOM     19  O   UNL     1      -0.452   3.821   3.753  1.00  0.00    -0.504 OA
ATOM     20  H   UNL     1      -0.879   4.523   3.235  1.00  0.00     0.293 HD
ENDBRANCH   5  19
BRANCH   6  21
ATOM     21  O   UNL     1      -2.146   2.307   2.185  1.00  0.00    -0.500 OA
ATOM     22  H   UNL     1      -1.742   1.484   1.869  1.00  0.00     0.294 HD
ENDBRANCH   6  21
TORSDOF 5
ENDMDL
MODEL 4
REMARK VINA RESULT:    -5.093      1.788      2.202
REMARK INTER + INTRA:          -7.185
REMARK INTER:                  -6.605
REMARK INTRA:                  -0.579
REMARK UNBOUND:                -0.901
REMARK SMILES Cc1ccc(C(=O)c2cc(O)c(O)c([N+](=O)[O-])c2)cc1
REMARK SMILES IDX 8 1 18 2 9 3 14 4 10 5 12 6 6 7 7 8 5 9 4 10 19 11 3 12
REMARK SMILES IDX 20 13 2 14 1 15 15 16 17 17 16 18 11 19 13 21
REMARK H PARENT 11 20 13 22
ROOT
ATOM      1  C   UNL     1      -4.699   2.828   4.867  1.00  0.00     0.033 A 
ATOM      2  C   UNL     1      -3.475   3.452   4.942  1.00  0.00     0.102 A 
ATOM      3  C   UNL     1      -4.884   1.619   4.240  1.00  0.00     0.063 A 
ATOM      4  C   UNL     1      -2.373   2.828   4.358  1.00  0.00     0.315 A 
ATOM      5  C   UNL     1      -3.781   0.996   3.655  1.00  0.00     0.165 A 
ATOM      6  C   UNL     1      -2.525   1.601   3.714  1.00  0.00     0.237 A 
ENDROOT
BRANCH   1   7
ATOM      7  C   UNL     1      -5.880   3.496   5.493  1.00  0.00     0.193 C 
ATOM      8  O   UNL     1      -6.670   4.081   4.736  1.00  0.00    -0.289 OA
BRANCH   7   9
ATOM      9  C   UNL     1      -6.119   3.474   6.927  1.00  0.00     0.023 A 
ATOM     10  C   UNL     1      -5.080   3.158   7.802  1.00  0.00     0.012 A 
ATOM     11  C   UNL     1      -7.386   3.771   7.428  1.00  0.00     0.012 A 
ATOM     12  C   UNL     1      -5.309   3.137   9.178  1.00  0.00     0.004 A 
ATOM     13  C   UNL     1      -7.616   3.751   8.804  1.00  0.00     0.004 A 
ATOM     14  C   UNL     1      -6.577   3.434   9.679  1.00  0.00    -0.051 A 
ATOM     15  C   UNL     1      -6.821   3.411  11.150  1.00  0.00     0.044 C 
ENDBRANCH   7   9
ENDBRANCH   1   7
BRANCH   4  16
ATOM     16  N   UNL     1      -1.101   3.460   4.428  1.00  0.00     0.066 N 
ATOM     17  O   UNL     1      -0.590   3.671   5.555  1.00  0.00    -0.258 OA
ATOM     18  O   UNL     1      -0.527   3.787   3.363  1.00  0.00    -0.258 OA
ENDBRANCH   4  16
BRANCH   5  19
ATOM     19  O   UNL     1      -3.945  -0.204   3.029  1.00  0.00    -0.504 OA
ATOM     20  H   UNL     1      -3.928  -0.918   3.687  1.00  0.00     0.293 HD
ENDBRANCH   5  19
BRANCH   6  21
ATOM     21  O   UNL     1      -1.454   0.981   3.138  1.00  0.00    -0.500 OA
ATOM     22  H   UNL     1      -0.672   1.090   3.703  1.00  0.00     0.294 HD
ENDBRANCH   6  21
TORSDOF 5
ENDMDL
MODEL 5
REMARK VINA RESULT:    -4.743      4.053      7.272
REMARK INTER + INTRA:          -6.753
REMARK INTER:                  -6.157
REMARK INTRA:                  -0.596
REMARK UNBOUND:                -0.901
REMARK SMILES Cc1ccc(C(=O)c2cc(O)c(O)c([N+](=O)[O-])c2)cc1
REMARK SMILES IDX 8 1 18 2 9 3 14 4 10 5 12 6 6 7 7 8 5 9 4 10 19 11 3 12
REMARK SMILES IDX 20 13 2 14 1 15 15 16 17 17 16 18 11 19 13 21
REMARK H PARENT 11 20 13 22
ROOT
ATOM      1  C   UNL     1      -5.675   4.038   9.405  1.00  0.00     0.033 A 
ATOM      2  C   UNL     1      -6.527   3.709  10.434  1.00  0.00     0.102 A 
ATOM      3  C   UNL     1      -5.170   5.304   9.230  1.00  0.00     0.063 A 
ATOM      4  C   UNL     1      -6.893   4.703  11.341  1.00  0.00     0.315 A 
ATOM      5  C   UNL     1      -5.537   6.300  10.137  1.00  0.00     0.165 A 
ATOM      6  C   UNL     1      -6.398   5.999  11.193  1.00  0.00     0.237 A 
ENDROOT
BRANCH   1   7
ATOM      7  C   UNL     1      -5.283   2.972   8.434  1.00  0.00     0.193 C 
ATOM      8  O   UNL     1      -6.008   1.968   8.368  1.00  0.00    -0.289 OA
BRANCH   7   9
ATOM      9  C   UNL     1      -4.105   3.083   7.589  1.00  0.00     0.023 A 
ATOM     10  C   UNL     1      -2.905   2.492   7.984  1.00  0.00     0.012 A 
ATOM     11  C   UNL     1      -4.175   3.780   6.382  1.00  0.00     0.012 A 
ATOM     12  C   UNL     1      -1.775   2.599   7.173  1.00  0.00     0.004 A 
ATOM     13  C   UNL     1      -3.045   3.887   5.571  1.00  0.00     0.004 A 
ATOM     14  C   UNL     1      -1.845   3.296   5.966  1.00  0.00    -0.051 A 
ATOM     15  C   UNL     1      -0.637   3.410   5.100  1.00  0.00     0.044 C 
ENDBRANCH   7   9
ENDBRANCH   1   7
BRANCH   4  16
ATOM     16  N   UNL     1      -7.772   4.378  12.410  1.00  0.00     0.066 N 
ATOM     17  O   UNL     1      -8.020   5.250  13.277  1.00  0.00    -0.258 OA
ATOM     18  O   UNL     1      -8.273   3.230  12.455  1.00  0.00    -0.258 OA
ENDBRANCH   4  16
BRANCH   5  19
ATOM     19  O   UNL     1      -5.046   7.561   9.979  1.00  0.00    -0.504 OA
ATOM     20  H   UNL     1      -4.078   7.526   9.903  1.00  0.00     0.293 HD
ENDBRANCH   5  19
BRANCH   6  21
ATOM     21  O   UNL     1      -6.749   6.981  12.073  1.00  0.00    -0.500 OA
ATOM     22  H   UNL     1      -6.148   6.966  12.834  1.00  0.00     0.294 HD
ENDBRANCH   6  21
TORSDOF 5
ENDMDL
MODEL 6
REMARK VINA RESULT:    -4.672      1.273      2.710
REMARK INTER + INTRA:          -6.665
REMARK INTER:                  -5.880
REMARK INTRA:                  -0.785
REMARK UNBOUND:                -0.901
REMARK SMILES Cc1ccc(C(=O)c2cc(O)c(O)c([N+](=O)[O-])c2)cc1
REMARK SMILES IDX 8 1 18 2 9 3 14 4 10 5 12 6 6 7 7 8 5 9 4 10 19 11 3 12
REMARK SMILES IDX 20 13 2 14 1 15 15 16 17 17 16 18 11 19 13 21
REMARK H PARENT 11 20 13 22
ROOT
ATOM      1  C   UNL     1      -4.284   2.115   6.869  1.00  0.00     0.033 A 
ATOM      2  C   UNL     1      -4.796   1.497   5.752  1.00  0.00     0.102 A 
ATOM      3  C   UNL     1      -3.013   2.637   6.916  1.00  0.00     0.063 A 
ATOM      4  C   UNL     1      -3.992   1.398   4.616  1.00  0.00     0.315 A 
ATOM      5  C   UNL     1      -2.208   2.537   5.780  1.00  0.00     0.165 A 
ATOM      6  C   UNL     1      -2.698   1.918   4.630  1.00  0.00     0.237 A 
ENDROOT
BRANCH   1   7
ATOM      7  C   UNL     1      -5.145   2.221   8.085  1.00  0.00     0.193 C 
ATOM      8  O   UNL     1      -5.707   1.187   8.476  1.00  0.00    -0.289 OA
BRANCH   7   9
ATOM      9  C   UNL     1      -5.332   3.473   8.800  1.00  0.00     0.023 A 
ATOM     10  C   UNL     1      -6.361   4.340   8.431  1.00  0.00     0.012 A 
ATOM     11  C   UNL     1      -4.485   3.807   9.856  1.00  0.00     0.012 A 
ATOM     12  C   UNL     1      -6.541   5.541   9.117  1.00  0.00     0.004 A 
ATOM     13  C   UNL     1      -4.664   5.008  10.544  1.00  0.00     0.004 A 
ATOM     14  C   UNL     1      -5.693   5.875  10.174  1.00  0.00    -0.051 A 
ATOM     15  C   UNL     1      -5.885   7.159  10.906  1.00  0.00     0.044 C 
ENDBRANCH   7   9
ENDBRANCH   1   7
BRANCH   4  16
ATOM     16  N   UNL     1      -4.509   0.762   3.454  1.00  0.00     0.066 N 
ATOM     17  O   UNL     1      -5.544   1.226   2.919  1.00  0.00    -0.258 OA
ATOM     18  O   UNL     1      -3.914  -0.242   2.998  1.00  0.00    -0.258 OA
ENDBRANCH   4  16
BRANCH   5  19
ATOM     19  O   UNL     1      -0.946   3.050   5.808  1.00  0.00    -0.504 OA
ATOM     20  H   UNL     1      -0.392   2.585   5.160  1.00  0.00     0.293 HD
ENDBRANCH   5  19
BRANCH   6  21
ATOM     21  O   UNL     1      -1.902   1.827   3.526  1.00  0.00    -0.500 OA
ATOM     22  H   UNL     1      -1.109   2.372   3.649  1.00  0.00     0.294 HD
ENDBRANCH   6  21
TORSDOF 5
ENDMDL
MODEL 7
REMARK VINA RESULT:    -4.670      1.968      2.225
REMARK INTER + INTRA:          -6.662
REMARK INTER:                  -5.880
REMARK INTRA:                  -0.783
REMARK UNBOUND:                -0.901
REMARK SMILES Cc1ccc(C(=O)c2cc(O)c(O)c([N+](=O)[O-])c2)cc1
REMARK SMILES IDX 8 1 18 2 9 3 14 4 10 5 12 6 6 7 7 8 5 9 4 10 19 11 3 12
REMARK SMILES IDX 20 13 2 14 1 15 15 16 17 17 16 18 11 19 13 21
REMARK H PARENT 11 20 13 22
ROOT
ATOM      1  C   UNL     1      -4.183   3.619   6.408  1.00  0.00     0.033 A 
ATOM      2  C   UNL     1      -2.845   3.773   6.127  1.00  0.00     0.102 A 
ATOM      3  C   UNL     1      -5.023   2.849   5.641  1.00  0.00     0.063 A 
ATOM      4  C   UNL     1      -2.318   3.118   5.014  1.00  0.00     0.315 A 
ATOM      5  C   UNL     1      -4.497   2.194   4.527  1.00  0.00     0.165 A 
ATOM      6  C   UNL     1      -3.143   2.328   4.214  1.00  0.00     0.237 A 
ENDROOT
BRANCH   1   7
ATOM      7  C   UNL     1      -4.747   4.321   7.601  1.00  0.00     0.193 C 
ATOM      8  O   UNL     1      -4.494   5.530   7.722  1.00  0.00    -0.289 OA
BRANCH   7   9
ATOM      9  C   UNL     1      -5.563   3.640   8.593  1.00  0.00     0.023 A 
ATOM     10  C   UNL     1      -6.950   3.602   8.448  1.00  0.00     0.012 A 
ATOM     11  C   UNL     1      -4.959   3.024   9.689  1.00  0.00     0.012 A 
ATOM     12  C   UNL     1      -7.732   2.948   9.400  1.00  0.00     0.004 A 
ATOM     13  C   UNL     1      -5.741   2.370  10.641  1.00  0.00     0.004 A 
ATOM     14  C   UNL     1      -7.128   2.332  10.497  1.00  0.00    -0.051 A 
ATOM     15  C   UNL     1      -7.965   1.634  11.514  1.00  0.00     0.044 C 
ENDBRANCH   7   9
ENDBRANCH   1   7
BRANCH   4  16
ATOM     16  N   UNL     1      -0.937   3.267   4.710  1.00  0.00     0.066 N 
ATOM     17  O   UNL     1      -0.087   2.910   5.561  1.00  0.00    -0.258 OA
ATOM     18  O   UNL     1      -0.609   3.750   3.601  1.00  0.00    -0.258 OA
ENDBRANCH   4  16
BRANCH   5  19
ATOM     19  O   UNL     1      -5.315   1.425   3.755  1.00  0.00    -0.504 OA
ATOM     20  H   UNL     1      -4.889   1.256   2.898  1.00  0.00     0.293 HD
ENDBRANCH   5  19
BRANCH   6  21
ATOM     21  O   UNL     1      -2.640   1.682   3.122  1.00  0.00    -0.500 OA
ATOM     22  H   UNL     1      -3.298   1.056   2.782  1.00  0.00     0.294 HD
ENDBRANCH   6  21
TORSDOF 5
ENDMDL
MODEL 8
REMARK VINA RESULT:    -4.666      3.838      6.979
REMARK INTER + INTRA:          -6.657
REMARK INTER:                  -5.653
REMARK INTRA:                  -1.005
REMARK UNBOUND:                -0.901
REMARK SMILES Cc1ccc(C(=O)c2cc(O)c(O)c([N+](=O)[O-])c2)cc1
REMARK SMILES IDX 8 1 18 2 9 3 14 4 10 5 12 6 6 7 7 8 5 9 4 10 19 11 3 12
REMARK SMILES IDX 20 13 2 14 1 15 15 16 17 17 16 18 11 19 13 21
REMARK H PARENT 11 20 13 22
ROOT
ATOM      1  C   UNL     1      -5.211   3.516   9.572  1.00  0.00     0.033 A 
ATOM      2  C   UNL     1      -5.267   4.836   9.955  1.00  0.00     0.102 A 
ATOM      3  C   UNL     1      -6.088   2.565  10.039  1.00  0.00     0.063 A 
ATOM      4  C   UNL     1      -6.257   5.227  10.856  1.00  0.00     0.315 A 
ATOM      5  C   UNL     1      -7.078   2.957  10.940  1.00  0.00     0.165 A 
ATOM      6  C   UNL     1      -7.163   4.289  11.349  1.00  0.00     0.237 A 
ENDROOT
BRANCH   1   7
ATOM      7  C   UNL     1      -4.150   3.096   8.607  1.00  0.00     0.193 C 
ATOM      8  O   UNL     1      -2.971   3.203   8.976  1.00  0.00    -0.289 OA
BRANCH   7   9
ATOM      9  C   UNL     1      -4.460   2.579   7.284  1.00  0.00     0.023 A 
ATOM     10  C   UNL     1      -3.906   1.371   6.860  1.00  0.00     0.012 A 
ATOM     11  C   UNL     1      -5.311   3.291   6.439  1.00  0.00     0.012 A 
ATOM     12  C   UNL     1      -4.204   0.875   5.591  1.00  0.00     0.004 A 
ATOM     13  C   UNL     1      -5.609   2.795   5.169  1.00  0.00     0.004 A 
ATOM     14  C   UNL     1      -5.056   1.587   4.745  1.00  0.00    -0.051 A 
ATOM     15  C   UNL     1      -5.372   1.057   3.388  1.00  0.00     0.044 C 
ENDBRANCH   7   9
ENDBRANCH   1   7
BRANCH   4  16
ATOM     16  N   UNL     1      -6.328   6.589  11.261  1.00  0.00     0.066 N 
ATOM     17  O   UNL     1      -5.938   7.478  10.467  1.00  0.00    -0.258 OA
ATOM     18  O   UNL     1      -6.778   6.860  12.399  1.00  0.00    -0.258 OA
ENDBRANCH   4  16
BRANCH   5  19
ATOM     19  O   UNL     1      -7.957   2.029  11.413  1.00  0.00    -0.504 OA
ATOM     20  H   UNL     1      -8.473   2.411  12.142  1.00  0.00     0.293 HD
ENDBRANCH   5  19
BRANCH   6  21
ATOM     21  O   UNL     1      -8.137   4.659  12.230  1.00  0.00    -0.500 OA
ATOM     22  H   UNL     1      -7.905   4.351  13.120  1.00  0.00     0.294 HD
ENDBRANCH   6  21
TORSDOF 5
ENDMDL
MODEL 9
REMARK VINA RESULT:    -4.656      3.778      6.662
REMARK INTER + INTRA:          -6.645
REMARK INTER:                  -5.690
REMARK INTRA:                  -0.955
REMARK UNBOUND:                -0.901
REMARK SMILES Cc1ccc(C(=O)c2cc(O)c(O)c([N+](=O)[O-])c2)cc1
REMARK SMILES IDX 8 1 18 2 9 3 14 4 10 5 12 6 6 7 7 8 5 9 4 10 19 11 3 12
REMARK SMILES IDX 20 13 2 14 1 15 15 16 17 17 16 18 11 19 13 21
REMARK H PARENT 11 20 13 22
ROOT
ATOM      1  C   UNL     1      -6.419   3.702   8.622  1.00  0.00     0.033 A 
ATOM      2  C   UNL     1      -6.069   4.867   9.264  1.00  0.00     0.102 A 
ATOM      3  C   UNL     1      -7.123   2.694   9.236  1.00  0.00     0.063 A 
ATOM      4  C   UNL     1      -6.448   5.034  10.596  1.00  0.00     0.315 A 
ATOM      5  C   UNL     1      -7.501   2.860  10.569  1.00  0.00     0.165 A 
ATOM      6  C   UNL     1      -7.163   4.031  11.249  1.00  0.00     0.237 A 
ENDROOT
BRANCH   1   7
ATOM      7  C   UNL     1      -6.014   3.523   7.195  1.00  0.00     0.193 C 
ATOM      8  O   UNL     1      -6.920   3.439   6.353  1.00  0.00    -0.289 OA
BRANCH   7   9
ATOM      9  C   UNL     1      -4.621   3.447   6.784  1.00  0.00     0.023 A 
ATOM     10  C   UNL     1      -4.194   4.120   5.639  1.00  0.00     0.012 A 
ATOM     11  C   UNL     1      -3.712   2.701   7.534  1.00  0.00     0.012 A 
ATOM     12  C   UNL     1      -2.859   4.048   5.245  1.00  0.00     0.004 A 
ATOM     13  C   UNL     1      -2.375   2.628   7.140  1.00  0.00     0.004 A 
ATOM     14  C   UNL     1      -1.948   3.302   5.995  1.00  0.00    -0.051 A 
ATOM     15  C   UNL     1      -0.521   3.223   5.572  1.00  0.00     0.044 C 
ENDBRANCH   7   9
ENDBRANCH   1   7
BRANCH   4  16
ATOM     16  N   UNL     1      -6.094   6.234  11.273  1.00  0.00     0.066 N 
ATOM     17  O   UNL     1      -5.006   6.791  10.990  1.00  0.00    -0.258 OA
ATOM     18  O   UNL     1      -6.880   6.700  12.131  1.00  0.00    -0.258 OA
ENDBRANCH   4  16
BRANCH   5  19
ATOM     19  O   UNL     1      -8.200   1.872  11.194  1.00  0.00    -0.504 OA
ATOM     20  H   UNL     1      -8.629   1.307  10.530  1.00  0.00     0.293 HD
ENDBRANCH   5  19
BRANCH   6  21
ATOM     21  O   UNL     1      -7.539   4.182  12.552  1.00  0.00    -0.500 OA
ATOM     22  H   UNL     1      -6.949   4.815  12.990  1.00  0.00     0.294 HD
ENDBRANCH   6  21
TORSDOF 5
ENDMDL
