MODEL 1
REMARK VINA RESULT:    -6.581      0.000      0.000
REMARK INTER + INTRA:          -8.446
REMARK INTER:                  -7.735
REMARK INTRA:                  -0.711
REMARK UNBOUND:                -0.711
REMARK SMILES O=C(O)c1cc(-c2ccc(F)cc2F)ccc1O
REMARK SMILES IDX 6 1 5 2 15 3 4 4 17 5 16 6 7 7 13 8 12 9 8 10 10 11 9 12
REMARK SMILES IDX 14 13 11 14 2 15 1 16 3 17 18 19
REMARK H PARENT 3 18 18 20
ROOT
ATOM      1  C   UNL     1      -4.018   2.705   6.505  1.00  0.00    -0.014 A 
ATOM      2  C   UNL     1      -2.758   3.256   6.272  1.00  0.00     0.028 A 
ATOM      3  C   UNL     1      -4.531   1.743   5.635  1.00  0.00     0.013 A 
ATOM      4  C   UNL     1      -2.011   2.845   5.167  1.00  0.00     0.102 A 
ATOM      5  C   UNL     1      -2.524   1.884   4.297  1.00  0.00     0.130 A 
ATOM      6  C   UNL     1      -3.785   1.332   4.531  1.00  0.00     0.048 A 
ENDROOT
BRANCH   1   7
ATOM      7  C   UNL     1      -4.794   3.132   7.650  1.00  0.00     0.018 A 
ATOM      8  C   UNL     1      -6.102   3.586   7.479  1.00  0.00     0.133 A 
ATOM      9  C   UNL     1      -6.847   3.996   8.585  1.00  0.00     0.079 A 
ATOM     10  C   UNL     1      -4.232   3.087   8.925  1.00  0.00     0.015 A 
ATOM     11  C   UNL     1      -6.284   3.952   9.860  1.00  0.00     0.126 A 
ATOM     12  C   UNL     1      -4.977   3.497  10.030  1.00  0.00     0.040 A 
ATOM     13  F   UNL     1      -6.656   3.638   6.260  1.00  0.00    -0.206 F 
ATOM     14  F   UNL     1      -6.999   4.346  10.923  1.00  0.00    -0.207 F 
ENDBRANCH   1   7
BRANCH   4  15
ATOM     15  C   UNL     1      -0.698   3.433   4.941  1.00  0.00     0.339 C 
ATOM     16  O   UNL     1      -0.296   3.891   3.869  1.00  0.00    -0.246 OA
BRANCH  15  17
ATOM     17  O   UNL     1       0.072   3.429   6.063  1.00  0.00    -0.478 OA
ATOM     18  H   UNL     1      -0.373   3.880   6.811  1.00  0.00     0.297 HD
ENDBRANCH  15  17
ENDBRANCH   4  15
BRANCH   5  19
ATOM     19  O   UNL     1      -1.810   1.468   3.213  1.00  0.00    -0.507 OA
ATOM     20  H   UNL     1      -1.951   0.514   3.087  1.00  0.00     0.293 HD
ENDBRANCH   5  19
TORSDOF 4
ENDMDL
MODEL 2
REMARK VINA RESULT:    -6.570      1.134      1.607
REMARK INTER + INTRA:          -8.433
REMARK INTER:                  -7.746
REMARK INTRA:                  -0.688
REMARK UNBOUND:                -0.711
REMARK SMILES O=C(O)c1cc(-c2ccc(F)cc2F)ccc1O
REMARK SMILES IDX 6 1 5 2 15 3 4 4 17 5 16 6 7 7 13 8 12 9 8 10 10 11 9 12
REMARK SMILES IDX 14 13 11 14 2 15 1 16 3 17 18 19
REMARK H PARENT 3 18 18 20
ROOT
ATOM      1  C   UNL     1      -4.016   2.716   6.484  1.00  0.00    -0.014 A 
ATOM      2  C   UNL     1      -2.752   3.246   6.231  1.00  0.00     0.028 A 
ATOM      3  C   UNL     1      -4.572   1.787   5.604  1.00  0.00     0.013 A 
ATOM      4  C   UNL     1      -2.042   2.849   5.097  1.00  0.00     0.102 A 
ATOM      5  C   UNL     1      -2.598   1.920   4.218  1.00  0.00     0.130 A 
ATOM      6  C   UNL     1      -3.863   1.388   4.471  1.00  0.00     0.048 A 
ENDROOT
BRANCH   1   7
ATOM      7  C   UNL     1      -4.753   3.129   7.659  1.00  0.00     0.018 A 
ATOM      8  C   UNL     1      -4.142   3.107   8.913  1.00  0.00     0.133 A 
ATOM      9  C   UNL     1      -4.856   3.506  10.043  1.00  0.00     0.079 A 
ATOM     10  C   UNL     1      -6.077   3.550   7.535  1.00  0.00     0.015 A 
ATOM     11  C   UNL     1      -6.180   3.926   9.919  1.00  0.00     0.126 A 
ATOM     12  C   UNL     1      -6.790   3.948   8.665  1.00  0.00     0.040 A 
ATOM     13  F   UNL     1      -2.871   2.703   9.050  1.00  0.00    -0.206 F 
ATOM     14  F   UNL     1      -6.867   4.309  11.003  1.00  0.00    -0.207 F 
ENDBRANCH   1   7
BRANCH   4  15
ATOM     15  C   UNL     1      -0.723   3.414   4.851  1.00  0.00     0.339 C 
ATOM     16  O   UNL     1      -0.330   3.866   3.773  1.00  0.00    -0.246 OA
BRANCH  15  17
ATOM     17  O   UNL     1       0.063   3.399   5.962  1.00  0.00    -0.478 OA
ATOM     18  H   UNL     1       0.583   4.226   6.052  1.00  0.00     0.297 HD
ENDBRANCH  15  17
ENDBRANCH   4  15
BRANCH   5  19
ATOM     19  O   UNL     1      -1.921   1.517   3.105  1.00  0.00    -0.507 OA
ATOM     20  H   UNL     1      -1.010   1.284   3.355  1.00  0.00     0.293 HD
ENDBRANCH   5  19
TORSDOF 4
ENDMDL
MODEL 3
REMARK VINA RESULT:    -6.528      1.710      3.165
REMARK INTER + INTRA:          -8.383
REMARK INTER:                  -7.752
REMARK INTRA:                  -0.632
REMARK UNBOUND:                -0.711
REMARK SMILES O=C(O)c1cc(-c2ccc(F)cc2F)ccc1O
REMARK SMILES IDX 6 1 5 2 15 3 4 4 17 5 16 6 7 7 13 8 12 9 8 10 10 11 9 12
REMARK SMILES IDX 14 13 11 14 2 15 1 16 3 17 18 19
REMARK H PARENT 3 18 18 20
ROOT
ATOM      1  C   UNL     1      -4.028   2.852   6.319  1.00  0.00    -0.014 A 
ATOM      2  C   UNL     1      -4.635   1.974   5.421  1.00  0.00     0.028 A 
ATOM      3  C   UNL     1      -2.767   3.377   6.036  1.00  0.00     0.013 A 
ATOM      4  C   UNL     1      -3.981   1.620   4.241  1.00  0.00     0.102 A 
ATOM      5  C   UNL     1      -2.720   2.145   3.958  1.00  0.00     0.130 A 
ATOM      6  C   UNL     1      -2.112   3.023   4.857  1.00  0.00     0.048 A 
ENDROOT
BRANCH   1   7
ATOM      7  C   UNL     1      -4.705   3.219   7.544  1.00  0.00     0.018 A 
ATOM      8  C   UNL     1      -4.045   3.111   8.768  1.00  0.00     0.133 A 
ATOM      9  C   UNL     1      -4.701   3.466   9.947  1.00  0.00     0.079 A 
ATOM     10  C   UNL     1      -6.020   3.681   7.498  1.00  0.00     0.015 A 
ATOM     11  C   UNL     1      -6.017   3.927   9.902  1.00  0.00     0.126 A 
ATOM     12  C   UNL     1      -6.676   4.035   8.677  1.00  0.00     0.040 A 
ATOM     13  F   UNL     1      -2.782   2.667   8.829  1.00  0.00    -0.206 F 
ATOM     14  F   UNL     1      -6.647   4.267  11.033  1.00  0.00    -0.207 F 
ENDBRANCH   1   7
BRANCH   4  15
ATOM     15  C   UNL     1      -4.632   0.702   3.316  1.00  0.00     0.339 C 
ATOM     16  O   UNL     1      -4.148  -0.352   2.898  1.00  0.00    -0.246 OA
BRANCH  15  17
ATOM     17  O   UNL     1      -5.869   1.131   2.945  1.00  0.00    -0.478 OA
ATOM     18  H   UNL     1      -5.821   1.905   2.345  1.00  0.00     0.297 HD
ENDBRANCH  15  17
ENDBRANCH   4  15
BRANCH   5  19
ATOM     19  O   UNL     1      -2.064   1.812   2.810  1.00  0.00    -0.507 OA
ATOM     20  H   UNL     1      -1.137   1.605   3.023  1.00  0.00     0.293 HD
ENDBRANCH   5  19
TORSDOF 4
ENDMDL
MODEL 4
REMARK VINA RESULT:    -6.527      1.283      2.733
REMARK INTER + INTRA:          -8.382
REMARK INTER:                  -7.765
REMARK INTRA:                  -0.617
REMARK UNBOUND:                -0.711
REMARK SMILES O=C(O)c1cc(-c2ccc(F)cc2F)ccc1O
REMARK SMILES IDX 6 1 5 2 15 3 4 4 17 5 16 6 7 7 13 8 12 9 8 10 10 11 9 12
REMARK SMILES IDX 14 13 11 14 2 15 1 16 3 17 18 19
REMARK H PARENT 3 18 18 20
ROOT
ATOM      1  C   UNL     1      -4.086   2.860   6.315  1.00  0.00    -0.014 A 
ATOM      2  C   UNL     1      -4.677   1.980   5.409  1.00  0.00     0.028 A 
ATOM      3  C   UNL     1      -2.820   3.384   6.055  1.00  0.00     0.013 A 
ATOM      4  C   UNL     1      -4.002   1.624   4.241  1.00  0.00     0.102 A 
ATOM      5  C   UNL     1      -2.736   2.148   3.981  1.00  0.00     0.130 A 
ATOM      6  C   UNL     1      -2.145   3.029   4.888  1.00  0.00     0.048 A 
ENDROOT
BRANCH   1   7
ATOM      7  C   UNL     1      -4.786   3.229   7.527  1.00  0.00     0.018 A 
ATOM      8  C   UNL     1      -6.117   3.642   7.470  1.00  0.00     0.133 A 
ATOM      9  C   UNL     1      -6.787   3.997   8.641  1.00  0.00     0.079 A 
ATOM     10  C   UNL     1      -4.126   3.170   8.755  1.00  0.00     0.015 A 
ATOM     11  C   UNL     1      -6.127   3.939   9.868  1.00  0.00     0.126 A 
ATOM     12  C   UNL     1      -4.797   3.525   9.924  1.00  0.00     0.040 A 
ATOM     13  F   UNL     1      -6.765   3.707   6.298  1.00  0.00    -0.206 F 
ATOM     14  F   UNL     1      -6.770   4.280  10.992  1.00  0.00    -0.207 F 
ENDBRANCH   1   7
BRANCH   4  15
ATOM     15  C   UNL     1      -4.636   0.704   3.307  1.00  0.00     0.339 C 
ATOM     16  O   UNL     1      -4.139  -0.345   2.890  1.00  0.00    -0.246 OA
BRANCH  15  17
ATOM     17  O   UNL     1      -5.873   1.123   2.926  1.00  0.00    -0.478 OA
ATOM     18  H   UNL     1      -6.237   0.573   2.201  1.00  0.00     0.297 HD
ENDBRANCH  15  17
ENDBRANCH   4  15
BRANCH   5  19
ATOM     19  O   UNL     1      -2.060   1.813   2.845  1.00  0.00    -0.507 OA
ATOM     20  H   UNL     1      -1.262   2.366   2.776  1.00  0.00     0.293 HD
ENDBRANCH   5  19
TORSDOF 4
ENDMDL
MODEL 5
REMARK VINA RESULT:    -5.301      4.191      6.508
REMARK INTER + INTRA:          -6.941
REMARK INTER:                  -5.856
REMARK INTRA:                  -1.086
REMARK UNBOUND:                -0.711
REMARK SMILES O=C(O)c1cc(-c2ccc(F)cc2F)ccc1O
REMARK SMILES IDX 6 1 5 2 15 3 4 4 17 5 16 6 7 7 13 8 12 9 8 10 10 11 9 12
REMARK SMILES IDX 14 13 11 14 2 15 1 16 3 17 18 19
REMARK H PARENT 3 18 18 20
ROOT
ATOM      1  C   UNL     1      -5.383   3.470   8.649  1.00  0.00    -0.014 A 
ATOM      2  C   UNL     1      -5.346   4.759   9.179  1.00  0.00     0.028 A 
ATOM      3  C   UNL     1      -6.134   2.478   9.281  1.00  0.00     0.013 A 
ATOM      4  C   UNL     1      -6.060   5.058  10.340  1.00  0.00     0.102 A 
ATOM      5  C   UNL     1      -6.811   4.067  10.971  1.00  0.00     0.130 A 
ATOM      6  C   UNL     1      -6.848   2.776  10.441  1.00  0.00     0.048 A 
ENDROOT
BRANCH   1   7
ATOM      7  C   UNL     1      -4.642   3.159   7.446  1.00  0.00     0.018 A 
ATOM      8  C   UNL     1      -3.322   2.716   7.531  1.00  0.00     0.133 A 
ATOM      9  C   UNL     1      -2.611   2.417   6.369  1.00  0.00     0.079 A 
ATOM     10  C   UNL     1      -5.251   3.301   6.200  1.00  0.00     0.015 A 
ATOM     11  C   UNL     1      -3.220   2.561   5.122  1.00  0.00     0.126 A 
ATOM     12  C   UNL     1      -4.540   3.002   5.038  1.00  0.00     0.040 A 
ATOM     13  F   UNL     1      -2.721   2.576   8.721  1.00  0.00    -0.206 F 
ATOM     14  F   UNL     1      -2.538   2.274   4.006  1.00  0.00    -0.207 F 
ENDBRANCH   1   7
BRANCH   4  15
ATOM     15  C   UNL     1      -6.008   6.411  10.876  1.00  0.00     0.339 C 
ATOM     16  O   UNL     1      -6.676   6.829  11.825  1.00  0.00    -0.246 OA
BRANCH  15  17
ATOM     17  O   UNL     1      -5.121   7.199  10.210  1.00  0.00    -0.478 OA
ATOM     18  H   UNL     1      -5.442   8.122  10.128  1.00  0.00     0.297 HD
ENDBRANCH  15  17
ENDBRANCH   4  15
BRANCH   5  19
ATOM     19  O   UNL     1      -7.516   4.338  12.106  1.00  0.00    -0.507 OA
ATOM     20  H   UNL     1      -7.684   5.295  12.153  1.00  0.00     0.293 HD
ENDBRANCH   5  19
TORSDOF 4
ENDMDL
MODEL 6
REMARK VINA RESULT:    -5.296      4.494      6.884
REMARK INTER + INTRA:          -6.935
REMARK INTER:                  -5.850
REMARK INTRA:                  -1.085
REMARK UNBOUND:                -0.711
REMARK SMILES O=C(O)c1cc(-c2ccc(F)cc2F)ccc1O
REMARK SMILES IDX 6 1 5 2 15 3 4 4 17 5 16 6 7 7 13 8 12 9 8 10 10 11 9 12
REMARK SMILES IDX 14 13 11 14 2 15 1 16 3 17 18 19
REMARK H PARENT 3 18 18 20
ROOT
ATOM      1  C   UNL     1      -5.349   3.621   8.629  1.00  0.00    -0.014 A 
ATOM      2  C   UNL     1      -6.153   2.744   9.357  1.00  0.00     0.028 A 
ATOM      3  C   UNL     1      -5.216   4.948   9.038  1.00  0.00     0.013 A 
ATOM      4  C   UNL     1      -6.826   3.194  10.493  1.00  0.00     0.102 A 
ATOM      5  C   UNL     1      -6.693   4.521  10.902  1.00  0.00     0.130 A 
ATOM      6  C   UNL     1      -5.888   5.399  10.174  1.00  0.00     0.048 A 
ENDROOT
BRANCH   1   7
ATOM      7  C   UNL     1      -4.652   3.155   7.450  1.00  0.00     0.018 A 
ATOM      8  C   UNL     1      -3.356   2.649   7.556  1.00  0.00     0.133 A 
ATOM      9  C   UNL     1      -2.688   2.201   6.416  1.00  0.00     0.079 A 
ATOM     10  C   UNL     1      -5.279   3.213   6.205  1.00  0.00     0.015 A 
ATOM     11  C   UNL     1      -3.314   2.260   5.172  1.00  0.00     0.126 A 
ATOM     12  C   UNL     1      -4.610   2.765   5.067  1.00  0.00     0.040 A 
ATOM     13  F   UNL     1      -2.738   2.589   8.744  1.00  0.00    -0.206 F 
ATOM     14  F   UNL     1      -2.673   1.830   4.077  1.00  0.00    -0.207 F 
ENDBRANCH   1   7
BRANCH   4  15
ATOM     15  C   UNL     1      -7.660   2.263  11.239  1.00  0.00     0.339 C 
ATOM     16  O   UNL     1      -8.173   2.487  12.338  1.00  0.00    -0.246 OA
BRANCH  15  17
ATOM     17  O   UNL     1      -7.829   1.081  10.586  1.00  0.00    -0.478 OA
ATOM     18  H   UNL     1      -7.297   0.363  10.988  1.00  0.00     0.297 HD
ENDBRANCH  15  17
ENDBRANCH   4  15
BRANCH   5  19
ATOM     19  O   UNL     1      -7.342   4.980  12.010  1.00  0.00    -0.507 OA
ATOM     20  H   UNL     1      -6.749   5.577  12.499  1.00  0.00     0.293 HD
ENDBRANCH   5  19
TORSDOF 4
ENDMDL
MODEL 7
REMARK VINA RESULT:    -5.164      1.646      2.014
REMARK INTER + INTRA:          -6.780
REMARK INTER:                  -5.753
REMARK INTRA:                  -1.028
REMARK UNBOUND:                -0.711
REMARK SMILES O=C(O)c1cc(-c2ccc(F)cc2F)ccc1O
REMARK SMILES IDX 6 1 5 2 15 3 4 4 17 5 16 6 7 7 13 8 12 9 8 10 10 11 9 12
REMARK SMILES IDX 14 13 11 14 2 15 1 16 3 17 18 19
REMARK H PARENT 3 18 18 20
ROOT
ATOM      1  C   UNL     1      -4.924   3.406   7.424  1.00  0.00    -0.014 A 
ATOM      2  C   UNL     1      -3.541   3.233   7.450  1.00  0.00     0.028 A 
ATOM      3  C   UNL     1      -5.605   3.404   6.207  1.00  0.00     0.013 A 
ATOM      4  C   UNL     1      -2.837   3.058   6.258  1.00  0.00     0.102 A 
ATOM      5  C   UNL     1      -3.518   3.055   5.041  1.00  0.00     0.130 A 
ATOM      6  C   UNL     1      -4.902   3.228   5.015  1.00  0.00     0.048 A 
ENDROOT
BRANCH   1   7
ATOM      7  C   UNL     1      -5.654   3.590   8.660  1.00  0.00     0.018 A 
ATOM      8  C   UNL     1      -5.602   4.813   9.330  1.00  0.00     0.133 A 
ATOM      9  C   UNL     1      -6.308   4.986  10.521  1.00  0.00     0.079 A 
ATOM     10  C   UNL     1      -6.411   2.541   9.181  1.00  0.00     0.015 A 
ATOM     11  C   UNL     1      -7.064   3.937  11.042  1.00  0.00     0.126 A 
ATOM     12  C   UNL     1      -7.116   2.714  10.372  1.00  0.00     0.040 A 
ATOM     13  F   UNL     1      -4.877   5.830   8.844  1.00  0.00    -0.206 F 
ATOM     14  F   UNL     1      -7.741   4.101  12.186  1.00  0.00    -0.207 F 
ENDBRANCH   1   7
BRANCH   4  15
ATOM     15  C   UNL     1      -1.392   2.878   6.306  1.00  0.00     0.339 C 
ATOM     16  O   UNL     1      -0.629   2.973   5.342  1.00  0.00    -0.246 OA
BRANCH  15  17
ATOM     17  O   UNL     1      -0.948   2.587   7.559  1.00  0.00    -0.478 OA
ATOM     18  H   UNL     1      -1.429   1.828   7.949  1.00  0.00     0.297 HD
ENDBRANCH  15  17
ENDBRANCH   4  15
BRANCH   5  19
ATOM     19  O   UNL     1      -2.849   2.885   3.865  1.00  0.00    -0.507 OA
ATOM     20  H   UNL     1      -3.495   2.773   3.146  1.00  0.00     0.293 HD
ENDBRANCH   5  19
TORSDOF 4
ENDMDL
MODEL 8
REMARK VINA RESULT:    -4.340      2.064      2.975
REMARK INTER + INTRA:          -5.812
REMARK INTER:                  -4.752
REMARK INTRA:                  -1.060
REMARK UNBOUND:                -0.711
REMARK SMILES O=C(O)c1cc(-c2ccc(F)cc2F)ccc1O
REMARK SMILES IDX 6 1 5 2 15 3 4 4 17 5 16 6 7 7 13 8 12 9 8 10 10 11 9 12
REMARK SMILES IDX 14 13 11 14 2 15 1 16 3 17 18 19
REMARK H PARENT 3 18 18 20
ROOT
ATOM      1  C   UNL     1      -4.335   3.209   8.519  1.00  0.00    -0.014 A 
ATOM      2  C   UNL     1      -4.503   3.652   7.208  1.00  0.00     0.028 A 
ATOM      3  C   UNL     1      -3.141   2.595   8.900  1.00  0.00     0.013 A 
ATOM      4  C   UNL     1      -3.478   3.483   6.277  1.00  0.00     0.102 A 
ATOM      5  C   UNL     1      -2.285   2.869   6.657  1.00  0.00     0.130 A 
ATOM      6  C   UNL     1      -2.116   2.425   7.970  1.00  0.00     0.048 A 
ENDROOT
BRANCH   1   7
ATOM      7  C   UNL     1      -5.398   3.383   9.485  1.00  0.00     0.018 A 
ATOM      8  C   UNL     1      -5.566   4.610  10.128  1.00  0.00     0.133 A 
ATOM      9  C   UNL     1      -6.592   4.774  11.059  1.00  0.00     0.079 A 
ATOM     10  C   UNL     1      -6.255   2.321   9.773  1.00  0.00     0.015 A 
ATOM     11  C   UNL     1      -7.449   3.712  11.347  1.00  0.00     0.126 A 
ATOM     12  C   UNL     1      -7.281   2.486  10.703  1.00  0.00     0.040 A 
ATOM     13  F   UNL     1      -4.749   5.639   9.865  1.00  0.00    -0.206 F 
ATOM     14  F   UNL     1      -8.434   3.868  12.240  1.00  0.00    -0.207 F 
ENDBRANCH   1   7
BRANCH   4  15
ATOM     15  C   UNL     1      -3.674   3.954   4.913  1.00  0.00     0.339 C 
ATOM     16  O   UNL     1      -2.776   4.158   4.092  1.00  0.00    -0.246 OA
BRANCH  15  17
ATOM     17  O   UNL     1      -4.987   4.153   4.616  1.00  0.00    -0.478 OA
ATOM     18  H   UNL     1      -5.387   3.369   4.184  1.00  0.00     0.297 HD
ENDBRANCH  15  17
ENDBRANCH   4  15
BRANCH   5  19
ATOM     19  O   UNL     1      -1.271   2.695   5.763  1.00  0.00    -0.507 OA
ATOM     20  H   UNL     1      -0.659   3.448   5.827  1.00  0.00     0.293 HD
ENDBRANCH   5  19
TORSDOF 4
ENDMDL
MODEL 9
REMARK VINA RESULT:    -4.048      5.751      8.183
REMARK INTER + INTRA:          -5.469
REMARK INTER:                  -4.453
REMARK INTRA:                  -1.016
REMARK UNBOUND:                -0.711
REMARK SMILES O=C(O)c1cc(-c2ccc(F)cc2F)ccc1O
REMARK SMILES IDX 6 1 5 2 15 3 4 4 17 5 16 6 7 7 13 8 12 9 8 10 10 11 9 12
REMARK SMILES IDX 14 13 11 14 2 15 1 16 3 17 18 19
REMARK H PARENT 3 18 18 20
ROOT
ATOM      1  C   UNL     1      -6.111   6.214  10.627  1.00  0.00    -0.014 A 
ATOM      2  C   UNL     1      -6.491   6.037  11.957  1.00  0.00     0.028 A 
ATOM      3  C   UNL     1      -6.017   7.499  10.094  1.00  0.00     0.013 A 
ATOM      4  C   UNL     1      -6.779   7.145  12.754  1.00  0.00     0.102 A 
ATOM      5  C   UNL     1      -6.685   8.430  12.221  1.00  0.00     0.130 A 
ATOM      6  C   UNL     1      -6.304   8.607  10.890  1.00  0.00     0.048 A 
ENDROOT
BRANCH   1   7
ATOM      7  C   UNL     1      -5.814   5.064   9.800  1.00  0.00     0.018 A 
ATOM      8  C   UNL     1      -4.584   4.415   9.918  1.00  0.00     0.133 A 
ATOM      9  C   UNL     1      -4.302   3.308   9.117  1.00  0.00     0.079 A 
ATOM     10  C   UNL     1      -6.760   4.606   8.884  1.00  0.00     0.015 A 
ATOM     11  C   UNL     1      -5.248   2.850   8.201  1.00  0.00     0.126 A 
ATOM     12  C   UNL     1      -6.477   3.499   8.085  1.00  0.00     0.040 A 
ATOM     13  F   UNL     1      -3.663   4.845  10.791  1.00  0.00    -0.206 F 
ATOM     14  F   UNL     1      -4.978   1.787   7.433  1.00  0.00    -0.207 F 
ENDBRANCH   1   7
BRANCH   4  15
ATOM     15  C   UNL     1      -7.174   6.939  14.140  1.00  0.00     0.339 C 
ATOM     16  O   UNL     1      -8.006   7.613  14.753  1.00  0.00    -0.246 OA
BRANCH  15  17
ATOM     17  O   UNL     1      -6.519   5.895  14.717  1.00  0.00    -0.478 OA
ATOM     18  H   UNL     1      -6.973   5.581  15.527  1.00  0.00     0.297 HD
ENDBRANCH  15  17
ENDBRANCH   4  15
BRANCH   5  19
ATOM     19  O   UNL     1      -6.961   9.527  12.983  1.00  0.00    -0.507 OA
ATOM     20  H   UNL     1      -6.866  10.325  12.436  1.00  0.00     0.293 HD
ENDBRANCH   5  19
TORSDOF 4
ENDMDL
