MODEL 1
REMARK VINA RESULT:    -6.493      0.000      0.000
REMARK INTER + INTRA:          -8.326
REMARK INTER:                  -7.632
REMARK INTRA:                  -0.694
REMARK UNBOUND:                -0.694
REMARK SMILES O=C(O)c1cc(-c2ccc(F)cc2F)ccc1O
REMARK SMILES IDX 6 1 5 2 15 3 4 4 17 5 16 6 7 7 13 8 12 9 8 10 10 11 9 12
REMARK SMILES IDX 14 13 11 14 2 15 1 16 3 17 18 19
REMARK H PARENT 3 18 18 20
ROOT
ATOM      1  C   UNL     1       5.079  -2.994   6.293  1.00  0.00    -0.014 A 
ATOM      2  C   UNL     1       4.421  -3.905   5.467  1.00  0.00     0.028 A 
ATOM      3  C   UNL     1       5.095  -1.639   5.964  1.00  0.00     0.013 A 
ATOM      4  C   UNL     1       3.779  -3.461   4.311  1.00  0.00     0.102 A 
ATOM      5  C   UNL     1       3.795  -2.105   3.982  1.00  0.00     0.130 A 
ATOM      6  C   UNL     1       4.453  -1.194   4.809  1.00  0.00     0.048 A 
ENDROOT
BRANCH   1   7
ATOM      7  C   UNL     1       5.747  -3.455   7.492  1.00  0.00     0.018 A 
ATOM      8  C   UNL     1       7.081  -3.120   7.722  1.00  0.00     0.133 A 
ATOM      9  C   UNL     1       7.721  -3.566   8.879  1.00  0.00     0.079 A 
ATOM     10  C   UNL     1       5.052  -4.234   8.417  1.00  0.00     0.015 A 
ATOM     11  C   UNL     1       7.027  -4.346   9.804  1.00  0.00     0.126 A 
ATOM     12  C   UNL     1       5.693  -4.679   9.573  1.00  0.00     0.040 A 
ATOM     13  F   UNL     1       7.763  -2.374   6.842  1.00  0.00    -0.206 F 
ATOM     14  F   UNL     1       7.641  -4.774  10.914  1.00  0.00    -0.207 F 
ENDBRANCH   1   7
BRANCH   4  15
ATOM     15  C   UNL     1       3.097  -4.427   3.461  1.00  0.00     0.339 C 
ATOM     16  O   UNL     1       3.233  -4.525   2.239  1.00  0.00    -0.246 OA
BRANCH  15  17
ATOM     17  O   UNL     1       2.267  -5.243   4.167  1.00  0.00    -0.478 OA
ATOM     18  H   UNL     1       1.380  -4.844   4.289  1.00  0.00     0.297 HD
ENDBRANCH  15  17
ENDBRANCH   4  15
BRANCH   5  19
ATOM     19  O   UNL     1       3.173  -1.651   2.857  1.00  0.00    -0.507 OA
ATOM     20  H   UNL     1       3.834  -1.536   2.153  1.00  0.00     0.293 HD
ENDBRANCH   5  19
TORSDOF 4
ENDMDL
MODEL 2
REMARK VINA RESULT:    -6.463      1.355      2.796
REMARK INTER + INTRA:          -8.290
REMARK INTER:                  -7.622
REMARK INTRA:                  -0.668
REMARK UNBOUND:                -0.694
REMARK SMILES O=C(O)c1cc(-c2ccc(F)cc2F)ccc1O
REMARK SMILES IDX 6 1 5 2 15 3 4 4 17 5 16 6 7 7 13 8 12 9 8 10 10 11 9 12
REMARK SMILES IDX 14 13 11 14 2 15 1 16 3 17 18 19
REMARK H PARENT 3 18 18 20
ROOT
ATOM      1  C   UNL     1       5.280  -2.940   6.179  1.00  0.00    -0.014 A 
ATOM      2  C   UNL     1       5.419  -1.585   5.880  1.00  0.00     0.028 A 
ATOM      3  C   UNL     1       4.607  -3.784   5.295  1.00  0.00     0.013 A 
ATOM      4  C   UNL     1       4.884  -1.073   4.698  1.00  0.00     0.102 A 
ATOM      5  C   UNL     1       4.211  -1.916   3.814  1.00  0.00     0.130 A 
ATOM      6  C   UNL     1       4.072  -3.272   4.113  1.00  0.00     0.048 A 
ENDROOT
BRANCH   1   7
ATOM      7  C   UNL     1       5.833  -3.472   7.406  1.00  0.00     0.018 A 
ATOM      8  C   UNL     1       7.151  -3.184   7.763  1.00  0.00     0.133 A 
ATOM      9  C   UNL     1       7.680  -3.699   8.946  1.00  0.00     0.079 A 
ATOM     10  C   UNL     1       5.046  -4.274   8.232  1.00  0.00     0.015 A 
ATOM     11  C   UNL     1       6.893  -4.501   9.772  1.00  0.00     0.126 A 
ATOM     12  C   UNL     1       5.575  -4.788   9.414  1.00  0.00     0.040 A 
ATOM     13  F   UNL     1       7.922  -2.418   6.979  1.00  0.00    -0.206 F 
ATOM     14  F   UNL     1       7.400  -4.996  10.908  1.00  0.00    -0.207 F 
ENDBRANCH   1   7
BRANCH   4  15
ATOM     15  C   UNL     1       5.040   0.345   4.405  1.00  0.00     0.339 C 
ATOM     16  O   UNL     1       4.139   1.099   4.029  1.00  0.00    -0.246 OA
BRANCH  15  17
ATOM     17  O   UNL     1       6.317   0.776   4.592  1.00  0.00    -0.478 OA
ATOM     18  H   UNL     1       6.848   0.131   5.104  1.00  0.00     0.297 HD
ENDBRANCH  15  17
ENDBRANCH   4  15
BRANCH   5  19
ATOM     19  O   UNL     1       3.682  -1.435   2.654  1.00  0.00    -0.507 OA
ATOM     20  H   UNL     1       4.395  -1.049   2.116  1.00  0.00     0.293 HD
ENDBRANCH   5  19
TORSDOF 4
ENDMDL
MODEL 3
REMARK VINA RESULT:    -6.425      1.144      1.613
REMARK INTER + INTRA:          -8.246
REMARK INTER:                  -7.640
REMARK INTRA:                  -0.606
REMARK UNBOUND:                -0.694
REMARK SMILES O=C(O)c1cc(-c2ccc(F)cc2F)ccc1O
REMARK SMILES IDX 6 1 5 2 15 3 4 4 17 5 16 6 7 7 13 8 12 9 8 10 10 11 9 12
REMARK SMILES IDX 14 13 11 14 2 15 1 16 3 17 18 19
REMARK H PARENT 3 18 18 20
ROOT
ATOM      1  C   UNL     1       5.098  -2.939   6.231  1.00  0.00    -0.014 A 
ATOM      2  C   UNL     1       4.398  -3.796   5.383  1.00  0.00     0.028 A 
ATOM      3  C   UNL     1       5.216  -1.586   5.913  1.00  0.00     0.013 A 
ATOM      4  C   UNL     1       3.816  -3.301   4.216  1.00  0.00     0.102 A 
ATOM      5  C   UNL     1       3.934  -1.949   3.897  1.00  0.00     0.130 A 
ATOM      6  C   UNL     1       4.635  -1.090   4.746  1.00  0.00     0.048 A 
ENDROOT
BRANCH   1   7
ATOM      7  C   UNL     1       5.703  -3.451   7.442  1.00  0.00     0.018 A 
ATOM      8  C   UNL     1       4.968  -4.269   8.301  1.00  0.00     0.133 A 
ATOM      9  C   UNL     1       5.555  -4.761   9.467  1.00  0.00     0.079 A 
ATOM     10  C   UNL     1       7.025  -3.127   7.748  1.00  0.00     0.015 A 
ATOM     11  C   UNL     1       6.876  -4.436   9.773  1.00  0.00     0.126 A 
ATOM     12  C   UNL     1       7.611  -3.620   8.913  1.00  0.00     0.040 A 
ATOM     13  F   UNL     1       3.696  -4.588   8.022  1.00  0.00    -0.206 F 
ATOM     14  F   UNL     1       7.440  -4.908  10.892  1.00  0.00    -0.207 F 
ENDBRANCH   1   7
BRANCH   4  15
ATOM     15  C   UNL     1       3.089  -4.213   3.344  1.00  0.00     0.339 C 
ATOM     16  O   UNL     1       3.306  -4.376   2.141  1.00  0.00    -0.246 OA
BRANCH  15  17
ATOM     17  O   UNL     1       2.114  -4.895   4.004  1.00  0.00    -0.478 OA
ATOM     18  H   UNL     1       1.755  -5.631   3.465  1.00  0.00     0.297 HD
ENDBRANCH  15  17
ENDBRANCH   4  15
BRANCH   5  19
ATOM     19  O   UNL     1       3.372  -1.445   2.762  1.00  0.00    -0.507 OA
ATOM     20  H   UNL     1       3.955  -1.638   2.007  1.00  0.00     0.293 HD
ENDBRANCH   5  19
TORSDOF 4
ENDMDL
MODEL 4
REMARK VINA RESULT:    -5.352      1.736      2.925
REMARK INTER + INTRA:          -6.985
REMARK INTER:                  -6.075
REMARK INTRA:                  -0.910
REMARK UNBOUND:                -0.694
REMARK SMILES O=C(O)c1cc(-c2ccc(F)cc2F)ccc1O
REMARK SMILES IDX 6 1 5 2 15 3 4 4 17 5 16 6 7 7 13 8 12 9 8 10 10 11 9 12
REMARK SMILES IDX 14 13 11 14 2 15 1 16 3 17 18 19
REMARK H PARENT 3 18 18 20
ROOT
ATOM      1  C   UNL     1       5.221  -3.072   7.073  1.00  0.00    -0.014 A 
ATOM      2  C   UNL     1       5.582  -1.864   6.477  1.00  0.00     0.028 A 
ATOM      3  C   UNL     1       4.210  -3.852   6.511  1.00  0.00     0.013 A 
ATOM      4  C   UNL     1       4.931  -1.435   5.319  1.00  0.00     0.102 A 
ATOM      5  C   UNL     1       3.921  -2.215   4.758  1.00  0.00     0.130 A 
ATOM      6  C   UNL     1       3.560  -3.424   5.354  1.00  0.00     0.048 A 
ENDROOT
BRANCH   1   7
ATOM      7  C   UNL     1       5.894  -3.516   8.274  1.00  0.00     0.018 A 
ATOM      8  C   UNL     1       6.632  -4.700   8.266  1.00  0.00     0.133 A 
ATOM      9  C   UNL     1       7.279  -5.126   9.427  1.00  0.00     0.079 A 
ATOM     10  C   UNL     1       5.804  -2.758   9.441  1.00  0.00     0.015 A 
ATOM     11  C   UNL     1       7.188  -4.368  10.594  1.00  0.00     0.126 A 
ATOM     12  C   UNL     1       6.451  -3.184  10.600  1.00  0.00     0.040 A 
ATOM     13  F   UNL     1       6.726  -5.442   7.154  1.00  0.00    -0.206 F 
ATOM     14  F   UNL     1       7.809  -4.775  11.708  1.00  0.00    -0.207 F 
ENDBRANCH   1   7
BRANCH   4  15
ATOM     15  C   UNL     1       5.323  -0.171   4.712  1.00  0.00     0.339 C 
ATOM     16  O   UNL     1       6.478   0.255   4.633  1.00  0.00    -0.246 OA
BRANCH  15  17
ATOM     17  O   UNL     1       4.259   0.520   4.221  1.00  0.00    -0.478 OA
ATOM     18  H   UNL     1       4.265   1.456   4.514  1.00  0.00     0.297 HD
ENDBRANCH  15  17
ENDBRANCH   4  15
BRANCH   5  19
ATOM     19  O   UNL     1       3.273  -1.815   3.627  1.00  0.00    -0.507 OA
ATOM     20  H   UNL     1       2.511  -1.264   3.876  1.00  0.00     0.293 HD
ENDBRANCH   5  19
TORSDOF 4
ENDMDL
MODEL 5
REMARK VINA RESULT:    -5.218      4.521      6.898
REMARK INTER + INTRA:          -6.827
REMARK INTER:                  -5.744
REMARK INTRA:                  -1.083
REMARK UNBOUND:                -0.694
REMARK SMILES O=C(O)c1cc(-c2ccc(F)cc2F)ccc1O
REMARK SMILES IDX 6 1 5 2 15 3 4 4 17 5 16 6 7 7 13 8 12 9 8 10 10 11 9 12
REMARK SMILES IDX 14 13 11 14 2 15 1 16 3 17 18 19
REMARK H PARENT 3 18 18 20
ROOT
ATOM      1  C   UNL     1       6.319  -4.025   8.460  1.00  0.00    -0.014 A 
ATOM      2  C   UNL     1       6.359  -3.285   9.641  1.00  0.00     0.028 A 
ATOM      3  C   UNL     1       6.889  -5.297   8.414  1.00  0.00     0.013 A 
ATOM      4  C   UNL     1       6.968  -3.817  10.778  1.00  0.00     0.102 A 
ATOM      5  C   UNL     1       7.538  -5.090  10.732  1.00  0.00     0.130 A 
ATOM      6  C   UNL     1       7.498  -5.830   9.550  1.00  0.00     0.048 A 
ENDROOT
BRANCH   1   7
ATOM      7  C   UNL     1       5.689  -3.473   7.280  1.00  0.00     0.018 A 
ATOM      8  C   UNL     1       4.339  -3.718   7.027  1.00  0.00     0.133 A 
ATOM      9  C   UNL     1       3.735  -3.184   5.889  1.00  0.00     0.079 A 
ATOM     10  C   UNL     1       6.433  -2.693   6.395  1.00  0.00     0.015 A 
ATOM     11  C   UNL     1       4.480  -2.405   5.004  1.00  0.00     0.126 A 
ATOM     12  C   UNL     1       5.829  -2.159   5.258  1.00  0.00     0.040 A 
ATOM     13  F   UNL     1       3.609  -4.468   7.866  1.00  0.00    -0.206 F 
ATOM     14  F   UNL     1       3.901  -1.892   3.911  1.00  0.00    -0.207 F 
ENDBRANCH   1   7
BRANCH   4  15
ATOM     15  C   UNL     1       6.999  -3.029  12.002  1.00  0.00     0.339 C 
ATOM     16  O   UNL     1       7.260  -3.466  13.125  1.00  0.00    -0.246 OA
BRANCH  15  17
ATOM     17  O   UNL     1       6.703  -1.719  11.782  1.00  0.00    -0.478 OA
ATOM     18  H   UNL     1       7.346  -1.297  11.175  1.00  0.00     0.297 HD
ENDBRANCH  15  17
ENDBRANCH   4  15
BRANCH   5  19
ATOM     19  O   UNL     1       8.137  -5.629  11.831  1.00  0.00    -0.507 OA
ATOM     20  H   UNL     1       7.545  -6.295  12.221  1.00  0.00     0.293 HD
ENDBRANCH   5  19
TORSDOF 4
ENDMDL
MODEL 6
REMARK VINA RESULT:    -5.152      4.215      6.455
REMARK INTER + INTRA:          -6.750
REMARK INTER:                  -5.661
REMARK INTRA:                  -1.089
REMARK UNBOUND:                -0.694
REMARK SMILES O=C(O)c1cc(-c2ccc(F)cc2F)ccc1O
REMARK SMILES IDX 6 1 5 2 15 3 4 4 17 5 16 6 7 7 13 8 12 9 8 10 10 11 9 12
REMARK SMILES IDX 14 13 11 14 2 15 1 16 3 17 18 19
REMARK H PARENT 3 18 18 20
ROOT
ATOM      1  C   UNL     1       6.312  -4.001   8.460  1.00  0.00    -0.014 A 
ATOM      2  C   UNL     1       6.896  -5.267   8.427  1.00  0.00     0.028 A 
ATOM      3  C   UNL     1       6.339  -3.251   9.635  1.00  0.00     0.013 A 
ATOM      4  C   UNL     1       7.507  -5.783   9.570  1.00  0.00     0.102 A 
ATOM      5  C   UNL     1       7.534  -5.033  10.745  1.00  0.00     0.130 A 
ATOM      6  C   UNL     1       6.950  -3.766  10.778  1.00  0.00     0.048 A 
ENDROOT
BRANCH   1   7
ATOM      7  C   UNL     1       5.676  -3.465   7.275  1.00  0.00     0.018 A 
ATOM      8  C   UNL     1       4.328  -3.723   7.026  1.00  0.00     0.133 A 
ATOM      9  C   UNL     1       3.720  -3.205   5.882  1.00  0.00     0.079 A 
ATOM     10  C   UNL     1       6.415  -2.689   6.382  1.00  0.00     0.015 A 
ATOM     11  C   UNL     1       4.458  -2.430   4.989  1.00  0.00     0.126 A 
ATOM     12  C   UNL     1       5.806  -2.171   5.240  1.00  0.00     0.040 A 
ATOM     13  F   UNL     1       3.605  -4.470   7.872  1.00  0.00    -0.206 F 
ATOM     14  F   UNL     1       3.875  -1.932   3.891  1.00  0.00    -0.207 F 
ENDBRANCH   1   7
BRANCH   4  15
ATOM     15  C   UNL     1       8.111  -7.107   9.515  1.00  0.00     0.339 C 
ATOM     16  O   UNL     1       8.755  -7.559   8.565  1.00  0.00    -0.246 OA
BRANCH  15  17
ATOM     17  O   UNL     1       7.893  -7.824  10.651  1.00  0.00    -0.478 OA
ATOM     18  H   UNL     1       7.230  -7.394  11.232  1.00  0.00     0.297 HD
ENDBRANCH  15  17
ENDBRANCH   4  15
BRANCH   5  19
ATOM     19  O   UNL     1       8.126  -5.519  11.873  1.00  0.00    -0.507 OA
ATOM     20  H   UNL     1       7.437  -5.758  12.516  1.00  0.00     0.293 HD
ENDBRANCH   5  19
TORSDOF 4
ENDMDL
MODEL 7
REMARK VINA RESULT:    -4.678      1.670      2.263
REMARK INTER + INTRA:          -6.193
REMARK INTER:                  -5.228
REMARK INTRA:                  -0.965
REMARK UNBOUND:                -0.694
REMARK SMILES O=C(O)c1cc(-c2ccc(F)cc2F)ccc1O
REMARK SMILES IDX 6 1 5 2 15 3 4 4 17 5 16 6 7 7 13 8 12 9 8 10 10 11 9 12
REMARK SMILES IDX 14 13 11 14 2 15 1 16 3 17 18 19
REMARK H PARENT 3 18 18 20
ROOT
ATOM      1  C   UNL     1       6.243  -3.409   7.464  1.00  0.00    -0.014 A 
ATOM      2  C   UNL     1       5.082  -3.982   6.946  1.00  0.00     0.028 A 
ATOM      3  C   UNL     1       6.990  -2.523   6.687  1.00  0.00     0.013 A 
ATOM      4  C   UNL     1       4.668  -3.671   5.651  1.00  0.00     0.102 A 
ATOM      5  C   UNL     1       5.415  -2.785   4.874  1.00  0.00     0.130 A 
ATOM      6  C   UNL     1       6.576  -2.211   5.392  1.00  0.00     0.048 A 
ENDROOT
BRANCH   1   7
ATOM      7  C   UNL     1       6.674  -3.733   8.807  1.00  0.00     0.018 A 
ATOM      8  C   UNL     1       7.212  -4.990   9.085  1.00  0.00     0.133 A 
ATOM      9  C   UNL     1       7.627  -5.298  10.381  1.00  0.00     0.079 A 
ATOM     10  C   UNL     1       6.552  -2.785   9.822  1.00  0.00     0.015 A 
ATOM     11  C   UNL     1       7.504  -4.351  11.397  1.00  0.00     0.126 A 
ATOM     12  C   UNL     1       6.967  -3.094  11.117  1.00  0.00     0.040 A 
ATOM     13  F   UNL     1       7.334  -5.913   8.121  1.00  0.00    -0.206 F 
ATOM     14  F   UNL     1       7.901  -4.646  12.641  1.00  0.00    -0.207 F 
ENDBRANCH   1   7
BRANCH   4  15
ATOM     15  C   UNL     1       3.452  -4.280   5.128  1.00  0.00     0.339 C 
ATOM     16  O   UNL     1       2.446  -4.546   5.790  1.00  0.00    -0.246 OA
BRANCH  15  17
ATOM     17  O   UNL     1       3.533  -4.535   3.794  1.00  0.00    -0.478 OA
ATOM     18  H   UNL     1       2.658  -4.467   3.356  1.00  0.00     0.297 HD
ENDBRANCH  15  17
ENDBRANCH   4  15
BRANCH   5  19
ATOM     19  O   UNL     1       5.027  -2.467   3.606  1.00  0.00    -0.507 OA
ATOM     20  H   UNL     1       4.260  -1.869   3.650  1.00  0.00     0.293 HD
ENDBRANCH   5  19
TORSDOF 4
ENDMDL
MODEL 8
REMARK VINA RESULT:    -4.348      6.031      8.505
REMARK INTER + INTRA:          -5.805
REMARK INTER:                  -5.210
REMARK INTRA:                  -0.595
REMARK UNBOUND:                -0.694
REMARK SMILES O=C(O)c1cc(-c2ccc(F)cc2F)ccc1O
REMARK SMILES IDX 6 1 5 2 15 3 4 4 17 5 16 6 7 7 13 8 12 9 8 10 10 11 9 12
REMARK SMILES IDX 14 13 11 14 2 15 1 16 3 17 18 19
REMARK H PARENT 3 18 18 20
ROOT
ATOM      1  C   UNL     1       8.166  -6.825  10.399  1.00  0.00    -0.014 A 
ATOM      2  C   UNL     1       7.995  -7.206  11.729  1.00  0.00     0.028 A 
ATOM      3  C   UNL     1       9.009  -7.561   9.565  1.00  0.00     0.013 A 
ATOM      4  C   UNL     1       8.666  -8.324  12.227  1.00  0.00     0.102 A 
ATOM      5  C   UNL     1       9.508  -9.059  11.393  1.00  0.00     0.130 A 
ATOM      6  C   UNL     1       9.680  -8.678  10.062  1.00  0.00     0.048 A 
ENDROOT
BRANCH   1   7
ATOM      7  C   UNL     1       7.471  -5.666   9.882  1.00  0.00     0.018 A 
ATOM      8  C   UNL     1       7.312  -4.532  10.679  1.00  0.00     0.133 A 
ATOM      9  C   UNL     1       6.641  -3.416  10.177  1.00  0.00     0.079 A 
ATOM     10  C   UNL     1       6.962  -5.683   8.584  1.00  0.00     0.015 A 
ATOM     11  C   UNL     1       6.131  -3.434   8.879  1.00  0.00     0.126 A 
ATOM     12  C   UNL     1       6.293  -4.568   8.083  1.00  0.00     0.040 A 
ATOM     13  F   UNL     1       7.793  -4.500  11.930  1.00  0.00    -0.206 F 
ATOM     14  F   UNL     1       5.488  -2.364   8.397  1.00  0.00    -0.207 F 
ENDBRANCH   1   7
BRANCH   4  15
ATOM     15  C   UNL     1       8.473  -8.705  13.619  1.00  0.00     0.339 C 
ATOM     16  O   UNL     1       9.088  -9.599  14.205  1.00  0.00    -0.246 OA
BRANCH  15  17
ATOM     17  O   UNL     1       7.519  -7.956  14.234  1.00  0.00    -0.478 OA
ATOM     18  H   UNL     1       7.315  -8.291  15.133  1.00  0.00     0.297 HD
ENDBRANCH  15  17
ENDBRANCH   4  15
BRANCH   5  19
ATOM     19  O   UNL     1      10.173 -10.155  11.860  1.00  0.00    -0.507 OA
ATOM     20  H   UNL     1       9.591 -10.644  12.467  1.00  0.00     0.293 HD
ENDBRANCH   5  19
TORSDOF 4
ENDMDL
MODEL 9
REMARK VINA RESULT:    -4.345      6.370      8.813
REMARK INTER + INTRA:          -5.801
REMARK INTER:                  -5.214
REMARK INTRA:                  -0.587
REMARK UNBOUND:                -0.694
REMARK SMILES O=C(O)c1cc(-c2ccc(F)cc2F)ccc1O
REMARK SMILES IDX 6 1 5 2 15 3 4 4 17 5 16 6 7 7 13 8 12 9 8 10 10 11 9 12
REMARK SMILES IDX 14 13 11 14 2 15 1 16 3 17 18 19
REMARK H PARENT 3 18 18 20
ROOT
ATOM      1  C   UNL     1       7.201  -3.323  12.311  1.00  0.00    -0.014 A 
ATOM      2  C   UNL     1       8.337  -3.766  12.986  1.00  0.00     0.028 A 
ATOM      3  C   UNL     1       6.276  -2.507  12.964  1.00  0.00     0.013 A 
ATOM      4  C   UNL     1       8.550  -3.394  14.314  1.00  0.00     0.102 A 
ATOM      5  C   UNL     1       7.626  -2.578  14.966  1.00  0.00     0.130 A 
ATOM      6  C   UNL     1       6.488  -2.135  14.290  1.00  0.00     0.048 A 
ENDROOT
BRANCH   1   7
ATOM      7  C   UNL     1       6.978  -3.710  10.935  1.00  0.00     0.018 A 
ATOM      8  C   UNL     1       7.311  -4.995  10.506  1.00  0.00     0.133 A 
ATOM      9  C   UNL     1       7.095  -5.364   9.178  1.00  0.00     0.079 A 
ATOM     10  C   UNL     1       6.430  -2.795  10.037  1.00  0.00     0.015 A 
ATOM     11  C   UNL     1       6.547  -4.449   8.280  1.00  0.00     0.126 A 
ATOM     12  C   UNL     1       6.214  -3.164   8.710  1.00  0.00     0.040 A 
ATOM     13  F   UNL     1       7.842  -5.886  11.356  1.00  0.00    -0.206 F 
ATOM     14  F   UNL     1       6.340  -4.802   7.005  1.00  0.00    -0.207 F 
ENDBRANCH   1   7
BRANCH   4  15
ATOM     15  C   UNL     1       9.744  -3.867  15.001  1.00  0.00     0.339 C 
ATOM     16  O   UNL     1       9.983  -3.718  16.202  1.00  0.00    -0.246 OA
BRANCH  15  17
ATOM     17  O   UNL     1      10.602  -4.513  14.165  1.00  0.00    -0.478 OA
ATOM     18  H   UNL     1      11.152  -3.885  13.651  1.00  0.00     0.297 HD
ENDBRANCH  15  17
ENDBRANCH   4  15
BRANCH   5  19
ATOM     19  O   UNL     1       7.815  -2.203  16.263  1.00  0.00    -0.507 OA
ATOM     20  H   UNL     1       6.952  -2.009  16.666  1.00  0.00     0.293 HD
ENDBRANCH   5  19
TORSDOF 4
ENDMDL
