MODEL 1
REMARK VINA RESULT:    -5.257      0.000      0.000
REMARK INTER + INTRA:          -7.380
REMARK INTER:                  -6.486
REMARK INTRA:                  -0.894
REMARK UNBOUND:                -0.894
REMARK SMILES Cc1ccc(C(=O)c2cc(O)c(O)c([N+](=O)[O-])c2)cc1
REMARK SMILES IDX 8 1 18 2 9 3 14 4 10 5 12 6 6 7 7 8 5 9 4 10 19 11 3 12
REMARK SMILES IDX 20 13 2 14 1 15 15 16 17 17 16 18 11 19 13 21
REMARK H PARENT 11 20 13 22
ROOT
ATOM      1  C   UNL     1       4.699  -2.179   6.465  1.00  0.00     0.033 A 
ATOM      2  C   UNL     1       4.125  -3.239   5.802  1.00  0.00     0.102 A 
ATOM      3  C   UNL     1       4.922  -0.960   5.871  1.00  0.00     0.063 A 
ATOM      4  C   UNL     1       3.753  -3.069   4.469  1.00  0.00     0.315 A 
ATOM      5  C   UNL     1       4.550  -0.789   4.537  1.00  0.00     0.165 A 
ATOM      6  C   UNL     1       3.965  -1.844   3.836  1.00  0.00     0.237 A 
ENDROOT
BRANCH   1   7
ATOM      7  C   UNL     1       5.098  -2.361   7.893  1.00  0.00     0.193 C 
ATOM      8  O   UNL     1       4.768  -1.473   8.694  1.00  0.00    -0.289 OA
BRANCH   7   9
ATOM      9  C   UNL     1       5.843  -3.522   8.353  1.00  0.00     0.023 A 
ATOM     10  C   UNL     1       7.236  -3.529   8.283  1.00  0.00     0.012 A 
ATOM     11  C   UNL     1       5.165  -4.629   8.863  1.00  0.00     0.012 A 
ATOM     12  C   UNL     1       7.950  -4.643   8.724  1.00  0.00     0.004 A 
ATOM     13  C   UNL     1       5.879  -5.743   9.305  1.00  0.00     0.004 A 
ATOM     14  C   UNL     1       7.272  -5.751   9.235  1.00  0.00    -0.051 A 
ATOM     15  C   UNL     1       8.036  -6.941   9.705  1.00  0.00     0.044 C 
ENDBRANCH   7   9
ENDBRANCH   1   7
BRANCH   4  16
ATOM     16  N   UNL     1       3.158  -4.155   3.770  1.00  0.00     0.066 N 
ATOM     17  O   UNL     1       3.426  -4.314   2.555  1.00  0.00    -0.258 OA
ATOM     18  O   UNL     1       2.385  -4.923   4.389  1.00  0.00    -0.258 OA
ENDBRANCH   4  16
BRANCH   5  19
ATOM     19  O   UNL     1       4.763   0.413   3.932  1.00  0.00    -0.504 OA
ATOM     20  H   UNL     1       4.118   0.535   3.216  1.00  0.00     0.293 HD
ENDBRANCH   5  19
BRANCH   6  21
ATOM     21  O   UNL     1       3.605  -1.665   2.532  1.00  0.00    -0.500 OA
ATOM     22  H   UNL     1       3.780  -0.749   2.268  1.00  0.00     0.294 HD
ENDBRANCH   6  21
TORSDOF 5
ENDMDL
MODEL 2
REMARK VINA RESULT:    -5.218      2.075      3.511
REMARK INTER + INTRA:          -7.333
REMARK INTER:                  -6.450
REMARK INTRA:                  -0.883
REMARK UNBOUND:                -0.894
REMARK SMILES Cc1ccc(C(=O)c2cc(O)c(O)c([N+](=O)[O-])c2)cc1
REMARK SMILES IDX 8 1 18 2 9 3 14 4 10 5 12 6 6 7 7 8 5 9 4 10 19 11 3 12
REMARK SMILES IDX 20 13 2 14 1 15 15 16 17 17 16 18 11 19 13 21
REMARK H PARENT 11 20 13 22
ROOT
ATOM      1  C   UNL     1       5.481  -3.563   5.507  1.00  0.00     0.033 A 
ATOM      2  C   UNL     1       5.710  -2.208   5.455  1.00  0.00     0.102 A 
ATOM      3  C   UNL     1       4.578  -4.200   4.690  1.00  0.00     0.063 A 
ATOM      4  C   UNL     1       4.994  -1.446   4.531  1.00  0.00     0.315 A 
ATOM      5  C   UNL     1       3.861  -3.439   3.767  1.00  0.00     0.165 A 
ATOM      6  C   UNL     1       4.070  -2.061   3.687  1.00  0.00     0.237 A 
ENDROOT
BRANCH   1   7
ATOM      7  C   UNL     1       6.248  -4.379   6.497  1.00  0.00     0.193 C 
ATOM      8  O   UNL     1       6.761  -5.432   6.090  1.00  0.00    -0.289 OA
BRANCH   7   9
ATOM      9  C   UNL     1       6.402  -3.977   7.886  1.00  0.00     0.023 A 
ATOM     10  C   UNL     1       5.434  -4.330   8.826  1.00  0.00     0.012 A 
ATOM     11  C   UNL     1       7.519  -3.239   8.279  1.00  0.00     0.012 A 
ATOM     12  C   UNL     1       5.582  -3.945  10.158  1.00  0.00     0.004 A 
ATOM     13  C   UNL     1       7.668  -2.854   9.612  1.00  0.00     0.004 A 
ATOM     14  C   UNL     1       6.699  -3.207  10.552  1.00  0.00    -0.051 A 
ATOM     15  C   UNL     1       6.856  -2.794  11.975  1.00  0.00     0.044 C 
ENDBRANCH   7   9
ENDBRANCH   1   7
BRANCH   4  16
ATOM     16  N   UNL     1       5.220  -0.044   4.464  1.00  0.00     0.066 N 
ATOM     17  O   UNL     1       6.385   0.391   4.629  1.00  0.00    -0.258 OA
ATOM     18  O   UNL     1       4.249   0.716   4.242  1.00  0.00    -0.258 OA
ENDBRANCH   4  16
BRANCH   5  19
ATOM     19  O   UNL     1       2.962  -4.053   2.948  1.00  0.00    -0.504 OA
ATOM     20  H   UNL     1       3.419  -4.711   2.399  1.00  0.00     0.293 HD
ENDBRANCH   5  19
BRANCH   6  21
ATOM     21  O   UNL     1       3.364  -1.327   2.779  1.00  0.00    -0.500 OA
ATOM     22  H   UNL     1       2.415  -1.410   2.960  1.00  0.00     0.294 HD
ENDBRANCH   6  21
TORSDOF 5
ENDMDL
MODEL 3
REMARK VINA RESULT:    -4.850      1.682      2.953
REMARK INTER + INTRA:          -6.878
REMARK INTER:                  -6.321
REMARK INTRA:                  -0.557
REMARK UNBOUND:                -0.894
REMARK SMILES Cc1ccc(C(=O)c2cc(O)c(O)c([N+](=O)[O-])c2)cc1
REMARK SMILES IDX 8 1 18 2 9 3 14 4 10 5 12 6 6 7 7 8 5 9 4 10 19 11 3 12
REMARK SMILES IDX 20 13 2 14 1 15 15 16 17 17 16 18 11 19 13 21
REMARK H PARENT 11 20 13 22
ROOT
ATOM      1  C   UNL     1       3.669  -3.221   5.782  1.00  0.00     0.033 A 
ATOM      2  C   UNL     1       4.027  -1.894   5.741  1.00  0.00     0.102 A 
ATOM      3  C   UNL     1       3.462  -3.974   4.650  1.00  0.00     0.063 A 
ATOM      4  C   UNL     1       4.189  -1.285   4.497  1.00  0.00     0.315 A 
ATOM      5  C   UNL     1       3.623  -3.365   3.406  1.00  0.00     0.165 A 
ATOM      6  C   UNL     1       3.987  -2.020   3.329  1.00  0.00     0.237 A 
ENDROOT
BRANCH   1   7
ATOM      7  C   UNL     1       3.495  -3.874   7.115  1.00  0.00     0.193 C 
ATOM      8  O   UNL     1       2.334  -4.081   7.500  1.00  0.00    -0.289 OA
BRANCH   7   9
ATOM      9  C   UNL     1       4.623  -4.261   7.946  1.00  0.00     0.023 A 
ATOM     10  C   UNL     1       5.868  -3.662   7.755  1.00  0.00     0.012 A 
ATOM     11  C   UNL     1       4.461  -5.231   8.935  1.00  0.00     0.012 A 
ATOM     12  C   UNL     1       6.950  -4.033   8.553  1.00  0.00     0.004 A 
ATOM     13  C   UNL     1       5.543  -5.602   9.734  1.00  0.00     0.004 A 
ATOM     14  C   UNL     1       6.788  -5.003   9.543  1.00  0.00    -0.051 A 
ATOM     15  C   UNL     1       7.945  -5.400  10.395  1.00  0.00     0.044 C 
ENDBRANCH   7   9
ENDBRANCH   1   7
BRANCH   4  16
ATOM     16  N   UNL     1       4.560   0.087   4.438  1.00  0.00     0.066 N 
ATOM     17  O   UNL     1       3.798   0.896   3.857  1.00  0.00    -0.258 OA
ATOM     18  O   UNL     1       5.636   0.446   4.970  1.00  0.00    -0.258 OA
ENDBRANCH   4  16
BRANCH   5  19
ATOM     19  O   UNL     1       3.423  -4.095   2.273  1.00  0.00    -0.504 OA
ATOM     20  H   UNL     1       3.212  -5.013   2.511  1.00  0.00     0.293 HD
ENDBRANCH   5  19
BRANCH   6  21
ATOM     21  O   UNL     1       4.143  -1.435   2.105  1.00  0.00    -0.500 OA
ATOM     22  H   UNL     1       5.069  -1.176   1.983  1.00  0.00     0.294 HD
ENDBRANCH   6  21
TORSDOF 5
ENDMDL
MODEL 4
REMARK VINA RESULT:    -4.804      1.746      2.020
REMARK INTER + INTRA:          -6.821
REMARK INTER:                  -6.298
REMARK INTRA:                  -0.523
REMARK UNBOUND:                -0.894
REMARK SMILES Cc1ccc(C(=O)c2cc(O)c(O)c([N+](=O)[O-])c2)cc1
REMARK SMILES IDX 8 1 18 2 9 3 14 4 10 5 12 6 6 7 7 8 5 9 4 10 19 11 3 12
REMARK SMILES IDX 20 13 2 14 1 15 15 16 17 17 16 18 11 19 13 21
REMARK H PARENT 11 20 13 22
ROOT
ATOM      1  C   UNL     1       5.995  -2.080   5.099  1.00  0.00     0.033 A 
ATOM      2  C   UNL     1       5.341  -3.156   4.545  1.00  0.00     0.102 A 
ATOM      3  C   UNL     1       5.574  -0.783   4.930  1.00  0.00     0.063 A 
ATOM      4  C   UNL     1       4.200  -2.920   3.779  1.00  0.00     0.315 A 
ATOM      5  C   UNL     1       4.433  -0.547   4.163  1.00  0.00     0.165 A 
ATOM      6  C   UNL     1       3.745  -1.616   3.587  1.00  0.00     0.237 A 
ENDROOT
BRANCH   1   7
ATOM      7  C   UNL     1       7.218  -2.333   5.920  1.00  0.00     0.193 C 
ATOM      8  O   UNL     1       8.314  -2.073   5.402  1.00  0.00    -0.289 OA
BRANCH   7   9
ATOM      9  C   UNL     1       7.153  -2.860   7.273  1.00  0.00     0.023 A 
ATOM     10  C   UNL     1       8.191  -2.608   8.171  1.00  0.00     0.012 A 
ATOM     11  C   UNL     1       6.053  -3.619   7.675  1.00  0.00     0.012 A 
ATOM     12  C   UNL     1       8.128  -3.114   9.469  1.00  0.00     0.004 A 
ATOM     13  C   UNL     1       5.990  -4.125   8.973  1.00  0.00     0.004 A 
ATOM     14  C   UNL     1       7.028  -3.873   9.871  1.00  0.00    -0.051 A 
ATOM     15  C   UNL     1       6.962  -4.415  11.258  1.00  0.00     0.044 C 
ENDBRANCH   7   9
ENDBRANCH   1   7
BRANCH   4  16
ATOM     16  N   UNL     1       3.513  -4.023   3.200  1.00  0.00     0.066 N 
ATOM     17  O   UNL     1       3.005  -4.885   3.956  1.00  0.00    -0.258 OA
ATOM     18  O   UNL     1       3.434  -4.100   1.951  1.00  0.00    -0.258 OA
ENDBRANCH   4  16
BRANCH   5  19
ATOM     19  O   UNL     1       4.000   0.733   3.985  1.00  0.00    -0.504 OA
ATOM     20  H   UNL     1       3.199   0.882   4.514  1.00  0.00     0.293 HD
ENDBRANCH   5  19
BRANCH   6  21
ATOM     21  O   UNL     1       2.630  -1.372   2.840  1.00  0.00    -0.500 OA
ATOM     22  H   UNL     1       2.237  -0.526   3.106  1.00  0.00     0.294 HD
ENDBRANCH   6  21
TORSDOF 5
ENDMDL
MODEL 5
REMARK VINA RESULT:    -4.753      3.981      7.129
REMARK INTER + INTRA:          -6.759
REMARK INTER:                  -6.048
REMARK INTRA:                  -0.711
REMARK UNBOUND:                -0.894
REMARK SMILES Cc1ccc(C(=O)c2cc(O)c(O)c([N+](=O)[O-])c2)cc1
REMARK SMILES IDX 8 1 18 2 9 3 14 4 10 5 12 6 6 7 7 8 5 9 4 10 19 11 3 12
REMARK SMILES IDX 20 13 2 14 1 15 15 16 17 17 16 18 11 19 13 21
REMARK H PARENT 11 20 13 22
ROOT
ATOM      1  C   UNL     1       6.721  -4.107   9.244  1.00  0.00     0.033 A 
ATOM      2  C   UNL     1       7.280  -5.207   9.852  1.00  0.00     0.102 A 
ATOM      3  C   UNL     1       6.476  -2.929   9.909  1.00  0.00     0.063 A 
ATOM      4  C   UNL     1       7.615  -5.122  11.204  1.00  0.00     0.315 A 
ATOM      5  C   UNL     1       6.810  -2.845  11.261  1.00  0.00     0.165 A 
ATOM      6  C   UNL     1       7.381  -3.942  11.908  1.00  0.00     0.237 A 
ENDROOT
BRANCH   1   7
ATOM      7  C   UNL     1       6.362  -4.197   7.796  1.00  0.00     0.193 C 
ATOM      8  O   UNL     1       6.290  -5.331   7.297  1.00  0.00    -0.289 OA
BRANCH   7   9
ATOM      9  C   UNL     1       6.103  -3.021   6.982  1.00  0.00     0.023 A 
ATOM     10  C   UNL     1       7.128  -2.459   6.221  1.00  0.00     0.012 A 
ATOM     11  C   UNL     1       4.829  -2.453   6.962  1.00  0.00     0.012 A 
ATOM     12  C   UNL     1       6.879  -1.330   5.440  1.00  0.00     0.004 A 
ATOM     13  C   UNL     1       4.579  -1.324   6.181  1.00  0.00     0.004 A 
ATOM     14  C   UNL     1       5.604  -0.763   5.420  1.00  0.00    -0.051 A 
ATOM     15  C   UNL     1       5.339   0.444   4.586  1.00  0.00     0.044 C 
ENDBRANCH   7   9
ENDBRANCH   1   7
BRANCH   4  16
ATOM     16  N   UNL     1       8.195  -6.250  11.847  1.00  0.00     0.066 N 
ATOM     17  O   UNL     1       8.800  -7.100  11.150  1.00  0.00    -0.258 OA
ATOM     18  O   UNL     1       8.085  -6.362  13.090  1.00  0.00    -0.258 OA
ENDBRANCH   4  16
BRANCH   5  19
ATOM     19  O   UNL     1       6.576  -1.685  11.936  1.00  0.00    -0.504 OA
ATOM     20  H   UNL     1       7.421  -1.258  12.152  1.00  0.00     0.293 HD
ENDBRANCH   5  19
BRANCH   6  21
ATOM     21  O   UNL     1       7.704  -3.847  13.231  1.00  0.00    -0.500 OA
ATOM     22  H   UNL     1       7.253  -4.547  13.728  1.00  0.00     0.294 HD
ENDBRANCH   6  21
TORSDOF 5
ENDMDL
MODEL 6
REMARK VINA RESULT:    -4.699      4.059      7.283
REMARK INTER + INTRA:          -6.692
REMARK INTER:                  -6.100
REMARK INTRA:                  -0.592
REMARK UNBOUND:                -0.894
REMARK SMILES Cc1ccc(C(=O)c2cc(O)c(O)c([N+](=O)[O-])c2)cc1
REMARK SMILES IDX 8 1 18 2 9 3 14 4 10 5 12 6 6 7 7 8 5 9 4 10 19 11 3 12
REMARK SMILES IDX 20 13 2 14 1 15 15 16 17 17 16 18 11 19 13 21
REMARK H PARENT 11 20 13 22
ROOT
ATOM      1  C   UNL     1       6.667  -4.492   9.152  1.00  0.00     0.033 A 
ATOM      2  C   UNL     1       7.021  -4.258  10.460  1.00  0.00     0.102 A 
ATOM      3  C   UNL     1       6.981  -5.656   8.491  1.00  0.00     0.063 A 
ATOM      4  C   UNL     1       7.729  -5.244  11.147  1.00  0.00     0.315 A 
ATOM      5  C   UNL     1       7.690  -6.642   9.177  1.00  0.00     0.165 A 
ATOM      6  C   UNL     1       8.064  -6.437  10.505  1.00  0.00     0.237 A 
ENDROOT
BRANCH   1   7
ATOM      7  C   UNL     1       5.908  -3.436   8.416  1.00  0.00     0.193 C 
ATOM      8  O   UNL     1       5.921  -2.291   8.893  1.00  0.00    -0.289 OA
BRANCH   7   9
ATOM      9  C   UNL     1       5.177  -3.712   7.190  1.00  0.00     0.023 A 
ATOM     10  C   UNL     1       3.801  -3.935   7.234  1.00  0.00     0.012 A 
ATOM     11  C   UNL     1       5.851  -3.752   5.970  1.00  0.00     0.012 A 
ATOM     12  C   UNL     1       3.099  -4.200   6.058  1.00  0.00     0.004 A 
ATOM     13  C   UNL     1       5.150  -4.017   4.793  1.00  0.00     0.004 A 
ATOM     14  C   UNL     1       3.774  -4.240   4.837  1.00  0.00    -0.051 A 
ATOM     15  C   UNL     1       3.024  -4.524   3.580  1.00  0.00     0.044 C 
ENDBRANCH   7   9
ENDBRANCH   1   7
BRANCH   4  16
ATOM     16  N   UNL     1       8.101  -5.017  12.500  1.00  0.00     0.066 N 
ATOM     17  O   UNL     1       8.893  -5.817  13.054  1.00  0.00    -0.258 OA
ATOM     18  O   UNL     1       7.628  -4.023  13.099  1.00  0.00    -0.258 OA
ENDBRANCH   4  16
BRANCH   5  19
ATOM     19  O   UNL     1       8.010  -7.802   8.537  1.00  0.00    -0.504 OA
ATOM     20  H   UNL     1       7.630  -8.555   9.020  1.00  0.00     0.293 HD
ENDBRANCH   5  19
BRANCH   6  21
ATOM     21  O   UNL     1       8.756  -7.409  11.166  1.00  0.00    -0.500 OA
ATOM     22  H   UNL     1       9.164  -8.012  10.525  1.00  0.00     0.294 HD
ENDBRANCH   6  21
TORSDOF 5
ENDMDL
MODEL 7
REMARK VINA RESULT:    -4.682      3.685      7.163
REMARK INTER + INTRA:          -6.671
REMARK INTER:                  -5.698
REMARK INTRA:                  -0.973
REMARK UNBOUND:                -0.894
REMARK SMILES Cc1ccc(C(=O)c2cc(O)c(O)c([N+](=O)[O-])c2)cc1
REMARK SMILES IDX 8 1 18 2 9 3 14 4 10 5 12 6 6 7 7 8 5 9 4 10 19 11 3 12
REMARK SMILES IDX 20 13 2 14 1 15 15 16 17 17 16 18 11 19 13 21
REMARK H PARENT 11 20 13 22
ROOT
ATOM      1  C   UNL     1       5.880  -4.597   9.055  1.00  0.00     0.033 A 
ATOM      2  C   UNL     1       6.136  -3.744  10.103  1.00  0.00     0.102 A 
ATOM      3  C   UNL     1       6.489  -5.823   8.924  1.00  0.00     0.063 A 
ATOM      4  C   UNL     1       7.052  -4.140  11.077  1.00  0.00     0.315 A 
ATOM      5  C   UNL     1       7.406  -6.219   9.898  1.00  0.00     0.165 A 
ATOM      6  C   UNL     1       7.687  -5.377  10.975  1.00  0.00     0.237 A 
ENDROOT
BRANCH   1   7
ATOM      7  C   UNL     1       4.899  -4.173   8.011  1.00  0.00     0.193 C 
ATOM      8  O   UNL     1       3.853  -4.832   7.913  1.00  0.00    -0.289 OA
BRANCH   7   9
ATOM      9  C   UNL     1       5.136  -3.038   7.133  1.00  0.00     0.023 A 
ATOM     10  C   UNL     1       6.382  -2.871   6.530  1.00  0.00     0.012 A 
ATOM     11  C   UNL     1       4.116  -2.116   6.895  1.00  0.00     0.012 A 
ATOM     12  C   UNL     1       6.609  -1.782   5.688  1.00  0.00     0.004 A 
ATOM     13  C   UNL     1       4.342  -1.027   6.052  1.00  0.00     0.004 A 
ATOM     14  C   UNL     1       5.589  -0.860   5.449  1.00  0.00    -0.051 A 
ATOM     15  C   UNL     1       5.832   0.304   4.550  1.00  0.00     0.044 C 
ENDBRANCH   7   9
ENDBRANCH   1   7
BRANCH   4  16
ATOM     16  N   UNL     1       7.326  -3.268  12.167  1.00  0.00     0.066 N 
ATOM     17  O   UNL     1       7.366  -2.032  11.959  1.00  0.00    -0.258 OA
ATOM     18  O   UNL     1       7.519  -3.761  13.303  1.00  0.00    -0.258 OA
ENDBRANCH   4  16
BRANCH   5  19
ATOM     19  O   UNL     1       8.019  -7.430   9.786  1.00  0.00    -0.504 OA
ATOM     20  H   UNL     1       8.937  -7.305   9.494  1.00  0.00     0.293 HD
ENDBRANCH   5  19
BRANCH   6  21
ATOM     21  O   UNL     1       8.586  -5.776  11.922  1.00  0.00    -0.500 OA
ATOM     22  H   UNL     1       8.381  -6.680  12.205  1.00  0.00     0.294 HD
ENDBRANCH   6  21
TORSDOF 5
ENDMDL
MODEL 8
REMARK VINA RESULT:    -4.640      3.675      7.215
REMARK INTER + INTRA:          -6.619
REMARK INTER:                  -5.846
REMARK INTRA:                  -0.773
REMARK UNBOUND:                -0.894
REMARK SMILES Cc1ccc(C(=O)c2cc(O)c(O)c([N+](=O)[O-])c2)cc1
REMARK SMILES IDX 8 1 18 2 9 3 14 4 10 5 12 6 6 7 7 8 5 9 4 10 19 11 3 12
REMARK SMILES IDX 20 13 2 14 1 15 15 16 17 17 16 18 11 19 13 21
REMARK H PARENT 11 20 13 22
ROOT
ATOM      1  C   UNL     1       6.640  -4.060   9.261  1.00  0.00     0.033 A 
ATOM      2  C   UNL     1       6.202  -2.959   9.962  1.00  0.00     0.102 A 
ATOM      3  C   UNL     1       7.370  -5.070   9.839  1.00  0.00     0.063 A 
ATOM      4  C   UNL     1       6.513  -2.866  11.318  1.00  0.00     0.315 A 
ATOM      5  C   UNL     1       7.682  -4.977  11.196  1.00  0.00     0.165 A 
ATOM      6  C   UNL     1       7.252  -3.874  11.936  1.00  0.00     0.237 A 
ENDROOT
BRANCH   1   7
ATOM      7  C   UNL     1       6.307  -4.160   7.808  1.00  0.00     0.193 C 
ATOM      8  O   UNL     1       6.248  -5.296   7.315  1.00  0.00    -0.289 OA
BRANCH   7   9
ATOM      9  C   UNL     1       6.059  -2.989   6.982  1.00  0.00     0.023 A 
ATOM     10  C   UNL     1       7.096  -2.428   6.237  1.00  0.00     0.012 A 
ATOM     11  C   UNL     1       4.784  -2.426   6.935  1.00  0.00     0.012 A 
ATOM     12  C   UNL     1       6.858  -1.305   5.445  1.00  0.00     0.004 A 
ATOM     13  C   UNL     1       4.544  -1.303   6.143  1.00  0.00     0.004 A 
ATOM     14  C   UNL     1       5.582  -0.742   5.398  1.00  0.00    -0.051 A 
ATOM     15  C   UNL     1       5.328   0.459   4.552  1.00  0.00     0.044 C 
ENDBRANCH   7   9
ENDBRANCH   1   7
BRANCH   4  16
ATOM     16  N   UNL     1       6.067  -1.735  12.056  1.00  0.00     0.066 N 
ATOM     17  O   UNL     1       5.954  -0.633  11.466  1.00  0.00    -0.258 OA
ATOM     18  O   UNL     1       5.800  -1.872  13.272  1.00  0.00    -0.258 OA
ENDBRANCH   4  16
BRANCH   5  19
ATOM     19  O   UNL     1       8.404  -5.970  11.786  1.00  0.00    -0.504 OA
ATOM     20  H   UNL     1       7.928  -6.812  11.703  1.00  0.00     0.293 HD
ENDBRANCH   5  19
BRANCH   6  21
ATOM     21  O   UNL     1       7.562  -3.795  13.262  1.00  0.00    -0.500 OA
ATOM     22  H   UNL     1       8.521  -3.882  13.379  1.00  0.00     0.294 HD
ENDBRANCH   6  21
TORSDOF 5
ENDMDL
MODEL 9
REMARK VINA RESULT:    -4.638      3.806      6.767
REMARK INTER + INTRA:          -6.617
REMARK INTER:                  -5.624
REMARK INTRA:                  -0.993
REMARK UNBOUND:                -0.894
REMARK SMILES Cc1ccc(C(=O)c2cc(O)c(O)c([N+](=O)[O-])c2)cc1
REMARK SMILES IDX 8 1 18 2 9 3 14 4 10 5 12 6 6 7 7 8 5 9 4 10 19 11 3 12
REMARK SMILES IDX 20 13 2 14 1 15 15 16 17 17 16 18 11 19 13 21
REMARK H PARENT 11 20 13 22
ROOT
ATOM      1  C   UNL     1       7.169  -3.659   8.874  1.00  0.00     0.033 A 
ATOM      2  C   UNL     1       7.544  -4.981   8.952  1.00  0.00     0.102 A 
ATOM      3  C   UNL     1       6.975  -2.872   9.985  1.00  0.00     0.063 A 
ATOM      4  C   UNL     1       7.735  -5.547  10.212  1.00  0.00     0.315 A 
ATOM      5  C   UNL     1       7.165  -3.439  11.245  1.00  0.00     0.165 A 
ATOM      6  C   UNL     1       7.546  -4.776  11.359  1.00  0.00     0.237 A 
ENDROOT
BRANCH   1   7
ATOM      7  C   UNL     1       6.964  -3.052   7.525  1.00  0.00     0.193 C 
ATOM      8  O   UNL     1       7.761  -2.171   7.170  1.00  0.00    -0.289 OA
BRANCH   7   9
ATOM      9  C   UNL     1       5.882  -3.460   6.643  1.00  0.00     0.023 A 
ATOM     10  C   UNL     1       4.584  -3.577   7.139  1.00  0.00     0.012 A 
ATOM     11  C   UNL     1       6.143  -3.735   5.300  1.00  0.00     0.012 A 
ATOM     12  C   UNL     1       3.547  -3.968   6.293  1.00  0.00     0.004 A 
ATOM     13  C   UNL     1       5.105  -4.126   4.453  1.00  0.00     0.004 A 
ATOM     14  C   UNL     1       3.807  -4.243   4.950  1.00  0.00    -0.051 A 
ATOM     15  C   UNL     1       2.698  -4.662   4.046  1.00  0.00     0.044 C 
ENDBRANCH   7   9
ENDBRANCH   1   7
BRANCH   4  16
ATOM     16  N   UNL     1       8.123  -6.911  10.308  1.00  0.00     0.066 N 
ATOM     17  O   UNL     1       8.832  -7.273  11.277  1.00  0.00    -0.258 OA
ATOM     18  O   UNL     1       7.744  -7.712   9.422  1.00  0.00    -0.258 OA
ENDBRANCH   4  16
BRANCH   5  19
ATOM     19  O   UNL     1       6.977  -2.674  12.357  1.00  0.00    -0.504 OA
ATOM     20  H   UNL     1       7.303  -1.774  12.192  1.00  0.00     0.293 HD
ENDBRANCH   5  19
BRANCH   6  21
ATOM     21  O   UNL     1       7.731  -5.319  12.598  1.00  0.00    -0.500 OA
ATOM     22  H   UNL     1       6.931  -5.190  13.132  1.00  0.00     0.294 HD
ENDBRANCH   6  21
TORSDOF 5
ENDMDL
