MODEL 1
REMARK VINA RESULT:    -5.220      0.000      0.000
REMARK INTER + INTRA:          -7.270
REMARK INTER:                  -6.440
REMARK INTRA:                  -0.830
REMARK UNBOUND:                -0.830
REMARK SMILES Cc1ccc(C(=O)c2cc(O)c(O)c([N+](=O)[O-])c2)cc1
REMARK SMILES IDX 8 1 18 2 9 3 14 4 10 5 12 6 6 7 7 8 5 9 4 10 19 11 3 12
REMARK SMILES IDX 20 13 2 14 1 15 15 16 17 17 16 18 11 19 13 21
REMARK H PARENT 11 20 13 22
ROOT
ATOM      1  C   UNL     1       5.900  -4.620   1.848  1.00  0.00     0.033 A 
ATOM      2  C   UNL     1       6.234  -3.820   0.780  1.00  0.00     0.102 A 
ATOM      3  C   UNL     1       4.753  -4.442   2.585  1.00  0.00     0.063 A 
ATOM      4  C   UNL     1       5.370  -2.783   0.428  1.00  0.00     0.315 A 
ATOM      5  C   UNL     1       3.889  -3.404   2.233  1.00  0.00     0.165 A 
ATOM      6  C   UNL     1       4.198  -2.575   1.154  1.00  0.00     0.237 A 
ENDROOT
BRANCH   1   7
ATOM      7  C   UNL     1       6.825  -5.731   2.225  1.00  0.00     0.193 C 
ATOM      8  O   UNL     1       6.312  -6.805   2.573  1.00  0.00    -0.289 OA
BRANCH   7   9
ATOM      9  C   UNL     1       8.272  -5.585   2.195  1.00  0.00     0.023 A 
ATOM     10  C   UNL     1       8.953  -5.147   3.330  1.00  0.00     0.012 A 
ATOM     11  C   UNL     1       8.978  -5.885   1.030  1.00  0.00     0.012 A 
ATOM     12  C   UNL     1      10.340  -5.007   3.300  1.00  0.00     0.004 A 
ATOM     13  C   UNL     1      10.366  -5.746   0.999  1.00  0.00     0.004 A 
ATOM     14  C   UNL     1      11.048  -5.307   2.135  1.00  0.00    -0.051 A 
ATOM     15  C   UNL     1      12.530  -5.157   2.103  1.00  0.00     0.044 C 
ENDBRANCH   7   9
ENDBRANCH   1   7
BRANCH   4  16
ATOM     16  N   UNL     1       5.701  -1.948  -0.674  1.00  0.00     0.066 N 
ATOM     17  O   UNL     1       6.225  -2.465  -1.690  1.00  0.00    -0.258 OA
ATOM     18  O   UNL     1       5.459  -0.721  -0.599  1.00  0.00    -0.258 OA
ENDBRANCH   4  16
BRANCH   5  19
ATOM     19  O   UNL     1       2.747  -3.212   2.951  1.00  0.00    -0.504 OA
ATOM     20  H   UNL     1       2.714  -3.848   3.686  1.00  0.00     0.293 HD
ENDBRANCH   5  19
BRANCH   6  21
ATOM     21  O   UNL     1       3.345  -1.563   0.819  1.00  0.00    -0.500 OA
ATOM     22  H   UNL     1       3.404  -0.855   1.479  1.00  0.00     0.294 HD
ENDBRANCH   6  21
TORSDOF 5
ENDMDL
MODEL 2
REMARK VINA RESULT:    -5.186      2.046      3.545
REMARK INTER + INTRA:          -7.228
REMARK INTER:                  -6.423
REMARK INTRA:                  -0.805
REMARK UNBOUND:                -0.830
REMARK SMILES Cc1ccc(C(=O)c2cc(O)c(O)c([N+](=O)[O-])c2)cc1
REMARK SMILES IDX 8 1 18 2 9 3 14 4 10 5 12 6 6 7 7 8 5 9 4 10 19 11 3 12
REMARK SMILES IDX 20 13 2 14 1 15 15 16 17 17 16 18 11 19 13 21
REMARK H PARENT 11 20 13 22
ROOT
ATOM      1  C   UNL     1       6.981  -3.136   1.622  1.00  0.00     0.033 A 
ATOM      2  C   UNL     1       5.969  -3.522   2.470  1.00  0.00     0.102 A 
ATOM      3  C   UNL     1       6.776  -2.309   0.544  1.00  0.00     0.063 A 
ATOM      4  C   UNL     1       4.678  -3.052   2.226  1.00  0.00     0.315 A 
ATOM      5  C   UNL     1       5.485  -1.839   0.298  1.00  0.00     0.165 A 
ATOM      6  C   UNL     1       4.436  -2.211   1.140  1.00  0.00     0.237 A 
ENDROOT
BRANCH   1   7
ATOM      7  C   UNL     1       8.363  -3.640   1.883  1.00  0.00     0.193 C 
ATOM      8  O   UNL     1       9.305  -2.871   1.636  1.00  0.00    -0.289 OA
BRANCH   7   9
ATOM      9  C   UNL     1       8.622  -4.971   2.407  1.00  0.00     0.023 A 
ATOM     10  C   UNL     1       8.851  -6.033   1.531  1.00  0.00     0.012 A 
ATOM     11  C   UNL     1       8.641  -5.188   3.785  1.00  0.00     0.012 A 
ATOM     12  C   UNL     1       9.099  -7.310   2.034  1.00  0.00     0.004 A 
ATOM     13  C   UNL     1       8.890  -6.465   4.288  1.00  0.00     0.004 A 
ATOM     14  C   UNL     1       9.119  -7.527   3.412  1.00  0.00    -0.051 A 
ATOM     15  C   UNL     1       9.383  -8.892   3.948  1.00  0.00     0.044 C 
ENDBRANCH   7   9
ENDBRANCH   1   7
BRANCH   4  16
ATOM     16  N   UNL     1       3.622  -3.442   3.094  1.00  0.00     0.066 N 
ATOM     17  O   UNL     1       2.461  -3.543   2.628  1.00  0.00    -0.258 OA
ATOM     18  O   UNL     1       3.881  -3.673   4.298  1.00  0.00    -0.258 OA
ENDBRANCH   4  16
BRANCH   5  19
ATOM     19  O   UNL     1       5.264  -1.017  -0.766  1.00  0.00    -0.504 OA
ATOM     20  H   UNL     1       6.084  -0.547  -0.990  1.00  0.00     0.293 HD
ENDBRANCH   5  19
BRANCH   6  21
ATOM     21  O   UNL     1       3.178  -1.744   0.891  1.00  0.00    -0.500 OA
ATOM     22  H   UNL     1       2.554  -2.139   1.519  1.00  0.00     0.294 HD
ENDBRANCH   6  21
TORSDOF 5
ENDMDL
MODEL 3
REMARK VINA RESULT:    -4.315      3.590      7.208
REMARK INTER + INTRA:          -6.153
REMARK INTER:                  -5.141
REMARK INTRA:                  -1.012
REMARK UNBOUND:                -0.830
REMARK SMILES Cc1ccc(C(=O)c2cc(O)c(O)c([N+](=O)[O-])c2)cc1
REMARK SMILES IDX 8 1 18 2 9 3 14 4 10 5 12 6 6 7 7 8 5 9 4 10 19 11 3 12
REMARK SMILES IDX 20 13 2 14 1 15 15 16 17 17 16 18 11 19 13 21
REMARK H PARENT 11 20 13 22
ROOT
ATOM      1  C   UNL     1       9.232  -6.038   1.952  1.00  0.00     0.033 A 
ATOM      2  C   UNL     1       8.860  -7.214   2.562  1.00  0.00     0.102 A 
ATOM      3  C   UNL     1      10.525  -5.572   1.955  1.00  0.00     0.063 A 
ATOM      4  C   UNL     1       9.839  -7.968   3.210  1.00  0.00     0.315 A 
ATOM      5  C   UNL     1      11.504  -6.326   2.604  1.00  0.00     0.165 A 
ATOM      6  C   UNL     1      11.161  -7.524   3.231  1.00  0.00     0.237 A 
ENDROOT
BRANCH   1   7
ATOM      7  C   UNL     1       8.184  -5.230   1.258  1.00  0.00     0.193 C 
ATOM      8  O   UNL     1       8.366  -4.973   0.059  1.00  0.00    -0.289 OA
BRANCH   7   9
ATOM      9  C   UNL     1       6.990  -4.754   1.938  1.00  0.00     0.023 A 
ATOM     10  C   UNL     1       7.106  -3.999   3.106  1.00  0.00     0.012 A 
ATOM     11  C   UNL     1       5.729  -5.050   1.422  1.00  0.00     0.012 A 
ATOM     12  C   UNL     1       5.961  -3.542   3.757  1.00  0.00     0.004 A 
ATOM     13  C   UNL     1       4.582  -4.592   2.073  1.00  0.00     0.004 A 
ATOM     14  C   UNL     1       4.699  -3.838   3.241  1.00  0.00    -0.051 A 
ATOM     15  C   UNL     1       3.475  -3.350   3.938  1.00  0.00     0.044 C 
ENDBRANCH   7   9
ENDBRANCH   1   7
BRANCH   4  16
ATOM     16  N   UNL     1       9.470  -9.186   3.843  1.00  0.00     0.066 N 
ATOM     17  O   UNL     1       8.314  -9.296   4.319  1.00  0.00    -0.258 OA
ATOM     18  O   UNL     1      10.309 -10.114   3.908  1.00  0.00    -0.258 OA
ENDBRANCH   4  16
BRANCH   5  19
ATOM     19  O   UNL     1      12.792  -5.880   2.616  1.00  0.00    -0.504 OA
ATOM     20  H   UNL     1      13.395  -6.624   2.450  1.00  0.00     0.293 HD
ENDBRANCH   5  19
BRANCH   6  21
ATOM     21  O   UNL     1      12.127  -8.253   3.861  1.00  0.00    -0.500 OA
ATOM     22  H   UNL     1      12.728  -7.657   4.335  1.00  0.00     0.294 HD
ENDBRANCH   6  21
TORSDOF 5
ENDMDL
MODEL 4
REMARK VINA RESULT:    -4.286      3.706      6.626
REMARK INTER + INTRA:          -6.118
REMARK INTER:                  -5.134
REMARK INTRA:                  -0.984
REMARK UNBOUND:                -0.830
REMARK SMILES Cc1ccc(C(=O)c2cc(O)c(O)c([N+](=O)[O-])c2)cc1
REMARK SMILES IDX 8 1 18 2 9 3 14 4 10 5 12 6 6 7 7 8 5 9 4 10 19 11 3 12
REMARK SMILES IDX 20 13 2 14 1 15 15 16 17 17 16 18 11 19 13 21
REMARK H PARENT 11 20 13 22
ROOT
ATOM      1  C   UNL     1       9.080  -5.596   3.174  1.00  0.00     0.033 A 
ATOM      2  C   UNL     1      10.264  -5.061   2.722  1.00  0.00     0.102 A 
ATOM      3  C   UNL     1       8.963  -6.897   3.601  1.00  0.00     0.063 A 
ATOM      4  C   UNL     1      11.397  -5.875   2.697  1.00  0.00     0.315 A 
ATOM      5  C   UNL     1      10.096  -7.711   3.576  1.00  0.00     0.165 A 
ATOM      6  C   UNL     1      11.313  -7.200   3.124  1.00  0.00     0.237 A 
ENDROOT
BRANCH   1   7
ATOM      7  C   UNL     1       7.867  -4.724   3.200  1.00  0.00     0.193 C 
ATOM      8  O   UNL     1       7.269  -4.614   4.281  1.00  0.00    -0.289 OA
BRANCH   7   9
ATOM      9  C   UNL     1       7.385  -4.022   2.021  1.00  0.00     0.023 A 
ATOM     10  C   UNL     1       7.176  -4.719   0.831  1.00  0.00     0.012 A 
ATOM     11  C   UNL     1       7.132  -2.652   2.080  1.00  0.00     0.012 A 
ATOM     12  C   UNL     1       6.714  -4.045  -0.299  1.00  0.00     0.004 A 
ATOM     13  C   UNL     1       6.670  -1.977   0.950  1.00  0.00     0.004 A 
ATOM     14  C   UNL     1       6.460  -2.674  -0.240  1.00  0.00    -0.051 A 
ATOM     15  C   UNL     1       5.968  -1.954  -1.449  1.00  0.00     0.044 C 
ENDBRANCH   7   9
ENDBRANCH   1   7
BRANCH   4  16
ATOM     16  N   UNL     1      12.628  -5.336   2.233  1.00  0.00     0.066 N 
ATOM     17  O   UNL     1      13.701  -5.776   2.712  1.00  0.00    -0.258 OA
ATOM     18  O   UNL     1      12.606  -4.439   1.359  1.00  0.00    -0.258 OA
ENDBRANCH   4  16
BRANCH   5  19
ATOM     19  O   UNL     1      10.000  -9.004   3.996  1.00  0.00    -0.504 OA
ATOM     20  H   UNL     1       9.193  -9.114   4.527  1.00  0.00     0.293 HD
ENDBRANCH   5  19
BRANCH   6  21
ATOM     21  O   UNL     1      12.414  -8.006   3.105  1.00  0.00    -0.500 OA
ATOM     22  H   UNL     1      13.154  -7.537   2.688  1.00  0.00     0.294 HD
ENDBRANCH   6  21
TORSDOF 5
ENDMDL
MODEL 5
REMARK VINA RESULT:    -4.272      3.809      7.034
REMARK INTER + INTRA:          -6.100
REMARK INTER:                  -5.164
REMARK INTRA:                  -0.936
REMARK UNBOUND:                -0.830
REMARK SMILES Cc1ccc(C(=O)c2cc(O)c(O)c([N+](=O)[O-])c2)cc1
REMARK SMILES IDX 8 1 18 2 9 3 14 4 10 5 12 6 6 7 7 8 5 9 4 10 19 11 3 12
REMARK SMILES IDX 20 13 2 14 1 15 15 16 17 17 16 18 11 19 13 21
REMARK H PARENT 11 20 13 22
ROOT
ATOM      1  C   UNL     1       9.139  -5.569   3.113  1.00  0.00     0.033 A 
ATOM      2  C   UNL     1       9.056  -6.880   3.523  1.00  0.00     0.102 A 
ATOM      3  C   UNL     1      10.308  -4.999   2.669  1.00  0.00     0.063 A 
ATOM      4  C   UNL     1      10.209  -7.664   3.486  1.00  0.00     0.315 A 
ATOM      5  C   UNL     1      11.461  -5.783   2.633  1.00  0.00     0.165 A 
ATOM      6  C   UNL     1      11.412  -7.116   3.041  1.00  0.00     0.237 A 
ENDROOT
BRANCH   1   7
ATOM      7  C   UNL     1       7.904  -4.729   3.152  1.00  0.00     0.193 C 
ATOM      8  O   UNL     1       7.303  -4.651   4.235  1.00  0.00    -0.289 OA
BRANCH   7   9
ATOM      9  C   UNL     1       7.406  -4.020   1.985  1.00  0.00     0.023 A 
ATOM     10  C   UNL     1       7.131  -2.654   2.062  1.00  0.00     0.012 A 
ATOM     11  C   UNL     1       7.203  -4.705   0.787  1.00  0.00     0.012 A 
ATOM     12  C   UNL     1       6.654  -1.975   0.942  1.00  0.00     0.004 A 
ATOM     13  C   UNL     1       6.725  -4.025  -0.334  1.00  0.00     0.004 A 
ATOM     14  C   UNL     1       6.450  -2.660  -0.257  1.00  0.00    -0.051 A 
ATOM     15  C   UNL     1       5.938  -1.933  -1.453  1.00  0.00     0.044 C 
ENDBRANCH   7   9
ENDBRANCH   1   7
BRANCH   4  16
ATOM     16  N   UNL     1      10.139  -9.021   3.907  1.00  0.00     0.066 N 
ATOM     17  O   UNL     1       9.036  -9.616   3.853  1.00  0.00    -0.258 OA
ATOM     18  O   UNL     1      11.181  -9.582   4.318  1.00  0.00    -0.258 OA
ENDBRANCH   4  16
BRANCH   5  19
ATOM     19  O   UNL     1      12.629  -5.234   2.195  1.00  0.00    -0.504 OA
ATOM     20  H   UNL     1      12.637  -5.218   1.224  1.00  0.00     0.293 HD
ENDBRANCH   5  19
BRANCH   6  21
ATOM     21  O   UNL     1      12.546  -7.874   3.000  1.00  0.00    -0.500 OA
ATOM     22  H   UNL     1      13.306  -7.337   3.274  1.00  0.00     0.294 HD
ENDBRANCH   6  21
TORSDOF 5
ENDMDL
MODEL 6
REMARK VINA RESULT:    -4.209      1.265      2.923
REMARK INTER + INTRA:          -6.023
REMARK INTER:                  -5.297
REMARK INTRA:                  -0.726
REMARK UNBOUND:                -0.830
REMARK SMILES Cc1ccc(C(=O)c2cc(O)c(O)c([N+](=O)[O-])c2)cc1
REMARK SMILES IDX 8 1 18 2 9 3 14 4 10 5 12 6 6 7 7 8 5 9 4 10 19 11 3 12
REMARK SMILES IDX 20 13 2 14 1 15 15 16 17 17 16 18 11 19 13 21
REMARK H PARENT 11 20 13 22
ROOT
ATOM      1  C   UNL     1       6.466  -4.777   1.869  1.00  0.00     0.033 A 
ATOM      2  C   UNL     1       5.376  -4.525   2.670  1.00  0.00     0.102 A 
ATOM      3  C   UNL     1       6.691  -4.115   0.685  1.00  0.00     0.063 A 
ATOM      4  C   UNL     1       4.460  -3.555   2.264  1.00  0.00     0.315 A 
ATOM      5  C   UNL     1       5.774  -3.145   0.278  1.00  0.00     0.165 A 
ATOM      6  C   UNL     1       4.659  -2.865   1.068  1.00  0.00     0.237 A 
ENDROOT
BRANCH   1   7
ATOM      7  C   UNL     1       7.447  -5.816   2.304  1.00  0.00     0.193 C 
ATOM      8  O   UNL     1       6.990  -6.892   2.719  1.00  0.00    -0.289 OA
BRANCH   7   9
ATOM      9  C   UNL     1       8.884  -5.601   2.252  1.00  0.00     0.023 A 
ATOM     10  C   UNL     1       9.590  -5.882   1.082  1.00  0.00     0.012 A 
ATOM     11  C   UNL     1       9.558  -5.115   3.372  1.00  0.00     0.012 A 
ATOM     12  C   UNL     1      10.968  -5.675   1.033  1.00  0.00     0.004 A 
ATOM     13  C   UNL     1      10.937  -4.908   3.324  1.00  0.00     0.004 A 
ATOM     14  C   UNL     1      11.643  -5.188   2.153  1.00  0.00    -0.051 A 
ATOM     15  C   UNL     1      13.116  -4.970   2.100  1.00  0.00     0.044 C 
ENDBRANCH   7   9
ENDBRANCH   1   7
BRANCH   4  16
ATOM     16  N   UNL     1       3.329  -3.283   3.082  1.00  0.00     0.066 N 
ATOM     17  O   UNL     1       3.513  -2.899   4.262  1.00  0.00    -0.258 OA
ATOM     18  O   UNL     1       2.182  -3.434   2.599  1.00  0.00    -0.258 OA
ENDBRANCH   4  16
BRANCH   5  19
ATOM     19  O   UNL     1       5.981  -2.479  -0.892  1.00  0.00    -0.504 OA
ATOM     20  H   UNL     1       5.179  -2.522  -1.438  1.00  0.00     0.293 HD
ENDBRANCH   5  19
BRANCH   6  21
ATOM     21  O   UNL     1       3.769  -1.913   0.660  1.00  0.00    -0.500 OA
ATOM     22  H   UNL     1       3.008  -1.900   1.260  1.00  0.00     0.294 HD
ENDBRANCH   6  21
TORSDOF 5
ENDMDL
MODEL 7
REMARK VINA RESULT:    -4.201      1.978      2.635
REMARK INTER + INTRA:          -6.013
REMARK INTER:                  -5.279
REMARK INTRA:                  -0.734
REMARK UNBOUND:                -0.830
REMARK SMILES Cc1ccc(C(=O)c2cc(O)c(O)c([N+](=O)[O-])c2)cc1
REMARK SMILES IDX 8 1 18 2 9 3 14 4 10 5 12 6 6 7 7 8 5 9 4 10 19 11 3 12
REMARK SMILES IDX 20 13 2 14 1 15 15 16 17 17 16 18 11 19 13 21
REMARK H PARENT 11 20 13 22
ROOT
ATOM      1  C   UNL     1       7.305  -3.602   1.865  1.00  0.00     0.033 A 
ATOM      2  C   UNL     1       7.077  -2.918   0.694  1.00  0.00     0.102 A 
ATOM      3  C   UNL     1       6.346  -3.755   2.838  1.00  0.00     0.063 A 
ATOM      4  C   UNL     1       5.819  -2.355   0.484  1.00  0.00     0.315 A 
ATOM      5  C   UNL     1       5.087  -3.192   2.629  1.00  0.00     0.165 A 
ATOM      6  C   UNL     1       4.823  -2.492   1.451  1.00  0.00     0.237 A 
ENDROOT
BRANCH   1   7
ATOM      7  C   UNL     1       8.653  -4.205   2.090  1.00  0.00     0.193 C 
ATOM      8  O   UNL     1       9.641  -3.503   1.829  1.00  0.00    -0.289 OA
BRANCH   7   9
ATOM      9  C   UNL     1       8.828  -5.558   2.596  1.00  0.00     0.023 A 
ATOM     10  C   UNL     1       8.966  -6.623   1.705  1.00  0.00     0.012 A 
ATOM     11  C   UNL     1       8.858  -5.790   3.971  1.00  0.00     0.012 A 
ATOM     12  C   UNL     1       9.134  -7.919   2.190  1.00  0.00     0.004 A 
ATOM     13  C   UNL     1       9.026  -7.087   4.456  1.00  0.00     0.004 A 
ATOM     14  C   UNL     1       9.164  -8.152   3.566  1.00  0.00    -0.051 A 
ATOM     15  C   UNL     1       9.343  -9.539   4.084  1.00  0.00     0.044 C 
ENDBRANCH   7   9
ENDBRANCH   1   7
BRANCH   4  16
ATOM     16  N   UNL     1       5.569  -1.645  -0.723  1.00  0.00     0.066 N 
ATOM     17  O   UNL     1       5.215  -0.443  -0.656  1.00  0.00    -0.258 OA
ATOM     18  O   UNL     1       5.710  -2.240  -1.816  1.00  0.00    -0.258 OA
ENDBRANCH   4  16
BRANCH   5  19
ATOM     19  O   UNL     1       4.124  -3.334   3.582  1.00  0.00    -0.504 OA
ATOM     20  H   UNL     1       3.457  -3.972   3.279  1.00  0.00     0.293 HD
ENDBRANCH   5  19
BRANCH   6  21
ATOM     21  O   UNL     1       3.588  -1.946   1.257  1.00  0.00    -0.500 OA
ATOM     22  H   UNL     1       3.026  -2.128   2.026  1.00  0.00     0.294 HD
ENDBRANCH   6  21
TORSDOF 5
ENDMDL
MODEL 8
REMARK VINA RESULT:    -4.189      3.877      7.070
REMARK INTER + INTRA:          -5.998
REMARK INTER:                  -5.343
REMARK INTRA:                  -0.655
REMARK UNBOUND:                -0.830
REMARK SMILES Cc1ccc(C(=O)c2cc(O)c(O)c([N+](=O)[O-])c2)cc1
REMARK SMILES IDX 8 1 18 2 9 3 14 4 10 5 12 6 6 7 7 8 5 9 4 10 19 11 3 12
REMARK SMILES IDX 20 13 2 14 1 15 15 16 17 17 16 18 11 19 13 21
REMARK H PARENT 11 20 13 22
ROOT
ATOM      1  C   UNL     1       9.268  -6.036   2.701  1.00  0.00     0.033 A 
ATOM      2  C   UNL     1      10.638  -6.126   2.616  1.00  0.00     0.102 A 
ATOM      3  C   UNL     1       8.488  -7.027   3.249  1.00  0.00     0.063 A 
ATOM      4  C   UNL     1      11.264  -7.271   3.108  1.00  0.00     0.315 A 
ATOM      5  C   UNL     1       9.114  -8.173   3.741  1.00  0.00     0.165 A 
ATOM      6  C   UNL     1      10.502  -8.295   3.671  1.00  0.00     0.237 A 
ENDROOT
BRANCH   1   7
ATOM      7  C   UNL     1       8.598  -4.809   2.174  1.00  0.00     0.193 C 
ATOM      8  O   UNL     1       9.262  -4.074   1.428  1.00  0.00    -0.289 OA
BRANCH   7   9
ATOM      9  C   UNL     1       7.224  -4.468   2.505  1.00  0.00     0.023 A 
ATOM     10  C   UNL     1       6.948  -3.709   3.643  1.00  0.00     0.012 A 
ATOM     11  C   UNL     1       6.181  -4.900   1.686  1.00  0.00     0.012 A 
ATOM     12  C   UNL     1       5.630  -3.382   3.960  1.00  0.00     0.004 A 
ATOM     13  C   UNL     1       4.862  -4.572   2.003  1.00  0.00     0.004 A 
ATOM     14  C   UNL     1       4.587  -3.813   3.141  1.00  0.00    -0.051 A 
ATOM     15  C   UNL     1       3.178  -3.464   3.481  1.00  0.00     0.044 C 
ENDBRANCH   7   9
ENDBRANCH   1   7
BRANCH   4  16
ATOM     16  N   UNL     1      12.679  -7.377   3.027  1.00  0.00     0.066 N 
ATOM     17  O   UNL     1      13.229  -8.443   3.396  1.00  0.00    -0.258 OA
ATOM     18  O   UNL     1      13.336  -6.404   2.589  1.00  0.00    -0.258 OA
ENDBRANCH   4  16
BRANCH   5  19
ATOM     19  O   UNL     1       8.357  -9.165   4.289  1.00  0.00    -0.504 OA
ATOM     20  H   UNL     1       8.736 -10.029   4.057  1.00  0.00     0.293 HD
ENDBRANCH   5  19
BRANCH   6  21
ATOM     21  O   UNL     1      11.103  -9.420   4.156  1.00  0.00    -0.500 OA
ATOM     22  H   UNL     1      12.022  -9.223   4.394  1.00  0.00     0.294 HD
ENDBRANCH   6  21
TORSDOF 5
ENDMDL
MODEL 9
REMARK VINA RESULT:    -4.133      1.276      2.657
REMARK INTER + INTRA:          -5.929
REMARK INTER:                  -5.320
REMARK INTRA:                  -0.609
REMARK UNBOUND:                -0.830
REMARK SMILES Cc1ccc(C(=O)c2cc(O)c(O)c([N+](=O)[O-])c2)cc1
REMARK SMILES IDX 8 1 18 2 9 3 14 4 10 5 12 6 6 7 7 8 5 9 4 10 19 11 3 12
REMARK SMILES IDX 20 13 2 14 1 15 15 16 17 17 16 18 11 19 13 21
REMARK H PARENT 11 20 13 22
ROOT
ATOM      1  C   UNL     1       6.050  -3.785   1.172  1.00  0.00     0.033 A 
ATOM      2  C   UNL     1       4.783  -3.291   1.380  1.00  0.00     0.102 A 
ATOM      3  C   UNL     1       6.950  -3.195   0.317  1.00  0.00     0.063 A 
ATOM      4  C   UNL     1       4.395  -2.140   0.695  1.00  0.00     0.315 A 
ATOM      5  C   UNL     1       6.562  -2.043  -0.369  1.00  0.00     0.165 A 
ATOM      6  C   UNL     1       5.284  -1.516  -0.180  1.00  0.00     0.237 A 
ENDROOT
BRANCH   1   7
ATOM      7  C   UNL     1       6.465  -5.018   1.906  1.00  0.00     0.193 C 
ATOM      8  O   UNL     1       5.565  -5.745   2.353  1.00  0.00    -0.289 OA
BRANCH   7   9
ATOM      9  C   UNL     1       7.861  -5.376   2.102  1.00  0.00     0.023 A 
ATOM     10  C   UNL     1       8.450  -5.227   3.357  1.00  0.00     0.012 A 
ATOM     11  C   UNL     1       8.611  -5.869   1.034  1.00  0.00     0.012 A 
ATOM     12  C   UNL     1       9.788  -5.570   3.545  1.00  0.00     0.004 A 
ATOM     13  C   UNL     1       9.951  -6.212   1.221  1.00  0.00     0.004 A 
ATOM     14  C   UNL     1      10.539  -6.063   2.477  1.00  0.00    -0.051 A 
ATOM     15  C   UNL     1      11.970  -6.429   2.678  1.00  0.00     0.044 C 
ENDBRANCH   7   9
ENDBRANCH   1   7
BRANCH   4  16
ATOM     16  N   UNL     1       3.089  -1.617   0.900  1.00  0.00     0.066 N 
ATOM     17  O   UNL     1       2.905  -0.381   0.783  1.00  0.00    -0.258 OA
ATOM     18  O   UNL     1       2.159  -2.405   1.192  1.00  0.00    -0.258 OA
ENDBRANCH   4  16
BRANCH   5  19
ATOM     19  O   UNL     1       7.441  -1.444  -1.220  1.00  0.00    -0.504 OA
ATOM     20  H   UNL     1       8.316  -1.857  -1.128  1.00  0.00     0.293 HD
ENDBRANCH   5  19
BRANCH   6  21
ATOM     21  O   UNL     1       4.916  -0.389  -0.856  1.00  0.00    -0.500 OA
ATOM     22  H   UNL     1       4.344   0.157  -0.294  1.00  0.00     0.294 HD
ENDBRANCH   6  21
TORSDOF 5
ENDMDL
