MODEL 1
REMARK VINA RESULT:    -6.871      0.000      0.000
REMARK INTER + INTRA:          -8.732
REMARK INTER:                  -8.076
REMARK INTRA:                  -0.656
REMARK UNBOUND:                -0.656
REMARK SMILES O=C(O)c1cc(-c2ccc(F)cc2F)ccc1O
REMARK SMILES IDX 6 1 5 2 15 3 4 4 17 5 16 6 7 7 13 8 12 9 8 10 10 11 9 12
REMARK SMILES IDX 14 13 11 14 2 15 1 16 3 17 18 19
REMARK H PARENT 3 18 18 20
ROOT
ATOM      1  C   UNL     1       6.626  -3.978   1.847  1.00  0.00    -0.014 A 
ATOM      2  C   UNL     1       5.504  -4.067   2.670  1.00  0.00     0.028 A 
ATOM      3  C   UNL     1       6.618  -3.119   0.748  1.00  0.00     0.013 A 
ATOM      4  C   UNL     1       4.373  -3.298   2.394  1.00  0.00     0.102 A 
ATOM      5  C   UNL     1       4.365  -2.440   1.295  1.00  0.00     0.130 A 
ATOM      6  C   UNL     1       5.488  -2.350   0.472  1.00  0.00     0.048 A 
ENDROOT
BRANCH   1   7
ATOM      7  C   UNL     1       7.799  -4.776   2.131  1.00  0.00     0.018 A 
ATOM      8  C   UNL     1       8.309  -4.833   3.429  1.00  0.00     0.133 A 
ATOM      9  C   UNL     1       9.441  -5.604   3.699  1.00  0.00     0.079 A 
ATOM     10  C   UNL     1       8.418  -5.490   1.106  1.00  0.00     0.015 A 
ATOM     11  C   UNL     1      10.060  -6.317   2.673  1.00  0.00     0.126 A 
ATOM     12  C   UNL     1       9.548  -6.260   1.376  1.00  0.00     0.040 A 
ATOM     13  F   UNL     1       7.728  -4.151   4.425  1.00  0.00    -0.206 F 
ATOM     14  F   UNL     1      11.146  -7.057   2.931  1.00  0.00    -0.207 F 
ENDBRANCH   1   7
BRANCH   4  15
ATOM     15  C   UNL     1       3.211  -3.406   3.266  1.00  0.00     0.339 C 
ATOM     16  O   UNL     1       2.042  -3.506   2.887  1.00  0.00    -0.246 OA
BRANCH  15  17
ATOM     17  O   UNL     1       3.549  -3.387   4.584  1.00  0.00    -0.478 OA
ATOM     18  H   UNL     1       3.359  -2.519   4.997  1.00  0.00     0.297 HD
ENDBRANCH  15  17
ENDBRANCH   4  15
BRANCH   5  19
ATOM     19  O   UNL     1       3.270  -1.679   1.009  1.00  0.00    -0.507 OA
ATOM     20  H   UNL     1       3.022  -1.170   1.800  1.00  0.00     0.293 HD
ENDBRANCH   5  19
TORSDOF 4
ENDMDL
MODEL 2
REMARK VINA RESULT:    -6.866      1.711      3.205
REMARK INTER + INTRA:          -8.726
REMARK INTER:                  -8.061
REMARK INTRA:                  -0.665
REMARK UNBOUND:                -0.656
REMARK SMILES O=C(O)c1cc(-c2ccc(F)cc2F)ccc1O
REMARK SMILES IDX 6 1 5 2 15 3 4 4 17 5 16 6 7 7 13 8 12 9 8 10 10 11 9 12
REMARK SMILES IDX 14 13 11 14 2 15 1 16 3 17 18 19
REMARK H PARENT 3 18 18 20
ROOT
ATOM      1  C   UNL     1       6.625  -4.032   1.719  1.00  0.00    -0.014 A 
ATOM      2  C   UNL     1       6.698  -3.191   0.610  1.00  0.00     0.028 A 
ATOM      3  C   UNL     1       5.457  -4.084   2.480  1.00  0.00     0.013 A 
ATOM      4  C   UNL     1       5.602  -2.401   0.260  1.00  0.00     0.102 A 
ATOM      5  C   UNL     1       4.435  -2.452   1.021  1.00  0.00     0.130 A 
ATOM      6  C   UNL     1       4.362  -3.294   2.132  1.00  0.00     0.048 A 
ENDROOT
BRANCH   1   7
ATOM      7  C   UNL     1       7.761  -4.852   2.083  1.00  0.00     0.018 A 
ATOM      8  C   UNL     1       8.413  -5.615   1.114  1.00  0.00     0.133 A 
ATOM      9  C   UNL     1       9.508  -6.404   1.470  1.00  0.00     0.079 A 
ATOM     10  C   UNL     1       8.205  -4.875   3.405  1.00  0.00     0.015 A 
ATOM     11  C   UNL     1       9.950  -6.428   2.791  1.00  0.00     0.126 A 
ATOM     12  C   UNL     1       9.299  -5.663   3.759  1.00  0.00     0.040 A 
ATOM     13  F   UNL     1       7.997  -5.606  -0.160  1.00  0.00    -0.206 F 
ATOM     14  F   UNL     1      11.001  -7.185   3.133  1.00  0.00    -0.207 F 
ENDBRANCH   1   7
BRANCH   4  15
ATOM     15  C   UNL     1       5.698  -1.529  -0.902  1.00  0.00     0.339 C 
ATOM     16  O   UNL     1       5.338  -0.350  -0.942  1.00  0.00    -0.246 OA
BRANCH  15  17
ATOM     17  O   UNL     1       6.244  -2.158  -1.978  1.00  0.00    -0.478 OA
ATOM     18  H   UNL     1       6.058  -3.121  -1.970  1.00  0.00     0.297 HD
ENDBRANCH  15  17
ENDBRANCH   4  15
BRANCH   5  19
ATOM     19  O   UNL     1       3.353  -1.688   0.696  1.00  0.00    -0.507 OA
ATOM     20  H   UNL     1       3.189  -1.051   1.412  1.00  0.00     0.293 HD
ENDBRANCH   5  19
TORSDOF 4
ENDMDL
MODEL 3
REMARK VINA RESULT:    -6.843      1.308      2.763
REMARK INTER + INTRA:          -8.699
REMARK INTER:                  -8.019
REMARK INTRA:                  -0.680
REMARK UNBOUND:                -0.656
REMARK SMILES O=C(O)c1cc(-c2ccc(F)cc2F)ccc1O
REMARK SMILES IDX 6 1 5 2 15 3 4 4 17 5 16 6 7 7 13 8 12 9 8 10 10 11 9 12
REMARK SMILES IDX 14 13 11 14 2 15 1 16 3 17 18 19
REMARK H PARENT 3 18 18 20
ROOT
ATOM      1  C   UNL     1       6.614  -4.043   1.738  1.00  0.00    -0.014 A 
ATOM      2  C   UNL     1       6.690  -3.193   0.635  1.00  0.00     0.028 A 
ATOM      3  C   UNL     1       5.437  -4.117   2.482  1.00  0.00     0.013 A 
ATOM      4  C   UNL     1       5.588  -2.417   0.276  1.00  0.00     0.102 A 
ATOM      5  C   UNL     1       4.410  -2.491   1.020  1.00  0.00     0.130 A 
ATOM      6  C   UNL     1       4.335  -3.341   2.124  1.00  0.00     0.048 A 
ENDROOT
BRANCH   1   7
ATOM      7  C   UNL     1       7.758  -4.848   2.111  1.00  0.00     0.018 A 
ATOM      8  C   UNL     1       8.216  -4.844   3.429  1.00  0.00     0.133 A 
ATOM      9  C   UNL     1       9.318  -5.621   3.785  1.00  0.00     0.079 A 
ATOM     10  C   UNL     1       8.400  -5.629   1.151  1.00  0.00     0.015 A 
ATOM     11  C   UNL     1       9.962  -6.401   2.825  1.00  0.00     0.126 A 
ATOM     12  C   UNL     1       9.502  -6.405   1.508  1.00  0.00     0.040 A 
ATOM     13  F   UNL     1       7.611  -4.097   4.364  1.00  0.00    -0.206 F 
ATOM     14  F   UNL     1      11.020  -7.148   3.166  1.00  0.00    -0.207 F 
ENDBRANCH   1   7
BRANCH   4  15
ATOM     15  C   UNL     1       5.686  -1.536  -0.880  1.00  0.00     0.339 C 
ATOM     16  O   UNL     1       5.326  -0.357  -0.911  1.00  0.00    -0.246 OA
BRANCH  15  17
ATOM     17  O   UNL     1       6.234  -2.157  -1.960  1.00  0.00    -0.478 OA
ATOM     18  H   UNL     1       5.598  -2.765  -2.392  1.00  0.00     0.297 HD
ENDBRANCH  15  17
ENDBRANCH   4  15
BRANCH   5  19
ATOM     19  O   UNL     1       3.322  -1.741   0.686  1.00  0.00    -0.507 OA
ATOM     20  H   UNL     1       3.621  -0.870   0.372  1.00  0.00     0.293 HD
ENDBRANCH   5  19
TORSDOF 4
ENDMDL
MODEL 4
REMARK VINA RESULT:    -5.376      4.551      6.911
REMARK INTER + INTRA:          -6.975
REMARK INTER:                  -5.899
REMARK INTRA:                  -1.076
REMARK UNBOUND:                -0.656
REMARK SMILES O=C(O)c1cc(-c2ccc(F)cc2F)ccc1O
REMARK SMILES IDX 6 1 5 2 15 3 4 4 17 5 16 6 7 7 13 8 12 9 8 10 10 11 9 12
REMARK SMILES IDX 14 13 11 14 2 15 1 16 3 17 18 19
REMARK H PARENT 3 18 18 20
ROOT
ATOM      1  C   UNL     1       8.757  -5.453   2.257  1.00  0.00    -0.014 A 
ATOM      2  C   UNL     1      10.062  -5.013   2.039  1.00  0.00     0.028 A 
ATOM      3  C   UNL     1       8.530  -6.693   2.853  1.00  0.00     0.013 A 
ATOM      4  C   UNL     1      11.141  -5.813   2.417  1.00  0.00     0.102 A 
ATOM      5  C   UNL     1      10.914  -7.053   3.013  1.00  0.00     0.130 A 
ATOM      6  C   UNL     1       9.607  -7.493   3.231  1.00  0.00     0.048 A 
ENDROOT
BRANCH   1   7
ATOM      7  C   UNL     1       7.638  -4.624   1.864  1.00  0.00     0.018 A 
ATOM      8  C   UNL     1       7.155  -4.674   0.556  1.00  0.00     0.133 A 
ATOM      9  C   UNL     1       6.075  -3.873   0.181  1.00  0.00     0.079 A 
ATOM     10  C   UNL     1       7.042  -3.775   2.796  1.00  0.00     0.015 A 
ATOM     11  C   UNL     1       5.480  -3.024   1.113  1.00  0.00     0.126 A 
ATOM     12  C   UNL     1       5.963  -2.976   2.421  1.00  0.00     0.040 A 
ATOM     13  F   UNL     1       7.718  -5.483  -0.353  1.00  0.00    -0.206 F 
ATOM     14  F   UNL     1       4.444  -2.255   0.754  1.00  0.00    -0.207 F 
ENDBRANCH   1   7
BRANCH   4  15
ATOM     15  C   UNL     1      12.496  -5.335   2.181  1.00  0.00     0.339 C 
ATOM     16  O   UNL     1      13.523  -5.853   2.625  1.00  0.00    -0.246 OA
BRANCH  15  17
ATOM     17  O   UNL     1      12.524  -4.224   1.395  1.00  0.00    -0.478 OA
ATOM     18  H   UNL     1      13.036  -3.497   1.810  1.00  0.00     0.297 HD
ENDBRANCH  15  17
ENDBRANCH   4  15
BRANCH   5  19
ATOM     19  O   UNL     1      11.954  -7.849   3.391  1.00  0.00    -0.507 OA
ATOM     20  H   UNL     1      12.328  -7.509   4.222  1.00  0.00     0.293 HD
ENDBRANCH   5  19
TORSDOF 4
ENDMDL
MODEL 5
REMARK VINA RESULT:    -5.367      3.993      6.277
REMARK INTER + INTRA:          -6.964
REMARK INTER:                  -5.880
REMARK INTRA:                  -1.084
REMARK UNBOUND:                -0.656
REMARK SMILES O=C(O)c1cc(-c2ccc(F)cc2F)ccc1O
REMARK SMILES IDX 6 1 5 2 15 3 4 4 17 5 16 6 7 7 13 8 12 9 8 10 10 11 9 12
REMARK SMILES IDX 14 13 11 14 2 15 1 16 3 17 18 19
REMARK H PARENT 3 18 18 20
ROOT
ATOM      1  C   UNL     1       8.593  -5.482   2.586  1.00  0.00    -0.014 A 
ATOM      2  C   UNL     1       8.516  -6.763   3.130  1.00  0.00     0.028 A 
ATOM      3  C   UNL     1       9.833  -4.941   2.248  1.00  0.00     0.013 A 
ATOM      4  C   UNL     1       9.680  -7.504   3.337  1.00  0.00     0.102 A 
ATOM      5  C   UNL     1      10.920  -6.963   2.999  1.00  0.00     0.130 A 
ATOM      6  C   UNL     1      10.997  -5.681   2.454  1.00  0.00     0.048 A 
ENDROOT
BRANCH   1   7
ATOM      7  C   UNL     1       7.386  -4.712   2.373  1.00  0.00     0.018 A 
ATOM      8  C   UNL     1       6.875  -3.913   3.396  1.00  0.00     0.133 A 
ATOM      9  C   UNL     1       5.711  -3.173   3.186  1.00  0.00     0.079 A 
ATOM     10  C   UNL     1       6.735  -4.770   1.141  1.00  0.00     0.015 A 
ATOM     11  C   UNL     1       5.059  -3.231   1.954  1.00  0.00     0.126 A 
ATOM     12  C   UNL     1       5.572  -4.030   0.931  1.00  0.00     0.040 A 
ATOM     13  F   UNL     1       7.487  -3.849   4.586  1.00  0.00    -0.206 F 
ATOM     14  F   UNL     1       3.942  -2.521   1.752  1.00  0.00    -0.207 F 
ENDBRANCH   1   7
BRANCH   4  15
ATOM     15  C   UNL     1       9.579  -8.841   3.907  1.00  0.00     0.339 C 
ATOM     16  O   UNL     1      10.513  -9.636   4.031  1.00  0.00    -0.246 OA
BRANCH  15  17
ATOM     17  O   UNL     1       8.312  -9.141   4.304  1.00  0.00    -0.478 OA
ATOM     18  H   UNL     1       8.200 -10.100   4.470  1.00  0.00     0.297 HD
ENDBRANCH  15  17
ENDBRANCH   4  15
BRANCH   5  19
ATOM     19  O   UNL     1      12.069  -7.671   3.192  1.00  0.00    -0.507 OA
ATOM     20  H   UNL     1      11.885  -8.419   3.786  1.00  0.00     0.293 HD
ENDBRANCH   5  19
TORSDOF 4
ENDMDL
MODEL 6
REMARK VINA RESULT:    -5.358      4.149      6.467
REMARK INTER + INTRA:          -6.954
REMARK INTER:                  -5.883
REMARK INTRA:                  -1.071
REMARK UNBOUND:                -0.656
REMARK SMILES O=C(O)c1cc(-c2ccc(F)cc2F)ccc1O
REMARK SMILES IDX 6 1 5 2 15 3 4 4 17 5 16 6 7 7 13 8 12 9 8 10 10 11 9 12
REMARK SMILES IDX 14 13 11 14 2 15 1 16 3 17 18 19
REMARK H PARENT 3 18 18 20
ROOT
ATOM      1  C   UNL     1       8.751  -5.482   2.353  1.00  0.00    -0.014 A 
ATOM      2  C   UNL     1       8.587  -6.741   2.929  1.00  0.00     0.028 A 
ATOM      3  C   UNL     1      10.032  -4.995   2.095  1.00  0.00     0.013 A 
ATOM      4  C   UNL     1       9.704  -7.514   3.248  1.00  0.00     0.102 A 
ATOM      5  C   UNL     1      10.985  -7.026   2.991  1.00  0.00     0.130 A 
ATOM      6  C   UNL     1      11.149  -5.766   2.414  1.00  0.00     0.048 A 
ENDROOT
BRANCH   1   7
ATOM      7  C   UNL     1       7.593  -4.680   2.023  1.00  0.00     0.018 A 
ATOM      8  C   UNL     1       7.081  -4.690   0.724  1.00  0.00     0.133 A 
ATOM      9  C   UNL     1       5.965  -3.914   0.410  1.00  0.00     0.079 A 
ATOM     10  C   UNL     1       6.988  -3.897   3.005  1.00  0.00     0.015 A 
ATOM     11  C   UNL     1       5.360  -3.131   1.393  1.00  0.00     0.126 A 
ATOM     12  C   UNL     1       5.872  -3.123   2.691  1.00  0.00     0.040 A 
ATOM     13  F   UNL     1       7.653  -5.434  -0.233  1.00  0.00    -0.206 F 
ATOM     14  F   UNL     1       4.288  -2.387   1.092  1.00  0.00    -0.207 F 
ENDBRANCH   1   7
BRANCH   4  15
ATOM     15  C   UNL     1       9.511  -8.827   3.849  1.00  0.00     0.339 C 
ATOM     16  O   UNL     1      10.397  -9.666   4.029  1.00  0.00    -0.246 OA
BRANCH  15  17
ATOM     17  O   UNL     1       8.217  -9.048   4.207  1.00  0.00    -0.478 OA
ATOM     18  H   UNL     1       8.047  -8.789   5.137  1.00  0.00     0.297 HD
ENDBRANCH  15  17
ENDBRANCH   4  15
BRANCH   5  19
ATOM     19  O   UNL     1      12.090  -7.766   3.294  1.00  0.00    -0.507 OA
ATOM     20  H   UNL     1      11.963  -8.674   2.969  1.00  0.00     0.293 HD
ENDBRANCH   5  19
TORSDOF 4
ENDMDL
MODEL 7
REMARK VINA RESULT:    -4.635      2.081      3.214
REMARK INTER + INTRA:          -6.104
REMARK INTER:                  -5.109
REMARK INTRA:                  -0.996
REMARK UNBOUND:                -0.656
REMARK SMILES O=C(O)c1cc(-c2ccc(F)cc2F)ccc1O
REMARK SMILES IDX 6 1 5 2 15 3 4 4 17 5 16 6 7 7 13 8 12 9 8 10 10 11 9 12
REMARK SMILES IDX 14 13 11 14 2 15 1 16 3 17 18 19
REMARK H PARENT 3 18 18 20
ROOT
ATOM      1  C   UNL     1       7.743  -4.630   2.341  1.00  0.00    -0.014 A 
ATOM      2  C   UNL     1       7.466  -4.371   1.000  1.00  0.00     0.028 A 
ATOM      3  C   UNL     1       7.095  -3.903   3.340  1.00  0.00     0.013 A 
ATOM      4  C   UNL     1       6.540  -3.385   0.655  1.00  0.00     0.102 A 
ATOM      5  C   UNL     1       5.892  -2.659   1.654  1.00  0.00     0.130 A 
ATOM      6  C   UNL     1       6.170  -2.918   2.997  1.00  0.00     0.048 A 
ENDROOT
BRANCH   1   7
ATOM      7  C   UNL     1       8.704  -5.651   2.699  1.00  0.00     0.018 A 
ATOM      8  C   UNL     1      10.066  -5.440   2.478  1.00  0.00     0.133 A 
ATOM      9  C   UNL     1      10.989  -6.427   2.824  1.00  0.00     0.079 A 
ATOM     10  C   UNL     1       8.267  -6.847   3.266  1.00  0.00     0.015 A 
ATOM     11  C   UNL     1      10.551  -7.624   3.390  1.00  0.00     0.126 A 
ATOM     12  C   UNL     1       9.190  -7.833   3.612  1.00  0.00     0.040 A 
ATOM     13  F   UNL     1      10.502  -4.296   1.931  1.00  0.00    -0.206 F 
ATOM     14  F   UNL     1      11.436  -8.572   3.723  1.00  0.00    -0.207 F 
ENDBRANCH   1   7
BRANCH   4  15
ATOM     15  C   UNL     1       6.264  -3.131  -0.752  1.00  0.00     0.339 C 
ATOM     16  O   UNL     1       5.650  -2.157  -1.194  1.00  0.00    -0.246 OA
BRANCH  15  17
ATOM     17  O   UNL     1       6.767  -4.102  -1.562  1.00  0.00    -0.478 OA
ATOM     18  H   UNL     1       6.115  -4.388  -2.236  1.00  0.00     0.297 HD
ENDBRANCH  15  17
ENDBRANCH   4  15
BRANCH   5  19
ATOM     19  O   UNL     1       4.984  -1.692   1.339  1.00  0.00    -0.507 OA
ATOM     20  H   UNL     1       5.446  -0.950   0.912  1.00  0.00     0.293 HD
ENDBRANCH   5  19
TORSDOF 4
ENDMDL
