MODEL 1
REMARK VINA RESULT:    -6.720      0.000      0.000
REMARK INTER + INTRA:          -8.663
REMARK INTER:                  -7.898
REMARK INTRA:                  -0.765
REMARK UNBOUND:                -0.765
REMARK SMILES O=C(O)c1cc(-c2ccc(F)cc2F)ccc1O
REMARK SMILES IDX 6 1 5 2 15 3 4 4 17 5 16 6 7 7 13 8 12 9 8 10 10 11 9 12
REMARK SMILES IDX 14 13 11 14 2 15 1 16 3 17 18 19
REMARK H PARENT 3 18 18 20
ROOT
ATOM      1  C   UNL     1       6.405   2.809   4.488  1.00  0.00    -0.014 A 
ATOM      2  C   UNL     1       6.889   2.095   3.391  1.00  0.00     0.028 A 
ATOM      3  C   UNL     1       5.033   2.865   4.733  1.00  0.00     0.013 A 
ATOM      4  C   UNL     1       6.001   1.438   2.539  1.00  0.00     0.102 A 
ATOM      5  C   UNL     1       4.629   1.495   2.784  1.00  0.00     0.130 A 
ATOM      6  C   UNL     1       4.145   2.209   3.882  1.00  0.00     0.048 A 
ENDROOT
BRANCH   1   7
ATOM      7  C   UNL     1       7.326   3.491   5.371  1.00  0.00     0.018 A 
ATOM      8  C   UNL     1       8.375   2.791   5.967  1.00  0.00     0.133 A 
ATOM      9  C   UNL     1       9.260   3.453   6.818  1.00  0.00     0.079 A 
ATOM     10  C   UNL     1       7.163   4.853   5.625  1.00  0.00     0.015 A 
ATOM     11  C   UNL     1       9.097   4.814   7.073  1.00  0.00     0.126 A 
ATOM     12  C   UNL     1       8.048   5.514   6.475  1.00  0.00     0.040 A 
ATOM     13  F   UNL     1       8.544   1.481   5.736  1.00  0.00    -0.206 F 
ATOM     14  F   UNL     1       9.946   5.450   7.890  1.00  0.00    -0.207 F 
ENDBRANCH   1   7
BRANCH   4  15
ATOM     15  C   UNL     1       6.526   0.698   1.400  1.00  0.00     0.339 C 
ATOM     16  O   UNL     1       6.049   0.705   0.263  1.00  0.00    -0.246 OA
BRANCH  15  17
ATOM     17  O   UNL     1       7.633  -0.026   1.718  1.00  0.00    -0.478 OA
ATOM     18  H   UNL     1       8.312   0.017   1.013  1.00  0.00     0.297 HD
ENDBRANCH  15  17
ENDBRANCH   4  15
BRANCH   5  19
ATOM     19  O   UNL     1       3.745   0.859   1.964  1.00  0.00    -0.507 OA
ATOM     20  H   UNL     1       3.781   1.267   1.082  1.00  0.00     0.293 HD
ENDBRANCH   5  19
TORSDOF 4
ENDMDL
MODEL 2
REMARK VINA RESULT:    -6.718      1.136      1.614
REMARK INTER + INTRA:          -8.661
REMARK INTER:                  -7.899
REMARK INTRA:                  -0.762
REMARK UNBOUND:                -0.765
REMARK SMILES O=C(O)c1cc(-c2ccc(F)cc2F)ccc1O
REMARK SMILES IDX 6 1 5 2 15 3 4 4 17 5 16 6 7 7 13 8 12 9 8 10 10 11 9 12
REMARK SMILES IDX 14 13 11 14 2 15 1 16 3 17 18 19
REMARK H PARENT 3 18 18 20
ROOT
ATOM      1  C   UNL     1       6.348   2.850   4.470  1.00  0.00    -0.014 A 
ATOM      2  C   UNL     1       6.844   2.121   3.390  1.00  0.00     0.028 A 
ATOM      3  C   UNL     1       4.973   2.909   4.699  1.00  0.00     0.013 A 
ATOM      4  C   UNL     1       5.966   1.449   2.539  1.00  0.00     0.102 A 
ATOM      5  C   UNL     1       4.592   1.508   2.768  1.00  0.00     0.130 A 
ATOM      6  C   UNL     1       4.095   2.238   3.849  1.00  0.00     0.048 A 
ENDROOT
BRANCH   1   7
ATOM      7  C   UNL     1       7.258   3.548   5.352  1.00  0.00     0.018 A 
ATOM      8  C   UNL     1       7.108   4.918   5.573  1.00  0.00     0.133 A 
ATOM      9  C   UNL     1       7.988   5.587   6.424  1.00  0.00     0.079 A 
ATOM     10  C   UNL     1       8.286   2.848   5.984  1.00  0.00     0.015 A 
ATOM     11  C   UNL     1       9.016   4.887   7.055  1.00  0.00     0.126 A 
ATOM     12  C   UNL     1       9.164   3.517   6.835  1.00  0.00     0.040 A 
ATOM     13  F   UNL     1       6.127   5.605   4.972  1.00  0.00    -0.206 F 
ATOM     14  F   UNL     1       9.861   5.528   7.872  1.00  0.00    -0.207 F 
ENDBRANCH   1   7
BRANCH   4  15
ATOM     15  C   UNL     1       6.505   0.692   1.417  1.00  0.00     0.339 C 
ATOM     16  O   UNL     1       6.058   0.705   0.268  1.00  0.00    -0.246 OA
BRANCH  15  17
ATOM     17  O   UNL     1       7.586  -0.056   1.768  1.00  0.00    -0.478 OA
ATOM     18  H   UNL     1       8.416   0.304   1.392  1.00  0.00     0.297 HD
ENDBRANCH  15  17
ENDBRANCH   4  15
BRANCH   5  19
ATOM     19  O   UNL     1       3.717   0.858   1.949  1.00  0.00    -0.507 OA
ATOM     20  H   UNL     1       3.671  -0.077   2.212  1.00  0.00     0.293 HD
ENDBRANCH   5  19
TORSDOF 4
ENDMDL
MODEL 3
REMARK VINA RESULT:    -6.612      1.309      2.739
REMARK INTER + INTRA:          -8.537
REMARK INTER:                  -7.656
REMARK INTRA:                  -0.880
REMARK UNBOUND:                -0.765
REMARK SMILES O=C(O)c1cc(-c2ccc(F)cc2F)ccc1O
REMARK SMILES IDX 6 1 5 2 15 3 4 4 17 5 16 6 7 7 13 8 12 9 8 10 10 11 9 12
REMARK SMILES IDX 14 13 11 14 2 15 1 16 3 17 18 19
REMARK H PARENT 3 18 18 20
ROOT
ATOM      1  C   UNL     1       6.337   2.923   4.420  1.00  0.00    -0.014 A 
ATOM      2  C   UNL     1       4.988   2.952   4.772  1.00  0.00     0.028 A 
ATOM      3  C   UNL     1       6.737   2.285   3.246  1.00  0.00     0.013 A 
ATOM      4  C   UNL     1       4.039   2.344   3.951  1.00  0.00     0.102 A 
ATOM      5  C   UNL     1       4.439   1.706   2.777  1.00  0.00     0.130 A 
ATOM      6  C   UNL     1       5.789   1.676   2.424  1.00  0.00     0.048 A 
ENDROOT
BRANCH   1   7
ATOM      7  C   UNL     1       7.322   3.552   5.273  1.00  0.00     0.018 A 
ATOM      8  C   UNL     1       8.344   2.792   5.842  1.00  0.00     0.133 A 
ATOM      9  C   UNL     1       9.292   3.403   6.664  1.00  0.00     0.079 A 
ATOM     10  C   UNL     1       7.249   4.922   5.523  1.00  0.00     0.015 A 
ATOM     11  C   UNL     1       9.218   4.773   6.915  1.00  0.00     0.126 A 
ATOM     12  C   UNL     1       8.197   5.532   6.344  1.00  0.00     0.040 A 
ATOM     13  F   UNL     1       8.427   1.474   5.613  1.00  0.00    -0.206 F 
ATOM     14  F   UNL     1      10.128   5.360   7.703  1.00  0.00    -0.207 F 
ENDBRANCH   1   7
BRANCH   4  15
ATOM     15  C   UNL     1       2.635   2.386   4.336  1.00  0.00     0.339 C 
ATOM     16  O   UNL     1       1.770   1.586   3.970  1.00  0.00    -0.246 OA
BRANCH  15  17
ATOM     17  O   UNL     1       2.357   3.427   5.168  1.00  0.00    -0.478 OA
ATOM     18  H   UNL     1       3.070   3.569   5.825  1.00  0.00     0.297 HD
ENDBRANCH  15  17
ENDBRANCH   4  15
BRANCH   5  19
ATOM     19  O   UNL     1       3.528   1.106   1.960  1.00  0.00    -0.507 OA
ATOM     20  H   UNL     1       3.757   1.296   1.034  1.00  0.00     0.293 HD
ENDBRANCH   5  19
TORSDOF 4
ENDMDL
MODEL 4
REMARK VINA RESULT:    -6.602      1.712      3.183
REMARK INTER + INTRA:          -8.525
REMARK INTER:                  -7.654
REMARK INTRA:                  -0.871
REMARK UNBOUND:                -0.765
REMARK SMILES O=C(O)c1cc(-c2ccc(F)cc2F)ccc1O
REMARK SMILES IDX 6 1 5 2 15 3 4 4 17 5 16 6 7 7 13 8 12 9 8 10 10 11 9 12
REMARK SMILES IDX 14 13 11 14 2 15 1 16 3 17 18 19
REMARK H PARENT 3 18 18 20
ROOT
ATOM      1  C   UNL     1       6.325   2.977   4.431  1.00  0.00    -0.014 A 
ATOM      2  C   UNL     1       4.974   2.988   4.779  1.00  0.00     0.028 A 
ATOM      3  C   UNL     1       6.737   2.349   3.256  1.00  0.00     0.013 A 
ATOM      4  C   UNL     1       4.036   2.370   3.952  1.00  0.00     0.102 A 
ATOM      5  C   UNL     1       4.448   1.741   2.777  1.00  0.00     0.130 A 
ATOM      6  C   UNL     1       5.800   1.731   2.429  1.00  0.00     0.048 A 
ENDROOT
BRANCH   1   7
ATOM      7  C   UNL     1       7.299   3.617   5.289  1.00  0.00     0.018 A 
ATOM      8  C   UNL     1       7.197   4.980   5.570  1.00  0.00     0.133 A 
ATOM      9  C   UNL     1       8.139   5.592   6.397  1.00  0.00     0.079 A 
ATOM     10  C   UNL     1       8.340   2.867   5.836  1.00  0.00     0.015 A 
ATOM     11  C   UNL     1       9.180   4.843   6.943  1.00  0.00     0.126 A 
ATOM     12  C   UNL     1       9.280   3.480   6.663  1.00  0.00     0.040 A 
ATOM     13  F   UNL     1       6.204   5.715   5.050  1.00  0.00    -0.206 F 
ATOM     14  F   UNL     1      10.084   5.430   7.737  1.00  0.00    -0.207 F 
ENDBRANCH   1   7
BRANCH   4  15
ATOM     15  C   UNL     1       2.630   2.392   4.333  1.00  0.00     0.339 C 
ATOM     16  O   UNL     1       1.778   1.581   3.963  1.00  0.00    -0.246 OA
BRANCH  15  17
ATOM     17  O   UNL     1       2.336   3.427   5.166  1.00  0.00    -0.478 OA
ATOM     18  H   UNL     1       2.852   4.231   4.945  1.00  0.00     0.297 HD
ENDBRANCH  15  17
ENDBRANCH   4  15
BRANCH   5  19
ATOM     19  O   UNL     1       3.547   1.132   1.955  1.00  0.00    -0.507 OA
ATOM     20  H   UNL     1       2.919   1.798   1.625  1.00  0.00     0.293 HD
ENDBRANCH   5  19
TORSDOF 4
ENDMDL
MODEL 5
REMARK VINA RESULT:    -5.084      4.571      6.916
REMARK INTER + INTRA:          -6.741
REMARK INTER:                  -5.656
REMARK INTRA:                  -1.084
REMARK UNBOUND:                -0.765
REMARK SMILES O=C(O)c1cc(-c2ccc(F)cc2F)ccc1O
REMARK SMILES IDX 6 1 5 2 15 3 4 4 17 5 16 6 7 7 13 8 12 9 8 10 10 11 9 12
REMARK SMILES IDX 14 13 11 14 2 15 1 16 3 17 18 19
REMARK H PARENT 3 18 18 20
ROOT
ATOM      1  C   UNL     1       7.987   4.181   6.026  1.00  0.00    -0.014 A 
ATOM      2  C   UNL     1       7.788   4.389   7.390  1.00  0.00     0.028 A 
ATOM      3  C   UNL     1       9.179   4.587   5.426  1.00  0.00     0.013 A 
ATOM      4  C   UNL     1       8.780   5.003   8.155  1.00  0.00     0.102 A 
ATOM      5  C   UNL     1       9.972   5.409   7.554  1.00  0.00     0.130 A 
ATOM      6  C   UNL     1      10.171   5.201   6.189  1.00  0.00     0.048 A 
ENDROOT
BRANCH   1   7
ATOM      7  C   UNL     1       6.958   3.545   5.232  1.00  0.00     0.018 A 
ATOM      8  C   UNL     1       5.954   4.313   4.642  1.00  0.00     0.133 A 
ATOM      9  C   UNL     1       4.964   3.696   3.877  1.00  0.00     0.079 A 
ATOM     10  C   UNL     1       6.973   2.161   5.057  1.00  0.00     0.015 A 
ATOM     11  C   UNL     1       4.977   2.312   3.703  1.00  0.00     0.126 A 
ATOM     12  C   UNL     1       5.983   1.545   4.292  1.00  0.00     0.040 A 
ATOM     13  F   UNL     1       5.924   5.644   4.803  1.00  0.00    -0.206 F 
ATOM     14  F   UNL     1       4.027   1.719   2.969  1.00  0.00    -0.207 F 
ENDBRANCH   1   7
BRANCH   4  15
ATOM     15  C   UNL     1       8.553   5.211   9.579  1.00  0.00     0.339 C 
ATOM     16  O   UNL     1       9.401   5.593  10.389  1.00  0.00    -0.246 OA
BRANCH  15  17
ATOM     17  O   UNL     1       7.271   4.936   9.944  1.00  0.00    -0.478 OA
ATOM     18  H   UNL     1       7.180   4.026  10.299  1.00  0.00     0.297 HD
ENDBRANCH  15  17
ENDBRANCH   4  15
BRANCH   5  19
ATOM     19  O   UNL     1      10.954   6.011   8.284  1.00  0.00    -0.507 OA
ATOM     20  H   UNL     1      10.547   6.511   9.012  1.00  0.00     0.293 HD
ENDBRANCH   5  19
TORSDOF 4
ENDMDL
MODEL 6
REMARK VINA RESULT:    -5.050      4.148      6.398
REMARK INTER + INTRA:          -6.701
REMARK INTER:                  -5.613
REMARK INTRA:                  -1.088
REMARK UNBOUND:                -0.765
REMARK SMILES O=C(O)c1cc(-c2ccc(F)cc2F)ccc1O
REMARK SMILES IDX 6 1 5 2 15 3 4 4 17 5 16 6 7 7 13 8 12 9 8 10 10 11 9 12
REMARK SMILES IDX 14 13 11 14 2 15 1 16 3 17 18 19
REMARK H PARENT 3 18 18 20
ROOT
ATOM      1  C   UNL     1       8.061   4.177   5.998  1.00  0.00    -0.014 A 
ATOM      2  C   UNL     1       9.238   4.605   5.385  1.00  0.00     0.028 A 
ATOM      3  C   UNL     1       7.877   4.370   7.367  1.00  0.00     0.013 A 
ATOM      4  C   UNL     1      10.233   5.226   6.141  1.00  0.00     0.102 A 
ATOM      5  C   UNL     1      10.049   5.419   7.510  1.00  0.00     0.130 A 
ATOM      6  C   UNL     1       8.871   4.991   8.124  1.00  0.00     0.048 A 
ENDROOT
BRANCH   1   7
ATOM      7  C   UNL     1       7.030   3.532   5.214  1.00  0.00     0.018 A 
ATOM      8  C   UNL     1       6.006   4.289   4.645  1.00  0.00     0.133 A 
ATOM      9  C   UNL     1       5.013   3.663   3.890  1.00  0.00     0.079 A 
ATOM     10  C   UNL     1       7.062   2.150   5.029  1.00  0.00     0.015 A 
ATOM     11  C   UNL     1       5.045   2.281   3.705  1.00  0.00     0.126 A 
ATOM     12  C   UNL     1       6.069   1.525   4.274  1.00  0.00     0.040 A 
ATOM     13  F   UNL     1       5.959   5.618   4.816  1.00  0.00    -0.206 F 
ATOM     14  F   UNL     1       4.092   1.679   2.981  1.00  0.00    -0.207 F 
ENDBRANCH   1   7
BRANCH   4  15
ATOM     15  C   UNL     1      11.455   5.666   5.482  1.00  0.00     0.339 C 
ATOM     16  O   UNL     1      11.517   6.174   4.360  1.00  0.00    -0.246 OA
BRANCH  15  17
ATOM     17  O   UNL     1      12.560   5.459   6.249  1.00  0.00    -0.478 OA
ATOM     18  H   UNL     1      13.387   5.605   5.743  1.00  0.00     0.297 HD
ENDBRANCH  15  17
ENDBRANCH   4  15
BRANCH   5  19
ATOM     19  O   UNL     1      11.008   6.024   8.267  1.00  0.00    -0.507 OA
ATOM     20  H   UNL     1      11.709   6.360   7.682  1.00  0.00     0.293 HD
ENDBRANCH   5  19
TORSDOF 4
ENDMDL
MODEL 7
REMARK VINA RESULT:    -3.809      8.726     11.252
REMARK INTER + INTRA:          -5.242
REMARK INTER:                  -4.260
REMARK INTRA:                  -0.982
REMARK UNBOUND:                -0.765
REMARK SMILES O=C(O)c1cc(-c2ccc(F)cc2F)ccc1O
REMARK SMILES IDX 6 1 5 2 15 3 4 4 17 5 16 6 7 7 13 8 12 9 8 10 10 11 9 12
REMARK SMILES IDX 14 13 11 14 2 15 1 16 3 17 18 19
REMARK H PARENT 3 18 18 20
ROOT
ATOM      1  C   UNL     1      10.180   7.660  12.206  1.00  0.00    -0.014 A 
ATOM      2  C   UNL     1      11.487   7.876  11.773  1.00  0.00     0.028 A 
ATOM      3  C   UNL     1       9.559   8.588  13.042  1.00  0.00     0.013 A 
ATOM      4  C   UNL     1      12.176   9.020  12.176  1.00  0.00     0.102 A 
ATOM      5  C   UNL     1      11.555   9.949  13.012  1.00  0.00     0.130 A 
ATOM      6  C   UNL     1      10.246   9.732  13.445  1.00  0.00     0.048 A 
ENDROOT
BRANCH   1   7
ATOM      7  C   UNL     1       9.466   6.472  11.789  1.00  0.00     0.018 A 
ATOM      8  C   UNL     1       9.240   5.436  12.696  1.00  0.00     0.133 A 
ATOM      9  C   UNL     1       8.551   4.292  12.290  1.00  0.00     0.079 A 
ATOM     10  C   UNL     1       9.002   6.365  10.478  1.00  0.00     0.015 A 
ATOM     11  C   UNL     1       8.089   4.185  10.979  1.00  0.00     0.126 A 
ATOM     12  C   UNL     1       8.313   5.222  10.074  1.00  0.00     0.040 A 
ATOM     13  F   UNL     1       9.682   5.522  13.959  1.00  0.00    -0.206 F 
ATOM     14  F   UNL     1       7.427   3.088  10.589  1.00  0.00    -0.207 F 
ENDBRANCH   1   7
BRANCH   4  15
ATOM     15  C   UNL     1      13.541   9.228  11.713  1.00  0.00     0.339 C 
ATOM     16  O   UNL     1      14.464   8.419  11.828  1.00  0.00    -0.246 OA
BRANCH  15  17
ATOM     17  O   UNL     1      13.708  10.441  11.118  1.00  0.00    -0.478 OA
ATOM     18  H   UNL     1      14.604  10.804  11.276  1.00  0.00     0.297 HD
ENDBRANCH  15  17
ENDBRANCH   4  15
BRANCH   5  19
ATOM     19  O   UNL     1      12.210  11.074  13.417  1.00  0.00    -0.507 OA
ATOM     20  H   UNL     1      12.466  11.591  12.633  1.00  0.00     0.293 HD
ENDBRANCH   5  19
TORSDOF 4
ENDMDL
