MODEL 1
REMARK VINA RESULT:    -5.237      0.000      0.000
REMARK INTER + INTRA:          -7.329
REMARK INTER:                  -6.461
REMARK INTRA:                  -0.867
REMARK UNBOUND:                -0.867
REMARK SMILES Cc1ccc(C(=O)c2cc(O)c(O)c([N+](=O)[O-])c2)cc1
REMARK SMILES IDX 8 1 18 2 9 3 14 4 10 5 12 6 6 7 7 8 5 9 4 10 19 11 3 12
REMARK SMILES IDX 20 13 2 14 1 15 15 16 17 17 16 18 11 19 13 21
REMARK H PARENT 11 20 13 22
ROOT
ATOM      1  C   UNL     1       5.727   2.455   5.073  1.00  0.00     0.033 A 
ATOM      2  C   UNL     1       6.440   1.840   4.069  1.00  0.00     0.102 A 
ATOM      3  C   UNL     1       4.361   2.603   5.035  1.00  0.00     0.063 A 
ATOM      4  C   UNL     1       5.745   1.343   2.967  1.00  0.00     0.315 A 
ATOM      5  C   UNL     1       3.666   2.107   3.932  1.00  0.00     0.165 A 
ATOM      6  C   UNL     1       4.359   1.476   2.897  1.00  0.00     0.237 A 
ENDROOT
BRANCH   1   7
ATOM      7  C   UNL     1       6.471   2.987   6.254  1.00  0.00     0.193 C 
ATOM      8  O   UNL     1       5.957   2.824   7.371  1.00  0.00    -0.289 OA
BRANCH   7   9
ATOM      9  C   UNL     1       7.748   3.673   6.128  1.00  0.00     0.023 A 
ATOM     10  C   UNL     1       7.781   5.047   5.892  1.00  0.00     0.012 A 
ATOM     11  C   UNL     1       8.939   2.956   6.242  1.00  0.00     0.012 A 
ATOM     12  C   UNL     1       9.005   5.704   5.771  1.00  0.00     0.004 A 
ATOM     13  C   UNL     1      10.164   3.613   6.121  1.00  0.00     0.004 A 
ATOM     14  C   UNL     1      10.197   4.988   5.886  1.00  0.00    -0.051 A 
ATOM     15  C   UNL     1      11.505   5.690   5.755  1.00  0.00     0.044 C 
ENDBRANCH   7   9
ENDBRANCH   1   7
BRANCH   4  16
ATOM     16  N   UNL     1       6.468   0.703   1.922  1.00  0.00     0.066 N 
ATOM     17  O   UNL     1       7.419  -0.058   2.221  1.00  0.00    -0.258 OA
ATOM     18  O   UNL     1       6.133   0.919   0.734  1.00  0.00    -0.258 OA
ENDBRANCH   4  16
BRANCH   5  19
ATOM     19  O   UNL     1       2.312   2.244   3.878  1.00  0.00    -0.504 OA
ATOM     20  H   UNL     1       1.906   1.385   3.675  1.00  0.00     0.293 HD
ENDBRANCH   5  19
BRANCH   6  21
ATOM     21  O   UNL     1       3.668   0.994   1.824  1.00  0.00    -0.500 OA
ATOM     22  H   UNL     1       3.252   1.729   1.347  1.00  0.00     0.294 HD
ENDBRANCH   6  21
TORSDOF 5
ENDMDL
MODEL 2
REMARK VINA RESULT:    -5.185      2.084      3.557
REMARK INTER + INTRA:          -7.265
REMARK INTER:                  -6.371
REMARK INTRA:                  -0.894
REMARK UNBOUND:                -0.867
REMARK SMILES Cc1ccc(C(=O)c2cc(O)c(O)c([N+](=O)[O-])c2)cc1
REMARK SMILES IDX 8 1 18 2 9 3 14 4 10 5 12 6 6 7 7 8 5 9 4 10 19 11 3 12
REMARK SMILES IDX 20 13 2 14 1 15 15 16 17 17 16 18 11 19 13 21
REMARK H PARENT 11 20 13 22
ROOT
ATOM      1  C   UNL     1       6.651   3.127   3.568  1.00  0.00     0.033 A 
ATOM      2  C   UNL     1       5.383   3.388   4.034  1.00  0.00     0.102 A 
ATOM      3  C   UNL     1       6.916   2.161   2.628  1.00  0.00     0.063 A 
ATOM      4  C   UNL     1       4.320   2.639   3.529  1.00  0.00     0.315 A 
ATOM      5  C   UNL     1       5.853   1.411   2.123  1.00  0.00     0.165 A 
ATOM      6  C   UNL     1       4.555   1.651   2.574  1.00  0.00     0.237 A 
ENDROOT
BRANCH   1   7
ATOM      7  C   UNL     1       7.790   3.929   4.109  1.00  0.00     0.193 C 
ATOM      8  O   UNL     1       8.630   4.345   3.296  1.00  0.00    -0.289 OA
BRANCH   7   9
ATOM      9  C   UNL     1       7.932   4.224   5.525  1.00  0.00     0.023 A 
ATOM     10  C   UNL     1       8.558   3.307   6.370  1.00  0.00     0.012 A 
ATOM     11  C   UNL     1       7.443   5.425   6.040  1.00  0.00     0.012 A 
ATOM     12  C   UNL     1       8.694   3.591   7.729  1.00  0.00     0.004 A 
ATOM     13  C   UNL     1       7.580   5.710   7.399  1.00  0.00     0.004 A 
ATOM     14  C   UNL     1       8.205   4.793   8.244  1.00  0.00    -0.051 A 
ATOM     15  C   UNL     1       8.350   5.095   9.696  1.00  0.00     0.044 C 
ENDBRANCH   7   9
ENDBRANCH   1   7
BRANCH   4  16
ATOM     16  N   UNL     1       3.004   2.897   4.001  1.00  0.00     0.066 N 
ATOM     17  O   UNL     1       2.661   4.084   4.221  1.00  0.00    -0.258 OA
ATOM     18  O   UNL     1       2.225   1.933   4.183  1.00  0.00    -0.258 OA
ENDBRANCH   4  16
BRANCH   5  19
ATOM     19  O   UNL     1       6.097   0.449   1.189  1.00  0.00    -0.504 OA
ATOM     20  H   UNL     1       5.259   0.040   0.917  1.00  0.00     0.293 HD
ENDBRANCH   5  19
BRANCH   6  21
ATOM     21  O   UNL     1       3.523   0.912   2.072  1.00  0.00    -0.500 OA
ATOM     22  H   UNL     1       3.611  -0.010   2.362  1.00  0.00     0.294 HD
ENDBRANCH   6  21
TORSDOF 5
ENDMDL
MODEL 3
REMARK VINA RESULT:    -4.467      1.865      2.132
REMARK INTER + INTRA:          -6.378
REMARK INTER:                  -5.648
REMARK INTRA:                  -0.731
REMARK UNBOUND:                -0.867
REMARK SMILES Cc1ccc(C(=O)c2cc(O)c(O)c([N+](=O)[O-])c2)cc1
REMARK SMILES IDX 8 1 18 2 9 3 14 4 10 5 12 6 6 7 7 8 5 9 4 10 19 11 3 12
REMARK SMILES IDX 20 13 2 14 1 15 15 16 17 17 16 18 11 19 13 21
REMARK H PARENT 11 20 13 22
ROOT
ATOM      1  C   UNL     1       5.211   3.696   3.666  1.00  0.00     0.033 A 
ATOM      2  C   UNL     1       5.939   2.992   2.733  1.00  0.00     0.102 A 
ATOM      3  C   UNL     1       3.970   3.296   4.100  1.00  0.00     0.063 A 
ATOM      4  C   UNL     1       5.393   1.822   2.207  1.00  0.00     0.315 A 
ATOM      5  C   UNL     1       3.424   2.125   3.573  1.00  0.00     0.165 A 
ATOM      6  C   UNL     1       4.136   1.388   2.627  1.00  0.00     0.237 A 
ENDROOT
BRANCH   1   7
ATOM      7  C   UNL     1       5.796   4.950   4.229  1.00  0.00     0.193 C 
ATOM      8  O   UNL     1       5.481   6.019   3.685  1.00  0.00    -0.289 OA
BRANCH   7   9
ATOM      9  C   UNL     1       6.698   4.946   5.369  1.00  0.00     0.023 A 
ATOM     10  C   UNL     1       6.819   6.084   6.168  1.00  0.00     0.012 A 
ATOM     11  C   UNL     1       7.443   3.805   5.665  1.00  0.00     0.012 A 
ATOM     12  C   UNL     1       7.684   6.079   7.261  1.00  0.00     0.004 A 
ATOM     13  C   UNL     1       8.309   3.800   6.759  1.00  0.00     0.004 A 
ATOM     14  C   UNL     1       8.430   4.938   7.557  1.00  0.00    -0.051 A 
ATOM     15  C   UNL     1       9.356   4.934   8.726  1.00  0.00     0.044 C 
ENDBRANCH   7   9
ENDBRANCH   1   7
BRANCH   4  16
ATOM     16  N   UNL     1       6.133   1.083   1.243  1.00  0.00     0.066 N 
ATOM     17  O   UNL     1       5.579   0.772   0.162  1.00  0.00    -0.258 OA
ATOM     18  O   UNL     1       7.317   0.766   1.502  1.00  0.00    -0.258 OA
ENDBRANCH   4  16
BRANCH   5  19
ATOM     19  O   UNL     1       2.195   1.713   3.993  1.00  0.00    -0.504 OA
ATOM     20  H   UNL     1       2.192   1.631   4.961  1.00  0.00     0.293 HD
ENDBRANCH   5  19
BRANCH   6  21
ATOM     21  O   UNL     1       3.591   0.244   2.119  1.00  0.00    -0.500 OA
ATOM     22  H   UNL     1       2.889  -0.073   2.709  1.00  0.00     0.294 HD
ENDBRANCH   6  21
TORSDOF 5
ENDMDL
MODEL 4
REMARK VINA RESULT:    -4.195      3.754      6.619
REMARK INTER + INTRA:          -6.043
REMARK INTER:                  -5.059
REMARK INTRA:                  -0.984
REMARK UNBOUND:                -0.867
REMARK SMILES Cc1ccc(C(=O)c2cc(O)c(O)c([N+](=O)[O-])c2)cc1
REMARK SMILES IDX 8 1 18 2 9 3 14 4 10 5 12 6 6 7 7 8 5 9 4 10 19 11 3 12
REMARK SMILES IDX 20 13 2 14 1 15 15 16 17 17 16 18 11 19 13 21
REMARK H PARENT 11 20 13 22
ROOT
ATOM      1  C   UNL     1       8.016   5.027   6.391  1.00  0.00     0.033 A 
ATOM      2  C   UNL     1       9.285   5.228   5.899  1.00  0.00     0.102 A 
ATOM      3  C   UNL     1       7.717   5.083   7.732  1.00  0.00     0.063 A 
ATOM      4  C   UNL     1      10.313   5.503   6.801  1.00  0.00     0.315 A 
ATOM      5  C   UNL     1       8.746   5.356   8.634  1.00  0.00     0.165 A 
ATOM      6  C   UNL     1      10.045   5.566   8.168  1.00  0.00     0.237 A 
ENDROOT
BRANCH   1   7
ATOM      7  C   UNL     1       6.914   4.733   5.426  1.00  0.00     0.193 C 
ATOM      8  O   UNL     1       5.952   5.516   5.405  1.00  0.00    -0.289 OA
BRANCH   7   9
ATOM      9  C   UNL     1       6.943   3.584   4.535  1.00  0.00     0.023 A 
ATOM     10  C   UNL     1       6.669   3.747   3.177  1.00  0.00     0.012 A 
ATOM     11  C   UNL     1       7.245   2.319   5.039  1.00  0.00     0.012 A 
ATOM     12  C   UNL     1       6.697   2.645   2.324  1.00  0.00     0.004 A 
ATOM     13  C   UNL     1       7.273   1.216   4.185  1.00  0.00     0.004 A 
ATOM     14  C   UNL     1       6.999   1.379   2.827  1.00  0.00    -0.051 A 
ATOM     15  C   UNL     1       7.028   0.200   1.914  1.00  0.00     0.044 C 
ENDBRANCH   7   9
ENDBRANCH   1   7
BRANCH   4  16
ATOM     16  N   UNL     1      11.630   5.714   6.307  1.00  0.00     0.066 N 
ATOM     17  O   UNL     1      11.995   5.105   5.273  1.00  0.00    -0.258 OA
ATOM     18  O   UNL     1      12.388   6.502   6.920  1.00  0.00    -0.258 OA
ENDBRANCH   4  16
BRANCH   5  19
ATOM     19  O   UNL     1       8.469   5.416   9.966  1.00  0.00    -0.504 OA
ATOM     20  H   UNL     1       9.267   5.679  10.453  1.00  0.00     0.293 HD
ENDBRANCH   5  19
BRANCH   6  21
ATOM     21  O   UNL     1      11.043   5.834   9.059  1.00  0.00    -0.500 OA
ATOM     22  H   UNL     1      11.341   6.750   8.950  1.00  0.00     0.294 HD
ENDBRANCH   6  21
TORSDOF 5
ENDMDL
MODEL 5
REMARK VINA RESULT:    -4.175      1.991      2.290
REMARK INTER + INTRA:          -6.018
REMARK INTER:                  -5.229
REMARK INTRA:                  -0.790
REMARK UNBOUND:                -0.867
REMARK SMILES Cc1ccc(C(=O)c2cc(O)c(O)c([N+](=O)[O-])c2)cc1
REMARK SMILES IDX 8 1 18 2 9 3 14 4 10 5 12 6 6 7 7 8 5 9 4 10 19 11 3 12
REMARK SMILES IDX 20 13 2 14 1 15 15 16 17 17 16 18 11 19 13 21
REMARK H PARENT 11 20 13 22
ROOT
ATOM      1  C   UNL     1       6.853   3.407   4.024  1.00  0.00     0.033 A 
ATOM      2  C   UNL     1       7.131   2.393   3.137  1.00  0.00     0.102 A 
ATOM      3  C   UNL     1       5.572   3.790   4.342  1.00  0.00     0.063 A 
ATOM      4  C   UNL     1       6.067   1.723   2.536  1.00  0.00     0.315 A 
ATOM      5  C   UNL     1       4.507   3.120   3.740  1.00  0.00     0.165 A 
ATOM      6  C   UNL     1       4.754   2.085   2.837  1.00  0.00     0.237 A 
ENDROOT
BRANCH   1   7
ATOM      7  C   UNL     1       7.994   4.126   4.669  1.00  0.00     0.193 C 
ATOM      8  O   UNL     1       8.903   4.530   3.928  1.00  0.00    -0.289 OA
BRANCH   7   9
ATOM      9  C   UNL     1       8.059   4.356   6.103  1.00  0.00     0.023 A 
ATOM     10  C   UNL     1       7.565   5.544   6.642  1.00  0.00     0.012 A 
ATOM     11  C   UNL     1       8.616   3.389   6.940  1.00  0.00     0.012 A 
ATOM     12  C   UNL     1       7.628   5.765   8.018  1.00  0.00     0.004 A 
ATOM     13  C   UNL     1       8.679   3.609   8.317  1.00  0.00     0.004 A 
ATOM     14  C   UNL     1       8.185   4.798   8.856  1.00  0.00    -0.051 A 
ATOM     15  C   UNL     1       8.253   5.035  10.326  1.00  0.00     0.044 C 
ENDBRANCH   7   9
ENDBRANCH   1   7
BRANCH   4  16
ATOM     16  N   UNL     1       6.339   0.672   1.617  1.00  0.00     0.066 N 
ATOM     17  O   UNL     1       6.961  -0.340   2.021  1.00  0.00    -0.258 OA
ATOM     18  O   UNL     1       5.948   0.787   0.432  1.00  0.00    -0.258 OA
ENDBRANCH   4  16
BRANCH   5  19
ATOM     19  O   UNL     1       3.229   3.485   4.044  1.00  0.00    -0.504 OA
ATOM     20  H   UNL     1       3.234   4.352   4.482  1.00  0.00     0.293 HD
ENDBRANCH   5  19
BRANCH   6  21
ATOM     21  O   UNL     1       3.704   1.437   2.255  1.00  0.00    -0.500 OA
ATOM     22  H   UNL     1       2.969   2.057   2.125  1.00  0.00     0.294 HD
ENDBRANCH   6  21
TORSDOF 5
ENDMDL
MODEL 6
REMARK VINA RESULT:    -4.174      1.273      2.684
REMARK INTER + INTRA:          -6.017
REMARK INTER:                  -5.236
REMARK INTRA:                  -0.781
REMARK UNBOUND:                -0.867
REMARK SMILES Cc1ccc(C(=O)c2cc(O)c(O)c([N+](=O)[O-])c2)cc1
REMARK SMILES IDX 8 1 18 2 9 3 14 4 10 5 12 6 6 7 7 8 5 9 4 10 19 11 3 12
REMARK SMILES IDX 20 13 2 14 1 15 15 16 17 17 16 18 11 19 13 21
REMARK H PARENT 11 20 13 22
ROOT
ATOM      1  C   UNL     1       6.266   2.691   5.239  1.00  0.00     0.033 A 
ATOM      2  C   UNL     1       4.921   2.963   5.135  1.00  0.00     0.102 A 
ATOM      3  C   UNL     1       6.931   1.873   4.358  1.00  0.00     0.063 A 
ATOM      4  C   UNL     1       4.202   2.385   4.090  1.00  0.00     0.315 A 
ATOM      5  C   UNL     1       6.212   1.293   3.312  1.00  0.00     0.165 A 
ATOM      6  C   UNL     1       4.847   1.550   3.178  1.00  0.00     0.237 A 
ENDROOT
BRANCH   1   7
ATOM      7  C   UNL     1       7.036   3.311   6.359  1.00  0.00     0.193 C 
ATOM      8  O   UNL     1       6.556   3.218   7.499  1.00  0.00    -0.289 OA
BRANCH   7   9
ATOM      9  C   UNL     1       8.299   4.001   6.149  1.00  0.00     0.023 A 
ATOM     10  C   UNL     1       8.308   5.363   5.849  1.00  0.00     0.012 A 
ATOM     11  C   UNL     1       9.501   3.301   6.248  1.00  0.00     0.012 A 
ATOM     12  C   UNL     1       9.519   6.024   5.648  1.00  0.00     0.004 A 
ATOM     13  C   UNL     1      10.713   3.962   6.047  1.00  0.00     0.004 A 
ATOM     14  C   UNL     1      10.722   5.324   5.747  1.00  0.00    -0.051 A 
ATOM     15  C   UNL     1      12.017   6.031   5.530  1.00  0.00     0.044 C 
ENDBRANCH   7   9
ENDBRANCH   1   7
BRANCH   4  16
ATOM     16  N   UNL     1       2.812   2.657   3.969  1.00  0.00     0.066 N 
ATOM     17  O   UNL     1       2.000   1.703   4.029  1.00  0.00    -0.258 OA
ATOM     18  O   UNL     1       2.439   3.842   3.808  1.00  0.00    -0.258 OA
ENDBRANCH   4  16
BRANCH   5  19
ATOM     19  O   UNL     1       6.856   0.480   2.429  1.00  0.00    -0.504 OA
ATOM     20  H   UNL     1       7.317   1.020   1.766  1.00  0.00     0.293 HD
ENDBRANCH   5  19
BRANCH   6  21
ATOM     21  O   UNL     1       4.155   0.977   2.150  1.00  0.00    -0.500 OA
ATOM     22  H   UNL     1       4.547   0.118   1.932  1.00  0.00     0.294 HD
ENDBRANCH   6  21
TORSDOF 5
ENDMDL
MODEL 7
REMARK VINA RESULT:    -4.166      3.948      7.208
REMARK INTER + INTRA:          -6.007
REMARK INTER:                  -5.375
REMARK INTRA:                  -0.632
REMARK UNBOUND:                -0.867
REMARK SMILES Cc1ccc(C(=O)c2cc(O)c(O)c([N+](=O)[O-])c2)cc1
REMARK SMILES IDX 8 1 18 2 9 3 14 4 10 5 12 6 6 7 7 8 5 9 4 10 19 11 3 12
REMARK SMILES IDX 20 13 2 14 1 15 15 16 17 17 16 18 11 19 13 21
REMARK H PARENT 11 20 13 22
ROOT
ATOM      1  C   UNL     1       8.523   4.590   6.708  1.00  0.00     0.033 A 
ATOM      2  C   UNL     1       9.785   5.127   6.810  1.00  0.00     0.102 A 
ATOM      3  C   UNL     1       7.661   4.498   7.775  1.00  0.00     0.063 A 
ATOM      4  C   UNL     1      10.209   5.601   8.052  1.00  0.00     0.315 A 
ATOM      5  C   UNL     1       8.085   4.971   9.017  1.00  0.00     0.165 A 
ATOM      6  C   UNL     1       9.359   5.523   9.155  1.00  0.00     0.237 A 
ENDROOT
BRANCH   1   7
ATOM      7  C   UNL     1       8.069   4.082   5.378  1.00  0.00     0.193 C 
ATOM      8  O   UNL     1       8.935   3.918   4.505  1.00  0.00    -0.289 OA
BRANCH   7   9
ATOM      9  C   UNL     1       6.675   3.783   5.092  1.00  0.00     0.023 A 
ATOM     10  C   UNL     1       6.155   2.525   5.394  1.00  0.00     0.012 A 
ATOM     11  C   UNL     1       5.857   4.755   4.516  1.00  0.00     0.012 A 
ATOM     12  C   UNL     1       4.817   2.239   5.120  1.00  0.00     0.004 A 
ATOM     13  C   UNL     1       4.519   4.470   4.241  1.00  0.00     0.004 A 
ATOM     14  C   UNL     1       3.999   3.211   4.544  1.00  0.00    -0.051 A 
ATOM     15  C   UNL     1       2.570   2.904   4.249  1.00  0.00     0.044 C 
ENDBRANCH   7   9
ENDBRANCH   1   7
BRANCH   4  16
ATOM     16  N   UNL     1      11.510   6.160   8.174  1.00  0.00     0.066 N 
ATOM     17  O   UNL     1      12.197   6.328   7.137  1.00  0.00    -0.258 OA
ATOM     18  O   UNL     1      11.933   6.469   9.312  1.00  0.00    -0.258 OA
ENDBRANCH   4  16
BRANCH   5  19
ATOM     19  O   UNL     1       7.245   4.889  10.086  1.00  0.00    -0.504 OA
ATOM     20  H   UNL     1       6.739   4.060  10.040  1.00  0.00     0.293 HD
ENDBRANCH   5  19
BRANCH   6  21
ATOM     21  O   UNL     1       9.762   5.983  10.375  1.00  0.00    -0.500 OA
ATOM     22  H   UNL     1      10.037   5.237  10.931  1.00  0.00     0.294 HD
ENDBRANCH   6  21
TORSDOF 5
ENDMDL
MODEL 8
REMARK VINA RESULT:    -4.155      3.806      6.941
REMARK INTER + INTRA:          -5.994
REMARK INTER:                  -4.987
REMARK INTRA:                  -1.007
REMARK UNBOUND:                -0.867
REMARK SMILES Cc1ccc(C(=O)c2cc(O)c(O)c([N+](=O)[O-])c2)cc1
REMARK SMILES IDX 8 1 18 2 9 3 14 4 10 5 12 6 6 7 7 8 5 9 4 10 19 11 3 12
REMARK SMILES IDX 20 13 2 14 1 15 15 16 17 17 16 18 11 19 13 21
REMARK H PARENT 11 20 13 22
ROOT
ATOM      1  C   UNL     1       8.805   3.813   6.590  1.00  0.00     0.033 A 
ATOM      2  C   UNL     1       9.928   4.437   6.099  1.00  0.00     0.102 A 
ATOM      3  C   UNL     1       8.303   4.060   7.846  1.00  0.00     0.063 A 
ATOM      4  C   UNL     1      10.585   5.362   6.909  1.00  0.00     0.315 A 
ATOM      5  C   UNL     1       8.962   4.984   8.658  1.00  0.00     0.165 A 
ATOM      6  C   UNL     1      10.103   5.636   8.189  1.00  0.00     0.237 A 
ENDROOT
BRANCH   1   7
ATOM      7  C   UNL     1       8.100   2.822   5.722  1.00  0.00     0.193 C 
ATOM      8  O   UNL     1       8.746   1.831   5.349  1.00  0.00    -0.289 OA
BRANCH   7   9
ATOM      9  C   UNL     1       6.713   2.989   5.316  1.00  0.00     0.023 A 
ATOM     10  C   UNL     1       5.798   1.956   5.519  1.00  0.00     0.012 A 
ATOM     11  C   UNL     1       6.298   4.181   4.724  1.00  0.00     0.012 A 
ATOM     12  C   UNL     1       4.469   2.116   5.129  1.00  0.00     0.004 A 
ATOM     13  C   UNL     1       4.968   4.342   4.334  1.00  0.00     0.004 A 
ATOM     14  C   UNL     1       4.053   3.309   4.537  1.00  0.00    -0.051 A 
ATOM     15  C   UNL     1       2.632   3.479   4.120  1.00  0.00     0.044 C 
ENDBRANCH   7   9
ENDBRANCH   1   7
BRANCH   4  16
ATOM     16  N   UNL     1      11.747   6.016   6.415  1.00  0.00     0.066 N 
ATOM     17  O   UNL     1      11.853   6.212   5.180  1.00  0.00    -0.258 OA
ATOM     18  O   UNL     1      12.631   6.377   7.226  1.00  0.00    -0.258 OA
ENDBRANCH   4  16
BRANCH   5  19
ATOM     19  O   UNL     1       8.478   5.242   9.905  1.00  0.00    -0.504 OA
ATOM     20  H   UNL     1       8.896   6.046  10.256  1.00  0.00     0.293 HD
ENDBRANCH   5  19
BRANCH   6  21
ATOM     21  O   UNL     1      10.738   6.539   8.992  1.00  0.00    -0.500 OA
ATOM     22  H   UNL     1      11.400   7.025   8.476  1.00  0.00     0.294 HD
ENDBRANCH   6  21
TORSDOF 5
ENDMDL
MODEL 9
REMARK VINA RESULT:    -4.140      3.890      7.089
REMARK INTER + INTRA:          -5.976
REMARK INTER:                  -4.987
REMARK INTRA:                  -0.988
REMARK UNBOUND:                -0.867
REMARK SMILES Cc1ccc(C(=O)c2cc(O)c(O)c([N+](=O)[O-])c2)cc1
REMARK SMILES IDX 8 1 18 2 9 3 14 4 10 5 12 6 6 7 7 8 5 9 4 10 19 11 3 12
REMARK SMILES IDX 20 13 2 14 1 15 15 16 17 17 16 18 11 19 13 21
REMARK H PARENT 11 20 13 22
ROOT
ATOM      1  C   UNL     1       8.220   5.005   6.311  1.00  0.00     0.033 A 
ATOM      2  C   UNL     1       8.040   5.022   7.675  1.00  0.00     0.102 A 
ATOM      3  C   UNL     1       9.432   5.263   5.716  1.00  0.00     0.063 A 
ATOM      4  C   UNL     1       9.134   5.313   8.489  1.00  0.00     0.315 A 
ATOM      5  C   UNL     1      10.527   5.554   6.530  1.00  0.00     0.165 A 
ATOM      6  C   UNL     1      10.378   5.579   7.917  1.00  0.00     0.237 A 
ENDROOT
BRANCH   1   7
ATOM      7  C   UNL     1       7.048   4.693   5.439  1.00  0.00     0.193 C 
ATOM      8  O   UNL     1       6.071   5.454   5.506  1.00  0.00    -0.289 OA
BRANCH   7   9
ATOM      9  C   UNL     1       7.028   3.551   4.539  1.00  0.00     0.023 A 
ATOM     10  C   UNL     1       6.709   3.730   3.193  1.00  0.00     0.012 A 
ATOM     11  C   UNL     1       7.327   2.277   5.022  1.00  0.00     0.012 A 
ATOM     12  C   UNL     1       6.689   2.634   2.330  1.00  0.00     0.004 A 
ATOM     13  C   UNL     1       7.308   1.181   4.159  1.00  0.00     0.004 A 
ATOM     14  C   UNL     1       6.989   1.359   2.812  1.00  0.00    -0.051 A 
ATOM     15  C   UNL     1       6.967   0.189   1.890  1.00  0.00     0.044 C 
ENDBRANCH   7   9
ENDBRANCH   1   7
BRANCH   4  16
ATOM     16  N   UNL     1       8.963   5.335   9.900  1.00  0.00     0.066 N 
ATOM     17  O   UNL     1       8.068   4.620  10.413  1.00  0.00    -0.258 OA
ATOM     18  O   UNL     1       9.711   6.065  10.590  1.00  0.00    -0.258 OA
ENDBRANCH   4  16
BRANCH   5  19
ATOM     19  O   UNL     1      11.736   5.812   5.957  1.00  0.00    -0.504 OA
ATOM     20  H   UNL     1      12.012   5.049   5.422  1.00  0.00     0.293 HD
ENDBRANCH   5  19
BRANCH   6  21
ATOM     21  O   UNL     1      11.456   5.865   8.703  1.00  0.00    -0.500 OA
ATOM     22  H   UNL     1      12.117   5.160   8.620  1.00  0.00     0.294 HD
ENDBRANCH   6  21
TORSDOF 5
ENDMDL
