MODEL 1
REMARK VINA RESULT:    -6.933      0.000      0.000
REMARK INTER + INTRA:          -8.797
REMARK INTER:                  -8.149
REMARK INTRA:                  -0.648
REMARK UNBOUND:                -0.648
REMARK SMILES O=C(O)c1cc(-c2ccc(F)cc2F)ccc1O
REMARK SMILES IDX 6 1 5 2 15 3 4 4 17 5 16 6 7 7 13 8 12 9 8 10 10 11 9 12
REMARK SMILES IDX 14 13 11 14 2 15 1 16 3 17 18 19
REMARK H PARENT 3 18 18 20
ROOT
ATOM      1  C   UNL     1      -2.263   8.132  -3.314  1.00  0.00    -0.014 A 
ATOM      2  C   UNL     1      -2.510   7.970  -1.951  1.00  0.00     0.028 A 
ATOM      3  C   UNL     1      -1.996   7.020  -4.112  1.00  0.00     0.013 A 
ATOM      4  C   UNL     1      -2.490   6.695  -1.386  1.00  0.00     0.102 A 
ATOM      5  C   UNL     1      -2.222   5.582  -2.183  1.00  0.00     0.130 A 
ATOM      6  C   UNL     1      -1.976   5.745  -3.547  1.00  0.00     0.048 A 
ENDROOT
BRANCH   1   7
ATOM      7  C   UNL     1      -2.283   9.455  -3.901  1.00  0.00     0.018 A 
ATOM      8  C   UNL     1      -3.331  10.332  -3.617  1.00  0.00     0.133 A 
ATOM      9  C   UNL     1      -3.346  11.606  -4.185  1.00  0.00     0.079 A 
ATOM     10  C   UNL     1      -1.252   9.852  -4.752  1.00  0.00     0.015 A 
ATOM     11  C   UNL     1      -2.315  12.002  -5.037  1.00  0.00     0.126 A 
ATOM     12  C   UNL     1      -1.268  11.125  -5.319  1.00  0.00     0.040 A 
ATOM     13  F   UNL     1      -4.331   9.965  -2.803  1.00  0.00    -0.206 F 
ATOM     14  F   UNL     1      -2.329  13.225  -5.583  1.00  0.00    -0.207 F 
ENDBRANCH   1   7
BRANCH   4  15
ATOM     15  C   UNL     1      -2.750   6.546   0.040  1.00  0.00     0.339 C 
ATOM     16  O   UNL     1      -2.094   5.848   0.816  1.00  0.00    -0.246 OA
BRANCH  15  17
ATOM     17  O   UNL     1      -3.823   7.276   0.449  1.00  0.00    -0.478 OA
ATOM     18  H   UNL     1      -4.220   6.913   1.268  1.00  0.00     0.297 HD
ENDBRANCH  15  17
ENDBRANCH   4  15
BRANCH   5  19
ATOM     19  O   UNL     1      -2.198   4.328  -1.650  1.00  0.00    -0.507 OA
ATOM     20  H   UNL     1      -1.471   4.270  -1.007  1.00  0.00     0.293 HD
ENDBRANCH   5  19
TORSDOF 4
ENDMDL
MODEL 2
REMARK VINA RESULT:    -6.907      1.282      2.748
REMARK INTER + INTRA:          -8.766
REMARK INTER:                  -8.212
REMARK INTRA:                  -0.554
REMARK UNBOUND:                -0.648
REMARK SMILES O=C(O)c1cc(-c2ccc(F)cc2F)ccc1O
REMARK SMILES IDX 6 1 5 2 15 3 4 4 17 5 16 6 7 7 13 8 12 9 8 10 10 11 9 12
REMARK SMILES IDX 14 13 11 14 2 15 1 16 3 17 18 19
REMARK H PARENT 3 18 18 20
ROOT
ATOM      1  C   UNL     1      -2.185   8.071  -3.326  1.00  0.00    -0.014 A 
ATOM      2  C   UNL     1      -1.854   7.003  -4.159  1.00  0.00     0.028 A 
ATOM      3  C   UNL     1      -2.470   7.844  -1.979  1.00  0.00     0.013 A 
ATOM      4  C   UNL     1      -1.808   5.706  -3.646  1.00  0.00     0.102 A 
ATOM      5  C   UNL     1      -2.093   5.479  -2.300  1.00  0.00     0.130 A 
ATOM      6  C   UNL     1      -2.424   6.548  -1.466  1.00  0.00     0.048 A 
ENDROOT
BRANCH   1   7
ATOM      7  C   UNL     1      -2.234   9.416  -3.857  1.00  0.00     0.018 A 
ATOM      8  C   UNL     1      -3.302  10.257  -3.539  1.00  0.00     0.133 A 
ATOM      9  C   UNL     1      -3.346  11.553  -4.054  1.00  0.00     0.079 A 
ATOM     10  C   UNL     1      -1.211   9.872  -4.687  1.00  0.00     0.015 A 
ATOM     11  C   UNL     1      -2.323  12.008  -4.885  1.00  0.00     0.126 A 
ATOM     12  C   UNL     1      -1.255  11.168  -5.201  1.00  0.00     0.040 A 
ATOM     13  F   UNL     1      -4.295   9.833  -2.745  1.00  0.00    -0.206 F 
ATOM     14  F   UNL     1      -2.364  13.252  -5.379  1.00  0.00    -0.207 F 
ENDBRANCH   1   7
BRANCH   4  15
ATOM     15  C   UNL     1      -1.460   4.605  -4.532  1.00  0.00     0.339 C 
ATOM     16  O   UNL     1      -2.139   3.590  -4.711  1.00  0.00    -0.246 OA
BRANCH  15  17
ATOM     17  O   UNL     1      -0.275   4.806  -5.169  1.00  0.00    -0.478 OA
ATOM     18  H   UNL     1      -0.201   4.264  -5.983  1.00  0.00     0.297 HD
ENDBRANCH  15  17
ENDBRANCH   4  15
BRANCH   5  19
ATOM     19  O   UNL     1      -2.053   4.220  -1.779  1.00  0.00    -0.507 OA
ATOM     20  H   UNL     1      -1.434   4.206  -1.029  1.00  0.00     0.293 HD
ENDBRANCH   5  19
TORSDOF 4
ENDMDL
MODEL 3
REMARK VINA RESULT:    -6.906      1.695      3.188
REMARK INTER + INTRA:          -8.765
REMARK INTER:                  -8.204
REMARK INTRA:                  -0.560
REMARK UNBOUND:                -0.648
REMARK SMILES O=C(O)c1cc(-c2ccc(F)cc2F)ccc1O
REMARK SMILES IDX 6 1 5 2 15 3 4 4 17 5 16 6 7 7 13 8 12 9 8 10 10 11 9 12
REMARK SMILES IDX 14 13 11 14 2 15 1 16 3 17 18 19
REMARK H PARENT 3 18 18 20
ROOT
ATOM      1  C   UNL     1      -2.132   8.085  -3.338  1.00  0.00    -0.014 A 
ATOM      2  C   UNL     1      -1.817   7.010  -4.168  1.00  0.00     0.028 A 
ATOM      3  C   UNL     1      -2.419   7.864  -1.990  1.00  0.00     0.013 A 
ATOM      4  C   UNL     1      -1.789   5.714  -3.653  1.00  0.00     0.102 A 
ATOM      5  C   UNL     1      -2.075   5.494  -2.305  1.00  0.00     0.130 A 
ATOM      6  C   UNL     1      -2.390   6.569  -1.474  1.00  0.00     0.048 A 
ENDROOT
BRANCH   1   7
ATOM      7  C   UNL     1      -2.164   9.429  -3.872  1.00  0.00     0.018 A 
ATOM      8  C   UNL     1      -1.146   9.870  -4.719  1.00  0.00     0.133 A 
ATOM      9  C   UNL     1      -1.180  11.167  -5.232  1.00  0.00     0.079 A 
ATOM     10  C   UNL     1      -3.215  10.284  -3.541  1.00  0.00     0.015 A 
ATOM     11  C   UNL     1      -2.230  12.022  -4.900  1.00  0.00     0.126 A 
ATOM     12  C   UNL     1      -3.248  11.579  -4.054  1.00  0.00     0.040 A 
ATOM     13  F   UNL     1      -0.127   9.062  -5.045  1.00  0.00    -0.206 F 
ATOM     14  F   UNL     1      -2.263  13.267  -5.392  1.00  0.00    -0.207 F 
ENDBRANCH   1   7
BRANCH   4  15
ATOM     15  C   UNL     1      -1.457   4.605  -4.537  1.00  0.00     0.339 C 
ATOM     16  O   UNL     1      -2.143   3.594  -4.701  1.00  0.00    -0.246 OA
BRANCH  15  17
ATOM     17  O   UNL     1      -0.278   4.797  -5.189  1.00  0.00    -0.478 OA
ATOM     18  H   UNL     1      -0.154   5.734  -5.450  1.00  0.00     0.297 HD
ENDBRANCH  15  17
ENDBRANCH   4  15
BRANCH   5  19
ATOM     19  O   UNL     1      -2.052   4.235  -1.781  1.00  0.00    -0.507 OA
ATOM     20  H   UNL     1      -1.387   4.199  -1.072  1.00  0.00     0.293 HD
ENDBRANCH   5  19
TORSDOF 4
ENDMDL
MODEL 4
REMARK VINA RESULT:    -5.221      4.567      6.925
REMARK INTER + INTRA:          -6.784
REMARK INTER:                  -5.709
REMARK INTRA:                  -1.075
REMARK UNBOUND:                -0.648
REMARK SMILES O=C(O)c1cc(-c2ccc(F)cc2F)ccc1O
REMARK SMILES IDX 6 1 5 2 15 3 4 4 17 5 16 6 7 7 13 8 12 9 8 10 10 11 9 12
REMARK SMILES IDX 14 13 11 14 2 15 1 16 3 17 18 19
REMARK H PARENT 3 18 18 20
ROOT
ATOM      1  C   UNL     1      -2.167  10.570  -4.415  1.00  0.00    -0.014 A 
ATOM      2  C   UNL     1      -2.631  10.841  -5.701  1.00  0.00     0.028 A 
ATOM      3  C   UNL     1      -1.746  11.613  -3.591  1.00  0.00     0.013 A 
ATOM      4  C   UNL     1      -2.674  12.156  -6.165  1.00  0.00     0.102 A 
ATOM      5  C   UNL     1      -2.252  13.200  -5.342  1.00  0.00     0.130 A 
ATOM      6  C   UNL     1      -1.788  12.928  -4.054  1.00  0.00     0.048 A 
ENDROOT
BRANCH   1   7
ATOM      7  C   UNL     1      -2.122   9.206  -3.934  1.00  0.00     0.018 A 
ATOM      8  C   UNL     1      -1.023   8.397  -4.225  1.00  0.00     0.133 A 
ATOM      9  C   UNL     1      -0.983   7.082  -3.759  1.00  0.00     0.079 A 
ATOM     10  C   UNL     1      -3.179   8.701  -3.177  1.00  0.00     0.015 A 
ATOM     11  C   UNL     1      -2.040   6.577  -3.003  1.00  0.00     0.126 A 
ATOM     12  C   UNL     1      -3.138   7.387  -2.711  1.00  0.00     0.040 A 
ATOM     13  F   UNL     1       0.000   8.865  -4.953  1.00  0.00    -0.206 F 
ATOM     14  F   UNL     1      -2.003   5.316  -2.555  1.00  0.00    -0.207 F 
ENDBRANCH   1   7
BRANCH   4  15
ATOM     15  C   UNL     1      -3.162  12.418  -7.512  1.00  0.00     0.339 C 
ATOM     16  O   UNL     1      -3.485  13.525  -7.951  1.00  0.00    -0.246 OA
BRANCH  15  17
ATOM     17  O   UNL     1      -3.230  11.289  -8.268  1.00  0.00    -0.478 OA
ATOM     18  H   UNL     1      -2.770  10.536  -7.840  1.00  0.00     0.297 HD
ENDBRANCH  15  17
ENDBRANCH   4  15
BRANCH   5  19
ATOM     19  O   UNL     1      -2.287  14.491  -5.775  1.00  0.00    -0.507 OA
ATOM     20  H   UNL     1      -1.944  14.530  -6.685  1.00  0.00     0.293 HD
ENDBRANCH   5  19
TORSDOF 4
ENDMDL
MODEL 5
REMARK VINA RESULT:    -5.196      4.156      6.470
REMARK INTER + INTRA:          -6.755
REMARK INTER:                  -5.690
REMARK INTRA:                  -1.065
REMARK UNBOUND:                -0.648
REMARK SMILES O=C(O)c1cc(-c2ccc(F)cc2F)ccc1O
REMARK SMILES IDX 6 1 5 2 15 3 4 4 17 5 16 6 7 7 13 8 12 9 8 10 10 11 9 12
REMARK SMILES IDX 14 13 11 14 2 15 1 16 3 17 18 19
REMARK H PARENT 3 18 18 20
ROOT
ATOM      1  C   UNL     1      -2.179  10.575  -4.404  1.00  0.00    -0.014 A 
ATOM      2  C   UNL     1      -1.792  11.642  -3.594  1.00  0.00     0.028 A 
ATOM      3  C   UNL     1      -2.610  10.810  -5.710  1.00  0.00     0.013 A 
ATOM      4  C   UNL     1      -1.836  12.945  -4.089  1.00  0.00     0.102 A 
ATOM      5  C   UNL     1      -2.266  13.181  -5.395  1.00  0.00     0.130 A 
ATOM      6  C   UNL     1      -2.653  12.113  -6.206  1.00  0.00     0.048 A 
ENDROOT
BRANCH   1   7
ATOM      7  C   UNL     1      -2.136   9.222  -3.891  1.00  0.00     0.018 A 
ATOM      8  C   UNL     1      -1.044   8.401  -4.172  1.00  0.00     0.133 A 
ATOM      9  C   UNL     1      -1.006   7.098  -3.675  1.00  0.00     0.079 A 
ATOM     10  C   UNL     1      -3.189   8.741  -3.112  1.00  0.00     0.015 A 
ATOM     11  C   UNL     1      -2.059   6.617  -2.898  1.00  0.00     0.126 A 
ATOM     12  C   UNL     1      -3.150   7.439  -2.616  1.00  0.00     0.040 A 
ATOM     13  F   UNL     1      -0.025   8.847  -4.920  1.00  0.00    -0.206 F 
ATOM     14  F   UNL     1      -2.024   5.366  -2.420  1.00  0.00    -0.207 F 
ENDBRANCH   1   7
BRANCH   4  15
ATOM     15  C   UNL     1      -1.427  14.046  -3.228  1.00  0.00     0.339 C 
ATOM     16  O   UNL     1      -1.674  15.238  -3.427  1.00  0.00    -0.246 OA
BRANCH  15  17
ATOM     17  O   UNL     1      -0.724  13.621  -2.143  1.00  0.00    -0.478 OA
ATOM     18  H   UNL     1      -0.821  12.656  -2.000  1.00  0.00     0.297 HD
ENDBRANCH  15  17
ENDBRANCH   4  15
BRANCH   5  19
ATOM     19  O   UNL     1      -2.315  14.447  -5.898  1.00  0.00    -0.507 OA
ATOM     20  H   UNL     1      -1.447  14.673  -6.275  1.00  0.00     0.293 HD
ENDBRANCH   5  19
TORSDOF 4
ENDMDL
MODEL 6
REMARK VINA RESULT:    -4.585      2.087      3.235
REMARK INTER + INTRA:          -6.036
REMARK INTER:                  -5.068
REMARK INTRA:                  -0.969
REMARK UNBOUND:                -0.648
REMARK SMILES O=C(O)c1cc(-c2ccc(F)cc2F)ccc1O
REMARK SMILES IDX 6 1 5 2 15 3 4 4 17 5 16 6 7 7 13 8 12 9 8 10 10 11 9 12
REMARK SMILES IDX 14 13 11 14 2 15 1 16 3 17 18 19
REMARK H PARENT 3 18 18 20
ROOT
ATOM      1  C   UNL     1      -2.460   9.416  -3.764  1.00  0.00    -0.014 A 
ATOM      2  C   UNL     1      -1.578   8.491  -4.322  1.00  0.00     0.028 A 
ATOM      3  C   UNL     1      -3.477   8.985  -2.913  1.00  0.00     0.013 A 
ATOM      4  C   UNL     1      -1.713   7.134  -4.028  1.00  0.00     0.102 A 
ATOM      5  C   UNL     1      -2.730   6.702  -3.176  1.00  0.00     0.130 A 
ATOM      6  C   UNL     1      -3.613   7.628  -2.619  1.00  0.00     0.048 A 
ENDROOT
BRANCH   1   7
ATOM      7  C   UNL     1      -2.322  10.824  -4.070  1.00  0.00     0.018 A 
ATOM      8  C   UNL     1      -2.590  11.291  -5.357  1.00  0.00     0.133 A 
ATOM      9  C   UNL     1      -2.455  12.649  -5.647  1.00  0.00     0.079 A 
ATOM     10  C   UNL     1      -1.921  11.714  -3.074  1.00  0.00     0.015 A 
ATOM     11  C   UNL     1      -2.053  13.539  -4.651  1.00  0.00     0.126 A 
ATOM     12  C   UNL     1      -1.787  13.071  -3.364  1.00  0.00     0.040 A 
ATOM     13  F   UNL     1      -2.973  10.448  -6.326  1.00  0.00    -0.206 F 
ATOM     14  F   UNL     1      -1.924  14.842  -4.929  1.00  0.00    -0.207 F 
ENDBRANCH   1   7
BRANCH   4  15
ATOM     15  C   UNL     1      -0.781   6.183  -4.620  1.00  0.00     0.339 C 
ATOM     16  O   UNL     1      -0.934   4.960  -4.653  1.00  0.00    -0.246 OA
BRANCH  15  17
ATOM     17  O   UNL     1       0.312   6.793  -5.153  1.00  0.00    -0.478 OA
ATOM     18  H   UNL     1       0.071   7.403  -5.881  1.00  0.00     0.297 HD
ENDBRANCH  15  17
ENDBRANCH   4  15
BRANCH   5  19
ATOM     19  O   UNL     1      -2.878   5.381  -2.876  1.00  0.00    -0.507 OA
ATOM     20  H   UNL     1      -2.311   4.856  -3.467  1.00  0.00     0.293 HD
ENDBRANCH   5  19
TORSDOF 4
ENDMDL
MODEL 7
REMARK VINA RESULT:    -4.464      1.611      2.059
REMARK INTER + INTRA:          -5.895
REMARK INTER:                  -4.948
REMARK INTRA:                  -0.947
REMARK UNBOUND:                -0.648
REMARK SMILES O=C(O)c1cc(-c2ccc(F)cc2F)ccc1O
REMARK SMILES IDX 6 1 5 2 15 3 4 4 17 5 16 6 7 7 13 8 12 9 8 10 10 11 9 12
REMARK SMILES IDX 14 13 11 14 2 15 1 16 3 17 18 19
REMARK H PARENT 3 18 18 20
ROOT
ATOM      1  C   UNL     1      -1.935   9.496  -4.099  1.00  0.00    -0.014 A 
ATOM      2  C   UNL     1      -2.778   9.217  -3.025  1.00  0.00     0.028 A 
ATOM      3  C   UNL     1      -0.887   8.629  -4.407  1.00  0.00     0.013 A 
ATOM      4  C   UNL     1      -2.574   8.071  -2.256  1.00  0.00     0.102 A 
ATOM      5  C   UNL     1      -1.526   7.203  -2.564  1.00  0.00     0.130 A 
ATOM      6  C   UNL     1      -0.682   7.483  -3.640  1.00  0.00     0.048 A 
ENDROOT
BRANCH   1   7
ATOM      7  C   UNL     1      -2.145  10.686  -4.896  1.00  0.00     0.018 A 
ATOM      8  C   UNL     1      -1.946  11.948  -4.335  1.00  0.00     0.133 A 
ATOM      9  C   UNL     1      -2.150  13.093  -5.106  1.00  0.00     0.079 A 
ATOM     10  C   UNL     1      -2.547  10.569  -6.226  1.00  0.00     0.015 A 
ATOM     11  C   UNL     1      -2.553  12.976  -6.436  1.00  0.00     0.126 A 
ATOM     12  C   UNL     1      -2.751  11.713  -6.996  1.00  0.00     0.040 A 
ATOM     13  F   UNL     1      -1.563  12.079  -3.057  1.00  0.00    -0.206 F 
ATOM     14  F   UNL     1      -2.749  14.074  -7.177  1.00  0.00    -0.207 F 
ENDBRANCH   1   7
BRANCH   4  15
ATOM     15  C   UNL     1      -3.466   7.797  -1.138  1.00  0.00     0.339 C 
ATOM     16  O   UNL     1      -3.182   7.118  -0.148  1.00  0.00    -0.246 OA
BRANCH  15  17
ATOM     17  O   UNL     1      -4.685   8.382  -1.293  1.00  0.00    -0.478 OA
ATOM     18  H   UNL     1      -4.940   8.449  -2.237  1.00  0.00     0.297 HD
ENDBRANCH  15  17
ENDBRANCH   4  15
BRANCH   5  19
ATOM     19  O   UNL     1      -1.309   6.077  -1.827  1.00  0.00    -0.507 OA
ATOM     20  H   UNL     1      -2.139   5.821  -1.388  1.00  0.00     0.293 HD
ENDBRANCH   5  19
TORSDOF 4
ENDMDL
MODEL 8
REMARK VINA RESULT:    -4.382      8.549     10.638
REMARK INTER + INTRA:          -5.799
REMARK INTER:                  -4.842
REMARK INTRA:                  -0.957
REMARK UNBOUND:                -0.648
REMARK SMILES O=C(O)c1cc(-c2ccc(F)cc2F)ccc1O
REMARK SMILES IDX 6 1 5 2 15 3 4 4 17 5 16 6 7 7 13 8 12 9 8 10 10 11 9 12
REMARK SMILES IDX 14 13 11 14 2 15 1 16 3 17 18 19
REMARK H PARENT 3 18 18 20
ROOT
ATOM      1  C   UNL     1      -5.677  14.150 -10.187  1.00  0.00    -0.014 A 
ATOM      2  C   UNL     1      -4.540  14.923  -9.955  1.00  0.00     0.028 A 
ATOM      3  C   UNL     1      -5.810  12.903  -9.577  1.00  0.00     0.013 A 
ATOM      4  C   UNL     1      -3.534  14.448  -9.112  1.00  0.00     0.102 A 
ATOM      5  C   UNL     1      -3.667  13.201  -8.502  1.00  0.00     0.130 A 
ATOM      6  C   UNL     1      -4.805  12.428  -8.735  1.00  0.00     0.048 A 
ENDROOT
BRANCH   1   7
ATOM      7  C   UNL     1      -6.721  14.641 -11.062  1.00  0.00     0.018 A 
ATOM      8  C   UNL     1      -7.885  15.190 -10.524  1.00  0.00     0.133 A 
ATOM      9  C   UNL     1      -8.888  15.661 -11.371  1.00  0.00     0.079 A 
ATOM     10  C   UNL     1      -6.559  14.565 -12.445  1.00  0.00     0.015 A 
ATOM     11  C   UNL     1      -8.727  15.585 -12.754  1.00  0.00     0.126 A 
ATOM     12  C   UNL     1      -7.562  15.037 -13.291  1.00  0.00     0.040 A 
ATOM     13  F   UNL     1      -8.057  15.267  -9.197  1.00  0.00    -0.206 F 
ATOM     14  F   UNL     1      -9.689  16.038 -13.568  1.00  0.00    -0.207 F 
ENDBRANCH   1   7
BRANCH   4  15
ATOM     15  C   UNL     1      -2.355  15.271  -8.882  1.00  0.00     0.339 C 
ATOM     16  O   UNL     1      -1.547  15.617  -9.747  1.00  0.00    -0.246 OA
BRANCH  15  17
ATOM     17  O   UNL     1      -2.224  15.635  -7.577  1.00  0.00    -0.478 OA
ATOM     18  H   UNL     1      -3.047  15.477  -7.070  1.00  0.00     0.297 HD
ENDBRANCH  15  17
ENDBRANCH   4  15
BRANCH   5  19
ATOM     19  O   UNL     1      -2.696  12.720  -7.675  1.00  0.00    -0.507 OA
ATOM     20  H   UNL     1      -2.237  13.468  -7.255  1.00  0.00     0.293 HD
ENDBRANCH   5  19
TORSDOF 4
ENDMDL
MODEL 9
REMARK VINA RESULT:    -4.123      6.246      8.638
REMARK INTER + INTRA:          -5.494
REMARK INTER:                  -4.466
REMARK INTRA:                  -1.028
REMARK UNBOUND:                -0.648
REMARK SMILES O=C(O)c1cc(-c2ccc(F)cc2F)ccc1O
REMARK SMILES IDX 6 1 5 2 15 3 4 4 17 5 16 6 7 7 13 8 12 9 8 10 10 11 9 12
REMARK SMILES IDX 14 13 11 14 2 15 1 16 3 17 18 19
REMARK H PARENT 3 18 18 20
ROOT
ATOM      1  C   UNL     1      -3.380  12.506  -7.403  1.00  0.00    -0.014 A 
ATOM      2  C   UNL     1      -2.710  13.640  -7.859  1.00  0.00     0.028 A 
ATOM      3  C   UNL     1      -4.497  12.032  -8.090  1.00  0.00     0.013 A 
ATOM      4  C   UNL     1      -3.158  14.303  -9.002  1.00  0.00     0.102 A 
ATOM      5  C   UNL     1      -4.276  13.830  -9.689  1.00  0.00     0.130 A 
ATOM      6  C   UNL     1      -4.946  12.694  -9.233  1.00  0.00     0.048 A 
ENDROOT
BRANCH   1   7
ATOM      7  C   UNL     1      -2.916  11.818  -6.217  1.00  0.00     0.018 A 
ATOM      8  C   UNL     1      -1.773  11.020  -6.271  1.00  0.00     0.133 A 
ATOM      9  C   UNL     1      -1.330  10.359  -5.125  1.00  0.00     0.079 A 
ATOM     10  C   UNL     1      -3.615  11.956  -5.017  1.00  0.00     0.015 A 
ATOM     11  C   UNL     1      -2.029  10.497  -3.926  1.00  0.00     0.126 A 
ATOM     12  C   UNL     1      -3.171  11.296  -3.872  1.00  0.00     0.040 A 
ATOM     13  F   UNL     1      -1.092  10.875  -7.416  1.00  0.00    -0.206 F 
ATOM     14  F   UNL     1      -1.604   9.863  -2.826  1.00  0.00    -0.207 F 
ENDBRANCH   1   7
BRANCH   4  15
ATOM     15  C   UNL     1      -2.445  15.487  -9.461  1.00  0.00     0.339 C 
ATOM     16  O   UNL     1      -2.656  16.080 -10.522  1.00  0.00    -0.246 OA
BRANCH  15  17
ATOM     17  O   UNL     1      -1.491  15.892  -8.580  1.00  0.00    -0.478 OA
ATOM     18  H   UNL     1      -1.359  15.240  -7.860  1.00  0.00     0.297 HD
ENDBRANCH  15  17
ENDBRANCH   4  15
BRANCH   5  19
ATOM     19  O   UNL     1      -4.729  14.463 -10.808  1.00  0.00    -0.507 OA
ATOM     20  H   UNL     1      -5.369  13.886 -11.261  1.00  0.00     0.293 HD
ENDBRANCH   5  19
TORSDOF 4
ENDMDL
