MODEL 1
REMARK VINA RESULT:    -5.101      0.000      0.000
REMARK INTER + INTRA:          -7.039
REMARK INTER:                  -6.294
REMARK INTRA:                  -0.745
REMARK UNBOUND:                -0.745
REMARK SMILES Cc1ccc(C(=O)c2cc(O)c(O)c([N+](=O)[O-])c2)cc1
REMARK SMILES IDX 8 1 18 2 9 3 14 4 10 5 12 6 6 7 7 8 5 9 4 10 19 11 3 12
REMARK SMILES IDX 20 13 2 14 1 15 15 16 17 17 16 18 11 19 13 21
REMARK H PARENT 11 20 13 22
ROOT
ATOM      1  C   UNL     1      -1.687   8.214  -2.542  1.00  0.00     0.033 A 
ATOM      2  C   UNL     1      -1.552   7.363  -3.615  1.00  0.00     0.102 A 
ATOM      3  C   UNL     1      -1.965   7.773  -1.270  1.00  0.00     0.063 A 
ATOM      4  C   UNL     1      -1.701   5.993  -3.403  1.00  0.00     0.315 A 
ATOM      5  C   UNL     1      -2.115   6.402  -1.058  1.00  0.00     0.165 A 
ATOM      6  C   UNL     1      -1.982   5.512  -2.124  1.00  0.00     0.237 A 
ENDROOT
BRANCH   1   7
ATOM      7  C   UNL     1      -1.527   9.682  -2.770  1.00  0.00     0.193 C 
ATOM      8  O   UNL     1      -1.013  10.346  -1.857  1.00  0.00    -0.289 OA
BRANCH   7   9
ATOM      9  C   UNL     1      -1.948  10.331  -4.001  1.00  0.00     0.023 A 
ATOM     10  C   UNL     1      -3.190  10.964  -4.067  1.00  0.00     0.012 A 
ATOM     11  C   UNL     1      -1.111  10.320  -5.116  1.00  0.00     0.012 A 
ATOM     12  C   UNL     1      -3.593  11.586  -5.248  1.00  0.00     0.004 A 
ATOM     13  C   UNL     1      -1.514  10.943  -6.299  1.00  0.00     0.004 A 
ATOM     14  C   UNL     1      -2.755  11.576  -6.365  1.00  0.00    -0.051 A 
ATOM     15  C   UNL     1      -3.188  12.240  -7.627  1.00  0.00     0.044 C 
ENDBRANCH   7   9
ENDBRANCH   1   7
BRANCH   4  16
ATOM     16  N   UNL     1      -1.563   5.101  -4.502  1.00  0.00     0.066 N 
ATOM     17  O   UNL     1      -2.214   4.029  -4.497  1.00  0.00    -0.258 OA
ATOM     18  O   UNL     1      -0.797   5.414  -5.443  1.00  0.00    -0.258 OA
ENDBRANCH   4  16
BRANCH   5  19
ATOM     19  O   UNL     1      -2.389   5.946   0.197  1.00  0.00    -0.504 OA
ATOM     20  H   UNL     1      -2.018   5.055   0.307  1.00  0.00     0.293 HD
ENDBRANCH   5  19
BRANCH   6  21
ATOM     21  O   UNL     1      -2.131   4.173  -1.904  1.00  0.00    -0.500 OA
ATOM     22  H   UNL     1      -1.262   3.770  -1.748  1.00  0.00     0.294 HD
ENDBRANCH   6  21
TORSDOF 5
ENDMDL
MODEL 2
REMARK VINA RESULT:    -5.016      2.011      3.521
REMARK INTER + INTRA:          -6.934
REMARK INTER:                  -6.167
REMARK INTRA:                  -0.767
REMARK UNBOUND:                -0.745
REMARK SMILES Cc1ccc(C(=O)c2cc(O)c(O)c([N+](=O)[O-])c2)cc1
REMARK SMILES IDX 8 1 18 2 9 3 14 4 10 5 12 6 6 7 7 8 5 9 4 10 19 11 3 12
REMARK SMILES IDX 20 13 2 14 1 15 15 16 17 17 16 18 11 19 13 21
REMARK H PARENT 11 20 13 22
ROOT
ATOM      1  C   UNL     1      -2.651   7.589  -4.005  1.00  0.00     0.033 A 
ATOM      2  C   UNL     1      -2.873   7.690  -2.652  1.00  0.00     0.102 A 
ATOM      3  C   UNL     1      -2.205   6.435  -4.605  1.00  0.00     0.063 A 
ATOM      4  C   UNL     1      -2.639   6.571  -1.852  1.00  0.00     0.315 A 
ATOM      5  C   UNL     1      -1.969   5.316  -3.805  1.00  0.00     0.165 A 
ATOM      6  C   UNL     1      -2.187   5.384  -2.428  1.00  0.00     0.237 A 
ENDROOT
BRANCH   1   7
ATOM      7  C   UNL     1      -2.902   8.787  -4.862  1.00  0.00     0.193 C 
ATOM      8  O   UNL     1      -3.463   8.599  -5.952  1.00  0.00    -0.289 OA
BRANCH   7   9
ATOM      9  C   UNL     1      -2.515  10.129  -4.458  1.00  0.00     0.023 A 
ATOM     10  C   UNL     1      -1.301  10.664  -4.889  1.00  0.00     0.012 A 
ATOM     11  C   UNL     1      -3.359  10.882  -3.641  1.00  0.00     0.012 A 
ATOM     12  C   UNL     1      -0.931  11.952  -4.501  1.00  0.00     0.004 A 
ATOM     13  C   UNL     1      -2.989  12.170  -3.253  1.00  0.00     0.004 A 
ATOM     14  C   UNL     1      -1.774  12.706  -3.684  1.00  0.00    -0.051 A 
ATOM     15  C   UNL     1      -1.377  14.081  -3.269  1.00  0.00     0.044 C 
ENDBRANCH   7   9
ENDBRANCH   1   7
BRANCH   4  16
ATOM     16  N   UNL     1      -2.865   6.660  -0.451  1.00  0.00     0.066 N 
ATOM     17  O   UNL     1      -2.086   6.060   0.328  1.00  0.00    -0.258 OA
ATOM     18  O   UNL     1      -3.836   7.335  -0.036  1.00  0.00    -0.258 OA
ENDBRANCH   4  16
BRANCH   5  19
ATOM     19  O   UNL     1      -1.528   4.163  -4.382  1.00  0.00    -0.504 OA
ATOM     20  H   UNL     1      -0.858   4.371  -5.053  1.00  0.00     0.293 HD
ENDBRANCH   5  19
BRANCH   6  21
ATOM     21  O   UNL     1      -1.953   4.283  -1.657  1.00  0.00    -0.500 OA
ATOM     22  H   UNL     1      -1.704   4.559  -0.761  1.00  0.00     0.294 HD
ENDBRANCH   6  21
TORSDOF 5
ENDMDL
MODEL 3
REMARK VINA RESULT:    -4.767      1.631      2.945
REMARK INTER + INTRA:          -6.627
REMARK INTER:                  -6.173
REMARK INTRA:                  -0.453
REMARK UNBOUND:                -0.745
REMARK SMILES Cc1ccc(C(=O)c2cc(O)c(O)c([N+](=O)[O-])c2)cc1
REMARK SMILES IDX 8 1 18 2 9 3 14 4 10 5 12 6 6 7 7 8 5 9 4 10 19 11 3 12
REMARK SMILES IDX 20 13 2 14 1 15 15 16 17 17 16 18 11 19 13 21
REMARK H PARENT 11 20 13 22
ROOT
ATOM      1  C   UNL     1      -1.014   7.083  -3.497  1.00  0.00     0.033 A 
ATOM      2  C   UNL     1      -1.460   7.170  -2.199  1.00  0.00     0.102 A 
ATOM      3  C   UNL     1      -1.207   5.968  -4.279  1.00  0.00     0.063 A 
ATOM      4  C   UNL     1      -2.138   6.081  -1.652  1.00  0.00     0.315 A 
ATOM      5  C   UNL     1      -1.884   4.878  -3.732  1.00  0.00     0.165 A 
ATOM      6  C   UNL     1      -2.351   4.935  -2.418  1.00  0.00     0.237 A 
ENDROOT
BRANCH   1   7
ATOM      7  C   UNL     1      -0.288   8.249  -4.084  1.00  0.00     0.193 C 
ATOM      8  O   UNL     1       0.952   8.208  -4.079  1.00  0.00    -0.289 OA
BRANCH   7   9
ATOM      9  C   UNL     1      -0.981   9.398  -4.644  1.00  0.00     0.023 A 
ATOM     10  C   UNL     1      -2.198   9.811  -4.101  1.00  0.00     0.012 A 
ATOM     11  C   UNL     1      -0.430  10.087  -5.724  1.00  0.00     0.012 A 
ATOM     12  C   UNL     1      -2.863  10.913  -4.639  1.00  0.00     0.004 A 
ATOM     13  C   UNL     1      -1.095  11.189  -6.262  1.00  0.00     0.004 A 
ATOM     14  C   UNL     1      -2.312  11.603  -5.720  1.00  0.00    -0.051 A 
ATOM     15  C   UNL     1      -3.023  12.780  -6.295  1.00  0.00     0.044 C 
ENDBRANCH   7   9
ENDBRANCH   1   7
BRANCH   4  16
ATOM     16  N   UNL     1      -2.605   6.156  -0.311  1.00  0.00     0.066 N 
ATOM     17  O   UNL     1      -3.721   6.685  -0.087  1.00  0.00    -0.258 OA
ATOM     18  O   UNL     1      -1.889   5.693   0.607  1.00  0.00    -0.258 OA
ENDBRANCH   4  16
BRANCH   5  19
ATOM     19  O   UNL     1      -2.085   3.766  -4.492  1.00  0.00    -0.504 OA
ATOM     20  H   UNL     1      -1.441   3.082  -4.244  1.00  0.00     0.293 HD
ENDBRANCH   5  19
BRANCH   6  21
ATOM     21  O   UNL     1      -3.012   3.863  -1.894  1.00  0.00    -0.500 OA
ATOM     22  H   UNL     1      -2.384   3.283  -1.436  1.00  0.00     0.294 HD
ENDBRANCH   6  21
TORSDOF 5
ENDMDL
MODEL 4
REMARK VINA RESULT:    -4.735      1.793      2.051
REMARK INTER + INTRA:          -6.587
REMARK INTER:                  -6.134
REMARK INTRA:                  -0.453
REMARK UNBOUND:                -0.745
REMARK SMILES Cc1ccc(C(=O)c2cc(O)c(O)c([N+](=O)[O-])c2)cc1
REMARK SMILES IDX 8 1 18 2 9 3 14 4 10 5 12 6 6 7 7 8 5 9 4 10 19 11 3 12
REMARK SMILES IDX 20 13 2 14 1 15 15 16 17 17 16 18 11 19 13 21
REMARK H PARENT 11 20 13 22
ROOT
ATOM      1  C   UNL     1      -3.306   7.429  -2.528  1.00  0.00     0.033 A 
ATOM      2  C   UNL     1      -2.842   6.597  -3.520  1.00  0.00     0.102 A 
ATOM      3  C   UNL     1      -3.085   7.194  -1.192  1.00  0.00     0.063 A 
ATOM      4  C   UNL     1      -2.114   5.464  -3.154  1.00  0.00     0.315 A 
ATOM      5  C   UNL     1      -2.358   6.061  -0.825  1.00  0.00     0.165 A 
ATOM      6  C   UNL     1      -1.872   5.196  -1.807  1.00  0.00     0.237 A 
ENDROOT
BRANCH   1   7
ATOM      7  C   UNL     1      -4.085   8.642  -2.920  1.00  0.00     0.193 C 
ATOM      8  O   UNL     1      -5.322   8.563  -2.876  1.00  0.00    -0.289 OA
BRANCH   7   9
ATOM      9  C   UNL     1      -3.445   9.879  -3.340  1.00  0.00     0.023 A 
ATOM     10  C   UNL     1      -4.011  11.108  -3.001  1.00  0.00     0.012 A 
ATOM     11  C   UNL     1      -2.264   9.836  -4.082  1.00  0.00     0.012 A 
ATOM     12  C   UNL     1      -3.396  12.293  -3.403  1.00  0.00     0.004 A 
ATOM     13  C   UNL     1      -1.649  11.022  -4.485  1.00  0.00     0.004 A 
ATOM     14  C   UNL     1      -2.215  12.251  -4.145  1.00  0.00    -0.051 A 
ATOM     15  C   UNL     1      -1.560  13.518  -4.577  1.00  0.00     0.044 C 
ENDBRANCH   7   9
ENDBRANCH   1   7
BRANCH   4  16
ATOM     16  N   UNL     1      -1.628   4.594  -4.167  1.00  0.00     0.066 N 
ATOM     17  O   UNL     1      -0.526   4.852  -4.710  1.00  0.00    -0.258 OA
ATOM     18  O   UNL     1      -2.313   3.596  -4.489  1.00  0.00    -0.258 OA
ENDBRANCH   4  16
BRANCH   5  19
ATOM     19  O   UNL     1      -2.128   5.812   0.495  1.00  0.00    -0.504 OA
ATOM     20  H   UNL     1      -1.247   6.139   0.739  1.00  0.00     0.293 HD
ENDBRANCH   5  19
BRANCH   6  21
ATOM     21  O   UNL     1      -1.161   4.092  -1.436  1.00  0.00    -0.500 OA
ATOM     22  H   UNL     1      -1.330   3.894  -0.501  1.00  0.00     0.294 HD
ENDBRANCH   6  21
TORSDOF 5
ENDMDL
MODEL 5
REMARK VINA RESULT:    -4.425      3.723      6.875
REMARK INTER + INTRA:          -6.205
REMARK INTER:                  -5.216
REMARK INTRA:                  -0.989
REMARK UNBOUND:                -0.745
REMARK SMILES Cc1ccc(C(=O)c2cc(O)c(O)c([N+](=O)[O-])c2)cc1
REMARK SMILES IDX 8 1 18 2 9 3 14 4 10 5 12 6 6 7 7 8 5 9 4 10 19 11 3 12
REMARK SMILES IDX 20 13 2 14 1 15 15 16 17 17 16 18 11 19 13 21
REMARK H PARENT 11 20 13 22
ROOT
ATOM      1  C   UNL     1      -1.696  10.940  -4.833  1.00  0.00     0.033 A 
ATOM      2  C   UNL     1      -2.314  11.272  -6.017  1.00  0.00     0.102 A 
ATOM      3  C   UNL     1      -1.313  11.876  -3.903  1.00  0.00     0.063 A 
ATOM      4  C   UNL     1      -2.564  12.618  -6.283  1.00  0.00     0.315 A 
ATOM      5  C   UNL     1      -1.563  13.223  -4.170  1.00  0.00     0.165 A 
ATOM      6  C   UNL     1      -2.189  13.594  -5.361  1.00  0.00     0.237 A 
ENDROOT
BRANCH   1   7
ATOM      7  C   UNL     1      -1.428   9.498  -4.547  1.00  0.00     0.193 C 
ATOM      8  O   UNL     1      -0.775   8.863  -5.389  1.00  0.00    -0.289 OA
BRANCH   7   9
ATOM      9  C   UNL     1      -1.900   8.842  -3.338  1.00  0.00     0.023 A 
ATOM     10  C   UNL     1      -0.997   8.183  -2.504  1.00  0.00     0.012 A 
ATOM     11  C   UNL     1      -3.256   8.872  -3.013  1.00  0.00     0.012 A 
ATOM     12  C   UNL     1      -1.450   7.554  -1.345  1.00  0.00     0.004 A 
ATOM     13  C   UNL     1      -3.710   8.243  -1.853  1.00  0.00     0.004 A 
ATOM     14  C   UNL     1      -2.807   7.584  -1.019  1.00  0.00    -0.051 A 
ATOM     15  C   UNL     1      -3.291   6.910   0.220  1.00  0.00     0.044 C 
ENDBRANCH   7   9
ENDBRANCH   1   7
BRANCH   4  16
ATOM     16  N   UNL     1      -3.203  12.976  -7.502  1.00  0.00     0.066 N 
ATOM     17  O   UNL     1      -3.986  12.156  -8.040  1.00  0.00    -0.258 OA
ATOM     18  O   UNL     1      -2.966  14.100  -8.003  1.00  0.00    -0.258 OA
ENDBRANCH   4  16
BRANCH   5  19
ATOM     19  O   UNL     1      -1.191  14.165  -3.259  1.00  0.00    -0.504 OA
ATOM     20  H   UNL     1      -1.900  14.283  -2.605  1.00  0.00     0.293 HD
ENDBRANCH   5  19
BRANCH   6  21
ATOM     21  O   UNL     1      -2.429  14.914  -5.610  1.00  0.00    -0.500 OA
ATOM     22  H   UNL     1      -1.634  15.433  -5.410  1.00  0.00     0.294 HD
ENDBRANCH   6  21
TORSDOF 5
ENDMDL
MODEL 6
REMARK VINA RESULT:    -4.410      3.768      7.023
REMARK INTER + INTRA:          -6.187
REMARK INTER:                  -5.212
REMARK INTRA:                  -0.975
REMARK UNBOUND:                -0.745
REMARK SMILES Cc1ccc(C(=O)c2cc(O)c(O)c([N+](=O)[O-])c2)cc1
REMARK SMILES IDX 8 1 18 2 9 3 14 4 10 5 12 6 6 7 7 8 5 9 4 10 19 11 3 12
REMARK SMILES IDX 20 13 2 14 1 15 15 16 17 17 16 18 11 19 13 21
REMARK H PARENT 11 20 13 22
ROOT
ATOM      1  C   UNL     1      -2.759  11.138  -4.294  1.00  0.00     0.033 A 
ATOM      2  C   UNL     1      -2.196  12.242  -3.697  1.00  0.00     0.102 A 
ATOM      3  C   UNL     1      -3.154  11.121  -5.610  1.00  0.00     0.063 A 
ATOM      4  C   UNL     1      -2.016  13.394  -4.462  1.00  0.00     0.315 A 
ATOM      5  C   UNL     1      -2.975  12.274  -6.375  1.00  0.00     0.165 A 
ATOM      6  C   UNL     1      -2.405  13.411  -5.801  1.00  0.00     0.237 A 
ENDROOT
BRANCH   1   7
ATOM      7  C   UNL     1      -2.952   9.903  -3.475  1.00  0.00     0.193 C 
ATOM      8  O   UNL     1      -3.572  10.020  -2.407  1.00  0.00    -0.289 OA
BRANCH   7   9
ATOM      9  C   UNL     1      -2.444   8.605  -3.889  1.00  0.00     0.023 A 
ATOM     10  C   UNL     1      -3.316   7.524  -4.021  1.00  0.00     0.012 A 
ATOM     11  C   UNL     1      -1.085   8.441  -4.155  1.00  0.00     0.012 A 
ATOM     12  C   UNL     1      -2.828   6.280  -4.419  1.00  0.00     0.004 A 
ATOM     13  C   UNL     1      -0.596   7.196  -4.553  1.00  0.00     0.004 A 
ATOM     14  C   UNL     1      -1.468   6.115  -4.685  1.00  0.00    -0.051 A 
ATOM     15  C   UNL     1      -0.947   4.784  -5.109  1.00  0.00     0.044 C 
ENDBRANCH   7   9
ENDBRANCH   1   7
BRANCH   4  16
ATOM     16  N   UNL     1      -1.434  14.543  -3.859  1.00  0.00     0.066 N 
ATOM     17  O   UNL     1      -1.723  15.677  -4.312  1.00  0.00    -0.258 OA
ATOM     18  O   UNL     1      -0.651  14.390  -2.893  1.00  0.00    -0.258 OA
ENDBRANCH   4  16
BRANCH   5  19
ATOM     19  O   UNL     1      -3.360  12.275  -7.682  1.00  0.00    -0.504 OA
ATOM     20  H   UNL     1      -2.583  12.412  -8.250  1.00  0.00     0.293 HD
ENDBRANCH   5  19
BRANCH   6  21
ATOM     21  O   UNL     1      -2.235  14.532  -6.560  1.00  0.00    -0.500 OA
ATOM     22  H   UNL     1      -1.815  14.296  -7.401  1.00  0.00     0.294 HD
ENDBRANCH   6  21
TORSDOF 5
ENDMDL
MODEL 7
REMARK VINA RESULT:    -4.405      3.527      7.152
REMARK INTER + INTRA:          -6.181
REMARK INTER:                  -5.201
REMARK INTRA:                  -0.980
REMARK UNBOUND:                -0.745
REMARK SMILES Cc1ccc(C(=O)c2cc(O)c(O)c([N+](=O)[O-])c2)cc1
REMARK SMILES IDX 8 1 18 2 9 3 14 4 10 5 12 6 6 7 7 8 5 9 4 10 19 11 3 12
REMARK SMILES IDX 20 13 2 14 1 15 15 16 17 17 16 18 11 19 13 21
REMARK H PARENT 11 20 13 22
ROOT
ATOM      1  C   UNL     1      -1.647  10.832  -4.940  1.00  0.00     0.033 A 
ATOM      2  C   UNL     1      -1.358  11.828  -4.037  1.00  0.00     0.102 A 
ATOM      3  C   UNL     1      -2.221  11.078  -6.164  1.00  0.00     0.063 A 
ATOM      4  C   UNL     1      -1.659  13.147  -4.379  1.00  0.00     0.315 A 
ATOM      5  C   UNL     1      -2.523  12.396  -6.507  1.00  0.00     0.165 A 
ATOM      6  C   UNL     1      -2.242  13.431  -5.614  1.00  0.00     0.237 A 
ENDROOT
BRANCH   1   7
ATOM      7  C   UNL     1      -1.325   9.420  -4.573  1.00  0.00     0.193 C 
ATOM      8  O   UNL     1      -0.597   8.782  -5.349  1.00  0.00    -0.289 OA
BRANCH   7   9
ATOM      9  C   UNL     1      -1.829   8.794  -3.361  1.00  0.00     0.023 A 
ATOM     10  C   UNL     1      -3.192   8.843  -3.067  1.00  0.00     0.012 A 
ATOM     11  C   UNL     1      -0.952   8.144  -2.494  1.00  0.00     0.012 A 
ATOM     12  C   UNL     1      -3.676   8.243  -1.905  1.00  0.00     0.004 A 
ATOM     13  C   UNL     1      -1.435   7.543  -1.331  1.00  0.00     0.004 A 
ATOM     14  C   UNL     1      -2.798   7.592  -1.036  1.00  0.00    -0.051 A 
ATOM     15  C   UNL     1      -3.316   6.952   0.206  1.00  0.00     0.044 C 
ENDBRANCH   7   9
ENDBRANCH   1   7
BRANCH   4  16
ATOM     16  N   UNL     1      -1.365  14.188  -3.456  1.00  0.00     0.066 N 
ATOM     17  O   UNL     1      -1.075  15.325  -3.899  1.00  0.00    -0.258 OA
ATOM     18  O   UNL     1      -1.406  13.939  -2.229  1.00  0.00    -0.258 OA
ENDBRANCH   4  16
BRANCH   5  19
ATOM     19  O   UNL     1      -3.092  12.659  -7.716  1.00  0.00    -0.504 OA
ATOM     20  H   UNL     1      -2.649  12.136  -8.405  1.00  0.00     0.293 HD
ENDBRANCH   5  19
BRANCH   6  21
ATOM     21  O   UNL     1      -2.541  14.716  -5.960  1.00  0.00    -0.500 OA
ATOM     22  H   UNL     1      -3.051  15.136  -5.249  1.00  0.00     0.294 HD
ENDBRANCH   6  21
TORSDOF 5
ENDMDL
MODEL 8
REMARK VINA RESULT:    -4.386      3.672      6.601
REMARK INTER + INTRA:          -6.157
REMARK INTER:                  -5.162
REMARK INTRA:                  -0.995
REMARK UNBOUND:                -0.745
REMARK SMILES Cc1ccc(C(=O)c2cc(O)c(O)c([N+](=O)[O-])c2)cc1
REMARK SMILES IDX 8 1 18 2 9 3 14 4 10 5 12 6 6 7 7 8 5 9 4 10 19 11 3 12
REMARK SMILES IDX 20 13 2 14 1 15 15 16 17 17 16 18 11 19 13 21
REMARK H PARENT 11 20 13 22
ROOT
ATOM      1  C   UNL     1      -2.805  11.136  -4.145  1.00  0.00     0.033 A 
ATOM      2  C   UNL     1      -3.151  11.189  -5.476  1.00  0.00     0.102 A 
ATOM      3  C   UNL     1      -2.247  12.199  -3.475  1.00  0.00     0.063 A 
ATOM      4  C   UNL     1      -2.927  12.375  -6.175  1.00  0.00     0.315 A 
ATOM      5  C   UNL     1      -2.022  13.384  -4.176  1.00  0.00     0.165 A 
ATOM      6  C   UNL     1      -2.363  13.473  -5.526  1.00  0.00     0.237 A 
ENDROOT
BRANCH   1   7
ATOM      7  C   UNL     1      -3.044   9.866  -3.395  1.00  0.00     0.193 C 
ATOM      8  O   UNL     1      -3.730   9.935  -2.364  1.00  0.00    -0.289 OA
BRANCH   7   9
ATOM      9  C   UNL     1      -2.507   8.588  -3.835  1.00  0.00     0.023 A 
ATOM     10  C   UNL     1      -1.144   8.458  -4.100  1.00  0.00     0.012 A 
ATOM     11  C   UNL     1      -3.355   7.491  -3.991  1.00  0.00     0.012 A 
ATOM     12  C   UNL     1      -0.629   7.232  -4.521  1.00  0.00     0.004 A 
ATOM     13  C   UNL     1      -2.841   6.264  -4.412  1.00  0.00     0.004 A 
ATOM     14  C   UNL     1      -1.477   6.135  -4.677  1.00  0.00    -0.051 A 
ATOM     15  C   UNL     1      -0.927   4.825  -5.128  1.00  0.00     0.044 C 
ENDBRANCH   7   9
ENDBRANCH   1   7
BRANCH   4  16
ATOM     16  N   UNL     1      -3.280  12.446  -7.551  1.00  0.00     0.066 N 
ATOM     17  O   UNL     1      -3.639  13.549  -8.029  1.00  0.00    -0.258 OA
ATOM     18  O   UNL     1      -3.221  11.405  -8.246  1.00  0.00    -0.258 OA
ENDBRANCH   4  16
BRANCH   5  19
ATOM     19  O   UNL     1      -1.471  14.449  -3.528  1.00  0.00    -0.504 OA
ATOM     20  H   UNL     1      -0.622  14.187  -3.136  1.00  0.00     0.293 HD
ENDBRANCH   5  19
BRANCH   6  21
ATOM     21  O   UNL     1      -2.139  14.638  -6.200  1.00  0.00    -0.500 OA
ATOM     22  H   UNL     1      -1.577  15.221  -5.666  1.00  0.00     0.294 HD
ENDBRANCH   6  21
TORSDOF 5
ENDMDL
MODEL 9
REMARK VINA RESULT:    -4.243      1.276      2.710
REMARK INTER + INTRA:          -5.981
REMARK INTER:                  -5.329
REMARK INTRA:                  -0.652
REMARK UNBOUND:                -0.745
REMARK SMILES Cc1ccc(C(=O)c2cc(O)c(O)c([N+](=O)[O-])c2)cc1
REMARK SMILES IDX 8 1 18 2 9 3 14 4 10 5 12 6 6 7 7 8 5 9 4 10 19 11 3 12
REMARK SMILES IDX 20 13 2 14 1 15 15 16 17 17 16 18 11 19 13 21
REMARK H PARENT 11 20 13 22
ROOT
ATOM      1  C   UNL     1      -1.741   8.658  -2.966  1.00  0.00     0.033 A 
ATOM      2  C   UNL     1      -2.189   8.238  -1.735  1.00  0.00     0.102 A 
ATOM      3  C   UNL     1      -1.355   7.788  -3.957  1.00  0.00     0.063 A 
ATOM      4  C   UNL     1      -2.255   6.868  -1.482  1.00  0.00     0.315 A 
ATOM      5  C   UNL     1      -1.420   6.417  -3.703  1.00  0.00     0.165 A 
ATOM      6  C   UNL     1      -1.871   5.957  -2.465  1.00  0.00     0.237 A 
ENDROOT
BRANCH   1   7
ATOM      7  C   UNL     1      -1.671  10.126  -3.238  1.00  0.00     0.193 C 
ATOM      8  O   UNL     1      -1.206  10.848  -2.343  1.00  0.00    -0.289 OA
BRANCH   7   9
ATOM      9  C   UNL     1      -2.121  10.709  -4.491  1.00  0.00     0.023 A 
ATOM     10  C   UNL     1      -3.391  11.278  -4.580  1.00  0.00     0.012 A 
ATOM     11  C   UNL     1      -1.282  10.701  -5.605  1.00  0.00     0.012 A 
ATOM     12  C   UNL     1      -3.823  11.838  -5.782  1.00  0.00     0.004 A 
ATOM     13  C   UNL     1      -1.713  11.261  -6.809  1.00  0.00     0.004 A 
ATOM     14  C   UNL     1      -2.983  11.830  -6.897  1.00  0.00    -0.051 A 
ATOM     15  C   UNL     1      -3.445  12.427  -8.182  1.00  0.00     0.044 C 
ENDBRANCH   7   9
ENDBRANCH   1   7
BRANCH   4  16
ATOM     16  N   UNL     1      -2.717   6.418  -0.214  1.00  0.00     0.066 N 
ATOM     17  O   UNL     1      -1.956   5.715   0.493  1.00  0.00    -0.258 OA
ATOM     18  O   UNL     1      -3.869   6.738   0.159  1.00  0.00    -0.258 OA
ENDBRANCH   4  16
BRANCH   5  19
ATOM     19  O   UNL     1      -1.041   5.539  -4.674  1.00  0.00    -0.504 OA
ATOM     20  H   UNL     1      -0.270   5.891  -5.148  1.00  0.00     0.293 HD
ENDBRANCH   5  19
BRANCH   6  21
ATOM     21  O   UNL     1      -1.930   4.615  -2.229  1.00  0.00    -0.500 OA
ATOM     22  H   UNL     1      -2.384   4.451  -1.388  1.00  0.00     0.294 HD
ENDBRANCH   6  21
TORSDOF 5
ENDMDL
