MODEL 1
REMARK VINA RESULT:    -4.013      0.000      0.000
REMARK INTER + INTRA:          -5.724
REMARK INTER:                  -4.951
REMARK INTRA:                  -0.773
REMARK UNBOUND:                -0.773
REMARK SMILES Cc1ccc(C(=O)c2cc(O)c(O)c([N+](=O)[O-])c2)cc1
REMARK SMILES IDX 8 1 18 2 9 3 14 4 10 5 12 6 6 7 7 8 5 9 4 10 19 11 3 12
REMARK SMILES IDX 20 13 2 14 1 15 15 16 17 17 16 18 11 19 13 21
REMARK H PARENT 11 20 13 22
ROOT
ATOM      1  C   UNL     1      -7.923   2.012  -3.613  1.00  0.00     0.033 A 
ATOM      2  C   UNL     1      -7.026   3.034  -3.818  1.00  0.00     0.102 A 
ATOM      3  C   UNL     1      -7.617   0.885  -2.887  1.00  0.00     0.063 A 
ATOM      4  C   UNL     1      -5.751   2.924  -3.265  1.00  0.00     0.315 A 
ATOM      5  C   UNL     1      -6.341   0.774  -2.334  1.00  0.00     0.165 A 
ATOM      6  C   UNL     1      -5.408   1.795  -2.522  1.00  0.00     0.237 A 
ENDROOT
BRANCH   1   7
ATOM      7  C   UNL     1      -9.289   2.129  -4.206  1.00  0.00     0.193 C 
ATOM      8  O   UNL     1     -10.233   1.648  -3.561  1.00  0.00    -0.289 OA
BRANCH   7   9
ATOM      9  C   UNL     1      -9.531   2.777  -5.485  1.00  0.00     0.023 A 
ATOM     10  C   UNL     1      -9.551   2.021  -6.658  1.00  0.00     0.012 A 
ATOM     11  C   UNL     1      -9.743   4.154  -5.541  1.00  0.00     0.012 A 
ATOM     12  C   UNL     1      -9.782   2.643  -7.884  1.00  0.00     0.004 A 
ATOM     13  C   UNL     1      -9.975   4.777  -6.768  1.00  0.00     0.004 A 
ATOM     14  C   UNL     1      -9.995   4.021  -7.940  1.00  0.00    -0.051 A 
ATOM     15  C   UNL     1     -10.241   4.685  -9.252  1.00  0.00     0.044 C 
ENDBRANCH   7   9
ENDBRANCH   1   7
BRANCH   4  16
ATOM     16  N   UNL     1      -4.813   3.974  -3.468  1.00  0.00     0.066 N 
ATOM     17  O   UNL     1      -5.172   5.157  -3.254  1.00  0.00    -0.258 OA
ATOM     18  O   UNL     1      -3.656   3.686  -3.854  1.00  0.00    -0.258 OA
ENDBRANCH   4  16
BRANCH   5  19
ATOM     19  O   UNL     1      -6.020  -0.335  -1.610  1.00  0.00    -0.504 OA
ATOM     20  H   UNL     1      -5.058  -0.469  -1.631  1.00  0.00     0.293 HD
ENDBRANCH   5  19
BRANCH   6  21
ATOM     21  O   UNL     1      -4.163   1.675  -1.975  1.00  0.00    -0.500 OA
ATOM     22  H   UNL     1      -4.221   1.191  -1.137  1.00  0.00     0.294 HD
ENDBRANCH   6  21
TORSDOF 5
ENDMDL
MODEL 2
REMARK VINA RESULT:    -3.969      2.130      3.651
REMARK INTER + INTRA:          -5.669
REMARK INTER:                  -4.902
REMARK INTRA:                  -0.767
REMARK UNBOUND:                -0.773
REMARK SMILES Cc1ccc(C(=O)c2cc(O)c(O)c([N+](=O)[O-])c2)cc1
REMARK SMILES IDX 8 1 18 2 9 3 14 4 10 5 12 6 6 7 7 8 5 9 4 10 19 11 3 12
REMARK SMILES IDX 20 13 2 14 1 15 15 16 17 17 16 18 11 19 13 21
REMARK H PARENT 11 20 13 22
ROOT
ATOM      1  C   UNL     1      -6.869   2.522  -4.987  1.00  0.00     0.033 A 
ATOM      2  C   UNL     1      -7.007   1.372  -4.245  1.00  0.00     0.102 A 
ATOM      3  C   UNL     1      -5.846   3.419  -4.790  1.00  0.00     0.063 A 
ATOM      4  C   UNL     1      -6.067   1.103  -3.251  1.00  0.00     0.315 A 
ATOM      5  C   UNL     1      -4.906   3.150  -3.795  1.00  0.00     0.165 A 
ATOM      6  C   UNL     1      -5.016   1.991  -3.025  1.00  0.00     0.237 A 
ENDROOT
BRANCH   1   7
ATOM      7  C   UNL     1      -7.875   2.810  -6.053  1.00  0.00     0.193 C 
ATOM      8  O   UNL     1      -7.471   3.376  -7.080  1.00  0.00    -0.289 OA
BRANCH   7   9
ATOM      9  C   UNL     1      -9.278   2.453  -5.917  1.00  0.00     0.023 A 
ATOM     10  C   UNL     1     -10.189   3.381  -5.411  1.00  0.00     0.012 A 
ATOM     11  C   UNL     1      -9.714   1.183  -6.294  1.00  0.00     0.012 A 
ATOM     12  C   UNL     1     -11.534   3.038  -5.281  1.00  0.00     0.004 A 
ATOM     13  C   UNL     1     -11.061   0.839  -6.165  1.00  0.00     0.004 A 
ATOM     14  C   UNL     1     -11.971   1.767  -5.658  1.00  0.00    -0.051 A 
ATOM     15  C   UNL     1     -13.409   1.400  -5.518  1.00  0.00     0.044 C 
ENDBRANCH   7   9
ENDBRANCH   1   7
BRANCH   4  16
ATOM     16  N   UNL     1      -6.197  -0.083  -2.476  1.00  0.00     0.066 N 
ATOM     17  O   UNL     1      -6.378  -1.175  -3.066  1.00  0.00    -0.258 OA
ATOM     18  O   UNL     1      -6.124  -0.002  -1.228  1.00  0.00    -0.258 OA
ENDBRANCH   4  16
BRANCH   5  19
ATOM     19  O   UNL     1      -3.884   4.027  -3.585  1.00  0.00    -0.504 OA
ATOM     20  H   UNL     1      -3.083   3.705  -4.029  1.00  0.00     0.293 HD
ENDBRANCH   5  19
BRANCH   6  21
ATOM     21  O   UNL     1      -4.091   1.739  -2.054  1.00  0.00    -0.500 OA
ATOM     22  H   UNL     1      -3.958   2.535  -1.516  1.00  0.00     0.294 HD
ENDBRANCH   6  21
TORSDOF 5
ENDMDL
MODEL 3
REMARK VINA RESULT:    -3.078      1.422      2.840
REMARK INTER + INTRA:          -4.570
REMARK INTER:                  -4.254
REMARK INTRA:                  -0.316
REMARK UNBOUND:                -0.773
REMARK SMILES Cc1ccc(C(=O)c2cc(O)c(O)c([N+](=O)[O-])c2)cc1
REMARK SMILES IDX 8 1 18 2 9 3 14 4 10 5 12 6 6 7 7 8 5 9 4 10 19 11 3 12
REMARK SMILES IDX 20 13 2 14 1 15 15 16 17 17 16 18 11 19 13 21
REMARK H PARENT 11 20 13 22
ROOT
ATOM      1  C   UNL     1      -8.030   2.242  -4.076  1.00  0.00     0.033 A 
ATOM      2  C   UNL     1      -7.757   1.032  -3.481  1.00  0.00     0.102 A 
ATOM      3  C   UNL     1      -7.160   3.305  -4.039  1.00  0.00     0.063 A 
ATOM      4  C   UNL     1      -6.542   0.877  -2.813  1.00  0.00     0.315 A 
ATOM      5  C   UNL     1      -5.946   3.151  -3.369  1.00  0.00     0.165 A 
ATOM      6  C   UNL     1      -5.637   1.936  -2.756  1.00  0.00     0.237 A 
ENDROOT
BRANCH   1   7
ATOM      7  C   UNL     1      -9.331   2.408  -4.792  1.00  0.00     0.193 C 
ATOM      8  O   UNL     1     -10.358   2.048  -4.197  1.00  0.00    -0.289 OA
BRANCH   7   9
ATOM      9  C   UNL     1      -9.418   2.966  -6.132  1.00  0.00     0.023 A 
ATOM     10  C   UNL     1      -8.258   3.156  -6.885  1.00  0.00     0.012 A 
ATOM     11  C   UNL     1     -10.659   3.310  -6.666  1.00  0.00     0.012 A 
ATOM     12  C   UNL     1      -8.342   3.691  -8.170  1.00  0.00     0.004 A 
ATOM     13  C   UNL     1     -10.743   3.845  -7.952  1.00  0.00     0.004 A 
ATOM     14  C   UNL     1      -9.584   4.036  -8.704  1.00  0.00    -0.051 A 
ATOM     15  C   UNL     1      -9.672   4.609 -10.077  1.00  0.00     0.044 C 
ENDBRANCH   7   9
ENDBRANCH   1   7
BRANCH   4  16
ATOM     16  N   UNL     1      -6.245  -0.368  -2.194  1.00  0.00     0.066 N 
ATOM     17  O   UNL     1      -6.235  -1.407  -2.897  1.00  0.00    -0.258 OA
ATOM     18  O   UNL     1      -6.001  -0.391  -0.965  1.00  0.00    -0.258 OA
ENDBRANCH   4  16
BRANCH   5  19
ATOM     19  O   UNL     1      -5.071   4.194  -3.323  1.00  0.00    -0.504 OA
ATOM     20  H   UNL     1      -4.668   4.321  -4.198  1.00  0.00     0.293 HD
ENDBRANCH   5  19
BRANCH   6  21
ATOM     21  O   UNL     1      -4.446   1.797  -2.105  1.00  0.00    -0.500 OA
ATOM     22  H   UNL     1      -4.527   2.138  -1.201  1.00  0.00     0.294 HD
ENDBRANCH   6  21
TORSDOF 5
ENDMDL
MODEL 4
REMARK VINA RESULT:    -3.036      1.960      2.733
REMARK INTER + INTRA:          -4.518
REMARK INTER:                  -4.231
REMARK INTRA:                  -0.287
REMARK UNBOUND:                -0.773
REMARK SMILES Cc1ccc(C(=O)c2cc(O)c(O)c([N+](=O)[O-])c2)cc1
REMARK SMILES IDX 8 1 18 2 9 3 14 4 10 5 12 6 6 7 7 8 5 9 4 10 19 11 3 12
REMARK SMILES IDX 20 13 2 14 1 15 15 16 17 17 16 18 11 19 13 21
REMARK H PARENT 11 20 13 22
ROOT
ATOM      1  C   UNL     1      -7.388   2.410  -4.963  1.00  0.00     0.033 A 
ATOM      2  C   UNL     1      -6.483   3.419  -4.726  1.00  0.00     0.102 A 
ATOM      3  C   UNL     1      -7.316   1.184  -4.347  1.00  0.00     0.063 A 
ATOM      4  C   UNL     1      -5.449   3.188  -3.819  1.00  0.00     0.315 A 
ATOM      5  C   UNL     1      -6.281   0.951  -3.441  1.00  0.00     0.165 A 
ATOM      6  C   UNL     1      -5.348   1.954  -3.176  1.00  0.00     0.237 A 
ENDROOT
BRANCH   1   7
ATOM      7  C   UNL     1      -8.495   2.658  -5.935  1.00  0.00     0.193 C 
ATOM      8  O   UNL     1      -8.189   3.140  -7.036  1.00  0.00    -0.289 OA
BRANCH   7   9
ATOM      9  C   UNL     1      -9.884   2.355  -5.628  1.00  0.00     0.023 A 
ATOM     10  C   UNL     1     -10.246   1.979  -4.334  1.00  0.00     0.012 A 
ATOM     11  C   UNL     1     -10.854   2.441  -6.626  1.00  0.00     0.012 A 
ATOM     12  C   UNL     1     -11.578   1.688  -4.040  1.00  0.00     0.004 A 
ATOM     13  C   UNL     1     -12.187   2.150  -6.332  1.00  0.00     0.004 A 
ATOM     14  C   UNL     1     -12.549   1.774  -5.039  1.00  0.00    -0.051 A 
ATOM     15  C   UNL     1     -13.972   1.462  -4.724  1.00  0.00     0.044 C 
ENDBRANCH   7   9
ENDBRANCH   1   7
BRANCH   4  16
ATOM     16  N   UNL     1      -4.507   4.221  -3.562  1.00  0.00     0.066 N 
ATOM     17  O   UNL     1      -3.289   3.994  -3.761  1.00  0.00    -0.258 OA
ATOM     18  O   UNL     1      -4.920   5.329  -3.147  1.00  0.00    -0.258 OA
ENDBRANCH   4  16
BRANCH   5  19
ATOM     19  O   UNL     1      -6.195  -0.258  -2.820  1.00  0.00    -0.504 OA
ATOM     20  H   UNL     1      -5.283  -0.588  -2.876  1.00  0.00     0.293 HD
ENDBRANCH   5  19
BRANCH   6  21
ATOM     21  O   UNL     1      -4.340   1.716  -2.287  1.00  0.00    -0.500 OA
ATOM     22  H   UNL     1      -3.737   1.048  -2.649  1.00  0.00     0.294 HD
ENDBRANCH   6  21
TORSDOF 5
ENDMDL
MODEL 5
REMARK VINA RESULT:    -1.691      1.438      2.101
REMARK INTER + INTRA:          -2.859
REMARK INTER:                  -2.070
REMARK INTRA:                  -0.789
REMARK UNBOUND:                -0.773
REMARK SMILES Cc1ccc(C(=O)c2cc(O)c(O)c([N+](=O)[O-])c2)cc1
REMARK SMILES IDX 8 1 18 2 9 3 14 4 10 5 12 6 6 7 7 8 5 9 4 10 19 11 3 12
REMARK SMILES IDX 20 13 2 14 1 15 15 16 17 17 16 18 11 19 13 21
REMARK H PARENT 11 20 13 22
ROOT
ATOM      1  C   UNL     1      -8.455   2.831  -5.212  1.00  0.00     0.033 A 
ATOM      2  C   UNL     1      -7.476   3.712  -4.816  1.00  0.00     0.102 A 
ATOM      3  C   UNL     1      -8.350   1.471  -5.037  1.00  0.00     0.063 A 
ATOM      4  C   UNL     1      -6.327   3.205  -4.210  1.00  0.00     0.315 A 
ATOM      5  C   UNL     1      -7.201   0.963  -4.432  1.00  0.00     0.165 A 
ATOM      6  C   UNL     1      -6.189   1.830  -4.018  1.00  0.00     0.237 A 
ENDROOT
BRANCH   1   7
ATOM      7  C   UNL     1      -9.686   3.374  -5.861  1.00  0.00     0.193 C 
ATOM      8  O   UNL     1     -10.687   3.527  -5.145  1.00  0.00    -0.289 OA
BRANCH   7   9
ATOM      9  C   UNL     1      -9.736   3.719  -7.273  1.00  0.00     0.023 A 
ATOM     10  C   UNL     1      -8.652   3.426  -8.101  1.00  0.00     0.012 A 
ATOM     11  C   UNL     1     -10.867   4.342  -7.800  1.00  0.00     0.012 A 
ATOM     12  C   UNL     1      -8.700   3.756  -9.455  1.00  0.00     0.004 A 
ATOM     13  C   UNL     1     -10.916   4.672  -9.155  1.00  0.00     0.004 A 
ATOM     14  C   UNL     1      -9.832   4.379  -9.983  1.00  0.00    -0.051 A 
ATOM     15  C   UNL     1      -9.882   4.733 -11.430  1.00  0.00     0.044 C 
ENDBRANCH   7   9
ENDBRANCH   1   7
BRANCH   4  16
ATOM     16  N   UNL     1      -5.307   4.104  -3.795  1.00  0.00     0.066 N 
ATOM     17  O   UNL     1      -4.111   3.725  -3.838  1.00  0.00    -0.258 OA
ATOM     18  O   UNL     1      -5.631   5.247  -3.399  1.00  0.00    -0.258 OA
ENDBRANCH   4  16
BRANCH   5  19
ATOM     19  O   UNL     1      -7.079  -0.382  -4.250  1.00  0.00    -0.504 OA
ATOM     20  H   UNL     1      -7.139  -0.833  -5.109  1.00  0.00     0.293 HD
ENDBRANCH   5  19
BRANCH   6  21
ATOM     21  O   UNL     1      -5.069   1.322  -3.426  1.00  0.00    -0.500 OA
ATOM     22  H   UNL     1      -5.046   1.584  -2.492  1.00  0.00     0.294 HD
ENDBRANCH   6  21
TORSDOF 5
ENDMDL
MODEL 6
REMARK VINA RESULT:    -1.600      2.791      4.115
REMARK INTER + INTRA:          -2.747
REMARK INTER:                  -1.965
REMARK INTRA:                  -0.782
REMARK UNBOUND:                -0.773
REMARK SMILES Cc1ccc(C(=O)c2cc(O)c(O)c([N+](=O)[O-])c2)cc1
REMARK SMILES IDX 8 1 18 2 9 3 14 4 10 5 12 6 6 7 7 8 5 9 4 10 19 11 3 12
REMARK SMILES IDX 20 13 2 14 1 15 15 16 17 17 16 18 11 19 13 21
REMARK H PARENT 11 20 13 22
ROOT
ATOM      1  C   UNL     1      -8.738   2.033  -5.004  1.00  0.00     0.033 A 
ATOM      2  C   UNL     1      -8.229   0.915  -4.384  1.00  0.00     0.102 A 
ATOM      3  C   UNL     1      -8.283   3.303  -4.743  1.00  0.00     0.063 A 
ATOM      4  C   UNL     1      -7.205   1.078  -3.451  1.00  0.00     0.315 A 
ATOM      5  C   UNL     1      -7.259   3.467  -3.809  1.00  0.00     0.165 A 
ATOM      6  C   UNL     1      -6.719   2.353  -3.164  1.00  0.00     0.237 A 
ENDROOT
BRANCH   1   7
ATOM      7  C   UNL     1      -9.835   1.858  -6.003  1.00  0.00     0.193 C 
ATOM      8  O   UNL     1      -9.508   1.756  -7.195  1.00  0.00    -0.289 OA
BRANCH   7   9
ATOM      9  C   UNL     1     -11.237   1.807  -5.620  1.00  0.00     0.023 A 
ATOM     10  C   UNL     1     -11.593   1.809  -4.271  1.00  0.00     0.012 A 
ATOM     11  C   UNL     1     -12.227   1.758  -6.602  1.00  0.00     0.012 A 
ATOM     12  C   UNL     1     -12.938   1.760  -3.905  1.00  0.00     0.004 A 
ATOM     13  C   UNL     1     -13.572   1.709  -6.236  1.00  0.00     0.004 A 
ATOM     14  C   UNL     1     -13.928   1.710  -4.887  1.00  0.00    -0.051 A 
ATOM     15  C   UNL     1     -15.365   1.657  -4.494  1.00  0.00     0.044 C 
ENDBRANCH   7   9
ENDBRANCH   1   7
BRANCH   4  16
ATOM     16  N   UNL     1      -6.668  -0.068  -2.803  1.00  0.00     0.066 N 
ATOM     17  O   UNL     1      -6.655  -1.162  -3.418  1.00  0.00    -0.258 OA
ATOM     18  O   UNL     1      -6.223   0.048  -1.638  1.00  0.00    -0.258 OA
ENDBRANCH   4  16
BRANCH   5  19
ATOM     19  O   UNL     1      -6.794   4.719  -3.539  1.00  0.00    -0.504 OA
ATOM     20  H   UNL     1      -7.446   5.377  -3.830  1.00  0.00     0.293 HD
ENDBRANCH   5  19
BRANCH   6  21
ATOM     21  O   UNL     1      -5.718   2.526  -2.253  1.00  0.00    -0.500 OA
ATOM     22  H   UNL     1      -6.001   2.189  -1.389  1.00  0.00     0.294 HD
ENDBRANCH   6  21
TORSDOF 5
ENDMDL
MODEL 7
REMARK VINA RESULT:    -1.367      3.326      6.643
REMARK INTER + INTRA:          -2.459
REMARK INTER:                  -2.043
REMARK INTRA:                  -0.416
REMARK UNBOUND:                -0.773
REMARK SMILES Cc1ccc(C(=O)c2cc(O)c(O)c([N+](=O)[O-])c2)cc1
REMARK SMILES IDX 8 1 18 2 9 3 14 4 10 5 12 6 6 7 7 8 5 9 4 10 19 11 3 12
REMARK SMILES IDX 20 13 2 14 1 15 15 16 17 17 16 18 11 19 13 21
REMARK H PARENT 11 20 13 22
ROOT
ATOM      1  C   UNL     1      -9.819   2.256  -4.782  1.00  0.00     0.033 A 
ATOM      2  C   UNL     1     -11.113   1.817  -4.621  1.00  0.00     0.102 A 
ATOM      3  C   UNL     1      -9.394   2.932  -5.901  1.00  0.00     0.063 A 
ATOM      4  C   UNL     1     -12.034   2.070  -5.638  1.00  0.00     0.315 A 
ATOM      5  C   UNL     1     -10.315   3.184  -6.918  1.00  0.00     0.165 A 
ATOM      6  C   UNL     1     -11.636   2.754  -6.786  1.00  0.00     0.237 A 
ENDROOT
BRANCH   1   7
ATOM      7  C   UNL     1      -8.832   1.985  -3.693  1.00  0.00     0.193 C 
ATOM      8  O   UNL     1      -9.207   1.272  -2.750  1.00  0.00    -0.289 OA
BRANCH   7   9
ATOM      9  C   UNL     1      -7.481   2.522  -3.715  1.00  0.00     0.023 A 
ATOM     10  C   UNL     1      -6.387   1.658  -3.691  1.00  0.00     0.012 A 
ATOM     11  C   UNL     1      -7.280   3.902  -3.759  1.00  0.00     0.012 A 
ATOM     12  C   UNL     1      -5.091   2.174  -3.711  1.00  0.00     0.004 A 
ATOM     13  C   UNL     1      -5.983   4.418  -3.780  1.00  0.00     0.004 A 
ATOM     14  C   UNL     1      -4.889   3.554  -3.756  1.00  0.00    -0.051 A 
ATOM     15  C   UNL     1      -3.503   4.104  -3.776  1.00  0.00     0.044 C 
ENDBRANCH   7   9
ENDBRANCH   1   7
BRANCH   4  16
ATOM     16  N   UNL     1     -13.376   1.624  -5.485  1.00  0.00     0.066 N 
ATOM     17  O   UNL     1     -14.137   1.640  -6.482  1.00  0.00    -0.258 OA
ATOM     18  O   UNL     1     -13.758   1.226  -4.360  1.00  0.00    -0.258 OA
ENDBRANCH   4  16
BRANCH   5  19
ATOM     19  O   UNL     1      -9.912   3.853  -8.035  1.00  0.00    -0.504 OA
ATOM     20  H   UNL     1      -9.078   4.318  -7.852  1.00  0.00     0.293 HD
ENDBRANCH   5  19
BRANCH   6  21
ATOM     21  O   UNL     1     -12.528   3.007  -7.787  1.00  0.00    -0.500 OA
ATOM     22  H   UNL     1     -12.051   3.277  -8.588  1.00  0.00     0.294 HD
ENDBRANCH   6  21
TORSDOF 5
ENDMDL
