MODEL 1
REMARK VINA RESULT:    -5.562      0.000      0.000
REMARK INTER + INTRA:          -7.281
REMARK INTER:                  -6.537
REMARK INTRA:                  -0.744
REMARK UNBOUND:                -0.744
REMARK SMILES O=C(O)c1cc(-c2ccc(F)cc2F)ccc1O
REMARK SMILES IDX 6 1 5 2 15 3 4 4 17 5 16 6 7 7 13 8 12 9 8 10 10 11 9 12
REMARK SMILES IDX 14 13 11 14 2 15 1 16 3 17 18 19
REMARK H PARENT 3 18 18 20
ROOT
ATOM      1  C   UNL     1      -7.399   2.278  -4.296  1.00  0.00    -0.014 A 
ATOM      2  C   UNL     1      -7.373   1.128  -3.508  1.00  0.00     0.028 A 
ATOM      3  C   UNL     1      -6.330   3.173  -4.258  1.00  0.00     0.013 A 
ATOM      4  C   UNL     1      -6.279   0.872  -2.680  1.00  0.00     0.102 A 
ATOM      5  C   UNL     1      -5.210   1.768  -2.642  1.00  0.00     0.130 A 
ATOM      6  C   UNL     1      -5.236   2.918  -3.432  1.00  0.00     0.048 A 
ENDROOT
BRANCH   1   7
ATOM      7  C   UNL     1      -8.534   2.544  -5.153  1.00  0.00     0.018 A 
ATOM      8  C   UNL     1      -9.195   3.770  -5.079  1.00  0.00     0.133 A 
ATOM      9  C   UNL     1     -10.289   4.023  -5.907  1.00  0.00     0.079 A 
ATOM     10  C   UNL     1      -8.966   1.571  -6.055  1.00  0.00     0.015 A 
ATOM     11  C   UNL     1     -10.721   3.050  -6.808  1.00  0.00     0.126 A 
ATOM     12  C   UNL     1     -10.059   1.825  -6.882  1.00  0.00     0.040 A 
ATOM     13  F   UNL     1      -8.794   4.715  -4.216  1.00  0.00    -0.206 F 
ATOM     14  F   UNL     1     -11.771   3.292  -7.603  1.00  0.00    -0.207 F 
ENDBRANCH   1   7
BRANCH   4  15
ATOM     15  C   UNL     1      -6.272  -0.334  -1.865  1.00  0.00     0.339 C 
ATOM     16  O   UNL     1      -5.862  -0.409  -0.704  1.00  0.00    -0.246 OA
BRANCH  15  17
ATOM     17  O   UNL     1      -6.779  -1.410  -2.527  1.00  0.00    -0.478 OA
ATOM     18  H   UNL     1      -7.690  -1.244  -2.848  1.00  0.00     0.297 HD
ENDBRANCH  15  17
ENDBRANCH   4  15
BRANCH   5  19
ATOM     19  O   UNL     1      -4.132   1.536  -1.842  1.00  0.00    -0.507 OA
ATOM     20  H   UNL     1      -3.851   0.611  -1.947  1.00  0.00     0.293 HD
ENDBRANCH   5  19
TORSDOF 4
ENDMDL
MODEL 2
REMARK VINA RESULT:    -5.555      1.120      1.602
REMARK INTER + INTRA:          -7.273
REMARK INTER:                  -6.556
REMARK INTRA:                  -0.717
REMARK UNBOUND:                -0.744
REMARK SMILES O=C(O)c1cc(-c2ccc(F)cc2F)ccc1O
REMARK SMILES IDX 6 1 5 2 15 3 4 4 17 5 16 6 7 7 13 8 12 9 8 10 10 11 9 12
REMARK SMILES IDX 14 13 11 14 2 15 1 16 3 17 18 19
REMARK H PARENT 3 18 18 20
ROOT
ATOM      1  C   UNL     1      -7.408   2.261  -4.310  1.00  0.00    -0.014 A 
ATOM      2  C   UNL     1      -7.377   1.112  -3.521  1.00  0.00     0.028 A 
ATOM      3  C   UNL     1      -6.343   3.162  -4.272  1.00  0.00     0.013 A 
ATOM      4  C   UNL     1      -6.281   0.863  -2.693  1.00  0.00     0.102 A 
ATOM      5  C   UNL     1      -5.217   1.763  -2.656  1.00  0.00     0.130 A 
ATOM      6  C   UNL     1      -5.248   2.913  -3.446  1.00  0.00     0.048 A 
ENDROOT
BRANCH   1   7
ATOM      7  C   UNL     1      -8.544   2.521  -5.167  1.00  0.00     0.018 A 
ATOM      8  C   UNL     1      -9.009   1.531  -6.033  1.00  0.00     0.133 A 
ATOM      9  C   UNL     1     -10.105   1.785  -6.859  1.00  0.00     0.079 A 
ATOM     10  C   UNL     1      -9.175   3.764  -5.126  1.00  0.00     0.015 A 
ATOM     11  C   UNL     1     -10.735   3.028  -6.817  1.00  0.00     0.126 A 
ATOM     12  C   UNL     1     -10.270   4.017  -5.950  1.00  0.00     0.040 A 
ATOM     13  F   UNL     1      -8.412   0.332  -6.088  1.00  0.00    -0.206 F 
ATOM     14  F   UNL     1     -11.787   3.274  -7.609  1.00  0.00    -0.207 F 
ENDBRANCH   1   7
BRANCH   4  15
ATOM     15  C   UNL     1      -6.268  -0.343  -1.877  1.00  0.00     0.339 C 
ATOM     16  O   UNL     1      -5.869  -0.412  -0.712  1.00  0.00    -0.246 OA
BRANCH  15  17
ATOM     17  O   UNL     1      -6.756  -1.425  -2.543  1.00  0.00    -0.478 OA
ATOM     18  H   UNL     1      -6.097  -1.797  -3.167  1.00  0.00     0.297 HD
ENDBRANCH  15  17
ENDBRANCH   4  15
BRANCH   5  19
ATOM     19  O   UNL     1      -4.137   1.538  -1.855  1.00  0.00    -0.507 OA
ATOM     20  H   UNL     1      -3.347   1.426  -2.411  1.00  0.00     0.293 HD
ENDBRANCH   5  19
TORSDOF 4
ENDMDL
MODEL 3
REMARK VINA RESULT:    -5.528      1.324      2.765
REMARK INTER + INTRA:          -7.241
REMARK INTER:                  -6.640
REMARK INTRA:                  -0.601
REMARK UNBOUND:                -0.744
REMARK SMILES O=C(O)c1cc(-c2ccc(F)cc2F)ccc1O
REMARK SMILES IDX 6 1 5 2 15 3 4 4 17 5 16 6 7 7 13 8 12 9 8 10 10 11 9 12
REMARK SMILES IDX 14 13 11 14 2 15 1 16 3 17 18 19
REMARK H PARENT 3 18 18 20
ROOT
ATOM      1  C   UNL     1      -7.438   2.256  -4.270  1.00  0.00    -0.014 A 
ATOM      2  C   UNL     1      -6.458   3.248  -4.273  1.00  0.00     0.028 A 
ATOM      3  C   UNL     1      -7.264   1.105  -3.502  1.00  0.00     0.013 A 
ATOM      4  C   UNL     1      -5.303   3.089  -3.506  1.00  0.00     0.102 A 
ATOM      5  C   UNL     1      -5.129   1.938  -2.738  1.00  0.00     0.130 A 
ATOM      6  C   UNL     1      -6.109   0.946  -2.736  1.00  0.00     0.048 A 
ENDROOT
BRANCH   1   7
ATOM      7  C   UNL     1      -8.636   2.419  -5.066  1.00  0.00     0.018 A 
ATOM      8  C   UNL     1      -9.335   3.626  -5.040  1.00  0.00     0.133 A 
ATOM      9  C   UNL     1     -10.490   3.778  -5.809  1.00  0.00     0.079 A 
ATOM     10  C   UNL     1      -9.090   1.366  -5.861  1.00  0.00     0.015 A 
ATOM     11  C   UNL     1     -10.944   2.726  -6.602  1.00  0.00     0.126 A 
ATOM     12  C   UNL     1     -10.243   1.520  -6.628  1.00  0.00     0.040 A 
ATOM     13  F   UNL     1      -8.914   4.646  -4.280  1.00  0.00    -0.206 F 
ATOM     14  F   UNL     1     -12.052   2.872  -7.340  1.00  0.00    -0.207 F 
ENDBRANCH   1   7
BRANCH   4  15
ATOM     15  C   UNL     1      -4.292   4.137  -3.522  1.00  0.00     0.339 C 
ATOM     16  O   UNL     1      -3.093   3.969  -3.761  1.00  0.00    -0.246 OA
BRANCH  15  17
ATOM     17  O   UNL     1      -4.811   5.363  -3.239  1.00  0.00    -0.478 OA
ATOM     18  H   UNL     1      -5.790   5.343  -3.196  1.00  0.00     0.297 HD
ENDBRANCH  15  17
ENDBRANCH   4  15
BRANCH   5  19
ATOM     19  O   UNL     1      -4.008   1.765  -1.982  1.00  0.00    -0.507 OA
ATOM     20  H   UNL     1      -4.268   1.646  -1.052  1.00  0.00     0.293 HD
ENDBRANCH   5  19
TORSDOF 4
ENDMDL
MODEL 4
REMARK VINA RESULT:    -4.874      1.062      1.151
REMARK INTER + INTRA:          -6.473
REMARK INTER:                  -5.950
REMARK INTRA:                  -0.523
REMARK UNBOUND:                -0.744
REMARK SMILES O=C(O)c1cc(-c2ccc(F)cc2F)ccc1O
REMARK SMILES IDX 6 1 5 2 15 3 4 4 17 5 16 6 7 7 13 8 12 9 8 10 10 11 9 12
REMARK SMILES IDX 14 13 11 14 2 15 1 16 3 17 18 19
REMARK H PARENT 3 18 18 20
ROOT
ATOM      1  C   UNL     1      -7.599   2.314  -4.409  1.00  0.00    -0.014 A 
ATOM      2  C   UNL     1      -7.460   1.115  -3.712  1.00  0.00     0.028 A 
ATOM      3  C   UNL     1      -6.624   3.305  -4.292  1.00  0.00     0.013 A 
ATOM      4  C   UNL     1      -6.347   0.905  -2.897  1.00  0.00     0.102 A 
ATOM      5  C   UNL     1      -5.373   1.896  -2.780  1.00  0.00     0.130 A 
ATOM      6  C   UNL     1      -5.511   3.097  -3.478  1.00  0.00     0.048 A 
ENDROOT
BRANCH   1   7
ATOM      7  C   UNL     1      -8.754   2.532  -5.253  1.00  0.00     0.018 A 
ATOM      8  C   UNL     1      -8.603   3.125  -6.507  1.00  0.00     0.133 A 
ATOM      9  C   UNL     1      -9.719   3.334  -7.318  1.00  0.00     0.079 A 
ATOM     10  C   UNL     1     -10.019   2.148  -4.811  1.00  0.00     0.015 A 
ATOM     11  C   UNL     1     -10.984   2.950  -6.875  1.00  0.00     0.126 A 
ATOM     12  C   UNL     1     -11.134   2.356  -5.622  1.00  0.00     0.040 A 
ATOM     13  F   UNL     1      -7.394   3.503  -6.946  1.00  0.00    -0.206 F 
ATOM     14  F   UNL     1     -12.056   3.150  -7.652  1.00  0.00    -0.207 F 
ENDBRANCH   1   7
BRANCH   4  15
ATOM     15  C   UNL     1      -6.220  -0.355  -2.178  1.00  0.00     0.339 C 
ATOM     16  O   UNL     1      -6.032  -0.468  -0.964  1.00  0.00    -0.246 OA
BRANCH  15  17
ATOM     17  O   UNL     1      -6.335  -1.434  -2.999  1.00  0.00    -0.478 OA
ATOM     18  H   UNL     1      -6.759  -2.193  -2.546  1.00  0.00     0.297 HD
ENDBRANCH  15  17
ENDBRANCH   4  15
BRANCH   5  19
ATOM     19  O   UNL     1      -4.277   1.712  -1.990  1.00  0.00    -0.507 OA
ATOM     20  H   UNL     1      -3.777   2.545  -1.941  1.00  0.00     0.293 HD
ENDBRANCH   5  19
TORSDOF 4
ENDMDL
MODEL 5
REMARK VINA RESULT:    -4.058      3.735      6.053
REMARK INTER + INTRA:          -5.513
REMARK INTER:                  -4.551
REMARK INTRA:                  -0.962
REMARK UNBOUND:                -0.744
REMARK SMILES O=C(O)c1cc(-c2ccc(F)cc2F)ccc1O
REMARK SMILES IDX 6 1 5 2 15 3 4 4 17 5 16 6 7 7 13 8 12 9 8 10 10 11 9 12
REMARK SMILES IDX 14 13 11 14 2 15 1 16 3 17 18 19
REMARK H PARENT 3 18 18 20
ROOT
ATOM      1  C   UNL     1      -9.095   2.503  -5.335  1.00  0.00    -0.014 A 
ATOM      2  C   UNL     1     -10.349   2.005  -4.984  1.00  0.00     0.028 A 
ATOM      3  C   UNL     1      -8.938   3.225  -6.518  1.00  0.00     0.013 A 
ATOM      4  C   UNL     1     -11.447   2.229  -5.815  1.00  0.00     0.102 A 
ATOM      5  C   UNL     1     -11.290   2.951  -6.998  1.00  0.00     0.130 A 
ATOM      6  C   UNL     1     -10.035   3.449  -7.350  1.00  0.00     0.048 A 
ENDROOT
BRANCH   1   7
ATOM      7  C   UNL     1      -7.956   2.270  -4.474  1.00  0.00     0.018 A 
ATOM      8  C   UNL     1      -7.360   3.335  -3.797  1.00  0.00     0.133 A 
ATOM      9  C   UNL     1      -6.262   3.105  -2.968  1.00  0.00     0.079 A 
ATOM     10  C   UNL     1      -7.454   0.978  -4.321  1.00  0.00     0.015 A 
ATOM     11  C   UNL     1      -5.760   1.814  -2.816  1.00  0.00     0.126 A 
ATOM     12  C   UNL     1      -6.356   0.750  -3.492  1.00  0.00     0.040 A 
ATOM     13  F   UNL     1      -7.829   4.583  -3.935  1.00  0.00    -0.206 F 
ATOM     14  F   UNL     1      -4.705   1.593  -2.020  1.00  0.00    -0.207 F 
ENDBRANCH   1   7
BRANCH   4  15
ATOM     15  C   UNL     1     -12.749   1.701  -5.430  1.00  0.00     0.339 C 
ATOM     16  O   UNL     1     -13.744   1.656  -6.156  1.00  0.00    -0.246 OA
BRANCH  15  17
ATOM     17  O   UNL     1     -12.764   1.244  -4.148  1.00  0.00    -0.478 OA
ATOM     18  H   UNL     1     -12.085   1.686  -3.595  1.00  0.00     0.297 HD
ENDBRANCH  15  17
ENDBRANCH   4  15
BRANCH   5  19
ATOM     19  O   UNL     1     -12.350   3.181  -7.824  1.00  0.00    -0.507 OA
ATOM     20  H   UNL     1     -13.019   3.699  -7.343  1.00  0.00     0.293 HD
ENDBRANCH   5  19
TORSDOF 4
ENDMDL
MODEL 6
REMARK VINA RESULT:    -4.044      4.349      6.718
REMARK INTER + INTRA:          -5.497
REMARK INTER:                  -4.529
REMARK INTRA:                  -0.968
REMARK UNBOUND:                -0.744
REMARK SMILES O=C(O)c1cc(-c2ccc(F)cc2F)ccc1O
REMARK SMILES IDX 6 1 5 2 15 3 4 4 17 5 16 6 7 7 13 8 12 9 8 10 10 11 9 12
REMARK SMILES IDX 14 13 11 14 2 15 1 16 3 17 18 19
REMARK H PARENT 3 18 18 20
ROOT
ATOM      1  C   UNL     1      -8.945   2.596  -5.514  1.00  0.00    -0.014 A 
ATOM      2  C   UNL     1      -8.908   3.300  -6.717  1.00  0.00     0.028 A 
ATOM      3  C   UNL     1     -10.149   2.060  -5.057  1.00  0.00     0.013 A 
ATOM      4  C   UNL     1     -10.074   3.468  -7.464  1.00  0.00     0.102 A 
ATOM      5  C   UNL     1     -11.278   2.931  -7.008  1.00  0.00     0.130 A 
ATOM      6  C   UNL     1     -11.315   2.227  -5.803  1.00  0.00     0.048 A 
ENDROOT
BRANCH   1   7
ATOM      7  C   UNL     1      -7.736   2.423  -4.738  1.00  0.00     0.018 A 
ATOM      8  C   UNL     1      -7.162   1.158  -4.608  1.00  0.00     0.133 A 
ATOM      9  C   UNL     1      -5.997   0.995  -3.858  1.00  0.00     0.079 A 
ATOM     10  C   UNL     1      -7.145   3.524  -4.119  1.00  0.00     0.015 A 
ATOM     11  C   UNL     1      -5.406   2.096  -3.240  1.00  0.00     0.126 A 
ATOM     12  C   UNL     1      -5.980   3.361  -3.371  1.00  0.00     0.040 A 
ATOM     13  F   UNL     1      -7.720   0.089  -5.194  1.00  0.00    -0.206 F 
ATOM     14  F   UNL     1      -4.287   1.941  -2.520  1.00  0.00    -0.207 F 
ENDBRANCH   1   7
BRANCH   4  15
ATOM     15  C   UNL     1     -10.013   4.205  -8.719  1.00  0.00     0.339 C 
ATOM     16  O   UNL     1     -10.988   4.613  -9.354  1.00  0.00    -0.246 OA
BRANCH  15  17
ATOM     17  O   UNL     1      -8.735   4.411  -9.137  1.00  0.00    -0.478 OA
ATOM     18  H   UNL     1      -8.180   4.808  -8.434  1.00  0.00     0.297 HD
ENDBRANCH  15  17
ENDBRANCH   4  15
BRANCH   5  19
ATOM     19  O   UNL     1     -12.428   3.083  -7.723  1.00  0.00    -0.507 OA
ATOM     20  H   UNL     1     -12.321   3.827  -8.342  1.00  0.00     0.293 HD
ENDBRANCH   5  19
TORSDOF 4
ENDMDL
MODEL 7
REMARK VINA RESULT:    -3.307      1.390      2.759
REMARK INTER + INTRA:          -4.631
REMARK INTER:                  -3.764
REMARK INTRA:                  -0.867
REMARK UNBOUND:                -0.744
REMARK SMILES O=C(O)c1cc(-c2ccc(F)cc2F)ccc1O
REMARK SMILES IDX 6 1 5 2 15 3 4 4 17 5 16 6 7 7 13 8 12 9 8 10 10 11 9 12
REMARK SMILES IDX 14 13 11 14 2 15 1 16 3 17 18 19
REMARK H PARENT 3 18 18 20
ROOT
ATOM      1  C   UNL     1      -7.967   1.646  -4.155  1.00  0.00    -0.014 A 
ATOM      2  C   UNL     1      -6.717   2.169  -3.830  1.00  0.00     0.028 A 
ATOM      3  C   UNL     1      -8.445   0.516  -3.492  1.00  0.00     0.013 A 
ATOM      4  C   UNL     1      -5.942   1.562  -2.840  1.00  0.00     0.102 A 
ATOM      5  C   UNL     1      -6.420   0.432  -2.176  1.00  0.00     0.130 A 
ATOM      6  C   UNL     1      -7.672  -0.091  -2.503  1.00  0.00     0.048 A 
ENDROOT
BRANCH   1   7
ATOM      7  C   UNL     1      -8.770   2.274  -5.183  1.00  0.00     0.018 A 
ATOM      8  C   UNL     1      -9.166   1.546  -6.305  1.00  0.00     0.133 A 
ATOM      9  C   UNL     1      -9.939   2.155  -7.293  1.00  0.00     0.079 A 
ATOM     10  C   UNL     1      -9.149   3.609  -5.048  1.00  0.00     0.015 A 
ATOM     11  C   UNL     1     -10.317   3.490  -7.159  1.00  0.00     0.126 A 
ATOM     12  C   UNL     1      -9.922   4.217  -6.036  1.00  0.00     0.040 A 
ATOM     13  F   UNL     1      -8.808   0.262  -6.451  1.00  0.00    -0.206 F 
ATOM     14  F   UNL     1     -11.060   4.076  -8.107  1.00  0.00    -0.207 F 
ENDBRANCH   1   7
BRANCH   4  15
ATOM     15  C   UNL     1      -4.639   2.124  -2.514  1.00  0.00     0.339 C 
ATOM     16  O   UNL     1      -3.852   1.666  -1.682  1.00  0.00    -0.246 OA
BRANCH  15  17
ATOM     17  O   UNL     1      -4.360   3.241  -3.240  1.00  0.00    -0.478 OA
ATOM     18  H   UNL     1      -3.510   3.159  -3.722  1.00  0.00     0.297 HD
ENDBRANCH  15  17
ENDBRANCH   4  15
BRANCH   5  19
ATOM     19  O   UNL     1      -5.680  -0.175  -1.206  1.00  0.00    -0.507 OA
ATOM     20  H   UNL     1      -5.952  -1.106  -1.135  1.00  0.00     0.293 HD
ENDBRANCH   5  19
TORSDOF 4
ENDMDL
MODEL 8
REMARK VINA RESULT:    -3.274      1.210      1.673
REMARK INTER + INTRA:          -4.592
REMARK INTER:                  -3.726
REMARK INTRA:                  -0.866
REMARK UNBOUND:                -0.744
REMARK SMILES O=C(O)c1cc(-c2ccc(F)cc2F)ccc1O
REMARK SMILES IDX 6 1 5 2 15 3 4 4 17 5 16 6 7 7 13 8 12 9 8 10 10 11 9 12
REMARK SMILES IDX 14 13 11 14 2 15 1 16 3 17 18 19
REMARK H PARENT 3 18 18 20
ROOT
ATOM      1  C   UNL     1      -7.326   2.988  -4.764  1.00  0.00    -0.014 A 
ATOM      2  C   UNL     1      -6.758   2.147  -3.808  1.00  0.00     0.028 A 
ATOM      3  C   UNL     1      -6.599   4.069  -5.263  1.00  0.00     0.013 A 
ATOM      4  C   UNL     1      -5.462   2.386  -3.350  1.00  0.00     0.102 A 
ATOM      5  C   UNL     1      -4.735   3.467  -3.848  1.00  0.00     0.130 A 
ATOM      6  C   UNL     1      -5.303   4.309  -4.805  1.00  0.00     0.048 A 
ENDROOT
BRANCH   1   7
ATOM      7  C   UNL     1      -8.671   2.742  -5.239  1.00  0.00     0.018 A 
ATOM      8  C   UNL     1      -9.656   3.718  -5.090  1.00  0.00     0.133 A 
ATOM      9  C   UNL     1     -10.951   3.476  -5.549  1.00  0.00     0.079 A 
ATOM     10  C   UNL     1      -8.980   1.525  -5.847  1.00  0.00     0.015 A 
ATOM     11  C   UNL     1     -11.260   2.260  -6.156  1.00  0.00     0.126 A 
ATOM     12  C   UNL     1     -10.274   1.285  -6.306  1.00  0.00     0.040 A 
ATOM     13  F   UNL     1      -9.376   4.892  -4.506  1.00  0.00    -0.206 F 
ATOM     14  F   UNL     1     -12.503   2.027  -6.597  1.00  0.00    -0.207 F 
ENDBRANCH   1   7
BRANCH   4  15
ATOM     15  C   UNL     1      -4.887   1.496  -2.351  1.00  0.00     0.339 C 
ATOM     16  O   UNL     1      -3.796   1.655  -1.797  1.00  0.00    -0.246 OA
BRANCH  15  17
ATOM     17  O   UNL     1      -5.694   0.435  -2.076  1.00  0.00    -0.478 OA
ATOM     18  H   UNL     1      -6.441   0.687  -1.494  1.00  0.00     0.297 HD
ENDBRANCH  15  17
ENDBRANCH   4  15
BRANCH   5  19
ATOM     19  O   UNL     1      -3.467   3.717  -3.414  1.00  0.00    -0.507 OA
ATOM     20  H   UNL     1      -3.044   4.352  -4.019  1.00  0.00     0.293 HD
ENDBRANCH   5  19
TORSDOF 4
ENDMDL
