MODEL 1
REMARK VINA RESULT:    -4.677      0.000      0.000
REMARK INTER + INTRA:          -6.272
REMARK INTER:                  -5.497
REMARK INTRA:                  -0.775
REMARK UNBOUND:                -0.775
REMARK SMILES O=C(O)c1cc(-c2ccc(F)cc2F)ccc1O
REMARK SMILES IDX 6 1 5 2 15 3 4 4 17 5 16 6 7 7 13 8 12 9 8 10 10 11 9 12
REMARK SMILES IDX 14 13 11 14 2 15 1 16 3 17 18 19
REMARK H PARENT 3 18 18 20
ROOT
ATOM      1  C   UNL     1      -0.675   5.674   6.489  1.00  0.00    -0.014 A 
ATOM      2  C   UNL     1      -1.854   4.966   6.258  1.00  0.00     0.028 A 
ATOM      3  C   UNL     1       0.459   5.410   5.721  1.00  0.00     0.013 A 
ATOM      4  C   UNL     1      -1.900   3.994   5.259  1.00  0.00     0.102 A 
ATOM      5  C   UNL     1      -0.766   3.730   4.490  1.00  0.00     0.130 A 
ATOM      6  C   UNL     1       0.414   4.438   4.721  1.00  0.00     0.048 A 
ENDROOT
BRANCH   1   7
ATOM      7  C   UNL     1      -0.626   6.681   7.527  1.00  0.00     0.018 A 
ATOM      8  C   UNL     1      -1.577   7.701   7.558  1.00  0.00     0.133 A 
ATOM      9  C   UNL     1      -1.526   8.671   8.560  1.00  0.00     0.079 A 
ATOM     10  C   UNL     1       0.374   6.629   8.498  1.00  0.00     0.015 A 
ATOM     11  C   UNL     1      -0.526   8.620   9.530  1.00  0.00     0.126 A 
ATOM     12  C   UNL     1       0.424   7.598   9.499  1.00  0.00     0.040 A 
ATOM     13  F   UNL     1      -2.543   7.767   6.631  1.00  0.00    -0.206 F 
ATOM     14  F   UNL     1      -0.476   9.550  10.493  1.00  0.00    -0.207 F 
ENDBRANCH   1   7
BRANCH   4  15
ATOM     15  C   UNL     1      -3.141   3.266   5.033  1.00  0.00     0.339 C 
ATOM     16  O   UNL     1      -3.224   2.103   4.630  1.00  0.00    -0.246 OA
BRANCH  15  17
ATOM     17  O   UNL     1      -4.241   4.016   5.318  1.00  0.00    -0.478 OA
ATOM     18  H   UNL     1      -5.069   3.562   5.058  1.00  0.00     0.297 HD
ENDBRANCH  15  17
ENDBRANCH   4  15
BRANCH   5  19
ATOM     19  O   UNL     1      -0.791   2.785   3.508  1.00  0.00    -0.507 OA
ATOM     20  H   UNL     1      -1.290   2.012   3.824  1.00  0.00     0.293 HD
ENDBRANCH   5  19
TORSDOF 4
ENDMDL
MODEL 2
REMARK VINA RESULT:    -4.486      1.373      2.774
REMARK INTER + INTRA:          -6.047
REMARK INTER:                  -5.420
REMARK INTRA:                  -0.628
REMARK UNBOUND:                -0.775
REMARK SMILES O=C(O)c1cc(-c2ccc(F)cc2F)ccc1O
REMARK SMILES IDX 6 1 5 2 15 3 4 4 17 5 16 6 7 7 13 8 12 9 8 10 10 11 9 12
REMARK SMILES IDX 14 13 11 14 2 15 1 16 3 17 18 19
REMARK H PARENT 3 18 18 20
ROOT
ATOM      1  C   UNL     1      -0.771   5.694   6.508  1.00  0.00    -0.014 A 
ATOM      2  C   UNL     1       0.472   5.442   5.930  1.00  0.00     0.028 A 
ATOM      3  C   UNL     1      -1.905   5.031   6.040  1.00  0.00     0.013 A 
ATOM      4  C   UNL     1       0.582   4.527   4.883  1.00  0.00     0.102 A 
ATOM      5  C   UNL     1      -0.552   3.863   4.415  1.00  0.00     0.130 A 
ATOM      6  C   UNL     1      -1.796   4.116   4.994  1.00  0.00     0.048 A 
ENDROOT
BRANCH   1   7
ATOM      7  C   UNL     1      -0.886   6.645   7.593  1.00  0.00     0.018 A 
ATOM      8  C   UNL     1      -1.873   7.631   7.559  1.00  0.00     0.133 A 
ATOM      9  C   UNL     1      -1.980   8.546   8.607  1.00  0.00     0.079 A 
ATOM     10  C   UNL     1      -0.010   6.572   8.676  1.00  0.00     0.015 A 
ATOM     11  C   UNL     1      -1.103   8.474   9.688  1.00  0.00     0.126 A 
ATOM     12  C   UNL     1      -0.118   7.486   9.723  1.00  0.00     0.040 A 
ATOM     13  F   UNL     1      -2.721   7.716   6.524  1.00  0.00    -0.206 F 
ATOM     14  F   UNL     1      -1.206   9.351  10.695  1.00  0.00    -0.207 F 
ENDBRANCH   1   7
BRANCH   4  15
ATOM     15  C   UNL     1       1.890   4.277   4.293  1.00  0.00     0.339 C 
ATOM     16  O   UNL     1       2.147   4.310   3.087  1.00  0.00    -0.246 OA
BRANCH  15  17
ATOM     17  O   UNL     1       2.836   3.996   5.230  1.00  0.00    -0.478 OA
ATOM     18  H   UNL     1       2.714   3.103   5.615  1.00  0.00     0.297 HD
ENDBRANCH  15  17
ENDBRANCH   4  15
BRANCH   5  19
ATOM     19  O   UNL     1      -0.466   2.965   3.393  1.00  0.00    -0.507 OA
ATOM     20  H   UNL     1      -0.790   2.101   3.702  1.00  0.00     0.293 HD
ENDBRANCH   5  19
TORSDOF 4
ENDMDL
MODEL 3
REMARK VINA RESULT:    -3.277      4.148      6.498
REMARK INTER + INTRA:          -4.627
REMARK INTER:                  -3.815
REMARK INTRA:                  -0.813
REMARK UNBOUND:                -0.775
REMARK SMILES O=C(O)c1cc(-c2ccc(F)cc2F)ccc1O
REMARK SMILES IDX 6 1 5 2 15 3 4 4 17 5 16 6 7 7 13 8 12 9 8 10 10 11 9 12
REMARK SMILES IDX 14 13 11 14 2 15 1 16 3 17 18 19
REMARK H PARENT 3 18 18 20
ROOT
ATOM      1  C   UNL     1      -0.628   6.961   7.728  1.00  0.00    -0.014 A 
ATOM      2  C   UNL     1       0.258   8.034   7.810  1.00  0.00     0.028 A 
ATOM      3  C   UNL     1      -1.601   6.783   8.711  1.00  0.00     0.013 A 
ATOM      4  C   UNL     1       0.171   8.931   8.875  1.00  0.00     0.102 A 
ATOM      5  C   UNL     1      -0.803   8.754   9.858  1.00  0.00     0.130 A 
ATOM      6  C   UNL     1      -1.689   7.679   9.776  1.00  0.00     0.048 A 
ENDROOT
BRANCH   1   7
ATOM      7  C   UNL     1      -0.537   6.029   6.625  1.00  0.00     0.018 A 
ATOM      8  C   UNL     1      -1.652   5.782   5.823  1.00  0.00     0.133 A 
ATOM      9  C   UNL     1      -1.560   4.883   4.760  1.00  0.00     0.079 A 
ATOM     10  C   UNL     1       0.668   5.379   6.362  1.00  0.00     0.015 A 
ATOM     11  C   UNL     1      -0.355   4.232   4.499  1.00  0.00     0.126 A 
ATOM     12  C   UNL     1       0.759   4.481   5.300  1.00  0.00     0.040 A 
ATOM     13  F   UNL     1      -2.819   6.397   6.063  1.00  0.00    -0.206 F 
ATOM     14  F   UNL     1      -0.266   3.369   3.479  1.00  0.00    -0.207 F 
ENDBRANCH   1   7
BRANCH   4  15
ATOM     15  C   UNL     1       1.105  10.047   8.942  1.00  0.00     0.339 C 
ATOM     16  O   UNL     1       1.385  10.683   9.961  1.00  0.00    -0.246 OA
BRANCH  15  17
ATOM     17  O   UNL     1       1.662  10.330   7.733  1.00  0.00    -0.478 OA
ATOM     18  H   UNL     1       0.981  10.506   7.051  1.00  0.00     0.297 HD
ENDBRANCH  15  17
ENDBRANCH   4  15
BRANCH   5  19
ATOM     19  O   UNL     1      -0.905   9.619  10.906  1.00  0.00    -0.507 OA
ATOM     20  H   UNL     1      -0.252  10.331  10.795  1.00  0.00     0.293 HD
ENDBRANCH   5  19
TORSDOF 4
ENDMDL
MODEL 4
REMARK VINA RESULT:    -3.276      3.768      6.184
REMARK INTER + INTRA:          -4.625
REMARK INTER:                  -3.793
REMARK INTRA:                  -0.832
REMARK UNBOUND:                -0.775
REMARK SMILES O=C(O)c1cc(-c2ccc(F)cc2F)ccc1O
REMARK SMILES IDX 6 1 5 2 15 3 4 4 17 5 16 6 7 7 13 8 12 9 8 10 10 11 9 12
REMARK SMILES IDX 14 13 11 14 2 15 1 16 3 17 18 19
REMARK H PARENT 3 18 18 20
ROOT
ATOM      1  C   UNL     1      -0.749   6.810   7.855  1.00  0.00    -0.014 A 
ATOM      2  C   UNL     1      -1.669   6.762   8.901  1.00  0.00     0.028 A 
ATOM      3  C   UNL     1       0.197   7.834   7.804  1.00  0.00     0.013 A 
ATOM      4  C   UNL     1      -1.645   7.738   9.897  1.00  0.00     0.102 A 
ATOM      5  C   UNL     1      -0.699   8.762   9.846  1.00  0.00     0.130 A 
ATOM      6  C   UNL     1       0.222   8.810   8.799  1.00  0.00     0.048 A 
ENDROOT
BRANCH   1   7
ATOM      7  C   UNL     1      -0.774   5.798   6.820  1.00  0.00     0.018 A 
ATOM      8  C   UNL     1       0.364   5.035   6.558  1.00  0.00     0.133 A 
ATOM      9  C   UNL     1       0.335   4.061   5.560  1.00  0.00     0.079 A 
ATOM     10  C   UNL     1      -1.941   5.585   6.086  1.00  0.00     0.015 A 
ATOM     11  C   UNL     1      -0.831   3.849   4.825  1.00  0.00     0.126 A 
ATOM     12  C   UNL     1      -1.969   4.611   5.088  1.00  0.00     0.040 A 
ATOM     13  F   UNL     1       1.494   5.229   7.253  1.00  0.00    -0.206 F 
ATOM     14  F   UNL     1      -0.859   2.915   3.866  1.00  0.00    -0.207 F 
ENDBRANCH   1   7
BRANCH   4  15
ATOM     15  C   UNL     1      -2.615   7.670  10.981  1.00  0.00     0.339 C 
ATOM     16  O   UNL     1      -2.945   8.614  11.704  1.00  0.00    -0.246 OA
BRANCH  15  17
ATOM     17  O   UNL     1      -3.143   6.424  11.127  1.00  0.00    -0.478 OA
ATOM     18  H   UNL     1      -2.605   5.869  11.731  1.00  0.00     0.297 HD
ENDBRANCH  15  17
ENDBRANCH   4  15
BRANCH   5  19
ATOM     19  O   UNL     1      -0.658   9.725  10.810  1.00  0.00    -0.507 OA
ATOM     20  H   UNL     1      -0.915   9.333  11.662  1.00  0.00     0.293 HD
ENDBRANCH   5  19
TORSDOF 4
ENDMDL
MODEL 5
REMARK VINA RESULT:    -3.179      4.242      6.666
REMARK INTER + INTRA:          -4.512
REMARK INTER:                  -3.629
REMARK INTRA:                  -0.883
REMARK UNBOUND:                -0.775
REMARK SMILES O=C(O)c1cc(-c2ccc(F)cc2F)ccc1O
REMARK SMILES IDX 6 1 5 2 15 3 4 4 17 5 16 6 7 7 13 8 12 9 8 10 10 11 9 12
REMARK SMILES IDX 14 13 11 14 2 15 1 16 3 17 18 19
REMARK H PARENT 3 18 18 20
ROOT
ATOM      1  C   UNL     1      -0.703   6.894   7.792  1.00  0.00    -0.014 A 
ATOM      2  C   UNL     1       0.197   7.957   7.852  1.00  0.00     0.028 A 
ATOM      3  C   UNL     1      -1.677   6.749   8.779  1.00  0.00     0.013 A 
ATOM      4  C   UNL     1       0.124   8.876   8.899  1.00  0.00     0.102 A 
ATOM      5  C   UNL     1      -0.851   8.732   9.886  1.00  0.00     0.130 A 
ATOM      6  C   UNL     1      -1.752   7.667   9.826  1.00  0.00     0.048 A 
ENDROOT
BRANCH   1   7
ATOM      7  C   UNL     1      -0.626   5.939   6.707  1.00  0.00     0.018 A 
ATOM      8  C   UNL     1       0.531   5.180   6.522  1.00  0.00     0.133 A 
ATOM      9  C   UNL     1       0.601   4.261   5.475  1.00  0.00     0.079 A 
ATOM     10  C   UNL     1      -1.711   5.778   5.846  1.00  0.00     0.015 A 
ATOM     11  C   UNL     1      -0.484   4.101   4.614  1.00  0.00     0.126 A 
ATOM     12  C   UNL     1      -1.640   4.859   4.800  1.00  0.00     0.040 A 
ATOM     13  F   UNL     1       1.584   5.325   7.339  1.00  0.00    -0.206 F 
ATOM     14  F   UNL     1      -0.418   3.219   3.609  1.00  0.00    -0.207 F 
ENDBRANCH   1   7
BRANCH   4  15
ATOM     15  C   UNL     1       1.073   9.980   8.943  1.00  0.00     0.339 C 
ATOM     16  O   UNL     1       1.376  10.621   9.952  1.00  0.00    -0.246 OA
BRANCH  15  17
ATOM     17  O   UNL     1       1.615  10.246   7.723  1.00  0.00    -0.478 OA
ATOM     18  H   UNL     1       2.549   9.953   7.667  1.00  0.00     0.297 HD
ENDBRANCH  15  17
ENDBRANCH   4  15
BRANCH   5  19
ATOM     19  O   UNL     1      -0.941   9.619  10.917  1.00  0.00    -0.507 OA
ATOM     20  H   UNL     1      -1.718   9.399  11.458  1.00  0.00     0.293 HD
ENDBRANCH   5  19
TORSDOF 4
ENDMDL
MODEL 6
REMARK VINA RESULT:    -3.153     13.396     14.205
REMARK INTER + INTRA:          -4.481
REMARK INTER:                  -3.823
REMARK INTRA:                  -0.658
REMARK UNBOUND:                -0.775
REMARK SMILES O=C(O)c1cc(-c2ccc(F)cc2F)ccc1O
REMARK SMILES IDX 6 1 5 2 15 3 4 4 17 5 16 6 7 7 13 8 12 9 8 10 10 11 9 12
REMARK SMILES IDX 14 13 11 14 2 15 1 16 3 17 18 19
REMARK H PARENT 3 18 18 20
ROOT
ATOM      1  C   UNL     1      -1.341  14.657  16.763  1.00  0.00    -0.014 A 
ATOM      2  C   UNL     1      -2.466  15.474  16.647  1.00  0.00     0.028 A 
ATOM      3  C   UNL     1      -1.480  13.334  17.180  1.00  0.00     0.013 A 
ATOM      4  C   UNL     1      -3.730  14.967  16.949  1.00  0.00     0.102 A 
ATOM      5  C   UNL     1      -3.869  13.643  17.365  1.00  0.00     0.130 A 
ATOM      6  C   UNL     1      -2.744  12.826  17.481  1.00  0.00     0.048 A 
ENDROOT
BRANCH   1   7
ATOM      7  C   UNL     1      -0.029  15.183  16.452  1.00  0.00     0.018 A 
ATOM      8  C   UNL     1       0.190  15.850  15.246  1.00  0.00     0.133 A 
ATOM      9  C   UNL     1       1.457  16.355  14.950  1.00  0.00     0.079 A 
ATOM     10  C   UNL     1       1.016  15.022  17.360  1.00  0.00     0.015 A 
ATOM     11  C   UNL     1       2.502  16.193  15.858  1.00  0.00     0.126 A 
ATOM     12  C   UNL     1       2.281  15.527  17.064  1.00  0.00     0.040 A 
ATOM     13  F   UNL     1      -0.803  16.011  14.361  1.00  0.00    -0.206 F 
ATOM     14  F   UNL     1       3.718  16.678  15.575  1.00  0.00    -0.207 F 
ENDBRANCH   1   7
BRANCH   4  15
ATOM     15  C   UNL     1      -4.892  15.836  16.821  1.00  0.00     0.339 C 
ATOM     16  O   UNL     1      -5.742  16.024  17.695  1.00  0.00    -0.246 OA
BRANCH  15  17
ATOM     17  O   UNL     1      -4.954  16.444  15.605  1.00  0.00    -0.478 OA
ATOM     18  H   UNL     1      -4.750  15.821  14.876  1.00  0.00     0.297 HD
ENDBRANCH  15  17
ENDBRANCH   4  15
BRANCH   5  19
ATOM     19  O   UNL     1      -5.096  13.128  17.664  1.00  0.00    -0.507 OA
ATOM     20  H   UNL     1      -5.343  13.401  18.565  1.00  0.00     0.293 HD
ENDBRANCH   5  19
TORSDOF 4
ENDMDL
MODEL 7
REMARK VINA RESULT:    -2.741      1.422      2.718
REMARK INTER + INTRA:          -3.997
REMARK INTER:                  -3.170
REMARK INTRA:                  -0.827
REMARK UNBOUND:                -0.775
REMARK SMILES O=C(O)c1cc(-c2ccc(F)cc2F)ccc1O
REMARK SMILES IDX 6 1 5 2 15 3 4 4 17 5 16 6 7 7 13 8 12 9 8 10 10 11 9 12
REMARK SMILES IDX 14 13 11 14 2 15 1 16 3 17 18 19
REMARK H PARENT 3 18 18 20
ROOT
ATOM      1  C   UNL     1      -1.413   5.749   6.911  1.00  0.00    -0.014 A 
ATOM      2  C   UNL     1      -0.629   5.142   5.932  1.00  0.00     0.028 A 
ATOM      3  C   UNL     1      -2.738   5.351   7.090  1.00  0.00     0.013 A 
ATOM      4  C   UNL     1      -1.169   4.136   5.130  1.00  0.00     0.102 A 
ATOM      5  C   UNL     1      -2.493   3.738   5.308  1.00  0.00     0.130 A 
ATOM      6  C   UNL     1      -3.279   4.346   6.289  1.00  0.00     0.048 A 
ENDROOT
BRANCH   1   7
ATOM      7  C   UNL     1      -0.854   6.794   7.743  1.00  0.00     0.018 A 
ATOM      8  C   UNL     1       0.311   6.559   8.473  1.00  0.00     0.133 A 
ATOM      9  C   UNL     1       0.846   7.569   9.274  1.00  0.00     0.079 A 
ATOM     10  C   UNL     1      -1.483   8.037   7.811  1.00  0.00     0.015 A 
ATOM     11  C   UNL     1       0.217   8.811   9.343  1.00  0.00     0.126 A 
ATOM     12  C   UNL     1      -0.947   9.045   8.611  1.00  0.00     0.040 A 
ATOM     13  F   UNL     1       0.925   5.369   8.421  1.00  0.00    -0.206 F 
ATOM     14  F   UNL     1       0.731   9.781  10.111  1.00  0.00    -0.207 F 
ENDBRANCH   1   7
BRANCH   4  15
ATOM     15  C   UNL     1      -0.333   3.514   4.112  1.00  0.00     0.339 C 
ATOM     16  O   UNL     1      -0.652   2.542   3.423  1.00  0.00    -0.246 OA
BRANCH  15  17
ATOM     17  O   UNL     1       0.876   4.127   3.989  1.00  0.00    -0.478 OA
ATOM     18  H   UNL     1       1.612   3.480   3.964  1.00  0.00     0.297 HD
ENDBRANCH  15  17
ENDBRANCH   4  15
BRANCH   5  19
ATOM     19  O   UNL     1      -3.040   2.757   4.536  1.00  0.00    -0.507 OA
ATOM     20  H   UNL     1      -2.367   2.074   4.368  1.00  0.00     0.293 HD
ENDBRANCH   5  19
TORSDOF 4
ENDMDL
MODEL 8
REMARK VINA RESULT:    -2.695      1.298      1.799
REMARK INTER + INTRA:          -3.943
REMARK INTER:                  -3.120
REMARK INTRA:                  -0.822
REMARK UNBOUND:                -0.775
REMARK SMILES O=C(O)c1cc(-c2ccc(F)cc2F)ccc1O
REMARK SMILES IDX 6 1 5 2 15 3 4 4 17 5 16 6 7 7 13 8 12 9 8 10 10 11 9 12
REMARK SMILES IDX 14 13 11 14 2 15 1 16 3 17 18 19
REMARK H PARENT 3 18 18 20
ROOT
ATOM      1  C   UNL     1       0.036   6.117   6.630  1.00  0.00    -0.014 A 
ATOM      2  C   UNL     1      -0.689   5.182   5.893  1.00  0.00     0.028 A 
ATOM      3  C   UNL     1       1.371   6.371   6.314  1.00  0.00     0.013 A 
ATOM      4  C   UNL     1      -0.080   4.499   4.840  1.00  0.00     0.102 A 
ATOM      5  C   UNL     1       1.255   4.753   4.524  1.00  0.00     0.130 A 
ATOM      6  C   UNL     1       1.980   5.690   5.262  1.00  0.00     0.048 A 
ENDROOT
BRANCH   1   7
ATOM      7  C   UNL     1      -0.595   6.825   7.724  1.00  0.00     0.018 A 
ATOM      8  C   UNL     1      -1.775   7.537   7.509  1.00  0.00     0.133 A 
ATOM      9  C   UNL     1      -2.380   8.217   8.566  1.00  0.00     0.079 A 
ATOM     10  C   UNL     1      -0.021   6.793   8.994  1.00  0.00     0.015 A 
ATOM     11  C   UNL     1      -1.805   8.186   9.836  1.00  0.00     0.126 A 
ATOM     12  C   UNL     1      -0.626   7.473  10.050  1.00  0.00     0.040 A 
ATOM     13  F   UNL     1      -2.339   7.580   6.293  1.00  0.00    -0.206 F 
ATOM     14  F   UNL     1      -2.385   8.839  10.851  1.00  0.00    -0.207 F 
ENDBRANCH   1   7
BRANCH   4  15
ATOM     15  C   UNL     1      -0.854   3.526   4.082  1.00  0.00     0.339 C 
ATOM     16  O   UNL     1      -0.478   2.959   3.053  1.00  0.00    -0.246 OA
BRANCH  15  17
ATOM     17  O   UNL     1      -2.075   3.291   4.636  1.00  0.00    -0.478 OA
ATOM     18  H   UNL     1      -2.801   3.436   3.993  1.00  0.00     0.297 HD
ENDBRANCH  15  17
ENDBRANCH   4  15
BRANCH   5  19
ATOM     19  O   UNL     1       1.868   4.097   3.498  1.00  0.00    -0.507 OA
ATOM     20  H   UNL     1       1.591   3.165   3.507  1.00  0.00     0.293 HD
ENDBRANCH   5  19
TORSDOF 4
ENDMDL
MODEL 9
REMARK VINA RESULT:    -2.418      1.501      2.575
REMARK INTER + INTRA:          -3.617
REMARK INTER:                  -3.205
REMARK INTRA:                  -0.413
REMARK UNBOUND:                -0.775
REMARK SMILES O=C(O)c1cc(-c2ccc(F)cc2F)ccc1O
REMARK SMILES IDX 6 1 5 2 15 3 4 4 17 5 16 6 7 7 13 8 12 9 8 10 10 11 9 12
REMARK SMILES IDX 14 13 11 14 2 15 1 16 3 17 18 19
REMARK H PARENT 3 18 18 20
ROOT
ATOM      1  C   UNL     1      -1.086   6.208   6.917  1.00  0.00    -0.014 A 
ATOM      2  C   UNL     1      -0.340   5.572   5.926  1.00  0.00     0.028 A 
ATOM      3  C   UNL     1      -2.389   5.790   7.186  1.00  0.00     0.013 A 
ATOM      4  C   UNL     1      -0.896   4.517   5.203  1.00  0.00     0.102 A 
ATOM      5  C   UNL     1      -2.200   4.098   5.472  1.00  0.00     0.130 A 
ATOM      6  C   UNL     1      -2.946   4.735   6.464  1.00  0.00     0.048 A 
ENDROOT
BRANCH   1   7
ATOM      7  C   UNL     1      -0.510   7.304   7.667  1.00  0.00     0.018 A 
ATOM      8  C   UNL     1      -0.962   7.584   8.957  1.00  0.00     0.133 A 
ATOM      9  C   UNL     1      -0.404   8.642   9.676  1.00  0.00     0.079 A 
ATOM     10  C   UNL     1       0.500   8.079   7.098  1.00  0.00     0.015 A 
ATOM     11  C   UNL     1       0.605   9.417   9.107  1.00  0.00     0.126 A 
ATOM     12  C   UNL     1       1.057   9.135   7.817  1.00  0.00     0.040 A 
ATOM     13  F   UNL     1      -1.934   6.851   9.518  1.00  0.00    -0.206 F 
ATOM     14  F   UNL     1       1.141  10.432   9.796  1.00  0.00    -0.207 F 
ENDBRANCH   1   7
BRANCH   4  15
ATOM     15  C   UNL     1      -0.100   3.865   4.172  1.00  0.00     0.339 C 
ATOM     16  O   UNL     1      -0.480   2.931   3.461  1.00  0.00    -0.246 OA
BRANCH  15  17
ATOM     17  O   UNL     1       1.145   4.403   4.061  1.00  0.00    -0.478 OA
ATOM     18  H   UNL     1       1.779   3.773   3.659  1.00  0.00     0.297 HD
ENDBRANCH  15  17
ENDBRANCH   4  15
BRANCH   5  19
ATOM     19  O   UNL     1      -2.761   3.069   4.777  1.00  0.00    -0.507 OA
ATOM     20  H   UNL     1      -3.500   2.703   5.294  1.00  0.00     0.293 HD
ENDBRANCH   5  19
TORSDOF 4
ENDMDL
