MODEL 1
REMARK VINA RESULT:    -3.715      0.000      0.000
REMARK INTER + INTRA:          -4.723
REMARK INTER:                  -4.583
REMARK INTRA:                  -0.140
REMARK UNBOUND:                -0.140
REMARK SMILES Cc1ccc(C(=O)c2cc(O)c(O)c([N+](=O)[O-])c2)cc1
REMARK SMILES IDX 8 1 18 2 9 3 14 4 10 5 12 6 6 7 7 8 5 9 4 10 19 11 3 12
REMARK SMILES IDX 20 13 2 14 1 15 15 16 17 17 16 18 11 19 13 21
REMARK H PARENT 11 20 13 22
ROOT
ATOM      1  C   UNL     1      -0.285   6.170   6.341  1.00  0.00     0.033 A 
ATOM      2  C   UNL     1      -1.519   5.616   6.093  1.00  0.00     0.102 A 
ATOM      3  C   UNL     1       0.860   5.759   5.701  1.00  0.00     0.063 A 
ATOM      4  C   UNL     1      -1.614   4.595   5.148  1.00  0.00     0.315 A 
ATOM      5  C   UNL     1       0.766   4.737   4.756  1.00  0.00     0.165 A 
ATOM      6  C   UNL     1      -0.472   4.155   4.479  1.00  0.00     0.237 A 
ENDROOT
BRANCH   1   7
ATOM      7  C   UNL     1      -0.183   7.264   7.353  1.00  0.00     0.193 C 
ATOM      8  O   UNL     1       0.646   8.162   7.139  1.00  0.00    -0.289 OA
BRANCH   7   9
ATOM      9  C   UNL     1      -1.010   7.300   8.549  1.00  0.00     0.023 A 
ATOM     10  C   UNL     1      -1.109   8.475   9.294  1.00  0.00     0.012 A 
ATOM     11  C   UNL     1      -1.705   6.159   8.951  1.00  0.00     0.012 A 
ATOM     12  C   UNL     1      -1.903   8.509  10.440  1.00  0.00     0.004 A 
ATOM     13  C   UNL     1      -2.499   6.193  10.097  1.00  0.00     0.004 A 
ATOM     14  C   UNL     1      -2.598   7.368  10.842  1.00  0.00    -0.051 A 
ATOM     15  C   UNL     1      -3.445   7.405  12.069  1.00  0.00     0.044 C 
ENDBRANCH   7   9
ENDBRANCH   1   7
BRANCH   4  16
ATOM     16  N   UNL     1      -2.883   4.013   4.879  1.00  0.00     0.066 N 
ATOM     17  O   UNL     1      -3.856   4.767   4.635  1.00  0.00    -0.258 OA
ATOM     18  O   UNL     1      -2.993   2.765   4.894  1.00  0.00    -0.258 OA
ENDBRANCH   4  16
BRANCH   5  19
ATOM     19  O   UNL     1       1.890   4.318   4.111  1.00  0.00    -0.504 OA
ATOM     20  H   UNL     1       2.421   3.765   4.707  1.00  0.00     0.293 HD
ENDBRANCH   5  19
BRANCH   6  21
ATOM     21  O   UNL     1      -0.551   3.156   3.553  1.00  0.00    -0.500 OA
ATOM     22  H   UNL     1       0.235   3.174   2.986  1.00  0.00     0.294 HD
ENDBRANCH   6  21
TORSDOF 5
ENDMDL
MODEL 2
REMARK VINA RESULT:    -3.702      1.988      3.794
REMARK INTER + INTRA:          -4.707
REMARK INTER:                  -4.528
REMARK INTRA:                  -0.179
REMARK UNBOUND:                -0.140
REMARK SMILES Cc1ccc(C(=O)c2cc(O)c(O)c([N+](=O)[O-])c2)cc1
REMARK SMILES IDX 8 1 18 2 9 3 14 4 10 5 12 6 6 7 7 8 5 9 4 10 19 11 3 12
REMARK SMILES IDX 20 13 2 14 1 15 15 16 17 17 16 18 11 19 13 21
REMARK H PARENT 11 20 13 22
ROOT
ATOM      1  C   UNL     1      -1.054   5.507   6.945  1.00  0.00     0.033 A 
ATOM      2  C   UNL     1       0.209   5.355   6.421  1.00  0.00     0.102 A 
ATOM      3  C   UNL     1      -2.158   4.874   6.426  1.00  0.00     0.063 A 
ATOM      4  C   UNL     1       0.377   4.520   5.316  1.00  0.00     0.315 A 
ATOM      5  C   UNL     1      -1.991   4.040   5.320  1.00  0.00     0.165 A 
ATOM      6  C   UNL     1      -0.723   3.862   4.765  1.00  0.00     0.237 A 
ENDROOT
BRANCH   1   7
ATOM      7  C   UNL     1      -1.234   6.401   8.128  1.00  0.00     0.193 C 
ATOM      8  O   UNL     1      -2.092   6.074   8.963  1.00  0.00    -0.289 OA
BRANCH   7   9
ATOM      9  C   UNL     1      -0.449   7.610   8.319  1.00  0.00     0.023 A 
ATOM     10  C   UNL     1      -0.393   8.215   9.575  1.00  0.00     0.012 A 
ATOM     11  C   UNL     1       0.248   8.165   7.246  1.00  0.00     0.012 A 
ATOM     12  C   UNL     1       0.360   9.374   9.757  1.00  0.00     0.004 A 
ATOM     13  C   UNL     1       1.002   9.325   7.428  1.00  0.00     0.004 A 
ATOM     14  C   UNL     1       1.058   9.930   8.684  1.00  0.00    -0.051 A 
ATOM     15  C   UNL     1       1.862  11.170   8.879  1.00  0.00     0.044 C 
ENDBRANCH   7   9
ENDBRANCH   1   7
BRANCH   4  16
ATOM     16  N   UNL     1       1.676   4.353   4.764  1.00  0.00     0.066 N 
ATOM     17  O   UNL     1       2.638   4.121   5.537  1.00  0.00    -0.258 OA
ATOM     18  O   UNL     1       1.823   4.440   3.523  1.00  0.00    -0.258 OA
ENDBRANCH   4  16
BRANCH   5  19
ATOM     19  O   UNL     1      -3.074   3.403   4.793  1.00  0.00    -0.504 OA
ATOM     20  H   UNL     1      -3.718   3.219   5.496  1.00  0.00     0.293 HD
ENDBRANCH   5  19
BRANCH   6  21
ATOM     21  O   UNL     1      -0.571   3.044   3.684  1.00  0.00    -0.500 OA
ATOM     22  H   UNL     1      -0.445   3.578   2.885  1.00  0.00     0.294 HD
ENDBRANCH   6  21
TORSDOF 5
ENDMDL
MODEL 3
REMARK VINA RESULT:    -2.996      1.791      2.859
REMARK INTER + INTRA:          -3.836
REMARK INTER:                  -3.470
REMARK INTRA:                  -0.367
REMARK UNBOUND:                -0.140
REMARK SMILES Cc1ccc(C(=O)c2cc(O)c(O)c([N+](=O)[O-])c2)cc1
REMARK SMILES IDX 8 1 18 2 9 3 14 4 10 5 12 6 6 7 7 8 5 9 4 10 19 11 3 12
REMARK SMILES IDX 20 13 2 14 1 15 15 16 17 17 16 18 11 19 13 21
REMARK H PARENT 11 20 13 22
ROOT
ATOM      1  C   UNL     1      -0.866   5.700   7.132  1.00  0.00     0.033 A 
ATOM      2  C   UNL     1      -2.029   5.222   6.574  1.00  0.00     0.102 A 
ATOM      3  C   UNL     1       0.381   5.365   6.661  1.00  0.00     0.063 A 
ATOM      4  C   UNL     1      -1.938   4.362   5.480  1.00  0.00     0.315 A 
ATOM      5  C   UNL     1       0.472   4.504   5.567  1.00  0.00     0.165 A 
ATOM      6  C   UNL     1      -0.689   4.002   4.976  1.00  0.00     0.237 A 
ENDROOT
BRANCH   1   7
ATOM      7  C   UNL     1      -0.962   6.621   8.305  1.00  0.00     0.193 C 
ATOM      8  O   UNL     1      -1.729   6.295   9.223  1.00  0.00    -0.289 OA
BRANCH   7   9
ATOM      9  C   UNL     1      -0.199   7.856   8.391  1.00  0.00     0.023 A 
ATOM     10  C   UNL     1      -0.072   8.514   9.614  1.00  0.00     0.012 A 
ATOM     11  C   UNL     1       0.407   8.382   7.250  1.00  0.00     0.012 A 
ATOM     12  C   UNL     1       0.660   9.698   9.696  1.00  0.00     0.004 A 
ATOM     13  C   UNL     1       1.140   9.567   7.332  1.00  0.00     0.004 A 
ATOM     14  C   UNL     1       1.267  10.225   8.555  1.00  0.00    -0.051 A 
ATOM     15  C   UNL     1       2.048  11.491   8.643  1.00  0.00     0.044 C 
ENDBRANCH   7   9
ENDBRANCH   1   7
BRANCH   4  16
ATOM     16  N   UNL     1      -3.132   3.860   4.891  1.00  0.00     0.066 N 
ATOM     17  O   UNL     1      -4.007   4.674   4.508  1.00  0.00    -0.258 OA
ATOM     18  O   UNL     1      -3.274   2.621   4.772  1.00  0.00    -0.258 OA
ENDBRANCH   4  16
BRANCH   5  19
ATOM     19  O   UNL     1       1.700   4.162   5.085  1.00  0.00    -0.504 OA
ATOM     20  H   UNL     1       2.182   3.652   5.756  1.00  0.00     0.293 HD
ENDBRANCH   5  19
BRANCH   6  21
ATOM     21  O   UNL     1      -0.587   3.161   3.906  1.00  0.00    -0.500 OA
ATOM     22  H   UNL     1      -0.992   2.307   4.123  1.00  0.00     0.294 HD
ENDBRANCH   6  21
TORSDOF 5
ENDMDL
MODEL 4
REMARK VINA RESULT:    -2.940      1.232      2.928
REMARK INTER + INTRA:          -3.767
REMARK INTER:                  -3.322
REMARK INTRA:                  -0.445
REMARK UNBOUND:                -0.140
REMARK SMILES Cc1ccc(C(=O)c2cc(O)c(O)c([N+](=O)[O-])c2)cc1
REMARK SMILES IDX 8 1 18 2 9 3 14 4 10 5 12 6 6 7 7 8 5 9 4 10 19 11 3 12
REMARK SMILES IDX 20 13 2 14 1 15 15 16 17 17 16 18 11 19 13 21
REMARK H PARENT 11 20 13 22
ROOT
ATOM      1  C   UNL     1      -0.509   6.347   6.645  1.00  0.00     0.033 A 
ATOM      2  C   UNL     1       0.685   5.863   6.164  1.00  0.00     0.102 A 
ATOM      3  C   UNL     1      -1.730   5.893   6.206  1.00  0.00     0.063 A 
ATOM      4  C   UNL     1       0.655   4.867   5.188  1.00  0.00     0.315 A 
ATOM      5  C   UNL     1      -1.760   4.897   5.230  1.00  0.00     0.165 A 
ATOM      6  C   UNL     1      -0.566   4.383   4.721  1.00  0.00     0.237 A 
ENDROOT
BRANCH   1   7
ATOM      7  C   UNL     1      -0.478   7.415   7.690  1.00  0.00     0.193 C 
ATOM      8  O   UNL     1       0.287   8.372   7.503  1.00  0.00    -0.289 OA
BRANCH   7   9
ATOM      9  C   UNL     1      -1.302   7.358   8.887  1.00  0.00     0.023 A 
ATOM     10  C   UNL     1      -1.811   6.135   9.326  1.00  0.00     0.012 A 
ATOM     11  C   UNL     1      -1.582   8.525   9.597  1.00  0.00     0.012 A 
ATOM     12  C   UNL     1      -2.600   6.081  10.475  1.00  0.00     0.004 A 
ATOM     13  C   UNL     1      -2.372   8.471  10.746  1.00  0.00     0.004 A 
ATOM     14  C   UNL     1      -2.881   7.249  11.185  1.00  0.00    -0.051 A 
ATOM     15  C   UNL     1      -3.726   7.191  12.412  1.00  0.00     0.044 C 
ENDBRANCH   7   9
ENDBRANCH   1   7
BRANCH   4  16
ATOM     16  N   UNL     1       1.882   4.356   4.681  1.00  0.00     0.066 N 
ATOM     17  O   UNL     1       2.729   3.903   5.488  1.00  0.00    -0.258 OA
ATOM     18  O   UNL     1       2.080   4.372   3.444  1.00  0.00    -0.258 OA
ENDBRANCH   4  16
BRANCH   5  19
ATOM     19  O   UNL     1      -2.961   4.434   4.783  1.00  0.00    -0.504 OA
ATOM     20  H   UNL     1      -3.593   4.404   5.520  1.00  0.00     0.293 HD
ENDBRANCH   5  19
BRANCH   6  21
ATOM     21  O   UNL     1      -0.608   3.409   3.766  1.00  0.00    -0.500 OA
ATOM     22  H   UNL     1      -1.231   3.663   3.068  1.00  0.00     0.294 HD
ENDBRANCH   6  21
TORSDOF 5
ENDMDL
MODEL 5
REMARK VINA RESULT:    -1.260      2.225      3.840
REMARK INTER + INTRA:          -1.695
REMARK INTER:                  -0.853
REMARK INTRA:                  -0.841
REMARK UNBOUND:                -0.140
REMARK SMILES Cc1ccc(C(=O)c2cc(O)c(O)c([N+](=O)[O-])c2)cc1
REMARK SMILES IDX 8 1 18 2 9 3 14 4 10 5 12 6 6 7 7 8 5 9 4 10 19 11 3 12
REMARK SMILES IDX 20 13 2 14 1 15 15 16 17 17 16 18 11 19 13 21
REMARK H PARENT 11 20 13 22
ROOT
ATOM      1  C   UNL     1      -0.803   6.334   7.177  1.00  0.00     0.033 A 
ATOM      2  C   UNL     1      -0.738   5.095   6.583  1.00  0.00     0.102 A 
ATOM      3  C   UNL     1      -1.818   7.227   6.931  1.00  0.00     0.063 A 
ATOM      4  C   UNL     1      -1.747   4.728   5.693  1.00  0.00     0.315 A 
ATOM      5  C   UNL     1      -2.828   6.861   6.040  1.00  0.00     0.165 A 
ATOM      6  C   UNL     1      -2.792   5.611   5.421  1.00  0.00     0.237 A 
ENDROOT
BRANCH   1   7
ATOM      7  C   UNL     1       0.278   6.726   8.131  1.00  0.00     0.193 C 
ATOM      8  O   UNL     1       0.838   5.817   8.762  1.00  0.00    -0.289 OA
BRANCH   7   9
ATOM      9  C   UNL     1       0.677   8.110   8.330  1.00  0.00     0.023 A 
ATOM     10  C   UNL     1       1.256   8.827   7.282  1.00  0.00     0.012 A 
ATOM     11  C   UNL     1       0.481   8.722   9.568  1.00  0.00     0.012 A 
ATOM     12  C   UNL     1       1.639  10.154   7.473  1.00  0.00     0.004 A 
ATOM     13  C   UNL     1       0.864  10.050   9.759  1.00  0.00     0.004 A 
ATOM     14  C   UNL     1       1.443  10.767   8.711  1.00  0.00    -0.051 A 
ATOM     15  C   UNL     1       1.854  12.185   8.915  1.00  0.00     0.044 C 
ENDBRANCH   7   9
ENDBRANCH   1   7
BRANCH   4  16
ATOM     16  N   UNL     1      -1.694   3.451   5.071  1.00  0.00     0.066 N 
ATOM     17  O   UNL     1      -2.751   2.782   4.969  1.00  0.00    -0.258 OA
ATOM     18  O   UNL     1      -0.594   3.030   4.643  1.00  0.00    -0.258 OA
ENDBRANCH   4  16
BRANCH   5  19
ATOM     19  O   UNL     1      -3.843   7.733   5.785  1.00  0.00    -0.504 OA
ATOM     20  H   UNL     1      -4.607   7.515   6.343  1.00  0.00     0.293 HD
ENDBRANCH   5  19
BRANCH   6  21
ATOM     21  O   UNL     1      -3.786   5.264   4.552  1.00  0.00    -0.500 OA
ATOM     22  H   UNL     1      -4.278   4.506   4.905  1.00  0.00     0.294 HD
ENDBRANCH   6  21
TORSDOF 5
ENDMDL
MODEL 6
REMARK VINA RESULT:    -0.996      3.265      6.588
REMARK INTER + INTRA:          -1.369
REMARK INTER:                  -1.144
REMARK INTRA:                  -0.225
REMARK UNBOUND:                -0.140
REMARK SMILES Cc1ccc(C(=O)c2cc(O)c(O)c([N+](=O)[O-])c2)cc1
REMARK SMILES IDX 8 1 18 2 9 3 14 4 10 5 12 6 6 7 7 8 5 9 4 10 19 11 3 12
REMARK SMILES IDX 20 13 2 14 1 15 15 16 17 17 16 18 11 19 13 21
REMARK H PARENT 11 20 13 22
ROOT
ATOM      1  C   UNL     1      -0.146   7.629   7.343  1.00  0.00     0.033 A 
ATOM      2  C   UNL     1       0.674   8.704   7.594  1.00  0.00     0.102 A 
ATOM      3  C   UNL     1      -1.107   7.201   8.228  1.00  0.00     0.063 A 
ATOM      4  C   UNL     1       0.524   9.391   8.798  1.00  0.00     0.315 A 
ATOM      5  C   UNL     1      -1.257   7.888   9.433  1.00  0.00     0.165 A 
ATOM      6  C   UNL     1      -0.441   8.984   9.718  1.00  0.00     0.237 A 
ENDROOT
BRANCH   1   7
ATOM      7  C   UNL     1       0.014   6.893   6.053  1.00  0.00     0.193 C 
ATOM      8  O   UNL     1       0.876   7.309   5.264  1.00  0.00    -0.289 OA
BRANCH   7   9
ATOM      9  C   UNL     1      -0.793   5.733   5.711  1.00  0.00     0.023 A 
ATOM     10  C   UNL     1      -0.177   4.546   5.314  1.00  0.00     0.012 A 
ATOM     11  C   UNL     1      -2.184   5.807   5.781  1.00  0.00     0.012 A 
ATOM     12  C   UNL     1      -0.952   3.434   4.986  1.00  0.00     0.004 A 
ATOM     13  C   UNL     1      -2.960   4.694   5.453  1.00  0.00     0.004 A 
ATOM     14  C   UNL     1      -2.344   3.507   5.056  1.00  0.00    -0.051 A 
ATOM     15  C   UNL     1      -3.171   2.318   4.705  1.00  0.00     0.044 C 
ENDBRANCH   7   9
ENDBRANCH   1   7
BRANCH   4  16
ATOM     16  N   UNL     1       1.365  10.505   9.071  1.00  0.00     0.066 N 
ATOM     17  O   UNL     1       2.001  11.031   8.126  1.00  0.00    -0.258 OA
ATOM     18  O   UNL     1       1.445  10.929  10.247  1.00  0.00    -0.258 OA
ENDBRANCH   4  16
BRANCH   5  19
ATOM     19  O   UNL     1      -2.205   7.479  10.322  1.00  0.00    -0.504 OA
ATOM     20  H   UNL     1      -2.271   6.510  10.304  1.00  0.00     0.293 HD
ENDBRANCH   5  19
BRANCH   6  21
ATOM     21  O   UNL     1      -0.598   9.648  10.900  1.00  0.00    -0.500 OA
ATOM     22  H   UNL     1      -1.507   9.979  10.970  1.00  0.00     0.294 HD
ENDBRANCH   6  21
TORSDOF 5
ENDMDL
MODEL 7
REMARK VINA RESULT:    -0.944      3.067      6.503
REMARK INTER + INTRA:          -1.305
REMARK INTER:                  -1.057
REMARK INTRA:                  -0.248
REMARK UNBOUND:                -0.140
REMARK SMILES Cc1ccc(C(=O)c2cc(O)c(O)c([N+](=O)[O-])c2)cc1
REMARK SMILES IDX 8 1 18 2 9 3 14 4 10 5 12 6 6 7 7 8 5 9 4 10 19 11 3 12
REMARK SMILES IDX 20 13 2 14 1 15 15 16 17 17 16 18 11 19 13 21
REMARK H PARENT 11 20 13 22
ROOT
ATOM      1  C   UNL     1      -1.284   6.307   8.492  1.00  0.00     0.033 A 
ATOM      2  C   UNL     1      -2.157   6.426   9.549  1.00  0.00     0.102 A 
ATOM      3  C   UNL     1      -0.349   7.266   8.184  1.00  0.00     0.063 A 
ATOM      4  C   UNL     1      -2.089   7.570  10.343  1.00  0.00     0.315 A 
ATOM      5  C   UNL     1      -0.282   8.411   8.978  1.00  0.00     0.165 A 
ATOM      6  C   UNL     1      -1.152   8.563  10.059  1.00  0.00     0.237 A 
ENDROOT
BRANCH   1   7
ATOM      7  C   UNL     1      -1.356   5.081   7.640  1.00  0.00     0.193 C 
ATOM      8  O   UNL     1      -2.180   4.212   7.962  1.00  0.00    -0.289 OA
BRANCH   7   9
ATOM      9  C   UNL     1      -0.507   4.890   6.475  1.00  0.00     0.023 A 
ATOM     10  C   UNL     1       0.879   4.986   6.599  1.00  0.00     0.012 A 
ATOM     11  C   UNL     1      -1.078   4.610   5.234  1.00  0.00     0.012 A 
ATOM     12  C   UNL     1       1.693   4.802   5.482  1.00  0.00     0.004 A 
ATOM     13  C   UNL     1      -0.264   4.426   4.116  1.00  0.00     0.004 A 
ATOM     14  C   UNL     1       1.122   4.522   4.240  1.00  0.00    -0.051 A 
ATOM     15  C   UNL     1       1.993   4.327   3.046  1.00  0.00     0.044 C 
ENDBRANCH   7   9
ENDBRANCH   1   7
BRANCH   4  16
ATOM     16  N   UNL     1      -2.984   7.707  11.440  1.00  0.00     0.066 N 
ATOM     17  O   UNL     1      -3.111   8.832  11.981  1.00  0.00    -0.258 OA
ATOM     18  O   UNL     1      -3.620   6.701  11.832  1.00  0.00    -0.258 OA
ENDBRANCH   4  16
BRANCH   5  19
ATOM     19  O   UNL     1       0.639   9.373   8.689  1.00  0.00    -0.504 OA
ATOM     20  H   UNL     1       1.331   9.000   8.118  1.00  0.00     0.293 HD
ENDBRANCH   5  19
BRANCH   6  21
ATOM     21  O   UNL     1      -1.076   9.687  10.829  1.00  0.00    -0.500 OA
ATOM     22  H   UNL     1      -0.703   9.463  11.696  1.00  0.00     0.294 HD
ENDBRANCH   6  21
TORSDOF 5
ENDMDL
MODEL 8
REMARK VINA RESULT:    -0.870      1.846      2.905
REMARK INTER + INTRA:          -1.213
REMARK INTER:                  -0.669
REMARK INTRA:                  -0.545
REMARK UNBOUND:                -0.140
REMARK SMILES Cc1ccc(C(=O)c2cc(O)c(O)c([N+](=O)[O-])c2)cc1
REMARK SMILES IDX 8 1 18 2 9 3 14 4 10 5 12 6 6 7 7 8 5 9 4 10 19 11 3 12
REMARK SMILES IDX 20 13 2 14 1 15 15 16 17 17 16 18 11 19 13 21
REMARK H PARENT 11 20 13 22
ROOT
ATOM      1  C   UNL     1      -0.661   6.838   8.052  1.00  0.00     0.033 A 
ATOM      2  C   UNL     1      -0.774   6.425   6.745  1.00  0.00     0.102 A 
ATOM      3  C   UNL     1       0.349   6.415   8.884  1.00  0.00     0.063 A 
ATOM      4  C   UNL     1       0.178   5.539   6.241  1.00  0.00     0.315 A 
ATOM      5  C   UNL     1       1.301   5.528   8.380  1.00  0.00     0.165 A 
ATOM      6  C   UNL     1       1.215   5.090   7.057  1.00  0.00     0.237 A 
ENDROOT
BRANCH   1   7
ATOM      7  C   UNL     1      -1.681   7.787   8.593  1.00  0.00     0.193 C 
ATOM      8  O   UNL     1      -2.062   8.699   7.844  1.00  0.00    -0.289 OA
BRANCH   7   9
ATOM      9  C   UNL     1      -2.221   7.668   9.937  1.00  0.00     0.023 A 
ATOM     10  C   UNL     1      -2.583   8.813  10.647  1.00  0.00     0.012 A 
ATOM     11  C   UNL     1      -2.378   6.409  10.517  1.00  0.00     0.012 A 
ATOM     12  C   UNL     1      -3.101   8.698  11.937  1.00  0.00     0.004 A 
ATOM     13  C   UNL     1      -2.897   6.294  11.808  1.00  0.00     0.004 A 
ATOM     14  C   UNL     1      -3.259   7.439  12.518  1.00  0.00    -0.051 A 
ATOM     15  C   UNL     1      -3.811   7.318  13.897  1.00  0.00     0.044 C 
ENDBRANCH   7   9
ENDBRANCH   1   7
BRANCH   4  16
ATOM     16  N   UNL     1       0.074   5.103   4.891  1.00  0.00     0.066 N 
ATOM     17  O   UNL     1       1.097   5.131   4.165  1.00  0.00    -0.258 OA
ATOM     18  O   UNL     1      -1.035   4.704   4.467  1.00  0.00    -0.258 OA
ENDBRANCH   4  16
BRANCH   5  19
ATOM     19  O   UNL     1       2.309   5.099   9.189  1.00  0.00    -0.504 OA
ATOM     20  H   UNL     1       2.346   5.654   9.986  1.00  0.00     0.293 HD
ENDBRANCH   5  19
BRANCH   6  21
ATOM     21  O   UNL     1       2.153   4.223   6.576  1.00  0.00    -0.500 OA
ATOM     22  H   UNL     1       2.216   4.314   5.612  1.00  0.00     0.294 HD
ENDBRANCH   6  21
TORSDOF 5
ENDMDL
