MODEL 1
REMARK VINA RESULT:    -6.813      0.000      0.000
REMARK INTER + INTRA:          -8.572
REMARK INTER:                  -8.008
REMARK INTRA:                  -0.564
REMARK UNBOUND:                -0.564
REMARK SMILES O=C(O)c1cc(-c2ccc(F)cc2F)ccc1O
REMARK SMILES IDX 6 1 5 2 15 3 4 4 17 5 16 6 7 7 13 8 12 9 8 10 10 11 9 12
REMARK SMILES IDX 14 13 11 14 2 15 1 16 3 17 18 19
REMARK H PARENT 3 18 18 20
ROOT
ATOM      1  C   UNL     1      -8.387   1.503   1.517  1.00  0.00    -0.014 A 
ATOM      2  C   UNL     1      -7.341   1.861   2.365  1.00  0.00     0.028 A 
ATOM      3  C   UNL     1      -8.112   0.950   0.266  1.00  0.00     0.013 A 
ATOM      4  C   UNL     1      -6.019   1.667   1.964  1.00  0.00     0.102 A 
ATOM      5  C   UNL     1      -5.744   1.114   0.713  1.00  0.00     0.130 A 
ATOM      6  C   UNL     1      -6.791   0.755  -0.136  1.00  0.00     0.048 A 
ENDROOT
BRANCH   1   7
ATOM      7  C   UNL     1      -9.759   1.705   1.932  1.00  0.00     0.018 A 
ATOM      8  C   UNL     1     -10.156   1.367   3.226  1.00  0.00     0.133 A 
ATOM      9  C   UNL     1     -11.479   1.563   3.622  1.00  0.00     0.079 A 
ATOM     10  C   UNL     1     -10.683   2.240   1.035  1.00  0.00     0.015 A 
ATOM     11  C   UNL     1     -12.404   2.097   2.725  1.00  0.00     0.126 A 
ATOM     12  C   UNL     1     -12.005   2.436   1.432  1.00  0.00     0.040 A 
ATOM     13  F   UNL     1      -9.280   0.849   4.099  1.00  0.00    -0.206 F 
ATOM     14  F   UNL     1     -13.674   2.286   3.104  1.00  0.00    -0.207 F 
ENDBRANCH   1   7
BRANCH   4  15
ATOM     15  C   UNL     1      -4.940   2.048   2.866  1.00  0.00     0.339 C 
ATOM     16  O   UNL     1      -3.993   2.782   2.575  1.00  0.00    -0.246 OA
BRANCH  15  17
ATOM     17  O   UNL     1      -5.081   1.500   4.103  1.00  0.00    -0.478 OA
ATOM     18  H   UNL     1      -5.944   1.729   4.507  1.00  0.00     0.297 HD
ENDBRANCH  15  17
ENDBRANCH   4  15
BRANCH   5  19
ATOM     19  O   UNL     1      -4.459   0.916   0.303  1.00  0.00    -0.507 OA
ATOM     20  H   UNL     1      -3.901   0.741   1.080  1.00  0.00     0.293 HD
ENDBRANCH   5  19
TORSDOF 4
ENDMDL
MODEL 2
REMARK VINA RESULT:    -6.805      1.131      1.610
REMARK INTER + INTRA:          -8.562
REMARK INTER:                  -8.002
REMARK INTRA:                  -0.560
REMARK UNBOUND:                -0.564
REMARK SMILES O=C(O)c1cc(-c2ccc(F)cc2F)ccc1O
REMARK SMILES IDX 6 1 5 2 15 3 4 4 17 5 16 6 7 7 13 8 12 9 8 10 10 11 9 12
REMARK SMILES IDX 14 13 11 14 2 15 1 16 3 17 18 19
REMARK H PARENT 3 18 18 20
ROOT
ATOM      1  C   UNL     1      -8.378   1.538   1.473  1.00  0.00    -0.014 A 
ATOM      2  C   UNL     1      -7.338   1.887   2.334  1.00  0.00     0.028 A 
ATOM      3  C   UNL     1      -8.094   0.985   0.225  1.00  0.00     0.013 A 
ATOM      4  C   UNL     1      -6.013   1.683   1.947  1.00  0.00     0.102 A 
ATOM      5  C   UNL     1      -5.729   1.130   0.698  1.00  0.00     0.130 A 
ATOM      6  C   UNL     1      -6.770   0.781  -0.163  1.00  0.00     0.048 A 
ENDROOT
BRANCH   1   7
ATOM      7  C   UNL     1      -9.752   1.751   1.874  1.00  0.00     0.018 A 
ATOM      8  C   UNL     1     -10.662   2.317   0.981  1.00  0.00     0.133 A 
ATOM      9  C   UNL     1     -11.986   2.520   1.371  1.00  0.00     0.079 A 
ATOM     10  C   UNL     1     -10.166   1.387   3.155  1.00  0.00     0.015 A 
ATOM     11  C   UNL     1     -12.400   2.157   2.652  1.00  0.00     0.126 A 
ATOM     12  C   UNL     1     -11.489   1.590   3.544  1.00  0.00     0.040 A 
ATOM     13  F   UNL     1     -10.280   2.675  -0.253  1.00  0.00    -0.206 F 
ATOM     14  F   UNL     1     -13.670   2.352   3.028  1.00  0.00    -0.207 F 
ENDBRANCH   1   7
BRANCH   4  15
ATOM     15  C   UNL     1      -4.942   2.053   2.861  1.00  0.00     0.339 C 
ATOM     16  O   UNL     1      -3.992   2.790   2.586  1.00  0.00    -0.246 OA
BRANCH  15  17
ATOM     17  O   UNL     1      -5.092   1.492   4.091  1.00  0.00    -0.478 OA
ATOM     18  H   UNL     1      -5.840   1.890   4.585  1.00  0.00     0.297 HD
ENDBRANCH  15  17
ENDBRANCH   4  15
BRANCH   5  19
ATOM     19  O   UNL     1      -4.442   0.922   0.301  1.00  0.00    -0.507 OA
ATOM     20  H   UNL     1      -4.223   1.551  -0.408  1.00  0.00     0.293 HD
ENDBRANCH   5  19
TORSDOF 4
ENDMDL
MODEL 3
REMARK VINA RESULT:    -6.783      1.724      3.206
REMARK INTER + INTRA:          -8.536
REMARK INTER:                  -7.825
REMARK INTRA:                  -0.711
REMARK UNBOUND:                -0.564
REMARK SMILES O=C(O)c1cc(-c2ccc(F)cc2F)ccc1O
REMARK SMILES IDX 6 1 5 2 15 3 4 4 17 5 16 6 7 7 13 8 12 9 8 10 10 11 9 12
REMARK SMILES IDX 14 13 11 14 2 15 1 16 3 17 18 19
REMARK H PARENT 3 18 18 20
ROOT
ATOM      1  C   UNL     1      -8.490   1.645   1.367  1.00  0.00    -0.014 A 
ATOM      2  C   UNL     1      -8.274   0.995   0.152  1.00  0.00     0.028 A 
ATOM      3  C   UNL     1      -7.405   2.110   2.110  1.00  0.00     0.013 A 
ATOM      4  C   UNL     1      -6.975   0.810  -0.320  1.00  0.00     0.102 A 
ATOM      5  C   UNL     1      -5.890   1.276   0.423  1.00  0.00     0.130 A 
ATOM      6  C   UNL     1      -6.106   1.926   1.639  1.00  0.00     0.048 A 
ENDROOT
BRANCH   1   7
ATOM      7  C   UNL     1      -9.837   1.836   1.858  1.00  0.00     0.018 A 
ATOM      8  C   UNL     1     -10.816   2.377   1.024  1.00  0.00     0.133 A 
ATOM      9  C   UNL     1     -12.115   2.560   1.502  1.00  0.00     0.079 A 
ATOM     10  C   UNL     1     -10.157   1.476   3.167  1.00  0.00     0.015 A 
ATOM     11  C   UNL     1     -12.434   2.201   2.811  1.00  0.00     0.126 A 
ATOM     12  C   UNL     1     -11.454   1.658   3.643  1.00  0.00     0.040 A 
ATOM     13  F   UNL     1     -10.525   2.731  -0.236  1.00  0.00    -0.206 F 
ATOM     14  F   UNL     1     -13.679   2.375   3.270  1.00  0.00    -0.207 F 
ENDBRANCH   1   7
BRANCH   4  15
ATOM     15  C   UNL     1      -6.771   0.129  -1.591  1.00  0.00     0.339 C 
ATOM     16  O   UNL     1      -5.881  -0.691  -1.827  1.00  0.00    -0.246 OA
BRANCH  15  17
ATOM     17  O   UNL     1      -7.689   0.495  -2.527  1.00  0.00    -0.478 OA
ATOM     18  H   UNL     1      -7.270   0.941  -3.294  1.00  0.00     0.297 HD
ENDBRANCH  15  17
ENDBRANCH   4  15
BRANCH   5  19
ATOM     19  O   UNL     1      -4.613   1.106  -0.020  1.00  0.00    -0.507 OA
ATOM     20  H   UNL     1      -4.076   1.869   0.257  1.00  0.00     0.293 HD
ENDBRANCH   5  19
TORSDOF 4
ENDMDL
MODEL 4
REMARK VINA RESULT:    -6.722      1.325      2.763
REMARK INTER + INTRA:          -8.465
REMARK INTER:                  -7.725
REMARK INTRA:                  -0.741
REMARK UNBOUND:                -0.564
REMARK SMILES O=C(O)c1cc(-c2ccc(F)cc2F)ccc1O
REMARK SMILES IDX 6 1 5 2 15 3 4 4 17 5 16 6 7 7 13 8 12 9 8 10 10 11 9 12
REMARK SMILES IDX 14 13 11 14 2 15 1 16 3 17 18 19
REMARK H PARENT 3 18 18 20
ROOT
ATOM      1  C   UNL     1      -8.496   1.615   1.434  1.00  0.00    -0.014 A 
ATOM      2  C   UNL     1      -8.302   0.956   0.221  1.00  0.00     0.028 A 
ATOM      3  C   UNL     1      -7.400   2.090   2.153  1.00  0.00     0.013 A 
ATOM      4  C   UNL     1      -7.010   0.772  -0.274  1.00  0.00     0.102 A 
ATOM      5  C   UNL     1      -5.914   1.247   0.446  1.00  0.00     0.130 A 
ATOM      6  C   UNL     1      -6.109   1.907   1.660  1.00  0.00     0.048 A 
ENDROOT
BRANCH   1   7
ATOM      7  C   UNL     1      -9.836   1.805   1.948  1.00  0.00     0.018 A 
ATOM      8  C   UNL     1     -10.145   1.424   3.254  1.00  0.00     0.133 A 
ATOM      9  C   UNL     1     -11.437   1.608   3.746  1.00  0.00     0.079 A 
ATOM     10  C   UNL     1     -10.817   2.371   1.136  1.00  0.00     0.015 A 
ATOM     11  C   UNL     1     -12.419   2.174   2.933  1.00  0.00     0.126 A 
ATOM     12  C   UNL     1     -12.109   2.556   1.628  1.00  0.00     0.040 A 
ATOM     13  F   UNL     1      -9.214   0.875   4.048  1.00  0.00    -0.206 F 
ATOM     14  F   UNL     1     -13.660   2.352   3.405  1.00  0.00    -0.207 F 
ENDBRANCH   1   7
BRANCH   4  15
ATOM     15  C   UNL     1      -6.828   0.081  -1.543  1.00  0.00     0.339 C 
ATOM     16  O   UNL     1      -5.893  -0.676  -1.816  1.00  0.00    -0.246 OA
BRANCH  15  17
ATOM     17  O   UNL     1      -7.821   0.358  -2.431  1.00  0.00    -0.478 OA
ATOM     18  H   UNL     1      -7.539   0.197  -3.356  1.00  0.00     0.297 HD
ENDBRANCH  15  17
ENDBRANCH   4  15
BRANCH   5  19
ATOM     19  O   UNL     1      -4.644   1.078  -0.021  1.00  0.00    -0.507 OA
ATOM     20  H   UNL     1      -4.626   0.314  -0.623  1.00  0.00     0.293 HD
ENDBRANCH   5  19
TORSDOF 4
ENDMDL
MODEL 5
REMARK VINA RESULT:    -5.411      1.357      1.512
REMARK INTER + INTRA:          -6.924
REMARK INTER:                  -6.385
REMARK INTRA:                  -0.539
REMARK UNBOUND:                -0.564
REMARK SMILES O=C(O)c1cc(-c2ccc(F)cc2F)ccc1O
REMARK SMILES IDX 6 1 5 2 15 3 4 4 17 5 16 6 7 7 13 8 12 9 8 10 10 11 9 12
REMARK SMILES IDX 14 13 11 14 2 15 1 16 3 17 18 19
REMARK H PARENT 3 18 18 20
ROOT
ATOM      1  C   UNL     1      -8.985   1.777   1.925  1.00  0.00    -0.014 A 
ATOM      2  C   UNL     1      -7.988   2.004   2.873  1.00  0.00     0.028 A 
ATOM      3  C   UNL     1      -8.640   1.392   0.629  1.00  0.00     0.013 A 
ATOM      4  C   UNL     1      -6.646   1.847   2.526  1.00  0.00     0.102 A 
ATOM      5  C   UNL     1      -6.301   1.463   1.230  1.00  0.00     0.130 A 
ATOM      6  C   UNL     1      -7.299   1.235   0.281  1.00  0.00     0.048 A 
ENDROOT
BRANCH   1   7
ATOM      7  C   UNL     1     -10.377   1.941   2.284  1.00  0.00     0.018 A 
ATOM      8  C   UNL     1     -11.327   1.019   1.843  1.00  0.00     0.133 A 
ATOM      9  C   UNL     1     -12.669   1.181   2.191  1.00  0.00     0.079 A 
ATOM     10  C   UNL     1     -10.768   3.022   3.073  1.00  0.00     0.015 A 
ATOM     11  C   UNL     1     -13.059   2.263   2.980  1.00  0.00     0.126 A 
ATOM     12  C   UNL     1     -12.108   3.183   3.421  1.00  0.00     0.040 A 
ATOM     13  F   UNL     1     -10.969  -0.024   1.082  1.00  0.00    -0.206 F 
ATOM     14  F   UNL     1     -14.346   2.419   3.314  1.00  0.00    -0.207 F 
ENDBRANCH   1   7
BRANCH   4  15
ATOM     15  C   UNL     1      -5.620   2.089   3.531  1.00  0.00     0.339 C 
ATOM     16  O   UNL     1      -5.411   3.167   4.093  1.00  0.00    -0.246 OA
BRANCH  15  17
ATOM     17  O   UNL     1      -4.888   0.975   3.802  1.00  0.00    -0.478 OA
ATOM     18  H   UNL     1      -4.430   1.041   4.667  1.00  0.00     0.297 HD
ENDBRANCH  15  17
ENDBRANCH   4  15
BRANCH   5  19
ATOM     19  O   UNL     1      -4.996   1.303   0.871  1.00  0.00    -0.507 OA
ATOM     20  H   UNL     1      -4.433   1.784   1.502  1.00  0.00     0.293 HD
ENDBRANCH   5  19
TORSDOF 4
ENDMDL
MODEL 6
REMARK VINA RESULT:    -5.282      4.168      6.438
REMARK INTER + INTRA:          -6.772
REMARK INTER:                  -5.709
REMARK INTRA:                  -1.064
REMARK UNBOUND:                -0.564
REMARK SMILES O=C(O)c1cc(-c2ccc(F)cc2F)ccc1O
REMARK SMILES IDX 6 1 5 2 15 3 4 4 17 5 16 6 7 7 13 8 12 9 8 10 10 11 9 12
REMARK SMILES IDX 14 13 11 14 2 15 1 16 3 17 18 19
REMARK H PARENT 3 18 18 20
ROOT
ATOM      1  C   UNL     1     -10.937   1.978   2.160  1.00  0.00    -0.014 A 
ATOM      2  C   UNL     1     -11.128   3.067   3.010  1.00  0.00     0.028 A 
ATOM      3  C   UNL     1     -12.013   1.156   1.827  1.00  0.00     0.013 A 
ATOM      4  C   UNL     1     -12.396   3.334   3.528  1.00  0.00     0.102 A 
ATOM      5  C   UNL     1     -13.472   2.512   3.195  1.00  0.00     0.130 A 
ATOM      6  C   UNL     1     -13.281   1.422   2.344  1.00  0.00     0.048 A 
ENDROOT
BRANCH   1   7
ATOM      7  C   UNL     1      -9.622   1.700   1.624  1.00  0.00     0.018 A 
ATOM      8  C   UNL     1      -9.285   2.126   0.339  1.00  0.00     0.133 A 
ATOM      9  C   UNL     1      -8.016   1.855  -0.175  1.00  0.00     0.079 A 
ATOM     10  C   UNL     1      -8.691   1.005   2.395  1.00  0.00     0.015 A 
ATOM     11  C   UNL     1      -7.086   1.159   0.596  1.00  0.00     0.126 A 
ATOM     12  C   UNL     1      -7.423   0.735   1.881  1.00  0.00     0.040 A 
ATOM     13  F   UNL     1     -10.169   2.793  -0.416  1.00  0.00    -0.206 F 
ATOM     14  F   UNL     1      -5.868   0.899   0.104  1.00  0.00    -0.207 F 
ENDBRANCH   1   7
BRANCH   4  15
ATOM     15  C   UNL     1     -12.574   4.476   4.414  1.00  0.00     0.339 C 
ATOM     16  O   UNL     1     -13.568   4.689   5.113  1.00  0.00    -0.246 OA
BRANCH  15  17
ATOM     17  O   UNL     1     -11.503   5.315   4.400  1.00  0.00    -0.478 OA
ATOM     18  H   UNL     1     -11.724   6.194   4.775  1.00  0.00     0.297 HD
ENDBRANCH  15  17
ENDBRANCH   4  15
BRANCH   5  19
ATOM     19  O   UNL     1     -14.719   2.756   3.690  1.00  0.00    -0.507 OA
ATOM     20  H   UNL     1     -14.768   2.423   4.603  1.00  0.00     0.293 HD
ENDBRANCH   5  19
TORSDOF 4
ENDMDL
MODEL 7
REMARK VINA RESULT:    -5.272      1.187      1.243
REMARK INTER + INTRA:          -6.760
REMARK INTER:                  -6.144
REMARK INTRA:                  -0.616
REMARK UNBOUND:                -0.564
REMARK SMILES O=C(O)c1cc(-c2ccc(F)cc2F)ccc1O
REMARK SMILES IDX 6 1 5 2 15 3 4 4 17 5 16 6 7 7 13 8 12 9 8 10 10 11 9 12
REMARK SMILES IDX 14 13 11 14 2 15 1 16 3 17 18 19
REMARK H PARENT 3 18 18 20
ROOT
ATOM      1  C   UNL     1      -9.098   1.697   1.470  1.00  0.00    -0.014 A 
ATOM      2  C   UNL     1      -8.041   1.871   2.362  1.00  0.00     0.028 A 
ATOM      3  C   UNL     1      -8.840   1.420   0.128  1.00  0.00     0.013 A 
ATOM      4  C   UNL     1      -6.724   1.768   1.913  1.00  0.00     0.102 A 
ATOM      5  C   UNL     1      -6.466   1.491   0.570  1.00  0.00     0.130 A 
ATOM      6  C   UNL     1      -7.524   1.317  -0.323  1.00  0.00     0.048 A 
ENDROOT
BRANCH   1   7
ATOM      7  C   UNL     1     -10.464   1.804   1.935  1.00  0.00     0.018 A 
ATOM      8  C   UNL     1     -10.826   2.824   2.816  1.00  0.00     0.133 A 
ATOM      9  C   UNL     1     -12.144   2.924   3.262  1.00  0.00     0.079 A 
ATOM     10  C   UNL     1     -11.420   0.886   1.501  1.00  0.00     0.015 A 
ATOM     11  C   UNL     1     -13.099   2.006   2.829  1.00  0.00     0.126 A 
ATOM     12  C   UNL     1     -12.737   0.987   1.947  1.00  0.00     0.040 A 
ATOM     13  F   UNL     1      -9.919   3.713   3.245  1.00  0.00    -0.206 F 
ATOM     14  F   UNL     1     -14.364   2.101   3.257  1.00  0.00    -0.207 F 
ENDBRANCH   1   7
BRANCH   4  15
ATOM     15  C   UNL     1      -5.634   1.953   2.860  1.00  0.00     0.339 C 
ATOM     16  O   UNL     1      -4.555   2.496   2.610  1.00  0.00    -0.246 OA
BRANCH  15  17
ATOM     17  O   UNL     1      -5.928   1.454   4.092  1.00  0.00    -0.478 OA
ATOM     18  H   UNL     1      -5.344   0.703   4.329  1.00  0.00     0.297 HD
ENDBRANCH  15  17
ENDBRANCH   4  15
BRANCH   5  19
ATOM     19  O   UNL     1      -5.187   1.386   0.111  1.00  0.00    -0.507 OA
ATOM     20  H   UNL     1      -5.207   1.163  -0.836  1.00  0.00     0.293 HD
ENDBRANCH   5  19
TORSDOF 4
ENDMDL
MODEL 8
REMARK VINA RESULT:    -5.252      4.596      6.920
REMARK INTER + INTRA:          -6.737
REMARK INTER:                  -5.662
REMARK INTRA:                  -1.075
REMARK UNBOUND:                -0.564
REMARK SMILES O=C(O)c1cc(-c2ccc(F)cc2F)ccc1O
REMARK SMILES IDX 6 1 5 2 15 3 4 4 17 5 16 6 7 7 13 8 12 9 8 10 10 11 9 12
REMARK SMILES IDX 14 13 11 14 2 15 1 16 3 17 18 19
REMARK H PARENT 3 18 18 20
ROOT
ATOM      1  C   UNL     1     -10.961   1.836   2.185  1.00  0.00    -0.014 A 
ATOM      2  C   UNL     1     -11.897   0.871   1.813  1.00  0.00     0.028 A 
ATOM      3  C   UNL     1     -11.350   2.916   2.976  1.00  0.00     0.013 A 
ATOM      4  C   UNL     1     -13.223   0.986   2.232  1.00  0.00     0.102 A 
ATOM      5  C   UNL     1     -13.612   2.067   3.024  1.00  0.00     0.130 A 
ATOM      6  C   UNL     1     -12.675   3.032   3.396  1.00  0.00     0.048 A 
ENDROOT
BRANCH   1   7
ATOM      7  C   UNL     1      -9.586   1.717   1.749  1.00  0.00     0.018 A 
ATOM      8  C   UNL     1      -9.210   2.176   0.486  1.00  0.00     0.133 A 
ATOM      9  C   UNL     1      -7.883   2.059   0.070  1.00  0.00     0.079 A 
ATOM     10  C   UNL     1      -8.637   1.145   2.595  1.00  0.00     0.015 A 
ATOM     11  C   UNL     1      -6.934   1.486   0.915  1.00  0.00     0.126 A 
ATOM     12  C   UNL     1      -7.311   1.030   2.178  1.00  0.00     0.040 A 
ATOM     13  F   UNL     1     -10.111   2.726  -0.341  1.00  0.00    -0.206 F 
ATOM     14  F   UNL     1      -5.661   1.374   0.517  1.00  0.00    -0.207 F 
ENDBRANCH   1   7
BRANCH   4  15
ATOM     15  C   UNL     1     -14.184  -0.032   1.833  1.00  0.00     0.339 C 
ATOM     16  O   UNL     1     -13.955  -1.241   1.762  1.00  0.00    -0.246 OA
BRANCH  15  17
ATOM     17  O   UNL     1     -15.404   0.495   1.537  1.00  0.00    -0.478 OA
ATOM     18  H   UNL     1     -15.339   1.214   0.874  1.00  0.00     0.297 HD
ENDBRANCH  15  17
ENDBRANCH   4  15
BRANCH   5  19
ATOM     19  O   UNL     1     -14.902   2.198   3.444  1.00  0.00    -0.507 OA
ATOM     20  H   UNL     1     -14.931   2.823   4.189  1.00  0.00     0.293 HD
ENDBRANCH   5  19
TORSDOF 4
ENDMDL
MODEL 9
REMARK VINA RESULT:    -4.909      2.116      3.327
REMARK INTER + INTRA:          -6.334
REMARK INTER:                  -5.364
REMARK INTRA:                  -0.970
REMARK UNBOUND:                -0.564
REMARK SMILES O=C(O)c1cc(-c2ccc(F)cc2F)ccc1O
REMARK SMILES IDX 6 1 5 2 15 3 4 4 17 5 16 6 7 7 13 8 12 9 8 10 10 11 9 12
REMARK SMILES IDX 14 13 11 14 2 15 1 16 3 17 18 19
REMARK H PARENT 3 18 18 20
ROOT
ATOM      1  C   UNL     1      -9.824   1.602   2.179  1.00  0.00    -0.014 A 
ATOM      2  C   UNL     1      -9.549   1.693   0.815  1.00  0.00     0.028 A 
ATOM      3  C   UNL     1      -8.882   1.046   3.045  1.00  0.00     0.013 A 
ATOM      4  C   UNL     1      -8.332   1.227   0.316  1.00  0.00     0.102 A 
ATOM      5  C   UNL     1      -7.390   0.672   1.182  1.00  0.00     0.130 A 
ATOM      6  C   UNL     1      -7.666   0.581   2.547  1.00  0.00     0.048 A 
ENDROOT
BRANCH   1   7
ATOM      7  C   UNL     1     -11.087   2.083   2.697  1.00  0.00     0.018 A 
ATOM      8  C   UNL     1     -12.271   1.412   2.391  1.00  0.00     0.133 A 
ATOM      9  C   UNL     1     -13.486   1.879   2.892  1.00  0.00     0.079 A 
ATOM     10  C   UNL     1     -11.118   3.219   3.505  1.00  0.00     0.015 A 
ATOM     11  C   UNL     1     -13.517   3.016   3.699  1.00  0.00     0.126 A 
ATOM     12  C   UNL     1     -12.332   3.685   4.006  1.00  0.00     0.040 A 
ATOM     13  F   UNL     1     -12.259   0.320   1.613  1.00  0.00    -0.206 F 
ATOM     14  F   UNL     1     -14.683   3.465   4.181  1.00  0.00    -0.207 F 
ENDBRANCH   1   7
BRANCH   4  15
ATOM     15  C   UNL     1      -8.064   1.332  -1.112  1.00  0.00     0.339 C 
ATOM     16  O   UNL     1      -7.244   0.654  -1.735  1.00  0.00    -0.246 OA
BRANCH  15  17
ATOM     17  O   UNL     1      -8.831   2.280  -1.715  1.00  0.00    -0.478 OA
ATOM     18  H   UNL     1      -8.479   3.183  -1.565  1.00  0.00     0.297 HD
ENDBRANCH  15  17
ENDBRANCH   4  15
BRANCH   5  19
ATOM     19  O   UNL     1      -6.195   0.212   0.715  1.00  0.00    -0.507 OA
ATOM     20  H   UNL     1      -6.313  -0.109  -0.196  1.00  0.00     0.293 HD
ENDBRANCH   5  19
TORSDOF 4
ENDMDL
