MODEL 1
REMARK VINA RESULT:    -7.006      0.000      0.000
REMARK INTER + INTRA:          -8.872
REMARK INTER:                  -8.234
REMARK INTRA:                  -0.637
REMARK UNBOUND:                -0.637
REMARK SMILES O=C(O)c1cc(-c2ccc(F)cc2F)ccc1O
REMARK SMILES IDX 6 1 5 2 15 3 4 4 17 5 16 6 7 7 13 8 12 9 8 10 10 11 9 12
REMARK SMILES IDX 14 13 11 14 2 15 1 16 3 17 18 19
REMARK H PARENT 3 18 18 20
ROOT
ATOM      1  C   UNL     1      -1.096   4.373   6.604  1.00  0.00    -0.014 A 
ATOM      2  C   UNL     1      -0.702   3.038   6.691  1.00  0.00     0.028 A 
ATOM      3  C   UNL     1      -1.538   4.891   5.387  1.00  0.00     0.013 A 
ATOM      4  C   UNL     1      -0.751   2.221   5.561  1.00  0.00     0.102 A 
ATOM      5  C   UNL     1      -1.192   2.740   4.344  1.00  0.00     0.130 A 
ATOM      6  C   UNL     1      -1.586   4.076   4.257  1.00  0.00     0.048 A 
ENDROOT
BRANCH   1   7
ATOM      7  C   UNL     1      -1.045   5.221   7.775  1.00  0.00     0.018 A 
ATOM      8  C   UNL     1      -1.542   4.761   8.995  1.00  0.00     0.133 A 
ATOM      9  C   UNL     1      -1.491   5.582  10.122  1.00  0.00     0.079 A 
ATOM     10  C   UNL     1      -0.497   6.500   7.682  1.00  0.00     0.015 A 
ATOM     11  C   UNL     1      -0.943   6.861  10.029  1.00  0.00     0.126 A 
ATOM     12  C   UNL     1      -0.446   7.320   8.809  1.00  0.00     0.040 A 
ATOM     13  F   UNL     1      -2.074   3.535   9.100  1.00  0.00    -0.206 F 
ATOM     14  F   UNL     1      -0.894   7.650  11.110  1.00  0.00    -0.207 F 
ENDBRANCH   1   7
BRANCH   4  15
ATOM     15  C   UNL     1      -0.336   0.829   5.673  1.00  0.00     0.339 C 
ATOM     16  O   UNL     1       0.383   0.232   4.868  1.00  0.00    -0.246 OA
BRANCH  15  17
ATOM     17  O   UNL     1      -0.832   0.229   6.788  1.00  0.00    -0.478 OA
ATOM     18  H   UNL     1      -0.256  -0.503   7.095  1.00  0.00     0.297 HD
ENDBRANCH  15  17
ENDBRANCH   4  15
BRANCH   5  19
ATOM     19  O   UNL     1      -1.248   1.958   3.228  1.00  0.00    -0.507 OA
ATOM     20  H   UNL     1      -0.914   2.466   2.468  1.00  0.00     0.293 HD
ENDBRANCH   5  19
TORSDOF 4
ENDMDL
MODEL 2
REMARK VINA RESULT:    -6.991      1.124      1.607
REMARK INTER + INTRA:          -8.854
REMARK INTER:                  -8.221
REMARK INTRA:                  -0.633
REMARK UNBOUND:                -0.637
REMARK SMILES O=C(O)c1cc(-c2ccc(F)cc2F)ccc1O
REMARK SMILES IDX 6 1 5 2 15 3 4 4 17 5 16 6 7 7 13 8 12 9 8 10 10 11 9 12
REMARK SMILES IDX 14 13 11 14 2 15 1 16 3 17 18 19
REMARK H PARENT 3 18 18 20
ROOT
ATOM      1  C   UNL     1      -1.063   4.388   6.579  1.00  0.00    -0.014 A 
ATOM      2  C   UNL     1      -0.681   3.051   6.675  1.00  0.00     0.028 A 
ATOM      3  C   UNL     1      -1.499   4.904   5.359  1.00  0.00     0.013 A 
ATOM      4  C   UNL     1      -0.735   2.227   5.550  1.00  0.00     0.102 A 
ATOM      5  C   UNL     1      -1.172   2.743   4.329  1.00  0.00     0.130 A 
ATOM      6  C   UNL     1      -1.554   4.082   4.234  1.00  0.00     0.048 A 
ENDROOT
BRANCH   1   7
ATOM      7  C   UNL     1      -1.005   5.243   7.746  1.00  0.00     0.018 A 
ATOM      8  C   UNL     1      -0.440   6.515   7.655  1.00  0.00     0.133 A 
ATOM      9  C   UNL     1      -0.386   7.336   8.782  1.00  0.00     0.079 A 
ATOM     10  C   UNL     1      -1.517   4.793   8.962  1.00  0.00     0.015 A 
ATOM     11  C   UNL     1      -0.898   6.885   9.998  1.00  0.00     0.126 A 
ATOM     12  C   UNL     1      -1.464   5.614  10.088  1.00  0.00     0.040 A 
ATOM     13  F   UNL     1       0.060   6.962   6.494  1.00  0.00    -0.206 F 
ATOM     14  F   UNL     1      -0.847   7.672  11.080  1.00  0.00    -0.207 F 
ENDBRANCH   1   7
BRANCH   4  15
ATOM     15  C   UNL     1      -0.332   0.833   5.670  1.00  0.00     0.339 C 
ATOM     16  O   UNL     1       0.384   0.226   4.871  1.00  0.00    -0.246 OA
BRANCH  15  17
ATOM     17  O   UNL     1      -0.837   0.242   6.787  1.00  0.00    -0.478 OA
ATOM     18  H   UNL     1      -0.479   0.645   7.606  1.00  0.00     0.297 HD
ENDBRANCH  15  17
ENDBRANCH   4  15
BRANCH   5  19
ATOM     19  O   UNL     1      -1.233   1.955   3.218  1.00  0.00    -0.507 OA
ATOM     20  H   UNL     1      -0.517   2.209   2.610  1.00  0.00     0.293 HD
ENDBRANCH   5  19
TORSDOF 4
ENDMDL
MODEL 3
REMARK VINA RESULT:    -6.982      1.691      3.184
REMARK INTER + INTRA:          -8.844
REMARK INTER:                  -8.273
REMARK INTRA:                  -0.571
REMARK UNBOUND:                -0.637
REMARK SMILES O=C(O)c1cc(-c2ccc(F)cc2F)ccc1O
REMARK SMILES IDX 6 1 5 2 15 3 4 4 17 5 16 6 7 7 13 8 12 9 8 10 10 11 9 12
REMARK SMILES IDX 14 13 11 14 2 15 1 16 3 17 18 19
REMARK H PARENT 3 18 18 20
ROOT
ATOM      1  C   UNL     1      -1.019   4.418   6.515  1.00  0.00    -0.014 A 
ATOM      2  C   UNL     1      -1.441   4.996   5.318  1.00  0.00     0.028 A 
ATOM      3  C   UNL     1      -0.662   3.070   6.551  1.00  0.00     0.013 A 
ATOM      4  C   UNL     1      -1.507   4.226   4.156  1.00  0.00     0.102 A 
ATOM      5  C   UNL     1      -1.151   2.878   4.192  1.00  0.00     0.130 A 
ATOM      6  C   UNL     1      -0.728   2.300   5.390  1.00  0.00     0.048 A 
ENDROOT
BRANCH   1   7
ATOM      7  C   UNL     1      -0.951   5.215   7.720  1.00  0.00     0.018 A 
ATOM      8  C   UNL     1      -0.400   6.497   7.683  1.00  0.00     0.133 A 
ATOM      9  C   UNL     1      -0.337   7.262   8.847  1.00  0.00     0.079 A 
ATOM     10  C   UNL     1      -1.440   4.701   8.921  1.00  0.00     0.015 A 
ATOM     11  C   UNL     1      -0.824   6.747  10.048  1.00  0.00     0.126 A 
ATOM     12  C   UNL     1      -1.376   5.467  10.085  1.00  0.00     0.040 A 
ATOM     13  F   UNL     1       0.076   7.005   6.537  1.00  0.00    -0.206 F 
ATOM     14  F   UNL     1      -0.764   7.481  11.166  1.00  0.00    -0.207 F 
ENDBRANCH   1   7
BRANCH   4  15
ATOM     15  C   UNL     1      -1.950   4.849   2.917  1.00  0.00     0.339 C 
ATOM     16  O   UNL     1      -2.853   4.427   2.189  1.00  0.00    -0.246 OA
BRANCH  15  17
ATOM     17  O   UNL     1      -1.252   5.980   2.626  1.00  0.00    -0.478 OA
ATOM     18  H   UNL     1      -0.626   5.841   1.884  1.00  0.00     0.297 HD
ENDBRANCH  15  17
ENDBRANCH   4  15
BRANCH   5  19
ATOM     19  O   UNL     1      -1.208   2.109   3.068  1.00  0.00    -0.507 OA
ATOM     20  H   UNL     1      -0.912   1.208   3.285  1.00  0.00     0.293 HD
ENDBRANCH   5  19
TORSDOF 4
ENDMDL
MODEL 4
REMARK VINA RESULT:    -6.974      1.338      2.792
REMARK INTER + INTRA:          -8.835
REMARK INTER:                  -8.211
REMARK INTRA:                  -0.624
REMARK UNBOUND:                -0.637
REMARK SMILES O=C(O)c1cc(-c2ccc(F)cc2F)ccc1O
REMARK SMILES IDX 6 1 5 2 15 3 4 4 17 5 16 6 7 7 13 8 12 9 8 10 10 11 9 12
REMARK SMILES IDX 14 13 11 14 2 15 1 16 3 17 18 19
REMARK H PARENT 3 18 18 20
ROOT
ATOM      1  C   UNL     1      -1.062   4.470   6.519  1.00  0.00    -0.014 A 
ATOM      2  C   UNL     1      -1.500   5.077   5.343  1.00  0.00     0.028 A 
ATOM      3  C   UNL     1      -0.698   3.123   6.515  1.00  0.00     0.013 A 
ATOM      4  C   UNL     1      -1.574   4.338   4.162  1.00  0.00     0.102 A 
ATOM      5  C   UNL     1      -1.210   2.992   4.158  1.00  0.00     0.130 A 
ATOM      6  C   UNL     1      -0.772   2.384   5.335  1.00  0.00     0.048 A 
ENDROOT
BRANCH   1   7
ATOM      7  C   UNL     1      -0.986   5.235   7.745  1.00  0.00     0.018 A 
ATOM      8  C   UNL     1      -1.489   4.706   8.934  1.00  0.00     0.133 A 
ATOM      9  C   UNL     1      -1.414   5.447  10.113  1.00  0.00     0.079 A 
ATOM     10  C   UNL     1      -0.407   6.504   7.736  1.00  0.00     0.015 A 
ATOM     11  C   UNL     1      -0.836   6.716  10.104  1.00  0.00     0.126 A 
ATOM     12  C   UNL     1      -0.332   7.244   8.915  1.00  0.00     0.040 A 
ATOM     13  F   UNL     1      -2.051   3.489   8.959  1.00  0.00    -0.206 F 
ATOM     14  F   UNL     1      -0.764   7.428  11.236  1.00  0.00    -0.207 F 
ENDBRANCH   1   7
BRANCH   4  15
ATOM     15  C   UNL     1      -2.034   4.991   2.944  1.00  0.00     0.339 C 
ATOM     16  O   UNL     1      -2.841   4.517   2.141  1.00  0.00    -0.246 OA
BRANCH  15  17
ATOM     17  O   UNL     1      -1.470   6.217   2.769  1.00  0.00    -0.478 OA
ATOM     18  H   UNL     1      -0.572   6.265   3.159  1.00  0.00     0.297 HD
ENDBRANCH  15  17
ENDBRANCH   4  15
BRANCH   5  19
ATOM     19  O   UNL     1      -1.275   2.252   3.014  1.00  0.00    -0.507 OA
ATOM     20  H   UNL     1      -0.666   1.497   3.090  1.00  0.00     0.293 HD
ENDBRANCH   5  19
TORSDOF 4
ENDMDL
MODEL 5
REMARK VINA RESULT:    -5.335      4.549      6.904
REMARK INTER + INTRA:          -6.908
REMARK INTER:                  -5.838
REMARK INTRA:                  -1.070
REMARK UNBOUND:                -0.637
REMARK SMILES O=C(O)c1cc(-c2ccc(F)cc2F)ccc1O
REMARK SMILES IDX 6 1 5 2 15 3 4 4 17 5 16 6 7 7 13 8 12 9 8 10 10 11 9 12
REMARK SMILES IDX 14 13 11 14 2 15 1 16 3 17 18 19
REMARK H PARENT 3 18 18 20
ROOT
ATOM      1  C   UNL     1      -0.920   5.996   8.611  1.00  0.00    -0.014 A 
ATOM      2  C   UNL     1      -1.839   7.009   8.881  1.00  0.00     0.028 A 
ATOM      3  C   UNL     1       0.078   5.695   9.538  1.00  0.00     0.013 A 
ATOM      4  C   UNL     1      -1.761   7.722  10.078  1.00  0.00     0.102 A 
ATOM      5  C   UNL     1      -0.763   7.420  11.005  1.00  0.00     0.130 A 
ATOM      6  C   UNL     1       0.157   6.406  10.734  1.00  0.00     0.048 A 
ENDROOT
BRANCH   1   7
ATOM      7  C   UNL     1      -0.999   5.258   7.369  1.00  0.00     0.018 A 
ATOM      8  C   UNL     1      -0.422   5.775   6.208  1.00  0.00     0.133 A 
ATOM      9  C   UNL     1      -0.502   5.060   5.013  1.00  0.00     0.079 A 
ATOM     10  C   UNL     1      -1.653   4.027   7.334  1.00  0.00     0.015 A 
ATOM     11  C   UNL     1      -1.156   3.829   4.978  1.00  0.00     0.126 A 
ATOM     12  C   UNL     1      -1.731   3.312   6.139  1.00  0.00     0.040 A 
ATOM     13  F   UNL     1       0.207   6.958   6.224  1.00  0.00    -0.206 F 
ATOM     14  F   UNL     1      -1.232   3.142   3.831  1.00  0.00    -0.207 F 
ENDBRANCH   1   7
BRANCH   4  15
ATOM     15  C   UNL     1      -2.731   8.776  10.341  1.00  0.00     0.339 C 
ATOM     16  O   UNL     1      -2.885   9.350  11.422  1.00  0.00    -0.246 OA
BRANCH  15  17
ATOM     17  O   UNL     1      -3.477   9.079   9.244  1.00  0.00    -0.478 OA
ATOM     18  H   UNL     1      -4.002   9.897   9.375  1.00  0.00     0.297 HD
ENDBRANCH  15  17
ENDBRANCH   4  15
BRANCH   5  19
ATOM     19  O   UNL     1      -0.670   8.104  12.180  1.00  0.00    -0.507 OA
ATOM     20  H   UNL     1       0.250   8.395  12.306  1.00  0.00     0.293 HD
ENDBRANCH   5  19
TORSDOF 4
ENDMDL
MODEL 6
REMARK VINA RESULT:    -5.284      4.106      6.424
REMARK INTER + INTRA:          -6.848
REMARK INTER:                  -5.790
REMARK INTRA:                  -1.059
REMARK UNBOUND:                -0.637
REMARK SMILES O=C(O)c1cc(-c2ccc(F)cc2F)ccc1O
REMARK SMILES IDX 6 1 5 2 15 3 4 4 17 5 16 6 7 7 13 8 12 9 8 10 10 11 9 12
REMARK SMILES IDX 14 13 11 14 2 15 1 16 3 17 18 19
REMARK H PARENT 3 18 18 20
ROOT
ATOM      1  C   UNL     1      -0.903   5.948   8.646  1.00  0.00    -0.014 A 
ATOM      2  C   UNL     1       0.080   5.646   9.588  1.00  0.00     0.028 A 
ATOM      3  C   UNL     1      -1.806   6.983   8.888  1.00  0.00     0.013 A 
ATOM      4  C   UNL     1       0.161   6.379  10.772  1.00  0.00     0.102 A 
ATOM      5  C   UNL     1      -0.742   7.414  11.014  1.00  0.00     0.130 A 
ATOM      6  C   UNL     1      -1.726   7.716  10.072  1.00  0.00     0.048 A 
ENDROOT
BRANCH   1   7
ATOM      7  C   UNL     1      -0.988   5.188   7.418  1.00  0.00     0.018 A 
ATOM      8  C   UNL     1      -0.439   5.696   6.240  1.00  0.00     0.133 A 
ATOM      9  C   UNL     1      -0.523   4.959   5.058  1.00  0.00     0.079 A 
ATOM     10  C   UNL     1      -1.619   3.944   7.414  1.00  0.00     0.015 A 
ATOM     11  C   UNL     1      -1.155   3.716   5.054  1.00  0.00     0.126 A 
ATOM     12  C   UNL     1      -1.702   3.209   6.233  1.00  0.00     0.040 A 
ATOM     13  F   UNL     1       0.168   6.891   6.226  1.00  0.00    -0.206 F 
ATOM     14  F   UNL     1      -1.237   3.009   3.920  1.00  0.00    -0.207 F 
ENDBRANCH   1   7
BRANCH   4  15
ATOM     15  C   UNL     1       1.195   6.048  11.743  1.00  0.00     0.339 C 
ATOM     16  O   UNL     1       1.252   6.475  12.899  1.00  0.00    -0.246 OA
BRANCH  15  17
ATOM     17  O   UNL     1       2.125   5.192  11.238  1.00  0.00    -0.478 OA
ATOM     18  H   UNL     1       1.960   4.991  10.293  1.00  0.00     0.297 HD
ENDBRANCH  15  17
ENDBRANCH   4  15
BRANCH   5  19
ATOM     19  O   UNL     1      -0.680   8.143  12.165  1.00  0.00    -0.507 OA
ATOM     20  H   UNL     1      -0.071   8.890  12.035  1.00  0.00     0.293 HD
ENDBRANCH   5  19
TORSDOF 4
ENDMDL
MODEL 7
REMARK VINA RESULT:    -5.193      1.774      3.058
REMARK INTER + INTRA:          -6.741
REMARK INTER:                  -6.212
REMARK INTRA:                  -0.529
REMARK UNBOUND:                -0.637
REMARK SMILES O=C(O)c1cc(-c2ccc(F)cc2F)ccc1O
REMARK SMILES IDX 6 1 5 2 15 3 4 4 17 5 16 6 7 7 13 8 12 9 8 10 10 11 9 12
REMARK SMILES IDX 14 13 11 14 2 15 1 16 3 17 18 19
REMARK H PARENT 3 18 18 20
ROOT
ATOM      1  C   UNL     1      -1.021   4.629   6.880  1.00  0.00    -0.014 A 
ATOM      2  C   UNL     1      -1.379   5.264   5.691  1.00  0.00     0.028 A 
ATOM      3  C   UNL     1      -0.784   3.255   6.892  1.00  0.00     0.013 A 
ATOM      4  C   UNL     1      -1.500   4.526   4.514  1.00  0.00     0.102 A 
ATOM      5  C   UNL     1      -1.263   3.151   4.526  1.00  0.00     0.130 A 
ATOM      6  C   UNL     1      -0.905   2.515   5.716  1.00  0.00     0.048 A 
ENDROOT
BRANCH   1   7
ATOM      7  C   UNL     1      -0.897   5.394   8.102  1.00  0.00     0.018 A 
ATOM      8  C   UNL     1      -1.777   6.445   8.363  1.00  0.00     0.133 A 
ATOM      9  C   UNL     1      -1.653   7.181   9.542  1.00  0.00     0.079 A 
ATOM     10  C   UNL     1       0.105   5.079   9.020  1.00  0.00     0.015 A 
ATOM     11  C   UNL     1      -0.651   6.866  10.459  1.00  0.00     0.126 A 
ATOM     12  C   UNL     1       0.227   5.814  10.198  1.00  0.00     0.040 A 
ATOM     13  F   UNL     1      -2.743   6.764   7.490  1.00  0.00    -0.206 F 
ATOM     14  F   UNL     1      -0.532   7.571  11.591  1.00  0.00    -0.207 F 
ENDBRANCH   1   7
BRANCH   4  15
ATOM     15  C   UNL     1      -1.875   5.208   3.283  1.00  0.00     0.339 C 
ATOM     16  O   UNL     1      -2.616   4.750   2.410  1.00  0.00    -0.246 OA
BRANCH  15  17
ATOM     17  O   UNL     1      -1.311   6.443   3.183  1.00  0.00    -0.478 OA
ATOM     18  H   UNL     1      -0.509   6.433   2.620  1.00  0.00     0.297 HD
ENDBRANCH  15  17
ENDBRANCH   4  15
BRANCH   5  19
ATOM     19  O   UNL     1      -1.375   2.412   3.387  1.00  0.00    -0.507 OA
ATOM     20  H   UNL     1      -2.183   1.872   3.437  1.00  0.00     0.293 HD
ENDBRANCH   5  19
TORSDOF 4
ENDMDL
MODEL 8
REMARK VINA RESULT:    -5.155      1.064      1.110
REMARK INTER + INTRA:          -6.697
REMARK INTER:                  -6.167
REMARK INTRA:                  -0.529
REMARK UNBOUND:                -0.637
REMARK SMILES O=C(O)c1cc(-c2ccc(F)cc2F)ccc1O
REMARK SMILES IDX 6 1 5 2 15 3 4 4 17 5 16 6 7 7 13 8 12 9 8 10 10 11 9 12
REMARK SMILES IDX 14 13 11 14 2 15 1 16 3 17 18 19
REMARK H PARENT 3 18 18 20
ROOT
ATOM      1  C   UNL     1      -1.014   4.785   6.857  1.00  0.00    -0.014 A 
ATOM      2  C   UNL     1      -0.734   3.422   6.938  1.00  0.00     0.028 A 
ATOM      3  C   UNL     1      -1.306   5.365   5.623  1.00  0.00     0.013 A 
ATOM      4  C   UNL     1      -0.744   2.637   5.785  1.00  0.00     0.102 A 
ATOM      5  C   UNL     1      -1.036   3.217   4.550  1.00  0.00     0.130 A 
ATOM      6  C   UNL     1      -1.316   4.582   4.469  1.00  0.00     0.048 A 
ENDROOT
BRANCH   1   7
ATOM      7  C   UNL     1      -1.002   5.600   8.054  1.00  0.00     0.018 A 
ATOM      8  C   UNL     1      -0.066   5.354   9.059  1.00  0.00     0.133 A 
ATOM      9  C   UNL     1      -0.058   6.142  10.210  1.00  0.00     0.079 A 
ATOM     10  C   UNL     1      -1.929   6.632   8.200  1.00  0.00     0.015 A 
ATOM     11  C   UNL     1      -0.985   7.173  10.357  1.00  0.00     0.126 A 
ATOM     12  C   UNL     1      -1.920   7.418   9.351  1.00  0.00     0.040 A 
ATOM     13  F   UNL     1       0.830   4.364   8.935  1.00  0.00    -0.206 F 
ATOM     14  F   UNL     1      -0.978   7.929  11.462  1.00  0.00    -0.207 F 
ENDBRANCH   1   7
BRANCH   4  15
ATOM     15  C   UNL     1      -0.449   1.215   5.890  1.00  0.00     0.339 C 
ATOM     16  O   UNL     1       0.194   0.557   5.070  1.00  0.00    -0.246 OA
BRANCH  15  17
ATOM     17  O   UNL     1      -0.967   0.661   7.020  1.00  0.00    -0.478 OA
ATOM     18  H   UNL     1      -1.918   0.872   7.127  1.00  0.00     0.297 HD
ENDBRANCH  15  17
ENDBRANCH   4  15
BRANCH   5  19
ATOM     19  O   UNL     1      -1.052   2.469   3.411  1.00  0.00    -0.507 OA
ATOM     20  H   UNL     1      -1.727   1.774   3.498  1.00  0.00     0.293 HD
ENDBRANCH   5  19
TORSDOF 4
ENDMDL
MODEL 9
REMARK VINA RESULT:    -4.128      9.184     11.789
REMARK INTER + INTRA:          -5.490
REMARK INTER:                  -4.429
REMARK INTRA:                  -1.060
REMARK UNBOUND:                -0.637
REMARK SMILES O=C(O)c1cc(-c2ccc(F)cc2F)ccc1O
REMARK SMILES IDX 6 1 5 2 15 3 4 4 17 5 16 6 7 7 13 8 12 9 8 10 10 11 9 12
REMARK SMILES IDX 14 13 11 14 2 15 1 16 3 17 18 19
REMARK H PARENT 3 18 18 20
ROOT
ATOM      1  C   UNL     1      -5.736  10.707  12.989  1.00  0.00    -0.014 A 
ATOM      2  C   UNL     1      -6.458  11.848  12.644  1.00  0.00     0.028 A 
ATOM      3  C   UNL     1      -5.951  10.093  14.223  1.00  0.00     0.013 A 
ATOM      4  C   UNL     1      -7.395  12.378  13.532  1.00  0.00     0.102 A 
ATOM      5  C   UNL     1      -7.609  11.764  14.766  1.00  0.00     0.130 A 
ATOM      6  C   UNL     1      -6.887  10.621  15.112  1.00  0.00     0.048 A 
ENDROOT
BRANCH   1   7
ATOM      7  C   UNL     1      -4.764  10.158  12.068  1.00  0.00     0.018 A 
ATOM      8  C   UNL     1      -3.446  10.617  12.087  1.00  0.00     0.133 A 
ATOM      9  C   UNL     1      -2.512  10.085  11.197  1.00  0.00     0.079 A 
ATOM     10  C   UNL     1      -5.146   9.169  11.163  1.00  0.00     0.015 A 
ATOM     11  C   UNL     1      -2.894   9.097  10.291  1.00  0.00     0.126 A 
ATOM     12  C   UNL     1      -4.212   8.638  10.275  1.00  0.00     0.040 A 
ATOM     13  F   UNL     1      -3.063  11.569  12.949  1.00  0.00    -0.206 F 
ATOM     14  F   UNL     1      -1.998   8.586   9.437  1.00  0.00    -0.207 F 
ENDBRANCH   1   7
BRANCH   4  15
ATOM     15  C   UNL     1      -8.139  13.571  13.152  1.00  0.00     0.339 C 
ATOM     16  O   UNL     1      -8.519  14.451  13.928  1.00  0.00    -0.246 OA
BRANCH  15  17
ATOM     17  O   UNL     1      -8.382  13.626  11.815  1.00  0.00    -0.478 OA
ATOM     18  H   UNL     1      -9.043  12.958  11.536  1.00  0.00     0.297 HD
ENDBRANCH  15  17
ENDBRANCH   4  15
BRANCH   5  19
ATOM     19  O   UNL     1      -8.520  12.264  15.648  1.00  0.00    -0.507 OA
ATOM     20  H   UNL     1      -9.298  11.680  15.666  1.00  0.00     0.293 HD
ENDBRANCH   5  19
TORSDOF 4
ENDMDL
