MODEL 1
REMARK VINA RESULT:    -5.051      0.000      0.000
REMARK INTER + INTRA:          -6.963
REMARK INTER:                  -6.232
REMARK INTRA:                  -0.731
REMARK UNBOUND:                -0.731
REMARK SMILES Cc1ccc(C(=O)c2cc(O)c(O)c([N+](=O)[O-])c2)cc1
REMARK SMILES IDX 8 1 18 2 9 3 14 4 10 5 12 6 6 7 7 8 5 9 4 10 19 11 3 12
REMARK SMILES IDX 20 13 2 14 1 15 15 16 17 17 16 18 11 19 13 21
REMARK H PARENT 11 20 13 22
ROOT
ATOM      1  C   UNL     1      -0.244   3.976   6.623  1.00  0.00     0.033 A 
ATOM      2  C   UNL     1      -0.795   4.744   5.623  1.00  0.00     0.102 A 
ATOM      3  C   UNL     1      -0.028   2.625   6.493  1.00  0.00     0.063 A 
ATOM      4  C   UNL     1      -1.150   4.124   4.425  1.00  0.00     0.315 A 
ATOM      5  C   UNL     1      -0.383   2.004   5.295  1.00  0.00     0.165 A 
ATOM      6  C   UNL     1      -0.944   2.755   4.260  1.00  0.00     0.237 A 
ENDROOT
BRANCH   1   7
ATOM      7  C   UNL     1       0.136   4.640   7.906  1.00  0.00     0.193 C 
ATOM      8  O   UNL     1       1.157   4.229   8.479  1.00  0.00    -0.289 OA
BRANCH   7   9
ATOM      9  C   UNL     1      -0.641   5.725   8.483  1.00  0.00     0.023 A 
ATOM     10  C   UNL     1      -1.568   5.461   9.490  1.00  0.00     0.012 A 
ATOM     11  C   UNL     1      -0.459   7.031   8.028  1.00  0.00     0.012 A 
ATOM     12  C   UNL     1      -2.313   6.502  10.043  1.00  0.00     0.004 A 
ATOM     13  C   UNL     1      -1.204   8.074   8.581  1.00  0.00     0.004 A 
ATOM     14  C   UNL     1      -2.132   7.809   9.589  1.00  0.00    -0.051 A 
ATOM     15  C   UNL     1      -2.929   8.921  10.179  1.00  0.00     0.044 C 
ENDBRANCH   7   9
ENDBRANCH   1   7
BRANCH   4  16
ATOM     16  N   UNL     1      -1.721   4.905   3.383  1.00  0.00     0.066 N 
ATOM     17  O   UNL     1      -1.278   6.061   3.180  1.00  0.00    -0.258 OA
ATOM     18  O   UNL     1      -2.648   4.414   2.697  1.00  0.00    -0.258 OA
ENDBRANCH   4  16
BRANCH   5  19
ATOM     19  O   UNL     1      -0.176   0.666   5.148  1.00  0.00    -0.504 OA
ATOM     20  H   UNL     1      -0.990   0.244   4.826  1.00  0.00     0.293 HD
ENDBRANCH   5  19
BRANCH   6  21
ATOM     21  O   UNL     1      -1.287   2.137   3.093  1.00  0.00    -0.500 OA
ATOM     22  H   UNL     1      -2.029   2.607   2.681  1.00  0.00     0.294 HD
ENDBRANCH   6  21
TORSDOF 5
ENDMDL
MODEL 2
REMARK VINA RESULT:    -4.976      2.035      3.562
REMARK INTER + INTRA:          -6.870
REMARK INTER:                  -6.116
REMARK INTRA:                  -0.754
REMARK UNBOUND:                -0.731
REMARK SMILES Cc1ccc(C(=O)c2cc(O)c(O)c([N+](=O)[O-])c2)cc1
REMARK SMILES IDX 8 1 18 2 9 3 14 4 10 5 12 6 6 7 7 8 5 9 4 10 19 11 3 12
REMARK SMILES IDX 20 13 2 14 1 15 15 16 17 17 16 18 11 19 13 21
REMARK H PARENT 11 20 13 22
ROOT
ATOM      1  C   UNL     1      -1.830   4.714   6.225  1.00  0.00     0.033 A 
ATOM      2  C   UNL     1      -1.362   3.458   6.532  1.00  0.00     0.102 A 
ATOM      3  C   UNL     1      -2.063   5.130   4.936  1.00  0.00     0.063 A 
ATOM      4  C   UNL     1      -1.113   2.566   5.490  1.00  0.00     0.315 A 
ATOM      5  C   UNL     1      -1.813   4.238   3.892  1.00  0.00     0.165 A 
ATOM      6  C   UNL     1      -1.339   2.955   4.170  1.00  0.00     0.237 A 
ENDROOT
BRANCH   1   7
ATOM      7  C   UNL     1      -2.097   5.670   7.342  1.00  0.00     0.193 C 
ATOM      8  O   UNL     1      -3.102   6.391   7.246  1.00  0.00    -0.289 OA
BRANCH   7   9
ATOM      9  C   UNL     1      -1.230   5.772   8.505  1.00  0.00     0.023 A 
ATOM     10  C   UNL     1      -0.241   6.753   8.555  1.00  0.00     0.012 A 
ATOM     11  C   UNL     1      -1.389   4.888   9.572  1.00  0.00     0.012 A 
ATOM     12  C   UNL     1       0.590   6.850   9.671  1.00  0.00     0.004 A 
ATOM     13  C   UNL     1      -0.558   4.984  10.689  1.00  0.00     0.004 A 
ATOM     14  C   UNL     1       0.432   5.966  10.738  1.00  0.00    -0.051 A 
ATOM     15  C   UNL     1       1.321   6.069  11.930  1.00  0.00     0.044 C 
ENDBRANCH   7   9
ENDBRANCH   1   7
BRANCH   4  16
ATOM     16  N   UNL     1      -0.630   1.263   5.792  1.00  0.00     0.066 N 
ATOM     17  O   UNL     1      -1.065   0.676   6.811  1.00  0.00    -0.258 OA
ATOM     18  O   UNL     1       0.217   0.740   5.030  1.00  0.00    -0.258 OA
ENDBRANCH   4  16
BRANCH   5  19
ATOM     19  O   UNL     1      -2.038   4.632   2.608  1.00  0.00    -0.504 OA
ATOM     20  H   UNL     1      -2.961   4.447   2.368  1.00  0.00     0.293 HD
ENDBRANCH   5  19
BRANCH   6  21
ATOM     21  O   UNL     1      -1.099   2.091   3.141  1.00  0.00    -0.500 OA
ATOM     22  H   UNL     1      -1.292   2.528   2.297  1.00  0.00     0.294 HD
ENDBRANCH   6  21
TORSDOF 5
ENDMDL
MODEL 3
REMARK VINA RESULT:    -4.380      3.592      4.491
REMARK INTER + INTRA:          -6.134
REMARK INTER:                  -5.138
REMARK INTRA:                  -0.997
REMARK UNBOUND:                -0.731
REMARK SMILES Cc1ccc(C(=O)c2cc(O)c(O)c([N+](=O)[O-])c2)cc1
REMARK SMILES IDX 8 1 18 2 9 3 14 4 10 5 12 6 6 7 7 8 5 9 4 10 19 11 3 12
REMARK SMILES IDX 20 13 2 14 1 15 15 16 17 17 16 18 11 19 13 21
REMARK H PARENT 11 20 13 22
ROOT
ATOM      1  C   UNL     1      -1.178   5.322   9.580  1.00  0.00     0.033 A 
ATOM      2  C   UNL     1      -0.905   5.224   8.236  1.00  0.00     0.102 A 
ATOM      3  C   UNL     1      -1.833   4.339  10.283  1.00  0.00     0.063 A 
ATOM      4  C   UNL     1      -1.310   4.075   7.556  1.00  0.00     0.315 A 
ATOM      5  C   UNL     1      -2.239   3.191   9.603  1.00  0.00     0.165 A 
ATOM      6  C   UNL     1      -1.977   3.058   8.239  1.00  0.00     0.237 A 
ENDROOT
BRANCH   1   7
ATOM      7  C   UNL     1      -0.744   6.553  10.309  1.00  0.00     0.193 C 
ATOM      8  O   UNL     1      -1.423   7.579  10.147  1.00  0.00    -0.289 OA
BRANCH   7   9
ATOM      9  C   UNL     1       0.421   6.574  11.179  1.00  0.00     0.023 A 
ATOM     10  C   UNL     1       0.285   6.944  12.517  1.00  0.00     0.012 A 
ATOM     11  C   UNL     1       1.673   6.224  10.676  1.00  0.00     0.012 A 
ATOM     12  C   UNL     1       1.403   6.964  13.351  1.00  0.00     0.004 A 
ATOM     13  C   UNL     1       2.792   6.244  11.510  1.00  0.00     0.004 A 
ATOM     14  C   UNL     1       2.656   6.614  12.848  1.00  0.00    -0.051 A 
ATOM     15  C   UNL     1       3.851   6.637  13.740  1.00  0.00     0.044 C 
ENDBRANCH   7   9
ENDBRANCH   1   7
BRANCH   4  16
ATOM     16  N   UNL     1      -1.035   3.958   6.166  1.00  0.00     0.066 N 
ATOM     17  O   UNL     1      -1.889   3.419   5.422  1.00  0.00    -0.258 OA
ATOM     18  O   UNL     1       0.053   4.398   5.725  1.00  0.00    -0.258 OA
ENDBRANCH   4  16
BRANCH   5  19
ATOM     19  O   UNL     1      -2.889   2.205  10.284  1.00  0.00    -0.504 OA
ATOM     20  H   UNL     1      -2.240   1.597  10.674  1.00  0.00     0.293 HD
ENDBRANCH   5  19
BRANCH   6  21
ATOM     21  O   UNL     1      -2.378   1.930   7.585  1.00  0.00    -0.500 OA
ATOM     22  H   UNL     1      -2.572   1.231   8.229  1.00  0.00     0.294 HD
ENDBRANCH   6  21
TORSDOF 5
ENDMDL
MODEL 4
REMARK VINA RESULT:    -4.376      3.617      6.490
REMARK INTER + INTRA:          -6.130
REMARK INTER:                  -5.172
REMARK INTRA:                  -0.958
REMARK UNBOUND:                -0.731
REMARK SMILES Cc1ccc(C(=O)c2cc(O)c(O)c([N+](=O)[O-])c2)cc1
REMARK SMILES IDX 8 1 18 2 9 3 14 4 10 5 12 6 6 7 7 8 5 9 4 10 19 11 3 12
REMARK SMILES IDX 20 13 2 14 1 15 15 16 17 17 16 18 11 19 13 21
REMARK H PARENT 11 20 13 22
ROOT
ATOM      1  C   UNL     1      -1.132   5.597   9.477  1.00  0.00     0.033 A 
ATOM      2  C   UNL     1      -1.993   6.670   9.475  1.00  0.00     0.102 A 
ATOM      3  C   UNL     1      -0.101   5.469  10.379  1.00  0.00     0.063 A 
ATOM      4  C   UNL     1      -1.814   7.671  10.429  1.00  0.00     0.315 A 
ATOM      5  C   UNL     1       0.078   6.471  11.333  1.00  0.00     0.165 A 
ATOM      6  C   UNL     1      -0.778   7.572  11.358  1.00  0.00     0.237 A 
ENDROOT
BRANCH   1   7
ATOM      7  C   UNL     1      -1.323   4.524   8.455  1.00  0.00     0.193 C 
ATOM      8  O   UNL     1      -1.390   3.355   8.864  1.00  0.00    -0.289 OA
BRANCH   7   9
ATOM      9  C   UNL     1      -1.430   4.811   7.034  1.00  0.00     0.023 A 
ATOM     10  C   UNL     1      -2.499   4.301   6.298  1.00  0.00     0.012 A 
ATOM     11  C   UNL     1      -0.464   5.598   6.407  1.00  0.00     0.012 A 
ATOM     12  C   UNL     1      -2.602   4.577   4.934  1.00  0.00     0.004 A 
ATOM     13  C   UNL     1      -0.566   5.875   5.043  1.00  0.00     0.004 A 
ATOM     14  C   UNL     1      -1.636   5.364   4.306  1.00  0.00    -0.051 A 
ATOM     15  C   UNL     1      -1.745   5.657   2.849  1.00  0.00     0.044 C 
ENDBRANCH   7   9
ENDBRANCH   1   7
BRANCH   4  16
ATOM     16  N   UNL     1      -2.696   8.786  10.439  1.00  0.00     0.066 N 
ATOM     17  O   UNL     1      -3.199   9.171   9.355  1.00  0.00    -0.258 OA
ATOM     18  O   UNL     1      -2.947   9.351  11.529  1.00  0.00    -0.258 OA
ENDBRANCH   4  16
BRANCH   5  19
ATOM     19  O   UNL     1       1.094   6.361  12.234  1.00  0.00    -0.504 OA
ATOM     20  H   UNL     1       1.315   7.240  12.585  1.00  0.00     0.293 HD
ENDBRANCH   5  19
BRANCH   6  21
ATOM     21  O   UNL     1      -0.593   8.546  12.296  1.00  0.00    -0.500 OA
ATOM     22  H   UNL     1      -1.370   8.594  12.874  1.00  0.00     0.294 HD
ENDBRANCH   6  21
TORSDOF 5
ENDMDL
MODEL 5
REMARK VINA RESULT:    -4.369      3.680      6.884
REMARK INTER + INTRA:          -6.122
REMARK INTER:                  -5.198
REMARK INTRA:                  -0.923
REMARK UNBOUND:                -0.731
REMARK SMILES Cc1ccc(C(=O)c2cc(O)c(O)c([N+](=O)[O-])c2)cc1
REMARK SMILES IDX 8 1 18 2 9 3 14 4 10 5 12 6 6 7 7 8 5 9 4 10 19 11 3 12
REMARK SMILES IDX 20 13 2 14 1 15 15 16 17 17 16 18 11 19 13 21
REMARK H PARENT 11 20 13 22
ROOT
ATOM      1  C   UNL     1      -0.676   6.654   8.787  1.00  0.00     0.033 A 
ATOM      2  C   UNL     1      -1.666   7.534   9.158  1.00  0.00     0.102 A 
ATOM      3  C   UNL     1       0.315   6.240   9.644  1.00  0.00     0.063 A 
ATOM      4  C   UNL     1      -1.663   8.028  10.463  1.00  0.00     0.315 A 
ATOM      5  C   UNL     1       0.318   6.735  10.949  1.00  0.00     0.165 A 
ATOM      6  C   UNL     1      -0.672   7.629  11.358  1.00  0.00     0.237 A 
ENDROOT
BRANCH   1   7
ATOM      7  C   UNL     1      -0.679   6.124   7.390  1.00  0.00     0.193 C 
ATOM      8  O   UNL     1      -0.700   6.953   6.467  1.00  0.00    -0.289 OA
BRANCH   7   9
ATOM      9  C   UNL     1      -0.656   4.700   7.096  1.00  0.00     0.023 A 
ATOM     10  C   UNL     1       0.312   4.181   6.236  1.00  0.00     0.012 A 
ATOM     11  C   UNL     1      -1.602   3.854   7.673  1.00  0.00     0.012 A 
ATOM     12  C   UNL     1       0.333   2.815   5.954  1.00  0.00     0.004 A 
ATOM     13  C   UNL     1      -1.581   2.487   7.392  1.00  0.00     0.004 A 
ATOM     14  C   UNL     1      -0.613   1.967   6.532  1.00  0.00    -0.051 A 
ATOM     15  C   UNL     1      -0.590   0.508   6.229  1.00  0.00     0.044 C 
ENDBRANCH   7   9
ENDBRANCH   1   7
BRANCH   4  16
ATOM     16  N   UNL     1      -2.680   8.939  10.861  1.00  0.00     0.066 N 
ATOM     17  O   UNL     1      -3.766   8.949  10.233  1.00  0.00    -0.258 OA
ATOM     18  O   UNL     1      -2.462   9.705  11.829  1.00  0.00    -0.258 OA
ENDBRANCH   4  16
BRANCH   5  19
ATOM     19  O   UNL     1       1.293   6.336  11.813  1.00  0.00    -0.504 OA
ATOM     20  H   UNL     1       2.145   6.717  11.542  1.00  0.00     0.293 HD
ENDBRANCH   5  19
BRANCH   6  21
ATOM     21  O   UNL     1      -0.659   8.106  12.637  1.00  0.00    -0.500 OA
ATOM     22  H   UNL     1      -1.510   7.920  13.063  1.00  0.00     0.294 HD
ENDBRANCH   6  21
TORSDOF 5
ENDMDL
MODEL 6
REMARK VINA RESULT:    -4.348      3.737      6.972
REMARK INTER + INTRA:          -6.096
REMARK INTER:                  -5.121
REMARK INTRA:                  -0.975
REMARK UNBOUND:                -0.731
REMARK SMILES Cc1ccc(C(=O)c2cc(O)c(O)c([N+](=O)[O-])c2)cc1
REMARK SMILES IDX 8 1 18 2 9 3 14 4 10 5 12 6 6 7 7 8 5 9 4 10 19 11 3 12
REMARK SMILES IDX 20 13 2 14 1 15 15 16 17 17 16 18 11 19 13 21
REMARK H PARENT 11 20 13 22
ROOT
ATOM      1  C   UNL     1      -1.161   5.739   9.456  1.00  0.00     0.033 A 
ATOM      2  C   UNL     1      -0.108   5.720  10.341  1.00  0.00     0.102 A 
ATOM      3  C   UNL     1      -2.115   6.729   9.452  1.00  0.00     0.063 A 
ATOM      4  C   UNL     1      -0.002   6.752  11.274  1.00  0.00     0.315 A 
ATOM      5  C   UNL     1      -2.010   7.761  10.386  1.00  0.00     0.165 A 
ATOM      6  C   UNL     1      -0.952   7.772  11.296  1.00  0.00     0.237 A 
ENDROOT
BRANCH   1   7
ATOM      7  C   UNL     1      -1.275   4.634   8.457  1.00  0.00     0.193 C 
ATOM      8  O   UNL     1      -1.262   3.472   8.890  1.00  0.00    -0.289 OA
BRANCH   7   9
ATOM      9  C   UNL     1      -1.397   4.883   7.030  1.00  0.00     0.023 A 
ATOM     10  C   UNL     1      -2.464   4.337   6.315  1.00  0.00     0.012 A 
ATOM     11  C   UNL     1      -0.448   5.668   6.375  1.00  0.00     0.012 A 
ATOM     12  C   UNL     1      -2.581   4.577   4.946  1.00  0.00     0.004 A 
ATOM     13  C   UNL     1      -0.565   5.908   5.005  1.00  0.00     0.004 A 
ATOM     14  C   UNL     1      -1.632   5.362   4.291  1.00  0.00    -0.051 A 
ATOM     15  C   UNL     1      -1.757   5.616   2.827  1.00  0.00     0.044 C 
ENDBRANCH   7   9
ENDBRANCH   1   7
BRANCH   4  16
ATOM     16  N   UNL     1       1.082   6.747  12.194  1.00  0.00     0.066 N 
ATOM     17  O   UNL     1       2.161   6.202  11.857  1.00  0.00    -0.258 OA
ATOM     18  O   UNL     1       0.928   7.286  13.314  1.00  0.00    -0.258 OA
ENDBRANCH   4  16
BRANCH   5  19
ATOM     19  O   UNL     1      -2.945   8.751  10.396  1.00  0.00    -0.504 OA
ATOM     20  H   UNL     1      -3.691   8.500   9.825  1.00  0.00     0.293 HD
ENDBRANCH   5  19
BRANCH   6  21
ATOM     21  O   UNL     1      -0.860   8.787  12.204  1.00  0.00    -0.500 OA
ATOM     22  H   UNL     1      -0.979   9.638  11.755  1.00  0.00     0.294 HD
ENDBRANCH   6  21
TORSDOF 5
ENDMDL
MODEL 7
REMARK VINA RESULT:    -4.303      3.441      7.143
REMARK INTER + INTRA:          -6.040
REMARK INTER:                  -5.131
REMARK INTRA:                  -0.909
REMARK UNBOUND:                -0.731
REMARK SMILES Cc1ccc(C(=O)c2cc(O)c(O)c([N+](=O)[O-])c2)cc1
REMARK SMILES IDX 8 1 18 2 9 3 14 4 10 5 12 6 6 7 7 8 5 9 4 10 19 11 3 12
REMARK SMILES IDX 20 13 2 14 1 15 15 16 17 17 16 18 11 19 13 21
REMARK H PARENT 11 20 13 22
ROOT
ATOM      1  C   UNL     1      -0.736   6.748   8.514  1.00  0.00     0.033 A 
ATOM      2  C   UNL     1       0.089   6.315   9.526  1.00  0.00     0.102 A 
ATOM      3  C   UNL     1      -1.704   7.706   8.699  1.00  0.00     0.063 A 
ATOM      4  C   UNL     1      -0.062   6.873  10.795  1.00  0.00     0.315 A 
ATOM      5  C   UNL     1      -1.855   8.265   9.968  1.00  0.00     0.165 A 
ATOM      6  C   UNL     1      -1.034   7.849  11.017  1.00  0.00     0.237 A 
ENDROOT
BRANCH   1   7
ATOM      7  C   UNL     1      -0.574   6.149   7.155  1.00  0.00     0.193 C 
ATOM      8  O   UNL     1      -0.429   6.931   6.202  1.00  0.00    -0.289 OA
BRANCH   7   9
ATOM      9  C   UNL     1      -0.583   4.713   6.929  1.00  0.00     0.023 A 
ATOM     10  C   UNL     1       0.379   4.131   6.103  1.00  0.00     0.012 A 
ATOM     11  C   UNL     1      -1.552   3.917   7.539  1.00  0.00     0.012 A 
ATOM     12  C   UNL     1       0.370   2.753   5.887  1.00  0.00     0.004 A 
ATOM     13  C   UNL     1      -1.561   2.538   7.323  1.00  0.00     0.004 A 
ATOM     14  C   UNL     1      -0.599   1.956   6.497  1.00  0.00    -0.051 A 
ATOM     15  C   UNL     1      -0.609   0.484   6.265  1.00  0.00     0.044 C 
ENDBRANCH   7   9
ENDBRANCH   1   7
BRANCH   4  16
ATOM     16  N   UNL     1       0.784   6.436  11.851  1.00  0.00     0.066 N 
ATOM     17  O   UNL     1       1.205   5.254  11.840  1.00  0.00    -0.258 OA
ATOM     18  O   UNL     1       1.085   7.244  12.760  1.00  0.00    -0.258 OA
ENDBRANCH   4  16
BRANCH   5  19
ATOM     19  O   UNL     1      -2.809   9.217  10.170  1.00  0.00    -0.504 OA
ATOM     20  H   UNL     1      -3.567   8.825  10.635  1.00  0.00     0.293 HD
ENDBRANCH   5  19
BRANCH   6  21
ATOM     21  O   UNL     1      -1.191   8.403  12.254  1.00  0.00    -0.500 OA
ATOM     22  H   UNL     1      -1.450   7.716  12.888  1.00  0.00     0.294 HD
ENDBRANCH   6  21
TORSDOF 5
ENDMDL
MODEL 8
REMARK VINA RESULT:    -4.185      1.901      2.285
REMARK INTER + INTRA:          -5.894
REMARK INTER:                  -5.220
REMARK INTRA:                  -0.674
REMARK UNBOUND:                -0.731
REMARK SMILES Cc1ccc(C(=O)c2cc(O)c(O)c([N+](=O)[O-])c2)cc1
REMARK SMILES IDX 8 1 18 2 9 3 14 4 10 5 12 6 6 7 7 8 5 9 4 10 19 11 3 12
REMARK SMILES IDX 20 13 2 14 1 15 15 16 17 17 16 18 11 19 13 21
REMARK H PARENT 11 20 13 22
ROOT
ATOM      1  C   UNL     1      -1.714   4.866   6.580  1.00  0.00     0.033 A 
ATOM      2  C   UNL     1      -1.938   5.323   5.302  1.00  0.00     0.102 A 
ATOM      3  C   UNL     1      -1.310   3.581   6.854  1.00  0.00     0.063 A 
ATOM      4  C   UNL     1      -1.745   4.444   4.236  1.00  0.00     0.315 A 
ATOM      5  C   UNL     1      -1.118   2.701   5.788  1.00  0.00     0.165 A 
ATOM      6  C   UNL     1      -1.335   3.133   4.479  1.00  0.00     0.237 A 
ENDROOT
BRANCH   1   7
ATOM      7  C   UNL     1      -1.921   5.808   7.722  1.00  0.00     0.193 C 
ATOM      8  O   UNL     1      -2.908   6.557   7.670  1.00  0.00    -0.289 OA
BRANCH   7   9
ATOM      9  C   UNL     1      -1.017   5.864   8.859  1.00  0.00     0.023 A 
ATOM     10  C   UNL     1      -1.180   4.978   9.924  1.00  0.00     0.012 A 
ATOM     11  C   UNL     1       0.013   6.804   8.886  1.00  0.00     0.012 A 
ATOM     12  C   UNL     1      -0.313   5.032  11.015  1.00  0.00     0.004 A 
ATOM     13  C   UNL     1       0.882   6.858   9.977  1.00  0.00     0.004 A 
ATOM     14  C   UNL     1       0.718   5.972  11.042  1.00  0.00    -0.051 A 
ATOM     15  C   UNL     1       1.644   6.030  12.209  1.00  0.00     0.044 C 
ENDBRANCH   7   9
ENDBRANCH   1   7
BRANCH   4  16
ATOM     16  N   UNL     1      -1.971   4.902   2.909  1.00  0.00     0.066 N 
ATOM     17  O   UNL     1      -1.284   5.856   2.472  1.00  0.00    -0.258 OA
ATOM     18  O   UNL     1      -2.850   4.339   2.216  1.00  0.00    -0.258 OA
ENDBRANCH   4  16
BRANCH   5  19
ATOM     19  O   UNL     1      -0.717   1.424   6.040  1.00  0.00    -0.504 OA
ATOM     20  H   UNL     1       0.059   1.213   5.495  1.00  0.00     0.293 HD
ENDBRANCH   5  19
BRANCH   6  21
ATOM     21  O   UNL     1      -1.143   2.264   3.445  1.00  0.00    -0.500 OA
ATOM     22  H   UNL     1      -1.626   2.574   2.663  1.00  0.00     0.294 HD
ENDBRANCH   6  21
TORSDOF 5
ENDMDL
MODEL 9
REMARK VINA RESULT:    -4.175      1.230      2.697
REMARK INTER + INTRA:          -5.882
REMARK INTER:                  -5.212
REMARK INTRA:                  -0.670
REMARK UNBOUND:                -0.731
REMARK SMILES Cc1ccc(C(=O)c2cc(O)c(O)c([N+](=O)[O-])c2)cc1
REMARK SMILES IDX 8 1 18 2 9 3 14 4 10 5 12 6 6 7 7 8 5 9 4 10 19 11 3 12
REMARK SMILES IDX 20 13 2 14 1 15 15 16 17 17 16 18 11 19 13 21
REMARK H PARENT 11 20 13 22
ROOT
ATOM      1  C   UNL     1      -0.353   4.254   6.889  1.00  0.00     0.033 A 
ATOM      2  C   UNL     1      -0.212   2.887   6.833  1.00  0.00     0.102 A 
ATOM      3  C   UNL     1      -0.799   5.003   5.826  1.00  0.00     0.063 A 
ATOM      4  C   UNL     1      -0.538   2.231   5.645  1.00  0.00     0.315 A 
ATOM      5  C   UNL     1      -1.124   4.347   4.638  1.00  0.00     0.165 A 
ATOM      6  C   UNL     1      -0.994   2.961   4.548  1.00  0.00     0.237 A 
ENDROOT
BRANCH   1   7
ATOM      7  C   UNL     1      -0.004   4.957   8.160  1.00  0.00     0.193 C 
ATOM      8  O   UNL     1       1.023   4.589   8.751  1.00  0.00    -0.289 OA
BRANCH   7   9
ATOM      9  C   UNL     1      -0.817   6.032   8.705  1.00  0.00     0.023 A 
ATOM     10  C   UNL     1      -1.778   5.756   9.678  1.00  0.00     0.012 A 
ATOM     11  C   UNL     1      -0.636   7.340   8.256  1.00  0.00     0.012 A 
ATOM     12  C   UNL     1      -2.557   6.787  10.201  1.00  0.00     0.004 A 
ATOM     13  C   UNL     1      -1.415   8.373   8.779  1.00  0.00     0.004 A 
ATOM     14  C   UNL     1      -2.376   8.096   9.752  1.00  0.00    -0.051 A 
ATOM     15  C   UNL     1      -3.211   9.198  10.310  1.00  0.00     0.044 C 
ENDBRANCH   7   9
ENDBRANCH   1   7
BRANCH   4  16
ATOM     16  N   UNL     1      -0.398   0.818   5.572  1.00  0.00     0.066 N 
ATOM     17  O   UNL     1       0.396   0.330   4.732  1.00  0.00    -0.258 OA
ATOM     18  O   UNL     1      -1.071   0.102   6.350  1.00  0.00    -0.258 OA
ENDBRANCH   4  16
BRANCH   5  19
ATOM     19  O   UNL     1      -1.569   5.073   3.574  1.00  0.00    -0.504 OA
ATOM     20  H   UNL     1      -1.601   4.507   2.785  1.00  0.00     0.293 HD
ENDBRANCH   5  19
BRANCH   6  21
ATOM     21  O   UNL     1      -1.315   2.331   3.381  1.00  0.00    -0.500 OA
ATOM     22  H   UNL     1      -0.989   1.418   3.402  1.00  0.00     0.294 HD
ENDBRANCH   6  21
TORSDOF 5
ENDMDL
