MODEL 1
REMARK VINA RESULT:    -5.028      0.000      0.000
REMARK INTER + INTRA:          -6.969
REMARK INTER:                  -6.204
REMARK INTRA:                  -0.765
REMARK UNBOUND:                -0.765
REMARK SMILES Cc1ccc(C(=O)c2cc(O)c(O)c([N+](=O)[O-])c2)cc1
REMARK SMILES IDX 8 1 18 2 9 3 14 4 10 5 12 6 6 7 7 8 5 9 4 10 19 11 3 12
REMARK SMILES IDX 20 13 2 14 1 15 15 16 17 17 16 18 11 19 13 21
REMARK H PARENT 11 20 13 22
ROOT
ATOM      1  C   UNL     1      -6.727   4.896  -2.071  1.00  0.00     0.033 A 
ATOM      2  C   UNL     1      -7.084   4.341  -0.865  1.00  0.00     0.102 A 
ATOM      3  C   UNL     1      -5.526   4.633  -2.687  1.00  0.00     0.063 A 
ATOM      4  C   UNL     1      -6.190   3.472  -0.239  1.00  0.00     0.315 A 
ATOM      5  C   UNL     1      -4.632   3.765  -2.062  1.00  0.00     0.165 A 
ATOM      6  C   UNL     1      -4.964   3.183  -0.837  1.00  0.00     0.237 A 
ENDROOT
BRANCH   1   7
ATOM      7  C   UNL     1      -7.684   5.827  -2.741  1.00  0.00     0.193 C 
ATOM      8  O   UNL     1      -7.696   5.836  -3.981  1.00  0.00    -0.289 OA
BRANCH   7   9
ATOM      9  C   UNL     1      -8.577   6.698  -1.993  1.00  0.00     0.023 A 
ATOM     10  C   UNL     1      -8.202   8.014  -1.721  1.00  0.00     0.012 A 
ATOM     11  C   UNL     1      -9.809   6.218  -1.549  1.00  0.00     0.012 A 
ATOM     12  C   UNL     1      -9.059   8.848  -1.004  1.00  0.00     0.004 A 
ATOM     13  C   UNL     1     -10.667   7.053  -0.832  1.00  0.00     0.004 A 
ATOM     14  C   UNL     1     -10.292   8.368  -0.559  1.00  0.00    -0.051 A 
ATOM     15  C   UNL     1     -11.207   9.261   0.208  1.00  0.00     0.044 C 
ENDBRANCH   7   9
ENDBRANCH   1   7
BRANCH   4  16
ATOM     16  N   UNL     1      -6.546   2.889   1.008  1.00  0.00     0.066 N 
ATOM     17  O   UNL     1      -5.636   2.584   1.816  1.00  0.00    -0.258 OA
ATOM     18  O   UNL     1      -7.758   2.699   1.264  1.00  0.00    -0.258 OA
ENDBRANCH   4  16
BRANCH   5  19
ATOM     19  O   UNL     1      -3.437   3.492  -2.658  1.00  0.00    -0.504 OA
ATOM     20  H   UNL     1      -3.542   2.744  -3.269  1.00  0.00     0.293 HD
ENDBRANCH   5  19
BRANCH   6  21
ATOM     21  O   UNL     1      -4.081   2.334  -0.236  1.00  0.00    -0.500 OA
ATOM     22  H   UNL     1      -4.323   1.417  -0.435  1.00  0.00     0.294 HD
ENDBRANCH   6  21
TORSDOF 5
ENDMDL
MODEL 2
REMARK VINA RESULT:    -4.975      2.012      3.541
REMARK INTER + INTRA:          -6.904
REMARK INTER:                  -6.132
REMARK INTRA:                  -0.772
REMARK UNBOUND:                -0.765
REMARK SMILES Cc1ccc(C(=O)c2cc(O)c(O)c([N+](=O)[O-])c2)cc1
REMARK SMILES IDX 8 1 18 2 9 3 14 4 10 5 12 6 6 7 7 8 5 9 4 10 19 11 3 12
REMARK SMILES IDX 20 13 2 14 1 15 15 16 17 17 16 18 11 19 13 21
REMARK H PARENT 11 20 13 22
ROOT
ATOM      1  C   UNL     1      -6.883   5.326  -0.327  1.00  0.00     0.033 A 
ATOM      2  C   UNL     1      -5.916   5.383  -1.304  1.00  0.00     0.102 A 
ATOM      3  C   UNL     1      -6.956   4.308   0.593  1.00  0.00     0.063 A 
ATOM      4  C   UNL     1      -4.966   4.363  -1.362  1.00  0.00     0.315 A 
ATOM      5  C   UNL     1      -6.007   3.287   0.534  1.00  0.00     0.165 A 
ATOM      6  C   UNL     1      -5.011   3.315  -0.444  1.00  0.00     0.237 A 
ENDROOT
BRANCH   1   7
ATOM      7  C   UNL     1      -7.900   6.419  -0.264  1.00  0.00     0.193 C 
ATOM      8  O   UNL     1      -8.237   6.819   0.860  1.00  0.00    -0.289 OA
BRANCH   7   9
ATOM      9  C   UNL     1      -8.487   7.008  -1.458  1.00  0.00     0.023 A 
ATOM     10  C   UNL     1      -9.706   6.533  -1.942  1.00  0.00     0.012 A 
ATOM     11  C   UNL     1      -7.831   8.047  -2.117  1.00  0.00     0.012 A 
ATOM     12  C   UNL     1     -10.268   7.099  -3.087  1.00  0.00     0.004 A 
ATOM     13  C   UNL     1      -8.393   8.613  -3.262  1.00  0.00     0.004 A 
ATOM     14  C   UNL     1      -9.612   8.139  -3.747  1.00  0.00    -0.051 A 
ATOM     15  C   UNL     1     -10.214   8.741  -4.971  1.00  0.00     0.044 C 
ENDBRANCH   7   9
ENDBRANCH   1   7
BRANCH   4  16
ATOM     16  N   UNL     1      -3.960   4.409  -2.366  1.00  0.00     0.066 N 
ATOM     17  O   UNL     1      -3.607   3.339  -2.919  1.00  0.00    -0.258 OA
ATOM     18  O   UNL     1      -3.456   5.515  -2.669  1.00  0.00    -0.258 OA
ENDBRANCH   4  16
BRANCH   5  19
ATOM     19  O   UNL     1      -6.063   2.269   1.438  1.00  0.00    -0.504 OA
ATOM     20  H   UNL     1      -6.531   1.512   1.048  1.00  0.00     0.293 HD
ENDBRANCH   5  19
BRANCH   6  21
ATOM     21  O   UNL     1      -4.088   2.311  -0.491  1.00  0.00    -0.500 OA
ATOM     22  H   UNL     1      -4.209   1.721   0.270  1.00  0.00     0.294 HD
ENDBRANCH   6  21
TORSDOF 5
ENDMDL
MODEL 3
REMARK VINA RESULT:    -4.522      1.798      2.062
REMARK INTER + INTRA:          -6.344
REMARK INTER:                  -5.882
REMARK INTRA:                  -0.463
REMARK UNBOUND:                -0.765
REMARK SMILES Cc1ccc(C(=O)c2cc(O)c(O)c([N+](=O)[O-])c2)cc1
REMARK SMILES IDX 8 1 18 2 9 3 14 4 10 5 12 6 6 7 7 8 5 9 4 10 19 11 3 12
REMARK SMILES IDX 20 13 2 14 1 15 15 16 17 17 16 18 11 19 13 21
REMARK H PARENT 11 20 13 22
ROOT
ATOM      1  C   UNL     1      -5.423   5.499  -1.072  1.00  0.00     0.033 A 
ATOM      2  C   UNL     1      -5.925   4.727  -0.050  1.00  0.00     0.102 A 
ATOM      3  C   UNL     1      -4.564   5.007  -2.027  1.00  0.00     0.063 A 
ATOM      4  C   UNL     1      -5.547   3.386   0.021  1.00  0.00     0.315 A 
ATOM      5  C   UNL     1      -4.185   3.666  -1.955  1.00  0.00     0.165 A 
ATOM      6  C   UNL     1      -4.677   2.855  -0.932  1.00  0.00     0.237 A 
ENDROOT
BRANCH   1   7
ATOM      7  C   UNL     1      -5.827   6.935  -1.148  1.00  0.00     0.193 C 
ATOM      8  O   UNL     1      -5.050   7.771  -0.664  1.00  0.00    -0.289 OA
BRANCH   7   9
ATOM      9  C   UNL     1      -7.075   7.362  -1.761  1.00  0.00     0.023 A 
ATOM     10  C   UNL     1      -7.127   8.558  -2.478  1.00  0.00     0.012 A 
ATOM     11  C   UNL     1      -8.220   6.576  -1.631  1.00  0.00     0.012 A 
ATOM     12  C   UNL     1      -8.324   8.967  -3.065  1.00  0.00     0.004 A 
ATOM     13  C   UNL     1      -9.418   6.985  -2.219  1.00  0.00     0.004 A 
ATOM     14  C   UNL     1      -9.470   8.181  -2.936  1.00  0.00    -0.051 A 
ATOM     15  C   UNL     1     -10.750   8.620  -3.563  1.00  0.00     0.044 C 
ENDBRANCH   7   9
ENDBRANCH   1   7
BRANCH   4  16
ATOM     16  N   UNL     1      -6.058   2.576   1.071  1.00  0.00     0.066 N 
ATOM     17  O   UNL     1      -7.176   2.026   0.923  1.00  0.00    -0.258 OA
ATOM     18  O   UNL     1      -5.377   2.434   2.113  1.00  0.00    -0.258 OA
ENDBRANCH   4  16
BRANCH   5  19
ATOM     19  O   UNL     1      -3.336   3.161  -2.893  1.00  0.00    -0.504 OA
ATOM     20  H   UNL     1      -3.847   2.728  -3.597  1.00  0.00     0.293 HD
ENDBRANCH   5  19
BRANCH   6  21
ATOM     21  O   UNL     1      -4.300   1.545  -0.873  1.00  0.00    -0.500 OA
ATOM     22  H   UNL     1      -3.340   1.487  -0.747  1.00  0.00     0.294 HD
ENDBRANCH   6  21
TORSDOF 5
ENDMDL
MODEL 4
REMARK VINA RESULT:    -4.466      1.638      2.961
REMARK INTER + INTRA:          -6.276
REMARK INTER:                  -5.619
REMARK INTRA:                  -0.657
REMARK UNBOUND:                -0.765
REMARK SMILES Cc1ccc(C(=O)c2cc(O)c(O)c([N+](=O)[O-])c2)cc1
REMARK SMILES IDX 8 1 18 2 9 3 14 4 10 5 12 6 6 7 7 8 5 9 4 10 19 11 3 12
REMARK SMILES IDX 20 13 2 14 1 15 15 16 17 17 16 18 11 19 13 21
REMARK H PARENT 11 20 13 22
ROOT
ATOM      1  C   UNL     1      -7.317   3.787  -1.059  1.00  0.00     0.033 A 
ATOM      2  C   UNL     1      -6.315   3.980  -1.982  1.00  0.00     0.102 A 
ATOM      3  C   UNL     1      -7.086   3.280   0.197  1.00  0.00     0.063 A 
ATOM      4  C   UNL     1      -5.008   3.647  -1.627  1.00  0.00     0.315 A 
ATOM      5  C   UNL     1      -5.779   2.947   0.553  1.00  0.00     0.165 A 
ATOM      6  C   UNL     1      -4.739   3.131  -0.360  1.00  0.00     0.237 A 
ENDROOT
BRANCH   1   7
ATOM      7  C   UNL     1      -8.717   4.143  -1.440  1.00  0.00     0.193 C 
ATOM      8  O   UNL     1      -9.445   3.227  -1.853  1.00  0.00    -0.289 OA
BRANCH   7   9
ATOM      9  C   UNL     1      -9.232   5.499  -1.339  1.00  0.00     0.023 A 
ATOM     10  C   UNL     1      -8.380   6.585  -1.543  1.00  0.00     0.012 A 
ATOM     11  C   UNL     1     -10.576   5.714  -1.038  1.00  0.00     0.012 A 
ATOM     12  C   UNL     1      -8.874   7.886  -1.446  1.00  0.00     0.004 A 
ATOM     13  C   UNL     1     -11.071   7.016  -0.941  1.00  0.00     0.004 A 
ATOM     14  C   UNL     1     -10.220   8.102  -1.146  1.00  0.00    -0.051 A 
ATOM     15  C   UNL     1     -10.747   9.492  -1.041  1.00  0.00     0.044 C 
ENDBRANCH   7   9
ENDBRANCH   1   7
BRANCH   4  16
ATOM     16  N   UNL     1      -3.962   3.842  -2.571  1.00  0.00     0.066 N 
ATOM     17  O   UNL     1      -3.744   4.998  -3.005  1.00  0.00    -0.258 OA
ATOM     18  O   UNL     1      -3.288   2.852  -2.940  1.00  0.00    -0.258 OA
ENDBRANCH   4  16
BRANCH   5  19
ATOM     19  O   UNL     1      -5.531   2.443   1.794  1.00  0.00    -0.504 OA
ATOM     20  H   UNL     1      -6.345   2.055   2.157  1.00  0.00     0.293 HD
ENDBRANCH   5  19
BRANCH   6  21
ATOM     21  O   UNL     1      -3.464   2.802  -0.001  1.00  0.00    -0.500 OA
ATOM     22  H   UNL     1      -2.834   3.314  -0.530  1.00  0.00     0.294 HD
ENDBRANCH   6  21
TORSDOF 5
ENDMDL
MODEL 5
REMARK VINA RESULT:    -4.430      3.649      4.490
REMARK INTER + INTRA:          -6.231
REMARK INTER:                  -5.250
REMARK INTRA:                  -0.982
REMARK UNBOUND:                -0.765
REMARK SMILES Cc1ccc(C(=O)c2cc(O)c(O)c([N+](=O)[O-])c2)cc1
REMARK SMILES IDX 8 1 18 2 9 3 14 4 10 5 12 6 6 7 7 8 5 9 4 10 19 11 3 12
REMARK SMILES IDX 20 13 2 14 1 15 15 16 17 17 16 18 11 19 13 21
REMARK H PARENT 11 20 13 22
ROOT
ATOM      1  C   UNL     1      -8.406   7.972  -2.181  1.00  0.00     0.033 A 
ATOM      2  C   UNL     1      -8.211   6.667  -1.792  1.00  0.00     0.102 A 
ATOM      3  C   UNL     1      -7.376   8.871  -2.322  1.00  0.00     0.063 A 
ATOM      4  C   UNL     1      -6.910   6.237  -1.528  1.00  0.00     0.315 A 
ATOM      5  C   UNL     1      -6.075   8.441  -2.058  1.00  0.00     0.165 A 
ATOM      6  C   UNL     1      -5.842   7.124  -1.661  1.00  0.00     0.237 A 
ENDROOT
BRANCH   1   7
ATOM      7  C   UNL     1      -9.799   8.432  -2.463  1.00  0.00     0.193 C 
ATOM      8  O   UNL     1     -10.524   8.682  -1.488  1.00  0.00    -0.289 OA
BRANCH   7   9
ATOM      9  C   UNL     1     -10.309   8.591  -3.816  1.00  0.00     0.023 A 
ATOM     10  C   UNL     1     -10.865   9.807  -4.214  1.00  0.00     0.012 A 
ATOM     11  C   UNL     1     -10.243   7.527  -4.715  1.00  0.00     0.012 A 
ATOM     12  C   UNL     1     -11.354   9.958  -5.511  1.00  0.00     0.004 A 
ATOM     13  C   UNL     1     -10.732   7.678  -6.013  1.00  0.00     0.004 A 
ATOM     14  C   UNL     1     -11.288   8.894  -6.412  1.00  0.00    -0.051 A 
ATOM     15  C   UNL     1     -11.812   9.056  -7.798  1.00  0.00     0.044 C 
ENDBRANCH   7   9
ENDBRANCH   1   7
BRANCH   4  16
ATOM     16  N   UNL     1      -6.693   4.891  -1.125  1.00  0.00     0.066 N 
ATOM     17  O   UNL     1      -5.835   4.655  -0.240  1.00  0.00    -0.258 OA
ATOM     18  O   UNL     1      -7.364   3.981  -1.664  1.00  0.00    -0.258 OA
ENDBRANCH   4  16
BRANCH   5  19
ATOM     19  O   UNL     1      -5.041   9.319  -2.192  1.00  0.00    -0.504 OA
ATOM     20  H   UNL     1      -5.377  10.229  -2.136  1.00  0.00     0.293 HD
ENDBRANCH   5  19
BRANCH   6  21
ATOM     21  O   UNL     1      -4.565   6.715  -1.407  1.00  0.00    -0.500 OA
ATOM     22  H   UNL     1      -3.939   7.300  -1.861  1.00  0.00     0.294 HD
ENDBRANCH   6  21
TORSDOF 5
ENDMDL
MODEL 6
REMARK VINA RESULT:    -4.371      3.651      6.562
REMARK INTER + INTRA:          -6.158
REMARK INTER:                  -5.175
REMARK INTRA:                  -0.983
REMARK UNBOUND:                -0.765
REMARK SMILES Cc1ccc(C(=O)c2cc(O)c(O)c([N+](=O)[O-])c2)cc1
REMARK SMILES IDX 8 1 18 2 9 3 14 4 10 5 12 6 6 7 7 8 5 9 4 10 19 11 3 12
REMARK SMILES IDX 20 13 2 14 1 15 15 16 17 17 16 18 11 19 13 21
REMARK H PARENT 11 20 13 22
ROOT
ATOM      1  C   UNL     1      -8.591   7.831  -2.032  1.00  0.00     0.033 A 
ATOM      2  C   UNL     1      -9.310   8.241  -0.933  1.00  0.00     0.102 A 
ATOM      3  C   UNL     1      -8.981   8.103  -3.322  1.00  0.00     0.063 A 
ATOM      4  C   UNL     1     -10.484   8.965  -1.136  1.00  0.00     0.315 A 
ATOM      5  C   UNL     1     -10.156   8.827  -3.525  1.00  0.00     0.165 A 
ATOM      6  C   UNL     1     -10.908   9.258  -2.432  1.00  0.00     0.237 A 
ENDROOT
BRANCH   1   7
ATOM      7  C   UNL     1      -7.333   7.056  -1.815  1.00  0.00     0.193 C 
ATOM      8  O   UNL     1      -6.304   7.474  -2.367  1.00  0.00    -0.289 OA
BRANCH   7   9
ATOM      9  C   UNL     1      -7.288   5.857  -0.993  1.00  0.00     0.023 A 
ATOM     10  C   UNL     1      -8.168   4.805  -1.246  1.00  0.00     0.012 A 
ATOM     11  C   UNL     1      -6.365   5.758   0.047  1.00  0.00     0.012 A 
ATOM     12  C   UNL     1      -8.125   3.655  -0.459  1.00  0.00     0.004 A 
ATOM     13  C   UNL     1      -6.321   4.608   0.836  1.00  0.00     0.004 A 
ATOM     14  C   UNL     1      -7.201   3.556   0.583  1.00  0.00    -0.051 A 
ATOM     15  C   UNL     1      -7.156   2.327   1.425  1.00  0.00     0.044 C 
ENDBRANCH   7   9
ENDBRANCH   1   7
BRANCH   4  16
ATOM     16  N   UNL     1     -11.238   9.396  -0.009  1.00  0.00     0.066 N 
ATOM     17  O   UNL     1     -11.220   8.699   1.034  1.00  0.00    -0.258 OA
ATOM     18  O   UNL     1     -11.896  10.459  -0.091  1.00  0.00    -0.258 OA
ENDBRANCH   4  16
BRANCH   5  19
ATOM     19  O   UNL     1     -10.558   9.106  -4.797  1.00  0.00    -0.504 OA
ATOM     20  H   UNL     1     -11.199   8.438  -5.090  1.00  0.00     0.293 HD
ENDBRANCH   5  19
BRANCH   6  21
ATOM     21  O   UNL     1     -12.056   9.966  -2.644  1.00  0.00    -0.500 OA
ATOM     22  H   UNL     1     -11.839  10.833  -3.020  1.00  0.00     0.294 HD
ENDBRANCH   6  21
TORSDOF 5
ENDMDL
MODEL 7
REMARK VINA RESULT:    -4.366      3.708      6.902
REMARK INTER + INTRA:          -6.152
REMARK INTER:                  -5.173
REMARK INTRA:                  -0.980
REMARK UNBOUND:                -0.765
REMARK SMILES Cc1ccc(C(=O)c2cc(O)c(O)c([N+](=O)[O-])c2)cc1
REMARK SMILES IDX 8 1 18 2 9 3 14 4 10 5 12 6 6 7 7 8 5 9 4 10 19 11 3 12
REMARK SMILES IDX 20 13 2 14 1 15 15 16 17 17 16 18 11 19 13 21
REMARK H PARENT 11 20 13 22
ROOT
ATOM      1  C   UNL     1      -9.579   6.984  -1.833  1.00  0.00     0.033 A 
ATOM      2  C   UNL     1     -10.185   7.779  -0.888  1.00  0.00     0.102 A 
ATOM      3  C   UNL     1      -9.631   7.254  -3.180  1.00  0.00     0.063 A 
ATOM      4  C   UNL     1     -10.881   8.910  -1.316  1.00  0.00     0.315 A 
ATOM      5  C   UNL     1     -10.327   8.384  -3.608  1.00  0.00     0.165 A 
ATOM      6  C   UNL     1     -10.952   9.213  -2.675  1.00  0.00     0.237 A 
ENDROOT
BRANCH   1   7
ATOM      7  C   UNL     1      -8.833   5.773  -1.375  1.00  0.00     0.193 C 
ATOM      8  O   UNL     1      -9.443   4.968  -0.654  1.00  0.00    -0.289 OA
BRANCH   7   9
ATOM      9  C   UNL     1      -7.450   5.523  -1.746  1.00  0.00     0.023 A 
ATOM     10  C   UNL     1      -7.098   4.319  -2.359  1.00  0.00     0.012 A 
ATOM     11  C   UNL     1      -6.474   6.486  -1.490  1.00  0.00     0.012 A 
ATOM     12  C   UNL     1      -5.771   4.080  -2.714  1.00  0.00     0.004 A 
ATOM     13  C   UNL     1      -5.146   6.246  -1.846  1.00  0.00     0.004 A 
ATOM     14  C   UNL     1      -4.795   5.043  -2.459  1.00  0.00    -0.051 A 
ATOM     15  C   UNL     1      -3.376   4.786  -2.838  1.00  0.00     0.044 C 
ENDBRANCH   7   9
ENDBRANCH   1   7
BRANCH   4  16
ATOM     16  N   UNL     1     -11.512   9.742  -0.351  1.00  0.00     0.066 N 
ATOM     17  O   UNL     1     -12.534  10.389  -0.684  1.00  0.00    -0.258 OA
ATOM     18  O   UNL     1     -11.029   9.805   0.804  1.00  0.00    -0.258 OA
ENDBRANCH   4  16
BRANCH   5  19
ATOM     19  O   UNL     1     -10.389   8.668  -4.939  1.00  0.00    -0.504 OA
ATOM     20  H   UNL     1      -9.695   9.309  -5.167  1.00  0.00     0.293 HD
ENDBRANCH   5  19
BRANCH   6  21
ATOM     21  O   UNL     1     -11.630  10.316  -3.106  1.00  0.00    -0.500 OA
ATOM     22  H   UNL     1     -11.134  10.746  -3.820  1.00  0.00     0.294 HD
ENDBRANCH   6  21
TORSDOF 5
ENDMDL
MODEL 8
REMARK VINA RESULT:    -4.350      3.514      7.139
REMARK INTER + INTRA:          -6.133
REMARK INTER:                  -5.146
REMARK INTRA:                  -0.987
REMARK UNBOUND:                -0.765
REMARK SMILES Cc1ccc(C(=O)c2cc(O)c(O)c([N+](=O)[O-])c2)cc1
REMARK SMILES IDX 8 1 18 2 9 3 14 4 10 5 12 6 6 7 7 8 5 9 4 10 19 11 3 12
REMARK SMILES IDX 20 13 2 14 1 15 15 16 17 17 16 18 11 19 13 21
REMARK H PARENT 11 20 13 22
ROOT
ATOM      1  C   UNL     1      -9.601   6.943  -1.781  1.00  0.00     0.033 A 
ATOM      2  C   UNL     1      -9.653   7.257  -3.120  1.00  0.00     0.102 A 
ATOM      3  C   UNL     1     -10.208   7.705  -0.812  1.00  0.00     0.063 A 
ATOM      4  C   UNL     1     -10.353   8.397  -3.511  1.00  0.00     0.315 A 
ATOM      5  C   UNL     1     -10.909   8.847  -1.203  1.00  0.00     0.165 A 
ATOM      6  C   UNL     1     -10.982   9.193  -2.553  1.00  0.00     0.237 A 
ENDROOT
BRANCH   1   7
ATOM      7  C   UNL     1      -8.850   5.721  -1.362  1.00  0.00     0.193 C 
ATOM      8  O   UNL     1      -9.456   4.892  -0.667  1.00  0.00    -0.289 OA
BRANCH   7   9
ATOM      9  C   UNL     1      -7.465   5.489  -1.740  1.00  0.00     0.023 A 
ATOM     10  C   UNL     1      -6.499   6.461  -1.479  1.00  0.00     0.012 A 
ATOM     11  C   UNL     1      -7.103   4.295  -2.363  1.00  0.00     0.012 A 
ATOM     12  C   UNL     1      -5.171   6.238  -1.842  1.00  0.00     0.004 A 
ATOM     13  C   UNL     1      -5.774   4.071  -2.725  1.00  0.00     0.004 A 
ATOM     14  C   UNL     1      -4.808   5.043  -2.465  1.00  0.00    -0.051 A 
ATOM     15  C   UNL     1      -3.388   4.806  -2.853  1.00  0.00     0.044 C 
ENDBRANCH   7   9
ENDBRANCH   1   7
BRANCH   4  16
ATOM     16  N   UNL     1     -10.416   8.734  -4.891  1.00  0.00     0.066 N 
ATOM     17  O   UNL     1      -9.457   8.418  -5.636  1.00  0.00    -0.258 OA
ATOM     18  O   UNL     1     -11.427   9.335  -5.322  1.00  0.00    -0.258 OA
ENDBRANCH   4  16
BRANCH   5  19
ATOM     19  O   UNL     1     -11.518   9.614  -0.256  1.00  0.00    -0.504 OA
ATOM     20  H   UNL     1     -11.064   9.503   0.595  1.00  0.00     0.293 HD
ENDBRANCH   5  19
BRANCH   6  21
ATOM     21  O   UNL     1     -11.670  10.311  -2.923  1.00  0.00    -0.500 OA
ATOM     22  H   UNL     1     -12.498  10.055  -3.360  1.00  0.00     0.294 HD
ENDBRANCH   6  21
TORSDOF 5
ENDMDL
MODEL 9
REMARK VINA RESULT:    -4.223      1.298      2.922
REMARK INTER + INTRA:          -5.976
REMARK INTER:                  -5.311
REMARK INTRA:                  -0.666
REMARK UNBOUND:                -0.765
REMARK SMILES Cc1ccc(C(=O)c2cc(O)c(O)c([N+](=O)[O-])c2)cc1
REMARK SMILES IDX 8 1 18 2 9 3 14 4 10 5 12 6 6 7 7 8 5 9 4 10 19 11 3 12
REMARK SMILES IDX 20 13 2 14 1 15 15 16 17 17 16 18 11 19 13 21
REMARK H PARENT 11 20 13 22
ROOT
ATOM      1  C   UNL     1      -7.265   5.313  -1.935  1.00  0.00     0.033 A 
ATOM      2  C   UNL     1      -6.001   5.204  -2.465  1.00  0.00     0.102 A 
ATOM      3  C   UNL     1      -7.702   4.545  -0.882  1.00  0.00     0.063 A 
ATOM      4  C   UNL     1      -5.123   4.273  -1.909  1.00  0.00     0.315 A 
ATOM      5  C   UNL     1      -6.824   3.613  -0.326  1.00  0.00     0.165 A 
ATOM      6  C   UNL     1      -5.534   3.478  -0.840  1.00  0.00     0.237 A 
ENDROOT
BRANCH   1   7
ATOM      7  C   UNL     1      -8.206   6.310  -2.530  1.00  0.00     0.193 C 
ATOM      8  O   UNL     1      -8.246   6.386  -3.767  1.00  0.00    -0.289 OA
BRANCH   7   9
ATOM      9  C   UNL     1      -9.050   7.168  -1.714  1.00  0.00     0.023 A 
ATOM     10  C   UNL     1     -10.260   6.685  -1.214  1.00  0.00     0.012 A 
ATOM     11  C   UNL     1      -8.652   8.474  -1.432  1.00  0.00     0.012 A 
ATOM     12  C   UNL     1     -11.070   7.508  -0.432  1.00  0.00     0.004 A 
ATOM     13  C   UNL     1      -9.462   9.298  -0.649  1.00  0.00     0.004 A 
ATOM     14  C   UNL     1     -10.671   8.815  -0.149  1.00  0.00    -0.051 A 
ATOM     15  C   UNL     1     -11.538   9.695   0.685  1.00  0.00     0.044 C 
ENDBRANCH   7   9
ENDBRANCH   1   7
BRANCH   4  16
ATOM     16  N   UNL     1      -3.812   4.149  -2.447  1.00  0.00     0.066 N 
ATOM     17  O   UNL     1      -3.442   3.036  -2.891  1.00  0.00    -0.258 OA
ATOM     18  O   UNL     1      -3.065   5.155  -2.461  1.00  0.00    -0.258 OA
ENDBRANCH   4  16
BRANCH   5  19
ATOM     19  O   UNL     1      -7.240   2.843   0.718  1.00  0.00    -0.504 OA
ATOM     20  H   UNL     1      -7.886   3.337   1.249  1.00  0.00     0.293 HD
ENDBRANCH   5  19
BRANCH   6  21
ATOM     21  O   UNL     1      -4.684   2.564  -0.288  1.00  0.00    -0.500 OA
ATOM     22  H   UNL     1      -3.874   2.510  -0.819  1.00  0.00     0.294 HD
ENDBRANCH   6  21
TORSDOF 5
ENDMDL
