MODEL 1
REMARK VINA RESULT:    -7.091      0.000      0.000
REMARK INTER + INTRA:          -8.981
REMARK INTER:                  -8.334
REMARK INTRA:                  -0.647
REMARK UNBOUND:                -0.647
REMARK SMILES O=C(O)c1cc(-c2ccc(F)cc2F)ccc1O
REMARK SMILES IDX 6 1 5 2 15 3 4 4 17 5 16 6 7 7 13 8 12 9 8 10 10 11 9 12
REMARK SMILES IDX 14 13 11 14 2 15 1 16 3 17 18 19
REMARK H PARENT 3 18 18 20
ROOT
ATOM      1  C   UNL     1      -6.895   5.301  -1.254  1.00  0.00    -0.014 A 
ATOM      2  C   UNL     1      -5.784   5.205  -2.090  1.00  0.00     0.028 A 
ATOM      3  C   UNL     1      -7.019   4.448  -0.158  1.00  0.00     0.013 A 
ATOM      4  C   UNL     1      -4.795   4.255  -1.831  1.00  0.00     0.102 A 
ATOM      5  C   UNL     1      -4.919   3.402  -0.735  1.00  0.00     0.130 A 
ATOM      6  C   UNL     1      -6.031   3.498   0.102  1.00  0.00     0.048 A 
ENDROOT
BRANCH   1   7
ATOM      7  C   UNL     1      -7.922   6.286  -1.523  1.00  0.00     0.018 A 
ATOM      8  C   UNL     1      -7.569   7.606  -1.806  1.00  0.00     0.133 A 
ATOM      9  C   UNL     1      -8.562   8.551  -2.065  1.00  0.00     0.079 A 
ATOM     10  C   UNL     1      -9.265   5.911  -1.500  1.00  0.00     0.015 A 
ATOM     11  C   UNL     1      -9.905   8.177  -2.041  1.00  0.00     0.126 A 
ATOM     12  C   UNL     1     -10.256   6.857  -1.759  1.00  0.00     0.040 A 
ATOM     13  F   UNL     1      -6.283   7.982  -1.830  1.00  0.00    -0.206 F 
ATOM     14  F   UNL     1     -10.859   9.084  -2.289  1.00  0.00    -0.207 F 
ENDBRANCH   1   7
BRANCH   4  15
ATOM     15  C   UNL     1      -3.642   4.171  -2.717  1.00  0.00     0.339 C 
ATOM     16  O   UNL     1      -3.168   3.128  -3.174  1.00  0.00    -0.246 OA
BRANCH  15  17
ATOM     17  O   UNL     1      -3.119   5.394  -3.004  1.00  0.00    -0.478 OA
ATOM     18  H   UNL     1      -3.144   5.993  -2.228  1.00  0.00     0.297 HD
ENDBRANCH  15  17
ENDBRANCH   4  15
BRANCH   5  19
ATOM     19  O   UNL     1      -3.964   2.468  -0.464  1.00  0.00    -0.507 OA
ATOM     20  H   UNL     1      -3.568   2.661   0.404  1.00  0.00     0.293 HD
ENDBRANCH   5  19
TORSDOF 4
ENDMDL
MODEL 2
REMARK VINA RESULT:    -7.075      1.277      2.743
REMARK INTER + INTRA:          -8.963
REMARK INTER:                  -8.381
REMARK INTRA:                  -0.582
REMARK UNBOUND:                -0.647
REMARK SMILES O=C(O)c1cc(-c2ccc(F)cc2F)ccc1O
REMARK SMILES IDX 6 1 5 2 15 3 4 4 17 5 16 6 7 7 13 8 12 9 8 10 10 11 9 12
REMARK SMILES IDX 14 13 11 14 2 15 1 16 3 17 18 19
REMARK H PARENT 3 18 18 20
ROOT
ATOM      1  C   UNL     1      -6.900   5.223  -1.248  1.00  0.00    -0.014 A 
ATOM      2  C   UNL     1      -7.100   4.370  -0.164  1.00  0.00     0.028 A 
ATOM      3  C   UNL     1      -5.751   5.101  -2.029  1.00  0.00     0.013 A 
ATOM      4  C   UNL     1      -6.151   3.394   0.141  1.00  0.00     0.102 A 
ATOM      5  C   UNL     1      -5.002   3.272  -0.639  1.00  0.00     0.130 A 
ATOM      6  C   UNL     1      -4.802   4.126  -1.725  1.00  0.00     0.048 A 
ENDROOT
BRANCH   1   7
ATOM      7  C   UNL     1      -7.884   6.237  -1.564  1.00  0.00     0.018 A 
ATOM      8  C   UNL     1      -7.480   7.545  -1.833  1.00  0.00     0.133 A 
ATOM      9  C   UNL     1      -8.432   8.519  -2.137  1.00  0.00     0.079 A 
ATOM     10  C   UNL     1      -9.238   5.903  -1.599  1.00  0.00     0.015 A 
ATOM     11  C   UNL     1      -9.785   8.185  -2.172  1.00  0.00     0.126 A 
ATOM     12  C   UNL     1     -10.188   6.877  -1.903  1.00  0.00     0.040 A 
ATOM     13  F   UNL     1      -6.183   7.883  -1.801  1.00  0.00    -0.206 F 
ATOM     14  F   UNL     1     -10.699   9.119  -2.463  1.00  0.00    -0.207 F 
ENDBRANCH   1   7
BRANCH   4  15
ATOM     15  C   UNL     1      -6.379   2.513   1.278  1.00  0.00     0.339 C 
ATOM     16  O   UNL     1      -5.594   2.336   2.212  1.00  0.00    -0.246 OA
BRANCH  15  17
ATOM     17  O   UNL     1      -7.583   1.881   1.211  1.00  0.00    -0.478 OA
ATOM     18  H   UNL     1      -8.222   2.246   1.858  1.00  0.00     0.297 HD
ENDBRANCH  15  17
ENDBRANCH   4  15
BRANCH   5  19
ATOM     19  O   UNL     1      -4.062   2.325  -0.359  1.00  0.00    -0.507 OA
ATOM     20  H   UNL     1      -3.769   2.432   0.562  1.00  0.00     0.293 HD
ENDBRANCH   5  19
TORSDOF 4
ENDMDL
MODEL 3
REMARK VINA RESULT:    -7.075      1.690      3.184
REMARK INTER + INTRA:          -8.962
REMARK INTER:                  -8.377
REMARK INTRA:                  -0.585
REMARK UNBOUND:                -0.647
REMARK SMILES O=C(O)c1cc(-c2ccc(F)cc2F)ccc1O
REMARK SMILES IDX 6 1 5 2 15 3 4 4 17 5 16 6 7 7 13 8 12 9 8 10 10 11 9 12
REMARK SMILES IDX 14 13 11 14 2 15 1 16 3 17 18 19
REMARK H PARENT 3 18 18 20
ROOT
ATOM      1  C   UNL     1      -6.949   5.192  -1.257  1.00  0.00    -0.014 A 
ATOM      2  C   UNL     1      -7.135   4.345  -0.165  1.00  0.00     0.028 A 
ATOM      3  C   UNL     1      -5.804   5.074  -2.045  1.00  0.00     0.013 A 
ATOM      4  C   UNL     1      -6.175   3.379   0.140  1.00  0.00     0.102 A 
ATOM      5  C   UNL     1      -5.030   3.261  -0.648  1.00  0.00     0.130 A 
ATOM      6  C   UNL     1      -4.844   4.109  -1.741  1.00  0.00     0.048 A 
ENDROOT
BRANCH   1   7
ATOM      7  C   UNL     1      -7.944   6.194  -1.573  1.00  0.00     0.018 A 
ATOM      8  C   UNL     1      -9.298   5.858  -1.586  1.00  0.00     0.133 A 
ATOM      9  C   UNL     1     -10.253   6.828  -1.892  1.00  0.00     0.079 A 
ATOM     10  C   UNL     1      -7.546   7.499  -1.864  1.00  0.00     0.015 A 
ATOM     11  C   UNL     1      -9.855   8.132  -2.184  1.00  0.00     0.126 A 
ATOM     12  C   UNL     1      -8.502   8.468  -2.169  1.00  0.00     0.040 A 
ATOM     13  F   UNL     1      -9.697   4.608  -1.311  1.00  0.00    -0.206 F 
ATOM     14  F   UNL     1     -10.772   9.063  -2.477  1.00  0.00    -0.207 F 
ENDBRANCH   1   7
BRANCH   4  15
ATOM     15  C   UNL     1      -6.387   2.504   1.284  1.00  0.00     0.339 C 
ATOM     16  O   UNL     1      -5.593   2.337   2.212  1.00  0.00    -0.246 OA
BRANCH  15  17
ATOM     17  O   UNL     1      -7.588   1.865   1.232  1.00  0.00    -0.478 OA
ATOM     18  H   UNL     1      -7.648   1.263   0.461  1.00  0.00     0.297 HD
ENDBRANCH  15  17
ENDBRANCH   4  15
BRANCH   5  19
ATOM     19  O   UNL     1      -4.080   2.324  -0.367  1.00  0.00    -0.507 OA
ATOM     20  H   UNL     1      -3.301   2.485  -0.927  1.00  0.00     0.293 HD
ENDBRANCH   5  19
TORSDOF 4
ENDMDL
MODEL 4
REMARK VINA RESULT:    -7.068      1.122      1.607
REMARK INTER + INTRA:          -8.955
REMARK INTER:                  -8.311
REMARK INTRA:                  -0.643
REMARK UNBOUND:                -0.647
REMARK SMILES O=C(O)c1cc(-c2ccc(F)cc2F)ccc1O
REMARK SMILES IDX 6 1 5 2 15 3 4 4 17 5 16 6 7 7 13 8 12 9 8 10 10 11 9 12
REMARK SMILES IDX 14 13 11 14 2 15 1 16 3 17 18 19
REMARK H PARENT 3 18 18 20
ROOT
ATOM      1  C   UNL     1      -6.924   5.270  -1.263  1.00  0.00    -0.014 A 
ATOM      2  C   UNL     1      -5.807   5.189  -2.093  1.00  0.00     0.028 A 
ATOM      3  C   UNL     1      -7.048   4.407  -0.173  1.00  0.00     0.013 A 
ATOM      4  C   UNL     1      -4.812   4.245  -1.835  1.00  0.00     0.102 A 
ATOM      5  C   UNL     1      -4.936   3.383  -0.745  1.00  0.00     0.130 A 
ATOM      6  C   UNL     1      -6.054   3.464   0.086  1.00  0.00     0.048 A 
ENDROOT
BRANCH   1   7
ATOM      7  C   UNL     1      -7.957   6.247  -1.531  1.00  0.00     0.018 A 
ATOM      8  C   UNL     1      -9.300   5.866  -1.529  1.00  0.00     0.133 A 
ATOM      9  C   UNL     1     -10.292   6.812  -1.788  1.00  0.00     0.079 A 
ATOM     10  C   UNL     1      -7.608   7.572  -1.791  1.00  0.00     0.015 A 
ATOM     11  C   UNL     1      -9.943   8.137  -2.049  1.00  0.00     0.126 A 
ATOM     12  C   UNL     1      -8.601   8.517  -2.049  1.00  0.00     0.040 A 
ATOM     13  F   UNL     1      -9.652   4.596  -1.283  1.00  0.00    -0.206 F 
ATOM     14  F   UNL     1     -10.895   9.045  -2.297  1.00  0.00    -0.207 F 
ENDBRANCH   1   7
BRANCH   4  15
ATOM     15  C   UNL     1      -3.653   4.177  -2.714  1.00  0.00     0.339 C 
ATOM     16  O   UNL     1      -3.169   3.142  -3.177  1.00  0.00    -0.246 OA
BRANCH  15  17
ATOM     17  O   UNL     1      -3.137   5.406  -2.986  1.00  0.00    -0.478 OA
ATOM     18  H   UNL     1      -3.723   5.925  -3.576  1.00  0.00     0.297 HD
ENDBRANCH  15  17
ENDBRANCH   4  15
BRANCH   5  19
ATOM     19  O   UNL     1      -3.975   2.455  -0.475  1.00  0.00    -0.507 OA
ATOM     20  H   UNL     1      -3.843   1.896  -1.261  1.00  0.00     0.293 HD
ENDBRANCH   5  19
TORSDOF 4
ENDMDL
MODEL 5
REMARK VINA RESULT:    -5.331      4.584      6.923
REMARK INTER + INTRA:          -6.913
REMARK INTER:                  -5.833
REMARK INTRA:                  -1.080
REMARK UNBOUND:                -0.647
REMARK SMILES O=C(O)c1cc(-c2ccc(F)cc2F)ccc1O
REMARK SMILES IDX 6 1 5 2 15 3 4 4 17 5 16 6 7 7 13 8 12 9 8 10 10 11 9 12
REMARK SMILES IDX 14 13 11 14 2 15 1 16 3 17 18 19
REMARK H PARENT 3 18 18 20
ROOT
ATOM      1  C   UNL     1      -8.903   6.916  -1.669  1.00  0.00    -0.014 A 
ATOM      2  C   UNL     1      -9.622   7.608  -0.696  1.00  0.00     0.028 A 
ATOM      3  C   UNL     1      -9.072   7.232  -3.017  1.00  0.00     0.013 A 
ATOM      4  C   UNL     1     -10.511   8.617  -1.069  1.00  0.00     0.102 A 
ATOM      5  C   UNL     1     -10.679   8.933  -2.417  1.00  0.00     0.130 A 
ATOM      6  C   UNL     1      -9.960   8.240  -3.391  1.00  0.00     0.048 A 
ENDROOT
BRANCH   1   7
ATOM      7  C   UNL     1      -7.982   5.869  -1.283  1.00  0.00     0.018 A 
ATOM      8  C   UNL     1      -8.443   4.565  -1.094  1.00  0.00     0.133 A 
ATOM      9  C   UNL     1      -7.552   3.559  -0.721  1.00  0.00     0.079 A 
ATOM     10  C   UNL     1      -6.632   6.164  -1.101  1.00  0.00     0.015 A 
ATOM     11  C   UNL     1      -6.202   3.855  -0.538  1.00  0.00     0.126 A 
ATOM     12  C   UNL     1      -5.742   5.158  -0.729  1.00  0.00     0.040 A 
ATOM     13  F   UNL     1      -9.739   4.265  -1.262  1.00  0.00    -0.206 F 
ATOM     14  F   UNL     1      -5.346   2.889  -0.180  1.00  0.00    -0.207 F 
ENDBRANCH   1   7
BRANCH   4  15
ATOM     15  C   UNL     1     -11.252   9.328  -0.036  1.00  0.00     0.339 C 
ATOM     16  O   UNL     1     -11.967  10.315  -0.223  1.00  0.00    -0.246 OA
BRANCH  15  17
ATOM     17  O   UNL     1     -11.077   8.780   1.197  1.00  0.00    -0.478 OA
ATOM     18  H   UNL     1     -11.389   9.378   1.909  1.00  0.00     0.297 HD
ENDBRANCH  15  17
ENDBRANCH   4  15
BRANCH   5  19
ATOM     19  O   UNL     1     -11.542   9.915  -2.803  1.00  0.00    -0.507 OA
ATOM     20  H   UNL     1     -12.447   9.559  -2.806  1.00  0.00     0.293 HD
ENDBRANCH   5  19
TORSDOF 4
ENDMDL
MODEL 6
REMARK VINA RESULT:    -5.316      4.008      6.288
REMARK INTER + INTRA:          -6.895
REMARK INTER:                  -5.814
REMARK INTRA:                  -1.081
REMARK UNBOUND:                -0.647
REMARK SMILES O=C(O)c1cc(-c2ccc(F)cc2F)ccc1O
REMARK SMILES IDX 6 1 5 2 15 3 4 4 17 5 16 6 7 7 13 8 12 9 8 10 10 11 9 12
REMARK SMILES IDX 14 13 11 14 2 15 1 16 3 17 18 19
REMARK H PARENT 3 18 18 20
ROOT
ATOM      1  C   UNL     1      -8.609   7.168  -1.910  1.00  0.00    -0.014 A 
ATOM      2  C   UNL     1      -8.961   7.546  -3.205  1.00  0.00     0.028 A 
ATOM      3  C   UNL     1      -9.299   7.696  -0.818  1.00  0.00     0.013 A 
ATOM      4  C   UNL     1     -10.003   8.451  -3.410  1.00  0.00     0.102 A 
ATOM      5  C   UNL     1     -10.692   8.979  -2.318  1.00  0.00     0.130 A 
ATOM      6  C   UNL     1     -10.340   8.601  -1.021  1.00  0.00     0.048 A 
ENDROOT
BRANCH   1   7
ATOM      7  C   UNL     1      -7.528   6.230  -1.698  1.00  0.00     0.018 A 
ATOM      8  C   UNL     1      -6.211   6.684  -1.621  1.00  0.00     0.133 A 
ATOM      9  C   UNL     1      -5.172   5.776  -1.416  1.00  0.00     0.079 A 
ATOM     10  C   UNL     1      -7.806   4.869  -1.569  1.00  0.00     0.015 A 
ATOM     11  C   UNL     1      -5.449   4.416  -1.288  1.00  0.00     0.126 A 
ATOM     12  C   UNL     1      -6.767   3.962  -1.364  1.00  0.00     0.040 A 
ATOM     13  F   UNL     1      -5.928   7.989  -1.745  1.00  0.00    -0.206 F 
ATOM     14  F   UNL     1      -4.452   3.544  -1.091  1.00  0.00    -0.207 F 
ENDBRANCH   1   7
BRANCH   4  15
ATOM     15  C   UNL     1     -10.355   8.833  -4.770  1.00  0.00     0.339 C 
ATOM     16  O   UNL     1     -11.317   9.537  -5.088  1.00  0.00    -0.246 OA
BRANCH  15  17
ATOM     17  O   UNL     1      -9.493   8.324  -5.691  1.00  0.00    -0.478 OA
ATOM     18  H   UNL     1      -9.693   7.387  -5.899  1.00  0.00     0.297 HD
ENDBRANCH  15  17
ENDBRANCH   4  15
BRANCH   5  19
ATOM     19  O   UNL     1     -11.713   9.864  -2.496  1.00  0.00    -0.507 OA
ATOM     20  H   UNL     1     -11.967   9.872  -3.435  1.00  0.00     0.293 HD
ENDBRANCH   5  19
TORSDOF 4
ENDMDL
MODEL 7
REMARK VINA RESULT:    -5.253      1.258      1.329
REMARK INTER + INTRA:          -6.821
REMARK INTER:                  -6.318
REMARK INTRA:                  -0.503
REMARK UNBOUND:                -0.647
REMARK SMILES O=C(O)c1cc(-c2ccc(F)cc2F)ccc1O
REMARK SMILES IDX 6 1 5 2 15 3 4 4 17 5 16 6 7 7 13 8 12 9 8 10 10 11 9 12
REMARK SMILES IDX 14 13 11 14 2 15 1 16 3 17 18 19
REMARK H PARENT 3 18 18 20
ROOT
ATOM      1  C   UNL     1      -7.289   5.841  -1.259  1.00  0.00    -0.014 A 
ATOM      2  C   UNL     1      -6.184   5.842  -2.108  1.00  0.00     0.028 A 
ATOM      3  C   UNL     1      -7.363   4.924  -0.210  1.00  0.00     0.013 A 
ATOM      4  C   UNL     1      -5.150   4.925  -1.910  1.00  0.00     0.102 A 
ATOM      5  C   UNL     1      -5.224   4.009  -0.861  1.00  0.00     0.130 A 
ATOM      6  C   UNL     1      -6.330   4.008  -0.011  1.00  0.00     0.048 A 
ENDROOT
BRANCH   1   7
ATOM      7  C   UNL     1      -8.362   6.790  -1.465  1.00  0.00     0.018 A 
ATOM      8  C   UNL     1      -8.742   7.148  -2.759  1.00  0.00     0.133 A 
ATOM      9  C   UNL     1      -9.776   8.064  -2.953  1.00  0.00     0.079 A 
ATOM     10  C   UNL     1      -9.017   7.346  -0.366  1.00  0.00     0.015 A 
ATOM     11  C   UNL     1     -10.431   8.620  -1.855  1.00  0.00     0.126 A 
ATOM     12  C   UNL     1     -10.052   8.261  -0.561  1.00  0.00     0.040 A 
ATOM     13  F   UNL     1      -8.120   6.625  -3.825  1.00  0.00    -0.206 F 
ATOM     14  F   UNL     1     -11.424   9.499  -2.041  1.00  0.00    -0.207 F 
ENDBRANCH   1   7
BRANCH   4  15
ATOM     15  C   UNL     1      -4.004   4.943  -2.808  1.00  0.00     0.339 C 
ATOM     16  O   UNL     1      -4.055   4.804  -4.032  1.00  0.00    -0.246 OA
BRANCH  15  17
ATOM     17  O   UNL     1      -2.830   5.135  -2.146  1.00  0.00    -0.478 OA
ATOM     18  H   UNL     1      -2.819   5.989  -1.665  1.00  0.00     0.297 HD
ENDBRANCH  15  17
ENDBRANCH   4  15
BRANCH   5  19
ATOM     19  O   UNL     1      -4.224   3.106  -0.649  1.00  0.00    -0.507 OA
ATOM     20  H   UNL     1      -4.580   2.207  -0.762  1.00  0.00     0.293 HD
ENDBRANCH   5  19
TORSDOF 4
ENDMDL
MODEL 8
REMARK VINA RESULT:    -5.252      1.905      3.187
REMARK INTER + INTRA:          -6.820
REMARK INTER:                  -6.323
REMARK INTRA:                  -0.498
REMARK UNBOUND:                -0.647
REMARK SMILES O=C(O)c1cc(-c2ccc(F)cc2F)ccc1O
REMARK SMILES IDX 6 1 5 2 15 3 4 4 17 5 16 6 7 7 13 8 12 9 8 10 10 11 9 12
REMARK SMILES IDX 14 13 11 14 2 15 1 16 3 17 18 19
REMARK H PARENT 3 18 18 20
ROOT
ATOM      1  C   UNL     1      -7.523   5.538  -1.489  1.00  0.00    -0.014 A 
ATOM      2  C   UNL     1      -7.813   4.733  -0.388  1.00  0.00     0.028 A 
ATOM      3  C   UNL     1      -6.342   5.342  -2.205  1.00  0.00     0.013 A 
ATOM      4  C   UNL     1      -6.921   3.731  -0.002  1.00  0.00     0.102 A 
ATOM      5  C   UNL     1      -5.741   3.535  -0.718  1.00  0.00     0.130 A 
ATOM      6  C   UNL     1      -5.451   4.341  -1.820  1.00  0.00     0.048 A 
ENDROOT
BRANCH   1   7
ATOM      7  C   UNL     1      -8.446   6.578  -1.888  1.00  0.00     0.018 A 
ATOM      8  C   UNL     1      -9.152   7.297  -0.923  1.00  0.00     0.133 A 
ATOM      9  C   UNL     1     -10.042   8.299  -1.313  1.00  0.00     0.079 A 
ATOM     10  C   UNL     1      -8.629   6.862  -3.242  1.00  0.00     0.015 A 
ATOM     11  C   UNL     1     -10.225   8.582  -2.666  1.00  0.00     0.126 A 
ATOM     12  C   UNL     1      -9.518   7.863  -3.630  1.00  0.00     0.040 A 
ATOM     13  F   UNL     1      -8.990   7.036   0.382  1.00  0.00    -0.206 F 
ATOM     14  F   UNL     1     -11.078   9.543  -3.041  1.00  0.00    -0.207 F 
ENDBRANCH   1   7
BRANCH   4  15
ATOM     15  C   UNL     1      -7.242   2.901   1.151  1.00  0.00     0.339 C 
ATOM     16  O   UNL     1      -7.467   3.317   2.290  1.00  0.00    -0.246 OA
BRANCH  15  17
ATOM     17  O   UNL     1      -7.273   1.576   0.842  1.00  0.00    -0.478 OA
ATOM     18  H   UNL     1      -7.702   1.047   1.547  1.00  0.00     0.297 HD
ENDBRANCH  15  17
ENDBRANCH   4  15
BRANCH   5  19
ATOM     19  O   UNL     1      -4.857   2.562  -0.358  1.00  0.00    -0.507 OA
ATOM     20  H   UNL     1      -5.198   1.699  -0.652  1.00  0.00     0.293 HD
ENDBRANCH   5  19
TORSDOF 4
ENDMDL
MODEL 9
REMARK VINA RESULT:    -4.795      8.926     11.409
REMARK INTER + INTRA:          -6.283
REMARK INTER:                  -5.237
REMARK INTRA:                  -1.046
REMARK UNBOUND:                -0.647
REMARK SMILES O=C(O)c1cc(-c2ccc(F)cc2F)ccc1O
REMARK SMILES IDX 6 1 5 2 15 3 4 4 17 5 16 6 7 7 13 8 12 9 8 10 10 11 9 12
REMARK SMILES IDX 14 13 11 14 2 15 1 16 3 17 18 19
REMARK H PARENT 3 18 18 20
ROOT
ATOM      1  C   UNL     1     -12.297  12.683   2.281  1.00  0.00    -0.014 A 
ATOM      2  C   UNL     1     -12.905  12.527   3.526  1.00  0.00     0.028 A 
ATOM      3  C   UNL     1     -12.011  13.961   1.800  1.00  0.00     0.013 A 
ATOM      4  C   UNL     1     -13.228  13.649   4.291  1.00  0.00     0.102 A 
ATOM      5  C   UNL     1     -12.941  14.926   3.809  1.00  0.00     0.130 A 
ATOM      6  C   UNL     1     -12.333  15.082   2.563  1.00  0.00     0.048 A 
ENDROOT
BRANCH   1   7
ATOM      7  C   UNL     1     -11.964  11.520   1.486  1.00  0.00     0.018 A 
ATOM      8  C   UNL     1     -12.873  11.029   0.549  1.00  0.00     0.133 A 
ATOM      9  C   UNL     1     -12.547   9.907  -0.215  1.00  0.00     0.079 A 
ATOM     10  C   UNL     1     -10.731  10.892   1.659  1.00  0.00     0.015 A 
ATOM     11  C   UNL     1     -11.315   9.279  -0.041  1.00  0.00     0.126 A 
ATOM     12  C   UNL     1     -10.406   9.772   0.896  1.00  0.00     0.040 A 
ATOM     13  F   UNL     1     -14.063  11.620   0.372  1.00  0.00    -0.206 F 
ATOM     14  F   UNL     1     -11.002   8.202  -0.774  1.00  0.00    -0.207 F 
ENDBRANCH   1   7
BRANCH   4  15
ATOM     15  C   UNL     1     -13.862  13.464   5.589  1.00  0.00     0.339 C 
ATOM     16  O   UNL     1     -14.745  14.185   6.060  1.00  0.00    -0.246 OA
BRANCH  15  17
ATOM     17  O   UNL     1     -13.373  12.384   6.256  1.00  0.00    -0.478 OA
ATOM     18  H   UNL     1     -13.662  11.541   5.848  1.00  0.00     0.297 HD
ENDBRANCH  15  17
ENDBRANCH   4  15
BRANCH   5  19
ATOM     19  O   UNL     1     -13.248  16.035   4.541  1.00  0.00    -0.507 OA
ATOM     20  H   UNL     1     -14.129  15.920   4.937  1.00  0.00     0.293 HD
ENDBRANCH   5  19
TORSDOF 4
ENDMDL
