MODEL 1
REMARK VINA RESULT:    -6.755      0.000      0.000
REMARK INTER + INTRA:          -8.558
REMARK INTER:                  -7.940
REMARK INTRA:                  -0.618
REMARK UNBOUND:                -0.618
REMARK SMILES O=C(O)c1cc(-c2ccc(F)cc2F)ccc1O
REMARK SMILES IDX 6 1 5 2 15 3 4 4 17 5 16 6 7 7 13 8 12 9 8 10 10 11 9 12
REMARK SMILES IDX 14 13 11 14 2 15 1 16 3 17 18 19
REMARK H PARENT 3 18 18 20
ROOT
ATOM      1  C   UNL     1      -4.485  -2.590   3.715  1.00  0.00    -0.014 A 
ATOM      2  C   UNL     1      -4.505  -3.321   2.528  1.00  0.00     0.028 A 
ATOM      3  C   UNL     1      -3.529  -1.592   3.903  1.00  0.00     0.013 A 
ATOM      4  C   UNL     1      -3.569  -3.055   1.528  1.00  0.00     0.102 A 
ATOM      5  C   UNL     1      -2.612  -2.057   1.717  1.00  0.00     0.130 A 
ATOM      6  C   UNL     1      -2.593  -1.325   2.905  1.00  0.00     0.048 A 
ENDROOT
BRANCH   1   7
ATOM      7  C   UNL     1      -5.455  -2.866   4.753  1.00  0.00     0.018 A 
ATOM      8  C   UNL     1      -6.810  -2.975   4.434  1.00  0.00     0.133 A 
ATOM      9  C   UNL     1      -7.742  -3.241   5.438  1.00  0.00     0.079 A 
ATOM     10  C   UNL     1      -5.034  -3.024   6.072  1.00  0.00     0.015 A 
ATOM     11  C   UNL     1      -7.320  -3.398   6.757  1.00  0.00     0.126 A 
ATOM     12  C   UNL     1      -5.966  -3.290   7.075  1.00  0.00     0.040 A 
ATOM     13  F   UNL     1      -7.231  -2.823   3.171  1.00  0.00    -0.206 F 
ATOM     14  F   UNL     1      -8.214  -3.654   7.721  1.00  0.00    -0.207 F 
ENDBRANCH   1   7
BRANCH   4  15
ATOM     15  C   UNL     1      -3.607  -3.830   0.296  1.00  0.00     0.339 C 
ATOM     16  O   UNL     1      -2.655  -4.447  -0.188  1.00  0.00    -0.246 OA
BRANCH  15  17
ATOM     17  O   UNL     1      -4.834  -3.809  -0.292  1.00  0.00    -0.478 OA
ATOM     18  H   UNL     1      -5.510  -4.255   0.260  1.00  0.00     0.297 HD
ENDBRANCH  15  17
ENDBRANCH   4  15
BRANCH   5  19
ATOM     19  O   UNL     1      -1.689  -1.781   0.753  1.00  0.00    -0.507 OA
ATOM     20  H   UNL     1      -0.835  -1.590   1.177  1.00  0.00     0.293 HD
ENDBRANCH   5  19
TORSDOF 4
ENDMDL
MODEL 2
REMARK VINA RESULT:    -6.662      1.430      2.864
REMARK INTER + INTRA:          -8.448
REMARK INTER:                  -7.811
REMARK INTRA:                  -0.637
REMARK UNBOUND:                -0.618
REMARK SMILES O=C(O)c1cc(-c2ccc(F)cc2F)ccc1O
REMARK SMILES IDX 6 1 5 2 15 3 4 4 17 5 16 6 7 7 13 8 12 9 8 10 10 11 9 12
REMARK SMILES IDX 14 13 11 14 2 15 1 16 3 17 18 19
REMARK H PARENT 3 18 18 20
ROOT
ATOM      1  C   UNL     1      -4.225  -2.630   3.849  1.00  0.00    -0.014 A 
ATOM      2  C   UNL     1      -3.290  -1.652   4.183  1.00  0.00     0.028 A 
ATOM      3  C   UNL     1      -4.143  -3.282   2.619  1.00  0.00     0.013 A 
ATOM      4  C   UNL     1      -2.272  -1.324   3.288  1.00  0.00     0.102 A 
ATOM      5  C   UNL     1      -2.189  -1.976   2.057  1.00  0.00     0.130 A 
ATOM      6  C   UNL     1      -3.125  -2.956   1.723  1.00  0.00     0.048 A 
ENDROOT
BRANCH   1   7
ATOM      7  C   UNL     1      -5.282  -2.970   4.777  1.00  0.00     0.018 A 
ATOM      8  C   UNL     1      -6.607  -3.019   4.342  1.00  0.00     0.133 A 
ATOM      9  C   UNL     1      -7.623  -3.347   5.241  1.00  0.00     0.079 A 
ATOM     10  C   UNL     1      -4.974  -3.248   6.109  1.00  0.00     0.015 A 
ATOM     11  C   UNL     1      -7.315  -3.624   6.572  1.00  0.00     0.126 A 
ATOM     12  C   UNL     1      -5.990  -3.575   7.006  1.00  0.00     0.040 A 
ATOM     13  F   UNL     1      -6.920  -2.752   3.067  1.00  0.00    -0.206 F 
ATOM     14  F   UNL     1      -8.290  -3.938   7.435  1.00  0.00    -0.207 F 
ENDBRANCH   1   7
BRANCH   4  15
ATOM     15  C   UNL     1      -1.304  -0.299   3.656  1.00  0.00     0.339 C 
ATOM     16  O   UNL     1      -1.010   0.683   2.971  1.00  0.00    -0.246 OA
BRANCH  15  17
ATOM     17  O   UNL     1      -0.736  -0.535   4.870  1.00  0.00    -0.478 OA
ATOM     18  H   UNL     1      -0.257  -1.390   4.888  1.00  0.00     0.297 HD
ENDBRANCH  15  17
ENDBRANCH   4  15
BRANCH   5  19
ATOM     19  O   UNL     1      -1.202  -1.672   1.168  1.00  0.00    -0.507 OA
ATOM     20  H   UNL     1      -0.427  -1.342   1.655  1.00  0.00     0.293 HD
ENDBRANCH   5  19
TORSDOF 4
ENDMDL
MODEL 3
REMARK VINA RESULT:    -4.951      3.983      6.204
REMARK INTER + INTRA:          -6.437
REMARK INTER:                  -5.351
REMARK INTRA:                  -1.086
REMARK UNBOUND:                -0.618
REMARK SMILES O=C(O)c1cc(-c2ccc(F)cc2F)ccc1O
REMARK SMILES IDX 6 1 5 2 15 3 4 4 17 5 16 6 7 7 13 8 12 9 8 10 10 11 9 12
REMARK SMILES IDX 14 13 11 14 2 15 1 16 3 17 18 19
REMARK H PARENT 3 18 18 20
ROOT
ATOM      1  C   UNL     1      -6.087  -3.197   5.117  1.00  0.00    -0.014 A 
ATOM      2  C   UNL     1      -6.676  -4.415   5.455  1.00  0.00     0.028 A 
ATOM      3  C   UNL     1      -6.375  -2.053   5.861  1.00  0.00     0.013 A 
ATOM      4  C   UNL     1      -7.554  -4.490   6.537  1.00  0.00     0.102 A 
ATOM      5  C   UNL     1      -7.842  -3.345   7.281  1.00  0.00     0.130 A 
ATOM      6  C   UNL     1      -7.252  -2.126   6.943  1.00  0.00     0.048 A 
ENDROOT
BRANCH   1   7
ATOM      7  C   UNL     1      -5.178  -3.119   3.994  1.00  0.00     0.018 A 
ATOM      8  C   UNL     1      -5.663  -2.832   2.718  1.00  0.00     0.133 A 
ATOM      9  C   UNL     1      -4.783  -2.758   1.638  1.00  0.00     0.079 A 
ATOM     10  C   UNL     1      -3.813  -3.330   4.190  1.00  0.00     0.015 A 
ATOM     11  C   UNL     1      -3.419  -2.969   1.834  1.00  0.00     0.126 A 
ATOM     12  C   UNL     1      -2.934  -3.255   3.111  1.00  0.00     0.040 A 
ATOM     13  F   UNL     1      -6.972  -2.629   2.512  1.00  0.00    -0.206 F 
ATOM     14  F   UNL     1      -2.573  -2.898   0.798  1.00  0.00    -0.207 F 
ENDBRANCH   1   7
BRANCH   4  15
ATOM     15  C   UNL     1      -8.158  -5.771   6.874  1.00  0.00     0.339 C 
ATOM     16  O   UNL     1      -9.009  -5.951   7.749  1.00  0.00    -0.246 OA
BRANCH  15  17
ATOM     17  O   UNL     1      -7.680  -6.787   6.105  1.00  0.00    -0.478 OA
ATOM     18  H   UNL     1      -6.811  -6.567   5.709  1.00  0.00     0.297 HD
ENDBRANCH  15  17
ENDBRANCH   4  15
BRANCH   5  19
ATOM     19  O   UNL     1      -8.696  -3.397   8.342  1.00  0.00    -0.507 OA
ATOM     20  H   UNL     1      -8.562  -4.235   8.817  1.00  0.00     0.293 HD
ENDBRANCH   5  19
TORSDOF 4
ENDMDL
MODEL 4
REMARK VINA RESULT:    -4.941      4.529      6.815
REMARK INTER + INTRA:          -6.425
REMARK INTER:                  -5.340
REMARK INTRA:                  -1.085
REMARK UNBOUND:                -0.618
REMARK SMILES O=C(O)c1cc(-c2ccc(F)cc2F)ccc1O
REMARK SMILES IDX 6 1 5 2 15 3 4 4 17 5 16 6 7 7 13 8 12 9 8 10 10 11 9 12
REMARK SMILES IDX 14 13 11 14 2 15 1 16 3 17 18 19
REMARK H PARENT 3 18 18 20
ROOT
ATOM      1  C   UNL     1      -5.719  -2.931   5.572  1.00  0.00    -0.014 A 
ATOM      2  C   UNL     1      -6.385  -2.074   6.447  1.00  0.00     0.028 A 
ATOM      3  C   UNL     1      -6.086  -4.275   5.497  1.00  0.00     0.013 A 
ATOM      4  C   UNL     1      -7.419  -2.560   7.248  1.00  0.00     0.102 A 
ATOM      5  C   UNL     1      -7.786  -3.904   7.173  1.00  0.00     0.130 A 
ATOM      6  C   UNL     1      -7.119  -4.761   6.297  1.00  0.00     0.048 A 
ENDROOT
BRANCH   1   7
ATOM      7  C   UNL     1      -4.646  -2.428   4.742  1.00  0.00     0.018 A 
ATOM      8  C   UNL     1      -3.326  -2.484   5.193  1.00  0.00     0.133 A 
ATOM      9  C   UNL     1      -2.295  -1.997   4.390  1.00  0.00     0.079 A 
ATOM     10  C   UNL     1      -4.932  -1.888   3.489  1.00  0.00     0.015 A 
ATOM     11  C   UNL     1      -2.581  -1.456   3.137  1.00  0.00     0.126 A 
ATOM     12  C   UNL     1      -3.901  -1.402   2.687  1.00  0.00     0.040 A 
ATOM     13  F   UNL     1      -3.034  -2.997   6.396  1.00  0.00    -0.206 F 
ATOM     14  F   UNL     1      -1.592  -0.989   2.366  1.00  0.00    -0.207 F 
ENDBRANCH   1   7
BRANCH   4  15
ATOM     15  C   UNL     1      -8.103  -1.649   8.155  1.00  0.00     0.339 C 
ATOM     16  O   UNL     1      -8.944  -1.976   8.995  1.00  0.00    -0.246 OA
BRANCH  15  17
ATOM     17  O   UNL     1      -7.711  -0.357   7.984  1.00  0.00    -0.478 OA
ATOM     18  H   UNL     1      -7.308   0.013   8.798  1.00  0.00     0.297 HD
ENDBRANCH  15  17
ENDBRANCH   4  15
BRANCH   5  19
ATOM     19  O   UNL     1      -8.794  -4.398   7.946  1.00  0.00    -0.507 OA
ATOM     20  H   UNL     1      -8.421  -4.721   8.785  1.00  0.00     0.293 HD
ENDBRANCH   5  19
TORSDOF 4
ENDMDL
MODEL 5
REMARK VINA RESULT:    -4.916      4.331      6.616
REMARK INTER + INTRA:          -6.396
REMARK INTER:                  -5.309
REMARK INTRA:                  -1.087
REMARK UNBOUND:                -0.618
REMARK SMILES O=C(O)c1cc(-c2ccc(F)cc2F)ccc1O
REMARK SMILES IDX 6 1 5 2 15 3 4 4 17 5 16 6 7 7 13 8 12 9 8 10 10 11 9 12
REMARK SMILES IDX 14 13 11 14 2 15 1 16 3 17 18 19
REMARK H PARENT 3 18 18 20
ROOT
ATOM      1  C   UNL     1      -6.208  -3.173   5.345  1.00  0.00    -0.014 A 
ATOM      2  C   UNL     1      -6.602  -2.073   6.106  1.00  0.00     0.028 A 
ATOM      3  C   UNL     1      -6.713  -4.440   5.637  1.00  0.00     0.013 A 
ATOM      4  C   UNL     1      -7.501  -2.239   7.159  1.00  0.00     0.102 A 
ATOM      5  C   UNL     1      -8.007  -3.506   7.451  1.00  0.00     0.130 A 
ATOM      6  C   UNL     1      -7.613  -4.607   6.689  1.00  0.00     0.048 A 
ENDROOT
BRANCH   1   7
ATOM      7  C   UNL     1      -5.274  -3.001   4.253  1.00  0.00     0.018 A 
ATOM      8  C   UNL     1      -5.743  -2.758   2.962  1.00  0.00     0.133 A 
ATOM      9  C   UNL     1      -4.840  -2.594   1.912  1.00  0.00     0.079 A 
ATOM     10  C   UNL     1      -3.903  -3.078   4.494  1.00  0.00     0.015 A 
ATOM     11  C   UNL     1      -3.468  -2.672   2.153  1.00  0.00     0.126 A 
ATOM     12  C   UNL     1      -3.000  -2.914   3.444  1.00  0.00     0.040 A 
ATOM     13  F   UNL     1      -7.059  -2.684   2.712  1.00  0.00    -0.206 F 
ATOM     14  F   UNL     1      -2.600  -2.514   1.145  1.00  0.00    -0.207 F 
ENDBRANCH   1   7
BRANCH   4  15
ATOM     15  C   UNL     1      -7.901  -1.078   7.942  1.00  0.00     0.339 C 
ATOM     16  O   UNL     1      -8.109   0.051   7.489  1.00  0.00    -0.246 OA
BRANCH  15  17
ATOM     17  O   UNL     1      -8.028  -1.364   9.266  1.00  0.00    -0.478 OA
ATOM     18  H   UNL     1      -7.369  -2.027   9.561  1.00  0.00     0.297 HD
ENDBRANCH  15  17
ENDBRANCH   4  15
BRANCH   5  19
ATOM     19  O   UNL     1      -8.887  -3.690   8.476  1.00  0.00    -0.507 OA
ATOM     20  H   UNL     1      -9.088  -2.828   8.879  1.00  0.00     0.293 HD
ENDBRANCH   5  19
TORSDOF 4
ENDMDL
MODEL 6
REMARK VINA RESULT:    -4.046      8.502     10.777
REMARK INTER + INTRA:          -5.373
REMARK INTER:                  -4.530
REMARK INTRA:                  -0.843
REMARK UNBOUND:                -0.618
REMARK SMILES O=C(O)c1cc(-c2ccc(F)cc2F)ccc1O
REMARK SMILES IDX 6 1 5 2 15 3 4 4 17 5 16 6 7 7 13 8 12 9 8 10 10 11 9 12
REMARK SMILES IDX 14 13 11 14 2 15 1 16 3 17 18 19
REMARK H PARENT 3 18 18 20
ROOT
ATOM      1  C   UNL     1      -8.500  -9.437   9.187  1.00  0.00    -0.014 A 
ATOM      2  C   UNL     1      -9.477 -10.409   8.983  1.00  0.00     0.028 A 
ATOM      3  C   UNL     1      -7.608  -9.557  10.252  1.00  0.00     0.013 A 
ATOM      4  C   UNL     1      -9.565 -11.503   9.845  1.00  0.00     0.102 A 
ATOM      5  C   UNL     1      -8.673 -11.624  10.910  1.00  0.00     0.130 A 
ATOM      6  C   UNL     1      -7.694 -10.650  11.114  1.00  0.00     0.048 A 
ENDROOT
BRANCH   1   7
ATOM      7  C   UNL     1      -8.410  -8.301   8.294  1.00  0.00     0.018 A 
ATOM      8  C   UNL     1      -9.448  -7.371   8.238  1.00  0.00     0.133 A 
ATOM      9  C   UNL     1      -9.357  -6.278   7.375  1.00  0.00     0.079 A 
ATOM     10  C   UNL     1      -7.282  -8.138   7.490  1.00  0.00     0.015 A 
ATOM     11  C   UNL     1      -8.230  -6.115   6.571  1.00  0.00     0.126 A 
ATOM     12  C   UNL     1      -7.192  -7.045   6.629  1.00  0.00     0.040 A 
ATOM     13  F   UNL     1     -10.540  -7.515   9.001  1.00  0.00    -0.206 F 
ATOM     14  F   UNL     1      -8.142  -5.066   5.743  1.00  0.00    -0.207 F 
ENDBRANCH   1   7
BRANCH   4  15
ATOM     15  C   UNL     1     -10.593 -12.508   9.614  1.00  0.00     0.339 C 
ATOM     16  O   UNL     1     -11.382 -12.930  10.464  1.00  0.00    -0.246 OA
BRANCH  15  17
ATOM     17  O   UNL     1     -10.603 -12.954   8.329  1.00  0.00    -0.478 OA
ATOM     18  H   UNL     1     -10.089 -12.367   7.735  1.00  0.00     0.297 HD
ENDBRANCH  15  17
ENDBRANCH   4  15
BRANCH   5  19
ATOM     19  O   UNL     1      -8.740 -12.685  11.763  1.00  0.00    -0.507 OA
ATOM     20  H   UNL     1      -7.985 -12.649  12.375  1.00  0.00     0.293 HD
ENDBRANCH   5  19
TORSDOF 4
ENDMDL
MODEL 7
REMARK VINA RESULT:    -3.982      3.821      6.246
REMARK INTER + INTRA:          -5.298
REMARK INTER:                  -4.559
REMARK INTRA:                  -0.738
REMARK UNBOUND:                -0.618
REMARK SMILES O=C(O)c1cc(-c2ccc(F)cc2F)ccc1O
REMARK SMILES IDX 6 1 5 2 15 3 4 4 17 5 16 6 7 7 13 8 12 9 8 10 10 11 9 12
REMARK SMILES IDX 14 13 11 14 2 15 1 16 3 17 18 19
REMARK H PARENT 3 18 18 20
ROOT
ATOM      1  C   UNL     1      -4.921  -2.642   3.492  1.00  0.00    -0.014 A 
ATOM      2  C   UNL     1      -4.747  -2.715   4.874  1.00  0.00     0.028 A 
ATOM      3  C   UNL     1      -6.191  -2.806   2.939  1.00  0.00     0.013 A 
ATOM      4  C   UNL     1      -5.843  -2.951   5.703  1.00  0.00     0.102 A 
ATOM      5  C   UNL     1      -7.114  -3.115   5.150  1.00  0.00     0.130 A 
ATOM      6  C   UNL     1      -7.287  -3.042   3.768  1.00  0.00     0.048 A 
ENDROOT
BRANCH   1   7
ATOM      7  C   UNL     1      -3.784  -2.398   2.631  1.00  0.00     0.018 A 
ATOM      8  C   UNL     1      -3.563  -3.208   1.516  1.00  0.00     0.133 A 
ATOM      9  C   UNL     1      -2.465  -2.969   0.688  1.00  0.00     0.079 A 
ATOM     10  C   UNL     1      -2.909  -1.350   2.917  1.00  0.00     0.015 A 
ATOM     11  C   UNL     1      -1.590  -1.922   0.975  1.00  0.00     0.126 A 
ATOM     12  C   UNL     1      -1.812  -1.112   2.089  1.00  0.00     0.040 A 
ATOM     13  F   UNL     1      -4.393  -4.220   1.229  1.00  0.00    -0.206 F 
ATOM     14  F   UNL     1      -0.536  -1.692   0.181  1.00  0.00    -0.207 F 
ENDBRANCH   1   7
BRANCH   4  15
ATOM     15  C   UNL     1      -5.641  -3.023   7.144  1.00  0.00     0.339 C 
ATOM     16  O   UNL     1      -4.671  -3.541   7.703  1.00  0.00    -0.246 OA
BRANCH  15  17
ATOM     17  O   UNL     1      -6.658  -2.445   7.839  1.00  0.00    -0.478 OA
ATOM     18  H   UNL     1      -6.377  -1.608   8.267  1.00  0.00     0.297 HD
ENDBRANCH  15  17
ENDBRANCH   4  15
BRANCH   5  19
ATOM     19  O   UNL     1      -8.198  -3.346   5.944  1.00  0.00    -0.507 OA
ATOM     20  H   UNL     1      -8.915  -2.742   5.684  1.00  0.00     0.293 HD
ENDBRANCH   5  19
TORSDOF 4
ENDMDL
MODEL 8
REMARK VINA RESULT:    -3.955      3.698      6.116
REMARK INTER + INTRA:          -5.267
REMARK INTER:                  -4.511
REMARK INTRA:                  -0.756
REMARK UNBOUND:                -0.618
REMARK SMILES O=C(O)c1cc(-c2ccc(F)cc2F)ccc1O
REMARK SMILES IDX 6 1 5 2 15 3 4 4 17 5 16 6 7 7 13 8 12 9 8 10 10 11 9 12
REMARK SMILES IDX 14 13 11 14 2 15 1 16 3 17 18 19
REMARK H PARENT 3 18 18 20
ROOT
ATOM      1  C   UNL     1      -3.986  -2.700   4.382  1.00  0.00    -0.014 A 
ATOM      2  C   UNL     1      -5.341  -2.962   4.181  1.00  0.00     0.028 A 
ATOM      3  C   UNL     1      -3.449  -2.755   5.668  1.00  0.00     0.013 A 
ATOM      4  C   UNL     1      -6.159  -3.280   5.266  1.00  0.00     0.102 A 
ATOM      5  C   UNL     1      -5.622  -3.335   6.552  1.00  0.00     0.130 A 
ATOM      6  C   UNL     1      -4.266  -3.072   6.753  1.00  0.00     0.048 A 
ENDROOT
BRANCH   1   7
ATOM      7  C   UNL     1      -3.137  -2.369   3.258  1.00  0.00     0.018 A 
ATOM      8  C   UNL     1      -2.317  -1.242   3.308  1.00  0.00     0.133 A 
ATOM      9  C   UNL     1      -1.500  -0.927   2.222  1.00  0.00     0.079 A 
ATOM     10  C   UNL     1      -3.140  -3.181   2.124  1.00  0.00     0.015 A 
ATOM     11  C   UNL     1      -1.503  -1.738   1.087  1.00  0.00     0.126 A 
ATOM     12  C   UNL     1      -2.323  -2.865   1.039  1.00  0.00     0.040 A 
ATOM     13  F   UNL     1      -2.304  -0.450   4.389  1.00  0.00    -0.206 F 
ATOM     14  F   UNL     1      -0.720  -1.436   0.044  1.00  0.00    -0.207 F 
ENDBRANCH   1   7
BRANCH   4  15
ATOM     15  C   UNL     1      -7.571  -3.551   5.034  1.00  0.00     0.339 C 
ATOM     16  O   UNL     1      -8.289  -2.957   4.226  1.00  0.00    -0.246 OA
BRANCH  15  17
ATOM     17  O   UNL     1      -8.041  -4.558   5.820  1.00  0.00    -0.478 OA
ATOM     18  H   UNL     1      -9.018  -4.533   5.899  1.00  0.00     0.297 HD
ENDBRANCH  15  17
ENDBRANCH   4  15
BRANCH   5  19
ATOM     19  O   UNL     1      -6.404  -3.644   7.625  1.00  0.00    -0.507 OA
ATOM     20  H   UNL     1      -7.226  -3.125   7.578  1.00  0.00     0.293 HD
ENDBRANCH   5  19
TORSDOF 4
ENDMDL
MODEL 9
REMARK VINA RESULT:    -3.908      9.103     11.855
REMARK INTER + INTRA:          -5.212
REMARK INTER:                  -4.160
REMARK INTRA:                  -1.051
REMARK UNBOUND:                -0.618
REMARK SMILES O=C(O)c1cc(-c2ccc(F)cc2F)ccc1O
REMARK SMILES IDX 6 1 5 2 15 3 4 4 17 5 16 6 7 7 13 8 12 9 8 10 10 11 9 12
REMARK SMILES IDX 14 13 11 14 2 15 1 16 3 17 18 19
REMARK H PARENT 3 18 18 20
ROOT
ATOM      1  C   UNL     1     -10.101  -9.015   9.769  1.00  0.00    -0.014 A 
ATOM      2  C   UNL     1     -10.196  -8.540  11.077  1.00  0.00     0.028 A 
ATOM      3  C   UNL     1     -10.773 -10.180   9.400  1.00  0.00     0.013 A 
ATOM      4  C   UNL     1     -10.964  -9.229  12.016  1.00  0.00     0.102 A 
ATOM      5  C   UNL     1     -11.636 -10.394  11.647  1.00  0.00     0.130 A 
ATOM      6  C   UNL     1     -11.541 -10.870  10.339  1.00  0.00     0.048 A 
ENDROOT
BRANCH   1   7
ATOM      7  C   UNL     1      -9.304  -8.301   8.795  1.00  0.00     0.018 A 
ATOM      8  C   UNL     1      -8.027  -8.755   8.467  1.00  0.00     0.133 A 
ATOM      9  C   UNL     1      -7.262  -8.064   7.527  1.00  0.00     0.079 A 
ATOM     10  C   UNL     1      -9.817  -7.158   8.183  1.00  0.00     0.015 A 
ATOM     11  C   UNL     1      -7.774  -6.920   6.916  1.00  0.00     0.126 A 
ATOM     12  C   UNL     1      -9.052  -6.467   7.243  1.00  0.00     0.040 A 
ATOM     13  F   UNL     1      -7.518  -9.851   9.048  1.00  0.00    -0.206 F 
ATOM     14  F   UNL     1      -7.041  -6.256   6.013  1.00  0.00    -0.207 F 
ENDBRANCH   1   7
BRANCH   4  15
ATOM     15  C   UNL     1     -11.050  -8.716  13.376  1.00  0.00     0.339 C 
ATOM     16  O   UNL     1     -11.694  -9.231  14.294  1.00  0.00    -0.246 OA
BRANCH  15  17
ATOM     17  O   UNL     1     -10.328  -7.575  13.547  1.00  0.00    -0.478 OA
ATOM     18  H   UNL     1     -10.890  -6.829  13.845  1.00  0.00     0.297 HD
ENDBRANCH  15  17
ENDBRANCH   4  15
BRANCH   5  19
ATOM     19  O   UNL     1     -12.391 -11.082  12.549  1.00  0.00    -0.507 OA
ATOM     20  H   UNL     1     -13.280 -11.221  12.179  1.00  0.00     0.293 HD
ENDBRANCH   5  19
TORSDOF 4
ENDMDL
