MODEL 1
REMARK VINA RESULT:    -4.912      0.000      0.000
REMARK INTER + INTRA:          -6.907
REMARK INTER:                  -6.061
REMARK INTRA:                  -0.846
REMARK UNBOUND:                -0.846
REMARK SMILES Cc1ccc(C(=O)c2cc(O)c(O)c([N+](=O)[O-])c2)cc1
REMARK SMILES IDX 8 1 18 2 9 3 14 4 10 5 12 6 6 7 7 8 5 9 4 10 19 11 3 12
REMARK SMILES IDX 20 13 2 14 1 15 15 16 17 17 16 18 11 19 13 21
REMARK H PARENT 11 20 13 22
ROOT
ATOM      1  C   UNL     1      -3.786  -3.266   3.330  1.00  0.00     0.033 A 
ATOM      2  C   UNL     1      -3.003  -2.284   3.891  1.00  0.00     0.102 A 
ATOM      3  C   UNL     1      -3.768  -3.558   1.987  1.00  0.00     0.063 A 
ATOM      4  C   UNL     1      -2.152  -1.554   3.061  1.00  0.00     0.315 A 
ATOM      5  C   UNL     1      -2.918  -2.827   1.156  1.00  0.00     0.165 A 
ATOM      6  C   UNL     1      -2.109  -1.825   1.694  1.00  0.00     0.237 A 
ENDROOT
BRANCH   1   7
ATOM      7  C   UNL     1      -4.697  -4.048   4.219  1.00  0.00     0.193 C 
ATOM      8  O   UNL     1      -4.702  -5.281   4.085  1.00  0.00    -0.289 OA
BRANCH   7   9
ATOM      9  C   UNL     1      -5.553  -3.415   5.209  1.00  0.00     0.023 A 
ATOM     10  C   UNL     1      -6.848  -3.026   4.865  1.00  0.00     0.012 A 
ATOM     11  C   UNL     1      -5.080  -3.196   6.502  1.00  0.00     0.012 A 
ATOM     12  C   UNL     1      -7.669  -2.419   5.815  1.00  0.00     0.004 A 
ATOM     13  C   UNL     1      -5.902  -2.589   7.453  1.00  0.00     0.004 A 
ATOM     14  C   UNL     1      -7.197  -2.200   7.109  1.00  0.00    -0.051 A 
ATOM     15  C   UNL     1      -8.074  -1.550   8.124  1.00  0.00     0.044 C 
ENDBRANCH   7   9
ENDBRANCH   1   7
BRANCH   4  16
ATOM     16  N   UNL     1      -1.336  -0.536   3.627  1.00  0.00     0.066 N 
ATOM     17  O   UNL     1      -1.139   0.516   2.972  1.00  0.00    -0.258 OA
ATOM     18  O   UNL     1      -0.839  -0.720   4.762  1.00  0.00    -0.258 OA
ENDBRANCH   4  16
BRANCH   5  19
ATOM     19  O   UNL     1      -2.887  -3.103  -0.178  1.00  0.00    -0.504 OA
ATOM     20  H   UNL     1      -1.981  -3.339  -0.440  1.00  0.00     0.293 HD
ENDBRANCH   5  19
BRANCH   6  21
ATOM     21  O   UNL     1      -1.282  -1.117   0.871  1.00  0.00    -0.500 OA
ATOM     22  H   UNL     1      -1.204  -0.206   1.193  1.00  0.00     0.294 HD
ENDBRANCH   6  21
TORSDOF 5
ENDMDL
MODEL 2
REMARK VINA RESULT:    -4.856      2.103      3.531
REMARK INTER + INTRA:          -6.837
REMARK INTER:                  -6.000
REMARK INTRA:                  -0.837
REMARK UNBOUND:                -0.846
REMARK SMILES Cc1ccc(C(=O)c2cc(O)c(O)c([N+](=O)[O-])c2)cc1
REMARK SMILES IDX 8 1 18 2 9 3 14 4 10 5 12 6 6 7 7 8 5 9 4 10 19 11 3 12
REMARK SMILES IDX 20 13 2 14 1 15 15 16 17 17 16 18 11 19 13 21
REMARK H PARENT 11 20 13 22
ROOT
ATOM      1  C   UNL     1      -4.085  -1.762   3.459  1.00  0.00     0.033 A 
ATOM      2  C   UNL     1      -4.368  -2.597   2.403  1.00  0.00     0.102 A 
ATOM      3  C   UNL     1      -2.878  -1.120   3.601  1.00  0.00     0.063 A 
ATOM      4  C   UNL     1      -3.387  -2.801   1.433  1.00  0.00     0.315 A 
ATOM      5  C   UNL     1      -1.896  -1.324   2.631  1.00  0.00     0.165 A 
ATOM      6  C   UNL     1      -2.151  -2.165   1.546  1.00  0.00     0.237 A 
ENDROOT
BRANCH   1   7
ATOM      7  C   UNL     1      -5.136  -1.544   4.499  1.00  0.00     0.193 C 
ATOM      8  O   UNL     1      -5.357  -0.374   4.847  1.00  0.00    -0.289 OA
BRANCH   7   9
ATOM      9  C   UNL     1      -5.883  -2.640   5.095  1.00  0.00     0.023 A 
ATOM     10  C   UNL     1      -5.418  -3.250   6.260  1.00  0.00     0.012 A 
ATOM     11  C   UNL     1      -7.066  -3.081   4.501  1.00  0.00     0.012 A 
ATOM     12  C   UNL     1      -6.135  -4.301   6.831  1.00  0.00     0.004 A 
ATOM     13  C   UNL     1      -7.783  -4.133   5.072  1.00  0.00     0.004 A 
ATOM     14  C   UNL     1      -7.318  -4.743   6.237  1.00  0.00    -0.051 A 
ATOM     15  C   UNL     1      -8.083  -5.867   6.847  1.00  0.00     0.044 C 
ENDBRANCH   7   9
ENDBRANCH   1   7
BRANCH   4  16
ATOM     16  N   UNL     1      -3.665  -3.661   0.335  1.00  0.00     0.066 N 
ATOM     17  O   UNL     1      -2.748  -4.394  -0.107  1.00  0.00    -0.258 OA
ATOM     18  O   UNL     1      -4.817  -3.661  -0.157  1.00  0.00    -0.258 OA
ENDBRANCH   4  16
BRANCH   5  19
ATOM     19  O   UNL     1      -0.693  -0.696   2.754  1.00  0.00    -0.504 OA
ATOM     20  H   UNL     1      -0.836   0.251   2.919  1.00  0.00     0.293 HD
ENDBRANCH   5  19
BRANCH   6  21
ATOM     21  O   UNL     1      -1.183  -2.356   0.603  1.00  0.00    -0.500 OA
ATOM     22  H   UNL     1      -0.344  -2.576   1.037  1.00  0.00     0.294 HD
ENDBRANCH   6  21
TORSDOF 5
ENDMDL
MODEL 3
REMARK VINA RESULT:    -4.359      1.738      3.148
REMARK INTER + INTRA:          -6.224
REMARK INTER:                  -5.596
REMARK INTRA:                  -0.629
REMARK UNBOUND:                -0.846
REMARK SMILES Cc1ccc(C(=O)c2cc(O)c(O)c([N+](=O)[O-])c2)cc1
REMARK SMILES IDX 8 1 18 2 9 3 14 4 10 5 12 6 6 7 7 8 5 9 4 10 19 11 3 12
REMARK SMILES IDX 20 13 2 14 1 15 15 16 17 17 16 18 11 19 13 21
REMARK H PARENT 11 20 13 22
ROOT
ATOM      1  C   UNL     1      -2.773  -2.709   3.844  1.00  0.00     0.033 A 
ATOM      2  C   UNL     1      -3.096  -3.550   2.804  1.00  0.00     0.102 A 
ATOM      3  C   UNL     1      -2.183  -1.482   3.656  1.00  0.00     0.063 A 
ATOM      4  C   UNL     1      -2.812  -3.139   1.501  1.00  0.00     0.315 A 
ATOM      5  C   UNL     1      -1.899  -1.071   2.353  1.00  0.00     0.165 A 
ATOM      6  C   UNL     1      -2.214  -1.900   1.275  1.00  0.00     0.237 A 
ENDROOT
BRANCH   1   7
ATOM      7  C   UNL     1      -3.077  -3.150   5.239  1.00  0.00     0.193 C 
ATOM      8  O   UNL     1      -2.154  -3.669   5.885  1.00  0.00    -0.289 OA
BRANCH   7   9
ATOM      9  C   UNL     1      -4.391  -2.987   5.839  1.00  0.00     0.023 A 
ATOM     10  C   UNL     1      -4.527  -2.974   7.228  1.00  0.00     0.012 A 
ATOM     11  C   UNL     1      -5.516  -2.843   5.027  1.00  0.00     0.012 A 
ATOM     12  C   UNL     1      -5.788  -2.818   7.803  1.00  0.00     0.004 A 
ATOM     13  C   UNL     1      -6.778  -2.687   5.603  1.00  0.00     0.004 A 
ATOM     14  C   UNL     1      -6.913  -2.674   6.991  1.00  0.00    -0.051 A 
ATOM     15  C   UNL     1      -8.261  -2.509   7.607  1.00  0.00     0.044 C 
ENDBRANCH   7   9
ENDBRANCH   1   7
BRANCH   4  16
ATOM     16  N   UNL     1      -3.140  -3.997   0.416  1.00  0.00     0.066 N 
ATOM     17  O   UNL     1      -2.215  -4.445  -0.304  1.00  0.00    -0.258 OA
ATOM     18  O   UNL     1      -4.343  -4.282   0.211  1.00  0.00    -0.258 OA
ENDBRANCH   4  16
BRANCH   5  19
ATOM     19  O   UNL     1      -1.315   0.143   2.148  1.00  0.00    -0.504 OA
ATOM     20  H   UNL     1      -0.494   0.027   1.642  1.00  0.00     0.293 HD
ENDBRANCH   5  19
BRANCH   6  21
ATOM     21  O   UNL     1      -1.932  -1.486   0.006  1.00  0.00    -0.500 OA
ATOM     22  H   UNL     1      -2.587  -0.829  -0.276  1.00  0.00     0.294 HD
ENDBRANCH   6  21
TORSDOF 5
ENDMDL
MODEL 4
REMARK VINA RESULT:    -4.346      1.763      2.170
REMARK INTER + INTRA:          -6.208
REMARK INTER:                  -5.536
REMARK INTRA:                  -0.672
REMARK UNBOUND:                -0.846
REMARK SMILES Cc1ccc(C(=O)c2cc(O)c(O)c([N+](=O)[O-])c2)cc1
REMARK SMILES IDX 8 1 18 2 9 3 14 4 10 5 12 6 6 7 7 8 5 9 4 10 19 11 3 12
REMARK SMILES IDX 20 13 2 14 1 15 15 16 17 17 16 18 11 19 13 21
REMARK H PARENT 11 20 13 22
ROOT
ATOM      1  C   UNL     1      -4.461  -2.121   2.319  1.00  0.00     0.033 A 
ATOM      2  C   UNL     1      -3.719  -1.120   2.900  1.00  0.00     0.102 A 
ATOM      3  C   UNL     1      -3.924  -3.039   1.448  1.00  0.00     0.063 A 
ATOM      4  C   UNL     1      -2.361  -1.032   2.592  1.00  0.00     0.315 A 
ATOM      5  C   UNL     1      -2.566  -2.951   1.139  1.00  0.00     0.165 A 
ATOM      6  C   UNL     1      -1.784  -1.947   1.713  1.00  0.00     0.237 A 
ENDROOT
BRANCH   1   7
ATOM      7  C   UNL     1      -5.915  -2.215   2.648  1.00  0.00     0.193 C 
ATOM      8  O   UNL     1      -6.713  -1.687   1.858  1.00  0.00    -0.289 OA
BRANCH   7   9
ATOM      9  C   UNL     1      -6.403  -2.893   3.838  1.00  0.00     0.023 A 
ATOM     10  C   UNL     1      -5.548  -3.106   4.919  1.00  0.00     0.012 A 
ATOM     11  C   UNL     1      -7.726  -3.330   3.899  1.00  0.00     0.012 A 
ATOM     12  C   UNL     1      -6.016  -3.756   6.061  1.00  0.00     0.004 A 
ATOM     13  C   UNL     1      -8.196  -3.980   5.041  1.00  0.00     0.004 A 
ATOM     14  C   UNL     1      -7.340  -4.193   6.123  1.00  0.00    -0.051 A 
ATOM     15  C   UNL     1      -7.840  -4.889   7.342  1.00  0.00     0.044 C 
ENDBRANCH   7   9
ENDBRANCH   1   7
BRANCH   4  16
ATOM     16  N   UNL     1      -1.580  -0.002   3.186  1.00  0.00     0.066 N 
ATOM     17  O   UNL     1      -0.973   0.804   2.440  1.00  0.00    -0.258 OA
ATOM     18  O   UNL     1      -1.522   0.070   4.435  1.00  0.00    -0.258 OA
ENDBRANCH   4  16
BRANCH   5  19
ATOM     19  O   UNL     1      -2.016  -3.853   0.278  1.00  0.00    -0.504 OA
ATOM     20  H   UNL     1      -2.359  -3.698  -0.617  1.00  0.00     0.293 HD
ENDBRANCH   5  19
BRANCH   6  21
ATOM     21  O   UNL     1      -0.457  -1.872   1.404  1.00  0.00    -0.500 OA
ATOM     22  H   UNL     1       0.072  -2.008   2.205  1.00  0.00     0.294 HD
ENDBRANCH   6  21
TORSDOF 5
ENDMDL
MODEL 5
REMARK VINA RESULT:    -4.016      3.850      6.950
REMARK INTER + INTRA:          -5.800
REMARK INTER:                  -4.834
REMARK INTRA:                  -0.967
REMARK UNBOUND:                -0.846
REMARK SMILES Cc1ccc(C(=O)c2cc(O)c(O)c([N+](=O)[O-])c2)cc1
REMARK SMILES IDX 8 1 18 2 9 3 14 4 10 5 12 6 6 7 7 8 5 9 4 10 19 11 3 12
REMARK SMILES IDX 20 13 2 14 1 15 15 16 17 17 16 18 11 19 13 21
REMARK H PARENT 11 20 13 22
ROOT
ATOM      1  C   UNL     1      -6.004  -3.333   6.348  1.00  0.00     0.033 A 
ATOM      2  C   UNL     1      -6.657  -2.365   7.075  1.00  0.00     0.102 A 
ATOM      3  C   UNL     1      -6.455  -4.628   6.256  1.00  0.00     0.063 A 
ATOM      4  C   UNL     1      -7.829  -2.711   7.746  1.00  0.00     0.315 A 
ATOM      5  C   UNL     1      -7.628  -4.976   6.928  1.00  0.00     0.165 A 
ATOM      6  C   UNL     1      -8.315  -4.017   7.673  1.00  0.00     0.237 A 
ENDROOT
BRANCH   1   7
ATOM      7  C   UNL     1      -4.748  -2.962   5.629  1.00  0.00     0.193 C 
ATOM      8  O   UNL     1      -3.827  -2.480   6.305  1.00  0.00    -0.289 OA
BRANCH   7   9
ATOM      9  C   UNL     1      -4.586  -3.148   4.196  1.00  0.00     0.023 A 
ATOM     10  C   UNL     1      -3.466  -3.818   3.702  1.00  0.00     0.012 A 
ATOM     11  C   UNL     1      -5.550  -2.659   3.316  1.00  0.00     0.012 A 
ATOM     12  C   UNL     1      -3.311  -3.997   2.328  1.00  0.00     0.004 A 
ATOM     13  C   UNL     1      -5.395  -2.837   1.940  1.00  0.00     0.004 A 
ATOM     14  C   UNL     1      -4.276  -3.507   1.446  1.00  0.00    -0.051 A 
ATOM     15  C   UNL     1      -4.108  -3.697  -0.023  1.00  0.00     0.044 C 
ENDBRANCH   7   9
ENDBRANCH   1   7
BRANCH   4  16
ATOM     16  N   UNL     1      -8.516  -1.721   8.500  1.00  0.00     0.066 N 
ATOM     17  O   UNL     1      -8.407  -0.518   8.162  1.00  0.00    -0.258 OA
ATOM     18  O   UNL     1      -9.210  -2.079   9.480  1.00  0.00    -0.258 OA
ENDBRANCH   4  16
BRANCH   5  19
ATOM     19  O   UNL     1      -8.091  -6.255   6.847  1.00  0.00    -0.504 OA
ATOM     20  H   UNL     1      -7.868  -6.627   5.979  1.00  0.00     0.293 HD
ENDBRANCH   5  19
BRANCH   6  21
ATOM     21  O   UNL     1      -9.461  -4.368   8.325  1.00  0.00    -0.500 OA
ATOM     22  H   UNL     1     -10.226  -3.979   7.874  1.00  0.00     0.294 HD
ENDBRANCH   6  21
TORSDOF 5
ENDMDL
MODEL 6
REMARK VINA RESULT:    -3.996      1.183      2.573
REMARK INTER + INTRA:          -5.776
REMARK INTER:                  -5.200
REMARK INTRA:                  -0.576
REMARK UNBOUND:                -0.846
REMARK SMILES Cc1ccc(C(=O)c2cc(O)c(O)c([N+](=O)[O-])c2)cc1
REMARK SMILES IDX 8 1 18 2 9 3 14 4 10 5 12 6 6 7 7 8 5 9 4 10 19 11 3 12
REMARK SMILES IDX 20 13 2 14 1 15 15 16 17 17 16 18 11 19 13 21
REMARK H PARENT 11 20 13 22
ROOT
ATOM      1  C   UNL     1      -3.917  -2.754   3.893  1.00  0.00     0.033 A 
ATOM      2  C   UNL     1      -3.460  -3.148   2.657  1.00  0.00     0.102 A 
ATOM      3  C   UNL     1      -3.461  -1.626   4.533  1.00  0.00     0.063 A 
ATOM      4  C   UNL     1      -2.492  -2.368   2.024  1.00  0.00     0.315 A 
ATOM      5  C   UNL     1      -2.492  -0.846   3.900  1.00  0.00     0.165 A 
ATOM      6  C   UNL     1      -2.008  -1.217   2.645  1.00  0.00     0.237 A 
ENDROOT
BRANCH   1   7
ATOM      7  C   UNL     1      -4.953  -3.590   4.571  1.00  0.00     0.193 C 
ATOM      8  O   UNL     1      -5.045  -4.776   4.222  1.00  0.00    -0.289 OA
BRANCH   7   9
ATOM      9  C   UNL     1      -5.830  -3.059   5.603  1.00  0.00     0.023 A 
ATOM     10  C   UNL     1      -7.120  -2.641   5.274  1.00  0.00     0.012 A 
ATOM     11  C   UNL     1      -5.382  -2.968   6.920  1.00  0.00     0.012 A 
ATOM     12  C   UNL     1      -7.961  -2.132   6.263  1.00  0.00     0.004 A 
ATOM     13  C   UNL     1      -6.224  -2.459   7.911  1.00  0.00     0.004 A 
ATOM     14  C   UNL     1      -7.513  -2.041   7.582  1.00  0.00    -0.051 A 
ATOM     15  C   UNL     1      -8.412  -1.496   8.639  1.00  0.00     0.044 C 
ENDBRANCH   7   9
ENDBRANCH   1   7
BRANCH   4  16
ATOM     16  N   UNL     1      -2.010  -2.762   0.745  1.00  0.00     0.066 N 
ATOM     17  O   UNL     1      -2.410  -3.845   0.255  1.00  0.00    -0.258 OA
ATOM     18  O   UNL     1      -1.202  -2.015   0.146  1.00  0.00    -0.258 OA
ENDBRANCH   4  16
BRANCH   5  19
ATOM     19  O   UNL     1      -2.029   0.277   4.519  1.00  0.00    -0.504 OA
ATOM     20  H   UNL     1      -1.211   0.069   4.999  1.00  0.00     0.293 HD
ENDBRANCH   5  19
BRANCH   6  21
ATOM     21  O   UNL     1      -1.062  -0.445   2.036  1.00  0.00    -0.500 OA
ATOM     22  H   UNL     1      -0.525  -0.994   1.443  1.00  0.00     0.294 HD
ENDBRANCH   6  21
TORSDOF 5
ENDMDL
MODEL 7
REMARK VINA RESULT:    -3.982      1.902      2.300
REMARK INTER + INTRA:          -5.758
REMARK INTER:                  -5.200
REMARK INTRA:                  -0.558
REMARK UNBOUND:                -0.846
REMARK SMILES Cc1ccc(C(=O)c2cc(O)c(O)c([N+](=O)[O-])c2)cc1
REMARK SMILES IDX 8 1 18 2 9 3 14 4 10 5 12 6 6 7 7 8 5 9 4 10 19 11 3 12
REMARK SMILES IDX 20 13 2 14 1 15 15 16 17 17 16 18 11 19 13 21
REMARK H PARENT 11 20 13 22
ROOT
ATOM      1  C   UNL     1      -4.484  -2.412   3.430  1.00  0.00     0.033 A 
ATOM      2  C   UNL     1      -3.428  -1.571   3.165  1.00  0.00     0.102 A 
ATOM      3  C   UNL     1      -4.783  -3.504   2.650  1.00  0.00     0.063 A 
ATOM      4  C   UNL     1      -2.625  -1.839   2.056  1.00  0.00     0.315 A 
ATOM      5  C   UNL     1      -3.980  -3.771   1.541  1.00  0.00     0.165 A 
ATOM      6  C   UNL     1      -2.900  -2.938   1.244  1.00  0.00     0.237 A 
ENDROOT
BRANCH   1   7
ATOM      7  C   UNL     1      -5.345  -2.126   4.618  1.00  0.00     0.193 C 
ATOM      8  O   UNL     1      -5.349  -0.963   5.050  1.00  0.00    -0.289 OA
BRANCH   7   9
ATOM      9  C   UNL     1      -6.155  -3.149   5.258  1.00  0.00     0.023 A 
ATOM     10  C   UNL     1      -7.393  -3.499   4.718  1.00  0.00     0.012 A 
ATOM     11  C   UNL     1      -5.694  -3.782   6.413  1.00  0.00     0.012 A 
ATOM     12  C   UNL     1      -8.169  -4.481   5.333  1.00  0.00     0.004 A 
ATOM     13  C   UNL     1      -6.471  -4.765   7.028  1.00  0.00     0.004 A 
ATOM     14  C   UNL     1      -7.709  -5.114   6.488  1.00  0.00    -0.051 A 
ATOM     15  C   UNL     1      -8.540  -6.163   7.145  1.00  0.00     0.044 C 
ENDBRANCH   7   9
ENDBRANCH   1   7
BRANCH   4  16
ATOM     16  N   UNL     1      -1.530  -0.978   1.770  1.00  0.00     0.066 N 
ATOM     17  O   UNL     1      -0.815  -1.221   0.768  1.00  0.00    -0.258 OA
ATOM     18  O   UNL     1      -1.311  -0.003   2.525  1.00  0.00    -0.258 OA
ENDBRANCH   4  16
BRANCH   5  19
ATOM     19  O   UNL     1      -4.261  -4.849   0.757  1.00  0.00    -0.504 OA
ATOM     20  H   UNL     1      -3.991  -5.663   1.214  1.00  0.00     0.293 HD
ENDBRANCH   5  19
BRANCH   6  21
ATOM     21  O   UNL     1      -2.122  -3.210   0.157  1.00  0.00    -0.500 OA
ATOM     22  H   UNL     1      -1.517  -3.940   0.364  1.00  0.00     0.294 HD
ENDBRANCH   6  21
TORSDOF 5
ENDMDL
MODEL 8
REMARK VINA RESULT:    -3.979      3.869      7.177
REMARK INTER + INTRA:          -5.755
REMARK INTER:                  -4.778
REMARK INTRA:                  -0.977
REMARK UNBOUND:                -0.846
REMARK SMILES Cc1ccc(C(=O)c2cc(O)c(O)c([N+](=O)[O-])c2)cc1
REMARK SMILES IDX 8 1 18 2 9 3 14 4 10 5 12 6 6 7 7 8 5 9 4 10 19 11 3 12
REMARK SMILES IDX 20 13 2 14 1 15 15 16 17 17 16 18 11 19 13 21
REMARK H PARENT 11 20 13 22
ROOT
ATOM      1  C   UNL     1      -6.942  -3.164   5.457  1.00  0.00     0.033 A 
ATOM      2  C   UNL     1      -7.343  -4.440   5.778  1.00  0.00     0.102 A 
ATOM      3  C   UNL     1      -7.208  -2.076   6.253  1.00  0.00     0.063 A 
ATOM      4  C   UNL     1      -8.050  -4.638   6.964  1.00  0.00     0.315 A 
ATOM      5  C   UNL     1      -7.916  -2.273   7.439  1.00  0.00     0.165 A 
ATOM      6  C   UNL     1      -8.337  -3.556   7.794  1.00  0.00     0.237 A 
ENDROOT
BRANCH   1   7
ATOM      7  C   UNL     1      -6.184  -2.952   4.187  1.00  0.00     0.193 C 
ATOM      8  O   UNL     1      -6.724  -3.323   3.134  1.00  0.00    -0.289 OA
BRANCH   7   9
ATOM      9  C   UNL     1      -4.866  -2.338   4.158  1.00  0.00     0.023 A 
ATOM     10  C   UNL     1      -3.863  -2.800   5.009  1.00  0.00     0.012 A 
ATOM     11  C   UNL     1      -4.606  -1.286   3.280  1.00  0.00     0.012 A 
ATOM     12  C   UNL     1      -2.599  -2.211   4.982  1.00  0.00     0.004 A 
ATOM     13  C   UNL     1      -3.341  -0.696   3.252  1.00  0.00     0.004 A 
ATOM     14  C   UNL     1      -2.338  -1.159   4.103  1.00  0.00    -0.051 A 
ATOM     15  C   UNL     1      -0.987  -0.529   4.075  1.00  0.00     0.044 C 
ENDBRANCH   7   9
ENDBRANCH   1   7
BRANCH   4  16
ATOM     16  N   UNL     1      -8.471  -5.952   7.309  1.00  0.00     0.066 N 
ATOM     17  O   UNL     1      -9.515  -6.094   7.991  1.00  0.00    -0.258 OA
ATOM     18  O   UNL     1      -7.789  -6.929   6.922  1.00  0.00    -0.258 OA
ENDBRANCH   4  16
BRANCH   5  19
ATOM     19  O   UNL     1      -8.189  -1.206   8.240  1.00  0.00    -0.504 OA
ATOM     20  H   UNL     1      -7.602  -1.223   9.015  1.00  0.00     0.293 HD
ENDBRANCH   5  19
BRANCH   6  21
ATOM     21  O   UNL     1      -9.028  -3.737   8.957  1.00  0.00    -0.500 OA
ATOM     22  H   UNL     1      -8.518  -4.305   9.555  1.00  0.00     0.294 HD
ENDBRANCH   6  21
TORSDOF 5
ENDMDL
MODEL 9
REMARK VINA RESULT:    -3.882      9.079     12.015
REMARK INTER + INTRA:          -5.635
REMARK INTER:                  -5.197
REMARK INTRA:                  -0.438
REMARK UNBOUND:                -0.846
REMARK SMILES Cc1ccc(C(=O)c2cc(O)c(O)c([N+](=O)[O-])c2)cc1
REMARK SMILES IDX 8 1 18 2 9 3 14 4 10 5 12 6 6 7 7 8 5 9 4 10 19 11 3 12
REMARK SMILES IDX 20 13 2 14 1 15 15 16 17 17 16 18 11 19 13 21
REMARK H PARENT 11 20 13 22
ROOT
ATOM      1  C   UNL     1      -9.966  -9.816  10.143  1.00  0.00     0.033 A 
ATOM      2  C   UNL     1      -9.943  -8.748  11.009  1.00  0.00     0.102 A 
ATOM      3  C   UNL     1     -10.764 -10.918  10.337  1.00  0.00     0.063 A 
ATOM      4  C   UNL     1     -10.768  -8.784  12.134  1.00  0.00     0.315 A 
ATOM      5  C   UNL     1     -11.588 -10.955  11.462  1.00  0.00     0.165 A 
ATOM      6  C   UNL     1     -11.590  -9.887  12.361  1.00  0.00     0.237 A 
ENDROOT
BRANCH   1   7
ATOM      7  C   UNL     1      -9.083  -9.778   8.938  1.00  0.00     0.193 C 
ATOM      8  O   UNL     1      -8.641 -10.859   8.522  1.00  0.00    -0.289 OA
BRANCH   7   9
ATOM      9  C   UNL     1      -8.739  -8.537   8.262  1.00  0.00     0.023 A 
ATOM     10  C   UNL     1      -7.453  -8.352   7.754  1.00  0.00     0.012 A 
ATOM     11  C   UNL     1      -9.696  -7.532   8.122  1.00  0.00     0.012 A 
ATOM     12  C   UNL     1      -7.124  -7.162   7.106  1.00  0.00     0.004 A 
ATOM     13  C   UNL     1      -9.367  -6.341   7.473  1.00  0.00     0.004 A 
ATOM     14  C   UNL     1      -8.081  -6.156   6.965  1.00  0.00    -0.051 A 
ATOM     15  C   UNL     1      -7.728  -4.883   6.273  1.00  0.00     0.044 C 
ENDBRANCH   7   9
ENDBRANCH   1   7
BRANCH   4  16
ATOM     16  N   UNL     1     -10.756  -7.687  13.038  1.00  0.00     0.066 N 
ATOM     17  O   UNL     1     -11.080  -6.551  12.617  1.00  0.00    -0.258 OA
ATOM     18  O   UNL     1     -10.423  -7.888  14.230  1.00  0.00    -0.258 OA
ENDBRANCH   4  16
BRANCH   5  19
ATOM     19  O   UNL     1     -12.387 -12.039  11.671  1.00  0.00    -0.504 OA
ATOM     20  H   UNL     1     -12.878 -12.243  10.858  1.00  0.00     0.293 HD
ENDBRANCH   5  19
BRANCH   6  21
ATOM     21  O   UNL     1     -12.401  -9.934  13.457  1.00  0.00    -0.500 OA
ATOM     22  H   UNL     1     -12.619  -9.033  13.741  1.00  0.00     0.294 HD
ENDBRANCH   6  21
TORSDOF 5
ENDMDL
