MODEL 1
REMARK VINA RESULT:    -6.941      0.000      0.000
REMARK INTER + INTRA:          -8.765
REMARK INTER:                  -8.158
REMARK INTRA:                  -0.607
REMARK UNBOUND:                -0.607
REMARK SMILES O=C(O)c1cc(-c2ccc(F)cc2F)ccc1O
REMARK SMILES IDX 6 1 5 2 15 3 4 4 17 5 16 6 7 7 13 8 12 9 8 10 10 11 9 12
REMARK SMILES IDX 14 13 11 14 2 15 1 16 3 17 18 19
REMARK H PARENT 3 18 18 20
ROOT
ATOM      1  C   UNL     1      -7.779   2.761   3.771  1.00  0.00    -0.014 A 
ATOM      2  C   UNL     1      -7.171   3.727   2.970  1.00  0.00     0.028 A 
ATOM      3  C   UNL     1      -7.234   1.480   3.853  1.00  0.00     0.013 A 
ATOM      4  C   UNL     1      -6.018   3.411   2.250  1.00  0.00     0.102 A 
ATOM      5  C   UNL     1      -5.473   2.130   2.332  1.00  0.00     0.130 A 
ATOM      6  C   UNL     1      -6.082   1.163   3.135  1.00  0.00     0.048 A 
ENDROOT
BRANCH   1   7
ATOM      7  C   UNL     1      -8.976   3.087   4.516  1.00  0.00     0.018 A 
ATOM      8  C   UNL     1      -9.047   4.277   5.241  1.00  0.00     0.133 A 
ATOM      9  C   UNL     1     -10.202   4.588   5.959  1.00  0.00     0.079 A 
ATOM     10  C   UNL     1     -10.059   2.209   4.508  1.00  0.00     0.015 A 
ATOM     11  C   UNL     1     -11.285   3.709   5.951  1.00  0.00     0.126 A 
ATOM     12  C   UNL     1     -11.214   2.520   5.225  1.00  0.00     0.040 A 
ATOM     13  F   UNL     1      -8.013   5.131   5.262  1.00  0.00    -0.206 F 
ATOM     14  F   UNL     1     -12.395   4.007   6.640  1.00  0.00    -0.207 F 
ENDBRANCH   1   7
BRANCH   4  15
ATOM     15  C   UNL     1      -5.398   4.434   1.419  1.00  0.00     0.339 C 
ATOM     16  O   UNL     1      -5.064   4.290   0.240  1.00  0.00    -0.246 OA
BRANCH  15  17
ATOM     17  O   UNL     1      -5.215   5.605   2.088  1.00  0.00    -0.478 OA
ATOM     18  H   UNL     1      -5.185   6.372   1.478  1.00  0.00     0.297 HD
ENDBRANCH  15  17
ENDBRANCH   4  15
BRANCH   5  19
ATOM     19  O   UNL     1      -4.347   1.802   1.638  1.00  0.00    -0.507 OA
ATOM     20  H   UNL     1      -4.547   1.060   1.041  1.00  0.00     0.293 HD
ENDBRANCH   5  19
TORSDOF 4
ENDMDL
MODEL 2
REMARK VINA RESULT:    -6.935      1.123      1.606
REMARK INTER + INTRA:          -8.759
REMARK INTER:                  -8.149
REMARK INTRA:                  -0.609
REMARK UNBOUND:                -0.607
REMARK SMILES O=C(O)c1cc(-c2ccc(F)cc2F)ccc1O
REMARK SMILES IDX 6 1 5 2 15 3 4 4 17 5 16 6 7 7 13 8 12 9 8 10 10 11 9 12
REMARK SMILES IDX 14 13 11 14 2 15 1 16 3 17 18 19
REMARK H PARENT 3 18 18 20
ROOT
ATOM      1  C   UNL     1      -7.793   2.733   3.739  1.00  0.00    -0.014 A 
ATOM      2  C   UNL     1      -7.181   3.707   2.951  1.00  0.00     0.028 A 
ATOM      3  C   UNL     1      -7.249   1.451   3.811  1.00  0.00     0.013 A 
ATOM      4  C   UNL     1      -6.025   3.399   2.233  1.00  0.00     0.102 A 
ATOM      5  C   UNL     1      -5.481   2.117   2.305  1.00  0.00     0.130 A 
ATOM      6  C   UNL     1      -6.093   1.142   3.094  1.00  0.00     0.048 A 
ENDROOT
BRANCH   1   7
ATOM      7  C   UNL     1      -8.993   3.052   4.483  1.00  0.00     0.018 A 
ATOM      8  C   UNL     1     -10.087   2.187   4.451  1.00  0.00     0.133 A 
ATOM      9  C   UNL     1     -11.242   2.498   5.169  1.00  0.00     0.079 A 
ATOM     10  C   UNL     1      -9.053   4.225   5.234  1.00  0.00     0.015 A 
ATOM     11  C   UNL     1     -11.302   3.672   5.919  1.00  0.00     0.126 A 
ATOM     12  C   UNL     1     -10.207   4.535   5.952  1.00  0.00     0.040 A 
ATOM     13  F   UNL     1     -10.046   1.056   3.732  1.00  0.00    -0.206 F 
ATOM     14  F   UNL     1     -12.411   3.971   6.609  1.00  0.00    -0.207 F 
ENDBRANCH   1   7
BRANCH   4  15
ATOM     15  C   UNL     1      -5.401   4.431   1.416  1.00  0.00     0.339 C 
ATOM     16  O   UNL     1      -5.062   4.300   0.238  1.00  0.00    -0.246 OA
BRANCH  15  17
ATOM     17  O   UNL     1      -5.221   5.595   2.098  1.00  0.00    -0.478 OA
ATOM     18  H   UNL     1      -5.765   5.627   2.914  1.00  0.00     0.297 HD
ENDBRANCH  15  17
ENDBRANCH   4  15
BRANCH   5  19
ATOM     19  O   UNL     1      -4.352   1.796   1.612  1.00  0.00    -0.507 OA
ATOM     20  H   UNL     1      -4.604   1.425   0.749  1.00  0.00     0.293 HD
ENDBRANCH   5  19
TORSDOF 4
ENDMDL
MODEL 3
REMARK VINA RESULT:    -6.931      1.707      3.198
REMARK INTER + INTRA:          -8.754
REMARK INTER:                  -8.062
REMARK INTRA:                  -0.692
REMARK UNBOUND:                -0.607
REMARK SMILES O=C(O)c1cc(-c2ccc(F)cc2F)ccc1O
REMARK SMILES IDX 6 1 5 2 15 3 4 4 17 5 16 6 7 7 13 8 12 9 8 10 10 11 9 12
REMARK SMILES IDX 14 13 11 14 2 15 1 16 3 17 18 19
REMARK H PARENT 3 18 18 20
ROOT
ATOM      1  C   UNL     1      -7.827   2.664   3.711  1.00  0.00    -0.014 A 
ATOM      2  C   UNL     1      -7.311   1.382   3.889  1.00  0.00     0.028 A 
ATOM      3  C   UNL     1      -7.199   3.555   2.840  1.00  0.00     0.013 A 
ATOM      4  C   UNL     1      -6.165   0.988   3.196  1.00  0.00     0.102 A 
ATOM      5  C   UNL     1      -5.537   1.878   2.325  1.00  0.00     0.130 A 
ATOM      6  C   UNL     1      -6.054   3.162   2.148  1.00  0.00     0.048 A 
ENDROOT
BRANCH   1   7
ATOM      7  C   UNL     1      -9.014   3.074   4.430  1.00  0.00     0.018 A 
ATOM      8  C   UNL     1     -10.143   2.254   4.443  1.00  0.00     0.133 A 
ATOM      9  C   UNL     1     -11.286   2.652   5.137  1.00  0.00     0.079 A 
ATOM     10  C   UNL     1      -9.028   4.290   5.112  1.00  0.00     0.015 A 
ATOM     11  C   UNL     1     -11.299   3.869   5.818  1.00  0.00     0.126 A 
ATOM     12  C   UNL     1     -10.170   4.688   5.806  1.00  0.00     0.040 A 
ATOM     13  F   UNL     1     -10.148   1.083   3.790  1.00  0.00    -0.206 F 
ATOM     14  F   UNL     1     -12.396   4.252   6.485  1.00  0.00    -0.207 F 
ENDBRANCH   1   7
BRANCH   4  15
ATOM     15  C   UNL     1      -5.642  -0.356   3.395  1.00  0.00     0.339 C 
ATOM     16  O   UNL     1      -4.449  -0.649   3.502  1.00  0.00    -0.246 OA
BRANCH  15  17
ATOM     17  O   UNL     1      -6.628  -1.292   3.457  1.00  0.00    -0.478 OA
ATOM     18  H   UNL     1      -6.718  -1.784   2.613  1.00  0.00     0.297 HD
ENDBRANCH  15  17
ENDBRANCH   4  15
BRANCH   5  19
ATOM     19  O   UNL     1      -4.417   1.513   1.639  1.00  0.00    -0.507 OA
ATOM     20  H   UNL     1      -4.616   0.725   1.104  1.00  0.00     0.293 HD
ENDBRANCH   5  19
TORSDOF 4
ENDMDL
MODEL 4
REMARK VINA RESULT:    -6.912      1.309      2.764
REMARK INTER + INTRA:          -8.731
REMARK INTER:                  -8.042
REMARK INTRA:                  -0.689
REMARK UNBOUND:                -0.607
REMARK SMILES O=C(O)c1cc(-c2ccc(F)cc2F)ccc1O
REMARK SMILES IDX 6 1 5 2 15 3 4 4 17 5 16 6 7 7 13 8 12 9 8 10 10 11 9 12
REMARK SMILES IDX 14 13 11 14 2 15 1 16 3 17 18 19
REMARK H PARENT 3 18 18 20
ROOT
ATOM      1  C   UNL     1      -7.796   2.686   3.733  1.00  0.00    -0.014 A 
ATOM      2  C   UNL     1      -7.291   1.398   3.904  1.00  0.00     0.028 A 
ATOM      3  C   UNL     1      -7.161   3.574   2.865  1.00  0.00     0.013 A 
ATOM      4  C   UNL     1      -6.151   0.997   3.207  1.00  0.00     0.102 A 
ATOM      5  C   UNL     1      -5.516   1.885   2.339  1.00  0.00     0.130 A 
ATOM      6  C   UNL     1      -6.021   3.174   2.168  1.00  0.00     0.048 A 
ENDROOT
BRANCH   1   7
ATOM      7  C   UNL     1      -8.978   3.103   4.456  1.00  0.00     0.018 A 
ATOM      8  C   UNL     1      -8.982   4.311   5.155  1.00  0.00     0.133 A 
ATOM      9  C   UNL     1     -10.124   4.709   5.851  1.00  0.00     0.079 A 
ATOM     10  C   UNL     1     -10.115   2.295   4.453  1.00  0.00     0.015 A 
ATOM     11  C   UNL     1     -11.260   3.901   5.848  1.00  0.00     0.126 A 
ATOM     12  C   UNL     1     -11.255   2.694   5.148  1.00  0.00     0.040 A 
ATOM     13  F   UNL     1      -7.897   5.098   5.170  1.00  0.00    -0.206 F 
ATOM     14  F   UNL     1     -12.356   4.282   6.516  1.00  0.00    -0.207 F 
ENDBRANCH   1   7
BRANCH   4  15
ATOM     15  C   UNL     1      -5.639  -0.353   3.400  1.00  0.00     0.339 C 
ATOM     16  O   UNL     1      -4.448  -0.657   3.502  1.00  0.00    -0.246 OA
BRANCH  15  17
ATOM     17  O   UNL     1      -6.633  -1.280   3.460  1.00  0.00    -0.478 OA
ATOM     18  H   UNL     1      -6.513  -1.988   2.793  1.00  0.00     0.297 HD
ENDBRANCH  15  17
ENDBRANCH   4  15
BRANCH   5  19
ATOM     19  O   UNL     1      -4.401   1.513   1.649  1.00  0.00    -0.507 OA
ATOM     20  H   UNL     1      -3.814   2.283   1.555  1.00  0.00     0.293 HD
ENDBRANCH   5  19
TORSDOF 4
ENDMDL
MODEL 5
REMARK VINA RESULT:    -5.448      1.001      1.054
REMARK INTER + INTRA:          -7.010
REMARK INTER:                  -6.516
REMARK INTRA:                  -0.495
REMARK UNBOUND:                -0.607
REMARK SMILES O=C(O)c1cc(-c2ccc(F)cc2F)ccc1O
REMARK SMILES IDX 6 1 5 2 15 3 4 4 17 5 16 6 7 7 13 8 12 9 8 10 10 11 9 12
REMARK SMILES IDX 14 13 11 14 2 15 1 16 3 17 18 19
REMARK H PARENT 3 18 18 20
ROOT
ATOM      1  C   UNL     1      -7.954   2.763   3.852  1.00  0.00    -0.014 A 
ATOM      2  C   UNL     1      -7.304   3.741   3.100  1.00  0.00     0.028 A 
ATOM      3  C   UNL     1      -7.468   1.455   3.864  1.00  0.00     0.013 A 
ATOM      4  C   UNL     1      -6.168   3.412   2.359  1.00  0.00     0.102 A 
ATOM      5  C   UNL     1      -5.683   2.104   2.372  1.00  0.00     0.130 A 
ATOM      6  C   UNL     1      -6.333   1.125   3.124  1.00  0.00     0.048 A 
ENDROOT
BRANCH   1   7
ATOM      7  C   UNL     1      -9.133   3.103   4.619  1.00  0.00     0.018 A 
ATOM      8  C   UNL     1     -10.073   3.994   4.100  1.00  0.00     0.133 A 
ATOM      9  C   UNL     1     -11.208   4.319   4.843  1.00  0.00     0.079 A 
ATOM     10  C   UNL     1      -9.328   2.537   5.878  1.00  0.00     0.015 A 
ATOM     11  C   UNL     1     -11.403   3.754   6.103  1.00  0.00     0.126 A 
ATOM     12  C   UNL     1     -10.463   2.863   6.620  1.00  0.00     0.040 A 
ATOM     13  F   UNL     1      -9.899   4.548   2.892  1.00  0.00    -0.206 F 
ATOM     14  F   UNL     1     -12.492   4.066   6.816  1.00  0.00    -0.207 F 
ENDBRANCH   1   7
BRANCH   4  15
ATOM     15  C   UNL     1      -5.503   4.448   1.581  1.00  0.00     0.339 C 
ATOM     16  O   UNL     1      -5.181   4.353   0.394  1.00  0.00    -0.246 OA
BRANCH  15  17
ATOM     17  O   UNL     1      -5.263   5.571   2.311  1.00  0.00    -0.478 OA
ATOM     18  H   UNL     1      -4.979   6.319   1.746  1.00  0.00     0.297 HD
ENDBRANCH  15  17
ENDBRANCH   4  15
BRANCH   5  19
ATOM     19  O   UNL     1      -4.574   1.762   1.656  1.00  0.00    -0.507 OA
ATOM     20  H   UNL     1      -3.936   2.496   1.690  1.00  0.00     0.293 HD
ENDBRANCH   5  19
TORSDOF 4
ENDMDL
MODEL 6
REMARK VINA RESULT:    -5.367      4.359      6.684
REMARK INTER + INTRA:          -6.915
REMARK INTER:                  -5.846
REMARK INTRA:                  -1.069
REMARK UNBOUND:                -0.607
REMARK SMILES O=C(O)c1cc(-c2ccc(F)cc2F)ccc1O
REMARK SMILES IDX 6 1 5 2 15 3 4 4 17 5 16 6 7 7 13 8 12 9 8 10 10 11 9 12
REMARK SMILES IDX 14 13 11 14 2 15 1 16 3 17 18 19
REMARK H PARENT 3 18 18 20
ROOT
ATOM      1  C   UNL     1      -9.951   3.483   5.096  1.00  0.00    -0.014 A 
ATOM      2  C   UNL     1     -10.162   2.869   6.330  1.00  0.00     0.028 A 
ATOM      3  C   UNL     1     -10.891   4.385   4.596  1.00  0.00     0.013 A 
ATOM      4  C   UNL     1     -11.313   3.156   7.065  1.00  0.00     0.102 A 
ATOM      5  C   UNL     1     -12.252   4.058   6.565  1.00  0.00     0.130 A 
ATOM      6  C   UNL     1     -12.041   4.673   5.330  1.00  0.00     0.048 A 
ENDROOT
BRANCH   1   7
ATOM      7  C   UNL     1      -8.759   3.185   4.332  1.00  0.00     0.018 A 
ATOM      8  C   UNL     1      -7.649   4.028   4.408  1.00  0.00     0.133 A 
ATOM      9  C   UNL     1      -6.502   3.737   3.670  1.00  0.00     0.079 A 
ATOM     10  C   UNL     1      -8.720   2.051   3.521  1.00  0.00     0.015 A 
ATOM     11  C   UNL     1      -6.463   2.604   2.858  1.00  0.00     0.126 A 
ATOM     12  C   UNL     1      -7.572   1.761   2.784  1.00  0.00     0.040 A 
ATOM     13  F   UNL     1      -7.672   5.123   5.181  1.00  0.00    -0.206 F 
ATOM     14  F   UNL     1      -5.362   2.323   2.150  1.00  0.00    -0.207 F 
ENDBRANCH   1   7
BRANCH   4  15
ATOM     15  C   UNL     1     -11.514   2.505   8.352  1.00  0.00     0.339 C 
ATOM     16  O   UNL     1     -12.575   2.479   8.980  1.00  0.00    -0.246 OA
BRANCH  15  17
ATOM     17  O   UNL     1     -10.382   1.905   8.812  1.00  0.00    -0.478 OA
ATOM     18  H   UNL     1      -9.969   1.335   8.130  1.00  0.00     0.297 HD
ENDBRANCH  15  17
ENDBRANCH   4  15
BRANCH   5  19
ATOM     19  O   UNL     1     -13.383   4.353   7.267  1.00  0.00    -0.507 OA
ATOM     20  H   UNL     1     -13.207   5.115   7.846  1.00  0.00     0.293 HD
ENDBRANCH   5  19
TORSDOF 4
ENDMDL
MODEL 7
REMARK VINA RESULT:    -5.352      4.142      6.430
REMARK INTER + INTRA:          -6.898
REMARK INTER:                  -5.821
REMARK INTRA:                  -1.078
REMARK UNBOUND:                -0.607
REMARK SMILES O=C(O)c1cc(-c2ccc(F)cc2F)ccc1O
REMARK SMILES IDX 6 1 5 2 15 3 4 4 17 5 16 6 7 7 13 8 12 9 8 10 10 11 9 12
REMARK SMILES IDX 14 13 11 14 2 15 1 16 3 17 18 19
REMARK H PARENT 3 18 18 20
ROOT
ATOM      1  C   UNL     1     -10.029   3.198   5.089  1.00  0.00    -0.014 A 
ATOM      2  C   UNL     1     -10.851   4.153   4.491  1.00  0.00     0.028 A 
ATOM      3  C   UNL     1     -10.336   2.711   6.359  1.00  0.00     0.013 A 
ATOM      4  C   UNL     1     -11.981   4.620   5.163  1.00  0.00     0.102 A 
ATOM      5  C   UNL     1     -12.287   4.133   6.433  1.00  0.00     0.130 A 
ATOM      6  C   UNL     1     -11.464   3.178   7.032  1.00  0.00     0.048 A 
ENDROOT
BRANCH   1   7
ATOM      7  C   UNL     1      -8.856   2.714   4.392  1.00  0.00     0.018 A 
ATOM      8  C   UNL     1      -8.924   1.543   3.637  1.00  0.00     0.133 A 
ATOM      9  C   UNL     1      -7.791   1.079   2.968  1.00  0.00     0.079 A 
ATOM     10  C   UNL     1      -7.657   3.421   4.477  1.00  0.00     0.015 A 
ATOM     11  C   UNL     1      -6.592   1.785   3.053  1.00  0.00     0.126 A 
ATOM     12  C   UNL     1      -6.526   2.957   3.808  1.00  0.00     0.040 A 
ATOM     13  F   UNL     1     -10.069   0.850   3.547  1.00  0.00    -0.206 F 
ATOM     14  F   UNL     1      -5.505   1.341   2.411  1.00  0.00    -0.207 F 
ENDBRANCH   1   7
BRANCH   4  15
ATOM     15  C   UNL     1     -12.827   5.617   4.521  1.00  0.00     0.339 C 
ATOM     16  O   UNL     1     -13.787   6.184   5.048  1.00  0.00    -0.246 OA
BRANCH  15  17
ATOM     17  O   UNL     1     -12.444   5.874   3.241  1.00  0.00    -0.478 OA
ATOM     18  H   UNL     1     -11.469   5.867   3.143  1.00  0.00     0.297 HD
ENDBRANCH  15  17
ENDBRANCH   4  15
BRANCH   5  19
ATOM     19  O   UNL     1     -13.387   4.576   7.107  1.00  0.00    -0.507 OA
ATOM     20  H   UNL     1     -13.835   3.817   7.517  1.00  0.00     0.293 HD
ENDBRANCH   5  19
TORSDOF 4
ENDMDL
MODEL 8
REMARK VINA RESULT:    -5.351      4.014      6.274
REMARK INTER + INTRA:          -6.897
REMARK INTER:                  -5.835
REMARK INTRA:                  -1.062
REMARK UNBOUND:                -0.607
REMARK SMILES O=C(O)c1cc(-c2ccc(F)cc2F)ccc1O
REMARK SMILES IDX 6 1 5 2 15 3 4 4 17 5 16 6 7 7 13 8 12 9 8 10 10 11 9 12
REMARK SMILES IDX 14 13 11 14 2 15 1 16 3 17 18 19
REMARK H PARENT 3 18 18 20
ROOT
ATOM      1  C   UNL     1      -9.971   3.467   5.074  1.00  0.00    -0.014 A 
ATOM      2  C   UNL     1     -10.878   4.380   4.538  1.00  0.00     0.028 A 
ATOM      3  C   UNL     1     -10.220   2.882   6.316  1.00  0.00     0.013 A 
ATOM      4  C   UNL     1     -12.036   4.710   5.244  1.00  0.00     0.102 A 
ATOM      5  C   UNL     1     -12.285   4.125   6.486  1.00  0.00     0.130 A 
ATOM      6  C   UNL     1     -11.377   3.211   7.022  1.00  0.00     0.048 A 
ENDROOT
BRANCH   1   7
ATOM      7  C   UNL     1      -8.770   3.125   4.343  1.00  0.00     0.018 A 
ATOM      8  C   UNL     1      -7.652   3.958   4.403  1.00  0.00     0.133 A 
ATOM      9  C   UNL     1      -6.496   3.626   3.697  1.00  0.00     0.079 A 
ATOM     10  C   UNL     1      -8.731   1.960   3.577  1.00  0.00     0.015 A 
ATOM     11  C   UNL     1      -6.458   2.461   2.931  1.00  0.00     0.126 A 
ATOM     12  C   UNL     1      -7.575   1.628   2.872  1.00  0.00     0.040 A 
ATOM     13  F   UNL     1      -7.674   5.083   5.132  1.00  0.00    -0.206 F 
ATOM     14  F   UNL     1      -5.348   2.141   2.252  1.00  0.00    -0.207 F 
ENDBRANCH   1   7
BRANCH   4  15
ATOM     15  C   UNL     1     -12.971   5.665   4.668  1.00  0.00     0.339 C 
ATOM     16  O   UNL     1     -13.847   6.271   5.290  1.00  0.00    -0.246 OA
BRANCH  15  17
ATOM     17  O   UNL     1     -12.781   5.835   3.331  1.00  0.00    -0.478 OA
ATOM     18  H   UNL     1     -13.609   6.091   2.874  1.00  0.00     0.297 HD
ENDBRANCH  15  17
ENDBRANCH   4  15
BRANCH   5  19
ATOM     19  O   UNL     1     -13.410   4.433   7.192  1.00  0.00    -0.507 OA
ATOM     20  H   UNL     1     -13.245   5.234   7.719  1.00  0.00     0.293 HD
ENDBRANCH   5  19
TORSDOF 4
ENDMDL
MODEL 9
REMARK VINA RESULT:    -4.000      6.112      8.498
REMARK INTER + INTRA:          -5.309
REMARK INTER:                  -4.243
REMARK INTRA:                  -1.066
REMARK UNBOUND:                -0.607
REMARK SMILES O=C(O)c1cc(-c2ccc(F)cc2F)ccc1O
REMARK SMILES IDX 6 1 5 2 15 3 4 4 17 5 16 6 7 7 13 8 12 9 8 10 10 11 9 12
REMARK SMILES IDX 14 13 11 14 2 15 1 16 3 17 18 19
REMARK H PARENT 3 18 18 20
ROOT
ATOM      1  C   UNL     1     -11.581   2.960   8.279  1.00  0.00    -0.014 A 
ATOM      2  C   UNL     1     -12.960   3.098   8.430  1.00  0.00     0.028 A 
ATOM      3  C   UNL     1     -10.787   2.643   9.382  1.00  0.00     0.013 A 
ATOM      4  C   UNL     1     -13.546   2.919   9.683  1.00  0.00     0.102 A 
ATOM      5  C   UNL     1     -12.753   2.601  10.785  1.00  0.00     0.130 A 
ATOM      6  C   UNL     1     -11.372   2.463  10.635  1.00  0.00     0.048 A 
ENDROOT
BRANCH   1   7
ATOM      7  C   UNL     1     -10.971   3.147   6.980  1.00  0.00     0.018 A 
ATOM      8  C   UNL     1     -10.968   2.105   6.052  1.00  0.00     0.133 A 
ATOM      9  C   UNL     1     -10.379   2.290   4.800  1.00  0.00     0.079 A 
ATOM     10  C   UNL     1     -10.388   4.372   6.657  1.00  0.00     0.015 A 
ATOM     11  C   UNL     1      -9.795   3.514   4.478  1.00  0.00     0.126 A 
ATOM     12  C   UNL     1      -9.801   4.556   5.406  1.00  0.00     0.040 A 
ATOM     13  F   UNL     1     -11.521   0.921   6.348  1.00  0.00    -0.206 F 
ATOM     14  F   UNL     1      -9.230   3.692   3.277  1.00  0.00    -0.207 F 
ENDBRANCH   1   7
BRANCH   4  15
ATOM     15  C   UNL     1     -14.989   3.067   9.820  1.00  0.00     0.339 C 
ATOM     16  O   UNL     1     -15.603   3.123  10.888  1.00  0.00    -0.246 OA
BRANCH  15  17
ATOM     17  O   UNL     1     -15.618   3.142   8.616  1.00  0.00    -0.478 OA
ATOM     18  H   UNL     1     -15.863   2.256   8.276  1.00  0.00     0.297 HD
ENDBRANCH  15  17
ENDBRANCH   4  15
BRANCH   5  19
ATOM     19  O   UNL     1     -13.306   2.421  12.018  1.00  0.00    -0.507 OA
ATOM     20  H   UNL     1     -13.623   3.279  12.352  1.00  0.00     0.293 HD
ENDBRANCH   5  19
TORSDOF 4
ENDMDL
