MODEL 1
REMARK VINA RESULT:    -5.307      0.000      0.000
REMARK INTER + INTRA:          -7.302
REMARK INTER:                  -6.548
REMARK INTRA:                  -0.754
REMARK UNBOUND:                -0.754
REMARK SMILES Cc1ccc(C(=O)c2cc(O)c(O)c([N+](=O)[O-])c2)cc1
REMARK SMILES IDX 8 1 18 2 9 3 14 4 10 5 12 6 6 7 7 8 5 9 4 10 19 11 3 12
REMARK SMILES IDX 20 13 2 14 1 15 15 16 17 17 16 18 11 19 13 21
REMARK H PARENT 11 20 13 22
ROOT
ATOM      1  C   UNL     1      -7.935   3.083   2.878  1.00  0.00     0.033 A 
ATOM      2  C   UNL     1      -7.581   1.824   3.302  1.00  0.00     0.102 A 
ATOM      3  C   UNL     1      -7.125   3.859   2.083  1.00  0.00     0.063 A 
ATOM      4  C   UNL     1      -6.345   1.310   2.907  1.00  0.00     0.315 A 
ATOM      5  C   UNL     1      -5.889   3.346   1.688  1.00  0.00     0.165 A 
ATOM      6  C   UNL     1      -5.499   2.071   2.100  1.00  0.00     0.237 A 
ENDROOT
BRANCH   1   7
ATOM      7  C   UNL     1      -9.258   3.633   3.300  1.00  0.00     0.193 C 
ATOM      8  O   UNL     1      -9.857   4.361   2.493  1.00  0.00    -0.289 OA
BRANCH   7   9
ATOM      9  C   UNL     1      -9.844   3.344   4.599  1.00  0.00     0.023 A 
ATOM     10  C   UNL     1      -9.679   4.241   5.655  1.00  0.00     0.012 A 
ATOM     11  C   UNL     1     -10.571   2.169   4.790  1.00  0.00     0.012 A 
ATOM     12  C   UNL     1     -10.242   3.963   6.900  1.00  0.00     0.004 A 
ATOM     13  C   UNL     1     -11.134   1.890   6.036  1.00  0.00     0.004 A 
ATOM     14  C   UNL     1     -10.969   2.787   7.092  1.00  0.00    -0.051 A 
ATOM     15  C   UNL     1     -11.569   2.490   8.424  1.00  0.00     0.044 C 
ENDBRANCH   7   9
ENDBRANCH   1   7
BRANCH   4  16
ATOM     16  N   UNL     1      -5.965   0.009   3.337  1.00  0.00     0.066 N 
ATOM     17  O   UNL     1      -6.858  -0.849   3.533  1.00  0.00    -0.258 OA
ATOM     18  O   UNL     1      -4.749  -0.241   3.506  1.00  0.00    -0.258 OA
ENDBRANCH   4  16
BRANCH   5  19
ATOM     19  O   UNL     1      -5.073   4.100   0.900  1.00  0.00    -0.504 OA
ATOM     20  H   UNL     1      -5.548   4.356   0.092  1.00  0.00     0.293 HD
ENDBRANCH   5  19
BRANCH   6  21
ATOM     21  O   UNL     1      -4.288   1.580   1.707  1.00  0.00    -0.500 OA
ATOM     22  H   UNL     1      -4.348   0.619   1.590  1.00  0.00     0.294 HD
ENDBRANCH   6  21
TORSDOF 5
ENDMDL
MODEL 2
REMARK VINA RESULT:    -5.266      1.991      3.533
REMARK INTER + INTRA:          -7.251
REMARK INTER:                  -6.497
REMARK INTRA:                  -0.754
REMARK UNBOUND:                -0.754
REMARK SMILES Cc1ccc(C(=O)c2cc(O)c(O)c([N+](=O)[O-])c2)cc1
REMARK SMILES IDX 8 1 18 2 9 3 14 4 10 5 12 6 6 7 7 8 5 9 4 10 19 11 3 12
REMARK SMILES IDX 20 13 2 14 1 15 15 16 17 17 16 18 11 19 13 21
REMARK H PARENT 11 20 13 22
ROOT
ATOM      1  C   UNL     1      -7.274   2.266   4.353  1.00  0.00     0.033 A 
ATOM      2  C   UNL     1      -6.991   3.330   3.528  1.00  0.00     0.102 A 
ATOM      3  C   UNL     1      -6.629   1.055   4.257  1.00  0.00     0.063 A 
ATOM      4  C   UNL     1      -6.006   3.174   2.553  1.00  0.00     0.315 A 
ATOM      5  C   UNL     1      -5.645   0.899   3.281  1.00  0.00     0.165 A 
ATOM      6  C   UNL     1      -5.333   1.960   2.429  1.00  0.00     0.237 A 
ENDROOT
BRANCH   1   7
ATOM      7  C   UNL     1      -8.329   2.432   5.398  1.00  0.00     0.193 C 
ATOM      8  O   UNL     1      -8.168   1.829   6.470  1.00  0.00    -0.289 OA
BRANCH   7   9
ATOM      9  C   UNL     1      -9.506   3.260   5.192  1.00  0.00     0.023 A 
ATOM     10  C   UNL     1     -10.702   2.680   4.770  1.00  0.00     0.012 A 
ATOM     11  C   UNL     1      -9.439   4.635   5.418  1.00  0.00     0.012 A 
ATOM     12  C   UNL     1     -11.831   3.476   4.574  1.00  0.00     0.004 A 
ATOM     13  C   UNL     1     -10.568   5.431   5.222  1.00  0.00     0.004 A 
ATOM     14  C   UNL     1     -11.765   4.851   4.799  1.00  0.00    -0.051 A 
ATOM     15  C   UNL     1     -12.971   5.701   4.588  1.00  0.00     0.044 C 
ENDBRANCH   7   9
ENDBRANCH   1   7
BRANCH   4  16
ATOM     16  N   UNL     1      -5.703   4.266   1.693  1.00  0.00     0.066 N 
ATOM     17  O   UNL     1      -5.843   5.435   2.126  1.00  0.00    -0.258 OA
ATOM     18  O   UNL     1      -5.303   4.028   0.530  1.00  0.00    -0.258 OA
ENDBRANCH   4  16
BRANCH   5  19
ATOM     19  O   UNL     1      -4.995  -0.293   3.171  1.00  0.00    -0.504 OA
ATOM     20  H   UNL     1      -5.641  -1.004   3.029  1.00  0.00     0.293 HD
ENDBRANCH   5  19
BRANCH   6  21
ATOM     21  O   UNL     1      -4.367   1.795   1.478  1.00  0.00    -0.500 OA
ATOM     22  H   UNL     1      -3.782   2.568   1.471  1.00  0.00     0.294 HD
ENDBRANCH   6  21
TORSDOF 5
ENDMDL
MODEL 3
REMARK VINA RESULT:    -4.548      3.537      7.130
REMARK INTER + INTRA:          -6.365
REMARK INTER:                  -5.424
REMARK INTRA:                  -0.942
REMARK UNBOUND:                -0.754
REMARK SMILES Cc1ccc(C(=O)c2cc(O)c(O)c([N+](=O)[O-])c2)cc1
REMARK SMILES IDX 8 1 18 2 9 3 14 4 10 5 12 6 6 7 7 8 5 9 4 10 19 11 3 12
REMARK SMILES IDX 20 13 2 14 1 15 15 16 17 17 16 18 11 19 13 21
REMARK H PARENT 11 20 13 22
ROOT
ATOM      1  C   UNL     1     -10.584   2.723   5.192  1.00  0.00     0.033 A 
ATOM      2  C   UNL     1     -11.327   3.789   4.740  1.00  0.00     0.102 A 
ATOM      3  C   UNL     1     -10.720   2.201   6.456  1.00  0.00     0.063 A 
ATOM      4  C   UNL     1     -12.261   4.364   5.602  1.00  0.00     0.315 A 
ATOM      5  C   UNL     1     -11.653   2.776   7.319  1.00  0.00     0.165 A 
ATOM      6  C   UNL     1     -12.424   3.858   6.892  1.00  0.00     0.237 A 
ENDROOT
BRANCH   1   7
ATOM      7  C   UNL     1      -9.584   2.107   4.269  1.00  0.00     0.193 C 
ATOM      8  O   UNL     1      -9.686   0.890   4.049  1.00  0.00    -0.289 OA
BRANCH   7   9
ATOM      9  C   UNL     1      -8.525   2.878   3.639  1.00  0.00     0.023 A 
ATOM     10  C   UNL     1      -7.773   3.778   4.396  1.00  0.00     0.012 A 
ATOM     11  C   UNL     1      -8.260   2.720   2.279  1.00  0.00     0.012 A 
ATOM     12  C   UNL     1      -6.757   4.518   3.792  1.00  0.00     0.004 A 
ATOM     13  C   UNL     1      -7.243   3.460   1.675  1.00  0.00     0.004 A 
ATOM     14  C   UNL     1      -6.491   4.359   2.431  1.00  0.00    -0.051 A 
ATOM     15  C   UNL     1      -5.406   5.151   1.786  1.00  0.00     0.044 C 
ENDBRANCH   7   9
ENDBRANCH   1   7
BRANCH   4  16
ATOM     16  N   UNL     1     -13.037   5.466   5.149  1.00  0.00     0.066 N 
ATOM     17  O   UNL     1     -12.540   6.251   4.306  1.00  0.00    -0.258 OA
ATOM     18  O   UNL     1     -14.194   5.620   5.605  1.00  0.00    -0.258 OA
ENDBRANCH   4  16
BRANCH   5  19
ATOM     19  O   UNL     1     -11.802   2.272   8.576  1.00  0.00    -0.504 OA
ATOM     20  H   UNL     1     -12.712   1.951   8.692  1.00  0.00     0.293 HD
ENDBRANCH   5  19
BRANCH   6  21
ATOM     21  O   UNL     1     -13.334   4.412   7.744  1.00  0.00    -0.500 OA
ATOM     22  H   UNL     1     -13.183   5.369   7.806  1.00  0.00     0.294 HD
ENDBRANCH   6  21
TORSDOF 5
ENDMDL
MODEL 4
REMARK VINA RESULT:    -4.539      3.752      6.859
REMARK INTER + INTRA:          -6.355
REMARK INTER:                  -5.453
REMARK INTRA:                  -0.902
REMARK UNBOUND:                -0.754
REMARK SMILES Cc1ccc(C(=O)c2cc(O)c(O)c([N+](=O)[O-])c2)cc1
REMARK SMILES IDX 8 1 18 2 9 3 14 4 10 5 12 6 6 7 7 8 5 9 4 10 19 11 3 12
REMARK SMILES IDX 20 13 2 14 1 15 15 16 17 17 16 18 11 19 13 21
REMARK H PARENT 11 20 13 22
ROOT
ATOM      1  C   UNL     1     -10.717   3.032   5.165  1.00  0.00     0.033 A 
ATOM      2  C   UNL     1     -10.953   2.676   6.473  1.00  0.00     0.102 A 
ATOM      3  C   UNL     1     -11.433   4.011   4.518  1.00  0.00     0.063 A 
ATOM      4  C   UNL     1     -11.961   3.338   7.173  1.00  0.00     0.315 A 
ATOM      5  C   UNL     1     -12.442   4.673   5.217  1.00  0.00     0.165 A 
ATOM      6  C   UNL     1     -12.706   4.337   6.546  1.00  0.00     0.237 A 
ENDROOT
BRANCH   1   7
ATOM      7  C   UNL     1      -9.637   2.323   4.415  1.00  0.00     0.193 C 
ATOM      8  O   UNL     1      -9.685   1.084   4.383  1.00  0.00    -0.289 OA
BRANCH   7   9
ATOM      9  C   UNL     1      -8.561   3.032   3.741  1.00  0.00     0.023 A 
ATOM     10  C   UNL     1      -7.762   3.927   4.452  1.00  0.00     0.012 A 
ATOM     11  C   UNL     1      -8.329   2.818   2.382  1.00  0.00     0.012 A 
ATOM     12  C   UNL     1      -6.730   4.607   3.805  1.00  0.00     0.004 A 
ATOM     13  C   UNL     1      -7.297   3.498   1.734  1.00  0.00     0.004 A 
ATOM     14  C   UNL     1      -6.497   4.392   2.446  1.00  0.00    -0.051 A 
ATOM     15  C   UNL     1      -5.395   5.120   1.754  1.00  0.00     0.044 C 
ENDBRANCH   7   9
ENDBRANCH   1   7
BRANCH   4  16
ATOM     16  N   UNL     1     -12.216   2.981   8.525  1.00  0.00     0.066 N 
ATOM     17  O   UNL     1     -11.339   2.347   9.161  1.00  0.00    -0.258 OA
ATOM     18  O   UNL     1     -13.308   3.311   9.044  1.00  0.00    -0.258 OA
ENDBRANCH   4  16
BRANCH   5  19
ATOM     19  O   UNL     1     -13.161   5.647   4.592  1.00  0.00    -0.504 OA
ATOM     20  H   UNL     1     -14.040   5.304   4.361  1.00  0.00     0.293 HD
ENDBRANCH   5  19
BRANCH   6  21
ATOM     21  O   UNL     1     -13.695   4.992   7.220  1.00  0.00    -0.500 OA
ATOM     22  H   UNL     1     -14.041   4.423   7.925  1.00  0.00     0.294 HD
ENDBRANCH   6  21
TORSDOF 5
ENDMDL
MODEL 5
REMARK VINA RESULT:    -4.513      3.806      7.046
REMARK INTER + INTRA:          -6.322
REMARK INTER:                  -5.373
REMARK INTRA:                  -0.949
REMARK UNBOUND:                -0.754
REMARK SMILES Cc1ccc(C(=O)c2cc(O)c(O)c([N+](=O)[O-])c2)cc1
REMARK SMILES IDX 8 1 18 2 9 3 14 4 10 5 12 6 6 7 7 8 5 9 4 10 19 11 3 12
REMARK SMILES IDX 20 13 2 14 1 15 15 16 17 17 16 18 11 19 13 21
REMARK H PARENT 11 20 13 22
ROOT
ATOM      1  C   UNL     1     -10.168   4.047   5.572  1.00  0.00     0.033 A 
ATOM      2  C   UNL     1     -11.212   4.771   5.043  1.00  0.00     0.102 A 
ATOM      3  C   UNL     1     -10.272   3.333   6.742  1.00  0.00     0.063 A 
ATOM      4  C   UNL     1     -12.429   4.780   5.724  1.00  0.00     0.315 A 
ATOM      5  C   UNL     1     -11.489   3.342   7.423  1.00  0.00     0.165 A 
ATOM      6  C   UNL     1     -12.568   4.066   6.914  1.00  0.00     0.237 A 
ENDROOT
BRANCH   1   7
ATOM      7  C   UNL     1      -8.864   4.037   4.842  1.00  0.00     0.193 C 
ATOM      8  O   UNL     1      -8.351   5.135   4.581  1.00  0.00    -0.289 OA
BRANCH   7   9
ATOM      9  C   UNL     1      -8.203   2.805   4.444  1.00  0.00     0.023 A 
ATOM     10  C   UNL     1      -6.883   2.566   4.829  1.00  0.00     0.012 A 
ATOM     11  C   UNL     1      -8.888   1.861   3.679  1.00  0.00     0.012 A 
ATOM     12  C   UNL     1      -6.249   1.383   4.447  1.00  0.00     0.004 A 
ATOM     13  C   UNL     1      -8.254   0.678   3.297  1.00  0.00     0.004 A 
ATOM     14  C   UNL     1      -6.934   0.439   3.681  1.00  0.00    -0.051 A 
ATOM     15  C   UNL     1      -6.255  -0.824   3.273  1.00  0.00     0.044 C 
ENDBRANCH   7   9
ENDBRANCH   1   7
BRANCH   4  16
ATOM     16  N   UNL     1     -13.517   5.523   5.191  1.00  0.00     0.066 N 
ATOM     17  O   UNL     1     -13.545   5.758   3.958  1.00  0.00    -0.258 OA
ATOM     18  O   UNL     1     -14.417   5.922   5.966  1.00  0.00    -0.258 OA
ENDBRANCH   4  16
BRANCH   5  19
ATOM     19  O   UNL     1     -11.611   2.640   8.585  1.00  0.00    -0.504 OA
ATOM     20  H   UNL     1     -10.801   2.127   8.741  1.00  0.00     0.293 HD
ENDBRANCH   5  19
BRANCH   6  21
ATOM     21  O   UNL     1     -13.754   4.067   7.590  1.00  0.00    -0.500 OA
ATOM     22  H   UNL     1     -14.452   4.431   7.023  1.00  0.00     0.294 HD
ENDBRANCH   6  21
TORSDOF 5
ENDMDL
MODEL 6
REMARK VINA RESULT:    -4.503      1.777      2.065
REMARK INTER + INTRA:          -6.310
REMARK INTER:                  -5.675
REMARK INTRA:                  -0.634
REMARK UNBOUND:                -0.754
REMARK SMILES Cc1ccc(C(=O)c2cc(O)c(O)c([N+](=O)[O-])c2)cc1
REMARK SMILES IDX 8 1 18 2 9 3 14 4 10 5 12 6 6 7 7 8 5 9 4 10 19 11 3 12
REMARK SMILES IDX 20 13 2 14 1 15 15 16 17 17 16 18 11 19 13 21
REMARK H PARENT 11 20 13 22
ROOT
ATOM      1  C   UNL     1      -6.519   3.563   3.830  1.00  0.00     0.033 A 
ATOM      2  C   UNL     1      -6.326   2.226   4.093  1.00  0.00     0.102 A 
ATOM      3  C   UNL     1      -6.116   4.158   2.659  1.00  0.00     0.063 A 
ATOM      4  C   UNL     1      -5.695   1.441   3.129  1.00  0.00     0.315 A 
ATOM      5  C   UNL     1      -5.483   3.373   1.694  1.00  0.00     0.165 A 
ATOM      6  C   UNL     1      -5.273   2.014   1.929  1.00  0.00     0.237 A 
ENDROOT
BRANCH   1   7
ATOM      7  C   UNL     1      -7.195   4.404   4.863  1.00  0.00     0.193 C 
ATOM      8  O   UNL     1      -6.471   5.081   5.608  1.00  0.00    -0.289 OA
BRANCH   7   9
ATOM      9  C   UNL     1      -8.641   4.446   5.009  1.00  0.00     0.023 A 
ATOM     10  C   UNL     1      -9.268   5.628   5.405  1.00  0.00     0.012 A 
ATOM     11  C   UNL     1      -9.402   3.306   4.754  1.00  0.00     0.012 A 
ATOM     12  C   UNL     1     -10.655   5.669   5.545  1.00  0.00     0.004 A 
ATOM     13  C   UNL     1     -10.790   3.346   4.894  1.00  0.00     0.004 A 
ATOM     14  C   UNL     1     -11.417   4.528   5.290  1.00  0.00    -0.051 A 
ATOM     15  C   UNL     1     -12.899   4.571   5.441  1.00  0.00     0.044 C 
ENDBRANCH   7   9
ENDBRANCH   1   7
BRANCH   4  16
ATOM     16  N   UNL     1      -5.489   0.058   3.387  1.00  0.00     0.066 N 
ATOM     17  O   UNL     1      -4.316  -0.389   3.396  1.00  0.00    -0.258 OA
ATOM     18  O   UNL     1      -6.484  -0.674   3.598  1.00  0.00    -0.258 OA
ENDBRANCH   4  16
BRANCH   5  19
ATOM     19  O   UNL     1      -5.078   3.946   0.526  1.00  0.00    -0.504 OA
ATOM     20  H   UNL     1      -4.545   4.736   0.719  1.00  0.00     0.293 HD
ENDBRANCH   5  19
BRANCH   6  21
ATOM     21  O   UNL     1      -4.654   1.256   0.978  1.00  0.00    -0.500 OA
ATOM     22  H   UNL     1      -3.868   0.834   1.358  1.00  0.00     0.294 HD
ENDBRANCH   6  21
TORSDOF 5
ENDMDL
MODEL 7
REMARK VINA RESULT:    -4.453      3.717      6.581
REMARK INTER + INTRA:          -6.249
REMARK INTER:                  -5.250
REMARK INTRA:                  -0.999
REMARK UNBOUND:                -0.754
REMARK SMILES Cc1ccc(C(=O)c2cc(O)c(O)c([N+](=O)[O-])c2)cc1
REMARK SMILES IDX 8 1 18 2 9 3 14 4 10 5 12 6 6 7 7 8 5 9 4 10 19 11 3 12
REMARK SMILES IDX 20 13 2 14 1 15 15 16 17 17 16 18 11 19 13 21
REMARK H PARENT 11 20 13 22
ROOT
ATOM      1  C   UNL     1     -10.150   4.065   5.545  1.00  0.00     0.033 A 
ATOM      2  C   UNL     1     -10.262   3.348   6.714  1.00  0.00     0.102 A 
ATOM      3  C   UNL     1     -11.185   4.800   5.019  1.00  0.00     0.063 A 
ATOM      4  C   UNL     1     -11.479   3.368   7.395  1.00  0.00     0.315 A 
ATOM      5  C   UNL     1     -12.403   4.820   5.699  1.00  0.00     0.165 A 
ATOM      6  C   UNL     1     -12.550   4.104   6.888  1.00  0.00     0.237 A 
ENDROOT
BRANCH   1   7
ATOM      7  C   UNL     1      -8.846   4.043   4.816  1.00  0.00     0.193 C 
ATOM      8  O   UNL     1      -8.328   5.137   4.544  1.00  0.00    -0.289 OA
BRANCH   7   9
ATOM      9  C   UNL     1      -8.190   2.805   4.429  1.00  0.00     0.023 A 
ATOM     10  C   UNL     1      -6.876   2.558   4.825  1.00  0.00     0.012 A 
ATOM     11  C   UNL     1      -8.875   1.863   3.661  1.00  0.00     0.012 A 
ATOM     12  C   UNL     1      -6.247   1.370   4.454  1.00  0.00     0.004 A 
ATOM     13  C   UNL     1      -8.246   0.674   3.290  1.00  0.00     0.004 A 
ATOM     14  C   UNL     1      -6.931   0.427   3.687  1.00  0.00    -0.051 A 
ATOM     15  C   UNL     1      -6.258  -0.842   3.289  1.00  0.00     0.044 C 
ENDBRANCH   7   9
ENDBRANCH   1   7
BRANCH   4  16
ATOM     16  N   UNL     1     -11.610   2.632   8.604  1.00  0.00     0.066 N 
ATOM     17  O   UNL     1     -10.604   2.494   9.342  1.00  0.00    -0.258 OA
ATOM     18  O   UNL     1     -12.725   2.143   8.898  1.00  0.00    -0.258 OA
ENDBRANCH   4  16
BRANCH   5  19
ATOM     19  O   UNL     1     -13.440   5.544   5.193  1.00  0.00    -0.504 OA
ATOM     20  H   UNL     1     -14.026   4.961   4.684  1.00  0.00     0.293 HD
ENDBRANCH   5  19
BRANCH   6  21
ATOM     21  O   UNL     1     -13.745   4.132   7.545  1.00  0.00    -0.500 OA
ATOM     22  H   UNL     1     -14.292   4.854   7.197  1.00  0.00     0.294 HD
ENDBRANCH   6  21
TORSDOF 5
ENDMDL
MODEL 8
REMARK VINA RESULT:    -4.436      2.332      4.034
REMARK INTER + INTRA:          -6.227
REMARK INTER:                  -5.228
REMARK INTRA:                  -0.999
REMARK UNBOUND:                -0.754
REMARK SMILES Cc1ccc(C(=O)c2cc(O)c(O)c([N+](=O)[O-])c2)cc1
REMARK SMILES IDX 8 1 18 2 9 3 14 4 10 5 12 6 6 7 7 8 5 9 4 10 19 11 3 12
REMARK SMILES IDX 20 13 2 14 1 15 15 16 17 17 16 18 11 19 13 21
REMARK H PARENT 11 20 13 22
ROOT
ATOM      1  C   UNL     1     -10.556   2.589   5.088  1.00  0.00     0.033 A 
ATOM      2  C   UNL     1      -9.273   2.937   4.735  1.00  0.00     0.102 A 
ATOM      3  C   UNL     1     -11.165   1.438   4.648  1.00  0.00     0.063 A 
ATOM      4  C   UNL     1      -8.558   2.085   3.894  1.00  0.00     0.315 A 
ATOM      5  C   UNL     1     -10.450   0.585   3.807  1.00  0.00     0.165 A 
ATOM      6  C   UNL     1      -9.146   0.908   3.430  1.00  0.00     0.237 A 
ENDROOT
BRANCH   1   7
ATOM      7  C   UNL     1     -11.322   3.502   5.989  1.00  0.00     0.193 C 
ATOM      8  O   UNL     1     -11.767   4.549   5.493  1.00  0.00    -0.289 OA
BRANCH   7   9
ATOM      9  C   UNL     1     -11.552   3.201   7.393  1.00  0.00     0.023 A 
ATOM     10  C   UNL     1     -10.474   2.909   8.229  1.00  0.00     0.012 A 
ATOM     11  C   UNL     1     -12.849   3.204   7.904  1.00  0.00     0.012 A 
ATOM     12  C   UNL     1     -10.694   2.620   9.575  1.00  0.00     0.004 A 
ATOM     13  C   UNL     1     -13.070   2.915   9.251  1.00  0.00     0.004 A 
ATOM     14  C   UNL     1     -11.992   2.623  10.087  1.00  0.00    -0.051 A 
ATOM     15  C   UNL     1     -12.227   2.313  11.526  1.00  0.00     0.044 C 
ENDBRANCH   7   9
ENDBRANCH   1   7
BRANCH   4  16
ATOM     16  N   UNL     1      -7.231   2.431   3.521  1.00  0.00     0.066 N 
ATOM     17  O   UNL     1      -6.508   3.041   4.346  1.00  0.00    -0.258 OA
ATOM     18  O   UNL     1      -6.821   2.116   2.379  1.00  0.00    -0.258 OA
ENDBRANCH   4  16
BRANCH   5  19
ATOM     19  O   UNL     1     -11.037  -0.561   3.361  1.00  0.00    -0.504 OA
ATOM     20  H   UNL     1     -11.431  -0.406   2.487  1.00  0.00     0.293 HD
ENDBRANCH   5  19
BRANCH   6  21
ATOM     21  O   UNL     1      -8.457   0.066   2.607  1.00  0.00    -0.500 OA
ATOM     22  H   UNL     1      -8.811   0.128   1.706  1.00  0.00     0.294 HD
ENDBRANCH   6  21
TORSDOF 5
ENDMDL
MODEL 9
REMARK VINA RESULT:    -4.285      1.948      2.527
REMARK INTER + INTRA:          -6.041
REMARK INTER:                  -5.360
REMARK INTRA:                  -0.681
REMARK UNBOUND:                -0.754
REMARK SMILES Cc1ccc(C(=O)c2cc(O)c(O)c([N+](=O)[O-])c2)cc1
REMARK SMILES IDX 8 1 18 2 9 3 14 4 10 5 12 6 6 7 7 8 5 9 4 10 19 11 3 12
REMARK SMILES IDX 20 13 2 14 1 15 15 16 17 17 16 18 11 19 13 21
REMARK H PARENT 11 20 13 22
ROOT
ATOM      1  C   UNL     1      -7.762   2.560   4.517  1.00  0.00     0.033 A 
ATOM      2  C   UNL     1      -7.257   1.297   4.312  1.00  0.00     0.102 A 
ATOM      3  C   UNL     1      -7.282   3.670   3.864  1.00  0.00     0.063 A 
ATOM      4  C   UNL     1      -6.214   1.135   3.400  1.00  0.00     0.315 A 
ATOM      5  C   UNL     1      -6.238   3.509   2.952  1.00  0.00     0.165 A 
ATOM      6  C   UNL     1      -5.704   2.240   2.720  1.00  0.00     0.237 A 
ENDROOT
BRANCH   1   7
ATOM      7  C   UNL     1      -8.879   2.734   5.494  1.00  0.00     0.193 C 
ATOM      8  O   UNL     1      -8.776   2.152   6.584  1.00  0.00    -0.289 OA
BRANCH   7   9
ATOM      9  C   UNL     1     -10.049   3.546   5.203  1.00  0.00     0.023 A 
ATOM     10  C   UNL     1     -11.211   2.946   4.715  1.00  0.00     0.012 A 
ATOM     11  C   UNL     1     -10.012   4.924   5.412  1.00  0.00     0.012 A 
ATOM     12  C   UNL     1     -12.334   3.725   4.437  1.00  0.00     0.004 A 
ATOM     13  C   UNL     1     -11.135   5.704   5.133  1.00  0.00     0.004 A 
ATOM     14  C   UNL     1     -12.296   5.104   4.646  1.00  0.00    -0.051 A 
ATOM     15  C   UNL     1     -13.496   5.936   4.347  1.00  0.00     0.044 C 
ENDBRANCH   7   9
ENDBRANCH   1   7
BRANCH   4  16
ATOM     16  N   UNL     1      -5.683  -0.165   3.177  1.00  0.00     0.066 N 
ATOM     17  O   UNL     1      -6.443  -1.064   2.743  1.00  0.00    -0.258 OA
ATOM     18  O   UNL     1      -4.472  -0.374   3.419  1.00  0.00    -0.258 OA
ENDBRANCH   4  16
BRANCH   5  19
ATOM     19  O   UNL     1      -5.750   4.598   2.295  1.00  0.00    -0.504 OA
ATOM     20  H   UNL     1      -6.191   4.683   1.433  1.00  0.00     0.293 HD
ENDBRANCH   5  19
BRANCH   6  21
ATOM     21  O   UNL     1      -4.684   2.095   1.825  1.00  0.00    -0.500 OA
ATOM     22  H   UNL     1      -3.942   2.664   2.082  1.00  0.00     0.294 HD
ENDBRANCH   6  21
TORSDOF 5
ENDMDL
